/*--------------------------------*- C++ -*----------------------------------*\
| =========                 |                                                 |
| \\      /  F ield         | OpenFOAM: The Open Source CFD Toolbox           |
|  \\    /   O peration     | Version:  2012                                  |
|   \\  /    A nd           | Website:  www.openfoam.com                      |
|    \\/     M anipulation  |                                                 |
\*---------------------------------------------------------------------------*/
FoamFile
{
    version     2.0;
    format      ascii;
    class       pointVectorField;
    location    "0.105/solid";
    object      pointD;
}
// * * * * * * * * * * * * * * * * * * * * * * * * * * * * * * * * * * * * * //

dimensions      [0 1 0 0 0 0 0];


internalField   nonuniform List<vector> 
5349
(
(-2.98205e-11 -3.87944e-11 -1.69657e-11)
(-3.82379e-12 -1.55151e-12 4.00327e-12)
(5.69474e-13 2.25614e-12 -2.74101e-12)
(2.70687e-11 9.82652e-12 1.40897e-11)
(8.01953e-12 -2.75838e-12 1.27267e-12)
(1.01109e-11 -3.22585e-14 -3.40464e-13)
(5.38911e-12 1.10456e-12 8.90878e-12)
(1.00327e-11 -1.33277e-13 -2.62681e-13)
(-9.12389e-12 5.43353e-13 -2.76348e-12)
(5.61369e-11 6.53299e-12 2.71729e-11)
(-4.75435e-12 -1.69008e-11 -3.00469e-12)
(2.36173e-11 2.93088e-11 6.35861e-11)
(-5.46658e-12 -2.24521e-12 2.28237e-12)
(-4.97529e-12 -1.73754e-13 1.32062e-12)
(2.35314e-11 1.18257e-11 1.73666e-12)
(1.21489e-12 3.24402e-12 2.68574e-12)
(-4.94253e-10 1.08519e-10 -2.21003e-10)
(3.6623e-12 1.01138e-12 -2.18892e-13)
(2.25526e-10 1.10336e-09 3.0019e-11)
(4.19129e-11 -3.38057e-11 1.07552e-11)
(-3.42349e-12 4.59557e-14 -4.35206e-12)
(9.31373e-12 -7.21877e-13 -2.61066e-15)
(-4.18923e-12 -5.91127e-13 1.40425e-12)
(1.01705e-11 -7.6553e-14 -3.34106e-13)
(1.00998e-11 4.54378e-14 -3.37201e-13)
(1.60979e-10 8.62091e-10 1.18836e-10)
(2.39156e-10 1.17904e-09 1.64465e-11)
(5.40927e-12 1.33177e-11 -1.37523e-11)
(1.1001e-12 4.1789e-12 -2.8193e-12)
(3.50512e-12 -9.2579e-13 7.9225e-13)
(-4.72662e-12 -3.55876e-13 1.35663e-12)
(-1.87043e-12 -1.84842e-12 1.43269e-12)
(-5.1042e-12 1.0866e-13 1.30143e-12)
(4.19663e-11 -1.84432e-11 3.06127e-12)
(4.16859e-11 -3.40355e-11 -1.19409e-12)
(1.58341e-10 -2.04553e-11 7.07564e-11)
(1.41449e-10 1.65652e-10 1.05884e-10)
(4.20963e-11 -6.5231e-13 5.51056e-12)
(-1.26472e-10 2.00397e-10 -5.77158e-11)
(6.3963e-11 1.7465e-11 -3.15375e-11)
(-2.24563e-12 1.33652e-10 3.05296e-10)
(3.30541e-10 4.69612e-10 7.19882e-11)
(-3.15156e-11 3.23715e-11 5.94264e-11)
(-2.31985e-10 1.58027e-10 -1.11863e-10)
(1.06382e-12 3.45814e-11 1.93227e-10)
(-4.09496e-11 1.54033e-11 1.47142e-10)
(3.45499e-10 5.018e-10 2.3071e-11)
(-1.60704e-11 -3.18172e-11 -1.05176e-11)
(1.81881e-12 -8.77453e-13 1.32357e-11)
(7.96391e-12 2.19524e-11 5.8943e-11)
(-7.29569e-12 -1.43595e-12 1.92836e-12)
(-6.5288e-12 -1.96072e-13 1.23274e-12)
(-4.84616e-12 2.76833e-14 3.52746e-13)
(-4.14603e-12 -1.99943e-12 1.89867e-12)
(-7.99012e-13 2.11962e-12 6.7113e-13)
(1.37633e-12 3.76468e-12 -1.13119e-11)
(-6.41819e-12 6.92484e-12 -1.28812e-11)
(8.72166e-12 3.55335e-12 2.41372e-10)
(-8.42501e-14 -2.07479e-12 -1.58214e-12)
(3.09933e-11 1.27413e-11 3.46403e-11)
(2.3265e-11 9.91651e-12 6.85723e-12)
(1.99333e-10 5.43074e-10 4.26887e-11)
(9.01258e-11 8.63286e-12 1.4906e-11)
(-6.58515e-12 1.67821e-13 -5.86054e-12)
(5.11532e-13 -2.51311e-12 4.68402e-12)
(2.28362e-12 9.76409e-13 2.5156e-12)
(9.26509e-12 -2.74627e-12 9.87598e-14)
(-6.38961e-12 -5.45889e-13 1.32937e-12)
(-1.31805e-13 -7.75032e-16 -2.8952e-12)
(1.2321e-12 -1.07975e-13 3.62029e-12)
(1.01524e-11 -6.34949e-14 -3.35602e-13)
(1.00839e-11 9.92558e-15 -3.27345e-13)
(-1.90447e-10 6.02156e-11 2.4162e-11)
(-9.10337e-13 7.61947e-12 3.94834e-12)
(-5.47598e-11 -5.84617e-12 1.32485e-11)
(2.88304e-12 4.92048e-12 3.87784e-12)
(9.13468e-12 1.04878e-11 -1.62438e-12)
(9.83276e-12 -2.40572e-13 -1.49761e-13)
(-2.4305e-13 1.04194e-14 -3.0425e-12)
(1.7031e-12 -2.0097e-13 3.57952e-12)
(1.01397e-11 -8.81244e-14 -3.03841e-13)
(1.01515e-11 6.37358e-14 -3.43637e-13)
(1.94691e-10 -1.08237e-10 3.40112e-11)
(6.54054e-11 8.7238e-10 9.21385e-11)
(2.76809e-11 1.09925e-10 5.20222e-11)
(3.87863e-10 1.48133e-10 7.36977e-11)
(2.0622e-10 1.05951e-09 1.37124e-11)
(5.26317e-10 2.02795e-10 4.89574e-12)
(3.73625e-12 -2.00422e-13 -3.42701e-12)
(1.639e-11 -6.21688e-12 1.87954e-12)
(3.33478e-10 -9.49489e-11 1.72223e-10)
(-5.36462e-13 -7.62993e-12 -2.21074e-11)
(1.00427e-11 3.16128e-12 7.96818e-13)
(3.09918e-11 -1.58088e-11 9.1568e-12)
(7.38813e-11 2.50424e-10 2.43507e-10)
(8.13853e-12 -6.37453e-12 7.86541e-12)
(1.56205e-10 4.05236e-10 1.14188e-10)
(7.19523e-11 2.95677e-11 4.49263e-11)
(3.70976e-13 -2.59534e-12 -7.01384e-12)
(-4.48274e-12 3.13966e-12 1.95913e-12)
(-3.28671e-12 -3.71453e-12 1.35717e-12)
(-5.50942e-12 -2.84615e-12 1.83087e-12)
(-6.43186e-12 -3.94525e-13 1.27128e-12)
(-4.85149e-12 -2.92135e-13 1.35089e-12)
(-5.01368e-12 -4.17879e-14 1.32697e-12)
(-6.63998e-12 4.46672e-14 1.21447e-12)
(1.97048e-10 5.67211e-10 8.22814e-12)
(9.23311e-11 5.90133e-12 3.67007e-13)
(5.83913e-12 3.75082e-11 8.54348e-12)
(3.74361e-12 2.99274e-12 -1.29685e-12)
(4.2073e-12 4.26272e-12 -1.80276e-12)
(6.76422e-11 4.53984e-11 3.77566e-12)
(-5.50991e-11 3.40616e-11 -6.70009e-11)
(-1.68969e-11 2.74131e-11 1.59501e-10)
(4.28693e-12 6.59058e-12 -1.71248e-12)
(5.95353e-12 5.54655e-12 3.88355e-12)
(2.07294e-10 1.06378e-09 6.08407e-11)
(1.67634e-10 1.05444e-09 3.72646e-11)
(2.34862e-10 1.12603e-09 2.82023e-11)
(5.34249e-10 2.04169e-10 6.23301e-11)
(4.25764e-11 -3.1956e-11 2.16144e-12)
(4.14659e-11 -3.24317e-11 2.09275e-12)
(-3.86395e-11 5.10992e-12 -1.40919e-11)
(-1.91428e-12 8.09067e-12 -2.04717e-12)
(-7.10831e-13 5.27002e-14 -3.46802e-12)
(2.43317e-12 -1.15209e-12 3.06658e-12)
(-4.4728e-12 -4.20812e-13 1.39951e-12)
(-3.62433e-12 -1.23096e-12 1.43933e-12)
(-1.2257e-13 3.55805e-15 -2.9414e-12)
(1.39644e-12 -1.85844e-13 3.65334e-12)
(-1.83626e-13 5.75533e-16 -2.91337e-12)
(1.1705e-12 1.26611e-13 3.60927e-12)
(-5.10789e-12 2.21444e-13 1.30502e-12)
(8.94319e-11 -3.28512e-11 1.9987e-11)
(2.46265e-10 -2.79066e-10 1.09396e-10)
(8.20116e-11 1.60226e-10 1.3561e-10)
(1.42524e-10 7.75376e-11 3.06973e-11)
(3.75905e-11 3.062e-10 1.71288e-10)
(2.49493e-10 3.87376e-10 1.01902e-10)
(3.59983e-10 5.01299e-10 6.99422e-12)
(5.21573e-11 4.49466e-11 -1.19214e-11)
(2.61665e-11 1.0228e-11 -2.02653e-11)
(2.37675e-10 1.1767e-10 4.1582e-10)
(-8.11105e-11 7.6926e-11 1.70267e-11)
(-6.40874e-10 1.88861e-10 -2.86782e-10)
(1.92223e-10 5.12295e-10 8.00539e-11)
(1.09467e-11 1.79088e-11 -8.43092e-12)
(-1.60677e-11 4.47159e-11 1.73859e-10)
(-9.50201e-12 4.98983e-11 1.97404e-10)
(1.44253e-10 1.02136e-09 5.54583e-11)
(5.35134e-10 1.66006e-10 5.16177e-11)
(3.48246e-10 4.97309e-10 4.99397e-11)
(-5.20059e-11 2.4637e-11 1.3876e-10)
(-1.33754e-10 2.6588e-11 3.86431e-11)
(-1.16403e-11 2.29473e-11 1.79139e-10)
(1.41847e-11 4.55874e-11 1.93716e-10)
(1.85472e-10 1.04655e-09 2.4883e-11)
(5.01744e-10 2.25252e-10 2.27332e-11)
(1.9754e-10 5.53836e-10 2.21074e-11)
(1.13344e-11 6.77887e-12 -7.20872e-12)
(-7.23679e-12 9.18075e-13 9.03237e-13)
(1.67284e-11 3.6766e-12 9.01582e-12)
(-6.49238e-12 -3.1144e-13 1.26237e-12)
(-5.23659e-12 -6.72864e-13 1.27639e-12)
(-6.58727e-12 -8.8584e-14 1.2411e-12)
(1.58685e-12 2.43765e-11 3.42681e-13)
(1.52483e-12 4.14375e-13 -4.7865e-13)
(-3.17553e-13 2.4977e-14 -3.17221e-12)
(-1.68391e-12 6.1907e-14 -4.19837e-12)
(-1.19571e-13 4.4017e-15 -2.93253e-12)
(-1.00503e-13 8.15876e-16 -2.90252e-12)
(-2.16804e-11 3.26004e-13 -8.60209e-12)
(-7.09758e-12 -1.08634e-11 1.45213e-11)
(1.70994e-12 8.01727e-12 -4.9224e-12)
(1.90904e-12 5.26995e-12 -3.24752e-13)
(-7.99747e-13 4.80289e-12 3.70799e-12)
(7.45814e-12 -6.67571e-13 -8.51394e-13)
(7.84611e-12 7.07928e-12 3.495e-13)
(-1.69471e-11 1.91202e-13 1.57123e-11)
(-4.21522e-14 1.89374e-15 -2.89742e-12)
(-9.63196e-14 7.09232e-15 -2.97529e-12)
(-6.38315e-12 -4.67541e-13 1.31811e-12)
(1.53416e-12 -1.54301e-13 3.62275e-12)
(1.29406e-12 -1.8173e-13 3.63161e-12)
(2.33713e-12 -5.45665e-12 3.19206e-12)
(2.05212e-12 -3.14784e-13 3.51526e-12)
(-6.57306e-12 -1.54997e-12 1.19259e-12)
(1.17684e-12 4.55856e-15 3.61293e-12)
(1.18045e-12 2.10498e-13 3.60334e-12)
(-6.71149e-12 1.51164e-13 1.22373e-12)
(4.05393e-11 2.11715e-11 4.24049e-11)
(1.37271e-12 -3.14844e-13 1.53032e-12)
(8.99887e-11 1.32286e-11 2.37834e-11)
(1.53465e-11 1.04095e-11 -1.39027e-12)
(8.6782e-11 7.32468e-12 5.3247e-12)
(8.33663e-12 1.79595e-12 8.90569e-11)
(8.86377e-12 -8.39411e-13 8.52896e-11)
(4.28926e-12 -2.91207e-13 6.93463e-11)
(4.15046e-12 -1.93012e-13 6.88453e-11)
(9.46673e-12 2.29047e-12 -6.24989e-12)
(-1.61433e-10 8.69758e-11 1.31604e-11)
(-4.30564e-11 -1.50636e-12 4.94789e-11)
(-2.647e-11 -2.45483e-13 3.60936e-11)
(-2.51769e-11 -2.91615e-14 3.47176e-11)
(-2.56183e-11 -1.81598e-13 3.5053e-11)
(2.00109e-11 3.49963e-12 -1.79886e-11)
(1.50142e-11 1.09338e-10 1.15797e-10)
(-4.15317e-11 4.59373e-11 3.71849e-11)
(-6.83128e-11 -7.93234e-13 6.43936e-11)
(-1.72961e-10 4.81471e-11 -4.95289e-11)
(-3.37842e-11 1.7926e-13 1.24013e-10)
(-4.08337e-11 2.05912e-11 6.18101e-11)
(-2.43278e-11 -5.44805e-12 1.14876e-10)
(5.25429e-12 -9.84808e-13 7.2908e-11)
(-1.68823e-11 -7.20619e-13 9.94663e-11)
(-2.50758e-11 -3.42147e-14 3.46959e-11)
(-2.58044e-11 -1.59992e-13 3.54683e-11)
(5.04056e-12 -6.48238e-13 7.24758e-11)
(-1.66619e-11 -1.79698e-13 9.89879e-11)
(-1.67271e-11 -4.62372e-13 9.95282e-11)
(-1.67004e-11 -1.05595e-13 9.87976e-11)
(4.10884e-12 -1.155e-13 6.89716e-11)
(-1.7027e-11 -3.49781e-13 9.98795e-11)
(6.55596e-11 -6.29973e-12 -8.44305e-13)
(1.7653e-10 -5.79162e-11 5.96009e-11)
(1.05764e-10 -6.50182e-11 3.14096e-12)
(2.01292e-10 3.84318e-10 1.01994e-10)
(7.00959e-11 8.33441e-11 5.01773e-11)
(1.05784e-11 8.18295e-12 8.56684e-11)
(3.507e-12 1.68582e-12 1.21674e-10)
(3.80421e-12 9.54986e-12 1.15327e-10)
(4.22176e-10 6.02685e-10 5.30186e-12)
(3.45047e-12 -2.5296e-12 1.12678e-10)
(9.16806e-12 -1.94149e-12 8.95202e-11)
(5.996e-12 -2.27604e-12 1.10097e-10)
(4.50209e-12 -4.22912e-13 7.02467e-11)
(1.92011e-12 -3.75727e-13 9.38965e-11)
(2.11072e-12 -5.02602e-13 9.4816e-11)
(1.79491e-12 -2.01497e-13 9.34733e-11)
(4.02912e-12 -7.74215e-14 6.84852e-11)
(1.70276e-12 -8.90635e-14 9.32566e-11)
(2.49559e-11 -5.23609e-12 -1.19667e-12)
(2.02239e-11 1.62848e-11 3.33609e-12)
(5.73785e-11 -8.09486e-12 5.19377e-13)
(3.78479e-10 -2.71405e-10 1.41127e-10)
(-6.38263e-10 -4.97491e-10 4.11463e-10)
(3.31674e-10 -2.83557e-10 1.41641e-10)
(-1.3318e-11 6.32464e-11 -3.29414e-12)
(-4.97403e-10 2.53434e-10 1.43269e-10)
(3.7348e-11 6.69699e-11 5.52486e-12)
(-3.20499e-11 -1.07782e-12 4.08129e-11)
(-2.81573e-11 -5.39339e-13 3.75687e-11)
(-2.52589e-11 3.44884e-15 3.47628e-11)
(-2.54079e-11 -2.94377e-14 3.48905e-11)
(3.14744e-11 1.5051e-11 8.86861e-12)
(1.46905e-11 1.81867e-11 -1.42268e-11)
(5.95549e-11 2.60774e-11 2.16627e-11)
(1.86605e-10 4.00008e-11 5.11276e-11)
(4.25951e-11 1.46933e-10 3.51662e-11)
(7.29286e-12 3.18576e-11 1.04579e-10)
(4.21209e-11 8.12269e-10 2.12187e-12)
(1.20834e-11 1.0229e-10 3.55355e-11)
(3.22467e-10 5.56522e-10 7.55986e-11)
(3.99852e-10 6.06881e-10 6.32642e-11)
(9.77238e-11 1.39796e-09 2.06243e-11)
(7.12233e-11 1.27337e-09 -5.382e-12)
(-4.78644e-12 3.41119e-11 6.59706e-12)
(-1.7791e-12 2.76462e-11 6.4826e-11)
(1.42669e-11 3.83727e-11 4.21814e-11)
(4.27535e-10 6.50657e-11 3.72312e-11)
(3.47396e-10 6.6962e-11 4.81545e-11)
(-1.06722e-10 8.09644e-12 8.08178e-11)
(-9.30473e-10 2.62214e-10 2.40682e-11)
(-7.27232e-11 9.35468e-11 7.41982e-11)
(9.94499e-11 3.98015e-10 -3.60511e-10)
(7.82209e-12 3.11064e-12 1.33241e-10)
(7.05998e-13 5.17765e-12 1.23747e-10)
(-1.20218e-11 1.63603e-12 1.40968e-10)
(-3.8825e-11 1.24933e-11 1.06512e-10)
(-1.12027e-11 1.13356e-11 1.29216e-10)
(-1.18976e-11 1.84701e-11 7.23771e-11)
(-2.53183e-11 1.63181e-11 8.97647e-11)
(-7.44386e-12 6.72519e-12 1.00035e-10)
(3.94928e-10 6.1462e-10 1.48e-11)
(3.73258e-10 6.29646e-10 3.96837e-11)
(3.9963e-10 8.69178e-11 2.76862e-12)
(1.02968e-10 1.46867e-09 6.14137e-12)
(1.13395e-10 1.39182e-09 2.09225e-11)
(1.10039e-10 1.43392e-09 7.32278e-12)
(3.90714e-10 9.34667e-11 2.17469e-11)
(3.9347e-10 9.15842e-11 9.34027e-12)
(-1.00458e-11 -4.69963e-12 1.343e-10)
(-1.87475e-11 -3.28869e-12 9.89649e-11)
(-6.71757e-12 -3.64259e-12 1.15584e-10)
(6.0362e-12 -2.45706e-12 7.54882e-11)
(2.97048e-12 -1.41679e-12 9.87317e-11)
(4.05053e-12 -2.61696e-12 1.03406e-10)
(-1.73066e-11 -1.23016e-12 9.91702e-11)
(-7.54258e-12 -1.17037e-12 1.13577e-10)
(-6.78967e-12 -1.75311e-12 1.15055e-10)
(-2.51905e-11 -8.46321e-14 3.48556e-11)
(-2.5348e-11 -8.75172e-14 3.50482e-11)
(4.73873e-12 -5.37881e-13 7.12336e-11)
(2.65312e-12 -8.69756e-13 9.72251e-11)
(2.3496e-12 -6.8224e-13 9.58333e-11)
(-8.42372e-12 -3.12668e-13 1.11273e-10)
(-1.66573e-11 -2.79792e-13 9.92902e-11)
(-8.32142e-12 -4.42358e-13 1.11886e-10)
(-7.90841e-12 -7.40731e-13 1.1293e-10)
(-1.66634e-11 -3.10965e-13 9.94984e-11)
(-8.16012e-12 -5.39333e-13 1.12377e-10)
(-8.50461e-12 -1.81191e-13 1.11004e-10)
(-1.67616e-11 7.36132e-15 9.88563e-11)
(-8.57266e-12 -3.87816e-14 1.1098e-10)
(4.0169e-12 -2.25874e-14 6.86159e-11)
(1.79039e-12 -3.13864e-13 9.42019e-11)
(1.68931e-12 -1.64796e-14 9.36037e-11)
(-1.68642e-11 -8.82921e-15 9.92489e-11)
(-8.63566e-12 -4.26106e-13 1.12261e-10)
(-8.62665e-12 -3.05848e-14 1.11455e-10)
(-9.44069e-12 -1.29609e-13 2.16266e-12)
(-9.68898e-12 -2.23856e-13 1.98405e-12)
(-4.10407e-12 -8.0803e-13 2.05066e-12)
(-4.15086e-12 -2.01225e-12 2.26564e-12)
(5.78794e-13 2.66003e-13 -1.51843e-12)
(-1.59675e-14 -5.97635e-13 -1.13001e-12)
(9.36768e-13 -1.3244e-11 2.01715e-11)
(6.6136e-12 1.36919e-11 1.20314e-10)
(-2.25389e-12 1.60151e-12 -2.14428e-12)
(7.55294e-12 -2.08277e-12 7.56816e-13)
(7.98369e-12 -4.07862e-12 3.68362e-12)
(-5.95487e-11 -2.15229e-12 1.23189e-10)
(5.54509e-12 -1.27239e-12 2.01852e-12)
(9.14332e-12 -3.38158e-12 5.54005e-13)
(-9.50274e-12 -4.82145e-13 1.94869e-12)
(8.57407e-12 3.18475e-15 -3.15799e-13)
(1.09662e-11 -8.74827e-14 2.33455e-12)
(-3.6078e-11 -5.70688e-14 8.99501e-11)
(1.01279e-11 -5.29265e-14 -3.09511e-13)
(1.00851e-11 -7.18597e-15 -3.08387e-13)
(-9.35165e-11 3.87098e-11 2.09178e-11)
(-1.36374e-12 6.3203e-12 5.78823e-12)
(-1.65834e-11 -2.86809e-12 1.22459e-11)
(5.7809e-12 4.54386e-12 9.58657e-12)
(1.05484e-11 2.77605e-12 3.39016e-12)
(-3.67108e-11 -3.84786e-13 9.1297e-11)
(9.94985e-12 -1.79958e-13 -1.89355e-13)
(8.61062e-12 -6.46631e-14 -2.58657e-13)
(1.09969e-11 -2.14626e-13 2.3188e-12)
(1.00867e-11 -1.00736e-13 -2.60019e-13)
(1.01783e-11 4.85195e-14 -3.33789e-13)
(2.36676e-11 6.81909e-10 6.67225e-11)
(2.97496e-10 2.46989e-10 8.48545e-11)
(1.56211e-10 7.94014e-10 1.46253e-11)
(4.38892e-10 3.14462e-10 1.3014e-11)
(-9.17341e-12 -8.2094e-12 -4.38559e-12)
(-6.5152e-12 7.33161e-13 -1.1753e-12)
(5.29752e-12 -7.79738e-13 -3.18319e-12)
(6.79438e-12 -2.07069e-12 -2.38794e-12)
(2.95349e-10 -9.00301e-11 1.42944e-10)
(6.80168e-12 -6.58633e-12 -1.80501e-11)
(-4.46322e-12 -2.7107e-12 1.55885e-12)
(6.81139e-12 3.1785e-12 -3.42806e-13)
(1.90668e-11 -5.30671e-12 6.94078e-12)
(3.56179e-11 4.99099e-11 1.86794e-10)
(8.17854e-12 -9.18645e-12 1.12011e-11)
(4.78393e-12 -1.37942e-11 -2.37489e-11)
(-6.23593e-12 -1.92312e-12 1.44645e-12)
(-3.04279e-12 -2.27704e-12 3.13578e-12)
(-3.16409e-12 -1.74699e-12 1.33007e-10)
(-5.19159e-12 3.66184e-13 2.1748e-12)
(-4.98383e-12 -3.90432e-12 1.63108e-12)
(-9.01459e-12 -3.66477e-12 1.81092e-12)
(-9.63482e-12 -4.26482e-13 2.00431e-12)
(-5.64833e-12 -1.9421e-13 7.30976e-13)
(-2.94054e-12 -1.41931e-13 1.61114e-12)
(-2.68885e-12 -2.64468e-13 1.04032e-10)
(-4.9175e-12 -2.44821e-13 1.32799e-12)
(-4.99622e-12 -1.04836e-13 1.31854e-12)
(-9.79154e-12 5.32248e-15 1.96973e-12)
(-6.4435e-13 3.10577e-12 1.89825e-12)
(2.19713e-12 5.06025e-12 1.10583e-12)
(4.03989e-12 2.96371e-11 5.81968e-12)
(3.84103e-12 2.10897e-12 2.01754e-12)
(1.71347e-12 4.67973e-12 1.13041e-12)
(-7.61462e-11 9.39755e-12 2.92907e-11)
(-2.31861e-09 5.82111e-10 -1.70887e-09)
(-1.33282e-10 8.62315e-11 2.36291e-11)
(-3.37484e-10 1.16928e-10 -1.45998e-10)
(2.98515e-12 -1.27917e-12 -1.45594e-12)
(3.35923e-12 2.87404e-12 1.05447e-12)
(-1.67655e-12 1.94364e-11 8.13042e-11)
(3.50788e-12 2.61501e-12 -9.69987e-13)
(6.67156e-12 2.07814e-12 5.14777e-14)
(2.68156e-10 1.30672e-09 1.87932e-11)
(2.18395e-10 1.09548e-09 4.15962e-11)
(2.09287e-10 1.14478e-09 3.31922e-11)
(2.30709e-10 1.10759e-09 2.78271e-11)
(1.70042e-11 -1.23303e-11 2.38065e-12)
(3.9033e-10 7.62151e-11 4.35014e-11)
(2.43096e-11 -2.87872e-11 7.12466e-12)
(2.50299e-11 -2.67705e-11 5.91292e-12)
(-2.01951e-12 -6.8453e-13 3.63522e-12)
(5.16137e-12 1.15305e-11 -1.14799e-12)
(-7.82658e-11 4.52619e-11 1.04662e-10)
(-1.07498e-11 1.23534e-12 2.2518e-12)
(-6.15951e-12 1.92246e-12 -1.30454e-11)
(9.15706e-12 -1.59582e-12 1.19688e-14)
(9.60487e-12 -3.56841e-13 -3.826e-14)
(-3.88307e-11 -1.41979e-12 9.37239e-11)
(8.45302e-12 -3.62706e-13 -2.29532e-14)
(1.01953e-11 -1.28949e-12 2.07522e-12)
(-5.17121e-12 -6.53528e-13 8.62638e-13)
(-2.15011e-12 -3.98885e-13 1.61016e-12)
(-1.74604e-12 -1.0412e-12 1.07416e-10)
(-4.33792e-12 -4.58467e-13 1.40997e-12)
(-3.98566e-12 -8.6582e-13 1.41255e-12)
(1.01571e-11 -6.87022e-14 -3.09992e-13)
(1.01593e-11 -8.09125e-14 -2.9296e-13)
(-3.6236e-11 -1.56277e-13 9.04908e-11)
(8.63466e-12 -2.19662e-14 -3.11615e-13)
(1.10916e-11 -1.62912e-13 2.34473e-12)
(1.00803e-11 2.4074e-14 -3.05103e-13)
(1.0115e-11 6.60252e-14 -3.11544e-13)
(-3.62593e-11 -2.56414e-14 9.01172e-11)
(8.55649e-12 1.5147e-14 -3.09333e-13)
(1.09322e-11 1.10423e-13 2.33954e-12)
(-5.12574e-12 2.51629e-13 1.25875e-12)
(1.02191e-10 9.19429e-10 1.08883e-10)
(1.20001e-10 5.25706e-10 1.61857e-10)
(1.84007e-10 1.00701e-09 3.18259e-11)
(1.89471e-10 9.82071e-10 9.84388e-11)
(1.12606e-10 8.24895e-10 4.4106e-11)
(4.15703e-10 3.30345e-10 5.42983e-11)
(2.39408e-10 1.19025e-09 1.50679e-11)
(2.37266e-10 1.1884e-09 5.84605e-12)
(2.37992e-10 1.15461e-09 2.50278e-11)
(2.81188e-10 1.41699e-09 9.50532e-12)
(1.20483e-10 -3.87082e-11 5.27365e-12)
(4.15537e-12 1.61168e-12 -5.62467e-12)
(8.11923e-12 -8.15634e-12 -2.66982e-11)
(9.56453e-13 8.65035e-12 -5.68077e-12)
(2.26926e-11 2.65102e-11 -3.01188e-11)
(4.60839e-12 2.03841e-10 -1.02187e-10)
(-2.26751e-12 1.69199e-11 1.12803e-10)
(-9.09086e-14 5.957e-13 -5.10935e-12)
(-2.73897e-12 2.59709e-12 2.19251e-12)
(3.89467e-12 6.04044e-12 -1.50054e-12)
(1.96323e-12 7.36636e-12 -2.18171e-12)
(3.48697e-11 6.19301e-11 2.54406e-11)
(9.94621e-12 -3.34976e-12 2.67864e-12)
(5.34731e-12 -2.6921e-12 4.45017e-12)
(4.36417e-12 1.94751e-12 -1.32264e-12)
(8.50884e-13 5.0295e-12 3.02711e-12)
(-2.3629e-12 -5.50656e-13 1.05438e-10)
(-5.46149e-12 -4.04504e-13 7.75983e-13)
(-4.80097e-12 -3.2078e-13 1.34607e-12)
(-4.60959e-12 -3.93676e-13 1.37082e-12)
(-2.71202e-12 -2.71116e-13 1.61689e-12)
(4.12185e-13 -2.42912e-12 1.12863e-10)
(-1.76609e-12 -2.68892e-12 1.14156e-12)
(-3.2652e-12 -2.35846e-12 1.33659e-12)
(-3.00896e-13 -1.4802e-12 1.43336e-12)
(-2.88273e-12 -1.52613e-12 1.52622e-12)
(-2.84505e-12 -1.54866e-14 1.03905e-10)
(-5.05906e-12 2.62964e-14 1.31458e-12)
(-5.77834e-12 7.77786e-14 7.08641e-13)
(-3.04025e-12 1.27984e-13 1.60386e-12)
(-5.11152e-12 1.81604e-13 1.3054e-12)
(2.85452e-10 5.52694e-11 4.76736e-11)
(3.18516e-11 -1.82804e-11 3.62747e-12)
(1.59654e-11 -8.75239e-12 1.57733e-12)
(2.07299e-11 -2.31066e-11 -1.87688e-12)
(3.81369e-10 8.08994e-11 1.7253e-12)
(2.39766e-11 -2.73724e-11 -9.27662e-13)
(2.64348e-11 -2.69118e-11 1.63182e-13)
(1.67163e-11 -1.17723e-11 -1.53847e-13)
(1.22589e-10 -3.62912e-11 3.34653e-11)
(1.78348e-10 -1.12401e-10 7.00666e-11)
(1.25425e-10 -1.32122e-11 3.40572e-11)
(1.60605e-10 3.67276e-11 7.78839e-11)
(1.60605e-10 1.25282e-10 7.75684e-11)
(1.06665e-10 2.72e-10 1.34245e-10)
(2.03961e-10 2.91613e-10 1.11939e-10)
(7.98369e-11 7.65991e-11 6.61451e-11)
(7.83693e-12 4.94747e-12 1.05903e-10)
(3.70225e-10 5.10472e-10 3.04434e-12)
(8.29923e-12 -1.04719e-12 1.00333e-10)
(4.58932e-12 -4.25603e-13 8.39631e-11)
(4.30442e-12 -1.54293e-13 8.28705e-11)
(6.27477e-11 -1.4932e-11 1.22867e-11)
(5.30425e-11 1.2073e-11 1.08489e-12)
(2.96735e-11 7.28126e-12 1.68972e-12)
(2.74043e-11 9.17046e-13 6.68793e-13)
(2.55961e-11 -3.34305e-12 3.97456e-12)
(3.99688e-10 -5.21245e-10 2.09057e-10)
(6.36797e-10 -7.00464e-10 8.28534e-10)
(-1.80417e-12 1.20541e-10 -5.6618e-11)
(-4.55059e-11 2.58477e-10 -2.49842e-11)
(-1.16704e-10 1.28531e-10 3.28688e-11)
(-4.23401e-10 2.75454e-10 2.43952e-11)
(-1.06755e-10 1.47806e-10 -7.01608e-12)
(2.44358e-10 2.85987e-11 8.2079e-11)
(2.93618e-11 1.19688e-11 -5.44235e-11)
(4.16407e-11 1.25019e-11 -5.15676e-11)
(4.55348e-11 9.76389e-12 -2.55062e-12)
(6.55373e-11 3.26769e-11 1.17216e-11)
(1.58889e-11 3.07826e-10 4.21556e-11)
(-7.81223e-12 7.90735e-11 2.68569e-10)
(-6.32767e-12 8.18839e-11 2.41828e-10)
(-1.58246e-11 4.93747e-11 2.60443e-10)
(1.84195e-11 9.02143e-11 1.24075e-10)
(2.96233e-10 4.47499e-10 8.90859e-11)
(3.12783e-10 7.64646e-10 7.41244e-11)
(4.32305e-10 3.70214e-10 5.87914e-11)
(3.53737e-10 4.97002e-10 6.13414e-11)
(-2.62449e-11 1.19183e-09 2.33076e-11)
(-5.07282e-11 4.69887e-11 -5.28504e-12)
(-1.2701e-11 2.7683e-11 4.3865e-11)
(-2.16161e-11 3.21289e-11 1.13244e-10)
(-4.55949e-11 2.96955e-11 8.3443e-11)
(-2.81655e-12 3.46378e-11 3.18494e-11)
(6.02043e-10 5.67932e-11 8.38658e-11)
(-5.07598e-10 5.02345e-11 -3.68876e-10)
(-1.02273e-10 4.61041e-10 -3.51632e-10)
(-5.10885e-11 2.8475e-10 9.07834e-13)
(-1.96878e-10 6.55942e-11 -5.15259e-12)
(-1.96202e-10 1.31467e-10 -5.00205e-11)
(-9.6242e-12 1.08991e-10 1.88057e-10)
(-3.09221e-12 2.89177e-11 1.90266e-10)
(6.85465e-12 3.71073e-11 1.96811e-10)
(2.8689e-12 2.52636e-11 1.05861e-10)
(-2.37793e-11 6.21974e-12 1.32903e-10)
(-4.83994e-11 2.1323e-11 1.36464e-10)
(-7.67017e-11 1.53981e-11 1.08351e-10)
(-2.41848e-11 1.66499e-11 1.53369e-10)
(-2.89705e-11 4.80887e-11 1.4317e-10)
(-2.0732e-11 1.52668e-11 7.99071e-11)
(3.57829e-10 5.1067e-10 1.37364e-11)
(3.48549e-10 5.10487e-10 3.61061e-11)
(3.35782e-10 7.98729e-10 2.4866e-11)
(4.30868e-10 4.04384e-10 2.20944e-11)
(8.13122e-12 1.21473e-09 2.14957e-11)
(5.39559e-10 1.2132e-10 2.7001e-11)
(-1.53152e-11 -5.45794e-12 1.21109e-10)
(5.51659e-12 -1.8461e-12 8.92665e-11)
(-1.35019e-11 -1.14185e-12 1.14491e-10)
(5.07307e-12 -7.19636e-13 8.62561e-11)
(-1.40688e-11 -3.2165e-13 1.13947e-10)
(-1.38891e-11 -4.86428e-13 1.14491e-10)
(-1.41739e-11 -7.88093e-14 1.13452e-10)
(4.27919e-12 -7.65758e-14 8.32379e-11)
(-1.43318e-11 -1.22088e-13 1.14301e-10)
(2.90245e-11 2.61528e-11 1.44222e-11)
(-8.26436e-12 5.70919e-13 1.39486e-12)
(7.46952e-12 -8.8762e-13 1.07629e-10)
(-7.7686e-12 -1.43463e-13 1.6558e-12)
(-6.41948e-12 -1.55196e-12 6.53275e-13)
(-8.08263e-12 -3.82705e-13 2.001e-12)
(-9.64285e-12 -3.36902e-13 1.98662e-12)
(4.4275e-12 -2.60338e-13 8.31915e-11)
(-6.51688e-12 -2.64518e-13 1.23257e-12)
(-6.56049e-12 -1.32751e-13 1.22123e-12)
(-9.71737e-12 -1.20074e-13 1.97433e-12)
(1.31151e-12 -2.5057e-13 -6.75905e-13)
(5.22637e-13 -3.30094e-13 5.85517e-14)
(7.31399e-12 1.10179e-12 1.12755e-12)
(3.8651e-12 3.31392e-13 1.45285e-12)
(1.19212e-11 1.11365e-11 -9.19789e-12)
(-3.44915e-14 1.51783e-12 7.84603e-13)
(2.85865e-12 7.32645e-13 -1.80724e-12)
(1.97486e-11 7.70216e-12 -3.55123e-11)
(1.39649e-12 1.55527e-12 -5.6952e-12)
(2.12198e-12 5.25493e-12 -1.63002e-11)
(-2.0035e-11 -2.15141e-11 1.50005e-11)
(6.02061e-12 2.3278e-11 1.12673e-10)
(5.13053e-13 1.36015e-11 -1.28381e-11)
(-1.27814e-11 3.36351e-11 2.25919e-10)
(-2.21529e-12 3.14288e-11 9.89083e-11)
(-1.07713e-11 -4.61024e-12 6.3584e-12)
(-3.21485e-12 9.15614e-14 -4.92237e-12)
(-1.25941e-11 2.86715e-13 -7.08872e-12)
(-2.08115e-11 -2.67897e-12 1.40006e-10)
(-2.87154e-13 1.05521e-12 4.11516e-12)
(1.56084e-12 -5.34411e-12 4.23895e-12)
(-7.55497e-11 1.71871e-12 1.28554e-10)
(-5.66595e-13 -2.49378e-12 2.62864e-12)
(2.20852e-12 4.48752e-12 3.19457e-12)
(-4.43436e-11 -1.87009e-12 1.01784e-10)
(8.65174e-12 -1.10351e-12 1.52349e-13)
(1.01163e-11 -5.72646e-12 1.89583e-12)
(-9.42717e-12 -1.56308e-12 1.37493e-12)
(-9.57741e-12 -4.88354e-13 2.00614e-12)
(5.30068e-12 -9.26134e-13 8.74013e-11)
(-6.37173e-12 -4.68681e-13 1.3196e-12)
(-6.48408e-12 -8.42976e-13 1.2821e-12)
(4.34479e-14 2.15482e-15 -2.96083e-12)
(8.22623e-14 -1.62656e-15 -2.95407e-12)
(-1.41054e-11 -1.98646e-13 1.13607e-10)
(1.25873e-12 -1.437e-13 3.60723e-12)
(1.20097e-12 -6.25274e-14 3.59489e-12)
(-3.60767e-11 -1.09657e-13 9.02728e-11)
(8.66395e-12 -1.94797e-14 -3.38821e-13)
(1.10215e-11 -1.52377e-13 2.33152e-12)
(-3.6094e-11 -3.22651e-14 9.00437e-11)
(8.605e-12 5.50532e-15 -3.30423e-13)
(1.09058e-11 1.40732e-14 2.32938e-12)
(-9.84631e-12 1.10267e-13 1.9536e-12)
(-6.74192e-12 1.97176e-13 1.17106e-12)
(-1.54803e-10 8.44106e-11 1.49424e-12)
(-3.08621e-10 1.07937e-10 -9.36108e-11)
(-9.89904e-11 3.33752e-11 1.31693e-10)
(-1.76662e-10 3.10984e-11 -7.94657e-12)
(-5.17956e-11 6.07863e-11 1.5598e-11)
(-9.95571e-13 1.06181e-11 6.17094e-12)
(4.17516e-12 7.866e-12 -1.81148e-13)
(-4.27058e-10 8.73194e-11 -1.03974e-10)
(-2.90846e-11 2.17016e-11 4.12658e-11)
(-5.46518e-11 -9.53549e-12 2.64386e-11)
(-2.50093e-11 2.67618e-11 7.23803e-11)
(3.20019e-12 1.7077e-12 1.38004e-12)
(5.31116e-12 8.20897e-12 5.29647e-13)
(-6.78769e-11 3.53951e-11 4.01861e-11)
(-1.74004e-13 4.93401e-12 1.17643e-11)
(6.74757e-12 1.26663e-11 -5.58394e-12)
(-3.73001e-11 -7.11462e-13 9.22263e-11)
(8.61855e-12 -1.5298e-13 -2.09745e-13)
(1.08137e-11 -3.51243e-13 2.32513e-12)
(-1.2409e-13 1.30674e-14 -3.14101e-12)
(-2.33432e-14 1.10386e-14 -3.05953e-12)
(-1.3757e-11 -7.0763e-13 1.14554e-10)
(1.60888e-12 -1.67424e-13 3.60834e-12)
(1.83997e-12 -2.64609e-13 3.53684e-12)
(-3.63688e-11 -2.41467e-13 9.09341e-11)
(8.68834e-12 -4.64563e-14 -3.1356e-13)
(1.10751e-11 -1.55681e-13 2.3262e-12)
(-3.64658e-11 -1.5251e-13 9.06556e-11)
(8.64894e-12 1.57905e-14 -3.34639e-13)
(1.09841e-11 1.63551e-13 2.32663e-12)
(1.21757e-12 2.22368e-13 3.55878e-12)
(1.34763e-10 -6.41516e-11 2.4614e-11)
(2.38309e-10 -2.4248e-10 6.85697e-11)
(1.20338e-10 -5.9908e-13 1.15107e-11)
(2.99926e-10 -1.09615e-10 2.33206e-10)
(2.9523e-11 6.81502e-10 1.18996e-10)
(2.21917e-10 6.33594e-10 1.26288e-10)
(-7.07951e-11 1.03811e-09 3.64351e-13)
(1.10081e-10 9.65103e-10 6.64303e-11)
(9.95376e-11 7.85579e-10 5.57339e-11)
(4.2763e-10 2.79329e-10 6.74007e-11)
(1.20811e-10 1.09882e-10 5.59668e-11)
(3.37741e-11 2.59582e-10 8.83849e-11)
(2.26573e-11 2.84927e-11 2.4907e-11)
(-1.70839e-11 6.69771e-11 1.44557e-10)
(2.85465e-10 1.05545e-10 6.28765e-11)
(3.19352e-10 3.10744e-10 7.68773e-11)
(4.22518e-10 6.66192e-11 9.8767e-11)
(4.60056e-10 1.70961e-10 5.70667e-11)
(-1.44363e-11 6.27664e-11 1.84312e-10)
(1.28068e-10 8.10462e-10 2.85928e-11)
(3.94122e-10 3.47325e-10 2.8158e-11)
(3.58037e-10 8.02086e-10 1.00217e-11)
(2.10314e-10 1.06337e-09 7.99892e-12)
(1.97397e-10 1.05185e-09 1.99691e-11)
(5.52307e-12 1.23485e-09 9.61365e-12)
(4.51522e-10 3.91003e-10 3.72525e-12)
(5.45903e-10 1.92002e-10 2.92097e-12)
(5.20275e-10 2.12978e-10 1.18764e-11)
(5.70067e-10 1.10947e-10 1.5594e-11)
(6.0264e-11 -1.94054e-11 1.55288e-12)
(7.06878e-12 -5.20421e-13 -1.0088e-11)
(2.53819e-12 6.24402e-13 -1.55049e-12)
(5.23637e-11 -1.52609e-11 5.58186e-12)
(1.15197e-11 -1.90858e-11 -4.10069e-12)
(6.2841e-12 -1.71778e-12 1.32133e-12)
(2.74943e-10 -1.85305e-10 1.28885e-10)
(1.83369e-10 -1.80723e-10 3.32461e-11)
(1.14754e-12 -3.32557e-12 -1.27408e-11)
(4.66557e-11 -7.61823e-11 -6.8095e-12)
(5.81885e-11 4.02945e-11 1.8889e-11)
(1.49022e-11 -2.7073e-12 5.23144e-12)
(6.10666e-12 2.77695e-12 7.46922e-13)
(5.758e-11 3.18078e-11 5.32964e-12)
(-8.26583e-13 -2.44848e-12 -9.9846e-13)
(8.00608e-11 3.54186e-10 1.8966e-10)
(7.51717e-11 5.45617e-10 4.88269e-11)
(4.40608e-11 1.19673e-10 5.84766e-11)
(6.25782e-12 7.87103e-14 1.72763e-12)
(-5.35949e-12 -5.24164e-12 3.18129e-12)
(6.43905e-12 1.51964e-11 9.59964e-11)
(-6.17929e-12 -3.11288e-12 1.47878e-12)
(4.53762e-12 4.25797e-12 -2.27385e-12)
(-3.15665e-12 5.66196e-12 1.32183e-10)
(-5.79115e-12 2e-12 7.60756e-13)
(-2.32333e-12 4.31358e-12 2.55957e-12)
(-1.0722e-12 -3.64521e-12 1.18881e-10)
(-4.16253e-12 -1.93283e-12 8.53856e-13)
(-1.14955e-12 -5.12613e-12 1.85273e-12)
(7.68194e-12 -3.04272e-12 9.89422e-11)
(-4.71024e-12 -1.53923e-12 2.38513e-12)
(-6.36498e-12 -2.58302e-12 1.1529e-12)
(4.81362e-12 -5.41033e-13 8.49043e-11)
(-6.4664e-12 -3.46629e-13 1.25115e-12)
(-6.41192e-12 -4.47069e-13 1.27245e-12)
(-2.52043e-12 -4.40331e-13 1.04703e-10)
(-5.56472e-12 -3.19366e-13 7.73798e-13)
(-2.83975e-12 -2.40055e-13 1.59214e-12)
(-2.74359e-12 -1.37095e-13 1.03844e-10)
(-5.70538e-12 -6.90081e-14 7.47374e-13)
(-2.98966e-12 -1.51084e-14 1.57892e-12)
(4.24629e-12 -2.22728e-14 8.27497e-11)
(-6.6189e-12 -3.42514e-14 1.21286e-12)
(-6.68096e-12 1.13617e-13 1.20475e-12)
(1.60609e-11 4.8446e-11 1.36113e-12)
(2.24184e-11 1.9454e-11 1.23667e-12)
(-2.6207e-11 5.99473e-11 -2.05413e-12)
(6.35784e-12 2.52458e-11 -1.49111e-12)
(3.21111e-11 3.0748e-11 -7.08483e-12)
(4.84941e-12 8.08968e-12 -4.42905e-12)
(2.33912e-12 7.7891e-13 -8.86421e-13)
(1.79873e-11 2.74576e-11 -1.23029e-12)
(6.39357e-12 -7.11292e-13 -3.77668e-12)
(6.41208e-12 6.51701e-12 1.6405e-12)
(-9.03457e-10 7.63188e-10 6.96252e-11)
(-1.28663e-09 2.81784e-10 -3.49373e-10)
(7.0244e-11 9.36842e-11 2.08818e-10)
(2.16849e-10 -2.1743e-10 9.67506e-11)
(3.3145e-11 5.36939e-11 9.8346e-12)
(-5.42247e-10 3.58435e-10 4.35373e-10)
(-2.48748e-11 -2.54345e-11 1.63857e-11)
(-1.72449e-11 3.60455e-11 1.72142e-10)
(-6.24149e-12 3.51889e-11 1.78113e-10)
(-2.75927e-11 2.31138e-11 1.46945e-10)
(-1.46448e-11 2.97779e-11 1.62486e-10)
(-1.5702e-12 1.86688e-11 9.8024e-11)
(2.45663e-12 7.29203e-12 -3.13518e-12)
(4.07731e-12 6.09231e-12 -2.06576e-12)
(1.04414e-11 4.16327e-11 8.44823e-11)
(8.62879e-12 5.76426e-12 1.16425e-12)
(-1.563e-13 7.35791e-12 9.90574e-12)
(2.43433e-10 1.26559e-09 2.12687e-11)
(1.82066e-10 1.10708e-09 5.95007e-11)
(1.62944e-10 1.04894e-09 4.61371e-11)
(3.32111e-10 7.99466e-10 4.95082e-11)
(-2.89362e-12 1.22484e-09 3.3375e-11)
(1.74252e-10 1.04724e-09 2.96484e-11)
(2.25529e-10 1.15415e-09 2.62973e-11)
(2.77908e-10 1.33837e-09 1.67531e-11)
(5.76417e-10 1.70513e-10 6.13821e-11)
(4.44801e-10 4.00162e-10 5.9119e-11)
(5.89596e-10 9.40421e-11 2.92781e-11)
(5.08619e-10 2.26226e-10 4.26933e-11)