/*--------------------------------*- C++ -*----------------------------------*\
| =========                 |                                                 |
| \\      /  F ield         | OpenFOAM: The Open Source CFD Toolbox           |
|  \\    /   O peration     | Version:  2012                                  |
|   \\  /    A nd           | Website:  www.openfoam.com                      |
|    \\/     M anipulation  |                                                 |
\*---------------------------------------------------------------------------*/
FoamFile
{
    version     2.0;
    format      ascii;
    class       volScalarField;
    location    "0.105/solid";
    object      sigmaMax;
}
// * * * * * * * * * * * * * * * * * * * * * * * * * * * * * * * * * * * * * //

dimensions      [1 -1 -2 0 0 0 0];


internalField   nonuniform List<scalar> 
3124
(
-108.998
41.2514
77.3819
-253.858
-191.809
-188.163
61.8514
-140.398
-380.475
-69.3882
-266.299
106.092
-307.439
-295.147
-124.844
-395.662
-282.687
-228.36
-188.239
-191.322
-225.126
-227.757
-224.899
108.466
511.864
373.253
-245.706
-75.0901
-214.376
-311.864
-20.8494
-54.2428
-293.592
-256.28
-218.955
-666.031
-287.81
-265.216
-235.884
-238.578
-235.304
-234.837
78.2681
27.6104
233.742
583.369
531.448
26.4234
1573.43
255.163
-201.005
-198.471
-188.42
-188.597
-30.1659
33.8737
-11.6823
229.291
-226.682
-27.5762
13.1648
-305.839
-346.931
-634.132
74.7687
-469.22
-258.975
53.2856
-794.547
-716.235
5.8947
-198.931
-47.3656
477.445
341.841
-232.835
1418.49
-195.601
-244.702
-287.155
-309.3
-185.907
-262.866
-221.963
-331.44
-276.217
-244.944
-396.054
-650.26
-5.15871
-333.094
-666.528
-18.8082
376.844
-846.993
-784.133
-829.026
384.775
358.577
-304.244
-235.416
-269.769
-246.179
-259.478
-232.106
-258.173
-266.086
-189.254
-189.495
-244.138
-239.78
-250.678
-226.137
-252.803
-256.719
-226.549
-253.669
-250.215
-225.106
-250.017
-235.063
-225.417
-250.325
275.101
230.695
-252.668
-248.468
-248.804
-244.552
-199.416
-200.405
-198.682
-198.172
69.0514
32.7497
55.9256
92.2592
60.0396
50.378
60.3274
183.95
-59.2821
13.5625
249.767
-81.6386
348.002
47.6624
-115.376
-224.666
-83.4967
-193.605
-58.9858
-60.3987
-56.6815
-188.261
-56.2918
-189.373
-56.5852
207.362
41.0839
100.846
112.255
106.355
87.1965
82.5504
-197.886
-194.812
-237.712
-73.9563
-69.3222
-173.816
-26.412
-134.968
-33.4957
-184.074
-78.8055
-127.635
-272.07
-193.156
188.284
-126.409
545.791
52.5702
796.87
-16.7029
443.249
-314.546
-292.348
-306.937
-220.491
-169.469
-187.872
-154.514
-247.942
-141.261
-209.085
-308.481
-261.574
-291.564
-210.85
-213.404
-229.345
-261.333
-261.801
-56.5335
-188.684
-55.985
-58.8462
-190.529
-57.1102
-209.141
-207.493
-258.479
-225.476
-258.856
-261.047
-227.344
-260.735
-258.19
-224.904
-258.063
-198.378
-226.058
-259.463
279.867
337.275
167.725
188.024
220.153
188.646
342.399
348.684
449.207
368.014
698.237
231.527
356.329
551.034
233.085
419.4
251.805
742.19
238.369
-64.9436
-317.101
-70.0041
56.7352
-54.9179
-8.14224
-45.1686
-92.4967
53.3882
-35.89
-36.5023
-89.2763
1.07392
-66.9754
-224.108
-245.798
-276.363
-290.835
-273.31
-243.646
-282.912
-266.887
-519.693
53.5886
-122.871
-271.05
-278.51
-264.289
-241.361
-247.14
-270.792
-258.629
-262.598
-202.767
-201.5
-220.36
-236.712
-221.307
-223.475
-237.597
-222.325
-219.681
-235.025
-219.303
-197.627
-197.832
-234.882
-218.931
-219.063
99.3866
50.8623
121.392
135.019
196.668
79.37
71.6375
82.5347
37.8797
-4.72553
72.7047
142.601
17.3562
62.0062
117.511
507.205
184.241
136.934
224.04
213.106
110.474
573.858
658.769
903.354
16.3217
626.248
827.255
760.123
893.316
1162.71
1109.02
205.971
20.5678
-1.2348
80.0948
161.678
-36.255
84.0069
219.367
443.242
6945.07
216.888
694.157
139.974
26.6519
243.138
634.495
125.105
115.536
246.415
812.716
50.3666
-214.763
-68.1685
-79.4321
-194.545
-66.3385
-61.2434
-188.307
-57.0423
-56.2977
-189.131
-57.0784
-56.6224
194.381
8.15267
-23.4402
-1.78981
-8.40587
-90.4062
350.135
10.4202
-0.679736
206.46
76.7156
-15.859
67.7586
66.7206
65.562
105.236
29.7786
28.1649
-7.44283
38.9078
-62.0089
86.2654
37.0304
-90.9846
41.2152
787.063
-745.688
-319.272
241.853
-267.008
8.01409
75.8767
70.1159
-164.169
-236.992
-204.477
-202.71
-191.152
-232.125
-213.909
-570.583
-1165.14
45.0805
-133.403
402.754
51.6065
-105.71
-275.734
-154.694
-13.0651
-76.0373
-388.918
-252.382
58.576
-72.8725
-438.958
127.387
-85.2293
-185.232
-517.626
133.171
-493.528
176.844
-107.708
-676.782
-749.036
-800.717
-742.665
-737.416
-628.458
-735.059
-723.054
-747.033
-747.299
-72.6459
-2.31394
-15.1404
-1.12537
18.2536
-10.0781
-42.7317
-116.567
-167.194
-195.304
-173.859
-176.124
-185.035
-130.282
-112.695
145.613
-25.6358
-128.128
0.0540984
-163.433
-92.0442
223.098
349.064
66.0594
510.404
78.7698
334.374
420.776
162.208
440.174
25.5249
-270.904
-277.74
-222.571
409.99
805.67
17188.6
-200.917
236.004
2556.02
568.373
-345.96
-75.2504
-365.669
-194.049
188.21
-22.8393
-75.8447
-733.51
423.258
-342.557
-295.375
-280.523
-326.423
-295.481
-269.188
-336.75
-277.285
-318.526
-304.894
-311.522
-277.267
-245.574
-289.056
-294.013
-259.748
-295.526
-217.774
-203.852
-222.42
-237.495
-242.202
-214.238
-222.49
-314.368
-231.635
-239.65
-201.692
-223.254
-318.105
-252.726
-261.823
-323.2
-236.959
-175.378
-276.109
-513.356
10.4533
-149.853
-516.226
-24.8232
-185.324
-316.752
-512.968
-9.99062
-163.49
-515.686
-52.1903
226.905
-11.5321
-714.468
-746.318
-710.561
-706.732
-735.163
-784.305
-728.869
-735.668
-708.939
-739.299
-804.108
-731.535
192.643
149.069
29.2308
347.546
-27.1007
213.186
128.863
-32.2268
347.177
-46.9117
-314.471
-291.896
-300.006
-244.454
-265.112
-274.521
-278.364
-273.287
-283.349
-228.186
-218.371
-231.983
-249.254
-235.264
-249.341
-253.75
-240.732
-230.453
-262.689
-262.198
-267.193
-260.342
-268.26
-270.512
-263.18
-269.462
-188.858
-56.8172
-56.0536
-190.237
-56.8033
-56.8829
-204.218
-205.838
-229.846
-242.568
-228.104
-224.875
-241.14
-226.456
-262.603
-251.242
-263.033
-225.809
-259.772
-259.287
-251.961
-264.26
-263.597
-266.48
-255.602
-265.883
-226.985
-260.196
-260.504
-254.6
-264.863
-265.393
-262.239
-249.921
-262.007
-224.986
-258.319
-258.118
-249.861
-262.235
-262.015
-197.694
-197.986
-235.983
-219.937
-219.077
-235.53
-219.491
-225.786
-258.671
-259.083
-251.141
-263.382
-262.582
-250.702
-262.962
-218.79
-205.739
-265.731
-245.897
-233.555
-254.459
-194.469
-158.187
-192.677
-192.347
-142.061
-193.78
-157.005
-142.629
-152.764
-138.476
-187.985
-188.255
-152.398
-188.466
-138.515
-260.385
-217.763
-280.116
-269.943
-246.145
-286.931
-228.239
-224.56
-257.334
-352.785
-265.553
-247.865
-214.347
-272.011
-152.807
-138.481
-188.065
-188.454
-152.319
-188.644
-138.545
-156.168
-191.973
-141.577
-191.127
-156.433
-191.976
-141.199
-112.904
-401.488
-187.453
-180.392
-89.8206
-240.697
-177.631
-178.236
160.062
-62.0195
-82.8853
-115.131
-365.691
-212.387
-208.203
859.064
1308.39
-175.628
-204.208
-205.545
-152.787
-171.586
-208.981
-156.132
-165.686
-196.89
-202.321
-150.136
-168.198
-200.535
-148.136
-152.981
-188.468
-188.253
-138.786
-152.705
-188.674
-138.727
-153.28
-188.84
-188.39
-138.889
-152.765
-188.973
-139.029
107.11
136.974
-537.982
-421.932
-205.685
-336.075
-268.933
-189.986
-192.873
-385.154
-197.047
-192.802
-217.807
-394.919
-193.686
-377.656
-186.85
-221.906
-540.18
-528.32
-513.274
-498.29
-26.1661
26.542
97.6126
216.01
-322.721
-254.627
-143.825
-237.076
-227.702
-319.73
-266.174
136.107
-126.797
-290.004
-234.23
-288.842
-49.2109
-184.716
-230.511
-247.594
-234.159
-258.107
-215.164
-232.797
-271.41
-253.253
-259.431
-374.306
-234.96
-244.177
-379.843
-236.434
-313.915
-324.126
-403.005
-252.102
-301.679
-417.338
-272.922
67.299
-447.996
-465.136
-471.051
-560.639
-531.759
25.0574
-8.80511
-47.4683
-97.3683
-153.501
-189.218
-189.116
-139.278
-153.34
-189.446
-139.158
-154.209
-189.802
-189.459
-139.456
-153.525
-190.158
-139.67
291.32
316.916
319.757
273.019
319.601
338.617
-268.881
-242.009
-223.665
-277.956
-221.154
-239.947
-245.259
-202.412
-242.096
-275.245
-265.612
-256.025
-237.096
-258.902
-246.193
-250.841
-233.993
-229.304
-224.62
-236.342
-252.782
-260.399
-248.019
-260.115
-204.502
-211.688
-203.007
-213.068
-182.995
-184.302
-185.064
-184.458
-201.908
-211.892
-203.674
-210.4
-200.823
-210.504
-209.491
-201.95
-183.061
-182.814
-181.878
-182.711
-202.533
-209.772
-201.574
-210.946
48.6593
44.1227
72.2031
62.3775
65.1096
57.2587
53.2236
44.3664
55.5207
103.068
70.8858
69.6913
76.6151
43.2887
46.8716
27.8477
65.3809
96.2671
73.8966
35.1246
61.4752
45.8852
64.4815
51.1118
55.8028
56.482
65.1307
39.7402
3.756
18.7356
92.3823
51.6663
-27.7185
39.5869
97.6374
4.25693
-113.489
-13.598
-36.8793
-59.4665
-31.1796
2.22422
55.177
-82.7158
232.699
362.913
170.759
-33.3447
87.6111
-133.762
-148.1
-101.315
-151.791
-135.858
-207.253
-232.327
-230.447
-174.314
-239.681
-195.708
-183.501
-125.286
-92.4655
-117.147
-113.775
-125.545
-159.033
-193.063
-195.378
-144.064
-194.856
-159.762
-143.304
-82.5498
-88.1089
-58.7791
-82.0593
-88.5283
-83.0138
-89.8836
-59.0438
-84.0506
-89.0748
-78.2068
-84.9613
-55.888
-78.4677
-84.8864
-152.932
-188.307
-188.22
-138.462
-188.636
-152.342
-138.51
-77.9651
-55.551
-84.7314
-77.878
-84.7857
-188.936
-139.235
-152.954
-78.2109
-85.1909
-78.0995
100.389
151.858
95.7219
169.421
68.1517
108.135
157.768
103.363
66.2005
128.993
124.342
85.6134
142.341
71.6321
119.322
165.9
86.6106
136.003
91.3491
127.631
171.712
90.8648
102.709
43.2248
139.63
52.8345
146.564
69.1365
76.9303
-611.413
-50.8551
-94.9039
-119.005
378.47
-102.483
-68.3086
7.56851
-117.923
-97.1371
-94.4368
-80.4896
-94.3036
-99.1827
-81.0834
-74.7552
-233.497
-99.6545
-93.8747
-115.839
-42.5841
42.1019
-48.6579
-56.5143
-54.9899
-79.0795
-52.5993
-142.616
-105.589
-205.694
-138.599
-124.897
-95.5408
-148.36
-187.17
-161.681
-147.543
-163.106
-177.146
-276.015
-275.879
-295.083
-247.666
-300.333
-284.8
-240.072
-211.483
-168.92
-211.697
-235.331
-195.245
235.077
636.827
161.375
348.849
470.141
410.033
254.169
133.121
-83.0723
38.4808
-16.3065
87.7287
-34.0452
131.85
378.827
431.76
364.925
269.608
234.656
296.16
600.185
69.5661
76.4907
29.9272
-28.0064
-54.7714
238.387
101.842
-348.156
-314.335
-349.581
-302.373
-309.249
-284.8
-294.786
-333.535
-335.993
-289.035
-300.78
-289.95
-319.343
-355.09
-349.959
-329.702
-170.79
-127.25
-230.586
-112.247
-154.805
-150.424
-186.527
-196.962
-230.674
-249.766
-183.58
-181.05
-223.942
-205.434
-207.901
-172.693
-141.842
-158.006
-188.151
-208.17
-199.323
-300.168
-321.985
-316.307
-310.181
-318.114
-284.861
-262.424
-309.233
-285.987
-237.474
-256.441
-291.312
-337.753
-335.446
-322.243
-345.768
-217.203
-223.784
-212.287
-227.937
-192.997
-196.733
-196.955
-194.301
-210.853
-225.846
-216.504
-221.229
-281.185
-285.075
-271.567
-293.474
-255.634
-208.466
-211.101
-261.264
-262.536
-212.657
-210.818
-256.044
-271.324
-292.679
-280.149
-284.75
-77.9508
-84.8892
-55.6304
-78.2478
-84.7428
-152.945
-188.635
-188.554
-138.62
-188.946
-152.475
-138.604
-77.6331
-55.2811
-84.6159
-77.5989
-84.6315
-80.863
-87.6874
-57.6381
-81.7315
-87.1527
-155.808
-190.825
-190.877
-140.384
-191.629
-154.755
-140.79
-80.0273
-56.8747
-86.1651
-79.4708
-86.6082
-208.538
-221.84
-213.215
-217.9
-195.136
-192.186
-215.018
-219.52
-210.087
-223.867
-190.39
-193.543
-274.861
-285.22
-287.467
-272.232
-254.912
-204.723
-205.731
-256.365
-256.9
-205.572
-205.786
-255.09
-271.963
-287.027
-274.469
-284.636
-271.992
-291.274
-285.306
-278.647
-260.718
-209.284
-255.581
-208.102
-279.535
-285.249
-271.834
-292.039
-255.64
-207.085
-209.096
-259.888
-271.874
-286.165
-284.504
-273.515
-255.922
-204.95
-205.081
-254.756
-254.808
-204.765
-205.679
-255.716
-273.734
-284.675
-272.043
-286.186
-209.631
-200.997
-182.046
-286.226
-273.637
-205.321
-206.27
-256.114
213.25
108.115
268.29
366.291
277.2
174.333
153.74
224.495
251.922
206.067
209.928
222.783
265.751
193.218
253.342
339.766
359.803
269.307
307.542
304.246
205.516
390.075
372.821
444.54
339.647
323.667
412.387
398.298
394.183
400.747
429.332
477.829
498.374
409.054
495.174
383.832
378.289
476.958
563.035
621.956
607.982
506.66
495.348
567.432
322.027
287.25
372.239
268.999
378.479
333.214
270.734
375.804
306.688
445.472
330.242
419.957
301.559
384.739
340.045
280.404
328.974
248.21
369.918
270.104
316.838
515.017
582.278
820.566
676.091
588.796
516.751
699.724
-31.0066
-199.98
-11.7207
-261.594
78.0585
-79.9855
-344.952
-81.2676
-99.8769
-32.2426
-95.5344
20.4748
-79.5115
-53.6854
-173.918
-279.185
-277.811
-203.568
-340.352
139.958
-144.098
-263.138
-312.516
-111.66
-293.092
-65.1528
-295.215
-259.107
-291.446
-267.689
-290.677
-312.359
-304.853
-298.474
-278.082
-290.491
-272.98
-292.661
-305.897
-290.823
-280.281
-314.002
-236.626
-287.236
-222.3
-291.193
-298.114
-197.208
-173.297
-305.372
-297.674
-135.928
-299.351
-161.88
-250.134
-308.359
-298.72
-265.961
-265.046
-270.753
-259.854
-274.011
-291.828
-297.966
-290.69
-299.941
-278.272
-275.181
-274.931
-278.748
-277.466
-290.069
-284.549
-284.557
-260.876
-256.677
-246.687
-270.223
-232.115
-227.655
-245.672
-234.365
-247.545
-258.967
-259.664
-246.735
-277.373
-264.329
-266.521
-276.795
-268.779
-276.503
-268.818
-274.887
-280.322
-274.783
-272.134
-281.392
-268.034
-269.292
-266.974
-271.594
-203.654
-214.401
-205.969
-212.392
-187.924
-186.431
-184.984
-186.609
-207.595
-213.288
-215.89
-204.887
-229.419
-224.561
-226.422
-227.531
-237.637
-245.827
-239.95
-243.43
-226.268
-225.412
-223.537
-228.179
-240.89
-244.483
-238.584
-246.868
-228.137
-227.69
-225.276
-230.67
-243.519
-245.409
-239.877
-249.198
-231.99
-226.217
-229.313
-228.773
-239.129
-248.046
-242.082
-244.927
-225.654
-223.869
-222.635
-226.997
-239.108
-242.86
-237.05
-245.034
-227.336
-222.936
-224.472
-225.567
-236.977
-244.764
-238.584
-243.019
-201.293
-209.429
-200.815
-210.023
-181.178
-182.006
-181.847
-182.033
-200.326
-209.768
-208.824
-201.414
-226.67
-222.531
-225.625
-223.519
-236.781
-244.204
-242.738
-238.237
-238.347
-243.083
-236.97
-244.521
-225.109
-223.44
-222.236
-226.293
104.073
130.305
101.429
86.4671
86.4338
115.628
118.633
137.292
157.952
173.446
184.749
166.373
156.851
147.285
94.9398
77.6548
70.2218
97.0558
77.7427
108.246
88.0964
69.8801
100.964
46.327
80.7547
60.1473
55.5864
89.9758
34.8908
17.7373
27.0518
-7.76995
20.1567
42.8771
14.8111
72.6434
120.724
75.516
113.504
65.3048
101.28
79.8399
38.8966
13.1599
34.1307
-6.15453
32.5827
15.0026
22.422
161.268
151.411
141.029
112.226
180.893
137.622
131.776
260.807
424.931
362.551
387.439
325.019
287.916
319.335
227.616
182.859
288.312
214.459
271.729
227.983
177.837
195.961
172.51
280.806
164.361
223.757
146.803
226.703
1297.81
1466.72
535.148
524.765
537.176
553.952
486.205
893.566
1171.19
740.878
853.765
684.462
865.25
1095.89
1334.15
1396.72
1998.01
555.021
1022.41
891.218
823.759
1002.39
1302.09
759.19
1106.23
-151.959
1293.35
-759.14
809.584
1434.2
1864.76
671.677
2009.34
1868.7
2034.55
1969.57
1446.34
2665.79
1188.8
635.769
922.825
940.476
711.535
1253.17
895.05
1521.63
1549.37
1089.12
1333.15
1550.88
2116.52
1028.25
1823.62
1189.86
2062.33
1334.09
2336.97
1280.49
68.315
247.668
70.9713
141.576
104.817
151.149
113.064
50.3863
9.36534
32.4154
-1.68935
32.2295
30.509
14.0983
86.926
189.225
85.3371
119.655
76.6087
89.8258
124.489
18.651
-29.0568
-9.51674
16.3014
50.3026
65.324
-6.02779
168.321
313.261
70.1169
81.6335
50.5481
36.4379
112.496
100.439
5667.64
-88.8275
500.588
1423.91
-784.845
2017.54
148.012
494.317
56.9226
379.229
614.06
83.1115
82.5338
64.4269
-238.062
380.038
-3.97796
113.968
-521.867
517.618
391.752
446.811
477.35
684.826
326.049
608.771
555.527
277.525
280.677
320.994
167.397
245.944
399.186
151.001
320.189
624.927
749.464
710.243
612.715
538.6
344.371
-181.178
-209.591
-220.518
-166.548
-187.928
-215.083
-160.81
-98.9088
-98.9593
-70.282
-95.8942
-101.84
-103.147
-110.904
-73.6653
-109.588
-105.909
-163.584
-195.519
-196.79
-145.14
-161.283
-198.553
-146.486
-89.9137
-96.4449
-63.8323
-92.7905
-94.2881
-87.3829
-91.0162
-61.9616
-85.5968
-92.4495
-153.059
-188.42
-188.259
-138.495
-152.373
-188.778
-138.636
-78.4441
-85.2921
-56.1226
-78.8123
-85.105
-78.1154
-84.7604
-55.6991
-77.8486
-84.9071
-153.522
-189.096
-188.855
-139.139
-152.951
-189.265
-139.12
-78.6134
-85.3551
-56.2834
-78.823
-85.3084
-78.3687
-85.1899
-55.9652
-78.2163
-85.2329
24.1817
99.9865
285.324
-13.2422
174.248
268.546
32.3284
203.449
239.879
227.545
265.769
141.241
136.638
63.2685
19.1966
400.542
37.3405
288.081
152.806
-12.3043
113.365
84.4894
366.232
-60.4182
-15.1304
29.4982
209.39
43.2599
105.659
17.3165
96.4187
162.143
183.283
107.308
102.482
148.698
109.505
38.3539
-0.582015
-8.32385
-6.97515
6.3616
45.194
15.255
82.2921
141.366
61.4072
22.9805
103.715
42.8928
93.7518
65.1884
133.163
37.092
47.2454
106.097
86.4228
33.0201
118.6
72.8917
216.368
133.988
-29.0563
80.8651
73.1448
-24.8089
-65.3556
-35.4865
-16.2049
-51.4272
-65.3163
-44.4178
7.39751
201.317
60.1012
32.0619
-13.2301
-35.8841
-4.81041
70.6237
160.399
49.1606
23.4387
-5.20957
56.5505
6.91119
603.895
-682.855
321.938
60.4492
225.902
165.77
352.878
144.72
83.6264
428.589
336.203
386.158
136.85
178.922
-262.586
208.748
-741.814
-535.826
-857.865
-462.063
-683.27
746.514
-503.983
784.049
-553.816
263.652
-766.368
-737.573
-289.176
1268.84
2191.67
102.178
-266.082
1976.88
-300.79
-137.916
308.865
652.266
-44.866
62.9726
-352.597
-217.463
-202.445
4197.14
-776.475
2008.26
-180.027
-164.503
-172.116
-116.159
-140.207
-218.569
-149.086
-220.883
-212.974
-217.949
-192.032
-223.52
-211.381
-216.392
-181.17
-177.727
-194.087
-184.429
-210.511
-164.299
-186.717
300.66
-1360.31
-575.591
7233.52
-109.339
1249.11
-251.125
126.032
773.949
-177.751
-13.9785
-105.934
-155.523
452.817
480.034
-159.872
911.517
-92.1006
-181.439
788.194
34.3515
-115.121
-148.419
933.857
-190.654
39.0463
-141.039
-181.348
-109.749
-33.6105
-44.5678
-70.5204
-170.007
-244.129
-365.564
-150.504
-181.954
-364.86
-168.685
-165.149
-195.883
-359.392
-129.416
-147.689
-368.059
-161.324
-632.065
-789.245
-739.699
-694.002
-792.662
-529.184
-492.175
-816.685
-729.701
-681.56
-659.206
-784.679
-945.354
-930.651
-975.3
-956.679
-987.343
-776.555
-898.321
-1018.82
-473.192
-485.674
-677.57
-752.242
-790.35
-673.14
-805.086
-800.242
-665.191
-753.844
-670.862
-808.661
-63.4539
-12.6713
-69.919
-67.2988
-46.6194
-26.0595
-70.9017
-23.7191
-18.1661
-4.88378
-19.2177
-10.6752
-19.2137
-16.2089
-45.6425
35.4915
-24.4387
26.0918
-33.8052
-34.39
10.8191
-30.0393
-57.0885
-17.5557
-5.64511
-18.9434
-36.2009
-31.8005
-140.319
-149.36
-144.5
-136.774
-127.101
-168.6
-145.539
-193.567
-199.376
-202.371
-191.629
-197.381
-182.993
-194.355
-169.175
-162.887
-187.012
-172.496
-171
-176.613
-175.97
-173.795
-134.009
-161.087
-195.947
-168.894
-165.646
-175.804
-110.188
-98.8038
-147.964
-103.609
-129.898
-107.504
-112.084
-88.6728
-87.8949
-46.5028
-68.7418
-76.457
-32.8836
-116.713
-59.3029
-69.5347
-22.4671
-28.7712
-29.5585
-93.2954
-54.8866
-135.268
-167.334
-136.246
-122.021
-97.3319
-146.021
-141.581
129.686
81.437
161.498
41.0864
189.549
219.337
88.2212
42.4922
217.66
234
336.368
117.396
257.448
66.692
274.272
259.624
497.149
503.982
545.939
454.991
480.939
202.56
445.018
221.415
476.331
432.095
528.514
406.583
507.854
220.755
483.621
226.262
249.398
250.111
371.413
72.6539
349.074
316.882
94.2005
404.614
239.524
418.148
408.014
115.361
390.435
128.274
413.887
441.625
339.405
418.948
375.986
449.761
341.129
169.63
277.376
195.545
371.486
242.07
272.858
296.842
409.947
215.213
454.433
197.27
-289.931
-264.785
-308.778
-258.21
-300.721
-281.306
-254.647
-345.177
-227.99
-300.33
-261.938
-276.893
-282.137
-232.44
-249.29
-266.072
-244.674
-79.7915
755.169
750.06
318.933
387.059
350.406
-139.057
853.844
3952.7
2821.77
2182.54
2507.02
4918.37
903.437
50.8586
-347.716
-341.904
-54.2395
-112.613
-458.026
5.15025
77.2132
-93.6361
-129.911
-21.1839
-81.4822
-64.4851
-82.8099
537.811
-324.334
418.645
-357.444
-112.938
25.2102
-288.231
-159.555
23.1113
-120.703
-442.399
112.381
286.16
68.5374
83.4963
338.433
-7.89162
356.347
61.5408
807.674
497.891
82.9147
136.187
732.782
328.635
142.615
823.287
443.811
-1792.81
553.16
492.592
-143.653
786.602
1712.8
1058.77
3903.76
-2452.01
3386.88
1675.59
-167.369
463.152
273.615
572.262
516.671
323.154
216.771
637.066
-59.0979
-151.581
-332.582
-264.456
-263.031
-185.633
-231.873
-93.7913
-329.285
390.02
-336.081
-203.829
-94.1128
-203.377
-346.159
-297.959
187.931
-229.639
-208.22
-340.019
-256.242
-224.534
-145.523
-263.633
-39.4945
-292.42
-278.162
-112.521
-80.0177
-267.046
-308.201
87.8459
-197.098
-328.736
-261.676
-261.17
-253.788
-254.587
-236.105
-338.68
-313.681
-343.787
-312.028
-316.949
-327.215
-311.164
-335.777
-332.532
-302.562
-326.252
-308.377
-322.56
-350.154
-326.009
-344.065
-259.741
-331.395
-333.561
-279.596
-336.114
-13.48
-329.568
-2.12508
-236.282
-300.662
-327.032
-258.289
-308.867
-195.487
-300.082
-168.903
-286.032
-328.064
-325.457
-283.864
-312.691
-207.442
-309.283
-213.847
-284.392
-317.579
-277.663
-323.091
-310.694
-211.521
-307.671
-215.574
-219.491
-229.282
-191.226
-233.664
-209.495
-200.231
-221.412
-108.956
-302.115
-238.624
-231.709
-238.225
-258.956
-250.413
-144.785
-295.058
1497.79
-292.399
-137.852
-230.66
-172.215
401.897
-243.13
189.561
173.055
72.07
-282.56
-188.296
-204.748
-230.647
-301.474
-229.118
-240.638
-219.469
-235.331
-210.813
-107.158
-286.346
-102.368
-280.042
-222.767
-309.219
-263.2
-247.87
-218.381
-242.442
-242.772
-121.341
-250.696
-288.687
-84.1918
-285.965
-261.465
-394.68
-256.742
-287.629
-389.455
-253.798
-330.977
-322.324
-405.195
-276.339
-333.552
-412.659
-278.344
1.9053
192.905
171.884
357.438
158.14
355.276
158.012
290.94
309.401
322.259
-626.474
-751.823
-976.223
-480.739
-471.065
-629.939
-709.612
-745.81
-630.068
-740.014
-728.526
-633.602
-706.1
-629.503
-733.775
-883.921
-897.606
-871.523
-881.615
-519.639
-520.204
-677.584
-776.766
-726.498
-666.177
-750.875
-739.14
-645.877
-715.715
-652.835
-733.139
-941.245
-960.967
-921.94
-897.529
-40.1215
-15.4826
109.769
-23.7917
148.837
166.982
-28.9171
130.915
149.232
103.077
125.497
-63.8917
125.689
-53.9637
82.5318
140.503
320.991
256.86
252.331
328.697
359.597
186.003
371.63
181.095
324.936
304.089
369.921
257.706
355.252
174.522
362.941
177.386
-98.0389
-119.315
27.162
-2.16346
194.762
126.96
66.5979
-53.7908
121.977
13.532
109.209
-72.8724
87.554
-77.4619
28.5881
99.191
323.489
268.535
267.712
322.591
354.649
159.491
348.216
162.622
319.039
272.551
320.191
269.223
356.631
170.363
363.897
165.768
-312.422
-320.213
-315.06
-316.401
-326.758
-312.348
-316.207
-320.897
-305.497
-302.516
-298.029
-309.035
-335.976
-332.836
-343.264
-328.387
-289.522
-292.752
-277.188
-300.696
-255.503
-218.249
-222.38
-266.264
-273.156
-234.021
-264.761
-224.517
-267.412
-293.647
-280.441
-283.194
-294.212
-290.603
-289.862
-297.106
-271.603
-280.135
-271.186
-281.96
-289.111
-282.455
-287.103
-285.156
-274.686
-290.15
-276.985
-285.589
-215.678
-231.437
-219.643
-228.108
-206.592
-210.791
-228.244
-242.368
-229.423
-240.13
-196.791
-198.417
-245.552
-236.614
-241.487
-240.777
-246.961
-258.285
-252.005
-252.969
-255.925
-255.434
-250.249
-261.408
-237.209
-239.022
-233.716
-242.327
-246.808
-245.777
-242.206
-250.183
-266.862
-266.969
-264.163
-271.396
-258.554
-255.305
-258.785
-254.607
-255.886
-265.585
-260.158
-261.063
-271.609
-294.026
-282.187
-284.684
-265.133
-218.135
-215.715
-255.647
-256.357
-212.205
-263.446
-215.756
-283.482
-282.385
-269.799
-294.344
-282.686
-280.57
-289.125
-274.917
-266.162
-269.063
-262.041
-273.461
-275.847
-264.717
-271.53
-268.673
-273.36
-287.821
-279.539
-281.012
-276.716
-290.602
-281.85
-284.418
-282.022
-271.047
-273.364
-278.079
-285.81
-280.063
-275.784
-291.86
-272.57
-274.585
-268.703
-278.86
-153.475
-189.066
-188.784
-138.76
-152.662
-189.379
-138.981
-78.4499
-85.4111
-55.9235
-78.8991
-85.1896
-78.0206
-84.73
-55.5034
-77.7723
-84.9476
-154.487
-190.1
-190.421
-140.062
-154.311
-190.626
-139.884
-78.8465
-85.5335
-56.1269
-78.9121
-85.5609
-78.7525
-85.8268
-55.9783
-79.0189
-85.6342
-211.077
-216.555
-207.426
-219.626
-187.305
-189.962
-205.787
-217.794
-209.608
-214.62
-191.381
-189.352
-233.435
-234.906
-230.403
-237.903
-250.837
-250.127
-245.079
-256.214
-239.99
-232.003
-237.041
-234.981
-243.641
-254.396
-248.766
-249.005
-235.721
-229.069
-232.784
-232.059
-241.068
-250.763
-245.197
-246.497
-230.214
-231.147
-233.768
-227.473
-246.811
-247.935
-242.458
-252.505
-273.598
-278.851
-281.483
-270.909
-261.471
-258.386
-255.745
-264.191
-264.646
-256.374
-259.002
-261.916
-270.582
-281.073
-278.391
-273.266
-272.345
-288.334
-275.608
-285.266
-258.029
-206.333
-206.058
-255.547
-255.386
-205.324
-257.342
-206.718
-276.361
-285.773
-288.938
-272.723
-271.246
-282.411
-274.432
-279.032
-266.808
-257.438
-261.38
-262.912
-262.348
-260.062
-256.785
-265.571
-275.556
-279.594
-283.316
-271.842
-272.537
-285.986
-279.642
-278.603
-272.021
-260.707
-265.103
-267.346
-279.867
-279.647
-287.041
-272.862
-264.572
-265.645
-259.774
-270.614
-277.95
-285.695
-272.306
-290.852
-255.655
-206.047
-207.441
-258.755
-259.47
-207.606
-255.618
-207.285
-272.394
-290.122
-277.384
-285.671
-277.822
-279.787
-272.328
-285.23
-263.257
-262.809
-258.156
-268.044
-269.254
-259.023
-264.12
-263.977
-272.074
-284.452
-276.761
-279.599
-270.183
-280.004
-278.145
-271.916
-263.34
-255.338
-257.567
-261.235
-261.022
-257.046
-255.193
-262.809
-272.424
-278.343
-280.267
-270.46
-273.369
-284.861
-272.162
-285.948
-255.175
-205.042
-205.441
-255.862
-255.8
-205.023
-254.93
-205.649
-272.368
-286.117
-284.817
-273.624
-271.889
-278.397
-270.25
-279.8
-261.212
-256.967
-255.316
-262.973
-262.75
-255.235
-256.905
-261.025
-270.536
-279.983
-278.517
-272.199
-200.516
-210.1
-201.37
-209.176
-181.488
-181.62
-201.114
-208.813
-200.643
-209.724
-181.347
-181.947
-222.915
-226.009
-243.692
-237.51
-225.626
-223.673
-222.544
-226.846
-238.38
-242.751
-236.758
-244.398
-226.428
-222.253
-224.969
-223.473
-237.193
-244.858
-238.587
-243.368
-273.333
-286.491
-273.711
-285.796
-255.997
-205.141
-205.804
-255.641
-256.055
-205.569
-256.109
-206.034
-273.522
-285.496
-273.077
-286.011
-279.66
-271.344
-256.025
-261.955
-271.222
-280.2
-279.352
-272.114
-263.031
-255.524
-261.635
-257.119
-272.181
-279.096
-271.035
-279.974
-261.864
-257.238
-255.803
-262.978
391.892
530.736
350.053
446.082
327.055
-187.497
-316.541
158.687
-282.647
-368.112
-32.4747
-190.884
-649.398
-405.274
-349.986
735.897
689.451
456.452
532.439
762.642
400.947
1904.56
2414.22
1532.3
1111.56
1250.33
1243.23
-340.067
-429.054
-607.219
-620.302
-424.97
-592.465
-358.752
-319.741
-445.584
-310.175
-543.446
-254.157
-402.847
-532.139
1372.86
2414.8
1543.88
866.028
1654.32
43.6382
1952.07
-388.78
-439.992
-626.876
-658.906
-382.874
-631.218
-437.101
-379.458
-638.969
-417.029
-662.837
-365.882
-634.036
-431.054
926.108
566.346
765.727
849.865
642.585
1037.87
806.634
-358.308
-593.522
-519.646
-896.593
-445.832
-732.567
-1121.91
-830.529
328.565
-400.922
576.517
-213.573
-734.391
-778.815
-951.407
-803.104
-744.935
-858.655
-797.525
-873.164
-939.377
-969.647
-875.207
-787.349
-744.976
-801.975
-959.209
-882.102
-945.241
-678.796
-811.49
-682.971
-866.071
-701.693
-865.071
-916.035
-885.425
-709.948
-774.083
-723.028
-860.213
-978.97
347.207
170.478
-1956.91
484.501
-1934.4
-379.793
1203.92
-1319.89
2072.84
-4874.15
571.983
-3314.15
1848.32
-1098.97
-828.454
-850.402
-952.869
-897.243
-794.105
-839.898
-736.232
-911.998
-798.71
-822.299
-887.093
-813.599
-732.538
-797.29
-795.13
-811.157
-890.99
-928.906
-820.544
-738.641
-841.415
-815.674
-940.54
-832.358
-913.696
-814.48
-732.465
-801.797
-807.358
-823.054
-901.696
)
;

boundaryField
{
    left
    {
        type            calculated;
        value           nonuniform List<scalar> 
598
(
-136.102
-5.51014
36.5534
-190.109
-255.38
-186.176
-268.574
-15.7651
-289.816
-148.021
-304.496
51.528
-86.2709
-76.756
-186.239
-189.542
-230.635
-227.642
-289.323
-231.38
-227.43
493.34
437.734
138.719
-259.854
-298.578
-81.6943
-51.1959
-243.355
-240.621
-293.039
-270.458
-240.02
-239.529
659.871
633.451
30.0637
252.38
3964.07
94.1462
262.109
35.8438
-197.742
-200.691
-186.633
-186.461
-236.306
4099.36
-230.04
-244.673
-260.794
-174.886
-256.361
-223.792
-316.528
-266.592
-214.907
38.5322
-6.41017
-45.132
-195.374
-39.2558
10.6678
-56.3342
-222.569
-187.242
-187.504
-249.032
-244.584
-229.158
-260.268
-263.442
-257.194
-259.371
-228.698
-239.774
-277.188
-311.185
-264.945
-273.176
-236.185
-264.388
-251.105
-227.658
-256.487
-256.709
-256.764
-227.95
-239.723
310.985
-249.5
-254.035
-202.738
-201.749
-251.555
-247.974
-201.003
-200.477
-10.9514
48.6606
178.882
34.8403
54.2222
48.8409
-192.076
-45.1293
-44.124
-54.0937
-53.7058
-224.894
-187.283
-42.3601
-42.6689
-42.264
-186.237
-284.853
-34.3674
-48.6691
338.317
307.808
5.46777
-158.744
-212.715
-189.211
-326.75
-318.882
-305.512
76.9301
83.3796
46.8981
-121.434
-66.2796
-29.9501
-88.5486
-182.992
-186.607
-41.9765
-42.509
-44.1687
-42.6372
-188.586
-211.556
-209.873
-230.105
-269.949
-270.323
-267.531
-267.921
-227.987
-265.996
-301.045
-319.471
-270.685
-271.277
-232.603
-215.853
-213.31
-227.444
-267.099
-267.23
-268.382
-228.511
-200.562
529.083
330.005
289.356
334.527
549.87
358.074
296.463
217.491
-229.337
-242.906
-283.667
-265.993
-247.523
-279.351
-275.953
-295.234
-50.3949
-72.9105
-48.3714
-205.113
-203.83
-242.334
-225.435
-226.614
-223.468
-224.413
-241.44
-284.028
-268.554
-274.727
-261.581
-266.41
-276.322
-249.799
-242.837
-239.713
-222.369
-222.772
-221.993
-222.125
-239.566
-200.139
-199.933
89.5853
1013.37
1242.22
732.357
75.6158
84.3023
27.4513
193.976
48.0457
112.363
263.242
61.5434
34.0505
156.206
96.3295
59.9984
145.951
129.226
211.126
41.7136
72.5959
81.7496
-49.6887
-45.6944
-193.201
-214.959
-54.7627
-50.8385
-42.9574
-42.4407
-187.071
-186.284
-42.2456
-42.9485
-4.35005
-26.8785
-286.097
809.628
241.002