/*--------------------------------*- C++ -*----------------------------------*\
| =========                 |                                                 |
| \\      /  F ield         | OpenFOAM: The Open Source CFD Toolbox           |
|  \\    /   O peration     | Version:  2012                                  |
|   \\  /    A nd           | Website:  www.openfoam.com                      |
|    \\/     M anipulation  |                                                 |
\*---------------------------------------------------------------------------*/
FoamFile
{
    version     2.0;
    format      ascii;
    class       volVectorField;
    location    "0.105/solid";
    object      sigmaMaxDir;
}
// * * * * * * * * * * * * * * * * * * * * * * * * * * * * * * * * * * * * * //

dimensions      [1 -1 -2 0 0 0 0];


internalField   nonuniform List<vector> 
3124
(
(0.8701 0.147497 -0.470288)
(-0.255513 0.245883 0.935016)
(0.433035 -0.394365 0.810529)
(-0.120311 0.992577 0.017761)
(0.0668366 0.997704 0.0109222)
(-0.0519198 0.998638 -0.00506958)
(-0.250976 0.257085 0.93323)
(0.00826637 0.985975 -0.166687)
(0.985368 -0.170327 0.00615357)
(-0.181579 0.86219 -0.472925)
(-0.140119 0.990101 0.00823029)
(0.415373 -0.275194 0.867026)
(0.0354328 0.995468 -0.0882542)
(-0.174511 0.984259 -0.0279392)
(-0.216925 0.913271 -0.34479)
(0.983956 -0.172611 0.0451239)
(-0.0962321 0.995359 -0.000611973)
(0.0146864 0.999885 0.00371937)
(0.066903 0.997732 0.00735981)
(-0.0519344 0.998648 -0.00229042)
(0.00913374 0.999956 0.00192715)
(0.0132209 0.999909 0.00249464)
(0.00784305 0.999969 0.00100909)
(0.771072 -0.482262 -0.415778)
(0.896678 -0.223396 -0.382181)
(0.655436 -0.558574 -0.508329)
(-0.481871 -0.171267 0.859342)
(0.815183 -0.00780421 -0.579151)
(0.908155 -0.0582864 -0.414556)
(-0.37543 -0.300981 0.87662)
(0.516875 0.619297 -0.591026)
(0.896539 -0.313064 -0.313382)
(-0.0206901 0.999786 -0.000757256)
(0.0497933 0.996388 -0.068786)
(-0.0865644 0.0401307 0.995438)
(0.99656 0.0330423 0.0760087)
(-0.0836142 0.996431 0.0115367)
(-0.0126762 0.999883 0.00859509)
(0.00790545 0.999968 0.000980248)
(0.0110171 0.999938 0.00146688)
(0.00474045 0.999989 0.000536751)
(0.00485031 0.999988 -6.37645e-05)
(0.722563 -0.546225 -0.423724)
(0.663265 0.434004 -0.609688)
(0.786944 -0.314137 -0.531072)
(0.766621 -0.533911 -0.356695)
(0.744188 -0.575136 -0.33971)
(-0.423483 -0.606672 0.672763)
(0.316534 0.116924 0.941348)
(0.922256 -0.231458 -0.309631)
(0.0964704 0.994905 0.0292973)
(-0.0511677 0.998663 0.00735663)
(0.0573314 0.998339 0.00561447)
(-0.0606529 0.998136 -0.00677596)
(0.753587 -0.196953 -0.627149)
(-0.237516 -0.57327 0.784186)
(0.625028 0.505625 -0.594713)
(0.800271 -0.596924 0.056995)
(0.0666598 0.99307 -0.0967869)
(-0.0834535 -0.453658 0.88726)
(0.0640163 0.835874 -0.545175)
(-0.318511 -0.156881 0.934847)
(0.963526 -0.13978 -0.228208)
(-0.0943453 -0.00484587 0.995528)
(0.916067 -0.399624 0.0334923)
(-0.339843 -0.166732 0.925585)
(0.11622 -0.0888645 0.98924)
(0.917991 -0.382414 -0.105134)
(-0.0106208 0.0126709 0.999863)
(-0.214538 -0.0688707 0.974285)
(-0.199646 -0.685773 0.699898)
(0.195051 0.972659 -0.126052)
(0.312733 0.809138 -0.497487)
(0.806059 -0.587605 0.0706302)
(0.807697 -0.584959 0.0738154)
(-0.389984 0.881953 -0.264709)
(0.236643 -0.332888 0.91279)
(0.0777075 0.98614 -0.14659)
(-0.103988 0.988939 -0.105768)
(-0.104539 0.993829 -0.0370971)
(-0.0295761 0.999558 -0.00294842)
(-0.0157655 0.988933 -0.147524)
(0.0531206 0.996111 -0.0702965)
(-0.0109404 0.993752 -0.111076)
(0.303705 0.952766 -0.000425417)
(-0.0136271 0.998687 -0.0493789)
(-0.072075 0.0337231 0.996829)
(0.984578 -0.174932 -0.00229522)
(-0.0300755 0.00306256 0.999543)
(0.920407 -0.384865 0.068772)
(0.0329073 -0.044767 0.998455)
(0.771022 0.0463884 -0.635116)
(0.920326 -0.390609 -0.0205914)
(0.820525 -0.57161 0.00078014)
(0.00652324 -0.00802147 0.999947)
(0.000457199 0.0122177 0.999925)
(-0.00829236 -0.0212828 0.999739)
(0.819398 -0.570489 0.0559321)
(0.822871 -0.568056 0.0139806)
(-0.0875693 0.996117 0.00909778)
(0.0167888 0.999812 0.00971143)
(-0.0385759 0.99923 0.00720831)
(0.0245722 0.999693 0.00330982)
(0.126974 0.991878 0.0073973)
(0.00389658 0.999985 0.00392215)
(0.0386273 0.999248 0.00329605)
(0.0715909 0.99742 0.00526352)
(-0.0504559 0.998719 -0.00375774)
(0.0669341 0.997722 0.00845103)
(0.0166439 0.999859 0.00229983)
(0.0152035 0.999883 0.00174623)
(0.0096302 0.999953 0.000845011)
(0.0114494 0.999933 0.00190341)
(0.0135816 0.999907 0.00148337)
(0.0272146 0.999627 0.00219467)
(0.0113592 0.999932 0.00246307)
(0.0190527 0.999817 0.00160872)
(0.00577737 0.999983 0.00064566)
(0.0016327 0.999999 0.000330628)
(0.00561052 0.999984 -0.00018848)
(-0.000167705 1 -0.000431063)
(0.00182579 0.999998 -0.000245855)
(0.00133975 0.999999 -0.000297227)
(0.267324 0.963575 0.00785833)
(0.887973 0.222538 -0.402469)
(-0.0263561 0.999647 -0.00333509)
(0.0781717 0.996726 -0.0206712)
(-0.170229 0.985268 0.0164186)
(-0.235179 0.971897 0.0103869)
(-0.00493911 0.999987 0.00143366)
(0.0016395 0.999997 0.0017884)
(0.0119672 0.999928 0.000710614)
(0.00540756 0.999985 0.000416451)
(0.903341 -0.409154 -0.128718)
(0.737403 -0.489846 -0.465067)
(-0.337134 -0.19596 0.920837)
(-0.137501 0.373946 0.917201)
(0.312219 -0.316656 0.895683)
(0.798464 -0.172712 -0.576737)
(0.719956 -0.693229 0.0331185)
(0.589294 0.644951 -0.486591)
(0.260487 0.959633 -0.10607)
(0.294885 -0.591809 0.750204)
(0.511183 -0.0548035 0.857723)
(0.605443 0.764006 0.22301)
(0.2261 0.706764 0.670346)
(0.304273 -0.51621 0.80059)
(-0.602967 0.611758 -0.512038)
(0.205364 0.976182 0.0699544)
(-0.124568 0.990288 -0.0617522)
(-0.0543504 0.998522 0.000173548)
(0.0257994 0.999511 0.0176696)
(0.00210688 0.999959 0.00880842)
(-0.00622174 0.999978 -0.00211126)
(0.0587457 0.998254 0.00622949)
(0.017205 0.99981 0.00917083)
(-0.055258 0.998457 -0.0055693)
(0.00223371 0.999991 0.00357632)
(-0.443279 0.188596 0.876319)
(-0.553956 0.292258 0.779563)
(-0.217541 -0.129698 0.967396)
(-0.125649 0.355653 0.926134)
(0.139941 -0.179725 0.973712)
(-0.477701 -0.0377027 0.877713)
(-0.446578 0.253755 0.858007)
(-0.42378 0.903522 -0.0637056)
(-0.137934 0.979631 -0.145938)
(0.0876131 0.995985 0.0183548)
(-0.0658906 0.947036 -0.314296)
(0.425447 0.857284 -0.289929)
(0.201327 0.961919 -0.184879)
(-0.153864 0.748703 -0.644803)
(-0.0168696 0.958294 -0.285287)
(0.557008 0.830002 0.0289758)
(0.0974856 0.966713 -0.236564)
(0.111554 0.895692 -0.430454)
(0.637453 -0.505616 0.581383)
(-0.508927 0.848796 -0.143312)
(0.622078 -0.389754 0.679051)
(-0.0601251 -0.300026 0.952034)
(0.113242 0.987548 0.109206)
(0.376163 -0.108996 0.92012)
(0.395587 -0.468396 0.79001)
(-0.00374552 0.294173 0.955745)
(0.0865216 -0.433169 0.89715)
(0.336367 -0.348024 0.875064)
(-0.144939 0.989329 -0.0148879)
(-0.199169 0.978609 -0.0515392)
(-0.107146 0.993833 -0.0285465)
(-0.105517 0.993314 -0.0468365)
(0.100143 0.984502 0.143969)
(-0.112326 0.981156 -0.157212)
(-0.363952 0.827622 -0.427294)
(0.0491522 0.998149 -0.0358018)
(-0.0904074 0.713571 -0.694726)
(-0.180011 0.971297 -0.155494)
(-0.154298 0.988023 0.00181257)
(-0.0107788 0.999785 0.01771)
(-0.134555 0.990815 0.0134702)
(-0.108459 0.994075 0.0071426)
(-0.105312 0.994398 0.00907487)
(0.0148952 0.999882 0.00384438)
(0.0356236 0.999361 0.00300648)
(0.0396142 0.999208 0.00386237)
(0.0243172 0.999622 0.0128561)
(-0.0501165 0.998735 -0.00419938)
(-0.0049418 0.999988 -0.000746153)
(-0.00163501 0.999993 0.00341892)
(0.0611362 0.99809 0.00885192)
(0.0165524 0.999798 0.0114363)
(-0.0550396 0.998472 0.00491124)
(-0.0365462 0.999324 0.00397745)
(0.0175311 0.999845 0.00140457)
(0.0110047 0.999938 0.00177709)
(0.0218361 0.99976 0.00199274)
(0.0324931 0.999469 0.00257724)
(0.0103256 0.999944 0.0023641)
(0.0281348 0.999602 0.00220151)
(0.0172496 0.99985 0.00147301)
(0.00411419 0.999991 0.000811989)
(0.0127298 0.999919 0.00079286)
(-0.0497928 0.998757 0.00222854)
(0.0104375 0.999943 0.00208627)
(0.0119273 0.999928 0.00158913)
(0.929827 0.367982 -0.00322104)
(0.885063 0.405387 -0.228747)
(0.784143 -0.284878 -0.55133)
(0.794175 -0.589449 -0.147772)
(0.799214 -0.593054 -0.097696)
(0.89549 0.203107 -0.396038)
(0.982411 -0.1446 0.118153)
(0.0141357 0.998747 0.0480005)
(-0.492642 0.869682 0.0309362)
(-0.536137 0.697096 0.476041)
(-0.145485 0.987695 0.057386)
(0.866411 0.052648 -0.496548)
(-0.15575 0.986187 0.0563629)
(-0.62985 0.754132 0.18594)
(0.678117 -0.481287 -0.555447)
(-0.518842 0.697482 0.49429)
(0.729865 -0.677002 -0.0946864)
(-0.254767 0.965825 0.0477095)
(0.63469 -0.579167 -0.511599)
(0.736253 0.202235 -0.645781)
(-0.574441 -0.176713 0.799243)
(-0.141295 -0.512043 0.847259)
(0.932132 -0.236858 -0.273912)
(0.770147 0.0805122 -0.632765)
(-0.364432 -0.447109 0.816874)
(0.821227 0.0504099 -0.56837)
(0.745611 0.303025 -0.593499)
(0.147603 -0.664459 0.732603)
(0.650146 0.451141 -0.611377)
(0.452332 0.691362 -0.563396)
(-0.665285 -0.271478 0.695483)
(0.298621 0.69252 -0.656689)
(0.639885 0.534232 -0.552398)
(0.171845 0.98029 -0.0974719)
(0.150771 0.987854 -0.0375913)
(-0.0194023 0.999811 -0.00126485)
(0.0186174 0.999725 -0.0142784)
(0.0478615 0.998706 -0.0171933)
(0.0665665 0.9949 -0.0757841)
(0.0647416 0.997471 -0.0293171)
(0.0925219 0.995184 -0.0323951)
(-0.242683 0.0218265 0.96986)
(0.935525 -0.344724 -0.077192)
(0.97337 -0.215416 -0.0784037)
(-0.0946833 0.995402 0.0144783)
(-0.205213 0.978639 0.0124133)
(-0.223585 0.974611 0.0119846)
(0.174123 0.984692 0.00790481)
(-0.0726334 0.997356 0.00248778)
(-0.201376 0.979436 0.0124024)
(0.0597557 0.998177 0.00850149)
(-0.175414 0.984454 0.00892101)
(-0.00315771 0.999992 0.00233439)
(-0.00733723 0.999971 0.00211071)
(0.00387648 0.999992 0.00113089)
(0.00921866 0.999957 0.00130907)
(0.00505917 0.999986 0.00147283)
(0.0063457 0.999978 0.00166889)
(0.00843383 0.999964 0.00125378)
(0.00472968 0.999988 0.00146306)
(0.00526461 0.999986 0.000611129)
(0.00432762 0.999991 0.000255423)
(0.00488481 0.999988 0.00029816)
(0.000159503 1 1.09472e-05)
(0.0147675 0.999891 0.000138017)
(0.00641571 0.999979 0.000188276)
(0.00308131 0.999995 -1.36787e-05)
(0.00614406 0.999981 0.000228233)
(0.883333 -0.450665 -0.128934)
(0.734269 -0.55934 -0.384692)
(0.754411 -0.363042 -0.546867)
(0.739145 -0.65544 -0.155123)
(0.812199 -0.57283 -0.110444)
(0.782576 -0.310645 -0.539513)
(-0.694438 0.71951 0.00777356)
(0.935581 -0.303235 -0.180931)
(-0.618309 -0.316591 0.71935)
(0.917721 0.378524 -0.120447)
(0.772748 0.182761 -0.607831)
(0.97705 0.00623101 -0.212917)
(0.478906 -0.294936 0.826839)
(0.820343 -0.0339555 -0.570863)
(0.915684 -0.382625 -0.122969)
(0.807295 -0.581144 -0.102695)
(0.74266 -0.385179 -0.547807)
(0.820316 -0.0659435 -0.568096)
(0.789463 -0.605747 -0.099086)
(0.984867 -0.145071 -0.094823)
(0.799925 -0.224535 -0.556511)
(0.965227 -0.257316 -0.0460967)
(-0.525895 0.633637 0.567397)
(-0.184416 0.982551 0.024177)
(0.950144 0.246867 0.190483)
(0.996795 -0.0350539 0.0719093)
(0.751558 -0.659326 -0.0211842)
(-0.559872 0.71877 0.412205)
(0.828073 -0.544993 -0.131445)
(-0.454096 0.888474 0.0664138)
(0.941604 -0.325771 0.0851824)
(0.732561 0.559489 -0.387719)
(-0.0166085 -0.683738 0.729539)
(0.877069 0.468529 -0.105974)
(-0.500536 -0.46609 0.729536)
(0.964739 0.141979 -0.221633)
(0.648143 0.75491 -0.100106)
(-0.069994 -0.607006 0.791609)
(0.729275 0.672069 -0.128378)
(0.540083 0.100851 0.835547)
(-0.0614687 0.185245 0.980768)
(0.741447 0.442369 0.504546)
(0.939569 0.262897 0.219306)
(0.298487 0.789968 0.53559)
(0.590383 -0.191854 0.78399)
(0.93615 0.345591 0.0647368)
(0.845681 -0.533398 -0.0176194)
(0.81137 0.230827 -0.537026)
(0.997959 0.00963529 0.0631235)
(0.997816 -0.0153035 -0.0642634)
(0.981788 -0.0195494 0.188972)
(0.245432 -0.478347 0.843177)
(0.0997992 0.993874 0.0474858)
(0.053813 0.997327 0.0494286)
(-0.00196013 0.999731 0.0230948)
(0.0602013 0.998082 0.0144332)
(0.0178429 0.999511 0.0256752)
(0.0230064 0.999508 0.0213375)
(-0.055979 0.998414 -0.00596364)
(0.0176194 0.999806 0.00883522)
(-0.00938017 0.999946 -0.00446201)
(0.0551019 0.998464 0.00585615)
(-0.0122601 0.999908 -0.00582218)
(0.0201639 0.999729 0.0116163)
(0.924012 -0.380523 0.037464)
(0.807906 -0.181104 -0.560794)
(-0.610726 0.267294 0.745364)
(0.795271 -0.377361 -0.474492)
(0.763222 0.0996347 -0.638408)
(0.779109 -0.253971 -0.573139)
(0.931249 -0.353733 -0.0874576)
(0.770189 -0.0792672 -0.632871)
(0.777469 -0.461814 -0.426932)
(-0.201215 0.146955 0.968461)
(-0.217679 -0.351368 0.91058)
(0.876906 0.478273 0.0478528)
(-0.273926 -0.470965 0.838544)
(0.205116 -0.20782 0.95642)
(-0.101289 -0.367226 0.9246)
(-0.364808 -0.216393 0.905588)
(-0.549004 0.177295 0.8168)
(0.064991 0.85615 -0.512624)
(0.714147 0.314559 -0.625337)
(-0.517441 -0.45113 0.727143)
(-0.578022 -0.274777 0.768367)
(-0.245606 -0.384426 0.889885)
(-0.641582 -0.19867 0.740879)
(-0.628401 0.0295252 0.777329)
(0.854838 -0.485522 -0.183087)
(0.946033 -0.317102 -0.0668361)
(-0.246198 -0.0919426 0.964849)
(-0.106165 -0.440682 0.891363)
(-0.453071 0.825738 -0.335981)
(-0.436434 -0.370454 0.819932)
(0.355922 0.739127 -0.571849)
(-0.108247 0.748726 -0.653982)
(0.0531553 0.806965 -0.588202)
(-0.274067 0.961503 -0.019978)
(-0.283751 0.954737 -0.0892312)
(-0.173187 0.984888 0.00122526)
(-0.107151 0.984377 -0.139713)
(-0.351737 0.935973 0.0153614)
(-0.403232 0.913988 0.0450469)
(-0.128602 0.977979 -0.164375)
(-0.359691 -0.115023 0.925955)
(-0.561144 -0.15509 0.813058)
(-0.0124738 -0.553084 0.833032)
(-0.494289 0.843962 -0.208344)
(-0.296892 0.753128 -0.587071)
(0.160022 0.778713 -0.606629)
(-0.14396 0.938815 -0.312893)
(-0.000769347 -0.448417 0.893824)
(-0.399538 0.916251 -0.029206)
(-0.0263403 0.903248 -0.42831)
(0.946455 -0.13887 -0.29144)
(-0.546307 -0.0836795 0.833395)
(-0.272588 -0.0137698 0.962032)
(0.913916 -0.227738 -0.335995)
(0.882688 -0.0718718 -0.46443)
(-0.564027 -0.0312452 0.825165)
(0.924695 -0.28632 -0.25092)
(0.973377 -0.161064 -0.163082)
(-0.268556 0.0222629 0.963007)
(0.169046 -0.00852566 0.985571)
(0.938022 -0.312454 0.149958)
(-0.521107 -0.00719652 0.853461)
(0.945922 -0.303633 -0.114184)
(0.979596 -0.172264 0.103522)
(-0.214713 -0.116555 0.969698)
(-0.0922529 -0.0284983 0.995328)
(-0.0581338 -0.00980892 0.998261)
(-0.00289735 0.0270135 0.999631)
(-0.105729 -0.0240701 0.994104)
(-0.28721 -0.0861194 0.953988)
(-0.109541 -0.0676086 0.99168)
(-0.155857 -0.0292525 0.987346)
(0.0122234 0.0253318 0.999604)
(-0.0860493 -0.0371564 0.995598)
(0.551755 0.812878 -0.186535)
(0.0388894 -0.691866 0.720978)
(0.842149 0.538966 0.0173563)
(0.257987 0.716379 -0.648262)
(0.590166 0.451662 0.669108)
(0.454685 0.646619 -0.612492)
(0.229599 0.821061 -0.522631)
(0.381767 0.912566 -0.146552)
(0.156459 0.970514 -0.183367)
(-0.12239 0.992472 -0.00440845)
(0.11402 0.977199 -0.179111)
(-0.31685 0.948473 0.00205098)
(0.0926633 0.978416 -0.184705)
(0.259883 0.93211 -0.252255)
(0.50945 0.851455 -0.124442)
(-0.21172 0.854885 -0.473652)
(0.393542 0.734774 -0.552478)
(0.012789 0.959325 -0.282015)
(0.440359 0.639616 -0.630059)
(-0.434458 0.900675 -0.0056444)
(0.278586 0.894114 -0.350643)
(0.922719 -0.377935 -0.0758678)
(0.920427 -0.357565 -0.157994)
(0.788009 -0.525606 0.320592)
(0.801029 -0.596964 0.0445667)
(0.836194 -0.547675 -0.0288444)
(0.902213 -0.361048 0.235916)
(0.916753 -0.366585 -0.158682)
(0.848338 -0.522078 0.0880743)
(0.807057 -0.589582 0.0324453)
(0.824224 -0.439191 -0.357444)
(-0.566684 0.802268 -0.18771)
(-0.42813 0.706278 -0.563805)
(0.613124 -0.364621 0.700807)
(-0.258496 -0.184119 0.948304)
(0.412012 -0.236699 0.879898)
(0.00874865 -0.0373901 0.999262)
(0.651631 -0.548238 0.524225)
(0.135974 -0.403918 0.904633)
(0.957234 0.275573 0.0881048)
(0.422717 -0.35377 0.83436)
(-0.520953 -0.188782 0.832448)
(-0.51685 0.650231 -0.556836)
(-0.462983 0.676832 -0.572316)
(0.278371 -0.303536 0.91125)
(0.453621 -0.468129 0.758343)
(0.764802 0.121848 -0.632638)
(0.619441 -0.401818 0.674415)
(0.94492 0.192428 0.264759)
(0.41787 -0.419328 0.805946)
(0.999772 0.0209943 0.00378983)
(-0.160685 0.986634 -0.0271008)
(-0.239961 0.966363 -0.0925271)
(0.996587 -0.0758434 0.0326055)
(-0.157896 0.987011 -0.0296466)
(-0.15695 0.984997 -0.071749)
(0.983623 -0.179808 0.0124417)
(-0.177287 0.980816 -0.0810456)
(-0.0725255 0.997334 -0.0080678)
(0.00558742 0.999884 -0.0141778)
(-0.0371316 0.999136 -0.0186538)
(-0.195831 0.977963 -0.0723771)
(-0.0641529 0.99241 -0.104909)
(-0.0635529 0.996796 -0.0485758)
(0.046141 0.998506 -0.0292855)
(0.0135269 0.996675 -0.0803496)
(0.0126816 0.999315 -0.034763)
(-0.151287 0.984691 -0.0865843)
(-0.030376 0.992329 -0.119836)
(-0.0816382 0.995611 -0.045753)
(-0.220143 0.968735 -0.114409)
(0.0221061 0.998993 -0.0390522)
(-0.197358 0.976469 -0.0869397)
(-0.214769 0.968737 -0.124192)
(-0.465332 0.877116 -0.118882)
(-0.178548 0.93746 -0.298812)
(0.180873 0.981578 -0.0615627)
(0.142438 -0.367757 0.918948)
(0.0441693 0.994156 -0.0985053)
(0.831629 -0.546593 0.0981255)
(-0.136228 0.988391 -0.0672768)
(-0.0101824 0.998076 -0.061165)
(0.957685 -0.287488 0.0138073)
(-0.123012 0.989795 -0.0719329)
(0.973143 -0.191883 -0.127174)
(-0.0895164 0.0370448 0.995296)
(-0.26049 0.0191572 0.965286)
(0.941712 -0.333392 -0.04504)
(0.977228 -0.208694 -0.0383772)
(-0.206982 0.0148275 0.978232)
(0.939581 -0.31408 -0.136163)
(0.982676 -0.18215 0.0341887)
(-0.0671405 0.0253123 0.997422)
(0.119418 0.00861072 0.992807)
(0.946175 -0.297245 0.128055)
(0.98364 -0.174267 0.0456514)
(-0.0892549 0.015319 0.995891)
(0.952468 -0.303953 0.0204185)
(0.914058 -0.395617 -0.089357)
(0.853844 -0.513763 -0.0836561)
(-0.0163006 -0.0144151 0.999763)
(-0.0147141 -0.0142066 0.999791)
(0.00828926 0.00411812 0.999957)
(-0.021989 -0.00711532 0.999733)
(0.00424133 0.020791 0.999775)
(-0.00751738 -0.0104838 0.999917)
(-0.0283764 0.000896267 0.999597)
(-0.00682208 0.0111639 0.999914)
(-0.000818341 0.0143331 0.999897)
(-0.0151423 -0.0100537 0.999835)
(-0.0136148 -0.0245562 0.999606)
(-0.0305463 -0.0134684 0.999443)
(0.920975 -0.38942 -0.012558)
(0.926335 -0.35818 -0.116664)
(0.849658 -0.500236 0.166868)
(0.826451 -0.562044 0.0329565)
(0.868706 -0.490684 0.0676672)
(0.922435 -0.349064 0.165131)
(0.935837 -0.352432 0.000862647)
(0.861176 -0.506128 0.0470102)
(0.825467 -0.564284 0.0136931)
(0.863587 -0.492504 -0.107969)
(-0.107615 0.994176 0.00580962)
(-0.176678 0.984172 0.0137951)
(-0.139314 0.990141 0.0145937)
(0.0315532 0.999323 0.0189243)
(-0.0256572 0.999662 0.0041541)
(-0.0698121 0.997473 0.0132096)
(-0.175792 0.984325 0.0141813)
(-0.0240902 0.999694 0.00561797)
(-0.108327 0.994011 0.0143682)
(0.324841 0.945753 0.00547131)
(0.170163 0.985407 0.00409492)
(-0.0151927 0.999876 0.00417356)
(0.0527812 0.998594 0.00495801)
(0.00783727 0.999954 0.00558583)
(0.199058 0.979958 0.00761813)
(0.110163 0.99389 0.00687911)
(0.117048 0.993107 0.00624263)
(0.00727563 0.999966 0.00388819)
(0.00202131 0.999997 0.00129227)
(0.0271655 0.999626 0.00329793)
(0.0416769 0.999124 0.0036593)
(0.0600158 0.998185 0.00503862)
(0.0556192 0.998438 0.00523514)
(0.03817 0.999265 0.00349483)
(0.0845966 0.996394 0.00644766)
(0.0606421 0.998143 0.00571528)
(0.0638963 0.997926 0.00784476)
(-0.0054254 0.999985 -0.000544345)
(0.0197467 0.999737 0.0116675)
(-0.0523738 0.998622 -0.00338686)
(0.0235277 0.99963 0.0136319)
(-0.00575385 0.999983 -2.07058e-05)
(-0.0186956 0.999821 0.0029103)
(-0.0166788 0.999855 0.00340957)
(-0.00687608 0.999972 0.00300451)
(0.0159084 0.999871 0.00198256)
(0.000670377 0.999997 0.0024806)
(0.00595942 0.99998 0.00200378)
(0.0172156 0.99985 0.00197844)
(0.00625786 0.999978 0.00235462)
(0.0107087 0.999942 0.000991507)
(0.0113193 0.999935 0.00119336)
(0.0129841 0.999915 0.00144092)
(0.0092446 0.999955 0.00204085)
(0.0257583 0.999665 0.00238016)
(0.0224994 0.999745 0.0019844)
(0.0109534 0.999939 0.00131021)
(0.0169728 0.999854 0.00189505)
(0.0149358 0.999887 0.00164811)
(0.0312507 0.999508 0.00261165)
(0.0235017 0.999722 0.00190087)
(0.0267828 0.999639 0.00226644)
(0.0121293 0.999924 0.00208216)
(0.0254209 0.999675 0.00199334)
(0.0282656 0.999598 0.00216334)
(0.022827 0.999738 0.00183316)
(0.0208011 0.999782 0.00186215)
(0.02504 0.999684 0.00207173)
(0.00933115 0.999956 0.000993525)
(0.00510734 0.999987 0.00034117)
(0.00812641 0.999967 0.000577595)
(0.00424197 0.999991 0.000360468)
(0.00660651 0.999978 9.5565e-06)
(0.0105002 0.999945 0.000625164)
(0.00665577 0.999978 8.94587e-05)
(0.00499583 0.999988 -0.000144794)
(0.00639746 0.99998 0.000241108)
(0.0060293 0.999982 -0.00020745)
(-0.0221728 0.999754 0.00052172)
(-0.0094238 0.999955 0.000658269)
(-0.0200941 0.999797 0.00111639)
(0.00038408 1 -0.00034828)
(-0.00442349 0.99999 -0.000238798)
(-0.00771528 0.99997 -6.48426e-05)
(0.00201259 0.999998 0.000572679)
(0.00740345 0.999973 0.000277917)
(0.00654439 0.999979 0.000356873)
(-0.00195118 0.999998 0.000519658)
(0.00407906 0.999991 0.000869837)
(0.00428541 0.999991 4.11073e-06)
(-0.000522887 1 -9.10979e-05)
(0.00424995 0.999991 0.00020687)
(-0.144843 0.989386 0.0116237)
(-0.232832 0.972487 -0.00760516)
(-0.202194 0.978996 -0.0261791)
(0.109342 0.991972 0.0635305)
(-0.165333 0.986233 0.00300427)
(-0.172474 0.984982 -0.00799457)
(-0.134397 0.990748 0.0188543)
(0.00743882 0.999963 0.00435179)
(0.0220994 0.999694 0.0111008)
(-0.0460655 0.998938 -9.00656e-05)
(0.0206379 0.999771 0.00571)
(-0.0108058 0.999938 -0.00257651)
(0.0072182 0.999966 0.00403565)
(0.0212463 0.999754 0.00641059)
(-0.00225343 0.999997 -0.000959075)
(0.000898997 1 5.60123e-05)
(-0.0119169 0.999905 -0.00691219)
(0.0583646 0.99828 0.00557494)
(0.00307591 0.999995 -0.000633665)
(0.0192893 0.999793 0.00649078)
(-0.009353 0.999956 -0.00065715)
(-0.203737 0.978916 -0.0146384)
(-0.325902 0.94454 -0.0403929)
(-0.18626 0.982242 -0.0225451)
(-0.367138 0.928357 -0.0579932)
(-0.182365 0.98322 -0.00453433)
(-0.210296 0.976766 -0.0412751)
(-0.407517 0.90972 -0.0796169)
(-0.309451 0.945012 -0.105789)
(-0.0698103 0.985832 -0.152515)
(0.97741 -0.207955 -0.0377308)
(-0.477908 0.874766 -0.0799249)
(-0.544003 0.839018 0.010456)
(-0.347297 0.930601 -0.115612)
(-0.326361 0.93582 -0.133155)
(0.0144093 0.999894 0.00224199)
(0.0303328 0.999536 0.00264144)
(0.0243194 0.999657 0.00970451)
(-0.0458154 0.998944 -0.0033763)
(0.0131107 0.999912 0.00191766)
(-0.00917608 0.99995 -0.00404135)
(0.0339225 0.99942 0.00306643)
(-0.00702177 0.999975 0.000931957)
(-0.0123807 0.999909 -0.00528247)
(-0.00505765 0.999983 0.00290463)
(0.0586794 0.998241 0.00851468)
(-0.000729071 0.999999 0.00151072)
(0.0176334 0.999814 0.00777548)
(-0.016905 0.999855 0.00181284)
(0.740375 0.0748498 -0.668014)
(-0.45161 -0.0949615 0.887147)
(-0.47465 -0.204462 0.856097)
(-0.602816 -0.119611 0.788864)
(0.718445 0.0950051 -0.689065)
(-0.38794 -0.207149 0.898105)
(0.786788 -0.0438799 -0.615661)
(0.714029 0.376155 -0.590482)
(0.188467 0.754907 -0.628169)
(0.406517 0.753909 -0.516106)
(0.284578 0.678922 -0.676817)
(0.605883 0.595052 -0.528032)
(-0.0723595 0.0146498 0.997271)
(-0.432523 0.121014 0.893465)
(0.917267 -0.308867 -0.251439)
(0.403051 0.438455 0.80331)
(0.377482 0.53382 0.756667)
(-0.0105455 0.999856 0.013322)
(0.0169157 0.999555 0.0245717)
(-0.0120573 0.999874 0.0102865)
(0.0181412 0.999636 0.0199567)
(-0.0167731 0.999805 0.0104151)
(-0.0475654 0.998865 -0.00245734)
(0.0695956 0.997119 0.0301749)
(-0.0232202 0.999713 0.00581876)
(0.0582409 0.998148 0.0175652)
(-0.0316923 0.99949 -0.00395567)
(-0.019187 0.999737 0.0125669)
(-0.018896 0.999793 0.00759196)
(0.00115257 0.999959 0.00896092)
(-0.0391699 0.999198 0.00834197)
(0.0100799 0.999948 0.00146278)
(-0.0543151 0.99851 -0.00521982)
(0.0220599 0.999719 0.00870723)
(0.0132752 0.999912 0.000837978)
(0.00698583 0.999975 0.00112089)
(-0.0106627 0.999931 -0.00488684)
(0.0205377 0.999788 0.00141929)
(-0.00310492 0.999994 -0.00148882)
(0.0512997 0.998674 0.00421326)
(-0.0132762 0.999883 -0.00762083)
(-0.0148568 0.999888 -0.00162875)
(-0.00246591 0.999996 -0.00133806)
(0.0200022 0.999781 0.00609285)
(-0.018857 0.99982 -0.00191004)
(0.957247 -0.280524 -0.0706011)
(0.927203 -0.130716 -0.351009)
(-0.33723 -0.0668795 0.939044)
(-0.260054 -0.109629 0.959351)
(0.774429 -0.117996 -0.621559)
(-0.321628 -0.105221 0.941002)
(-0.393178 -0.0524625 0.917965)
(-0.60592 -0.0543605 0.793666)
(0.726764 -0.0247984 -0.686439)
(-0.386514 -0.00113377 0.922283)
(-0.554067 0.00232603 0.832469)
(0.964335 -0.257057 0.0630794)
(0.0235496 -0.0648571 0.997617)
(0.105241 -0.0322183 0.993925)
(0.496261 -0.149779 0.855156)
(0.00338909 -0.0410552 0.999151)
(0.328989 -0.138586 0.934109)
(0.844562 -0.208368 0.493252)
(-0.240227 -0.055016 0.969156)
(-0.251401 0.00160238 0.967882)
(0.0418513 -0.0271599 0.998755)
(-0.0359319 -0.0216519 0.99912)
(0.934562 -0.093708 -0.343239)
(0.88847 -0.174793 -0.424346)
(0.874366 -0.320932 0.363986)
(0.92583 -0.349605 0.14358)
(-0.161777 0.982881 -0.0881639)
(-0.625579 0.724143 -0.29029)
(-0.0252807 0.990239 -0.137071)
(-0.29818 0.918539 -0.259567)
(0.0178888 0.997749 -0.0646242)
(-0.0650331 0.997223 -0.0362921)
(-0.545579 0.777295 -0.313298)
(0.0814513 0.902643 -0.422612)
(-0.0805144 0.935702 -0.34348)
(0.132569 0.987841 0.0812136)
(-0.111948 0.971675 -0.208122)
(0.0397565 0.998245 -0.0438947)
(0.411421 0.867329 -0.28013)
(-0.116796 0.932727 -0.341144)
(-0.323353 0.940915 -0.100607)
(-0.404233 0.909601 -0.0960264)
(-0.193437 0.979627 -0.0539781)
(-0.317862 0.941232 -0.114219)
(-0.396152 0.917504 -0.0353573)
(-0.264887 0.960312 -0.0873805)
(-0.306924 0.943808 -0.122574)
(0.883524 -0.273308 -0.38038)
(-0.0343074 0.0115479 0.999345)
(-0.0561027 0.0297562 0.997981)
(-0.147098 0.0552769 0.987576)
(0.941028 -0.313175 -0.128014)
(-0.0469201 0.000642827 0.998898)
(-0.256833 0.0601361 0.964583)
(0.59595 -0.12181 0.793729)
(-0.0389963 -0.00106294 0.999239)
(0.046585 -0.0254764 0.998589)
(0.172034 -0.0791895 0.981903)
(0.804326 -0.199059 0.559853)
(-0.0198755 0.0290116 0.999381)
(0.0953082 -0.0208131 0.99523)
(0.928829 -0.337287 -0.153342)
(-0.0332022 0.0125338 0.99937)
(-0.00527096 0.0196298 0.999793)
(-0.0188103 0.00365016 0.999816)
(-0.011828 -0.0124838 0.999852)
(-0.0227014 0.0198125 0.999546)
(0.929171 -0.327499 -0.171425)
(0.934907 -0.307261 -0.177596)
(0.875107 -0.296723 0.382288)
(0.944869 -0.278326 0.172504)
(-0.00298738 0.999996 -0.000193076)
(0.0610739 0.998109 0.00695796)
(-0.0128203 0.999897 -0.00639606)
(-0.000425494 0.999999 0.00122001)
(0.00137922 0.999999 0.000186639)
(0.0189706 0.999795 0.00702653)
(-0.00864318 0.999962 0.000629347)
(0.0117644 0.999927 0.00268543)
(-0.0463135 0.998924 -0.00249703)
(0.0234425 0.999673 0.0101882)
(0.0269366 0.999631 0.00360399)
(0.0108774 0.999937 0.00263173)
(-0.00952103 0.999948 -0.00375725)
(0.0279043 0.999603 0.00377033)
(0.119151 0.986827 0.109429)
(0.833348 0.551623 0.0352689)
(0.341851 0.938337 0.0515945)
(0.438603 0.890543 0.120668)
(0.856285 0.445966 -0.260557)
(0.775214 0.631559 0.0132853)
(0.0558918 0.998435 0.00182123)
(0.0655073 0.997343 -0.0318594)
(0.0329018 0.998862 -0.0345407)
(-0.00410399 0.999989 0.00224838)
(0.0648115 0.997837 -0.0109664)
(-0.0223087 0.999739 -0.00485118)
(0.0284724 0.999518 0.0123609)
(0.0237702 0.999004 -0.0377671)
(0.0485681 0.998793 -0.00736431)
(-0.0121108 0.999923 -0.00278112)
(-0.0146002 0.999878 -0.00559986)
(0.0518033 0.998629 -0.00747212)
(-0.0444578 0.999011 -0.000360641)
(-0.0649979 0.997885 -0.000680672)
(-0.0180804 0.999828 -0.00414155)
(-0.0420162 0.999101 -0.00560167)
(0.00618895 0.99997 0.00476271)
(0.099179 0.995068 0.00186229)
(0.00118739 0.999983 -0.00571612)
(-0.0791762 0.996858 0.00240283)
(-0.010829 0.999796 0.0170787)
(0.037237 0.999216 0.0134252)
(0.0320035 0.999387 0.0141822)
(-0.0199371 0.999499 0.0245657)
(-0.0181206 0.99983 0.00350063)
(0.0307963 0.99952 -0.00329506)
(0.021814 0.999762 -0.000641821)
(-0.0242732 0.999687 0.00606987)
(0.037549 0.999281 -0.00522247)
(-0.0477284 0.998844 0.0056893)
(-0.0435372 0.999021 0.00782788)
(0.0376286 0.999283 -0.00417595)
(0.0212731 0.999773 -0.000947329)
(-0.0270643 0.999622 0.00478215)
(-0.024195 0.999705 0.00205097)
(0.0289634 0.999575 -0.00340984)
(0.0261472 0.999658 -0.000883549)
(-0.0280321 0.9996 0.00384277)
(0.0295339 0.999559 -0.00305413)
(-0.0250197 0.999686 0.00142131)
(-0.0444727 0.998988 0.00672771)
(0.0430255 0.999067 -0.00384873)
(0.041904 0.99911 -0.00491723)
(-0.0462904 0.998914 0.00523095)
(-0.0225013 0.999745 0.00196722)
(0.0310441 0.999514 -0.00278373)
(0.0278368 0.999612 -0.000393305)
(-0.0268823 0.99963 0.00408534)
(0.88743 -0.459398 -0.0377001)
(0.925267 -0.376001 -0.0500465)
(0.884296 -0.374495 -0.27888)
(0.852015 -0.523234 -0.0172216)
(0.865321 -0.471939 -0.168796)
(0.913636 -0.319968 -0.250778)
(0.826818 -0.521766 0.210079)
(0.0717881 0.0286839 0.997007)
(-0.243848 0.547448 0.800524)
(0.0604144 0.0672206 0.995907)
(-0.228738 0.432409 0.872182)
(-0.00488721 0.107167 0.994229)
(0.242989 -0.12527 0.961906)
(-0.371606 0.589133 0.717518)
(0.303464 -0.357312 0.883311)
(0.743596 -0.442892 0.500911)
(0.138228 -0.305061 0.942248)
(0.209737 -0.211287 0.954656)
(0.0994012 -0.182837 0.978105)
(0.932951 -0.354912 -0.0603274)
(0.434941 -0.402079 0.805704)
(0.829513 -0.556916 0.0418563)
(0.774321 -0.629352 0.0659097)
(0.723852 -0.687204 -0.0615443)
(0.70847 -0.674082 -0.209004)
(0.81179 -0.58013 -0.0666864)
(0.754113 -0.59313 0.281975)
(0.667783 -0.666574 -0.331277)
(0.40413 0.876376 -0.262)
(0.596602 0.709314 -0.375419)
(0.472334 0.7834 -0.403962)
(0.559445 0.730862 -0.390975)
(0.482772 0.848637 -0.216209)
(0.55565 0.763573 -0.328952)
(0.409949 0.841045 -0.352966)
(0.528685 0.818866 0.223498)
(0.609919 0.792441 -0.00599072)
(0.474332 0.812371 0.339208)
(0.593925 0.790394 0.150101)
(0.445802 0.884593 0.136949)
(0.496841 0.805483 0.323028)
(0.567827 0.809985 -0.146621)
(0.429966 0.586505 0.686397)
(0.452083 0.834578 0.314802)
(0.179703 0.538696 0.823112)
(0.2867 0.536279 0.793856)
(0.247738 0.42956 0.868392)
(0.410636 0.825016 0.388234)
(0.464557 0.780665 0.418031)
(-0.0883221 0.996019 -0.0120887)
(-0.219329 0.97317 -0.0695311)
(-0.538035 0.733944 -0.414541)
(-0.109059 0.993624 -0.0285971)
(-0.141305 0.98963 -0.0257993)
(-0.107676 0.994073 0.0150234)
(0.0599409 0.996809 0.0527244)
(-0.121964 0.992534 0.00109934)
(0.0500958 0.997702 0.0456272)
(-0.172815 0.984822 -0.0161307)