/*--------------------------------*- C++ -*----------------------------------*\
| =========                 |                                                 |
| \\      /  F ield         | OpenFOAM: The Open Source CFD Toolbox           |
|  \\    /   O peration     | Version:  2012                                  |
|   \\  /    A nd           | Website:  www.openfoam.com                      |
|    \\/     M anipulation  |                                                 |
\*---------------------------------------------------------------------------*/
FoamFile
{
    version     2.0;
    format      ascii;
    class       volScalarField;
    location    "0.105/solid";
    object      sigmaMid;
}
// * * * * * * * * * * * * * * * * * * * * * * * * * * * * * * * * * * * * * //

dimensions      [1 -1 -2 0 0 0 0];


internalField   nonuniform List<scalar> 
3124
(
-156.867
17.407
-55.9092
-269.772
-207.051
-203.345
12.3719
-274.499
-497.218
-164.308
-281.617
-83.6897
-314.089
-331.374
-200.184
-530.308
-310.822
-246.814
-203.495
-206.577
-243.065
-246.191
-242.824
24.4808
359.808
39.0599
-342.756
-141.125
-271.864
-634.844
-129.251
-209.133
-313.662
-285.848
-319.133
-680.232
-304.795
-275.751
-245.367
-248.19
-244.785
-244.331
19.2997
-15.5923
0.237498
269.272
-51.8284
-21.0698
-1027.57
-43.6522
-214.297
-212.135
-203.64
-203.88
-67.5878
-20.2854
-112.521
-68.5507
-253.9
-667.834
-106.715
-467.737
-431.873
-682.732
-256.478
-711.253
-395.942
-206.819
-1131.66
-1106.57
-42.295
-235.846
-112.618
-72.3217
-47.2949
-262.533
-1714.04
-260.536
-256.543
-300.755
-333.246
-288.001
-294.615
-245.647
-402.268
-291.657
-366.003
-546.329
-680.316
-282.53
-506.261
-677.018
-304.447
-126.246
-1195.13
-1124.33
-1180.65
-106.695
-131.051
-324.577
-253.1
-281.553
-255.098
-269.146
-250.239
-269.257
-277.972
-204.595
-204.914
-253.439
-249.382
-261.65
-244.32
-264.012
-267.952
-244.793
-264.937
-261.164
-243.07
-260.977
-244.675
-243.492
-261.412
232.051
121.494
-262.498
-261.729
-256.415
-250.539
-201.665
-202.675
-200.937
-200.429
-7.45005
12.0806
21.7924
44.0837
17.0044
10.793
13.4089
53.0061
-141.344
-61.9508
7.59293
-212.473
-94.9533
-49.2178
-122.116
-239.436
-86.0234
-208.427
-65.1593
-66.4173
-62.8625
-203.338
-62.4427
-204.749
-62.737
104.017
-11.4186
15.2333
43.4361
12.3853
-6.683
-7.25559
-572.993
-277.146
-338.126
-263.031
-187.697
-396.836
-105.257
-207.636
-54.1886
-331.828
-152.336
-138.425
-299.592
-223.947
-360.968
-155.951
6.65008
-167.739
411.68
-235.555
-145.367
-344.005
-339.548
-343.946
-339.297
-302.188
-240.469
-211.433
-384.055
-205.928
-238.482
-330.683
-284.011
-306.186
-212.849
-214.916
-247.765
-269.187
-270.015
-62.7264
-203.789
-62.1754
-65.1148
-205.776
-63.3928
-211.384
-209.833
-265.317
-243.388
-265.72
-268.679
-245.645
-268.185
-265.004
-242.737
-264.839
-200.938
-244.599
-267.011
257.077
139.335
64.9273
41.5423
95.5833
132.696
270.539
267.426
421.462
186.439
309.198
124.092
252.95
74.8119
74.0605
98.713
90.5798
232.212
130.015
-282.193
-601.515
-215.38
-113.648
-301.625
-307.228
-240.367
-249.784
-127.698
-140.543
-170.953
-274.959
-212.852
-177.82
-260.112
-261.988
-291.069
-312.932
-290.306
-273.152
-305.774
-285.527
-556.581
-203.152
-383.009
-283.037
-292.575
-274.179
-246.252
-252.759
-283.191
-266.334
-271.838
-205.074
-203.805
-226.697
-246.241
-227.671
-229.872
-247.188
-228.727
-226.031
-244.496
-225.657
-199.87
-200.071
-244.342
-225.287
-225.404
-5.85516
10.507
28.3569
30.346
53.0024
10.7253
-3.86253
-7.24531
5.79241
-57.1034
-10.3495
13.1484
0.282594
-1.07728
-3.82063
22.0014
30.1122
-5.32457
42.766
30.4633
5.02276
478.974
66.4518
406.833
-370.736
-1667.39
-11.4442
45.7039
-136.555
229.583
-1079.67
73.0027
-39.996
-54.7563
0.634494
22.0339
-106.589
-13.5818
9.72866
-99.9838
3350.38
-487.528
-753.572
-401.06
-93.4457
-19.0108
4.12741
24.0647
-287.478
47.0531
-658.444
15.2034
-227.31
-72.7485
-83.1317
-209.255
-71.4486
-67.0559
-203.378
-63.2075
-62.4341
-204.434
-63.2375
-62.763
9.29953
-122.195
-202.349
-46.5491
-52.049
-145.763
54.3033
-58.0743
-94.7368
76.0558
-2.35918
-41.56
-38.9027
-8.28188
0.904154
-5.71619
-159.772
-146.043
-80.5192
-71.4304
-168.896
2.77454
-52.4001
-252.996
-122.102
216.478
-1077.29
-676.861
-214.648
-708.624
-187.803
-421.556
-180.963
-466.222
-266.268
-268.132
-253.391
-280.023
-295.957
-285.309
-918.413
-1512.26
-706.022
-442.839
-71.9711
-138.836
-199.339
-499.744
-284.46
-192.218
-306.019
-608.435
-389.428
-154.552
-307.112
-600.214
-146.178
-346.58
-300.665
-570.886
-160.65
-566.274
-151.103
-345.133
-1082.7
-1112.27
-1140.68
-1063.89
-1051.87
-1010.65
-1095.11
-1040.73
-1130.34
-1119.48
-157.834
-61.2524
-52.7411
-70.8324
-5.68619
-52.1609
-109.347
-199.23
-222.157
-253.673
-213.286
-233.051
-297.188
-184.152
-178.638
-94.0537
-95.1006
-169.995
-66.0453
-228.698
-138.375
30.8318
26.6907
-68.2571
-49.473
-23.6957
1.80199
50.7957
16.4928
-50.9841
-60.985
-301.081
-355.939
-262.809
-106.398
-277.24
7302.55
-1519.71
41.9056
-655.266
-431.577
-476.708
-209.279
-424.103
-386.281
-262.464
-423.499
-1373.37
-3246.27
-310.655
-437.403
-317.217
-316.513
-430.774
-311.741
-292.48
-380.434
-306.267
-346.101
-331.439
-343.369
-339.325
-299.24
-332.531
-321.492
-297.906
-329.96
-285.827
-243.55
-266.392
-260.226
-337.787
-267.964
-252.248
-368.422
-310.175
-276.099
-317.056
-253.574
-346.541
-279.297
-283.291
-358.137
-268.301
-381.565
-423.248
-577.15
-207.322
-380.176
-598.53
-216.198
-362.366
-483.363
-603.611
-187.631
-353.737
-609.966
-203.083
-47.804
-125.511
-1090.33
-1056.46
-1092.14
-1096.57
-1063.16
-1128.75
-1055.49
-1129.31
-1099.8
-1054.7
-1153.17
-1055.49
-58.7238
-70.2678
-96.2388
-125.675
-119.098
-36.0631
-69.6804
-130.212
-132.623
-130.823
-337.05
-308.172
-316.579
-263.173
-273.364
-284.06
-291.663
-284.212
-295.469
-230.997
-219.612
-237.545
-257.803
-240.179
-255.334
-262.456
-245.387
-248.896
-271.433
-270.907
-278.005
-271.415
-279.35
-282.134
-274.662
-281.06
-204.061
-63.1975
-62.2476
-205.45
-63.142
-63.2123
-206.509
-208.157
-235.876
-252.099
-234.38
-231.234
-250.735
-232.799
-272.639
-262.295
-273.129
-243.811
-266.859
-266.242
-263.107
-274.578
-273.799
-277.19
-266.925
-276.504
-245.212
-267.396
-267.793
-265.913
-275.29
-275.903
-272.238
-260.86
-271.969
-242.822
-265.173
-264.897
-260.794
-272.256
-271.973
-200.003
-200.401
-246.1
-226.763
-225.528
-245.344
-226.099
-243.998
-265.647
-266.249
-262.864
-274.176
-272.734
-262.039
-273.337
-256.985
-217.402
-313.059
-261.652
-278.594
-294.381
-203.816
-174.945
-214.818
-207.428
-148.061
-216.037
-174.048
-148.451
-168.25
-144.319
-209.096
-203.477
-168.275
-209.515
-144.195
-327.312
-232.084
-333.85
-289.684
-300.316
-353.234
-247.229
-270.197
-272.91
-373.214
-282.355
-284.299
-267.141
-288.134
-168.081
-144.3
-209.144
-203.632
-168.124
-209.608
-144.158
-172.57
-214.104
-147.616
-206.467
-173.4
-213.787
-147.061
-354.51
-604.869
-379.974
-259.279
-250.297
-420.238
-311.929
-358.404
-116.57
-200.984
-277.723
-237.852
-512.424
-263.037
-319.814
-2243.56
-2729.88
-196.973
-216.556
-229.802
-158.349
-192.124
-234.241
-161.559
-184.595
-211.122
-226.273
-155.951
-188.122
-223.737
-153.924
-168.564
-203.675
-209.473
-144.7
-168.758
-209.794
-144.446
-169.009
-204.133
-209.673
-144.826
-168.881
-210.255
-144.821
22.6491
19.9056
-686.297
-679.082
-347.978
-495.488
-417.487
-283.482
-353.789
-587.886
-317.448
-313.611
-331.458
-571.777
-285.3
-525.821
-200.077
-338.965
-783.931
-738.984
-753.647
-724.717
-91.702
-83.229
-8.06034
89.6006
-471.461
-285.76
-365.571
-288.768
-435.082
-440.032
-310.936
-241.289
-225.703
-480.308
-306.207
-480.219
-336.572
-277.2
-273.623
-266.159
-268.657
-272.517
-264.839
-275.112
-284.725
-332.222
-389.576
-528.461
-280.591
-325.75
-542.664
-300.703
-359.864
-493.236
-577.239
-325.988
-344.95
-614.388
-370.973
-19.5822
-651.93
-681.913
-696.216
-828.33
-793.72
-47.2763
-61.5393
-101.908
-119.856
-169.035
-204.603
-210.468
-145.165
-169.363
-210.612
-144.852
-169.793
-205.132
-210.797
-145.333
-169.54
-211.499
-145.363
269.566
292.767
300.71
251.966
170.99
289.226
-284.61
-280.017
-257.071
-301.269
-259.196
-268.447
-274.95
-251.349
-265.609
-298.395
-281.821
-285.845
-252.545
-279.221
-267.362
-266.654
-258.551
-256.081
-246.481
-258.69
-269.274
-281.962
-263.424
-282.819
-213.219
-226.119
-211.729
-227.41
-202.023
-203.038
-203.804
-203.128
-210.754
-226.16
-212.283
-224.993
-209.491
-224.936
-223.852
-210.709
-201.903
-201.696
-200.696
-201.395
-211.22
-224.343
-210.357
-225.3
25.7147
-2.5334
1.72208
-2.94983
8.92733
16.9388
17.2109
34.3525
12.9434
63.3337
46.4217
30.3803
60.677
17.471
31.9333
11.6649
23.2714
43.6401
23.572
31.821
34.5728
26.5941
7.06285
10.5853
39.9393
9.58099
40.4339
18.0164
-107.451
-160.666
-91.5953
-101.607
-155.575
-129.831
-86.3692
-89.9737
-312.094
-138.431
-84.2858
-121.672
-178.426
-100.546
-5.37522
-264.733
10.6752
-24.4713
-43.6491
-149.648
1.12103
-175.41
-161.457
-105.603
-198.908
-148.653
-238.946
-246.374
-261.425
-180.829
-274.977
-223.684
-191.022
-162.687
-95.5729
-129.01
-147.959
-137.686
-175.838
-208.103
-217.941
-149.858
-217.024
-177.093
-149.035
-108.547
-101.397
-64.8551
-108.309
-101.71
-109.071
-102.976
-64.9655
-110.629
-102.192
-103.059
-98.1944
-61.9449
-103.747
-98.0412
-168.19
-203.454
-209.249
-144.109
-209.6
-167.868
-144.093
-102.654
-61.5214
-97.9343
-102.99
-97.9163
-210.535
-145.093
-168.955
-103.342
-98.5344
-103.575
-13.6602
20.2006
-10.1207
19.6555
-48.6484
-8.16592
19.372
19.7382
7.45396
61.2732
39.7665
20.2274
56.2589
0.37027
14.6074
50.6872
-1.28276
44.8673
7.89161
11.4641
59.0911
-1.09278
-45.799
-31.5992
46.78
-46.6189
37.4322
-8.08122
-410.111
-1107.08
-462.244
-459.054
-555.164
-379.66
-385.195
-176.916
-90.33
-250.635
-211.319
-219.524
-188.389
-207.83
-263.617
-267.044
-260.472
-489.506
-271.869
-267.849
-313.162
-140.243
-30.4818
-150.682
-89.2672
-133.079
-219.374
-131.994
-270.11
-243.293
-383.545
-270.11
-276.633
-225.871
-272.482
-249.12
-176.198
-163.529
-216.518
-194.028
-355.736
-295.389
-386.375
-275
-373.396
-382.319
-262.415
-281.432
-191.742
-235.278
-317.709
-214.323
-250.783
9.69008
-342.365
-363.592
-3.23894
-275.359
-349.053
-91.5783
-105.635
-33.8598
-98.6384
-64.6375
-113.497
-41.1517
-69.4319
11.9067
121.549
0.432969
-33.1269
2.81171
-101.497
-236.748
-309.581
-102.104
-249.388
-212.377
-56.3937
-323.998
-425.731
-395.188
-422.602
-392.505
-380.445
-350.631
-370.779
-396.024
-407.037
-389.546
-381.868
-377.042
-396.048
-423.434
-420.024
-402.62
-321.343
-246.019
-448.652
-185.287
-326.582
-214.607
-358.182
-325.454
-368.846
-439.644
-298.402
-320.754
-429.751
-301.185
-339.411
-280.107
-156.176
-257.729
-244.377
-339.394
-310.841
-353.295
-370.818
-370.21
-358.546
-370.763
-342.91
-315.784
-366.467
-335.696
-282.093
-305.114
-335.683
-396.627
-396.855
-384.609
-404.862
-225.907
-237.751
-220.36
-241.903
-210.805
-214.92
-214.845
-211.657
-219.364
-240.046
-225.382
-235.356
-322.557
-327
-312.706
-335.537
-291.727
-241.959
-244.47
-297.396
-298.639
-246.396
-244.193
-292.247
-312.575
-334.856
-321.535
-326.947
-102.706
-98.1409
-61.7239
-103.487
-97.9294
-167.973
-203.867
-209.546
-144.191
-209.803
-167.805
-144.102
-102.22
-61.2929
-97.8648
-102.615
-97.7995
-106.537
-101.007
-63.787
-107.942
-100.429
-171.735
-206.11
-212.384
-146.101
-213.29
-170.726
-146.498
-105.358
-62.9953
-99.5084
-105.027
-99.8755
-217.537
-236.552
-222.417
-232.557
-213.808
-210.65
-224.043
-234.028
-218.969
-238.323
-209.241
-212.41
-315.527
-326.933
-329.103
-312.858
-290.02
-237.088
-237.905
-291.434
-291.902
-237.822
-237.806
-290.119
-312.696
-328.509
-315.038
-326.421
-313.128
-333.373
-327.473
-319.818
-296.596
-242.587
-291.439
-241.174
-320.845
-327.318
-312.874
-334.212
-291.335
-239.916
-241.901
-295.499
-312.419
-327.718
-326.064
-314.085
-291.051
-237.338
-237.324
-289.843
-289.78
-237.005
-237.741
-290.718
-314.43
-326.268
-312.618
-327.837
-224.484
-209.956
-200.956
-329.221
-315.548
-238.612
-239.657
-292.348
123.761
13.402
121.712
218.065
215.241
46.543
38.1296
113.918
168.811
93.0355
79.2851
148.49
141.981
75.2449
160.452
310.878
261.638
47.5418
289.663
179.589
29.5833
308.667
299.943
291.987
279.337
306.405
308.65
278.074
364.216
235.469
394.787
461.16
448.659
368.433
427.6
374.333
300.051
351.856
304.231
417.962
257.147
357.563
269.096
376.423
301.54
244.163
222.85
110.355
331.088
259.313
128.034
153.729
190.077
246.25
240.983
168.621
190.233
218.485
112.084
152.729
79.9706
98.2849
114.859
148.791
83.2562
156.432
238.215
164.841
226.434
175.404
222.42
147.283
-264.549
-381.902
-194.444
-490.146
-82.4748
-309.997
-621.166
-137.761
-152.993
-207.085
-437.165
-86.9085
-181.77
-106.075
-236.524
-305.118
-294.14
-263.225
-354.132
-86.6964
-222.295
-289.949
-328.121
-219.378
-326.372
-194.386
-325.367
-299.181
-319.393
-307.724
-328.823
-350.904
-338.922
-340.945
-311.968
-317.644
-305.561
-322.087
-341.683
-338.718
-324.798
-354.592
-290.478
-318.17
-279.063
-324.148
-333.64
-279.565
-256.972
-346.417
-331.866
-226.077
-326.93
-254.731
-305.871
-351.193
-337.46
-322.206
-290.818
-293.623
-284.274
-298.495
-323.802
-332.866
-321.55
-335.104
-306.632
-300.015
-301.484
-305.753
-305.783
-319.423
-311.149
-315.664
-273.451
-275.414
-260.756
-287.163
-252.506
-246.047
-264.121
-253.994
-260.882
-275.221
-277.945
-257.537
-298.711
-286.491
-290.817
-296.407
-293.829
-301.374
-296.951
-297.51
-303.727
-304.509
-298.698
-307.9
-290.284
-288.022
-287.786
-291.114
-212.515
-228.941
-214.858
-226.985
-206.855
-205.502
-203.967
-205.384
-216.441
-228.108
-230.372
-213.889
-246.428
-240.388
-242.259
-244.578
-258.144
-268.001
-260.156
-265.961
-243.49
-241.109
-239.517
-245.052
-261.311
-266.938
-258.959
-269.29
-245.394
-243.738
-241.274
-247.895
-264.051
-268.338
-260.695
-271.761
-249.164
-242.45
-245.262
-246.333
-259.703
-270.67
-262.712
-267.606
-242.614
-239.781
-238.406
-244.052
-259.443
-265.392
-257.574
-267.337
-244.315
-238.92
-240.268
-242.811
-257.292
-267.184
-259.053
-265.349
-209.967
-223.698
-209.362
-224.354
-200.128
-200.757
-200.61
-200.558
-209.053
-224.093
-223.314
-209.997
-243.616
-238.235
-242.518
-239.326
-257.273
-266.572
-265.224
-258.609
-258.713
-265.388
-257.252
-266.846
-242.249
-239.225
-238.153
-243.284
10.0057
3.89051
7.98125
-4.59864
8.65411
9.19952
11.6537
29.4732
17.1005
50.2495
47.5957
47.6684
34.2105
19.7198
13.8806
-7.01766
12.0477
7.44797
10.2922
9.64513
14.3487
-9.3394
-0.963312
-17.5727
-7.76879
-1.07664
-23.0967
-11.6513
-29.7481
-24.8805
-46.6076
-46.5057
-45.3613
-28.1577
-18.4119
-19.037
4.48008
-21.4683
-5.87285
-25.214
-13.7984
-15.1552
-8.78666
-13.044
16.6932
-22.8497
6.93411
-34.0141
11.0557
-8.02623
-4.44611
0.46144
-0.143199
-12.8084
1.23464
1.13457
-18.195
-5.50749
3.81139
1.18832
3.9393
-19.2888
-20.2905
19.3719
8.78004
28.4208
49.4971
35.4718
-3.44779
23.5471
-13.3663
12.5608
2.817
4.5634
-4.85039
-0.664617
-6.14732
516.424
611.327
404.473
467.975
512.086
446.046
419.932
424.351
441.038
482.699
366.118
404.537
446.977
436.778
316.921
627.866
186.071
-3245.43
-515.684
-913.932
-467.752
739.318
650.194
-1867.46
-223.717
-1965.95
-714.132
-3969.55
-1097.79
-1924.46
505.285
-2112.53
430.401
722.599
-49.6736
107.248
621.679
732.236
-54.018
-26.6076
4.98891
-294.377
-56.0444
-108.119
-86.6787
-261.034
-860.659
-574.828
-569.825
-375.525
-50.6225
-359.44
369.137
125.487
549.097
531.904
834.013
-67.1487
-47.5214
166.828
-134.168
25.5613
-50.9909
45.7213
20.6124
-4.66423
-39.7637
-40.5683
-56.723
-40.2144
-39.7318
-16.5319
17.6344
71.489
-11.2503
2.83632
-17.1797
10.1725
42.2071
-64.8858
-196.146
-46.6616
-21.6848
-67.8918
-16.4594
-50.6628
-184.354
-95.8756
-203.829
-72.177
-159.912
-553.158
-143.969
-501.266
919.299
-904.991
-708.712
-1087.66
-1566.28
-189.368
-476.35
-23.7033
-1927.84
-1086.53
-913.505
-731.866
-540.911
-224.452
-585.086
-135.881
-963.449
-65.3552
-1195.16
-452.263
-89.1061
-89.2944
10.8174
-282.786
-74.9904
-139.577
-82.9772
-6.62791
92.7183
-12.8932
9.69376
-2.93804
3.17549
27.8378
-299.45
-121.204
-493.222
-650.36
-432.482
-180.457
-261.164
-204.002
-222.867
-248.88
-172.628
-212.753
-241.415
-166.337
-128.227
-110.906
-74.5393
-124.51
-113.61
-133.476
-122.662
-77.3581
-141.879
-117.569
-181.661
-210.058
-219.425
-150.934
-179.04
-221.578
-152.228
-117.344
-108.746
-69.1085
-121.003
-106.801
-114.252
-103.964
-67.4592
-112.412
-105.171
-168.351
-203.574
-209.308
-144.146
-167.904
-209.749
-144.234
-103.38
-98.5362
-62.1751
-104.221
-98.2701
-102.85
-97.9658
-61.673
-102.96
-98.0427
-169.083
-204.446
-210.334
-144.963
-168.859
-210.567
-144.848
-103.659
-98.6151
-62.3364
-104.272
-98.5148
-103.298
-98.4875
-61.9493
-103.595
-98.4396
-162.209
-71.907
128.652
-24.5185
-72.0434
203.205
-81.2294
45.6649
161.02
73.9241
67.9204
-37.6967
-115.297
-84.828
-105.305
187.373
-2.6672
-106.318
69.1735
-216.835
29.4594
37.8338
30.6348
-81.3313
-216.044
-19.9695
11.5799
-32.6743
-153.295
-68.3832
-13.469
25.5624
45.2971
-8.90529
-13.8449
30.1401
-12.2631
-14.7543
-14.2558
-18.7223
-9.73418
-8.61702
3.43384
-17.8293
0.338964
32.3815
-7.20068
-13.9522
0.782985
0.159453
16.5969
-27.1282
24.4519
-0.636283
-40.5515
23.9893
-31.514
-33.713
11.1358
-214.235
48.7142
0.05295
-132.861
54.1123
-46.6836
-73.7338
-136.045
-128.984
-109.736
-128.458
-110.899
-109.484
-52.5172
-10.6369
-33.2403
-82.2582
-113.569
-94.2818
-75.8806
-42.4688
42.3376
-28.889
-87.5528
-68.592
-59.4284
-92.6599
204.093
-859.089
130.535
-94.5243
60.01
-108.462
127.225
-113.443
-75.4095
300.218
146.485
226.736
-28.3851
-19.1575
-460.803
-44.9517
-1066.96
-914.64
-1216.03
-788.423
-1083.07
-107.504
-644.116
-376.059
-883.657
-494.591
-1110.6
-1073.97
-596.351
189.897
594.194
-332.307
-445.933
583.441
-423.319
-391.061
-354.086
-157.181
-326.784
-348.3
-706.816
-354.365
-454.103
1049.02
-846.578
-303.194
-305.609
-371.168
-374.984
-344.186
-296.491
-350.186
-333.079
-273.947
-259.767
-280.442
-272.844
-296.71
-263.693
-262.303
-263.532
-310.688
-273.476
-273.239
-307.656
-280.357
-257.281
-883.108
-1549.34
-1193.3
2489.91
-369.31
131.753
-457.961
-219.479
-25.7527
-377.91
-265.984
-261.051
-228.334
-233.105
-58.4592
-207.4
43.2801
-235.366
-320.131
-132.363
-446.544
-223.97
-208.024
18.1923
-315.111
-210.207
-330.706
-315.465
-224.988
-294.012
-223.062
-225.118
-343.584
-378.382
-520.94
-238.8
-325.337
-541.569
-285.34
-304.119
-299.591
-526.824
-231.549
-315.432
-507.89
-166.398
-982.962
-1242.12
-1118.44
-1061.08
-1241.69
-747.613
-714.204
-1263.54
-1108.77
-1036.85
-1023.01
-1238.51
-1498.07
-1486.46
-1502.91
-1490.89
-1404.3
-1328.11
-1431.3
-1501.05
-696.607
-703.169
-1067.28
-1125.25
-1265.09
-1046.36
-1271.24
-1260.01
-1037.89
-1119.78
-1037.63
-1269.79
-118.152
-53.1002
-153.93
-163.071
-107.529
-65.7145
-141.668
-39.184
-43.8534
-45.8271
-47.6058
-27.827
-40.8462
-50.4264
-63.2088
20.9139
-33.1143
-3.24261
-55.6066
-51.7337
-0.410173
-79.7859
-127.856
-46.1614
-73.6033
-67.0122
-85.1255
-93.4236
-213.228
-202.988
-237.14
-215.172
-224.894
-236.031
-198.509
-255.383
-249.706
-257.43
-253.899
-247.461
-243.026
-260.258
-231.769
-204.662
-247.174
-223.219
-227.202
-231.162
-224.256
-249.773
-245.355
-270.924
-277.509
-269.123
-246.074
-259.292
-139.974
-159.199
-182.785
-170.204
-156.021
-154.983
-158.247
-127.655
-139.368
-111.378
-179.432
-129.109
-122.423
-131.005
-109.134
-129.308
-93.7211
-113.978
-114.533
-127.557
-117.937
-172.566
-193.799
-221.713
-181.319
-167.205
-167.605
-184.726
3.90015
-23.1898
36.4005
-31.0025
131.16
-0.739973
22.7781
-67.7703
118.158
101.845
218.682
-9.65952
1.01369
-39.6632
134.371
154.367
216.482
431.07
437.908
215.2
83.3955
-202.393
64.0173
-191.607
187.278
300.401
390.476
137.8
109.189
-172.203
107.29
-179.53
104.893
122.37
210.199
-42.0532
20.0008
165.095
14.6139
257.553
100.916
251.481
271.404
5.83127
45.6425
49.9003
229.988
297.971
167.423
379.235
318.934
222.089
84.9154
-131.506
44.3558
-127.756
169.029
208.362
106.596
234.547
90.1487
-157.174
111.678
-156.509
-434.466
-302.595
-406.249
-290.013
-414.47
-411.084
-296.442
-466.829
-290.262
-359.974
-456.462
-323.149
-400.976
-261.603
-299.511
-359.222
-283.107
-765.196
87.464
-53.6765
-345.045
-386.768
-185.031
-797.258
-3557.39
-2325.3
2335.91
-2567.14
97.7007
2705.08
-1818.96
-205.028
-792.216
-487.545
-358.238
-403.286
-739.767
-397.675
-216.265
-215.896
-283.286
-205.492
-359.063
-294.195
-209.866
-122.644
-404.528
-55.4483
-538.477
-293.451
-174.19
-495.74
-339.452
-213.43
-414.92
-726.045
-209.071
-143.555
-408.969
-191.623
70.2374
-370.224
-91.4374
-99.5985
-336.557
-313.95
-719.336
-251.894
-401.276
-467.715
-531.694
-84.1002
-747.43
-2222.24
-855.174
-300.008
-678.748
-277.424
135.929
170.876
2032.1
-2629.75
1174.14
378.617
-669.468
-277.549
-286.669
-592.99
24.663
-424.057
-221.872
-275.19
-207.832
-245.051
-449
-291.313
-307.963
-230.173
-352.106
-283.047
-525.472
109.988
-435.379
-268.236
-209.381
-444.185
-446.568
-309.326
-121.376
-315.149
-274.847
-412.853
-287.394
-293.278
-258.444
-288.584
-163.2
-353.095
-331.752
-212.735
-202.687
-319.309
-382.26
-74.3889
-274.022
-395.702
-301.385
-287.413
-300.217
-282.589
-294.295
-399.671
-383.197
-406.365
-378.255
-372.86
-374.42
-361.791
-387.992
-387.793
-358.481
-375.844
-369.73
-383.981
-408.231
-388.111
-402.309
-367.022
-409.172
-418.693
-367.445
-407.973
-318.274
-433.764
-215.329
-346.149
-399.191
-406.48
-396.581
-390.328
-294.04
-373.746
-302.658
-356.409
-395.618
-388.598
-359.817
-364.625
-290.641
-356.524
-295.197
-351.333
-369.583
-340.613
-381.177
-365.907
-293.351
-368.633
-299.565
-280.468
-326.071
-284.876
-304.098
-287.329
-274.693
-286.806
-192.664
-359.72
-303.724
-297.245
-285.513
-289.183
-324.62
-288.596
-554.829
428.262
-474.463
-416.106
-294.1
-314.4
-247.771
-329.722
-363.792
-198.124
-58.9546
-369.752
-275.098
-275.662
-295.812
-334.526
-254.608
-281.689
-255.007
-285.938
-255.101
-201.04
-342.318
-208.639
-335.221
-278.078
-342.468
-294.717
-280.398
-279.254
-268.461
-282.752
-226.993
-298.839
-346.37
-161.282
-338.999
-396.981
-582.551
-348.442
-355.813
-562.577
-319.066
-355.675
-490.036
-589.672
-361.891
-349.808
-606.954
-375.832
-68.1641
75.3329
43.201
-7.81855
-240.098
-9.31534
-240.706
158.559
172.87
59.6345
-975.207
-1227.96
-1582.55
-726.851
-704.222
-987.849
-1093.13
-1225.13
-992.592
-1221.75
-1214.25
-1014.82
-1091.08
-999.98
-1216.68
-1467.94
-1475.28
-1467.15
-1480.8
-778.07
-785.047
-1072.78
-1258.39
-1119.47
-1066.74
-1238.6
-1224.95
-1030.48
-1110.02
-1049.99
-1221.76
-1547.23
-1568.83
-1526.67
-1498.53
-92.516
-65.7953
12.8129
-79.8975
-53.7642
60.7217
-77.764
19.7247
61.6474
9.45081
38.1935
-115.817
-65.9988
-89.6738
-12.4468
56.6775
72.3787
131.84
137.148
66.8693
13.1763
-214.113
17.4133
-216.579
73.7038
179.315
85.664
139.784
5.56743
-226.721
1.54561
-223.067
-132.717
-134.906
-39.0651
-77.9885
79.3776
-37.7822
-14.4798
-89.7783
45.056
-51.5151
25.1203
-114.728
-59.5766
-105.618
-48.1417
29.262
71.6846
149.258
156.561
68.6059
-4.72722
-237.808
-9.96785
-235.702
66.9247
147.708
58.9695
153.812
-1.58034
-230.903
0.187759
-232.927
-358.58
-361.407
-359.865
-358.932
-372.853
-354.788
-359.036
-367.476
-346.424
-338.003
-335.871
-346.947
-387.777
-383.708
-393.169
-380.444
-331.969
-340.129
-323.271
-343.333
-295.025
-254.109
-259.719
-303.727
-312.409
-275.428
-307.864
-262.928
-310.095
-334.812
-324.03
-324.184
-330.792
-331.081
-331.409
-333.007
-307.085
-309.652
-303.858
-314.001
-322.69
-317.532
-318.07
-322.972
-312.556
-324.124
-314.042
-320.04
-224.668
-245.524
-227.964
-243.522
-224.959
-231.376
-237.115
-259.898
-240.639
-255.462
-215.854
-216.365
-262.433
-252.261
-257.164
-257.916
-267.554
-281.015
-274.986
-273.501
-276.425
-278.368
-270.853
-284.085
-254.41
-254.854
-249.467
-259.375
-264.855
-261.762
-259.097
-267.463
-289.035
-291.519
-286.908
-295.185
-277.052
-274.303
-278.51
-272.14
-277.221
-288.712
-281.262
-284.224
-312.95
-336.078
-323.665
-326.494
-301.845
-253.566
-250.277
-293.189
-293.135
-246.266
-299.948
-250.086
-324.645
-324.089
-311.142
-335.826
-316.778
-313.711
-322.185
-308.97
-296.958
-297.642
-290.683
-304.052
-306.478
-293.366
-300.126
-299.465
-307.467
-320.763
-312.65
-315.075
-310.669
-324.024
-315.176
-318.846
-313.275
-300.561
-305.163
-307.49
-320.05
-314.018
-310.223
-325.275
-303.338
-303.747
-297.471
-309.901
-168.67
-204.322
-209.796
-144.356
-168.052
-210.408
-144.54
-103.421
-98.7945
-62.0857
-104.396
-98.4523
-102.715
-97.9856
-61.506
-102.824
-98.1373
-169.94
-205.447
-211.91
-145.748
-170.133
-211.874
-145.484
-103.931
-98.9226
-62.3699
-104.402
-98.8781
-103.761
-99.1866
-62.1197
-104.492
-98.9276
-220.197
-231.099
-216.265
-234.298
-206.392
-208.828
-214.75
-232.244
-218.446
-229.336
-210.347
-208.033
-250.845
-251.171
-246.506
-255.355
-271.524
-273.082
-265.731
-279.057
-257.251
-248.008
-253.069
-252.361
-264.324
-277.325
-269.627
-271.914
-253.09
-245.067
-248.991
-249.378
-261.83
-273.302
-265.681
-269.434
-247.678
-247.072
-250.903
-243.612
-267.57
-270.775
-263.093
-275.285
-307.206
-311.009
-313.546
-304.505
-291.536
-286.424
-284.056
-294.002
-294.684
-284.663
-287.328
-291.944
-304.26
-312.881
-310.532
-306.723
-313.18
-330.073
-316.337
-327.195
-293.382
-239.012
-238.483
-290.962
-290.594
-237.618
-292.443
-238.931
-317.337
-327.808
-330.904
-313.632
-305.069
-314.619
-308.128
-311.384
-296.972
-286.124
-289.779
-293.395
-292.635
-288.547
-285.292
-295.72
-309.33
-312.03
-315.631
-305.823
-306.5
-318.718
-312.413
-312.649
-302.59
-289.297
-295.724
-296.008
-313.913
-312.447
-319.864
-306.824
-295.111
-294.383
-288.363
-301.17
-318.946
-327.768
-313.293
-332.756
-291.199
-238.711
-240.009
-294.17
-294.885
-240.334
-291.098
-239.726
-313.508
-332.018
-318.299
-327.927
-311.646
-312.51
-306.303
-317.739
-293.806
-291.219
-286.874
-298.258
-299.578
-287.61
-292.742
-294.463
-306.175
-316.785
-310.546
-312.409
-303.698
-312.023
-310.132
-305.436
-293.201
-283.673
-285.717
-291.329
-290.944
-285.348
-283.4
-292.73
-305.944
-310.316
-312.26
-304.139
-314.01
-326.393
-312.66
-327.535
-290.403
-237.614
-237.79
-291.139
-290.848
-237.255
-289.875
-237.756
-313.162
-327.831
-326.617
-314.389
-305.469
-310.379
-303.705
-311.816
-291.251
-285.263
-283.632
-293.046
-292.715
-283.415
-285.162
-290.868
-304.246
-312.032
-310.653
-305.952
-209.363
-225.004
-210.43
-223.838
-200.464
-200.575
-209.882
-223.473
-209.458
-224.263
-200.341
-200.924
-239.347
-243.747
-267.14
-258.823
-243.021
-240.14
-238.708
-244.562
-259.073
-265.449
-257.491
-267.105
-243.686
-238.37
-242.356
-239.494
-258.068
-268.122
-259.836
-266.306
-314.634
-329.061
-315.249
-328.129
-291.577
-237.793
-238.404
-291.024
-291.683
-238.521
-292.011
-238.683
-314.748
-327.369
-313.984
-328.208
-313.092
-306.342
-285.592
-293.279
-305.522
-313.204
-312.058
-306.66
-293.399
-284.094
-291.959
-285.752
-306.256
-311.306
-305.032
-312.474
-292.529
-286.5
-284.765
-293.931
360.666
455.593
170.222
351.579
194.165
-423.611
-625.41
-214.188
-449.623
-520.214
-367.543
-380.99
-665.345
-554.793
-536.627
454.041
487.174
112.635
388.828
289.486
-593.316
-132.654
-1444.91
-828.272
-1899.41
-763.825
-165.058
-483.73
-504.107
-692.036
-671.636
-478.596
-676.731
-490.046
-450.117
-694.392
-443.085
-698.412
-439.769
-454.537
-695.801
-1985.41
-256.296
-3532.12
-2124.41
-1208.34
-6505.47
-601.208
-518.426
-532.071
-681.772
-678.806
-511.5
-684.769
-541.617
-530.688
-675.619
-552.456
-678.784
-532.647
-682.818
-550.885
454.689
93.2548
266.063
76.1016
345.636
410.035
172.286
-1010.7
-900.479
-845.697
-1219.02
-709.312
-1082.62
-1403.06
-1219.87
-633.307
-907.612
-445.756
-671.18
-1169.56
-979.914
-1466
-1084.93
-1057.15
-1299.91
-1081.53
-1306.12
-1456.44
-1473.98
-1298.72
-1084.47
-1054.5
-1084.06
-1464.84
-1307.96
-1408.97
-1060.57
-1253.66
-1038.08
-1368.19
-1046.17
-1291.34
-1417.09
-1294.15
-1041.07
-1065.83
-1054.19
-1278.09
-1456.1
-801.973
-1944.5
-3293.41
-1019.55
-5849.34
-1245.24
-669.799
-1610.57
444.066
-10356.6
-980.992
-4236.2
-2187.14
-1401.67
-1107.55
-1283.99
-1486.65
-1426.07
-1078.28
-1290.9
-1065.32
-1438.33
-1078.64
-1277.84
-1419.94
-1266.09
-1059.87
-1076.77
-1075.04
-1266.72
-1425.38
-1465.57
-1101.18
-1056.94
-1279.12
-1099.14
-1476.33
-1273.7
-1449.99
-1263.19
-1053.02
-1084.39
-1088.07
-1267.31
-1437.49
)
;

boundaryField
{
    left
    {
        type            calculated;
        value           nonuniform List<scalar> 
598
(
-183.306
-120.552
13.9112
-203.955
-282.372
-199.386
-296.554
-159.31
-304.205
-252.421
-349.776
0.722919
-223.11
-234.967
-199.462
-203.387
-255.027
-251.337
-328.678
-255.906
-251.124
158.329
85.2186
44.0175
-288.969
-317.831
-174.808
-159.004
-252.207
-249.229
-309.472
-281.377
-248.597
-248.06
67.4788
82.9873
-35.1696
20.5468
-456.903
30.3419
18.6265
-15.3214
-212.746
-215.571
-200.034
-199.823
-274.666
-884.638
-307.649
-257.745
-275.292
-205.115
-275.505
-249.901
-339.215
-299.779
-303.351
-26.0413
-114.783
-99.323
-237.625
-120.103
-56.7758
-148.276
-250.708
-200.58
-200.873
-257.818
-253.482
-253.182
-270.462
-273.834
-266.916
-269.448
-252.638
-264.976
-289.049
-330.506
-275.302
-284.948
-261.2
-274.417
-259.595
-251.439
-266.118
-266.382
-266.513
-251.863
-248.362
88.9772
-262.555
-263.713
-204.37
-203.322
-259.396
-254.617
-202.554
-201.977
-92.8272
-85.4645
-89.7371
13.6927
16.2304
19.2721
-206.207
-52.4145
-52.1697
-93.3501
-62.1787
-244.322
-200.763
-51.2058
-51.5067
-51.2605
-199.351
-319.937
-181.499
-105.616
-172.336
-328.106
-243.445
-258.441
-249.944
-251.288
-356.956
-356.789
-358.797
2.97345
-18.7705
-17.884
-222.76
-176.704
-144.822
-284.051
-270.889
-199.608
-51.3981
-51.4676
-52.2825
-51.7086
-201.951
-213.388
-211.783
-254.297
-278.622
-279.182
-275.581
-275.998
-251.663
-299.225
-318.591
-343.49
-279.773
-280.734
-257.265
-216.941
-214.844
-251.079
-275.084
-275.255
-277.16
-252.956
-202.291
273.469
145.615
101.978
182.856
171.361
79.0358
172.11
86.976
-261.781
-259.188
-306.821
-285.216
-275.52
-294.195
-293.089
-316.708
-189.94
-192.331
-165.435
-206.887
-205.535
-251.125
-231.719
-232.935
-229.629
-230.628
-250.135