/*--------------------------------*- C++ -*----------------------------------*\
| =========                 |                                                 |
| \\      /  F ield         | OpenFOAM: The Open Source CFD Toolbox           |
|  \\    /   O peration     | Version:  2012                                  |
|   \\  /    A nd           | Website:  www.openfoam.com                      |
|    \\/     M anipulation  |                                                 |
\*---------------------------------------------------------------------------*/
FoamFile
{
    version     2.0;
    format      ascii;
    class       volVectorField;
    location    "0.105/solid";
    object      sigmaMidDir;
}
// * * * * * * * * * * * * * * * * * * * * * * * * * * * * * * * * * * * * * //

dimensions      [1 -1 -2 0 0 0 0];


internalField   nonuniform List<vector> 
3124
(
(-0.431609 0.688752 -0.582524)
(0.779517 -0.519687 0.349683)
(0.396764 0.890808 0.221449)
(0.976404 0.115081 0.182733)
(0.993964 -0.0675326 0.0864618)
(0.995292 0.0521605 0.0816942)
(-0.624758 0.69338 -0.359029)
(0.999606 -0.0126221 -0.025089)
(-0.0148775 -0.0499897 0.998639)
(0.786027 0.416243 0.457059)
(0.969835 0.135567 0.202587)
(0.209266 0.956485 0.203334)
(0.999116 -0.0372827 -0.0194009)
(0.964001 0.176563 0.198815)
(0.776345 0.375522 0.506233)
(-0.0486311 -0.0161419 0.998686)
(0.978217 0.0946885 0.184729)
(0.988045 -0.0150832 0.153428)
(0.99442 -0.0672802 0.0812522)
(0.994935 0.0519387 0.0860586)
(0.988401 -0.00932032 0.151578)
(0.988185 -0.0134468 0.152672)
(0.988393 -0.00790536 0.151711)
(0.182149 0.792743 -0.581704)
(0.302063 0.939881 0.159315)
(0.530246 0.81962 -0.216938)
(0.858973 -0.286072 0.42465)
(-0.382045 0.7443 -0.547776)
(0.372443 -0.339676 0.863659)
(0.913806 0.0379274 0.404377)
(0.790851 -0.609733 0.0527316)
(0.172816 -0.404205 0.898194)
(0.999777 0.0206868 -0.00415114)
(0.998753 -0.0499235 -0.000174119)
(0.947674 -0.304871 0.0947015)
(-0.075566 -0.0144486 0.997036)
(0.99649 0.083655 -0.00309543)
(0.999667 0.0128657 -0.0223653)
(0.999965 -0.00790266 -0.00282492)
(0.999931 -0.0110108 -0.00417278)
(0.999986 -0.00473908 -0.00251842)
(0.999986 -0.00485043 -0.00188306)
(0.20148 0.752717 -0.626756)
(0.742913 -0.480158 0.466399)
(0.202216 0.944466 -0.259021)
(0.52965 0.839858 -0.118781)
(0.528606 0.817987 -0.226876)
(0.868584 -0.0609549 0.491779)
(0.314976 0.923113 -0.220572)
(0.0737354 0.891567 -0.446847)
(0.988939 -0.0991407 0.110323)
(0.992912 0.050079 0.107783)
(0.994913 -0.0575995 0.0826489)
(0.994707 0.0610058 0.0826808)
(-0.283841 0.763039 -0.580694)
(0.967871 -0.071078 0.241191)
(-0.624192 0.781228 0.00819002)
(-0.198214 -0.17363 0.964657)
(0.997155 -0.0697261 -0.0286484)
(0.982929 0.109031 0.1482)
(0.985052 -0.140471 -0.099705)
(0.947765 -0.0704969 0.311082)
(0.208012 -0.145325 0.96727)
(0.991436 0.0902476 0.0943968)
(-0.0581008 -0.0496212 0.997077)
(0.931899 0.0729574 0.355303)
(0.976103 -0.173909 -0.130299)
(0.0437671 -0.165787 0.98519)
(0.979654 0.200537 0.00786477)
(0.932482 0.282348 0.225292)
(0.92848 0.0958797 0.358793)
(0.98079 -0.193743 0.0226786)
(0.920095 -0.388113 -0.052852)
(-0.101405 -0.0195472 0.994653)
(-0.153285 -0.0874437 0.984305)
(0.827945 0.461665 0.318391)
(0.387265 0.893938 0.225613)
(0.922264 -0.0152567 0.386259)
(0.994567 0.102885 -0.015845)
(0.99451 0.104289 -0.00862033)
(0.999233 0.0296419 0.0255837)
(0.961841 0.0553067 0.267962)
(0.998415 -0.0516703 0.0222924)
(0.99934 0.0147145 0.0332151)
(0.93182 -0.296935 0.208663)
(0.999868 0.0140456 0.00813838)
(0.960261 -0.26784 0.0784921)
(3.77189e-06 -0.0130983 0.999914)
(0.996326 0.0803144 0.0297326)
(-0.0761462 -0.00393316 0.997089)
(0.996836 -0.0708551 -0.0360308)
(0.635612 0.00504857 0.771992)
(0.0148461 -0.0177225 0.999733)
(-0.00233463 -0.00198647 0.999995)
(0.992845 0.119279 -0.00552007)
(0.98172 0.19031 -0.00277421)
(0.991755 0.127677 0.0109442)
(-0.0758474 -0.0111865 0.997057)
(-0.0199539 -0.00429853 0.999792)
(0.995812 0.0872945 0.0271591)
(0.986261 -0.0181561 0.164194)
(0.99921 0.0385043 0.00982885)
(0.999667 -0.0245453 -0.00794319)
(0.991751 -0.126819 -0.0186209)
(0.987121 -0.00447366 0.159911)
(0.999059 -0.0386847 0.0196264)
(0.997367 -0.0716463 0.0112249)
(0.995395 0.0505943 0.0814187)
(0.994414 -0.0674002 0.0812235)
(0.999836 -0.0166272 -0.00711051)
(0.999873 -0.015195 -0.00479429)
(0.999633 -0.0096485 0.0252965)
(0.988402 -0.0116056 0.151416)
(0.999619 -0.0136133 0.0240126)
(0.999413 -0.0272543 0.0207663)
(0.98839 -0.0116012 0.151498)
(0.999544 -0.0190851 0.0233889)
(0.999656 -0.00579199 0.0255605)
(0.988375 -0.00166398 0.152026)
(0.999643 -0.00560369 0.0261071)
(0.999998 0.000166923 -0.0018135)
(0.988362 -0.00176715 0.15211)
(0.999657 -0.00133152 0.0261588)
(0.963545 -0.26739 0.00914056)
(-0.154675 0.968662 0.194342)
(0.998682 0.0261834 -0.0441369)
(0.995916 -0.079014 -0.0436706)
(0.984291 0.170805 -0.0446899)
(0.970591 0.235402 -0.0503823)
(0.999316 0.00498832 -0.0366333)
(0.99932 -0.0015725 -0.0368434)
(0.999268 -0.0119335 -0.0363412)
(0.999342 -0.00538914 -0.0358727)
(-0.0141283 -0.328316 0.944462)
(0.2583 -0.431691 0.864247)
(0.833107 -0.517652 0.194855)
(0.815582 -0.48272 0.319073)
(0.901264 -0.1994 -0.384659)
(-0.227623 0.800254 -0.55478)
(0.0683856 0.118348 0.990615)
(0.415189 0.274913 0.867203)
(0.206942 0.0518144 0.97698)
(0.678519 0.682494 0.271687)
(0.214364 0.974556 -0.0654878)
(0.0774187 -0.335408 0.938886)
(-0.0648099 -0.675727 0.734297)
(0.68144 0.705217 0.195726)
(0.444624 0.790612 0.421002)
(0.968703 -0.212933 0.12757)
(0.801117 0.137102 0.582593)
(0.994336 0.0541067 0.0914739)
(0.863418 -0.031188 0.503524)
(0.860191 -0.00630428 0.509933)
(0.868085 0.00644911 0.496374)
(0.994908 -0.0590585 0.0816714)
(0.868508 -0.0194886 0.495292)
(0.995026 0.0555294 0.0826994)
(0.867028 -0.00371861 0.498246)
(-0.355235 0.860611 -0.364908)
(-0.276166 0.818838 -0.503226)
(-0.446949 0.894349 0.0193977)
(0.818123 -0.490889 0.299506)
(-0.520493 0.823208 0.22675)
(-0.168461 0.98447 -0.0493975)
(-0.47551 0.745002 -0.467828)
(0.904989 0.42528 0.0115055)
(0.98998 0.131867 -0.0505082)
(0.995725 -0.0870196 -0.0309638)
(0.992366 0.0292863 -0.1198)
(-0.288558 0.432153 0.854388)
(-0.0810179 0.204449 0.975519)
(0.772681 0.497911 0.393763)
(0.953593 0.101209 0.28358)
(0.20402 -0.17057 0.963993)
(0.947352 -0.0172933 0.319726)
(0.941772 0.0429777 0.333494)
(0.352348 0.862338 0.363626)
(0.811998 0.528634 0.247398)
(0.244253 0.920615 0.304644)
(0.80529 -0.57815 -0.131342)
(-0.00589161 -0.109244 0.993997)
(0.0917271 0.992559 0.0800769)
(0.427056 0.855339 0.293287)
(0.0567742 0.954273 -0.293497)
(-0.127785 0.888264 0.441201)
(0.129535 0.937474 0.323053)
(0.985126 0.145694 0.0911077)
(0.954699 0.205631 0.215093)
(0.988868 0.109505 0.100741)
(0.977899 0.112198 0.176423)
(-0.0992146 -0.134094 0.985989)
(0.960776 0.147611 0.234776)
(0.774442 0.523765 0.354837)
(0.975454 -0.0402695 0.216491)
(-0.0938279 0.688376 0.719259)
(0.961667 0.207016 0.179836)
(0.984655 0.15362 0.0827982)
(0.984669 0.00752889 0.17427)
(0.988127 0.133148 0.076662)
(0.993343 0.108654 -0.0382608)
(0.993717 0.105579 -0.0371528)
(0.987852 -0.0153106 0.15464)
(0.99724 -0.0357438 0.0650676)
(0.99708 -0.0397819 0.0651883)
(0.868403 -0.0274925 0.495096)
(0.995486 0.0502919 0.0804876)
(0.87115 0.00467146 0.490995)
(0.863798 -0.000310266 0.503837)
(0.994685 -0.061659 0.0824652)
(0.8685 -0.020044 0.495284)
(0.997716 0.0551895 -0.0389561)
(0.998574 0.0366731 -0.038791)
(0.997681 -0.0175855 0.0657485)
(0.98839 -0.0111469 0.151527)
(0.99761 -0.0219198 0.0655212)
(0.997354 -0.0325919 0.0649792)
(0.988298 -0.0105651 0.152167)
(0.997489 -0.0282184 0.0649502)
(0.997676 -0.0173092 0.0658974)
(0.988386 -0.00418979 0.151904)
(0.997738 -0.0127544 0.0660029)
(0.998131 0.0498405 -0.0353752)
(0.988268 -0.0106336 0.152362)
(0.997723 -0.0120064 0.0663672)
(-0.366853 0.927594 0.0706296)
(-0.461333 0.829348 -0.315203)
(0.26758 0.95679 -0.113811)
(-0.353805 -0.646206 0.676195)
(0.577183 0.802622 -0.150526)
(-0.150264 0.975526 0.160529)
(0.157551 0.981499 -0.108797)
(0.999844 -0.0136099 -0.0112627)
(0.870028 0.492985 -0.00414193)
(0.719011 0.672576 -0.175115)
(0.982034 0.15121 -0.112895)
(0.0418032 0.983287 0.177197)
(0.98667 0.158044 -0.0387952)
(0.735267 0.656059 -0.170199)
(0.469856 0.865036 -0.175918)
(0.69661 0.680102 -0.228464)
(0.667668 0.735714 -0.113775)
(0.953843 0.259105 -0.151814)
(0.586699 0.792023 -0.16877)
(0.655147 -0.451987 0.605385)
(0.81847 -0.110676 0.563789)
(0.98891 -0.112561 0.096891)
(0.158877 -0.412223 0.897123)
(-0.542994 0.603288 -0.584124)
(0.928486 -0.241753 0.281904)
(0.548013 -0.347166 0.761024)
(0.629317 -0.613086 0.477584)
(0.987672 0.0599871 -0.144587)
(-0.627836 0.77217 -0.0978578)
(0.853398 -0.519021 0.0482565)
(-0.602195 0.745768 -0.284941)
(0.945594 -0.307806 0.105396)
(0.705776 -0.692929 0.147413)
(0.984161 -0.175209 -0.0270114)
(0.987402 -0.152331 -0.0428088)
(0.999236 0.0193481 -0.0339594)
(0.99982 -0.0186679 -0.00340959)
(0.998313 -0.0483949 -0.0320799)
(0.997342 -0.0686 -0.0245504)
(0.997897 -0.0648082 -0.00132676)
(0.995162 -0.0935015 -0.0301559)
(0.963627 -0.109925 0.243597)
(0.0687954 -0.0365442 0.996961)
(0.0730502 -0.0327147 0.996792)
(0.994916 0.0951182 -0.0330786)
(0.978681 0.205298 -0.00603432)
(0.973971 0.223875 -0.0355066)
(0.983578 -0.173528 -0.0496131)
(0.995973 0.0726637 -0.052509)
(0.979344 0.20156 -0.01606)
(0.997197 -0.0593085 -0.0456137)
(0.983494 0.175637 -0.0434984)
(0.999279 0.00324375 -0.0378246)
(0.999279 0.00741076 -0.0372433)
(0.999525 -0.0038401 -0.0305703)
(0.999952 -0.00921437 -0.00324584)
(0.999513 -0.00501142 -0.0307987)
(0.999478 -0.00628963 -0.0316942)
(0.999958 -0.00842917 -0.00368266)
(0.999503 -0.00468176 -0.0311828)
(0.999528 -0.00524369 -0.0302795)
(0.999988 -0.00432702 -0.00231153)
(0.99954 -0.00487369 -0.0299305)
(0.999368 -0.000159013 -0.0355345)
(0.999258 -0.0147532 -0.0355816)
(0.999977 -0.0064153 -0.00209152)
(0.999557 -0.00308037 -0.0296141)
(0.99954 -0.00613458 -0.0296887)
(-0.130035 -0.499859 0.85629)
(-0.111039 -0.658 0.744786)
(0.267342 0.930837 -0.249142)
(-0.31521 -0.540142 0.780313)
(0.542417 0.811202 -0.218482)
(0.119301 0.925381 -0.359773)
(-0.0822417 -0.0900992 0.992531)
(0.122209 -0.202662 0.971593)
(0.725083 -0.582919 0.36669)
(0.146752 -0.0413143 0.98831)
(-0.571515 0.61693 -0.541081)
(0.212992 -0.0165191 0.976914)
(0.877851 0.166507 -0.449058)
(-0.275373 0.85143 -0.44636)
(0.0481921 -0.199226 0.978768)
(0.410383 0.677874 -0.609978)
(0.331465 0.922225 -0.199077)
(-0.298758 0.797611 -0.523985)
(0.584598 0.791244 -0.179383)
(0.0915931 -0.0287989 0.99538)
(0.0530437 0.950189 -0.307127)
(0.255513 0.965911 -0.0415815)
(0.692631 0.706218 -0.146696)
(0.976962 0.185944 -0.104735)
(-0.291448 0.920265 0.261093)
(0.0674154 0.852007 -0.519171)
(-0.484014 -0.572973 0.661387)
(0.69151 0.679393 -0.245437)
(0.550424 0.834863 0.00606456)
(0.816852 0.444934 -0.367132)
(0.336368 0.92163 -0.193534)
(0.360705 0.163983 0.918151)
(0.873171 0.345561 0.343744)
(0.129674 -0.0185087 0.991384)
(0.847401 -0.0913635 0.523033)
(0.216562 0.0504254 0.974966)
(0.307819 -0.13948 0.941166)
(0.887628 0.324226 0.3271)
(0.217589 -0.0499116 0.974763)
(0.190886 0.952243 -0.238321)
(0.456127 0.879231 -0.13748)
(-0.0646248 0.795499 -0.602499)
(-0.109195 -0.376997 0.919755)
(-0.0176712 -0.556501 0.830659)
(0.506698 0.844178 -0.174986)
(0.00626201 -0.200478 0.979678)
(-0.260387 -0.441202 0.858801)
(0.582759 -0.390939 0.712431)
(0.0259009 0.842494 -0.538083)
(0.0643959 0.00832978 0.99789)
(-0.188961 -0.20338 0.960693)
(0.90025 0.435109 -0.0152004)
(0.986302 -0.105112 0.127118)
(0.842183 -0.071926 0.534374)
(0.817758 -0.01169 0.575443)
(0.993759 -0.0612884 0.0931999)
(0.846916 -0.0287577 0.530948)
(0.858451 -0.0306892 0.511976)
(0.995059 0.0562794 0.0817976)
(0.865909 -0.0196766 0.499814)
(0.86849 0.0103585 0.495598)
(0.995046 -0.0553974 0.0825541)
(0.865845 0.0135284 0.50013)
(0.866873 -0.0232706 0.497986)
(-0.147515 -0.264373 0.953072)
(-0.127775 0.875138 -0.466698)
(0.133969 0.962613 -0.235432)
(-0.0583541 0.731381 -0.679468)
(-0.360138 0.88593 -0.292283)
(0.304061 -0.646421 0.699776)
(0.205375 0.707791 -0.675909)
(-0.119994 0.956521 -0.265835)
(0.0500383 -0.631258 0.773957)
(0.0812608 0.987779 -0.133003)
(0.961559 -0.23721 0.138333)
(0.0528338 -0.194863 0.979407)
(0.917442 -0.389557 0.0809058)
(0.854507 0.5145 -0.0714637)
(0.714833 0.619517 0.324364)
(-0.146786 0.973822 0.173567)
(0.304903 0.952382 -0.00178742)
(0.906409 -0.265511 -0.328523)
(-0.456372 0.886605 -0.0752034)
(-0.529765 0.836205 0.141809)
(-0.501522 0.862399 -0.0688786)
(0.606456 0.655225 0.450434)
(-0.29195 0.956427 0.00364882)
(-0.447532 0.80362 -0.392313)
(-0.035719 -0.407063 0.912702)
(-0.114769 -0.520709 0.845985)
(0.894441 0.361877 0.262716)
(0.972933 0.139005 0.184603)
(0.866676 0.496264 0.0509477)
(0.88384 -0.00597673 0.46775)
(0.911053 -0.410697 0.0362095)
(0.954408 -0.105818 -0.279121)
(0.984356 -0.14143 -0.105074)
(0.960418 0.272563 -0.0575022)
(0.958264 0.278952 -0.0625703)
(0.984719 0.17318 -0.018343)
(0.991525 0.0954152 -0.0881692)
(0.932584 0.35179 -0.0808079)
(0.914618 0.404126 -0.0125155)
(0.989284 0.114961 -0.0900067)
(0.924327 0.0916196 0.370439)
(0.791964 0.184982 0.581871)
(0.989408 -0.12732 -0.0697177)
(0.868509 0.489653 -0.0770168)
(0.937232 0.347573 -0.0280887)
(0.9771 -0.212272 -0.0147388)
(0.985085 0.105839 -0.135666)
(0.99547 0.0846393 0.043319)
(0.913076 0.394913 -0.101667)
(0.995634 -0.0146794 -0.0921867)
(0.273887 -0.132507 0.95259)
(0.837565 -0.0615095 0.542864)
(0.951206 -0.154112 0.267314)
(0.267512 -0.284622 0.920558)
(0.437288 -0.236418 0.86769)
(0.825458 -0.0482066 0.562401)
(0.201869 -0.190054 0.960796)
(0.150467 -0.087719 0.984716)
(0.935522 -0.232175 0.266259)
(0.985262 -0.0250255 -0.169209)
(-0.153351 0.0138383 0.988075)
(0.853121 -0.0338344 0.520614)
(0.0840343 -0.110616 0.990304)
(-0.104597 0.00285187 0.994511)
(0.892752 0.379234 0.243258)
(0.937067 0.335561 0.0964607)
(0.975864 0.210287 0.0588958)
(0.997049 0.0767689 0.000815306)
(0.991097 0.0787985 0.107317)
(0.944865 0.138072 0.296927)
(0.970937 0.206313 0.121315)
(0.984289 0.0793619 0.157726)
(0.946818 0.321164 -0.0197168)
(0.943509 0.317908 0.0934118)
(-0.454397 0.48055 0.750063)
(0.849251 0.403094 0.341009)
(0.0412753 -0.0965188 0.994475)
(0.966014 -0.202448 0.160721)
(-0.294585 -0.651197 0.699401)
(0.702084 0.162931 0.693204)
(0.956758 -0.0918635 0.275998)
(0.913302 -0.396811 -0.0917653)
(0.981985 -0.132936 0.134288)
(0.992114 0.122222 -0.0277707)
(0.991453 -0.12343 -0.0422626)
(0.944458 0.315706 -0.0912597)
(0.989951 -0.0706278 0.122513)
(0.965585 -0.248063 0.0781638)
(0.844405 -0.522505 -0.118187)
(0.975889 0.211236 -0.0549621)
(0.878286 -0.478029 -0.0101381)
(0.992803 -0.0457684 -0.110667)
(0.800318 0.038407 0.598345)
(0.895072 0.431039 -0.114242)
(0.95467 -0.297666 -0.00054041)
(-0.0447685 -0.300552 0.952714)
(0.10058 -0.173942 0.979606)
(-0.323625 0.0893538 0.941957)
(-0.0871233 -0.0426017 0.995286)
(-0.0662039 -0.153011 0.986004)
(-0.245054 0.020988 0.969282)
(0.0934047 -0.189509 0.977426)
(-0.234639 -0.221599 0.946488)
(-0.099056 -0.0810155 0.991778)
(0.190138 -0.379934 0.905261)
(0.760082 0.596957 0.256744)
(0.448685 0.707672 0.545786)
(0.223718 0.930937 0.288627)
(0.91604 -0.358367 0.180122)
(0.288291 0.949925 0.120545)
(-0.172527 0.984258 0.0383391)
(0.463346 0.83487 0.297156)
(-0.0714369 0.90674 0.415596)
(-0.271553 0.750735 0.602209)
(0.125759 0.934652 0.33258)
(0.831959 -0.33043 0.445712)
(0.755249 0.652591 0.0610313)
(0.482395 0.734094 0.477913)
(0.608805 0.789572 0.0770258)
(0.745088 0.666072 -0.0345223)
(0.638064 -0.279173 0.717591)
(0.469766 0.87802 0.0916523)
(-0.162979 0.978128 -0.129241)
(0.844583 0.506175 -0.174544)
(-0.0190288 0.957891 -0.286501)
(0.987005 0.160649 -0.00350762)
(0.970734 0.237907 -0.0327881)
(0.0815331 0.966184 -0.244625)
(0.987322 0.15731 -0.0211661)
(0.987594 0.156159 -0.0165275)
(0.179339 0.969502 -0.167045)
(0.984118 0.17592 -0.023765)
(0.995473 0.0728837 0.0610096)
(0.999686 -0.00523911 0.0244862)
(0.99732 0.0382288 0.0623848)
(0.948058 0.207675 0.24095)
(0.990789 0.0759031 0.112145)
(0.991785 0.068498 0.108031)
(0.998668 -0.0454317 0.0244411)
(0.99837 -0.0090067 0.0563545)
(0.99806 -0.0105309 0.0613674)
(0.983866 0.158463 0.0830479)
(0.990364 0.0460871 0.130597)
(0.996403 0.082577 0.0190144)
(0.975223 0.221193 -0.00358798)
(0.990969 -0.0167278 0.133042)
(0.980042 0.194369 -0.0416841)
(0.970389 0.226049 0.0851331)
(0.884019 0.467279 -0.0126603)
(0.952387 0.240943 0.186832)
(0.979816 -0.174423 0.0976612)
(-0.0866712 0.920215 0.381698)
(0.991624 -0.0316495 0.12522)
(0.551894 0.833106 -0.0367013)
(0.990662 0.13629 -0.00368187)
(0.998646 0.013271 0.0503033)
(0.286246 0.946345 -0.14998)
(0.989849 0.127571 0.062639)
(0.121914 -0.0390238 0.991773)
(0.962042 -0.255446 0.0960332)
(0.960146 -0.0997733 0.261083)
(0.0429099 -0.0137543 0.998984)
(0.0379113 -0.00623344 0.999262)
(0.975007 -0.0793925 0.207503)
(0.127327 -0.0485833 0.99067)
(-0.0323949 0.0128149 0.999393)
(0.980257 -0.184668 0.0706715)
(0.992358 -0.0323298 -0.119083)
(-0.127531 0.0212409 0.991607)
(-0.047735 -0.00778157 0.99883)
(0.994531 -0.0530754 0.0899494)
(-0.0177364 0.0115826 0.999776)
(0.076041 -0.0492487 0.995888)
(0.0620891 -0.0590429 0.996323)
(0.979542 0.200356 0.0188598)
(0.999594 -0.0246072 0.0143616)
(0.978509 0.206011 -0.00895988)
(0.972825 0.230392 0.0230369)
(0.997734 0.067047 -0.00562696)
(0.985 0.172308 0.00921182)
(0.99937 0.0213668 0.0283508)
(0.949383 0.314108 0.00297036)
(0.967369 0.253357 -0.00284005)
(0.999638 -0.0223834 0.0149143)
(0.988798 0.148273 0.0171101)
(0.999518 0.00507727 0.030617)
(0.0140751 0.00104263 0.9999)
(0.103019 -0.0570163 0.993044)
(-0.181958 0.0188906 0.983125)
(-0.0493907 -0.0140664 0.99868)
(-0.0801131 -0.00437286 0.996776)
(-0.181647 -0.0148757 0.983251)
(-0.00049443 0.0011348 0.999999)
(-0.050062 0.00758251 0.998717)
(-0.0220148 -0.00794489 0.999726)
(0.0767541 -0.0832301 0.99357)
(0.992484 0.107085 0.0592224)
(0.984023 0.176304 0.0248138)
(0.988764 0.138284 0.0567668)
(0.985164 -0.0342905 0.168154)
(0.997199 0.0253015 0.070382)
(0.994992 0.0686767 0.0726259)
(0.984329 0.175553 0.0166795)
(0.998415 0.0237727 0.0510098)
(0.992794 0.107427 0.0530942)
(0.944888 -0.324284 -0.0450151)
(0.984689 -0.169876 -0.0391028)
(0.999333 0.0153228 -0.0331501)
(0.998566 -0.0527337 -0.00925961)
(0.999424 -0.0076485 -0.0330508)
(0.979223 -0.198589 -0.0410385)
(0.993845 -0.110072 -0.0124793)
(0.992544 -0.116761 -0.034969)
(0.987635 -0.00779473 0.156575)
(0.997704 -0.00210416 0.0676985)
(0.997458 -0.0273237 0.0658119)
(0.997544 -0.0418168 0.0561896)
(0.998032 -0.0600969 0.0178752)
(0.996943 -0.0558225 0.0546628)
(0.997944 -0.0382993 0.0513888)
(0.996295 -0.0846851 0.0149809)
(0.99675 -0.0608597 0.0527762)
(0.99469 -0.0643207 0.0803371)
(0.868531 0.00498198 0.49561)
(0.871106 -0.0229311 0.490559)
(0.995241 0.052475 0.0821081)
(0.868598 -0.0271908 0.494771)
(0.868921 0.00500997 0.494926)
(0.999094 0.0187931 -0.0381949)
(0.999118 0.0167977 -0.0384895)
(0.999423 0.00697219 -0.0332459)
(0.999854 -0.0158956 -0.00633684)
(0.999457 -0.000588302 -0.0329408)
(0.999467 -0.00589202 -0.0321099)
(0.999837 -0.0172044 -0.00555548)
(0.999453 -0.00617805 -0.0324988)
(0.998131 -0.010749 0.0601603)
(0.999629 -0.0113453 0.0247574)
(0.99811 -0.0130472 0.0600513)
(0.988419 -0.00944706 0.151455)
(0.997538 -0.0258587 0.0651873)
(0.997607 -0.022581 0.0653499)
(0.999643 -0.0109821 0.0243513)
(0.99809 -0.0170554 0.0593826)
(0.9981 -0.0150076 0.0597597)
(0.997872 -0.0313489 0.057169)
(0.999488 -0.0235374 0.021659)
(0.997964 -0.0268691 0.0578444)
(0.988333 -0.0123048 0.151809)
(0.997561 -0.0254967 0.06498)
(0.997489 -0.0283464 0.0648977)
(0.999485 -0.0228625 0.0225243)
(0.998038 -0.0208748 0.0590247)
(0.997972 -0.0251183 0.0584822)
(0.998134 -0.0093741 0.0603311)
(0.99966 -0.0051144 0.0255794)
(0.998127 -0.00814648 0.0606267)
(0.98837 -0.00424747 0.152009)
(0.997779 -0.00659262 0.0662779)
(0.997756 -0.0105186 0.0661206)
(0.999646 -0.00665586 0.0257633)
(0.998145 -0.00497784 0.0606847)
(0.998132 -0.00640029 0.0607538)
(0.999354 -0.00603286 -0.0354406)
(0.999132 0.0221774 -0.0352479)
(0.999954 0.00942512 -0.00203613)
(0.999358 0.0201184 -0.0296356)
(0.999563 -0.000394204 -0.0295492)
(0.999988 0.00442303 -0.00188952)
(0.999536 0.00771002 -0.0294789)
(0.98834 -0.00207631 0.152248)
(0.997769 -0.00740558 0.0663429)
(0.997777 -0.00655365 0.0663143)
(0.999666 0.00193713 0.0257831)
(0.998145 -0.00412436 0.0607433)
(0.998147 -0.00427776 0.0606914)
(0.999665 0.00052507 0.0258879)
(0.998139 -0.00425466 0.0608286)
(0.980657 0.141982 0.134732)
(0.951664 0.229443 0.204185)
(0.950653 0.202623 0.234954)
(0.980597 -0.118108 0.156458)
(0.975046 0.162998 0.15072)
(0.958119 0.169643 0.230717)
(0.975109 0.128842 0.18045)
(0.998293 -0.00767836 0.0578956)
(0.982867 -0.023757 0.182776)
(0.995034 0.0458935 0.0883198)
(0.997473 -0.0209781 0.0678802)
(0.982845 0.0110955 0.184098)
(0.998341 -0.00743689 0.0570937)
(0.997407 -0.0216366 0.0686444)
(0.998685 0.00229959 0.0512112)
(0.998153 -0.000900739 0.0607431)
(0.983717 0.0129631 0.179254)
(0.99491 -0.0586253 0.0819639)
(0.998675 -0.00303929 0.0513778)
(0.983489 -0.0201423 0.179841)
(0.998138 0.0093756 0.0602691)
(0.959052 0.202563 0.197959)
(0.916958 0.326209 0.229728)
(0.95126 0.186031 0.245962)
(0.90253 0.370621 0.219273)
(0.969395 0.180568 0.166338)
(0.942174 0.213755 0.258103)
(0.873157 0.413699 0.257778)
(0.950849 0.306196 -0.0461513)
(0.997275 0.0653164 -0.0342858)
(0.208727 0.977812 0.0177837)
(0.878216 0.47391 -0.0643873)
(0.838294 0.543989 -0.0365974)
(0.937572 0.342139 -0.0624517)
(0.945029 0.320021 -0.0671324)
(0.998639 -0.0145036 0.050104)
(0.997725 -0.0304368 0.0601587)
(0.983524 -0.0256641 0.178945)
(0.995634 0.0459382 0.0812512)
(0.998622 -0.0131912 0.0507932)
(0.98374 0.00975211 0.179332)
(0.997687 -0.0340442 0.0588406)
(0.998473 0.00696014 0.0548086)
(0.983118 0.0131369 0.1825)
(0.997757 0.00485244 0.0667699)
(0.994645 -0.0591907 0.0847264)
(0.998412 0.000642825 0.0563239)
(0.983108 -0.0187547 0.182063)
(0.997766 0.0167525 0.0646745)
(0.627605 -0.432892 0.647083)
(0.884833 -0.175314 0.431666)
(0.874502 -0.219794 0.432361)
(0.77426 -0.32648 0.542154)
(0.65566 -0.423277 0.625257)
(0.899488 -0.29765 0.319884)
(0.569391 -0.33341 0.75142)
(0.692253 -0.505368 0.515159)
(0.971641 -0.236341 0.00749268)
(0.886551 -0.462041 0.023368)
(0.951235 -0.287639 0.111428)
(0.763545 -0.621328 0.175929)
(0.961267 -0.265599 0.0736488)
(0.857531 -0.250882 0.449109)
(0.229226 -0.106854 0.96749)
(0.290967 0.770827 -0.566714)
(-0.135547 0.840171 -0.52511)
(0.995585 0.00925586 0.0934119)
(0.992805 -0.0197049 0.118109)
(0.979648 0.00975082 0.200487)
(0.994472 -0.0201049 0.103058)
(0.996087 0.0158049 0.0869569)
(0.977669 0.0470599 0.204812)
(0.991389 -0.0724957 0.109049)
(0.996995 0.0227261 0.0740573)
(0.99308 -0.0597247 0.101121)
(0.979902 0.0318505 0.196919)
(0.995214 0.0178926 0.0960661)
(0.996589 0.0182243 0.0804889)
(0.981141 -0.00286286 0.193274)
(0.995324 0.0382777 0.0886836)
(0.998608 -0.0101421 0.0517635)
(0.995086 0.0545608 0.0826205)
(0.983484 -0.023265 0.179496)
(0.997971 -0.0133016 0.0622726)
(0.998606 -0.0070349 0.0523172)
(0.983584 0.0113685 0.180092)
(0.997911 -0.0205861 0.0612397)
(0.998635 0.00317833 0.0521385)
(0.995221 -0.0514724 0.0829798)
(0.983622 0.0144297 0.179667)
(0.997939 0.0149295 0.0624105)
(0.998626 0.00253257 0.0523396)
(0.983417 -0.0207728 0.180164)
(0.997915 0.0189389 0.061695)
(-0.0549062 -0.415827 0.907785)
(0.224947 -0.554972 0.800878)
(0.895497 -0.330531 0.298051)
(0.957839 -0.154955 0.241937)
(0.58571 -0.23769 0.774886)
(0.925196 -0.246323 0.288682)
(0.904785 -0.19975 0.376117)
(0.76049 -0.332396 0.557824)
(0.647635 -0.308245 0.696817)
(0.90603 -0.187376 0.379473)
(0.805416 -0.251378 0.536763)
(-0.0757914 -0.039838 0.996328)
(0.978697 -0.202085 -0.036241)
(0.97758 -0.179949 -0.109344)
(0.842255 -0.155827 -0.516067)
(0.980232 -0.19752 -0.011441)
(0.918636 -0.182224 -0.350574)
(-0.475064 0.133413 0.869779)
(0.956115 -0.185931 0.226439)
(0.922343 -0.302735 0.240074)
(0.958247 -0.281916 -0.0478202)
(0.960391 -0.277192 0.028532)
(0.273724 -0.426952 0.861851)
(0.359655 -0.309172 0.880376)
(-0.379608 0.0148977 0.925028)
(-0.18158 -0.0782819 0.980255)
(0.859347 0.184236 0.477053)
(0.680358 0.68847 0.251243)
(0.893755 0.0838142 0.440656)
(0.816168 0.38636 0.429646)
(0.855817 0.0181395 0.516961)
(0.918438 0.0740367 0.388575)
(0.687919 0.628882 0.362318)
(0.778562 0.207107 0.592408)
(0.940956 0.18503 0.283487)
(0.982649 -0.14171 0.119666)
(0.868325 0.197493 0.454981)
(0.806488 -0.00612252 0.591218)
(0.908705 -0.414145 0.0523316)
(0.89147 0.249866 0.377952)
(0.946267 0.320983 -0.0393589)
(0.914564 0.400469 -0.0565446)
(0.981022 0.192379 -0.0242059)
(0.948137 0.315507 -0.0386251)
(0.918031 0.395087 -0.0335487)
(0.964199 0.262604 -0.0368781)
(0.951699 0.303253 -0.0480243)
(0.354477 -0.140659 0.924425)
(0.965044 -0.259587 0.0361295)
(0.964135 -0.258094 0.0618954)
(0.95144 -0.265052 0.156552)
(0.126675 -0.0247079 0.991636)
(0.965776 -0.255349 0.0455286)
(0.929538 -0.257848 0.263577)
(0.765953 -0.210617 -0.607418)
(0.987261 -0.154418 0.0383646)
(0.977936 -0.202637 -0.0507912)
(0.959996 -0.210076 -0.185138)
(-0.547738 0.116817 0.828455)
(0.981808 -0.188226 0.0249901)
(0.973155 -0.208453 -0.0975536)
(0.139166 -0.0659714 0.988069)
(0.942647 -0.331901 0.0354803)
(0.945869 -0.324349 0.0113549)
(0.946115 -0.323273 0.0189802)
(0.972944 -0.23088 0.00862702)
(0.957062 -0.288579 0.0274566)
(0.168288 -0.038123 0.985)
(0.160745 -0.0795263 0.983787)
(-0.40017 0.000514325 0.916441)
(-0.1768 0.00979173 0.984198)
(0.998716 0.00299333 0.0505753)
(0.994806 -0.0614375 0.0811571)
(0.983684 0.0137598 0.17938)
(0.998186 0.000351265 0.0602108)
(0.99869 -0.00138696 0.0511483)
(0.983529 -0.0199245 0.179647)
(0.998207 0.00859072 0.0592341)
(0.998638 -0.0118857 0.0508023)
(0.99557 0.0463625 0.0817993)
(0.983487 -0.0248898 0.179261)
(0.997819 -0.0271048 0.06019)
(0.998637 -0.0109975 0.0510169)
(0.983623 0.0100418 0.179958)
(0.997829 -0.0280795 0.0595655)
(0.991863 -0.113327 -0.0580002)
(-0.552194 0.833673 0.00841046)
(0.939573 -0.342347 0.000839549)
(0.882722 -0.401721 -0.243766)
(-0.394661 0.890362 0.226932)
(-0.62571 0.764806 0.153488)
(0.995791 -0.0556109 -0.0728602)
(0.995908 -0.0673385 -0.0602795)
(0.997102 -0.0351763 -0.0674517)
(0.998265 0.00422896 -0.0587282)
(0.997211 -0.0651706 -0.0363743)
(0.9987 0.0220626 -0.0459422)
(0.99865 -0.0279059 -0.0438059)
(0.99902 -0.0251479 -0.0364322)
(0.996712 -0.048943 -0.0645732)
(0.998034 0.0119167 -0.06153)
(0.997292 0.0141583 -0.0721706)
(0.996803 -0.0521614 -0.0605157)
(0.996015 0.0442965 -0.077411)
(0.995411 0.0647887 -0.070429)
(0.997512 0.017756 -0.0682178)
(0.99574 0.041413 -0.0823764)
(0.99735 -0.00582737 -0.0725127)
(0.993896 -0.0989709 -0.0487487)
(0.997008 -0.00162563 -0.0772836)
(0.993699 0.0791167 -0.079387)
(0.996742 0.0121581 -0.0797378)
(0.997124 -0.036265 -0.0665427)
(0.997335 -0.0310005 -0.0660462)
(0.997792 0.0214478 -0.0628503)
(0.997462 0.0183186 -0.068803)
(0.997489 -0.0309437 -0.063707)
(0.997485 -0.0218076 -0.0674369)
(0.997681 0.0246098 -0.063465)
(0.998431 -0.0377333 -0.041381)
(0.997932 0.0479288 -0.0428288)
(0.998129 0.0438323 -0.0426227)
(0.998425 -0.0377697 -0.0414896)
(0.997497 -0.0212886 -0.0674292)
(0.997595 0.0273141 -0.0636963)
(0.997324 0.0242788 -0.0689591)
(0.997554 -0.0291216 -0.0635408)
(0.997403 -0.0261475 -0.0671012)
(0.99761 0.0282188 -0.063078)
(0.997568 -0.0296677 -0.0630683)
(0.997347 0.0250583 -0.0683447)
(0.998117 0.0447167 -0.041984)
(0.998198 -0.0431488 -0.0417025)
(0.998287 -0.0420696 -0.040669)
(0.998044 0.046469 -0.0418091)
(0.997399 0.0225832 -0.0684443)
(0.997479 -0.0311585 -0.0637624)
(0.997306 -0.0277993 -0.0678881)
(0.997621 0.0270873 -0.0633903)
(-0.0953214 -0.262924 0.960096)
(-0.0840606 -0.331914 0.939557)
(0.0131255 -0.577094 0.816572)
(-0.121807 -0.230124 0.965508)
(-0.0567177 -0.42681 0.902561)
(0.0722122 -0.479329 0.874659)
(-0.283099 -0.0632963 0.957)
(0.821142 -0.56912 -0.0427516)
(0.84285 -0.288686 0.454163)
(0.721845 -0.692049 0.00292214)
(0.769002 -0.469108 0.434252)
(0.795801 -0.601641 0.0687621)
(0.709979 -0.652723 -0.264354)
(0.76994 -0.236282 0.59276)
(0.851365 -0.314615 -0.419755)
(-0.580079 -0.0547396 0.812719)
(0.962203 -0.184035 -0.200738)
(0.765238 -0.572289 -0.294783)
(0.881213 -0.440367 -0.171872)
(-0.0689634 -0.340664 0.937652)
(0.727908 -0.369726 -0.577454)
(-0.0416002 0.0131231 0.999048)
(-0.0218954 0.0774477 0.996756)
(0.126861 0.044883 0.990905)
(0.29092 0.00912753 0.956704)
(-0.0130107 -0.132139 0.991146)
(-0.17488 0.232495 0.956746)
(0.435762 -0.0107327 0.899998)
(0.386753 0.0958545 0.917188)
(0.264618 0.267765 0.926434)
(0.370215 0.239593 0.897517)
(0.466631 0.112133 0.877315)
(0.209963 0.127522 0.969357)
(0.385744 0.113728 0.91557)
(0.463807 0.140995 0.874645)
(0.169863 -0.360044 0.917341)
(0.101539 -0.0706498 0.99232)
(-0.111437 -0.326807 0.938498)
(0.234768 -0.348723 0.907346)
(0.235766 -0.263627 0.935369)
(-0.0682394 -0.334807 0.939812)
(0.325338 -0.0572178 0.943865)
(0.0392763 0.747389 -0.663225)
(0.00799083 -0.356702 0.934184)
(0.151689 0.811551 -0.564247)
(0.00281063 0.828168 -0.560473)
(0.0427188 0.890618 -0.452742)
(-0.0312264 -0.412815 0.910279)
(0.0792135 -0.506803 0.858415)
(0.903378 0.0852083 0.420295)
(0.872945 0.227569 0.431485)
(0.556141 0.67865 0.47973)
(0.88138 0.109962 0.459431)
(0.900978 0.139358 0.410874)
(0.986472 0.104949 0.125934)
(0.986947 -0.0670916 0.146403)
(0.968418 0.118757 0.219231)
(0.988607 -0.0560281 0.139702)
(0.959649 0.172041 0.222432)
(0.990503 0.0766811 0.114123)
(0.98731 0.0197634 0.157568)
(0.911454 0.0492112 0.408448)
(0.714397 0.412234 0.56542)
(0.928727 -0.0032539 0.37075)
(0.924588 0.0216968 0.380351)
(0.919384 0.0558048 0.389383)
(0.998272 -0.00231578 0.0587209)
(0.993776 -0.0672369 0.0888124)
(0.982446 0.0175286 0.18572)
(0.99724 0.0125414 0.0731805)
(0.982616 -0.0216916 0.184377)
(0.998134 0.00616169 0.0607535)
(0.997514 -0.00599418 0.0702064)
(0.954592 -0.012763 0.297643)
(0.955431 -0.0161752 0.294771)
(0.865224 -0.0344682 0.500199)