/*--------------------------------*- C++ -*----------------------------------*\
| =========                 |                                                 |
| \\      /  F ield         | OpenFOAM: The Open Source CFD Toolbox           |
|  \\    /   O peration     | Version:  2012                                  |
|   \\  /    A nd           | Website:  www.openfoam.com                      |
|    \\/     M anipulation  |                                                 |
\*---------------------------------------------------------------------------*/
FoamFile
{
    version     2.0;
    format      ascii;
    class       volVectorField;
    location    "0.105/solid";
    object      U;
}
// * * * * * * * * * * * * * * * * * * * * * * * * * * * * * * * * * * * * * //

dimensions      [0 1 -1 0 0 0 0];


internalField   nonuniform List<vector> 
3124
(
(-6.25891e-09 4.99652e-09 4.8058e-09)
(-3.02161e-10 2.87102e-09 8.05248e-09)
(-2.20306e-08 8.03125e-09 3.61951e-08)
(-3.42973e-09 -1.76716e-09 4.58872e-09)
(-4.75363e-10 -2.82638e-10 9.20847e-10)
(-2.33304e-10 -7.76499e-11 2.10811e-10)
(-1.82473e-09 2.73938e-09 7.73588e-09)
(-3.28323e-09 4.46395e-09 7.56038e-09)
(-2.68768e-08 1.61914e-08 -3.45734e-09)
(-1.72997e-08 6.26924e-09 2.63813e-08)
(-3.81874e-09 -2.1402e-09 5.20365e-09)
(-3.30295e-08 6.58532e-09 4.63887e-08)
(-2.5108e-09 2.55073e-09 8.38186e-09)
(-6.54037e-09 -3.92022e-09 1.05801e-08)
(-2.12642e-08 6.16841e-09 3.41523e-08)
(-2.26193e-08 1.39344e-08 -5.72717e-09)
(-4.68139e-09 -2.91357e-09 8.30681e-09)
(-7.46796e-10 -5.81171e-10 1.96768e-09)
(-2.36358e-10 -7.80655e-11 2.4116e-10)
(-4.82236e-10 -2.48451e-10 8.51259e-10)
(-3.23659e-10 -1.74963e-10 4.42771e-10)
(-6.42296e-10 -4.59156e-10 1.64419e-09)
(-3.06756e-10 -1.46736e-10 3.48114e-10)
(5.45113e-09 1.27842e-09 7.17769e-09)
(3.10123e-08 -2.21272e-08 8.51237e-09)
(3.09705e-08 4.25052e-09 2.65238e-08)
(-1.10983e-07 7.96155e-08 1.28487e-09)
(-1.35924e-08 5.81712e-09 5.59179e-09)
(-1.98607e-08 1.36014e-08 9.40737e-09)
(-5.10657e-08 3.91518e-08 1.46055e-08)
(-8.07643e-09 4.48843e-09 4.55973e-09)
(-4.57512e-08 1.92527e-08 1.13436e-08)
(-1.38291e-09 -1.81997e-09 7.5869e-09)
(-4.12162e-09 -1.89635e-09 1.16232e-08)
(-5.7525e-08 3.09391e-08 -2.02714e-09)
(-3.23308e-08 2.93447e-08 -1.26166e-08)
(-9.22167e-10 -1.7447e-09 6.84631e-09)
(-3.43565e-10 -1.29157e-09 4.16524e-09)
(-7.81688e-11 -2.7152e-10 3.61644e-10)
(-5.85877e-11 -3.71996e-10 9.14945e-10)
(-9.99194e-11 -2.4332e-10 2.23362e-10)
(-1.77674e-10 -2.31516e-10 -2.12087e-10)
(3.35482e-09 2.05763e-09 7.93925e-09)
(-4.04505e-09 7.21595e-09 2.17267e-08)
(1.63051e-08 1.41446e-08 2.83543e-08)
(4.45722e-08 -3.83804e-08 2.08747e-08)
(5.28529e-08 1.15816e-08 4.8644e-08)
(-8.07166e-09 8.85475e-09 2.64183e-08)
(-2.48267e-07 1.89849e-07 1.38223e-07)
(1.72759e-08 3.16315e-08 4.87527e-08)
(-1.12748e-09 -7.47185e-10 2.0607e-09)
(-1.07133e-09 -6.57152e-10 1.85986e-09)
(-1.82662e-10 -6.25959e-11 6.06084e-11)
(-1.88301e-10 -6.1458e-11 4.68908e-11)
(-3.5168e-09 1.62955e-09 1.77613e-09)
(-5.91341e-09 4.9748e-09 1.93468e-08)
(-9.99239e-09 5.46721e-09 6.55607e-09)
(-3.71528e-08 7.64881e-09 3.41328e-09)
(-5.42106e-09 2.71068e-09 1.20137e-08)
(-5.37992e-08 5.44017e-08 1.32954e-09)
(-8.93631e-09 6.693e-09 6.17411e-09)
(-1.14159e-07 7.85311e-08 -2.39786e-10)
(-2.92246e-08 1.72195e-08 1.64287e-09)
(-5.68431e-08 4.43596e-08 -6.86842e-09)
(-3.85848e-08 1.82262e-08 -4.85912e-09)
(-5.77915e-08 4.79563e-08 5.27409e-09)
(-9.52822e-08 5.37994e-08 -5.36119e-10)
(-4.39181e-08 2.12077e-08 2.31787e-09)
(-5.90946e-08 5.4853e-08 -5.4123e-09)
(-5.84012e-08 5.79674e-08 3.86884e-09)
(-8.46697e-09 5.49094e-09 2.15263e-08)
(-6.45982e-09 2.87763e-09 1.3546e-08)
(-1.07527e-08 7.10606e-09 1.02489e-08)
(-2.5855e-08 5.19805e-09 -2.02705e-09)
(-3.34073e-08 8.62438e-09 7.25688e-10)
(-1.21167e-08 -5.96816e-09 1.36241e-08)
(-2.72211e-07 1.89812e-07 2.86674e-07)
(-1.15921e-08 -7.73039e-09 1.50469e-08)
(-5.63493e-09 1.79551e-09 1.25745e-08)
(-5.06437e-09 -6.90808e-10 1.1732e-08)
(-2.45007e-09 -2.40488e-09 8.46396e-09)
(-1.67288e-08 -7.85484e-09 2.30418e-08)
(-6.22284e-09 -2.82618e-09 1.41479e-08)
(-8.10368e-09 2.02027e-09 1.44892e-08)
(-1.94465e-08 -8.33652e-09 2.78702e-08)
(-7.39281e-09 -1.20368e-09 1.4546e-08)
(-6.13562e-08 3.30959e-08 -1.83322e-09)
(-1.78029e-08 1.16199e-08 -6.50429e-09)
(-5.29726e-08 4.13405e-08 -8.76214e-09)
(-3.13606e-08 1.48499e-08 -5.91108e-09)
(-9.20844e-08 5.18451e-08 -7.69155e-10)
(-3.72595e-08 3.37023e-08 -1.04686e-08)
(-2.4579e-08 1.18166e-08 -5.9293e-09)
(-1.45083e-08 2.74275e-09 -1.6883e-09)
(-3.31057e-08 4.07345e-08 -1.26098e-08)
(-5.53935e-08 5.07573e-08 -7.01696e-09)
(-3.8352e-08 4.5459e-08 -7.11837e-09)
(-2.35678e-08 4.62345e-09 -1.95897e-09)
(-1.60153e-08 3.12127e-09 -1.7838e-09)
(-1.64289e-09 -2.17887e-09 7.50087e-09)
(-1.90309e-09 -1.47038e-09 4.38038e-09)
(-6.4485e-10 -1.5273e-09 4.52944e-09)
(5.44359e-12 -6.92247e-10 2.23442e-09)
(-1.78061e-10 -1.06134e-09 3.61222e-09)
(-1.45288e-09 -1.16702e-09 3.54587e-09)
(-1.09595e-10 -7.57323e-10 2.31736e-09)
(-4.15736e-10 -1.24582e-09 3.84019e-09)
(-2.88635e-10 -1.27509e-10 4.49623e-10)
(-2.79959e-10 -1.28799e-10 4.94406e-10)
(2.39339e-11 -5.81212e-10 1.88588e-09)
(-7.20292e-11 -3.88761e-10 1.14821e-09)
(-9.4417e-11 -2.73105e-10 4.17276e-10)
(-3.66408e-10 -2.53271e-10 8.70649e-10)
(-1.35049e-10 -4.10426e-10 1.0096e-09)
(-7.5955e-11 -6.21127e-10 1.93638e-09)
(-3.73365e-10 -2.53113e-10 1.06693e-09)
(-2.31225e-10 -4.12122e-10 1.30072e-09)
(-1.08265e-10 -2.38093e-10 2.84624e-10)
(-2.52135e-10 -1.32811e-10 6.42143e-11)
(-1.65278e-10 -2.34466e-10 -1.18267e-10)
(-1.88084e-10 -1.97582e-10 -3.79533e-10)
(-2.39734e-10 -1.22956e-10 -4.05939e-11)
(-1.72372e-10 -2.13195e-10 -3.01807e-10)
(4.00093e-08 -4.46845e-08 4.21103e-08)
(1.67555e-08 -5.60303e-09 5.51896e-09)
(-1.21611e-10 -8.33379e-10 5.91277e-09)
(-3.32812e-10 -9.16815e-10 6.42077e-09)
(8.40213e-11 -9.57246e-10 5.61607e-09)
(8.38806e-11 -1.26403e-09 4.74104e-09)
(1.87758e-12 -2.22817e-10 2.36406e-10)
(3.30057e-11 -2.39557e-10 3.94434e-10)
(-2.63431e-11 -2.10662e-10 9.80226e-11)
(-6.09236e-11 -1.99805e-10 -4.41579e-11)
(6.7121e-09 -3.52731e-11 6.31175e-08)
(8.23055e-10 2.88559e-09 7.93641e-09)
(-9.16438e-10 5.22735e-09 1.53116e-08)
(-2.93781e-10 -2.85476e-09 2.48587e-08)
(-1.93729e-09 7.94191e-10 6.2535e-08)
(1.59665e-09 5.68756e-09 1.53369e-08)
(1.2509e-09 -2.99029e-09 2.4096e-08)
(1.8529e-08 -9.85991e-09 2.20414e-07)
(-5.5335e-09 1.48695e-09 9.95568e-08)
(-1.85243e-08 6.26919e-09 3.46291e-08)
(-4.54396e-08 1.30921e-08 4.90849e-08)
(-2.36457e-09 3.55583e-09 1.2422e-07)
(1.01858e-07 -4.40672e-08 1.83435e-07)
(-3.03044e-08 9.79875e-09 5.01162e-08)
(-5.61202e-09 -1.95449e-10 8.37442e-10)
(-2.13119e-09 -1.20231e-09 3.23626e-09)
(-4.23951e-09 -1.44329e-10 6.61583e-10)
(-6.71007e-10 -3.98935e-10 1.22507e-09)
(-1.05533e-09 -3.62906e-11 1.81424e-10)
(-1.36765e-09 -5.11316e-11 2.39872e-10)
(-3.98434e-10 -1.11593e-11 3.83124e-11)
(-1.98946e-10 -6.72927e-11 1.42575e-10)
(-3.39944e-10 -9.28121e-12 2.24824e-11)
(-1.42791e-10 1.2922e-11 -2.239e-11)
(-1.73376e-10 1.24766e-11 -6.32874e-12)
(-2.38341e-08 1.84043e-09 3.81774e-08)
(-3.63481e-09 2.44466e-09 6.02848e-09)
(-3.9879e-09 4.71794e-09 1.45441e-08)
(-9.19222e-10 -2.83946e-09 2.48244e-08)
(-3.35212e-09 8.82965e-10 6.23749e-08)
(-7.36743e-09 4.03274e-09 1.12518e-08)
(-4.2378e-09 -1.69829e-09 2.06664e-08)
(-4.83333e-09 1.25019e-08 2.74806e-08)
(-4.33195e-09 3.71819e-09 9.02561e-09)
(-7.47011e-09 8.24977e-09 2.62738e-08)
(-5.72766e-09 5.21191e-09 7.54714e-09)
(-1.05169e-08 6.05474e-09 5.7567e-08)
(-5.06143e-09 9.49634e-10 1.08057e-07)
(-1.45512e-08 3.81275e-09 2.51434e-08)
(-1.14257e-08 5.78911e-09 1.94223e-08)
(-6.19928e-09 3.91314e-09 1.09661e-07)
(-9.83866e-09 5.22858e-09 6.57349e-08)
(-1.04817e-08 3.40666e-09 1.7857e-08)
(-6.74211e-09 -2.42116e-10 1.02043e-09)
(-7.17912e-09 -3.30021e-09 8.04745e-09)
(-1.176e-08 -4.3835e-10 1.75652e-09)
(1.02809e-07 -5.33934e-08 2.83126e-07)
(-8.43131e-10 -7.47682e-09 1.5079e-07)
(-1.16294e-07 1.61621e-08 8.03749e-08)
(-3.01733e-08 -1.52136e-08 4.88869e-08)
(3.16761e-08 -3.86879e-08 2.33767e-07)
(3.08935e-09 -3.07317e-09 1.60855e-07)
(-8.39434e-08 -4.45468e-08 7.92129e-08)
(-4.74902e-09 -3.60479e-09 9.51978e-09)
(-9.40605e-09 -5.04375e-09 1.37222e-08)
(-6.69013e-09 -4.43918e-09 1.18253e-08)
(-1.91852e-08 5.17661e-09 7.24549e-08)
(-7.02999e-09 3.01065e-10 1.09334e-07)
(-1.45407e-08 4.98011e-09 2.51168e-08)
(-2.15663e-08 -3.82815e-09 3.63855e-08)
(-1.05145e-08 5.75931e-09 8.09962e-08)
(-4.95702e-09 2.51005e-09 1.32124e-07)
(-1.56278e-08 6.85757e-11 2.68961e-08)
(-3.34161e-09 -2.85882e-09 7.78606e-09)
(-3.49082e-09 -2.29139e-09 6.69277e-09)
(-2.41715e-09 -2.30303e-09 6.4634e-09)
(2.08818e-10 -4.7779e-10 1.87625e-09)
(2.10523e-10 -5.40634e-10 2.19948e-09)
(-9.0804e-10 -7.2716e-10 2.38157e-09)
(-4.63947e-10 -6.88705e-10 2.06636e-09)
(-5.75408e-10 -8.41641e-10 2.49662e-09)
(-4.20445e-10 -1.06507e-11 4.33928e-11)
(-2.65737e-10 -1.01697e-10 3.13993e-10)
(-4.87635e-10 -1.44351e-11 5.99496e-11)
(-9.80777e-10 -3.27532e-11 1.66251e-10)
(-3.63711e-10 -1.68046e-10 6.56017e-10)
(-7.93941e-10 -2.17802e-11 1.29176e-10)
(1.986e-10 -4.17931e-10 1.6029e-09)
(1.74586e-10 -3.69167e-10 1.35944e-09)
(-2.10201e-10 -2.1902e-10 4.09394e-10)
(-3.52456e-10 -1.97288e-10 5.68456e-10)
(-2.18239e-10 -2.602e-10 5.48722e-10)
(-3.87839e-10 -5.50461e-10 1.70746e-09)
(-5.67164e-10 -3.41424e-10 1.38144e-09)
(-3.51559e-10 -3.5717e-10 1.40373e-09)
(-2.00427e-10 -1.83927e-10 3.01334e-10)
(-2.83001e-10 -1.28112e-10 2.52494e-10)
(-1.85476e-10 -1.64279e-10 2.02674e-10)
(-2.38032e-10 -1.84416e-12 -7.11658e-10)
(-1.77124e-10 8.89407e-11 -1.77823e-10)
(-1.57469e-10 1.08934e-10 -3.35531e-10)
(3.53581e-08 -1.95744e-08 3.56163e-08)
(4.30142e-09 4.18886e-09 4.58616e-09)
(1.28878e-08 3.31203e-09 1.22343e-08)
(9.97337e-09 -1.36234e-09 2.4969e-08)
(2.73911e-08 -5.42616e-09 5.59945e-08)
(2.10246e-08 -3.61997e-09 9.82044e-09)
(9.63076e-09 1.13976e-10 2.41309e-08)
(5.12127e-08 -6.62279e-08 4.50004e-08)
(2.56491e-08 -1.26896e-07 1.11916e-07)
(5.833e-08 -4.1993e-08 8.42595e-09)
(1.12124e-07 -1.17027e-07 8.78815e-08)
(1.92929e-08 -1.13651e-08 3.88487e-09)
(4.83527e-08 -5.40053e-08 4.6699e-08)
(6.42286e-08 -1.44131e-08 8.16386e-08)
(2.01408e-08 1.01207e-09 1.70972e-08)
(4.44915e-08 -1.85994e-08 1.98833e-08)
(3.46319e-08 -9.18095e-09 6.42611e-08)
(9.33637e-08 -8.69283e-08 9.40442e-08)
(2.9279e-08 -1.33945e-08 1.25144e-08)
(-4.78856e-08 2.99823e-08 2.03205e-08)
(-8.33235e-08 6.32543e-08 9.48434e-09)
(-7.72552e-08 6.12782e-08 -5.40637e-09)
(-9.12992e-08 5.47829e-08 1.09291e-08)
(-6.40225e-08 3.65296e-08 2.0295e-08)
(-6.15661e-08 4.72701e-08 1.75043e-08)
(-7.38238e-08 4.79823e-08 9.36002e-09)
(-2.42033e-08 1.58859e-08 1.71955e-08)
(-1.97647e-08 8.77937e-09 1.45058e-08)
(-8.34695e-09 4.6218e-09 4.71542e-09)
(-8.06421e-09 5.01318e-09 4.33929e-09)
(-2.62095e-08 1.48116e-08 1.31312e-08)
(-2.64201e-08 1.78494e-08 1.30072e-08)
(-7.36681e-09 4.40517e-09 4.99839e-09)
(-1.32869e-09 -7.74932e-10 7.60789e-09)
(-7.03177e-10 -7.43173e-10 7.01166e-09)
(-6.22891e-10 -1.34523e-09 6.76111e-09)
(-1.92191e-09 -2.12623e-09 8.47558e-09)
(-1.00201e-09 -1.47224e-09 7.50623e-09)
(-2.48975e-09 -1.24697e-09 9.41621e-09)
(-2.95439e-09 -2.2034e-09 1.00436e-08)
(-1.68223e-09 -1.3313e-09 8.46967e-09)
(-4.58494e-08 2.95342e-08 -8.6269e-09)
(-4.58877e-08 2.13162e-08 -7.14287e-09)
(-3.92747e-08 2.26003e-08 -9.93187e-09)
(-2.65808e-10 -1.36709e-09 6.17345e-09)
(-6.86243e-10 -1.75615e-09 5.94389e-09)
(-2.20387e-10 -1.48584e-09 5.29802e-09)
(1.6211e-10 -7.99882e-10 3.31926e-09)
(1.18652e-10 -1.01914e-09 3.8362e-09)
(-5.39015e-10 -1.58308e-09 4.96463e-09)
(-6.39005e-11 -1.02524e-09 3.74664e-09)
(-1.91791e-10 -1.29185e-09 4.3684e-09)
(8.44287e-11 -2.86646e-10 7.3333e-10)
(6.30431e-11 -2.63411e-10 5.64427e-10)
(-4.81015e-11 -2.53383e-10 3.06997e-10)
(-5.80953e-11 -2.98167e-10 5.32072e-10)
(-2.15624e-11 -2.75773e-10 4.68081e-10)
(1.18717e-11 -3.3588e-10 8.33205e-10)
(-4.83166e-11 -3.38827e-10 7.21277e-10)
(5.35043e-13 -3.07047e-10 6.433e-10)
(-7.48196e-11 -2.36746e-10 1.60494e-10)
(-1.27975e-10 -2.26766e-10 8.41719e-11)
(-1.07562e-10 -2.24539e-10 1.63038e-11)
(-1.2403e-10 -1.80892e-10 -3.29282e-10)
(-9.24892e-11 -1.88642e-10 -1.7576e-10)
(-1.54946e-10 -2.17582e-10 -4.06526e-11)
(-1.66301e-10 -1.98786e-10 -2.72671e-10)
(-1.38105e-10 -2.1309e-10 -1.2172e-10)
(9.95735e-09 -6.1533e-10 6.34702e-08)
(1.96095e-09 2.80615e-09 7.65576e-09)
(8.49754e-09 6.023e-09 1.40001e-08)
(6.39687e-09 -1.18583e-10 2.71344e-08)
(2.27278e-08 -1.73224e-09 5.84538e-08)
(4.48555e-09 6.03487e-09 1.49812e-08)
(1.77118e-09 -3.01117e-09 2.36259e-08)
(8.06149e-09 1.68643e-09 6.7212e-08)
(-1.90001e-09 5.43916e-09 1.85868e-08)
(-2.39401e-09 6.00928e-09 7.97973e-08)
(-1.10296e-09 1.03852e-08 2.46076e-08)
(1.06317e-08 5.72838e-09 1.00647e-07)
(-2.08846e-09 2.4974e-09 6.53867e-08)
(1.20553e-09 7.03621e-09 1.95119e-08)
(1.19644e-08 8.06687e-10 6.88268e-08)
(4.97445e-08 -7.34809e-09 1.16715e-07)
(1.23557e-08 7.65923e-09 1.95701e-08)
(4.98591e-09 1.3833e-08 2.74064e-08)
(2.90326e-08 -3.00214e-09 6.64478e-08)
(1.71543e-08 4.91474e-09 1.07721e-07)
(5.8303e-09 8.3031e-09 2.00854e-08)
(1.64362e-08 -1.16108e-07 2.28468e-07)
(4.4181e-08 -3.2734e-08 9.4116e-09)
(1.40351e-07 -1.4259e-07 1.23276e-07)
(4.96203e-08 8.24628e-08 1.04506e-07)
(3.60346e-08 -5.34304e-08 4.75329e-07)
(7.37375e-08 -2.1733e-08 1.46724e-07)
(9.27645e-08 -5.64338e-08 3.87727e-08)
(1.13183e-07 4.41886e-08 1.1194e-07)
(1.37242e-07 -9.40341e-08 1.22129e-07)
(5.44279e-08 -3.59604e-08 3.9484e-07)
(1.46856e-08 -4.42109e-10 1.93577e-07)
(-1.40841e-08 8.57936e-09 3.18338e-08)
(-2.6785e-09 6.48406e-09 8.59499e-08)
(-6.52296e-09 1.42874e-08 3.30332e-08)
(1.11127e-08 5.22507e-09 1.16119e-07)
(-2.90353e-09 4.59442e-09 1.14409e-07)
(-1.97199e-08 1.4236e-08 4.36834e-08)
(3.63677e-08 -2.5033e-08 2.73997e-07)
(-1.17385e-07 5.80712e-08 8.65825e-08)
(1.17473e-06 -5.38973e-07 2.41354e-07)
(-7.8232e-08 1.34148e-07 1.88225e-07)
(9.07121e-08 -3.17418e-08 6.74922e-07)
(1.65591e-07 -4.68218e-08 1.36229e-07)
(-5.30013e-08 3.60786e-08 8.80118e-08)
(3.09252e-09 1.59449e-08 1.90687e-07)
(5.71597e-08 -7.2789e-09 1.4886e-07)
(8.78065e-11 2.45745e-08 4.13368e-08)
(1.39057e-08 4.4561e-08 9.04265e-08)
(1.79256e-08 5.01532e-09 1.27347e-07)
(5.80891e-08 -1.62027e-08 4.27514e-07)
(-1.69858e-08 2.69625e-08 6.43679e-08)
(-1.93177e-09 -1.06139e-09 2.90994e-09)
(-2.36307e-09 -8.89593e-11 4.04539e-10)
(-3.61692e-09 -1.27703e-10 5.83868e-10)
(-6.93181e-10 -4.53984e-10 1.35162e-09)
(-2.09041e-09 -8.03704e-11 3.62919e-10)
(-1.50552e-09 -5.64748e-11 2.64055e-10)
(-2.13267e-10 -6.87331e-11 1.30556e-10)
(-2.6078e-10 -8.14453e-12 8.03766e-12)
(-3.21283e-10 -1.01525e-11 1.80418e-11)
(-1.47111e-10 -1.24519e-11 -1.86715e-11)
(-2.46604e-10 -7.61369e-12 3.20981e-12)
(-1.93728e-10 6.46605e-12 -8.96255e-12)
(-1.14939e-07 5.44838e-08 1.96404e-09)
(-5.92282e-08 2.02043e-08 2.10292e-08)
(-3.85776e-09 -3.14553e-09 3.07489e-08)
(-3.71012e-09 1.64088e-09 3.11626e-09)
(-4.05236e-09 1.66155e-09 6.57811e-09)
(-1.59586e-08 6.4178e-09 5.40364e-09)
(8.48329e-10 6.21902e-09 4.11715e-08)
(-5.69088e-09 2.3704e-09 7.13027e-09)
(-1.39189e-08 -2.33743e-09 3.61589e-09)
(-2.05127e-08 4.66689e-09 4.55295e-08)
(-4.83095e-09 4.4132e-09 1.73419e-08)
(-5.13329e-09 5.9002e-09 7.63389e-08)
(-8.54625e-09 4.3778e-09 1.65629e-08)
(-3.90127e-09 2.75582e-09 6.49716e-08)
(-1.20386e-08 6.76615e-09 6.20276e-08)
(-8.63984e-09 4.61283e-09 1.42561e-08)
(-9.74266e-09 9.39481e-09 4.243e-08)
(-2.6185e-08 1.4015e-08 9.36129e-09)
(-7.41376e-09 2.59651e-09 5.6996e-09)
(-1.10025e-08 6.11637e-09 1.20809e-08)
(-3.45694e-08 1.16097e-08 1.9822e-08)
(-1.51877e-08 7.42033e-09 5.70788e-08)
(-9.82873e-09 5.04864e-09 9.06793e-09)
(-1.09618e-07 4.11181e-08 -9.83769e-09)
(-2.39405e-08 1.13696e-08 8.0777e-09)
(-1.79094e-08 2.82285e-08 1.70149e-08)
(-8.31638e-08 7.62849e-08 2.76115e-09)
(-4.49958e-08 4.30938e-08 1.47158e-08)
(-1.54177e-08 1.388e-08 2.45527e-08)
(-1.41302e-08 4.86201e-09 2.23919e-08)
(-5.39021e-09 4.02211e-09 4.07518e-09)
(-2.79575e-08 1.96173e-08 1.4694e-08)
(-6.08685e-09 5.50504e-09 4.81071e-09)
(-6.99943e-09 1.00277e-08 3.37918e-08)
(-4.84099e-09 2.9453e-09 1.06844e-08)
(-8.20008e-09 4.8381e-09 4.51275e-08)
(-5.81141e-09 4.00076e-09 1.16145e-08)
(-9.71595e-09 8.8373e-09 4.52583e-08)
(-7.32915e-09 6.31827e-09 3.18192e-08)
(-5.5632e-09 4.91482e-09 9.73599e-09)
(-7.42146e-08 6.94858e-08 3.94423e-09)
(-3.54681e-08 1.70259e-08 1.12232e-08)
(-4.16831e-08 3.77997e-08 1.60761e-08)
(-1.13365e-08 1.48339e-08 3.17218e-08)
(-2.55819e-08 1.80994e-08 5.829e-09)
(-6.58485e-09 4.65119e-09 4.28558e-09)
(-7.9653e-09 6.74473e-09 9.82825e-09)
(-2.5014e-08 1.13647e-08 1.8576e-08)
(-1.11413e-08 9.49419e-09 4.54014e-08)
(-6.92275e-09 6.98346e-09 7.09736e-09)
(-7.92695e-08 4.57376e-08 -2.29146e-09)
(-9.09724e-08 6.5416e-08 2.19716e-09)
(-1.1011e-07 6.8213e-08 7.1202e-10)
(-9.79994e-08 5.34069e-08 2.05325e-09)
(-8.00092e-08 4.72072e-08 4.28539e-09)
(-9.08509e-08 6.29093e-08 -2.50423e-09)
(-9.49032e-08 4.89239e-08 -3.78176e-09)
(-7.50584e-08 4.33661e-08 -5.72048e-09)
(-1.06928e-07 6.44333e-08 3.52092e-10)
(-8.05805e-08 5.27975e-08 -6.15452e-09)
(-8.03942e-08 3.85042e-08 -6.17599e-09)
(-8.63471e-08 5.8156e-08 -4.83389e-09)
(-8.8356e-08 4.42703e-08 -5.76728e-09)
(-6.92072e-08 3.88702e-08 -7.69474e-09)
(-8.59901e-08 7.7545e-08 4.49874e-11)
(-8.75515e-08 7.15936e-08 -1.64031e-09)
(-6.13053e-08 5.81798e-08 -3.34704e-09)
(-7.23632e-08 5.80455e-08 -4.9076e-09)
(-7.82551e-08 6.56829e-08 -3.01596e-09)
(-7.67857e-08 7.08737e-08 1.80642e-09)
(-6.17378e-08 6.06613e-08 -1.06727e-09)
(-7.94455e-08 6.75347e-08 -2.00931e-09)
(-7.90039e-08 6.04681e-08 -3.54615e-09)
(-8.594e-08 6.92953e-08 -2.43825e-09)
(-9.296e-09 6.36133e-09 5.13343e-08)
(-1.22398e-08 5.20131e-09 2.38382e-08)
(-5.35196e-09 6.42406e-09 8.01221e-08)
(-8.44685e-09 3.69431e-09 1.76821e-08)
(-6.98527e-09 5.49935e-09 1.013e-07)
(-1.14605e-08 7.14488e-09 6.25487e-08)
(-9.44962e-09 3.26839e-09 1.75753e-08)
(-1.07311e-08 6.35993e-09 5.43693e-08)
(-8.42512e-09 4.27268e-09 1.58112e-08)
(-8.90723e-09 5.18305e-09 4.68837e-08)
(-6.24974e-09 3.13783e-09 1.33003e-08)
(-9.93928e-09 8.0788e-09 4.80086e-08)
(-1.02716e-08 5.77333e-09 6.10509e-08)
(-7.42892e-09 3.05439e-09 1.47663e-08)
(-1.01545e-08 6.9295e-09 5.35712e-08)
(-2.40661e-08 1.6321e-08 2.74288e-08)
(-9.38583e-09 4.88467e-09 1.45981e-08)
(-7.78736e-09 5.00837e-09 1.29113e-08)
(-1.34822e-08 7.98454e-09 5.90361e-08)
(-1.13659e-08 8.98942e-09 4.8915e-08)
(-7.60324e-09 3.35428e-09 1.49758e-08)
(-1.10379e-07 4.76987e-08 2.29681e-10)
(-1.03451e-07 4.20683e-08 -3.30069e-09)
(-7.32667e-08 2.19503e-08 -4.48183e-09)
(-2.90764e-08 6.12262e-09 -1.84472e-09)
(-8.21048e-08 2.56546e-08 -3.64928e-09)
(-8.54482e-08 3.15292e-08 -3.99124e-09)
(-9.93299e-08 3.90372e-08 -4.12503e-09)
(-8.87856e-08 3.16275e-08 3.94382e-09)
(-3.1475e-08 6.83338e-09 -1.62293e-09)
(-9.20114e-08 3.10938e-08 -4.78155e-09)
(-7.97797e-09 -3.75322e-09 9.17901e-09)
(-1.74799e-08 -2.19173e-09 2.99175e-09)
(-1.37255e-08 -6.05953e-10 2.06838e-09)
(1.93567e-07 -6.89455e-08 3.85255e-07)
(-2.32011e-07 7.25731e-08 2.3264e-07)
(8.27776e-07 -6.35329e-07 1.72178e-06)
(2.97499e-08 -2.67758e-07 3.41975e-07)
(8.48988e-08 -1.49683e-08 3.93191e-07)
(9.00791e-07 2.60117e-07 1.93572e-06)
(-1.69344e-07 -1.63758e-07 2.40313e-07)
(9.70255e-08 -3.17864e-08 2.4185e-07)
(-1.48487e-08 -9.20894e-09 2.17187e-08)
(-1.93391e-08 -8.47187e-09 4.05621e-09)
(2.36723e-09 4.48998e-09 1.59085e-07)
(-2.63717e-08 -2.84928e-08 3.00974e-08)
(1.89781e-07 -3.4515e-08 3.15947e-07)
(9.0796e-08 -2.79581e-07 1.86554e-07)
(6.51239e-07 1.96207e-08 4.5643e-07)
(-4.36166e-08 -7.54769e-08 4.71218e-08)
(-3.81542e-09 4.72493e-09 3.41611e-08)
(-1.30355e-09 -4.14451e-11 7.42635e-09)
(-2.3607e-09 6.55805e-10 8.54166e-09)
(-4.04265e-09 4.20684e-09 3.68764e-08)
(-3.23376e-09 -3.47157e-10 9.35446e-09)
(-5.51863e-09 -5.97493e-11 1.20752e-08)
(-8.08016e-09 3.63846e-09 4.62191e-08)
(-3.80588e-09 1.84189e-10 1.01299e-08)
(-3.59507e-09 -3.1641e-09 9.23612e-09)
(-3.5966e-09 -2.91486e-09 9.64741e-09)
(-5.17884e-09 -3.83148e-09 1.1099e-08)
(-1.28695e-08 -5.96607e-09 1.77006e-08)
(-1.14628e-08 -5.70691e-09 1.85894e-08)
(-8.99571e-09 -4.95024e-09 1.47952e-08)
(-4.81182e-09 -3.26226e-09 1.18325e-08)
(-8.80318e-09 -4.04702e-09 1.66716e-08)
(-6.85636e-09 -4.11296e-09 1.36943e-08)
(-1.64056e-08 5.89888e-09 6.1427e-08)
(-1.12544e-08 3.61149e-09 1.87644e-08)
(-1.25011e-08 3.89378e-09 4.03233e-08)
(-8.94292e-09 1.65595e-09 1.43361e-08)
(-1.13435e-08 5.12684e-09 7.57684e-08)
(-1.23443e-08 4.65518e-09 3.11198e-08)
(-1.24501e-08 1.45803e-09 2.04934e-08)
(-1.29431e-08 6.47601e-09 9.02168e-08)
(-1.79509e-08 -6.76768e-09 3.35371e-08)
(-1.31354e-08 -4.1639e-09 2.17769e-08)
(-8.82135e-09 8.5748e-09 1.3358e-07)
(-1.27706e-08 -2.01346e-09 2.44796e-08)
(-1.24981e-08 7.51669e-09 8.78321e-08)
(-8.37721e-09 -1.12463e-10 1.48484e-08)
(-1.07951e-08 -2.8927e-09 1.87107e-08)
(-8.6813e-09 2.74782e-09 4.78566e-08)
(-1.18642e-08 -1.58074e-09 2.01842e-08)
(-5.09337e-08 2.93505e-08 -9.83438e-09)
(-7.46357e-08 4.09131e-08 -1.37976e-09)
(-5.2453e-08 3.4155e-08 -8.26533e-09)
(-5.17295e-08 2.39173e-08 -7.18905e-09)
(-4.45282e-08 2.53241e-08 -9.94404e-09)
(-5.97848e-08 3.87762e-08 -7.97715e-09)
(-5.92613e-08 2.82319e-08 -7.26336e-09)
(-5.6999e-08 3.1864e-08 -9.50645e-09)
(-7.86487e-08 4.29673e-08 -1.18773e-09)
(-7.4299e-08 4.83586e-08 -7.15286e-09)
(-7.39727e-08 3.56489e-08 -6.80616e-09)
(-6.35848e-08 3.63263e-08 -8.88385e-09)
(-6.71527e-08 4.29629e-08 -7.759e-09)
(-6.59764e-08 3.09122e-08 -7.05638e-09)
(-5.17039e-08 1.85437e-08 -4.6297e-09)
(-4.18847e-08 1.2346e-08 -4.14101e-09)
(-4.79537e-08 3.69576e-08 -5.76747e-09)
(-4.3742e-08 3.71035e-08 -7.68456e-09)
(-5.13258e-08 3.93192e-08 -5.57885e-09)
(-6.22928e-08 4.67917e-08 -4.98779e-09)
(-6.98616e-08 5.59961e-08 -5.47582e-09)
(-5.07997e-08 4.58966e-08 -7.70653e-09)
(-6.05142e-08 4.7247e-08 -6.44436e-09)
(-7.61917e-08 5.85003e-08 -4.02381e-09)
(-6.58824e-08 4.87007e-08 -4.83581e-09)
(-4.68049e-08 3.94429e-08 -7.40304e-09)
(-4.52701e-08 4.32309e-08 -7.76707e-09)
(-5.72012e-08 4.546e-08 -6.5874e-09)
(-5.42572e-08 1.92972e-08 -4.55827e-09)
(-6.63502e-08 2.42665e-08 -4.65945e-09)
(-6.7767e-08 2.04621e-08 -4.41379e-09)
(-2.05151e-08 4.05046e-09 -1.9452e-09)
(-5.87397e-08 1.74631e-08 -4.40872e-09)
(-8.25457e-08 3.06391e-08 -4.32399e-09)
(-6.93727e-08 2.5085e-08 -4.51542e-09)
(-4.58942e-08 1.34861e-08 -4.18341e-09)
(-1.85498e-08 3.58509e-09 -1.84119e-09)
(-5.36612e-08 1.61235e-08 -4.42435e-09)
(-2.43915e-09 -2.63918e-09 7.83985e-09)
(-1.16098e-09 -2.04259e-09 6.49232e-09)
(-1.71872e-09 -2.26061e-09 6.65996e-09)
(-2.56112e-09 -1.8247e-09 5.43057e-09)
(-1.32516e-09 -1.58361e-09 4.44095e-09)
(-1.78282e-09 -1.90292e-09 5.39032e-09)
(-8.86929e-10 -1.83249e-09 5.45081e-09)
(-9.56463e-10 -1.63817e-09 4.65169e-09)
(-1.28412e-09 -1.94712e-09 5.59943e-09)
(1.63864e-10 -6.85861e-10 2.91734e-09)
(1.90817e-10 -6.03361e-10 2.55115e-09)
(1.03827e-10 -5.94978e-10 2.0822e-09)
(-2.47205e-11 -8.06497e-10 2.65582e-09)
(9.0601e-11 -6.8614e-10 2.45469e-09)
(1.04843e-11 -8.67817e-10 3.30012e-09)
(-7.84588e-11 -9.25505e-10 3.12675e-09)
(5.91222e-11 -7.75359e-10 2.871e-09)
(-1.13513e-09 -9.17838e-10 2.89571e-09)
(-9.83949e-10 -1.28898e-09 3.64583e-09)
(-7.39894e-10 -1.03661e-09 3.01096e-09)
(-2.58491e-10 -7.66833e-10 2.26481e-09)
(-1.66999e-10 -8.94305e-10 2.76656e-09)
(-3.41367e-10 -9.18761e-10 2.71756e-09)
(-6.7346e-10 -1.34381e-09 3.87333e-09)
(-2.5878e-10 -1.0501e-09 3.27407e-09)
(-4.70209e-10 -1.10524e-09 3.24312e-09)
(-2.64311e-10 -1.10492e-10 3.49791e-10)
(-5.97417e-10 -1.8492e-11 8.70524e-11)
(-5.14388e-10 -1.55636e-11 6.55886e-11)
(-3.52025e-10 -1.46597e-10 6.17276e-10)
(-6.2996e-10 -1.84592e-11 9.49026e-11)
(-7.46656e-10 -2.02677e-11 1.19814e-10)
(1.11665e-10 -3.09813e-10 9.33611e-10)
(1.41479e-10 -3.3408e-10 1.14527e-09)
(1.07476e-10 -5.08447e-10 1.76694e-09)
(2.40878e-11 -4.7692e-10 1.58608e-09)
(9.57469e-11 -4.33446e-10 1.49782e-09)
(3.05629e-11 -3.6262e-10 1.04634e-09)
(-3.35521e-11 -3.96697e-10 1.36364e-09)
(6.43373e-11 -3.85313e-10 1.26844e-09)
(-1.40557e-10 -2.58387e-10 4.33331e-10)
(-8.95572e-11 -3.11292e-10 5.82985e-10)
(-1.41855e-10 -3.07376e-10 5.8754e-10)
(-3.74093e-10 -2.3045e-10 7.13115e-10)
(-2.19575e-10 -3.92414e-10 9.94593e-10)
(-2.25254e-10 -3.26888e-10 7.28402e-10)
(-9.74353e-11 -3.67746e-10 7.78074e-10)
(-1.99113e-10 -4.88539e-10 1.09039e-09)
(-1.54083e-10 -3.88789e-10 7.85161e-10)
(-2.08371e-10 -6.26999e-10 1.86853e-09)
(-4.89847e-11 -4.74703e-10 1.60898e-09)
(-1.70541e-10 -3.91929e-10 1.51313e-09)
(-4.36869e-10 -2.56138e-10 1.22676e-09)
(-1.56166e-10 -3.31097e-10 1.32714e-09)
(-1.53602e-10 -1.63466e-10 1.45586e-09)
(-2.1274e-10 -3.30605e-10 1.47445e-09)
(-2.9497e-10 -5.19777e-10 1.58584e-09)
(-3.20396e-10 -5.88032e-11 1.71092e-09)
(-1.42298e-10 -2.19356e-10 3.0867e-10)
(-1.30774e-10 -2.18557e-10 1.60701e-10)
(-1.4726e-10 -1.95781e-10 2.02165e-10)
(-2.71807e-10 -1.2144e-10 1.76323e-10)
(-1.83208e-10 -1.75803e-10 -1.46464e-11)
(-1.78837e-10 -1.60374e-10 1.14599e-10)
(-1.5514e-10 -2.1535e-10 4.59214e-11)
(-1.66149e-10 -2.06461e-10 -4.67654e-11)
(-1.56825e-10 -2.00202e-10 9.85327e-11)
(-1.49335e-10 -1.54976e-10 -4.67068e-10)
(-1.84532e-10 -9.88304e-11 -6.04989e-10)
(-2.24068e-10 8.59598e-11 -6.83388e-10)
(-2.53611e-10 4.06041e-11 -7.02512e-10)
(-1.8227e-10 -1.76745e-10 -4.28735e-10)
(-1.99131e-10 -8.23256e-11 -5.55561e-10)
(-2.02648e-10 -1.01317e-10 -5.90056e-10)
(-2.0562e-10 -2.47243e-12 -1.35163e-10)
(-1.85202e-10 -1.42322e-10 -1.49258e-10)
(-1.68802e-10 1.46378e-12 -2.69063e-10)
(-2.08885e-10 9.08163e-11 -6.28629e-10)
(-2.03874e-10 1.07244e-10 -4.9082e-10)
(-1.78161e-10 -1.93279e-10 -2.2162e-10)
(-1.82792e-10 -9.12434e-11 -4.9648e-10)
(-1.90538e-10 -4.82297e-11 -3.89577e-10)
(-9.89179e-09 -1.47406e-09 9.35677e-09)
(-4.10864e-09 -1.40361e-09 3.99897e-09)
(-1.05723e-08 -2.60975e-09 1.26735e-08)
(-2.89784e-09 -1.49706e-09 4.07981e-09)
(-1.07387e-08 -1.75e-09 1.04201e-08)
(-9.16886e-09 -2.22098e-09 1.12806e-08)
(-3.7887e-09 -1.16867e-09 3.6047e-09)
(-2.14772e-09 -3.14829e-10 2.29686e-09)
(-1.81262e-09 -4.19086e-10 2.64082e-09)
(-5.69446e-10 -3.13903e-10 1.02705e-09)
(-6.58144e-10 -2.15527e-10 8.11289e-10)
(-2.06543e-09 -4.67189e-10 2.9214e-09)
(-1.96473e-09 -2.80157e-10 2.12434e-09)
(-7.40715e-10 -2.40677e-10 8.91054e-10)
(-6.42524e-10 -7.06435e-11 4.5599e-10)
(-2.89858e-10 -5.32626e-11 2.05203e-10)
(-6.58957e-10 -1.1397e-10 5.86328e-10)
(-2.32314e-10 -6.84804e-11 2.04049e-10)
(-7.00659e-10 -6.1874e-11 5.41146e-10)
(-6.36936e-10 -9.66359e-11 5.50273e-10)
(-2.93856e-10 -4.44879e-11 1.91283e-10)
(-1.50937e-08 -2.63032e-09 1.40295e-08)
(-4.75713e-09 -1.83277e-09 4.57946e-09)
(-1.18578e-08 -3.16707e-09 1.42729e-08)
(-4.95623e-09 -2.51091e-09 6.04608e-09)
(-1.24327e-08 -2.20457e-09 1.19364e-08)
(-1.46261e-08 -3.72418e-09 1.65595e-08)
(-5.93753e-09 -2.18785e-09 5.34042e-09)
(-5.06159e-09 4.64841e-09 2.75714e-08)
(-2.59219e-09 1.69692e-09 8.29451e-09)
(-2.94831e-09 5.81168e-09 2.37335e-08)
(-3.40176e-09 2.26418e-09 9.55249e-09)
(-4.38877e-09 4.21223e-09 2.79216e-08)
(-3.54867e-09 4.79378e-09 2.41267e-08)
(-3.36956e-09 1.27186e-09 9.43523e-09)
(-7.62636e-10 -8.78116e-11 6.15375e-10)
(-3.02167e-10 -5.41632e-11 2.27496e-10)
(-6.85219e-10 -1.09963e-10 6.68062e-10)
(-2.63745e-10 -8.39566e-11 2.76543e-10)
(-7.33222e-10 -7.31254e-11 5.89824e-10)
(-7.59182e-10 -1.24653e-10 7.52451e-10)
(-3.27986e-10 -6.41487e-11 2.51109e-10)
(-1.67116e-09 -2.23805e-10 1.76524e-09)
(-1.73804e-09 -3.71927e-10 2.42534e-09)
(-6.29145e-10 -1.90689e-10 7.45849e-10)
(-4.26748e-10 -2.22586e-10 7.8474e-10)
(-1.83746e-09 -2.52539e-10 1.94778e-09)
(-1.57189e-09 -3.34353e-10 2.22518e-09)
(-5.85382e-10 -1.70521e-10 6.88103e-10)
(-9.1191e-08 6.20224e-08 1.0981e-08)
(-1.0332e-07 7.85431e-08 2.80999e-09)
(-1.05878e-07 7.86139e-08 -3.57441e-09)
(-1.12931e-07 7.21252e-08 2.5372e-09)
(-1.07138e-07 7.05243e-08 2.84496e-09)
(-9.76001e-08 7.61506e-08 1.60102e-09)
(-9.97228e-08 6.71825e-08 4.70814e-09)
(-2.26224e-08 1.54423e-08 1.44847e-08)
(-2.27329e-08 2.04342e-08 1.22996e-08)
(-7.45651e-09 4.44023e-09 4.52579e-09)
(-2.50545e-08 1.40354e-08 1.27176e-08)
(-6.67632e-09 4.11676e-09 4.74052e-09)
(-5.45044e-08 3.20888e-08 -4.3447e-09)
(-5.64649e-08 2.74891e-08 -3.91056e-09)
(-5.17898e-08 2.80168e-08 -6.55047e-09)
(-1.81969e-07 9.00276e-08 6.70918e-08)
(-7.34118e-07 4.55775e-07 4.83623e-07)
(-5.0309e-09 -8.50992e-10 5.23984e-09)
(-1.42204e-09 -8.37798e-10 2.33012e-09)
(-4.1115e-09 -1.1108e-09 5.88302e-09)
(-1.50128e-09 -5.94404e-10 1.79452e-09)
(-4.38176e-09 -7.48208e-10 4.68723e-09)
(-4.8737e-09 -1.25381e-09 6.62887e-09)
(-1.7807e-09 -6.73218e-10 2.01352e-09)
(-3.4624e-09 -5.84805e-10 3.75094e-09)
(-8.76196e-10 -5.84057e-10 1.66709e-09)
(-3.79598e-09 -9.80796e-10 5.30903e-09)
(-1.3526e-09 -5.18843e-10 1.60929e-09)
(-3.94737e-09 -6.63308e-10 4.20704e-09)
(-3.26437e-09 -8.70229e-10 4.75264e-09)
(-1.17792e-09 -4.57854e-10 1.44735e-09)
(-4.47051e-10 -6.53935e-11 2.15369e-10)
(-2.13403e-10 -5.73576e-11 1.04102e-10)
(-4.11643e-10 -5.00733e-11 1.56023e-10)
(-2.15044e-10 -4.38823e-11 7.95335e-11)
(-4.27153e-10 -6.11987e-11 2.07134e-10)
(-4.81161e-10 -9.54741e-11 2.42396e-10)
(-2.43571e-10 -6.7077e-11 1.032e-10)
(-3.38548e-10 -3.47041e-11 5.96052e-11)
(-1.79058e-10 -2.35001e-11 3.20248e-11)
(-3.87117e-10 -2.11797e-11 8.26005e-11)
(-2.11799e-10 -2.64521e-11 6.0829e-11)
(-3.93456e-10 2.95795e-11 1.43874e-10)
(-3.69741e-10 4.87947e-11 2.76277e-11)
(-2.1218e-10 9.41869e-12 4.5365e-11)
(-1.20128e-07 7.02248e-08 1.45568e-09)
(-1.16005e-07 7.09668e-08 -5.10996e-09)
(-9.80942e-08 8.42589e-08 1.27774e-09)
(-9.37537e-08 8.34659e-08 -4.84481e-09)
(-1.03524e-07 6.45616e-08 -1.0298e-10)
(-1.06665e-07 7.80204e-08 4.02204e-11)
(-1.1397e-07 7.53684e-08 8.74975e-10)
(-1.14136e-07 7.00318e-08 -5.88349e-11)
(-1.0257e-07 6.61329e-08 2.20821e-09)
(-1.06312e-07 7.44336e-08 8.75741e-11)
(-1.16092e-07 6.79512e-08 1.48968e-10)
(-8.9477e-08 5.08399e-08 -4.93272e-09)
(-9.92508e-08 5.6948e-08 -1.64785e-10)
(-8.98798e-08 5.54769e-08 -2.65674e-09)
(-9.30148e-08 4.73102e-08 -2.52483e-09)