/*--------------------------------*- C++ -*----------------------------------*\
| =========                 |                                                 |
| \\      /  F ield         | OpenFOAM: The Open Source CFD Toolbox           |
|  \\    /   O peration     | Version:  2012                                  |
|   \\  /    A nd           | Website:  www.openfoam.com                      |
|    \\/     M anipulation  |                                                 |
\*---------------------------------------------------------------------------*/
FoamFile
{
    version     2.0;
    format      ascii;
    class       volVectorField;
    location    "0.107/fluid";
    object      cellMotionU;
}
// * * * * * * * * * * * * * * * * * * * * * * * * * * * * * * * * * * * * * //

dimensions      [0 1 -1 0 0 0 0];


internalField   nonuniform List<vector> 
16422
(
(1.40044e-07 1.66304e-07 -4.36355e-08)
(1.11423e-06 1.51615e-06 -4.20108e-07)
(2.15182e-06 2.73966e-06 -8.07565e-07)
(3.02525e-06 3.64879e-06 -1.15364e-06)
(3.39643e-06 4.14125e-06 -1.4795e-06)
(2.94153e-06 4.16332e-06 -1.82025e-06)
(1.89206e-06 3.71387e-06 -2.10292e-06)
(4.66935e-07 2.97549e-06 -2.28876e-06)
(-1.03748e-06 2.02907e-06 -2.28579e-06)
(-1.96901e-06 9.55758e-07 -1.93207e-06)
(-2.05342e-06 1.03777e-08 -1.20284e-06)
(-1.05591e-06 -5.05257e-07 -2.1699e-07)
(3.29819e-07 -5.70156e-07 5.93524e-07)
(8.37366e-07 -3.34446e-07 6.99622e-07)
(1.79694e-07 -4.72996e-08 1.3361e-07)
(1.17907e-06 1.53212e-06 -4.10452e-07)
(9.94606e-06 1.3467e-05 -3.8183e-06)
(1.96329e-05 2.38794e-05 -7.16704e-06)
(2.75172e-05 3.17463e-05 -1.02109e-05)
(3.04983e-05 3.6258e-05 -1.32292e-05)
(2.70105e-05 3.6661e-05 -1.62255e-05)
(1.79158e-05 3.32705e-05 -1.88838e-05)
(5.52311e-06 2.69088e-05 -2.06059e-05)
(-7.32958e-06 1.84604e-05 -2.05625e-05)
(-1.75356e-05 8.362e-06 -1.7719e-05)
(-2.10347e-05 -1.24977e-06 -1.14742e-05)
(-1.5914e-05 -6.95324e-06 -3.13135e-06)
(-3.48429e-06 -7.82401e-06 4.96908e-06)
(6.53228e-06 -5.50566e-06 7.83798e-06)
(5.38291e-06 -2.5377e-06 3.89397e-06)
(2.25416e-06 2.68278e-06 -7.49168e-07)
(1.94813e-05 2.35257e-05 -6.92695e-06)
(3.88232e-05 4.14349e-05 -1.29478e-05)
(5.44087e-05 5.47619e-05 -1.83858e-05)
(6.09183e-05 6.2675e-05 -2.37894e-05)
(5.69653e-05 6.40176e-05 -2.89907e-05)
(4.3331e-05 5.86922e-05 -3.36333e-05)
(2.20173e-05 4.82016e-05 -3.70637e-05)
(-3.2456e-06 3.33345e-05 -3.76216e-05)
(-2.76636e-05 1.34822e-05 -3.31746e-05)
(-4.58914e-05 -6.73341e-06 -2.32026e-05)
(-4.92297e-05 -1.97585e-05 -9.10077e-06)
(-2.8877e-05 -2.21763e-05 7.4781e-06)
(1.01923e-05 -1.64088e-05 1.89186e-05)
(1.74662e-05 -1.48137e-05 1.33067e-05)
(3.38729e-06 3.32324e-06 -1.00572e-06)
(2.98257e-05 2.93416e-05 -9.27587e-06)
(5.95672e-05 5.13354e-05 -1.72659e-05)
(8.38254e-05 6.75009e-05 -2.45107e-05)
(9.58407e-05 7.74421e-05 -3.15087e-05)
(9.39069e-05 7.98678e-05 -3.83171e-05)
(7.97369e-05 7.41575e-05 -4.42344e-05)
(5.29185e-05 6.10969e-05 -4.87012e-05)
(1.75877e-05 4.19466e-05 -4.9712e-05)
(-2.14882e-05 1.5793e-05 -4.46258e-05)
(-5.77617e-05 -1.21848e-05 -3.23546e-05)
(-7.4901e-05 -3.02615e-05 -1.45795e-05)
(-5.10162e-05 -3.08348e-05 7.67651e-06)
(1.2285e-05 -1.49373e-05 2.31305e-05)
(-1.00445e-05 -1.75859e-05 3.86892e-06)
(1.2448e-07 2.06055e-07 -4.34521e-08)
(9.74161e-07 1.86347e-06 -4.04158e-07)
(1.88446e-06 3.35481e-06 -7.62548e-07)
(2.61577e-06 4.43404e-06 -1.09908e-06)
(2.74648e-06 4.90557e-06 -1.42422e-06)
(2.09338e-06 4.77436e-06 -1.72855e-06)
(6.65216e-07 4.13164e-06 -1.99731e-06)
(-1.4254e-06 3.04331e-06 -2.2077e-06)
(-3.59715e-06 1.7439e-06 -2.24108e-06)
(-5.04825e-06 5.10389e-07 -1.96707e-06)
(-5.17365e-06 -4.06558e-07 -1.33998e-06)
(-3.86123e-06 -8.22034e-07 -4.74612e-07)
(-1.8734e-06 -1.00658e-06 2.88681e-07)
(-5.84509e-07 -8.27792e-07 4.53811e-07)
(-9.94526e-08 -1.86547e-07 9.58347e-08)
(1.0335e-06 1.88197e-06 -4.08043e-07)
(8.55157e-06 1.65518e-05 -3.71489e-06)
(1.70739e-05 2.9299e-05 -6.83312e-06)
(2.40048e-05 3.8446e-05 -9.70575e-06)
(2.53588e-05 4.2839e-05 -1.25888e-05)
(1.91524e-05 4.19877e-05 -1.54662e-05)
(6.68982e-06 3.62263e-05 -1.78856e-05)
(-1.06695e-05 2.69472e-05 -1.95967e-05)
(-2.95335e-05 1.57525e-05 -1.98564e-05)
(-4.39236e-05 4.12311e-06 -1.76104e-05)
(-4.89118e-05 -5.48163e-06 -1.24332e-05)
(-4.15085e-05 -1.04404e-05 -5.0949e-06)
(-2.49794e-05 -1.1901e-05 2.00348e-06)
(-8.76665e-06 -1.04056e-05 5.09153e-06)
(-1.26644e-06 -5.86733e-06 2.84852e-06)
(1.90908e-06 3.2658e-06 -7.43607e-07)
(1.62848e-05 2.85834e-05 -6.78061e-06)
(3.31058e-05 5.01435e-05 -1.24531e-05)
(4.66276e-05 6.58333e-05 -1.7667e-05)
(5.04674e-05 7.39394e-05 -2.28423e-05)
(4.18884e-05 7.29987e-05 -2.77501e-05)
(2.14026e-05 6.33413e-05 -3.21476e-05)
(-8.73651e-06 4.7804e-05 -3.53846e-05)
(-4.36305e-05 2.86874e-05 -3.61804e-05)
(-7.63113e-05 6.51216e-06 -3.28084e-05)
(-0.000100039 -1.46399e-05 -2.46659e-05)
(-0.00010262 -2.71815e-05 -1.25756e-05)
(-7.73896e-05 -2.96868e-05 1.59769e-06)
(-2.82958e-05 -2.47638e-05 1.29931e-05)
(-1.12802e-06 -2.17723e-05 1.13115e-05)
(2.77088e-06 3.99596e-06 -9.87848e-07)
(2.4283e-05 3.49784e-05 -9.0165e-06)
(4.97278e-05 6.15065e-05 -1.67171e-05)
(7.0948e-05 8.0783e-05 -2.35155e-05)
(7.93826e-05 9.12856e-05 -3.01063e-05)
(7.20264e-05 9.10454e-05 -3.63409e-05)
(4.81009e-05 7.92112e-05 -4.21121e-05)
(1.08328e-05 6.00106e-05 -4.63768e-05)
(-3.65794e-05 3.57415e-05 -4.76335e-05)
(-8.55955e-05 7.33444e-06 -4.38362e-05)
(-0.000129833 -2.16992e-05 -3.40861e-05)
(-0.00014894 -3.98914e-05 -1.90513e-05)
(-0.00011847 -4.03597e-05 2.60062e-07)
(-3.65857e-05 -2.41184e-05 1.64739e-05)
(-3.15282e-07 -2.11213e-05 1.0652e-05)
(1.08601e-07 2.30296e-07 -3.26388e-08)
(8.16827e-07 2.11086e-06 -3.06875e-07)
(1.66364e-06 3.81568e-06 -5.74587e-07)
(2.36462e-06 5.02224e-06 -8.27167e-07)
(2.39045e-06 5.44861e-06 -1.07347e-06)
(1.59815e-06 5.1375e-06 -1.29869e-06)
(-1.92236e-08 4.32181e-06 -1.49305e-06)
(-2.33061e-06 2.9821e-06 -1.65449e-06)
(-4.7642e-06 1.41143e-06 -1.70731e-06)
(-6.46104e-06 9.57854e-09 -1.55211e-06)
(-6.73088e-06 -9.15026e-07 -1.14339e-06)
(-5.51831e-06 -1.40138e-06 -5.38398e-07)
(-3.7594e-06 -1.80477e-06 2.43408e-08)
(-2.36369e-06 -1.83522e-06 2.40861e-07)
(-1.27401e-06 -1.12075e-06 1.28564e-07)
(8.53021e-07 2.09734e-06 -3.05876e-07)
(6.81523e-06 1.8696e-05 -2.82005e-06)
(1.44493e-05 3.32936e-05 -5.20352e-06)
(2.09278e-05 4.35972e-05 -7.46091e-06)
(2.10181e-05 4.7764e-05 -9.68502e-06)
(1.33882e-05 4.5739e-05 -1.18153e-05)
(-6.72199e-07 3.82209e-05 -1.35198e-05)
(-2.06413e-05 2.62541e-05 -1.48715e-05)
(-4.21735e-05 1.24956e-05 -1.52712e-05)
(-5.85248e-05 -3.19152e-07 -1.40101e-05)
(-6.42025e-05 -9.8572e-06 -1.06233e-05)
(-5.7277e-05 -1.53622e-05 -5.47422e-06)
(-4.22012e-05 -1.86554e-05 -2.30608e-07)
(-2.638e-05 -1.89407e-05 2.56831e-06)
(-1.59323e-05 -1.47085e-05 1.97149e-06)
(1.49636e-06 3.6469e-06 -5.67472e-07)
(1.26396e-05 3.20486e-05 -5.17644e-06)
(2.73369e-05 5.65574e-05 -9.51122e-06)
(3.9574e-05 7.44799e-05 -1.36344e-05)
(4.16489e-05 8.23259e-05 -1.74914e-05)
(3.03599e-05 7.96149e-05 -2.1207e-05)
(5.60158e-06 6.63434e-05 -2.45892e-05)
(-2.95512e-05 4.60212e-05 -2.72094e-05)
(-6.85689e-05 2.29286e-05 -2.80548e-05)
(-0.000104195 -1.15412e-06 -2.61963e-05)
(-0.00012785 -2.22352e-05 -2.09791e-05)
(-0.000129701 -3.56586e-05 -1.24235e-05)
(-0.0001064 -4.1303e-05 -2.08154e-06)
(-6.70004e-05 -4.06707e-05 6.26883e-06)
(-4.22104e-05 -3.81952e-05 6.87512e-06)
(2.1274e-06 4.45356e-06 -7.63296e-07)
(1.85435e-05 3.90255e-05 -6.9674e-06)
(4.01817e-05 6.90999e-05 -1.28647e-05)
(5.93074e-05 9.10888e-05 -1.80788e-05)
(6.55159e-05 0.000101917 -2.2968e-05)
(5.43473e-05 9.88854e-05 -2.7704e-05)
(2.48428e-05 8.20135e-05 -3.21856e-05)
(-1.96407e-05 5.70894e-05 -3.57481e-05)
(-7.22717e-05 2.8595e-05 -3.71293e-05)
(-0.000125707 -2.81672e-06 -3.49571e-05)
(-0.000168798 -3.18912e-05 -2.86956e-05)
(-0.000184965 -5.13562e-05 -1.81546e-05)
(-0.000160023 -5.80356e-05 -4.2936e-06)
(-9.93803e-05 -5.31584e-05 8.04299e-06)
(-5.64637e-05 -5.03381e-05 1.00264e-05)
(9.33e-08 2.39354e-07 -1.54576e-08)
(6.95372e-07 2.2007e-06 -1.48981e-07)
(1.5214e-06 4.01838e-06 -2.83547e-07)
(2.19904e-06 5.31124e-06 -4.09848e-07)
(2.12513e-06 5.75891e-06 -5.36852e-07)
(1.26145e-06 5.40434e-06 -6.46624e-07)
(-3.92345e-07 4.45839e-06 -7.50135e-07)
(-2.63175e-06 2.90366e-06 -8.30456e-07)
(-5.09711e-06 1.16869e-06 -8.66754e-07)
(-6.94196e-06 -3.10085e-07 -8.23618e-07)
(-7.36214e-06 -1.30065e-06 -6.39767e-07)
(-6.57856e-06 -2.02005e-06 -3.48136e-07)
(-5.40128e-06 -2.72111e-06 -6.23375e-08)
(-4.54835e-06 -3.23652e-06 9.12001e-08)
(-3.85258e-06 -3.09411e-06 9.93605e-08)
(6.92654e-07 2.18571e-06 -1.45894e-07)
(5.59964e-06 1.94998e-05 -1.36328e-06)
(1.27487e-05 3.53464e-05 -2.55319e-06)
(1.89364e-05 4.65218e-05 -3.67809e-06)
(1.8281e-05 5.06209e-05 -4.81831e-06)
(1.00064e-05 4.80882e-05 -5.89896e-06)
(-5.09119e-06 3.95632e-05 -6.84966e-06)
(-2.60886e-05 2.60155e-05 -7.6578e-06)
(-4.82297e-05 1.04954e-05 -8.00465e-06)
(-6.46133e-05 -3.26661e-06 -7.55993e-06)
(-7.02584e-05 -1.28756e-05 -5.976e-06)
(-6.49499e-05 -1.99846e-05 -3.3936e-06)
(-5.47061e-05 -2.62739e-05 -7.39135e-07)
(-4.4275e-05 -2.98033e-05 8.74913e-07)
(-3.81199e-05 -2.99053e-05 1.09341e-06)
(1.17791e-06 3.8083e-06 -2.76769e-07)
(1.01008e-05 3.34098e-05 -2.51669e-06)
(2.34254e-05 6.01139e-05 -4.67208e-06)
(3.53496e-05 7.93964e-05 -6.73406e-06)
(3.60556e-05 8.70294e-05 -8.67333e-06)
(2.38046e-05 8.34427e-05 -1.05088e-05)
(-2.2207e-06 6.85291e-05 -1.22386e-05)
(-3.87513e-05 4.54505e-05 -1.36391e-05)
(-7.95635e-05 1.91553e-05 -1.43532e-05)
(-0.00011498 -6.32485e-06 -1.37182e-05)
(-0.000135973 -2.68316e-05 -1.13987e-05)
(-0.000136899 -4.166e-05 -7.18563e-06)
(-0.000121721 -5.26178e-05 -2.07721e-06)
(-9.95537e-05 -5.92941e-05 1.84099e-06)
(-8.67238e-05 -6.3633e-05 2.8189e-06)
(1.65019e-06 4.69861e-06 -3.86272e-07)
(1.46391e-05 4.09928e-05 -3.47894e-06)
(3.36784e-05 7.33727e-05 -6.4606e-06)
(5.14275e-05 9.70203e-05 -9.13454e-06)
(5.62792e-05 0.000107693 -1.16624e-05)
(4.3485e-05 0.000103117 -1.40982e-05)
(1.20432e-05 8.39031e-05 -1.64094e-05)
(-3.41073e-05 5.58675e-05 -1.82371e-05)
(-8.83658e-05 2.41087e-05 -1.91546e-05)
(-0.000141931 -8.93143e-06 -1.84469e-05)
(-0.0001818 -3.78409e-05 -1.57207e-05)
(-0.000195776 -5.89995e-05 -1.06193e-05)
(-0.000180745 -7.27065e-05 -3.75458e-06)
(-0.000149688 -8.16599e-05 2.22012e-06)
(-0.000132524 -9.28599e-05 4.20364e-06)
(2.07035e-07 -3.78265e-08 1.36519e-07)
(3.59216e-06 -1.01572e-06 2.31746e-06)
(8.76588e-07 -4.69983e-07 3.24784e-07)
(-6.6359e-06 -1.89769e-05 3.79416e-06)
(-3.28193e-05 -5.18415e-06 1.6784e-06)
(3.08221e-06 -1.30239e-06 2.2187e-06)
(8.17002e-07 -5.95246e-07 3.25697e-07)
(-7.3465e-09 -1.32166e-07 1.0417e-07)
(4.22689e-07 -2.65428e-06 1.81358e-06)
(3.94016e-08 -1.22613e-06 3.0369e-07)
(-3.3227e-05 -3.17e-06 1.72199e-06)
(-3.63645e-07 -1.81272e-05 8.6824e-06)
(-2.30013e-05 -1.94909e-05 7.02028e-07)
(-1.01359e-06 -3.38287e-06 1.6293e-06)
(-5.32663e-07 -1.60587e-06 3.04726e-07)
(-7.71926e-07 -7.22684e-07 1.15806e-07)
(-3.8737e-07 -3.472e-07 2.59352e-08)
(-7.65732e-06 -7.68949e-06 1.34791e-06)
(-5.56735e-06 -5.60303e-06 4.65393e-07)
(1.9949e-05 -1.32093e-05 1.35784e-05)
(-6.75521e-06 -9.94898e-06 3.31465e-06)
(3.71253e-06 -1.82945e-05 7.4353e-06)
(-2.84384e-05 -8.80569e-06 1.22249e-06)
(2.34048e-05 -1.69276e-05 2.39825e-05)
(1.21259e-05 -1.75737e-05 1.1135e-05)
(-5.67076e-06 -1.26435e-05 3.37043e-06)
(-6.3232e-08 -1.79324e-05 7.33505e-06)
(-2.9304e-05 -8.40032e-06 1.16167e-06)
(5.11062e-06 -1.97255e-05 1.19036e-05)
(-4.2073e-06 -2.10778e-05 3.75244e-06)
(1.49618e-06 -2.00693e-05 1.02812e-05)
(-1.80574e-05 -2.25943e-05 1.90136e-06)
(7.08792e-06 -1.57835e-05 1.06903e-05)
(-2.33512e-05 -1.87824e-05 1.8368e-05)
(4.54259e-06 -1.649e-05 1.30567e-05)
(-3.07054e-05 -1.61017e-05 -1.81017e-06)
(-1.21475e-05 -1.60292e-05 4.13716e-06)
(-3.22524e-05 -1.65865e-05 -1.45368e-06)
(-1.76608e-05 -2.49886e-05 2.28406e-06)
(-3.6716e-05 -4.03895e-05 1.12095e-05)
(-4.13299e-05 -4.87544e-05 4.98268e-06)
(1.9233e-09 -2.25141e-10 1.37645e-09)
(2.38038e-08 -4.71533e-09 4.4948e-09)
(1.45228e-07 -2.5683e-08 9.57531e-08)
(-5.83232e-06 -1.55563e-05 3.08655e-06)
(-2.62559e-05 -1.67923e-05 -1.77625e-06)
(-2.47259e-05 -1.2088e-05 -2.40482e-06)
(-2.41035e-05 -9.53796e-06 -4.94413e-07)
(8.19811e-08 -5.87541e-08 8.88565e-08)
(1.72765e-09 -2.72117e-10 1.33981e-09)
(2.3577e-08 -5.22269e-09 4.5448e-09)
(1.33806e-07 -3.27265e-08 9.40675e-08)
(1.88732e-08 -1.08319e-08 5.45085e-09)
(9.8012e-10 -6.17312e-10 1.21408e-09)
(5.36394e-08 -7.37027e-08 8.52598e-08)
(-9.16961e-10 -1.61467e-09 1.03706e-09)
(-1.53941e-10 -2.30257e-08 6.65083e-09)
(1.62847e-08 -1.16112e-08 5.50536e-09)
(-5.17819e-08 -1.3251e-07 7.7799e-08)
(7.02071e-10 -7.39878e-10 1.181e-09)
(-2.55499e-05 -6.78908e-06 -4.24653e-07)
(-3.17328e-05 -8.75369e-06 8.10276e-07)
(-2.56589e-05 -1.01402e-05 1.14158e-08)
(-6.86002e-06 -1.60049e-05 5.92163e-06)
(-1.02669e-05 -1.85684e-05 4.28998e-06)
(-2.02491e-05 -1.51011e-05 1.31962e-06)
(-3.01693e-05 -1.36846e-05 4.15827e-07)
(-1.88363e-05 -1.75282e-05 1.55818e-06)
(-2.33745e-05 -1.30021e-05 3.79289e-07)
(-4.26202e-07 -4.29776e-07 9.85241e-08)
(-1.32655e-09 -1.8218e-09 1.00645e-09)
(-2.6547e-09 -2.60696e-08 6.99906e-09)
(-5.11575e-10 -4.27624e-10 1.21683e-09)
(-9.92688e-08 -1.63655e-07 7.65082e-08)
(-2.07334e-07 -1.92039e-07 2.1937e-08)
(-1.25601e-08 -1.34231e-08 3.05563e-09)
(1.07603e-06 -2.94574e-07 7.22451e-07)
(4.31994e-07 -8.09325e-08 2.91172e-07)
(7.47766e-06 -3.09293e-06 5.87954e-06)
(4.85849e-06 -1.44926e-06 3.33438e-06)
(5.98756e-06 -2.0598e-06 3.9718e-06)
(1.82906e-06 -1.31458e-06 8.06308e-07)
(1.70865e-05 -9.64622e-06 1.18764e-05)
(-9.62212e-07 -7.40156e-06 3.18426e-06)
(3.58305e-07 -1.05688e-07 2.75358e-07)
(5.42505e-06 -3.56012e-06 5.561e-06)
(4.10906e-06 -1.78748e-06 3.21521e-06)
(-2.13869e-07 -6.61197e-07 5.16566e-07)
(-1.40281e-08 -2.65636e-07 2.13887e-07)
(-2.48241e-06 -6.03539e-06 4.1657e-06)
(2.54452e-07 -3.47738e-06 2.57427e-06)
(1.79468e-07 -9.92166e-08 1.65026e-07)
(1.35141e-08 -2.43423e-09 9.48839e-09)
(6.62938e-07 -2.07613e-07 4.95076e-07)
(1.29888e-07 -6.54497e-08 1.23407e-07)
(2.3385e-07 -7.3649e-08 1.71145e-07)
(4.88452e-07 -2.82038e-07 4.63144e-07)
(8.36042e-09 -4.50805e-09 8.69666e-09)
(1.75375e-06 -1.69402e-06 8.03728e-07)
(1.47508e-05 -1.11737e-05 1.14828e-05)
(-4.42684e-07 -9.50941e-06 3.16212e-06)
(8.59026e-07 -4.77421e-06 3.13119e-06)
(2.26665e-08 -3.28442e-06 7.49134e-07)
(3.55759e-06 -1.60225e-05 9.90246e-06)
(-2.08305e-06 -1.60152e-05 3.19698e-06)
(-1.77565e-07 -3.55957e-07 1.92919e-07)
(-5.65999e-06 -7.25039e-06 3.62677e-06)
(-1.58963e-06 -4.3832e-06 2.28831e-06)
(-1.87143e-06 -1.53253e-06 2.83119e-07)
(-1.02093e-06 -9.51734e-07 1.69318e-07)
(-1.56061e-05 -1.21127e-05 2.24992e-06)
(-9.16735e-06 -8.90637e-06 1.71386e-06)
(-3.93207e-07 -4.73656e-07 1.40603e-07)
(-8.67819e-09 -1.32955e-08 7.15934e-09)
(-3.36227e-07 -7.14461e-07 3.61097e-07)
(-2.19986e-07 -2.6932e-07 9.17725e-08)
(-1.6044e-07 -2.92599e-07 1.3261e-07)
(-7.71377e-07 -1.00722e-06 3.39586e-07)
(-3.50738e-08 -3.96598e-08 1.02972e-08)
(-1.20665e-06 -4.07524e-06 7.41952e-07)
(-2.18341e-06 -1.79258e-05 9.02436e-06)
(-5.05885e-06 -1.80797e-05 3.21833e-06)
(-1.12637e-05 -1.16197e-05 2.14996e-06)
(-9.12521e-06 -9.56932e-06 8.44096e-07)
(-2.54874e-05 -2.7343e-05 6.27457e-06)
(-2.47877e-05 -2.79012e-05 2.94694e-06)
(-9.30517e-07 -8.0815e-07 4.684e-08)
(-1.12193e-05 -1.01959e-05 1.29004e-06)
(-9.12918e-06 -8.38442e-06 5.54879e-07)
(-3.23259e-06 -2.62455e-06 1.17264e-07)
(-3.16613e-06 -2.59091e-06 7.77853e-08)
(-2.43261e-05 -1.96008e-05 9.59932e-07)
(-2.35268e-05 -1.95017e-05 6.48061e-07)
(3.19511e-07 -4.04722e-08 1.93812e-07)
(2.3415e-07 -2.7717e-08 1.44744e-07)
(1.464e-08 -2.08997e-09 9.60556e-09)
(7.78002e-07 -1.57722e-07 5.16491e-07)
(8.25457e-07 -1.33963e-07 5.12911e-07)
(2.7522e-07 -5.44094e-08 1.78445e-07)
(4.37306e-07 -9.19513e-08 2.30836e-07)
(8.18457e-07 -3.67712e-07 3.22647e-07)
(1.01865e-07 -4.10712e-08 2.48339e-08)
(1.40617e-06 -5.56206e-07 7.28623e-07)
(1.36631e-06 -4.36793e-07 7.22172e-07)
(4.04032e-07 -1.18927e-07 2.18934e-07)
(2.92428e-07 -2.07137e-07 2.05777e-07)
(9.94897e-08 -4.60226e-08 2.49602e-08)
(1.2763e-06 -7.12784e-07 7.0948e-07)
(6.58506e-07 -7.59982e-07 3.15451e-07)
(3.54495e-07 -1.58214e-07 2.11394e-07)
(7.81387e-08 -6.62231e-08 2.5755e-08)
(1.02058e-06 -9.12231e-07 6.75695e-07)
(9.13252e-08 -1.42391e-07 1.52939e-07)
(6.54451e-08 -9.40564e-08 1.13491e-07)
(-3.98821e-09 -1.05666e-08 7.31059e-09)
(-5.72695e-09 -5.22556e-07 3.92955e-07)
(2.57967e-07 -3.88841e-07 4.2204e-07)
(-1.71255e-08 -2.01852e-07 1.39567e-07)
(5.50739e-09 -5.75687e-09 8.25662e-09)
(1.65074e-07 -2.80349e-07 1.93288e-07)
(3.77172e-07 -9.6878e-07 3.05426e-07)
(3.25445e-09 -1.16958e-07 2.70687e-08)
(1.65816e-07 -1.47498e-06 6.10497e-07)
(6.2054e-08 -7.61091e-08 2.59859e-08)
(6.25516e-07 -1.16662e-06 6.39005e-07)
(-6.62271e-10 -3.79101e-07 1.82425e-07)
(-6.38943e-07 -8.52263e-07 1.91719e-07)
(-2.58112e-08 -1.41039e-07 2.81989e-08)
(-5.6755e-07 -1.92502e-06 5.8212e-07)
(-1.47031e-06 -2.26095e-06 3.1709e-07)
(-2.37354e-07 -5.36066e-07 1.76581e-07)
(-3.18206e-07 -4.09033e-07 4.63543e-08)
(-1.60854e-06 -2.62553e-06 5.72666e-07)
(-6.87468e-07 -6.87914e-07 1.24908e-07)
(-1.27965e-08 -1.04678e-08 2.52546e-09)
(-4.43953e-07 -4.02248e-07 4.35349e-08)
(-1.34168e-06 -1.22994e-06 9.32727e-08)
(-3.18605e-07 -3.06135e-07 3.14748e-08)
(-1.53428e-06 -1.41915e-06 1.55865e-07)
(-3.83854e-08 -4.06187e-08 8.37029e-09)
(-7.08349e-09 4.95867e-09 -1.3824e-10)
(2.27213e-08 -1.44638e-10 1.90551e-08)
(2.27016e-09 -3.03923e-10 1.39951e-09)
(2.80114e-08 -4.47887e-10 1.97656e-08)
(-6.86974e-09 4.84607e-09 -1.36402e-10)
(-6.7343e-09 5.82898e-09 -1.51609e-10)
(2.27425e-08 -3.49367e-09 4.95955e-09)
(4.8831e-08 -6.98282e-09 2.46871e-08)
(5.20315e-08 -4.72305e-09 2.57105e-08)
(-6.5246e-09 5.68468e-09 -1.55342e-10)
(-6.76325e-09 5.84874e-09 -1.51104e-10)
(2.13468e-08 -2.7571e-09 5.09901e-09)
(5.19004e-08 -3.90301e-09 2.61577e-08)
(-7.11256e-09 4.97472e-09 -1.37423e-10)
(2.29088e-09 -3.21121e-10 1.40616e-09)
(2.96838e-08 -2.87932e-10 2.03124e-08)
(-2.67991e-05 2.12632e-06 4.11263e-08)
(-3.06121e-05 -4.13155e-06 -3.36754e-06)
(-2.72623e-05 1.06503e-06 6.6399e-07)
(-2.99357e-05 -6.33089e-06 2.4893e-06)
(-2.77079e-05 -1.053e-05 2.1995e-06)
(-2.93651e-05 5.45465e-06 7.99183e-07)
(-2.64976e-05 -1.41193e-06 4.93137e-07)
(-2.70413e-05 -1.20703e-05 2.04103e-06)
(-2.71111e-05 2.75568e-06 1.39783e-07)
(-3.37269e-05 -5.89334e-06 -3.1002e-06)
(-3.11953e-05 -4.98981e-06 -3.23129e-06)
(-2.93679e-05 7.2623e-06 2.64116e-07)
(-6.92607e-09 4.93226e-09 -1.27548e-10)
(2.10447e-08 -7.10027e-10 1.8758e-08)
(1.53716e-09 -4.30593e-10 1.29598e-09)
(1.67875e-08 -2.39484e-09 1.83172e-08)
(-6.85214e-09 4.8228e-09 -1.40098e-10)
(-6.62709e-09 5.86058e-09 -1.83621e-10)
(4.75424e-08 -8.8245e-09 2.46753e-08)
(2.32009e-08 -7.25404e-09 4.47766e-09)
(-6.5079e-09 5.65719e-09 -1.65009e-10)
(4.08268e-08 -1.23576e-08 2.44935e-08)
(-6.66923e-09 5.85286e-09 -1.33027e-10)
(2.59499e-08 -1.98901e-08 2.3973e-08)
(2.2662e-08 -8.09356e-09 4.87679e-09)
(3.82487e-08 -1.47982e-08 2.44147e-08)
(-6.44517e-09 5.45477e-09 2.4044e-10)
(-6.94397e-09 4.92666e-09 -8.20568e-11)
(9.0983e-09 -5.78301e-09 1.77139e-08)
(1.34392e-09 -5.10965e-10 1.2653e-09)
(1.46695e-08 -3.43586e-09 1.79085e-08)
(-6.66678e-09 4.58823e-09 1.98255e-10)
(-6.10628e-09 4.3966e-09 5.22296e-10)
(-1.76225e-08 -1.99615e-08 1.57952e-08)
(-8.15866e-11 -1.21244e-09 1.07832e-09)
(-6.53572e-09 -1.37371e-08 1.59398e-08)
(-5.7796e-09 4.32842e-09 1.13153e-09)
(-5.84342e-09 5.15523e-09 6.02554e-10)
(6.39598e-09 -1.70635e-08 6.03292e-09)
(-2.46619e-08 -5.09185e-08 2.34071e-08)
(-2.42995e-09 -3.70682e-08 2.33864e-08)
(-5.52515e-09 5.04499e-09 1.23175e-09)
(-5.88716e-09 5.20121e-09 5.44635e-10)
(2.10685e-08 -2.31448e-08 2.38185e-08)
(8.4424e-09 -1.52143e-08 5.89338e-09)
(-6.36949e-09 5.4151e-09 2.69901e-10)
(3.96559e-09 -3.32493e-08 2.35066e-08)
(-6.14985e-09 4.42403e-09 4.67819e-10)
(5.78192e-09 -7.33874e-09 1.71376e-08)
(1.10399e-10 -1.09599e-09 1.10388e-09)
(-6.59596e-09 4.55611e-09 2.26443e-10)
(-2.8066e-09 -1.1862e-08 1.61618e-08)
(-3.21093e-05 1.46608e-05 1.87819e-07)
(-3.79673e-05 -5.43472e-06 -2.90069e-06)
(-3.99404e-05 -1.14677e-06 -3.55744e-06)
(-3.49635e-05 7.27087e-06 -5.72841e-07)
(-3.14602e-05 1.13547e-05 8.04085e-07)
(-3.01835e-05 -4.81905e-06 2.56033e-06)
(-3.17732e-05 -2.02829e-06 2.33152e-06)
(-2.95013e-05 6.76845e-06 8.61804e-07)
(-3.1517e-05 1.21689e-05 2.22261e-07)
(-3.50074e-05 -1.97277e-06 -3.10034e-06)
(-3.98154e-05 -1.45844e-06 -3.54566e-06)
(-2.95051e-05 8.3266e-06 3.19653e-07)
(-3.15842e-05 1.12234e-05 7.06793e-07)
(-3.47021e-05 -6.09333e-06 1.39298e-06)
(-3.20995e-05 -1.6578e-06 2.16994e-06)
(-3.47489e-05 4.55534e-06 -1.83034e-07)
(-3.55099e-05 -9.37629e-06 -2.68958e-06)
(-3.88508e-05 -2.93097e-06 -1.67008e-06)
(-3.78887e-05 -1.24923e-05 5.89156e-07)
(-3.90139e-05 -4.37541e-06 -1.24541e-06)
(-5.14687e-09 3.58792e-09 2.96997e-09)
(-2.27639e-08 -2.30419e-08 1.56769e-08)
(-2.61393e-09 -2.71301e-09 1.04082e-09)
(-3.94827e-08 -3.52648e-08 1.74546e-08)
(-5.72652e-09 4.32347e-09 1.27538e-09)
(-4.94187e-09 4.2415e-09 3.25503e-09)
(-3.28412e-08 -5.82301e-08 2.36435e-08)
(-1.93507e-08 -4.26811e-08 9.24226e-09)
(-5.48167e-09 5.03141e-09 1.39388e-09)
(-7.50079e-08 -9.17962e-08 2.70235e-08)
(-3.43179e-09 -5.48605e-10 3.21461e-09)
(-9.06876e-10 -6.69664e-10 1.34548e-09)
(-1.05523e-08 -4.24289e-09 5.4008e-09)
(-4.8206e-09 3.98025e-09 3.62346e-09)
(-3.1871e-07 -3.00923e-07 4.66544e-08)
(-3.26982e-08 -5.47234e-08 1.0674e-08)
(-7.3326e-09 -4.09435e-09 5.06328e-09)
(-9.68202e-08 -1.1304e-07 2.91492e-08)
(-2.97735e-08 -1.89115e-08 1.00527e-08)
(-5.02299e-09 3.35464e-09 3.32429e-09)
(-1.29827e-07 -1.23253e-07 2.97474e-08)
(-2.76709e-09 -3.05733e-09 1.07288e-09)
(-1.40532e-09 -1.0241e-09 1.50424e-09)
(-4.84064e-08 -4.35037e-08 1.86868e-08)
(-2.31985e-08 -1.35893e-08 9.14549e-09)
(-9.32345e-07 -9.55514e-07 1.8646e-07)
(-4.23686e-07 -4.35034e-07 9.90475e-08)
(-5.71351e-07 -5.28241e-07 7.19373e-08)
(-2.53002e-06 -2.39529e-06 3.89932e-07)
(-1.44679e-06 -1.53349e-06 3.52057e-07)
(-1.92816e-06 -1.81676e-06 2.5122e-07)
(-2.36817e-07 -2.33104e-07 4.54779e-08)
(-1.54751e-06 -1.65615e-06 2.56359e-07)
(-3.01177e-06 -3.51934e-06 3.7483e-07)
(-2.96314e-06 -2.84071e-06 2.24133e-07)
(-5.78038e-06 -5.88818e-06 6.96353e-07)
(-1.26869e-06 -1.29992e-06 1.33291e-07)
(-3.24633e-06 -3.88127e-06 6.13531e-07)
(-3.21234e-06 -3.11739e-06 3.5159e-07)
(-1.46801e-08 9.88268e-09 5.91432e-10)
(1.66844e-07 -1.8429e-08 1.02319e-07)
(4.75723e-08 -2.66011e-09 3.24664e-08)
(6.20313e-08 -5.42591e-09 3.74819e-08)
(-1.469e-08 9.8459e-09 5.64592e-10)
(1.53571e-07 -2.29267e-08 9.74791e-08)
(3.74405e-08 -4.351e-09 2.89735e-08)
(5.41935e-08 -8.99546e-09 3.47022e-08)
(4.09319e-08 -3.78039e-09 2.96882e-08)
(5.75869e-08 -7.65823e-09 3.55077e-08)
(-1.46147e-08 9.80598e-09 5.27341e-10)
(-1.53113e-08 1.04471e-08 6.38057e-10)
(1.00201e-07 -4.96515e-08 9.01238e-08)
(3e-08 -2.33104e-08 3.27673e-08)
(1.93226e-08 -1.37081e-08 2.73355e-08)
(2.47813e-08 -1.08111e-08 2.75236e-08)
(3.83826e-08 -1.94631e-08 3.32333e-08)
(-1.51647e-08 9.93405e-09 1.30792e-09)
(-1.51009e-08 1.03705e-08 4.23447e-10)
(1.13697e-07 -4.00325e-08 9.13956e-08)
(3.37837e-08 -6.21787e-09 2.82393e-08)
(5.01073e-08 -1.24784e-08 3.40547e-08)
(2.89021e-08 -8.14483e-09 2.75864e-08)
(-1.46126e-08 9.81714e-09 4.75113e-10)
(4.38744e-08 -1.53939e-08 3.34349e-08)
(-1.45919e-08 9.21605e-09 1.85736e-09)
(1.87321e-08 -3.01393e-08 3.18496e-08)
(2.05457e-08 -8.98085e-08 8.18614e-08)
(1.1133e-08 -1.80467e-08 2.62634e-08)
(-1.499e-08 9.70926e-09 1.42954e-09)
(2.14303e-09 -2.2701e-08 2.54298e-08)
(6.38743e-09 -3.70589e-08 3.11738e-08)
(-1.45392e-08 9.09024e-09 2.09283e-09)
(-1.45705e-08 -1.10049e-07 7.88799e-08)
(-1.88749e-08 -3.48105e-08 2.45453e-08)
(-2.40565e-08 -5.57932e-08 3.06217e-08)
(-7.91052e-09 -2.82149e-08 2.44411e-08)
(-8.11011e-09 -4.63536e-08 3.06343e-08)
(-1.44518e-08 8.88393e-09 3.33213e-09)
(-1.41715e-08 5.86906e-09 9.4453e-09)
(-2.49768e-07 -2.83046e-07 8.33615e-08)
(-2.40709e-07 -2.44387e-07 5.06957e-08)
(-1.58009e-07 -1.60165e-07 4.08234e-08)
(-8.0149e-08 -8.68818e-08 3.11061e-08)
(-1.20917e-07 -1.37294e-07 3.85271e-08)
(-5.08803e-08 -4.02002e-08 1.50106e-08)
(-1.41389e-09 9.37504e-11 2.03848e-09)
(-6.07856e-10 -4.80105e-10 1.25324e-09)
(-1.68346e-09 3.24928e-11 2.06416e-09)
(-1.40504e-08 7.19068e-09 7.60654e-09)
(-1.63451e-07 -2.08521e-07 7.72812e-08)
(-3.22891e-08 -4.38814e-08 2.47366e-08)
(-4.44345e-08 -7.07126e-08 3.10451e-08)
(-5.00513e-08 -5.78048e-08 2.64936e-08)
(-1.43714e-08 8.78071e-09 4.02047e-09)
(-7.19424e-08 -9.23816e-08 3.31127e-08)
(-4.21692e-08 -3.3969e-08 5.73003e-09)
(-1.50272e-08 -1.28684e-08 3.29597e-09)
(-5.39749e-08 -4.34762e-08 8.46536e-09)
(-2.35674e-07 -1.99282e-07 2.12321e-08)
(-6.68479e-08 -6.11498e-08 4.95894e-09)
(-2.13328e-07 -1.79009e-07 1.49807e-08)
(-6.92252e-08 -6.57464e-08 7.00743e-09)
(-3.76036e-07 -3.67647e-07 4.80797e-08)
(-1.08779e-07 -9.63938e-08 1.35069e-08)
(-1.41678e-07 -1.26643e-07 2.02939e-08)
(-4.45964e-07 -4.12155e-07 4.34642e-08)
(-8.10469e-07 -7.11283e-07 5.71101e-08)
(-8.66048e-07 -7.74373e-07 8.13807e-08)
(-4.0368e-07 -3.70945e-07 3.0638e-08)
(-1.52336e-07 -1.402e-07 2.79111e-08)
(-2.2912e-08 -2.04597e-08 5.0436e-09)
(-8.31449e-08 -7.20838e-08 1.50272e-08)
(-2.75287e-07 -2.38679e-07 3.13689e-08)
(-1.01329e-07 -1.00618e-07 1.47249e-08)
(-3.68198e-07 -3.20028e-07 4.74837e-08)
(-7.98031e-08 -7.72478e-08 1.0097e-08)
(-5.20667e-09 1.47463e-09 -3.42354e-11)
(-1.47474e-08 7.02376e-09 6.83823e-10)
(-6.98591e-09 4.91021e-09 -1.39082e-10)
(-1.48018e-08 7.03077e-09 6.80252e-10)
(-5.27773e-09 1.47407e-09 -3.64717e-11)
(-6.12379e-09 1.03853e-09 -6.51795e-11)
(-1.91711e-09 -5.39366e-10 -8.53717e-12)
(-6.02629e-09 1.02627e-09 -5.84675e-11)
(-1.94499e-09 -5.48657e-10 -7.12318e-12)
(-5.20017e-09 1.48789e-09 -3.56963e-11)
(-6.95899e-09 4.89988e-09 -1.39896e-10)
(-1.47911e-08 7.04496e-09 6.67703e-10)
(-1.48078e-08 7.03391e-09 6.65478e-10)
(-5.13564e-09 1.48514e-09 -3.36773e-11)
(-6.1467e-09 1.03868e-09 -6.50008e-11)
(-1.98201e-09 -5.57383e-10 -8.62179e-12)
(-6.23314e-09 1.0523e-09 -6.96371e-11)
(-1.9539e-09 -5.51042e-10 -8.06551e-12)
(-3.91928e-09 7.19708e-09 3.48675e-10)
(-4.72412e-09 6.77335e-09 1.21802e-09)
(-6.64179e-09 5.77252e-09 -1.52811e-10)
(-3.95906e-09 7.24751e-09 3.22715e-10)
(-4.70413e-09 6.66277e-09 1.22071e-09)
(-4.19629e-09 7.59446e-09 4.29819e-11)
(-2.74826e-09 7.45571e-09 -2.24599e-10)
(-2.8176e-09 7.5496e-09 -1.77389e-10)
(-4.14888e-09 7.4553e-09 -7.95356e-12)
(-4.17986e-09 7.60326e-09 4.75185e-11)
(-2.883e-09 7.70683e-09 -1.841e-10)
(-4.24676e-09 7.69474e-09 4.61811e-11)
(-2.83992e-09 7.59786e-09 -1.76287e-10)
(-3.89661e-09 7.13789e-09 3.48074e-10)
(-6.61321e-09 5.75767e-09 -1.52553e-10)
(-4.84414e-09 6.56266e-09 1.14155e-09)
(-4.69066e-09 6.56428e-09 1.18322e-09)
(-3.90631e-09 6.99124e-09 2.73741e-10)
(-4.20298e-09 7.42407e-09 3.44076e-10)
(-6.83891e-09 5.92303e-09 -1.508e-10)
(-4.6723e-09 6.82095e-09 1.26642e-09)
(-4.64313e-09 6.85947e-09 1.30046e-09)
(-3.99805e-09 7.27549e-09 3.36701e-10)
(-4.39007e-09 7.843e-09 4.70699e-11)
(-2.89371e-09 7.73785e-09 -1.85103e-10)
(-4.2704e-09 7.70676e-09 5.0055e-11)
(-2.9226e-09 7.84296e-09 -1.84502e-10)
(-5.34869e-09 1.53469e-09 -2.55952e-11)
(-7.19109e-09 5.03808e-09 -1.39847e-10)
(-1.46935e-08 7.03676e-09 7.12497e-10)
(-1.46232e-08 7.06026e-09 7.41721e-10)
(-5.30811e-09 1.49077e-09 -3.43198e-11)
(-6.32817e-09 1.07224e-09 -7.88358e-11)
(-1.98836e-09 -5.59344e-10 -1.02295e-11)
(-6.25135e-09 1.05427e-09 -7.01505e-11)
(-2.01256e-09 -5.65283e-10 -1.15322e-11)
(-4.95527e-09 1.38185e-09 -2.02958e-12)
(-1.5097e-08 7.22376e-09 6.60088e-10)
(-6.84826e-09 4.80382e-09 -1.78523e-10)
(-1.49106e-08 7.08717e-09 6.07607e-10)
(-4.87077e-09 1.32985e-09 8.2827e-12)
(-5.88683e-09 1.00008e-09 -2.37759e-11)
(-1.90823e-09 -5.35838e-10 -7.34543e-12)
(-5.99899e-09 1.02327e-09 -5.53325e-11)
(-1.8762e-09 -5.22521e-10 -2.80336e-12)
(-5.00615e-09 1.41472e-09 -5.61785e-12)
(-6.83496e-09 4.78566e-09 -1.67256e-10)
(-1.47992e-08 7.02729e-09 6.45573e-10)
(-5.1115e-09 1.46322e-09 -3.21703e-11)
(-1.48424e-08 7.04695e-09 6.34461e-10)
(-5.83854e-09 9.86505e-10 -1.86928e-11)
(-1.83327e-09 -5.00457e-10 2.39195e-12)
(-5.71986e-09 9.73456e-10 -4.45541e-12)
(-1.86367e-09 -5.18253e-10 2.26283e-13)
(-3.52795e-09 7.30048e-09 9.91412e-11)
(-6.52397e-09 5.70296e-09 -2.38284e-10)
(-5.35881e-09 6.69897e-09 1.03458e-09)
(-5.02431e-09 6.51697e-09 1.01243e-09)
(-3.19654e-09 8.17093e-09 7.25613e-11)
(-3.69833e-09 7.61556e-09 -1.63748e-10)
(-2.70968e-09 7.41678e-09 -2.59703e-10)
(-2.53649e-09 7.93715e-09 -5.87516e-10)
(-4.09866e-09 7.39717e-09 -3.64186e-11)
(-3.32911e-09 7.63778e-09 -2.44613e-10)
(-9.55526e-10 4.79512e-09 -5.76293e-10)
(-2.47767e-09 8.03941e-09 -6.41094e-10)
(-1.93189e-09 8.33496e-09 -2.62915e-10)
(-3.6433e-09 7.17099e-09 1.64673e-10)
(-6.49969e-09 5.66242e-09 -2.18367e-10)
(-4.83325e-09 6.42153e-09 1.09581e-09)
(-3.85337e-09 6.90975e-09 2.55126e-10)
(-4.85296e-09 6.39855e-09 1.06251e-09)
(-3.72436e-09 8.36117e-09 6.84947e-10)
(-5.58617e-09 6.69361e-09 1.153e-09)
(-6.71616e-09 5.73371e-09 6.54855e-11)
(-5.8232e-09 6.53726e-09 1.37148e-09)
(-3.28254e-09 8.38591e-09 1.69741e-10)
(-2.55891e-09 8.74981e-09 5.48179e-10)
(-1.30929e-09 5.39999e-09 4.64907e-10)
(-5.69076e-10 4.26945e-09 4.5419e-10)
(-3.4564e-09 8.04415e-09 6.77806e-10)
(-2.31583e-09 8.89871e-09 4.29218e-10)
(-7.24587e-10 4.65601e-09 -4.74656e-10)
(-5.97807e-10 4.3372e-09 3.11025e-10)
(-1.94035e-09 8.59174e-09 -9.87855e-11)
(-3.83937e-09 8.17292e-09 7.59396e-10)
(-6.68365e-09 5.67517e-09 1.26398e-10)
(-6.14929e-09 6.04488e-09 1.57983e-09)
(-5.91409e-09 6.32132e-09 1.49829e-09)
(-4.24724e-09 7.31417e-09 9.09867e-10)
(-4.75392e-09 1.28076e-09 2.41019e-11)
(-1.51888e-08 7.22667e-09 7.91653e-10)
(-6.91234e-09 4.79588e-09 5.39486e-11)
(-1.5211e-08 7.15734e-09 9.3328e-10)
(-4.85086e-09 1.32286e-09 1.40043e-11)
(-5.58031e-09 9.41308e-10 -2.93965e-12)
(-1.77856e-09 -4.88062e-10 5.4794e-13)
(-5.52834e-09 9.07676e-10 3.55077e-11)
(-1.79567e-09 -4.85693e-10 -2.79887e-12)