/*--------------------------------*- C++ -*----------------------------------*\
| =========                 |                                                 |
| \\      /  F ield         | OpenFOAM: The Open Source CFD Toolbox           |
|  \\    /   O peration     | Version:  2012                                  |
|   \\  /    A nd           | Website:  www.openfoam.com                      |
|    \\/     M anipulation  |                                                 |
\*---------------------------------------------------------------------------*/
FoamFile
{
    version     2.0;
    format      ascii;
    class       surfaceScalarField;
    location    "0.107/fluid";
    object      meshPhi;
}
// * * * * * * * * * * * * * * * * * * * * * * * * * * * * * * * * * * * * * //

dimensions      [0 3 -1 0 0 0 0];
oriented        oriented;


internalField   nonuniform List<scalar> 
47156
(
4.57183e-10
2.6428e-08
9.49396e-09
-4.6084e-10
3.52359e-09
-9.81685e-08
1.19776e-07
7.28125e-08
-3.55853e-09
5.35131e-09
-1.80826e-07
2.00222e-07
1.19379e-07
-5.39144e-09
6.59602e-09
-2.53423e-07
2.69554e-07
1.57287e-07
-6.56613e-09
7.47605e-09
-3.16048e-07
3.3066e-07
1.84648e-07
-7.39537e-09
7.64124e-09
-3.69879e-07
3.81435e-07
2.00374e-07
-7.51723e-09
6.65237e-09
-4.13323e-07
4.23716e-07
2.05999e-07
-6.44266e-09
2.75638e-09
-4.58088e-07
4.70845e-07
2.18907e-07
-2.53167e-09
-5.64148e-09
-5.14929e-07
5.28505e-07
2.51877e-07
5.64472e-09
-1.7596e-08
-5.6366e-07
5.76326e-07
2.78982e-07
1.73896e-08
-3.36216e-08
-6.20498e-07
6.35268e-07
3.16495e-07
3.36544e-08
-4.94657e-08
-6.65479e-07
6.67893e-07
3.39077e-07
4.91787e-08
-5.39188e-08
-6.37768e-07
6.10918e-07
3.16461e-07
5.32508e-08
-3.60233e-08
-4.64824e-07
3.93131e-07
2.1864e-07
3.55957e-08
-6.60962e-09
-1.43122e-07
5.37556e-08
6.50289e-09
2.14805e-08
5.67101e-09
2.09576e-08
5.80349e-09
4.07994e-09
-3.39679e-08
2.274e-07
4.10768e-08
-4.10432e-09
3.13359e-08
-2.60534e-07
-8.47494e-07
1.03446e-06
3.14751e-07
-3.15913e-08
4.84166e-08
-4.25233e-07
-1.56245e-06
1.73155e-06
5.12922e-07
-4.88739e-08
5.91985e-08
-5.751e-07
-2.21615e-06
2.36721e-06
6.93859e-07
-5.95903e-08
6.55502e-08
-6.85506e-07
-2.78986e-06
2.91849e-06
8.27038e-07
-6.54134e-08
6.71389e-08
-7.44417e-07
-3.26253e-06
3.36491e-06
8.99477e-07
-6.63558e-08
5.81461e-08
-7.64937e-07
-3.65121e-06
3.74611e-06
9.3176e-07
-5.65389e-08
2.51132e-08
-8.12429e-07
-4.05573e-06
4.16677e-06
1.00198e-06
-2.26461e-08
-4.45036e-08
-9.09787e-07
-4.52414e-06
4.65522e-06
1.11377e-06
4.54547e-08
-1.57504e-07
-1.03599e-06
-5.0656e-06
5.19689e-06
1.25179e-06
1.59163e-07
-3.05689e-07
-1.15056e-06
-5.57135e-06
5.69292e-06
1.36953e-06
3.07064e-07
-4.77875e-07
-1.25929e-06
-6.09232e-06
6.22235e-06
1.52453e-06
4.75514e-07
-5.97241e-07
-1.34545e-06
-6.48898e-06
6.47999e-06
1.71862e-06
5.9056e-07
-1.16228e-06
-5.24084e-07
-5.95953e-06
5.59403e-06
5.15846e-07
1.62386e-06
-7.08847e-07
-2.36909e-07
-4.11502e-06
3.60544e-06
2.31555e-07
1.24968e-06
6.98225e-09
-6.04462e-08
4.21162e-07
6.64392e-08
-7.04922e-09
5.26642e-08
-4.67135e-07
-1.57497e-06
1.92477e-06
5.12736e-07
-5.33097e-08
8.13773e-08
-7.55338e-07
-2.90567e-06
3.21493e-06
8.25262e-07
-8.25933e-08
1.02406e-07
-1.00072e-06
-4.0948e-06
4.37018e-06
1.08533e-06
-1.03428e-07
1.15775e-07
-1.1812e-06
-5.14126e-06
5.37881e-06
1.27968e-06
-1.15823e-07
1.19326e-07
-1.29382e-06
-6.03354e-06
6.23435e-06
1.40543e-06
-1.18105e-07
1.02877e-07
-1.35971e-06
-6.80017e-06
6.98304e-06
1.47508e-06
-1.0097e-07
4.58287e-08
-1.45756e-06
-7.55371e-06
7.75645e-06
1.55431e-06
-4.32159e-08
-7.37439e-08
-1.58689e-06
-8.37667e-06
8.58789e-06
1.65981e-06
7.62848e-08
-2.76717e-07
-1.67236e-06
-9.24768e-06
9.47741e-06
1.74406e-06
2.76919e-07
-5.8787e-07
-1.79187e-06
-1.02899e-05
1.06178e-05
1.87599e-06
5.83963e-07
-1.02657e-06
-2.11976e-06
-1.18777e-05
1.24038e-05
2.23021e-06
1.01345e-06
-1.52827e-06
-2.73615e-06
-1.42783e-05
1.49838e-05
2.95321e-06
1.49572e-06
-1.91124e-06
-3.41334e-06
-1.72597e-05
1.80387e-05
3.90971e-06
1.85685e-06
-1.6574e-06
-4.24715e-06
-2.02303e-05
2.07752e-05
5.23668e-06
1.59918e-06
9.00717e-09
-7.98757e-08
6.09342e-07
-9.1304e-09
6.48279e-08
-6.27345e-07
-2.26613e-06
2.76558e-06
-6.65666e-08
1.00822e-07
-9.86385e-07
-4.15865e-06
4.59327e-06
-1.02969e-07
1.26828e-07
-1.27739e-06
-5.82938e-06
6.21917e-06
-1.29072e-07
1.43838e-07
-1.51293e-06
-7.32353e-06
7.67006e-06
-1.44973e-07
1.46104e-07
-1.68223e-06
-8.64411e-06
8.94539e-06
-1.45893e-07
1.23728e-07
-1.77905e-06
-9.7852e-06
1.00471e-05
-1.22455e-07
5.55479e-08
-1.83559e-06
-1.07993e-05
1.10432e-05
-5.3998e-08
-8.89717e-08
-1.89878e-06
-1.17751e-05
1.20253e-05
8.91892e-08
-3.55425e-07
-1.97893e-06
-1.28241e-05
1.31144e-05
3.50933e-07
-7.91995e-07
-2.09251e-06
-1.4124e-05
1.45316e-05
7.7669e-07
-1.43315e-06
-2.41183e-06
-1.61111e-05
1.67958e-05
1.39516e-06
-2.24074e-06
-3.25455e-06
-1.94644e-05
2.05788e-05
2.16767e-06
-3.1979e-06
-4.70511e-06
-2.46524e-05
2.62437e-05
3.08033e-06
-4.27101e-06
-6.5792e-06
-3.13147e-05
3.28933e-05
4.15611e-06
4.4e-10
2.62271e-08
1.10269e-08
-4.23545e-10
3.45354e-09
-9.74052e-08
1.18858e-07
8.57961e-08
-3.31545e-09
5.25406e-09
-1.80305e-07
2.00388e-07
1.4043e-07
-5.07397e-09
6.13685e-09
-2.57603e-07
2.7479e-07
1.84752e-07
-5.86559e-09
6.57671e-09
-3.2393e-07
3.40462e-07
2.14125e-07
-6.11112e-09
6.54194e-09
-3.83045e-07
3.95794e-07
2.29849e-07
-6.04235e-09
5.40134e-09
-4.32283e-07
4.44719e-07
2.38259e-07
-4.95199e-09
1.57991e-09
-4.83013e-07
4.96195e-07
2.50274e-07
-1.23523e-09
-5.48284e-09
-5.36837e-07
5.48856e-07
2.71047e-07
5.51167e-09
-1.59404e-08
-5.87715e-07
6.04132e-07
3.01315e-07
1.54802e-08
-3.06169e-08
-6.6098e-07
6.79805e-07
3.61113e-07
2.91393e-08
-4.33338e-08
-7.15231e-07
7.17125e-07
3.99497e-07
4.06656e-08
-4.56815e-08
-6.85338e-07
6.5762e-07
3.72874e-07
4.2364e-08
-3.00942e-08
-4.99073e-07
4.23834e-07
2.42196e-07
2.74834e-08
-5.44108e-09
-1.63571e-07
6.1903e-08
5.02776e-09
2.59136e-08
6.71325e-09
2.45789e-08
7.12714e-09
3.90145e-09
-4.08616e-08
2.2982e-07
4.96006e-08
-3.76935e-09
3.02336e-08
-3.19596e-07
-8.57685e-07
1.04793e-06
3.87817e-07
-2.91402e-08
4.67037e-08
-5.24334e-07
-1.58881e-06
1.76451e-06
6.36898e-07
-4.49709e-08
5.60295e-08
-6.88929e-07
-2.26108e-06
2.41425e-06
8.31706e-07
-5.32829e-08
5.99866e-08
-7.91926e-07
-2.83976e-06
2.97066e-06
9.56122e-07
-5.67645e-08
5.85414e-08
-8.4498e-07
-3.3369e-06
3.45151e-06
1.02069e-06
-5.45228e-08
4.82608e-08
-8.78906e-07
-3.77474e-06
3.88213e-06
1.05749e-06
-4.45616e-08
1.77249e-08
-9.16596e-07
-4.20998e-06
4.31269e-06
1.10597e-06
-1.64091e-08
-4.04994e-08
-9.56323e-07
-4.63463e-06
4.76428e-06
1.1622e-06
3.71676e-08
-1.42678e-07
-1.10615e-06
-5.22e-06
5.38098e-06
1.34537e-06
1.32084e-07
-2.77645e-07
-1.31673e-06
-5.8807e-06
6.04856e-06
1.5832e-06
2.58798e-07
-4.19811e-07
-1.51517e-06
-6.53853e-06
6.67435e-06
1.87218e-06
3.8888e-07
-5.02248e-07
-1.56486e-06
-6.86556e-06
6.81975e-06
2.00988e-06
4.57187e-07
-1.28355e-06
-4.2556e-07
-6.20624e-06
5.8186e-06
3.80798e-07
1.80665e-06
-7.71063e-07
-1.83397e-07
-4.28555e-06
3.76547e-06
1.62464e-07
1.33182e-06
6.84289e-09
-7.13237e-08
4.21903e-07
7.7515e-08
-6.67303e-09
5.20473e-08
-5.60931e-07
-1.58064e-06
1.93465e-06
6.07667e-07
-5.06388e-08
8.02647e-08
-9.22851e-07
-2.93512e-06
3.24968e-06
9.95721e-07
-7.77082e-08
9.86542e-08
-1.19403e-06
-4.14395e-06
4.42451e-06
1.29059e-06
-9.47492e-08
1.07661e-07
-1.37568e-06
-5.21478e-06
5.45971e-06
1.49295e-06
-1.02696e-07
1.05833e-07
-1.46859e-06
-6.13618e-06
6.34142e-06
1.59659e-06
-9.97259e-08
8.81203e-08
-1.49357e-06
-6.91922e-06
7.11005e-06
1.61348e-06
-8.21272e-08
3.66267e-08
-1.55798e-06
-7.71256e-06
7.92379e-06
1.66186e-06
-3.42644e-08
-6.83926e-08
-1.68191e-06
-8.6002e-06
8.85154e-06
1.78725e-06
6.04276e-08
-2.47927e-07
-1.87211e-06
-9.64777e-06
9.92663e-06
1.96931e-06
2.29359e-07
-5.19271e-07
-2.12426e-06
-1.08851e-05
1.12686e-05
2.22315e-06
4.82561e-07
-8.83336e-07
-2.64972e-06
-1.26929e-05
1.32454e-05
2.75685e-06
8.13162e-07
-1.25644e-06
-3.26825e-06
-1.50386e-05
1.56951e-05
3.55437e-06
1.14171e-06
-1.4896e-06
-3.88484e-06
-1.7783e-05
1.84573e-05
4.53587e-06
1.32328e-06
-1.17074e-06
-4.51497e-06
-2.01878e-05
2.0576e-05
5.76346e-06
9.85331e-07
8.97492e-09
-9.28905e-08
6.04644e-07
-8.78151e-09
6.72889e-08
-7.19733e-07
-2.24973e-06
2.74401e-06
-6.58715e-08
1.02365e-07
-1.15309e-06
-4.1279e-06
4.56443e-06
-9.99828e-08
1.26331e-07
-1.49966e-06
-5.82002e-06
6.21993e-06
-1.22468e-07
1.38142e-07
-1.76217e-06
-7.36236e-06
7.72145e-06
-1.3276e-07
1.3538e-07
-1.91174e-06
-8.7225e-06
9.02674e-06
-1.28904e-07
1.10427e-07
-1.92819e-06
-9.86643e-06
1.01282e-05
-1.04297e-07
4.69714e-08
-1.93101e-06
-1.09047e-05
1.11656e-05
-4.42058e-08
-7.87131e-08
-2.01121e-06
-1.19732e-05
1.22583e-05
7.11901e-08
-3.06189e-07
-2.1651e-06
-1.31822e-05
1.35201e-05
2.82795e-07
-6.68975e-07
-2.41587e-06
-1.46988e-05
1.51708e-05
6.17756e-07
-1.17295e-06
-2.9516e-06
-1.69515e-05
1.77002e-05
1.07526e-06
-1.7734e-06
-4.03022e-06
-2.05437e-05
2.17139e-05
1.60656e-06
-2.3879e-06
-5.77303e-06
-2.59033e-05
2.74918e-05
2.09738e-06
-2.60916e-06
-8.13554e-06
-3.2299e-05
3.36269e-05
2.05575e-06
3.46764e-10
2.67153e-08
1.28936e-08
-3.14631e-10
2.68374e-09
-1.00031e-07
1.22367e-07
1.01997e-07
-2.41594e-09
4.07623e-09
-1.85493e-07
2.0603e-07
1.67127e-07
-3.58515e-09
4.57545e-09
-2.64943e-07
2.83055e-07
2.1861e-07
-3.97576e-09
4.57993e-09
-3.35161e-07
3.53637e-07
2.49374e-07
-4.21452e-09
4.54502e-09
-4.00252e-07
4.13615e-07
2.65834e-07
-4.25229e-09
3.6936e-09
-4.53413e-07
4.66625e-07
2.76862e-07
-3.44473e-09
7.69003e-10
-5.07624e-07
5.21941e-07
2.89289e-07
-8.75224e-10
-4.59282e-09
-5.6928e-07
5.85696e-07
3.21535e-07
3.89146e-09
-1.27204e-08
-6.35568e-07
6.52409e-07
3.70505e-07
1.11551e-08
-2.2889e-08
-7.01739e-07
7.16542e-07
4.27754e-07
2.00263e-08
-3.10077e-08
-7.43392e-07
7.41923e-07
4.60567e-07
2.70705e-08
-3.13465e-08
-6.91526e-07
6.58246e-07
3.8808e-07
2.73573e-08
-2.06452e-08
-5.17407e-07
4.62713e-07
2.35379e-07
1.86623e-08
-6.49947e-09
-2.98803e-07
2.52332e-07
1.24047e-07
6.69976e-09
3.16048e-09
-4.69159e-08
2.30478e-07
5.6293e-08
-2.89811e-09
2.42864e-08
-3.69743e-07
-8.62178e-07
1.0544e-06
4.43767e-07
-2.21502e-08
3.71193e-08
-6.03494e-07
-1.6005e-06
1.77591e-06
7.29979e-07
-3.35117e-08
4.30674e-08
-7.77951e-07
-2.27386e-06
2.42637e-06
9.31762e-07
-3.8986e-08
4.61762e-08
-8.67354e-07
-2.84255e-06
2.9758e-06
1.0414e-06
-4.24314e-08
4.24545e-08
-9.45412e-07
-3.39168e-06
3.52909e-06
1.12736e-06
-3.92516e-08
3.29436e-08
-1.00326e-06
-3.89751e-06
4.01373e-06
1.18216e-06
-3.05192e-08
1.19732e-08
-1.02793e-06
-4.34588e-06
4.43943e-06
1.20244e-06
-1.22282e-08
-2.56969e-08
-1.07512e-06
-4.76007e-06
4.88961e-06
1.22102e-06
2.13933e-08
-9.69867e-08
-1.23639e-06
-5.31433e-06
5.46218e-06
1.37643e-06
8.39647e-08
-1.90778e-07
-1.45086e-06
-5.91753e-06
6.06232e-06
1.61505e-06
1.65562e-07
-2.79753e-07
-1.60212e-06
-6.42154e-06
6.48794e-06
1.83632e-06
2.41911e-07
-3.1636e-07
-1.47367e-06
-6.44552e-06
6.3271e-06
1.80114e-06
2.72632e-07
-2.53797e-07
-1.09242e-06
-5.68205e-06
5.38195e-06
1.46715e-06
2.19629e-07
-1.13562e-07
-7.90016e-07
-4.45478e-06
4.17487e-06
1.19241e-06
1.00338e-07
5.79694e-09
-7.67018e-08
4.08585e-07
8.19014e-08
-5.37108e-09
4.39408e-08
-6.155e-07
-1.54041e-06
1.89644e-06
6.56265e-07
-4.05601e-08
6.54771e-08
-1.04262e-06
-2.9234e-06
3.2307e-06
1.1057e-06
-6.001e-08
7.8216e-08
-1.31545e-06
-4.12506e-06
4.41734e-06
1.41686e-06
-7.13262e-08
8.44597e-08
-1.49268e-06
-5.21389e-06
5.45514e-06
1.62066e-06
-7.74352e-08
8.11751e-08
-1.55853e-06
-6.12977e-06
6.33915e-06
1.6908e-06
-7.50451e-08
6.57425e-08
-1.55601e-06
-6.93775e-06
7.14092e-06
1.66386e-06
-6.12968e-08
2.83581e-08
-1.59481e-06
-7.77821e-06
7.9727e-06
1.70384e-06
-2.87594e-08
-3.37179e-08
-1.58919e-06
-8.53463e-06
8.76214e-06
1.71727e-06
2.69302e-08
-1.58803e-07
-1.69135e-06
-9.44884e-06
9.68853e-06
1.83221e-06
1.34578e-07
-3.41025e-07
-1.92784e-06
-1.05156e-05
1.08302e-05
2.06079e-06
2.90986e-07
-5.65886e-07
-2.35495e-06
-1.18969e-05
1.2289e-05
2.52577e-06
4.83555e-07
-7.69978e-07
-2.85579e-06
-1.35245e-05
1.39282e-05
3.19043e-06
6.52471e-07
-8.22674e-07
-3.20916e-06
-1.4987e-05
1.52532e-05
3.82136e-06
6.7869e-07
-5.16374e-07
-3.34802e-06
-1.56545e-05
1.5658e-05
4.28377e-06
4.04235e-07
7.57581e-09
-9.57397e-08
5.77463e-07
-6.96985e-09
5.71477e-08
-7.57619e-07
-2.16508e-06
2.65023e-06
-5.25936e-08
8.61553e-08
-1.24426e-06
-4.0275e-06
4.4669e-06
-7.89874e-08
1.02956e-07
-1.64023e-06
-5.75256e-06
6.16752e-06
-9.38301e-08
1.08883e-07
-1.92017e-06
-7.34612e-06
7.71177e-06
-9.88095e-08
1.03791e-07
-2.03347e-06
-8.72112e-06
9.02154e-06
-9.41443e-08
8.50003e-08
-1.95268e-06
-9.82425e-06
1.00715e-05
-7.85913e-08
3.85386e-08
-1.92208e-06
-1.08641e-05
1.11364e-05
-3.85927e-08
-4.09362e-08
-1.94791e-06
-1.19151e-05
1.2198e-05
3.05179e-08
-2.00292e-07
-2.0898e-06
-1.31014e-05
1.34074e-05
1.72849e-07
-4.42215e-07
-2.31589e-06
-1.44642e-05
1.48817e-05
3.82241e-07
-7.57912e-07
-2.84707e-06
-1.63951e-05
1.70005e-05
6.53318e-07
-1.08944e-06
-3.75896e-06
-1.91478e-05
1.99683e-05
9.27026e-07
-1.27805e-06
-4.96141e-06
-2.26242e-05
2.35201e-05
1.04973e-06
-9.09283e-07
-6.25143e-06
-2.58624e-05
2.64183e-05
6.78258e-07
2.00287e-10
2.47298e-08
1.26798e-08
-1.55527e-10
1.51549e-09
-9.37293e-08
1.15497e-07
1.0183e-07
-1.17192e-09
2.07817e-09
-1.80052e-07
2.02339e-07
1.74199e-07
-1.61091e-09
2.21815e-09
-2.64574e-07
2.82221e-07
2.32229e-07
-1.75651e-09
2.98323e-09
-3.2544e-07
3.39263e-07
2.49098e-07
-2.3591e-09
3.19769e-09
-3.86274e-07
4.02933e-07
2.65439e-07
-2.57259e-09
2.80768e-09
-4.50489e-07
4.6474e-07
2.82864e-07
-2.32693e-09
1.473e-09
-5.05266e-07
5.18807e-07
2.92317e-07
-1.39974e-09
-1.29534e-09
-5.60897e-07
5.74718e-07
3.12477e-07
6.26425e-10
-5.41975e-09
-6.14647e-07
6.27477e-07
3.4061e-07
3.67324e-09
-1.03799e-08
-6.62812e-07
6.72137e-07
3.74522e-07
7.39932e-09
-1.44898e-08
-6.83465e-07
6.78609e-07
3.74479e-07
1.06174e-08
-1.53867e-08
-6.38259e-07
6.18788e-07
2.9816e-07
1.16159e-08
-1.19784e-08
-5.51611e-07
5.27852e-07
2.16647e-07
9.38386e-09
-5.09736e-09
-4.68826e-07
4.56312e-07
1.76554e-07
4.05918e-09
1.86964e-09
-4.73039e-08
2.20292e-07
5.67674e-08
-1.45375e-09
1.426e-08
-3.78308e-07
-8.31224e-07
1.02102e-06
4.54467e-07
-1.10925e-08
2.11457e-08
-6.29425e-07
-1.57312e-06
1.75095e-06
7.60119e-07
-1.64565e-08
2.48731e-08
-8.13245e-07
-2.25529e-06
2.40968e-06
9.76383e-07
-1.94658e-08
2.88075e-08
-9.04384e-07
-2.83145e-06
2.96605e-06
1.09082e-06
-2.26804e-08
2.89494e-08
-9.773e-07
-3.3824e-06
3.52077e-06
1.17376e-06
-2.32287e-08
2.52403e-08
-1.025e-06
-3.90307e-06
4.01977e-06
1.21646e-06
-2.06712e-08
1.48901e-08
-1.04304e-06
-4.3575e-06
4.46683e-06
1.2242e-06
-1.30134e-08
-6.06146e-09
-1.08947e-06
-4.80064e-06
4.91506e-06
1.25418e-06
2.61988e-09
-4.05975e-08
-1.19363e-06
-5.26629e-06
5.38615e-06
1.35717e-06
2.81252e-08
-8.5932e-08
-1.35327e-06
-5.74576e-06
5.85357e-06
1.54196e-06
6.19295e-08
-1.30652e-07
-1.41642e-06
-6.07902e-06
6.10114e-06
1.65515e-06
9.68492e-08
-1.54361e-07
-1.22662e-06
-5.99418e-06
5.90957e-06
1.49681e-06
1.17512e-07
-1.3021e-07
-9.81262e-07
-5.55698e-06
5.40477e-06
1.25393e-06
1.0029e-07
-5.96454e-08
-8.29826e-07
-5.02473e-06
4.94619e-06
1.11718e-06
4.54366e-08
3.52951e-09
-7.47822e-08
3.84933e-07
7.85829e-08
-2.75209e-09
2.66435e-08
-6.12048e-07
-1.46838e-06
1.81466e-06
6.4525e-07
-2.08327e-08
3.95642e-08
-1.0684e-06
-2.84697e-06
3.17632e-06
1.13184e-06
-3.08334e-08
4.64057e-08
-1.41894e-06
-4.14966e-06
4.45468e-06
1.5424e-06
-3.60672e-08
5.23024e-08
-1.56151e-06
-5.20548e-06
5.43237e-06
1.69357e-06
-4.08903e-08
5.20288e-08
-1.63367e-06
-6.13241e-06
6.35805e-06
1.75905e-06
-4.1032e-08
4.41794e-08
-1.6492e-06
-7.00088e-06
7.20812e-06
1.7613e-06
-3.5338e-08
2.57227e-08
-1.63656e-06
-7.81239e-06
8.00404e-06
1.74122e-06
-2.12264e-08
-9.22188e-09
-1.61505e-06
-8.56337e-06
8.75109e-06
1.71318e-06
5.74279e-09
-6.84325e-08
-1.66784e-06
-9.3282e-06
9.52872e-06
1.76064e-06
5.00981e-08
-1.54056e-07
-1.84716e-06
-1.01753e-05
1.04048e-05
1.94128e-06
1.1422e-07
-2.60545e-07
-2.1064e-06
-1.11116e-05
1.13424e-05
2.24557e-06
1.94479e-07
-3.47109e-07
-2.23721e-06
-1.19377e-05
1.20847e-05
2.52222e-06
2.58829e-07
-3.39145e-07
-2.26102e-06
-1.24229e-05
1.2511e-05
2.71938e-06
2.49429e-07
-1.76976e-07
-2.40401e-06
-1.26718e-05
1.26972e-05
2.96422e-06
1.25851e-07
4.50917e-09
-8.95394e-08
5.3716e-07
-3.50604e-09
3.40147e-08
-7.45837e-07
-2.0616e-06
2.54562e-06
-2.63778e-08
5.04808e-08
-1.29269e-06
-3.9529e-06
4.40622e-06
-3.89299e-08
5.97485e-08
-1.76521e-06
-5.74684e-06
6.18101e-06
-4.58936e-08
6.34446e-08
-2.00499e-06
-7.3383e-06
7.68228e-06
-4.91846e-08
6.15597e-08
-2.07058e-06
-8.66924e-06
8.97211e-06
-4.85291e-08
5.58331e-08
-1.9948e-06
-9.79954e-06
1.00545e-05
-4.49519e-08
3.77741e-08
-1.89581e-06
-1.08159e-05
1.10655e-05
-3.10549e-08
-1.41394e-08
-1.86161e-06
-1.18216e-05
1.20828e-05
1.09958e-08
-9.79009e-08
-1.92074e-06
-1.28692e-05
1.31358e-05
7.28818e-08
-2.1151e-07
-2.11458e-06
-1.40327e-05
1.43737e-05
1.58147e-07
-3.60599e-07
-2.53912e-06
-1.55354e-05
1.59671e-05
2.70129e-07
-4.96654e-07
-3.13238e-06
-1.73599e-05
1.78424e-05
3.7029e-07
-5.15101e-07
-3.77628e-06
-1.92535e-05
1.96829e-05
3.76591e-07
-2.55941e-07
-4.34368e-06
-2.06981e-05
2.09114e-05
1.73131e-07
-1.34855e-07
-6.57219e-09
4.88394e-08
1.984e-08
5.52982e-09
2.04234e-08
5.39005e-09
1.252e-07
-2.16725e-06
6.44118e-07
-1.24227e-07
-3.26948e-07
1.7311e-06
6.60412e-09
4.53181e-07
-6.15252e-09
-1.10254e-06
-3.11104e-08
-2.97166e-08
-2.83757e-08
-3.25817e-08
-5.42424e-06
-2.86255e-05
-4.25656e-06
2.97424e-05
9.1776e-08
-2.21887e-06
-9.00652e-08
-7.96244e-06
2.22065e-06
-2.30098e-06
-3.59877e-07
1.83815e-06
1.22785e-07
4.93173e-07
-1.16887e-06
6.50454e-09
-3.52378e-08
-3.09035e-08
-3.39244e-08
-3.20902e-08
-1.5755e-07
-5.88412e-09
6.05948e-08
2.33728e-08
6.48858e-09
2.3883e-08
6.33894e-09
9.94526e-08
-2.45707e-06
7.80724e-07
-1.09091e-07
-4.00251e-07
1.96939e-06
3.46968e-09
5.43476e-07
-4.81314e-09
-1.26138e-06
-3.8918e-08
-3.60202e-08
-3.54932e-08
-3.93941e-08
-2.40632e-06
-8.41531e-06
2.41876e-06
9.4576e-08
-8.25993e-06
-3.34034e-05
-3.19109e-06
3.49988e-05
-1.09992e-05
2.44411e-07
-3.68519e-05
-3.00269e-07
-2.74171e-08
-2.5115e-07
-2.71729e-08
-2.46409e-06
-3.99655e-07
1.9879e-06
8.95776e-08
5.44683e-07
-1.28986e-06
1.884e-09
-4.11461e-08
-3.66684e-08
-3.99912e-08
-3.79426e-08
-2.48016e-07
-5.95787e-09
1.88678e-07
1.01693e-07
-2.01231e-11
-1.09911e-07
5.51775e-08
-2.3468e-10
1.39955e-11
1.03461e-10
-8.65833e-11
-2.73502e-06
7.68489e-07
7.04742e-08
-7.54151e-08
-4.54687e-07
2.4025e-06
6.58612e-07
-4.16597e-09
1.8271e-09
-3.41113e-07
-1.93907e-06
-3.81022e-06
-1.89818e-05
-1.66617e-06
1.94475e-05
4.63357e-06
1.8368e-07
-4.69721e-06
-1.72853e-07
-1.98691e-05
6.05001e-06
3.52837e-06
-2.73651e-05
-3.5358e-06
2.84423e-05
-5.42278e-06
7.05847e-07
2.02973e-06
2.02838e-06
1.8421e-06
-6.79914e-07
-2.97372e-05
-7.75666e-06
-4.05639e-06
-2.32248e-05
-3.24216e-06
2.45852e-05
4.04041e-06
-5.08776e-06
-4.05954e-06
-2.73498e-05
-5.17481e-06
-2.12983e-05
6.731e-06
1.76534e-07
-2.96956e-05
3.10744e-05
3.40939e-06
-6.39212e-06
2.21427e-06
2.5819e-06
2.39214e-06
-3.27761e-05
6.85119e-07
-8.91063e-06
-4.6737e-06
-2.09398e-05
-1.34432e-06
2.14454e-05
5.92576e-06
-5.4965e-06
7.48111e-08
-1.14443e-07
-2.19548e-05
7.28283e-06
2.26813e-06
-3.14931e-05
-2.71899e-06
3.29174e-05
-7.72357e-06
1.95797e-07
-3.80288e-07
-3.457e-05
-1.00183e-05
-6.09423e-06
3.90321e-06
-2.96343e-05
-5.74299e-06
-2.62207e-05
-2.6603e-06
2.79433e-05
-7.56838e-06
2.677e-06
-3.15942e-06
-3.1608e-05
4.14685e-06
-4.19365e-06
8.29954e-06
8.4417e-06
8.69968e-06
8.89636e-06
-7.17335e-06
3.52537e-05
3.75122e-06
-7.52738e-06
-3.31969e-05
9.26008e-06
3.69907e-06
9.63142e-06
9.0548e-06
9.34205e-06
-8.29777e-06
-1.04629e-05
-3.51642e-05
5.087e-08
-6.81638e-06
-2.75097e-05
-1.20566e-06
2.82133e-05
-7.95925e-06
-1.68241e-07
1.34099e-07
-2.90126e-05
2.80483e-12
-7.35205e-11
2.63447e-11
2.57941e-11
-2.63894e-12
-3.20008e-12
5.88043e-10
-1.89234e-10
2.7968e-12
-1.25583e-09
1.1025e-09
-3.33025e-08
1.00861e-08
-9.97064e-10
-3.4177e-09
1.67699e-08
2.63277e-05
-4.21025e-06
-2.55471e-05
-4.14556e-06
7.86697e-06
7.42341e-06
7.97211e-06
7.50893e-06
-5.87739e-06
6.96929e-06
7.0349e-06
-4.55442e-06
8.46392e-07
-1.71824e-06
7.93277e-06
-8.41908e-07
1.7076e-06
1.03351e-09
-3.63981e-08
1.15991e-08
-9.55383e-10
1.83082e-08
-3.93503e-09
-7.4439e-11
2.66663e-11
2.63811e-11
2.61626e-12
6.00106e-10
-1.93334e-10
-1.27268e-09
-2.59244e-12
-3.41405e-08
1.04993e-08
9.85224e-10
-3.56152e-09
1.71791e-08
-3.31433e-12
6.74111e-10
-1.37347e-09
2.68563e-12
-2.1736e-10
2.62723e-12
-7.99729e-11
2.95889e-11
-2.49569e-12
2.86353e-11
-3.69224e-08
1.1818e-08
1.85827e-08
9.00779e-10
-4.01897e-09
2.28874e-12
-8.68435e-11
3.10326e-11
3.16829e-11
-2.17583e-12
-5.58677e-12
7.40049e-10
-2.40124e-10
4.52532e-12
-1.49167e-09
6.81039e-10
-1.38435e-09
-2.1978e-10
-2.97028e-12
8.8588e-10
-3.89268e-08
1.23815e-08
-8.30881e-10
-4.2425e-09
1.97071e-08
-8.06546e-11
2.98948e-11
2.88771e-11
2.42362e-12
-1.89493e-06
8.37789e-06
1.89807e-06
8.46714e-07
6.54272e-08
-2.84624e-06
-8.55577e-08
-9.45694e-06
2.92864e-06
7.49991e-07
-2.35662e-06
2.42637e-06
-8.14432e-07
9.39506e-06
3.58116e-05
-8.09283e-06
-3.38414e-05
-3.00919e-06
3.62358e-05
2.29542e-06
-9.04692e-06
9.30883e-06
9.59079e-06
9.22237e-06
9.47099e-06
-8.95375e-06
-2.90171e-06
4.37888e-08
-9.49263e-06
2.98713e-06
-9.9705e-06
-5.55492e-07
-6.0371e-07
-4.75552e-07
-7.09066e-07
1.53781e-06
-2.43337e-06
2.50659e-06
9.42602e-06
6.8924e-07
-5.71492e-08
1.70099e-08
1.08078e-09
-8.10396e-10
3.42626e-08
-7.14571e-09
-8.87985e-11
3.17657e-11
3.22059e-11
2.11193e-12
7.5413e-10
-2.45714e-10
-1.52498e-09
-5.5415e-12
-4.05681e-13
6.16176e-12
-9.87528e-12
1.39026e-13
5.12232e-14
1.33071e-13
5.38847e-14
-4.01459e-08
1.26565e-08
7.6961e-10
-4.38434e-09
2.04655e-08
1.90008e-09
-2.35892e-11
-4.55085e-09
1.36486e-11
-9.08864e-10
-3.37769e-10
9.44678e-12
1.22086e-10
-4.08029e-12
1.63485e-10
-4.38429e-07
-3.55504e-08
3.70116e-07
1.95437e-07
1.31264e-08
-1.29904e-08
8.58681e-08
-2.1326e-07
3.4349e-07
-3.8639e-06
1.03645e-06
-3.39847e-07
-6.94592e-07
3.50554e-06
1.80435e-07
7.44285e-07
-1.79042e-07
-4.20029e-07
-2.62999e-06
-3.8798e-06
-2.35631e-07
3.39682e-06
1.13658e-06
1.53829e-08
-1.41321e-08
-2.69561e-06
1.01035e-06
1.14996e-06
-1.45746e-05
-1.15426e-06
1.465e-05
-2.79239e-06
1.12197e-07
-1.04414e-07
-1.45505e-05
-3.1706e-06
9.50307e-08
1.29457e-08
-2.26648e-07
-4.10083e-06
-7.78374e-07
3.72328e-06
3.39002e-07
8.21357e-07
-4.64117e-07
1.77214e-07
-2.79133e-06
-4.98698e-07
-3.24805e-08
4.22873e-07
2.45436e-07
1.08591e-08
-1.17337e-08
1.06134e-07
-2.46898e-07
2.82013e-07
-4.35618e-06
1.31031e-06
-3.06797e-07
-8.73739e-07
3.95429e-06
1.44817e-07
9.07536e-07
-1.5838e-07
-5.1485e-07
-2.97278e-06
-1.05789e-08
-3.06374e-07
1.01449e-08
3.57156e-08
1.29672e-08
1.27225e-08
-3.19814e-09
-3.11277e-09
-6.36005e-09
-6.53698e-09
9.65076e-08
-1.13271e-10
2.943e-10
7.54102e-11
2.98448e-10
1.09463e-09
1.12444e-10
-3.19031e-09
2.93747e-07
2.53242e-08
-2.5718e-08
1.58632e-07
-5.19838e-07
5.74104e-08
6.25156e-09
2.18939e-08
6.02404e-09
2.23094e-08
5.91319e-09
-1.49355e-07
-1.07698e-08
3.50148e-08
1.2166e-08
1.24546e-08
-2.89926e-09
-3.0129e-09
-6.16912e-09
-5.92062e-09
9.04503e-08
2.4322e-08
1.69317e-07
-5.42343e-07
1.06386e-10
3.16514e-10
7.93361e-11
3.14056e-10
1.20646e-09
-1.08917e-10
-3.393e-09
-2.86269e-06
1.51091e-08
1.10027e-06
-1.54799e-05
1.55883e-05
1.11139e-06
-3.08447e-06
-1.55279e-05
1.08111e-07
-3.46954e-06
-4.33039e-06
-2.03215e-07
3.79543e-06
1.36131e-06
7.22768e-09
-1.06079e-08
-3.02695e-06
1.1859e-06
8.23362e-07
-1.58974e-05
-9.41494e-07
1.59561e-05
-3.3355e-06
4.6822e-08
-7.12329e-08
-1.58795e-05
-3.654e-06
1.06433e-07
1.0014e-08
-2.51886e-07
-4.30812e-06
-8.55602e-07
3.91618e-06
2.53807e-07
8.93875e-07
-5.10133e-07
1.30413e-07
-2.96609e-06
-5.08024e-07
-2.27109e-08
4.45198e-07
2.34789e-07
9.60534e-09
-9.53924e-09
1.30047e-07
-3.13597e-07
-4.12279e-06
1.12884e-06
1.75708e-07
-1.99441e-07
-7.82104e-07
3.79944e-06
8.42999e-07
9.72059e-08
-1.06508e-07
-5.2511e-07
-3.09216e-06
-8.33163e-09
-3.86158e-07
9.11359e-09
4.73084e-08
2.46135e-08
1.84728e-08
-5.29127e-09
-4.17836e-09
-7.87247e-09
-9.16822e-09
1.17082e-07
-9.40922e-11
3.51065e-10
9.19958e-11
3.63646e-10
1.33422e-09
9.19577e-11
-3.82224e-09
3.41136e-07
1.9531e-08
-2.10927e-08
1.799e-07
-5.85477e-07
6.69306e-08
5.0894e-09
2.80219e-08
9.18165e-09
3.24349e-08
7.8523e-09
-1.77455e-07
-8.8049e-09
4.2783e-08
1.45833e-08
1.58481e-08
-3.52809e-09
-3.75396e-09
-7.37378e-09
-7.073e-09
1.05903e-07
1.91871e-08
1.8809e-07
-6.24135e-07
1.35932e-10
9.98661e-10
1.96314e-10
6.88628e-10
2.03034e-09
-8.37295e-11
-5.68507e-09
-3.01872e-06
3.52294e-09
1.16086e-06
-1.52996e-05
1.5287e-05
-3.21466e-06
6.9583e-07
5.19874e-06
-1.51317e-05
-3.46617e-06
2.24548e-08
-4.32087e-06
-1.27287e-07
3.96523e-06
1.21068e-06
-7.00322e-09
3.6007e-09
-3.46129e-06
1.13893e-06
3.64855e-06
-1.28331e-05
3.78201e-07
-4.67992e-07
-2.64183e-06
1.26825e-05
3.90262e-06
-2.31995e-08
1.22923e-08
-2.73291e-06
-1.23945e-05
-1.96782e-07
9.57619e-08
-4.66981e-10
-2.93755e-06
-4.94624e-07
2.67524e-06
6.50288e-08
7.26373e-07
-4.23369e-07
-2.32173e-06
-6.69317e-09
-4.37188e-07
-5.94403e-09
4.18965e-07
1.70685e-07
-1.35965e-09
1.19792e-09
-4.01035e-07
1.69703e-07
-3.53329e-06
8.32065e-07
4.1985e-08
-5.0741e-08
-5.77062e-07
3.42459e-06
8.51156e-07
-1.15722e-08
1.08273e-08
-5.79111e-07
-3.30361e-06
-2.5674e-07
1.0759e-08
3.18621e-08
1.15964e-08
-2.58312e-09
-5.16047e-09
7.34847e-08
4.30317e-08
1.93516e-08
5.28181e-09
-1.24438e-07
2.9067e-10
7.27696e-11
2.87705e-10
1.04864e-09
-1.14163e-10
-3.11386e-09
-2.5516e-08
2.77374e-07
1.44028e-07
-4.89298e-07
1.26701e-07
-4.51309e-07
3.24284e-08
1.18728e-08
1.16501e-08
-2.77915e-09
-2.66721e-09
-5.39429e-09
-5.67239e-09
8.26433e-08
1.57879e-07
1.27166e-08
-9.29567e-09
-5.50917e-09
3.35319e-08
8.68476e-08
-4.52037e-07
-1.01755e-06
-2.98295e-08
-2.72379e-08
4.04676e-07
2.75176e-11
-5.75178e-10
-6.79057e-10
-6.64328e-10
-2.3791e-11
-2.84914e-08
1.30317e-08
-3.68599e-08
-1.76707e-07
3.73364e-08
-1.36567e-06
4.86061e-07
-1.25673e-06
4.31509e-07
1.27943e-08
-9.63575e-09
-5.89961e-09
-5.66976e-09
3.4965e-08
3.41348e-08
8.90995e-08
9.17762e-08
-4.88558e-07
-1.25427e-08
2.04779e-07
1.19264e-08
-1.12801e-08
-6.77197e-09
-6.59196e-09
3.82101e-08
3.75514e-08
9.86187e-08
1.00336e-07
-5.38721e-07
-6.93042e-10
-6.13145e-10
-7.07928e-10
-2.92615e-08
2.93588e-11
1.35737e-08
-1.92628e-07
3.6545e-08
-1.44944e-06
5.31085e-07
-1.21591e-06
5.86063e-09
-3.63026e-08
-3.3887e-08
-3.72171e-08
-3.3036e-08
5.21927e-07
-1.09295e-08
-6.14484e-09
-6.38118e-09
3.5903e-08
3.67696e-08
9.66733e-08
9.42696e-08
-5.1718e-07
1.93625e-11
-7.76925e-10
-6.64882e-10
-7.66739e-10
-3.11693e-08
-2.53925e-11
1.49026e-08
3.45331e-08
-1.50714e-06
5.62966e-07
-3.15566e-07
9.50838e-09
3.7495e-08
1.31838e-08
1.34003e-08
-3.26488e-09
-3.31969e-09
-6.76996e-09
-6.66169e-09
1.00269e-07
5.95645e-08
2.30304e-08
6.12994e-09
2.26651e-08
6.23453e-09
-1.53765e-07
3.43567e-10
8.53731e-11
3.37754e-10
1.29253e-09
-9.70592e-11
-3.66581e-09
-2.28282e-08
3.24435e-07
1.77773e-07
-5.68415e-07
1.75311e-07
-5.5706e-07
3.80405e-08
1.4001e-08
1.36378e-08
-3.42969e-09
-3.36492e-09
-6.84373e-09
-6.94409e-09
1.02535e-07
3.19131e-10
8.13936e-11
3.22276e-10
1.2316e-09
1.03589e-10
-3.4507e-09
2.12393e-07
1.10181e-08
-6.91014e-09
-1.20145e-08
-7.03272e-09
3.87854e-08
3.93543e-08
1.02937e-07
1.01646e-07
-5.53477e-07
-1.2437e-06
-3.84431e-08
-3.44822e-08
-3.78673e-08
-3.50224e-08
5.37935e-07
-2.62943e-11
-7.26802e-10
-8.51079e-10
-8.36574e-10
1.09298e-11
-3.33971e-08
1.60594e-08
-3.15934e-08
-2.16884e-07
2.81529e-08
-1.55814e-06
5.84635e-07
-7.84932e-10
-6.87804e-10
-7.92884e-10
-3.16436e-08
1.11572e-11
1.52026e-08
-1.53987e-06
5.79974e-07
9.97989e-09
-1.2168e-08
-7.30383e-09
-7.14991e-09
4.09134e-08
4e-08
1.04183e-07
1.05978e-07
-5.66686e-07
-9.13007e-09
2.39576e-07
9.10716e-09
-1.44372e-08
-1.16695e-08
-9.11291e-09
6.25528e-08
5.08972e-08
1.21688e-07
1.38064e-07
-6.63029e-07
-8.66731e-10
-7.76163e-10
-8.92385e-10
-3.46916e-08
-4.53108e-11
1.65323e-08
-2.22164e-07
2.47671e-08
-1.58401e-06
5.82965e-07
-1.37806e-06
2.06871e-10
-4.32261e-08
-4.50793e-08
-4.79525e-08
-4.01622e-08
5.56461e-07
-1.32934e-08
-7.53046e-09
-8.04956e-09
4.23984e-08
4.53083e-08
1.13501e-07
1.08569e-07
-5.91744e-07
-2.13509e-10
-1.95061e-09
-1.36505e-09
-1.49666e-09
-5.15162e-08
1.19263e-10
2.22129e-08
2.23559e-08
-1.66101e-06
5.88757e-07
-7.36858e-08
2.14572e-08
5.13625e-08
-1.09276e-08
1.27318e-09
1.46861e-12
1.983e-13
3.93725e-13
7.71057e-10
-1.43914e-09
-2.08872e-12
6.11742e-08
-1.37639e-07
-4.50362e-10
-2.10727e-10
-6.49972e-10
-1.62234e-10
2.09553e-09
-4.04284e-07
1.5014e-07
-3.30935e-10
4.46448e-10
-4.44421e-10
2.2841e-10
-7.22488e-10
1.23517e-08
-3.02046e-08
-5.26494e-09
-1.86255e-10
6.90906e-12
1.61719e-11
7.89161e-12
-4.93411e-07
1.63233e-07
-6.8337e-10
-1.71524e-09
-1.09499e-09
-9.35198e-10
6.11273e-09
-4.57128e-09
1.79078e-09
2.7646e-09
1.45429e-10
-2.78712e-11
-8.23012e-12
-2.42211e-11
1.30304e-15
1.86231e-13
-1.49913e-12
-3.7268e-15
4.78788e-11
3.21621e-10
-1.23301e-09
-1.47348e-10
-4.32361e-11
5.26956e-10
-2.87755e-12
-7.17188e-11
2.66711e-12
2.43609e-11
2.57582e-11
-4.92915e-11
3.05942e-10
-1.20522e-09
5.16748e-10
4.36765e-11
-1.39784e-10
-9.98972e-16
1.89603e-13
3.48664e-15
-1.51915e-12
8.21025e-16
-1.6533e-12
3.49693e-13
-3.22393e-15
4.04611e-12
5.55401e-10
-3.16096e-12
-1.21501e-09
-1.80426e-10
5.72036e-11
-3.02164e-09
1.01299e-09
1.99028e-09
-5.18501e-11
-4.09569e-10
-5.80194e-11
-2.93474e-09
9.57337e-10
-3.86561e-10
1.92661e-09
5.20571e-11
-3.91876e-16
-1.67808e-12
2.79054e-15
3.5714e-13
-1.65234e-12
3.33162e-15
3.49816e-13
5.47008e-10
3.61632e-12
-1.20397e-09
-1.78083e-10
-2.90946e-09
9.3757e-10
-3.805e-10
-5.30743e-11
1.91307e-09
1.86338e-13
3.86296e-15
-1.49792e-12
-7.15158e-11
-2.73468e-12
2.40101e-11
2.57345e-11
3.00414e-10
-1.19986e-09
5.18028e-10
-4.51648e-11
-1.38094e-10
1.79189e-06
1.85292e-07
-4.05584e-07
-1.84814e-07
-1.81431e-06
2.8327e-07
-3.02557e-07
1.80381e-06
-2.81908e-07
-1.41555e-07
-1.85119e-06
-4.38097e-07
1.84819e-06
1.42857e-07