/*--------------------------------*- C++ -*----------------------------------*\
| =========                 |                                                 |
| \\      /  F ield         | OpenFOAM: The Open Source CFD Toolbox           |
|  \\    /   O peration     | Version:  2012                                  |
|   \\  /    A nd           | Website:  www.openfoam.com                      |
|    \\/     M anipulation  |                                                 |
\*---------------------------------------------------------------------------*/
FoamFile
{
    version     2.0;
    format      ascii;
    class       volScalarField;
    location    "0.107/fluid";
    object      p;
}
// * * * * * * * * * * * * * * * * * * * * * * * * * * * * * * * * * * * * * //

dimensions      [0 2 -2 0 0 0 0];


internalField   nonuniform List<scalar> 
16422
(
0.122482
0.121847
0.121937
0.121796
0.121909
0.122213
0.122739
0.123576
0.124869
0.126889
0.130107
0.135847
0.14967
0.196366
0.343515
0.12235
0.121802
0.121887
0.121728
0.121822
0.122096
0.122572
0.123336
0.124519
0.126308
0.128939
0.13261
0.136743
0.13408
0.081255
0.122271
0.121711
0.121777
0.121585
0.12163
0.121829
0.122193
0.122797
0.123761
0.125282
0.127655
0.131205
0.13563
0.135457
0.0987459
0.122187
0.121605
0.121638
0.121397
0.12137
0.12146
0.12166
0.122022
0.122655
0.123785
0.125962
0.130712
0.143264
0.185848
0.363867
0.12234
0.121686
0.121723
0.121483
0.121439
0.121494
0.121624
0.12184
0.122155
0.122593
0.123298
0.124835
0.130633
0.158642
0.276765
0.122205
0.121641
0.121675
0.121421
0.12136
0.121389
0.121481
0.121644
0.121884
0.122186
0.122489
0.122596
0.121706
0.114806
0.073222
0.122125
0.121552
0.12157
0.121288
0.121185
0.121153
0.121157
0.1212
0.121285
0.121416
0.121576
0.121557
0.120159
0.111586
0.0762024
0.122038
0.121446
0.121437
0.121114
0.12095
0.120827
0.120701
0.120558
0.120402
0.12027
0.120323
0.12104
0.12371
0.130237
0.120984
0.122225
0.12155
0.121539
0.121211
0.121027
0.120859
0.120638
0.120301
0.11974
0.118759
0.117063
0.114309
0.110056
0.102694
0.0631946
0.122087
0.121506
0.121493
0.121154
0.120955
0.120766
0.120517
0.120142
0.119529
0.118471
0.116591
0.11317
0.106659
0.0927494
0.0589397
0.122004
0.121418
0.121392
0.121029
0.120795
0.120556
0.120239
0.119775
0.119053
0.117885
0.115926
0.112453
0.105749
0.0917204
0.0641396
0.121916
0.121313
0.121265
0.120866
0.120581
0.120268
0.119848
0.119244
0.118349
0.117003
0.114964
0.111799
0.106492
0.0959478
0.0719382
0.122159
0.121469
0.121419
0.121032
0.120754
0.120439
0.119984
0.119277
0.118128
0.116196
0.112923
0.107459
0.0982515
0.0826104
0.0547785
0.122018
0.121425
0.121375
0.120977
0.120687
0.120353
0.119876
0.119141
0.117953
0.115977
0.112643
0.106992
0.0974595
0.0817374
0.0576337
0.121934
0.121337
0.121276
0.120857
0.120536
0.120159
0.119627
0.118821
0.117553
0.115504
0.112141
0.106554
0.0972622
0.0823083
0.0609597
0.121843
0.121233
0.121153
0.120702
0.120335
0.119896
0.119278
0.11836
0.11696
0.114788
0.111374
0.105953
0.0972876
0.0836373
0.063898
0.345149
0.092243
-0.124091
0.384129
-0.145509
0.0929286
-0.114018
0.312437
0.0859478
-0.086989
-0.142255
0.161297
0.00878471
0.0804269
-0.0706903
0.0933121
-0.0168645
0.062507
0.0101356
0.0986289
0.00545353
0.245955
-0.0861131
0.193882
0.315191
0.0132469
0.234119
-0.0711375
0.0815027
0.0207134
0.132419
0.0134868
0.297192
0.143921
0.162746
0.421679
0.310003
0.34983
0.023926
0.0771378
0.0409201
0.38494
-0.619492
0.0295546
0.380081
0.438318
0.425439
0.242299
0.0397896
0.385014
-0.615465
0.0320938
-0.582343
0.384681
0.0431769
0.372668
-0.521079
-0.576018
0.0519547
0.384031
0.239828
-0.0883574
0.181671
0.220509
0.140456
0.211592
-0.0591831
0.0834757
0.149836
0.0284678
0.367701
-0.506922
-0.562221
0.0581041
-0.268459
-0.0133269
0.201019
0.302554
0.138889
0.11643
0.079645
-0.0619268
0.082562
-0.00604176
0.299401
0.135525
0.115204
0.171739
0.267472
0.121182
0.103641
0.199236
0.351179
0.195422
0.339494
0.199084
0.192302
0.349215
-0.0527383
0.084413
0.00465818
0.0764422
-0.0337032
0.0742551
0.015172
0.239527
0.11505
0.0966956
0.113561
0.105838
0.09676
0.0745353
0.131516
0.300189
0.155888
0.207201
0.175641
0.123239
0.0796666
-0.0238875
0.0709127
0.0198107
0.0630399
0.017263
0.0638321
0.0324704
-0.0642384
0.0563421
0.00696685
0.0593614
0.0351896
0.0581623
0.0375915
0.196219
0.345352
0.351178
0.196771
0.196918
0.197796
-0.0334807
-0.124855
-0.396011
-0.0228592
-0.0230597
-0.0303538
-0.0198232
-0.389886
-0.0162817
-0.108464
-0.0245201
-0.368984
-0.013353
0.197491
0.330862
0.322243
0.174937
0.186215
0.191094
0.346564
-0.0140449
-0.098331
-0.323213
-0.00371421
-0.360412
-0.00830564
-0.0089144
-0.00567266
-0.305821
0.00192633
-0.0459431
-0.00206148
-0.173483
0.0073841
0.0225008
-0.314655
0.0260764
-5.14458e-05
-0.140148
0.0331664
0.0387262
-0.0581638
0.274121
0.384042
0.272724
-0.0528797
-0.500567
-0.629612
-0.261869
-0.268482
-0.490973
-0.501979
-0.632491
-0.269889
-0.0595907
0.383745
0.272215
0.0806288
0.578731
-0.0690666
-0.440053
-0.428652
-0.063485
-0.0704642
-0.42263
0.0847084
0.610661
0.588413
0.0960341
-0.0439207
0.274689
0.385423
0.275792
-0.0511459
-0.476222
-0.259489
-0.602852
-0.489603
-0.251159
-0.474458
-0.238423
-0.598013
-0.248614
-0.455385
-0.0414569
0.276707
0.385245
0.276365
-0.0312827
-0.00254514
0.272852
0.379987
0.277364
0.0312565
-0.417069
-0.548106
-0.195745
-0.216133
-0.362921
-0.421896
-0.234967
-0.556446
-0.452709
-0.220955
-0.00969724
0.277368
0.381594
-0.0273068
0.27654
0.0932399
0.393549
0.563081
0.0562371
-0.0536927
-0.439391
-0.410244
-0.0611687
0.0987251
0.61297
0.587306
0.098885
-0.0538848
-0.264581
-0.393528
-0.043468
0.299911
0.0424617
-0.190604
-0.0308209
0.111504
0.273247
0.321746
0.243589
0.0446349
-0.248157
-0.187791
-0.441362
-0.353037
-0.149647
-0.772336
-0.862463
-0.761091
-0.222742
-0.116178
-0.402991
-0.713817
-0.136521
-0.367238
0.135658
0.00425339
0.281689
-0.871067
0.23253
-0.351474
0.0583275
0.136067
0.0644564
0.0745594
0.0830567
0.0587847
0.097987
0.00289683
-0.0230965
-0.00634357
0.0287435
-0.0576818
0.0115772
0.025039
-0.202666
0.0257702
0.119959
-0.114904
-0.200847
0.0274585
0.12322
-0.108791
0.121158
-0.112021
-0.194802
-0.181287
0.0373081
-0.0914409
0.131355
0.128725
-0.0962577
-0.169868
-0.184411
0.034717
0.124756
-0.104819
0.127247
-0.192506
-0.100761
-0.146124
-0.0854588
0.0461152
0.13301
-0.165018
0.136398
-0.0787097
-0.137441
0.0504413
0.141187
-0.0611269
0.137994
-0.0703601
-0.102715
0.00155551
0.0567285
-0.0559515
0.0412467
0.119141
-0.0261849
-0.198906
-0.727945
-0.659838
-0.777043
-0.0217786
0.0563651
0.141339
-0.0486383
0.140151
-0.0849293
-0.0348618
-0.282873
-0.29186
-0.190986
-0.181186
-0.275339
-0.261404
-0.27483
-0.0855474
-0.196405
-0.131511
-0.145265
-0.141951
-0.0876589
-0.211718
-0.0427275
-0.170649
-0.0403363
-0.097986
-0.088298
-0.109646
-0.286899
0.392957
0.236204
-0.0591458
0.235627
0.39339
0.369042
0.379566
0.369546
0.37947
0.393083
-0.0584606
0.23875
0.236278
0.394666
0.368769
0.37854
0.368319
0.379123
-0.987261
-0.564884
-0.493236
-0.993274
-0.56249
-1.08547
-1.41656
-1.42418
-1.0788
-1.0876
-1.43494
-1.09385
-1.42753
-0.985335
-0.493002
-0.55618
-0.559634
-0.979356
-0.999644
-0.502819
-0.567444
-0.570432
-0.995005
-1.10101
-1.43776
-1.09581
-1.44336
0.391114
-0.0650931
0.235083
0.232519
0.392986
0.367216
0.378337
0.367997
0.378015
0.394549
0.243172
-0.0503149
0.240556
0.396016
0.370044
0.37969
0.36979
0.379983
0.394464
-0.0512306
0.240032
0.394997
0.239698
0.370301
0.380058
0.370585
0.380274
-0.966883
-0.480323
-0.54142
-0.54575
-0.959155
-1.06822
-1.41299
-1.40351
-1.07626
-1.06547
-1.38956
-1.39931
-1.05691
-0.969384
-0.480666
-0.552823
-0.977058
-0.549516
-0.946456
-0.537113
-0.463088
-0.53259
-0.956272
-1.03985
-1.35569
-1.36773
-1.02855
-1.04337
-1.38509
-1.37325
-1.05373
-0.943232
-0.462929
-0.521777
-0.527538
-0.93284
0.395812
0.244972
-0.0399923
0.245078
0.396429
0.370905
0.379331
0.370725
0.380119
0.395676
-0.0389146
0.249073
0.246112
0.396894
0.370762
0.380131
0.370807
0.379962
0.400116
0.265054
0.0107115
0.268941
0.399159
0.367777
0.367831
0.364211
0.373348
0.39893
0.0144685
0.279897
0.272813
0.401478
0.367759
0.376517
0.369311
0.373479
-0.873136
-0.483794
-0.391575
-0.891746
-0.472669
-0.959591
-1.27336
-1.28802
-0.935726
-0.966212
-1.31078
-0.985298
-1.29592
-0.866621
-0.390903
-0.446331
-0.460379
-0.842995
-0.911556
-0.436042
-0.493029
-0.501411
-0.897135
-1.01074
-1.35022
-1.02438
-1.33635
-0.915949
-0.436394
-0.515712
-0.928983
-0.508912
-1.0061
-1.31633
-0.990918
-1.33015
0.396673
-0.0202679
0.259338
0.255164
0.397975
0.370453
0.379348
0.370884
0.378316
0.397105
-0.022157
0.252006
0.397491
0.253269
0.370423
0.376437
0.369365
0.37832
0.409376
0.30992
0.0859939
0.306345
0.403757
0.356324
0.368052
0.362642
0.356023
0.410611
0.0756981
0.291751
0.404654
0.300312
0.354013
0.30756
0.328264
0.356368
-0.783025
-0.307471
-0.350938
-0.383602
-0.721351
-0.889398
-1.26584
-1.24571
-0.925915
-0.873475
-1.18007
-1.22565
-0.809601
-0.798108
-0.311934
-0.429579
-0.833307
-0.408224
-0.669533
-0.833605
-0.745455
-0.770297
-0.926716
-0.844521
-0.885591
-0.911725
-0.844945
-0.541
-0.311723
-0.199079
-0.240408
-0.685631
-0.496885
-0.584765
-0.644252
-0.461082
-0.846369
-0.614531
-1.13504
-0.966551
-0.770212
-0.439086
-0.0864132
-0.228419
-0.584454
-0.346174
-0.177022
0.257897
0.305381
0.0642266
0.254227
0.40101
-0.0608591
-0.390033
-0.880372
-0.392529
-0.570184
0.157543
0.00318569
-0.139648
-0.70411
-0.265014
0.0276013
0.0960086
0.304784
0.313266
0.0450301
0.0244869
0.107071
0.022439
0.0660693
0.0349054
0.0747136
0.0398026
-0.120469
-0.145839
-0.0184532
-0.267819
-0.0194878
-0.26651
-0.118018
-0.102646
-0.0171015
-0.26362
-0.130738
-0.0134246
-0.246225
-0.114136
-0.0817992
0.0927156
0.0934897
0.0860183
0.00213267
0.00621103
0.082486
0.0945821
-0.046507
0.0884319
0.0745302
0.00669946
0.0820969
0.00975576
-0.0138688
0.0665447
0.0724289
0.0661074
0.0236402
0.0177032
0.0590328
0.375468
0.369876
0.367683
0.385079
0.368228
0.375474
0.369717
-0.853225
-1.00514
-0.622731
-0.543771
-0.545587
-1.00955
-0.849438
-0.120426
-0.142516
-0.0198824
-0.25995
0.0931468
0.11205
0.239708
0.359984
0.109978
0.352778
0.098907
0.0868066
0.234966
0.106469
0.342658
0.375984
0.369884
0.367805
0.385639
0.368767
0.375486
0.370243
-0.840312
-1.00023
-0.54009
-0.611085
-0.535253
-0.995058
-0.844991
-0.813176
-0.51036
-0.587447
-0.95721
-0.513902
-0.964414
-0.806911
0.375454
0.367193
0.385301
0.368925
0.368309
0.374888
0.36936
0.362373
0.348405
0.35061
0.376038
0.356623
0.357125
0.353464
-0.742085
-0.874828
-0.530411
-0.450361
-0.458888
-0.888706
-0.72887
-0.791578
-0.504534
-0.949199
-0.569325
-0.497476
-0.799494
-0.94075
0.37366
0.366536
0.367841
0.383788
0.366335
0.374033
0.367231
0.101759
0.112181
0.358893
0.226342
0.106937
0.344378
0.101652
-0.0901321
-0.118141
-0.00167433
-0.156095
-0.0120594
-0.216478
-0.0532881
0.0917617
0.262501
0.208252
0.0895607
0.0987942
0.309288
0.0920594
0.00107882
-0.0275765
0.00843459
-0.0929935
0.02611
-0.0181485
-0.0580651
0.0674551
0.179651
0.0801266
0.126097
0.0775122
0.0754244
0.143797
0.338911
0.339514
0.344805
0.360796
0.334494
0.349642
0.32854
-0.687556
-0.856674
-0.436139
-0.490256
-0.418697
-0.833772
-0.710492
-0.344241
-0.222638
-0.298478
-0.348946
-0.247318
-0.303244
-0.381343
0.0525715
-0.0142461
0.104661
-0.184305
0.0882204
-0.106729
0.00391442
0.367968
0.35117
0.367942
0.262224
0.385125
0.26328
0.384838
0.366997
0.350357
0.368064
0.261531
0.382769
0.258068
0.384475
0.339098
0.260562
0.31225
0.176904
0.34748
0.210933
0.312858
0.156213
0.201446
0.262673
0.13472
0.175449
0.0644665
0.272189
0.367435
0.3507
0.367034
0.263521
0.385053
0.263267
0.384842
0.350276
0.36639
0.263185
0.384479
-0.401339
-0.252722
-0.257402
-0.165242
-0.254947
-0.259272
-0.161197
-0.405141
-0.259775
-0.166953
-0.262828
-0.248226
-0.383439
-0.242628
-0.152686
-0.249543
-0.157032
-0.244599
-0.231613
-0.376892
-0.238263
-0.149169
-0.233001
-0.144232
-0.238952
0.351502
0.334943
0.360047
0.242941
0.359969
0.225116
0.373037
0.36627
0.342621
0.363207
0.248391
0.381505
0.256038
0.37684
-0.338709
-0.197083
-0.209352
-0.126314
-0.197508
-0.207506
-0.119148
-0.225756
-0.349816
-0.216634
-0.132511
-0.225406
-0.139104
-0.217637
-0.18572
-0.270278
-0.157861
-0.0932483
-0.181855
-0.108994
-0.160544
-0.104683
-0.231704
-0.139214
-0.0783028
-0.101421
-0.0571619
-0.133206
-0.0257522
0.0226421
-0.0484936
-0.0725284
0.00230959
-0.00850019
-0.0416342
0.197883
0.0798924
-0.0580833
0.080789
0.19855
0.363066
0.377702
0.272534
0.290564
0.377806
0.288086
0.36429
0.375238
0.384845
0.366766
0.368977
0.367979
0.374546
0.369525
0.362802
0.288739
0.272046
0.376786
0.377624
0.287538
0.363081
0.198985
-0.0544078
0.0842583
0.084318
0.201778
-0.65511
-0.492869
-0.492674
-0.487129
-0.658569
-0.856937
-0.626025
-0.552784
-1.01784
-0.548633
-0.860614
-1.01379
-0.647366
-0.486531
-0.483512
-0.479993
-0.647838
-0.659384
-0.49626
-0.494322
-0.490343
-0.660171
-0.867063
-0.635201
-0.555327
-1.02148
-0.556794
-0.863901
-1.0251
0.194605
-0.0609824
0.0787561
0.0789401
0.1971
0.374148
0.383797
0.366473
0.368755
0.366927
0.374307
0.368457
0.361139
0.287995
0.270339
0.376385
0.37628
0.285342
0.362566
0.0758795
0.230902
0.222644
0.367729
0.565675
0.356675
-0.224097
-0.0677032
-0.225246
-0.437879
-0.340395
-0.339579
-0.334727
-0.434467
-0.33788
-0.0659212
-0.224144
-0.225147
-0.0720501
-0.222969
-0.221003
-0.331023
-0.414176
-0.325391
0.237772
0.0887216
0.244273
0.604545
0.397861
0.391887
0.376642
0.596912
0.384687
0.0924378
0.255075
0.25
0.204313
0.0913895
-0.0459207
0.0912287
0.207943
0.364403
0.378036
0.274139
0.291392
0.378808
0.364703
0.290297
0.376063
0.38572
0.368142
0.370184
0.368855
0.375887
0.37022
0.36458
0.293327
0.274629
0.378473
0.378849
0.290906
0.365709
0.203098
-0.0508045
0.085625
0.0865515
0.203372
-0.631691
-0.473025
-0.469387
-0.466402
-0.631597
-0.835556
-0.60692
-0.984023
-0.528821
-0.531385
-0.989614
-0.830737
-0.641971
-0.481291
-0.481752
-0.475874
-0.64586
-0.624613
-0.467036
-0.465596
-0.461111
-0.629004
-0.819227
-0.592604
-0.977911
-0.524482
-0.518752
-0.971338
-0.8252
-0.610634
-0.454134
-0.44999
-0.447808
-0.609579
0.210957
0.093376
-0.0405767
0.094365
0.210398
0.365703
0.378194
0.276337
0.296373
0.379151
0.294042
0.366645
0.375783
0.385542
0.368013
0.369842
0.368568
0.375597
0.369883
0.365812
0.294346
0.27592
0.378751
0.379429
0.293419
0.366114
0.2119
-0.0340599
0.101429
0.10099
0.216807
0.249277
0.125374
0.00224413
0.127358
0.242439
0.367004
0.369121
0.277303
0.308571
0.374302
0.305641
0.367608
0.366595
0.378634
0.361412
0.361167
0.359588
0.368892
0.35853
0.368209
0.303709
0.276595
0.376426
0.376223
0.304003
0.368336
0.256297
0.0235539
0.153749
0.150689
0.269536
-0.563868
-0.414547
-0.404613
-0.407796
-0.571014
-0.753651
-0.53941
-0.477869
-0.912062
-0.468511
-0.76491
-0.90083
-0.529197
-0.371351
-0.36937
-0.371405
-0.522509
-0.57961
-0.423894
-0.420347
-0.419493
-0.576795
-0.783519
-0.562776
-0.485933
-0.922548
-0.490939
-0.775165
-0.931785
-0.600542
-0.442613
-0.4465
-0.440326
-0.605883
0.226145
-0.0141102
0.118914
0.117779
0.233759
0.366948
0.378424
0.297887
0.277098
0.378976
0.367129
0.297444
0.372565
0.382926
0.363103
0.36413
0.365311
0.371103
0.365581
0.223566
-0.0252219
0.104768
0.106021
0.221139
0.366576
0.300943
0.277668
0.376176
0.378299
0.298446
0.367416
0.239907
0.0856954
0.220029
0.46916
0.259364
0.298184
0.369005
0.518777
0.337277
0.0684847
0.161701
0.1891
-0.206053
-0.0566141
-0.214394
-0.434515
-0.339141
-0.334815
-0.31506
-0.426654
-0.327755
-0.058632
-0.222047
-0.218507
0.250977
0.100847
0.257558
0.610428
0.401374
0.400787
0.385933
0.603286
0.396814
0.100666
0.258496
0.25936
-0.200029
-0.0504376
-0.185898
-0.324251
-0.209253
-0.256842
-0.303971
-0.358112
-0.279278
-0.0541043
-0.140696
-0.173947
0.209147
0.234821
0.174844
0.0555453
0.127177
0.116703
-0.149797
-0.130051
-0.0872252
0.0075362
-0.10267
-0.0458096
0.339114
0.220209
0.101172
0.218824
0.362343
0.367275
0.368079
0.265946
0.313363
0.362156
0.369256
0.312249
0.323333
0.34611
0.287658
0.283605
0.318086
0.298373
0.309569
0.361282
0.305056
0.263268
0.330403
0.352985
0.311106
0.350624
0.304459
0.0555817
0.166976
0.171415
0.287331
-0.426737
-0.276534
-0.270888
-0.276948
-0.409135
-0.659885
-0.469033
-0.760351
-0.372096
-0.396801
-0.803738
-0.621641
-0.49996
-0.33541
-0.358177
-0.349219
-0.511876
-0.363243
-0.241414
-0.207357
-0.254443
-0.375941
-0.467215
-0.349028
-0.68812
-0.337291
-0.289285
-0.582004
-0.560682
0.406577
0.248369
0.132277
0.214708
0.402746
0.0619429
0.0150086
0.0977698
-0.0309224
0.136669
-0.0979364
0.0988008
0.191165
0.211279
0.253293
0.244115
0.188235
0.264653
0.170461
0.245827
0.29215
0.171458
0.309004
0.241721
0.229315
0.326601
-0.203532
0.0357591
-0.292612
-0.293246
0.0367424
-0.115135
-0.116835
0.0366821
-0.29073
-0.197996
0.040426
-0.287312
-0.110625
-0.115611
-0.195941
0.0408139
-0.284225
0.0416777
-0.285115
-0.109081
-0.110665
0.0486619
-0.270123
-0.176845
-0.265244
0.0531372
-0.0947351
-0.10059
-0.172892
-0.258807
0.0554158
-0.261271
0.0554513
-0.0920224
-0.0926734
0.0472027
-0.186224
-0.273271
0.0477009
-0.274782
-0.101514
-0.102647
-0.189043
0.0419783
-0.281727
0.0460133
-0.277696
-0.10357
-0.108962
-0.151835
0.0681947
-0.237027
-0.24141
0.0672662
-0.078237
-0.0779425
-0.158406
-0.254288
0.0576227
-0.247597
0.0633647
-0.0825798
-0.0897007
0.0722182
-0.229842
-0.126191
0.0806346
-0.219545
-0.0637419
-0.0731604
-0.114311
0.0902197
-0.200779
0.0875422
-0.208955
-0.0564794
-0.0550758
0.128561
-0.110027
0.0112406
-0.0750354
0.114567
-0.00676337
-0.0067644
-0.0685688
-0.14375
-0.0888554
-0.0832665
0.00716237
-0.0250452
-0.0634332
-0.731578
-0.795199
-0.746836
-0.790295
-0.612438
-0.525862
-0.53495
-0.597655
-0.676659
-0.641487
-0.611924
-0.691949
-0.683163
-0.74336
-0.758968
-0.668657
0.123834
-0.0422696
-0.132695
0.122037
-0.149973
-0.0197482
-0.0195498
-0.0642755
0.0983319
-0.187654
0.111272
-0.169717
-0.0331186
-0.0464702
0.298482
0.387947
0.317243
0.394248
0.318404
0.297585
0.389469
0.192893
-0.0591521
0.0814087
0.0804655
0.192625
0.299589
0.394719
0.31768
0.390296
0.318944
0.390894
0.299121
0.369856
0.377929
0.378883
0.372675
0.379666
0.372731
0.370238
0.378811
0.378993
0.372416
0.379457
0.372647
0.29911
0.388049
0.317402
0.394571
0.297765
0.389601
0.319062
0.193481
-0.0574746
0.0820553
0.0821137
0.192146
0.301167
0.395577
0.391741
0.319853
0.391755
0.320343
0.301631
0.369455
0.377992
0.378226
0.371541
0.378838
0.372048
0.369227
0.377344
0.378396
0.372257
0.379162
0.372212
-1.26759
-1.26979
-0.653816
-0.49255
-0.487192
-0.486076
-0.653716
-1.2643
-1.26077
-1.63007
-1.26442
-1.2675
-1.08388
-1.26507
-1.63262
-1.26263
-1.41881
-1.14755
-1.15008
-1.15494
-1.42208
-1.15308
-1.6286
-1.08154
-1.25994
-1.25775
-1.26235
-1.26088
-1.62533
-1.63931
-1.26662
-1.09041
-1.27002
-1.27012
-1.63542
-1.2724
-1.16374
-1.43311
-1.16229
-1.64282
-1.09241
-1.27442
-1.27688
-1.27265
-1.27476
-1.64539
-1.15759
-1.42982
-1.15987
-0.649176
-0.487622
-0.485945
-0.481701
-0.652329
-1.25639
-1.25412
-1.25697
-1.25859
-0.660931
-0.497955
-0.49592
-0.491969
-0.663797
-1.27313
-1.27114
-1.27313
-1.27408
-1.65072
-1.28123
-1.09995
-1.28488
-1.2801
-1.65231
-1.28316
-1.16617
-1.43938
-1.16818
-1.64962
-1.09795
-1.27628
-1.2792
-1.64739
-1.27866
-1.28082
-1.17196
-1.44192
-1.17058
0.295723
0.314548
0.385432
0.39278
0.294225
0.316332
0.387259
0.188679
-0.0640839
0.0767032
0.0765451
0.18742
0.297975
0.393934
0.317189
0.389557
0.298363
0.317778
0.389592
0.368179
0.376316
0.377279
0.37146
0.378346
0.37146
0.368657
0.377327
0.377593
0.370981
0.378056
0.371254
0.302869
0.390367
0.320188
0.395887
0.321803
0.301479
0.391796
0.199467
-0.0490118
0.0884778
0.0888584
0.197606
0.30494
0.396828
0.322821
0.394031
0.323094
0.393835
0.305713
0.370758
0.379143
0.379349
0.372641
0.379863
0.373042
0.370531
0.378623
0.379649
0.373111
0.380135
0.373113
0.302052
0.390249
0.39573
0.320019
0.30124
0.391756
0.321074
0.198367
-0.0514332
0.0875675
0.0865831
0.198333
0.302955
0.396159
0.39248
0.320323
0.302443
0.392989
0.321523
0.370951
0.378923
0.379901
0.373125
0.380322
0.373272
0.371294
0.379744
0.37984
0.373154
0.380148
0.373302
-1.23464
-1.23178
-0.633934
-0.474068
-0.473203
-0.468527
-0.637642
-1.23585
-1.23847
-1.61545
-1.24557
-1.24819
-1.07166
-1.25129
-1.61052
-1.24984
-1.41048
-1.14439
-1.14239
-1.13645
-1.40644
-1.13924
-1.61949
-1.07425
-1.25708
-1.2554
-1.25428
-1.62293
-1.25292
-1.60342
-1.24275
-1.24501
-1.06325
-1.24013
-1.60713
-1.24184
-1.39242
-1.12372
-1.12687
-1.13302
-1.39657
-1.13062
-1.60145
-1.06029
-1.23387
-1.23529
-1.23779
-1.23849
-1.59703
-0.640176
-0.480887
-0.474935
-0.474323
-0.63952
-1.24939
-1.25233
-1.24563
-1.24129
-1.22582
-1.22959
-0.622071
-0.464674
-0.458628
-0.458813
-0.620607
-1.22142
-1.21587
-1.56893
-1.21632
-1.21493
-1.03663
-1.212
-1.57466
-1.211
-1.35892
-1.09346
-1.09745
-1.10531
-1.36442
-1.10193
-1.56648
-1.03286
-1.20362
-1.20278
-1.20788
-1.20792
-1.56022
-1.58542
-1.22027
-1.04771
-1.21854
-1.22395
-1.22445
-1.5788
-1.38203
-1.11983
-1.11698
-1.10941
-1.37689
-1.11315
-1.58981
-1.05102
-1.23099
-1.23181
-1.59447
-1.22766
-1.22814
-0.613555
-0.454989
-0.456241
-0.450685
-0.618136
-1.20567
-1.20164
-1.20781
-1.21205
0.307239
0.323547
0.397062
0.393356
0.324447
0.306549
0.394886
0.206783
-0.0404636
0.0960859
0.094976
0.207089
0.307717
0.397416
0.323489
0.395136
0.306956
0.324697
0.395729
0.371269
0.379226
0.380212
0.372119
0.379892
0.372487
0.371501
0.37993
0.379863
0.37277
0.379787
0.372738
0.308111
0.323583
0.393259
0.39675
0.306715
0.325134
0.394381
0.207864
-0.0372324
0.0973098
0.0981953
0.205546
0.310276
0.397536
0.326547
0.396775
0.326469
0.396221
0.311619
0.371555
0.37978
0.379916
0.372949
0.380124
0.373171
0.371314
0.3794
0.380401
0.372963
0.380298
0.373094
0.334881
0.410974
0.340458
0.400649
0.339875
0.33637
0.411247
0.250772
0.00741599
0.135053
0.132412
0.254589
0.331725
0.400338
0.335936
0.406215
0.338235
0.408915
0.328167
0.366969
0.378043
0.37779
0.357919
0.371103
0.359539
0.366021
0.37661
0.376501
0.361802
0.370955
0.360593
0.340791
0.410904
0.340859
0.399882
0.337823
0.411711
0.343556
0.256403
0.0189854
0.139412
0.14409
0.250654
0.345143
0.400109
0.416849
0.348987
0.413521
0.346453
0.350888
0.369072
0.379839
0.380152
0.366926
0.375188
0.365894
0.368924
0.379284
0.380355
0.363328
0.375479
0.364856
-1.14801
-1.15515
-0.557138
-0.400303
-0.397211
-0.401162
-0.551612
-1.1411
-1.12992
-1.46561
-1.1285
-1.1323
-0.951832
-1.1236
-1.47975
-1.11851
-1.27602
-1.01037
-1.01639
-1.02861
-1.28362
-1.02287
-1.46059
-0.944298
-1.10842
-1.10116
-1.11672
-1.11191
-1.44714
-1.49937
-1.13498
-0.974043
-1.13873
-1.14504
-1.48587
-1.14645
-1.05103
-1.30717
-1.04634
-1.50275
-0.980158
-1.15712
-1.15831
-1.15069
-1.15211
-1.51175
-1.03471
-1.30066
-1.04055
-0.535968
-0.372217
-0.390724
-0.379198
-0.545673
-1.10134
-1.09027
-1.10867
-1.12112
-0.583775
-0.424595
-0.431315
-0.423937
-0.590013
-1.16471
-1.15858
-1.16839
-1.17537
-1.5472
-1.01631
-1.18306
-1.18456
-1.19009
-1.19015
-1.53804
-1.08871
-1.3467
-1.08497
-1.55143
-1.02069
-1.19934
-1.19922
-1.1946
-1.55792
-1.19465
-1.07564
-1.34079
-1.08031
-0.596589
-0.440601
-0.435085
-0.436595
-0.593706
-1.19382
-1.19892
-1.18847
-1.18089
-1.52457
-1.17848
-1.00143
-1.17975
-1.17247
-1.53351
-1.17395
-1.05659
-1.32009
-1.06141
-1.52199
-0.996521
-1.16152
-1.16344
-1.51295
-1.16847
-1.16901
-1.07082
-1.3259
-1.06648
0.318043
0.329085
0.398332
0.397525
0.316255
0.33084
0.399221
0.223183
-0.0176596
0.111763
0.113805
0.219748
0.320832
0.398131
0.333418
0.402389
0.323577
0.332575
0.400952
0.371381
0.379708
0.379758
0.371678
0.378948
0.37155
0.371106
0.379396
0.380374
0.370752
0.379046
0.371211
0.315916
0.398194
0.329001
0.398525
0.315799
0.329451
0.399786
0.22088
-0.0235028
0.109558
0.107957
0.222261
0.315317
0.398355
0.327697
0.398664
0.313821
0.329143
0.399732
0.370366
0.378806
0.379778
0.368025
0.377633
0.368959
0.370338
0.379646
0.379214
0.370131
0.377537
0.369676
0.390856
0.444523
0.367601
0.410029
0.369045
0.387205
0.446144
0.343922
0.0950034
0.199502
0.205988
0.333794
0.394221
0.406672
0.365571
0.444072
0.369628
0.445131
0.396056
0.357699
0.372065
0.374492
0.356414
0.363336
0.353513
0.360293
0.375796
0.375618
0.345383
0.364312
0.351255
0.377146
0.441821
0.410287
0.365644
0.382532
0.438798
0.363601
0.316204
0.0670671
0.188364
0.183812
0.328574
0.368901
0.408126
0.424872
0.35497
0.360508
0.431961
0.359069
0.348384
0.36796
0.360177
0.295713
0.339942
0.321772
0.340445
0.334287
0.350385
0.341527
0.340671
0.329072
-0.980791
-0.952646
-0.442516
-0.276697
-0.313729
-0.295195
-0.461302
-0.999806
-1.02622
-1.4257
-1.05284
-1.06441
-0.904289
-1.07921
-1.40202
-1.07129
-1.26344
-1.00187
-0.995032
-0.972754
-1.25187
-0.983648
-1.43149
-0.916673
-1.10022
-1.09358
-1.09042
-1.44553
-1.08223
-1.35757
-1.0377
-1.04803
-0.854355
-1.014
-1.38813
-1.02791
-1.18664
-0.903254
-0.917891
-0.956325
-1.21682
-0.942752
-1.33444
-0.83139
-0.963392
-0.981855
-0.99243
-1.00383
-1.30136
-0.486686
-0.327259
-0.327989
-0.335665
-0.474809
-1.07224
-1.08446
-1.06134
-1.04218
-0.754526
-0.786117
-0.742238
-0.781067
-0.730236
-0.654633
-0.704692
-0.690635
-0.720255
-0.636288
-0.688893
-0.68583
-0.739925
-0.712475
-0.756046
-0.688336
-0.853937
-0.828486
-0.82889
-0.852171
-0.878512
-0.838487
-0.847169
-0.872114
-0.857211
-0.866145
-0.866147
-0.845229
-0.861072
-0.810828
-0.822803
-0.852184
-0.805214
-0.813987
-0.796787
-0.830879
-0.770035
-0.777608
-0.817768
-0.865667
-0.782866
-0.763998
-0.768984
-0.687564
-0.817174
-0.835515
-0.839667
-0.775468
-0.899875
-0.9284
-0.329074
-0.19827
-0.265769
-0.215188
-0.343255
-0.867125
-0.821173
-0.605351
-0.427343
-0.735866
-0.652331
-0.559245
-1.03216
-0.542227
-0.638089
-0.596165
-0.637091
-0.645239
-0.636729
-0.67218
-0.629075
-0.565122
-0.522491
-0.524489
-0.648438
-0.658455
-0.631945
-1.1916
-0.803047
-0.678595
-0.758905
-0.836941
-0.854296
-1.09176
-1.11064
-0.861993
-0.835451
-0.724231
-1.03544
-0.776291
-1.23105
-0.740314
-0.929031
-0.943611
-1.27772
-0.888455
-0.910329
-0.48593
-0.476032
-0.251517
-0.355818
-0.809719
-0.29971
-0.61369
-0.744171
-0.799758
-0.716861
-0.721159
0.372245
0.233011
0.341989
0.313656
0.309914
0.277745
0.411611
0.455242
0.135879
0.13959
0.231245
0.361124
0.392756
0.378812
0.366718
0.449676
0.404455
0.339891
0.437513
-0.978775
-0.417396
-0.0767633
-0.391797
-0.858963
-0.806565
-0.84818
-0.843143
-0.77369
-0.853526
-0.834857
-0.841488
-0.953938
-1.03565
-0.190796
-0.500468
-0.364797
-0.982752
-0.37805
-0.218065
0.139744
0.133799
0.133266
-0.143683
-0.477329
-0.467563
-0.497329
0.0901796
-0.256399
-0.855293
0.458143
-0.848726
-0.818601
-0.893772
-1.06767
0.218201
0.0879173
0.213772
0.279247
0.233915
0.213561
0.272539
0.316315
0.268769
-0.0178081
0.178116
0.153342
0.122519
0.120587
0.122376
0.120536
0.121888
0.121162
0.12184
0.12112
0.12199
0.121627
0.121947
0.121577
0.121873
0.121939
0.121819
0.121879
0.122024
0.122276
0.121962
0.1222
0.12239
0.122827
0.122308
0.122722
0.123011
0.12371
0.122897
0.123559
0.124
0.125084
0.123833
0.12486
0.125532
0.127226
0.125281
0.126837
0.127935
0.130609
0.127468
0.129757
0.131741
0.136283
0.130664
0.133799
0.138374
0.148133
0.134954
0.138399
0.153407
0.18302
0.139373
0.140218
0.122386
0.120542
0.122327
0.120473
0.121843
0.121115
0.121774
0.121039
0.12194
0.121564
0.121859
0.121467
0.121804
0.121856
0.1217
0.121726
0.121936
0.122165
0.121796
0.121987
0.122269
0.122669
0.122075
0.122417
0.122838
0.123481
0.122562
0.123119
0.123749
0.124749
0.123352
0.124231
0.12516
0.126683
0.124595
0.12596
0.127303
0.12957
0.126521
0.128592
0.130477
0.133691
0.129426
0.132368
0.134919
0.138781
0.13347
0.136684
0.139906
0.139974
0.137441
0.135907
0.137272
0.105142
0.132658
0.102718
0.122309
0.120452
0.122247
0.120377
0.121752
0.121011
0.121672
0.120915
0.121829
0.121429
0.121725
0.121299
0.121658
0.121674
0.121518
0.121494
0.121739
0.121913
0.121544
0.121659
0.121995
0.122311
0.121716
0.121943
0.122446
0.122966
0.122042
0.12243
0.123185
0.124013
0.122596
0.123238
0.124358
0.12566
0.123513
0.124588
0.126201
0.12823
0.125055
0.126933
0.129064
0.132122
0.127777
0.131354
0.133334
0.137385
0.13306
0.14102
0.138724
0.140686
0.14521
0.167316
0.139366
0.116936
0.179748
0.236021
0.122225
0.120351
0.121645
0.12088
0.121688
0.121252
0.121468
0.12143
0.121473
0.121566
0.121615
0.121808
0.121893
0.122231
0.122376
0.122946
0.123192
0.124172
0.124604
0.126394
0.12722
0.130881
0.132705
0.141746
0.14678
0.175667
0.120548
0.122339
0.120497
0.122374
0.120432
0.12223
0.12038
0.121112
0.121799
0.121071
0.121725
0.120963
0.121677
0.120923
0.121557
0.121894
0.121508
0.121775
0.121344
0.121733
0.121297
0.121835
0.121743
0.121776
0.12156
0.121516
0.121511
0.12146
0.122117
0.121847
0.122044
0.121555
0.12163
0.121497
0.121562
0.122583
0.122134
0.122481
0.121671
0.121831
0.121598
0.121738
0.12333
0.122628
0.123185
0.121899
0.12216
0.1218
0.122035
0.124491
0.123417
0.12428
0.122268
0.122666
0.122132
0.122489
0.126291
0.124633
0.125935
0.122826
0.123414
0.122632
0.123139
0.129147
0.12646
0.128359
0.123657
0.1246
0.123335
0.123998
0.134012
0.129107
0.131679
0.125004
0.126762
0.124239
0.124954
0.144717
0.13262
0.135397
0.127671
0.132758
0.125155
0.12537
0.178465
0.13617
0.136732
0.135967
0.157208
0.125197
0.123008
0.154617
0.221253
0.151931
0.190271
0.159737
0.147032
0.21488
0.120503
0.12229
0.120434
0.12224
0.120387
0.122179
0.120318
0.121066
0.121733
0.120991
0.12168
0.120918
0.121611
0.120845
0.121495
0.121807
0.121399
0.121727
0.121285
0.121649
0.121194
0.121753
0.121626
0.121626
0.121497
0.121439
0.121399
0.121321
0.122009
0.121686
0.121836
0.121474
0.121531
0.121346
0.121371
0.12243
0.121907
0.122186
0.121563
0.121693
0.121391
0.121474
0.123111
0.122305
0.122764
0.12175
0.121971
0.121513
0.121668
0.124175
0.122957
0.123684
0.122063
0.122401
0.121734
0.121986
0.125791
0.123986
0.125115
0.122537
0.123023
0.122091
0.122473
0.128188
0.12558
0.127294
0.123212
0.123864
0.122627
0.12317
0.131595
0.127983
0.130407
0.124108
0.124893
0.123374
0.123983
0.135812
0.131308
0.133866
0.125157
0.125743
0.124142
0.124018
0.136603
0.134406
0.132404
0.12573
0.12325
0.123525
0.118402
0.104674
0.129231