/*--------------------------------*- C++ -*----------------------------------*\
| =========                 |                                                 |
| \\      /  F ield         | OpenFOAM: The Open Source CFD Toolbox           |
|  \\    /   O peration     | Version:  2012                                  |
|   \\  /    A nd           | Website:  www.openfoam.com                      |
|    \\/     M anipulation  |                                                 |
\*---------------------------------------------------------------------------*/
FoamFile
{
    version     2.0;
    format      ascii;
    class       volVectorField;
    location    "0.107/fluid";
    object      U;
}
// * * * * * * * * * * * * * * * * * * * * * * * * * * * * * * * * * * * * * //

dimensions      [0 1 -1 0 0 0 0];


internalField   nonuniform List<vector> 
16422
(
(1.19995 2.33411e-05 7.78183e-06)
(1.19972 6.91137e-05 0.000100111)
(1.19935 4.13989e-05 0.000142495)
(1.19935 3.82258e-05 0.000188389)
(1.19918 3.81972e-05 0.000272464)
(1.19894 4.10952e-05 0.000411995)
(1.1986 5.3301e-05 0.000641424)
(1.19811 7.6719e-05 0.00101507)
(1.19735 0.000120089 0.00162069)
(1.1961 0.000217577 0.00261053)
(1.19377 0.000494716 0.00423839)
(1.18847 0.00144009 0.00691817)
(1.17287 0.00531281 0.0113211)
(1.11242 0.022861 0.0180935)
(0.83543 0.0846588 0.0209439)
(1.19997 1.16755e-06 7.91995e-06)
(1.19996 3.39149e-05 0.00010132)
(1.19974 6.67904e-05 0.000141028)
(1.19984 9.77566e-05 0.000185437)
(1.19978 0.000144976 0.000266351)
(1.19963 0.000215409 0.000401706)
(1.19941 0.000325444 0.000622357)
(1.19906 0.000502283 0.000977589)
(1.19854 0.000797848 0.00154867)
(1.19773 0.0013183 0.00246299)
(1.19647 0.00230295 0.00392053)
(1.19453 0.00439098 0.00618144)
(1.19179 0.00948068 0.00940682)
(1.19164 0.0238073 0.0128261)
(1.22215 0.0582199 0.0118183)
(1.19997 4.05763e-06 7.91378e-06)
(1.19995 6.53459e-05 0.00010053)
(1.19974 0.0001167 0.000137454)
(1.19987 0.000166212 0.000178177)
(1.19985 0.000242059 0.000253326)
(1.19975 0.000356709 0.000377802)
(1.19961 0.000534398 0.000578129)
(1.1994 0.000815322 0.000895124)
(1.19909 0.00126782 0.00139454)
(1.19867 0.00200028 0.00216925)
(1.19819 0.00321643 0.00335401)
(1.19795 0.00523987 0.00508675)
(1.19912 0.00836781 0.00732764)
(1.20573 0.0115094 0.0092103)
(1.22657 0.00909869 0.00668638)
(1.19997 4.69709e-06 7.84324e-06)
(1.19996 7.81446e-05 9.82436e-05)
(1.19977 0.000137377 0.000132705)
(1.19992 0.000194161 0.000168209)
(1.19994 0.000283438 0.000235401)
(1.19992 0.000417701 0.000345215)
(1.19987 0.000622476 0.000518237)
(1.19981 0.00094031 0.000786791)
(1.19974 0.00142582 0.00119842)
(1.19969 0.00215781 0.00181265)
(1.19973 0.00323494 0.00272229)
(1.20004 0.00466399 0.00404968)
(1.20075 0.00593615 0.00599245)
(1.20077 0.00359238 0.00933708)
(1.19339 -0.0401944 0.0169279)
(1.19995 2.39401e-05 6.42689e-06)
(1.19972 7.05974e-05 9.14734e-05)
(1.19938 4.19967e-05 0.000136017)
(1.19941 3.79816e-05 0.0001814)
(1.19929 3.74502e-05 0.000263708)
(1.19912 4.04164e-05 0.000398798)
(1.1989 4.93278e-05 0.000620388)
(1.19861 6.69502e-05 0.000978557)
(1.19818 0.000101016 0.00155677)
(1.1975 0.000170784 0.00250199)
(1.19622 0.000363512 0.00409641)
(1.1931 0.0010211 0.00696209)
(1.18323 0.00370721 0.0130289)
(1.14193 0.0162699 0.0308)
(0.911322 0.0621143 0.10402)
(1.19997 1.18658e-06 6.88535e-06)
(1.19997 3.23797e-05 9.1995e-05)
(1.19977 6.45791e-05 0.000135708)
(1.19991 9.24251e-05 0.000178464)
(1.1999 0.000134464 0.000258025)
(1.19982 0.000196672 0.000389313)
(1.1997 0.000291855 0.000600315)
(1.19954 0.000439776 0.000940912)
(1.1993 0.000679894 0.0014849)
(1.19895 0.00108642 0.00235419)
(1.19843 0.00182832 0.00375418)
(1.19762 0.00334617 0.00604009)
(1.19648 0.00690124 0.00987559)
(1.19713 0.0164794 0.0162755)
(1.2183 0.0395391 0.0227772)
(1.19997 4.03813e-06 6.92713e-06)
(1.19996 6.28145e-05 9.15013e-05)
(1.19978 0.000112713 0.000133599)
(1.19994 0.00015744 0.000172165)
(1.19995 0.00022512 0.000243894)
(1.19993 0.000326717 0.00036482)
(1.19988 0.000480476 0.000557214)
(1.19982 0.000716042 0.000861021)
(1.19975 0.00108368 0.00133353)
(1.19969 0.0016585 0.00206268)
(1.19972 0.0025839 0.00317283)
(1.20012 0.00409291 0.00480396)
(1.20176 0.00646941 0.00701068)
(1.20717 0.0093998 0.00919111)
(1.2208 0.00933639 0.007859)
(1.19997 4.60712e-06 6.86775e-06)
(1.19997 7.42691e-05 8.89707e-05)
(1.1998 0.000133135 0.000129698)
(1.19998 0.000183286 0.000162889)
(1.20004 0.000264131 0.000225854)
(1.20007 0.000382562 0.000331923)
(1.2001 0.000559424 0.000499656)
(1.20016 0.000825561 0.000755393)
(1.20027 0.00122296 0.00114334)
(1.20048 0.00179957 0.00171822)
(1.20089 0.00261388 0.00255435)
(1.20173 0.00367098 0.00374138)
(1.20338 0.00469716 0.00543532)
(1.20682 0.00447426 0.00807151)
(1.2168 0.000408842 0.0115717)
(1.19995 2.43258e-05 3.40375e-06)
(1.19973 7.19172e-05 6.22961e-05)
(1.1994 4.26974e-05 0.00010101)
(1.19946 3.80241e-05 0.000138759)
(1.19939 3.70169e-05 0.000203791)
(1.19928 3.94807e-05 0.000309079)
(1.19916 4.6074e-05 0.000478609)
(1.19905 5.88352e-05 0.000753566)
(1.19891 8.3341e-05 0.00119653)
(1.19873 0.000128848 0.00192547)
(1.19843 0.000236579 0.00317033)
(1.1977 0.000553418 0.00545435)
(1.1955 0.00159631 0.0102537)
(1.19027 0.00484483 0.0224476)
(1.20002 0.00962142 0.0507785)
(1.19997 1.23492e-06 3.79426e-06)
(1.19998 3.09187e-05 6.17487e-05)
(1.19981 6.36942e-05 0.000100792)
(1.19997 8.85427e-05 0.000138014)
(1.2 0.000124842 0.000199143)
(1.19998 0.000180016 0.000300412)
(1.19997 0.000261744 0.000463195)
(1.19995 0.000383813 0.00072345)
(1.19996 0.000574584 0.00113946)
(1.20001 0.000876396 0.00180699)
(1.20015 0.0013803 0.00288927)
(1.20052 0.002294 0.00468051)
(1.20154 0.00406179 0.00770492)
(1.2052 0.00741831 0.0124845)
(1.21885 0.0103626 0.0154886)
(1.19997 4.00458e-06 3.95925e-06)
(1.19997 6.03917e-05 6.09486e-05)
(1.19981 0.000110619 9.93124e-05)
(1.2 0.00015036 0.000134084)
(1.20005 0.00020972 0.000188696)
(1.20008 0.000299379 0.000280781)
(1.20011 0.00043225 0.000428243)
(1.20018 0.000629 0.000660677)
(1.20031 0.000922224 0.00102146)
(1.20055 0.001355 0.00157565)
(1.20102 0.00200414 0.0024136)
(1.20198 0.00297299 0.00363474)
(1.20402 0.00432579 0.00522511)
(1.20832 0.0056951 0.00657401)
(1.21559 0.00502802 0.00529016)
(1.19997 4.53254e-06 3.93107e-06)
(1.19997 7.24973e-05 5.90786e-05)
(1.19983 0.000127979 9.62818e-05)
(1.20005 0.000175039 0.000127364)
(1.20013 0.000246881 0.000174262)
(1.2002 0.000351663 0.000255751)
(1.20031 0.000504113 0.000382589)
(1.20046 0.000726225 0.000579268)
(1.20072 0.00104604 0.000873186)
(1.20114 0.00148579 0.00130387)
(1.20184 0.0020713 0.00191994)
(1.20301 0.00277518 0.00274824)
(1.20502 0.00342393 0.00373233)
(1.20834 0.00349427 0.0044805)
(1.21301 0.00221065 0.00344153)
(1.19995 2.45968e-05 -4.28041e-06)
(1.19974 7.21843e-05 1.2423e-05)
(1.19943 4.3366e-05 4.74518e-05)
(1.19949 3.88674e-05 7.00261e-05)
(1.19945 3.65182e-05 0.000104341)
(1.19939 3.80974e-05 0.000159126)
(1.19934 4.38655e-05 0.000246262)
(1.19933 5.33676e-05 0.000386142)
(1.19939 7.18904e-05 0.000613758)
(1.19954 0.000101541 0.000987909)
(1.19988 0.000155781 0.00161962)
(1.20056 0.000273797 0.0027235)
(1.2019 0.000521623 0.00467402)
(1.205 0.000894446 0.00764253)
(1.2135 0.0006703 0.00913496)
(1.19997 1.38163e-06 -4.23136e-06)
(1.19999 3.14256e-05 1.11494e-05)
(1.19983 6.33509e-05 4.53291e-05)
(1.20001 8.72355e-05 6.84988e-05)
(1.20007 0.000119038 0.000101754)
(1.20009 0.000168826 0.000153645)
(1.20013 0.000241194 0.000237195)
(1.20022 0.000347207 0.000370904)
(1.20039 0.000504792 0.000584608)
(1.2007 0.000734878 0.000925492)
(1.20128 0.00107323 0.00147595)
(1.20236 0.00157887 0.00235704)
(1.20441 0.00229165 0.00368544)
(1.20825 0.00304299 0.00518127)
(1.21451 0.00270871 0.00491136)
(1.19997 4.08006e-06 -4.42609e-06)
(1.19998 6.0392e-05 9.44675e-06)
(1.19984 0.000110082 4.2368e-05)
(1.20004 0.000147295 6.47769e-05)
(1.20012 0.000201259 9.59155e-05)
(1.20018 0.000281802 0.000143002)
(1.20027 0.000399377 0.000217018)
(1.20042 0.000571281 0.000337408)
(1.20067 0.000815162 0.000522045)
(1.20111 0.00115185 0.000803113)
(1.20185 0.00161042 0.00122649)
(1.20312 0.00219691 0.00182429)
(1.20527 0.00282697 0.00254071)
(1.20859 0.00313718 0.00299294)
(1.21253 0.00228424 0.00219995)
(1.19997 4.58096e-06 -4.68126e-06)
(1.19999 7.20064e-05 6.99053e-06)
(1.19986 0.000126171 3.88312e-05)
(1.20009 0.000170989 6.05931e-05)
(1.2002 0.000235443 8.68827e-05)
(1.2003 0.000331597 0.000128034)
(1.20044 0.000469407 0.000192644)
(1.20066 0.000662041 0.000294818)
(1.20101 0.000927941 0.000442677)
(1.20156 0.00127641 0.00066064)
(1.20242 0.00171003 0.000967135)
(1.20374 0.00216932 0.00135589)
(1.2057 0.00250528 0.0017516)
(1.20829 0.00239783 0.00188905)
(1.21091 0.00146182 0.00124579)
(0.8338 0.0854724 0.0149553)
(1.20976 0.094185 0.0122173)
(1.36762 0.0761522 0.00376064)
(1.19182 -0.0452791 0.0129818)
(1.31476 0.0584035 -0.0117031)
(1.2079 0.0916152 0.0145653)
(1.36102 0.072933 0.00397615)
(0.870429 0.0735695 0.0690754)
(1.20649 0.0757824 0.0270123)
(1.33325 0.0606197 0.013561)
(1.30778 0.0592014 0.00741771)
(1.21572 -0.00400778 0.0152571)
(1.24214 0.000704293 -0.00500766)
(1.20829 0.0651982 0.0314657)
(1.31599 0.0514833 0.0183863)
(1.16711 0.0196672 0.0819331)
(1.21409 0.00908112 -0.0436018)
(1.21645 0.0240918 0.0246033)
(1.24341 0.0176955 0.0110975)
(1.22932 0.00873398 0.00770097)
(1.2517 0.0041253 0.00181599)
(1.21419 -0.0221807 0.0113165)
(1.28434 -0.0151108 0.00185342)
(1.1996 0.00349337 0.00872604)
(1.1957 -0.0189953 0.0120347)
(1.24688 0.00431186 -0.00200561)
(1.21345 -0.0185064 0.0127329)
(1.27535 -0.0120636 -0.00574654)
(1.22232 0.0097939 0.00805449)
(1.23535 0.00282039 0.000128927)
(1.21672 -0.00132966 0.0128678)
(1.23372 0.0016987 -0.00155509)
(1.19757 -0.0163375 0.0146398)
(1.20569 0.004426 0.00895671)
(1.21123 -0.000699573 0.0136802)
(1.20843 -0.075308 0.0190157)
(1.19733 -0.0317314 0.0262969)
(1.20998 -0.0641708 0.0364848)
(1.22858 0.0026569 -0.00154711)
(1.21386 0.00234241 0.00441)
(1.21718 0.000564669 -0.000181587)
(0.0780114 0.0711672 -0.0136626)
(1.89157 0.111857 -0.00759093)
(1.31809 0.36483 0.0173225)
(1.19224 -0.0462034 0.00836872)
(1.20998 -0.0817324 0.0126689)
(1.2126 -0.0823351 0.00681313)
(1.2752 -0.0811989 0.0120149)
(1.30686 0.354598 0.0334466)
(0.0775252 0.0713839 0.0162953)
(1.8885 0.110901 0.0225229)
(1.31492 0.362962 0.0158775)
(1.8654 0.108281 0.00484517)
(0.0772332 0.0717835 -0.00562093)
(1.30135 0.349369 0.0363179)
(0.0851754 0.0779054 0.0416657)
(1.81109 0.0950788 0.0363466)
(1.85941 0.105955 0.0357871)
(1.29119 0.319705 0.0723884)
(0.0758873 0.0728751 0.0248595)
(1.27016 -0.077309 0.0111277)
(1.28719 0.016703 -0.00146819)
(1.261 -0.0578978 0.0332457)
(1.21498 -0.0111424 0.024775)
(1.22372 -0.00778002 0.0153918)
(1.22752 -0.0202697 0.0336398)
(1.26432 0.021808 -0.00335411)
(1.23555 -0.00616566 0.00866691)
(1.24767 -0.0220278 0.0286068)
(1.30201 0.138155 0.133965)
(0.0861519 0.0837013 0.0871115)
(1.79466 0.0851858 0.068519)
(0.564042 0.0147735 -0.209817)
(1.27951 0.297193 0.0883415)
(1.48033 -0.0175493 0.0617267)
(0.458648 0.0295385 0.242179)
(1.10965 0.0234565 0.0158584)
(0.950058 0.0737719 0.0173643)
(1.18495 0.0331068 0.0129878)
(1.19437 0.0751563 0.0132266)
(1.22446 0.0605712 0.0106466)
(1.31113 0.0371633 0.00311994)
(1.22883 0.0202363 0.00852057)
(1.25304 0.00978385 0.00402002)
(0.952594 0.0729253 0.0227118)
(1.18575 0.031853 0.0140063)
(1.19367 0.072978 0.015392)
(1.13087 0.0187662 0.0278778)
(0.987291 0.0642174 0.0568724)
(1.19084 0.0254546 0.0175699)
(1.19604 0.0596716 0.0251688)
(1.21167 0.264815 0.0318429)
(0.287607 0.0818941 0.00888847)
(1.20637 0.177097 0.0230982)
(0.839734 0.0830503 0.0301995)
(1.21457 0.269335 0.0226738)
(1.20499 0.173088 0.0303723)
(0.288346 0.0812919 0.0136188)
(1.30556 0.0346874 0.00186736)
(1.22603 0.0196423 0.00752394)
(1.24804 0.0094917 -0.000468844)
(1.21861 0.0465467 0.0201554)
(1.28592 0.0279193 0.00816751)
(1.22243 0.0167401 0.00966817)
(1.23881 0.0072489 0.00266866)
(1.02027 0.0566354 0.0745098)
(1.19357 0.0222665 0.0182301)
(1.19915 0.0514516 0.0281432)
(1.18128 0.00711004 0.0269614)
(1.16629 0.0159176 0.0619173)
(1.20228 0.011678 0.0156932)
(1.21066 0.0210813 0.02286)
(1.24757 0.137032 0.12769)
(0.31781 0.0754061 0.119654)
(1.2121 0.132469 0.068943)
(0.99526 0.0427778 0.129485)
(1.21779 0.207132 0.100602)
(1.22644 0.0989819 0.0766428)
(0.606539 0.0504844 0.247952)
(1.27593 0.0232251 0.0101213)
(1.22114 0.014904 0.00966751)
(1.235 0.00612741 0.00240122)
(1.2182 0.0160502 0.019241)
(1.23845 0.0104265 0.00750946)
(1.21734 0.00836208 0.00767667)
(1.22421 0.00324272 0.00174486)
(1.27821 -0.00713966 0.0452368)
(1.21919 0.0145322 0.0190703)
(1.2415 9.94465e-05 0.00835314)
(1.21041 0.00165871 0.0125692)
(1.21805 0.000805559 -0.00234995)
(1.21486 0.00451258 0.00749074)
(1.21986 0.00286459 0.000600794)
(1.22063 0.273459 0.013233)
(0.833626 0.0859599 0.0118595)
(0.288577 0.0818499 0.00155121)
(1.20818 0.17951 0.0177141)
(1.21042 0.180872 0.0149819)
(1.21761 0.272022 0.0164291)
(1.35738 0.209388 0.0069511)
(1.37037 0.0735872 0.000199556)
(1.59411 0.129959 0.00347887)
(1.29883 0.120936 0.00764129)
(1.30104 0.120294 0.0044079)
(1.35303 0.209271 0.00968306)
(1.3408 0.201772 0.019094)
(1.58892 0.128766 0.00796859)
(1.29367 0.117745 0.00917078)
(1.35472 0.0715093 0.00710766)
(1.34745 0.205882 0.0133934)
(1.57332 0.125761 0.011996)
(1.28915 0.114718 0.0131076)
(1.20945 0.256495 0.0466181)
(0.849334 0.0799003 0.0456641)
(0.299073 0.0767661 0.0716854)
(1.20678 0.153524 0.0539765)
(1.20462 0.166118 0.0408515)
(1.21031 0.240075 0.0681074)
(0.288046 0.0813478 0.0261419)
(1.33196 0.194247 0.0279045)
(1.34533 0.0674488 0.00998569)
(1.53042 0.112399 0.0309966)
(1.27592 0.0995075 0.0235522)
(1.56328 0.123648 0.0187396)
(1.28292 0.109059 0.0177865)
(1.32072 0.180572 0.0393731)
(1.28639 0.100462 0.0709444)
(1.50388 0.104303 0.0418282)
(1.26675 0.085206 0.0311629)
(1.29273 0.0309799 0.0210931)
(1.30356 0.155857 0.0589851)
(1.39415 0.034787 0.0484009)
(1.2578 0.0575832 0.035594)
(1.32607 0.0968284 0.111132)
(1.33935 -0.103073 -0.105022)
(1.19047 0.0173807 0.0655229)
(1.30289 0.0349332 -0.00342858)
(1.41704 0.0314754 0.0477092)
(1.27734 0.0392117 0.0499426)
(0.698968 0.080498 0.173767)
(0.406625 0.465518 0.00680282)
(0.877148 0.372874 0.0223252)
(0.0781019 0.0712196 0.0148158)
(0.880053 0.373987 0.00716924)
(0.403503 0.46198 -0.000650798)
(0.735777 0.689346 -0.00781242)
(1.89769 0.111836 0.0202652)
(1.55882 0.333013 0.00696095)
(1.56342 0.334156 0.0136745)
(0.730854 0.684927 0.0166978)
(0.734454 0.688311 0.0140613)
(1.89982 0.11175 -0.00986957)
(1.56537 0.334364 0.00413611)
(0.405642 0.464493 -0.00280667)
(0.0783293 0.0711124 -0.0152155)
(0.878822 0.373972 0.0172329)
(1.52878 -0.0773736 -0.0165961)
(1.28005 -0.246294 0.00881782)
(1.5679 -0.0111635 0.036225)
(1.54184 0.129548 -0.0360086)
(1.55 0.130878 0.0347102)
(1.55926 -0.0119088 -0.0201475)
(1.57037 -0.0108035 -0.024518)
(1.55238 0.130337 -0.0351017)
(1.52621 -0.0779241 0.0314425)
(1.2741 -0.244417 0.0167346)
(1.27776 -0.246259 0.0134015)
(1.51801 -0.0782733 -0.0111167)
(0.400376 0.458304 0.00198126)
(0.878787 0.372915 0.0133366)
(0.0776397 0.0712981 -0.0111075)
(0.875792 0.371008 0.031399)
(0.405091 0.463807 0.00889063)
(0.726096 0.68017 0.0202789)
(1.55625 0.331739 0.0169192)
(1.88057 0.110261 -0.00276075)
(0.733002 0.686845 -0.00489164)
(1.55065 0.329492 0.0127953)
(0.729724 0.683478 -0.0007085)
(1.53959 0.324455 0.0217337)
(1.87646 0.109165 0.0277258)
(1.54722 0.327918 0.0233502)
(0.71881 0.672908 0.0269529)
(0.402983 0.461372 0.0117024)
(0.875216 0.367894 0.0476046)
(0.0768495 0.0717718 0.0189241)
(0.879299 0.370884 0.024431)
(0.395286 0.452356 0.00692)
(0.394393 0.451854 0.0260186)
(0.891757 0.345335 0.134679)
(0.0758515 0.0759875 0.0403599)
(0.895427 0.358712 0.082714)
(0.370343 0.423882 0.0335566)
(0.719458 0.672112 0.020193)
(1.83489 0.0985485 0.0490834)
(1.50045 0.298333 0.0594822)
(1.51658 0.309763 0.0490356)
(0.688997 0.641805 0.062497)
(0.707843 0.661378 0.0390061)
(1.53456 0.321595 0.0332511)
(1.84396 0.103073 0.0173778)
(0.725164 0.678756 0.00660064)
(1.52429 0.314951 0.0361582)
(0.386559 0.442186 0.0158411)
(0.882504 0.367264 0.0446993)
(0.077829 0.0733455 0.00721273)
(0.399726 0.457685 0.016663)
(0.878491 0.361101 0.0775144)
(1.48095 -0.0681891 0.0627999)
(1.22807 -0.153016 0.109156)
(1.25738 -0.218419 0.0519843)
(1.40221 -0.0653486 0.0804762)
(1.53087 -0.0137723 0.000727121)
(1.53693 0.130899 0.0332765)
(1.51271 0.121066 -0.0244777)
(1.55394 -0.0103677 0.0413668)
(1.49099 -0.0769727 0.0101852)
(1.27006 -0.241722 0.0235734)
(1.26222 -0.232748 0.039222)
(1.51263 -0.0767719 0.0381259)
(1.52088 -0.00641659 0.0630458)
(1.42876 0.0165684 0.0153528)
(1.50553 0.12163 0.0403999)
(1.43065 -0.0324159 0.070981)
(1.23326 -0.0518814 0.108901)
(1.31187 0.00455934 0.07981)
(1.31321 0.00812823 -0.0238771)
(1.32275 0.0122976 0.0618923)
(0.34999 0.399345 0.0961331)
(0.930142 0.336963 0.156648)
(0.123715 0.0830663 0.177985)
(0.965549 0.300179 0.245312)
(0.384104 0.44184 0.0440044)
(0.671648 0.610241 0.140322)
(1.4867 0.287012 0.0757341)
(1.74636 0.0775604 0.0618621)
(0.710349 0.661892 0.04578)
(1.45848 0.255369 0.101428)
(0.710551 -0.0560959 0.286158)
(0.791306 -0.0855542 0.361254)
(1.45097 -0.0640569 0.638295)
(0.727702 0.660437 0.165565)
(1.39765 0.0929014 0.121256)
(1.69332 0.0385203 0.0917581)
(1.25863 -0.179971 0.317753)
(1.43059 0.211524 0.1278)
(1.59284 0.0549052 0.492839)
(0.383189 0.448908 0.149401)
(1.34642 0.165507 0.350299)
(0.157967 0.0842624 0.264581)
(0.910015 -0.0982527 0.51479)
(1.07169 0.269677 0.294796)
(1.50584 0.0392645 0.675962)
(1.28166 0.0807869 0.0912494)
(1.11659 0.0360428 0.122198)
(1.17438 0.0204509 0.119191)
(1.23655 0.0313116 0.044269)
(1.2468 0.0576961 0.0629045)
(1.25266 0.0377382 0.0579519)
(1.09578 0.0479103 0.142806)
(1.27205 0.0437345 0.0526107)
(1.26784 0.0157171 0.00781699)
(1.25986 0.0298322 0.0230702)
(1.23431 0.0241236 0.0209383)
(1.3132 0.0159984 0.0229309)
(1.24918 0.0336987 0.0249352)
(1.24329 0.0300248 0.039933)
(1.12592 0.78533 0.00146104)
(1.32249 0.366729 0.0139827)
(1.16799 0.418796 0.00928428)
(1.41638 0.388706 0.00730852)
(1.12635 0.784935 0.0141581)
(1.31994 0.365995 0.0110411)
(1.16475 0.417037 0.0135013)
(1.41105 0.386988 0.0104971)
(1.16678 0.418208 0.0162524)
(1.41357 0.387935 0.013769)
(1.12146 0.782139 0.00597326)
(1.11681 0.77618 0.026785)
(1.30899 0.358084 0.0237222)
(1.39624 0.377604 0.026065)
(1.15747 0.408814 0.0338353)
(1.16022 0.412079 0.032067)
(1.40008 0.380387 0.0257432)
(1.10684 0.769514 0.0251574)
(1.11552 0.777142 0.0128504)
(1.31296 0.36091 0.0237904)
(1.1634 0.41596 0.0221371)
(1.40751 0.384995 0.0181315)
(1.16119 0.413929 0.0212082)
(1.12194 0.781487 0.018899)
(1.40458 0.383244 0.0166042)
(1.09414 0.756369 0.0471198)
(1.39003 0.372426 0.0380156)
(1.29951 0.342805 0.048956)
(1.1575 0.405187 0.0493236)
(1.10978 0.767933 0.0407569)
(1.15458 0.399005 0.0556436)
(1.38524 0.367227 0.0414938)
(1.10108 0.753643 0.0665716)
(1.29205 0.33239 0.0556085)
(1.15526 0.379132 0.0931984)
(1.36966 0.348124 0.0660845)
(1.15833 0.390997 0.0787927)
(1.37662 0.357351 0.057695)
(1.07352 0.733285 0.0887341)
(1.11519 0.65074 0.274819)
(1.27898 0.198764 0.132698)
(1.35109 0.140087 0.149816)
(1.30416 0.171281 0.231062)
(1.23987 0.257592 0.218882)
(1.33898 0.223685 0.151086)
(1.44179 0.127976 0.418921)
(0.596554 0.048278 0.0726734)
(0.59541 -0.0304205 -0.08328)
(0.619108 -0.0314054 0.155738)
(1.06107 0.689641 0.198762)
(1.28346 0.269439 0.108797)
(1.16937 0.358937 0.132515)
(1.35657 0.326191 0.0922456)
(1.17549 0.330115 0.161195)
(1.08878 0.72765 0.115758)
(1.34768 0.303998 0.109088)
(1.6493 -0.103644 0.0433257)
(1.24944 -0.0784132 0.0976071)
(1.62192 -0.0397611 0.196832)
(1.60134 -0.0157502 0.165955)
(1.12873 -0.0867889 0.032998)
(1.66077 -0.0433352 0.111426)
(1.0804 -0.0658019 0.10038)
(1.38789 0.0702298 0.100245)
(1.56054 -0.0191153 0.0304868)
(1.46737 0.0466655 0.136131)
(1.39967 -0.00963884 0.107714)
(1.39717 -0.00639278 0.0522635)
(1.37833 0.0297308 0.0771919)
(1.43966 -0.0508623 0.0777174)
(1.36628 0.118358 0.27079)
(1.08027 -0.0155333 0.259509)
(1.47643 0.057916 0.285899)
(1.51256 0.0240946 0.196673)
(0.79392 0.0425816 0.100042)
(1.4802 0.0673711 0.189422)
(0.967825 -0.0139585 0.131185)
(0.254104 0.199638 0.00601013)
(0.682518 0.518574 0.00961352)
(0.399451 0.459737 0.00387308)
(0.672031 0.518611 0.00965502)
(0.258069 0.196065 0.0101913)
(0.0771708 0.030332 0.00938287)
(-0.0340379 0.0157479 -0.0212509)
(0.0766497 0.0229077 0.00670077)
(-0.0351262 0.0158807 0.0269534)
(0.254334 0.200367 0.0122905)
(0.399892 0.460949 0.00518854)
(0.678567 0.51682 0.0110739)
(0.669925 0.518238 0.0111154)
(0.255973 0.194248 0.00729543)
(0.0765822 0.0294953 0.005456)
(-0.0347054 0.0150526 0.0268731)
(0.0777197 0.0241756 0.00766412)
(-0.0342122 0.0166011 -0.0219151)
(1.83857 0.717098 0.0207493)
(1.60635 0.809913 0.00692853)
(0.726639 0.682983 0.0190645)
(1.84602 0.720308 -0.007572)
(1.6015 0.808432 0.0130876)
(1.88802 0.675135 -0.0111175)
(1.19328 0.137114 0.00981316)
(1.19406 0.137064 -0.0136391)
(1.88802 0.675403 0.0214932)
(1.88938 0.675123 0.0210898)
(1.19848 0.138134 -0.0138171)
(1.89692 0.678778 -0.0123947)
(1.19555 0.136972 0.00997503)
(1.83709 0.717015 -0.00629964)
(0.726808 0.683876 -0.00787167)
(1.60019 0.807219 0.0136788)
(1.59878 0.80749 0.00774761)
(1.83775 0.717069 0.0214171)
(1.84374 0.719499 -0.00985473)
(0.728978 0.685995 -0.011072)
(1.60671 0.81041 0.00947194)
(1.60465 0.810535 0.00361497)
(1.84578 0.719973 0.0180317)
(1.89491 0.677385 -0.0142614)
(1.19914 0.137837 0.00975625)
(1.89654 0.678215 0.0188262)
(1.19866 0.1375 -0.0142572)
(0.255332 0.202488 0.00796567)
(0.401123 0.462357 0.00266738)
(0.681178 0.519234 0.00622421)
(0.672024 0.520611 0.00662905)
(0.257525 0.196488 0.00201312)
(0.0773546 0.03236 0.00582786)
(-0.0341841 0.016004 -0.0247065)
(0.0772165 0.0250209 0.00224189)
(-0.0349369 0.0165954 0.0260409)
(0.252796 0.197221 0.0187589)
(0.674963 0.512896 0.0185787)
(0.398022 0.458795 0.00804477)
(0.66695 0.514559 0.0177188)
(0.253482 0.190295 0.0154542)
(0.0758999 0.0263934 0.0108782)
(-0.0349988 0.01437 0.0280169)
(0.0772663 0.0219336 0.0120504)
(-0.0340377 0.0162102 -0.017549)
(0.252341 0.196342 0.012471)
(0.397189 0.456766 0.00654181)
(0.680174 0.515841 0.0148744)
(0.25673 0.193772 0.0154101)
(0.669765 0.515327 0.015492)
(0.0767745 0.0273618 0.0148406)
(-0.0338406 0.0152435 -0.0158631)
(0.0756112 0.019039 0.013609)
(-0.0354927 0.0149587 0.0283541)
(1.82813 0.713497 -0.00168082)
(0.723559 0.680786 -0.0041539)
(1.59174 0.802186 0.0204335)
(1.59099 0.80296 0.0137171)
(1.82746 0.71266 0.0267909)
(1.8802 0.671894 0.0242941)
(1.19283 0.137592 -0.0134334)
(1.18922 0.136205 0.010072)
(1.88873 0.676218 -0.00936295)
(1.87877 0.672023 -0.00734154)
(1.18623 0.136202 0.0101653)
(1.18787 0.136444 -0.0131597)
(1.87725 0.671359 0.0256374)
(1.82987 0.713623 0.0249036)
(0.723001 0.679162 0.0223183)
(1.59969 0.806408 0.0115762)
(1.83817 0.717504 -0.00391608)
(1.59449 0.804516 0.0183408)
(1.81919 0.708732 0.0326219)
(1.59163 0.801041 0.0195278)
(0.718535 0.673758 0.0285863)
(1.58608 0.798604 0.0277278)
(1.82857 0.713478 0.00224361)
(1.86695 0.667955 7.49861e-06)
(1.17721 0.134981 0.0113692)
(1.18019 0.13571 -0.011619)
(1.86254 0.665717 0.0330317)
(1.86904 0.667588 0.030474)
(1.18628 0.137007 -0.0125334)
(1.18176 0.135342 0.0108384)
(1.8789 0.672818 -0.00429926)
(1.81652 0.708717 0.00696722)
(0.719553 0.676663 0.00335561)
(1.57989 0.794926 0.0321614)
(1.58057 0.796433 0.0244224)
(1.81324 0.706486 0.0361816)
(0.249824 0.189884 0.0247528)
(0.677993 0.511218 0.0237775)
(0.394038 0.452332 0.0116754)
(0.667914 0.509717 0.0262876)
(0.254799 0.189336 0.0237485)
(0.0760998 0.0209066 0.0258973)
(-0.0336351 0.0141312 -0.00590796)
(0.0736507 0.0111361 0.0269128)
(-0.0362296 0.0131265 0.0319374)
(0.250252 0.190978 0.0316747)
(0.395401 0.455799 0.0140593)
(0.669402 0.506348 0.0325232)
(0.662843 0.5085 0.0302726)
(0.248962 0.182572 0.0313036)
(0.0750357 0.0198895 0.0210416)
(-0.0355179 0.0130506 0.0300463)
(0.0765279 0.0172369 0.0190968)
(-0.0337846 0.0152909 -0.00979929)
(0.237886 0.145484 0.101419)
(0.673375 0.487608 0.0731859)
(0.381626 0.434028 0.0380406)
(0.66749 0.479923 0.0873076)
(0.244383 0.159851 0.0757578)
(0.0769293 -0.0381468 0.105016)
(-0.0368004 0.00119722 0.0587271)
(0.0670745 -0.058978 0.123582)
(-0.0418983 0.000520419 0.0746719)
(0.236798 0.143413 0.117736)
(0.385683 0.444193 0.0487656)
(0.646688 0.467225 0.111421)
(0.650917 0.474017 0.102514)
(0.221185 0.121634 0.135912)
(0.0748061 -0.0296934 0.0845621)
(-0.0392644 0.00502989 0.0510352)
(0.0723717 -0.0184017 0.0655953)
(-0.03439 0.00770742 0.035798)
(1.7901 0.690997 0.0699605)
(1.56686 0.779853 0.0571982)
(0.705443 0.653746 0.0606957)
(1.80004 0.699269 0.0315012)
(1.56226 0.774677 0.0730102)
(1.83604 0.655166 0.0362172)
(1.16339 0.131075 0.0176724)
(1.16916 0.13392 -0.00258179)
(1.81706 0.644643 0.0678506)
(1.84087 0.653358 0.0608807)
(1.174 0.135416 -0.006211)
(1.85159 0.661776 0.0201174)
(1.17035 0.133488 0.017118)
(1.7833 0.69202 0.0491883)
(0.70943 0.663186 0.04432)
(1.53817 0.763944 0.0886601)
(1.54709 0.770032 0.0767223)
(1.7661 0.682279 0.080675)
(1.80185 0.701689 0.0217697)
(0.714598 0.670794 0.0166771)
(1.56354 0.782992 0.0524857)
(1.56661 0.786063 0.0428613)
(1.79446 0.696847 0.0525921)
(1.85539 0.661612 0.0410025)
(1.17869 0.136258 -0.0105486)
(1.86612 0.668227 0.00443371)
(1.174 0.134354 0.012861)
(1.80567 0.701622 0.045706)
(0.712658 0.665746 0.0392439)
(1.5807 0.793087 0.0331403)
(1.81578 0.707865 0.0127885)
(1.57513 0.789579 0.0437701)
(1.85277 0.662349 0.0126243)
(1.16887 0.133457 0.0142917)
(1.844 0.65731 0.0461371)
(1.17324 0.134842 -0.00847353)
(0.245564 0.177045 0.0579556)
(0.39141 0.451076 0.0250917)
(0.660971 0.493455 0.0587735)
(0.657382 0.496992 0.0538387)
(0.240013 0.164822 0.0639917)
(0.0739566 0.00554752 0.0408006)
(-0.0366189 0.0104511 0.0352194)
(0.0750375 0.00713401 0.0332409)
(-0.0335985 0.0130992 0.00488714)
(0.245446 0.176462 0.0487641)
(0.389166 0.445264 0.0204729)
(0.675254 0.50328 0.0403833)
(0.251303 0.180443 0.0402032)
(0.666206 0.499686 0.0463568)
(0.0751331 0.00512364 0.0492753)
(-0.0338531 0.0112744 0.0138394)
(0.0701078 -0.00783606 0.0549881)
(-0.0378519 0.0091889 0.0417668)
(0.231294 0.0695415 0.24984)
(0.657048 0.412102 0.252719)
(0.383627 0.442721 0.0983012)
(0.667269 0.427821 0.213831)
(0.214868 0.025624 0.321619)
(0.0878558 -0.121908 0.191594)
(-0.0468886 -0.0112141 0.108219)
(0.0726568 -0.0881566 0.14984)
(-0.0407779 -0.0179806 0.110961)
(0.227052 0.0761008 0.213105)
(0.370861 0.419413 0.0679029)
(0.672838 0.456307 0.13966)
(0.229743 0.111698 0.154992)
(0.677283 0.442288 0.17252)
(0.102676 -0.150949 0.248441)
(-0.0425756 -0.0429791 0.238197)
(0.1018 -0.174745 0.336193)
(-0.0540148 -0.0375565 0.200048)
(1.76233 0.676415 0.100557)
(0.713702 0.660316 0.103989)
(1.50595 0.720423 0.171978)
(1.52604 0.738686 0.145722)
(1.72384 0.647174 0.142872)
(1.82447 0.640043 0.0934169)
(1.17476 0.134389 -0.00204443)
(1.18044 0.132415 0.0163958)
(1.83182 0.652067 0.0453391)
(1.81914 0.645557 0.077779)
(1.1686 0.126379 0.00056472)
(1.1758 0.13417 -0.00196272)
(1.77663 0.61721 0.110693)
(1.77047 0.672573 0.112783)
(0.697361 0.636537 0.101618)
(1.54636 0.757098 0.100665)
(1.77705 0.685881 0.063219)
(1.54603 0.74736 0.127331)
(0.495314 -0.134656 0.0241989)
(0.882825 -0.14433 0.39738)
(0.596552 -0.179774 0.205076)
(0.61186 -0.0590114 0.0962016)
(0.887672 -0.128687 0.459333)
(0.69365 -0.0602296 0.251707)
(1.1171 -0.121686 0.462466)
(1.08402 -0.228263 0.562972)
(0.788187 -0.196815 0.338019)
(1.74972 0.521061 0.272355)
(1.53516 0.66637 0.214105)
(0.746073 0.572169 0.321695)
(1.54376 0.598262 0.320906)
(1.75033 0.638693 0.14854)
(1.89365 0.417074 0.314242)
(1.69335 -0.0682168 0.168975)
(1.5049 -0.125363 0.415843)
(1.66977 -0.016442 0.237072)
(1.49871 0.15014 0.00678192)
(1.83005 0.533288 0.223439)
(1.20257 0.136759 -0.0114323)
(1.25895 0.141827 0.0117937)
(1.81427 0.623358 0.115639)
(1.72559 0.368515 0.318526)
(1.09889 0.60849 0.721545)
(1.48204 0.114718 0.280802)
(1.59148 -0.00914136 0.466571)
(1.5743 0.0603605 0.281038)
(1.52709 0.323439 0.375407)
(0.389551 -0.0378706 0.647589)
(0.739145 0.38138 0.342541)
(0.390287 0.405888 0.30599)
(0.819547 0.335055 0.521147)
(0.251065 0.0135231 0.382711)
(0.365583 -0.256738 1.00679)
(0.96249 -0.116367 0.725209)
(1.06864 -0.159804 0.598938)
(1.16744 -0.127504 0.773632)
(0.0219533 -0.0665249 0.805639)
(0.699364 -0.0488289 0.80404)
(0.573731 0.539094 0.696685)
(1.39087 0.117117 0.498612)
(1.35031 -0.138458 0.702816)
(1.34759 0.0177141 0.626073)
(1.13556 0.168933 0.616926)
(0.211353 -0.236689 0.732974)
(-0.0529277 -0.0867916 0.43412)
(0.123874 -0.221745 0.44643)
(-0.0572926 -0.0662119 1.04303)
(1.23153 0.00262446 0.000238083)
(1.21693 0.00151805 0.0105294)
(1.22687 0.0010616 0.00165203)
(1.21665 0.0061532 0.00610218)
(1.22207 0.00174736 0.000682108)
(1.21424 0.00278166 0.00480203)
(1.21762 0.000511532 0.00066642)
(1.39363 -0.0397082 0.00628074)
(1.31744 0.0594932 0.00792493)
(1.31446 0.0162127 -0.00428519)
(1.36848 0.0136076 -0.00645561)
(1.31686 0.0165025 0.00856266)
(1.37195 0.0150094 0.00221553)
(1.39009 -0.0399132 -0.000424501)
(1.36934 -0.0401571 0.00307101)
(1.30729 0.0180764 0.0109563)
(1.35891 0.010908 -0.00250785)
(1.30146 0.0513808 -0.00674925)
(1.30151 0.0138275 0.00303976)
(1.3489 0.00805167 -0.0112028)
(1.38049 -0.0399523 0.00701967)
(1.28684 -0.0108343 -0.00287094)
(1.26913 -0.0388784 0.00741245)
(1.27121 -0.037579 0.00174999)
(1.2506 -0.0101372 9.80016e-05)
(1.26065 0.00702107 0.00102269)
(1.26409 0.0102101 -0.00371904)
(1.24842 -0.0118528 0.00503203)
(1.26189 -0.0337061 0.00588367)
(1.26157 -0.00955463 -0.00109541)
(1.2505 -0.0276719 0.0143306)
(1.23953 -0.00884286 0.00859987)
(1.25468 0.00843335 -0.000939161)
(1.24367 -0.0086884 0.00409927)
(1.24868 0.0024246 0.00287294)
(1.24393 0.00147613 -0.000385473)
(1.22974 -0.00240599 0.00740779)
(1.23948 -0.00699054 0.0141978)
(1.23472 -0.000398447 0.00758479)
(1.23333 0.00118863 -0.000767815)
(1.24004 0.00512052 0.00137647)