/*--------------------------------*- C++ -*----------------------------------*\
| =========                 |                                                 |
| \\      /  F ield         | OpenFOAM: The Open Source CFD Toolbox           |
|  \\    /   O peration     | Version:  2012                                  |
|   \\  /    A nd           | Website:  www.openfoam.com                      |
|    \\/     M anipulation  |                                                 |
\*---------------------------------------------------------------------------*/
FoamFile
{
    version     2.0;
    format      ascii;
    class       surfaceVectorField;
    location    "0.107/fluid";
    object      Uf;
}
// * * * * * * * * * * * * * * * * * * * * * * * * * * * * * * * * * * * * * //

dimensions      [0 1 -1 0 0 0 0];


internalField   nonuniform List<vector> 
47156
(
(1.19995 2.33118e-05 7.85697e-06)
(1.19998 4.03547e-05 1.42537e-05)
(1.19997 2.59018e-05 7.90439e-06)
(1.19995 2.3394e-05 7.69708e-06)
(1.19972 6.8932e-05 9.96995e-05)
(1.19979 7.26717e-05 8.31717e-05)
(1.19973 6.31144e-05 0.000112571)
(1.19991 6.42067e-05 0.00010079)
(1.19972 6.92995e-05 0.000100054)
(1.19935 4.12899e-05 0.000140976)
(1.19959 4.23491e-05 0.000140784)
(1.19955 4.07505e-05 0.000145976)
(1.19966 4.40481e-05 0.000142834)
(1.19935 4.15041e-05 0.000143142)
(1.19934 3.82597e-05 0.000186439)
(1.19942 3.84274e-05 0.000180928)
(1.19937 3.81303e-05 0.000196955)
(1.19975 4.74104e-05 0.000188462)
(1.19935 3.82825e-05 0.00018909)
(1.19917 3.83023e-05 0.000269211)
(1.19922 3.81816e-05 0.000259837)
(1.19916 3.82208e-05 0.000286914)
(1.19966 5.52246e-05 0.000272155)
(1.1992 3.80548e-05 0.000274334)
(1.19892 4.1249e-05 0.000407462)
(1.19897 4.03057e-05 0.000391226)
(1.1989 4.21956e-05 0.000435529)
(1.19948 6.84032e-05 0.000411708)
(1.19896 4.09895e-05 0.000414362)
(1.19857 5.38158e-05 0.00063451)
(1.19865 5.13378e-05 0.000607175)
(1.19855 5.55814e-05 0.000680014)
(1.19922 9.6946e-05 0.000640088)
(1.19864 5.28093e-05 0.000644995)
(1.19805 7.78536e-05 0.0010042)
(1.19818 7.29841e-05 0.000959635)
(1.19803 8.10062e-05 0.00107764)
(1.19881 0.000145752 0.00101174)
(1.19817 7.54279e-05 0.00102061)
(1.19725 0.000122386 0.00160488)
(1.19746 0.000113218 0.00153066)
(1.19723 0.000128508 0.00172256)
(1.19817 0.000231549 0.00161434)
(1.19746 0.000117771 0.00162811)
(1.19593 0.000223309 0.00258735)
(1.19629 0.000200811 0.00246303)
(1.19588 0.000239273 0.00277763)
(1.19715 0.00040568 0.00259433)
(1.19628 0.000211726 0.0026208)
(1.19348 0.000509603 0.00420137)
(1.19415 0.000443949 0.00399537)
(1.19333 0.000563505 0.00451363)
(1.19538 0.000831894 0.00419565)
(1.19408 0.000479149 0.00425646)
(1.18796 0.00147912 0.00683783)
(1.18941 0.00125927 0.0065182)
(1.18732 0.00169672 0.00737145)
(1.19192 0.00209892 0.00680305)
(1.18901 0.00139561 0.00697626)
(1.17199 0.00542608 0.0110389)
(1.17591 0.00453535 0.0106667)
(1.16897 0.00644908 0.0120554)
(1.18344 0.0068667 0.010982)
(1.1739 0.0051677 0.0116013)
(1.11103 0.0231587 0.0169325)
(1.12496 0.0193175 0.0171501)
(1.09531 0.0280664 0.0190348)
(1.15467 0.0292115 0.0172966)
(1.11446 0.0224137 0.0194687)
(0.834579 0.0850672 0.0178805)
(0.887434 0.0787931 0.0218234)
(1.02073 0.136435 0.0220194)
(0.837544 0.0838565 0.0254012)
(0.959424 0.206781 0.0352484)
(0.545748 0.0878406 0.0134614)
(0.959506 0.207331 0.0158666)
(0.546381 0.0875847 0.00841748)
(1.19997 1.16568e-06 7.9593e-06)
(1.19997 3.02469e-06 7.91546e-06)
(1.2 3.04745e-06 1.44162e-05)
(1.19997 4.23606e-06 7.91688e-06)
(1.19997 1.16892e-06 7.88147e-06)
(1.19996 3.41192e-05 0.000100811)
(1.19996 4.37518e-05 0.000101479)
(1.2 2.744e-05 8.43217e-05)
(1.2 4.03914e-05 0.000113476)
(1.19996 4.7724e-05 0.000101398)
(1.19996 3.37449e-05 0.000101271)
(1.19973 6.71849e-05 0.000139641)
(1.19974 6.67207e-05 0.000141527)
(1.19996 6.433e-05 0.000139447)
(1.19995 6.97957e-05 0.000144576)
(1.19974 8.0333e-05 0.00014075)
(1.19974 6.64316e-05 0.000141733)
(1.19983 9.8453e-05 0.000183478)
(1.19984 9.29452e-05 0.000186169)
(1.1999 9.31537e-05 0.000178238)
(1.19988 0.000102844 0.000193648)
(1.19984 0.000112332 0.000184788)
(1.19985 9.70649e-05 0.000186345)
(1.19977 0.00014622 0.000263297)
(1.19978 0.000134134 0.000267581)
(1.1998 0.000138223 0.000254168)
(1.19977 0.000152422 0.000280204)
(1.19979 0.000162786 0.000265058)
(1.19979 0.000143685 0.000268011)
(1.19961 0.000217666 0.000397299)
(1.19962 0.000196387 0.000403853)
(1.19965 0.00020512 0.000381482)
(1.19961 0.000226908 0.000424543)
(1.19964 0.000239127 0.000399298)
(1.19966 0.00021309 0.000404041)
(1.19937 0.000329505 0.000615729)
(1.19939 0.000295191 0.000626088)
(1.19944 0.000309232 0.000589661)
(1.19937 0.00034367 0.000659141)
(1.19943 0.000358956 0.000617884)
(1.19944 0.000321268 0.000625631)
(1.19901 0.00050986 0.000967299)
(1.19904 0.000454743 0.000984413)
(1.19911 0.000475901 0.000924899)
(1.19901 0.00053225 0.00103693)
(1.1991 0.000552017 0.000969149)
(1.19912 0.000494544 0.000982613)
(1.19844 0.000812356 0.00153348)
(1.19849 0.000722803 0.0015618)
(1.19862 0.000753149 0.00146427)
(1.19845 0.000849273 0.00164362)
(1.1986 0.000874293 0.0015326)
(1.19864 0.000783088 0.00155572)
(1.19757 0.00134646 0.00244163)
(1.19764 0.0012002 0.00248848)
(1.19785 0.00123792 0.00232779)
(1.1976 0.00141233 0.00261502)
(1.19783 0.00143804 0.00243166)
(1.19788 0.00128952 0.00247198)
(1.19623 0.00235917 0.00388993)
(1.1963 0.00212714 0.00397121)
(1.19666 0.00214633 0.00370607)
(1.19627 0.00249166 0.00416014)
(1.19668 0.00250036 0.00385725)
(1.19672 0.00224501 0.00393307)
(1.19416 0.00450734 0.00612999)
(1.19418 0.00419926 0.00628621)
(1.19481 0.00404513 0.00585401)
(1.19422 0.00482165 0.00654067)
(1.19502 0.00475745 0.00604772)
(1.1949 0.00426831 0.00621062)
(1.19133 0.00973212 0.00927202)
(1.19098 0.00973186 0.00963862)
(1.19213 0.00859669 0.00896351)
(1.19144 0.0106264 0.00986422)
(1.19316 0.0102235 0.00910972)
(1.1923 0.00920108 0.00952773)
(1.1887 0.0270464 0.0134163)
(1.19138 0.0243576 0.0123925)
(1.19103 0.021246 0.0124587)
(1.1926 0.0271191 0.0130804)
(1.19205 0.0231265 0.0133089)
(1.195 0.0244397 0.0121964)
(1.21502 0.0736847 0.0131926)
(1.22331 0.0593962 0.0110005)
(1.21455 0.0533386 0.012428)
(1.23264 0.0616718 0.010722)
(1.22148 0.0569685 0.0132732)
(1.22431 0.0519881 0.0108073)
(1.19997 4.06238e-06 7.93584e-06)
(1.19997 3.91239e-06 7.91684e-06)
(1.2 8.52588e-06 1.43938e-05)
(1.19997 4.23561e-06 7.90685e-06)
(1.19997 4.05396e-06 7.88012e-06)
(1.19995 6.56755e-05 9.99634e-05)
(1.19995 6.35909e-05 0.000100737)
(1.2 5.40851e-05 8.37795e-05)
(1.19999 7.56816e-05 0.000112319)
(1.19995 6.81121e-05 0.000100312)
(1.19995 6.50187e-05 0.000100529)
(1.19974 0.000117255 0.000136009)
(1.19974 0.00011252 0.000137992)
(1.19997 0.000112676 0.000136168)
(1.19996 0.000121639 0.000140679)
(1.19975 0.000120627 0.000136883)
(1.19975 0.000116162 0.000138262)
(1.19986 0.000167326 0.00017622)
(1.19986 0.000159858 0.000179262)
(1.19992 0.00015896 0.00017155)
(1.19991 0.000174231 0.000185797)
(1.19988 0.000171672 0.000177025)
(1.19988 0.000165081 0.00017916)
(1.19983 0.000244024 0.000250603)
(1.19984 0.000232782 0.000255251)
(1.19986 0.000231065 0.000242041)
(1.19984 0.000254162 0.000266111)
(1.19986 0.000249967 0.000251233)
(1.19986 0.000239992 0.000254629)
(1.19973 0.000360313 0.000373698)
(1.19974 0.000343033 0.000381291)
(1.19977 0.000339913 0.000359244)
(1.19974 0.000375432 0.000398698)
(1.19977 0.000368326 0.000374022)
(1.19978 0.000353015 0.000379876)
(1.19958 0.00054114 0.00057192)
(1.19958 0.000514047 0.000584629)
(1.19963 0.000508379 0.000548636)
(1.19959 0.000563568 0.000611181)
(1.19964 0.000551528 0.000571119)
(1.19964 0.000527587 0.000581246)
(1.19934 0.000827642 0.000885794)
(1.19935 0.0007851 0.000907101)
(1.19943 0.000773726 0.000848392)
(1.19936 0.000862196 0.000947509)
(1.19945 0.000840612 0.000882342)
(1.19945 0.000802819 0.000899627)
(1.199 0.00129044 0.00138122)
(1.19901 0.00122451 0.00141669)
(1.19913 0.00120078 0.00132138)
(1.19904 0.00134333 0.00147615)
(1.19917 0.00130282 0.00137109)
(1.19917 0.00124473 0.00140038)
(1.19854 0.00204231 0.00215123)
(1.19854 0.00194353 0.00221061)
(1.19872 0.00189108 0.00205605)
(1.19861 0.0021243 0.00229524)
(1.1988 0.00204333 0.00212597)
(1.1988 0.00195753 0.00217604)
(1.19799 0.00329377 0.0033309)
(1.19797 0.00315942 0.00343098)
(1.19825 0.00303386 0.00318261)
(1.19813 0.00342402 0.00354288)
(1.1984 0.00325044 0.00327532)
(1.19838 0.00313788 0.00336088)
(1.19767 0.00537456 0.00506007)
(1.19758 0.0052579 0.00522474)
(1.19794 0.00493853 0.00484237)
(1.19797 0.00557769 0.00534854)
(1.19827 0.00518714 0.0049519)
(1.19822 0.00510127 0.00509205)
(1.1988 0.00857103 0.00728494)
(1.19854 0.00876594 0.00755022)
(1.19881 0.00792758 0.0070343)
(1.19952 0.00882373 0.0076164)
(1.1995 0.00794779 0.00713375)
(1.19944 0.00815379 0.00734775)
(1.20566 0.011677 0.00907439)
(1.20506 0.0135204 0.00949737)
(1.20438 0.01123 0.00905644)
(1.20745 0.0116081 0.00924024)
(1.20547 0.00997085 0.00914896)
(1.20588 0.0113288 0.00932726)
(1.22795 0.00891631 0.00693547)
(1.2263 0.014394 0.0071052)
(1.22324 0.00981187 0.00741258)
(1.23056 0.00824523 0.0056021)
(1.22461 0.00584155 0.00736253)
(1.22603 0.00917514 0.00761923)
(1.19997 4.70642e-06 7.85666e-06)
(1.19997 4.70953e-06 7.85276e-06)
(1.2 9.62791e-06 1.42087e-05)
(1.19997 4.6877e-06 7.80519e-06)
(1.19996 7.84858e-05 9.77868e-05)
(1.19996 7.73766e-05 9.85986e-05)
(1.2 6.40674e-05 8.19983e-05)
(1.2 9.07499e-05 0.000109519)
(1.19996 7.77111e-05 9.80711e-05)
(1.19976 0.000138028 0.000131139)
(1.19976 0.000135956 0.000133298)
(1.19999 0.000133111 0.000131644)
(1.19998 0.00014281 0.000135526)
(1.19977 0.000136792 0.000133674)
(1.19992 0.000195486 0.000166438)
(1.19992 0.000192649 0.000169541)
(1.19997 0.00018564 0.000162443)
(1.19997 0.000203606 0.00017493)
(1.19993 0.000192782 0.000169068)
(1.19993 0.000285823 0.000232965)
(1.19993 0.000281107 0.000237768)
(1.19995 0.000270485 0.000225316)
(1.19995 0.000297725 0.000246682)
(1.19996 0.000281006 0.000236486)
(1.1999 0.000421986 0.000341477)
(1.1999 0.000414152 0.000349505)
(1.19992 0.000398198 0.00032879)
(1.19991 0.00043936 0.000363608)
(1.19994 0.000413344 0.000346986)
(1.19984 0.000630345 0.000512564)
(1.19984 0.000617601 0.000526106)
(1.19988 0.000592588 0.000493089)
(1.19986 0.000655862 0.000546348)
(1.1999 0.000614492 0.000521182)
(1.19976 0.000954358 0.000778776)
(1.19975 0.000934412 0.000800917)
(1.19982 0.000893831 0.000747375)
(1.1998 0.000991907 0.00083064)
(1.19985 0.00092594 0.000790517)
(1.19967 0.00145087 0.00118725)
(1.19965 0.00142086 0.00122364)
(1.19975 0.00135537 0.00113888)
(1.19973 0.00150393 0.00126425)
(1.19981 0.00140036 0.00120299)
(1.19958 0.00220293 0.00179767)
(1.19956 0.00215979 0.00185797)
(1.19969 0.00205205 0.00172424)
(1.19969 0.00227453 0.00191024)
(1.19979 0.00211237 0.00181793)
(1.19958 0.00331282 0.00270393)
(1.19955 0.00325895 0.00280088)
(1.19972 0.00308204 0.00259152)
(1.19975 0.0033998 0.00286617)
(1.19988 0.00315643 0.00272676)
(1.19983 0.00478882 0.00403028)
(1.19983 0.00474077 0.00417488)
(1.19999 0.0044743 0.00386066)
(1.20012 0.00485348 0.00425685)
(1.20026 0.00453903 0.00404895)
(1.20043 0.00609271 0.0059503)
(1.20067 0.00609952 0.00614393)
(1.20066 0.00582615 0.00570928)
(1.20085 0.00596416 0.00631398)
(1.20109 0.0057834 0.00600336)
(1.20019 0.00354288 0.00903976)
(1.20147 0.00394929 0.00932966)
(1.20098 0.00433742 0.0087985)
(1.20047 0.00209301 0.010017)
(1.20151 0.00371035 0.00955022)
(1.1926 -0.0427415 0.0149552)
(1.20341 -0.0287551 0.0148313)
(1.19524 -0.0282602 0.0157806)
(1.19245 -0.0577417 0.0179585)
(1.19535 -0.03597 0.0211817)
(1.19995 2.38532e-05 6.65247e-06)
(1.19998 4.13064e-05 1.17117e-05)
(1.19997 2.66276e-05 6.6626e-06)
(1.19995 2.40107e-05 6.20793e-06)
(1.19972 7.04222e-05 9.35724e-05)
(1.1998 7.42118e-05 7.50336e-05)
(1.19974 6.44797e-05 0.000103979)
(1.19992 6.5261e-05 9.2125e-05)
(1.19972 7.07812e-05 8.88937e-05)
(1.19937 4.19216e-05 0.000138236)
(1.19962 4.30372e-05 0.00013396)
(1.19958 4.12586e-05 0.000139767)
(1.1997 4.4069e-05 0.000136251)
(1.19938 4.20661e-05 0.000132983)
(1.1994 3.80546e-05 0.000184153)
(1.19947 3.83538e-05 0.000174076)
(1.19943 3.77234e-05 0.000189802)
(1.19981 4.61081e-05 0.000181253)
(1.19941 3.79313e-05 0.000177694)
(1.19928 3.74763e-05 0.000267498)
(1.19932 3.73901e-05 0.000251428)
(1.19928 3.75826e-05 0.000277575)
(1.19978 5.26288e-05 0.000263665)
(1.19931 3.74078e-05 0.000258466)
(1.1991 4.04679e-05 0.000404425)
(1.19915 3.97813e-05 0.000378609)
(1.1991 4.12446e-05 0.000421652)
(1.19968 6.48429e-05 0.000398741)
(1.19914 4.03633e-05 0.000391143)
(1.19887 4.98474e-05 0.000629249)
(1.19893 4.79073e-05 0.00058745)
(1.19887 5.09743e-05 0.00065752)
(1.19953 8.79069e-05 0.000619051)
(1.19894 4.88443e-05 0.000608268)
(1.19855 6.80577e-05 0.000992986)
(1.19865 6.404e-05 0.000925487)
(1.19857 7.04664e-05 0.00103839)
(1.19931 0.000126804 0.000975658)
(1.19867 6.59313e-05 0.000959035)
(1.19808 0.0001035 0.00158006)
(1.19825 9.59206e-05 0.00147103)
(1.19811 0.000107049 0.00165366)
(1.19898 0.000195791 0.00154991)
(1.19828 9.85684e-05 0.00152527)
(1.19733 0.000176553 0.00253957)
(1.19761 0.000158751 0.0023605)
(1.19739 0.000186141 0.00266307)
(1.19847 0.000325649 0.0024859)
(1.19767 0.000165145 0.00245194)
(1.19591 0.000380617 0.00415217)
(1.19643 0.000328469 0.00385459)
(1.19597 0.000411033 0.00437565)
(1.19759 0.000631891 0.00404761)
(1.19652 0.000346507 0.00401975)
(1.19249 0.00108052 0.00702329)
(1.19367 0.000894982 0.00651283)
(1.1924 0.00119959 0.0075003)
(1.19574 0.00152333 0.00678811)
(1.19372 0.000959586 0.00686045)
(1.18168 0.00396222 0.0129621)
(1.18519 0.00316751 0.0120007)
(1.18069 0.00450059 0.0143612)
(1.19078 0.00481013 0.012266)
(1.18487 0.00342952 0.0129766)
(1.13639 0.0175179 0.0293875)
(1.15085 0.0136911 0.0274272)
(1.12974 0.0201922 0.0355799)
(1.17222 0.0204275 0.0269517)
(1.1486 0.0147467 0.0315732)
(0.890812 0.0678492 0.0854584)
(0.960022 0.0593784 0.0892546)
(1.06159 0.101629 0.0864993)
(0.953299 0.0524391 0.117911)
(1.0651 0.171681 0.16716)
(0.603577 0.0828018 0.074578)
(1.0445 0.183642 0.126429)
(0.62663 0.0765104 0.0875611)
(1.19997 1.18308e-06 7.12954e-06)
(1.19997 3.06916e-06 6.8909e-06)
(1.2 2.99187e-06 1.24219e-05)
(1.19997 4.36378e-06 6.90046e-06)
(1.19997 1.19448e-06 6.64408e-06)
(1.19997 3.26091e-05 9.42086e-05)
(1.19997 4.27612e-05 9.22794e-05)
(1.20001 2.6152e-05 7.58273e-05)
(1.20001 3.87195e-05 0.000104156)
(1.19997 4.62076e-05 9.2142e-05)
(1.19997 3.21812e-05 8.92754e-05)
(1.19977 6.47794e-05 0.000137796)
(1.19977 6.49827e-05 0.000135986)
(1.2 6.22317e-05 0.00013361)
(1.19999 6.73626e-05 0.000139366)
(1.19977 7.80735e-05 0.000135616)
(1.19978 6.44275e-05 0.000132749)
(1.1999 9.30563e-05 0.00018107)
(1.19991 8.8257e-05 0.000179103)
(1.19996 8.83482e-05 0.000171639)
(1.19995 9.69589e-05 0.000186406)
(1.19991 0.000106728 0.000177896)
(1.19992 9.18427e-05 0.000174993)
(1.19988 0.000135783 0.000261752)
(1.19989 0.000124888 0.000259261)
(1.19991 0.00012849 0.000245991)
(1.19989 0.000141028 0.000271628)
(1.1999 0.000151384 0.000256657)
(1.19991 0.000133168 0.00025292)
(1.1998 0.000199017 0.000394717)
(1.19981 0.000179823 0.000391448)
(1.19983 0.000187569 0.000369874)
(1.19981 0.000206814 0.000411195)
(1.19983 0.000218927 0.000386867)
(1.19984 0.000194418 0.000381778)
(1.19967 0.000296004 0.00060902)
(1.19969 0.000264864 0.000604085)
(1.19972 0.000278069 0.000569039)
(1.19968 0.000307256 0.000635617)
(1.19972 0.000322595 0.000595931)
(1.19974 0.000287821 0.000588534)
(1.19948 0.000447556 0.000954943)
(1.19951 0.000398187 0.000947913)
(1.19956 0.000417945 0.000890544)
(1.19951 0.000464373 0.000997457)
(1.19957 0.000483707 0.000932594)
(1.19959 0.000432192 0.000921997)
(1.19921 0.000694473 0.00150778)
(1.19926 0.00061585 0.00149779)
(1.19933 0.000643946 0.00140448)
(1.19926 0.00072077 0.00157527)
(1.19935 0.000745053 0.00146907)
(1.19939 0.000665692 0.00145442)
(1.1988 0.00111529 0.00239033)
(1.19888 0.000987717 0.00237986)
(1.199 0.00102445 0.00222565)
(1.1989 0.00115828 0.00249899)
(1.19903 0.00118509 0.00232283)
(1.1991 0.00105818 0.00230623)
(1.19819 0.00188842 0.00380948)
(1.1983 0.0016826 0.00380751)
(1.19851 0.00171158 0.00354636)
(1.19835 0.0019677 0.00398896)
(1.19859 0.00198396 0.00368813)
(1.19866 0.00176889 0.00368003)
(1.19723 0.00348334 0.00611255)
(1.19737 0.00317916 0.00615729)
(1.19774 0.00309764 0.00569844)
(1.19749 0.0036527 0.00642881)
(1.19798 0.00362493 0.00588249)
(1.19801 0.00320817 0.00593478)
(1.19583 0.0072626 0.00991625)
(1.19595 0.00703131 0.0101595)
(1.19662 0.0062919 0.00929634)
(1.19634 0.00768191 0.0105375)
(1.19745 0.0074787 0.00942706)
(1.19716 0.00652828 0.00976235)
(1.19535 0.018779 0.0172529)
(1.19616 0.0176259 0.016028)
(1.19664 0.0147857 0.015339)
(1.19785 0.0186618 0.0172709)
(1.19824 0.0152437 0.0163019)
(1.19952 0.017207 0.0148862)
(1.21329 0.0513379 0.0271236)
(1.21845 0.0430441 0.0214402)
(1.21302 0.0361886 0.0223429)
(1.22552 0.0420604 0.0223925)
(1.21853 0.035208 0.0234498)
(1.21986 0.035905 0.0193833)
(1.19997 4.03965e-06 7.15213e-06)
(1.19997 3.89833e-06 6.92803e-06)
(1.2 8.3706e-06 1.24321e-05)
(1.19997 4.20343e-06 6.92296e-06)
(1.19997 4.03616e-06 6.6969e-06)
(1.19996 6.31196e-05 9.37567e-05)
(1.19996 6.12503e-05 9.166e-05)
(1.2 5.18818e-05 7.55003e-05)
(1.2 7.30477e-05 0.000103415)
(1.19996 6.55165e-05 9.13132e-05)
(1.19996 6.24775e-05 8.8748e-05)
(1.19977 0.000113155 0.000135433)
(1.19978 0.000108755 0.000133974)
(1.2 0.000109087 0.000131705)
(1.2 0.000117147 0.00013691)
(1.19978 0.000116529 0.000133165)
(1.19978 0.000112365 0.000130861)
(1.19993 0.000158488 0.000174615)
(1.19993 0.000151518 0.00017313)
(1.19999 0.000150905 0.000166011)
(1.19998 0.000164619 0.000179308)
(1.19994 0.000162532 0.000171091)
(1.19994 0.000156442 0.000168863)
(1.19994 0.000227257 0.000247515)
(1.19995 0.000216379 0.00024595)
(1.19996 0.000215319 0.00023298)
(1.19996 0.000235908 0.000256329)
(1.19996 0.000232616 0.000241737)
(1.19997 0.000223031 0.000239044)
(1.1999 0.000330469 0.000370109)
(1.19991 0.000314227 0.000368398)
(1.19993 0.000311941 0.000346872)
(1.19992 0.000343068 0.000384923)
(1.19994 0.000337236 0.000360971)
(1.19995 0.000323019 0.000357607)
(1.19985 0.000487092 0.000565513)
(1.19985 0.000462262 0.000563506)
(1.19989 0.000458145 0.000528884)
(1.19987 0.000505294 0.000589002)
(1.19991 0.000495823 0.000550452)
(1.19991 0.000474003 0.000545957)
(1.19977 0.000728262 0.000873959)
(1.19978 0.000689379 0.000872586)
(1.19983 0.000681529 0.000816439)
(1.19981 0.000754693 0.000910787)
(1.19986 0.000738187 0.000848588)
(1.19987 0.00070421 0.000843474)
(1.19966 0.0011063 0.00135437)
(1.19968 0.00104598 0.00135516)
(1.19975 0.00102992 0.00126446)
(1.19974 0.00114373 0.0014106)
(1.19981 0.00111434 0.00131075)
(1.19982 0.00106181 0.00130589)
(1.19956 0.00170068 0.00209586)
(1.19959 0.00161007 0.00210342)
(1.19969 0.00157372 0.0019565)
(1.19968 0.00175403 0.00218078)
(1.19979 0.00169562 0.00202039)
(1.1998 0.00161752 0.00201925)
(1.19954 0.00266286 0.00322512)
(1.19956 0.00253403 0.00325055)
(1.19971 0.00244629 0.00301234)
(1.19974 0.00273952 0.00334968)
(1.19988 0.0026148 0.00309431)
(1.1999 0.00250645 0.00310472)
(1.19986 0.00424005 0.00488275)
(1.19985 0.00409336 0.0049543)
(1.20004 0.00386873 0.00457227)
(1.20023 0.00434495 0.00505481)
(1.20037 0.00406355 0.00466052)
(1.20038 0.00394601 0.00470047)
(1.20143 0.00673053 0.00712051)
(1.20132 0.00671383 0.00729939)
(1.20143 0.00612756 0.00671305)
(1.20216 0.00683591 0.00731336)
(1.20208 0.00619898 0.00676668)
(1.20208 0.00619735 0.00685883)
(1.20697 0.00976939 0.00932859)
(1.20666 0.0105026 0.00970896)
(1.20616 0.00905848 0.00897178)
(1.2084 0.00966213 0.0093171)
(1.20732 0.00845903 0.00890172)
(1.20735 0.00896223 0.00897576)
(1.22156 0.0095653 0.00797886)
(1.22097 0.0121694 0.00876314)
(1.21876 0.00968423 0.00838847)
(1.22312 0.0086395 0.0069701)
(1.21986 0.00784589 0.00807086)
(1.22006 0.00887456 0.0076246)
(1.19997 4.61959e-06 7.08213e-06)
(1.19997 4.62231e-06 6.87921e-06)
(1.2 9.38987e-06 1.22719e-05)
(1.19997 4.59535e-06 6.63342e-06)
(1.19997 7.47126e-05 9.11574e-05)
(1.19997 7.36728e-05 8.93487e-05)
(1.20001 6.09341e-05 7.34184e-05)
(1.20001 8.64374e-05 0.00010071)
(1.19997 7.39206e-05 8.63768e-05)
(1.1998 0.000133678 0.000131473)
(1.1998 0.000131739 0.000130252)
(1.20002 0.000128874 0.000128203)
(1.20002 0.00013812 0.000132443)
(1.1998 0.000132489 0.000127018)
(1.19998 0.000184575 0.000165039)
(1.19998 0.000181905 0.000164111)
(1.20003 0.000175787 0.000157545)
(1.20003 0.000191797 0.000169084)
(1.19999 0.00018211 0.000159938)
(1.20003 0.000266483 0.000229368)
(1.20003 0.000261974 0.000228175)
(1.20004 0.00025253 0.000216169)
(1.20005 0.000276725 0.000236905)
(1.20005 0.000261821 0.000221178)
(1.20005 0.000386944 0.000336829)
(1.20005 0.000379152 0.000336227)
(1.20007 0.000365309 0.000316338)
(1.20007 0.000401594 0.000349384)
(1.20009 0.000378308 0.000325376)
(1.20008 0.000567141 0.000507336)
(1.20007 0.000555133 0.000507185)
(1.2001 0.000533933 0.000474958)
(1.20011 0.000587701 0.000527071)
(1.20013 0.000551929 0.00048926)
(1.20012 0.000839628 0.000766797)
(1.20012 0.000820281 0.000769165)
(1.20015 0.000786975 0.000718499)
(1.20017 0.000868199 0.000796493)
(1.2002 0.000812 0.000739996)
(1.20021 0.00124789 0.00116157)
(1.20021 0.00121841 0.00116782)
(1.20026 0.00116584 0.00108718)
(1.20029 0.00128565 0.00120516)
(1.20034 0.00119884 0.00111916)
(1.20039 0.00184331 0.00174683)
(1.20038 0.00180028 0.00176149)
(1.20045 0.0017176 0.00163564)
(1.20052 0.00188904 0.00180902)
(1.20057 0.00175721 0.00168075)
(1.20076 0.00268988 0.00260026)
(1.20076 0.00263331 0.00262987)
(1.20083 0.00249951 0.00243553)
(1.20097 0.00273644 0.00268401)
(1.20103 0.00254037 0.00249554)
(1.20153 0.00379364 0.00381763)
(1.20157 0.0037369 0.00386457)
(1.20159 0.00353092 0.00357332)
(1.20188 0.00381208 0.00392457)
(1.20192 0.00355101 0.00364607)
(1.20308 0.00485645 0.00558233)
(1.20327 0.00485261 0.00559741)
(1.20311 0.00458994 0.00519189)
(1.20368 0.004771 0.00570713)
(1.20364 0.00453472 0.00525687)
(1.20625 0.00445015 0.00852761)
(1.20693 0.00480271 0.00815158)
(1.20621 0.00462937 0.00767794)
(1.20752 0.00418581 0.00852093)
(1.20718 0.00441504 0.00756852)
(1.21626 -0.00179968 0.0136458)
(1.21686 0.000991114 0.0110506)
(1.21489 0.00109572 0.0112706)
(1.21932 -0.000114148 0.0112427)
(1.21625 0.00104667 0.00947119)
(1.19995 2.42723e-05 4.24371e-06)
(1.19998 4.2001e-05 5.89997e-06)
(1.19997 2.70365e-05 3.52587e-06)
(1.19995 2.43542e-05 3.22628e-06)
(1.19973 7.17659e-05 6.73328e-05)
(1.1998 7.55661e-05 4.97686e-05)
(1.19975 6.57194e-05 7.22041e-05)
(1.19993 6.58743e-05 6.24689e-05)
(1.19973 7.19014e-05 5.76331e-05)
(1.1994 4.2589e-05 0.000106622)
(1.19964 4.37556e-05 9.8832e-05)
(1.19961 4.19717e-05 0.000104332)
(1.19973 4.43609e-05 0.000101411)
(1.19941 4.28448e-05 9.48875e-05)
(1.19945 3.796e-05 0.000145651)
(1.19952 3.85678e-05 0.000132821)
(1.19949 3.76028e-05 0.000145499)
(1.19987 4.55052e-05 0.000139038)
(1.19946 3.8128e-05 0.000131129)
(1.19938 3.71097e-05 0.00021349)
(1.19941 3.69367e-05 0.000194288)
(1.19938 3.71305e-05 0.000214571)
(1.19988 5.06882e-05 0.000203673)
(1.1994 3.69997e-05 0.000192917)
(1.19926 3.96543e-05 0.00032373)
(1.19929 3.8983e-05 0.000293548)
(1.19926 4.00993e-05 0.000326556)
(1.19984 6.14144e-05 0.000308533)
(1.1993 3.9239e-05 0.000292623)
(1.19913 4.64267e-05 0.00050157)
(1.19918 4.50616e-05 0.000453405)
(1.19915 4.72195e-05 0.000507054)
(1.19979 7.96637e-05 0.000477726)
(1.19919 4.57517e-05 0.000453148)
(1.199 5.98377e-05 0.000789892)
(1.19906 5.66922e-05 0.000712868)
(1.19903 6.13737e-05 0.00079934)
(1.19974 0.00011015 0.000750875)
(1.19909 5.78962e-05 0.00071329)
(1.19883 8.53421e-05 0.0012545)
(1.19893 7.9699e-05 0.00113062)
(1.19889 8.75224e-05 0.00127107)
(1.19969 0.000162845 0.00119121)
(1.19898 8.15286e-05 0.00113248)
(1.19859 0.00013361 0.00201863)
(1.19876 0.000121294 0.00181605)
(1.1987 0.000138168 0.00205034)
(1.19963 0.000253535 0.00191267)
(1.19886 0.000124592 0.00182248)
(1.19818 0.000250908 0.00332352)
(1.19848 0.000217913 0.00298027)
(1.19837 0.000261043 0.003391)
(1.19957 0.000438235 0.00313115)
(1.19866 0.000223793 0.0030005)
(1.19718 0.000606507 0.00572422)
(1.19783 0.000495075 0.00509413)
(1.19753 0.000632093 0.00588619)
(1.19945 0.000897981 0.00530904)
(1.19816 0.000507075 0.00515261)
(1.19416 0.00182822 0.0108514)
(1.19589 0.00140285 0.00945299)
(1.19499 0.0018562 0.0112638)
(1.19918 0.00222574 0.00963251)
(1.19662 0.00140438 0.00958795)
(1.18578 0.0059775 0.0247203)
(1.19093 0.00427617 0.0203086)
(1.18942 0.00552708 0.0251806)
(1.1997 0.00622038 0.0196127)
(1.19333 0.00403215 0.020112)
(1.18355 0.0146471 0.0673893)
(1.19513 0.0093473 0.0467587)
(1.20906 0.00909792 0.0542889)
(1.21792 0.0127113 0.041285)
(1.20103 0.00769759 0.0397071)
(1.19997 1.2589e-06 4.62351e-06)
(1.19997 3.22524e-06 3.81396e-06)
(1.2 2.99288e-06 6.50547e-06)
(1.19997 4.36962e-06 3.8556e-06)
(1.19997 1.3021e-06 3.38966e-06)
(1.19998 3.10395e-05 6.72319e-05)
(1.19998 4.17142e-05 6.20657e-05)
(1.20002 2.49202e-05 4.93548e-05)
(1.20002 3.72637e-05 7.1561e-05)
(1.19998 4.50008e-05 6.18548e-05)
(1.19998 3.06066e-05 5.74336e-05)
(1.1998 6.37776e-05 0.000106526)
(1.19981 6.44375e-05 0.000101041)
(1.20003 6.13666e-05 9.84482e-05)
(1.20003 6.62767e-05 0.000104228)
(1.19981 7.71356e-05 0.00010077)
(1.19981 6.35218e-05 9.46181e-05)
(1.19996 8.89147e-05 0.000144635)
(1.19997 8.49614e-05 0.000138359)
(1.20002 8.49921e-05 0.000132325)
(1.20002 9.24357e-05 0.000144364)
(1.19997 0.00010257 0.000137698)
(1.19998 8.82488e-05 0.000130586)
(1.19999 0.000125938 0.000208642)
(1.19999 0.000116357 0.000200153)
(1.2 0.000119628 0.000190053)
(1.2 0.0001306 0.000209506)
(1.2 0.000141023 0.000198067)
(1.20001 0.000123844 0.000188626)
(1.19997 0.000181911 0.000314898)
(1.19998 0.000165155 0.000302083)
(1.19999 0.000171886 0.00028533)
(1.19998 0.000188982 0.000317353)
(1.19999 0.000200714 0.000298452)
(1.2 0.000178266 0.000284348)
(1.19994 0.000265183 0.00048539)
(1.19995 0.000237845 0.000466205)
(1.19997 0.000250179 0.00043914)
(1.19996 0.000274552 0.00049026)
(1.19998 0.000289883 0.000459648)
(1.19999 0.000258606 0.000438562)
(1.1999 0.000390106 0.00075846)
(1.19993 0.000347425 0.000728869)
(1.19995 0.000365921 0.000685008)
(1.19995 0.000403783 0.000766668)
(1.19997 0.00042299 0.00071694)
(1.19999 0.000378146 0.000684776)
(1.19988 0.00058651 0.00119475)
(1.19992 0.000519961 0.00114972)
(1.19995 0.000546545 0.00107794)
(1.19996 0.000605988 0.00120871)
(1.19999 0.000630247 0.00112703)
(1.20002 0.000563777 0.00107846)
(1.19989 0.000900275 0.00189489)
(1.19996 0.000795218 0.00182756)
(1.2 0.000831713 0.00170813)
(1.20002 0.000927088 0.00191848)
(1.20007 0.000956629 0.001782)
(1.20011 0.000854665 0.00170996)
(1.19996 0.00143191 0.00302987)
(1.20007 0.00126253 0.00293376)
(1.20013 0.00130347 0.00272797)
(1.20018 0.00146941 0.00307215)
(1.20025 0.00149826 0.00283513)
(1.20033 0.0013332 0.00273377)
(1.20019 0.00241588 0.00491159)
(1.20037 0.00214341 0.00478118)
(1.20045 0.00215143 0.00441153)
(1.2006 0.00246219 0.00498734)
(1.20071 0.00247921 0.00454873)
(1.20081 0.00218326 0.00442352)
(1.20098 0.00438528 0.00811805)
(1.20129 0.00398541 0.00793842)
(1.20134 0.00378152 0.00724969)
(1.20178 0.0043933 0.00822018)
(1.20195 0.00439095 0.00732998)
(1.20202 0.00377611 0.0072435)
(1.20439 0.00837262 0.0133573)
(1.20478 0.00791178 0.0130973)
(1.20444 0.00691133 0.0118179)
(1.20615 0.00796001 0.0131427)
(1.20592 0.00791109 0.0113721)
(1.20581 0.00664252 0.0115286)
(1.21853 0.0132063 0.0176931)
(1.21902 0.0121526 0.0172798)
(1.21637 0.010329 0.0155597)
(1.22195 0.00977214 0.0147534)
(1.21847 0.0104606 0.0132042)
(1.21767 0.00910857 0.0134091)
(1.19997 4.01654e-06 4.77825e-06)
(1.19997 3.87666e-06 3.95971e-06)
(1.2 8.2837e-06 6.72877e-06)
(1.19997 4.17909e-06 3.95997e-06)
(1.19997 4.01866e-06 3.43634e-06)
(1.19997 6.058e-05 6.67241e-05)
(1.19997 5.90829e-05 6.11823e-05)
(1.20001 4.99643e-05 4.88044e-05)
(1.20002 7.04648e-05 7.05349e-05)
(1.19997 6.30345e-05 6.08053e-05)
(1.19997 5.99215e-05 5.73611e-05)
(1.19981 0.000110792 0.000105296)
(1.19981 0.000106844 9.95535e-05)
(1.20003 0.000107059 9.69532e-05)
(1.20003 0.000114686 0.000102682)
(1.19981 0.000114204 9.90401e-05)
(1.19982 0.000110299 9.32629e-05)
(1.19999 0.000151127 0.000140373)
(1.19999 0.000144874 0.000134741)
(1.20005 0.000144623 0.00012896)
(1.20005 0.000156673 0.00013971)
(1.2 0.000155136 0.000133299)
(1.20001 0.000149681 0.000126992)
(1.20004 0.000211426 0.000197561)
(1.20005 0.000201529 0.000190217)
(1.20006 0.000201123 0.000180484)
(1.20006 0.000219259 0.000198084)
(1.20006 0.000216771 0.000187025)
(1.20006 0.000208226 0.000178887)
(1.20006 0.000302465 0.00029442)
(1.20006 0.00028781 0.00028365)
(1.20007 0.000286448 0.000267002)
(1.20008 0.000313561 0.00029625)
(1.20009 0.000309199 0.000277778)
(1.20009 0.000296576 0.000265758)
(1.20009 0.000437755 0.000449029)
(1.20009 0.000415777 0.000433328)
(1.20011 0.000413013 0.000406587)
(1.20012 0.000453421 0.000452544)
(1.20014 0.000446138 0.000422817)
(1.20014 0.000427221 0.000405197)
(1.20014 0.000638811 0.00069269)
(1.20015 0.000605372 0.000669715)
(1.20017 0.000600665 0.000626574)
(1.20019 0.000660389 0.00069868)
(1.20022 0.000648543 0.000651044)
(1.20022 0.000620105 0.00062533)
(1.20024 0.000940447 0.0010712)
(1.20026 0.000889419 0.00103829)
(1.20029 0.000880036 0.000968751)
(1.20033 0.000968642 0.00108014)
(1.20036 0.000948982 0.00100365)
(1.20036 0.00090576 0.000966595)
(1.20045 0.0013894 0.00165315)
(1.20047 0.00131313 0.00160783)
(1.20051 0.00129257 0.0014951)
(1.20059 0.00142419 0.00166492)
(1.20062 0.00138758 0.00154226)
(1.20063 0.00132376 0.00149034)
(1.20087 0.00207049 0.00253385)
(1.20091 0.00195833 0.00247685)
(1.20094 0.00191027 0.00229253)
(1.20111 0.00210798 0.00254674)
(1.20113 0.00203509 0.00235014)
(1.20115 0.00194369 0.00228158)
(1.20177 0.00310323 0.00382065)
(1.20181 0.00294935 0.00376247)
(1.20182 0.0028339 0.00346239)
(1.20216 0.00312472 0.00381966)
(1.20213 0.00297373 0.00351321)
(1.20216 0.00285385 0.00343098)
(1.20378 0.00458065 0.00551147)
(1.20379 0.00440722 0.00548559)