/*--------------------------------*- C++ -*----------------------------------*\
| =========                 |                                                 |
| \\      /  F ield         | OpenFOAM: The Open Source CFD Toolbox           |
|  \\    /   O peration     | Version:  2012                                  |
|   \\  /    A nd           | Website:  www.openfoam.com                      |
|    \\/     M anipulation  |                                                 |
\*---------------------------------------------------------------------------*/
FoamFile
{
    version     2.0;
    format      ascii;
    class       surfaceVectorField;
    location    "0.107/fluid";
    object      Uf_0;
}
// * * * * * * * * * * * * * * * * * * * * * * * * * * * * * * * * * * * * * //

dimensions      [0 1 -1 0 0 0 0];


internalField   nonuniform List<vector> 
47156
(
(1.19995 2.3331e-05 7.74525e-06)
(1.19998 4.03651e-05 1.41342e-05)
(1.19997 2.59612e-05 7.79197e-06)
(1.19995 2.34135e-05 7.58335e-06)
(1.19971 6.8797e-05 9.96963e-05)
(1.19979 7.25571e-05 8.31748e-05)
(1.19973 6.298e-05 0.000112514)
(1.19991 6.40777e-05 0.000100788)
(1.19971 6.91638e-05 0.000100054)
(1.19934 4.1241e-05 0.000140712)
(1.19959 4.22938e-05 0.000140517)
(1.19955 4.07017e-05 0.000145714)
(1.19966 4.40082e-05 0.000142568)
(1.19935 4.14547e-05 0.000142876)
(1.19934 3.82119e-05 0.000186138)
(1.19942 3.83789e-05 0.000180636)
(1.19937 3.8083e-05 0.000196638)
(1.19975 4.73717e-05 0.000188157)
(1.19935 3.82344e-05 0.000188783)
(1.19917 3.82595e-05 0.00026879)
(1.19922 3.81381e-05 0.000259429)
(1.19916 3.81791e-05 0.000286467)
(1.19966 5.51906e-05 0.00027173)
(1.1992 3.80125e-05 0.000273904)
(1.19892 4.12121e-05 0.000406848)
(1.19897 4.0269e-05 0.000390633)
(1.1989 4.21585e-05 0.000434875)
(1.19949 6.83784e-05 0.000411087)
(1.19896 4.09534e-05 0.000413734)
(1.19857 5.37705e-05 0.000633591)
(1.19865 5.12941e-05 0.000606289)
(1.19855 5.55352e-05 0.000679032)
(1.19922 9.69143e-05 0.000639158)
(1.19864 5.27648e-05 0.000644053)
(1.19805 7.77913e-05 0.0010028)
(1.19819 7.29259e-05 0.000958286)
(1.19803 8.09428e-05 0.00107614)
(1.19881 0.000145722 0.00101032)
(1.19818 7.53692e-05 0.00101917)
(1.19725 0.000122292 0.00160274)
(1.19747 0.000113131 0.0015286)
(1.19723 0.00012841 0.00172027)
(1.19817 0.000231535 0.00161218)
(1.19746 0.000117681 0.00162591)
(1.19593 0.000223081 0.00258407)
(1.1963 0.000200623 0.00245985)
(1.19589 0.000239024 0.0027741)
(1.19715 0.000405592 0.00259102)
(1.19628 0.000211523 0.0026174)
(1.19348 0.000508979 0.00419639)
(1.19416 0.000443418 0.00399054)
(1.19333 0.000562803 0.00450827)
(1.19538 0.000831601 0.00419064)
(1.19408 0.000478569 0.00425129)
(1.18796 0.001477 0.00683037)
(1.18942 0.00125749 0.00651092)
(1.18733 0.00169425 0.00736341)
(1.19192 0.00209777 0.00679557)
(1.18902 0.00139361 0.00696845)
(1.17201 0.00541834 0.0110281)
(1.17592 0.0045288 0.010656)
(1.16899 0.00644008 0.0120438)
(1.18344 0.00686158 0.0109713)
(1.17392 0.00516028 0.0115898)
(1.1111 0.0231345 0.0169189)
(1.12501 0.0192962 0.017136)
(1.09538 0.0280393 0.0190202)
(1.15467 0.029191 0.0172825)
(1.11453 0.0223901 0.0194532)
(0.834784 0.0850309 0.0178721)
(0.887615 0.0787536 0.0218119)
(1.02078 0.136396 0.0220053)
(0.837746 0.0838198 0.025389)
(0.959702 0.206777 0.0352399)
(0.545911 0.0878387 0.0134577)
(0.959785 0.207327 0.015855)
(0.546544 0.0875824 0.00841232)
(1.19997 1.13e-06 7.84244e-06)
(1.19997 2.99125e-06 7.79873e-06)
(1.2 3.02016e-06 1.42912e-05)
(1.19997 4.19907e-06 7.79851e-06)
(1.19997 1.13162e-06 7.76261e-06)
(1.19995 3.41598e-05 0.000100805)
(1.19995 4.37612e-05 0.000101474)
(1.2 2.7471e-05 8.43233e-05)
(1.2 4.0423e-05 0.000113415)
(1.19995 4.77512e-05 0.000101394)
(1.19995 3.37851e-05 0.000101267)
(1.19973 6.71461e-05 0.000139377)
(1.19973 6.66731e-05 0.000141261)
(1.19996 6.42917e-05 0.000139178)
(1.19995 6.97594e-05 0.000144315)
(1.19973 8.02784e-05 0.000140485)
(1.19974 6.63933e-05 0.000141467)
(1.19983 9.84121e-05 0.000183179)
(1.19984 9.28982e-05 0.000185867)
(1.1999 9.31154e-05 0.000177947)
(1.19988 0.000102802 0.000193334)
(1.19984 0.000112276 0.000184487)
(1.19985 9.70256e-05 0.00018604)
(1.19977 0.000146157 0.00026288)
(1.19978 0.000134068 0.000267159)
(1.1998 0.000138164 0.000253764)
(1.19977 0.000152356 0.000279763)
(1.19979 0.000162707 0.000264637)
(1.19979 0.000143624 0.000267587)
(1.19961 0.000217576 0.000396694)
(1.19962 0.000196299 0.000403238)
(1.19965 0.000205035 0.000380897)
(1.19961 0.000226816 0.000423897)
(1.19964 0.00023902 0.000398686)
(1.19966 0.000213003 0.000403422)
(1.19937 0.000329389 0.000614819)
(1.19939 0.000295081 0.000625164)
(1.19944 0.000309121 0.000588785)
(1.19937 0.000343554 0.000658169)
(1.19943 0.00035882 0.000616965)
(1.19944 0.000321156 0.000624699)
(1.19901 0.000509734 0.00096592)
(1.19904 0.000454626 0.000983011)
(1.19912 0.000475778 0.000923569)
(1.19901 0.000532129 0.00103546)
(1.1991 0.000551867 0.000967754)
(1.19912 0.000494425 0.000981195)
(1.19844 0.00081228 0.00153137)
(1.19849 0.000722733 0.00155965)
(1.19862 0.000753067 0.00146223)
(1.19846 0.00084922 0.00164136)
(1.1986 0.000874192 0.00153046)
(1.19864 0.00078302 0.00155355)
(1.19758 0.00134662 0.00243841)
(1.19764 0.00120034 0.00248519)
(1.19785 0.00123804 0.00232467)
(1.1976 0.00141256 0.00261154)
(1.19783 0.00143817 0.00242838)
(1.19788 0.00128969 0.00246863)
(1.19623 0.0023601 0.00388502)
(1.19631 0.0021279 0.00396619)
(1.19666 0.00214713 0.00370129)
(1.19627 0.00249278 0.00415483)
(1.19668 0.00250123 0.00385222)
(1.19672 0.00224593 0.00392792)
(1.19416 0.00451042 0.00612259)
(1.19418 0.00420154 0.00627867)
(1.19481 0.00404782 0.00584675)
(1.19422 0.00482513 0.00653264)
(1.19502 0.00476023 0.00604007)
(1.1949 0.00427129 0.00620277)
(1.19133 0.00973975 0.00926133)
(1.19098 0.00973668 0.00962775)
(1.19213 0.00860352 0.00895284)
(1.19144 0.0106347 0.00985261)
(1.19316 0.0102303 0.00909848)
(1.1923 0.00920836 0.00951615)
(1.18869 0.0270512 0.0134023)
(1.19137 0.0243696 0.012379)
(1.19102 0.0212575 0.0124446)
(1.19259 0.0271304 0.0130659)
(1.19204 0.0231377 0.0132937)
(1.19499 0.0244511 0.0121817)
(1.21499 0.0736747 0.0131805)
(1.22327 0.0593925 0.0109886)
(1.21452 0.0533393 0.0124154)
(1.2326 0.0616642 0.0107112)
(1.22145 0.0569648 0.0132584)
(1.22427 0.0519887 0.0107952)
(1.19997 4.02902e-06 7.81244e-06)
(1.19997 3.87777e-06 7.79343e-06)
(1.2 8.49878e-06 1.42633e-05)
(1.19997 4.20198e-06 7.78176e-06)
(1.19997 4.01892e-06 7.75468e-06)
(1.19995 6.57482e-05 9.99538e-05)
(1.19995 6.36525e-05 0.00010073)
(1.2 5.41473e-05 8.37782e-05)
(1.19999 7.57329e-05 0.000112255)
(1.19995 6.81843e-05 0.000100304)
(1.19995 6.50906e-05 0.000100523)
(1.19974 0.000117185 0.000135749)
(1.19974 0.000112451 0.00013773)
(1.19997 0.000112607 0.000135902)
(1.19996 0.000121573 0.000140423)
(1.19974 0.000120554 0.000136623)
(1.19974 0.000116094 0.000138)
(1.19986 0.000167244 0.000175928)
(1.19986 0.00015978 0.000178966)
(1.19992 0.000158883 0.000171265)
(1.19991 0.000174147 0.000185491)
(1.19988 0.000171589 0.000176731)
(1.19988 0.000165002 0.000178863)
(1.19983 0.000243906 0.000250198)
(1.19984 0.000232671 0.000254839)
(1.19986 0.000230954 0.000241649)
(1.19984 0.000254039 0.000265682)
(1.19986 0.000249846 0.000250825)
(1.19986 0.000239878 0.000254216)
(1.19973 0.000360144 0.000373109)
(1.19974 0.000342875 0.000380693)
(1.19977 0.000339754 0.000358675)
(1.19974 0.000375259 0.000398071)
(1.19977 0.000368153 0.000373429)
(1.19978 0.000352852 0.000379274)
(1.19958 0.000540905 0.000571036)
(1.19958 0.00051383 0.000583729)
(1.19963 0.000508157 0.000547784)
(1.19959 0.000563329 0.000610236)
(1.19964 0.000551285 0.000570227)
(1.19964 0.000527361 0.000580339)
(1.19934 0.000827349 0.000884455)
(1.19935 0.000784837 0.000905734)
(1.19943 0.000773446 0.000847098)
(1.19936 0.000861905 0.000946071)
(1.19945 0.000840306 0.000880988)
(1.19945 0.00080254 0.000898246)
(1.199 0.00129013 0.00137917)
(1.19901 0.00122425 0.00141459)
(1.19913 0.00120048 0.0013194)
(1.19904 0.00134304 0.00147394)
(1.19917 0.00130249 0.00136901)
(1.19917 0.00124444 0.00139825)
(1.19854 0.00204218 0.00214807)
(1.19854 0.00194348 0.00220737)
(1.19873 0.00189092 0.00205299)
(1.19861 0.00212423 0.00229182)
(1.1988 0.00204314 0.00212275)
(1.1988 0.00195742 0.00217273)
(1.198 0.0032945 0.00332603)
(1.19798 0.00316026 0.00342593)
(1.19825 0.00303443 0.00317783)
(1.19814 0.00342498 0.00353752)
(1.1984 0.00325108 0.00327027)
(1.19839 0.00313862 0.00335566)
(1.19768 0.00537832 0.00505243)
(1.19758 0.00526173 0.00521676)
(1.19794 0.0049417 0.00483477)
(1.19798 0.00558216 0.00533996)
(1.19827 0.00519078 0.00494379)
(1.19823 0.00510491 0.00508359)
(1.19882 0.00858492 0.00727267)
(1.19855 0.00877905 0.0075373)
(1.19882 0.00793935 0.0070218)
(1.19953 0.00883979 0.00760216)
(1.19951 0.0079619 0.00712001)
(1.19945 0.00816688 0.0073334)
(1.20567 0.0117225 0.0090547)
(1.20506 0.0135595 0.00947666)
(1.20439 0.0112687 0.00903528)
(1.20746 0.0116585 0.00921651)
(1.20549 0.0100204 0.00912442)
(1.20588 0.0113705 0.0093019)
(1.22788 0.00900274 0.00690993)
(1.22624 0.0144592 0.00708258)
(1.22319 0.00989385 0.00738453)
(1.23048 0.00831968 0.00557546)
(1.22454 0.00595084 0.00733035)
(1.22596 0.00925197 0.00758478)
(1.19997 4.6821e-06 7.72714e-06)
(1.19997 4.68326e-06 7.72313e-06)
(1.2 9.60715e-06 1.40727e-05)
(1.19997 4.66199e-06 7.67363e-06)
(1.19995 7.8587e-05 9.77729e-05)
(1.19995 7.74739e-05 9.85874e-05)
(1.2 6.41569e-05 8.19925e-05)
(1.2 9.08213e-05 0.000109452)
(1.19995 7.78111e-05 9.80604e-05)
(1.19976 0.000137941 0.000130887)
(1.19976 0.000135871 0.000133043)
(1.19999 0.000133025 0.000131386)
(1.19998 0.000142728 0.000135278)
(1.19977 0.000136708 0.00013342)
(1.19991 0.00019539 0.000166155)
(1.19991 0.000192555 0.000169253)
(1.19997 0.000185549 0.000162166)
(1.19997 0.000203506 0.000174634)
(1.19993 0.000192689 0.000168779)
(1.19993 0.000285679 0.000232576)
(1.19993 0.000280966 0.000237372)
(1.19995 0.00027035 0.00022494)
(1.19995 0.000297574 0.000246269)
(1.19996 0.000280866 0.000236089)
(1.1999 0.000421765 0.000340916)
(1.1999 0.000413941 0.000348933)
(1.19992 0.000397992 0.000328248)
(1.19991 0.000439131 0.00036301)
(1.19994 0.000413131 0.000346412)
(1.19984 0.000630018 0.000511718)
(1.19984 0.000617289 0.000525243)
(1.19988 0.000592282 0.000492273)
(1.19986 0.000655526 0.000545444)
(1.1999 0.000614177 0.000520313)
(1.19976 0.000953887 0.000777507)
(1.19975 0.000933974 0.000799615)
(1.19982 0.00089339 0.000746147)
(1.1998 0.000991424 0.000829276)
(1.19985 0.00092549 0.000789204)
(1.19967 0.00145019 0.00118531)
(1.19966 0.00142025 0.00122164)
(1.19975 0.00135473 0.00113699)
(1.19973 0.00150324 0.00126215)
(1.19981 0.00139972 0.00120097)
(1.19959 0.00220204 0.00179468)
(1.19957 0.00215904 0.00185486)
(1.19969 0.00205121 0.00172131)
(1.19969 0.00227365 0.00190696)
(1.19979 0.00211153 0.00181475)
(1.19958 0.00331189 0.00269925)
(1.19956 0.00325836 0.00279595)
(1.19972 0.00308114 0.00258689)
(1.19976 0.00339896 0.00286095)
(1.19988 0.00315558 0.00272164)
(1.19984 0.00478881 0.0040226)
(1.19984 0.0047416 0.00416657)
(1.19999 0.00447412 0.00385291)
(1.20013 0.00485385 0.00424789)
(1.20027 0.00453908 0.00404006)
(1.20046 0.00609866 0.00593595)
(1.2007 0.00610803 0.00612787)
(1.20068 0.00583076 0.00569438)
(1.20088 0.00597202 0.00629573)
(1.20112 0.00578903 0.00598509)
(1.2003 0.00359136 0.00900487)
(1.20156 0.00400725 0.00928833)
(1.20107 0.00437446 0.00875969)
(1.2006 0.00215788 0.00996508)
(1.20161 0.00375379 0.0094964)
(1.19296 -0.0420789 0.0148565)
(1.2036 -0.0281945 0.0146897)
(1.19561 -0.0277838 0.0156277)
(1.19279 -0.0566925 0.0177567)
(1.19566 -0.0353822 0.0209201)
(1.19995 2.38733e-05 6.54121e-06)
(1.19998 4.13158e-05 1.15959e-05)
(1.19997 2.669e-05 6.55357e-06)
(1.19995 2.4031e-05 6.10069e-06)
(1.19972 7.02841e-05 9.35799e-05)
(1.1998 7.4094e-05 7.50441e-05)
(1.19974 6.43422e-05 0.000103937)
(1.19991 6.51247e-05 9.21327e-05)
(1.19972 7.06423e-05 8.89031e-05)
(1.19937 4.18703e-05 0.000137982)
(1.19962 4.29793e-05 0.000133711)
(1.19958 4.12075e-05 0.00013952)
(1.19969 4.40233e-05 0.000136001)
(1.19938 4.20146e-05 0.000132739)
(1.1994 3.80073e-05 0.000183853)
(1.19947 3.83056e-05 0.000173793)
(1.19943 3.76774e-05 0.000189495)
(1.19981 4.607e-05 0.000180958)
(1.19941 3.78842e-05 0.000177404)
(1.19928 3.7436e-05 0.000267076)
(1.19932 3.73493e-05 0.00025103)
(1.19928 3.75436e-05 0.000277139)
(1.19978 5.25997e-05 0.00026325)
(1.19931 3.73682e-05 0.000258057)
(1.1991 4.04326e-05 0.000403803)
(1.19915 3.9746e-05 0.000378025)
(1.1991 4.12091e-05 0.000421006)
(1.19968 6.48201e-05 0.000398129)
(1.19914 4.03282e-05 0.000390539)
(1.19887 4.98069e-05 0.000628307)
(1.19893 4.78684e-05 0.000586567)
(1.19887 5.0934e-05 0.000656538)
(1.19953 8.78833e-05 0.000618125)
(1.19894 4.88059e-05 0.000607351)
(1.19855 6.80094e-05 0.000991543)
(1.19865 6.39946e-05 0.000924133)
(1.19857 7.04176e-05 0.00103688)
(1.19931 0.00012679 0.000974236)
(1.19867 6.58862e-05 0.000957628)
(1.19808 0.000103425 0.00157783)
(1.19825 9.58522e-05 0.00146894)
(1.19811 0.000106973 0.00165133)
(1.19898 0.000195787 0.00154771)
(1.19828 9.84991e-05 0.00152309)
(1.19733 0.00017642 0.00253611)
(1.19761 0.000158637 0.00235726)
(1.19739 0.000185996 0.00265944)
(1.19847 0.000325685 0.0024825)
(1.19767 0.000165028 0.00244856)
(1.19591 0.000380177 0.00414681)
(1.19643 0.000328106 0.00384955)
(1.19597 0.000410547 0.00437003)
(1.19759 0.000631726 0.00404237)
(1.19652 0.000346118 0.00401448)
(1.19249 0.00107899 0.00701501)
(1.19367 0.000893738 0.00650503)
(1.1924 0.00119785 0.00749158)
(1.19574 0.00152254 0.00678014)
(1.19372 0.00095823 0.00685228)
(1.18169 0.0039564 0.0129491)
(1.1852 0.00316279 0.0119885)
(1.1807 0.00449406 0.0143473)
(1.19078 0.00480642 0.012254)
(1.18487 0.00342441 0.0129636)
(1.13644 0.0174984 0.0293661)
(1.15089 0.0136749 0.0274066)
(1.12979 0.0201709 0.0355563)
(1.17222 0.0204121 0.0269327)
(1.14864 0.0147295 0.0315507)
(0.890981 0.0678131 0.0854328)
(0.960156 0.0593408 0.0892277)
(1.06162 0.101593 0.0864697)
(0.953448 0.0524029 0.11788)
(1.06532 0.171661 0.167128)
(0.603704 0.0827943 0.0745697)
(1.04473 0.183628 0.126398)
(0.626753 0.0765014 0.0875507)
(1.19997 1.14086e-06 7.01396e-06)
(1.19997 3.0294e-06 6.77829e-06)
(1.2 2.95827e-06 1.23014e-05)
(1.19997 4.32022e-06 6.78629e-06)
(1.19997 1.1507e-06 6.53233e-06)
(1.19996 3.26478e-05 9.42125e-05)
(1.19996 4.2769e-05 9.22844e-05)
(1.20001 2.61797e-05 7.58341e-05)
(1.20001 3.87507e-05 0.00010411)
(1.19996 4.62326e-05 9.21467e-05)
(1.19996 3.22196e-05 8.92807e-05)
(1.19977 6.47443e-05 0.000137544)
(1.19977 6.49387e-05 0.000135738)
(1.2 6.21975e-05 0.000133363)
(1.19999 6.73299e-05 0.000139121)
(1.19977 7.8023e-05 0.00013537)
(1.19978 6.43934e-05 0.000132509)
(1.1999 9.30197e-05 0.000180771)
(1.19991 8.82132e-05 0.000178809)
(1.19996 8.83133e-05 0.000171356)
(1.19995 9.6921e-05 0.0001861)
(1.19991 0.000106677 0.000177601)
(1.19992 9.18066e-05 0.000174705)
(1.19988 0.000135728 0.000261336)
(1.19989 0.00012483 0.00025885)
(1.19991 0.000128438 0.0002456)
(1.19989 0.00014097 0.000271198)
(1.1999 0.000151313 0.000256249)
(1.19991 0.000133115 0.000252517)
(1.1998 0.000198941 0.000394102)
(1.19981 0.000179748 0.000390839)
(1.19983 0.000187497 0.000369296)
(1.19981 0.000206737 0.000410555)
(1.19983 0.000218836 0.000386261)
(1.19984 0.000194345 0.00038118)
(1.19967 0.000295904 0.000608088)
(1.19969 0.000264768 0.000603164)
(1.19972 0.000277974 0.000568165)
(1.19968 0.000307156 0.000634646)
(1.19972 0.000322478 0.000595013)
(1.19974 0.000287725 0.000587627)
(1.19948 0.000447453 0.000953515)
(1.19951 0.000398091 0.0009465)
(1.19956 0.000417843 0.000889205)
(1.19951 0.000464275 0.000995963)
(1.19957 0.000483582 0.000931184)
(1.19959 0.000432094 0.000920603)
(1.19921 0.000694421 0.00150556)
(1.19926 0.000615799 0.0014956)
(1.19933 0.000643886 0.0014024)
(1.19926 0.000720734 0.00157294)
(1.19935 0.000744977 0.00146688)
(1.19939 0.000665643 0.00145225)
(1.1988 0.00111544 0.00238687)
(1.19888 0.000987836 0.00237644)
(1.199 0.00102455 0.0022224)
(1.1989 0.00115847 0.00249536)
(1.19903 0.00118521 0.0023194)
(1.1991 0.00105831 0.00230283)
(1.19819 0.00188918 0.00380406)
(1.1983 0.0016832 0.00380217)
(1.19851 0.0017122 0.00354127)
(1.19835 0.00196855 0.00398326)
(1.19859 0.00198465 0.00368272)
(1.19866 0.00176958 0.00367469)
(1.19723 0.00348568 0.00610408)
(1.19737 0.00318084 0.00614904)
(1.19774 0.0030996 0.00569045)
(1.19749 0.0036552 0.00641988)
(1.19797 0.00362694 0.00587397)
(1.19801 0.00321023 0.0059264)
(1.19582 0.00726799 0.00990325)
(1.19594 0.00703448 0.0101472)
(1.19661 0.00629652 0.00928401)
(1.19634 0.00768733 0.0105239)
(1.19744 0.00748305 0.00941397)
(1.19715 0.00653294 0.00974946)
(1.19534 0.0187813 0.0172359)
(1.19615 0.0176336 0.0160099)
(1.19663 0.0147928 0.0153215)
(1.19783 0.0186686 0.0172523)
(1.19822 0.0152502 0.0162838)
(1.1995 0.017213 0.0148679)
(1.21326 0.0513298 0.0271042)
(1.21842 0.0430412 0.0214206)
(1.21299 0.0361884 0.0223235)
(1.22548 0.0420555 0.0223738)
(1.2185 0.035206 0.0234307)
(1.21982 0.0359029 0.0193645)
(1.19997 3.9996e-06 7.02997e-06)
(1.19997 3.85699e-06 6.80895e-06)
(1.2 8.3367e-06 1.23058e-05)
(1.19997 4.1633e-06 6.80225e-06)
(1.19997 3.9945e-06 6.57891e-06)
(1.19995 6.31911e-05 9.37592e-05)
(1.19996 6.13109e-05 9.16636e-05)
(1.2 5.19408e-05 7.55058e-05)
(1.2 7.31009e-05 0.000103368)
(1.19996 6.55877e-05 9.13169e-05)
(1.19996 6.25491e-05 8.87517e-05)
(1.19977 0.000113089 0.000135185)
(1.19977 0.00010869 0.000133731)
(1.2 0.000109023 0.000131463)
(1.2 0.000117085 0.000136669)
(1.19978 0.00011646 0.000132923)
(1.19978 0.000112301 0.000130625)
(1.19993 0.000158415 0.000174321)
(1.19993 0.000151448 0.00017284)
(1.19999 0.000150837 0.000165732)
(1.19998 0.000164543 0.000179008)
(1.19994 0.000162457 0.000170802)
(1.19994 0.000156371 0.000168579)
(1.19994 0.000227153 0.000247108)
(1.19995 0.000216281 0.000245548)
(1.19996 0.000215221 0.000232596)
(1.19996 0.000235801 0.000255908)
(1.19996 0.00023251 0.000241338)
(1.19997 0.000222931 0.00023865)
(1.1999 0.000330323 0.000369511)
(1.19991 0.000314091 0.000367807)
(1.19993 0.000311804 0.000346311)
(1.19992 0.000342919 0.000384302)
(1.19994 0.000337086 0.000360384)
(1.19995 0.000322878 0.000357027)
(1.19985 0.000486893 0.000564606)
(1.19985 0.000462078 0.000562605)
(1.19989 0.000457956 0.000528033)
(1.19987 0.000505093 0.000588055)
(1.19991 0.000495617 0.000549561)
(1.19991 0.000473812 0.000545073)
(1.19977 0.000728018 0.000872559)
(1.19978 0.000689159 0.000871197)
(1.19983 0.000681294 0.000815127)
(1.19981 0.000754452 0.000909321)
(1.19986 0.000737932 0.00084721)
(1.19987 0.000703976 0.000842107)
(1.19966 0.00110605 0.00135218)
(1.19968 0.00104577 0.00135298)
(1.19975 0.00102967 0.0012624)
(1.19974 0.00114349 0.00140829)
(1.19981 0.00111407 0.00130858)
(1.19982 0.00106157 0.00130373)
(1.19956 0.00170059 0.00209236)
(1.19959 0.00161004 0.00209995)
(1.19969 0.0015736 0.00195321)
(1.19968 0.00175399 0.00217708)
(1.19979 0.00169549 0.00201691)
(1.1998 0.00161743 0.00201579)
(1.19954 0.00266347 0.00321941)
(1.19956 0.00253468 0.0032449)
(1.19971 0.00244674 0.00300698)
(1.19974 0.00274025 0.00334359)
(1.19988 0.00261529 0.00308858)
(1.1999 0.00250698 0.00309905)
(1.19986 0.0042428 0.00487305)
(1.19985 0.00409602 0.00494482)
(1.20004 0.00387095 0.00456321)
(1.20024 0.00434798 0.00504442)
(1.20037 0.00406604 0.00465067)
(1.20038 0.00394839 0.00469084)
(1.20143 0.0067394 0.00710329)
(1.20132 0.00672172 0.00728305)
(1.20144 0.00613469 0.00669713)
(1.20216 0.00684519 0.00729495)
(1.20209 0.00620727 0.00674879)
(1.20208 0.00620468 0.00684191)
(1.20696 0.00979316 0.00929806)
(1.20665 0.0105214 0.00968182)
(1.20616 0.00907729 0.00894391)
(1.20839 0.00968481 0.00928579)
(1.20731 0.00848161 0.00886895)
(1.20734 0.00898037 0.00894707)
(1.22151 0.00959861 0.00794184)
(1.22092 0.0121915 0.00873372)
(1.21871 0.00971221 0.00835302)
(1.22306 0.00866271 0.00693884)
(1.21981 0.0078789 0.00803051)
(1.22001 0.00889689 0.00759291)
(1.19997 4.58956e-06 6.9537e-06)
(1.19997 4.59017e-06 6.75396e-06)
(1.2 9.36359e-06 1.214e-05)
(1.19997 4.5638e-06 6.50939e-06)
(1.19996 7.48086e-05 9.11574e-05)
(1.19996 7.37654e-05 8.93508e-05)
(1.20001 6.1017e-05 7.34199e-05)
(1.20001 8.65079e-05 0.000100664)
(1.19996 7.40162e-05 8.63785e-05)
(1.19979 0.000133602 0.00013123)
(1.19979 0.000131665 0.000130014)
(1.20002 0.000128802 0.000127966)
(1.20002 0.000138047 0.000132206)
(1.1998 0.000132414 0.000126786)
(1.19998 0.000184487 0.000164753)
(1.19998 0.000181819 0.000163829)
(1.20003 0.000175704 0.000157274)
(1.20003 0.000191708 0.000168792)
(1.19999 0.000182025 0.000159662)
(1.20003 0.000266356 0.000228977)
(1.20003 0.000261851 0.000227789)
(1.20004 0.000252412 0.0002158)
(1.20005 0.000276592 0.000236502)
(1.20005 0.000261698 0.0002208)
(1.20005 0.000386755 0.000336255)
(1.20005 0.000378971 0.000335656)
(1.20007 0.000365132 0.000315798)
(1.20007 0.000401399 0.000348787)
(1.20009 0.000378127 0.000324817)
(1.20008 0.00056686 0.000506471)
(1.20007 0.000554867 0.000506326)
(1.2001 0.00053367 0.000474147)
(1.20011 0.000587414 0.000526168)
(1.20013 0.00055166 0.000488417)
(1.20012 0.000839234 0.00076545)
(1.20012 0.000819915 0.000767823)
(1.20015 0.000786605 0.000717234)
(1.20017 0.000867798 0.000795081)
(1.2002 0.000811623 0.000738677)
(1.20021 0.00124735 0.00115945)
(1.20021 0.00121793 0.00116571)
(1.20026 0.00116533 0.00108519)
(1.20029 0.0012851 0.00120292)
(1.20034 0.00119832 0.00111707)
(1.20039 0.00184261 0.0017434)
(1.20038 0.0017997 0.00175806)
(1.20045 0.00171694 0.00163242)
(1.20052 0.00188835 0.00180537)
(1.20057 0.00175655 0.00167735)
(1.20076 0.0026892 0.00259443)
(1.20076 0.00263287 0.00262403)
(1.20083 0.00249883 0.00243008)
(1.20097 0.00273581 0.00267773)
(1.20103 0.00253972 0.00248971)
(1.20153 0.00379363 0.00380684)
(1.20157 0.0037374 0.00385385)
(1.2016 0.00353074 0.00356335)
(1.20189 0.00381224 0.00391276)
(1.20192 0.00355093 0.0036353)
(1.20309 0.00485989 0.00555903)
(1.20328 0.00485713 0.00557501)
(1.20312 0.00459235 0.00517108)
(1.20369 0.0047749 0.00568137)
(1.20365 0.00453735 0.00523426)
(1.20628 0.00446995 0.00846332)
(1.20695 0.00482347 0.00809554)
(1.20623 0.00464294 0.00762482)
(1.20754 0.00420575 0.00845157)
(1.20719 0.00442855 0.00751275)
(1.21622 -0.00170683 0.0134487)
(1.21681 0.00105732 0.010917)
(1.21487 0.00114825 0.0111238)
(1.21923 -5.4207e-05 0.0110815)
(1.21619 0.00109067 0.00935014)
(1.19995 2.42918e-05 4.15579e-06)
(1.19998 4.2009e-05 5.81226e-06)
(1.19997 2.70975e-05 3.44229e-06)
(1.19995 2.43731e-05 3.1468e-06)
(1.19972 7.16263e-05 6.73487e-05)
(1.1998 7.54468e-05 4.97895e-05)
(1.19975 6.55811e-05 7.21873e-05)
(1.19992 6.57351e-05 6.24914e-05)
(1.19972 7.17623e-05 5.76526e-05)
(1.1994 4.25384e-05 0.000106428)
(1.19964 4.36991e-05 9.86504e-05)
(1.19961 4.19223e-05 0.00010415)
(1.19973 4.43193e-05 0.000101229)
(1.19941 4.27951e-05 9.47154e-05)
(1.19945 3.79131e-05 0.000145416)
(1.19952 3.85202e-05 0.000132607)
(1.19949 3.75571e-05 0.000145266)
(1.19987 4.54683e-05 0.000138816)
(1.19946 3.80812e-05 0.000130918)
(1.19938 3.70705e-05 0.000213153)
(1.19941 3.68967e-05 0.000193981)
(1.19938 3.70919e-05 0.000214233)
(1.19988 5.06584e-05 0.000203351)
(1.1994 3.69602e-05 0.000192613)
(1.19926 3.96207e-05 0.000323226)
(1.19929 3.89487e-05 0.000293092)
(1.19926 4.00661e-05 0.000326049)
(1.19984 6.13896e-05 0.000308053)
(1.1993 3.9206e-05 0.000292166)
(1.19913 4.63934e-05 0.000500801)
(1.19918 4.5029e-05 0.000452708)
(1.19915 4.71866e-05 0.000506278)
(1.19979 7.9651e-05 0.000476994)
(1.19919 4.57194e-05 0.000452451)
(1.199 5.98013e-05 0.000788704)
(1.19906 5.66577e-05 0.000711792)
(1.19903 6.1337e-05 0.000798139)
(1.19974 0.000110151 0.000749744)
(1.19909 5.78624e-05 0.00071221)
(1.19883 8.52857e-05 0.00125265)
(1.19893 7.96476e-05 0.00112895)
(1.19889 8.74645e-05 0.0012692)
(1.19969 0.000162852 0.00118945)
(1.19898 8.14754e-05 0.0011308)
(1.19859 0.000133524 0.00201576)
(1.19875 0.000121216 0.00181345)
(1.1987 0.000138078 0.00204743)
(1.19963 0.000253568 0.00190993)
(1.19886 0.000124512 0.00181987)
(1.19818 0.000250685 0.003319)
(1.19848 0.00021774 0.00297619)
(1.19837 0.000260802 0.00338643)
(1.19957 0.000438271 0.00312691)
(1.19866 0.000223614 0.00299641)
(1.19717 0.000605684 0.00571723)
(1.19783 0.00049443 0.00508781)
(1.19752 0.00063122 0.00587914)
(1.19944 0.000897576 0.00530261)
(1.19815 0.000506405 0.00514628)
(1.19416 0.00182541 0.0108403)
(1.19589 0.00140071 0.00944308)
(1.19499 0.00185334 0.0112526)
(1.19917 0.00222411 0.00962298)
(1.19661 0.00140223 0.00957806)
(1.18578 0.00596925 0.0247011)
(1.19093 0.00426998 0.0202922)
(1.18943 0.0055194 0.0251617)
(1.19969 0.00621523 0.0195986)
(1.19333 0.00402631 0.0200959)
(1.18357 0.0146313 0.0673574)
(1.19514 0.00933575 0.0467326)
(1.20907 0.00908606 0.0542628)
(1.2179 0.0127017 0.0412659)
(1.20103 0.00768789 0.0396825)
(1.19997 1.21092e-06 4.53104e-06)
(1.19997 3.18043e-06 3.72761e-06)
(1.2 2.95349e-06 6.41275e-06)
(1.19997 4.32068e-06 3.76792e-06)
(1.19997 1.25281e-06 3.30711e-06)
(1.19997 3.10773e-05 6.72456e-05)
(1.19997 4.172e-05 6.20869e-05)
(1.20002 2.49444e-05 4.93739e-05)
(1.20002 3.7296e-05 7.15447e-05)
(1.19997 4.50249e-05 6.18756e-05)
(1.19997 3.06442e-05 5.74515e-05)
(1.1998 6.37462e-05 0.000106339)
(1.1998 6.43972e-05 0.000100864)
(1.20003 6.13372e-05 9.82743e-05)
(1.20003 6.62471e-05 0.000104052)
(1.1998 7.70891e-05 0.000100595)
(1.19981 6.34921e-05 9.44527e-05)
(1.19996 8.88799e-05 0.000144401)
(1.19997 8.49192e-05 0.000138137)
(1.20002 8.4959e-05 0.000132113)
(1.20002 9.23996e-05 0.000144131)
(1.19997 0.00010252 0.000137476)
(1.19998 8.82146e-05 0.000130376)
(1.19999 0.000125889 0.000208306)
(1.19999 0.000116304 0.000199831)
(1.2 0.000119581 0.000189746)
(1.2 0.00013055 0.000209169)
(1.2 0.000140959 0.000197746)
(1.20001 0.000123796 0.000188321)
(1.19997 0.000181848 0.000314401)
(1.19998 0.000165092 0.000301607)
(1.19999 0.000171827 0.000284879)
(1.19998 0.000188918 0.000316852)
(1.19999 0.000200637 0.000297979)
(1.2 0.000178207 0.000283897)
(1.19994 0.000265096 0.000484629)
(1.19995 0.000237761 0.000465478)
(1.19997 0.000250096 0.00043845)
(1.19996 0.000274465 0.000489493)
(1.19998 0.000289779 0.000458924)
(1.19999 0.000258521 0.000437872)
(1.1999 0.000390019 0.000757281)
(1.19993 0.000347342 0.000727742)
(1.19995 0.000365834 0.000683941)
(1.19995 0.000403699 0.000765476)
(1.19997 0.000422884 0.000715815)
(1.19999 0.000378062 0.000683704)
(1.19988 0.00058646 0.00119291)
(1.19992 0.000519911 0.00114796)
(1.19995 0.000546487 0.00107627)
(1.19996 0.000605946 0.00120684)
(1.19999 0.000630173 0.00112526)
(1.20002 0.000563725 0.00107678)
(1.19989 0.00090035 0.00189199)
(1.19995 0.000795273 0.00182479)
(1.2 0.000831757 0.0017055)
(1.20002 0.000927181 0.00191552)
(1.20006 0.000956675 0.00177921)
(1.20011 0.000854722 0.00170731)
(1.19996 0.00143235 0.00302528)
(1.20007 0.00126287 0.00292942)
(1.20012 0.00130381 0.00272383)
(1.20018 0.00146988 0.00306751)
(1.20025 0.00149864 0.00283071)
(1.20032 0.00133356 0.0027296)
(1.20019 0.00241715 0.00490443)
(1.20036 0.00214431 0.00477451)
(1.20045 0.00215245 0.00440506)
(1.20059 0.00246348 0.00498013)
(1.20071 0.00248025 0.00454183)
(1.2008 0.0021843 0.00441704)
(1.20097 0.00438794 0.00810725)
(1.20128 0.00398698 0.00792871)
(1.20133 0.00378373 0.00723992)
(1.20177 0.00439583 0.00820947)
(1.20194 0.00439291 0.00731974)
(1.20201 0.00377824 0.00723385)
(1.20437 0.0083762 0.0133426)
(1.20476 0.00791298 0.0130847)
(1.20443 0.00691448 0.0118045)
(1.20613 0.00796314 0.0131287)
(1.2059 0.0079133 0.0113587)
(1.20579 0.00664535 0.0115158)
(1.21849 0.0132077 0.0176781)
(1.21899 0.0121516 0.0172678)
(1.21634 0.0103314 0.0155459)
(1.22191 0.00977402 0.014741)
(1.21844 0.0104613 0.0131922)
(1.21763 0.00911004 0.0133969)
(1.19997 3.97063e-06 4.68136e-06)
(1.19997 3.82974e-06 3.86825e-06)
(1.2 8.24488e-06 6.63163e-06)
(1.19997 4.13341e-06 3.86721e-06)
(1.19997 3.97148e-06 3.34947e-06)
(1.19996 6.06486e-05 6.67362e-05)
(1.19996 5.91397e-05 6.12026e-05)
(1.20001 5.00172e-05 4.88222e-05)
(1.20002 7.05178e-05 7.05187e-05)
(1.19997 6.3101e-05 6.08252e-05)
(1.19997 5.99897e-05 5.73767e-05)
(1.19981 0.000110733 0.000105115)
(1.19981 0.000106785 9.93841e-05)
(1.20003 0.000107004 9.67865e-05)
(1.20003 0.000114629 0.000102514)
(1.19981 0.000114141 9.88734e-05)
(1.19981 0.000110242 9.3103e-05)
(1.19999 0.00015106 0.000140141)
(1.19999 0.000144809 0.000134521)
(1.20004 0.000144559 0.000128751)
(1.20005 0.000156604 0.000139479)
(1.2 0.000155067 0.000133081)
(1.20001 0.000149615 0.000126784)
(1.20004 0.000211334 0.000197231)
(1.20004 0.000201441 0.000189901)
(1.20006 0.000201035 0.000180182)
(1.20006 0.000219164 0.000197754)
(1.20006 0.000216677 0.000186711)
(1.20006 0.000208135 0.000178587)
(1.20006 0.000302337 0.000293935)
(1.20006 0.000287691 0.000283186)
(1.20007 0.000286328 0.000266563)
(1.20008 0.00031343 0.000295763)
(1.20009 0.000309067 0.000277318)
(1.20009 0.000296453 0.000265318)
(1.20009 0.000437588 0.000448285)
(1.20009 0.000415622 0.000432616)
(1.20011 0.000412854 0.000405914)
(1.20012 0.000453251 0.000451794)
(1.20014 0.000445965 0.00042211)
(1.20014 0.000427059 0.000404521)
(1.20014 0.000638603 0.000691532)
(1.20015 0.000605184 0.000668604)
(1.20017 0.000600465 0.000625527)
(1.20019 0.000660183 0.000697505)
(1.20022 0.000648325 0.000649941)
(1.20022 0.000619905 0.000624275)
(1.20024 0.000940233 0.00106936)
(1.20026 0.000889233 0.00103652)
(1.20029 0.000879823 0.000967086)
(1.20033 0.000968434 0.00107826)
(1.20036 0.000948749 0.00100189)
(1.20036 0.00090555 0.000964915)
(1.20045 0.00138928 0.00165017)
(1.20047 0.00131305 0.00160498)
(1.20051 0.00129243 0.00149241)
(1.20059 0.0014241 0.00166188)
(1.20062 0.00138743 0.0015394)
(1.20063 0.00132363 0.00148761)
(1.20087 0.00207077 0.00252894)
(1.2009 0.00195864 0.0024722)
(1.20094 0.00191044 0.00228812)
(1.2011 0.0021083 0.00254173)
(1.20112 0.00203528 0.00234541)
(1.20114 0.00194389 0.0022771)
(1.20177 0.00310456 0.00381247)
(1.2018 0.0029506 0.00375483)
(1.20181 0.00283493 0.00345507)
(1.20216 0.00312608 0.00381136)
(1.20213 0.00297484 0.00350529)
(1.20215 0.0028549 0.0034236)
(1.20377 0.00458423 0.00549809)
(1.20378 0.00441035 0.00547344)