/*--------------------------------*- C++ -*----------------------------------*\
| =========                 |                                                 |
| \\      /  F ield         | OpenFOAM: The Open Source CFD Toolbox           |
|  \\    /   O peration     | Version:  2012                                  |
|   \\  /    A nd           | Website:  www.openfoam.com                      |
|    \\/     M anipulation  |                                                 |
\*---------------------------------------------------------------------------*/
FoamFile
{
    version     2.0;
    format      ascii;
    class       volScalarField::Internal;
    location    "0.107/fluid";
    object      V0;
}
// * * * * * * * * * * * * * * * * * * * * * * * * * * * * * * * * * * * * * //

dimensions      [0 3 0 0 0 0 0];


value           nonuniform List<scalar> 
16422
(
4.25187e-05
4.2518e-05
4.25174e-05
4.25174e-05
4.25176e-05
4.25193e-05
4.25207e-05
4.25224e-05
4.25226e-05
4.25226e-05
4.25213e-05
4.25163e-05
4.2502e-05
4.24594e-05
4.22847e-05
4.25262e-05
4.25245e-05
4.25223e-05
4.25214e-05
4.25184e-05
4.25183e-05
4.25183e-05
4.25171e-05
4.25171e-05
4.25185e-05
4.25194e-05
4.25183e-05
4.25175e-05
4.25222e-05
4.25733e-05
4.25342e-05
4.2531e-05
4.25275e-05
4.25255e-05
4.25216e-05
4.2518e-05
4.25151e-05
4.2513e-05
4.25128e-05
4.2513e-05
4.2515e-05
4.25211e-05
4.25355e-05
4.25647e-05
4.26225e-05
4.25417e-05
4.25373e-05
4.25327e-05
4.25303e-05
4.25264e-05
4.25205e-05
4.25148e-05
4.25125e-05
4.25116e-05
4.25116e-05
4.25131e-05
4.25202e-05
4.25324e-05
4.25558e-05
4.26991e-05
4.25185e-05
4.2517e-05
4.25171e-05
4.25166e-05
4.25178e-05
4.25192e-05
4.25207e-05
4.25216e-05
4.25217e-05
4.25213e-05
4.2519e-05
4.25132e-05
4.24979e-05
4.24528e-05
4.23179e-05
4.2526e-05
4.2523e-05
4.25215e-05
4.25196e-05
4.25183e-05
4.25176e-05
4.25171e-05
4.25155e-05
4.25152e-05
4.2516e-05
4.25166e-05
4.25148e-05
4.25104e-05
4.25029e-05
4.25266e-05
4.25342e-05
4.25294e-05
4.25257e-05
4.25228e-05
4.25202e-05
4.25176e-05
4.25157e-05
4.25124e-05
4.25114e-05
4.25115e-05
4.25111e-05
4.25146e-05
4.25206e-05
4.25277e-05
4.25429e-05
4.25419e-05
4.2536e-05
4.253e-05
4.25265e-05
4.25239e-05
4.25198e-05
4.25131e-05
4.25112e-05
4.25099e-05
4.25093e-05
4.25092e-05
4.25121e-05
4.25186e-05
4.25127e-05
4.24382e-05
4.25186e-05
4.25177e-05
4.25172e-05
4.25168e-05
4.25179e-05
4.25185e-05
4.25193e-05
4.2521e-05
4.25209e-05
4.25199e-05
4.25173e-05
4.25127e-05
4.25023e-05
4.24782e-05
4.24631e-05
4.25256e-05
4.25227e-05
4.25213e-05
4.25188e-05
4.25181e-05
4.25165e-05
4.25158e-05
4.25155e-05
4.25162e-05
4.25147e-05
4.25139e-05
4.25122e-05
4.25073e-05
4.24998e-05
4.25027e-05
4.25337e-05
4.25288e-05
4.25242e-05
4.25218e-05
4.25198e-05
4.25173e-05
4.25155e-05
4.25136e-05
4.25122e-05
4.25121e-05
4.25117e-05
4.25118e-05
4.25107e-05
4.25058e-05
4.25079e-05
4.25417e-05
4.25346e-05
4.25275e-05
4.25245e-05
4.25227e-05
4.25188e-05
4.2515e-05
4.25115e-05
4.25107e-05
4.25091e-05
4.25086e-05
4.2511e-05
4.25093e-05
4.25031e-05
4.24913e-05
4.25183e-05
4.25178e-05
4.25175e-05
4.25173e-05
4.25178e-05
4.25179e-05
4.25191e-05
4.25193e-05
4.25202e-05
4.25192e-05
4.2517e-05
4.25147e-05
4.25117e-05
4.2513e-05
4.25373e-05
4.25248e-05
4.25224e-05
4.25206e-05
4.25197e-05
4.25182e-05
4.25172e-05
4.25165e-05
4.25178e-05
4.25166e-05
4.25138e-05
4.25114e-05
4.251e-05
4.25099e-05
4.25111e-05
4.25248e-05
4.25327e-05
4.25277e-05
4.25227e-05
4.25217e-05
4.25199e-05
4.2518e-05
4.25172e-05
4.25148e-05
4.25138e-05
4.25114e-05
4.25091e-05
4.2508e-05
4.25065e-05
4.25068e-05
4.25093e-05
4.25415e-05
4.25311e-05
4.25256e-05
4.25242e-05
4.25211e-05
4.2517e-05
4.2517e-05
4.25131e-05
4.25107e-05
4.25089e-05
4.25066e-05
4.2506e-05
4.25053e-05
4.25004e-05
4.2496e-05
4.22814e-05
4.25472e-05
4.26714e-05
4.26242e-05
5.32419e-06
4.25449e-05
4.26713e-05
4.23143e-05
4.25288e-05
4.26853e-05
5.33149e-06
4.24229e-05
4.23833e-05
4.25068e-05
4.26537e-05
4.23843e-05
4.32113e-05
4.24723e-05
4.24946e-05
4.2631e-05
4.27064e-05
4.26014e-05
4.26537e-05
4.25594e-05
4.2593e-05
4.26931e-05
4.26313e-05
4.27154e-05
4.25616e-05
4.26035e-05
4.2484e-05
4.24766e-05
4.26212e-05
4.25218e-05
4.2481e-05
4.25483e-05
4.27282e-05
4.27333e-05
4.24935e-05
4.2485e-05
4.25064e-05
6.46812e-07
6.68628e-07
5.3147e-06
4.25761e-05
4.2409e-05
4.23508e-05
5.31428e-06
5.3156e-06
6.46823e-07
6.68635e-07
5.315e-06
6.68671e-07
6.46868e-07
5.31632e-06
6.47412e-07
6.69242e-07
6.68694e-07
5.32129e-06
6.4688e-07
5.32094e-06
5.3463e-06
5.33738e-06
4.25156e-05
4.23193e-05
4.23733e-05
5.31579e-06
4.23033e-05
5.31113e-06
5.27419e-06
6.47788e-07
6.69611e-07
6.71037e-07
5.32574e-06
6.54409e-07
6.42772e-07
4.24614e-05
4.23567e-05
4.25089e-05
4.25258e-05
4.25783e-05
4.26509e-05
4.26412e-05
4.27223e-05
4.23579e-05
4.25056e-05
4.25228e-05
4.24541e-05
4.23663e-05
4.2494e-05
4.25051e-05
4.25655e-05
5.2409e-06
4.24178e-05
4.22905e-05
4.25593e-05
4.24222e-05
5.2416e-06
4.26462e-05
4.26301e-05
4.27059e-05
4.25458e-05
4.26217e-05
4.25729e-05
4.26213e-05
4.23616e-05
4.24903e-05
4.24906e-05
4.24671e-05
4.24051e-05
4.24902e-05
4.24755e-05
4.23943e-05
5.25711e-06
4.24203e-05
4.22415e-05
4.26145e-05
4.23534e-05
5.20088e-06
4.25907e-05
4.25525e-05
4.259e-05
4.24948e-05
4.25142e-05
4.25142e-05
4.25318e-05
4.28186e-05
4.24914e-05
4.25282e-05
4.2533e-05
4.25884e-05
4.25246e-05
4.25471e-05
4.25551e-05
4.22798e-05
5.24077e-06
4.24156e-05
4.24152e-05
4.25563e-05
4.24086e-05
4.26741e-05
5.33141e-06
4.25925e-05
4.25948e-05
4.24086e-05
4.24171e-05
5.33151e-06
4.25923e-05
4.26746e-05
4.24109e-05
5.33233e-06
4.25942e-05
4.25785e-05
4.23003e-05
5.24876e-06
4.24353e-05
4.24292e-05
4.26035e-05
5.24218e-06
4.24307e-05
4.26814e-05
5.34114e-06
4.25972e-05
5.33311e-06
4.2598e-05
4.24569e-05
4.2322e-05
5.34812e-06
4.25681e-05
4.25482e-05
4.24702e-05
5.27443e-06
4.24927e-05
5.26454e-06
5.50288e-06
4.27337e-05
4.2697e-05
5.21273e-06
4.25037e-05
5.22722e-06
5.1489e-08
6.69009e-07
6.46822e-07
6.69016e-07
5.14891e-08
5.42406e-08
6.68636e-07
6.56525e-07
6.56533e-07
5.42406e-08
5.42394e-08
6.68626e-07
6.56516e-07
5.14879e-08
6.46804e-07
6.68996e-07
6.55938e-07
6.57455e-07
6.52196e-07
6.71697e-07
6.71254e-07
6.52618e-07
6.52203e-07
6.71264e-07
6.55933e-07
6.58066e-07
6.57412e-07
6.56364e-07
5.14891e-08
6.69023e-07
6.46829e-07
6.69026e-07
5.14891e-08
5.42406e-08
6.56538e-07
6.68638e-07
5.42406e-08
6.56542e-07
5.42406e-08
6.56591e-07
6.68649e-07
6.5656e-07
5.42408e-08
5.14891e-08
6.69067e-07
6.46843e-07
6.69042e-07
5.14892e-08
5.14897e-08
6.69746e-07
6.46974e-07
6.69261e-07
5.14918e-08
5.42414e-08
6.68854e-07
6.57251e-07
6.56824e-07
5.42445e-08
5.42413e-08
6.56622e-07
6.68778e-07
5.42408e-08
6.56731e-07
5.14896e-08
6.69094e-07
6.46934e-07
5.14893e-08
6.69195e-07
6.6249e-07
6.73545e-07
6.64611e-07
6.702e-07
6.55883e-07
6.71803e-07
6.75096e-07
6.52714e-07
6.59699e-07
6.58145e-07
6.61938e-07
6.56463e-07
6.5859e-07
6.835e-07
6.78015e-07
6.66027e-07
6.60318e-07
6.49801e-07
6.59061e-07
6.46562e-07
5.14965e-08
6.70116e-07
6.54237e-07
6.72249e-07
5.14929e-08
5.42503e-08
6.57598e-07
6.72288e-07
5.42453e-08
6.58936e-07
7.10832e-07
7.02197e-07
6.97345e-07
5.42147e-08
6.52344e-07
6.73633e-07
7.13101e-07
6.59134e-07
6.12372e-07
5.14795e-08
6.5583e-07
6.61782e-07
7.30155e-07
6.72604e-07
6.19382e-07
4.2235e-05
4.22481e-05
4.24192e-05
4.24098e-05
4.23368e-05
4.24138e-05
4.20392e-05
4.22573e-05
4.24599e-05
4.24866e-05
4.2479e-05
4.21955e-05
4.24458e-05
4.24433e-05
6.72475e-07
5.31455e-06
5.32441e-06
5.26927e-06
6.72479e-07
5.31487e-06
5.32451e-06
5.26931e-06
5.3245e-06
5.26932e-06
6.72478e-07
6.72485e-07
5.31536e-06
5.26998e-06
5.3251e-06
5.32485e-06
5.2697e-06
6.72494e-07
6.72485e-07
5.31501e-06
5.3246e-06
5.2694e-06
5.3247e-06
6.72481e-07
5.26949e-06
6.72537e-07
5.27049e-06
5.31711e-06
5.32559e-06
6.72498e-07
5.3264e-06
5.27136e-06
6.72562e-07
5.31895e-06
5.33144e-06
5.27647e-06
5.32811e-06
5.27309e-06
6.72772e-07
6.78936e-07
5.31232e-06
5.23657e-06
5.26331e-06
5.34028e-06
5.29027e-06
6.22778e-07
6.76757e-07
6.7397e-07
6.81662e-07
6.7546e-07
5.32619e-06
5.33847e-06
5.2833e-06
5.34912e-06
6.72961e-07
5.2935e-06
5.57322e-06
5.57216e-06
5.53898e-06
5.40804e-06
5.45559e-06
5.44016e-06
5.44941e-06
5.20275e-06
5.32053e-06
5.23779e-06
5.31742e-06
5.29633e-06
5.28334e-06
5.34774e-06
5.22136e-06
5.46945e-06
5.29037e-06
5.33937e-06
5.30575e-06
5.28986e-06
5.39244e-06
1.00911e-07
7.05098e-07
5.1489e-08
7.051e-07
1.00911e-07
8.44035e-08
7.11981e-08
8.44033e-08
7.11956e-08
1.00912e-07
5.1489e-08
7.05103e-07
7.05102e-07
1.00912e-07
8.44022e-08
7.12018e-08
8.44021e-08
7.12024e-08
7.92722e-08
6.53898e-07
5.42405e-08
7.92731e-08
6.53894e-07
7.73524e-08
7.45402e-08
7.45402e-08
7.73526e-08
7.7352e-08
7.45403e-08
7.73525e-08
7.45402e-08
7.92731e-08
5.42405e-08
6.53897e-07
6.53894e-07
7.9273e-08
7.9273e-08
5.42405e-08
6.53892e-07
6.53893e-07
7.92731e-08
7.73524e-08
7.4539e-08
7.73521e-08
7.45402e-08
1.00911e-07
5.1489e-08
7.05099e-07
7.05101e-07
1.0091e-07
8.44009e-08
7.11949e-08
8.4402e-08
7.12153e-08
1.00912e-07
7.05109e-07
5.14891e-08
7.05104e-07
1.00911e-07
8.44025e-08
7.1209e-08
8.44021e-08
7.12009e-08
1.0091e-07
5.14891e-08
7.05104e-07
1.00911e-07
7.05102e-07
8.44032e-08
7.12011e-08
8.44024e-08
7.12024e-08
7.92727e-08
5.42406e-08
6.53904e-07
6.53898e-07
7.92734e-08
7.73523e-08
7.45402e-08
7.45402e-08
7.73526e-08
7.73523e-08
7.45404e-08
7.45403e-08
7.73528e-08
7.92722e-08
5.42406e-08
6.539e-07
7.92731e-08
6.53894e-07
7.92729e-08
6.53905e-07
5.42406e-08
6.53907e-07
7.92734e-08
7.73527e-08
7.45407e-08
7.45397e-08
7.73533e-08
7.73524e-08
7.45404e-08
7.45396e-08
7.7353e-08
7.92739e-08
5.42394e-08
6.53921e-07
6.53912e-07
7.92737e-08
1.00909e-07
7.0511e-07
5.14891e-08
7.05109e-07
1.00911e-07
8.43982e-08
7.1223e-08
8.43992e-08
7.12177e-08
1.00909e-07
5.1488e-08
7.05121e-07
7.05114e-07
1.0091e-07
8.43992e-08
7.12155e-08
8.44007e-08
7.12181e-08
1.00917e-07
7.05197e-07
5.14904e-08
7.05236e-07
1.00915e-07
8.44067e-08
7.12036e-08
8.44133e-08
7.12038e-08
1.00918e-07
5.14906e-08
7.05428e-07
7.0531e-07
1.00926e-07
8.4407e-08
7.11957e-08
8.44063e-08
7.12011e-08
7.92824e-08
6.54015e-07
5.42421e-08
7.92793e-08
6.54068e-07
7.7364e-08
7.4548e-08
7.45448e-08
7.73726e-08
7.73607e-08
7.45423e-08
7.73577e-08
7.45435e-08
7.92867e-08
5.42424e-08
6.54297e-07
6.54153e-07
7.92967e-08
7.92766e-08
5.4241e-08
6.53983e-07
6.53954e-07
7.92771e-08
7.7354e-08
7.45408e-08
7.73539e-08
7.45403e-08
7.92754e-08
5.42401e-08
6.53929e-07
7.92749e-08
6.53941e-07
7.73557e-08
7.45416e-08
7.73562e-08
7.45412e-08
1.00913e-07
5.14894e-08
7.05168e-07
7.05152e-07
1.00915e-07
8.44011e-08
7.12111e-08
8.44e-08
7.12042e-08
1.00911e-07
5.14882e-08
7.05126e-07
1.00911e-07
7.05135e-07
8.44042e-08
7.11983e-08
8.44058e-08
7.11985e-08
1.00971e-07
7.08602e-07
5.14998e-08
7.06876e-07
1.01301e-07
8.44385e-08
7.12019e-08
8.44129e-08
7.1219e-08
1.00961e-07
5.14975e-08
7.05646e-07
1.00927e-07
7.06049e-07
8.44474e-08
7.16489e-08
8.48424e-08
7.12212e-08
7.93614e-08
5.42541e-08
6.57405e-07
6.55808e-07
7.94726e-08
7.74062e-08
7.45503e-08
7.45611e-08
7.73798e-08
7.7427e-08
7.46913e-08
7.45712e-08
7.75352e-08
7.93365e-08
5.42506e-08
6.54543e-07
7.93049e-08
6.54977e-07
6.87992e-07
7.2234e-07
6.97034e-07
6.82049e-07
7.19825e-07
6.94762e-07
7.27714e-07
7.33766e-07
7.14487e-07
8.04112e-08
6.60737e-07
5.41362e-08
6.64928e-07
7.95837e-08
7.80472e-08
6.06878e-07
7.12248e-07
5.96917e-07
8.12427e-08
7.86379e-08
7.48158e-08
7.61833e-08
7.76573e-08
7.99228e-08
5.4303e-08
6.27587e-07
6.59889e-07
6.10993e-07
6.45239e-07
1.02466e-07
7.12421e-07
5.23784e-08
7.16944e-07
1.01546e-07
7.99813e-08
6.8838e-07
7.40009e-07
6.45696e-07
3.49975e-08
1.03232e-07
5.35582e-08
6.33263e-07
6.92296e-07
6.13572e-07
7.01667e-07
8.43132e-08
7.22497e-08
8.51804e-08
1.10123e-07
4.25763e-05
4.24767e-05
4.25073e-05
4.25115e-05
4.25279e-05
4.24927e-05
4.25095e-05
5.25981e-06
5.31917e-06
5.30089e-06
5.32935e-06
5.29565e-06
5.32454e-06
5.26465e-06
5.29325e-06
5.30839e-06
5.33874e-06
5.3433e-06
5.32061e-06
5.3579e-06
5.27408e-06
4.26132e-05
4.2595e-05
4.25522e-05
4.26075e-05
4.26855e-05
4.26698e-05
4.26261e-05
4.2658e-05
4.27085e-05
4.26573e-05
4.26268e-05
4.2698e-05
4.26423e-05
4.26763e-05
4.25142e-05
4.24312e-05
4.24736e-05
4.25601e-05
4.25517e-05
4.26008e-05
4.25195e-05
6.70272e-07
6.37697e-07
6.60421e-07
6.46823e-07
6.60432e-07
6.70273e-07
6.37694e-07
6.51724e-07
6.79838e-07
6.68622e-07
6.61171e-07
6.61172e-07
6.79833e-07
6.51727e-07
5.2574e-06
5.31696e-06
5.29328e-06
5.32214e-06
5.27996e-06
5.30164e-06
5.30864e-06
5.30294e-06
5.29637e-06
5.29782e-06
5.28484e-06
5.27747e-06
5.30653e-06
5.29399e-06
5.29529e-06
6.7027e-07
6.3771e-07
6.60429e-07
6.46822e-07
6.6043e-07
6.70269e-07
6.37706e-07
6.51726e-07
6.7984e-07
6.61184e-07
6.68618e-07
6.61167e-07
6.79835e-07
6.5173e-07
6.51751e-07
6.61224e-07
6.68653e-07
6.79868e-07
6.61206e-07
6.79857e-07
6.51762e-07
6.70268e-07
6.60459e-07
6.46866e-07
6.37758e-07
6.60455e-07
6.70275e-07
6.37749e-07
6.70509e-07
6.38029e-07
6.61051e-07
6.47169e-07
6.60805e-07
6.70661e-07
6.37901e-07
6.52092e-07
6.80322e-07
6.69065e-07
6.61815e-07
6.61638e-07
6.80154e-07
6.5228e-07
6.5179e-07
6.61248e-07
6.79874e-07
6.68696e-07
6.61254e-07
6.51772e-07
6.7989e-07
6.70298e-07
6.60476e-07
6.37761e-07
6.46894e-07
6.60494e-07
6.70283e-07
6.37755e-07
5.31392e-06
5.30907e-06
5.31258e-06
5.33266e-06
5.32151e-06
5.33237e-06
5.29435e-06
5.3252e-06
5.35537e-06
5.32673e-06
5.38353e-06
5.33346e-06
5.38967e-06
5.32454e-06
5.34718e-06
5.3715e-06
5.34503e-06
5.32916e-06
5.33489e-06
5.36579e-06
5.34897e-06
5.26089e-06
5.30284e-06
5.30008e-06
5.27265e-06
5.28918e-06
5.23503e-06
5.27869e-06
5.2648e-06
5.2839e-06
5.30275e-06
5.29072e-06
5.29075e-06
5.25312e-06
5.27025e-06
6.71506e-07
6.38267e-07
6.61431e-07
6.48682e-07
6.62251e-07
6.70932e-07
6.38804e-07
6.53198e-07
6.80622e-07
6.62185e-07
6.70073e-07
6.62624e-07
6.81165e-07
6.52616e-07
6.45469e-07
6.52103e-07
6.61978e-07
6.40242e-07
6.57776e-07
6.35595e-07
6.58977e-07
6.1918e-07
6.45816e-07
6.32626e-07
6.35238e-07
6.45941e-07
6.32722e-07
5.6582e-07
5.33174e-06
5.24103e-06
5.33187e-06
5.30139e-06
5.2663e-06
5.30144e-06
5.2663e-06
5.33244e-06
5.24128e-06
5.33213e-06
5.30187e-06
5.26691e-06
5.30205e-06
5.26669e-06
5.34559e-06
5.27446e-06
5.35226e-06
5.30905e-06
5.27819e-06
5.31053e-06
5.28244e-06
5.2685e-06
5.28506e-06
5.33522e-06
5.30134e-06
5.25593e-06
5.27784e-06
5.28211e-06
5.33159e-06
5.24072e-06
5.33156e-06
5.30125e-06
5.266e-06
5.30105e-06
5.26612e-06
5.24064e-06
5.33145e-06
5.30086e-06
5.26584e-06
5.33141e-06
5.27874e-06
5.27874e-06
5.31139e-06
5.3174e-06
5.31756e-06
5.31118e-06
5.3314e-06
5.27871e-06
5.31112e-06
5.31741e-06
5.27884e-06
5.33163e-06
5.27898e-06
5.31143e-06
5.31754e-06
5.31141e-06
5.31757e-06
5.27969e-06
5.33191e-06
5.27926e-06
5.31176e-06
5.31808e-06
5.31203e-06
5.31783e-06
5.33931e-06
5.24503e-06
5.33595e-06
5.30539e-06
5.27289e-06
5.30696e-06
5.27039e-06
5.33308e-06
5.24311e-06
5.33403e-06
5.30353e-06
5.26768e-06
5.30288e-06
5.26844e-06
5.33688e-06
5.28798e-06
5.2841e-06
5.31466e-06
5.32251e-06
5.32091e-06
5.31574e-06
5.28047e-06
5.33445e-06
5.28179e-06
5.31338e-06
5.3187e-06
5.31268e-06
5.31947e-06
5.29387e-06
5.35474e-06
5.29815e-06
5.31389e-06
5.32444e-06
5.31684e-06
5.3229e-06
5.24869e-06
5.33857e-06
5.28539e-06
5.30563e-06
5.30243e-06
5.29706e-06
5.31401e-06
5.23823e-06
5.24455e-06
5.20054e-06
5.29161e-06
5.28678e-06
5.28384e-06
5.28623e-06
5.42904e-08
9.12149e-08
5.14889e-08
9.12142e-08
5.42905e-08
6.77701e-07
6.68117e-07
6.69009e-07
6.72826e-07
6.68126e-07
6.72824e-07
6.77704e-07
6.70259e-07
6.46817e-07
6.60423e-07
6.37715e-07
6.60416e-07
6.70258e-07
6.37715e-07
6.77699e-07
6.72818e-07
6.68999e-07
6.68122e-07
6.68115e-07
6.72822e-07
6.77697e-07
5.42892e-08
5.14878e-08
9.12149e-08
9.12126e-08
5.42905e-08
7.09984e-08
1.01111e-07
5.42404e-08
1.0111e-07
7.09986e-08
6.51722e-07
6.68609e-07
6.61181e-07
6.79837e-07
6.61158e-07
6.51727e-07
6.79832e-07
7.09974e-08
5.42392e-08
1.01111e-07
1.01109e-07
7.09987e-08
7.0998e-08
5.42404e-08
1.0111e-07
1.01109e-07
7.09974e-08
6.51723e-07
6.68624e-07
6.61171e-07
6.79835e-07
6.61169e-07
6.51727e-07
6.79834e-07
5.42904e-08
5.14889e-08
9.12133e-08
9.12141e-08
5.42893e-08
6.70259e-07
6.46824e-07
6.60415e-07
6.37694e-07
6.60425e-07
6.70266e-07
6.37709e-07
6.77697e-07
6.72821e-07
6.6901e-07
6.68111e-07
6.68124e-07
6.72824e-07
6.77698e-07
6.55851e-07
6.62093e-07
6.62005e-07
6.62571e-07
6.57292e-07
6.62471e-07
6.54503e-07
6.52325e-07
6.5463e-07
6.71409e-07
6.61389e-07
6.61111e-07
6.60962e-07
6.71383e-07
6.61091e-07
6.52345e-07
6.54924e-07
6.54647e-07
6.5212e-07
6.54512e-07
6.54434e-07
6.60968e-07
6.71176e-07
6.60892e-07
6.62086e-07
6.56059e-07
6.62227e-07
6.57593e-07
6.63037e-07
6.62727e-07
6.62554e-07
6.57591e-07
6.62703e-07
6.5608e-07
6.62541e-07
6.62243e-07
5.42904e-08
9.12153e-08
5.1489e-08
9.12144e-08
5.42905e-08
6.77706e-07
6.6813e-07
6.6901e-07
6.72825e-07
6.68126e-07
6.77704e-07
6.72827e-07
6.70275e-07
6.46833e-07
6.60434e-07
6.37713e-07
6.60439e-07
6.70277e-07
6.37704e-07
6.77709e-07
6.72834e-07
6.69023e-07
6.68133e-07
6.68135e-07
6.7283e-07
6.77713e-07
5.42904e-08
5.14889e-08
9.12149e-08
9.12142e-08
5.42905e-08
7.09985e-08
5.42404e-08
1.01111e-07
1.0111e-07
7.09987e-08
6.5173e-07
6.68628e-07
6.79846e-07
6.61186e-07
6.61178e-07
6.79837e-07
6.51735e-07
7.09986e-08
5.42404e-08
1.01111e-07
1.0111e-07
7.09987e-08
7.09986e-08
1.01111e-07
5.42404e-08
1.0111e-07
7.09987e-08
6.51742e-07
6.68638e-07
6.79848e-07
6.61199e-07
6.6119e-07
6.79847e-07
6.51738e-07
7.09988e-08
5.42406e-08
1.01111e-07
1.01111e-07
7.0999e-08
5.42904e-08
9.12153e-08
5.1489e-08
9.12145e-08
5.42905e-08
6.77719e-07
6.68159e-07
6.6905e-07
6.72859e-07
6.68153e-07
6.72851e-07
6.77727e-07
6.70264e-07
6.46855e-07
6.60442e-07
6.37732e-07
6.60446e-07
6.70269e-07
6.3774e-07
6.77712e-07
6.72839e-07
6.69038e-07
6.68142e-07
6.68143e-07
6.72845e-07
6.77712e-07
5.42906e-08
5.14891e-08
9.12159e-08
9.1215e-08
5.42907e-08
5.42909e-08
9.12188e-08
5.14894e-08
9.1218e-08
5.42912e-08
6.78014e-07
6.68768e-07
6.69497e-07
6.73356e-07
6.68527e-07
6.73168e-07
6.78199e-07
6.70435e-07
6.47067e-07
6.60601e-07
6.37783e-07
6.60696e-07
6.70384e-07
6.37833e-07
6.77909e-07
6.72984e-07
6.69353e-07
6.68313e-07
6.68404e-07
6.73053e-07
6.77845e-07
5.42928e-08
5.14913e-08
9.12312e-08
9.12269e-08
5.42934e-08
7.09998e-08
1.01115e-07
5.42411e-08
1.01115e-07
7.09996e-08
6.51969e-07
6.68906e-07
6.61416e-07
6.79987e-07
6.61475e-07
6.51903e-07
6.80046e-07
7.10028e-08
5.4243e-08
1.01131e-07
1.01126e-07
7.10048e-08
7.09995e-08
5.4241e-08
1.01115e-07
1.01113e-07
7.09999e-08
6.51816e-07
6.68736e-07
6.61338e-07
6.7994e-07
6.61294e-07
6.51846e-07
6.79913e-07
7.09989e-08
5.42407e-08
1.01113e-07
1.01111e-07
7.0999e-08
5.42909e-08
5.14894e-08
9.12179e-08
9.12169e-08
5.42911e-08
6.77752e-07
6.68182e-07
6.72872e-07
6.69105e-07
6.68195e-07
6.77738e-07
6.72889e-07
6.70329e-07
6.46908e-07
6.60557e-07
6.37761e-07
6.60522e-07
6.70355e-07
6.37748e-07
5.42905e-08
5.14892e-08
9.1216e-08
9.12149e-08
5.42906e-08
6.77776e-07
6.72941e-07
6.69139e-07
6.68264e-07
6.68223e-07
6.7291e-07
6.77808e-07
6.68952e-07
6.68339e-07
6.74964e-07
6.75861e-07
6.7916e-07
6.82212e-07
6.69683e-07
6.7031e-07
6.75738e-07
6.74482e-07
6.77014e-07
6.81372e-07
6.58162e-07
6.53962e-07
6.56246e-07
6.72467e-07
6.61488e-07
6.62136e-07
6.64664e-07
6.73091e-07
6.62723e-07
6.53376e-07
6.5502e-07
6.55669e-07
6.6604e-07
6.57732e-07
6.64001e-07
6.59028e-07
6.63167e-07
6.63906e-07
6.66713e-07
6.59571e-07
6.6457e-07
6.57131e-07
6.62659e-07
6.63367e-07
6.60877e-07
6.64253e-07
6.66536e-07
6.89967e-07
6.73661e-07
6.79172e-07
6.67464e-07
6.83981e-07
6.73285e-07
6.70199e-07
6.67766e-07
6.72401e-07
6.59609e-07
6.54577e-07
6.54738e-07
6.51186e-07
6.55111e-07
6.52853e-07
6.51781e-07
6.56167e-07
6.52161e-07
6.49223e-07
6.47808e-07
6.50506e-07
5.43075e-08
9.13762e-08
5.15001e-08
9.13253e-08
5.43037e-08
6.7916e-07
6.69132e-07
6.70655e-07
6.73687e-07
6.69839e-07
6.78523e-07
6.74263e-07
6.72888e-07
6.50449e-07
6.66586e-07
6.44403e-07
6.6377e-07
6.76705e-07
6.40169e-07
6.80469e-07
6.77118e-07
6.71526e-07
6.7273e-07
6.71006e-07
6.75335e-07
6.83223e-07
5.42951e-08
5.14934e-08
9.12365e-08
9.12423e-08
5.42946e-08
7.10249e-08
5.42575e-08
1.01283e-07
1.01245e-07
7.10109e-08
6.54332e-07
6.71041e-07
6.84711e-07
6.64589e-07
6.63518e-07
6.82293e-07
6.56549e-07
7.10073e-08
5.42456e-08
1.01137e-07
1.01142e-07
7.1006e-08
7.10029e-08
1.01338e-07
5.42232e-08
1.01561e-07
7.09771e-08
6.63417e-07
6.70631e-07
6.89433e-07
6.65822e-07
6.63974e-07
6.90838e-07
6.60704e-07
5.43175e-08
9.14125e-08
5.15449e-08
9.16721e-08
5.42803e-08
6.58298e-07
6.52347e-07
6.61678e-07
6.51298e-07
6.58512e-07
6.44457e-07
6.62573e-07
6.87015e-07
6.67744e-07
6.70525e-07
6.58544e-07
6.66924e-07
6.85982e-07
7.01804e-07
6.8548e-07
6.79232e-07
6.68505e-07
6.74254e-07
6.69899e-07
6.76847e-07
6.87689e-07
6.72474e-07
6.59787e-07
6.62211e-07
6.62212e-07
6.59782e-07
6.62768e-07
6.62781e-07
6.59792e-07
6.62216e-07
6.72475e-07
6.59784e-07
6.62205e-07
6.62759e-07
6.62802e-07
6.72476e-07
6.59796e-07
6.62216e-07
6.59788e-07
6.62207e-07
6.62769e-07
6.62795e-07
6.59802e-07
6.62225e-07
6.72482e-07
6.62225e-07
6.5979e-07
6.62784e-07
6.62818e-07
6.72486e-07
6.62244e-07
6.59813e-07
6.62234e-07
6.59802e-07
6.62803e-07
6.62839e-07
6.59801e-07
6.72477e-07
6.62224e-07
6.59793e-07
6.62211e-07
6.62778e-07
6.62808e-07
6.72477e-07
6.59797e-07
6.62217e-07
6.59789e-07
6.62209e-07
6.62771e-07
6.62804e-07
6.72516e-07
6.5988e-07
6.62315e-07
6.62283e-07
6.5985e-07
6.62883e-07
6.62949e-07
6.72504e-07
6.62256e-07
6.59819e-07
6.62265e-07
6.59831e-07
6.62846e-07
6.62861e-07
6.59927e-07
6.62354e-07
6.726e-07
6.5998e-07
6.62413e-07
6.63072e-07
6.6302e-07
6.72665e-07
6.60231e-07
6.62675e-07
6.60076e-07
6.62511e-07
6.63207e-07
6.63432e-07
6.66424e-07
6.68736e-07
6.85015e-07
6.69563e-07
6.66959e-07
6.64643e-07
6.66942e-07
6.75024e-07
6.44178e-07
6.43254e-07
6.57391e-07
6.54107e-07
6.58473e-07
6.51637e-07
7.28087e-08
7.34494e-08
7.30183e-08
7.30679e-08
7.30923e-08
7.4171e-08
7.30695e-08
7.41728e-08
7.27235e-08
7.27605e-08
7.26804e-08
7.28448e-08
7.31297e-08
7.43034e-08
7.32974e-08
7.41871e-08
6.63584e-07
6.74018e-07
6.65975e-07
6.61891e-07
6.6432e-07
6.64956e-07
6.65927e-07
6.73316e-07
6.60505e-07
6.62949e-07
6.60977e-07
6.63423e-07
6.64192e-07
6.63755e-07
7.23992e-08
4.27361e-08
8.21324e-08
1.0091e-07
8.21324e-08
7.23995e-08
4.27357e-08
5.42904e-08
5.14889e-08
9.12143e-08
9.12141e-08
5.42905e-08
7.23992e-08
1.0091e-07
8.21329e-08
4.2736e-08
8.21314e-08
4.27357e-08
7.23994e-08
8.44028e-08
7.42523e-08
7.42525e-08
7.14045e-08
7.11949e-08
7.14052e-08
8.44028e-08
7.42516e-08
7.42523e-08
7.14056e-08
7.11951e-08
7.14062e-08
7.2399e-08
4.27364e-08
8.21331e-08
1.00911e-07
7.23995e-08
4.27364e-08
8.21317e-08
5.42904e-08
5.14889e-08
9.12152e-08
9.12136e-08
5.42905e-08
7.23983e-08
1.00911e-07
4.27363e-08
8.21334e-08
4.27354e-08
8.21322e-08
7.23995e-08
8.43998e-08
7.42499e-08
7.4246e-08
7.14035e-08
7.12206e-08
7.1393e-08
8.43998e-08
7.42499e-08
7.42461e-08
7.1403e-08
7.12212e-08
7.13927e-08
4.25152e-08
4.25152e-08
7.09984e-08
5.42404e-08
1.0111e-07
1.0111e-07
7.09986e-08
4.25152e-08
4.25152e-08
3.60312e-08
5.87645e-08
9.63913e-08
7.73508e-08
9.63896e-08
3.60312e-08
5.8764e-08
7.45377e-08
8.15289e-08
8.1527e-08
8.15289e-08
7.45385e-08
8.15278e-08
3.60304e-08
7.73512e-08
9.63913e-08
5.87645e-08
9.63895e-08
5.87634e-08
3.60312e-08
3.60312e-08
5.87645e-08
7.73517e-08
9.63913e-08
5.87644e-08
3.60312e-08
9.63905e-08
8.15289e-08
7.4539e-08
8.15283e-08
3.60312e-08
7.73517e-08
5.87645e-08
9.63913e-08
5.87644e-08
9.63905e-08
3.60312e-08
8.15289e-08
7.4539e-08
8.15283e-08
7.0998e-08
5.42404e-08
1.01111e-07
1.01109e-07
7.09986e-08
4.25142e-08
4.25152e-08
4.25152e-08
4.25152e-08
7.09984e-08
5.42404e-08
1.01111e-07
1.01109e-07
7.09986e-08
4.25152e-08
4.25143e-08
4.25152e-08
4.25152e-08
3.60312e-08
5.87645e-08
7.73512e-08
9.63913e-08
5.87645e-08
3.60312e-08
9.63895e-08
8.15276e-08
7.45386e-08
8.15283e-08
3.60312e-08
7.73512e-08
5.87635e-08
9.63902e-08
3.60304e-08
5.87641e-08
9.63905e-08
8.15289e-08
7.4539e-08
8.15278e-08
7.23994e-08
8.21326e-08
4.27359e-08
1.0091e-07
7.23993e-08
8.21316e-08
4.27361e-08
5.42904e-08
5.14889e-08
9.12151e-08
9.12135e-08
5.42904e-08
7.23991e-08
1.00911e-07
8.21326e-08
4.27353e-08
7.23984e-08
8.21317e-08
4.27363e-08
8.44015e-08
7.42468e-08
7.42506e-08
7.14045e-08
7.11978e-08
7.14058e-08
8.44031e-08
7.42507e-08
7.42519e-08
7.13942e-08
7.12025e-08
7.14039e-08
7.23984e-08
4.27363e-08
8.21329e-08
1.0091e-07
8.21322e-08
7.23992e-08
4.27354e-08
5.42891e-08
5.14878e-08
9.12149e-08
9.12127e-08
5.42905e-08
7.23996e-08
1.00912e-07
8.21336e-08
4.27361e-08
8.21327e-08
4.27363e-08
7.23996e-08
8.44021e-08
7.42508e-08
7.4251e-08
7.13976e-08
7.12113e-08
7.1398e-08
8.44014e-08
7.42488e-08
7.42488e-08
7.1403e-08
7.12023e-08
7.14044e-08
7.23995e-08
4.27363e-08
1.00911e-07
8.21328e-08
7.23996e-08
4.27362e-08
8.21324e-08
5.42904e-08
5.14889e-08
9.12144e-08
9.12142e-08
5.42905e-08
7.23994e-08
1.00911e-07
4.27361e-08
8.21332e-08
7.23996e-08
4.2736e-08
8.21319e-08
8.44015e-08
7.42507e-08
7.42501e-08
7.1404e-08
7.11988e-08
7.14059e-08
8.44028e-08
7.42504e-08
7.42522e-08
7.14014e-08
7.11995e-08
7.14024e-08
4.25152e-08
4.25153e-08
7.0997e-08
5.42392e-08
1.01111e-07
1.01109e-07
7.09986e-08
4.25143e-08
4.25152e-08
3.60312e-08
5.87645e-08
9.63914e-08
7.73518e-08
9.63907e-08
3.60312e-08
5.87644e-08
7.4539e-08
8.1529e-08
8.15283e-08
8.1529e-08
7.4539e-08
8.15283e-08
3.60312e-08
7.73518e-08
9.63914e-08
5.87645e-08
9.63907e-08
3.60312e-08
5.87644e-08
3.60304e-08
5.87645e-08
9.63903e-08
7.7351e-08
5.87631e-08
3.60312e-08
9.63896e-08
7.4539e-08
8.15291e-08
8.15284e-08
8.15285e-08
7.45374e-08
8.1527e-08
3.60312e-08
7.73519e-08
5.87647e-08
9.63915e-08
5.87645e-08
9.63908e-08
3.60313e-08
7.09986e-08
5.42404e-08
1.0111e-07
1.0111e-07
7.09986e-08
4.25152e-08
4.25152e-08
4.25152e-08
4.25152e-08
4.25153e-08
4.25153e-08
7.09986e-08
5.42405e-08
1.0111e-07
1.01111e-07
7.09983e-08
4.25153e-08
4.25153e-08
3.60314e-08
9.63907e-08
5.87638e-08
7.73525e-08
9.63912e-08
3.60306e-08
5.87647e-08
7.45393e-08
8.15295e-08
8.15287e-08
8.15284e-08
7.45393e-08
8.15287e-08
3.60314e-08
7.73527e-08
9.63922e-08
5.87648e-08
9.63913e-08
5.87647e-08
3.60314e-08
3.60312e-08
9.63907e-08
7.73523e-08
5.87643e-08
5.87645e-08
9.6391e-08
3.60313e-08
7.45391e-08
8.15291e-08
8.15285e-08
8.15283e-08
7.45391e-08
8.15285e-08
3.60312e-08
7.73518e-08
5.87647e-08
9.63915e-08
3.60313e-08
5.87645e-08
9.63909e-08
7.09987e-08
5.42406e-08
1.0111e-07
1.01111e-07
7.09976e-08
4.25154e-08
4.25154e-08
4.25153e-08
4.25144e-08
7.23992e-08
8.21324e-08
1.0091e-07
4.27356e-08
8.21324e-08
7.23988e-08
4.27356e-08
5.42904e-08
5.1489e-08
9.12149e-08
9.12146e-08
5.42906e-08
7.23992e-08
1.0091e-07
8.21334e-08
4.27358e-08
7.23994e-08
8.21319e-08
4.27357e-08
8.43995e-08
7.42445e-08
7.42474e-08
7.13928e-08
7.12246e-08
7.13932e-08
8.43987e-08
7.42446e-08
7.42449e-08
7.13936e-08
7.12125e-08
7.14022e-08
7.23993e-08
8.2133e-08
4.27346e-08
1.0091e-07
7.23981e-08
8.21328e-08
4.27355e-08
5.42905e-08
5.1489e-08
9.12139e-08
9.1215e-08
5.42894e-08
7.23993e-08
1.0091e-07
8.21335e-08
4.27355e-08
8.21329e-08
4.27354e-08
7.23994e-08
8.43999e-08
7.42454e-08
7.4248e-08
7.13951e-08
7.12191e-08
7.13953e-08
8.43997e-08
7.42469e-08
7.42465e-08
7.13944e-08
7.12105e-08
7.14025e-08
7.23999e-08
4.27373e-08
8.21442e-08
1.00915e-07
8.21399e-08
7.2402e-08
4.27363e-08
5.42906e-08
5.14892e-08
9.12214e-08
9.12191e-08
5.42918e-08
7.24013e-08
1.00916e-07
8.21394e-08
4.27371e-08
8.21399e-08
4.27372e-08
7.24011e-08
8.44084e-08
7.42527e-08
7.42551e-08
7.14089e-08
7.12008e-08
7.14089e-08
8.44086e-08
7.4258e-08
7.42555e-08
7.14031e-08
7.12048e-08
7.14068e-08
7.24032e-08
4.27375e-08
8.21458e-08
1.0092e-07
7.24025e-08
4.27378e-08
8.21491e-08
5.42924e-08
5.14908e-08
9.12235e-08
9.12244e-08
5.4292e-08
7.2404e-08
1.00921e-07
4.27388e-08
8.2161e-08
4.27381e-08
8.21517e-08
7.24055e-08
8.44054e-08
7.42536e-08
7.42537e-08
7.14063e-08
7.11968e-08
7.14077e-08
8.44064e-08
7.4254e-08
7.42548e-08
7.1405e-08
7.11976e-08
7.14064e-08
4.25158e-08
4.25159e-08
7.09998e-08
5.42408e-08
1.01119e-07
1.01116e-07
7.10012e-08
4.25156e-08
4.25166e-08
3.60327e-08
5.87675e-08
9.63989e-08
7.73639e-08
9.63992e-08
3.60324e-08
5.87678e-08
7.45455e-08
8.15376e-08
8.15359e-08
8.15336e-08
7.45429e-08
8.15334e-08
3.60328e-08
7.73678e-08
9.64052e-08
5.877e-08
9.64021e-08
5.87686e-08
3.60337e-08
3.60315e-08
5.87669e-08
7.73591e-08
9.63969e-08
5.87657e-08
3.60322e-08
9.63952e-08
8.15312e-08
7.4541e-08
8.15306e-08
3.60316e-08
7.73572e-08
5.87656e-08
9.63949e-08
5.87657e-08
9.63945e-08
3.60318e-08
8.15325e-08
7.45409e-08
8.15306e-08
7.10018e-08
5.42428e-08
1.01122e-07
1.01122e-07
7.10016e-08
4.25174e-08
4.25184e-08
4.25172e-08
4.25168e-08
7.09993e-08
5.42409e-08
1.01113e-07
1.01112e-07
7.09993e-08
4.25158e-08
4.25159e-08
4.25156e-08
4.25156e-08
3.60314e-08
7.73531e-08
5.87641e-08
9.63918e-08
9.63919e-08
5.87646e-08
3.60307e-08
8.15295e-08
7.45392e-08
8.15286e-08
3.60314e-08
7.73529e-08
9.63923e-08
5.87648e-08
9.63908e-08
3.60314e-08
5.87648e-08
8.1529e-08
7.45392e-08
8.15286e-08
7.09981e-08
5.42403e-08
1.01112e-07
1.01111e-07
7.09985e-08
4.25154e-08
4.25154e-08
4.25152e-08
4.25149e-08
3.60316e-08
5.87652e-08
7.73544e-08
9.63932e-08
5.87653e-08
3.60315e-08
9.63928e-08
8.15305e-08
7.45403e-08
8.15299e-08
3.60316e-08
7.73553e-08
5.87657e-08
9.63935e-08
3.60318e-08
5.87654e-08
9.63932e-08
8.153e-08
7.45402e-08
8.15297e-08
7.24004e-08
8.21362e-08
4.27365e-08
1.00914e-07
7.24003e-08
8.21362e-08
4.27367e-08
5.42908e-08
5.14894e-08
9.12168e-08
9.12165e-08
5.42909e-08
7.24005e-08
1.00914e-07
8.21386e-08
4.2737e-08
7.24009e-08
8.21367e-08
4.27368e-08
8.43994e-08
7.4248e-08
7.42461e-08
7.14017e-08
7.12215e-08
7.1395e-08
8.43994e-08
7.42471e-08
7.42459e-08
7.14007e-08
7.12221e-08
7.13936e-08
7.23991e-08
1.0091e-07
8.21352e-08
4.27353e-08
7.23989e-08
8.21332e-08
4.27358e-08
5.42906e-08
5.14892e-08
9.12151e-08
9.12155e-08
5.42895e-08
7.23994e-08
1.00911e-07
8.21346e-08
4.27356e-08
7.23995e-08
8.21333e-08
4.27356e-08
8.44046e-08
7.42523e-08
7.42534e-08
7.14045e-08
7.11998e-08
7.14051e-08
8.44049e-08
7.42532e-08
7.42533e-08
7.14056e-08
7.11984e-08
7.14065e-08
7.24393e-08
4.27472e-08
8.22382e-08