# Moment      
# CofR        : (5.000000e-01 1.000000e-01 0.000000e+00)
#
# Time        	(total_x total_y total_z)	(pressure_x pressure_y pressure_z)	(viscous_x viscous_y viscous_z)
0.0002        	(9.987271e+04 -4.776407e+05 3.696321e+05)	(9.987271e+04 -4.776408e+05 3.696321e+05)	(4.537952e-03 5.101400e-02 -4.257705e-02)
0.0004        	(-4.596769e+04 2.216324e+05 -1.710106e+05)	(-4.596768e+04 2.216324e+05 -1.710106e+05)	(-7.593304e-03 3.654001e-02 -4.468487e-02)
0.0006        	(-5.672805e+03 2.427437e+04 -1.962804e+04)	(-5.672801e+03 2.427433e+04 -1.962799e+04)	(-4.322661e-03 4.177316e-02 -4.684153e-02)
0.0008        	(2.895280e+03 -1.240909e+04 9.976398e+03)	(2.895277e+03 -1.240914e+04 9.976445e+03)	(3.045748e-03 5.203662e-02 -4.733490e-02)
0.001         	(-4.898899e+02 2.055510e+03 -1.667472e+03)	(-4.898921e+02 2.055458e+03 -1.667423e+03)	(2.126691e-03 5.240305e-02 -4.885605e-02)
0.0012        	(-1.344651e+02 4.582372e+02 -4.295432e+02)	(-1.344633e+02 4.581881e+02 -4.294921e+02)	(-1.860174e-03 4.911592e-02 -5.110834e-02)
0.0014        	(4.105194e+01 -2.215899e+02 1.313090e+02)	(4.105457e+01 -2.216396e+02 1.313619e+02)	(-2.634160e-03 4.973264e-02 -5.288353e-02)
0.0016        	(-3.095936e+01 1.121464e+02 -1.170401e+02)	(-3.095833e+01 1.120930e+02 -1.169873e+02)	(-1.026464e-03 5.342147e-02 -5.277771e-02)
0.0018        	(-5.213664e+01 4.250287e+02 -8.532600e+01)	(-5.213640e+01 4.249708e+02 -8.527930e+01)	(-2.390998e-04 5.789954e-02 -4.670091e-02)
0.002         	(-1.963379e+01 4.437904e+01 3.264230e+01)	(-1.963297e+01 4.432590e+01 3.269385e+01)	(-8.230195e-04 5.314122e-02 -5.154734e-02)
0.0022        	(-6.912425e+00 -1.545865e+02 -1.679648e+01)	(-6.910998e+00 -1.546363e+02 -1.674234e+01)	(-1.427356e-03 4.981210e-02 -5.413650e-02)
0.0024        	(-1.259005e+01 -5.122721e+01 -2.710932e+01)	(-1.258879e+01 -5.127533e+01 -2.705641e+01)	(-1.250763e-03 4.811996e-02 -5.291684e-02)
0.0026        	(-1.636965e+01 -5.008654e+01 -1.391089e+01)	(-1.636880e+01 -5.013306e+01 -1.386021e+01)	(-8.519942e-04 4.652002e-02 -5.067647e-02)
0.0028        	(-1.822197e+01 -2.996102e+01 -1.286396e+01)	(-1.822122e+01 -3.000529e+01 -1.281603e+01)	(-7.469892e-04 4.427419e-02 -4.792964e-02)
0.003         	(-2.134267e+01 -1.586038e+01 -1.661835e+01)	(-2.134184e+01 -1.590206e+01 -1.657320e+01)	(-8.269525e-04 4.167951e-02 -4.515166e-02)
0.0032        	(-2.179849e+01 -6.002199e+00 -1.949272e+01)	(-2.179768e+01 -6.041526e+00 -1.945003e+01)	(-8.106044e-04 3.932766e-02 -4.268747e-02)
0.0034        	(-2.278574e+01 -2.979058e+00 -2.274442e+01)	(-2.278506e+01 -3.016531e+00 -2.270366e+01)	(-6.842513e-04 3.747248e-02 -4.076325e-02)
0.0036        	(-2.438586e+01 3.315399e+00 -2.765116e+01)	(-2.438526e+01 3.279270e+00 -2.761153e+01)	(-5.998553e-04 3.612829e-02 -3.962999e-02)
0.0038        	(-2.614513e+01 1.601802e+01 -3.581787e+01)	(-2.614450e+01 1.598263e+01 -3.577824e+01)	(-6.294187e-04 3.538675e-02 -3.962871e-02)
0.004         	(-2.543186e+01 2.579111e+01 -4.678222e+01)	(-2.543115e+01 2.575575e+01 -4.674165e+01)	(-7.165565e-04 3.535707e-02 -4.056369e-02)
0.0042        	(-2.587653e+01 2.333877e+01 -5.940586e+01)	(-2.587573e+01 2.330281e+01 -5.936419e+01)	(-7.917315e-04 3.595655e-02 -4.167106e-02)
0.0044        	(-2.303596e+01 1.845959e+01 -6.574912e+01)	(-2.303511e+01 1.842252e+01 -6.570642e+01)	(-8.581071e-04 3.707580e-02 -4.270398e-02)
0.0046        	(-2.190680e+01 2.413112e+01 -6.876436e+01)	(-2.190585e+01 2.409252e+01 -6.872042e+01)	(-9.495861e-04 3.860102e-02 -4.394136e-02)
0.0048        	(-2.027756e+01 3.527802e+01 -7.126547e+01)	(-2.027649e+01 3.523766e+01 -7.122002e+01)	(-1.069501e-03 4.036070e-02 -4.545457e-02)
0.005         	(-1.869919e+01 3.844677e+01 -7.119963e+01)	(-1.869799e+01 3.840458e+01 -7.115247e+01)	(-1.202117e-03 4.219444e-02 -4.715267e-02)
0.0052        	(-1.738624e+01 3.572538e+01 -6.688268e+01)	(-1.738491e+01 3.568148e+01 -6.683379e+01)	(-1.327977e-03 4.389450e-02 -4.888357e-02)
0.0054        	(-1.645461e+01 3.146223e+01 -6.014299e+01)	(-1.645317e+01 3.141697e+01 -6.009260e+01)	(-1.438077e-03 4.525963e-02 -5.039011e-02)
0.0056        	(-1.666260e+01 2.597275e+01 -5.165438e+01)	(-1.666107e+01 2.592661e+01 -5.160294e+01)	(-1.525537e-03 4.613828e-02 -5.143206e-02)
0.0058        	(-1.701023e+01 2.100031e+01 -4.303763e+01)	(-1.700865e+01 2.095387e+01 -4.298578e+01)	(-1.582480e-03 4.643929e-02 -5.184638e-02)
0.006         	(-1.774408e+01 1.506367e+01 -3.383730e+01)	(-1.774248e+01 1.501755e+01 -3.378575e+01)	(-1.602190e-03 4.612065e-02 -5.154990e-02)
0.0062        	(-1.925159e+01 9.824110e+00 -2.657107e+01)	(-1.925001e+01 9.778908e+00 -2.652052e+01)	(-1.584456e-03 4.520145e-02 -5.055171e-02)
0.0064        	(-2.045177e+01 5.144779e+00 -1.994675e+01)	(-2.045023e+01 5.101018e+00 -1.989782e+01)	(-1.533466e-03 4.376082e-02 -4.893476e-02)
0.0066        	(-2.191843e+01 1.570208e+00 -1.602110e+01)	(-2.191697e+01 1.528275e+00 -1.597424e+01)	(-1.457398e-03 4.193355e-02 -4.685829e-02)
0.0068        	(-2.317756e+01 -1.416462e-01 -1.473372e+01)	(-2.317619e+01 -1.815337e-01 -1.468920e+01)	(-1.366439e-03 3.988751e-02 -4.452001e-02)
0.007         	(-2.430043e+01 -5.096984e-01 -1.597536e+01)	(-2.429915e+01 -5.474901e-01 -1.593323e+01)	(-1.272021e-03 3.779169e-02 -4.212246e-02)
0.0072        	(-2.517520e+01 9.160153e-01 -2.060199e+01)	(-2.517402e+01 8.801522e-01 -2.056207e+01)	(-1.184507e-03 3.586308e-02 -3.991841e-02)
0.0074        	(-2.460870e+01 3.922091e+00 -2.566616e+01)	(-2.460758e+01 3.887815e+00 -2.562805e+01)	(-1.118766e-03 3.427540e-02 -3.811675e-02)
0.0076        	(-2.373537e+01 8.386688e+00 -3.273484e+01)	(-2.373429e+01 8.353515e+00 -3.269795e+01)	(-1.083547e-03 3.317336e-02 -3.688720e-02)
0.0078        	(-2.324231e+01 1.336524e+01 -4.181002e+01)	(-2.324122e+01 1.333259e+01 -4.177368e+01)	(-1.084157e-03 3.264752e-02 -3.633641e-02)
0.008         	(-2.143555e+01 1.918125e+01 -4.980635e+01)	(-2.143442e+01 1.914851e+01 -4.976983e+01)	(-1.124103e-03 3.274055e-02 -3.651323e-02)
0.0082        	(-2.053322e+01 2.441756e+01 -5.787537e+01)	(-2.053201e+01 2.438413e+01 -5.783798e+01)	(-1.203378e-03 3.342796e-02 -3.738775e-02)
0.0084        	(-1.951597e+01 2.887780e+01 -6.392444e+01)	(-1.951465e+01 2.884317e+01 -6.388558e+01)	(-1.315973e-03 3.462794e-02 -3.886174e-02)
0.0086        	(-1.861483e+01 3.203713e+01 -6.728764e+01)	(-1.861338e+01 3.200093e+01 -6.724687e+01)	(-1.452140e-03 3.620161e-02 -4.077014e-02)
0.0088        	(-1.869760e+01 3.383244e+01 -6.836129e+01)	(-1.869600e+01 3.379446e+01 -6.831838e+01)	(-1.598338e-03 3.797059e-02 -4.290291e-02)
0.009         	(-1.815793e+01 3.415533e+01 -6.658637e+01)	(-1.815619e+01 3.411557e+01 -6.654132e+01)	(-1.742640e-03 3.975738e-02 -4.505255e-02)
0.0092        	(-1.744548e+01 3.283680e+01 -6.028847e+01)	(-1.744361e+01 3.279545e+01 -6.024150e+01)	(-1.873449e-03 4.134939e-02 -4.697476e-02)
0.0094        	(-1.801992e+01 2.981737e+01 -5.381621e+01)	(-1.801794e+01 2.977479e+01 -5.376773e+01)	(-1.977448e-03 4.258335e-02 -4.847259e-02)
0.0096        	(-1.866487e+01 2.551772e+01 -4.596715e+01)	(-1.866283e+01 2.547439e+01 -4.591775e+01)	(-2.049688e-03 4.333028e-02 -4.939765e-02)
0.0098        	(-1.899594e+01 2.040506e+01 -3.618538e+01)	(-1.899385e+01 2.036155e+01 -3.613573e+01)	(-2.083168e-03 4.350472e-02 -4.964770e-02)
0.01          	(-2.006889e+01 1.485245e+01 -2.824897e+01)	(-2.006681e+01 1.480936e+01 -2.819976e+01)	(-2.079036e-03 4.308842e-02 -4.920729e-02)
0.0102        	(-2.051287e+01 9.714436e+00 -2.045551e+01)	(-2.051083e+01 9.672321e+00 -2.040739e+01)	(-2.039961e-03 4.211504e-02 -4.811757e-02)
0.0104        	(-2.119501e+01 5.495178e+00 -1.498582e+01)	(-2.119304e+01 5.454496e+00 -1.493933e+01)	(-1.973843e-03 4.068222e-02 -4.649523e-02)
0.0106        	(-2.085422e+01 2.645136e+00 -1.107934e+01)	(-2.085233e+01 2.606209e+00 -1.103484e+01)	(-1.890185e-03 3.892705e-02 -4.450139e-02)
0.0108        	(-2.147175e+01 1.081216e+00 -1.227298e+01)	(-2.146995e+01 1.044197e+00 -1.223064e+01)	(-1.801055e-03 3.701843e-02 -4.233682e-02)
0.011         	(-1.992213e+01 1.256332e+00 -1.283282e+01)	(-1.992042e+01 1.221205e+00 -1.279262e+01)	(-1.716377e-03 3.512724e-02 -4.020285e-02)
0.0112        	(-1.984431e+01 2.705712e+00 -1.869552e+01)	(-1.984266e+01 2.672273e+00 -1.865720e+01)	(-1.648731e-03 3.343923e-02 -3.831611e-02)
0.0114        	(-1.900408e+01 5.731384e+00 -2.557170e+01)	(-1.900247e+01 5.699265e+00 -2.553484e+01)	(-1.607062e-03 3.211914e-02 -3.686671e-02)
0.0116        	(-1.811200e+01 9.901268e+00 -3.364616e+01)	(-1.811040e+01 9.869988e+00 -3.361017e+01)	(-1.596860e-03 3.128023e-02 -3.598465e-02)
0.0118        	(-1.798637e+01 1.533028e+01 -4.149179e+01)	(-1.798474e+01 1.529928e+01 -4.145604e+01)	(-1.621258e-03 3.100035e-02 -3.575693e-02)
0.012         	(-1.738792e+01 2.022569e+01 -5.037887e+01)	(-1.738624e+01 2.019439e+01 -5.034267e+01)	(-1.680076e-03 3.129984e-02 -3.620315e-02)
0.0122        	(-1.731605e+01 2.503714e+01 -5.730636e+01)	(-1.731429e+01 2.500500e+01 -5.726909e+01)	(-1.769374e-03 3.213616e-02 -3.726895e-02)
0.0124        	(-1.726576e+01 2.916854e+01 -6.143536e+01)	(-1.726388e+01 2.913512e+01 -6.139652e+01)	(-1.880260e-03 3.341291e-02 -3.883545e-02)
0.0126        	(-1.888466e+01 3.164113e+01 -6.531346e+01)	(-1.888266e+01 3.160614e+01 -6.527272e+01)	(-2.003072e-03 3.498788e-02 -4.073583e-02)
0.0128        	(-1.858028e+01 3.293690e+01 -6.378018e+01)	(-1.857816e+01 3.290022e+01 -6.373741e+01)	(-2.126236e-03 3.668591e-02 -4.276572e-02)
0.013         	(-1.828506e+01 3.270552e+01 -6.022046e+01)	(-1.828281e+01 3.266719e+01 -6.017573e+01)	(-2.242921e-03 3.833028e-02 -4.472474e-02)
0.0132        	(-1.764000e+01 3.089953e+01 -5.351000e+01)	(-1.763766e+01 3.085979e+01 -5.346360e+01)	(-2.340308e-03 3.973783e-02 -4.639764e-02)
0.0134        	(-1.837434e+01 2.756651e+01 -4.762808e+01)	(-1.837193e+01 2.752575e+01 -4.758045e+01)	(-2.411593e-03 4.076690e-02 -4.762358e-02)
0.0136        	(-1.734321e+01 2.329160e+01 -3.780901e+01)	(-1.734076e+01 2.325029e+01 -3.776073e+01)	(-2.451974e-03 4.130371e-02 -4.827426e-02)
0.0138        	(-1.681293e+01 1.810061e+01 -2.881117e+01)	(-1.681047e+01 1.805931e+01 -2.876288e+01)	(-2.459709e-03 4.129467e-02 -4.829046e-02)
0.014         	(-1.609940e+01 1.297171e+01 -2.004374e+01)	(-1.609696e+01 1.293098e+01 -1.999607e+01)	(-2.437232e-03 4.073592e-02 -4.767227e-02)
0.0142        	(-1.510039e+01 8.480642e+00 -1.254011e+01)	(-1.509800e+01 8.440960e+00 -1.249363e+01)	(-2.388887e-03 3.968190e-02 -4.648565e-02)
0.0144        	(-1.474186e+01 4.900377e+00 -7.683015e+00)	(-1.473953e+01 4.862147e+00 -7.638169e+00)	(-2.322992e-03 3.822973e-02 -4.484595e-02)
0.0146        	(-1.400921e+01 2.660835e+00 -5.202592e+00)	(-1.400696e+01 2.624314e+00 -5.159673e+00)	(-2.248061e-03 3.652032e-02 -4.291900e-02)
0.0148        	(-1.325357e+01 1.937735e+00 -5.620500e+00)	(-1.325140e+01 1.903005e+00 -5.579592e+00)	(-2.172824e-03 3.473024e-02 -4.090795e-02)
0.015         	(-1.385974e+01 2.461928e+00 -9.692222e+00)	(-1.385763e+01 2.428911e+00 -9.653227e+00)	(-2.106075e-03 3.301698e-02 -3.899445e-02)
0.0152        	(-1.366426e+01 4.541064e+00 -1.478324e+01)	(-1.366220e+01 4.509516e+00 -1.474587e+01)	(-2.055756e-03 3.154749e-02 -3.736795e-02)
0.0154        	(-1.449476e+01 7.765399e+00 -2.265888e+01)	(-1.449273e+01 7.734937e+00 -2.262270e+01)	(-2.028402e-03 3.046209e-02 -3.618763e-02)
0.0156        	(-1.552282e+01 1.187905e+01 -3.130193e+01)	(-1.552079e+01 1.184919e+01 -3.126637e+01)	(-2.026083e-03 2.985723e-02 -3.555969e-02)
0.0158        	(-1.632313e+01 1.665676e+01 -4.034977e+01)	(-1.632108e+01 1.662698e+01 -4.031423e+01)	(-2.049791e-03 2.978592e-02 -3.554222e-02)
0.016         	(-1.692856e+01 2.184919e+01 -4.778043e+01)	(-1.692646e+01 2.181894e+01 -4.774428e+01)	(-2.100686e-03 3.025322e-02 -3.614133e-02)
0.0162        	(-1.766061e+01 2.600724e+01 -5.451229e+01)	(-1.765844e+01 2.597604e+01 -5.447501e+01)	(-2.176034e-03 3.119830e-02 -3.728608e-02)
0.0164        	(-1.701999e+01 2.921921e+01 -5.729549e+01)	(-1.701773e+01 2.918670e+01 -5.725664e+01)	(-2.267731e-03 3.251463e-02 -3.884977e-02)
0.0166        	(-1.779785e+01 3.093873e+01 -5.979135e+01)	(-1.779548e+01 3.090467e+01 -5.975068e+01)	(-2.369465e-03 3.405542e-02 -4.066738e-02)
0.0168        	(-1.730128e+01 3.148900e+01 -5.858448e+01)	(-1.729881e+01 3.145334e+01 -5.854193e+01)	(-2.470672e-03 3.565709e-02 -4.254662e-02)
0.017         	(-1.589471e+01 3.063424e+01 -5.430356e+01)	(-1.589215e+01 3.059710e+01 -5.425926e+01)	(-2.564547e-03 3.714887e-02 -4.429710e-02)
0.0172        	(-1.591750e+01 2.847959e+01 -4.933936e+01)	(-1.591486e+01 2.844122e+01 -4.929362e+01)	(-2.642519e-03 3.837159e-02 -4.573703e-02)
0.0174        	(-1.388518e+01 2.510231e+01 -4.038703e+01)	(-1.388249e+01 2.506312e+01 -4.034031e+01)	(-2.697490e-03 3.919775e-02 -4.671869e-02)
0.0176        	(-1.213075e+01 2.103491e+01 -3.057872e+01)	(-1.212802e+01 2.099537e+01 -3.053158e+01)	(-2.727837e-03 3.954218e-02 -4.714730e-02)
0.0178        	(-1.135172e+01 1.615207e+01 -2.251899e+01)	(-1.134898e+01 1.611271e+01 -2.247201e+01)	(-2.732306e-03 3.936710e-02 -4.698084e-02)
0.018         	(-1.051701e+01 1.166806e+01 -1.382748e+01)	(-1.051430e+01 1.162937e+01 -1.378124e+01)	(-2.711003e-03 3.868720e-02 -4.623527e-02)
0.0182        	(-9.961421e+00 7.737361e+00 -7.346604e+00)	(-9.958753e+00 7.699793e+00 -7.301617e+00)	(-2.667670e-03 3.756854e-02 -4.498660e-02)
0.0184        	(-1.007283e+01 4.947183e+00 -3.556913e+00)	(-1.007022e+01 4.911061e+00 -3.513550e+00)	(-2.608720e-03 3.612193e-02 -4.336307e-02)
0.0186        	(-1.033574e+01 3.519768e+00 -2.006437e+00)	(-1.033320e+01 3.485276e+00 -1.964909e+00)	(-2.540475e-03 3.449129e-02 -4.152767e-02)
0.0188        	(-1.103590e+01 3.183667e+00 -2.960847e+00)	(-1.103344e+01 3.150845e+00 -2.921201e+00)	(-2.468695e-03 3.282251e-02 -3.964599e-02)
0.019         	(-1.244815e+01 4.428561e+00 -6.438162e+00)	(-1.244574e+01 4.397284e+00 -6.400261e+00)	(-2.402328e-03 3.127690e-02 -3.790129e-02)
0.0192        	(-1.376941e+01 6.717359e+00 -1.301808e+01)	(-1.376706e+01 6.687351e+00 -1.298161e+01)	(-2.349796e-03 3.000789e-02 -3.647179e-02)
0.0194        	(-1.474179e+01 1.005864e+01 -2.080339e+01)	(-1.473947e+01 1.002950e+01 -2.076790e+01)	(-2.316258e-03 2.913294e-02 -3.549354e-02)
0.0196        	(-1.567615e+01 1.421100e+01 -2.951640e+01)	(-1.567385e+01 1.418227e+01 -2.948134e+01)	(-2.306333e-03 2.873389e-02 -3.506275e-02)
0.0198        	(-1.647738e+01 1.857005e+01 -3.838558e+01)	(-1.647506e+01 1.854120e+01 -3.835036e+01)	(-2.324084e-03 2.884434e-02 -3.521998e-02)
0.02          	(-1.601452e+01 2.276497e+01 -4.543320e+01)	(-1.601215e+01 2.273553e+01 -4.539726e+01)	(-2.369526e-03 2.944448e-02 -3.594309e-02)
0.0202        	(-1.621413e+01 2.627644e+01 -5.210504e+01)	(-1.621169e+01 2.624597e+01 -5.206788e+01)	(-2.440417e-03 3.046519e-02 -3.715492e-02)
0.0204        	(-1.555023e+01 2.861443e+01 -5.564292e+01)	(-1.554770e+01 2.858264e+01 -5.560420e+01)	(-2.530176e-03 3.178798e-02 -3.872126e-02)
0.0206        	(-1.395930e+01 3.014517e+01 -5.492102e+01)	(-1.395667e+01 3.011190e+01 -5.488055e+01)	(-2.629822e-03 3.327240e-02 -4.047490e-02)
0.0208        	(-1.373006e+01 3.008067e+01 -5.487443e+01)	(-1.372733e+01 3.004590e+01 -5.483219e+01)	(-2.732008e-03 3.476576e-02 -4.224325e-02)
0.021         	(-1.252374e+01 2.888332e+01 -5.073277e+01)	(-1.252091e+01 2.884721e+01 -5.068893e+01)	(-2.825503e-03 3.610844e-02 -4.384083e-02)
0.0212        	(-1.109324e+01 2.656632e+01 -4.351661e+01)	(-1.109033e+01 2.652917e+01 -4.347152e+01)	(-2.902172e-03 3.715243e-02 -4.509479e-02)
0.0214        	(-1.119606e+01 2.288475e+01 -3.691427e+01)	(-1.119311e+01 2.284695e+01 -3.686839e+01)	(-2.955828e-03 3.779235e-02 -4.588022e-02)
0.0216        	(-1.151991e+01 1.863308e+01 -2.953083e+01)	(-1.151693e+01 1.859513e+01 -2.948472e+01)	(-2.983216e-03 3.795920e-02 -4.611564e-02)
0.0218        	(-1.080372e+01 1.449945e+01 -2.006756e+01)	(-1.080074e+01 1.446181e+01 -2.002178e+01)	(-2.981398e-03 3.763492e-02 -4.577820e-02)
0.022         	(-1.137143e+01 1.036178e+01 -1.319866e+01)	(-1.136848e+01 1.032493e+01 -1.315376e+01)	(-2.951150e-03 3.685098e-02 -4.490379e-02)
0.0222        	(-1.170104e+01 7.198353e+00 -6.986410e+00)	(-1.169814e+01 7.162669e+00 -6.942826e+00)	(-2.897614e-03 3.568486e-02 -4.358367e-02)
0.0224        	(-1.203371e+01 5.202542e+00 -2.885706e+00)	(-1.203089e+01 5.168291e+00 -2.843757e+00)	(-2.827300e-03 3.425135e-02 -4.194960e-02)
0.0226        	(-1.238284e+01 4.464646e+00 -1.230411e+00)	(-1.238009e+01 4.431955e+00 -1.190246e+00)	(-2.749002e-03 3.269117e-02 -4.016551e-02)
0.0228        	(-1.376608e+01 4.444277e+00 -4.035539e+00)	(-1.376340e+01 4.413134e+00 -3.997145e+00)	(-2.671463e-03 3.114248e-02 -3.839445e-02)
0.023         	(-1.418113e+01 5.873934e+00 -8.172746e+00)	(-1.417852e+01 5.844172e+00 -8.135928e+00)	(-2.603962e-03 2.976202e-02 -3.681837e-02)
0.0232        	(-1.467779e+01 8.380686e+00 -1.479557e+01)	(-1.467523e+01 8.352002e+00 -1.475998e+01)	(-2.554197e-03 2.868427e-02 -3.559440e-02)
0.0234        	(-1.478498e+01 1.169052e+01 -2.269687e+01)	(-1.478245e+01 1.166251e+01 -2.266203e+01)	(-2.528871e-03 2.800780e-02 -3.484080e-02)
0.0236        	(-1.475808e+01 1.562609e+01 -3.102779e+01)	(-1.475555e+01 1.559829e+01 -3.099316e+01)	(-2.531769e-03 2.779410e-02 -3.462897e-02)
0.0238        	(-1.478447e+01 1.967400e+01 -3.978513e+01)	(-1.478191e+01 1.964594e+01 -3.975015e+01)	(-2.564166e-03 2.806119e-02 -3.497925e-02)
0.024         	(-1.445687e+01 2.335523e+01 -4.660862e+01)	(-1.445425e+01 2.332646e+01 -4.657277e+01)	(-2.625359e-03 2.877257e-02 -3.585070e-02)
0.0242        	(-1.490753e+01 2.630456e+01 -5.240504e+01)	(-1.490482e+01 2.627472e+01 -5.236790e+01)	(-2.707836e-03 2.984540e-02 -3.714180e-02)
0.0244        	(-1.459155e+01 2.831788e+01 -5.544650e+01)	(-1.458874e+01 2.828672e+01 -5.540778e+01)	(-2.805064e-03 3.116575e-02 -3.872125e-02)
0.0246        	(-1.437779e+01 2.871347e+01 -5.654899e+01)	(-1.437488e+01 2.868090e+01 -5.650858e+01)	(-2.908812e-03 3.257552e-02 -4.040753e-02)
0.0248        	(-1.405595e+01 2.875665e+01 -5.444125e+01)	(-1.405294e+01 2.872270e+01 -5.439920e+01)	(-3.008187e-03 3.395378e-02 -4.205317e-02)
0.025         	(-1.462271e+01 2.684096e+01 -5.112409e+01)	(-1.461961e+01 2.680582e+01 -5.108062e+01)	(-3.093468e-03 3.513675e-02 -4.346783e-02)
0.0252        	(-1.464089e+01 2.419573e+01 -4.484719e+01)	(-1.463773e+01 2.415973e+01 -4.480269e+01)	(-3.157577e-03 3.599900e-02 -4.450521e-02)
0.0254        	(-1.490465e+01 2.068997e+01 -3.757358e+01)	(-1.490145e+01 2.065351e+01 -3.752851e+01)	(-3.196046e-03 3.645766e-02 -4.506877e-02)
0.0256        	(-1.519565e+01 1.677927e+01 -2.948386e+01)	(-1.519244e+01 1.674281e+01 -2.943876e+01)	(-3.206328e-03 3.646330e-02 -4.510061e-02)
0.0258        	(-1.447733e+01 1.250834e+01 -2.175436e+01)	(-1.447414e+01 1.247233e+01 -2.170977e+01)	(-3.186846e-03 3.600922e-02 -4.459365e-02)
0.026         	(-1.560115e+01 9.428876e+00 -1.470153e+01)	(-1.559801e+01 9.393734e+00 -1.465792e+01)	(-3.143592e-03 3.514174e-02 -4.360555e-02)
0.0262        	(-1.494947e+01 6.679399e+00 -9.250113e+00)	(-1.494639e+01 6.645450e+00 -9.207873e+00)	(-3.081433e-03 3.394899e-02 -4.223980e-02)
0.0264        	(-1.524731e+01 4.912121e+00 -6.981432e+00)	(-1.524430e+01 4.879577e+00 -6.940801e+00)	(-3.009566e-03 3.254409e-02 -4.063159e-02)
0.0266        	(-1.435094e+01 4.543653e+00 -6.097044e+00)	(-1.434800e+01 4.512581e+00 -6.058090e+00)	(-2.938294e-03 3.107200e-02 -3.895361e-02)
0.0268        	(-1.448967e+01 5.118074e+00 -8.212754e+00)	(-1.448679e+01 5.088414e+00 -8.175404e+00)	(-2.872950e-03 2.966029e-02 -3.734979e-02)
0.027         	(-1.434550e+01 6.911413e+00 -1.248061e+01)	(-1.434268e+01 6.882963e+00 -1.244462e+01)	(-2.822318e-03 2.845022e-02 -3.598639e-02)
0.0272        	(-1.451742e+01 9.616514e+00 -1.896367e+01)	(-1.451462e+01 9.588958e+00 -1.892867e+01)	(-2.793016e-03 2.755679e-02 -3.499708e-02)
0.0274        	(-1.491995e+01 1.301404e+01 -2.687248e+01)	(-1.491716e+01 1.298698e+01 -2.683801e+01)	(-2.788338e-03 2.706311e-02 -3.447593e-02)
0.0276        	(-1.534434e+01 1.680666e+01 -3.522766e+01)	(-1.534153e+01 1.677964e+01 -3.519319e+01)	(-2.810101e-03 2.701390e-02 -3.447280e-02)
0.0278        	(-1.576087e+01 2.055918e+01 -4.286497e+01)	(-1.575801e+01 2.053177e+01 -4.282999e+01)	(-2.856862e-03 2.740900e-02 -3.498377e-02)
0.028         	(-1.667974e+01 2.368317e+01 -5.014195e+01)	(-1.667681e+01 2.365497e+01 -5.010599e+01)	(-2.926254e-03 2.819935e-02 -3.595207e-02)
0.0282        	(-1.697362e+01 2.618549e+01 -5.450739e+01)	(-1.697060e+01 2.615619e+01 -5.447012e+01)	(-3.011268e-03 2.930072e-02 -3.727786e-02)
0.0284        	(-1.769079e+01 2.759983e+01 -5.725305e+01)	(-1.768769e+01 2.756924e+01 -5.721423e+01)	(-3.104666e-03 3.059201e-02 -3.881862e-02)
0.0286        	(-1.903052e+01 2.768301e+01 -5.893203e+01)	(-1.902732e+01 2.765108e+01 -5.889162e+01)	(-3.197457e-03 3.192864e-02 -4.040558e-02)
0.0288        	(-1.886114e+01 2.693557e+01 -5.620318e+01)	(-1.885786e+01 2.690240e+01 -5.616130e+01)	(-3.282037e-03 3.317209e-02 -4.187743e-02)
0.029         	(-1.963995e+01 2.490674e+01 -5.322152e+01)	(-1.963660e+01 2.487255e+01 -5.317843e+01)	(-3.350184e-03 3.419122e-02 -4.308413e-02)
0.0292        	(-1.938823e+01 2.200869e+01 -4.696861e+01)	(-1.938484e+01 2.197381e+01 -4.692471e+01)	(-3.396802e-03 3.487879e-02 -4.390301e-02)
0.0294        	(-1.911165e+01 1.853874e+01 -4.009225e+01)	(-1.910823e+01 1.850357e+01 -4.004799e+01)	(-3.419826e-03 3.516867e-02 -4.425956e-02)
0.0296        	(-1.859177e+01 1.468281e+01 -3.251429e+01)	(-1.858835e+01 1.464778e+01 -3.247018e+01)	(-3.418851e-03 3.502659e-02 -4.411603e-02)
0.0298        	(-1.796378e+01 1.092996e+01 -2.532322e+01)	(-1.796039e+01 1.089550e+01 -2.527973e+01)	(-3.395491e-03 3.446415e-02 -4.348764e-02)
0.03          	(-1.714758e+01 7.959320e+00 -1.886309e+01)	(-1.714422e+01 7.925782e+00 -1.882065e+01)	(-3.353719e-03 3.353733e-02 -4.244130e-02)
0.0302        	(-1.606229e+01 5.853742e+00 -1.354537e+01)	(-1.605899e+01 5.821402e+00 -1.350428e+01)	(-3.299237e-03 3.233964e-02 -4.108572e-02)
0.0304        	(-1.542673e+01 4.838389e+00 -1.106525e+01)	(-1.542349e+01 4.807399e+00 -1.102569e+01)	(-3.239790e-03 3.099030e-02 -3.956064e-02)
0.0306        	(-1.563369e+01 4.642272e+00 -1.195450e+01)	(-1.563050e+01 4.612666e+00 -1.191649e+01)	(-3.183623e-03 2.960643e-02 -3.800560e-02)
0.0308        	(-1.543691e+01 6.022669e+00 -1.359426e+01)	(-1.543377e+01 5.994333e+00 -1.355768e+01)	(-3.134918e-03 2.833564e-02 -3.658299e-02)
0.031         	(-1.555971e+01 8.081533e+00 -1.764847e+01)	(-1.555661e+01 8.054239e+00 -1.761305e+01)	(-3.100406e-03 2.729384e-02 -3.542640e-02)
0.0312        	(-1.642960e+01 1.076006e+01 -2.412949e+01)	(-1.642652e+01 1.073348e+01 -2.409484e+01)	(-3.084490e-03 2.658025e-02 -3.464955e-02)
0.0314        	(-1.703311e+01 1.424900e+01 -3.103978e+01)	(-1.703002e+01 1.422274e+01 -3.100546e+01)	(-3.089386e-03 2.626131e-02 -3.432799e-02)
0.0316        	(-1.817413e+01 1.791315e+01 -3.852779e+01)	(-1.817102e+01 1.788679e+01 -3.849330e+01)	(-3.115995e-03 2.636328e-02 -3.449011e-02)
0.0318        	(-1.907361e+01 2.137189e+01 -4.549463e+01)	(-1.907044e+01 2.134502e+01 -4.545951e+01)	(-3.163368e-03 2.687043e-02 -3.511638e-02)
0.032         	(-2.003820e+01 2.414427e+01 -5.153580e+01)	(-2.003497e+01 2.411655e+01 -5.149966e+01)	(-3.227964e-03 2.772269e-02 -3.613725e-02)
0.0322        	(-2.036550e+01 2.613917e+01 -5.512846e+01)	(-2.036219e+01 2.611034e+01 -5.509102e+01)	(-3.304689e-03 2.882648e-02 -3.744505e-02)
0.0324        	(-2.118517e+01 2.675494e+01 -5.829631e+01)	(-2.118178e+01 2.672489e+01 -5.825740e+01)	(-3.387610e-03 3.005894e-02 -3.890029e-02)
0.0326        	(-2.118402e+01 2.660419e+01 -5.843321e+01)	(-2.118055e+01 2.657289e+01 -5.839284e+01)	(-3.469805e-03 3.129772e-02 -4.036136e-02)
0.0328        	(-2.136757e+01 2.533544e+01 -5.631267e+01)	(-2.136403e+01 2.530304e+01 -5.627100e+01)	(-3.541635e-03 3.240608e-02 -4.166818e-02)
0.033         	(-2.117399e+01 2.303376e+01 -5.291452e+01)	(-2.117039e+01 2.300049e+01 -5.287183e+01)	(-3.600524e-03 3.327024e-02 -4.269660e-02)
0.0332        	(-1.967587e+01 1.988929e+01 -4.629718e+01)	(-1.967223e+01 1.985550e+01 -4.625384e+01)	(-3.640381e-03 3.379603e-02 -4.333440e-02)
0.0334        	(-1.938080e+01 1.634467e+01 -4.060113e+01)	(-1.937714e+01 1.631074e+01 -4.055760e+01)	(-3.661067e-03 3.393169e-02 -4.352555e-02)
0.0336        	(-1.857083e+01 1.278966e+01 -3.344678e+01)	(-1.856717e+01 1.275600e+01 -3.340353e+01)	(-3.660727e-03 3.366280e-02 -4.325224e-02)
0.0338        	(-1.760416e+01 9.542168e+00 -2.670145e+01)	(-1.760052e+01 9.509156e+00 -2.665891e+01)	(-3.641268e-03 3.301160e-02 -4.254037e-02)
0.034         	(-1.688355e+01 7.057853e+00 -2.074233e+01)	(-1.687994e+01 7.025809e+00 -2.070087e+01)	(-3.605457e-03 3.204361e-02 -4.146488e-02)
0.0342        	(-1.625324e+01 5.580962e+00 -1.593272e+01)	(-1.624968e+01 5.550109e+00 -1.589259e+01)	(-3.558213e-03 3.085359e-02 -4.013363e-02)
0.0344        	(-1.779659e+01 4.987143e+00 -1.612853e+01)	(-1.779308e+01 4.957577e+00 -1.608984e+01)	(-3.506042e-03 2.956573e-02 -3.868754e-02)
0.0346        	(-1.734325e+01 5.376079e+00 -1.500325e+01)	(-1.733979e+01 5.347790e+00 -1.496600e+01)	(-3.452264e-03 2.828880e-02 -3.724902e-02)
0.0348        	(-1.903225e+01 6.726575e+00 -1.928470e+01)	(-1.902884e+01 6.699420e+00 -1.924872e+01)	(-3.405541e-03 2.715460e-02 -3.597116e-02)
0.035         	(-1.887809e+01 9.093655e+00 -2.231443e+01)	(-1.887472e+01 9.067385e+00 -2.227946e+01)	(-3.371157e-03 2.627065e-02 -3.497851e-02)
0.0352        	(-1.888593e+01 1.212579e+01 -2.706109e+01)	(-1.888258e+01 1.210007e+01 -2.702673e+01)	(-3.354007e-03 2.571933e-02 -3.436801e-02)
0.0354        	(-1.994403e+01 1.554843e+01 -3.440366e+01)	(-1.994067e+01 1.552288e+01 -3.436946e+01)	(-3.357234e-03 2.555246e-02 -3.420183e-02)
0.0356        	(-1.955885e+01 1.902007e+01 -4.008703e+01)	(-1.955547e+01 1.899428e+01 -4.005253e+01)	(-3.382640e-03 2.578457e-02 -3.449768e-02)
0.0358        	(-1.960272e+01 2.211026e+01 -4.554457e+01)	(-1.959929e+01 2.208388e+01 -4.550936e+01)	(-3.429943e-03 2.638093e-02 -3.521635e-02)
0.036         	(-1.956692e+01 2.436891e+01 -5.027832e+01)	(-1.956342e+01 2.434164e+01 -5.024204e+01)	(-3.494922e-03 2.727314e-02 -3.627859e-02)
0.0362        	(-1.952657e+01 2.569753e+01 -5.374465e+01)	(-1.952300e+01 2.566916e+01 -5.370707e+01)	(-3.571977e-03 2.836533e-02 -3.757481e-02)
0.0364        	(-1.888713e+01 2.611682e+01 -5.474872e+01)	(-1.888348e+01 2.608728e+01 -5.470975e+01)	(-3.653590e-03 2.954015e-02 -3.896890e-02)
0.0366        	(-1.941387e+01 2.541801e+01 -5.587958e+01)	(-1.941013e+01 2.538733e+01 -5.583925e+01)	(-3.734937e-03 3.068004e-02 -4.032662e-02)
0.0368        	(-1.838646e+01 2.386496e+01 -5.234290e+01)	(-1.838266e+01 2.383330e+01 -5.230141e+01)	(-3.806384e-03 3.165628e-02 -4.149666e-02)
0.037         	(-1.835632e+01 2.135768e+01 -4.856197e+01)	(-1.835245e+01 2.132531e+01 -4.851961e+01)	(-3.863052e-03 3.236641e-02 -4.236038e-02)
0.0372        	(-1.798427e+01 1.839871e+01 -4.285331e+01)	(-1.798037e+01 1.836597e+01 -4.281047e+01)	(-3.900593e-03 3.273974e-02 -4.283389e-02)
0.0374        	(-1.787425e+01 1.510568e+01 -3.653864e+01)	(-1.787033e+01 1.507294e+01 -3.649578e+01)	(-3.915610e-03 3.273660e-02 -4.286842e-02)
0.0376        	(-1.771522e+01 1.187373e+01 -2.989399e+01)	(-1.771132e+01 1.184137e+01 -2.985153e+01)	(-3.907578e-03 3.235641e-02 -4.246253e-02)
0.0378        	(-1.793241e+01 8.898240e+00 -2.444885e+01)	(-1.792853e+01 8.866606e+00 -2.440719e+01)	(-3.878685e-03 3.163441e-02 -4.165737e-02)
0.038         	(-1.739238e+01 6.836741e+00 -1.900476e+01)	(-1.738855e+01 6.806099e+00 -1.896423e+01)	(-3.833580e-03 3.064253e-02 -4.053717e-02)
0.0382        	(-1.833634e+01 5.506332e+00 -1.714255e+01)	(-1.833256e+01 5.476853e+00 -1.710333e+01)	(-3.777171e-03 2.947943e-02 -3.921394e-02)
0.0384        	(-1.816052e+01 5.417950e+00 -1.547530e+01)	(-1.815680e+01 5.389689e+00 -1.543748e+01)	(-3.715479e-03 2.826101e-02 -3.782154e-02)
0.0386        	(-1.802647e+01 6.056990e+00 -1.617777e+01)	(-1.802281e+01 6.029895e+00 -1.614128e+01)	(-3.657380e-03 2.709449e-02 -3.648927e-02)
0.0388        	(-1.751304e+01 7.876609e+00 -1.840376e+01)	(-1.750943e+01 7.850509e+00 -1.836840e+01)	(-3.610465e-03 2.609913e-02 -3.535711e-02)
0.039         	(-1.720499e+01 1.033852e+01 -2.208032e+01)	(-1.720141e+01 1.031315e+01 -2.204579e+01)	(-3.579445e-03 2.536949e-02 -3.453455e-02)
0.0392        	(-1.686000e+01 1.344785e+01 -2.675343e+01)	(-1.685643e+01 1.342288e+01 -2.671932e+01)	(-3.568951e-03 2.497258e-02 -3.410110e-02)
0.0394        	(-1.629228e+01 1.675532e+01 -3.189322e+01)	(-1.628870e+01 1.673038e+01 -3.185912e+01)	(-3.580873e-03 2.494342e-02 -3.409744e-02)
0.0396        	(-1.583411e+01 1.992768e+01 -3.749015e+01)	(-1.583050e+01 1.990240e+01 -3.745563e+01)	(-3.615257e-03 2.528082e-02 -3.452167e-02)
0.0398        	(-1.566233e+01 2.253779e+01 -4.251808e+01)	(-1.565866e+01 2.251185e+01 -4.248275e+01)	(-3.669741e-03 2.594436e-02 -3.532629e-02)
0.04          	(-1.564538e+01 2.437727e+01 -4.650113e+01)	(-1.564164e+01 2.435041e+01 -4.646471e+01)	(-3.739317e-03 2.685893e-02 -3.642347e-02)
0.0402        	(-1.594874e+01 2.532120e+01 -4.936650e+01)	(-1.594493e+01 2.529328e+01 -4.932881e+01)	(-3.817132e-03 2.792648e-02 -3.769799e-02)
0.0404        	(-1.565417e+01 2.548129e+01 -4.924141e+01)	(-1.565027e+01 2.545226e+01 -4.920240e+01)	(-3.895108e-03 2.903225e-02 -3.901375e-02)
0.0406        	(-1.622208e+01 2.448094e+01 -4.895974e+01)	(-1.621811e+01 2.445088e+01 -4.891951e+01)	(-3.967351e-03 3.005724e-02 -4.023501e-02)
0.0408        	(-1.614618e+01 2.290127e+01 -4.548796e+01)	(-1.614215e+01 2.287038e+01 -4.544672e+01)	(-4.026580e-03 3.089691e-02 -4.123783e-02)
0.041         	(-1.635725e+01 2.036482e+01 -4.112817e+01)	(-1.635318e+01 2.033336e+01 -4.108625e+01)	(-4.067912e-03 3.145991e-02 -4.191611e-02)
0.0412        	(-1.646595e+01 1.743904e+01 -3.563189e+01)	(-1.646187e+01 1.740735e+01 -3.558969e+01)	(-4.087818e-03 3.169166e-02 -4.220562e-02)
0.0414        	(-1.650977e+01 1.422448e+01 -2.984106e+01)	(-1.650568e+01 1.419292e+01 -2.979898e+01)	(-4.085410e-03 3.156543e-02 -4.207685e-02)