/*--------------------------------*- C++ -*----------------------------------*\
| =========                 |                                                 |
| \\      /  F ield         | OpenFOAM: The Open Source CFD Toolbox           |
|  \\    /   O peration     | Version:  2012                                  |
|   \\  /    A nd           | Website:  www.openfoam.com                      |
|    \\/     M anipulation  |                                                 |
\*---------------------------------------------------------------------------*/
FoamFile
{
    version     2.0;
    format      ascii;
    class       volVectorField;
    location    "0.104/solid";
    object      D;
}
// * * * * * * * * * * * * * * * * * * * * * * * * * * * * * * * * * * * * * //

dimensions      [0 1 0 0 0 0 0];


internalField   nonuniform List<vector> 
3124
(
(1.98124e-11 5.35645e-11 4.01181e-11)
(-2.31195e-13 -3.5926e-14 -1.35164e-12)
(3.25607e-12 -2.86012e-13 2.05482e-11)
(7.4634e-11 2.27806e-10 -4.43609e-12)
(1.53261e-12 8.06365e-13 3.661e-11)
(-4.30511e-14 -6.15966e-14 -2.23474e-12)
(4.23127e-12 -3.95012e-13 2.0753e-11)
(7.682e-11 2.31719e-10 -3.93559e-12)
(1.52601e-12 4.24702e-13 3.7224e-11)
(-4.70786e-13 8.27678e-12 1.77277e-11)
(1.34993e-11 3.71627e-11 4.93855e-11)
(9.0375e-11 2.22826e-10 3.23464e-11)
(-5.93948e-13 -9.87127e-12 3.11801e-11)
(5.06702e-13 -3.89241e-13 1.51709e-11)
(-5.04347e-12 6.8907e-12 1.50198e-11)
(4.20763e-12 -6.18231e-12 3.02168e-11)
(1.4167e-12 1.80861e-11 4.79852e-11)
(3.44426e-12 -6.32138e-12 2.4276e-11)
(8.67931e-12 -4.28301e-12 2.53827e-11)
(8.80642e-11 2.29284e-10 1.72326e-11)
(-1.57406e-12 -5.99764e-13 2.93697e-11)
(-1.7368e-12 -5.06651e-13 2.92042e-11)
(4.60863e-13 -3.66033e-13 1.50856e-11)
(4.48532e-10 4.79112e-10 3.64405e-11)
(2.99407e-11 4.02477e-11 3.44566e-11)
(2.28888e-11 6.17534e-11 3.69542e-11)
(6.2689e-11 1.46205e-10 9.49525e-11)
(1.95648e-10 5.71696e-10 1.9332e-10)
(1.90969e-11 2.91402e-11 2.73478e-11)
(1.1055e-10 1.24419e-10 7.87344e-11)
(1.56073e-12 -1.09891e-12 6.45704e-12)
(1.49416e-12 -1.94704e-12 1.8909e-11)
(1.54978e-12 -7.11605e-13 6.66985e-12)
(3.72393e-10 3.94042e-10 -1.05165e-12)
(5.88624e-11 1.52717e-10 -2.93768e-12)
(2.39535e-10 9.01315e-10 -7.32054e-12)
(7.26011e-11 2.25735e-10 -3.82124e-12)
(3.89374e-10 4.05929e-10 1.40656e-12)
(2.3241e-10 8.93018e-10 -4.41234e-12)
(5.61833e-11 1.50836e-10 -3.27601e-12)
(2.33631e-11 6.62946e-11 3.67265e-11)
(6.42903e-12 -1.10108e-11 4.24058e-11)
(-2.57971e-12 1.33444e-12 -7.72403e-12)
(-5.24687e-12 8.76446e-12 8.16555e-13)
(-1.16011e-11 1.28531e-11 4.68987e-13)
(8.08686e-12 -1.44855e-13 2.54966e-11)
(2.14059e-12 -1.54173e-12 7.89681e-12)
(6.43204e-12 -3.66437e-13 1.78599e-11)
(4.05538e-10 4.18628e-10 1.03979e-11)
(7.98255e-11 2.34522e-10 5.43352e-13)
(5.96204e-11 1.54874e-10 -2.34787e-12)
(2.43272e-10 9.12995e-10 -6.21994e-12)
(3.89443e-10 4.06292e-10 1.73298e-12)
(2.55122e-10 9.3589e-10 6.95452e-12)
(6.25009e-11 1.57135e-10 -7.53542e-13)
(3.52004e-13 -2.94615e-12 3.65629e-11)
(-2.08378e-12 -3.39429e-13 2.81718e-11)
(1.96339e-13 -2.25102e-13 1.43875e-11)
(-4.85833e-13 -7.29146e-14 1.34731e-13)
(2.56022e-12 8.90538e-12 9.06432e-12)
(-4.47904e-12 1.07966e-11 6.134e-11)
(2.7815e-11 2.92178e-11 3.32301e-11)
(5.8297e-11 4.20192e-11 2.81935e-11)
(9.30241e-12 4.38148e-11 4.69711e-11)
(4.45087e-12 -6.07633e-12 5.56397e-11)
(2.33743e-10 8.14754e-10 -2.84262e-13)
(2.90543e-11 4.05686e-11 3.55095e-11)
(4.53921e-10 4.77868e-10 3.18489e-11)
(8.98869e-11 2.00487e-10 6.63534e-11)
(2.5133e-10 8.76679e-10 3.66432e-11)
(8.91307e-11 1.60653e-10 1.89072e-11)
(2.18126e-10 7.47721e-10 1.05637e-10)
(4.41131e-10 4.45689e-10 2.31817e-11)
(9.54552e-11 1.55086e-10 4.72547e-11)
(2.80724e-10 1.11686e-09 1.88394e-11)
(2.30611e-10 9.33549e-10 6.92883e-11)
(-5.56571e-12 2.43705e-12 6.33999e-11)
(-4.10164e-12 -1.06075e-11 5.11838e-11)
(3.39653e-11 3.58733e-11 5.18003e-11)
(4.88535e-11 4.52215e-11 6.70298e-12)
(5.14956e-11 4.80691e-11 1.90909e-11)
(1.80638e-13 -8.47374e-13 4.20983e-12)
(-1.10532e-13 -4.2826e-13 4.06109e-12)
(1.7703e-12 -2.08177e-12 1.80362e-11)
(-2.40768e-14 -2.1251e-13 9.70084e-13)
(1.03479e-12 -9.65664e-13 4.6347e-12)
(-1.26041e-12 -2.05726e-13 -4.4655e-14)
(-4.92595e-13 -5.67833e-13 2.76223e-12)
(3.4072e-11 4.25415e-11 -3.12462e-13)
(3.13976e-11 4.17579e-11 -1.38191e-12)
(2.73301e-10 1.15961e-09 -3.45445e-12)
(2.66529e-10 1.15568e-09 -2.70177e-12)
(3.70569e-10 3.93347e-10 -1.25335e-12)
(7.0734e-11 2.24679e-10 -3.95527e-12)
(2.30505e-10 8.93957e-10 -6.60584e-12)
(5.30346e-11 1.4935e-10 -3.3125e-12)
(2.6473e-10 1.15871e-09 -4.43808e-12)
(3.0881e-11 4.15334e-11 -7.95502e-13)
(2.81744e-11 4.65659e-11 4.82533e-11)
(1.85668e-11 1.06434e-12 3.94004e-11)
(-6.49012e-12 2.27398e-12 -3.27567e-12)
(-1.34496e-11 1.01987e-11 5.17863e-11)
(-1.66584e-11 1.27266e-11 1.07776e-11)
(-1.65397e-12 7.30374e-12 -3.21537e-12)
(-9.21208e-12 1.54959e-11 7.38788e-12)
(-1.13553e-11 3.0973e-12 5.49279e-11)
(3.34351e-11 1.25292e-11 3.29649e-12)
(-1.24916e-11 1.27178e-11 1.66628e-11)
(-3.86393e-12 -3.40755e-12 3.06077e-11)
(-1.58707e-12 -3.4818e-12 4.01046e-11)
(5.63771e-12 5.11002e-12 2.05612e-11)
(6.76369e-13 -1.21539e-12 5.34322e-12)
(4.01163e-12 3.23363e-13 1.34078e-11)
(-5.00814e-12 -7.10003e-12 3.45737e-11)
(2.9681e-12 4.65178e-12 1.31065e-11)
(4.3998e-11 3.26869e-12 1.13507e-12)
(4.1078e-10 4.21416e-10 1.18581e-11)
(8.39156e-11 2.33165e-10 7.85051e-12)
(2.55102e-10 8.82007e-10 2.77609e-11)
(8.21204e-11 1.60917e-10 9.27275e-12)
(4.43295e-10 4.45713e-10 2.13076e-11)
(2.56995e-10 9.24611e-10 1.52648e-11)
(7.18124e-11 1.59572e-10 2.76079e-12)
(3.45584e-11 4.26836e-11 -6.02419e-13)
(3.87753e-11 4.33396e-11 6.2351e-13)
(2.77738e-10 1.17881e-09 -4.07494e-12)
(2.92547e-10 1.22088e-09 8.19907e-12)
(2.86567e-10 1.11782e-09 1.78041e-11)
(2.93356e-10 1.19925e-09 1.48986e-11)
(4.80875e-11 4.53956e-11 5.2302e-12)
(4.03092e-11 4.38312e-11 6.79281e-13)
(-2.10964e-13 -3.06488e-12 3.27896e-11)
(-2.0279e-12 -3.77129e-13 2.84043e-11)
(1.91386e-13 -2.19307e-13 1.44497e-11)
(-1.54565e-13 -1.74199e-13 7.62007e-13)
(-4.38268e-13 -7.4878e-14 2.27985e-13)
(-1.63885e-12 -4.71311e-14 -8.83927e-13)
(-1.37788e-12 -1.46398e-13 -2.87262e-13)
(-1.58959e-12 -7.17945e-14 -7.8055e-13)
(2.50462e-10 9.63543e-10 -7.1396e-12)
(-7.46573e-12 -3.32362e-12 -4.15371e-12)
(-9.2726e-13 -1.32422e-12 -1.70635e-14)
(-6.25763e-13 -2.2625e-13 1.54635e-11)
(2.0318e-12 -4.11521e-13 2.07006e-11)
(-8.9634e-13 -3.63354e-13 1.5849e-11)
(3.12861e-12 8.75065e-13 3.70217e-11)
(-7.68189e-12 1.13556e-11 -5.0253e-11)
(2.5183e-13 -1.61714e-13 -1.12381e-12)
(-1.07458e-12 -1.3616e-12 -2.03228e-13)
(4.69304e-13 2.28409e-12 -4.90911e-12)
(7.13753e-12 -6.9369e-13 2.24454e-11)
(-6.1007e-13 -4.75458e-13 1.52778e-11)
(-7.65089e-13 -9.5283e-13 1.66014e-11)
(1.93203e-12 2.31781e-14 3.83111e-11)
(5.11018e-11 9.94832e-12 1.24159e-10)
(4.01108e-12 8.6446e-12 1.49009e-11)
(-1.16574e-12 1.73261e-11 3.86984e-11)
(-5.14791e-13 -5.27417e-12 4.91397e-11)
(-1.69143e-12 2.6103e-12 1.68123e-10)
(1.04605e-11 1.85995e-11 3.38654e-11)
(3.09049e-12 -2.21226e-12 3.93872e-11)
(-1.06616e-11 1.23564e-10 2.58019e-10)
(2.48958e-11 4.19244e-11 5.90506e-11)
(4.37131e-11 -2.7305e-11 2.06212e-10)
(1.59116e-11 1.92353e-11 5.65069e-11)
(-3.11201e-11 3.02221e-10 1.36322e-10)
(4.34666e-11 6.53265e-11 1.59251e-10)
(3.36637e-11 3.84527e-11 5.99463e-11)
(8.51545e-12 9.42289e-12 2.24324e-10)
(1.12361e-11 2.89551e-12 9.01304e-11)
(-4.98402e-12 -1.151e-11 4.3568e-11)
(-4.83334e-12 -1.19555e-11 3.6249e-11)
(5.76574e-12 5.19904e-12 1.60972e-10)
(4.58684e-12 6.03451e-12 1.14745e-10)
(-6.29389e-12 -1.21092e-11 5.19608e-11)
(8.76833e-13 -8.91014e-13 1.56014e-11)
(-2.69615e-12 -2.96683e-13 1.06534e-11)
(-2.52395e-12 -7.02875e-13 1.1101e-11)
(-5.16712e-12 4.1442e-11 5.80147e-11)
(-2.03091e-11 -3.04925e-11 2.06072e-10)
(7.94626e-11 3.11913e-10 1.14682e-10)
(-1.00819e-11 5.44582e-12 7.28785e-11)
(-7.44288e-12 5.19407e-12 9.44574e-12)
(-1.1278e-11 1.44796e-11 3.21626e-11)
(-1.37119e-12 -4.75233e-12 4.47734e-11)
(-2.47175e-12 2.97304e-12 1.49128e-10)
(-1.59348e-11 1.17868e-11 2.10276e-11)
(-2.96205e-12 -1.50591e-12 1.88687e-11)
(1.4747e-11 1.33703e-11 1.38884e-10)
(1.52478e-11 3.93057e-12 9.18239e-11)
(-1.7958e-12 -7.93456e-12 3.91622e-11)
(7.4809e-12 -1.73318e-12 3.02427e-11)
(6.33631e-12 5.79877e-12 1.51081e-10)
(3.70072e-11 1.36842e-11 9.65273e-11)
(-6.86851e-13 -2.3505e-12 3.6488e-11)
(3.65946e-12 4.20682e-12 6.43744e-11)
(1.3139e-11 2.54152e-12 8.32915e-11)
(-2.08629e-12 -7.89706e-12 2.66194e-11)
(6.85823e-12 -4.95305e-12 1.99313e-11)
(3.51383e-12 6.38452e-12 1.03314e-10)
(1.93606e-11 2.36876e-12 7.03878e-11)
(1.47813e-13 -4.08028e-12 2.09233e-11)
(6.32129e-11 1.02296e-11 7.04973e-11)
(1.82868e-11 3.16723e-12 8.59336e-11)
(1.40031e-11 -1.17453e-12 2.68667e-11)
(1.22683e-11 -4.20881e-12 2.18367e-11)
(4.44011e-11 1.17978e-11 9.72742e-11)
(2.65398e-11 3.07201e-12 6.75556e-11)
(1.99143e-11 -2.27402e-12 2.31751e-11)
(-1.32875e-12 -1.00091e-12 2.95395e-11)
(-1.84346e-12 -4.58957e-13 2.89556e-11)
(3.16161e-13 -2.73266e-13 1.48156e-11)
(-2.71841e-12 -2.62398e-13 1.05766e-11)
(-2.79211e-12 -1.88439e-13 1.02968e-11)
(1.32266e-10 2.40241e-10 1.41523e-10)
(3.08896e-10 5.34833e-10 9.66831e-11)
(3.20778e-10 3.47905e-10 -6.71779e-12)
(2.80773e-10 3.47783e-10 8.25719e-11)
(1.93978e-10 2.24739e-10 1.20565e-10)
(2.32936e-10 3.83488e-10 1.30454e-10)
(2.20649e-10 3.98761e-10 9.63211e-11)
(5.35092e-11 1.29081e-10 1.15317e-10)
(4.40119e-11 6.56516e-11 8.79329e-11)
(1.64499e-11 2.84572e-11 2.84233e-11)
(1.9542e-11 4.1469e-11 2.98783e-11)
(5.92865e-11 9.64466e-11 8.56215e-11)
(7.82725e-11 1.52437e-10 8.95748e-11)
(1.32977e-11 3.57652e-11 3.42579e-11)
(-6.32903e-12 -5.24331e-12 -6.28259e-12)
(-3.2469e-12 -4.56641e-13 1.35364e-11)
(1.00544e-12 -4.70936e-14 5.47946e-12)
(-3.91617e-12 -3.03846e-13 1.33287e-11)
(1.75717e-12 -7.13516e-13 2.05899e-11)
(-1.28602e-12 -1.40995e-12 1.42032e-11)
(-9.20427e-13 -5.68885e-13 1.56762e-11)
(7.82269e-13 3.11028e-14 5.48519e-12)
(-3.86619e-12 -1.30267e-12 1.19057e-11)
(-3.68676e-12 -4.19234e-13 1.31628e-11)
(1.75306e-10 4.46369e-10 -5.51678e-12)
(3.81892e-10 4.00395e-10 7.41292e-14)
(2.66934e-10 5.92332e-10 -3.54758e-12)
(2.11133e-10 3.09757e-10 -4.53161e-12)
(2.15871e-10 3.12609e-10 -3.88305e-12)
(2.7157e-10 5.93649e-10 -3.83015e-12)
(1.71599e-10 4.44863e-10 -5.38856e-12)
(1.78114e-10 4.47799e-10 -4.83838e-12)
(3.83616e-10 4.01182e-10 1.71095e-13)
(2.2128e-10 3.17155e-10 -1.74688e-12)
(2.78174e-10 6.00958e-10 -3.35411e-12)
(1.80075e-10 4.52065e-10 -4.50857e-12)
(2.19142e-10 3.14483e-10 -3.42652e-12)
(2.75563e-10 5.95739e-10 -2.68734e-12)
(4.2373e-12 3.46667e-12 3.69571e-11)
(-7.17536e-12 8.00636e-12 -4.99407e-11)
(8.46222e-13 3.01643e-14 -7.87023e-12)
(-8.4108e-12 5.308e-12 -8.31021e-12)
(-7.98708e-13 3.92525e-12 -3.44118e-11)
(-8.66078e-12 9.39398e-12 -2.90995e-11)
(-3.18226e-12 2.56603e-12 -1.19138e-11)
(8.6079e-12 1.08347e-12 -3.88161e-11)
(-1.62647e-12 1.30774e-11 -4.27999e-11)
(6.84654e-12 2.85026e-11 -1.86294e-11)
(-4.47508e-12 1.40381e-11 -3.7089e-12)
(1.33017e-12 2.45364e-11 -9.29987e-12)
(-9.65232e-13 3.57862e-12 -4.37734e-12)
(-5.26103e-12 1.16077e-11 -4.2354e-11)
(-1.38816e-11 2.27828e-11 -8.4442e-12)
(-1.03545e-11 9.60305e-12 -4.32468e-12)
(-4.63311e-12 1.15163e-11 -4.30706e-12)
(-9.1479e-12 1.07675e-11 -1.8115e-11)
(4.84793e-14 2.24935e-11 -1.62969e-11)
(-5.60005e-12 8.87362e-12 -7.84109e-12)
(7.47838e-12 -5.51134e-13 2.31692e-11)
(-5.06499e-13 8.41179e-13 1.9326e-11)
(-7.80067e-13 -7.22545e-13 1.72659e-11)
(-2.59269e-12 -5.54094e-13 1.36461e-11)
(6.16043e-12 -1.46205e-12 1.51987e-11)
(-2.0988e-12 -6.9707e-13 1.42757e-11)
(-8.21959e-13 -1.18838e-13 1.67926e-11)
(6.58523e-12 -1.03752e-12 1.52723e-11)
(-2.26851e-12 -5.8212e-13 1.45921e-11)
(1.84715e-10 4.67576e-10 -4.13883e-13)
(3.92412e-10 4.09516e-10 5.69867e-12)
(2.90325e-10 6.3058e-10 4.27481e-12)
(2.30963e-10 3.25999e-10 2.01476e-12)
(1.90902e-10 4.70641e-10 1.72145e-12)
(2.23471e-10 3.21647e-10 1.14769e-12)
(2.83694e-10 6.26822e-10 1.53145e-12)
(1.82051e-10 4.63252e-10 -2.2524e-12)
(3.9198e-10 4.09042e-10 4.51877e-12)
(2.21575e-10 3.18302e-10 -7.45439e-13)
(2.79557e-10 6.08747e-10 -2.12838e-12)
(1.81105e-10 4.56367e-10 -3.35971e-12)
(2.21573e-10 3.20355e-10 9.05297e-13)
(2.80691e-10 6.185e-10 -1.75856e-12)
(1.05198e-12 -1.2537e-12 3.88221e-11)
(-2.11345e-12 -2.76828e-13 2.79566e-11)
(1.46608e-13 -1.4576e-13 1.42251e-11)
(-2.83353e-12 -1.42054e-13 9.96206e-12)
(-5.68483e-12 -1.26019e-13 7.6541e-12)
(3.42451e-10 2.95042e-10 4.96245e-11)
(1.71648e-10 1.45159e-10 1.13303e-10)
(-1.04942e-11 -4.90859e-12 1.09161e-10)
(3.57302e-12 7.74126e-12 1.00906e-11)
(2.36002e-12 1.59211e-11 2.75768e-11)
(2.28311e-11 2.79085e-11 2.61472e-11)
(-3.06826e-11 4.86587e-11 1.47155e-10)
(6.37734e-12 1.42295e-11 2.56901e-11)
(1.58397e-11 -4.6085e-13 1.25778e-11)
(4.66624e-11 1.85945e-11 1.69658e-10)
(-2.87448e-12 1.54791e-11 5.26735e-11)
(4.04718e-12 9.60097e-12 2.33031e-10)
(1.13006e-11 1.62868e-11 6.41356e-11)
(2.51023e-11 2.05779e-11 2.67271e-10)
(3.3266e-14 6.09895e-12 1.8717e-10)
(1.39646e-11 2.06746e-11 5.10664e-11)
(1.51613e-11 3.69282e-11 1.61651e-10)
(8.01166e-11 8.20117e-11 5.85219e-11)
(1.36232e-11 1.93561e-11 2.83571e-11)
(2.82578e-11 2.7707e-11 5.32143e-11)
(8.68776e-11 8.83324e-11 1.0161e-10)
(3.75132e-11 2.70368e-11 2.5277e-10)
(2.21347e-11 2.38435e-11 3.76041e-11)
(2.60488e-10 2.03837e-10 1.3996e-11)
(2.6701e-11 4.75028e-11 3.9919e-11)
(1.92239e-11 1.55295e-10 8.72492e-11)
(3.94262e-10 6.93849e-10 3.54908e-11)
(1.81987e-10 3.61956e-10 1.10955e-10)
(1.06417e-10 1.31062e-10 2.04279e-10)
(2.12944e-11 1.42949e-11 3.975e-11)
(6.12201e-12 7.80905e-11 2.6582e-10)
(8.07208e-12 4.1192e-11 3.40488e-11)
(1.03206e-10 2.01752e-10 1.16307e-10)
(4.21062e-11 -1.6486e-10 2.20326e-10)
(3.2123e-11 4.82156e-11 3.92244e-11)
(1.20002e-11 8.57203e-11 2.7794e-10)
(7.4921e-12 2.57984e-12 5.89192e-11)
(8.34134e-12 2.70871e-11 1.82186e-10)
(9.20648e-12 1.43322e-11 7.16536e-11)
(2.35159e-11 4.66656e-11 2.93872e-10)
(1.22497e-11 2.92412e-11 1.7356e-10)
(1.63816e-11 2.84817e-11 7.01506e-11)
(3.36658e-10 7.27188e-10 4.99151e-11)
(1.13857e-10 2.46412e-10 1.12945e-10)
(1.69456e-10 3.66173e-10 1.32468e-10)
(5.13729e-11 1.2483e-10 2.23176e-10)
(8.64365e-11 1.09794e-10 3.66966e-11)
(1.75684e-11 3.6339e-11 2.92143e-11)
(2.50868e-11 4.04874e-11 5.97031e-11)
(7.64252e-11 1.18642e-10 1.36012e-10)
(3.21558e-11 5.11842e-11 2.82284e-10)
(2.69557e-11 5.16429e-11 4.98067e-11)
(2.32803e-10 4.53459e-10 5.50896e-11)
(3.26398e-10 5.92901e-10 5.59586e-11)
(4.4011e-10 4.55618e-10 3.29809e-11)
(2.93182e-10 3.52327e-10 5.47365e-11)
(2.37382e-10 4.25871e-10 8.05989e-11)
(3.24669e-10 6.15359e-10 3.96693e-11)
(2.85975e-10 3.52879e-10 3.7546e-11)
(2.29674e-10 4.60494e-10 4.06374e-11)
(4.42084e-10 4.54403e-10 2.97444e-11)
(3.23091e-10 6.21009e-10 2.48074e-11)
(2.74648e-10 3.44562e-10 2.42805e-11)
(3.2301e-10 6.20426e-10 3.01009e-11)
(2.78541e-10 3.47189e-10 3.07911e-11)
(2.2582e-10 4.64028e-10 2.94427e-11)
(4.02334e-10 7.28972e-10 2.002e-11)
(4.15727e-10 7.62563e-10 2.15724e-11)
(2.70286e-10 1.1e-09 2.73244e-11)
(3.71005e-10 8.64272e-10 1.87089e-11)
(3.63464e-10 8.55702e-10 2.41886e-11)
(3.41331e-10 7.70815e-10 4.08148e-11)
(2.59893e-10 1.0549e-09 3.319e-11)
(3.60783e-10 8.45385e-10 2.65517e-11)
(4.24864e-10 7.64415e-10 1.81335e-11)
(4.18144e-10 7.66045e-10 1.99508e-11)
(1.17497e-11 1.1763e-11 2.51218e-10)
(-6.50319e-12 -6.71064e-12 5.66427e-11)
(4.25589e-12 9.97811e-12 2.36094e-10)
(4.53596e-12 7.19941e-12 6.93702e-11)
(2.26735e-11 2.00191e-11 2.74692e-10)
(4.96086e-12 5.87708e-12 1.86314e-10)
(-2.44659e-12 -3.27642e-12 6.5189e-11)
(1.12056e-11 1.36541e-11 2.44282e-10)
(-5.15354e-12 -1.20568e-11 4.31216e-11)
(6.40668e-12 2.29232e-11 1.67259e-10)
(1.31098e-12 1.45171e-12 6.86952e-11)
(1.98682e-11 3.6245e-11 2.89132e-10)
(3.89192e-12 9.85797e-12 1.30202e-10)
(-3.58254e-12 -8.02053e-12 6.10466e-11)
(1.56014e-11 1.64133e-11 2.66535e-10)
(8.10677e-11 8.92857e-11 1.43848e-10)
(2.00692e-11 1.97344e-11 6.69914e-11)
(1.64629e-11 2.2877e-11 6.86044e-11)
(3.08541e-11 2.748e-11 2.70906e-10)
(2.94059e-11 4.1444e-11 2.84486e-10)
(6.23838e-12 6.54429e-12 7.03089e-11)
(3.28859e-10 2.76144e-10 4.261e-11)
(3.19371e-10 2.68803e-10 3.15977e-11)
(2.15624e-10 1.7566e-10 1.67305e-11)
(4.9055e-11 4.56325e-11 9.00715e-12)
(2.13179e-10 1.76378e-10 2.27987e-11)
(3.09082e-10 2.59035e-10 2.09759e-11)
(3.14205e-10 2.63312e-10 2.73976e-11)
(2.07143e-10 1.81882e-10 4.97258e-11)
(5.1657e-11 4.51975e-11 1.12551e-11)
(2.26107e-10 1.84147e-10 2.38158e-11)
(-3.5214e-13 -1.94192e-13 -8.20857e-13)
(-1.97858e-13 -1.13889e-13 3.51233e-12)
(-8.02437e-13 -1.81478e-14 -1.43406e-12)
(-4.68499e-13 -9.62525e-15 3.24703e-12)
(-7.58147e-13 -3.22257e-14 -1.54028e-12)
(-8.0343e-13 -4.00778e-14 -1.41773e-12)
(9.83465e-13 -1.18976e-12 1.5887e-11)
(-1.56723e-12 -1.56493e-12 1.34369e-11)
(-2.40347e-12 -9.68738e-13 1.13909e-11)
(-5.65368e-12 -2.49422e-13 8.30003e-12)
(4.58669e-13 -5.3091e-13 1.7962e-12)
(-5.57053e-12 -6.50684e-13 8.7561e-12)
(-4.34867e-12 -1.52146e-12 1.11576e-11)
(7.26774e-13 -7.52651e-13 2.40574e-12)
(-5.46538e-12 -9.12097e-13 9.03499e-12)
(-1.06091e-12 -2.05842e-14 -2.2123e-12)
(-9.42221e-13 -3.98077e-13 7.19267e-13)
(-9.15349e-13 -1.76902e-14 -2.01571e-12)
(-7.38874e-13 -2.67742e-14 -1.60385e-12)
(-7.48035e-13 -5.39093e-13 1.24793e-12)
(-8.87634e-13 -3.0995e-14 -1.9689e-12)
(2.39963e-10 2.27116e-10 -2.68747e-12)
(2.47512e-10 2.31012e-10 -2.68504e-12)
(1.68703e-10 1.58788e-10 -1.14469e-12)
(3.32038e-11 4.23458e-11 -1.19708e-12)
(1.66623e-10 1.57836e-10 -2.09664e-12)
(2.52514e-10 2.33889e-10 -8.95165e-13)
(2.48958e-10 2.31771e-10 -2.03855e-12)
(1.59634e-10 1.54587e-10 -2.66817e-12)
(3.2629e-11 4.20868e-11 -7.92236e-13)
(1.64428e-10 1.56663e-10 -2.29455e-12)
(3.81788e-10 7.42006e-10 -2.82891e-12)
(3.87172e-10 7.41751e-10 -1.04215e-12)
(3.45819e-10 8.74732e-10 -1.58654e-12)
(2.70235e-10 1.15019e-09 -2.03376e-12)
(3.40542e-10 8.6277e-10 -1.55114e-12)
(3.94637e-10 7.51585e-10 6.64521e-13)
(3.88856e-10 7.40946e-10 -8.46074e-13)
(3.34552e-10 8.67545e-10 -3.16212e-12)
(2.68295e-10 1.15135e-09 -1.84908e-12)
(3.38999e-10 8.63829e-10 -1.6211e-12)
(2.62783e-10 5.91613e-10 -4.98091e-12)
(2.07418e-10 3.08177e-10 -4.24493e-12)
(1.68531e-10 4.44289e-10 -5.84631e-12)
(3.80169e-10 7.42768e-10 -2.85825e-12)
(3.33113e-10 8.6868e-10 -3.41545e-12)
(2.38353e-10 2.26488e-10 -3.15022e-12)
(1.57213e-10 1.53535e-10 -2.51519e-12)
(4.50423e-12 1.39569e-11 4.13036e-11)
(1.81535e-11 -1.69463e-10 2.18729e-10)
(5.66437e-12 3.07881e-11 5.0969e-11)
(1.25096e-11 4.03463e-11 1.64668e-10)
(-1.06425e-11 6.75149e-12 5.0254e-11)
(-7.74897e-12 3.55678e-12 3.16754e-12)
(-1.3611e-11 7.00748e-12 -1.06225e-12)
(-8.78898e-12 3.79556e-12 -1.61964e-11)
(-9.04021e-12 8.39553e-12 -1.59172e-11)
(-1.61482e-11 9.25673e-12 9.26113e-12)
(-3.0781e-12 -1.63439e-13 9.1988e-12)
(-1.00735e-11 7.91518e-12 8.66746e-11)
(-1.35439e-11 1.35635e-11 4.36158e-11)
(3.91958e-14 9.32529e-12 2.16163e-10)
(-1.84837e-11 1.13546e-11 3.88836e-11)
(-1.71522e-12 5.70208e-12 1.66959e-10)
(-7.05929e-12 1.18373e-11 1.39466e-10)
(-1.85863e-11 1.28026e-11 3.05282e-11)
(-1.06948e-11 8.73684e-12 6.40823e-11)
(-5.97959e-12 1.79532e-11 3.04597e-11)
(-1.61515e-11 1.06504e-11 4.31464e-12)
(-1.96856e-11 1.18551e-11 2.41806e-11)
(-9.33459e-12 1.06931e-11 -5.81112e-12)
(-7.87502e-12 1.30381e-11 1.12258e-10)
(-1.91619e-11 1.18604e-11 1.67437e-11)
(1.16895e-11 3.8068e-11 -2.33576e-11)
(-1.83182e-12 7.50947e-12 -1.14359e-12)
(3.15187e-12 3.10052e-11 -1.89204e-11)
(3.92515e-12 1.0291e-11 6.83689e-12)
(6.01433e-11 5.25023e-11 4.66071e-11)
(-1.26569e-12 2.32998e-11 2.40816e-11)
(-3.49638e-12 1.57697e-11 -5.00446e-13)
(-2.23987e-12 1.95646e-11 1.06025e-11)
(1.67671e-12 2.98832e-11 -6.39357e-12)
(3.34503e-11 4.24585e-11 4.91171e-11)
(6.7187e-12 1.40169e-11 1.62769e-10)
(-7.13752e-12 -4.84845e-12 4.9869e-11)
(8.48033e-13 9.57623e-12 2.21231e-10)
(-1.59864e-11 6.55596e-12 4.37907e-11)
(4.91122e-12 6.20096e-12 1.76022e-10)
(-4.79112e-12 1.35744e-11 1.49865e-10)
(-9.74734e-12 7.00302e-13 4.33209e-11)
(1.86152e-11 2.13783e-11 1.12827e-10)
(1.3112e-11 3.90744e-12 2.64861e-11)
(1.12199e-10 3.58485e-11 5.65695e-11)
(1.07772e-11 1.54999e-11 2.06856e-11)
(4.86145e-11 4.12758e-11 5.97673e-11)
(4.9019e-11 1.7809e-11 8.55916e-11)
(9.20824e-13 6.16923e-12 2.89715e-11)
(-4.42401e-12 1.895e-11 8.71867e-11)
(-1.7061e-12 2.10645e-11 4.06588e-11)
(-1.70542e-11 9.13896e-12 2.90252e-11)
(-3.39552e-12 1.31232e-11 1.94148e-11)
(-5.33436e-12 1.41469e-11 1.22196e-10)
(2.81246e-11 3.57624e-11 6.19223e-11)
(-1.08352e-11 7.08549e-12 3.03336e-11)
(8.67745e-12 8.75372e-11 1.13892e-10)
(-8.87761e-12 1.62572e-11 4.43723e-11)
(-1.67511e-12 1.883e-12 1.92359e-11)
(1.70836e-11 4.93312e-11 1.49545e-10)
(-2.80419e-12 3.5715e-12 1.80696e-11)
(6.59518e-12 8.25282e-11 1.07593e-10)
(-1.90701e-13 9.66378e-13 1.66435e-11)
(-1.98648e-12 4.13055e-14 1.39329e-11)
(3.95053e-12 6.7692e-11 7.97458e-11)
(-2.14842e-12 2.54908e-12 1.66934e-11)
(1.25998e-12 -1.88587e-13 6.35798e-13)
(3.48034e-12 -1.4337e-12 1.16814e-11)
(3.06516e-12 -2.07722e-13 1.77983e-12)
(3.86028e-12 -1.01349e-12 1.20487e-11)
(4.14376e-12 7.35451e-14 3.58119e-12)
(4.81161e-12 -2.68224e-13 3.25377e-12)
(-2.05627e-12 1.60471e-11 6.93564e-11)
(-2.32439e-12 -8.39652e-12 2.9079e-11)
(-2.03074e-12 8.02622e-12 9.37717e-11)
(-4.68071e-12 3.73976e-12 2.78016e-11)
(3.36341e-12 1.02432e-11 1.17665e-10)
(-2.5478e-12 2.92e-11 8.78469e-11)
(-2.39538e-12 -1.30724e-13 2.26842e-11)
(4.57801e-12 2.24932e-11 5.05057e-11)
(5.08197e-12 -6.31224e-12 9.08393e-12)
(2.08553e-11 5.19064e-13 5.45597e-11)
(6.42971e-13 -2.9521e-12 8.5934e-12)
(2.77668e-12 3.19801e-11 5.10294e-11)
(-1.85752e-12 1.76894e-13 1.20347e-11)
(1.5906e-12 4.59693e-13 2.31575e-12)
(2.60084e-12 6.29323e-11 7.25899e-11)
(-3.39864e-13 -2.18188e-12 8.18587e-12)
(8.24142e-11 1.36024e-11 6.46752e-11)
(2.40006e-11 2.82328e-12 2.40582e-11)
(1.263e-10 2.36279e-11 6.13552e-11)
(6.00415e-11 -4.47901e-12 -7.00845e-12)
(6.0815e-11 1.40383e-11 5.07573e-11)
(1.73681e-10 1.24283e-11 1.90297e-11)
(3.17328e-11 -1.86484e-12 2.09935e-11)
(6.74012e-11 1.02187e-11 5.6923e-11)
(6.82054e-12 -7.07757e-12 9.72479e-12)
(2.89488e-11 1.58631e-12 5.48378e-11)
(1.39833e-11 -4.03687e-12 1.07979e-11)
(8.81838e-11 1.43264e-11 5.28341e-11)
(6.114e-11 -7.16173e-12 -8.21721e-12)
(1.85417e-10 1.36926e-11 -4.75951e-12)
(3.84768e-11 -1.20755e-11 1.83774e-11)
(2.09383e-10 4.67623e-10 9.32898e-12)
(4.32772e-10 4.3669e-10 1.59956e-11)
(3.00578e-10 6.29096e-10 8.90526e-12)
(2.41493e-10 3.30656e-10 3.26149e-12)
(1.99102e-10 4.69926e-10 4.94031e-12)
(3.11723e-10 6.25142e-10 1.20114e-11)
(2.54991e-10 3.36503e-10 7.37329e-12)
(2.17116e-10 4.65577e-10 1.46361e-11)
(4.3678e-10 4.39174e-10 1.69137e-11)
(3.23476e-10 6.20139e-10 1.94618e-11)
(2.71235e-10 3.42497e-10 1.87036e-11)
(2.22619e-10 4.64134e-10 2.15375e-11)
(3.20205e-10 6.21783e-10 1.63635e-11)
(2.64694e-10 3.40088e-10 1.19422e-11)
(2.65388e-10 2.38545e-10 3.35211e-12)
(2.53251e-10 2.33e-10 2.55489e-12)
(1.68306e-10 1.5842e-10 -5.59216e-13)
(3.58139e-11 4.27322e-11 1.76995e-13)
(1.6924e-10 1.57706e-10 2.36572e-13)
(2.52523e-10 2.33887e-10 2.64138e-14)
(2.52691e-10 2.33163e-10 1.53522e-12)
(1.77647e-10 1.60082e-10 1.62041e-12)
(3.68339e-11 4.29175e-11 -1.38155e-14)
(1.70051e-10 1.56993e-10 1.02703e-12)
(4.16725e-10 7.95985e-10 7.63248e-12)
(4.08062e-10 7.89717e-10 3.07827e-12)
(3.47863e-10 8.81838e-10 -1.58982e-12)
(2.8327e-10 1.20292e-09 -3.25552e-12)
(3.56023e-10 9.13019e-10 1.58849e-13)
(3.9676e-10 7.57097e-10 7.84304e-13)
(4.04816e-10 7.81762e-10 2.59425e-12)
(3.66771e-10 9.25561e-10 8.25774e-12)
(2.88993e-10 1.22194e-09 1.13471e-12)
(3.58999e-10 9.21867e-10 1.15469e-12)
(4.19376e-10 7.90845e-10 8.48551e-12)
(4.26081e-10 7.72073e-10 1.23535e-11)
(3.729e-10 8.62863e-10 1.75395e-11)
(2.90121e-10 1.13111e-09 1.95082e-11)
(3.74659e-10 8.73764e-10 1.57554e-11)
(4.26435e-10 7.63193e-10 1.69152e-11)
(4.27793e-10 7.67955e-10 1.34793e-11)
(3.6889e-10 9.18438e-10 9.94702e-12)
(2.9215e-10 1.16398e-09 1.96025e-11)
(3.73447e-10 8.83371e-10 1.487e-11)
(2.70217e-10 2.40727e-10 4.81245e-12)
(2.91629e-10 2.51551e-10 8.75583e-12)
(2.12972e-10 1.74628e-10 1.29904e-11)
(4.58392e-11 4.50066e-11 2.76514e-12)
(2.06377e-10 1.72282e-10 8.40831e-12)
(3.07227e-10 2.57903e-10 1.78774e-11)
(2.96251e-10 2.53445e-10 1.11238e-11)
(1.85268e-10 1.63508e-10 3.08347e-12)
(4.31834e-11 4.45788e-11 2.01758e-12)
(1.98096e-10 1.6948e-10 5.48126e-12)
(-8.83042e-13 -1.94321e-12 3.02975e-11)
(-1.92836e-12 -4.37114e-13 2.8689e-11)
(3.09851e-13 -2.95942e-13 1.47368e-11)
(-2.8266e-12 -1.4175e-13 1.00146e-11)
(-2.79873e-12 -1.83971e-13 1.02335e-11)
(-5.65674e-12 -2.30704e-13 8.22378e-12)
(-2.99397e-13 -9.32966e-14 5.22686e-13)
(-5.68002e-12 -1.49041e-13 7.95366e-12)
(-5.68329e-12 -1.10325e-13 7.69968e-12)
(-3.58876e-13 -8.40974e-14 4.13305e-13)
(-5.67735e-12 -1.55648e-13 7.89671e-12)
(-1.23115e-12 6.08154e-17 -2.43405e-12)
(-1.09756e-12 -7.25719e-15 -2.25847e-12)
(-1.48509e-12 -9.1069e-14 -5.18913e-13)
(-1.14289e-12 -1.05876e-14 -2.34059e-12)
(-1.54574e-12 -5.81321e-14 -6.4236e-13)
(-1.20854e-12 -1.13339e-14 -2.41109e-12)
(-1.16017e-12 -3.58867e-16 -2.35933e-12)
(-5.61302e-13 2.25332e-14 1.09078e-12)
(-1.81854e-12 -3.86281e-13 -1.14244e-12)
(-7.93581e-14 3.63641e-13 2.0514e-13)
(-7.65853e-13 2.69482e-14 -4.85942e-12)
(2.20036e-13 1.49692e-12 1.77989e-12)
(-1.78367e-12 -8.11216e-13 2.80141e-13)
(-1.61556e-12 -3.36631e-13 -3.32083e-12)
(-1.23511e-12 5.05522e-13 -6.21598e-12)
(1.47403e-13 -1.64987e-13 -1.98638e-12)
(5.04677e-13 2.40247e-13 -1.52564e-12)
(-1.71315e-12 -5.56849e-13 -1.20607e-11)
(-1.21129e-13 3.65933e-13 -4.87217e-12)
(7.73168e-13 4.33567e-13 -2.23171e-12)
(-2.36013e-12 -2.91236e-13 -9.4133e-12)
(7.60584e-12 5.44724e-11 1.22219e-10)
(1.6019e-12 1.36204e-11 4.45453e-11)
(3.02248e-12 6.13645e-11 1.27565e-10)
(-1.97638e-13 9.88784e-12 4.67424e-11)
(-3.05718e-12 3.60607e-11 1.33859e-10)
(1.34894e-11 4.58241e-11 1.31994e-10)
(-3.48765e-13 1.31546e-11 4.02962e-11)
(3.20876e-10 4.28867e-10 8.74174e-11)
(4.18031e-10 5.48616e-10 4.34274e-11)
(4.33151e-10 4.61947e-10 9.844e-12)
(3.98049e-10 4.28181e-10 4.60008e-11)
(3.84741e-10 4.08619e-10 4.62955e-11)
(3.98061e-10 5.1592e-10 3.3054e-11)
(3.4707e-10 4.72191e-10 5.95222e-11)
(4.33069e-11 1.48161e-10 1.18228e-10)
(1.75716e-11 4.50971e-11 4.19799e-11)
(1.07315e-10 2.79359e-10 1.15322e-10)
(1.94945e-11 4.7268e-11 3.63195e-11)
(5.54092e-11 1.37322e-10 1.3331e-10)
(9.12089e-11 1.49146e-10 1.03379e-10)
(1.16675e-11 4.13065e-11 3.73245e-11)
(-1.53696e-12 -1.21857e-12 6.90672e-13)
(1.47174e-12 -6.55056e-13 6.22187e-12)
(-1.96575e-12 -7.31274e-13 -1.85374e-13)
(9.43173e-13 -3.58624e-13 5.52944e-12)
(-1.55235e-12 -1.23413e-12 5.43556e-13)
(-1.93972e-12 -7.4355e-13 2.90609e-13)
(2.74063e-10 4.36169e-10 -3.49948e-12)
(3.75941e-10 3.96542e-10 -4.69379e-13)
(3.51992e-10 4.86804e-10 -2.3096e-12)
(2.99954e-10 3.44714e-10 -2.53653e-12)
(3.03448e-10 3.47068e-10 -1.6894e-12)
(3.55468e-10 4.88901e-10 -2.01557e-12)
(2.71389e-10 4.34933e-10 -3.64504e-12)
(2.84441e-10 4.43283e-10 -1.6114e-12)
(3.87339e-10 4.04179e-10 7.9204e-13)
(3.16089e-10 3.55631e-10 4.9178e-13)
(3.68156e-10 4.9873e-10 7.52356e-13)
(2.85115e-10 4.45e-10 -9.88421e-13)
(3.15013e-10 3.54074e-10 -6.09908e-13)
(3.66142e-10 4.96287e-10 8.18323e-14)
(2.81307e-11 4.82628e-11 4.0629e-11)
(9.00563e-11 1.45969e-10 1.28241e-10)
(-1.51781e-11 2.65018e-11 -6.21296e-12)
(-7.87243e-12 2.44543e-11 -3.49032e-12)
(-3.86869e-12 9.68506e-12 -1.55351e-12)
(-7.55595e-12 2.55307e-11 -4.14242e-12)
(-7.71729e-12 9.86454e-12 -1.20488e-12)
(-7.0529e-13 -1.53595e-12 2.41556e-12)
(3.16063e-12 -1.87999e-12 1.0124e-11)
(5.69857e-13 -1.5678e-12 4.53389e-12)
(3.98294e-12 -1.8773e-12 1.10916e-11)
(7.3752e-12 -1.50733e-13 1.77902e-11)
(3.23508e-12 -7.87188e-13 5.78233e-12)
(2.91993e-10 4.60543e-10 3.83789e-12)
(3.98639e-10 4.13541e-10 8.81052e-12)
(3.84136e-10 5.21192e-10 7.37027e-12)
(3.26936e-10 3.65592e-10 7.47959e-12)
(2.9738e-10 4.62925e-10 4.52443e-12)
(3.20051e-10 3.60913e-10 5.68541e-12)
(3.77332e-10 5.16562e-10 6.73024e-12)
(2.85177e-10 4.49067e-10 3.70626e-13)
(3.9085e-10 4.07748e-10 2.71109e-12)
(3.15278e-10 3.55377e-10 5.7756e-13)
(3.68334e-10 5.00948e-10 1.27997e-12)
(2.85346e-10 4.46998e-10 -3.4926e-13)
(3.15459e-10 3.56728e-10 1.93136e-12)
(3.69654e-10 5.03388e-10 2.09304e-12)
(-4.13018e-12 -1.00575e-13 -7.18673e-12)
(-4.55919e-13 -7.20192e-14 1.05647e-13)
(-4.17597e-12 -1.08354e-13 -7.41385e-12)
(4.28342e-10 3.77604e-10 4.37682e-11)
(4.20529e-10 3.71224e-10 1.63946e-11)
(4.6316e-10 5.98664e-10 2.65352e-11)
(4.44757e-10 5.71552e-10 -1.2787e-11)
(3.47665e-10 4.8148e-10 4.09666e-11)
(4.25156e-10 5.6067e-10 2.92092e-11)
(4.43805e-10 4.6476e-10 3.67019e-11)
(3.94282e-10 4.20806e-10 3.58655e-11)
(3.49932e-10 4.78815e-10 4.8005e-11)
(4.13879e-10 5.45188e-10 3.25553e-11)
(3.84894e-10 4.10009e-10 3.65702e-11)
(3.3698e-10 4.76063e-10 2.52229e-11)
(4.40989e-10 4.47397e-10 2.5132e-11)
(4.15446e-10 5.35113e-10 2.25417e-11)
(3.71912e-10 3.91055e-10 2.32678e-11)
(4.14493e-10 5.361e-10 2.36117e-11)
(3.72582e-10 3.93041e-10 2.56768e-11)
(3.37255e-10 4.75061e-10 2.32915e-11)
(4.8323e-10 6.14847e-10 2.03163e-11)
(4.73144e-10 6.00711e-10 2.90687e-11)
(4.87053e-10 5.91363e-10 2.11033e-11)
(4.84478e-10 5.91559e-10 2.25208e-11)
(4.23369e-10 3.68158e-10 3.92477e-11)
(4.15803e-10 3.59648e-10 4.10818e-11)
(3.98655e-10 3.36165e-10 2.37573e-11)
(4.0031e-10 3.39295e-10 2.6427e-11)
(-1.18263e-12 -5.98221e-13 5.91999e-13)
(8.61589e-14 -5.11648e-13 4.07668e-12)
(-1.32649e-12 -3.42114e-13 4.0164e-13)
(-3.5078e-13 -2.063e-13 3.48165e-12)
(-1.60916e-12 -3.2644e-13 -3.87678e-14)
(-1.5167e-12 -1.93405e-13 4.93818e-14)
(-3.89526e-12 -1.73474e-13 -6.96888e-12)
(1.21436e-13 -2.81379e-13 1.12899e-12)
(-3.81864e-12 -2.35447e-13 -7.02563e-12)
(-2.43948e-12 -1.54744e-12 -2.71258e-12)
(1.2888e-12 -1.04414e-12 4.44229e-12)
(-2.65425e-12 -1.52323e-12 -4.20354e-12)
(-2.51147e-12 -1.30714e-13 -2.85239e-12)
(-1.14503e-12 -2.56434e-13 1.45146e-13)
(-2.41932e-12 -1.52287e-13 -2.67651e-12)
(-1.8659e-12 -3.71516e-13 -8.10183e-13)