/*--------------------------------*- C++ -*----------------------------------*\
| =========                 |                                                 |
| \\      /  F ield         | OpenFOAM: The Open Source CFD Toolbox           |
|  \\    /   O peration     | Version:  2012                                  |
|   \\  /    A nd           | Website:  www.openfoam.com                      |
|    \\/     M anipulation  |                                                 |
\*---------------------------------------------------------------------------*/
FoamFile
{
    version     2.0;
    format      ascii;
    class       volVectorField;
    location    "0.104/solid";
    object      D_0;
}
// * * * * * * * * * * * * * * * * * * * * * * * * * * * * * * * * * * * * * //

dimensions      [0 1 0 0 0 0 0];


internalField   nonuniform List<vector> 
3124
(
(1.689e-11 5.50957e-11 4.14607e-11)
(-2.22151e-13 -5.72315e-15 -1.28984e-12)
(3.37657e-12 -4.41319e-13 2.05616e-11)
(7.26815e-11 2.28349e-10 -6.8557e-12)
(1.78435e-12 5.19152e-13 3.6738e-11)
(-2.64519e-14 -3.18339e-14 -2.16967e-12)
(4.32368e-12 -5.62408e-13 2.08126e-11)
(7.34092e-11 2.32832e-10 -6.74445e-12)
(1.78397e-12 1.72942e-13 3.712e-11)
(-6.26835e-13 8.36234e-12 1.7909e-11)
(1.312e-11 3.81857e-11 5.14011e-11)
(7.90697e-11 2.27122e-10 3.07851e-11)
(-7.39478e-13 -9.80035e-12 3.16913e-11)
(5.19557e-13 -4.36688e-13 1.46258e-11)
(-5.13962e-12 6.95331e-12 1.51658e-11)
(4.05346e-12 -6.14526e-12 3.07129e-11)
(9.75067e-13 1.83543e-11 5.00433e-11)
(3.29947e-12 -6.27749e-12 2.48082e-11)
(8.51353e-12 -4.25772e-12 2.58797e-11)
(7.83519e-11 2.32805e-10 1.45352e-11)
(-1.53503e-12 -6.7307e-13 2.83444e-11)
(-1.7167e-12 -5.64076e-13 2.81261e-11)
(4.73123e-13 -4.08826e-13 1.45259e-11)
(4.33792e-10 4.86711e-10 3.96011e-11)
(2.80325e-11 4.11662e-11 3.54255e-11)
(1.99217e-11 6.32103e-11 3.83011e-11)
(5.47917e-11 1.4998e-10 9.73678e-11)
(1.73357e-10 5.843e-10 1.9847e-10)
(1.76239e-11 2.96953e-11 2.81775e-11)
(1.05226e-10 1.26767e-10 8.0358e-11)
(1.6141e-12 -1.14451e-12 6.51874e-12)
(1.54535e-12 -2.0648e-12 1.85738e-11)
(1.48783e-12 -7.63912e-13 6.44335e-12)
(3.70304e-10 3.93636e-10 -5.39874e-12)
(5.69239e-11 1.53184e-10 -5.26815e-12)
(2.33666e-10 9.03305e-10 -1.25038e-11)
(7.1747e-11 2.25821e-10 -5.84961e-12)
(3.83673e-10 4.07744e-10 -4.38242e-12)
(2.3099e-10 8.92875e-10 -8.46071e-12)
(5.50907e-11 1.50907e-10 -5.26313e-12)
(2.00638e-11 6.8008e-11 3.8325e-11)
(6.75742e-12 -1.1235e-11 4.34371e-11)
(-2.54189e-12 1.35953e-12 -7.6051e-12)
(-4.99335e-12 8.68187e-12 7.66411e-13)
(-1.1585e-11 1.28489e-11 6.50709e-13)
(8.22333e-12 -2.93688e-13 2.60443e-11)
(2.20026e-12 -1.58913e-12 7.99902e-12)
(6.5156e-12 -4.00703e-13 1.81928e-11)
(3.92908e-10 4.23409e-10 3.94477e-12)
(7.45463e-11 2.36361e-10 -2.56858e-12)
(5.65647e-11 1.55801e-10 -4.96032e-12)
(2.35493e-10 9.15724e-10 -1.17455e-11)
(3.82895e-10 4.08264e-10 -4.24423e-12)
(2.39953e-10 9.42567e-10 5.31255e-13)
(5.8036e-11 1.586e-10 -3.50607e-12)
(4.82723e-13 -3.13296e-12 3.59389e-11)
(-2.11477e-12 -3.61285e-13 2.69703e-11)
(1.76494e-13 -2.41769e-13 1.37473e-11)
(-6.19112e-13 -7.9913e-14 -3.25453e-13)
(2.08636e-12 9.18128e-12 9.40912e-12)
(-4.80134e-12 1.08195e-11 6.16696e-11)
(2.67097e-11 2.95683e-11 3.39491e-11)
(5.58889e-11 4.3386e-11 2.91962e-11)
(6.71216e-12 4.47883e-11 4.85713e-11)
(3.95958e-12 -5.98122e-12 5.67058e-11)
(2.12878e-10 8.32415e-10 1.56643e-13)
(2.79154e-11 4.09733e-11 3.63529e-11)
(4.37458e-10 4.85947e-10 3.44656e-11)
(7.86152e-11 2.05018e-10 6.68915e-11)
(2.23044e-10 8.90353e-10 3.26354e-11)
(8.07075e-11 1.636e-10 1.79097e-11)
(1.91196e-10 7.63535e-10 1.07096e-10)
(4.21016e-10 4.53667e-10 2.02306e-11)
(8.75539e-11 1.58083e-10 4.7684e-11)
(2.51905e-10 1.13284e-09 1.54909e-11)
(2.03792e-10 9.5157e-10 7.04711e-11)
(-5.81067e-12 2.46418e-12 6.37448e-11)
(-4.51737e-12 -1.0538e-11 5.2e-11)
(3.3033e-11 3.60637e-11 5.2571e-11)
(4.53431e-11 4.68773e-11 6.17828e-12)
(4.84757e-11 4.96188e-11 1.97363e-11)
(2.3039e-13 -8.78964e-13 4.29228e-12)
(-1.77754e-13 -4.6534e-13 3.86744e-12)
(1.82658e-12 -2.18761e-12 1.76632e-11)
(-1.30893e-13 -2.29254e-13 5.95686e-13)
(9.71151e-13 -1.00673e-12 4.38732e-12)
(-1.35487e-12 -2.17431e-13 -3.4755e-13)
(-5.58664e-13 -5.95909e-13 2.55814e-12)
(3.29597e-11 4.2964e-11 -1.61452e-12)
(3.07467e-11 4.1836e-11 -2.40082e-12)
(2.67081e-10 1.16186e-09 -8.37318e-12)
(2.64973e-10 1.15554e-09 -6.6323e-12)
(3.68908e-10 3.92743e-10 -5.4004e-12)
(7.07042e-11 2.24395e-10 -5.62475e-12)
(2.30177e-10 8.9333e-10 -1.03032e-11)
(5.25838e-11 1.49095e-10 -4.95941e-12)
(2.64346e-10 1.15794e-09 -8.03256e-12)
(3.04004e-11 4.15044e-11 -1.72013e-12)
(2.59858e-11 4.76459e-11 5.0122e-11)
(1.88595e-11 8.32252e-13 4.06341e-11)
(-6.4903e-12 2.30684e-12 -3.16543e-12)
(-1.36495e-11 1.0237e-11 5.20787e-11)
(-1.66932e-11 1.27289e-11 1.09728e-11)
(-1.41184e-12 7.27694e-12 -3.25135e-12)
(-9.18913e-12 1.55143e-11 7.53717e-12)
(-1.15338e-11 3.16257e-12 5.52682e-11)
(3.35085e-11 1.26259e-11 3.3785e-12)
(-1.25285e-11 1.27224e-11 1.68286e-11)
(-3.76297e-12 -3.57154e-12 3.1189e-11)
(-1.98384e-12 -3.4543e-12 4.11829e-11)
(5.69274e-12 5.11327e-12 2.09106e-11)
(7.2674e-13 -1.24524e-12 5.44316e-12)
(4.08508e-12 3.05572e-13 1.36741e-11)
(-5.35006e-12 -7.07565e-12 3.54112e-11)
(3.00586e-12 4.66849e-12 1.33647e-11)
(4.40949e-11 3.34105e-12 1.2401e-12)
(3.97152e-10 4.26577e-10 5.51143e-12)
(7.6442e-11 2.35832e-10 4.73281e-12)
(2.28788e-10 8.94323e-10 2.27328e-11)
(7.45512e-11 1.63466e-10 7.25154e-12)
(4.23802e-10 4.53592e-10 1.76591e-11)
(2.39056e-10 9.32487e-10 9.10273e-12)
(6.57497e-11 1.61604e-10 1.72319e-13)
(3.31537e-11 4.3261e-11 -1.98729e-12)
(3.66044e-11 4.43672e-11 -8.50842e-13)
(2.69489e-10 1.18199e-09 -9.26759e-12)
(2.76492e-10 1.22915e-09 2.09239e-12)
(2.5958e-10 1.13205e-09 1.35526e-11)
(2.74511e-10 1.20879e-09 9.63401e-12)
(4.4776e-11 4.69648e-11 4.35489e-12)
(3.7737e-11 4.50358e-11 -7.33917e-13)
(-1.09861e-13 -3.21771e-12 3.20233e-11)
(-2.05007e-12 -4.0489e-13 2.72241e-11)
(1.72449e-13 -2.37841e-13 1.38158e-11)
(-2.64925e-13 -1.9017e-13 3.74181e-13)
(-5.69354e-13 -8.28149e-14 -2.25706e-13)
(-1.75647e-12 -5.21968e-14 -1.25703e-12)
(-1.47545e-12 -1.57737e-13 -6.00406e-13)
(-1.70541e-12 -7.76163e-14 -1.14827e-12)
(2.50534e-10 9.62758e-10 -1.05466e-11)
(-7.45183e-12 -3.30195e-12 -4.12349e-12)
(-8.56959e-13 -1.22223e-12 -4.49911e-15)
(-5.82832e-13 -3.26054e-13 1.5497e-11)
(2.11969e-12 -5.53686e-13 2.05566e-11)
(-8.77969e-13 -4.50821e-13 1.57466e-11)
(3.40228e-12 5.77596e-13 3.74337e-11)
(-7.1665e-12 1.11476e-11 -4.9648e-11)
(2.69898e-13 -1.4551e-13 -1.07371e-12)
(-9.95432e-13 -1.24724e-12 -1.63551e-13)
(5.05868e-13 2.26582e-12 -4.81619e-12)
(7.28385e-12 -8.87145e-13 2.27162e-11)
(-5.51788e-13 -5.74101e-13 1.53498e-11)
(-6.97418e-13 -1.06223e-12 1.68052e-11)
(2.14061e-12 -1.9397e-13 3.80293e-11)
(4.95689e-11 1.04251e-11 1.25839e-10)
(3.77707e-12 8.779e-12 1.51316e-11)
(-1.47996e-12 1.74303e-11 3.9021e-11)
(-6.52614e-13 -5.29388e-12 4.96022e-11)
(-2.26044e-12 2.67157e-12 1.69172e-10)
(9.98885e-12 1.87776e-11 3.42837e-11)
(2.74276e-12 -2.15097e-12 3.98908e-11)
(-1.34487e-11 1.25547e-10 2.62697e-10)
(2.4467e-11 4.29459e-11 6.09669e-11)
(4.4317e-11 -2.85291e-11 2.14268e-10)
(1.5524e-11 1.97831e-11 5.82664e-11)
(-3.45847e-11 3.09924e-10 1.40364e-10)
(4.37356e-11 6.6575e-11 1.64875e-10)
(3.3342e-11 3.92267e-11 6.14456e-11)
(8.01535e-12 9.43468e-12 2.25577e-10)
(1.09899e-11 2.97896e-12 9.20108e-11)
(-5.11305e-12 -1.14229e-11 4.40033e-11)
(-5.04975e-12 -1.18655e-11 3.67916e-11)
(5.46041e-12 5.22121e-12 1.62414e-10)
(4.2579e-12 6.12705e-12 1.1683e-10)
(-6.54216e-12 -1.20098e-11 5.23953e-11)
(9.12499e-13 -9.55999e-13 1.51152e-11)
(-2.742e-12 -3.31802e-13 1.02368e-11)
(-2.55844e-12 -7.46048e-13 1.07356e-11)
(-6.44904e-12 4.27781e-11 6.04233e-11)
(-2.10853e-11 -3.18292e-11 2.15779e-10)
(7.96807e-11 3.21459e-10 1.19754e-10)
(-1.02597e-11 5.47158e-12 7.36874e-11)
(-7.50108e-12 5.24553e-12 9.56607e-12)
(-1.14688e-11 1.45576e-11 3.24255e-11)
(-1.47573e-12 -4.77624e-12 4.51999e-11)
(-2.92518e-12 3.01574e-12 1.50118e-10)
(-1.60493e-11 1.18571e-11 2.12517e-11)
(-3.00575e-12 -1.52875e-12 1.91788e-11)
(1.46064e-11 1.34182e-11 1.40204e-10)
(1.50331e-11 4.0113e-12 9.37386e-11)
(-1.91826e-12 -7.8773e-12 3.96398e-11)
(7.28671e-12 -1.71694e-12 3.06278e-11)
(6.08874e-12 5.82048e-12 1.52806e-10)
(3.69045e-11 1.37584e-11 9.76578e-11)
(-8.78249e-13 -2.31029e-12 3.68864e-11)
(3.40758e-12 4.4453e-12 6.59347e-11)
(1.29119e-11 2.66125e-12 8.5163e-11)
(-2.28156e-12 -7.84952e-12 2.71932e-11)
(6.72594e-12 -4.91424e-12 2.04405e-11)
(3.21438e-12 6.52492e-12 1.05438e-10)
(1.91849e-11 2.70526e-12 7.19972e-11)
(-7.82887e-15 -4.01885e-12 2.14779e-11)
(6.31987e-11 1.03608e-11 7.14704e-11)
(1.8087e-11 3.28586e-12 8.78366e-11)
(1.38169e-11 -1.16508e-12 2.72328e-11)
(1.21087e-11 -4.22011e-12 2.23048e-11)
(4.43365e-11 1.18894e-11 9.83118e-11)
(2.638e-11 3.34833e-12 6.92298e-11)
(1.97663e-11 -2.30165e-12 2.35251e-11)
(-1.26949e-12 -1.0938e-12 2.85804e-11)
(-1.84054e-12 -5.03797e-13 2.78355e-11)
(3.10006e-13 -3.03274e-13 1.42162e-11)
(-2.76838e-12 -2.94087e-13 1.01451e-11)
(-2.85242e-12 -2.11372e-13 9.82982e-12)
(1.22088e-10 2.4458e-10 1.44438e-10)
(2.9286e-10 5.43296e-10 9.95437e-11)
(3.12712e-10 3.5247e-10 -3.32958e-12)
(2.68766e-10 3.53168e-10 8.47866e-11)
(1.85654e-10 2.28317e-10 1.23236e-10)
(2.22065e-10 3.8954e-10 1.33765e-10)
(2.06219e-10 4.05545e-10 9.85844e-11)
(4.71894e-11 1.31828e-10 1.17872e-10)
(3.90667e-11 6.78659e-11 9.07613e-11)
(1.4979e-11 2.90486e-11 2.92431e-11)
(1.75327e-11 4.22851e-11 3.08014e-11)
(5.45312e-11 9.85458e-11 8.79708e-11)
(7.21948e-11 1.55332e-10 9.21305e-11)
(1.13076e-11 3.65726e-11 3.52026e-11)
(-6.31935e-12 -5.23044e-12 -6.26934e-12)
(-3.22425e-12 -5.46771e-13 1.35651e-11)
(1.02149e-12 -9.18654e-14 5.44891e-12)
(-3.89718e-12 -3.72046e-13 1.32357e-11)
(1.85143e-12 -8.51474e-13 2.03988e-11)
(-1.30563e-12 -1.49992e-12 1.39484e-11)
(-9.01107e-13 -6.50225e-13 1.55396e-11)
(7.83838e-13 -2.07781e-14 5.4203e-12)
(-3.90297e-12 -1.39473e-12 1.16601e-11)
(-3.66645e-12 -4.80018e-13 1.30474e-11)
(1.7266e-10 4.46826e-10 -9.63456e-12)
(3.78429e-10 4.00811e-10 -4.90336e-12)
(2.64952e-10 5.92192e-10 -7.8967e-12)
(2.09103e-10 3.0965e-10 -8.26885e-12)
(2.13046e-10 3.13e-10 -7.98794e-12)
(2.68553e-10 5.94093e-10 -8.58753e-12)
(1.69896e-10 4.44777e-10 -9.1256e-12)
(1.74556e-10 4.48567e-10 -9.25837e-12)
(3.79599e-10 4.01848e-10 -5.00875e-12)
(2.16566e-10 3.18495e-10 -6.50775e-12)
(2.7263e-10 6.02643e-10 -8.87406e-12)
(1.75276e-10 4.53477e-10 -9.28737e-12)
(2.15463e-10 3.15196e-10 -7.84341e-12)
(2.71368e-10 5.96696e-10 -7.8233e-12)
(4.54213e-12 3.18985e-12 3.76812e-11)
(-6.84112e-12 7.80455e-12 -4.95067e-11)
(9.05569e-13 4.95079e-14 -7.71085e-12)
(-8.36036e-12 5.34317e-12 -8.13393e-12)
(-6.68554e-13 3.93125e-12 -3.40313e-11)
(-8.54016e-12 9.3896e-12 -2.85155e-11)
(-3.09797e-12 2.57329e-12 -1.16992e-11)
(9.01855e-12 6.672e-13 -3.82942e-11)
(-1.20332e-12 1.28041e-11 -4.22317e-11)
(7.64899e-12 2.84349e-11 -1.79471e-11)
(-4.42624e-12 1.39953e-11 -3.58405e-12)
(1.51869e-12 2.45886e-11 -8.7887e-12)
(-9.35247e-13 3.55177e-12 -4.29058e-12)
(-4.94021e-12 1.13956e-11 -4.1777e-11)
(-1.38062e-11 2.27873e-11 -7.85295e-12)
(-1.03341e-11 9.60861e-12 -4.1393e-12)
(-4.58999e-12 1.15035e-11 -4.13475e-12)
(-9.05408e-12 1.07652e-11 -1.75166e-11)
(2.70579e-13 2.25472e-11 -1.57738e-11)
(-5.5301e-12 8.83492e-12 -7.65643e-12)
(7.60308e-12 -7.38995e-13 2.35135e-11)
(-4.6702e-13 7.55527e-13 1.96977e-11)
(-7.16476e-13 -8.28274e-13 1.75185e-11)
(-2.55295e-12 -6.44262e-13 1.3723e-11)
(6.23998e-12 -1.50925e-12 1.54332e-11)
(-2.02649e-12 -7.81846e-13 1.44719e-11)
(-7.80523e-13 -1.89594e-13 1.71227e-11)
(6.67116e-12 -1.07641e-12 1.55304e-11)
(-2.20263e-12 -6.61782e-13 1.4825e-11)
(1.75577e-10 4.70608e-10 -5.86622e-12)
(3.8253e-10 4.12934e-10 -7.65974e-13)
(2.7733e-10 6.35536e-10 -2.03669e-12)
(2.20787e-10 3.29584e-10 -3.30819e-12)
(1.79827e-10 4.74614e-10 -3.75921e-12)
(2.14912e-10 3.2444e-10 -4.22285e-12)
(2.72811e-10 6.30696e-10 -4.75148e-12)
(1.74433e-10 4.65804e-10 -7.55923e-12)
(3.83006e-10 4.12103e-10 -1.86565e-12)
(2.15745e-10 3.19991e-10 -5.76476e-12)
(2.72433e-10 6.11011e-10 -7.93732e-12)
(1.751e-10 4.58147e-10 -8.39113e-12)
(2.14388e-10 3.22711e-10 -4.34139e-12)
(2.71772e-10 6.21587e-10 -7.86399e-12)
(1.2157e-12 -1.46095e-12 3.83712e-11)
(-2.15012e-12 -2.94005e-13 2.67386e-11)
(1.2076e-13 -1.56598e-13 1.35701e-11)
(-2.90501e-12 -1.54588e-13 9.45734e-12)
(-5.76169e-12 -1.37106e-13 7.18834e-12)
(3.31271e-10 2.99856e-10 5.2037e-11)
(1.65855e-10 1.48067e-10 1.15803e-10)
(-1.20344e-11 -4.22346e-12 1.10885e-10)
(3.2539e-12 7.95895e-12 1.03799e-11)
(1.56042e-12 1.65604e-11 2.8132e-11)
(2.1852e-11 2.84765e-11 2.71235e-11)
(-3.25778e-11 5.00824e-11 1.48453e-10)
(5.77615e-12 1.45861e-11 2.61939e-11)
(1.54116e-11 -5.36581e-14 1.31914e-11)
(4.51271e-11 1.89858e-11 1.71189e-10)
(-3.228e-12 1.55238e-11 5.30091e-11)
(3.48734e-12 9.61512e-12 2.34042e-10)
(1.07507e-11 1.63121e-11 6.45472e-11)
(2.39243e-11 2.06531e-11 2.6859e-10)
(-5.71633e-13 6.15713e-12 1.88177e-10)
(1.33873e-11 2.0765e-11 5.14998e-11)
(1.33154e-11 3.74898e-11 1.63179e-10)
(7.61184e-11 8.37082e-11 6.12203e-11)
(1.25394e-11 1.98742e-11 2.9061e-11)
(2.74274e-11 2.78157e-11 5.37752e-11)
(8.27881e-11 9.04257e-11 1.03782e-10)
(3.59141e-11 2.72426e-11 2.5435e-10)
(2.13167e-11 2.40882e-11 3.81636e-11)
(2.53152e-10 2.07116e-10 1.62579e-11)
(2.50031e-11 4.85279e-11 4.10599e-11)
(1.53228e-11 1.57922e-10 8.93575e-11)
(3.7659e-10 7.05167e-10 3.78331e-11)
(1.72011e-10 3.67852e-10 1.14318e-10)
(1.05322e-10 1.32746e-10 2.09126e-10)
(2.02884e-11 1.43992e-11 4.11351e-11)
(-3.00115e-12 7.96338e-11 2.73432e-10)
(5.8437e-12 4.19859e-11 3.51775e-11)
(9.57086e-11 2.05623e-10 1.19482e-10)
(4.10712e-11 -1.7016e-10 2.27413e-10)
(3.12629e-11 4.89281e-11 4.03778e-11)
(1.01637e-11 8.6841e-11 2.82657e-10)
(6.97391e-12 2.7706e-12 6.03479e-11)
(7.98263e-12 2.72976e-11 1.85618e-10)
(8.583e-12 1.45234e-11 7.26971e-11)
(2.25491e-11 4.68633e-11 2.97287e-10)
(1.15482e-11 2.9732e-11 1.77964e-10)
(1.57442e-11 2.89468e-11 7.14797e-11)
(3.17498e-10 7.404e-10 5.21001e-11)
(9.75026e-11 2.50361e-10 1.16869e-10)
(1.58705e-10 3.72631e-10 1.36178e-10)
(4.92214e-11 1.26454e-10 2.27253e-10)
(8.21446e-11 1.11604e-10 3.94683e-11)
(1.59816e-11 3.69209e-11 3.00962e-11)
(2.43386e-11 4.07621e-11 6.06632e-11)
(6.94538e-11 1.21477e-10 1.39239e-10)
(3.07751e-11 5.14509e-11 2.85826e-10)
(2.60462e-11 5.2235e-11 5.08449e-11)
(2.13807e-10 4.61368e-10 5.49124e-11)
(3.06701e-10 6.02655e-10 5.74338e-11)
(4.20484e-10 4.6437e-10 3.32873e-11)
(2.78546e-10 3.58331e-10 5.6351e-11)
(2.20304e-10 4.33373e-10 8.2015e-11)
(3.02799e-10 6.25499e-10 3.95859e-11)
(2.69598e-10 3.59283e-10 3.77461e-11)
(2.10171e-10 4.68283e-10 3.9249e-11)
(4.22075e-10 4.63183e-10 2.92148e-11)
(3.00756e-10 6.30303e-10 2.17729e-11)
(2.57782e-10 3.50608e-10 2.19254e-11)
(3.00384e-10 6.30375e-10 2.8495e-11)
(2.61545e-10 3.53585e-10 2.98563e-11)
(2.06704e-10 4.71264e-10 2.66457e-11)
(3.826e-10 7.4089e-10 2.17682e-11)
(3.92405e-10 7.74948e-10 2.11606e-11)
(2.40609e-10 1.11746e-09 2.51835e-11)
(3.46206e-10 8.76515e-10 1.52457e-11)
(3.38061e-10 8.69447e-10 2.27694e-11)
(3.19905e-10 7.84518e-10 4.24136e-11)
(2.30891e-10 1.07351e-09 3.22763e-11)
(3.35767e-10 8.59349e-10 2.58583e-11)
(4.01477e-10 7.75437e-10 1.48435e-11)
(3.94396e-10 7.78315e-10 1.88222e-11)
(1.11509e-11 1.17518e-11 2.52286e-10)
(-6.66075e-12 -6.66328e-12 5.70116e-11)
(3.7461e-12 9.98005e-12 2.37219e-10)
(4.09601e-12 7.20041e-12 6.97555e-11)
(2.16597e-11 2.0037e-11 2.75951e-10)
(4.62772e-12 5.88022e-12 1.87635e-10)
(-2.77836e-12 -3.25034e-12 6.55568e-11)
(1.06391e-11 1.36655e-11 2.45714e-10)
(-5.47031e-12 -1.19691e-11 4.37651e-11)
(6.05183e-12 2.30455e-11 1.7034e-10)
(7.58609e-13 1.53373e-12 6.94647e-11)
(1.90079e-11 3.63459e-11 2.9201e-10)
(3.54902e-12 9.95341e-12 1.32457e-10)
(-3.99095e-12 -7.93501e-12 6.15934e-11)
(1.49079e-11 1.64043e-11 2.67855e-10)
(7.77888e-11 9.03845e-11 1.46602e-10)
(1.93681e-11 1.97702e-11 6.75396e-11)
(1.57364e-11 2.29472e-11 6.94015e-11)
(2.95463e-11 2.75697e-11 2.72382e-10)
(2.82683e-11 4.15698e-11 2.87448e-10)
(5.68355e-12 6.56468e-12 7.08311e-11)
(3.16503e-10 2.81335e-10 4.46384e-11)
(3.04693e-10 2.74452e-10 3.18822e-11)
(2.04807e-10 1.79603e-10 1.53806e-11)
(4.56e-11 4.7311e-11 8.83899e-12)
(2.02518e-10 1.80454e-10 2.23487e-11)
(2.94153e-10 2.64426e-10 1.87941e-11)
(2.99275e-10 2.69008e-10 2.70641e-11)
(1.98019e-10 1.85737e-10 5.1074e-11)
(4.83187e-11 4.68413e-11 1.15588e-11)
(2.15767e-10 1.88111e-10 2.44065e-11)
(-3.30812e-13 -1.95818e-13 -7.79146e-13)
(-1.86467e-13 -1.48783e-13 3.50591e-12)
(-8.06932e-13 -2.05268e-14 -1.43957e-12)
(-4.5998e-13 -5.28042e-14 3.22045e-12)
(-7.89916e-13 -3.47787e-14 -1.59348e-12)
(-8.14369e-13 -4.34302e-14 -1.43268e-12)
(1.01646e-12 -1.26241e-12 1.54231e-11)
(-1.59714e-12 -1.63222e-12 1.31492e-11)
(-2.43435e-12 -1.01448e-12 1.10452e-11)
(-5.70781e-12 -2.80404e-13 7.91911e-12)
(3.62576e-13 -5.49185e-13 1.46213e-12)
(-5.61547e-12 -6.86969e-13 8.42308e-12)
(-4.39251e-12 -1.57777e-12 1.08852e-11)
(6.32127e-13 -7.71598e-13 2.08063e-12)
(-5.50826e-12 -9.49503e-13 8.72086e-12)
(-1.11066e-12 -2.14188e-14 -2.29109e-12)
(-1.02611e-12 -4.10949e-13 4.49829e-13)
(-9.59636e-13 -1.85326e-14 -2.08563e-12)
(-7.74718e-13 -2.83705e-14 -1.66181e-12)
(-8.30935e-13 -5.5235e-13 9.85138e-13)
(-9.30073e-13 -3.18169e-14 -2.03585e-12)
(2.37862e-10 2.26942e-10 -6.08763e-12)
(2.4442e-10 2.3142e-10 -6.56082e-12)
(1.65282e-10 1.5965e-10 -4.49871e-12)
(3.2227e-11 4.26506e-11 -2.4086e-12)
(1.63704e-10 1.58377e-10 -5.23118e-12)
(2.47718e-10 2.35169e-10 -5.38104e-12)
(2.45448e-10 2.32333e-10 -6.08132e-12)
(1.57739e-10 1.54556e-10 -5.3168e-12)
(3.18778e-11 4.22614e-11 -1.90529e-12)
(1.62148e-10 1.56893e-10 -5.18273e-12)
(3.80087e-10 7.41642e-10 -7.14863e-12)
(3.83797e-10 7.42367e-10 -5.96808e-12)
(3.39484e-10 8.76965e-10 -7.13714e-12)
(2.65788e-10 1.15155e-09 -6.63475e-12)
(3.36541e-10 8.63777e-10 -6.55903e-12)
(3.88439e-10 7.53648e-10 -5.01749e-12)
(3.84848e-10 7.41814e-10 -5.96605e-12)
(3.32998e-10 8.67248e-10 -7.39637e-12)
(2.65395e-10 1.15194e-09 -6.12331e-12)
(3.35673e-10 8.64544e-10 -6.44081e-12)
(2.61702e-10 5.91046e-10 -8.95218e-12)
(2.06041e-10 3.07805e-10 -7.67341e-12)
(1.6752e-10 4.43939e-10 -9.28553e-12)
(3.78955e-10 7.42179e-10 -6.98644e-12)
(3.32071e-10 8.68145e-10 -7.46339e-12)
(2.36576e-10 2.26183e-10 -6.38855e-12)
(1.5581e-10 1.53255e-10 -4.92379e-12)
(3.00783e-12 1.42522e-11 4.29723e-11)
(1.66388e-11 -1.7623e-10 2.2703e-10)
(5.83475e-12 3.04882e-11 5.2622e-11)
(1.3655e-11 4.14643e-11 1.71141e-10)
(-1.07636e-11 6.77565e-12 5.10216e-11)
(-7.77714e-12 3.60178e-12 3.27182e-12)
(-1.36233e-11 7.06665e-12 -8.83346e-13)
(-8.77053e-12 3.81483e-12 -1.58564e-11)
(-8.98351e-12 8.41873e-12 -1.52915e-11)
(-1.62073e-11 9.32179e-12 9.45673e-12)
(-3.10574e-12 -1.8437e-13 9.47484e-12)
(-1.02687e-11 7.94844e-12 8.75221e-11)
(-1.37545e-11 1.36008e-11 4.38996e-11)
(-4.03599e-13 9.34742e-12 2.1715e-10)
(-1.86181e-11 1.13822e-11 3.91448e-11)
(-2.19544e-12 5.7463e-12 1.67922e-10)
(-7.24446e-12 1.1861e-11 1.40304e-10)
(-1.87147e-11 1.28392e-11 3.07825e-11)
(-1.08288e-11 8.76941e-12 6.48612e-11)
(-5.95939e-12 1.79963e-11 3.10592e-11)
(-1.61776e-11 1.06719e-11 4.51482e-12)
(-1.97698e-11 1.18631e-11 2.44056e-11)
(-9.29336e-12 1.07207e-11 -5.16824e-12)
(-8.00721e-12 1.30668e-11 1.13066e-10)
(-1.92364e-11 1.18916e-11 1.69695e-11)
(1.28804e-11 3.81274e-11 -2.22625e-11)
(-1.80434e-12 7.50891e-12 -1.07845e-12)
(3.3612e-12 3.11706e-11 -1.84403e-11)
(3.93562e-12 1.03205e-11 6.91008e-12)
(6.03774e-11 5.26257e-11 4.70326e-11)
(-1.18683e-12 2.33925e-11 2.45808e-11)
(-3.42796e-12 1.58033e-11 -3.56742e-13)
(-2.19357e-12 1.96293e-11 1.07349e-11)
(1.87418e-12 3.00211e-11 -6.04138e-12)
(3.3649e-11 4.26053e-11 4.95102e-11)
(6.58539e-12 1.40574e-11 1.63894e-10)
(-7.27618e-12 -4.77085e-12 5.02865e-11)
(4.41704e-13 9.59404e-12 2.22373e-10)
(-1.6148e-11 6.6014e-12 4.40668e-11)
(4.63505e-12 6.21198e-12 1.77705e-10)
(-4.97861e-12 1.35978e-11 1.50673e-10)
(-9.93468e-12 7.80921e-13 4.36601e-11)
(1.85219e-11 2.14308e-11 1.13799e-10)
(1.29708e-11 3.93949e-12 2.67175e-11)
(1.12455e-10 3.60223e-11 5.69723e-11)
(1.07323e-11 1.55473e-11 2.08547e-11)
(4.87445e-11 4.13618e-11 6.026e-11)
(4.89633e-11 1.78951e-11 8.64341e-11)
(7.76175e-13 6.20515e-12 2.92182e-11)
(-4.56903e-12 1.90206e-11 8.76834e-11)
(-1.67585e-12 2.11303e-11 4.11823e-11)
(-1.7154e-11 9.15025e-12 2.92273e-11)
(-3.43156e-12 1.31627e-11 1.95787e-11)
(-5.46362e-12 1.41729e-11 1.22896e-10)
(2.82349e-11 3.58515e-11 6.23896e-11)
(-1.09581e-11 7.13184e-12 3.05546e-11)
(8.83097e-12 8.84103e-11 1.17903e-10)
(-8.9557e-12 1.59175e-11 4.58388e-11)
(-1.66816e-12 1.78825e-12 1.9615e-11)
(1.78539e-11 5.05404e-11 1.55395e-10)
(-2.944e-12 3.43203e-12 1.86323e-11)
(6.66546e-12 8.33534e-11 1.11025e-10)
(-1.75465e-13 8.89403e-13 1.69798e-11)
(-2.1161e-12 -7.7392e-16 1.43361e-11)
(3.83361e-12 6.84822e-11 8.22404e-11)
(-2.28816e-12 2.44286e-12 1.7198e-11)
(1.25414e-12 -1.89117e-13 6.48962e-13)
(3.54851e-12 -1.46418e-12 1.187e-11)
(3.09637e-12 -2.09649e-13 1.83054e-12)
(3.93088e-12 -1.03993e-12 1.22565e-11)
(4.19466e-12 7.11647e-14 3.65568e-12)
(4.85035e-12 -2.71419e-13 3.31225e-12)
(-2.35298e-12 1.63014e-11 7.11064e-11)
(-2.59709e-12 -8.35588e-12 2.97502e-11)
(-2.47021e-12 8.20377e-12 9.63485e-11)
(-4.94408e-12 3.80458e-12 2.85335e-11)
(3.05484e-12 1.03951e-11 1.19976e-10)
(-2.88488e-12 2.95324e-11 8.97798e-11)
(-2.59707e-12 -7.25177e-14 2.32939e-11)
(4.39462e-12 2.29343e-11 5.22545e-11)
(4.99928e-12 -6.30336e-12 9.31022e-12)
(2.07155e-11 9.84256e-13 5.59999e-11)
(5.59723e-13 -2.93208e-12 8.85856e-12)
(2.56919e-12 3.24225e-11 5.2895e-11)
(-1.97005e-12 1.7723e-13 1.23829e-11)
(1.61828e-12 4.62596e-13 2.37205e-12)
(2.43644e-12 6.36985e-11 7.48598e-11)
(-4.22834e-13 -2.1748e-12 8.44149e-12)
(8.24911e-11 1.37313e-11 6.54673e-11)
(2.39065e-11 2.8641e-12 2.42987e-11)
(1.26495e-10 2.36611e-11 6.18012e-11)
(6.0197e-11 -4.46195e-12 -6.88588e-12)
(6.07235e-11 1.41219e-11 5.12961e-11)
(1.74144e-10 1.26224e-11 1.99263e-11)
(3.17076e-11 -1.86329e-12 2.12492e-11)
(6.74066e-11 1.03853e-11 5.78735e-11)
(6.73608e-12 -7.09716e-12 9.94178e-12)
(2.88138e-11 1.99583e-12 5.62338e-11)
(1.39245e-11 -4.13546e-12 1.09592e-11)
(8.82919e-11 1.44643e-11 5.36107e-11)
(6.13001e-11 -7.14091e-12 -8.11688e-12)
(1.85819e-10 1.39485e-11 -4.01192e-12)
(3.8491e-11 -1.21965e-11 1.86256e-11)
(1.94542e-10 4.73088e-10 4.32966e-12)
(4.16318e-10 4.43154e-10 1.03503e-11)
(2.8541e-10 6.34928e-10 2.78683e-12)
(2.29766e-10 3.34696e-10 -1.90969e-12)
(1.863e-10 4.74431e-10 -4.15567e-13)
(2.9438e-10 6.32042e-10 6.27481e-12)
(2.41574e-10 3.4129e-10 2.65271e-12)
(2.00631e-10 4.71536e-10 1.01023e-11)
(4.19398e-10 4.45969e-10 1.16323e-11)
(3.0232e-10 6.28748e-10 1.53056e-11)
(2.55118e-10 3.4827e-10 1.54502e-11)
(2.04472e-10 4.70928e-10 1.7865e-11)
(3.00811e-10 6.29475e-10 1.12923e-11)
(2.49861e-10 3.45268e-10 7.72885e-12)
(2.55772e-10 2.41955e-10 -1.56198e-12)
(2.4562e-10 2.35507e-10 -2.42903e-12)
(1.64078e-10 1.59654e-10 -4.11443e-12)
(3.42272e-11 4.34429e-11 -1.2689e-12)
(1.6437e-10 1.59312e-10 -3.45424e-12)
(2.47193e-10 2.35348e-10 -4.60247e-12)
(2.45716e-10 2.35446e-10 -3.38059e-12)
(1.70972e-10 1.62492e-10 -2.10681e-12)
(3.48834e-11 4.38035e-11 -1.49416e-12)
(1.64179e-10 1.59023e-10 -2.74819e-12)
(4.02367e-10 8.02136e-10 1.30021e-12)
(3.97059e-10 7.93923e-10 -3.24955e-12)
(3.40637e-10 8.84409e-10 -7.29741e-12)
(2.72725e-10 1.20724e-09 -8.75168e-12)
(3.45748e-10 9.17118e-10 -5.97398e-12)
(3.89705e-10 7.59456e-10 -5.05063e-12)
(3.94864e-10 7.85536e-10 -3.64938e-12)
(3.51775e-10 9.32351e-10 1.99825e-12)
(2.75905e-10 1.22774e-09 -4.61233e-12)
(3.47616e-10 9.26432e-10 -5.07004e-12)
(4.03873e-10 7.97466e-10 2.23784e-12)
(4.07202e-10 7.8065e-10 6.74032e-12)
(3.48813e-10 8.746e-10 1.35274e-11)
(2.6564e-10 1.14352e-09 1.45829e-11)
(3.53607e-10 8.83543e-10 1.04434e-11)
(4.03666e-10 7.73811e-10 1.30556e-11)
(4.07802e-10 7.76882e-10 8.19953e-12)
(3.52675e-10 9.25747e-10 3.77083e-12)
(2.70565e-10 1.17459e-09 1.42256e-11)
(3.53606e-10 8.92623e-10 9.25691e-12)
(2.59863e-10 2.44354e-10 -2.49931e-14)
(2.79207e-10 2.56001e-10 4.52614e-12)
(2.02718e-10 1.78382e-10 1.08304e-11)
(4.26723e-11 4.64866e-11 1.65533e-12)
(1.96676e-10 1.75778e-10 5.61336e-12)
(2.92654e-10 2.63182e-10 1.52002e-11)
(2.83158e-10 2.58078e-10 7.16849e-12)
(1.77456e-10 1.66332e-10 -4.95223e-13)
(4.03898e-11 4.59093e-11 7.13101e-13)
(1.89445e-10 1.72629e-10 2.22101e-12)
(-8.03556e-13 -2.06279e-12 2.94217e-11)
(-1.93947e-12 -4.72406e-13 2.75355e-11)
(3.02646e-13 -3.22937e-13 1.41277e-11)
(-2.89619e-12 -1.56074e-13 9.51597e-12)
(-2.86188e-12 -2.04398e-13 9.75706e-12)
(-5.7144e-12 -2.58675e-13 7.82805e-12)
(-4.20793e-13 -1.05908e-13 1.00237e-13)
(-5.74671e-12 -1.69516e-13 7.52419e-12)
(-5.75847e-12 -1.22999e-13 7.23964e-12)
(-4.83627e-13 -9.50578e-14 -2.03107e-14)
(-5.74696e-12 -1.73903e-13 7.45788e-12)
(-1.29244e-12 -2.54589e-16 -2.53131e-12)
(-1.14919e-12 -8.00084e-15 -2.34026e-12)
(-1.5924e-12 -1.00109e-13 -8.61227e-13)
(-1.19924e-12 -1.12474e-14 -2.42987e-12)
(-1.65606e-12 -6.58784e-14 -9.93977e-13)
(-1.26914e-12 -1.17282e-14 -2.5072e-12)
(-1.21815e-12 -8.82896e-16 -2.45079e-12)
(-4.53892e-13 1.36962e-13 1.21357e-12)
(-1.81327e-12 -3.5226e-13 -1.08053e-12)
(-5.34032e-14 4.43192e-13 2.99908e-13)
(-7.18351e-13 6.81336e-14 -4.67754e-12)
(3.33632e-13 1.63187e-12 2.01289e-12)
(-1.7548e-12 -7.35414e-13 3.36712e-13)
(-1.57903e-12 -3.00094e-13 -3.17284e-12)
(-1.00171e-12 6.48039e-13 -5.88313e-12)
(1.67406e-13 -1.36677e-13 -1.92096e-12)
(5.43181e-13 3.17908e-13 -1.42115e-12)
(-1.64901e-12 -5.14563e-13 -1.18505e-11)
(2.16173e-14 5.18039e-13 -4.55457e-12)
(8.22892e-13 5.05255e-13 -2.11955e-12)
(-2.25839e-12 -2.39202e-13 -9.17704e-12)
(7.62247e-12 5.49088e-11 1.26712e-10)
(1.39041e-12 1.34533e-11 4.6336e-11)
(2.89821e-12 6.2733e-11 1.33386e-10)
(-7.00416e-13 1.00083e-11 4.84057e-11)
(-3.5478e-12 3.66083e-11 1.38735e-10)
(1.37914e-11 4.62243e-11 1.37538e-10)
(-6.33803e-13 1.30618e-11 4.17341e-11)
(3.07773e-10 4.35371e-10 9.03129e-11)
(4.02428e-10 5.56787e-10 4.62242e-11)
(4.20464e-10 4.6877e-10 1.33257e-11)
(3.83674e-10 4.34993e-10 4.88345e-11)
(3.72354e-10 4.14689e-10 4.95314e-11)
(3.84572e-10 5.23293e-10 3.61201e-11)
(3.31989e-10 4.79464e-10 6.20421e-11)
(3.52316e-11 1.51387e-10 1.21463e-10)
(1.46232e-11 4.63596e-11 4.34802e-11)
(9.9141e-11 2.86037e-10 1.1908e-10)
(1.69512e-11 4.82498e-11 3.7465e-11)
(4.59035e-11 1.40888e-10 1.37734e-10)
(8.40825e-11 1.52222e-10 1.06398e-10)
(9.14122e-12 4.23007e-11 3.84842e-11)
(-1.50144e-12 -1.28248e-12 6.9206e-13)
(1.51217e-12 -6.97266e-13 6.24787e-12)
(-1.93535e-12 -7.85321e-13 -2.09189e-13)
(9.00225e-13 -4.16809e-13 5.37735e-12)
(-1.61718e-12 -1.30525e-12 2.50119e-13)
(-1.98978e-12 -8.22664e-13 8.29597e-14)
(2.71704e-10 4.36143e-10 -7.84952e-12)
(3.73434e-10 3.96396e-10 -5.01666e-12)
(3.50012e-10 4.86421e-10 -6.66969e-12)
(2.97862e-10 3.4439e-10 -6.71145e-12)
(3.00945e-10 3.47006e-10 -6.06532e-12)
(3.53068e-10 4.88782e-10 -6.57136e-12)
(2.69458e-10 4.34655e-10 -7.80078e-12)
(2.79425e-10 4.44642e-10 -6.9301e-12)
(3.82159e-10 4.05509e-10 -4.7853e-12)
(3.1045e-10 3.57348e-10 -5.04343e-12)
(3.62396e-10 5.00594e-10 -5.01047e-12)
(2.79466e-10 4.46667e-10 -6.45609e-12)
(3.09955e-10 3.55358e-10 -5.96768e-12)
(3.60906e-10 4.9768e-10 -5.50057e-12)
(2.51014e-11 4.9483e-11 4.24015e-11)
(8.01206e-11 1.49977e-10 1.33665e-10)
(-1.49089e-11 2.63933e-11 -6.08152e-12)
(-7.22914e-12 2.43604e-11 -3.45993e-12)
(-3.76415e-12 9.62878e-12 -1.54872e-12)
(-7.29616e-12 2.54408e-11 -4.02792e-12)
(-7.60193e-12 9.8161e-12 -1.17687e-12)
(-6.54727e-13 -1.60739e-12 2.48744e-12)
(3.22533e-12 -1.92941e-12 1.02637e-11)
(6.31372e-13 -1.64335e-12 4.66845e-12)
(4.07227e-12 -1.93094e-12 1.14812e-11)
(7.46759e-12 -1.79422e-13 1.81005e-11)
(3.32861e-12 -8.3363e-13 6.11681e-12)
(2.80521e-10 4.64643e-10 -2.28036e-12)
(3.86938e-10 4.17863e-10 2.3197e-12)
(3.71077e-10 5.26123e-10 9.63251e-13)
(3.14829e-10 3.70026e-10 1.35019e-12)
(2.84977e-10 4.6744e-10 -1.53761e-12)
(3.08855e-10 3.64905e-10 -5.03005e-13)
(3.65214e-10 5.21021e-10 2.77196e-13)
(2.78053e-10 4.51289e-10 -5.39239e-12)
(3.8353e-10 4.10056e-10 -3.40883e-12)
(3.08914e-10 3.57219e-10 -5.1136e-12)
(3.61656e-10 5.02995e-10 -4.65416e-12)
(2.78979e-10 4.48911e-10 -5.95947e-12)
(3.08376e-10 3.58911e-10 -3.9095e-12)
(3.62195e-10 5.05764e-10 -3.97458e-12)
(-4.27365e-12 -1.09602e-13 -7.7315e-12)
(-5.90734e-13 -7.80496e-14 -3.59775e-13)
(-4.32114e-12 -1.16076e-13 -7.96452e-12)
(4.14806e-10 3.84169e-10 4.70319e-11)
(4.08806e-10 3.77053e-10 2.0082e-11)
(4.47521e-10 6.07665e-10 2.94654e-11)
(4.31351e-10 5.79675e-10 -9.65785e-12)
(3.29601e-10 4.89566e-10 4.23415e-11)
(4.07706e-10 5.69345e-10 3.13944e-11)
(4.25963e-10 4.7321e-10 3.86212e-11)
(3.78317e-10 4.27986e-10 3.82597e-11)
(3.33209e-10 4.86555e-10 4.99725e-11)
(3.95011e-10 5.54214e-10 3.41457e-11)
(3.67622e-10 4.17547e-10 3.82722e-11)
(3.16816e-10 4.83995e-10 2.29044e-11)
(4.20796e-10 4.55812e-10 2.2962e-11)
(3.9434e-10 5.43513e-10 1.94868e-11)
(3.52707e-10 3.98243e-10 2.04451e-11)
(3.93302e-10 5.44958e-10 2.12576e-11)
(3.53188e-10 4.00599e-10 2.35871e-11)
(3.17369e-10 4.82716e-10 2.03488e-11)
(4.65699e-10 6.24378e-10 2.2693e-11)
(4.54151e-10 6.10661e-10 3.07666e-11)
(4.65688e-10 6.00569e-10 1.80053e-11)
(4.63003e-10 6.01273e-10 2.02119e-11)
(4.08273e-10 3.75178e-10 4.20304e-11)
(3.99495e-10 3.67032e-10 4.31441e-11)
(3.80386e-10 3.43475e-10 2.10464e-11)
(3.81871e-10 3.46844e-10 2.4506e-11)
(-1.14395e-12 -6.18476e-13 6.70964e-13)
(1.18491e-13 -5.43736e-13 4.12149e-12)
(-1.30913e-12 -3.6269e-13 4.40169e-13)
(-3.95379e-13 -2.52279e-13 3.34737e-12)
(-1.67433e-12 -3.4898e-13 -2.02687e-13)
(-1.56206e-12 -2.26085e-13 -6.73443e-14)
(-4.00919e-12 -1.96522e-13 -7.41218e-12)
(1.83259e-14 -2.98572e-13 7.68743e-13)
(-3.92781e-12 -2.59452e-13 -7.44881e-12)
(-2.51025e-12 -1.60026e-12 -3.02896e-12)
(1.20162e-12 -1.07499e-12 4.14006e-12)
(-2.74765e-12 -1.55782e-12 -4.56572e-12)
(-2.59253e-12 -1.37913e-13 -3.08043e-12)
(-1.23593e-12 -2.68517e-13 -1.46383e-13)