/*--------------------------------*- C++ -*----------------------------------*\
| =========                 |                                                 |
| \\      /  F ield         | OpenFOAM: The Open Source CFD Toolbox           |
|  \\    /   O peration     | Version:  2012                                  |
|   \\  /    A nd           | Website:  www.openfoam.com                      |
|    \\/     M anipulation  |                                                 |
\*---------------------------------------------------------------------------*/
FoamFile
{
    version     2.0;
    format      ascii;
    class       volVectorField;
    location    "0.104/solid";
    object      D_0_0_0;
}
// * * * * * * * * * * * * * * * * * * * * * * * * * * * * * * * * * * * * * //

dimensions      [0 1 0 0 0 0 0];


internalField   nonuniform List<vector> 
3124
(
(1.78916e-11 5.44703e-11 4.06661e-11)
(-3.16078e-13 -1.18937e-13 -1.46165e-12)
(3.23946e-12 -4.02878e-13 1.99552e-11)
(7.58177e-11 2.25274e-10 -6.90658e-12)
(1.60508e-12 6.21398e-13 3.56633e-11)
(-1.0194e-13 -1.25369e-13 -2.32522e-12)
(4.17287e-12 -5.11421e-13 2.01763e-11)
(7.67369e-11 2.29826e-10 -6.91169e-12)
(1.61627e-12 2.24371e-13 3.6019e-11)
(-6.91839e-13 8.17405e-12 1.74227e-11)
(1.41053e-11 3.76804e-11 5.04192e-11)
(8.24163e-11 2.24837e-10 2.98809e-11)
(-6.1917e-13 -1.00353e-11 3.07329e-11)
(4.0267e-13 -4.80788e-13 1.37924e-11)
(-5.16807e-12 6.77193e-12 1.46481e-11)
(4.0406e-12 -6.4507e-12 2.98948e-11)
(1.93269e-12 1.80669e-11 4.89079e-11)
(3.37774e-12 -6.74867e-12 2.39322e-11)
(8.42713e-12 -4.79871e-12 2.51091e-11)
(8.18622e-11 2.30297e-10 1.38865e-11)
(-1.73836e-12 -7.53627e-13 2.68477e-11)
(-1.91471e-12 -6.3792e-13 2.65799e-11)
(3.5817e-13 -4.5233e-13 1.36705e-11)
(4.34924e-10 4.81085e-10 3.7047e-11)
(2.8106e-11 4.05883e-11 3.4675e-11)
(2.11503e-11 6.27787e-11 3.76046e-11)
(5.70487e-11 1.485e-10 9.58055e-11)
(1.80376e-10 5.8135e-10 1.95594e-10)
(1.77825e-11 2.93098e-11 2.75378e-11)
(1.04922e-10 1.25153e-10 7.87917e-11)
(1.44724e-12 -1.14414e-12 5.92119e-12)
(1.39283e-12 -2.12777e-12 1.78583e-11)
(1.23146e-12 -7.91756e-13 5.71755e-12)
(3.72077e-10 3.85466e-10 -5.08172e-12)
(5.79142e-11 1.50378e-10 -5.30065e-12)
(2.43254e-10 8.9469e-10 -1.25593e-11)
(7.4694e-11 2.22716e-10 -5.81517e-12)
(3.86247e-10 3.99667e-10 -4.25311e-12)
(2.39812e-10 8.8404e-10 -8.30702e-12)
(5.59347e-11 1.4808e-10 -5.21498e-12)
(2.18185e-11 6.74872e-11 3.75615e-11)
(7.23301e-12 -1.05886e-11 4.24595e-11)
(-2.51449e-12 1.23107e-12 -8.11716e-12)
(-5.83038e-12 8.78429e-12 7.68844e-13)
(-1.17763e-11 1.26435e-11 -2.80424e-13)
(8.43191e-12 -9.6999e-14 2.54668e-11)
(2.02369e-12 -1.58857e-12 7.40208e-12)
(6.3194e-12 -4.32861e-13 1.7529e-11)
(3.96214e-10 4.15613e-10 3.52657e-12)
(7.80252e-11 2.3346e-10 -2.8715e-12)
(5.76949e-11 1.53043e-10 -5.09669e-12)
(2.45333e-10 9.07252e-10 -1.19092e-11)
(3.85531e-10 4.00186e-10 -4.16373e-12)
(2.50403e-10 9.34792e-10 -2.05048e-14)
(5.9262e-11 1.55916e-10 -3.76503e-12)
(2.2386e-13 -3.24177e-12 3.4709e-11)
(-2.29137e-12 -4.1729e-13 2.52709e-11)
(7.22283e-14 -2.7505e-13 1.28159e-11)
(-8.69146e-13 -8.403e-14 -1.09424e-12)
(2.10032e-12 8.98287e-12 9.16492e-12)
(-4.81747e-12 1.06626e-11 6.04793e-11)
(2.66141e-11 2.91293e-11 3.32186e-11)
(5.49367e-11 4.24983e-11 2.83356e-11)
(7.9216e-12 4.44487e-11 4.79198e-11)
(4.00737e-12 -6.37841e-12 5.54457e-11)
(2.19742e-10 8.29778e-10 -1.61239e-12)
(2.7966e-11 4.05619e-11 3.56902e-11)
(4.38968e-10 4.801e-10 3.20514e-11)
(8.15639e-11 2.03047e-10 6.56297e-11)
(2.33252e-10 8.84663e-10 3.11247e-11)
(8.16108e-11 1.61284e-10 1.70458e-11)
(1.99514e-10 7.5956e-10 1.04611e-10)
(4.23933e-10 4.4638e-10 1.86694e-11)
(8.80652e-11 1.56025e-10 4.63778e-11)
(2.62564e-10 1.12667e-09 1.42112e-11)
(2.12319e-10 9.47592e-10 6.83074e-11)
(-5.71748e-12 2.35208e-12 6.25508e-11)
(-4.45132e-12 -1.08144e-11 5.07304e-11)
(3.28317e-11 3.55984e-11 5.16334e-11)
(4.49101e-11 4.57074e-11 5.74551e-12)
(4.78257e-11 4.85649e-11 1.90303e-11)
(8.42089e-14 -8.7826e-13 3.83434e-12)
(-4.15157e-13 -4.85686e-13 3.24269e-12)
(1.68699e-12 -2.24903e-12 1.69222e-11)
(-3.82532e-13 -2.32944e-13 -1.42186e-13)
(7.23054e-13 -1.02284e-12 3.6843e-12)
(-1.58193e-12 -2.19384e-13 -9.71482e-13)
(-7.84386e-13 -6.07001e-13 1.95648e-12)
(3.25002e-11 4.16415e-11 -1.61739e-12)
(3.01648e-11 4.05154e-11 -2.34892e-12)
(2.77057e-10 1.1519e-09 -8.35843e-12)
(2.74137e-10 1.14528e-09 -6.44122e-12)
(3.70566e-10 3.84584e-10 -5.07622e-12)
(7.35003e-11 2.21276e-10 -5.53375e-12)
(2.38777e-10 8.84475e-10 -1.00904e-11)
(5.32958e-11 1.4626e-10 -4.85486e-12)
(2.73281e-10 1.14763e-09 -7.79588e-12)
(2.9758e-11 4.01868e-11 -1.66234e-12)
(2.7692e-11 4.72047e-11 4.94522e-11)
(1.96617e-11 1.44491e-12 3.96849e-11)
(-6.49039e-12 2.17904e-12 -3.71606e-12)
(-1.36463e-11 1.01593e-11 5.09492e-11)
(-1.68078e-11 1.2548e-11 9.98389e-12)
(-2.29064e-12 7.08483e-12 -3.23112e-12)
(-9.46305e-12 1.52382e-11 6.548e-12)
(-1.15053e-11 3.15752e-12 5.42266e-11)
(3.31265e-11 1.23221e-11 2.98614e-12)
(-1.27177e-11 1.25128e-11 1.57842e-11)
(-3.25877e-12 -3.27227e-12 3.05252e-11)
(-1.87076e-12 -3.7255e-12 3.98972e-11)
(5.57862e-12 4.88296e-12 2.03382e-11)
(5.64324e-13 -1.23897e-12 4.95742e-12)
(3.88947e-12 2.84133e-13 1.31044e-11)
(-5.24638e-12 -7.36163e-12 3.41868e-11)
(2.86104e-12 4.4423e-12 1.28369e-11)
(4.36442e-11 3.06997e-12 9.21458e-13)
(4.00462e-10 4.18832e-10 5.00467e-12)
(7.99849e-11 2.33108e-10 4.26267e-12)
(2.39238e-10 8.88274e-10 2.14648e-11)
(7.56539e-11 1.61008e-10 6.63924e-12)
(4.26898e-10 4.46334e-10 1.62375e-11)
(2.4963e-10 9.2503e-10 8.3551e-12)
(6.69603e-11 1.59024e-10 -2.45109e-13)
(3.27187e-11 4.1941e-11 -2.01628e-12)
(3.6252e-11 4.30736e-11 -9.75038e-13)
(2.79739e-10 1.17224e-09 -9.33876e-12)
(2.87412e-10 1.22022e-09 1.75488e-12)
(2.70519e-10 1.12538e-09 1.24904e-11)
(2.85595e-10 1.20018e-09 9.07551e-12)
(4.43724e-11 4.57508e-11 4.00053e-12)
(3.7374e-11 4.37555e-11 -9.04133e-13)
(-3.56135e-13 -3.32502e-12 3.06999e-11)
(-2.23268e-12 -4.64733e-13 2.55555e-11)
(6.07592e-14 -2.7061e-13 1.2889e-11)
(-5.17158e-13 -1.9642e-13 -3.70208e-13)
(-8.20809e-13 -8.65891e-14 -9.94158e-13)
(-1.98177e-12 -5.42832e-14 -1.89968e-12)
(-1.70182e-12 -1.61016e-13 -1.22597e-12)
(-1.93086e-12 -7.97132e-14 -1.78909e-12)
(2.61712e-10 9.53297e-10 -1.03623e-11)
(-7.67283e-12 -3.52013e-12 -4.35414e-12)
(-1.10393e-12 -1.60865e-12 -3.65501e-14)
(-7.41225e-13 -3.25322e-13 1.49582e-11)
(1.97153e-12 -5.75584e-13 1.99315e-11)
(-1.06193e-12 -4.69703e-13 1.51539e-11)
(3.31193e-12 7.81379e-13 3.64048e-11)
(-8.15147e-12 1.11482e-11 -5.20814e-11)
(2.78624e-13 -2.07968e-13 -1.16372e-12)
(-1.22654e-12 -1.65074e-12 -2.5886e-13)
(4.89692e-13 2.11329e-12 -5.15893e-12)
(7.22834e-12 -8.05157e-13 2.21114e-11)
(-6.88182e-13 -5.55114e-13 1.47992e-11)
(-8.22069e-13 -1.03262e-12 1.62315e-11)
(1.90772e-12 -1.88631e-13 3.69413e-11)
(4.89195e-11 1.01552e-11 1.23207e-10)
(3.67056e-12 8.58578e-12 1.473e-11)
(-1.6053e-12 1.71256e-11 3.80881e-11)
(-6.79255e-13 -5.12617e-12 4.81114e-11)
(-2.34422e-12 2.65571e-12 1.65319e-10)
(9.76604e-12 1.84484e-11 3.35077e-11)
(2.67686e-12 -2.08878e-12 3.8673e-11)
(-1.1695e-11 1.24631e-10 2.5967e-10)
(2.53801e-11 4.24127e-11 6.01393e-11)
(4.67076e-11 -2.896e-11 2.11647e-10)
(1.59995e-11 1.93299e-11 5.72513e-11)
(-3.18675e-11 3.08048e-10 1.38215e-10)
(4.4989e-11 6.57221e-11 1.62115e-10)
(3.38316e-11 3.87581e-11 6.06144e-11)
(8.00686e-12 8.89409e-12 2.20339e-10)
(1.08301e-11 1.91908e-12 8.92233e-11)
(-4.92302e-12 -1.15435e-11 4.29072e-11)
(-4.92532e-12 -1.20556e-11 3.56749e-11)
(5.37055e-12 4.68771e-12 1.59025e-10)
(4.2603e-12 5.12909e-12 1.13121e-10)
(-6.42073e-12 -1.21009e-11 5.10898e-11)
(7.95906e-13 -1.00701e-12 1.43212e-11)
(-2.9036e-12 -3.56535e-13 9.5427e-12)
(-2.722e-12 -7.74078e-13 1.00692e-11)
(-4.66867e-12 4.21444e-11 5.96329e-11)
(-1.66999e-11 -3.24595e-11 2.12991e-10)
(8.3531e-11 3.19385e-10 1.18104e-10)
(-1.04044e-11 5.46863e-12 7.0017e-11)
(-7.5061e-12 5.06934e-12 9.04877e-12)
(-1.15162e-11 1.4291e-11 3.14571e-11)
(-1.49943e-12 -4.6021e-12 4.36586e-11)
(-3.05499e-12 3.01715e-12 1.46216e-10)
(-1.60588e-11 1.16133e-11 2.03048e-11)
(-3.02797e-12 -1.35437e-12 1.76353e-11)
(1.41514e-11 1.28111e-11 1.37378e-10)
(1.48089e-11 2.93257e-12 9.11965e-11)
(-1.84273e-12 -8.07156e-12 3.8782e-11)
(7.07267e-12 -2.08942e-12 2.97772e-11)
(5.9439e-12 5.23029e-12 1.49809e-10)
(3.63547e-11 1.25518e-11 9.46523e-11)
(-1.07346e-12 -2.5369e-12 3.6049e-11)
(3.43282e-12 2.40378e-12 6.32059e-11)
(1.27327e-11 1.31506e-12 8.25014e-11)
(-2.1771e-12 -8.24409e-12 2.61591e-11)
(6.74286e-12 -5.73908e-12 1.96116e-11)
(3.20243e-12 5.28524e-12 1.0189e-10)
(1.89466e-11 -2.89671e-14 6.96575e-11)
(3.73009e-14 -4.78044e-12 2.04738e-11)
(6.24494e-11 7.45121e-12 6.89296e-11)
(1.78413e-11 1.89442e-12 8.5421e-11)
(1.35638e-11 -1.76415e-12 2.63749e-11)
(1.19689e-11 -5.14791e-12 2.15718e-11)
(4.37771e-11 1.03891e-11 9.52322e-11)
(2.60437e-11 5.42245e-13 6.71932e-11)
(1.94512e-11 -3.27853e-12 2.27065e-11)
(-1.48321e-12 -1.18239e-12 2.7131e-11)
(-2.03273e-12 -5.71264e-13 2.62462e-11)
(1.9436e-13 -3.39722e-13 1.33327e-11)
(-2.93301e-12 -3.18847e-13 9.43512e-12)
(-3.01524e-12 -2.30898e-13 9.0975e-12)
(1.23651e-10 2.42341e-10 1.41852e-10)
(2.95516e-10 5.3945e-10 9.69618e-11)
(3.12676e-10 3.48198e-10 -5.07371e-12)
(2.68598e-10 3.49112e-10 8.22504e-11)
(1.85387e-10 2.25471e-10 1.20568e-10)
(2.23852e-10 3.86811e-10 1.31233e-10)
(2.07998e-10 4.02121e-10 9.61557e-11)
(4.84031e-11 1.30357e-10 1.15854e-10)
(4.01213e-11 6.67801e-11 8.85488e-11)
(1.50888e-11 2.86031e-11 2.86074e-11)
(1.79677e-11 4.18949e-11 3.01707e-11)
(5.48776e-11 9.70769e-11 8.61428e-11)
(7.34945e-11 1.54058e-10 9.0314e-11)
(1.17059e-11 3.61464e-11 3.45356e-11)
(-6.48923e-12 -5.39556e-12 -6.41835e-12)
(-3.41e-12 -5.61348e-13 1.30165e-11)
(8.33604e-13 -9.86296e-14 4.86709e-12)
(-4.06207e-12 -3.8193e-13 1.2641e-11)
(1.69748e-12 -8.93475e-13 1.97525e-11)
(-1.47216e-12 -1.52623e-12 1.33214e-11)
(-1.08133e-12 -6.68165e-13 1.49334e-11)
(5.83962e-13 -4.44915e-14 4.83449e-12)
(-4.08273e-12 -1.41007e-12 1.1071e-11)
(-3.82459e-12 -4.9044e-13 1.24516e-11)
(1.76104e-10 4.40606e-10 -9.54712e-12)
(3.80538e-10 3.92664e-10 -4.64719e-12)
(2.69134e-10 5.84214e-10 -7.6783e-12)
(2.10266e-10 3.03631e-10 -8.07399e-12)
(2.14344e-10 3.06996e-10 -7.85781e-12)
(2.72926e-10 5.8615e-10 -8.4218e-12)
(1.73117e-10 4.38539e-10 -8.9721e-12)
(1.78142e-10 4.42382e-10 -9.22527e-12)
(3.81809e-10 3.93732e-10 -4.76837e-12)
(2.18215e-10 3.12544e-10 -6.52418e-12)
(2.77465e-10 5.94824e-10 -8.85534e-12)
(1.7901e-10 4.47361e-10 -9.34861e-12)
(2.16903e-10 3.09219e-10 -7.76245e-12)
(2.75958e-10 5.88811e-10 -7.72373e-12)
(4.66926e-12 3.48636e-12 3.67128e-11)
(-7.3288e-12 7.73469e-12 -5.15801e-11)
(9.51523e-13 -1.19421e-13 -8.18594e-12)
(-8.38138e-12 5.06884e-12 -8.95762e-12)
(-6.8138e-13 3.90832e-12 -3.57554e-11)
(-8.93487e-12 9.28376e-12 -3.17215e-11)
(-3.16186e-12 2.2362e-12 -1.24957e-11)
(8.93832e-12 8.83128e-13 -4.00359e-11)
(-2.50707e-12 1.26724e-11 -4.47883e-11)
(4.68213e-12 2.83111e-11 -1.90432e-11)
(-5.00613e-12 1.37762e-11 -4.32471e-12)
(-2.44413e-13 2.39253e-11 -1.11866e-11)
(-9.86571e-13 3.39406e-12 -4.66361e-12)
(-5.96122e-12 1.12056e-11 -4.4546e-11)
(-1.4493e-11 2.23203e-11 -1.0311e-11)
(-1.04478e-11 9.42507e-12 -5.05744e-12)
(-4.94157e-12 1.1278e-11 -4.99486e-12)
(-9.55336e-12 1.05221e-11 -2.08028e-11)
(-1.19236e-12 2.18919e-11 -1.84045e-11)
(-5.7512e-12 8.60405e-12 -8.5091e-12)
(7.6093e-12 -6.20507e-13 2.29122e-11)
(-5.2645e-13 7.69272e-13 1.90972e-11)
(-8.45228e-13 -7.97149e-13 1.69356e-11)
(-2.71546e-12 -6.4754e-13 1.31927e-11)
(6.04565e-12 -1.50626e-12 1.48697e-11)
(-2.13955e-12 -7.51035e-13 1.39224e-11)
(-8.68614e-13 -1.83841e-13 1.65151e-11)
(6.47243e-12 -1.06769e-12 1.49322e-11)
(-2.32685e-12 -6.30346e-13 1.42566e-11)
(1.79837e-10 4.64747e-10 -6.24306e-12)
(3.85604e-10 4.04968e-10 -9.23566e-13)
(2.82897e-10 6.28268e-10 -2.53357e-12)
(2.22981e-10 3.23905e-10 -3.77135e-12)
(1.84116e-10 4.68933e-10 -4.28826e-12)
(2.17005e-10 3.18645e-10 -4.53438e-12)
(2.78219e-10 6.23226e-10 -5.08226e-12)
(1.78555e-10 4.59851e-10 -7.83108e-12)
(3.85962e-10 4.0411e-10 -1.95795e-12)
(2.1754e-10 3.14063e-10 -5.8553e-12)
(2.77469e-10 6.03289e-10 -8.01379e-12)
(1.79006e-10 4.52086e-10 -8.53602e-12)
(2.16352e-10 3.16862e-10 -4.56068e-12)
(2.76992e-10 6.1398e-10 -8.0571e-12)
(9.47971e-13 -1.53351e-12 3.72388e-11)
(-2.33405e-12 -3.46084e-13 2.49902e-11)
(6.3519e-15 -1.86677e-13 1.26005e-11)
(-3.06512e-12 -1.7069e-13 8.69353e-12)
(-5.93072e-12 -1.49186e-13 6.46169e-12)
(3.29309e-10 2.95386e-10 4.99127e-11)
(1.64815e-10 1.45889e-10 1.13192e-10)
(-1.15754e-11 -4.26946e-12 1.08565e-10)
(3.19462e-12 7.77513e-12 1.00945e-11)
(1.66123e-12 1.6205e-11 2.75153e-11)
(2.14371e-11 2.79102e-11 2.6417e-11)
(-3.17586e-11 4.91356e-11 1.45538e-10)
(5.72663e-12 1.42852e-11 2.5586e-11)
(1.49151e-11 -1.00108e-13 1.27503e-11)
(4.46182e-11 1.85803e-11 1.67945e-10)
(-3.31561e-12 1.53078e-11 5.18898e-11)
(3.33759e-12 9.38199e-12 2.29751e-10)
(1.06044e-11 1.60182e-11 6.3357e-11)
(2.38127e-11 2.02275e-11 2.64078e-10)
(-6.7732e-13 6.04974e-12 1.84108e-10)
(1.31607e-11 2.04297e-11 5.04846e-11)
(1.35161e-11 3.67716e-11 1.60082e-10)
(7.65106e-11 8.24107e-11 5.93002e-11)
(1.25491e-11 1.95124e-11 2.83925e-11)
(2.71694e-11 2.73665e-11 5.27716e-11)
(8.23867e-11 8.89671e-11 1.01513e-10)
(3.58321e-11 2.67314e-11 2.50083e-10)
(2.11041e-11 2.36625e-11 3.73732e-11)
(2.50212e-10 2.03666e-10 1.51751e-11)
(2.4554e-11 4.75687e-11 4.00367e-11)
(1.60397e-11 1.55279e-10 8.72633e-11)
(3.80941e-10 7.00853e-10 3.55573e-11)
(1.7464e-10 3.65344e-10 1.12123e-10)
(1.06765e-10 1.31896e-10 2.07744e-10)
(2.13006e-11 1.4139e-11 4.05998e-11)
(4.33836e-13 7.91252e-11 2.71211e-10)
(6.63664e-12 4.16473e-11 3.458e-11)
(9.80037e-11 2.04209e-10 1.1762e-10)
(4.41895e-11 -1.6995e-10 2.26198e-10)
(3.18321e-11 4.85159e-11 3.98154e-11)
(1.14484e-11 8.60758e-11 2.7977e-10)
(7.11619e-12 2.33809e-12 5.9226e-11)
(8.33772e-12 2.64612e-11 1.80634e-10)
(8.55964e-12 1.41077e-11 7.16677e-11)
(2.29534e-11 4.62183e-11 2.93791e-10)
(1.21432e-11 2.88483e-11 1.74792e-10)
(1.59695e-11 2.84931e-11 7.06029e-11)
(3.22674e-10 7.36378e-10 4.98079e-11)
(1.02671e-10 2.49749e-10 1.15105e-10)
(1.61783e-10 3.70318e-10 1.33984e-10)
(5.04822e-11 1.2556e-10 2.25479e-10)
(8.29124e-11 1.10258e-10 3.76955e-11)
(1.63984e-11 3.6601e-11 2.95271e-11)
(2.42656e-11 4.03208e-11 5.98363e-11)
(7.14255e-11 1.20426e-10 1.37197e-10)
(3.12124e-11 5.08475e-11 2.82446e-10)
(2.63056e-11 5.17867e-11 5.02048e-11)
(2.16922e-10 4.57104e-10 5.28547e-11)
(3.10273e-10 5.98177e-10 5.48885e-11)
(4.22742e-10 4.57628e-10 3.11358e-11)
(2.7885e-10 3.54064e-10 5.41051e-11)
(2.22709e-10 4.29744e-10 7.96354e-11)
(3.06993e-10 6.20154e-10 3.73219e-11)
(2.7049e-10 3.54551e-10 3.57759e-11)
(2.13671e-10 4.63795e-10 3.74436e-11)
(4.24612e-10 4.56388e-10 2.71943e-11)
(3.05853e-10 6.24246e-10 2.01578e-11)
(2.59408e-10 3.4545e-10 2.04535e-11)
(3.05089e-10 6.24656e-10 2.65759e-11)
(2.62843e-10 3.48682e-10 2.80907e-11)
(2.10516e-10 4.6649e-10 2.51508e-11)
(3.87494e-10 7.36159e-10 1.94977e-11)
(3.98141e-10 7.68689e-10 1.9165e-11)
(2.50798e-10 1.11175e-09 2.36556e-11)
(3.53976e-10 8.69978e-10 1.38444e-11)
(3.45196e-10 8.63485e-10 2.09451e-11)
(3.25686e-10 7.80103e-10 4.01301e-11)
(2.40368e-10 1.06838e-09 3.04678e-11)
(3.42581e-10 8.53578e-10 2.38905e-11)
(4.08065e-10 7.68556e-10 1.34109e-11)
(4.00392e-10 7.71975e-10 1.69817e-11)
(1.11129e-11 1.12756e-11 2.46708e-10)
(-6.44777e-12 -6.77087e-12 5.58394e-11)
(3.59619e-12 9.71394e-12 2.33075e-10)
(4.06967e-12 6.95758e-12 6.84377e-11)
(2.1575e-11 1.96164e-11 2.71127e-10)
(4.55184e-12 5.44794e-12 1.83814e-10)
(-2.71147e-12 -3.42733e-12 6.41598e-11)
(1.06709e-11 1.31e-11 2.40403e-10)
(-5.3799e-12 -1.21699e-11 4.25537e-11)
(6.33313e-12 2.21568e-11 1.65581e-10)
(6.6703e-13 1.24308e-12 6.82255e-11)
(1.92482e-11 3.5714e-11 2.87882e-10)
(3.61109e-12 8.97591e-12 1.28546e-10)
(-4.00173e-12 -8.09702e-12 6.02405e-11)
(1.49127e-11 1.5898e-11 2.62373e-10)
(7.81312e-11 8.92379e-11 1.43897e-10)
(1.91762e-11 1.94006e-11 6.63163e-11)
(1.55603e-11 2.25736e-11 6.82635e-11)
(2.95136e-11 2.70743e-11 2.67684e-10)
(2.85216e-11 4.0955e-11 2.83518e-10)
(5.56193e-12 6.29416e-12 6.94681e-11)
(3.15026e-10 2.77071e-10 4.25642e-11)
(3.03956e-10 2.69738e-10 3.00712e-11)
(2.03592e-10 1.75823e-10 1.42858e-11)
(4.51611e-11 4.61836e-11 8.32902e-12)
(2.01282e-10 1.76811e-10 2.10456e-11)
(2.93973e-10 2.59435e-10 1.74616e-11)
(2.9874e-10 2.64273e-10 2.53724e-11)
(1.96386e-10 1.82437e-10 4.92475e-11)
(4.77404e-11 4.57767e-11 1.0983e-11)
(2.14019e-10 1.84523e-10 2.30212e-11)
(-4.38458e-13 -1.94681e-13 -9.38067e-13)
(-3.65842e-13 -1.6345e-13 3.02311e-12)
(-9.06474e-13 -2.3032e-14 -1.60464e-12)
(-6.40529e-13 -8.08234e-14 2.74001e-12)
(-9.16855e-13 -3.54404e-14 -1.78682e-12)
(-9.34281e-13 -5.09352e-14 -1.61815e-12)
(8.87192e-13 -1.31363e-12 1.46361e-11)
(-1.76298e-12 -1.65612e-12 1.25136e-11)
(-2.59824e-12 -1.04011e-12 1.03878e-11)
(-5.88215e-12 -2.9984e-13 7.25499e-12)
(1.0476e-13 -5.53216e-13 7.30953e-13)
(-5.78981e-12 -7.10465e-13 7.78244e-12)
(-4.57636e-12 -1.59912e-12 1.02805e-11)
(3.65635e-13 -7.72214e-13 1.33599e-12)
(-5.68546e-12 -9.69549e-13 8.09237e-12)
(-1.23187e-12 -2.14059e-14 -2.47691e-12)
(-1.25624e-12 -4.11712e-13 -1.72626e-13)
(-1.08319e-12 -1.83437e-14 -2.27343e-12)
(-9.02355e-13 -2.84419e-14 -1.85443e-12)
(-1.06707e-12 -5.52267e-13 3.5325e-13)
(-1.05472e-12 -3.15226e-14 -2.22471e-12)
(2.37203e-10 2.21442e-10 -5.88767e-12)
(2.43953e-10 2.25904e-10 -6.41788e-12)
(1.64129e-10 1.55503e-10 -4.49768e-12)
(3.17133e-11 4.13279e-11 -2.38429e-12)
(1.62382e-10 1.54213e-10 -5.17233e-12)
(2.47553e-10 2.29676e-10 -5.37288e-12)
(2.4501e-10 2.26825e-10 -5.97127e-12)
(1.56242e-10 1.50405e-10 -5.18479e-12)
(3.13173e-11 4.09398e-11 -1.86828e-12)
(1.60709e-10 1.52735e-10 -5.08087e-12)
(3.85073e-10 7.32388e-10 -6.85805e-12)
(3.89141e-10 7.33173e-10 -5.7447e-12)
(3.46569e-10 8.67844e-10 -7.09473e-12)
(2.75477e-10 1.14143e-09 -6.54608e-12)
(3.43228e-10 8.5447e-10 -6.39989e-12)
(3.94289e-10 7.44647e-10 -4.93631e-12)
(3.90302e-10 7.32657e-10 -5.76664e-12)
(3.39184e-10 8.5784e-10 -7.1382e-12)
(2.74805e-10 1.14173e-09 -5.97964e-12)
(3.42204e-10 8.55208e-10 -6.25553e-12)
(2.65669e-10 5.83055e-10 -8.68172e-12)
(2.0705e-10 3.01776e-10 -7.45683e-12)
(1.70624e-10 4.37676e-10 -9.0898e-12)
(3.8382e-10 7.32909e-10 -6.68236e-12)
(3.38144e-10 8.58726e-10 -7.1898e-12)
(2.35831e-10 2.20691e-10 -6.16987e-12)
(1.54176e-10 1.49117e-10 -4.76551e-12)
(4.67033e-12 1.38373e-11 4.24305e-11)
(2.04856e-11 -1.76323e-10 2.25825e-10)
(7.17083e-12 3.05004e-11 5.14356e-11)
(1.68848e-11 4.15042e-11 1.67717e-10)
(-1.09316e-11 6.74705e-12 4.73998e-11)
(-7.77289e-12 3.4291e-12 2.76414e-12)
(-1.36417e-11 6.79412e-12 -1.75767e-12)
(-8.85446e-12 3.80823e-12 -1.76808e-11)
(-9.31149e-12 8.33658e-12 -1.86323e-11)
(-1.6215e-11 9.07408e-12 8.54491e-12)
(-3.13496e-12 -1.75878e-14 7.94238e-12)
(-1.04487e-11 7.85018e-12 8.38363e-11)
(-1.37768e-11 1.34505e-11 4.27909e-11)
(-5.6594e-13 9.13521e-12 2.1295e-10)
(-1.86432e-11 1.12898e-11 3.80756e-11)
(-2.33875e-12 5.66328e-12 1.63863e-10)
(-7.4991e-12 1.15854e-11 1.36555e-10)
(-1.87245e-11 1.27094e-11 2.97282e-11)
(-1.10462e-11 8.65231e-12 6.11963e-11)
(-6.61395e-12 1.75742e-11 2.76595e-11)
(-1.62499e-11 1.05124e-11 3.54486e-12)
(-1.98399e-11 1.17205e-11 2.33748e-11)
(-9.70467e-12 1.0504e-11 -8.56039e-12)
(-8.32942e-12 1.27629e-11 1.09405e-10)
(-1.92759e-11 1.1752e-11 1.59595e-11)
(9.65767e-12 3.76983e-11 -2.32788e-11)
(-2.09051e-12 7.3145e-12 -1.50053e-12)
(1.46129e-12 3.02371e-11 -2.07285e-11)
(3.64416e-12 1.01067e-11 6.40399e-12)
(5.88153e-11 5.14705e-11 4.41145e-11)
(-2.08404e-12 2.28339e-11 2.1225e-11)
(-3.90713e-12 1.53857e-11 -1.24459e-12)
(-2.70905e-12 1.92184e-11 9.7431e-12)
(5.8167e-13 2.91801e-11 -8.51918e-12)
(3.22962e-11 4.16037e-11 4.62785e-11)
(6.2013e-12 1.35638e-11 1.60715e-10)
(-7.18725e-12 -4.83222e-12 4.93916e-11)
(2.72247e-13 9.35413e-12 2.18423e-10)
(-1.62519e-11 6.56542e-12 4.30385e-11)
(4.51963e-12 5.73777e-12 1.74759e-10)
(-5.27113e-12 1.32764e-11 1.468e-10)
(-1.01198e-11 7.09343e-13 4.27627e-11)
(1.79472e-11 2.07693e-11 1.10509e-10)
(1.26814e-11 3.55813e-12 2.57183e-11)
(1.11247e-10 3.47768e-11 5.42595e-11)
(1.03541e-11 1.52273e-11 1.9845e-11)
(4.75107e-11 4.04276e-11 5.70552e-11)
(4.82835e-11 1.67112e-11 8.31236e-11)
(4.9056e-13 5.96061e-12 2.82248e-11)
(-5.14115e-12 1.85789e-11 8.44729e-11)
(-2.42256e-12 2.06304e-11 3.76171e-11)
(-1.72999e-11 9.00733e-12 2.81525e-11)
(-3.71618e-12 1.29441e-11 1.8529e-11)
(-5.82558e-12 1.38097e-11 1.19012e-10)
(2.71292e-11 3.50426e-11 5.8983e-11)
(-1.11942e-11 6.99146e-12 2.95011e-11)
(9.77798e-12 8.6261e-11 1.14427e-10)
(-7.96657e-12 1.59583e-11 4.46891e-11)
(-1.66647e-12 1.80146e-12 1.90178e-11)
(2.02369e-11 5.00486e-11 1.52121e-10)
(-2.76299e-12 3.32249e-12 1.80369e-11)
(7.40203e-12 8.09539e-11 1.07275e-10)
(-2.21705e-13 8.91762e-13 1.63831e-11)
(-2.04998e-12 -1.57957e-13 1.36969e-11)
(4.09119e-12 6.59752e-11 7.83758e-11)
(-2.18115e-12 2.29793e-12 1.65924e-11)
(1.1218e-12 -1.90003e-13 4.7907e-13)
(3.36842e-12 -1.45851e-12 1.13747e-11)
(3.00113e-12 -2.09494e-13 1.67294e-12)
(3.74028e-12 -1.03531e-12 1.17375e-11)
(4.10933e-12 8.23479e-14 3.49796e-12)
(4.76123e-12 -2.67659e-13 3.15592e-12)
(-2.30994e-12 1.43824e-11 6.79626e-11)
(-2.49725e-12 -8.69533e-12 2.86322e-11)
(-2.21225e-12 7.12432e-12 9.3047e-11)
(-4.83686e-12 3.14737e-12 2.73421e-11)
(3.10823e-12 9.17026e-12 1.16262e-10)
(-2.76064e-12 2.7833e-11 8.63919e-11)
(-2.50375e-12 -7.73081e-13 2.22146e-11)
(4.36274e-12 1.95277e-11 4.96722e-11)
(4.98887e-12 -7.07977e-12 8.97779e-12)
(2.04861e-11 -2.42314e-12 5.40241e-11)
(6.00934e-13 -3.2624e-12 8.39827e-12)
(2.53302e-12 2.90821e-11 5.0034e-11)
(-1.91576e-12 -9.0118e-15 1.17913e-11)
(1.49953e-12 3.9194e-13 2.1852e-12)
(2.58911e-12 6.10793e-11 7.10621e-11)
(-3.66633e-13 -2.43246e-12 7.98024e-12)
(8.15365e-11 1.08344e-11 6.26781e-11)
(2.36306e-11 2.24074e-12 2.33414e-11)
(1.25035e-10 2.18476e-11 5.96779e-11)
(5.95248e-11 -5.06061e-12 -7.16844e-12)
(5.99704e-11 1.25623e-11 4.85319e-11)
(1.72279e-10 9.89267e-12 1.76908e-11)
(3.13545e-11 -2.92285e-12 2.03536e-11)
(6.66151e-11 6.76013e-12 5.58932e-11)
(6.6806e-12 -7.95582e-12 9.62519e-12)
(2.84634e-11 -1.44523e-12 5.44447e-11)
(1.36799e-11 -5.09086e-12 1.06145e-11)
(8.73106e-11 1.08731e-11 5.13305e-11)
(6.05867e-11 -7.91418e-12 -8.29301e-12)
(1.83559e-10 1.06058e-11 -5.4434e-12)
(3.80774e-11 -1.42193e-11 1.81385e-11)
(1.98882e-10 4.67836e-10 3.4666e-12)
(4.1966e-10 4.35566e-10 9.48927e-12)
(2.91025e-10 6.27902e-10 2.08642e-12)
(2.31923e-10 3.29076e-10 -2.49031e-12)
(1.90619e-10 4.68896e-10 -1.07757e-12)
(3.00029e-10 6.25433e-10 5.35409e-12)
(2.43641e-10 3.35828e-10 1.85842e-12)
(2.04867e-10 4.66431e-10 9.0911e-12)
(4.22668e-10 4.38437e-10 1.06273e-11)
(3.07678e-10 6.22521e-10 1.39933e-11)
(2.5694e-10 3.43035e-10 1.42024e-11)
(2.08492e-10 4.66025e-10 1.65969e-11)
(3.06337e-10 6.23065e-10 1.02364e-11)
(2.51813e-10 3.39886e-10 6.74286e-12)
(2.56134e-10 2.36666e-10 -1.98101e-12)
(2.45878e-10 2.3013e-10 -2.66947e-12)
(1.63012e-10 1.55518e-10 -4.18863e-12)
(3.38324e-11 4.21312e-11 -1.32795e-12)
(1.63461e-10 1.55234e-10 -3.59701e-12)
(2.4708e-10 2.29863e-10 -4.641e-12)
(2.45887e-10 2.30058e-10 -3.56174e-12)
(1.7019e-10 1.58487e-10 -2.42209e-12)
(3.44934e-11 4.25007e-11 -1.58383e-12)
(1.63312e-10 1.5498e-10 -2.97925e-12)
(4.09121e-10 7.93839e-10 8.9009e-13)
(4.03523e-10 7.8529e-10 -3.42236e-12)
(3.47838e-10 8.75364e-10 -7.29226e-12)
(2.83225e-10 1.19774e-09 -8.91592e-12)
(3.53325e-10 9.08359e-10 -6.13053e-12)
(3.95678e-10 7.50521e-10 -5.00272e-12)
(4.01194e-10 7.76823e-10 -3.76492e-12)
(3.59727e-10 9.24066e-10 1.55113e-12)
(2.86623e-10 1.21852e-09 -4.86269e-12)
(3.55271e-10 9.17779e-10 -5.28326e-12)
(4.10689e-10 7.89303e-10 1.74173e-12)
(4.14337e-10 7.73418e-10 5.93828e-12)
(3.56699e-10 8.6792e-10 1.22572e-11)
(2.76746e-10 1.13633e-09 1.36979e-11)
(3.61835e-10 8.76386e-10 9.53473e-12)
(4.10375e-10 7.66831e-10 1.17677e-11)
(4.14846e-10 7.69608e-10 7.3335e-12)
(3.60699e-10 9.17603e-10 3.23289e-12)
(2.81723e-10 1.16672e-09 1.34531e-11)
(3.61854e-10 8.85334e-10 8.42589e-12)
(2.60171e-10 2.39079e-10 -5.22994e-13)
(2.79393e-10 2.50784e-10 3.76566e-12)
(2.01618e-10 1.74517e-10 9.92472e-12)
(4.22795e-11 4.52457e-11 1.3753e-12)
(1.9563e-10 1.71836e-10 4.8902e-12)
(2.92553e-10 2.58163e-10 1.39958e-11)
(2.8324e-10 2.52899e-10 6.30077e-12)
(1.76604e-10 1.62336e-10 -9.36725e-13)
(4.00219e-11 4.46439e-11 4.93519e-13)
(1.88498e-10 1.68637e-10 1.65619e-12)
(-1.03128e-12 -2.16063e-12 2.80265e-11)
(-2.12814e-12 -5.34928e-13 2.59025e-11)
(1.90981e-13 -3.59958e-13 1.32311e-11)
(-3.0591e-12 -1.7152e-13 8.75267e-12)
(-3.02648e-12 -2.23251e-13 9.01259e-12)
(-5.8886e-12 -2.78236e-13 7.15055e-12)
(-6.71063e-13 -1.11919e-13 -6.54227e-13)
(-5.91939e-12 -1.84692e-13 6.82436e-12)
(-5.92883e-12 -1.34962e-13 6.51571e-12)
(-7.35737e-13 -1.0056e-13 -7.82632e-13)
(-5.92005e-12 -1.87843e-13 6.74965e-12)
(-1.4102e-12 -1.72886e-16 -2.71464e-12)
(-1.26982e-12 -8.00212e-15 -2.52568e-12)
(-1.81836e-12 -1.03509e-13 -1.495e-12)
(-1.31905e-12 -1.13002e-14 -2.61514e-12)
(-1.88197e-12 -6.89276e-14 -1.63022e-12)
(-1.38754e-12 -1.16961e-14 -2.69136e-12)
(-1.33757e-12 -9.10582e-16 -2.6358e-12)
(-9.12021e-13 -4.32168e-13 6.70099e-13)
(-1.93822e-12 -5.24111e-13 -1.30982e-12)
(-2.71671e-13 1.34061e-13 1.09289e-14)
(-9.13287e-13 -7.66678e-14 -5.12787e-12)
(-8.16723e-14 1.16826e-12 1.343e-12)
(-2.03919e-12 -1.15589e-12 7.87537e-14)
(-1.7935e-12 -4.77931e-13 -3.6874e-12)
(-1.46838e-12 2.60086e-13 -6.59252e-12)
(1.23595e-13 -2.21779e-13 -2.06145e-12)
(3.79461e-13 7.57276e-14 -1.68156e-12)
(-1.83162e-12 -6.45817e-13 -1.23174e-11)
(-3.7812e-13 9.28291e-14 -5.31141e-12)
(7.14255e-13 2.93756e-13 -2.37533e-12)
(-2.50806e-12 -3.8614e-13 -9.61601e-12)
(8.79373e-12 5.37207e-11 1.23531e-10)
(2.25327e-12 1.32573e-11 4.51646e-11)
(5.19497e-12 6.21524e-11 1.30479e-10)
(-2.0926e-13 9.69218e-12 4.72386e-11)
(-2.28479e-12 3.58971e-11 1.35509e-10)
(1.59166e-11 4.55696e-11 1.34482e-10)
(-1.65976e-13 1.26659e-11 4.05649e-11)
(3.08466e-10 4.31338e-10 8.76758e-11)
(4.04317e-10 5.51919e-10 4.37324e-11)
(4.21035e-10 4.63369e-10 1.10723e-11)
(3.83633e-10 4.29797e-10 4.63572e-11)
(3.71879e-10 4.09758e-10 4.7151e-11)
(3.85844e-10 5.1854e-10 3.37779e-11)
(3.32929e-10 4.74998e-10 5.95514e-11)
(3.72325e-11 1.49932e-10 1.19487e-10)
(1.57142e-11 4.58987e-11 4.2731e-11)
(1.02504e-10 2.84296e-10 1.17151e-10)
(1.77447e-11 4.78965e-11 3.67945e-11)
(4.91744e-11 1.39464e-10 1.35611e-10)
(8.63192e-11 1.51109e-10 1.04545e-10)
(9.83225e-12 4.18824e-11 3.77873e-11)
(-1.72908e-12 -1.28709e-12 -1.05193e-13)
(1.33702e-12 -6.9463e-13 5.6469e-12)
(-2.15426e-12 -7.77431e-13 -9.7356e-13)
(6.53164e-13 -4.59899e-13 4.67406e-12)
(-1.90922e-12 -1.33735e-12 -6.06069e-13)
(-2.25939e-12 -8.71782e-13 -7.21035e-13)
(2.74088e-10 4.28823e-10 -7.62372e-12)
(3.75284e-10 3.88235e-10 -4.71736e-12)
(3.52679e-10 4.78159e-10 -6.37328e-12)
(2.99136e-10 3.37042e-10 -6.43366e-12)
(3.023e-10 3.39663e-10 -5.80945e-12)
(3.55812e-10 4.80529e-10 -6.29715e-12)
(2.71699e-10 4.27336e-10 -7.55183e-12)
(2.82313e-10 4.37405e-10 -6.85466e-12)
(3.84538e-10 3.97362e-10 -4.62004e-12)
(3.12415e-10 3.50075e-10 -4.97351e-12)
(3.65875e-10 4.92477e-10 -4.92089e-12)
(2.82388e-10 4.39456e-10 -6.43874e-12)
(3.11781e-10 3.4803e-10 -5.85028e-12)
(3.64182e-10 4.89463e-10 -5.36594e-12)
(2.65681e-11 4.89758e-11 4.15793e-11)
(8.45114e-11 1.48394e-10 1.31349e-10)
(-1.62474e-11 2.64091e-11 -6.85689e-12)
(-8.92488e-12 2.43293e-11 -3.80478e-12)
(-4.34187e-12 9.62409e-12 -1.81977e-12)
(-8.75379e-12 2.52885e-11 -4.87447e-12)
(-8.16226e-12 9.8565e-12 -1.41616e-12)
(-8.76725e-13 -1.62107e-12 1.73497e-12)
(3.04051e-12 -1.93045e-12 9.66757e-12)
(4.09497e-13 -1.66135e-12 3.94739e-12)
(3.88771e-12 -1.9474e-12 1.07187e-11)
(7.27704e-12 -2.07453e-13 1.74616e-11)
(3.12276e-12 -8.69607e-13 5.33592e-12)
(2.84112e-10 4.57741e-10 -2.69425e-12)
(3.90156e-10 4.10022e-10 2.00056e-12)
(3.75289e-10 5.1839e-10 5.20056e-13)
(3.17468e-10 3.63019e-10 8.89151e-13)
(2.88548e-10 4.60619e-10 -2.03431e-12)
(3.11442e-10 3.57851e-10 -8.70067e-13)
(3.69337e-10 5.13222e-10 -7.33411e-14)
(2.81242e-10 4.44125e-10 -5.46581e-12)
(3.8628e-10 4.02e-10 -3.37487e-12)
(3.1095e-10 3.49938e-10 -5.08773e-12)
(3.65205e-10 4.94898e-10 -4.61177e-12)
(2.82009e-10 4.41726e-10 -5.97817e-12)
(3.10535e-10 3.51656e-10 -3.9351e-12)
(3.65853e-10 4.9769e-10 -3.97671e-12)
(-4.54564e-12 -1.16282e-13 -8.62522e-12)
(-8.41936e-13 -8.24561e-14 -1.13175e-12)
(-4.59513e-12 -1.22848e-13 -8.86184e-12)
(4.14068e-10 3.78471e-10 4.45203e-11)
(4.07629e-10 3.71549e-10 1.79198e-11)
(4.50423e-10 6.02507e-10 2.69776e-11)
(4.33447e-10 5.74518e-10 -1.18131e-11)
(3.31393e-10 4.84597e-10 3.99296e-11)
(4.10112e-10 5.64358e-10 2.89876e-11)
(4.27722e-10 4.67014e-10 3.62491e-11)
(3.78677e-10 4.22673e-10 3.58722e-11)
(3.34587e-10 4.81934e-10 4.74994e-11)
(3.9759e-10 5.48592e-10 3.17249e-11)
(3.68388e-10 4.11934e-10 3.58979e-11)
(3.19821e-10 4.78018e-10 2.12181e-11)
(4.23628e-10 4.48718e-10 2.12527e-11)
(3.98159e-10 5.36559e-10 1.79376e-11)
(3.54808e-10 3.9169e-10 1.89084e-11)
(3.97038e-10 5.38193e-10 1.95573e-11)
(3.55171e-10 3.94213e-10 2.18926e-11)
(3.20459e-10 4.76646e-10 1.88209e-11)
(4.69188e-10 6.1911e-10 2.03923e-11)
(4.57664e-10 6.04613e-10 2.85042e-11)
(4.70277e-10 5.93059e-10 1.64925e-11)
(4.67532e-10 5.93957e-10 1.85555e-11)
(4.07879e-10 3.69324e-10 3.9634e-11)
(3.99479e-10 3.61016e-10 4.07698e-11)
(3.81637e-10 3.36741e-10 1.951e-11)
(3.83019e-10 3.40225e-10 2.28261e-11)
(-1.27906e-12 -6.20761e-13 3.24512e-13)
(-4.4321e-14 -5.47082e-13 3.64457e-12)
(-1.46492e-12 -3.67188e-13 5.96842e-14)
(-6.12327e-13 -2.81634e-13 2.77271e-12)
(-1.88451e-12 -3.59762e-13 -7.09966e-13)
(-1.75514e-12 -2.44038e-13 -5.34279e-13)
(-4.28276e-12 -2.04311e-13 -8.25735e-12)
(-2.34616e-13 -3.01962e-13 3.14341e-14)
(-4.20479e-12 -2.67236e-13 -8.29084e-12)
(-2.79499e-12 -1.61669e-12 -3.86115e-12)
(9.30123e-13 -1.08559e-12 3.37338e-12)
(-3.04949e-12 -1.56945e-12 -5.43473e-12)
(-2.78695e-12 -1.38861e-13 -3.57073e-12)
(-1.46267e-12 -2.70251e-13 -7.69282e-13)