/*--------------------------------*- C++ -*----------------------------------*\
| =========                 |                                                 |
| \\      /  F ield         | OpenFOAM: The Open Source CFD Toolbox           |
|  \\    /   O peration     | Version:  2012                                  |
|   \\  /    A nd           | Website:  www.openfoam.com                      |
|    \\/     M anipulation  |                                                 |
\*---------------------------------------------------------------------------*/
FoamFile
{
    version     2.0;
    format      ascii;
    class       volVectorField;
    location    "0.104/solid";
    object      D_0_0;
}
// * * * * * * * * * * * * * * * * * * * * * * * * * * * * * * * * * * * * * //

dimensions      [0 1 0 0 0 0 0];


internalField   nonuniform List<vector> 
3124
(
(1.71256e-11 5.51582e-11 4.13241e-11)
(-2.51235e-13 -3.74999e-14 -1.33658e-12)
(3.29188e-12 -4.78452e-13 2.05498e-11)
(7.46028e-11 2.26961e-10 -7.29528e-12)
(1.63756e-12 4.62347e-13 3.68159e-11)
(-4.74371e-14 -5.65941e-14 -2.21011e-12)
(4.22127e-12 -5.93926e-13 2.08063e-11)
(7.53079e-11 2.31615e-10 -7.29505e-12)
(1.66665e-12 9.29276e-14 3.71239e-11)
(-6.55622e-13 8.31073e-12 1.7775e-11)
(1.33361e-11 3.84412e-11 5.15544e-11)
(8.00798e-11 2.27028e-10 3.00721e-11)
(-7.34435e-13 -9.78839e-12 3.14823e-11)
(4.65733e-13 -4.93084e-13 1.42887e-11)
(-5.15393e-12 6.90035e-12 1.50168e-11)
(4.01971e-12 -6.17461e-12 3.05433e-11)
(1.09735e-12 1.85004e-11 5.02195e-11)
(3.28279e-12 -6.34796e-12 2.46623e-11)
(8.42753e-12 -4.37408e-12 2.57499e-11)
(7.96719e-11 2.32412e-10 1.37508e-11)
(-1.62225e-12 -7.73079e-13 2.77596e-11)
(-1.79949e-12 -6.54676e-13 2.74793e-11)
(4.26485e-13 -4.63584e-13 1.4173e-11)
(4.345e-10 4.86006e-10 3.85674e-11)
(2.79859e-11 4.11077e-11 3.52509e-11)
(2.02167e-11 6.34593e-11 3.82243e-11)
(5.53087e-11 1.50145e-10 9.70736e-11)
(1.75213e-10 5.8604e-10 1.98125e-10)
(1.76014e-11 2.96685e-11 2.8025e-11)
(1.04977e-10 1.26589e-10 7.99386e-11)
(1.58693e-12 -1.15902e-12 6.41506e-12)
(1.46425e-12 -2.15127e-12 1.83966e-11)
(1.4025e-12 -7.89553e-13 6.22463e-12)
(3.72565e-10 3.89358e-10 -5.79709e-12)
(5.77692e-11 1.5187e-10 -5.65352e-12)
(2.3932e-10 8.99574e-10 -1.33566e-11)
(7.36684e-11 2.24305e-10 -6.18557e-12)
(3.86169e-10 4.0398e-10 -5.02256e-12)
(2.36643e-10 8.88432e-10 -9.02738e-12)
(5.59332e-11 1.49496e-10 -5.55552e-12)
(2.05394e-11 6.82973e-11 3.82568e-11)
(6.79536e-12 -1.10597e-11 4.37262e-11)
(-2.52456e-12 1.32966e-12 -7.76561e-12)
(-5.01555e-12 8.7425e-12 6.18639e-13)
(-1.16192e-11 1.2788e-11 3.53022e-13)
(8.2272e-12 -2.19796e-13 2.6141e-11)
(2.17253e-12 -1.60343e-12 7.90844e-12)
(6.48199e-12 -4.04539e-13 1.81248e-11)
(3.95432e-10 4.20496e-10 2.88772e-12)
(7.63528e-11 2.35347e-10 -3.22627e-12)
(5.73966e-11 1.54622e-10 -5.44268e-12)
(2.41133e-10 9.12291e-10 -1.26989e-11)
(3.85404e-10 4.04576e-10 -4.94826e-12)
(2.4529e-10 9.40028e-10 -6.08455e-13)
(5.87948e-11 1.57574e-10 -4.07177e-12)
(3.53709e-13 -3.28391e-12 3.56905e-11)
(-2.19427e-12 -4.2099e-13 2.61262e-11)
(1.28379e-13 -2.78057e-13 1.32875e-11)
(-7.41409e-13 -8.82649e-14 -7.06914e-13)
(2.06834e-12 9.1381e-12 9.34987e-12)
(-4.83106e-12 1.07778e-11 6.13301e-11)
(2.66469e-11 2.94891e-11 3.37596e-11)
(5.55031e-11 4.31779e-11 2.89124e-11)
(6.94524e-12 4.4984e-11 4.86121e-11)
(3.8691e-12 -5.97688e-12 5.65533e-11)
(2.14987e-10 8.35567e-10 -9.19505e-13)
(2.78901e-11 4.09888e-11 3.62179e-11)
(4.38314e-10 4.85171e-10 3.33935e-11)
(7.93355e-11 2.05122e-10 6.64021e-11)
(2.26663e-10 8.91164e-10 3.12411e-11)
(8.0798e-11 1.63154e-10 1.72712e-11)
(1.93458e-10 7.65622e-10 1.06184e-10)
(4.22616e-10 4.51926e-10 1.89327e-11)
(8.74337e-11 1.57798e-10 4.71249e-11)
(2.55898e-10 1.13419e-09 1.43427e-11)
(2.06284e-10 9.54341e-10 6.96544e-11)
(-5.79718e-12 2.44337e-12 6.34023e-11)
(-4.58552e-12 -1.05114e-11 5.1777e-11)
(3.29502e-11 3.60093e-11 5.23365e-11)
(4.50658e-11 4.65106e-11 5.8432e-12)
(4.81247e-11 4.93517e-11 1.94481e-11)
(2.09032e-13 -8.8995e-13 4.22316e-12)
(-2.60697e-13 -4.81504e-13 3.66889e-12)
(1.76101e-12 -2.27098e-12 1.74605e-11)
(-2.35488e-13 -2.41603e-13 2.9401e-13)
(8.86335e-13 -1.02901e-12 4.16304e-12)
(-1.44927e-12 -2.24977e-13 -6.04073e-13)
(-6.37076e-13 -6.10546e-13 2.36077e-12)
(3.29319e-11 4.22882e-11 -1.80095e-12)
(3.06813e-11 4.11065e-11 -2.52322e-12)
(2.73027e-10 1.15758e-09 -9.09075e-12)
(2.70891e-10 1.15035e-09 -7.10695e-12)
(3.7115e-10 3.8842e-10 -5.77219e-12)
(7.26293e-11 2.22781e-10 -5.86694e-12)
(2.35819e-10 8.88705e-10 -1.07814e-11)
(5.343e-11 1.47609e-10 -5.16429e-12)
(2.7024e-10 1.15255e-09 -8.4375e-12)
(3.0336e-11 4.07607e-11 -1.82499e-12)
(2.65276e-11 4.78569e-11 5.02074e-11)
(1.903e-11 1.09739e-12 4.08905e-11)
(-6.49167e-12 2.28116e-12 -3.33843e-12)
(-1.36701e-11 1.02217e-11 5.17441e-11)
(-1.67231e-11 1.26782e-11 1.06629e-11)
(-1.43839e-12 7.29639e-12 -3.39078e-12)
(-9.25063e-12 1.54471e-11 7.21568e-12)
(-1.15501e-11 3.18395e-12 5.4965e-11)
(3.34096e-11 1.25815e-11 3.27853e-12)
(-1.25786e-11 1.26624e-11 1.64915e-11)
(-3.72281e-12 -3.4756e-12 3.12746e-11)
(-2.05895e-12 -3.4341e-12 4.10531e-11)
(5.6699e-12 5.09497e-12 2.08659e-11)
(7.01018e-13 -1.25257e-12 5.37027e-12)
(4.05066e-12 3.0454e-13 1.36053e-11)
(-5.40776e-12 -7.07188e-12 3.5232e-11)
(2.97032e-12 4.64763e-12 1.32967e-11)
(4.39752e-11 3.29699e-12 1.18964e-12)
(3.99607e-10 4.23773e-10 4.40982e-12)
(7.80451e-11 2.35103e-10 3.94566e-12)
(2.32824e-10 8.94591e-10 2.13078e-11)
(7.48864e-11 1.62831e-10 6.58312e-12)
(4.25595e-10 4.51801e-10 1.63577e-11)
(2.44136e-10 9.30529e-10 7.60978e-12)
(6.63319e-11 1.60762e-10 -4.76913e-13)
(3.31145e-11 4.26112e-11 -2.19852e-12)
(3.65504e-11 4.38053e-11 -1.13282e-12)
(2.75434e-10 1.17815e-09 -1.00685e-11)
(2.82323e-10 1.22582e-09 1.44655e-12)
(2.63997e-10 1.13269e-09 1.24298e-11)
(2.79996e-10 1.20653e-09 8.18322e-12)
(4.45569e-11 4.65517e-11 4.01524e-12)
(3.76328e-11 4.45111e-11 -1.03892e-12)
(-2.25172e-13 -3.35791e-12 3.16688e-11)
(-2.13034e-12 -4.70539e-13 2.64224e-11)
(1.19651e-13 -2.75608e-13 1.33667e-11)
(-3.71405e-13 -2.03499e-13 6.02599e-14)
(-6.89858e-13 -9.16139e-14 -6.00063e-13)
(-1.86561e-12 -5.78485e-14 -1.57376e-12)
(-1.57108e-12 -1.66253e-13 -8.64701e-13)
(-1.81303e-12 -8.36129e-14 -1.45945e-12)
(2.57502e-10 9.57898e-10 -1.10172e-11)
(-7.51688e-12 -3.36828e-12 -4.19147e-12)
(-9.29609e-13 -1.33421e-12 -1.37291e-14)
(-6.42854e-13 -3.55305e-13 1.54483e-11)
(2.03332e-12 -6.20493e-13 2.04884e-11)
(-9.52343e-13 -4.89522e-13 1.56366e-11)
(3.27249e-12 5.80811e-13 3.75979e-11)
(-7.38374e-12 1.0832e-11 -5.03869e-11)
(2.78516e-13 -1.61891e-13 -1.09667e-12)
(-1.06069e-12 -1.36601e-12 -1.9018e-13)
(5.08666e-13 2.15975e-12 -4.92153e-12)
(7.21749e-12 -8.9643e-13 2.27671e-11)
(-5.99816e-13 -5.94687e-13 1.53085e-11)
(-7.43044e-13 -1.07193e-12 1.67839e-11)
(2.00475e-12 -2.91876e-13 3.79774e-11)
(4.93358e-11 1.03633e-11 1.25157e-10)
(3.73644e-12 8.72994e-12 1.50273e-11)
(-1.53758e-12 1.73446e-11 3.8762e-11)
(-6.66301e-13 -5.2502e-12 4.91789e-11)
(-2.31515e-12 2.65492e-12 1.68076e-10)
(9.90501e-12 1.86902e-11 3.40802e-11)
(2.70626e-12 -2.13274e-12 3.95624e-11)
(-1.32055e-11 1.2597e-10 2.62653e-10)
(2.47525e-11 4.31523e-11 6.10995e-11)
(4.51889e-11 -2.86579e-11 2.15279e-10)
(1.56026e-11 1.99083e-11 5.83584e-11)
(-3.42389e-11 3.11432e-10 1.4039e-10)
(4.42245e-11 6.68784e-11 1.65307e-10)
(3.35336e-11 3.93951e-11 6.14935e-11)
(7.96824e-12 9.37167e-12 2.23983e-10)
(1.08884e-11 2.78312e-12 9.15245e-11)
(-5.07012e-12 -1.13956e-11 4.37072e-11)
(-5.05566e-12 -1.18283e-11 3.65445e-11)
(5.41417e-12 5.13329e-12 1.61501e-10)
(4.19004e-12 5.98092e-12 1.1609e-10)
(-6.53852e-12 -1.19526e-11 5.20359e-11)
(8.60267e-13 -1.02012e-12 1.48301e-11)
(-2.80835e-12 -3.64597e-13 9.95594e-12)
(-2.62944e-12 -7.81614e-13 1.04871e-11)
(-6.1111e-12 4.30209e-11 6.06826e-11)
(-2.00067e-11 -3.20279e-11 2.17096e-10)
(8.12037e-11 3.23205e-10 1.20215e-10)
(-1.03015e-11 5.46601e-12 7.25836e-11)
(-7.50596e-12 5.19382e-12 9.41444e-12)
(-1.14971e-11 1.44759e-11 3.21455e-11)
(-1.48523e-12 -4.73001e-12 4.47512e-11)
(-2.98451e-12 2.99527e-12 1.48988e-10)
(-1.60607e-11 1.17807e-11 2.09723e-11)
(-3.01128e-12 -1.48113e-12 1.87103e-11)
(1.44706e-11 1.32971e-11 1.39465e-10)
(1.49185e-11 3.79608e-12 9.33205e-11)
(-1.89963e-12 -7.88871e-12 3.9431e-11)
(7.18291e-12 -1.79084e-12 3.04267e-11)
(6.03129e-12 5.69169e-12 1.52037e-10)
(3.67253e-11 1.34667e-11 9.68829e-11)
(-9.6613e-13 -2.33247e-12 3.66778e-11)
(3.32813e-12 4.03647e-12 6.54224e-11)
(1.27938e-11 2.39601e-12 8.47907e-11)
(-2.29641e-12 -7.88844e-12 2.70041e-11)
(6.67982e-12 -5.10054e-12 2.0308e-11)
(3.1328e-12 6.32485e-12 1.04794e-10)
(1.90322e-11 2.0858e-12 7.1669e-11)
(-3.63982e-14 -4.16088e-12 2.13046e-11)
(6.28813e-11 9.54807e-12 7.07709e-11)
(1.7956e-11 2.97603e-12 8.74988e-11)
(1.36791e-11 -1.32479e-12 2.70336e-11)
(1.1993e-11 -4.46527e-12 2.21807e-11)
(4.41487e-11 1.15066e-11 9.75014e-11)
(2.61935e-11 2.69464e-12 6.89784e-11)
(1.95847e-11 -2.59558e-12 2.33261e-11)
(-1.36363e-12 -1.20271e-12 2.80627e-11)
(-1.92186e-12 -5.849e-13 2.7132e-11)
(2.56424e-13 -3.4974e-13 1.38173e-11)
(-2.83758e-12 -3.26694e-13 9.84907e-12)
(-2.92676e-12 -2.38706e-13 9.49616e-12)
(1.22226e-10 2.44665e-10 1.43828e-10)
(2.93646e-10 5.43842e-10 9.8707e-11)
(3.12901e-10 3.51852e-10 -4.00126e-12)
(2.68499e-10 3.52682e-10 8.38776e-11)
(1.85316e-10 2.27897e-10 1.22502e-10)
(2.22596e-10 3.90061e-10 1.33153e-10)
(2.06469e-10 4.05771e-10 9.77692e-11)
(4.72617e-11 1.31824e-10 1.17484e-10)
(3.91976e-11 6.77337e-11 9.01571e-11)
(1.49357e-11 2.89803e-11 2.90976e-11)
(1.75765e-11 4.23438e-11 3.06751e-11)
(5.43973e-11 9.83206e-11 8.75358e-11)
(7.24184e-11 1.55563e-10 9.1725e-11)
(1.13245e-11 3.65763e-11 3.50787e-11)
(-6.36835e-12 -5.27888e-12 -6.31237e-12)
(-3.29218e-12 -5.79046e-13 1.34942e-11)
(9.73057e-13 -1.10577e-13 5.31635e-12)
(-3.95887e-12 -4.02397e-13 1.31093e-11)
(1.77342e-12 -9.26049e-13 2.03077e-11)
(-1.37124e-12 -1.54741e-12 1.3765e-11)
(-9.72863e-13 -6.87238e-13 1.54147e-11)
(7.26601e-13 -4.48412e-14 5.27063e-12)
(-3.96668e-12 -1.42668e-12 1.14952e-11)
(-3.7261e-12 -5.08839e-13 1.29113e-11)
(1.75335e-10 4.43807e-10 -1.02215e-11)
(3.80801e-10 3.96738e-10 -5.41739e-12)
(2.68297e-10 5.88126e-10 -8.40452e-12)
(2.10726e-10 3.06526e-10 -8.71058e-12)
(2.14699e-10 3.09992e-10 -8.51671e-12)
(2.71924e-10 5.90183e-10 -9.17258e-12)
(1.72557e-10 4.41616e-10 -9.61873e-12)
(1.77235e-10 4.45637e-10 -9.90842e-12)
(3.81981e-10 3.97821e-10 -5.54397e-12)
(2.18264e-10 3.15681e-10 -7.21111e-12)
(2.76015e-10 5.9907e-10 -9.68182e-12)
(1.77962e-10 4.50753e-10 -1.00567e-11)
(2.17137e-10 3.12259e-10 -8.435e-12)
(2.74758e-10 5.92932e-10 -8.48425e-12)
(4.47242e-12 3.27442e-12 3.79209e-11)
(-6.92628e-12 7.63296e-12 -5.02075e-11)
(9.34828e-13 -6.62448e-16 -7.84811e-12)
(-8.35255e-12 5.27804e-12 -8.39333e-12)
(-6.42125e-13 3.95945e-12 -3.45936e-11)
(-8.6204e-12 9.4523e-12 -2.9557e-11)
(-3.09539e-12 2.42483e-12 -1.1939e-11)
(9.09365e-12 6.40407e-13 -3.88133e-11)
(-1.54822e-12 1.23594e-11 -4.30113e-11)
(7.82123e-12 2.83657e-11 -1.74762e-11)
(-4.74252e-12 1.38943e-11 -3.8965e-12)
(8.26904e-13 2.44543e-11 -9.53846e-12)
(-9.47793e-13 3.43064e-12 -4.41199e-12)
(-5.1944e-12 1.09905e-11 -4.26542e-11)
(-1.3956e-11 2.26581e-11 -8.64111e-12)
(-1.03533e-11 9.55202e-12 -4.42891e-12)
(-4.69107e-12 1.14317e-11 -4.41099e-12)
(-9.16618e-12 1.07672e-11 -1.85716e-11)
(-7.46967e-14 2.24283e-11 -1.66518e-11)
(-5.58248e-12 8.69127e-12 -7.92549e-12)
(7.54876e-12 -7.27663e-13 2.3581e-11)
(-5.07728e-13 7.71382e-13 1.96873e-11)
(-7.65651e-13 -8.3175e-13 1.75043e-11)
(-2.60798e-12 -6.70877e-13 1.36724e-11)
(6.21031e-12 -1.51686e-12 1.53866e-11)
(-2.05692e-12 -7.86925e-13 1.44409e-11)
(-8.16996e-13 -1.80158e-13 1.70864e-11)
(6.64111e-12 -1.077e-12 1.54754e-11)
(-2.23988e-12 -6.61433e-13 1.47938e-11)
(1.78188e-10 4.68449e-10 -6.87786e-12)
(3.8512e-10 4.09664e-10 -1.66542e-12)
(2.8064e-10 6.33088e-10 -3.17459e-12)
(2.22377e-10 3.27474e-10 -4.32709e-12)
(1.82304e-10 4.72727e-10 -4.8746e-12)
(2.16594e-10 3.22109e-10 -5.1495e-12)
(2.76224e-10 6.27957e-10 -5.78877e-12)
(1.77098e-10 4.63493e-10 -8.50279e-12)
(3.85605e-10 4.08748e-10 -2.71218e-12)
(2.17468e-10 3.17338e-10 -6.52207e-12)
(2.7589e-10 6.0775e-10 -8.81837e-12)
(1.77792e-10 4.55585e-10 -9.23507e-12)
(2.16114e-10 3.20258e-10 -5.20302e-12)
(2.7522e-10 6.18613e-10 -8.82702e-12)
(1.07395e-12 -1.59413e-12 3.82381e-11)
(-2.22924e-12 -3.47929e-13 2.58556e-11)
(6.90543e-14 -1.87474e-13 1.30792e-11)
(-2.9835e-12 -1.74959e-13 9.07629e-12)
(-5.84374e-12 -1.53607e-13 6.82862e-12)
(3.30479e-10 2.98931e-10 5.12197e-11)
(1.65343e-10 1.47603e-10 1.15074e-10)
(-1.20013e-11 -4.2279e-12 1.10301e-10)
(3.22413e-12 7.9149e-12 1.03094e-11)
(1.54224e-12 1.64859e-11 2.79759e-11)
(2.1698e-11 2.83458e-11 2.69444e-11)
(-3.24888e-11 4.98605e-11 1.47713e-10)
(5.73539e-12 1.45119e-11 2.60418e-11)
(1.52432e-11 -5.73665e-14 1.308e-11)
(4.49299e-11 1.88892e-11 1.70321e-10)
(-3.27927e-12 1.5461e-11 5.26944e-11)
(3.41672e-12 9.56251e-12 2.3278e-10)
(1.06834e-11 1.62272e-11 6.42209e-11)
(2.38483e-11 2.05532e-11 2.67354e-10)
(-6.34241e-13 6.11167e-12 1.87006e-10)
(1.32976e-11 2.06743e-11 5.12279e-11)
(1.32764e-11 3.73214e-11 1.62363e-10)
(7.6147e-11 8.34836e-11 6.06461e-11)
(1.24883e-11 1.97989e-11 2.88918e-11)
(2.73284e-11 2.77064e-11 5.35101e-11)
(8.24994e-11 9.01214e-11 1.03174e-10)
(3.58364e-11 2.71321e-11 2.5322e-10)
(2.12283e-11 2.3982e-11 3.79581e-11)
(2.52098e-10 2.06307e-10 1.58029e-11)
(2.47965e-11 4.83071e-11 4.07785e-11)
(1.52765e-11 1.57286e-10 8.87677e-11)
(3.78396e-10 7.06244e-10 3.68927e-11)
(1.72835e-10 3.68466e-10 1.13854e-10)
(1.06125e-10 1.33125e-10 2.09648e-10)
(2.06027e-11 1.44637e-11 4.12098e-11)
(-2.55704e-12 7.9951e-11 2.742e-10)
(5.94457e-12 4.21193e-11 3.51261e-11)
(9.6307e-11 2.06116e-10 1.19212e-10)
(4.22213e-11 -1.71116e-10 2.28499e-10)
(3.14736e-11 4.90877e-11 4.03851e-11)
(1.04358e-11 8.70611e-11 2.82758e-10)
(6.91641e-12 2.79501e-12 6.03346e-11)
(8.03294e-12 2.72784e-11 1.84852e-10)
(8.47503e-12 1.45492e-11 7.25806e-11)
(2.26375e-11 4.69079e-11 2.96768e-10)
(1.15971e-11 2.98055e-11 1.78002e-10)
(1.57476e-11 2.90372e-11 7.14926e-11)
(3.19373e-10 7.41952e-10 5.1176e-11)
(9.85699e-11 2.51209e-10 1.16624e-10)
(1.59618e-10 3.73436e-10 1.35838e-10)
(4.96354e-11 1.26779e-10 2.27602e-10)
(8.23141e-11 1.1149e-10 3.8872e-11)
(1.60365e-11 3.69964e-11 3.00053e-11)
(2.42544e-11 4.08041e-11 6.05451e-11)
(6.98827e-11 1.21673e-10 1.38976e-10)
(3.08812e-11 5.15202e-11 2.85287e-10)
(2.61041e-11 5.23565e-11 5.08244e-11)
(2.14512e-10 4.61402e-10 5.38195e-11)
(3.07809e-10 6.03175e-10 5.63272e-11)
(4.21616e-10 4.63183e-10 3.20692e-11)
(2.7838e-10 3.57783e-10 5.53915e-11)
(2.20754e-10 4.33606e-10 8.10567e-11)
(3.04169e-10 6.25697e-10 3.83558e-11)
(2.69644e-10 3.5854e-10 3.6685e-11)
(2.11124e-10 4.6816e-10 3.80747e-11)
(4.23376e-10 4.61928e-10 2.79624e-11)
(3.02763e-10 6.29854e-10 2.04219e-11)
(2.58294e-10 3.49485e-10 2.0745e-11)
(3.02074e-10 6.30306e-10 2.71838e-11)
(2.61816e-10 3.52711e-10 2.87289e-11)
(2.0796e-10 4.70813e-10 2.53969e-11)
(3.84592e-10 7.41913e-10 2.06986e-11)
(3.94801e-10 7.75398e-10 1.99652e-11)
(2.44136e-10 1.11949e-09 2.40798e-11)
(3.49495e-10 8.76655e-10 1.39921e-11)
(3.40813e-10 8.70369e-10 2.15565e-11)
(3.21953e-10 7.86042e-10 4.14031e-11)
(2.33949e-10 1.07609e-09 3.12283e-11)
(3.38336e-10 8.60447e-10 2.46714e-11)
(4.04507e-10 7.75052e-10 1.35992e-11)
(3.9696e-10 7.78675e-10 1.76051e-11)
(1.10961e-11 1.16943e-11 2.50527e-10)
(-6.59881e-12 -6.6615e-12 5.66753e-11)
(3.67821e-12 9.92234e-12 2.36031e-10)
(4.06638e-12 7.13814e-12 6.93773e-11)
(2.16044e-11 1.99586e-11 2.74573e-10)
(4.5928e-12 5.81118e-12 1.86544e-10)
(-2.78252e-12 -3.26362e-12 6.51418e-11)
(1.06032e-11 1.36043e-11 2.44141e-10)
(-5.50904e-12 -1.19261e-11 4.3515e-11)
(6.0832e-12 2.29807e-11 1.69554e-10)
(6.39545e-13 1.56122e-12 6.92043e-11)
(1.90419e-11 3.63576e-11 2.91153e-10)
(3.50162e-12 9.82259e-12 1.31706e-10)
(-4.05862e-12 -7.88602e-12 6.12443e-11)
(1.48663e-11 1.63391e-11 2.66188e-10)
(7.78524e-11 9.02451e-11 1.45893e-10)
(1.92784e-11 1.96926e-11 6.72067e-11)
(1.56216e-11 2.29379e-11 6.91332e-11)
(2.95001e-11 2.74751e-11 2.71071e-10)
(2.83169e-11 4.15809e-11 2.8663e-10)
(5.5931e-12 6.53926e-12 7.04514e-11)
(3.15777e-10 2.80424e-10 4.37662e-11)
(3.0418e-10 2.73324e-10 3.08927e-11)
(2.04126e-10 1.78454e-10 1.45406e-11)
(4.53204e-11 4.69807e-11 8.51915e-12)
(2.01787e-10 1.79411e-10 2.15413e-11)
(2.94036e-10 2.63005e-10 1.77083e-11)
(2.98882e-10 2.67834e-10 2.60456e-11)
(1.97103e-10 1.84888e-10 5.03293e-11)
(4.79755e-11 4.65522e-11 1.12663e-11)
(2.14815e-10 1.87139e-10 2.3675e-11)
(-3.51113e-13 -1.97594e-13 -8.02903e-13)
(-2.34015e-13 -1.65876e-13 3.39562e-12)
(-8.38543e-13 -2.15991e-14 -1.48946e-12)
(-5.08279e-13 -7.33864e-14 3.10255e-12)
(-8.35233e-13 -3.56388e-14 -1.6616e-12)
(-8.53364e-13 -4.62881e-14 -1.49074e-12)
(9.53966e-13 -1.33002e-12 1.51559e-11)
(-1.66138e-12 -1.66995e-12 1.29561e-11)
(-2.50316e-12 -1.05264e-12 1.08136e-11)
(-5.78006e-12 -3.08338e-13 7.65337e-12)
(2.60714e-13 -5.59711e-13 1.17464e-12)
(-5.68927e-12 -7.16513e-13 8.18098e-12)
(-4.4604e-12 -1.60956e-12 1.07025e-11)
(5.29799e-13 -7.83501e-13 1.79835e-12)
(-5.58241e-12 -9.81535e-13 8.49646e-12)
(-1.16257e-12 -2.18614e-14 -2.37004e-12)
(-1.11502e-12 -4.18183e-13 2.0834e-13)
(-1.00934e-12 -1.89144e-14 -2.1604e-12)
(-8.21664e-13 -2.89457e-14 -1.73148e-12)
(-9.20625e-13 -5.6029e-13 7.46141e-13)
(-9.79173e-13 -3.21692e-14 -2.10932e-12)
(2.38581e-10 2.24021e-10 -6.46069e-12)
(2.45197e-10 2.28616e-10 -7.02901e-12)
(1.6541e-10 1.57655e-10 -4.97248e-12)
(3.21771e-11 4.19547e-11 -2.57227e-12)
(1.63757e-10 1.56304e-10 -5.64437e-12)
(2.48569e-10 2.32551e-10 -5.99761e-12)
(2.46223e-10 2.29558e-10 -6.58616e-12)
(1.57751e-10 1.5238e-10 -5.62688e-12)
(3.18293e-11 4.15468e-11 -2.04724e-12)
(1.62204e-10 1.54773e-10 -5.54283e-12)
(3.83989e-10 7.36876e-10 -7.57448e-12)
(3.87765e-10 7.37886e-10 -6.50075e-12)
(3.44067e-10 8.7303e-10 -7.89142e-12)
(2.71729e-10 1.14691e-09 -7.26345e-12)
(3.41082e-10 8.59363e-10 -7.16286e-12)
(3.92471e-10 7.49673e-10 -5.74646e-12)
(3.88838e-10 7.37414e-10 -6.53507e-12)
(3.37483e-10 8.62419e-10 -7.84738e-12)
(2.71329e-10 1.147e-09 -6.67314e-12)
(3.40205e-10 8.60036e-10 -7.00594e-12)
(2.65023e-10 5.86848e-10 -9.38696e-12)
(2.07654e-10 3.04621e-10 -8.05975e-12)
(1.70174e-10 4.40698e-10 -9.71277e-12)
(3.82833e-10 7.37344e-10 -7.38114e-12)
(3.36535e-10 8.63243e-10 -7.88713e-12)
(2.37296e-10 2.23239e-10 -6.73305e-12)
(1.55825e-10 1.51043e-10 -5.1883e-12)
(3.4198e-12 1.43268e-11 4.31167e-11)
(1.78773e-11 -1.77418e-10 2.28375e-10)
(6.09804e-12 3.0693e-11 5.29069e-11)
(1.46944e-11 4.20372e-11 1.72364e-10)
(-1.08064e-11 6.77964e-12 4.99297e-11)
(-7.78061e-12 3.55398e-12 3.11958e-12)
(-1.36281e-11 7.01555e-12 -1.15438e-12)
(-8.79128e-12 3.84764e-12 -1.64547e-11)
(-9.05182e-12 8.53063e-12 -1.63561e-11)
(-1.62155e-11 9.25593e-12 9.18215e-12)
(-3.11461e-12 -1.3733e-13 9.01225e-12)
(-1.03237e-11 7.9274e-12 8.64208e-11)
(-1.37795e-11 1.35537e-11 4.35754e-11)
(-4.73331e-13 9.29674e-12 2.15896e-10)
(-1.86393e-11 1.13555e-11 3.88186e-11)
(-2.26044e-12 5.7049e-12 1.66733e-10)
(-7.32113e-12 1.18037e-11 1.39122e-10)
(-1.87281e-11 1.27979e-11 3.04683e-11)
(-1.08887e-11 8.75031e-12 6.37491e-11)
(-6.12655e-12 1.78859e-11 2.99566e-11)
(-1.61959e-11 1.06391e-11 4.21504e-12)
(-1.97957e-11 1.182e-11 2.40875e-11)
(-9.38694e-12 1.07605e-11 -6.24155e-12)
(-8.0982e-12 1.30023e-11 1.11922e-10)
(-1.92532e-11 1.1856e-11 1.66643e-11)
(1.36801e-11 3.83658e-11 -2.05159e-11)
(-1.93297e-12 7.47543e-12 -1.24503e-12)
(2.62312e-12 3.11333e-11 -1.91271e-11)
(3.84186e-12 1.02653e-11 6.74867e-12)
(5.99994e-11 5.22677e-11 4.60889e-11)
(-1.41128e-12 2.32513e-11 2.3467e-11)
(-3.55054e-12 1.5709e-11 -6.48962e-13)
(-2.34163e-12 1.95512e-11 1.04097e-11)
(1.54598e-12 2.98704e-11 -6.8944e-12)
(3.33135e-11 4.2298e-11 4.84478e-11)
(6.46736e-12 1.39597e-11 1.62967e-10)
(-7.26624e-12 -4.74552e-12 5.00471e-11)
(3.71718e-13 9.5428e-12 2.21231e-10)
(-1.6201e-11 6.60395e-12 4.37428e-11)
(4.59118e-12 6.11208e-12 1.76986e-10)
(-5.06755e-12 1.35294e-11 1.49411e-10)
(-1.00182e-11 8.11765e-13 4.33951e-11)
(1.83648e-11 2.12786e-11 1.12832e-10)
(1.2863e-11 3.86125e-12 2.64341e-11)
(1.12221e-10 3.57294e-11 5.62446e-11)
(1.06204e-11 1.54815e-11 2.05452e-11)
(4.84452e-11 4.1057e-11 5.92433e-11)
(4.8766e-11 1.76125e-11 8.54901e-11)
(6.72448e-13 6.17155e-12 2.89281e-11)
(-4.73382e-12 1.89281e-11 8.65832e-11)
(-1.87356e-12 2.09882e-11 4.00114e-11)
(-1.72031e-11 9.11088e-12 2.8882e-11)
(-3.51157e-12 1.31137e-11 1.92437e-11)
(-5.56584e-12 1.40895e-11 1.21627e-10)
(2.79585e-11 3.55649e-11 6.12876e-11)
(-1.10398e-11 7.12021e-12 3.02251e-11)
(9.07583e-12 8.83176e-11 1.18041e-10)
(-8.85768e-12 1.60068e-11 4.60064e-11)
(-1.7029e-12 1.80628e-12 1.95984e-11)
(1.85947e-11 5.0993e-11 1.56366e-10)
(-2.97065e-12 3.42531e-12 1.86331e-11)
(6.83974e-12 8.31612e-11 1.10875e-10)
(-2.05514e-13 9.01688e-13 1.69413e-11)
(-2.14633e-12 -1.65569e-14 1.42586e-11)
(3.85278e-12 6.82005e-11 8.17292e-11)
(-2.32359e-12 2.42941e-12 1.71736e-11)
(1.21691e-12 -1.8934e-13 6.12485e-13)
(3.52086e-12 -1.4682e-12 1.18155e-11)
(3.07967e-12 -2.09963e-13 1.80379e-12)
(3.89948e-12 -1.04087e-12 1.21963e-11)
(4.18586e-12 7.44436e-14 3.63293e-12)
(4.83788e-12 -2.71124e-13 3.28766e-12)
(-2.44298e-12 1.59566e-11 7.05257e-11)
(-2.63602e-12 -8.37257e-12 2.95601e-11)
(-2.51018e-12 8.11568e-12 9.59195e-11)
(-4.99403e-12 3.72941e-12 2.83543e-11)
(2.9934e-12 1.02151e-11 1.19334e-10)
(-2.95769e-12 2.93031e-11 8.92051e-11)
(-2.6269e-12 -1.8297e-13 2.31123e-11)
(4.31261e-12 2.22016e-11 5.18714e-11)
(4.963e-12 -6.50523e-12 9.26471e-12)
(2.05762e-11 2.21296e-13 5.57665e-11)
(5.49432e-13 -2.99864e-12 8.78466e-12)
(2.48245e-12 3.17296e-11 5.24564e-11)
(-1.99452e-12 1.60796e-13 1.23023e-11)
(1.59006e-12 4.48693e-13 2.33118e-12)
(2.41461e-12 6.33625e-11 7.42943e-11)
(-4.29863e-13 -2.22221e-12 8.3668e-12)
(8.21081e-11 1.29138e-11 6.46315e-11)
(2.37934e-11 2.68538e-12 2.40384e-11)
(1.26094e-10 2.3092e-11 6.14271e-11)
(5.99365e-11 -4.63654e-12 -6.97658e-12)
(6.04546e-11 1.36892e-11 5.04798e-11)
(1.73502e-10 1.18515e-11 1.90458e-11)
(3.15283e-11 -2.19588e-12 2.09749e-11)
(6.70756e-11 9.37406e-12 5.73217e-11)
(6.67877e-12 -7.33711e-12 9.89728e-12)
(2.86303e-11 1.19602e-12 5.60464e-11)
(1.37965e-11 -4.45828e-12 1.08729e-11)
(8.79087e-11 1.34358e-11 5.29421e-11)
(6.10288e-11 -7.35883e-12 -8.17302e-12)
(1.84986e-10 1.30265e-11 -4.52228e-12)
(3.82901e-11 -1.28557e-11 1.84774e-11)
(1.96609e-10 4.71825e-10 3.0718e-12)
(4.18566e-10 4.40804e-10 9.13281e-12)
(2.88542e-10 6.32823e-10 1.52843e-12)
(2.31193e-10 3.32728e-10 -2.98849e-12)
(1.88616e-10 4.72752e-10 -1.60413e-12)
(2.97298e-10 6.30458e-10 4.93768e-12)
(2.42792e-10 3.39604e-10 1.49673e-12)
(2.0246e-10 4.70523e-10 8.82591e-12)
(4.21518e-10 4.43732e-10 1.03833e-11)
(3.04656e-10 6.27969e-10 1.39634e-11)
(2.55871e-10 3.47008e-10 1.42571e-11)
(2.05993e-10 4.7028e-10 1.65887e-11)
(3.03445e-10 6.28282e-10 9.95065e-12)
(2.50857e-10 3.43744e-10 6.53465e-12)
(2.56538e-10 2.39865e-10 -2.48565e-12)
(2.46484e-10 2.33195e-10 -3.24118e-12)
(1.64179e-10 1.5773e-10 -4.65241e-12)
(3.42019e-11 4.28192e-11 -1.50288e-12)
(1.64522e-10 1.57486e-10 -4.04764e-12)
(2.48042e-10 2.3278e-10 -5.25445e-12)
(2.4661e-10 2.33086e-10 -4.15157e-12)
(1.71038e-10 1.60848e-10 -2.81695e-12)
(3.48297e-11 4.32114e-11 -1.75512e-12)
(1.64265e-10 1.57282e-10 -3.40704e-12)
(4.06398e-10 7.99447e-10 2.64883e-13)
(4.01202e-10 7.90781e-10 -4.1458e-12)
(3.45254e-10 8.80638e-10 -8.08689e-12)
(2.78631e-10 1.20384e-09 -9.57313e-12)
(3.50383e-10 9.13924e-10 -6.86264e-12)
(3.93806e-10 7.55645e-10 -5.80015e-12)
(3.99014e-10 7.82262e-10 -4.51219e-12)
(3.56262e-10 9.29712e-10 9.33023e-13)
(2.8171e-10 1.22469e-09 -5.45342e-12)
(3.52229e-10 9.23392e-10 -5.98871e-12)
(4.07831e-10 7.94965e-10 1.16612e-12)
(4.10948e-10 7.79174e-10 5.56635e-12)
(3.52274e-10 8.7451e-10 1.22769e-11)
(2.70438e-10 1.14343e-09 1.34609e-11)
(3.5754e-10 8.82592e-10 9.21958e-12)
(4.06851e-10 7.73247e-10 1.18206e-11)
(4.11415e-10 7.75579e-10 7.0195e-12)
(3.5706e-10 9.23342e-10 2.65284e-12)
(2.75618e-10 1.17381e-09 1.31149e-11)
(3.57671e-10 8.91424e-10 8.04249e-12)
(2.60534e-10 2.42318e-10 -9.84531e-13)
(2.79611e-10 2.54201e-10 3.47291e-12)
(2.02209e-10 1.77128e-10 9.98179e-12)
(4.2477e-11 4.60367e-11 1.32063e-12)
(1.96262e-10 1.74407e-10 4.77122e-12)
(2.92651e-10 2.61712e-10 1.41103e-11)
(2.83438e-10 2.56334e-10 6.09212e-12)
(1.77359e-10 1.64771e-10 -1.26375e-12)
(4.02658e-11 4.54175e-11 3.91478e-13)
(1.89231e-10 1.71151e-10 1.41087e-12)
(-9.05764e-13 -2.18576e-12 2.89788e-11)
(-2.02054e-12 -5.44611e-13 2.67805e-11)
(2.5437e-13 -3.66996e-13 1.37157e-11)
(-2.97406e-12 -1.77541e-13 9.14328e-12)
(-2.93737e-12 -2.3012e-13 9.41253e-12)
(-5.78823e-12 -2.86153e-13 7.54646e-12)
(-5.33788e-13 -1.17339e-13 -2.43079e-13)
(-5.82454e-12 -1.92032e-13 7.20737e-12)
(-5.83986e-12 -1.40555e-13 6.88749e-12)
(-5.98866e-13 -1.05818e-13 -3.73004e-13)
(-5.82595e-12 -1.95157e-13 7.13117e-12)
(-1.35133e-12 -5.46216e-16 -2.6226e-12)
(-1.20186e-12 -8.4402e-15 -2.42064e-12)
(-1.69358e-12 -1.07732e-13 -1.14816e-12)
(-1.25456e-12 -1.16815e-14 -2.51495e-12)
(-1.75897e-12 -7.32294e-14 -1.28767e-12)
(-1.3275e-12 -1.20618e-14 -2.5975e-12)
(-1.27426e-12 -1.2872e-15 -2.53722e-12)
(-5.89197e-13 -2.78069e-14 1.04561e-12)
(-1.85287e-12 -4.02577e-13 -1.14554e-12)
(-1.21818e-13 3.56338e-13 2.19331e-13)
(-7.72942e-13 2.99088e-14 -4.79608e-12)
(2.16562e-13 1.50582e-12 1.82963e-12)
(-1.84407e-12 -8.58478e-13 2.58655e-13)
(-1.64229e-12 -3.49993e-13 -3.31618e-12)
(-1.10112e-12 5.41719e-13 -6.0656e-12)
(1.5785e-13 -1.5801e-13 -1.95621e-12)
(4.97434e-13 2.54313e-13 -1.49006e-12)
(-1.69552e-12 -5.46187e-13 -1.19694e-11)
(-7.88939e-14 4.13616e-13 -4.74916e-12)
(7.98924e-13 4.49511e-13 -2.18481e-12)
(-2.31544e-12 -2.71019e-13 -9.27753e-12)
(7.87352e-12 5.49699e-11 1.26995e-10)
(1.49008e-12 1.35418e-11 4.65113e-11)
(3.45448e-12 6.31248e-11 1.3394e-10)
(-7.06187e-13 1.00722e-11 4.8468e-11)
(-3.33796e-12 3.672e-11 1.38954e-10)
(1.43457e-11 4.64802e-11 1.38203e-10)
(-6.37105e-13 1.30754e-11 4.17919e-11)
(3.07955e-10 4.35238e-10 8.94454e-11)
(4.03324e-10 5.56702e-10 4.52288e-11)
(4.20996e-10 4.68079e-10 1.24036e-11)
(3.83742e-10 4.34282e-10 4.78554e-11)
(3.72296e-10 4.14004e-10 4.8666e-11)
(3.85253e-10 5.23123e-10 3.52004e-11)
(3.32286e-10 4.79311e-10 6.10931e-11)
(3.54337e-11 1.51544e-10 1.21185e-10)
(1.48589e-11 4.64665e-11 4.34141e-11)
(1.00189e-10 2.87124e-10 1.18862e-10)
(1.7093e-11 4.83843e-11 3.7373e-11)
(4.6594e-11 1.41127e-10 1.37586e-10)
(8.46772e-11 1.52571e-10 1.06084e-10)
(9.22057e-12 4.23562e-11 3.83834e-11)
(-1.55685e-12 -1.30448e-12 5.23252e-13)
(1.47776e-12 -7.11442e-13 6.13184e-12)
(-1.98926e-12 -8.02431e-13 -3.7431e-13)
(8.30577e-13 -4.41394e-13 5.2001e-12)
(-1.7168e-12 -1.33621e-12 -1.78888e-14)
(-2.07427e-12 -8.54873e-13 -1.47912e-13)
(2.74148e-10 4.3238e-10 -8.34149e-12)
(3.75728e-10 3.92179e-10 -5.45017e-12)
(3.52726e-10 4.82124e-10 -7.09625e-12)
(2.9982e-10 3.4052e-10 -7.12919e-12)
(3.02931e-10 3.43197e-10 -6.52168e-12)
(3.55816e-10 4.8455e-10 -7.03728e-12)
(2.71877e-10 4.30833e-10 -8.25403e-12)
(2.81943e-10 4.41165e-10 -7.6163e-12)
(3.84354e-10 4.01352e-10 -5.40283e-12)
(3.12612e-10 3.53944e-10 -5.74787e-12)
(3.65318e-10 4.96839e-10 -5.72913e-12)
(2.81997e-10 4.43298e-10 -7.24459e-12)
(3.12002e-10 3.51663e-10 -6.61248e-12)
(3.63508e-10 4.93509e-10 -6.15782e-12)
(2.5537e-11 4.96099e-11 4.23306e-11)
(8.1433e-11 1.50319e-10 1.33523e-10)
(-1.52997e-11 2.6323e-11 -6.44717e-12)
(-6.84054e-12 2.44217e-11 -3.81031e-12)
(-3.97704e-12 9.63189e-12 -1.78204e-12)
(-7.75917e-12 2.53199e-11 -4.50955e-12)
(-7.79071e-12 9.83148e-12 -1.30892e-12)
(-7.03016e-13 -1.634e-12 2.35538e-12)
(3.19598e-12 -1.94271e-12 1.01831e-11)
(5.8609e-13 -1.67033e-12 4.56396e-12)
(4.04067e-12 -1.93184e-12 1.14126e-11)
(7.43906e-12 -1.79246e-13 1.80373e-11)
(3.29234e-12 -8.34451e-13 6.02749e-12)
(2.83021e-10 4.62093e-10 -3.34066e-12)
(3.89495e-10 4.14825e-10 1.319e-12)
(3.73974e-10 5.23374e-10 -1.18112e-13)
(3.16925e-10 3.67395e-10 2.76612e-13)
(2.87417e-10 4.65018e-10 -2.64766e-12)
(3.10997e-10 3.62152e-10 -1.52295e-12)
(3.68143e-10 5.18137e-10 -7.53006e-13)
(2.80641e-10 4.48184e-10 -6.23316e-12)
(3.861e-10 4.06498e-10 -4.14567e-12)
(3.11067e-10 3.53877e-10 -5.86045e-12)
(3.64573e-10 4.9936e-10 -5.42892e-12)
(2.81542e-10 4.45687e-10 -6.76498e-12)
(3.10566e-10 3.55694e-10 -4.68712e-12)
(3.65184e-10 5.02292e-10 -4.7623e-12)
(-4.4061e-12 -1.211e-13 -8.1742e-12)
(-7.14445e-13 -8.59028e-14 -7.47395e-13)
(-4.45509e-12 -1.26824e-13 -8.41463e-12)
(4.14704e-10 3.83038e-10 4.60621e-11)
(4.08583e-10 3.75973e-10 1.92451e-11)
(4.49015e-10 6.07656e-10 2.84163e-11)
(4.32546e-10 5.79554e-10 -1.06328e-11)
(3.30142e-10 4.89267e-10 4.12186e-11)
(4.08804e-10 5.69276e-10 3.03064e-11)
(4.26877e-10 4.72278e-10 3.7497e-11)
(3.78483e-10 4.27218e-10 3.72208e-11)
(3.33632e-10 4.86365e-10 4.89235e-11)
(3.96136e-10 5.53878e-10 3.29868e-11)
(3.67897e-10 4.16646e-10 3.71582e-11)
(3.18042e-10 4.83036e-10 2.16107e-11)
(4.22322e-10 4.54255e-10 2.16776e-11)
(3.96216e-10 5.42217e-10 1.81801e-11)
(3.53765e-10 3.9663e-10 1.91656e-11)
(3.95104e-10 5.43858e-10 1.9953e-11)
(3.54136e-10 3.99151e-10 2.2313e-11)
(3.18728e-10 4.81613e-10 1.90564e-11)
(4.67467e-10 6.24413e-10 2.16106e-11)
(4.55887e-10 6.10371e-10 2.96487e-11)
(4.68118e-10 5.99225e-10 1.67413e-11)
(4.65364e-10 6.00153e-10 1.896e-11)
(4.08238e-10 3.73951e-10 4.10186e-11)
(3.99558e-10 3.65715e-10 4.20574e-11)
(3.81182e-10 3.41589e-10 1.9781e-11)
(3.82565e-10 3.45091e-10 2.32588e-11)
(-1.16594e-12 -6.26967e-13 6.19563e-13)
(8.43932e-14 -5.56825e-13 4.03292e-12)
(-1.34795e-12 -3.72125e-13 3.62038e-13)
(-4.65237e-13 -2.70848e-13 3.18301e-12)
(-1.74975e-12 -3.58531e-13 -3.73518e-13)
(-1.62692e-12 -2.39124e-13 -2.13042e-13)
(-4.1227e-12 -2.14831e-13 -7.75672e-12)
(-8.25604e-14 -3.07486e-13 4.82833e-13)
(-4.03811e-12 -2.73854e-13 -7.7768e-12)
(-2.60974e-12 -1.62533e-12 -3.29893e-12)
(1.10169e-12 -1.09325e-12 3.86992e-12)
(-2.85972e-12 -1.58065e-12 -4.86953e-12)
(-2.67366e-12 -1.42307e-13 -3.28406e-12)