/*--------------------------------*- C++ -*----------------------------------*\
| =========                 |                                                 |
| \\      /  F ield         | OpenFOAM: The Open Source CFD Toolbox           |
|  \\    /   O peration     | Version:  2012                                  |
|   \\  /    A nd           | Website:  www.openfoam.com                      |
|    \\/     M anipulation  |                                                 |
\*---------------------------------------------------------------------------*/
FoamFile
{
    version     2.0;
    format      ascii;
    class       volVectorField;
    location    "0.104/solid";
    object      sigmaMaxDir;
}
// * * * * * * * * * * * * * * * * * * * * * * * * * * * * * * * * * * * * * //

dimensions      [1 -1 -2 0 0 0 0];


internalField   nonuniform List<vector> 
3124
(
(0.639539 0.44658 -0.625744)
(-0.205047 -0.0270284 0.978379)
(0.55788 0.827776 -0.059636)
(0.99661 -0.0808593 0.015154)
(0.149288 0.988682 -0.0148777)
(-0.0507412 0.124403 0.990934)
(0.718612 0.688952 -0.0945662)
(0.99633 -0.0821893 0.0239194)
(0.0610043 0.998096 -0.00906199)
(0.988243 0.14017 -0.0610543)
(0.134242 0.97766 -0.161738)
(0.82272 -0.119283 0.55579)
(-0.498849 0.860819 0.100697)
(-0.0284057 0.999549 0.00977414)
(0.927501 0.3694 -0.057328)
(-0.596709 0.795792 0.10322)
(0.749376 0.657358 -0.0794758)
(-0.412369 0.906118 0.0943509)
(-0.505547 0.854265 0.121054)
(0.969063 -0.106295 0.222751)
(-0.023998 0.999704 0.00400696)
(-0.0213721 0.999762 0.00430239)
(-0.0269171 0.999555 0.0128494)
(-0.0421821 0.092584 0.994811)
(0.738774 0.384178 -0.553733)
(0.329846 0.830312 -0.449204)
(-0.272082 -0.238869 0.932155)
(-0.169135 -0.286325 0.943086)
(0.492409 0.627806 -0.602821)
(-0.15559 -0.228071 0.961132)
(0.886463 -0.319356 -0.334955)
(-0.280539 0.958044 0.0587356)
(-0.399238 0.894409 0.201596)
(0.0119717 -0.000888923 0.999928)
(-0.00992195 0.00864128 0.999913)
(0.875419 0.124879 0.466954)
(0.996806 -0.0783359 0.015517)
(0.00491275 -0.00737229 0.999961)
(0.981258 0.129197 0.142975)
(0.0162537 0.00498958 0.999855)
(0.343662 0.809032 -0.476826)
(-0.0937957 0.982382 -0.161644)
(0.174281 0.180185 0.96807)
(0.175308 -0.617497 0.766788)
(0.370137 -0.5259 0.765786)
(0.818238 -0.563007 -0.116232)
(0.863224 0.462433 -0.202485)
(-0.138162 0.989156 0.049818)
(0.0260504 -0.0011008 0.99966)
(0.994414 -0.0861399 0.0609904)
(-0.0182087 0.00687299 0.999811)
(0.783659 0.114758 0.610499)
(0.0045488 -0.00671315 0.999967)
(0.181043 0.00631842 0.983455)
(0.0626123 -0.0099863 0.997988)
(-0.0427441 0.998825 0.0228395)
(-0.0168015 0.999854 0.00316237)
(-0.0262087 0.999613 0.00933473)
(-0.143124 0.0120373 0.989632)
(0.629823 0.625121 -0.461028)
(0.967715 0.251858 0.00976539)
(0.663049 0.550014 -0.507789)
(0.377284 -0.337713 0.862326)
(0.315234 0.82248 -0.473449)
(0.654199 0.755634 0.032277)
(-0.191552 -0.467215 0.863145)
(0.487757 0.699406 -0.522421)
(0.0185359 0.124353 0.992065)
(0.224115 -0.130396 0.9658)
(0.0240656 0.00910775 0.999669)
(0.184387 -0.0792615 0.979653)
(-0.104207 -0.145513 0.983853)
(-0.0236956 0.0152675 0.999603)
(0.30613 -0.140297 0.941595)
(-0.0254026 0.0149866 0.999565)
(-0.0490354 -0.025015 0.998484)
(0.703431 0.710657 0.0122757)
(0.720345 0.689211 0.0780515)
(0.660711 0.679339 -0.319312)
(0.392585 -0.315348 0.863963)
(0.522464 -0.391206 0.757621)
(0.987295 0.158766 0.00650776)
(0.996733 0.0578898 0.0563161)
(-0.32922 0.941561 0.0712587)
(-0.257664 0.0348939 0.965604)
(-0.49924 0.778509 0.380373)
(0.753467 0.0633278 0.654429)
(0.98166 0.15602 0.109551)
(0.0478327 -0.0239273 0.998569)
(-0.0765195 0.0527618 0.995671)
(0.0118352 0.0103799 0.999876)
(0.00639608 -0.00608432 0.999961)
(0.00962175 -0.00317718 0.999949)
(0.997102 -0.0752166 0.0114345)
(0.980452 0.128151 0.149299)
(0.00783841 0.00640542 0.999949)
(0.00592502 -0.0028696 0.999978)
(0.0326086 -0.00961858 0.999422)
(0.480941 0.728686 -0.487559)
(0.809324 -0.585888 -0.0416006)
(0.457668 0.0790269 0.885604)
(0.917625 -0.382531 0.107864)
(0.616124 -0.610444 0.497744)
(0.143893 -0.522955 0.840127)
(-0.406143 0.731664 -0.547463)
(-0.63626 0.769424 -0.0562231)
(-0.429231 0.895825 0.115141)
(-0.575534 0.74584 -0.335386)
(-0.587173 0.809277 0.017275)
(0.933405 0.358712 0.00895907)
(-0.328162 0.943965 0.0352083)
(0.960664 0.277397 -0.0132733)
(0.0070854 0.999851 -0.0157445)
(0.962733 0.266176 0.0479039)
(0.97422 0.192185 -0.118157)
(-0.190169 0.981619 0.0161107)
(0.030459 0.00420138 0.999527)
(0.987346 -0.0957678 0.126402)
(0.0422934 0.00883113 0.999066)
(0.137639 -0.0495282 0.989243)
(-0.0149397 0.0132555 0.999801)
(0.0284355 -0.0281703 0.999199)
(0.136723 -0.032978 0.99006)
(-0.0627262 0.0384867 0.997288)
(0.146601 -0.0995395 0.984175)
(0.0153754 0.0183986 0.999713)
(0.011417 -0.0111492 0.999873)
(-0.0116535 0.00978251 0.999884)
(0.00761086 -0.025976 0.999634)
(0.427441 -0.32351 0.844177)
(0.0644913 -0.0543695 0.996436)
(-0.0513253 0.99837 0.0249469)
(-0.0230634 0.99973 0.00273675)
(-0.0326021 0.999451 0.00584485)
(-0.231203 0.0277069 0.972511)
(-0.150962 0.00935363 0.988495)
(0.607168 0.00681392 0.794544)
(0.719647 0.0331337 0.693549)
(0.618332 0.0187969 0.785692)
(0.998876 0.0430269 0.019875)
(0.562231 0.544389 0.622525)
(0.493068 0.814729 0.305125)
(0.998174 0.00105654 -0.0604031)
(0.0810139 0.996713 -0.000678123)
(0.998628 -0.0114628 -0.0510924)
(0.172094 0.984853 -0.0211913)
(-0.0761102 0.0197931 0.996903)
(-0.0946327 0.346688 0.933195)
(0.411447 0.887605 0.20705)
(-0.0396563 -0.180093 0.98285)
(0.947054 0.269903 -0.173901)
(0.995772 -0.0706968 -0.0586567)
(0.98953 -0.1363 -0.0474667)
(0.00296793 0.99999 -0.00330981)
(0.78812 -0.6052 -0.112248)
(0.908039 0.274125 -0.316733)
(0.995367 0.0961527 0.000149869)
(-0.0249967 0.896666 -0.442002)
(0.996805 -0.0685491 0.0409936)
(0.959693 0.211161 -0.185474)
(0.960981 0.0261452 -0.275375)
(0.529387 0.838455 -0.129395)
(0.099369 0.864518 -0.49268)
(-0.028712 0.999587 0.00101988)
(0.36151 0.924528 -0.120661)
(0.937624 0.346428 -0.0291297)
(0.107126 0.991456 0.0744279)
(0.24386 0.924469 -0.293068)
(0.704457 0.705079 0.081264)
(-0.270684 0.961883 0.0388695)
(-0.285977 0.954066 0.0893052)
(-0.387199 0.917023 0.0956282)
(-0.332737 0.941037 0.061126)
(0.589357 0.805436 0.0626971)
(0.425565 0.899482 0.0991266)
(-0.0938553 0.995129 0.0301692)
(0.999993 -0.00366619 -0.000315967)
(0.999822 0.0173981 -0.00723901)
(0.0267306 0.865457 -0.500269)
(0.103551 0.994619 -0.00314249)
(0.949096 -0.314963 -0.00392572)
(0.97814 -0.128366 0.163596)
(0.926062 0.368597 0.080907)
(0.990288 0.0818755 0.112367)
(-0.0298273 0.895059 -0.444948)
(0.991976 -0.0957258 0.0825803)
(0.967472 -0.0117798 0.252705)
(0.00159115 0.863455 -0.504423)
(-0.541751 0.840055 0.0285203)
(-0.362115 0.931318 0.0389675)
(-0.568215 0.81981 0.0710143)
(-0.596746 0.798647 0.0778287)
(-0.513049 0.855407 0.0711353)
(-0.379475 0.925186 0.00542406)
(-0.646222 0.762868 0.0207123)
(0.648882 0.756835 0.0784358)
(-0.222996 0.974588 -0.0212309)
(0.913502 -0.406738 -0.0088195)
(-0.173716 0.979819 0.0988817)
(0.641475 0.765502 0.0501694)
(-0.0908132 0.994115 0.0590628)
(0.346568 0.937361 0.035287)
(-0.227116 0.96693 0.11604)
(-0.306223 0.951956 0.00256993)
(-0.49734 0.860807 0.108003)
(-0.416909 0.894248 0.162808)
(-0.32846 0.943848 -0.0355678)
(-0.20007 0.978151 0.0565043)
(-0.450171 0.874913 0.178531)
(-0.0201082 0.999777 0.00650664)
(-0.0254662 0.99967 0.00335589)
(-0.0348485 0.999365 0.00741856)
(0.999998 0.00170757 0.00114544)
(0.99997 -0.00609242 0.00487917)
(-0.26204 -0.361239 0.894898)
(-0.0318566 -0.111814 0.993218)
(-0.401267 -0.306225 0.863256)
(0.0248754 -0.113549 0.993221)
(-0.346495 -0.281739 0.894743)
(-0.28419 -0.431295 0.856283)
(-0.0334264 -0.232305 0.972068)
(-0.539201 -0.468616 0.699758)
(-0.522608 -0.429231 0.736642)
(0.663051 0.601404 -0.445732)
(0.389813 0.751674 -0.532008)
(0.685235 0.363358 -0.631209)
(0.380682 0.674693 -0.632354)
(0.4344 0.757975 -0.486592)
(0.424264 0.61611 0.663633)
(0.97521 0.220443 -0.0192393)
(0.130748 0.989969 -0.053532)
(0.998794 -0.0487933 0.00541672)
(0.00695761 0.999913 0.011187)
(0.998026 0.0487489 -0.0395975)
(0.998355 -0.028921 -0.0494985)
(-0.119377 0.992848 -0.00148544)
(0.991785 0.126911 0.0159953)
(0.995344 -0.0963717 0.00135739)
(0.0687622 0.00247002 0.99763)
(0.0122869 -0.00407211 0.999916)
(0.0231751 -0.000343476 0.999731)
(0.0134016 0.00643243 0.99989)
(0.0180039 0.000149129 0.999838)
(0.0183444 -0.00246018 0.999829)
(0.0346617 0.0121223 0.999326)
(0.0042612 0.0131444 0.999905)
(0.011251 -0.00325174 0.999931)
(-0.00314625 -2.9259e-05 0.999995)
(-0.00296898 0.00799175 0.999964)
(0.0168445 0.00615369 0.999839)
(0.0028774 0.00636805 0.999976)
(0.0117674 0.003004 0.999926)
(0.221264 0.97461 -0.0343192)
(-0.112499 -0.00669481 0.993629)
(-0.0436247 0.24186 0.96933)
(0.220564 -0.166881 0.96099)
(-0.00829269 0.176867 0.9842)
(0.125481 -0.180498 0.975538)
(0.0617423 -0.104374 0.99262)
(-0.14183 0.0347267 0.989282)
(-0.130184 -0.0445945 0.990487)
(-0.203642 0.0775762 0.975967)
(0.12789 -0.557001 0.820606)
(-0.303312 0.0592379 0.951048)
(0.0742627 -0.315994 0.94585)
(-0.0451529 -0.173225 0.983847)
(0.486498 -0.402683 0.775349)
(0.305304 -0.329645 0.893378)
(0.100452 -0.470212 0.876818)
(0.167984 -0.105388 0.98014)
(-0.363694 0.0660477 0.929174)
(0.114028 -0.338642 0.93398)
(0.929016 0.325706 -0.175627)
(-0.0434178 0.997692 -0.0522024)
(0.988171 0.14705 -0.0435229)
(0.965063 0.259755 -0.0343527)
(0.750369 0.629724 -0.20098)
(0.992796 -0.110112 -0.0472478)
(0.197031 0.97884 -0.0552298)
(0.842127 0.473696 -0.257748)
(0.956988 0.287545 -0.0386369)
(0.0449758 0.0190072 0.998807)
(0.00763275 -0.00800866 0.999939)
(0.0494186 -0.000626149 0.998778)
(0.0481633 -0.000783929 0.998839)
(0.154128 0.00677142 0.988028)
(0.00963756 0.00327816 0.999948)
(0.0224195 0.0119247 0.999678)
(0.0224998 0.0101642 0.999695)
(0.00425695 -0.0106079 0.999935)
(-0.0180149 0.00499404 0.999825)
(-0.00668588 0.0159667 0.99985)
(-0.0400837 0.017516 0.999043)
(-0.0100235 -0.00346598 0.999944)
(-0.00295611 0.0166229 0.999857)
(-0.0211434 0.999762 0.00529825)
(-0.0176692 0.999842 0.00186559)
(-0.0235364 0.999718 0.00328311)
(0.999962 0.00235207 0.00841133)
(0.9927 0.00917838 0.120259)
(0.17895 -0.00878467 0.983819)
(-0.470608 -0.235758 0.850262)
(0.797566 0.0834706 -0.597429)
(0.297345 0.698201 -0.651231)
(-0.535841 0.795475 -0.283009)
(0.682025 0.452708 -0.574367)
(0.116802 -0.41802 0.900898)
(0.396261 0.786672 -0.473418)
(0.788779 -0.0738391 -0.610226)
(0.982626 0.115998 -0.144881)
(0.990307 0.138654 0.00823925)
(0.996488 0.0801821 0.024141)
(0.897884 0.432823 -0.0804289)
(0.930797 0.364836 -0.0226012)
(0.997352 -0.0600599 0.0410123)
(0.952326 0.278103 -0.125435)
(0.754037 0.409379 -0.513651)
(-0.59681 -0.500971 0.626774)
(0.653143 0.530716 -0.540134)
(0.831185 0.490449 -0.261899)
(0.740315 0.278153 -0.612016)
(0.869695 0.487665 -0.0762422)
(0.860182 0.35293 -0.368141)
(-0.4821 -0.139621 0.86492)
(-0.11896 -0.368573 0.921956)
(0.140558 -0.477967 0.867059)
(-0.0983416 0.114284 0.988569)
(-0.494278 -0.250091 0.832552)
(0.607005 0.706117 -0.364614)
(-0.138052 -0.669098 0.730239)
(-0.00331286 -0.341895 0.939732)
(0.215863 0.784142 -0.581829)
(0.368137 0.71044 -0.599792)
(0.0362018 0.911113 -0.410563)
(0.235504 0.781798 -0.577347)
(0.406005 0.909747 -0.0867171)
(0.622423 0.782027 -0.0319986)
(0.449738 0.89171 0.050883)
(0.461164 0.884824 -0.0664381)
(0.57361 0.818579 -0.030005)
(0.583439 0.806532 0.0954173)
(0.417424 0.898023 -0.138971)
(-0.0219391 -0.0150201 0.999646)
(-0.110089 0.001034 0.993921)
(-0.252284 -0.519971 0.816077)
(0.642905 0.726239 -0.243411)
(-0.52158 -0.592797 0.613634)
(0.357178 0.695565 -0.623388)
(0.494089 0.8282 -0.2645)
(-0.593761 -0.258364 0.762034)
(0.52557 0.846943 -0.0804047)
(0.344048 0.842646 -0.414221)
(0.143267 -0.0177237 0.989525)
(0.080057 0.0113363 0.996726)
(-0.0240719 0.0501431 0.998452)
(0.134702 0.0136128 0.990793)
(0.119959 -0.0694968 0.990343)
(0.0623312 0.0258468 0.997721)
(0.0820275 0.0140576 0.996531)
(0.123985 -0.00531858 0.99227)
(-0.0223778 0.0406147 0.998924)
(0.0125354 0.0234036 0.999648)
(0.0222081 0.00168323 0.999752)
(0.0344204 0.0301565 0.998952)
(0.0567597 0.00869705 0.99835)
(0.0752657 0.00719623 0.997138)
(-0.0206969 0.0401059 0.998981)
(-0.0487995 0.0556757 0.997256)
(-0.0388984 0.000263489 0.999243)
(-0.0265485 0.032653 0.999114)
(0.00517583 0.0198799 0.999789)
(0.0247907 -0.00100485 0.999692)
(-0.0767035 -0.0528885 0.99565)
(-0.0104097 0.02726 0.999574)
(-0.0399257 0.029039 0.998781)
(-0.0195442 0.0362592 0.999151)
(0.751355 0.658753 0.0388684)
(0.11886 0.991584 0.0513216)
(0.991483 0.128495 0.0212367)
(0.792295 0.608991 -0.0373897)
(0.893805 0.448455 -0.00124735)
(-0.293183 0.954548 0.0536853)
(0.634617 0.772458 0.0238697)
(0.714441 0.696957 0.061845)
(0.723267 0.682303 0.106523)
(0.586101 0.80126 0.120281)
(0.533384 0.845849 -0.00636663)
(0.643027 0.765843 0.000358405)
(0.652567 0.756857 0.0363772)
(0.556794 0.828987 0.0525451)
(0.735737 0.677172 0.0114109)
(0.623329 0.582662 -0.521504)
(0.765587 0.62781 -0.140463)
(0.610416 0.779796 -0.138963)
(0.858034 0.512442 -0.0343625)
(0.605791 0.793771 -0.0542722)
(0.664899 0.745541 -0.0455892)
(0.148278 0.0100009 0.988895)
(0.07157 0.00532762 0.997421)
(0.0158511 -0.0398174 0.999081)
(0.475978 -0.365806 0.799769)
(0.0650243 -0.0605653 0.996044)
(0.0293956 -0.0208344 0.999351)
(0.0469122 -0.0108891 0.99884)
(0.168211 -0.0390487 0.984977)
(0.440106 -0.358629 0.82322)
(0.0135333 -0.0540309 0.998448)
(0.150466 0.071771 0.986006)
(0.998187 0.0330832 0.0502737)
(0.23284 0.00416138 0.972506)
(0.995116 -0.0831582 0.0531806)
(0.208331 0.00803673 0.978025)
(0.236536 0.0133709 0.971531)
(-0.140649 0.989379 0.0367018)
(0.995235 0.0923256 -0.0313634)
(0.999417 0.0320992 -0.0115945)
(0.994605 0.00182685 0.103718)
(-0.391361 0.113573 0.913202)
(0.994803 0.0426787 0.0924403)
(0.979216 0.19973 0.0352808)
(-0.476675 0.167127 0.863047)
(0.994069 0.0694716 0.0836696)
(0.214251 0.00358698 0.976772)
(0.885103 0.119788 0.449715)
(0.203271 0.00237476 0.97912)
(0.200041 0.00596071 0.979769)
(0.92772 0.146877 0.343166)
(0.200307 0.00578054 0.979716)
(0.0119351 0.0056064 0.999913)
(0.000647462 -0.00106181 0.999999)
(0.00751931 -0.0113751 0.999907)
(-0.0842715 0.0561679 0.994859)
(-0.0097243 0.0130285 0.999868)
(-0.00868923 -0.00710362 0.999937)
(0.00947243 0.00526938 0.999941)
(-0.0065644 0.0132801 0.99989)
(0.0448887 -0.0174866 0.998839)
(0.0128227 -0.00935362 0.999874)
(-0.0160809 -0.002427 0.999868)
(0.0312843 -0.0081173 0.999478)
(0.0275289 0.0157999 0.999496)
(0.00859075 -2.50236e-05 0.999963)
(-0.0116668 -0.00629136 0.999912)
(0.035453 0.00542158 0.999357)
(-0.0138779 -0.00264833 0.9999)
(-0.0112366 -0.00737948 0.99991)
(0.00641727 -0.00680371 0.999956)
(0.0293521 -0.0103293 0.999516)
(0.0149663 -0.000423014 0.999888)
(0.0151531 0.000146616 0.999885)
(0.0705774 0.00416516 0.997498)
(0.0334013 -0.00570995 0.999426)
(0.0310639 -0.00595883 0.9995)
(1.59839e-05 -0.00138567 0.999999)
(0.0104012 -0.00857475 0.999909)
(-0.117769 -0.666748 0.73592)
(0.0415451 0.912162 -0.407719)
(-0.166308 0.974164 -0.152796)
(0.806267 -0.58316 0.0992888)
(0.957466 -0.170839 0.232535)
(0.853948 0.164554 0.493654)
(0.494853 -0.257588 0.829921)
(0.392714 0.104585 0.913695)
(0.309622 -0.188454 0.931998)
(0.832311 -0.207013 0.514202)
(-0.110482 0.791793 -0.600714)
(0.970106 -0.200175 0.137202)
(0.988023 -0.097447 0.119648)
(0.996409 -0.0756119 0.0380984)
(0.81361 -0.55015 0.188082)
(0.992308 -0.0992706 0.0739596)
(0.86658 -0.487827 0.105185)
(0.921743 -0.307511 0.236278)
(0.939895 -0.281143 0.193791)
(0.76848 -0.573566 0.283657)
(0.599893 -0.42842 0.67571)
(0.723485 -0.620259 0.303065)
(0.493655 -0.154952 0.855742)
(0.827784 -0.542191 0.144231)
(0.807079 -0.430408 0.404193)
(-0.0077775 0.0378767 0.999252)
(0.0704637 -0.614094 0.786081)
(-0.322465 0.168409 0.93148)
(-0.184996 0.883108 -0.431157)
(-0.643494 0.763259 -0.0578895)
(0.686951 -0.645856 0.333118)
(0.136496 -0.615666 0.776096)
(-0.434368 0.83989 -0.325436)
(0.389411 -0.477007 0.787923)
(0.718056 -0.689892 0.091895)
(-0.638228 0.769778 0.0103469)
(-0.520635 0.853624 0.0162921)
(0.992281 -0.121607 0.0242875)
(0.705085 -0.698463 0.122495)
(-0.585487 0.80821 0.0632616)
(0.814466 -0.573693 0.086726)
(-0.656845 0.752548 -0.0471895)
(-0.553055 0.831234 -0.056394)
(-0.457606 0.888125 0.0427968)
(-0.273964 0.961268 -0.0301349)
(-0.482424 0.871444 -0.0886118)
(-0.625248 0.779919 0.0281253)
(-0.372791 0.927369 0.0318355)
(-0.541669 0.839064 -0.0506552)
(-0.675855 0.723449 -0.140863)
(0.752449 -0.619409 0.223946)
(-0.648889 0.730839 -0.211702)
(-0.56077 0.802654 -0.203185)
(0.805315 -0.581867 0.113574)
(-0.691385 0.719562 0.0649401)
(-0.608399 0.781816 -0.136433)
(0.999742 0.0225857 -0.00233782)
(-0.540268 0.804067 -0.248164)
(-0.0740365 0.994483 -0.0743128)
(0.846611 -0.51638 0.128848)
(0.501531 0.864887 -0.0208883)
(0.995848 0.0909926 -0.00280057)
(0.25625 0.964024 -0.0706625)
(0.963379 -0.251597 0.0927314)
(0.99777 0.0154424 0.0649425)
(0.573939 0.818898 -0.000492127)
(0.785537 0.0872097 -0.612638)
(0.970125 0.222394 -0.0969479)
(0.834964 0.041194 -0.54876)
(0.980844 0.15804 -0.113878)
(0.879559 -0.204611 -0.429547)
(0.857739 0.0068632 -0.51404)
(0.916852 0.398912 -0.0158594)
(0.988026 0.149723 0.037237)
(0.84117 0.532305 0.0953149)
(0.99282 0.108723 0.0498807)
(0.712492 0.701519 -0.0150519)
(0.980078 0.17792 0.0882643)
(0.926595 0.375635 0.0179107)
(0.889839 0.456274 0.00041709)
(0.695206 -0.65109 -0.304582)
(-0.0683108 0.98229 0.174471)
(0.996201 0.0665881 -0.0561292)
(0.947905 0.318318 -0.0122625)
(0.985423 -0.145551 0.0880681)
(0.927344 -0.23598 -0.290425)
(0.993721 0.102609 0.0445986)
(0.999734 0.0229801 0.0020327)
(-0.175011 0.984227 0.0258535)
(-0.371827 0.918373 0.135409)
(-0.170244 0.982635 -0.0737892)
(-0.43134 0.318551 0.84408)
(-0.263494 0.964516 0.0167502)
(-0.0807865 0.995178 0.0556214)
(-0.433021 0.852817 0.291884)
(-0.19971 0.93928 0.279049)
(0.743482 -0.582188 -0.329076)
(-0.171912 0.963746 0.20406)
(0.831459 -0.320633 -0.453729)
(-0.159682 0.95508 0.249649)
(-0.409935 0.346531 0.843724)
(0.0137106 -0.0439047 0.998942)
(-0.583117 -0.52621 0.618933)
(0.160528 -0.0105941 0.986974)
(0.0204567 0.00349536 0.999785)
(0.0704676 -0.00851678 0.997478)
(0.0614764 0.00260839 0.998105)
(0.151103 0.00746598 0.98849)
(0.0641408 -0.0115787 0.997874)
(0.0650628 -0.00738111 0.997854)
(0.0993688 -0.000898669 0.99505)
(0.012471 0.00471764 0.999911)
(0.0162242 0.0111341 0.999806)
(0.0294622 -0.00897845 0.999526)
(0.08901 -0.00667034 0.996008)
(0.0420766 -0.00245983 0.999111)
(0.0406775 -0.0056909 0.999156)
(0.0241051 -0.0131425 0.999623)
(0.00965236 -0.0111673 0.999891)
(-0.0110285 0.00701429 0.999915)
(0.0830744 -0.0520209 0.995185)
(0.00947573 -0.0221296 0.99971)
(0.000101057 -0.00237024 0.999997)
(-0.00851674 -0.0184533 0.999793)
(0.0285948 -0.0317079 0.999088)
(-0.0147755 0.00396951 0.999883)
(0.00211241 -0.0044296 0.999988)
(0.0377212 -0.0117303 0.999219)
(-0.00267142 0.0165898 0.999859)
(-0.0120579 0.0215833 0.999694)
(0.0174425 0.0196238 0.999655)
(0.0376726 0.0275136 0.998911)
(-0.00944781 0.0109015 0.999896)
(0.0475085 0.0137355 0.998776)
(0.0423462 -0.0189198 0.998924)
(0.0161985 0.00878718 0.99983)
(-0.00231761 0.0234205 0.999723)
(-0.0103031 -0.0102853 0.999894)
(0.0245939 -0.00711754 0.999672)
(0.00215494 0.0230887 0.999731)
(-0.0032323 -0.0154404 0.999876)
(0.00188801 -0.0207472 0.999783)
(-0.00491846 0.0173754 0.999837)
(-0.0142555 0.000197227 0.999898)
(0.00467311 -0.0264319 0.99964)
(0.00217351 -0.0321518 0.999481)
(0.0358823 -0.0329537 0.998813)
(0.0405823 -0.00590255 0.999159)
(0.0325586 -0.0215125 0.999238)
(0.0433125 -0.0560375 0.997489)
(0.263322 -0.205382 0.942592)
(0.0237312 -0.0299462 0.99927)
(0.0198246 -0.0298173 0.999359)
(0.0390149 -0.0169132 0.999095)
(0.0203697 -0.0153099 0.999675)
(0.302782 -0.215941 0.928274)
(0.0442596 -0.045284 0.997993)
(-0.0321377 0.999395 0.0132956)
(-0.0212691 0.999766 0.00405025)
(-0.0314192 0.99944 0.0114853)
(0.999952 -0.00607223 0.00774328)
(0.999982 -0.00202271 0.00565957)
(0.994311 0.00912519 0.106128)
(-0.185984 0.00944199 0.982507)
(0.99361 -0.0030166 0.112824)
(0.992905 -0.00229814 0.118889)
(-0.176373 0.0167566 0.984181)
(0.993422 0.00628793 0.114337)
(0.225613 -0.000500352 0.974217)
(0.217098 0.000440848 0.97615)
(0.663888 0.02091 0.74754)
(0.218624 0.00177745 0.975808)
(0.650385 0.0119212 0.759511)
(0.223893 0.00202287 0.974612)
(0.220043 -0.000266337 0.97549)
(0.477397 0.663911 -0.575599)
(0.883889 0.467357 -0.0178244)
(-0.417281 -0.512171 0.750705)
(-0.154898 0.0547232 0.986414)
(-0.460987 -0.543371 0.701597)
(0.810804 0.583212 0.049606)
(0.125694 -0.00711316 0.992044)
(0.0626921 -0.087904 0.994154)
(0.113912 0.236578 0.964912)
(-0.12048 -0.199956 0.972369)
(0.080983 0.137143 0.987235)
(-0.128646 -0.237397 0.962857)
(0.0123479 -0.0505831 0.998644)
(0.219067 0.35062 0.910535)
(0.992763 0.115003 -0.034583)
(0.350029 0.923591 -0.156398)
(0.999952 -0.00971681 -0.00133308)
(0.790945 0.607503 -0.0731214)
(0.852174 0.523226 -0.0057629)
(0.710991 -0.69627 0.098487)
(0.534991 0.833856 -0.135898)
(0.00769784 -0.131779 0.991249)
(0.0396464 0.116861 0.992357)
(-0.0320267 0.0283727 0.999084)
(0.0751359 0.109222 0.991174)
(-0.0217245 -0.0793515 0.99661)
(-0.156197 -0.0846474 0.984092)
(0.0632198 0.00234432 0.997997)
(-0.597333 -0.434955 0.673801)
(0.615838 0.618627 -0.487897)
(0.306754 0.74743 -0.58928)
(0.346817 0.815248 -0.463776)
(0.755845 0.29532 -0.584366)
(0.43189 0.661016 -0.613619)
(0.455454 0.737192 -0.499108)
(0.965253 0.25922 -0.0330332)
(0.906825 -0.222861 -0.357773)
(0.989048 0.145442 -0.025114)
(-0.253908 0.962352 0.097001)
(0.976545 0.212046 -0.0373811)
(0.998384 -0.0340438 -0.0454985)
(0.0487374 0.00462565 0.998801)
(0.0121105 -0.00113058 0.999926)
(0.00949178 -0.000128289 0.999955)
(0.00150068 -0.00217404 0.999997)
(0.0235366 0.00115368 0.999722)
(0.0156071 -0.00363466 0.999872)
(0.00131479 0.00551503 0.999984)
(-0.0222108 0.00526054 0.999739)
(0.00796355 -0.00530517 0.999954)
(0.00549511 -0.0051535 0.999972)
(0.00406584 -0.0038696 0.999984)
(0.0074078 0.000544163 0.999972)
(-0.00675593 -0.00422404 0.999968)
(0.00085734 -0.00185763 0.999998)
(0.649521 0.570159 -0.503032)
(0.816484 0.251382 -0.519769)
(-0.0287941 -0.476408 0.878753)
(-0.0503181 -0.445088 0.894072)
(0.248055 -0.63002 0.735896)
(0.109383 -0.558527 0.822242)
(0.269862 -0.621084 0.735819)
(0.915965 0.397863 -0.0520963)
(0.714483 0.686803 -0.133474)
(0.864264 0.492697 -0.101481)
(0.0716671 0.997191 0.0217487)
(-0.677388 0.705463 0.208487)
(0.969942 -0.00546433 -0.243276)
(0.0272449 0.0159544 0.999501)
(0.0236495 0.000567362 0.99972)
(0.0289991 -0.00548184 0.999564)
(0.0423651 -0.0034182 0.999096)
(0.0896081 0.00844549 0.995941)
(0.0133677 -0.00383843 0.999903)
(0.0221154 0.00553005 0.99974)
(-0.000256549 0.00171315 0.999998)
(0.00115192 -0.00849443 0.999963)
(-0.0148998 -0.00492285 0.999877)
(-0.00374505 -0.000959219 0.999993)
(-0.038835 0.00344159 0.99924)
(0.0014237 -0.00400931 0.999991)
(-6.95067e-05 -0.00324104 0.999995)
(0.310174 0.0126298 0.950596)
(-0.140353 0.0143197 0.989998)
(0.302412 0.0166507 0.953032)
(0.0267943 0.108859 0.993696)
(0.0106545 -0.0383882 0.999206)
(-0.093973 0.0821934 0.992176)
(-0.154027 0.0372451 0.987364)
(0.110129 0.0688895 0.991527)
(0.021166 0.0946285 0.995288)
(-0.00144381 0.0862907 0.996269)
(0.0536633 0.0950359 0.994026)
(0.113562 0.0447398 0.992523)
(0.0280514 0.104156 0.994165)
(0.035554 0.0695249 0.996946)
(0.0238676 0.0139615 0.999618)
(-0.026141 0.0207558 0.999443)
(-0.0226315 0.0225733 0.999489)
(-0.0172298 0.0093219 0.999808)
(-0.0250936 0.0200136 0.999485)
(-0.00675371 0.0138023 0.999882)
(-0.00942129 0.0169614 0.999812)
(-0.0260294 0.119308 0.992516)
(-0.0310944 0.103204 0.994174)
(-0.033735 0.025567 0.999104)
(-0.0312723 0.029853 0.999065)
(0.0567 0.11677 0.991539)
(0.0267275 0.0586724 0.997919)
(-0.00603941 0.00649444 0.999961)
(-0.00812021 0.00763589 0.999938)
(0.946021 0.233737 0.224524)
(0.994308 0.103122 0.0267721)
(0.938988 0.110469 0.325728)
(0.998489 -0.0349047 0.0424326)
(0.855843 0.114737 0.504349)
(0.905561 0.0590868 0.420082)
(0.31712 0.0166507 0.948239)
(-0.290418 0.0384564 0.956127)
(0.301705 0.0130598 0.953312)
(0.792673 0.586093 0.167822)
(0.648099 -0.492905 -0.580528)
(0.66737 0.559528 0.491474)
(0.373779 0.0193452 0.927316)
(0.794444 0.0765658 0.602491)
(0.384901 0.0221289 0.922692)
(0.722587 0.120001 0.680785)
(0.983104 0.105552 0.149553)
(0.618179 0.0866235 0.781249)
(0.0124584 0.00167601 0.999921)
(0.0128057 -0.00153843 0.999917)
(-0.000312999 -0.0122788 0.999925)
(0.00585112 -0.00394241 0.999975)
(0.00534703 0.00125793 0.999985)
(0.0125443 -0.00427883 0.999912)
(0.0122489 -0.00735691 0.999898)
(0.00494783 -0.00223657 0.999985)
(-0.00568363 0.00705875 0.999959)
(0.0115485 -0.00530225 0.999919)
(0.0100464 -0.000305246 0.999949)
(0.0195385 -0.00241326 0.999806)
(0.0408193 0.00159576 0.999165)
(0.00680758 0.00171984 0.999975)
(-0.00181386 -0.00192568 0.999997)
(0.0106825 -0.00518089 0.99993)
(0.00365057 0.00204394 0.999991)
(0.00933748 -0.00661592 0.999935)
(0.00988409 0.000641353 0.999951)
(0.53088 -0.416048 0.738289)
(0.202553 -0.371636 0.906013)
(0.175017 -0.56008 0.809741)
(0.342924 -0.519414 0.782696)
(0.176728 -0.475676 0.861684)
(-0.566757 0.802125 0.188102)
(-0.473644 0.880684 -0.00755551)
(0.971945 0.234559 -0.0174338)
(0.823134 0.566475 -0.0394562)
(0.843523 0.536959 0.0119977)
(0.996998 0.0688168 0.0354858)
(0.780638 0.624929 0.00824548)
(0.991526 0.127292 0.0259441)
(0.751727 0.654833 -0.0781031)
(0.792572 -0.592231 -0.145233)
(-0.185173 0.932008 -0.311563)
(-0.466303 0.868662 -0.167296)
(0.941046 0.328393 0.08118)
(0.954182 0.296273 -0.0419509)
(0.955605 0.294355 -0.0131954)
(0.990948 -0.0462179 -0.126039)
(0.291761 0.954762 -0.0574928)
(0.988309 0.0209132 -0.151021)
(-0.156885 0.926312 -0.342539)
(0.884139 0.440662 -0.15529)
(-0.0927496 0.925147 -0.368103)
(0.105732 0.00839374 0.994359)
(0.0297998 0.00518226 0.999542)
(0.0305866 0.0036181 0.999526)
(0.0282642 -0.00194013 0.999599)
(0.0601184 0.0154094 0.998072)
(0.0381744 -0.000225559 0.999271)
(0.0517786 0.00239396 0.998656)
(0.00599971 0.00836572 0.999947)
(-0.00578271 0.00933989 0.99994)
(-0.0105888 0.0156976 0.999821)
(-0.000155763 0.00467463 0.999989)
(0.0220405 0.00616938 0.999738)
(-0.00680238 0.0131041 0.999891)
(-0.00279129 0.00136744 0.999995)
(0.0313061 -0.00945898 0.999465)
(0.0269825 -0.00286605 0.999632)
(-0.000633314 -0.00575632 0.999983)
(-0.00397706 -0.011752 0.999923)
(0.017489 -0.00189136 0.999845)
(0.011252 0.00522201 0.999923)
(0.00538223 -0.00248005 0.999982)
(0.0123036 -0.00711079 0.999899)
(0.0105816 0.00721826 0.999918)
(0.0175705 0.00362225 0.999839)
(-0.0177361 0.0207802 0.999627)
(-0.0173932 0.018145 0.999684)
(0.0380329 0.00120546 0.999276)
(0.0393213 -0.000579408 0.999226)
(-0.0028441 -0.00215654 0.999994)
(0.00549829 -0.000844601 0.999985)
(0.319552 0.0205944 0.947345)
(-0.215036 0.0265943 0.976244)
(0.314686 0.0230796 0.948915)
(0.31154 0.00257339 0.950229)
(-0.161902 0.00932125 0.986763)
(0.307403 0.00278823 0.951575)
(0.6024 0.0076255 0.798158)
(0.340987 0.000671572 0.940068)
(0.340323 0.00106599 0.940308)
(0.365088 0.00793331 0.930939)
(0.702714 0.0279012 0.710925)
(0.361737 0.00673531 0.932256)
(0.630751 0.0183947 0.775767)
(0.343445 0.00761819 0.939142)
(0.345973 0.00686417 0.938219)
(0.671996 0.521449 0.525844)
(0.593154 0.63121 0.499743)
(0.50397 0.549035 0.666764)
(0.625997 0.675128 0.390294)
(0.651549 0.546667 0.525965)
(0.558173 0.819397 -0.130504)
(-0.561576 -0.562607 0.606718)
(0.55369 0.779075 0.294057)
(0.993902 -0.104999 -0.0336719)
(0.993074 -0.112957 -0.0323089)
(0.983783 0.110933 -0.140944)
(0.997964 0.0268112 -0.0578624)
(0.998038 -0.0625977 -0.00126443)
(0.987382 0.0818059 -0.135591)
(0.99428 -0.0977684 -0.0429894)
(0.996039 -0.0729611 -0.0508242)
(0.992697 0.0102078 -0.120201)
(0.998152 0.0275187 -0.0541766)
(0.998533 -0.020681 -0.0500329)
(0.989701 0.0673006 -0.126344)
(0.997746 -0.0346692 -0.0574573)
(0.997355 -0.0539803 -0.0486788)
(0.356628 0.933745 -0.0305967)
(0.306009 0.951938 -0.0131686)
(0.15984 0.987035 -0.0146064)
(0.631486 0.775294 -0.0120453)
(-0.154098 -0.17986 0.971547)
(-0.250733 0.197542 0.947687)
(-0.306867 0.111162 0.945238)
(-0.144591 -0.290264 0.94596)
(0.409681 0.67121 -0.617769)
(0.549874 0.60144 -0.579576)
(-0.347662 -0.541027 0.765781)
(-0.530755 -0.295926 0.794183)
(-0.289462 -0.321505 0.90158)
(0.166937 0.292036 0.941726)
(-0.173476 -0.0127671 0.984755)
(-0.11881 -0.166948 0.978781)
(-0.119314 -0.00209604 0.992854)
(-0.213547 -0.24365 0.946062)
(-0.288629 0.111949 0.950874)
(-0.192957 -0.116201 0.974302)
(-0.233516 -0.0558287 0.970749)
(-0.461534 0.0641109 0.884803)
(-0.463292 0.212267 0.860409)
(0.283171 0.0910976 0.954733)
(0.991878 0.109025 0.0655123)
(0.996521 -0.0811509 -0.0189767)
(0.983656 0.115793 -0.137885)
(0.98369 -0.171387 -0.0545932)
(0.998781 0.0300213 0.0391885)
(0.987086 0.104404 -0.121491)
(0.99969 -0.0232079 -0.0090615)
(0.988248 0.13471 0.0722382)
(0.980797 0.166006 -0.102373)
(0.999102 0.041693 -0.00751397)
(0.990682 -0.126641 -0.0501071)
(0.985487 0.15459 0.0701182)
(0.983296 0.146291 -0.108296)
(0.999614 0.0271409 -0.00591007)
(0.3908 0.919998 -0.02964)
(0.180656 0.983124 -0.0288369)
(-0.0738307 0.997254 0.00585072)
(0.0252009 0.999646 -0.0085666)
(0.97811 0.135791 -0.157675)
(0.995226 -0.0563273 -0.0797009)
(0.950586 -0.116282 -0.287862)
(0.332751 0.92604 -0.178123)
(0.929535 0.0804422 -0.359853)
(0.9892 0.0782531 -0.123937)
(0.994734 0.016612 -0.101135)
(0.999353 -0.0216346 -0.0287367)
(0.0599723 0.768688 -0.636807)
(0.998746 -0.0407876 0.0290322)
(-0.0462513 0.897603 -0.438372)
(0.98298 0.182441 -0.0215631)
(0.999343 0.0259736 -0.0252912)
(-0.0247864 0.764171 -0.644538)
(0.999817 -0.0190677 0.0017319)
(0.990062 -0.138741 0.0229885)
(0.99595 0.0844136 0.0309453)
(0.99783 -0.0554521 0.0355078)
(0.988286 0.152554 0.00432672)
(0.999896 -0.00980644 0.0105287)
(0.999973 0.00570659 -0.00472733)
(0.977135 0.135875 -0.163538)
(0.859026 0.391947 -0.329319)