/*--------------------------------*- C++ -*----------------------------------*\
| =========                 |                                                 |
| \\      /  F ield         | OpenFOAM: The Open Source CFD Toolbox           |
|  \\    /   O peration     | Version:  2012                                  |
|   \\  /    A nd           | Website:  www.openfoam.com                      |
|    \\/     M anipulation  |                                                 |
\*---------------------------------------------------------------------------*/
FoamFile
{
    version     2.0;
    format      ascii;
    class       volVectorField;
    location    "0.104/solid";
    object      sigmaMinDir;
}
// * * * * * * * * * * * * * * * * * * * * * * * * * * * * * * * * * * * * * //

dimensions      [1 -1 -2 0 0 0 0];


internalField   nonuniform List<vector> 
3124
(
(0.179647 0.704613 0.686475)
(-0.211489 0.977227 -0.0173268)
(0.124982 -0.012759 0.992077)
(0.0809855 0.996684 -0.00790734)
(0.0581417 0.00624304 0.998289)
(0.0880685 0.988904 -0.119638)
(0.143486 -0.0138361 0.989556)
(0.0823953 0.99657 -0.0077547)
(0.0721815 0.00464372 0.997381)
(-0.0104494 0.460325 0.887689)
(0.0507059 0.156224 0.986419)
(0.113965 0.992496 0.0443085)
(-0.000509448 -0.116477 0.993193)
(0.0874056 -0.00725694 0.996146)
(-0.127751 0.457341 0.880068)
(0.0912507 -0.0605045 0.993988)
(0.030459 0.0856784 0.995857)
(0.0824404 -0.066026 0.994406)
(0.195422 -0.0232848 0.980443)
(0.104345 0.994329 0.0205402)
(0.05132 -0.00277091 0.998678)
(0.0505092 -0.00321815 0.998718)
(0.0860762 -0.0104888 0.996233)
(0.42661 0.902034 -0.0658604)
(0.176476 0.682678 0.709088)
(0.0996691 0.442545 0.89119)
(0.170502 0.941405 0.291007)
(-0.04539 0.95812 0.282748)
(0.338407 0.500013 0.797162)
(0.265574 0.927501 0.263082)
(0.32669 -0.0808451 0.941668)
(0.097173 -0.0325304 0.994736)
(0.333142 -0.0633357 0.940747)
(-0.0701496 0.997535 0.00172667)
(0.187628 0.982218 -0.00662655)
(-0.133922 0.990894 -0.0139284)
(0.0784317 0.996903 -0.0056638)
(0.0334229 0.999415 0.00720407)
(-0.131329 0.991323 0.00554026)
(0.181386 0.983381 -0.00785599)
(0.17164 0.445086 0.878885)
(0.0711401 0.168558 0.983121)
(-0.613725 0.788685 -0.0363077)
(0.158814 0.786387 0.596971)
(-0.522606 0.563644 0.639678)
(0.153547 0.0191931 0.987955)
(0.282804 -0.110725 0.952765)
(0.227886 -0.017201 0.973536)
(-0.109191 0.994013 0.00394001)
(0.0862623 0.996272 0.000628495)
(0.182363 0.983225 -0.00343775)
(-0.12844 0.991484 -0.021502)
(-0.0283754 0.999574 0.00683959)
(-0.111084 0.993711 0.0140651)
(0.185789 0.982588 -0.00182392)
(0.0662062 -0.0199784 0.997606)
(0.0480789 -0.00235126 0.998841)
(0.0818501 -0.00716075 0.996619)
(0.989632 -0.0103832 0.14325)
(-0.0209554 0.607002 0.794424)
(-0.0264647 0.0630027 0.997662)
(0.353368 0.368032 0.860048)
(0.495129 0.860444 0.120347)
(0.0562795 0.481806 0.874469)
(0.0150587 -0.0556813 0.998335)
(0.0153434 0.877896 0.478605)
(0.275205 0.444728 0.852337)
(0.259786 0.957557 -0.124881)
(0.134837 0.985626 0.101784)
(-0.149431 0.988757 -0.00541099)
(0.261587 0.964749 0.0288207)
(-0.116155 0.98425 0.133269)
(-0.0315369 0.999374 -0.0160116)
(0.300741 0.952682 0.0441729)
(-0.202837 0.979012 -0.0198332)
(-0.106671 0.9941 0.0196666)
(-0.0309348 0.0133564 0.999432)
(-0.0224944 -0.0892563 0.995755)
(0.204913 0.245998 0.947362)
(0.573061 0.818613 0.0383955)
(0.560348 0.827255 0.0407398)
(0.0035508 -0.0629887 0.998008)
(-0.0540043 -0.0407519 0.997709)
(0.100169 -0.0402149 0.994157)
(0.964704 -0.0469438 0.25912)
(0.449509 -0.14259 0.881822)
(-0.649985 -0.07818 0.755915)
(-0.0978324 -0.0809301 0.991907)
(0.540366 0.841411 -0.00572268)
(0.533286 0.845926 -0.00384246)
(-0.151461 0.988427 -0.00846826)
(-0.1452 0.989378 0.00694868)
(-0.0404784 0.999174 0.00356422)
(0.07529 0.997143 -0.00612712)
(-0.129954 0.991517 0.00233707)
(0.170864 0.985265 -0.00765073)
(-0.142688 0.989761 0.00368573)
(0.529462 0.848285 -0.00911099)
(0.183089 0.460364 0.868645)
(0.0399291 -0.0157824 0.999078)
(-0.668592 0.687179 0.284199)
(-0.0874246 0.0704736 0.993675)
(-0.397403 0.304681 0.865587)
(-0.0307478 0.846189 0.531995)
(-0.186066 0.520335 0.833445)
(-0.063461 0.0204313 0.997775)
(0.740123 0.275797 0.613313)
(-0.220336 0.253526 0.941901)
(0.059402 0.0217959 0.997996)
(-0.0158554 0.0162882 0.999742)
(0.166772 0.0212094 0.985767)
(0.0399766 -0.0908308 0.995064)
(0.120373 0.0147776 0.992619)
(-0.040912 -0.0317543 0.998658)
(0.111995 0.042655 0.992793)
(0.803841 0.146265 0.576581)
(-0.132616 0.991168 -0.000124975)
(0.0950101 0.995404 0.0120232)
(-0.145609 0.989339 -0.0025811)
(0.245395 0.969316 0.0143874)
(0.116931 0.993074 -0.0114191)
(-0.115448 0.992821 0.0312759)
(0.215847 0.976423 0.00271621)
(0.542853 0.839826 0.00173365)
(0.555225 0.831699 0.00141248)
(-0.143896 0.989464 -0.0159969)
(-0.121599 0.992501 0.0124555)
(-0.186527 0.982379 -0.0117852)
(-0.130426 0.991097 0.0267472)
(0.575296 0.817648 0.0220481)
(0.561068 0.827723 0.00885043)
(0.0610667 -0.0217956 0.997896)
(0.0486839 -0.00161112 0.998813)
(0.0822982 -0.00314362 0.996603)
(0.972137 -0.0331409 0.232059)
(0.988437 -0.0129542 0.151076)
(0.794268 0.0225189 -0.60715)
(-0.691572 -0.0548841 0.720219)
(0.785223 0.0272423 -0.618614)
(-0.0430566 0.999072 0.00106834)
(0.812213 -0.505124 -0.291822)
(-0.368707 -0.121976 0.921508)
(0.0604035 -0.000285553 0.998174)
(0.0942221 -0.00698116 0.995527)
(0.0510004 -0.00817967 0.998665)
(0.0561911 0.011663 0.998352)
(0.981223 -0.17622 0.0784119)
(0.0370836 0.937978 -0.344705)
(-0.135871 -0.164899 0.976907)
(-0.210018 0.963154 0.16801)
(0.183303 -0.00982574 0.983007)
(0.0583457 -0.00645677 0.998276)
(0.0459823 -0.0140201 0.998844)
(0.0788473 0.00306551 0.996882)
(0.249074 0.146803 0.957294)
(0.137057 0.520083 0.843048)
(-0.0160225 0.164327 0.986276)
(-0.0144514 0.44177 0.897012)
(-0.0377557 0.0478818 0.998139)
(0.135953 0.228792 0.963935)
(0.234958 0.448217 0.862494)
(0.0768658 0.10449 0.991551)
(0.0171258 0.493571 0.869537)
(0.027508 -0.000229775 0.999622)
(0.0549231 0.108073 0.992625)
(0.155126 -0.341924 0.926835)
(0.0454369 -0.0796624 0.995786)
(0.0210663 0.29707 0.954623)
(-0.0429222 -0.0719655 0.996483)
(0.0467778 -0.0271869 0.998535)
(-0.0383482 -0.104518 0.993783)
(-0.0506412 -0.124715 0.990899)
(-0.0349884 -0.0770943 0.99641)
(-0.076907 -0.0213195 0.99681)
(-0.0424134 -0.0895946 0.995075)
(0.0940418 -0.0213061 0.99534)
(0.000281549 -0.00938477 0.999956)
(0.00758572 -0.019945 0.999772)
(0.0913516 0.496239 0.863366)
(0.017297 0.00135821 0.999849)
(-0.121267 -0.376866 0.918295)
(-0.152041 0.0952328 0.983776)
(-0.266847 0.488012 0.831046)
(-0.124395 0.160816 0.979114)
(-0.0419493 0.443633 0.895226)
(-0.0784803 0.0458387 0.995861)
(-0.2454 0.198989 0.948779)
(-0.168031 0.497483 0.851044)
(-0.0567394 -0.0704027 0.995904)
(0.100786 -0.00244039 0.994905)
(0.00661057 -0.0817492 0.996631)
(0.129294 -2.46334e-05 0.991606)
(0.0114886 -0.0760229 0.99704)
(0.0204602 0.00253054 0.999787)
(0.00601758 -0.0220461 0.999739)
(-0.104906 -0.013113 0.994396)
(0.0767144 0.0392565 0.99628)
(-0.0241911 -0.0759458 0.996818)
(0.180956 -0.0669396 0.98121)
(-0.0998911 0.0185078 0.994826)
(0.220882 -0.0377239 0.974571)
(0.0271168 -0.0476143 0.998498)
(0.748997 0.0972742 0.655395)
(0.125264 0.0376181 0.99141)
(0.254326 0.0256401 0.966779)
(0.288803 -0.0395114 0.956573)
(0.0217985 0.0452222 0.998739)
(0.0241982 -0.0527197 0.998316)
(0.389953 0.0127597 0.920746)
(0.0524723 -0.00544367 0.998608)
(0.0497781 -0.00208475 0.998758)
(0.0842726 -0.00445815 0.996433)
(-0.001131 -0.00843386 0.999964)
(-0.00491668 -0.00615681 0.999969)
(0.335311 0.835447 0.435425)
(0.288376 0.950435 0.116247)
(0.544165 0.678414 0.493599)
(0.552199 0.829765 0.0810325)
(0.467364 0.775165 0.425076)
(0.338521 0.790448 0.510486)
(0.247999 0.940265 0.233233)
(0.308429 0.663287 0.681852)
(0.484512 0.561416 0.670865)
(0.212012 0.42019 0.882322)
(0.222915 0.483507 0.846481)
(0.359331 0.585176 0.726946)
(0.302098 0.555578 0.774642)
(0.175199 0.458802 0.871094)
(0.889769 -0.419808 -0.179088)
(0.0212859 -0.00691216 0.99975)
(0.335177 0.0066775 0.942131)
(-0.00578608 -0.00743192 0.999956)
(0.0909563 -0.0117737 0.995785)
(0.0411592 -0.0314587 0.998657)
(0.0491483 -0.0126966 0.998711)
(0.28593 0.0358122 0.957581)
(-0.01168 -0.0346743 0.99933)
(-0.00240991 -0.0108058 0.999939)
(-0.136793 0.990575 0.00697596)
(0.0461347 0.998929 0.00350119)
(-0.254339 0.967095 0.00622818)
(-0.17909 0.983825 -0.00392874)
(-0.161578 0.986856 0.00276231)
(-0.249822 0.968267 0.00696613)
(-0.142923 0.989709 -0.00704831)
(-0.13284 0.991059 -0.012462)
(0.00646116 0.999974 0.00317918)
(-0.149815 0.988714 -0.000442428)
(-0.246114 0.969204 -0.00847665)
(-0.132968 0.991113 -0.00385983)
(-0.139966 0.990139 -0.00590266)
(-0.2456 0.969371 -2.19082e-05)
(0.0713344 0.0189223 0.997273)
(0.886616 -0.452148 0.0973361)
(-0.169142 0.954459 -0.245762)
(0.713414 -0.644262 -0.27562)
(-0.44586 0.880329 -0.161957)
(-0.451057 0.865426 0.218143)
(-0.436765 0.891414 0.1209)
(-0.39694 0.913522 -0.0889752)
(0.914097 0.381536 0.137321)
(0.137959 0.989183 -0.0498406)
(0.191767 0.825674 0.530555)
(0.492844 0.863956 0.103367)
(-0.295133 0.899017 0.323519)
(0.594649 0.786703 0.165805)
(-0.271009 0.774121 0.572093)
(0.706712 -0.550362 -0.444589)
(0.00157182 0.88135 0.472462)
(0.0223394 0.994421 0.103095)
(0.632284 0.750009 0.194174)
(-0.360522 0.861922 0.35653)
(0.186207 -0.00133062 0.98251)
(0.043217 0.0540784 0.997601)
(0.0459915 -0.0134273 0.998852)
(0.0379082 -0.0086893 0.999243)
(0.289981 -0.0403666 0.956181)
(0.0465988 -0.00846104 0.998878)
(0.0593316 0.0443259 0.997254)
(0.306302 -0.0267751 0.951558)
(0.0439971 -0.0122001 0.998957)
(-0.143922 0.989512 -0.0123496)
(-0.162565 0.986655 0.00914317)
(-0.234982 0.971923 0.012236)
(-0.217096 0.976086 0.0112343)
(-0.136424 0.990545 0.0144928)
(-0.225992 0.974129 -0.00101539)
(-0.241948 0.97027 -0.00614776)
(-0.14256 0.989762 -0.00685465)
(-0.101345 0.994791 0.0109848)
(-0.172089 0.985049 -0.00802095)
(-0.247126 0.968832 -0.0171239)
(-0.13759 0.990225 -0.0228818)
(-0.211731 0.977327 0.00126518)
(-0.246749 0.968933 -0.0168383)
(0.0724697 -0.00375291 0.997364)
(0.0475391 -0.00102366 0.998869)
(0.0817016 -0.00134955 0.996656)
(-0.00840035 -0.00464286 0.999954)
(-0.120211 -0.00566144 0.992732)
(0.680839 0.722966 -0.117385)
(0.592641 0.629458 0.502553)
(0.552522 0.296378 0.779025)
(0.0820946 0.660859 0.746006)
(0.081735 0.382489 0.920338)
(-0.0497213 0.812261 0.581171)
(0.93351 0.355831 0.0440769)
(0.255659 0.400695 0.879819)
(0.498239 0.658205 0.564379)
(0.128041 0.141416 0.981635)
(-0.0226264 0.102509 0.994475)
(-0.0259318 0.0213691 0.999435)
(0.0459238 0.0896114 0.994917)
(0.010171 0.0359566 0.999302)
(-0.0390588 0.0333473 0.99868)
(0.0870009 0.146517 0.985375)
(0.471824 0.206457 0.85718)
(0.46123 0.424997 0.778874)
(0.35886 0.411174 0.837947)
(0.194433 0.184905 0.963331)
(0.4429 0.483076 0.755299)
(0.0546945 0.0582995 0.9968)
(0.283362 0.269429 0.920388)
(0.239913 0.928446 0.283601)
(0.234157 0.891945 0.386789)
(0.957067 0.289829 0.00461974)
(0.411691 0.909063 -0.0641384)
(0.288822 0.856072 0.428627)
(0.224982 0.287347 0.931029)
(-0.0213691 0.73914 0.673213)
(0.172716 0.925419 0.337296)
(0.124242 0.568976 0.812915)
(-0.103465 0.672391 0.732929)
(0.144566 0.401736 0.904272)
(0.0110474 0.591864 0.805962)
(0.00331984 0.093421 0.995621)
(0.0395734 0.00938688 0.999173)
(0.0697961 -0.0918832 0.993321)
(0.0429472 0.0525294 0.997695)
(-0.00136254 0.0375839 0.999293)
(-0.00321281 -0.115193 0.993338)
(0.0634949 0.123734 0.990282)
(0.150741 0.988406 0.0181595)
(0.202907 0.978963 0.0214561)
(0.255637 0.777581 0.574471)
(0.104317 0.23181 0.967152)
(0.406724 0.459483 0.789589)
(0.267459 0.563302 0.781765)
(0.117397 0.237889 0.964172)
(0.121479 0.90741 0.402307)
(0.0132379 0.0863575 0.996176)
(0.138294 0.390866 0.909999)
(0.00224176 0.999843 0.0175839)
(0.104325 0.994348 -0.0196887)
(-0.241231 0.968938 -0.0544768)
(0.287688 0.956298 -0.0522511)
(0.0869265 0.994451 0.0592558)
(-0.0889669 0.995829 -0.0202397)
(0.0761135 0.996892 -0.0203278)
(-0.0447411 0.998939 0.0109448)
(-0.0634923 0.9971 -0.0419629)
(-0.173265 0.984654 -0.0208799)
(-0.0109187 0.999939 -0.001441)
(-0.150857 0.988249 -0.0246354)
(-0.00552583 0.999949 -0.00839683)
(-0.0609451 0.998138 -0.0026032)
(0.335477 0.941543 -0.0308496)
(-0.104605 0.99267 -0.0605384)
(-0.209137 0.97785 -0.0083991)
(-0.263935 0.963771 -0.0385113)
(-0.23764 0.971185 -0.0180809)
(0.12811 0.991758 -0.00218005)
(-0.245122 0.968945 0.0325861)
(-0.205939 0.97814 -0.0288201)
(-0.161435 0.986258 -0.0351282)
(-0.128135 0.99101 -0.0384702)
(-0.0298061 -0.0249624 0.999244)
(-0.0386299 -0.0470307 0.998146)
(-0.0210128 -0.00309817 0.999774)
(0.0177645 0.0382301 0.999111)
(-0.000273474 0.00332648 0.999994)
(-0.0324013 -0.066041 0.997291)
(-0.0148643 -0.0186804 0.999715)
(-0.0289708 -0.058847 0.997847)
(-0.0386066 -0.114062 0.992723)
(-0.0696333 -0.0980903 0.992738)
(0.00758287 0.00274498 0.999967)
(-0.0189928 0.0154792 0.9997)
(-0.0162675 -0.0340034 0.999289)
(-0.0185298 -0.0508461 0.998535)
(-0.0112222 -0.00465686 0.999926)
(0.368857 0.368969 0.853115)
(0.0980698 0.101894 0.989949)
(0.0770958 0.116116 0.990239)
(0.0310327 0.0150552 0.999405)
(0.004795 0.0645697 0.997902)
(0.0301741 0.0341752 0.99896)
(0.645862 0.75627 -0.104491)
(0.670256 0.740302 -0.0520485)
(0.692265 0.721425 0.0177684)
(0.57096 0.820216 0.0353551)
(0.706386 0.70782 -0.00307515)
(0.700055 0.714066 -0.00570509)
(0.66868 0.743185 -0.0233037)
(0.738269 0.667107 -0.0996323)
(0.564907 0.82321 0.0566166)
(0.626463 0.778724 0.0336493)
(0.808841 -0.582417 -0.0810367)
(-0.0498761 -0.0127377 0.998674)
(0.972486 -0.00868581 -0.232798)
(-0.0522907 0.0128447 0.998549)
(0.97803 0.00589879 -0.208381)
(0.971377 0.0192206 -0.236763)
(0.097428 -0.0230592 0.994975)
(0.0349382 -0.0373612 0.998691)
(0.0124589 -0.0268637 0.999561)
(-0.103693 -0.0103846 0.994555)
(0.910141 -0.0988263 0.40234)
(-0.091489 -0.0237329 0.995523)
(-0.0267608 -0.045199 0.99862)
(0.86103 -0.109161 0.4967)
(-0.0816216 -0.031818 0.996155)
(0.976169 -0.0361075 -0.213986)
(-0.43572 -0.126237 0.891186)
(0.978916 0.0200568 -0.203278)
(0.978261 0.0545808 -0.200065)
(-0.3268 -0.124672 0.936834)
(0.97944 -0.0256462 -0.2001)
(0.719062 0.694833 -0.0124787)
(0.717466 0.696594 0.000275118)
(0.718785 0.695228 0.00250375)
(0.539404 0.842045 -0.00184909)
(0.720676 0.69327 -0.00202448)
(0.716488 0.69751 0.0111813)
(0.718158 0.695801 -0.0104698)
(0.723794 0.690002 -0.00441252)
(0.536228 0.844021 -0.00932238)
(0.717462 0.696593 -0.00268445)
(-0.216078 0.976375 -0.00110522)
(-0.214407 0.976635 0.0146429)
(-0.271116 0.962515 -0.00774801)
(-0.152186 0.988351 0.00133217)
(-0.270177 0.962806 0.0029055)
(-0.210384 0.977616 0.00215993)
(-0.205637 0.978628 -0.000262106)
(-0.263916 0.964537 0.00415263)
(-0.149746 0.988695 0.00768809)
(-0.272309 0.962043 0.0179388)
(-0.259107 0.965839 0.00428693)
(-0.201512 0.979482 0.00291026)
(-0.148223 0.988934 0.00635804)
(-0.220858 0.97522 0.0129529)
(-0.264966 0.964156 0.0139831)
(0.718022 0.69602 0.000952975)
(0.720127 0.693841 -0.0015408)
(0.120013 0.726089 0.677047)
(-0.0557733 0.409552 0.91058)
(0.0310177 0.160045 0.986622)
(0.00839458 0.179107 0.983794)
(-0.209712 0.141522 0.967467)
(-0.487682 0.58397 0.648957)
(0.670554 -0.494256 -0.553234)
(-0.546426 0.825664 0.14035)
(-0.432352 0.845077 0.314511)
(-0.441312 0.313846 0.840681)
(-0.297977 0.550221 0.780042)
(-0.122999 0.0818011 0.98903)
(-0.109205 0.106251 0.988324)
(-0.0359431 0.029664 0.998913)
(-0.157939 0.102196 0.982146)
(-0.0708695 0.0343061 0.996895)
(-0.0825546 0.0677362 0.994282)
(-0.200679 0.143129 0.969145)
(-0.168261 0.11251 0.979301)
(-0.184676 0.225627 0.95655)
(-0.565319 0.370664 0.7369)
(-0.259683 0.162241 0.951968)
(-0.4539 0.793432 0.405512)
(-0.125155 0.0721462 0.989511)
(-0.339148 0.222432 0.914058)
(0.465038 0.884785 -0.0299183)
(0.0819009 0.788941 0.608987)
(0.543598 0.838548 0.0365787)
(0.463083 0.465303 0.754353)
(0.763046 0.645625 0.0304666)
(0.0335236 0.486072 0.873275)
(0.207157 0.783847 0.585381)
(0.401834 0.504044 0.764506)
(0.491327 0.831153 0.260352)
(0.683227 0.723887 0.0958617)
(-0.0451208 -0.0508203 0.997688)
(-0.0357693 -0.0408738 0.998524)
(-0.0239708 0.00406707 0.999704)
(-0.122981 0.0496817 0.991165)
(0.00935463 -0.0712944 0.997411)
(-0.0878241 0.0258537 0.9958)
(-0.0718359 -0.000156017 0.997416)
(-0.154152 -0.0355743 0.987407)
(0.322524 0.120941 0.938803)
(0.958365 0.270245 -0.0922226)
(0.431291 0.324365 0.841888)
(0.74952 0.590056 0.300089)
(-0.0799035 -0.0662635 0.994598)
(0.0626939 0.100419 0.992968)
(-0.195398 0.00840609 0.980688)
(-0.0709968 0.261751 0.96252)
(-0.199602 0.104987 0.974237)
(0.0493607 0.277373 0.959493)
(-0.133666 0.00843381 0.99099)
(0.601119 0.52305 0.604214)
(-0.11722 0.0815004 0.989756)
(-0.0131716 0.660719 0.750518)
(-0.0625937 0.255693 0.96473)
(0.0224481 0.0761604 0.996843)
(0.101451 0.394242 0.91339)
(-0.0673155 0.0630834 0.995735)
(-0.0557757 0.63416 0.771187)
(0.068678 0.0547607 0.996135)
(-0.0596697 0.136005 0.98891)
(-0.054462 0.75087 0.658201)
(-0.0607722 0.0431925 0.997217)
(0.618547 -0.0815703 0.781502)
(0.110015 -0.0471127 0.992813)
(0.549985 -0.0285157 0.834688)
(0.119961 -0.0294705 0.992341)
(0.439707 0.00468717 0.898129)
(0.514019 -0.0275159 0.857337)
(-0.0400609 0.131455 0.990512)
(-0.0283997 -0.060736 0.99775)
(-0.0903904 -0.0353765 0.995278)
(-0.0639173 0.129704 0.989491)
(0.0590557 -0.0385767 0.997509)
(-0.120001 0.176358 0.976984)
(-0.0391304 0.0489372 0.998035)
(0.126159 -0.246918 0.960789)
(0.283246 -0.14131 0.94858)
(0.237787 -0.153809 0.959062)
(0.060674 -0.0683157 0.995817)
(-0.278494 0.809399 -0.517024)
(-0.0648763 0.157038 0.985459)
(0.305924 0.0311218 0.951547)
(-0.111866 0.904284 0.412016)
(-0.00253598 0.0218929 0.999757)
(0.962629 0.16554 0.214341)
(0.546913 0.0988566 0.831333)
(0.963723 0.181652 0.195552)
(0.882782 -0.0439912 0.467719)
(0.67856 0.172976 0.713888)
(0.990893 0.0741567 0.112395)
(0.643249 0.0655204 0.762849)
(0.92641 0.0882304 0.366032)
(0.325138 -0.115322 0.938609)
(0.0400839 -0.200129 0.978949)
(0.45339 -0.0804325 0.887676)
(0.972812 0.109271 0.204199)
(0.89142 -0.0437169 0.451064)
(0.996989 0.0768557 -0.0103059)
(0.690558 0.0802366 0.718813)
(-0.0960014 0.995034 0.0262949)
(0.126754 0.991916 -0.00606138)
(-0.220236 0.975154 0.0238849)
(-0.156631 0.987632 0.00706636)
(-0.119348 0.992794 0.0107454)
(-0.198005 0.979905 0.0240975)
(-0.078379 0.996845 0.0124842)
(-0.0761665 0.997059 0.0085067)
(0.114535 0.9934 -0.00611541)
(-0.170463 0.98533 -0.00820678)
(0.0115387 0.999896 0.00864167)
(-0.066162 0.997729 0.0125945)
(-0.177753 0.984025 0.00990858)
(-0.0024081 0.99998 0.00579363)
(0.719972 0.693954 -0.00823785)
(0.722868 0.690986 0.000739143)
(0.726892 0.686745 0.0031998)
(0.545639 0.838019 -0.00174254)
(0.72782 0.685718 0.00828047)
(0.718921 0.69509 0.00157488)
(0.719163 0.694583 0.0189462)
(0.728911 0.684608 0.000865196)
(0.551006 0.834487 0.00482946)
(0.737616 0.675219 0.00143283)
(-0.201652 0.979271 0.0191086)
(-0.20669 0.978262 -0.0167838)
(-0.26491 0.963974 -0.0240074)
(-0.132386 0.99105 -0.0171449)
(-0.243279 0.969798 -0.0175367)
(-0.210379 0.977538 -0.0126455)
(-0.206223 0.978498 -0.00364733)
(-0.232935 0.972081 0.028286)
(-0.12428 0.992225 -0.00670686)
(-0.235761 0.971531 -0.0233066)
(-0.191817 0.981397 0.00811849)
(-0.160156 0.987031 0.0109677)
(-0.258961 0.965643 -0.0217433)
(-0.168189 0.985645 0.014677)
(-0.249183 0.968238 0.0205632)
(-0.137931 0.99028 -0.0178878)
(-0.133358 0.991066 -0.00209676)
(-0.233717 0.971935 0.026792)
(-0.148125 0.988447 0.032119)
(-0.252293 0.966783 0.0409606)
(0.719232 0.694316 -0.025111)
(0.707845 0.706324 -0.00785764)
(0.703506 0.710628 0.00937477)
(0.572258 0.819858 0.018774)
(0.709797 0.704393 0.00425269)
(0.699768 0.714332 0.00743163)
(0.706071 0.70797 -0.0155873)
(0.728332 0.685211 -0.0043468)
(0.566402 0.8241 0.00695975)
(0.71316 0.701001 0.000180301)
(0.0558672 -0.0114855 0.998372)
(0.0491645 -0.00300035 0.998786)
(0.0835387 -0.00882494 0.996465)
(-0.00777138 -0.00461674 0.999959)
(-0.00567143 -0.00590247 0.999966)
(-0.106037 -0.00993158 0.994313)
(0.982466 -0.011543 0.186087)
(-0.112842 -0.00630084 0.993593)
(-0.118898 -0.0045868 0.992896)
(0.984127 -0.0169494 0.176652)
(-0.114294 -0.00689928 0.993423)
(0.97405 0.0186046 -0.225565)
(0.97599 0.0179723 -0.217071)
(0.7469 0.0313626 -0.664197)
(0.975576 -0.0222637 -0.218531)
(0.759033 0.02859 -0.650424)
(0.974206 -0.0293834 -0.223739)
(0.975359 0.0164922 -0.220009)
(0.174717 0.570264 0.802666)
(-0.399241 0.773818 0.491745)
(0.03538 0.816278 0.576574)
(-0.62082 0.771301 -0.140278)
(0.374355 0.597746 0.708913)
(-0.350126 0.415347 0.839582)
(-0.560224 0.824764 0.0768954)
(0.967593 0.249493 -0.0389568)
(0.579862 0.772807 -0.257933)
(0.346261 0.909523 0.229936)
(-0.677204 0.734327 -0.046459)
(0.637436 0.723985 0.263669)
(0.483496 0.874507 0.0383171)
(-0.313215 0.909084 -0.274704)
(0.010091 0.207069 0.978274)
(0.0181858 0.160228 0.986912)
(0.001153 -0.0185148 0.999828)
(0.0250966 0.0871927 0.995875)
(-0.00178952 0.0139277 0.999901)
(0.0150902 0.15513 0.987779)
(-0.00288267 0.162653 0.986679)
(0.445794 0.887775 0.114561)
(0.21754 0.968306 -0.12272)
(0.615456 0.788167 -0.00265385)
(0.512382 0.848499 -0.132341)
(0.628341 0.774281 0.0753462)
(0.243231 0.962343 0.121383)
(0.238839 0.970903 -0.0174103)
(0.20195 0.731509 0.651238)
(0.144301 0.520221 0.841753)
(0.0280654 0.611757 0.790548)
(0.122497 0.45086 0.884149)
(0.0852643 0.840507 0.53505)
(0.10588 0.63848 0.76232)
(0.153565 0.487173 0.859698)
(0.0587929 -0.0922579 0.993998)
(0.3544 -0.0563752 0.933393)
(0.0339924 -0.0588834 0.997686)
(0.302902 -0.0161286 0.952885)
(0.0635948 -0.118183 0.990953)
(0.0439625 -0.044584 0.998038)
(-0.369452 0.929148 0.0137247)
(-0.00244909 0.999996 0.00116032)
(-0.132587 0.99117 0.00138571)
(0.0996397 0.995022 0.0020137)
(0.102763 0.994699 -0.00356724)
(-0.145061 0.989405 0.0058609)
(-0.373717 0.927531 -0.00462407)
(-0.356844 0.934076 -0.0128429)
(0.00264823 0.999983 0.00528423)
(0.128374 0.991716 0.00440551)
(-0.130243 0.991473 0.00436622)
(-0.359207 0.933255 0.00215315)
(0.168777 0.98564 0.0053038)
(-0.106312 0.994331 0.00193825)
(0.182217 0.525583 0.830999)
(0.0793328 0.842855 0.53226)
(0.383526 0.806568 0.449841)
(0.435233 0.795959 0.42074)
(-0.0168938 0.756709 0.653533)
(0.394428 0.783682 0.479864)
(0.122569 0.780111 0.613517)
(0.10208 -0.105487 0.989167)
(0.264514 -0.088547 0.960308)
(0.152259 -0.0639427 0.98627)
(0.21119 -0.0364812 0.976764)
(0.284997 -0.00960686 0.95848)
(0.242781 -0.045842 0.968997)
(-0.380473 0.924782 -0.00439053)
(-0.197002 0.980395 0.00410391)
(-0.184181 0.982834 0.0107335)
(-0.0133473 0.999903 0.00398694)
(-0.37213 0.927827 0.0256138)
(-0.000292478 0.999993 0.00384268)
(-0.160891 0.98697 -0.00190033)
(-0.367428 0.93005 -0.00168758)
(-0.0103352 0.99991 0.00850589)
(0.133027 0.991089 0.00686192)
(-0.124711 0.992193 0.000484686)
(-0.361856 0.932074 -0.0172736)
(0.0798301 0.996801 0.00388286)
(-0.144875 0.989445 0.00319678)
(0.0301217 0.999279 -0.0231051)
(0.989977 -0.0138576 0.14055)
(0.0363223 0.99892 -0.028978)
(0.458697 0.881885 -0.108979)
(0.707486 0.706455 0.0195972)
(0.305481 0.950893 -0.0498401)
(0.400353 0.915936 0.0279035)
(-0.11985 0.991236 -0.0555575)
(0.0078146 0.995465 -0.0948115)
(-0.175835 0.980726 -0.0851992)
(0.243028 0.964285 -0.105313)
(0.104138 0.992947 -0.056674)
(0.0560374 0.992829 -0.105597)
(0.166112 0.983289 -0.0744965)
(-0.293133 0.95605 -0.00635393)
(-0.0538436 0.998304 -0.0221405)
(-0.112557 0.993331 -0.0249829)
(0.149397 0.988755 -0.00664428)
(-0.145796 0.989036 -0.0234648)
(0.0481883 0.998748 -0.0134611)
(-0.28504 0.958328 -0.0189436)
(0.357595 0.928267 -0.102206)
(0.0182666 0.994548 -0.102671)
(0.279339 0.960073 -0.0151363)
(0.187832 0.981921 -0.0234613)
(-0.0585694 0.991815 -0.113454)
(-0.409966 0.911106 -0.042588)
(-0.194456 0.980882 -0.00754498)
(-0.145135 0.989373 -0.00873381)
(-0.189618 -0.162666 0.96829)
(-0.0220914 -0.0462684 0.998685)
(-0.312311 -0.12291 0.941995)
(-0.0428809 -0.0121964 0.999006)
(-0.486124 -0.154643 0.860098)
(-0.41561 -0.0748864 0.906455)
(-0.0278049 0.999579 -0.00825344)
(0.955282 -0.0464306 0.292029)
(-0.0440876 0.999028 0.000266805)
(0.0263457 -0.307952 0.951037)
(0.606501 -0.126949 0.784883)
(-0.0596172 -0.617681 0.784165)
(0.913095 0.167953 -0.371551)
(-0.596098 -0.0916601 0.797663)
(0.889959 0.256032 -0.377387)
(-0.635793 -0.271219 0.722639)
(-0.1411 -0.0834996 0.986468)
(0.718643 0.340375 -0.606381)
(0.0455919 0.998958 -0.00224244)
(0.217545 0.97605 -0.00128433)
(0.403381 0.914962 0.0113618)
(0.387808 0.921739 0.00136479)
(0.286427 0.958098 -0.00273679)
(0.312076 0.950057 0.000150374)
(0.324742 0.945798 0.00298071)
(0.323666 0.946171 0.000514735)
(-0.381988 0.924126 -0.00869461)
(-0.162451 0.986691 0.00710833)
(-0.0931287 0.995653 0.00123959)
(0.0607131 0.998155 0.0012228)
(-0.378952 0.925311 0.0140036)
(-0.149454 0.988768 -0.000683123)
(0.0735784 0.997287 0.00205393)
(0.29158 0.956545 0.00184109)
(0.272469 0.96216 -0.00296128)
(0.0461593 0.998915 0.00617813)
(-0.0521764 0.998638 -0.000124768)
(0.34925 0.90118 0.256707)
(0.282106 0.908114 0.309428)
(0.0203707 0.824318 0.56576)
(0.345068 0.84462 0.409323)
(0.029299 0.877618 0.478464)
(0.772835 0.43848 0.458761)
(0.764436 0.415354 0.493071)
(-0.0361188 0.222085 0.974358)
(0.000313042 0.0690312 0.997614)
(-0.0151521 0.00146158 0.999884)
(-0.0449273 0.140909 0.989003)
(-0.0465969 0.0450406 0.997898)
(-0.0493804 0.184581 0.981576)
(-0.0292393 0.151411 0.988038)
(0.161943 -0.0251881 0.986479)
(0.0819748 0.330591 0.940207)
(0.0743046 0.226907 0.971078)
(-0.0295654 -0.159218 0.986801)
(0.0703928 -0.0859898 0.993806)
(0.0507105 -0.120184 0.991456)
(0.1264 0.00495786 0.991967)
(0.154285 0.0123439 0.987949)
(0.151065 -0.000496278 0.988524)
(0.0480883 0.353588 0.934164)
(0.154104 0.0387314 0.987295)
(0.0872543 0.375827 0.922573)
(-0.338953 0.940384 0.0281034)
(0.00891609 0.999945 -0.00545017)
(-0.120912 0.992663 0.000106785)
(0.06542 0.997858 8.69647e-05)
(-0.356513 0.934264 0.00705016)
(-0.142978 0.98971 0.00568547)
(0.0872937 0.996159 -0.006914)
(-0.274793 0.961482 -0.00639515)
(0.083473 0.996471 -0.00882477)
(-0.0913108 0.995684 -0.0165997)
(0.155821 0.987775 -0.00459326)
(-0.276839 0.960916 0.000173451)
(-0.0516875 0.998573 -0.0134385)
(0.234881 0.972024 -0.000673565)
(-0.240355 0.970541 0.0167139)
(-0.322394 0.946537 0.011416)
(0.166967 0.985946 0.00578126)
(0.208159 0.978017 0.0123225)
(0.246116 0.969237 -0.00247153)
(0.189144 0.981923 -0.00725643)
(0.306746 0.951791 0.000709525)
(0.290023 0.957014 0.00323714)
(0.23197 0.972677 -0.00947642)
(0.306943 0.951687 -0.00884181)
(0.274515 0.961464 -0.0151162)
(0.284137 0.958703 -0.0124575)
(-0.196334 0.980517 0.00628974)
(0.0977614 0.995205 -0.00327001)
(0.38512 0.922861 0.00308553)
(0.415562 0.909564 -0.00151668)
(0.00583751 0.999702 -0.0237017)
(0.975926 -0.0314437 0.215823)
(0.0213263 0.99928 -0.0313769)
(-0.00851158 0.999964 8.25127e-05)
(0.986716 -0.0120687 0.162008)
(-0.00554606 0.999984 -0.00113844)
(0.797864 0.023002 -0.602399)
(0.937483 0.0738674 -0.340102)
(0.937943 0.0705058 -0.339547)
(0.915364 0.179282 -0.360508)
(0.709489 0.0470843 -0.703142)
(0.922498 0.141894 -0.358976)
(0.775278 0.0277365 -0.631011)
(0.939148 0.00446832 -0.343484)
(0.938096 0.0152567 -0.346039)
(0.729893 -0.58642 -0.351238)
(-0.702535 0.102642 0.704208)
(0.786362 -0.610987 -0.0912614)
(-0.64915 0.173802 0.740538)
(0.709038 -0.685352 -0.166006)
(0.104707 0.0864662 0.990737)
(0.37131 0.483929 0.792428)
(-0.178936 -0.233567 0.955735)
(0.0337516 -0.00101801 0.99943)
(0.0311562 -0.0119553 0.999443)
(0.140286 0.0137544 0.990015)
(0.0578847 -5.3823e-05 0.998323)
(0.000609822 -0.0104753 0.999945)
(0.135226 0.0100118 0.990764)
(0.04262 -0.0058647 0.999074)
(0.0508605 -0.00136092 0.998705)
(0.120258 -0.0051606 0.992729)
(0.0543073 -0.00402446 0.998516)
(0.0498747 -0.00809742 0.998723)
(0.126558 0.0011005 0.991959)
(0.057317 -0.00502842 0.998343)
(0.0484527 -0.00549102 0.99881)
(0.0353806 0.0192281 0.999189)
(0.024846 0.00584195 0.999674)
(0.0242643 0.0108637 0.999647)
(0.0194154 -0.000280627 0.999811)
(0.771898 -0.635729 0.00474058)
(0.797477 -0.512814 0.317886)
(-0.605784 0.743191 -0.284065)
(-0.07803 0.956374 0.281533)
(-0.508862 0.730206 0.455915)
(-0.677021 0.727324 0.112437)
(0.672653 0.425062 0.60569)
(-0.514303 0.857265 -0.0242789)
(-0.201325 0.941283 0.271026)
(-0.304472 0.923716 -0.232478)
(-0.337789 0.940032 -0.0473183)
(-0.189091 0.971527 0.142758)
(-0.0295317 0.999563 -0.0014387)
(-0.423459 0.895782 0.135117)
(-0.0822507 0.98657 -0.141118)
(-0.364975 0.930214 0.0386611)
(0.0754051 0.994304 0.0753222)
(0.141068 0.989998 0.00185127)
(-0.152764 0.937228 -0.313476)
(-0.636661 0.762356 0.11609)
(-0.0625688 -0.030207 0.997583)
(0.0173706 -0.0204524 0.99964)
(0.138077 0.00640383 0.990401)
(0.0527834 -0.0151023 0.998492)
(-0.0384821 -0.0237548 0.998977)
(0.12324 -0.0104416 0.992322)
(0.00849048 -0.0245859 0.999662)
(-0.0699341 -0.0217643 0.997314)
(0.105821 -0.0120403 0.994312)
(0.00810885 -0.0141175 0.999867)
(0.0481916 -0.0181469 0.998673)
(-0.0688471 -0.0135679 0.997535)
(0.111824 -0.0160893 0.993598)
(0.00648004 -0.0209607 0.999759)
(0.0582527 0.00741702 0.998274)
(0.0795887 0.0146108 0.996721)
(0.0884671 0.000705748 0.996079)
(0.0926436 0.00619709 0.99568)
(0.132152 0.179953 0.974758)
(0.0840341 0.0792812 0.993304)
(0.30515 0.179171 0.935297)
(0.317837 0.0677021 0.945725)
(0.346649 0.142031 0.927179)
(0.113461 0.126502 0.985456)
(0.0991372 0.0943723 0.990589)
(0.0340432 0.310896 0.949834)
(-0.0280862 0.639002 0.768692)
(-0.0200979 0.204476 0.978665)
(0.0157271 0.439441 0.898134)
(-0.036331 0.30811 0.950657)
(0.0190937 0.215934 0.976221)
(0.0254032 0.645009 0.763753)
(0.00118638 0.151981 0.988383)
(-0.0145501 0.0615318 0.997999)
(-0.0378349 0.0812785 0.995973)
(-0.0311019 0.0783901 0.996437)
(-0.0255178 0.137227 0.990211)
(-0.00957658 0.0925378 0.995663)
(0.00410806 0.104036 0.994565)
(0.113581 0.316639 0.941721)
(0.294446 0.14795 0.944146)
(0.223901 0.693433 0.684849)
(0.0530981 0.444652 0.894128)
(0.328194 0.281364 0.901733)
(0.0958855 0.19734 0.975635)