/*--------------------------------*- C++ -*----------------------------------*\
| =========                 |                                                 |
| \\      /  F ield         | OpenFOAM: The Open Source CFD Toolbox           |
|  \\    /   O peration     | Version:  2012                                  |
|   \\  /    A nd           | Website:  www.openfoam.com                      |
|    \\/     M anipulation  |                                                 |
\*---------------------------------------------------------------------------*/
FoamFile
{
    version     2.0;
    format      ascii;
    class       volVectorField;
    location    "0.104/solid";
    object      U;
}
// * * * * * * * * * * * * * * * * * * * * * * * * * * * * * * * * * * * * * //

dimensions      [0 1 -1 0 0 0 0];


internalField   nonuniform List<vector> 
3124
(
(2.25069e-08 -1.13274e-08 -1.04112e-08)
(-1.40535e-10 -3.05963e-10 -5.80423e-10)
(-1.11547e-09 1.07197e-09 -1.29924e-10)
(1.9447e-08 -7.54399e-09 1.70482e-08)
(-2.25504e-09 2.01209e-09 -7.64727e-10)
(-1.76957e-10 -2.85121e-10 -5.89074e-10)
(-9.49157e-10 1.17667e-09 -4.62249e-10)
(3.03275e-08 -1.13878e-08 1.969e-08)
(-2.22799e-09 1.68817e-09 7.89915e-10)
(1.0984e-09 -7.70685e-10 -1.69534e-09)
(3.3851e-09 -7.03359e-09 -1.47334e-08)
(8.73146e-08 -3.24494e-08 9.92759e-09)
(1.10408e-09 -5.01957e-10 -4.3562e-09)
(-2.30969e-10 2.14862e-10 3.24542e-09)
(6.85274e-10 -6.02025e-10 -1.46696e-09)
(1.07197e-09 -3.51235e-10 -4.14463e-09)
(3.61797e-09 -1.64634e-09 -1.49958e-08)
(1.04424e-09 -5.05386e-10 -4.35625e-09)
(1.02836e-09 -4.80554e-10 -4.05272e-09)
(7.61425e-08 -2.73953e-08 1.82696e-08)
(-5.1074e-10 2.99766e-10 6.22717e-09)
(-3.57751e-10 2.04189e-10 6.46862e-09)
(-2.08543e-10 1.8406e-10 3.31601e-09)
(1.12314e-07 -5.8757e-08 -2.62892e-08)
(1.41952e-08 -7.03526e-09 -7.70344e-09)
(2.29909e-08 -1.03041e-08 -1.02935e-08)
(6.05219e-08 -2.7902e-08 -1.88501e-08)
(1.71822e-07 -9.01769e-08 -3.94841e-08)
(1.09907e-08 -4.23021e-09 -6.60398e-09)
(3.93055e-08 -1.80567e-08 -1.32263e-08)
(-4.68145e-10 3.05718e-10 -7.21953e-10)
(-5.86689e-10 6.67089e-10 2.07118e-09)
(2.51318e-10 3.28196e-10 1.15191e-09)
(2.13233e-08 -7.65082e-09 3.16073e-08)
(1.66517e-08 -6.78328e-09 1.65152e-08)
(5.81502e-08 -2.42594e-08 3.67422e-08)
(1.12095e-08 -4.44221e-09 1.43729e-08)
(4.90009e-08 -2.30224e-08 4.1817e-08)
(2.47831e-08 -1.00334e-08 2.89461e-08)
(1.03013e-08 -4.06214e-09 1.41724e-08)
(2.59336e-08 -1.21272e-08 -1.2159e-08)
(-2.368e-09 2.1197e-09 -7.01218e-09)
(-2.40313e-10 -2.6292e-10 -1.2933e-09)
(-1.95687e-09 7.70938e-10 6.65331e-12)
(-2.06255e-10 -1.2077e-10 -2.10714e-09)
(-1.01384e-09 1.30098e-09 -3.86577e-09)
(-5.16871e-10 3.19775e-10 -9.92981e-10)
(-7.10689e-10 2.47403e-10 -2.66632e-09)
(1.0103e-07 -4.31349e-08 4.57559e-08)
(4.41101e-08 -1.63272e-08 2.16952e-08)
(2.49973e-08 -9.9006e-09 1.83874e-08)
(7.24462e-08 -2.90493e-08 3.90581e-08)
(5.53855e-08 -2.40036e-08 4.3069e-08)
(1.27116e-07 -5.64265e-08 4.53252e-08)
(3.5384e-08 -1.35543e-08 1.92297e-08)
(-1.30292e-09 1.02365e-09 4.05907e-09)
(3.36261e-11 1.46607e-11 6.90144e-09)
(2.85479e-11 3.428e-11 3.65179e-09)
(6.93848e-10 3.16089e-11 2.49773e-09)
(3.50884e-09 -2.17727e-09 -2.73406e-09)
(2.34294e-09 -2.75994e-10 -3.32063e-09)
(8.13265e-09 -2.82665e-09 -5.86594e-09)
(1.70958e-08 -1.07715e-08 -8.23023e-09)
(2.00096e-08 -6.81236e-09 -1.18987e-08)
(3.45853e-09 -7.02491e-10 -8.37643e-09)
(1.61756e-07 -1.24583e-07 -5.99716e-09)
(8.47891e-09 -2.99639e-09 -6.66307e-09)
(1.25611e-07 -6.25267e-08 -2.23061e-08)
(8.6338e-08 -3.37159e-08 -5.2592e-09)
(2.21194e-07 -1.00522e-07 2.6573e-08)
(6.34011e-08 -2.32141e-08 5.88525e-09)
(2.07629e-07 -1.13388e-07 -1.32269e-08)
(1.54858e-07 -6.41852e-08 1.88881e-08)
(5.89589e-08 -2.31878e-08 -4.61768e-09)
(2.26126e-07 -1.16414e-07 2.22426e-08)
(2.07376e-07 -1.28234e-07 -1.0913e-08)
(1.87087e-09 -2.55423e-10 -3.44293e-09)
(2.94759e-09 -4.54903e-10 -6.67913e-09)
(6.78573e-09 -1.56393e-09 -6.36644e-09)
(2.56346e-08 -1.33356e-08 3.09754e-09)
(2.1771e-08 -1.22903e-08 -5.56073e-09)
(-4.26539e-10 2.09464e-10 -7.91233e-10)
(2.96814e-10 2.3769e-10 9.55953e-10)
(-5.8609e-10 5.85397e-10 2.29109e-09)
(5.39632e-10 9.47109e-11 2.0538e-09)
(2.65258e-10 2.52328e-10 1.29467e-09)
(4.72477e-10 6.89206e-11 1.6304e-09)
(2.99489e-10 1.73981e-10 1.03718e-09)
(8.2731e-09 -4.85849e-09 9.29935e-09)
(4.71793e-09 -2.40942e-09 7.33583e-09)
(6.15204e-08 -2.75821e-08 3.50965e-08)
(2.64671e-08 -1.19181e-08 2.82924e-08)
(1.80618e-08 -6.27168e-09 3.01734e-08)
(5.03596e-09 -1.90647e-09 1.19156e-08)
(1.65635e-08 -6.86056e-09 2.65349e-08)
(5.49614e-09 -1.80021e-09 1.18396e-08)
(1.7615e-08 -7.66303e-09 2.59462e-08)
(3.44372e-09 -1.64164e-09 6.67252e-09)
(1.77695e-08 -7.5728e-09 -1.38022e-08)
(-1.76883e-09 2.40355e-09 -8.6119e-09)
(-2.08154e-12 -3.10601e-10 -1.25928e-09)
(1.44783e-09 -3.25562e-10 -3.02946e-09)
(1.86191e-10 -1.4459e-10 -2.23904e-09)
(-1.88236e-09 2.49705e-10 -7.87082e-11)
(-3.25879e-10 -3.06386e-10 -1.9234e-09)
(1.29835e-09 -4.36112e-10 -3.31059e-09)
(-7.96961e-10 -8.36397e-10 -8.65043e-10)
(1.5139e-10 -1.84401e-10 -2.08618e-09)
(-6.56787e-10 1.46974e-09 -4.14558e-09)
(2.78792e-09 -1.55729e-10 -8.41154e-09)
(-4.69743e-10 -7.00897e-11 -2.73191e-09)
(-4.42084e-10 2.05627e-10 -9.31817e-10)
(-6.36873e-10 1.30846e-10 -2.16939e-09)
(2.42012e-09 -1.73467e-10 -6.7289e-09)
(-3.72013e-10 -1.77465e-10 -2.10646e-09)
(-1.02634e-09 -6.52852e-10 -9.139e-10)
(1.08345e-07 -4.57186e-08 4.48462e-08)
(6.00589e-08 -2.18271e-08 2.14148e-08)
(2.07446e-07 -9.16912e-08 3.41486e-08)
(5.7607e-08 -2.07119e-08 1.3488e-08)
(1.50681e-07 -6.35714e-08 2.41107e-08)
(1.47237e-07 -6.39687e-08 4.2483e-08)
(4.6926e-08 -1.73493e-08 1.77905e-08)
(1.04374e-08 -5.95473e-09 9.85843e-09)
(1.61468e-08 -9.11227e-09 1.03527e-08)
(7.67249e-08 -3.34672e-08 3.69427e-08)
(1.34994e-07 -7.03915e-08 4.41855e-08)
(2.13443e-07 -1.05064e-07 2.90795e-08)
(1.55042e-07 -7.72185e-08 3.58574e-08)
(2.42888e-08 -1.28015e-08 5.71565e-09)
(1.90312e-08 -1.03463e-08 9.83648e-09)
(-1.04655e-09 7.95656e-10 4.86087e-09)
(-3.44422e-11 4.40838e-11 6.84699e-09)
(1.00299e-11 4.45889e-11 3.63109e-09)
(5.61506e-10 8.64612e-11 2.12389e-09)
(6.81891e-10 3.75291e-11 2.46679e-09)
(6.09269e-10 2.38628e-11 2.00648e-09)
(4.92648e-10 6.37513e-11 1.68785e-09)
(5.99643e-10 2.86726e-11 1.97999e-09)
(1.6881e-08 -6.26447e-09 2.43764e-08)
(-2.66922e-10 -3.28354e-10 -3.96529e-10)
(-7.08884e-10 -1.04485e-09 -1.17308e-10)
(-4.7204e-10 6.7541e-10 -3.73426e-10)
(-8.75118e-10 8.99221e-10 9.09489e-10)
(-3.23716e-10 5.59253e-10 4.93058e-10)
(-2.37697e-09 2.23905e-09 -2.67887e-09)
(-4.40851e-09 7.71107e-10 -6.38533e-09)
(-1.13967e-10 -1.62483e-10 -4.33128e-10)
(-7.56746e-10 -1.15456e-09 -3.64155e-10)
(-2.6723e-10 -1.28171e-10 -9.60213e-10)
(-1.26331e-09 1.4277e-09 -1.90408e-09)
(-5.57186e-10 6.88352e-10 -6.42932e-10)
(-6.21607e-10 7.96288e-10 -1.58139e-09)
(-1.90401e-09 1.38385e-09 1.9837e-09)
(1.09145e-08 -3.7302e-09 -1.43045e-08)
(1.65347e-09 -1.13062e-09 -1.99162e-09)
(2.21259e-09 -9.96162e-10 -3.06626e-09)
(9.9945e-10 2.57005e-10 -4.52756e-09)
(4.13083e-09 -5.01107e-10 -1.06042e-08)
(3.32758e-09 -1.55444e-09 -3.64618e-09)
(2.51677e-09 -4.14101e-10 -4.59776e-09)
(2.15111e-08 -1.38198e-08 -3.5191e-08)
(3.92959e-09 -7.14528e-09 -1.40412e-08)
(-2.34934e-09 8.85881e-09 -5.78923e-08)
(3.10375e-09 -3.79481e-09 -1.29659e-08)
(2.68488e-08 -5.4004e-08 -3.02452e-08)
(-7.95426e-10 -8.60468e-09 -4.1104e-08)
(2.89207e-09 -5.38434e-09 -1.11252e-08)
(3.63292e-09 -2.45966e-10 -1.33885e-08)
(1.59262e-09 -1.11546e-09 -1.53185e-08)
(1.07503e-09 -5.85374e-10 -4.0052e-09)
(1.60826e-09 -5.81602e-10 -4.68707e-09)
(2.1744e-09 -3.86075e-10 -1.30988e-08)
(2.29737e-09 -1.05938e-09 -1.74923e-08)
(1.87109e-09 -6.03277e-10 -4.15784e-09)
(-3.98075e-10 3.27087e-10 2.93371e-09)
(1.77982e-10 1.81404e-10 2.42283e-09)
(8.11798e-11 2.34885e-10 2.11979e-09)
(1.04593e-08 -9.41337e-09 -1.74169e-08)
(8.51806e-09 9.52871e-09 -6.95085e-08)
(2.17146e-09 -6.72279e-08 -3.68897e-08)
(1.22892e-09 -2.07076e-10 -8.82568e-09)
(4.24305e-10 -5.15232e-10 -1.28154e-09)
(1.35997e-09 -7.89506e-10 -2.6713e-09)
(7.60272e-10 2.94856e-10 -4.32064e-09)
(3.25239e-09 -3.71392e-10 -1.02444e-08)
(8.30236e-10 -7.18238e-10 -2.3799e-09)
(3.13885e-10 2.9035e-10 -3.49736e-09)
(7.14782e-10 -6.61765e-10 -1.17526e-08)
(1.32377e-09 -1.14353e-09 -1.54058e-08)
(9.64989e-10 -4.57968e-10 -4.10414e-09)
(1.19693e-09 -3.06552e-10 -3.39154e-09)
(1.71312e-09 -4.84827e-10 -1.48571e-08)
(3.22373e-10 -1.28643e-09 -1.04158e-08)
(1.21578e-09 -3.57041e-10 -3.50946e-09)
(1.69045e-09 -2.81069e-09 -1.29836e-08)
(1.40763e-09 -1.56103e-09 -1.49665e-08)
(1.42737e-09 -4.53884e-10 -4.77565e-09)
(8.76872e-10 -7.56808e-10 -4.14986e-09)
(2.04192e-09 -1.55315e-09 -1.75442e-08)
(9.36443e-10 -4.07237e-09 -1.28907e-08)
(1.09589e-09 -8.15794e-10 -4.59256e-09)
(-6.86794e-10 -3.01587e-09 -9.04724e-09)
(1.17073e-09 -1.66429e-09 -1.51173e-08)
(1.05191e-09 -4.70178e-10 -3.24337e-09)
(9.0736e-10 -5.28177e-10 -3.82088e-09)
(1.55352e-11 -1.64423e-09 -9.80811e-09)
(7.31767e-10 -3.70664e-09 -1.31854e-08)
(6.56069e-10 -5.27626e-10 -3.12278e-09)
(-6.79855e-10 4.24407e-10 5.89897e-09)
(-2.25155e-10 1.33542e-10 6.64245e-09)
(-8.7794e-11 1.08894e-10 3.49853e-09)
(2.01801e-10 1.56145e-10 2.49667e-09)
(2.6641e-10 1.03659e-10 2.66816e-09)
(7.66879e-08 -3.23343e-08 -2.33893e-08)
(1.22231e-07 -6.21065e-08 -2.35462e-08)
(6.09649e-08 -3.57827e-08 -2.70908e-08)
(8.93838e-08 -4.15997e-08 -1.88824e-08)
(6.15894e-08 -2.78794e-08 -2.18645e-08)
(8.28654e-08 -4.40887e-08 -2.63577e-08)
(1.08852e-07 -5.03193e-08 -1.90121e-08)
(4.75791e-08 -2.06183e-08 -2.01362e-08)
(3.7416e-08 -1.69373e-08 -2.27234e-08)
(1.09236e-08 -4.60625e-09 -6.51221e-09)
(1.51794e-08 -5.97449e-09 -7.2394e-09)
(3.53293e-08 -1.63063e-08 -1.87071e-08)
(4.61422e-08 -2.1133e-08 -2.0182e-08)
(1.49687e-08 -6.04626e-09 -7.39476e-09)
(-1.9508e-10 -2.17671e-10 -2.06951e-10)
(-3.3972e-10 5.95293e-10 -3.92358e-10)
(-2.41441e-10 2.89008e-10 -1.02261e-10)
(-2.96699e-10 4.35625e-10 3.80825e-10)
(-9.02012e-10 8.48253e-10 1.20557e-09)
(-1.68808e-11 5.5606e-10 1.45255e-09)
(-3.24294e-10 5.17516e-10 7.12867e-10)
(-1.54868e-10 3.28949e-10 1.12491e-10)
(1.16578e-10 6.10586e-10 1.42944e-09)
(-3.01423e-10 3.83825e-10 5.25284e-10)
(2.65287e-08 -1.09719e-08 2.94159e-08)
(3.19018e-08 -1.33015e-08 3.60461e-08)
(2.32347e-08 -9.11447e-09 3.13489e-08)
(1.92823e-08 -7.01333e-09 2.6925e-08)
(2.53231e-08 -1.04518e-08 2.94647e-08)
(3.10613e-08 -1.31017e-08 3.42177e-08)
(1.94203e-08 -7.25146e-09 2.67949e-08)
(3.33876e-08 -1.30873e-08 3.15248e-08)
(3.60776e-08 -1.50595e-08 3.75108e-08)
(3.96045e-08 -1.70841e-08 3.39481e-08)
(5.00381e-08 -2.15662e-08 3.93802e-08)
(4.27084e-08 -1.73985e-08 3.39177e-08)
(3.17738e-08 -1.26946e-08 3.16477e-08)
(3.99434e-08 -1.65883e-08 3.68674e-08)
(-2.46054e-09 2.28763e-09 -4.83184e-09)
(-2.71968e-09 1.08456e-09 -5.00665e-09)
(-3.71957e-10 -2.70504e-10 -1.53842e-09)
(-3.58769e-10 -4.26633e-10 -1.97062e-09)
(-9.10084e-10 2.54797e-11 -4.25895e-09)
(-1.10523e-09 1.89595e-10 -6.98441e-09)
(-6.25755e-10 -4.25572e-10 -2.20859e-09)
(-2.89208e-09 3.05506e-09 -5.21144e-09)
(-4.03589e-09 9.37686e-10 -6.20996e-09)
(-5.58779e-09 3.34972e-10 -3.94024e-09)
(-1.15697e-09 6.85109e-11 -1.71748e-09)
(-3.14342e-09 -7.26879e-10 -5.70817e-09)
(-2.56253e-10 -1.01484e-10 -9.54199e-10)
(-3.04166e-09 5.78324e-10 -6.52068e-09)
(-9.3957e-10 -3.57125e-10 -6.40476e-09)
(-2.00107e-10 -1.83189e-10 -2.11444e-09)
(-5.76073e-10 -8.3986e-11 -1.98286e-09)
(-9.83865e-10 2.22945e-11 -7.12549e-09)
(-2.52894e-09 -6.99921e-10 -6.11828e-09)
(-6.55592e-10 -6.88297e-11 -2.05763e-09)
(-1.07099e-09 1.43728e-09 -2.41312e-09)
(-3.97861e-10 6.82024e-10 -2.81427e-09)
(-5.99871e-10 7.84275e-10 -1.92996e-09)
(-4.35664e-10 6.09725e-10 -7.03767e-10)
(-6.70833e-10 3.3491e-10 -1.87494e-09)
(-6.18365e-10 6.23125e-10 -1.54904e-09)
(-4.01945e-10 5.54265e-10 -2.56623e-09)
(-7.19595e-10 2.90144e-10 -2.0734e-09)
(-5.87228e-10 5.9834e-10 -1.8246e-09)
(7.50659e-08 -2.81428e-08 3.83634e-08)
(8.05899e-08 -3.38146e-08 4.62362e-08)
(1.05741e-07 -4.32832e-08 4.44915e-08)
(8.02927e-08 -3.2164e-08 3.73749e-08)
(8.92548e-08 -3.45168e-08 3.83165e-08)
(6.83954e-08 -2.67822e-08 3.79624e-08)
(9.01589e-08 -3.59073e-08 4.45288e-08)
(6.38005e-08 -2.49198e-08 3.74424e-08)
(7.38008e-08 -3.13476e-08 4.57668e-08)
(4.8034e-08 -1.93027e-08 3.57516e-08)
(6.20642e-08 -2.51269e-08 4.13644e-08)
(5.17739e-08 -1.97632e-08 3.56259e-08)
(5.82004e-08 -2.37965e-08 3.71961e-08)
(7.55166e-08 -3.05842e-08 4.33832e-08)
(-1.5823e-09 1.22138e-09 3.04947e-09)
(7.7205e-11 -5.98233e-12 6.92729e-09)
(6.45931e-11 4.09925e-12 3.68564e-09)
(3.39924e-10 4.30784e-11 2.83284e-09)
(3.71354e-10 4.18963e-11 2.59392e-09)
(8.18715e-08 -3.84141e-08 -2.01364e-08)
(4.21728e-08 -2.29705e-08 -2.05725e-08)
(1.16348e-08 -5.14952e-09 -1.43871e-08)
(2.319e-09 -1.74281e-09 -2.346e-09)
(5.95162e-09 -4.98152e-09 -4.55393e-09)
(6.95792e-09 -4.58752e-09 -7.7699e-09)
(1.44366e-08 -1.12327e-08 -1.15814e-08)
(4.40708e-09 -2.8597e-09 -4.15861e-09)
(2.78955e-09 -3.06321e-09 -4.87979e-09)
(1.10225e-08 -3.17614e-09 -1.36485e-08)
(2.52322e-09 -4.91594e-10 -3.30342e-09)
(4.0222e-09 -2.37592e-10 -1.07412e-08)
(3.95614e-09 -4.01533e-10 -3.90277e-09)
(8.64522e-09 -8.13982e-10 -1.29851e-08)
(4.38022e-09 -5.49996e-10 -1.04827e-08)
(4.10605e-09 -9.04759e-10 -3.93004e-09)
(1.37473e-08 -4.63316e-09 -1.34995e-08)
(3.00581e-08 -1.32854e-08 -2.16736e-08)
(8.00124e-09 -4.07413e-09 -5.70232e-09)
(5.98094e-09 -1.08893e-09 -4.86933e-09)
(2.99499e-08 -1.64602e-08 -1.78058e-08)
(1.17987e-08 -1.81994e-09 -1.46742e-08)
(5.91444e-09 -2.10124e-09 -4.71003e-09)
(5.2385e-08 -2.66096e-08 -1.81014e-08)
(1.22177e-08 -8.24009e-09 -9.26032e-09)
(2.91426e-08 -2.12956e-08 -1.72873e-08)
(1.37057e-07 -8.21965e-08 -1.99181e-08)
(7.68748e-08 -4.2688e-08 -2.63825e-08)
(1.0222e-08 -1.16797e-08 -3.50456e-08)
(8.33145e-09 -6.20687e-10 -1.02018e-08)
(6.9534e-08 -1.07824e-08 -5.5163e-08)
(1.6965e-08 -5.6209e-09 -8.59356e-09)
(5.77266e-08 -2.78003e-08 -2.44855e-08)
(1.06379e-08 3.73566e-08 -5.04378e-08)
(6.97761e-09 -4.94457e-09 -8.63271e-09)
(1.44534e-08 -7.85504e-09 -3.51258e-08)
(3.74269e-09 -1.36968e-09 -1.07486e-08)
(2.81614e-09 -1.6262e-09 -2.76513e-08)
(4.40621e-09 -1.36958e-09 -8.11817e-09)
(7.47168e-09 -1.37075e-09 -2.69129e-08)
(5.38383e-09 -3.49718e-09 -3.29368e-08)
(4.78894e-09 -3.26224e-09 -9.93576e-09)
(1.48388e-07 -9.52035e-08 -1.86974e-08)
(1.25328e-07 -2.74944e-08 -3.00465e-08)
(8.29158e-08 -4.64264e-08 -2.86794e-08)
(1.71713e-08 -1.13684e-08 -2.97094e-08)
(3.26131e-08 -1.38608e-08 -2.22783e-08)
(1.20387e-08 -4.17539e-09 -6.84193e-09)
(5.40143e-09 -1.95542e-09 -7.49617e-09)
(5.33582e-08 -2.0773e-08 -2.48526e-08)
(1.06206e-08 -1.82687e-09 -2.79178e-08)
(6.96661e-09 -4.137e-09 -7.83776e-09)
(1.44229e-07 -5.92293e-08 -1.40352e-09)
(1.505e-07 -7.18565e-08 -1.38301e-08)
(1.50024e-07 -6.8614e-08 -5.34316e-09)
(1.09356e-07 -4.63985e-08 -1.45072e-08)
(1.29212e-07 -5.56814e-08 -1.30162e-08)
(1.67449e-07 -7.55556e-08 -2.44938e-09)
(1.22945e-07 -4.98865e-08 -4.15363e-09)
(1.48657e-07 -5.873e-08 7.47774e-09)
(1.53319e-07 -6.89857e-08 8.41006e-10)
(1.7253e-07 -7.08301e-08 1.93816e-08)
(1.27772e-07 -4.81577e-08 1.47126e-08)
(1.73925e-07 -7.4789e-08 8.76686e-09)
(1.28141e-07 -5.01579e-08 4.19298e-09)
(1.46504e-07 -5.53974e-08 1.78558e-08)
(1.52984e-07 -8.68287e-08 -1.57863e-08)
(1.80908e-07 -9.1764e-08 9.94884e-11)
(2.31401e-07 -1.25804e-07 1.32977e-08)
(1.9422e-07 -9.14751e-08 2.28399e-08)
(1.97405e-07 -1.00778e-07 7.61202e-09)
(1.6581e-07 -9.89584e-08 -1.45176e-08)
(2.25156e-07 -1.3316e-07 4.23302e-09)
(1.94045e-07 -1.01981e-07 2.23307e-09)
(1.82979e-07 -8.36259e-08 2.15642e-08)
(1.84515e-07 -9.11205e-08 5.4218e-09)
(4.35393e-09 -5.95239e-11 -1.24136e-08)
(1.33656e-09 -3.50748e-10 -3.60745e-09)
(3.6537e-09 -1.58781e-10 -1.14151e-08)
(3.22555e-09 -1.63172e-10 -3.8353e-09)
(7.46569e-09 -3.29846e-10 -1.28812e-08)
(2.41129e-09 -1.96143e-10 -1.26421e-08)
(2.4779e-09 -2.28879e-10 -3.79607e-09)
(4.15867e-09 -2.39054e-10 -1.46756e-08)
(2.27892e-09 -5.49734e-10 -5.45153e-09)
(2.73984e-09 -1.07893e-09 -2.50762e-08)
(3.84513e-09 -5.4637e-10 -6.42275e-09)
(6.53725e-09 -7.27174e-10 -2.37331e-08)
(2.45326e-09 -1.04277e-09 -1.87923e-08)
(2.89392e-09 -5.189e-10 -4.97387e-09)
(5.09768e-09 -9.55321e-11 -1.40747e-08)
(2.47499e-08 -8.58942e-09 -2.24215e-08)
(5.03444e-09 -4.6303e-10 -4.94411e-09)
(5.16204e-09 -5.49867e-10 -6.64853e-09)
(9.6931e-09 -9.09263e-10 -1.4344e-08)
(8.65382e-09 -9.15655e-10 -2.42614e-08)
(3.93508e-09 -2.16453e-10 -4.86584e-09)
(9.08582e-08 -4.12031e-08 -1.73932e-08)
(1.08796e-07 -4.51939e-08 -4.60719e-09)
(7.9421e-08 -3.24458e-08 8.02416e-09)
(2.52131e-08 -1.34151e-08 4.616e-10)
(7.81297e-08 -3.31775e-08 1.35636e-09)
(1.11677e-07 -4.3984e-08 1.36487e-08)
(1.10991e-07 -4.56561e-08 -4.5509e-11)
(6.61421e-08 -3.10335e-08 -1.19732e-08)
(2.41789e-08 -1.30516e-08 -3.00937e-09)
(7.51648e-08 -3.21576e-08 -6.25875e-09)
(-2.10717e-10 7.74919e-12 -3.72228e-10)
(-2.04303e-10 2.18971e-10 -2.27578e-10)
(-4.53173e-11 1.51617e-11 -8.34184e-11)
(-1.84635e-10 2.72387e-10 -9.53335e-11)
(1.2498e-10 1.69973e-11 2.28696e-10)
(-1.54464e-11 1.79982e-11 -3.30396e-11)
(-4.03711e-10 3.759e-10 2.81172e-09)
(6.3711e-11 4.10322e-10 1.67522e-09)
(5.95861e-11 2.47688e-10 2.01364e-09)
(2.25312e-10 1.62531e-10 2.19257e-09)
(4.66042e-10 1.10744e-10 1.78678e-09)
(1.52555e-10 1.98275e-10 1.89244e-09)
(1.59108e-10 3.42788e-10 1.5862e-09)
(4.54036e-10 1.12345e-10 1.73263e-09)
(1.36249e-10 2.00464e-10 1.79498e-09)
(2.43368e-10 5.15274e-12 3.93574e-10)
(4.06938e-10 7.84542e-11 1.41706e-09)
(2.07898e-10 5.36288e-12 3.37469e-10)
(1.51468e-10 1.05341e-11 2.60582e-10)
(3.97528e-10 7.95808e-11 1.37343e-09)
(1.95545e-10 5.2841e-12 3.1846e-10)
(1.75556e-08 -6.00023e-09 2.45686e-08)
(2.51361e-08 -1.00725e-08 2.78979e-08)
(2.5976e-08 -1.14464e-08 2.39707e-08)
(7.20089e-09 -4.0257e-09 8.6772e-09)
(2.20297e-08 -9.24202e-09 2.2476e-08)
(3.81039e-08 -1.6145e-08 3.21027e-08)
(2.82609e-08 -1.11463e-08 2.90587e-08)
(1.4237e-08 -5.206e-09 1.90895e-08)
(5.51333e-09 -3.09557e-09 7.99305e-09)
(1.7243e-08 -7.02825e-09 2.07611e-08)
(2.25108e-08 -9.18611e-09 3.13333e-08)
(3.5233e-08 -1.58197e-08 3.56128e-08)
(5.89676e-08 -2.65867e-08 3.97438e-08)
(4.82095e-08 -2.17895e-08 3.29356e-08)
(4.13581e-08 -1.85886e-08 3.60496e-08)
(5.65601e-08 -2.54071e-08 4.07927e-08)
(4.00337e-08 -1.75054e-08 3.69773e-08)
(2.28701e-08 -9.84245e-09 3.06294e-08)
(3.65904e-08 -1.67842e-08 3.06822e-08)
(3.62707e-08 -1.66281e-08 3.47351e-08)
(1.64143e-08 -6.23931e-09 2.86975e-08)
(1.4357e-08 -5.17125e-09 2.47477e-08)
(1.42191e-08 -5.48004e-09 2.4726e-08)
(1.87994e-08 -7.67081e-09 2.99747e-08)
(1.89693e-08 -8.24636e-09 2.93002e-08)
(1.51252e-08 -5.07653e-09 2.34261e-08)
(1.05621e-08 -3.42595e-09 1.74032e-08)
(1.22529e-08 -2.02876e-09 -1.21545e-08)
(1.44566e-08 4.77786e-08 -5.88922e-08)
(-6.19593e-10 2.7616e-09 -1.1685e-08)
(-5.99251e-09 -6.95269e-09 -4.54863e-08)
(8.01066e-10 -1.71162e-10 -8.48695e-09)
(2.02628e-10 -4.57004e-10 -1.1627e-09)
(8.01286e-11 -5.71513e-10 -2.01935e-09)
(-1.90225e-10 -6.25128e-11 -4.04558e-09)
(-5.96047e-10 1.0579e-10 -7.3541e-09)
(4.22315e-10 -6.5256e-10 -2.15343e-09)
(1.85112e-10 2.74583e-10 -3.22676e-09)
(1.32623e-09 -3.02036e-10 -9.10974e-09)
(1.51719e-09 -3.97376e-10 -2.93891e-09)
(3.14663e-09 -2.92647e-10 -1.05388e-08)
(9.54648e-10 -2.73745e-10 -2.77466e-09)
(3.43913e-09 -4.35137e-10 -1.01947e-08)
(1.19712e-09 -3.21206e-10 -9.23361e-09)
(9.28781e-10 -3.76938e-10 -2.69195e-09)
(8.54623e-10 -2.92052e-10 -8.62167e-09)
(-5.69374e-10 -5.98895e-10 -7.25306e-09)
(1.49917e-10 -2.42639e-10 -2.25084e-09)
(5.66836e-10 -1.68069e-10 -2.48226e-09)
(-5.43203e-10 -1.07372e-10 -7.50481e-09)
(7.63991e-10 -3.76449e-10 -8.92156e-09)
(5.16509e-10 -3.23653e-10 -2.45634e-09)
(-6.93289e-09 1.51011e-10 -3.84665e-09)
(-5.27674e-10 -7.95013e-11 -9.04963e-10)
(-3.41518e-09 -1.33412e-09 -5.31835e-09)
(-3.12933e-10 -3.59751e-10 -9.52384e-10)
(-2.70077e-09 -1.82027e-09 -5.55076e-09)
(-1.15256e-09 -1.04832e-09 -6.52815e-09)
(-8.1956e-10 -4.87067e-10 -1.80833e-09)
(-7.17422e-10 -6.80056e-10 -1.80648e-09)
(-2.30152e-09 -1.41084e-09 -4.77402e-09)
(-2.32944e-09 -1.86862e-09 -5.6045e-09)
(7.04719e-10 -5.47596e-10 -1.0753e-08)
(1.06481e-09 -5.18716e-10 -3.72951e-09)
(2.8725e-09 -2.61731e-10 -1.14191e-08)
(1.07924e-09 -3.34425e-10 -2.88045e-09)
(1.96165e-09 -3.3236e-10 -1.44155e-08)
(1.18383e-09 -3.46682e-10 -9.21663e-09)
(1.19636e-09 -5.27532e-10 -3.20716e-09)
(3.07404e-10 -7.74653e-10 -9.70878e-09)
(7.89981e-10 -4.36004e-10 -2.44458e-09)
(-2.49996e-09 -2.03588e-09 -4.84067e-09)
(5.72873e-11 -5.19905e-10 -2.04183e-09)
(-1.72362e-09 -1.40658e-09 -6.23688e-09)
(-7.59669e-11 -1.35235e-09 -8.67801e-09)
(8.25557e-10 -3.53379e-10 -2.57574e-09)
(6.75708e-10 -7.60517e-10 -6.47561e-09)
(-7.21105e-10 -8.48852e-10 -6.85364e-09)
(6.25848e-10 -1.83053e-10 -2.37938e-09)
(7.02317e-11 -4.18742e-10 -2.06607e-09)
(7.1389e-10 -4.03422e-10 -8.42364e-09)
(-1.51761e-09 -1.38431e-09 -6.25998e-09)
(7.17233e-10 -3.76632e-10 -2.48137e-09)
(-5.39242e-10 -6.78007e-09 -2.97413e-08)
(8.30695e-10 2.77047e-09 -1.05801e-08)
(-1.38982e-10 7.55658e-10 -2.88453e-09)
(-3.92521e-09 -7.93674e-09 -4.14495e-08)
(9.8202e-10 1.02923e-09 -4.21884e-09)
(-9.1384e-11 -6.66949e-09 -2.61162e-08)
(-1.89392e-10 6.0802e-10 -2.6186e-09)
(8.96601e-10 2.76138e-10 -3.21751e-09)
(9.24865e-10 -6.63127e-09 -1.9988e-08)
(9.59462e-10 7.63017e-10 -3.8455e-09)
(-4.9231e-11 3.41866e-12 -1.89929e-10)
(-5.80403e-10 2.18564e-10 -1.55064e-09)
(-2.75805e-10 1.36667e-11 -4.4724e-10)
(-6.07966e-10 1.95956e-10 -1.70843e-09)
(-4.03775e-10 2.60504e-11 -6.15607e-10)
(-3.2174e-10 2.47029e-11 -5.00117e-10)
(2.0003e-09 -2.76888e-09 -1.45767e-08)
(1.94798e-09 -3.46543e-10 -5.50924e-09)
(3.19609e-09 -1.55182e-09 -2.03989e-08)
(1.85043e-09 -6.74085e-10 -5.93757e-09)
(2.16066e-09 -1.58863e-09 -1.89428e-08)
(2.34605e-09 -3.06583e-09 -1.59337e-08)
(1.43814e-09 -7.12676e-10 -5.02664e-09)
(1.17038e-09 -5.13962e-09 -1.40738e-08)
(5.29478e-10 -5.71252e-10 -1.81094e-09)
(7.00286e-10 -5.39634e-09 -1.13852e-08)
(5.98636e-10 -3.16529e-10 -2.17343e-09)
(1.33931e-09 -5.04974e-09 -1.50887e-08)
(7.82799e-10 -4.36058e-11 -2.81328e-09)
(-2.7807e-10 -5.65293e-11 -5.24432e-10)
(1.17847e-09 -6.58608e-09 -1.84387e-08)
(6.04705e-10 -1.71664e-10 -2.10388e-09)
(-1.53466e-09 -3.01023e-09 -8.03031e-09)
(4.23472e-10 -7.52928e-10 -2.45471e-09)
(-2.46119e-09 -1.67172e-09 -4.28045e-09)
(-1.81724e-09 -5.64375e-10 -1.14601e-09)
(1.45801e-11 -1.7086e-09 -6.08159e-09)
(-5.0738e-09 -3.38281e-09 -8.92615e-09)
(-2.58894e-10 -8.43102e-10 -2.60297e-09)
(-8.68172e-10 -3.77727e-09 -8.50773e-09)
(4.90196e-10 -4.52919e-10 -1.7387e-09)
(5.545e-10 -5.07093e-09 -1.09391e-08)
(1.20737e-10 -6.7645e-11 -1.42553e-09)
(-1.76903e-09 -3.60631e-09 -7.4954e-09)
(-1.87842e-09 -7.0102e-10 -8.92801e-10)
(-5.09397e-09 -4.2237e-09 -6.88288e-09)
(-6.08322e-10 -7.40707e-10 -2.23199e-09)
(1.16475e-07 -4.4142e-08 3.43503e-08)
(1.29024e-07 -5.43584e-08 3.92966e-08)
(1.21593e-07 -4.89951e-08 4.27422e-08)
(9.15154e-08 -3.52245e-08 3.60868e-08)
(1.01797e-07 -3.79794e-08 3.71977e-08)
(1.37365e-07 -5.57151e-08 3.96813e-08)
(1.03677e-07 -4.01202e-08 3.25144e-08)
(1.28207e-07 -4.72324e-08 3.0813e-08)
(1.35665e-07 -5.65552e-08 3.64882e-08)
(1.64517e-07 -6.65069e-08 2.78159e-08)
(1.22756e-07 -4.64536e-08 2.1418e-08)
(1.39909e-07 -5.25745e-08 2.43531e-08)
(1.52032e-07 -6.0671e-08 3.46802e-08)
(1.13733e-07 -4.26613e-08 2.86147e-08)
(7.40367e-08 -3.07969e-08 3.45465e-08)
(5.93905e-08 -2.45863e-08 3.5349e-08)
(3.19635e-08 -1.4069e-08 2.53191e-08)
(1.18364e-08 -6.88946e-09 1.02593e-08)
(3.68999e-08 -1.66075e-08 2.61975e-08)
(4.20968e-08 -1.73701e-08 3.30867e-08)
(5.45415e-08 -2.30205e-08 3.49412e-08)
(5.02272e-08 -2.21855e-08 2.61788e-08)
(1.4495e-08 -8.12556e-09 1.04502e-08)
(4.4256e-08 -1.95756e-08 2.66671e-08)
(1.17762e-07 -5.28548e-08 4.49037e-08)
(9.28795e-08 -3.93993e-08 4.5218e-08)
(6.57387e-08 -2.87049e-08 4.08332e-08)
(9.38518e-08 -4.09558e-08 3.91676e-08)
(8.86508e-08 -3.87218e-08 4.37746e-08)
(6.3157e-08 -2.7222e-08 4.18882e-08)
(8.50209e-08 -3.64942e-08 4.46702e-08)
(1.23691e-07 -5.75205e-08 4.42832e-08)
(1.12671e-07 -5.11223e-08 4.10001e-08)
(9.69003e-08 -4.18429e-08 4.43887e-08)
(1.26166e-07 -5.59073e-08 4.41782e-08)
(1.50964e-07 -6.80234e-08 3.91639e-08)
(1.89298e-07 -8.82515e-08 2.69643e-08)
(1.956e-07 -9.33568e-08 3.41344e-08)
(1.67725e-07 -7.5717e-08 3.67808e-08)
(1.78728e-07 -8.10486e-08 2.58596e-08)
(1.58959e-07 -7.02087e-08 3.66479e-08)
(1.32575e-07 -6.08342e-08 4.35264e-08)
(1.7452e-07 -8.14875e-08 3.755e-08)
(1.58977e-07 -7.2386e-08 3.90624e-08)
(7.93324e-08 -3.22907e-08 3.3882e-08)
(9.41721e-08 -3.78722e-08 2.90895e-08)
(7.56275e-08 -3.12884e-08 1.40783e-08)
(2.32638e-08 -1.22247e-08 7.48685e-09)
(7.17227e-08 -2.96478e-08 1.88568e-08)
(1.09288e-07 -4.32708e-08 1.73545e-08)
(9.88922e-08 -3.9106e-08 2.69741e-08)
(5.83455e-08 -2.50865e-08 2.49189e-08)
(2.0642e-08 -1.12083e-08 8.97953e-09)
(6.43502e-08 -2.73138e-08 2.24266e-08)
(-8.51667e-10 5.8946e-10 5.46103e-09)
(-1.1932e-10 8.41795e-11 6.76363e-09)
(-6.66473e-11 9.23177e-11 3.53832e-09)
(3.27331e-10 5.37684e-11 2.80837e-09)
(2.84913e-10 8.89012e-11 2.71206e-09)
(2.47826e-10 1.41086e-10 2.26397e-09)
(6.27981e-10 6.6006e-11 2.31008e-09)
(3.05577e-10 9.72713e-11 2.42893e-09)
(3.60375e-10 5.11605e-11 2.56987e-09)
(6.47534e-10 5.53021e-11 2.37039e-09)
(3.24574e-10 8.37705e-11 2.47442e-09)
(3.12456e-10 1.63647e-12 5.01207e-10)
(2.55518e-10 4.47904e-12 4.12464e-10)
(5.51843e-10 4.87436e-11 1.85003e-09)
(2.84308e-10 3.86342e-12 4.56873e-10)
(5.70154e-10 3.97199e-11 1.90291e-09)
(3.08601e-10 2.12293e-12 4.95141e-10)
(2.94589e-10 2.91947e-12 4.69893e-10)
(-1.14384e-09 -1.27014e-09 -1.34081e-09)
(-1.38501e-10 -3.80947e-10 -6.26855e-10)
(-3.65699e-10 -8.1376e-10 -9.12208e-10)
(-4.92745e-10 -4.04452e-10 -1.66039e-09)
(-1.14464e-09 -1.32724e-09 -2.20564e-09)
(-4.39687e-10 -8.76178e-10 -6.19418e-10)
(-4.32134e-10 -3.9878e-10 -1.46831e-09)
(-1.99899e-09 -1.33468e-09 -2.9525e-09)
(-1.7392e-10 -2.6566e-10 -5.7877e-10)
(-4.03152e-10 -7.41441e-10 -9.55923e-10)
(-5.97303e-10 -3.96203e-10 -1.87331e-09)
(-1.32188e-09 -1.40185e-09 -2.86843e-09)
(-4.32853e-10 -6.77019e-10 -1.00438e-09)
(-9.05646e-10 -4.69802e-10 -2.02315e-09)
(5.02928e-10 -3.12005e-09 -3.29886e-08)
(1.83531e-09 1.47494e-09 -1.29928e-08)
(2.32274e-09 -9.28418e-09 -4.22694e-08)
(3.75641e-09 -7.43748e-10 -1.2319e-08)
(4.20421e-09 -3.82796e-09 -3.6027e-08)
(-8.78839e-10 -2.36136e-09 -3.99164e-08)
(2.12953e-09 7.30035e-10 -1.06392e-08)
(9.87301e-08 -4.91218e-08 -2.38852e-08)
(1.19265e-07 -6.15032e-08 -2.34644e-08)
(9.6478e-08 -5.28958e-08 -2.84177e-08)
(1.07987e-07 -5.28697e-08 -2.37005e-08)
(9.27565e-08 -4.72381e-08 -2.64332e-08)
(1.02874e-07 -5.57264e-08 -2.52955e-08)
(1.13846e-07 -5.49306e-08 -2.12716e-08)
(6.10697e-08 -2.3807e-08 -2.49612e-08)
(2.27023e-08 -9.20136e-09 -1.1418e-08)
(6.39233e-08 -4.73701e-08 -2.87279e-08)
(1.94295e-08 -7.02685e-09 -8.82133e-09)
(7.30191e-08 -2.61536e-08 -3.35499e-08)
(5.49343e-08 -2.22e-08 -2.34306e-08)
(1.91457e-08 -7.31733e-09 -8.9495e-09)
(-4.04913e-10 4.24355e-10 -4.3243e-10)
(-3.89295e-10 2.81128e-10 -4.85079e-10)
(-3.62716e-10 3.62585e-10 -2.34191e-10)
(1.47985e-10 3.74927e-10 6.9755e-10)
(2.37208e-10 4.56019e-10 1.53076e-09)
(1.64178e-10 5.12831e-10 9.8019e-10)
(2.38034e-08 -9.21839e-09 3.13953e-08)
(2.45414e-08 -9.4478e-09 3.30208e-08)
(2.16294e-08 -7.87195e-09 3.16343e-08)
(2.05831e-08 -7.2429e-09 3.02675e-08)
(2.37376e-08 -9.05771e-09 3.16784e-08)
(2.48688e-08 -9.69463e-09 3.30036e-08)
(2.05309e-08 -7.46993e-09 3.00349e-08)
(4.39122e-08 -1.88874e-08 3.81748e-08)
(4.43319e-08 -2.03667e-08 4.02863e-08)
(4.76997e-08 -2.13883e-08 3.97529e-08)
(5.05079e-08 -2.33703e-08 4.14246e-08)
(4.86991e-08 -2.09268e-08 3.90363e-08)
(4.30479e-08 -1.8872e-08 3.85713e-08)
(4.57754e-08 -2.08783e-08 4.02249e-08)
(2.38085e-08 -8.83481e-09 -1.34705e-08)
(7.77985e-08 -2.92121e-08 -4.10331e-08)
(-2.99641e-09 6.37672e-10 -1.89999e-09)
(-3.85316e-09 8.57019e-10 -1.10386e-09)
(-1.31629e-09 4.2988e-10 -6.19213e-10)
(-3.10591e-09 3.71966e-10 -2.06279e-09)
(-1.33713e-09 4.01697e-10 -5.40213e-10)
(-4.99948e-10 4.69311e-10 -8.69226e-10)
(-5.5863e-10 3.37427e-10 -1.24917e-09)
(-5.74563e-10 4.99202e-10 -1.27042e-09)
(-7.49013e-10 4.00017e-10 -3.09345e-09)
(-7.64265e-10 2.15609e-10 -2.48558e-09)
(-7.92075e-10 3.46265e-10 -2.73186e-09)
(9.22956e-08 -3.71295e-08 4.32362e-08)
(9.41533e-08 -4.00069e-08 4.61794e-08)
(1.05187e-07 -4.38579e-08 4.53493e-08)
(9.60386e-08 -3.98294e-08 4.32866e-08)
(9.91233e-08 -3.99254e-08 4.26902e-08)
(8.93225e-08 -3.68268e-08 4.38632e-08)
(9.82117e-08 -4.0656e-08 4.58223e-08)
(5.98991e-08 -2.44294e-08 4.11207e-08)
(6.13283e-08 -2.62064e-08 4.40573e-08)
(5.31106e-08 -2.21764e-08 4.08166e-08)
(5.73809e-08 -2.44452e-08 4.2569e-08)
(5.41568e-08 -2.24061e-08 4.00628e-08)
(5.86019e-08 -2.44126e-08 4.18624e-08)
(6.34101e-08 -2.65017e-08 4.35378e-08)
(7.44964e-10 3.89582e-11 2.97902e-09)
(7.01841e-10 2.55954e-11 2.52162e-09)
(7.53914e-10 3.10469e-11 3.00469e-09)
(1.01266e-07 -5.20646e-08 -2.69024e-08)
(8.73618e-08 -4.64123e-08 -2.97483e-08)
(1.21032e-07 -6.75315e-08 -2.45992e-08)
(1.03533e-07 -6.12306e-08 -2.59058e-08)
(1.36833e-07 -6.13965e-08 -1.31191e-08)
(1.33622e-07 -6.52361e-08 -1.91086e-08)
(1.36108e-07 -6.57021e-08 -1.72056e-08)
(1.20149e-07 -5.57659e-08 -2.05537e-08)
(1.26486e-07 -5.85258e-08 -1.7378e-08)
(1.44321e-07 -6.85409e-08 -1.48247e-08)
(1.30226e-07 -5.87806e-08 -1.55501e-08)
(1.54296e-07 -6.18946e-08 1.41537e-08)
(1.55259e-07 -6.7e-08 1.3064e-08)
(1.62991e-07 -6.62394e-08 1.96451e-08)
(1.46688e-07 -5.79421e-08 1.79715e-08)
(1.63434e-07 -6.91782e-08 1.43946e-08)
(1.47828e-07 -6.03105e-08 1.2487e-08)
(1.52544e-07 -6.01698e-08 1.88391e-08)
(1.35907e-07 -7.13913e-08 -2.05314e-08)
(1.46785e-07 -7.5356e-08 -1.55286e-08)
(1.66308e-07 -7.23981e-08 2.00745e-08)
(1.66965e-07 -7.56469e-08 1.41869e-08)
(1.13135e-07 -5.57175e-08 -2.34002e-08)
(1.2247e-07 -5.86723e-08 -1.8184e-08)
(1.39006e-07 -5.95382e-08 1.7168e-08)
(1.40028e-07 -6.09999e-08 1.12899e-08)