0.001 0.000290929 1.78753e-05 -1.65106e-05 0.000291945
0.002 -1.88255e-05 2.88517e-05 -1.57797e-06 3.44864e-05
0.003 -0.000278437 4.1118e-05 8.22935e-06 0.000281577
0.004 3.41088e-05 5.32384e-05 -1.14302e-06 6.3238e-05
0.005 0.000268631 6.00281e-05 -8.40919e-06 0.000275384
0.006 -4.66897e-05 6.57855e-05 1.43712e-06 8.06829e-05
0.007 -0.000257344 6.75549e-05 8.02307e-06 0.000266184
0.008 5.90319e-05 6.06823e-05 -1.85847e-06 8.46792e-05
0.009 0.000246046 5.55822e-05 -7.69389e-06 0.000252364
0.01 -7.03066e-05 5.20318e-05 2.1954e-06 8.74937e-05
0.011 -0.000234162 3.69286e-05 7.30174e-06 0.000237168
0.012 8.0687e-05 1.75764e-05 -2.53445e-06 8.2618e-05
0.013 0.000222389 7.22438e-06 -6.93549e-06 0.000222614
0.014 -8.98177e-05 -3.67919e-06 2.81453e-06 8.99371e-05
0.015 -0.000210184 -2.24354e-05 6.55891e-06 0.00021148
0.016 9.82117e-05 -3.90183e-05 -3.05991e-06 0.000105723
0.017 0.000198459 -4.77606e-05 -6.17608e-06 0.000204219
0.018 -0.000105085 -5.38757e-05 3.29272e-06 0.000118137
0.019 -0.000186348 -6.02258e-05 5.82672e-06 0.000195925
0.02 0.000112119 -6.64192e-05 -3.48419e-06 0.000130362
0.021 0.000175362 -6.64094e-05 -5.45724e-06 0.000187595
0.022 -0.000117427 -5.71398e-05 3.68316e-06 0.000130643
0.023 -0.000163196 -4.96958e-05 5.10751e-06 0.000170671
0.024 0.000123114 -4.62592e-05 -3.84027e-06 0.000131574
0.025 0.000152209 -3.46203e-05 -4.74421e-06 0.000156168
0.026 -0.000126689 -1.58272e-05 3.96781e-06 0.000127735
0.027 -0.000140271 -3.09637e-06 4.37861e-06 0.000140373
0.028 0.000130464 5.71361e-06 -4.07955e-06 0.000130653
0.029 0.000129088 1.95471e-05 -4.03053e-06 0.000130622
0.03 -0.000132609 3.4766e-05 4.13444e-06 0.000137153
0.031 -0.000117132 4.4828e-05 3.64326e-06 0.00012547
0.032 0.000135242 5.00868e-05 -4.23095e-06 0.000144281
0.033 0.000106691 5.34926e-05 -3.33926e-06 0.000119397
0.034 -0.000136412 5.74079e-05 4.24432e-06 0.00014806
0.035 -9.57409e-05 5.86736e-05 2.97881e-06 0.000112329
0.036 0.00013765 5.1489e-05 -4.30724e-06 0.000147028
0.037 8.56267e-05 4.2088e-05 -2.68567e-06 9.54492e-05
0.038 -0.000137713 3.57033e-05 4.29405e-06 0.000142331
0.039 -7.5357e-05 2.56313e-05 2.35098e-06 7.96315e-05
0.04 0.000137606 9.87649e-06 -4.29939e-06 0.000138027
0.041 6.57132e-05 -3.63561e-06 -2.05078e-06 6.58457e-05
0.042 -0.000136418 -1.45722e-05 4.26363e-06 0.000137261
0.043 -5.5572e-05 -2.68989e-05 1.73941e-06 6.17642e-05
0.044 0.000135323 -3.83422e-05 -4.21448e-06 0.000140713
0.045 4.6926e-05 -4.7033e-05 -1.45066e-06 6.64549e-05
0.046 -0.000132866 -5.34759e-05 4.15735e-06 0.000143284
0.047 -3.80192e-05 -5.62699e-05 1.19793e-06 6.79205e-05
0.048 0.000131255 -5.61482e-05 -4.08137e-06 0.000142819
0.049 3.08478e-05 -5.46038e-05 -9.50801e-07 6.27222e-05
0.05 -0.000128219 -4.93308e-05 4.01086e-06 0.00013744
0.051 -2.25691e-05 -4.0734e-05 7.1639e-07 4.6574e-05
0.052 0.00012587 -3.10655e-05 -3.92002e-06 0.000129706
0.053 1.54795e-05 -1.95871e-05 -4.78829e-07 2.497e-05
0.054 -0.000122067 -6.83318e-06 3.81287e-06 0.000122317
0.055 -7.67357e-06 4.52819e-06 2.38819e-07 8.9132e-06
0.056 0.000118992 1.62224e-05 -3.71847e-06 0.00012015
0.057 1.14905e-06 2.89785e-05 -3.81441e-08 2.90013e-05
0.058 -0.000114692 3.75635e-05 3.57377e-06 0.00012074
0.059 5.37891e-06 4.23274e-05 -1.80374e-07 4.26682e-05
0.06 0.000110996 4.75791e-05 -3.47345e-06 0.000120814
0.061 -1.05416e-05 5.12788e-05 3.21769e-07 5.23521e-05
0.062 -0.000106437 4.91062e-05 3.31048e-06 0.000117266
0.063 1.61282e-05 4.38262e-05 -5.14218e-07 4.67025e-05
0.064 0.000102364 3.84358e-05 -3.20135e-06 0.000109389
0.065 -2.06893e-05 3.16988e-05 6.40887e-07 3.78586e-05
0.066 -9.75717e-05 2.18186e-05 3.04214e-06 0.000100028
0.067 2.57475e-05 8.98235e-06 -8.049e-07 2.72812e-05
0.068 9.33268e-05 -3.13483e-06 -2.91221e-06 9.34249e-05
0.069 -2.97236e-05 -1.22729e-05 9.33033e-07 3.21712e-05
0.07 -8.81992e-05 -2.19999e-05 2.7615e-06 9.09435e-05
0.071 3.40486e-05 -3.4082e-05 -1.05632e-06 4.81873e-05
0.072 8.39378e-05 -4.23783e-05 -2.61061e-06 9.40653e-05
0.073 -3.68505e-05 -4.51491e-05 1.1646e-06 5.82903e-05
0.074 -7.87698e-05 -4.74234e-05 2.46997e-06 9.19769e-05
0.075 4.05044e-05 -5.00236e-05 -1.2546e-06 6.43781e-05
0.076 7.45647e-05 -4.84298e-05 -2.3158e-06 8.89421e-05
0.077 -4.26148e-05 -4.19018e-05 1.34144e-06 5.97795e-05
0.078 -6.93217e-05 -3.39742e-05 2.17164e-06 7.723e-05
0.079 4.553e-05 -2.64701e-05 -1.41377e-06 5.26844e-05
0.08 6.52293e-05 -1.78388e-05 -2.03092e-06 6.76551e-05
0.081 -4.69601e-05 -6.0937e-06 1.46673e-06 4.73765e-05
0.082 -6.0017e-05 6.30743e-06 1.87389e-06 6.03766e-05
0.083 4.91546e-05 1.5705e-05 -1.53568e-06 5.16254e-05
0.084 5.58873e-05 2.33662e-05 -1.74943e-06 6.06006e-05
0.085 -4.99585e-05 3.21438e-05 1.55267e-06 5.94263e-05
0.086 -5.08278e-05 3.95115e-05 1.57931e-06 6.43981e-05
0.087 5.15762e-05 4.25698e-05 -1.61855e-06 6.68948e-05
0.088 4.67807e-05 4.29804e-05 -1.46764e-06 6.35445e-05
0.089 -5.20673e-05 4.26276e-05 1.6179e-06 6.73108e-05
0.09 -4.1947e-05 4.0048e-05 1.30032e-06 5.80093e-05
0.091 5.32492e-05 3.4727e-05 -1.66799e-06 6.35942e-05
0.092 3.82944e-05 2.72694e-05 -1.19778e-06 4.70267e-05
0.093 -5.29074e-05 1.81658e-05 1.64759e-06 5.59635e-05
0.094 -3.36734e-05 8.92237e-06 1.0486e-06 3.48512e-05
0.095 5.34316e-05 -4.23133e-07 -1.66374e-06 5.34592e-05
0.096 3.03986e-05 -1.06919e-05 -9.44386e-07 3.2238e-05
0.097 -5.258e-05 -2.07173e-05 1.64538e-06 5.65382e-05
0.098 -2.5913e-05 -2.8819e-05 8.15277e-07 3.87645e-05
0.099 5.27856e-05 -3.50769e-05 -1.63761e-06 6.33987e-05
0.1 2.29361e-05 -3.9809e-05 -7.04237e-07 4.59491e-05
0.101 -5.16215e-05 -4.28777e-05 1.6229e-06 6.71261e-05
0.102 -1.89396e-05 -4.41918e-05 6.00427e-07 4.80831e-05
0.103 5.13921e-05 -4.2243e-05 -1.59537e-06 6.65444e-05
0.104 1.61245e-05 -3.70259e-05 -4.90521e-07 4.03876e-05
0.105 -5.00452e-05 -3.15512e-05 1.57199e-06 5.91817e-05
0.106 -1.24242e-05 -2.576e-05 3.91245e-07 2.86024e-05
0.107 4.95122e-05 -1.668e-05 -1.54181e-06 5.22691e-05
0.108 -0.000697994 0.000410979 0.00013296 0.000820839
