/*--------------------------------*- C++ -*----------------------------------*\
| =========                 |                                                 |
| \\      /  F ield         | OpenFOAM: The Open Source CFD Toolbox           |
|  \\    /   O peration     | Version:  2012                                  |
|   \\  /    A nd           | Website:  www.openfoam.com                      |
|    \\/     M anipulation  |                                                 |
\*---------------------------------------------------------------------------*/
FoamFile
{
    version     2.0;
    format      ascii;
    class       volVectorField;
    location    "0.106/solid";
    object      D;
}
// * * * * * * * * * * * * * * * * * * * * * * * * * * * * * * * * * * * * * //

dimensions      [0 1 0 0 0 0 0];


internalField   nonuniform List<vector> 
3124
(
(2.84195e-11 4.81227e-11 3.57849e-11)
(-4.67108e-13 -3.93282e-13 -2.05683e-12)
(2.85032e-12 -9.48648e-14 1.92656e-11)
(7.96915e-11 2.21981e-10 1.26778e-12)
(7.9074e-13 1.42576e-12 3.43477e-11)
(-3.35677e-13 -3.75736e-13 -2.92138e-12)
(3.95397e-12 -1.12829e-13 1.94746e-11)
(8.50524e-11 2.24567e-10 2.79328e-12)
(5.11801e-13 8.46442e-13 3.53729e-11)
(-3.37376e-15 8.07331e-12 1.71526e-11)
(1.5576e-11 3.32749e-11 4.24308e-11)
(1.20572e-10 2.07006e-10 3.66151e-11)
(-8.32086e-13 -1.10495e-11 2.90703e-11)
(2.37472e-13 -3.03579e-13 1.48959e-11)
(-4.79585e-12 6.7427e-12 1.45969e-11)
(4.10605e-12 -7.02731e-12 2.76312e-11)
(3.77495e-12 1.70587e-11 4.09543e-11)
(3.41631e-12 -7.29156e-12 2.18268e-11)
(8.76421e-12 -4.99905e-12 2.26844e-11)
(1.13036e-10 2.15783e-10 2.46453e-11)
(-1.96144e-12 -4.73757e-13 2.89786e-11)
(-2.09158e-12 -4.04913e-13 2.89002e-11)
(1.98966e-13 -2.88012e-13 1.48381e-11)
(4.8684e-10 4.51463e-10 2.89237e-11)
(3.58808e-11 3.72215e-11 3.1371e-11)
(3.19088e-11 5.58006e-11 3.25404e-11)
(8.50729e-11 1.32768e-10 8.68397e-11)
(2.56837e-10 5.23348e-10 1.75849e-10)
(2.40013e-11 2.74033e-11 2.50037e-11)
(1.26416e-10 1.16325e-10 7.31396e-11)
(8.85379e-13 -9.704e-13 5.15387e-12)
(1.19135e-12 -1.69814e-12 1.82456e-11)
(1.29183e-12 -5.62644e-13 6.10074e-12)
(3.74769e-10 3.85442e-10 8.66659e-12)
(6.47576e-11 1.48409e-10 2.59353e-12)
(2.52192e-10 8.79022e-10 4.92521e-12)
(7.54153e-11 2.21014e-10 9.37521e-13)
(3.99807e-10 3.92963e-10 1.51072e-11)
(2.35963e-10 8.76087e-10 5.02946e-12)
(6.03212e-11 1.47457e-10 1.35438e-12)
(3.34787e-11 5.92835e-11 3.15813e-11)
(5.8189e-12 -1.06235e-11 3.8116e-11)
(-3.24524e-12 1.21305e-12 -8.3654e-12)
(-7.90915e-12 9.41798e-12 1.19707e-12)
(-1.27153e-11 1.28172e-11 -4.21101e-13)
(7.80228e-12 2.04408e-13 2.31517e-11)
(1.46878e-12 -1.40998e-12 6.43038e-12)
(5.93114e-12 -3.64375e-13 1.61095e-11)
(4.31827e-10 3.97644e-10 2.69896e-11)
(9.24654e-11 2.25677e-10 8.25626e-12)
(6.79067e-11 1.49453e-10 4.02638e-12)
(2.60179e-10 8.89017e-10 6.93124e-12)
(4.01357e-10 3.92462e-10 1.59734e-11)
(2.8968e-10 9.03514e-10 2.2724e-11)
(7.40757e-11 1.50392e-10 6.14256e-12)
(-1.55932e-13 -2.5493e-12 3.53898e-11)
(-2.37318e-12 -3.29839e-13 2.80373e-11)
(-8.07177e-15 -2.13076e-13 1.42564e-11)
(-6.91776e-13 -6.97592e-14 -2.55597e-13)
(4.025e-12 8.09107e-12 8.01038e-12)
(-3.78428e-12 1.08623e-11 6.11578e-11)
(3.15658e-11 2.83716e-11 3.14439e-11)
(6.50384e-11 3.77276e-11 2.50869e-11)
(1.78012e-11 3.9649e-11 4.13685e-11)
(6.40382e-12 -6.77519e-12 5.2278e-11)
(2.89814e-10 7.42825e-10 4.26875e-13)
(3.30318e-11 3.9038e-11 3.32059e-11)
(4.95562e-10 4.4764e-10 2.56864e-11)
(1.20839e-10 1.84146e-10 6.40647e-11)
(3.24077e-10 8.22754e-10 4.79386e-11)
(1.12356e-10 1.49877e-10 2.15649e-11)
(2.91024e-10 6.87366e-10 1.00971e-10)
(4.89048e-10 4.14931e-10 3.19868e-11)
(1.17816e-10 1.44251e-10 4.55991e-11)
(3.54233e-10 1.05126e-09 2.82522e-11)
(3.0301e-10 8.6196e-10 6.59609e-11)
(-5.43777e-12 2.15151e-12 6.32488e-11)
(-2.6755e-12 -1.16445e-11 4.87148e-11)
(3.72897e-11 3.53446e-11 5.01815e-11)
(5.85143e-11 4.00371e-11 8.25334e-12)
(5.99599e-11 4.31698e-11 1.70911e-11)
(-4.63513e-13 -7.57413e-13 2.84832e-12)
(-3.36809e-13 -3.36132e-13 3.49733e-12)
(1.43718e-12 -1.86024e-12 1.74607e-11)
(-2.55759e-13 -1.87292e-13 4.71943e-13)
(6.82106e-13 -8.72583e-13 3.86201e-12)
(-1.47001e-12 -1.89301e-13 -5.06277e-13)
(-7.99553e-13 -5.02455e-13 2.06902e-12)
(3.73959e-11 4.06247e-11 2.77789e-12)
(3.38791e-11 4.06332e-11 9.25832e-13)
(2.86218e-10 1.13149e-09 8.21503e-12)
(2.69972e-10 1.13381e-09 6.44018e-12)
(3.72182e-10 3.85223e-10 7.94916e-12)
(7.2e-11 2.20871e-10 -3.37607e-14)
(2.32029e-10 8.78273e-10 2.01275e-12)
(5.59934e-11 1.46758e-10 5.10948e-13)
(2.65993e-10 1.13845e-09 3.88446e-12)
(3.30625e-11 4.06467e-11 1.27627e-12)
(3.52082e-11 4.1784e-11 4.17165e-11)
(1.8818e-11 1.77557e-12 3.46273e-11)
(-6.78445e-12 2.13618e-12 -3.69551e-12)
(-1.32474e-11 9.99943e-12 5.1545e-11)
(-1.74088e-11 1.26921e-11 1.00781e-11)
(-4.24187e-12 7.33115e-12 -2.94556e-12)
(-1.04409e-11 1.51525e-11 6.8245e-12)
(-1.13571e-11 2.29385e-12 5.4293e-11)
(3.14743e-11 1.11207e-11 2.94119e-12)
(-1.32433e-11 1.24059e-11 1.62447e-11)
(-4.1812e-12 -3.07023e-12 2.83519e-11)
(-2.52352e-13 -4.33981e-12 3.66034e-11)
(5.23331e-12 4.81473e-12 1.86028e-11)
(7.39755e-14 -1.15385e-12 3.99692e-12)
(3.50861e-12 2.64487e-13 1.18574e-11)
(-4.0517e-12 -8.13539e-12 3.15323e-11)
(2.7372e-12 4.26063e-12 1.17405e-11)
(4.18895e-11 2.3878e-12 5.52279e-13)
(4.39723e-10 3.99415e-10 2.83968e-11)
(1.02354e-10 2.22173e-10 1.60809e-11)
(3.21222e-10 8.32251e-10 4.17347e-11)
(1.02469e-10 1.5127e-10 1.47709e-11)
(4.89711e-10 4.15985e-10 3.18302e-11)
(2.98894e-10 8.89006e-10 3.15537e-11)
(8.76598e-11 1.5138e-10 9.51467e-12)
(3.84972e-11 4.03887e-11 2.75223e-12)
(4.45049e-11 3.98995e-11 4.37734e-12)
(2.95177e-10 1.14849e-09 8.34699e-12)
(3.2838e-10 1.18107e-09 2.23902e-11)
(3.53832e-10 1.05762e-09 2.94333e-11)
(3.3685e-10 1.15523e-09 2.94431e-11)
(5.71314e-11 4.04931e-11 7.69863e-12)
(4.70857e-11 3.99293e-11 4.36861e-12)
(-6.78818e-13 -2.73944e-12 3.19527e-11)
(-2.32611e-12 -3.48477e-13 2.82557e-11)
(-1.4441e-14 -2.02405e-13 1.43143e-11)
(-3.84843e-13 -1.47776e-13 2.80284e-13)
(-6.46143e-13 -6.96597e-14 -1.68632e-13)
(-1.82296e-12 -4.53132e-14 -1.25937e-12)
(-1.58788e-12 -1.27994e-13 -7.44371e-13)
(-1.77562e-12 -6.80328e-14 -1.16185e-12)
(2.51307e-10 9.48403e-10 8.62259e-13)
(-7.91981e-12 -3.77441e-12 -4.71549e-12)
(-1.80992e-12 -2.55548e-12 -1.60129e-13)
(-9.53372e-13 -5.39745e-14 1.42694e-11)
(1.62262e-12 -1.78006e-13 1.96018e-11)
(-1.05754e-12 -1.89616e-13 1.5013e-11)
(2.39433e-12 1.5804e-12 3.41382e-11)
(-1.36012e-11 1.22599e-11 -5.44071e-11)
(-5.05541e-14 -2.74862e-13 -1.57812e-12)
(-2.09941e-12 -2.62967e-12 -6.20095e-13)
(-2.39366e-13 2.32609e-12 -5.61918e-12)
(6.63915e-12 -2.15617e-13 2.069e-11)
(-1.04257e-12 -3.21372e-13 1.40861e-11)
(-1.17553e-12 -7.24399e-13 1.52011e-11)
(1.12516e-12 2.77092e-13 3.65545e-11)
(5.58477e-11 8.54974e-12 1.19118e-10)
(4.70675e-12 8.29135e-12 1.41525e-11)
(-2.44179e-13 1.72706e-11 3.78514e-11)
(-1.36585e-13 -5.20739e-12 4.75717e-11)
(-1.74704e-13 2.37403e-12 1.65691e-10)
(1.19272e-11 1.83365e-11 3.26627e-11)
(4.08318e-12 -2.36612e-12 3.76022e-11)
(-2.04141e-13 1.14955e-10 2.43408e-10)
(2.70133e-11 3.80005e-11 5.2219e-11)
(4.38045e-11 -2.25994e-11 1.77692e-10)
(1.76745e-11 1.69647e-11 5.02367e-11)
(-1.64251e-11 2.71773e-10 1.23429e-10)
(4.35537e-11 5.99512e-11 1.38875e-10)
(3.49026e-11 3.52329e-11 5.46988e-11)
(9.82654e-12 8.58893e-12 2.25973e-10)
(1.14436e-11 1.44149e-12 8.116e-11)
(-5.52624e-12 -1.28174e-11 4.24227e-11)
(-4.61513e-12 -1.33569e-11 3.44538e-11)
(6.05643e-12 4.28376e-12 1.57998e-10)
(5.27184e-12 4.58876e-12 1.07239e-10)
(-5.98514e-12 -1.35248e-11 5.14309e-11)
(5.48784e-13 -7.77354e-13 1.52294e-11)
(-2.88326e-12 -2.22619e-13 1.03084e-11)
(-2.75785e-12 -6.08294e-13 1.06282e-11)
(8.98064e-13 3.66528e-11 4.93923e-11)
(-1.23512e-11 -2.48411e-11 1.73843e-10)
(8.20683e-11 2.75523e-10 9.76534e-11)
(-1.01308e-11 5.22241e-12 7.08366e-11)
(-7.37665e-12 5.04888e-12 9.10212e-12)
(-1.08492e-11 1.44227e-11 3.1526e-11)
(-1.10076e-12 -4.68877e-12 4.34367e-11)
(-1.36786e-12 2.76938e-12 1.4707e-10)
(-1.58831e-11 1.16504e-11 2.04409e-11)
(-2.939e-12 -1.47668e-12 1.80464e-11)
(1.40252e-11 1.22804e-11 1.31776e-10)
(1.52802e-11 2.47378e-12 8.16035e-11)
(-2.26789e-12 -8.93334e-12 3.70079e-11)
(7.87887e-12 -2.37392e-12 2.80132e-11)
(6.29405e-12 4.92354e-12 1.44121e-10)
(3.62374e-11 1.2397e-11 8.96675e-11)
(-3.96332e-13 -3.19969e-12 3.44033e-11)
(3.91574e-12 1.37925e-12 5.7383e-11)
(1.33096e-11 7.59037e-13 7.47584e-11)
(-1.82665e-12 -8.99774e-12 2.42315e-11)
(6.90887e-12 -6.2348e-12 1.73948e-11)
(4.08359e-12 4.60097e-12 9.49457e-11)
(1.93332e-11 -1.52702e-12 6.21971e-11)
(2.82498e-13 -5.38371e-12 1.83513e-11)
(6.24151e-11 7.99994e-12 6.36364e-11)
(1.82891e-11 1.43394e-12 7.60384e-11)
(1.44659e-11 -1.72443e-12 2.46307e-11)
(1.24293e-11 -5.05352e-12 1.91684e-11)
(4.34685e-11 1.03591e-11 9.10379e-11)
(2.65427e-11 -6.59418e-13 5.85839e-11)
(2.02839e-11 -2.70878e-12 2.08869e-11)
(-1.75384e-12 -8.41584e-13 2.90564e-11)
(-2.17192e-12 -3.84057e-13 2.87235e-11)
(9.10033e-14 -2.24814e-13 1.46355e-11)
(-2.89593e-12 -1.97205e-13 1.02638e-11)
(-2.94986e-12 -1.51083e-13 1.00459e-11)
(1.62806e-10 2.2449e-10 1.31984e-10)
(3.53186e-10 5.00912e-10 8.76086e-11)
(3.45215e-10 3.34643e-10 -1.56134e-11)
(3.15727e-10 3.28696e-10 7.55936e-11)
(2.20286e-10 2.1375e-10 1.1247e-10)
(2.64721e-10 3.60302e-10 1.19826e-10)
(2.62059e-10 3.72761e-10 8.86943e-11)
(7.31616e-11 1.19508e-10 1.07117e-10)
(5.92715e-11 5.85789e-11 8.06181e-11)
(2.12937e-11 2.67297e-11 2.5976e-11)
(2.59971e-11 3.8453e-11 2.70267e-11)
(7.46764e-11 9.00424e-11 7.8485e-11)
(9.70423e-11 1.41505e-10 8.16928e-11)
(1.95998e-11 3.29376e-11 3.12565e-11)
(-6.68993e-12 -5.59587e-12 -6.61425e-12)
(-3.44123e-12 -2.23206e-13 1.24641e-11)
(5.22168e-13 3.20907e-14 4.34641e-12)
(-4.14049e-12 -1.89301e-13 1.26187e-11)
(1.38443e-12 -4.62043e-13 1.95821e-11)
(-1.52032e-12 -1.28766e-12 1.35598e-11)
(-1.10759e-12 -4.31242e-13 1.49175e-11)
(3.71565e-13 1.02367e-13 4.40194e-12)
(-4.04566e-12 -1.18988e-12 1.12621e-11)
(-3.96051e-12 -3.47684e-13 1.24705e-11)
(1.82668e-10 4.34889e-10 4.06809e-12)
(3.86946e-10 3.89913e-10 1.14624e-11)
(2.71185e-10 5.788e-10 6.43675e-12)
(2.17524e-10 3.02638e-10 4.01202e-12)
(2.23866e-10 3.04326e-10 5.55733e-12)
(2.77861e-10 5.78604e-10 7.21042e-12)
(1.7708e-10 4.34704e-10 3.2548e-12)
(1.87353e-10 4.3548e-10 5.52922e-12)
(3.8989e-10 3.90197e-10 1.21062e-11)
(2.33324e-10 3.06793e-10 9.53576e-12)
(2.8987e-10 5.82786e-10 9.66345e-12)
(1.91961e-10 4.38183e-10 6.83816e-12)
(2.28948e-10 3.05472e-10 6.89863e-12)
(2.84296e-10 5.793e-10 9.37239e-12)
(3.47565e-12 4.25091e-12 3.33184e-11)
(-1.13312e-11 9.35102e-12 -5.2448e-11)
(-5.96138e-14 -3.50157e-14 -9.06025e-12)
(-9.52861e-12 5.1777e-12 -9.24233e-12)
(-2.58134e-12 3.93511e-12 -3.63685e-11)
(-1.0818e-11 9.55583e-12 -3.15661e-11)
(-4.58157e-12 2.47841e-12 -1.34327e-11)
(4.05593e-12 5.48117e-12 -4.23198e-11)
(-7.20445e-12 1.43207e-11 -4.6574e-11)
(8.55048e-13 2.85161e-11 -2.04576e-11)
(-6.76911e-12 1.41048e-11 -4.78662e-12)
(-3.28806e-12 2.37635e-11 -1.20181e-11)
(-1.6826e-12 3.5841e-12 -5.03641e-12)
(-9.68806e-12 1.2446e-11 -4.6e-11)
(-1.63327e-11 2.24961e-11 -1.16034e-11)
(-1.13643e-11 9.52019e-12 -5.28227e-12)
(-6.14507e-12 1.14784e-11 -5.3638e-12)
(-1.12633e-11 1.08086e-11 -2.06943e-11)
(-3.8365e-12 2.17754e-11 -1.91415e-11)
(-7.15671e-12 8.92832e-12 -9.05851e-12)
(7.02294e-12 -8.22634e-14 2.12316e-11)
(-6.4051e-13 9.7566e-13 1.76876e-11)
(-1.12361e-12 -5.08911e-13 1.57693e-11)
(-2.94252e-12 -3.36671e-13 1.24332e-11)
(5.50339e-12 -1.34728e-12 1.33169e-11)
(-2.64898e-12 -5.57597e-13 1.28723e-11)
(-1.04809e-12 -3.14209e-14 1.53036e-11)
(5.91619e-12 -9.93958e-13 1.34087e-11)
(-2.72802e-12 -4.71873e-13 1.31592e-11)
(2.06443e-10 4.5006e-10 1.31019e-11)
(4.1175e-10 3.91924e-10 2.17158e-11)
(3.19504e-10 6.05202e-10 2.01994e-11)
(2.55488e-10 3.09997e-10 1.55492e-11)
(2.17492e-10 4.50907e-10 1.56059e-11)
(2.43945e-10 3.076e-10 1.45757e-11)
(3.07562e-10 6.03858e-10 1.70787e-11)
(2.00211e-10 4.46815e-10 1.07381e-11)
(4.09217e-10 3.92356e-10 2.01666e-11)
(2.35979e-10 3.07095e-10 1.14134e-11)
(2.94756e-10 5.89334e-10 1.18018e-11)
(1.95643e-10 4.41695e-10 8.74999e-12)
(2.3888e-10 3.07432e-10 1.38125e-11)
(2.99953e-10 5.97271e-10 1.31307e-11)
(4.77757e-13 -8.92572e-13 3.72323e-11)
(-2.39354e-12 -2.85538e-13 2.78253e-11)
(-5.21486e-14 -1.5374e-13 1.40993e-11)
(-2.97801e-12 -1.33112e-13 9.76502e-12)
(-5.82546e-12 -1.1857e-13 7.43406e-12)
(3.74876e-10 2.79355e-10 4.24557e-11)
(1.90574e-10 1.37383e-10 1.06305e-10)
(-5.90117e-12 -7.04831e-12 1.03976e-10)
(4.53315e-12 7.12942e-12 9.19328e-12)
(4.93188e-12 1.41079e-11 2.59591e-11)
(2.57453e-11 2.62518e-11 2.31197e-11)
(-2.48621e-11 4.47626e-11 1.43482e-10)
(8.24981e-12 1.33332e-11 2.4214e-11)
(1.69541e-11 -1.65966e-12 1.06705e-11)
(5.15307e-11 1.75119e-11 1.66259e-10)
(-1.93076e-12 1.56664e-11 5.21549e-11)
(5.41648e-12 9.256e-12 2.33208e-10)
(1.30057e-11 1.65656e-11 6.38063e-11)
(2.87759e-11 2.02815e-11 2.67503e-10)
(1.61527e-12 5.83307e-12 1.85644e-10)
(1.58125e-11 2.08334e-11 5.02256e-11)
(2.0998e-11 3.53911e-11 1.58092e-10)
(9.26291e-11 7.69877e-11 5.15933e-11)
(1.72232e-11 1.80134e-11 2.64185e-11)
(3.11475e-11 2.7755e-11 5.22168e-11)
(1.00256e-10 8.25941e-11 9.5555e-11)
(4.26126e-11 2.63668e-11 2.51525e-10)
(2.48729e-11 2.34627e-11 3.62463e-11)
(2.81813e-10 1.93883e-10 6.8877e-12)
(3.14819e-11 4.43895e-11 3.63976e-11)
(3.11034e-11 1.48426e-10 8.07298e-11)
(4.39453e-10 6.4757e-10 2.96164e-11)
(2.10869e-10 3.39414e-10 1.00702e-10)
(1.09096e-10 1.23224e-10 1.85005e-10)
(2.49738e-11 1.34353e-11 3.46612e-11)
(3.59562e-11 7.07554e-11 2.37873e-10)
(1.54423e-11 3.78933e-11 3.02893e-11)
(1.25783e-10 1.86592e-10 1.06e-10)
(4.72871e-11 -1.45861e-10 1.92115e-10)
(3.499e-11 4.50626e-11 3.51425e-11)
(1.86057e-11 8.05836e-11 2.62005e-10)
(9.75935e-12 1.62569e-12 5.39044e-11)
(9.64114e-12 2.52246e-11 1.72888e-10)
(1.18081e-11 1.31846e-11 6.82242e-11)
(2.67347e-11 4.50822e-11 2.83299e-10)
(1.55367e-11 2.6902e-11 1.57289e-10)
(1.8803e-11 2.63414e-11 6.54124e-11)
(3.86951e-10 6.73247e-10 4.41332e-11)
(1.62495e-10 2.28128e-10 1.00137e-10)
(2.00591e-10 3.40962e-10 1.20343e-10)
(5.84124e-11 1.17513e-10 2.0714e-10)
(9.97207e-11 1.04039e-10 2.98653e-11)
(2.2813e-11 3.39746e-11 2.64839e-11)
(2.81091e-11 3.89918e-11 5.68228e-11)
(9.7741e-11 1.08052e-10 1.25682e-10)
(3.66166e-11 4.9383e-11 2.71495e-10)
(3.01448e-11 4.89287e-11 4.62338e-11)
(2.84529e-10 4.22726e-10 5.53241e-11)
(3.78978e-10 5.53741e-10 5.19634e-11)
(4.89519e-10 4.23705e-10 3.29635e-11)
(3.34067e-10 3.30117e-10 4.9692e-11)
(2.8475e-10 3.96746e-10 7.58527e-11)
(3.82372e-10 5.75213e-10 4.03382e-11)
(3.30581e-10 3.29117e-10 3.70591e-11)
(2.82059e-10 4.3009e-10 4.44958e-11)
(4.92199e-10 4.22567e-10 3.20654e-11)
(3.7999e-10 5.83233e-10 3.32861e-11)
(3.19312e-10 3.21753e-10 3.09682e-11)
(3.81912e-10 5.80988e-10 3.49707e-11)
(3.2431e-10 3.23629e-10 3.36435e-11)
(2.76309e-10 4.35098e-10 3.72071e-11)
(4.52547e-10 6.80652e-10 1.61632e-11)
(4.74817e-10 7.13158e-10 2.35081e-11)
(3.4764e-10 1.03002e-09 3.35111e-11)
(4.32459e-10 8.12982e-10 2.84966e-11)
(4.2849e-10 8.00258e-10 2.87108e-11)
(3.97416e-10 7.15391e-10 3.68964e-11)
(3.36715e-10 9.81229e-10 3.62815e-11)
(4.25306e-10 7.89275e-10 2.91129e-11)
(4.81664e-10 7.18629e-10 2.75127e-11)
(4.77904e-10 7.16904e-10 2.38172e-11)
(1.34611e-11 1.11358e-11 2.54838e-10)
(-6.99705e-12 -7.45447e-12 5.63032e-11)
(5.43133e-12 9.61919e-12 2.35583e-10)
(5.70683e-12 7.27046e-12 6.94871e-11)
(2.57387e-11 1.9786e-11 2.76052e-10)
(5.29331e-12 5.16425e-12 1.84831e-10)
(-1.7591e-12 -3.8254e-12 6.54804e-11)
(1.28356e-11 1.28652e-11 2.453e-10)
(-4.30755e-12 -1.34054e-11 4.11766e-11)
(7.55493e-12 2.13678e-11 1.58272e-10)
(3.61328e-12 4.95389e-13 6.673e-11)
(2.2743e-11 3.50887e-11 2.8156e-10)
(4.66119e-12 8.46268e-12 1.2247e-10)
(-2.15941e-12 -9.23697e-12 6.02125e-11)
(1.77059e-11 1.58193e-11 2.68764e-10)
(9.12549e-11 8.59158e-11 1.37686e-10)
(2.25393e-11 1.97721e-11 6.64453e-11)
(1.93295e-11 2.2175e-11 6.69143e-11)
(3.49372e-11 2.70524e-11 2.71166e-10)
(3.31586e-11 4.02242e-11 2.76606e-10)
(8.28409e-12 6.09072e-12 6.99882e-11)
(3.64161e-10 2.58779e-10 3.66711e-11)
(3.5959e-10 2.4946e-10 3.10893e-11)
(2.45692e-10 1.6298e-10 2.06681e-11)
(5.85298e-11 4.03431e-11 9.54478e-12)
(2.42756e-10 1.63262e-10 2.42017e-11)
(3.49191e-10 2.40585e-10 2.7296e-11)
(3.54943e-10 2.43959e-10 2.8666e-11)
(2.33262e-10 1.69549e-10 4.56713e-11)
(6.08768e-11 3.99785e-11 1.03756e-11)
(2.54944e-10 1.71166e-10 2.21707e-11)
(-5.71657e-13 -1.79872e-13 -1.23117e-12)
(-5.95233e-13 -7.62556e-15 2.4857e-12)
(-9.61818e-13 -9.86103e-15 -1.68279e-12)
(-8.0503e-13 7.69366e-14 2.30989e-12)
(-8.95525e-13 -3.20839e-14 -1.72871e-12)
(-9.31969e-13 -3.91207e-14 -1.61796e-12)
(6.59712e-13 -1.05949e-12 1.54828e-11)
(-1.80206e-12 -1.46561e-12 1.28341e-11)
(-2.65375e-12 -8.80323e-13 1.08722e-11)
(-5.825e-12 -1.83564e-13 7.93698e-12)
(2.23569e-13 -5.12082e-13 1.24508e-12)
(-5.76555e-12 -5.64695e-13 8.25679e-12)
(-4.51563e-12 -1.44108e-12 1.05473e-11)
(5.1884e-13 -7.42606e-13 1.91138e-12)
(-5.66213e-12 -8.40785e-13 8.47152e-12)
(-1.18238e-12 -1.95835e-14 -2.37877e-12)
(-1.17172e-12 -3.82527e-13 2.02494e-13)
(-1.0364e-12 -1.62063e-14 -2.19115e-12)
(-8.73924e-13 -2.6287e-14 -1.80253e-12)
(-9.54899e-13 -5.26875e-13 7.79195e-13)
(-1.01176e-12 -2.948e-14 -2.1504e-12)
(2.47268e-10 2.22703e-10 4.99568e-12)
(2.56801e-10 2.25314e-10 6.22173e-12)
(1.7898e-10 1.54167e-10 6.81776e-12)
(3.62976e-11 4.07054e-11 1.62729e-12)
(1.7598e-10 1.53979e-10 5.22005e-12)
(2.65342e-10 2.2622e-10 9.77177e-12)
(2.59134e-10 2.25731e-10 7.33733e-12)
(1.66909e-10 1.51978e-10 3.34658e-12)
(3.52743e-11 4.0744e-11 1.75545e-12)
(1.72451e-10 1.53474e-10 4.33171e-12)
(3.8315e-10 7.25605e-10 6.96937e-12)
(3.91685e-10 7.22708e-10 1.03456e-11)
(3.57407e-10 8.49724e-10 1.15702e-11)
(2.79399e-10 1.12431e-09 8.8133e-12)
(3.47221e-10 8.40909e-10 1.01593e-11)
(4.05023e-10 7.28718e-10 1.40978e-11)
(3.9462e-10 7.21175e-10 1.10844e-11)
(3.36531e-10 8.4919e-10 6.52773e-12)
(2.74345e-10 1.12748e-09 8.15439e-12)
(3.44348e-10 8.42748e-10 9.59017e-12)
(2.65392e-10 5.79171e-10 4.08053e-12)
(2.12595e-10 3.01674e-10 3.51948e-12)
(1.72735e-10 4.34799e-10 2.09203e-12)
(3.80668e-10 7.2695e-10 6.46956e-12)
(3.34165e-10 8.50933e-10 5.81743e-12)
(2.45042e-10 2.22349e-10 4.11365e-12)
(1.63558e-10 1.51464e-10 2.88779e-12)
(1.05342e-11 1.24404e-11 3.51473e-11)
(2.6535e-11 -1.45706e-10 1.86417e-10)
(6.28192e-12 3.22964e-11 4.54532e-11)
(1.19861e-11 3.74199e-11 1.43268e-10)
(-1.10154e-11 6.53107e-12 4.82118e-11)
(-7.85888e-12 3.39906e-12 2.82942e-12)
(-1.41863e-11 6.79731e-12 -1.78522e-12)
(-9.40025e-12 3.73528e-12 -1.71935e-11)
(-1.06476e-11 8.40882e-12 -1.83614e-11)
(-1.64177e-11 9.05081e-12 8.62927e-12)
(-3.14214e-12 -1.3914e-13 8.54664e-12)
(-1.01785e-11 7.63206e-12 8.45943e-11)
(-1.32114e-11 1.36376e-11 4.31869e-11)
(9.41095e-13 8.86066e-12 2.16204e-10)
(-1.86512e-11 1.12112e-11 3.854e-11)
(-5.8982e-13 5.4566e-12 1.65668e-10)
(-7.4012e-12 1.13561e-11 1.38875e-10)
(-1.86873e-11 1.27832e-11 2.99914e-11)
(-1.11108e-11 8.43974e-12 6.16746e-11)
(-7.68463e-12 1.73027e-11 2.85166e-11)
(-1.68175e-11 1.05744e-11 3.5059e-12)
(-2.01313e-11 1.18215e-11 2.36488e-11)
(-1.09687e-11 1.0599e-11 -8.39393e-12)
(-8.544e-12 1.2542e-11 1.11128e-10)
(-1.95411e-11 1.17829e-11 1.60465e-11)
(5.02718e-12 3.78521e-11 -2.40018e-11)
(-3.01522e-12 7.30178e-12 -1.66988e-12)
(-1.64946e-12 2.95377e-11 -2.11686e-11)
(2.91991e-12 9.45926e-12 6.51651e-12)
(5.64545e-11 4.99558e-11 4.49344e-11)
(-3.60463e-12 2.22586e-11 2.27479e-11)
(-5.39944e-12 1.52207e-11 -1.2466e-12)
(-3.93741e-12 1.83446e-11 1.01158e-11)
(-2.14949e-12 2.86808e-11 -7.9054e-12)
(3.03304e-11 4.02835e-11 4.79773e-11)
(6.14075e-12 1.29685e-11 1.57307e-10)
(-7.5937e-12 -5.8869e-12 4.83959e-11)
(1.64327e-12 9.04646e-12 2.20034e-10)
(-1.59295e-11 5.80218e-12 4.32875e-11)
(4.91312e-12 5.45047e-12 1.69989e-10)
(-5.21391e-12 1.30236e-11 1.50018e-10)
(-9.47511e-12 -4.4321e-13 4.19191e-11)
(1.75181e-11 2.02479e-11 1.08328e-10)
(1.30501e-11 3.14931e-12 2.51837e-11)
(1.08393e-10 3.38746e-11 5.32872e-11)
(9.77472e-12 1.42593e-11 1.98682e-11)
(4.56527e-11 3.92286e-11 5.79535e-11)
(4.77779e-11 1.64591e-11 8.09777e-11)
(9.81191e-13 5.30107e-12 2.77892e-11)
(-5.12826e-12 1.74934e-11 8.63713e-11)
(-3.54705e-12 2.0126e-11 3.959e-11)
(-1.73807e-11 8.73553e-12 2.86941e-11)
(-4.14293e-12 1.22726e-11 1.89074e-11)
(-6.11182e-12 1.35513e-11 1.22333e-10)
(2.55866e-11 3.3957e-11 6.05888e-11)
(-1.08897e-11 6.19414e-12 2.96116e-11)
(9.3225e-12 8.55691e-11 9.72776e-11)
(-8.20896e-12 1.75117e-11 3.89601e-11)
(-1.64933e-12 2.07282e-12 1.76981e-11)
(1.71478e-11 4.59883e-11 1.29384e-10)
(-2.25904e-12 3.98264e-12 1.58566e-11)
(7.21707e-12 8.04732e-11 9.18462e-11)
(-2.8641e-13 1.0815e-12 1.52494e-11)
(-1.53559e-12 -2.97054e-14 1.2128e-11)
(4.37166e-12 6.29704e-11 6.88907e-11)
(-1.61311e-12 2.84398e-12 1.46472e-11)
(1.1378e-12 -1.78315e-13 2.2281e-13)
(2.87191e-12 -1.36642e-12 1.0119e-11)
(2.71794e-12 -2.04879e-13 1.27196e-12)
(3.27583e-12 -9.82736e-13 1.04912e-11)
(3.72681e-12 7.72521e-14 3.02902e-12)
(4.44798e-12 -2.5396e-13 2.74452e-12)
(-1.12132e-12 1.3514e-11 6.14406e-11)
(-1.66007e-12 -9.45891e-12 2.64669e-11)
(-9.1687e-13 5.92636e-12 8.46181e-11)
(-3.77508e-12 2.65466e-12 2.44705e-11)
(4.0157e-12 8.53123e-12 1.08924e-10)
(-1.35845e-12 2.64193e-11 7.70638e-11)
(-1.86445e-12 -1.21943e-12 2.00074e-11)
(4.6692e-12 1.88256e-11 4.26489e-11)
(5.16516e-12 -7.1876e-12 7.85639e-12)
(2.06637e-11 -4.62958e-12 4.69348e-11)
(6.86108e-13 -3.60309e-12 7.29974e-12)
(3.13281e-12 2.84898e-11 4.3152e-11)
(-1.45004e-12 -8.04091e-14 1.04784e-11)
(1.39216e-12 3.63599e-13 1.98314e-12)
(3.10767e-12 5.78662e-11 6.31959e-11)
(-2.37802e-13 -2.62741e-12 6.98885e-12)
(8.08689e-11 1.15941e-11 5.95617e-11)
(2.37337e-11 2.13828e-12 2.25873e-11)
(1.23694e-10 2.28153e-11 5.65737e-11)
(5.80567e-11 -4.97404e-12 -7.54916e-12)
(5.99758e-11 1.26835e-11 4.8263e-11)
(1.69067e-10 1.02851e-11 1.369e-11)
(3.12954e-11 -2.35516e-12 1.94113e-11)
(6.65201e-11 7.47562e-12 4.9295e-11)
(6.92383e-12 -7.63368e-12 8.46853e-12)
(2.88138e-11 -3.52395e-12 4.70027e-11)
(1.40752e-11 -3.51798e-12 9.68715e-12)
(8.64807e-11 1.20274e-11 4.71964e-11)
(5.92012e-11 -7.74112e-12 -8.66978e-12)
(1.81362e-10 1.06011e-11 -9.34954e-12)
(3.77812e-11 -1.14182e-11 1.6705e-11)
(2.4645e-10 4.44016e-10 2.26154e-11)
(4.69633e-10 4.11055e-10 3.12621e-11)
(3.35609e-10 6.01606e-10 2.47422e-11)
(2.70231e-10 3.13497e-10 1.66519e-11)
(2.3034e-10 4.48891e-10 1.87875e-11)
(3.52954e-10 5.94746e-10 2.72799e-11)
(2.88651e-10 3.17359e-10 1.98754e-11)
(2.59067e-10 4.40375e-10 2.69228e-11)
(4.76497e-10 4.12663e-10 3.13445e-11)
(3.76163e-10 5.84205e-10 3.10633e-11)
(3.1329e-10 3.2042e-10 2.77863e-11)
(2.69738e-10 4.36385e-10 3.17057e-11)
(3.67445e-10 5.88729e-10 3.02892e-11)
(3.02671e-10 3.1978e-10 2.33712e-11)
(2.89236e-10 2.25348e-10 1.59345e-11)
(2.72113e-10 2.22099e-10 1.49884e-11)
(1.80253e-10 1.52871e-10 8.05784e-12)
(4.01239e-11 4.0097e-11 3.73414e-12)
(1.82419e-10 1.51124e-10 9.32275e-12)
(2.66481e-10 2.25767e-10 1.11466e-11)
(2.7006e-10 2.22846e-10 1.3674e-11)
(1.95129e-10 1.51378e-10 1.11125e-11)
(4.20087e-11 3.98374e-11 3.70459e-12)
(1.85506e-10 1.49261e-10 1.05069e-11)
(4.46972e-10 7.64568e-10 2.37162e-11)
(4.29708e-10 7.62324e-10 1.86924e-11)
(3.61479e-10 8.56047e-10 1.20167e-11)
(3.05917e-10 1.17036e-09 9.86919e-12)
(3.76756e-10 8.83966e-10 1.51071e-11)
(4.09097e-10 7.33585e-10 1.46905e-11)
(4.23951e-10 7.55339e-10 1.78877e-11)
(3.99344e-10 8.9096e-10 2.40798e-11)
(3.17793e-10 1.18617e-09 1.52748e-11)
(3.82408e-10 8.9172e-10 1.64246e-11)
(4.52778e-10 7.5827e-10 2.45079e-11)
(4.69192e-10 7.34391e-10 2.73913e-11)
(4.31823e-10 8.13064e-10 2.87504e-11)
(3.49769e-10 1.07631e-09 3.27322e-11)
(4.24388e-10 8.29994e-10 3.01615e-11)
(4.8101e-10 7.18553e-10 2.77886e-11)
(4.73995e-10 7.28502e-10 2.78739e-11)
(4.04821e-10 8.82527e-10 2.57529e-11)
(3.43754e-10 1.11453e-09 3.37692e-11)
(4.19798e-10 8.41436e-10 2.98964e-11)
(2.96079e-10 2.26973e-10 1.73403e-11)
(3.23723e-10 2.35798e-10 2.00856e-11)
(2.41312e-10 1.62575e-10 1.90606e-11)
(5.43841e-11 4.03611e-11 5.80032e-12)
(2.32818e-10 1.6094e-10 1.60336e-11)
(3.46178e-10 2.39791e-10 2.54885e-11)
(3.30397e-10 2.37171e-10 2.18661e-11)
(2.05823e-10 1.53781e-10 1.24106e-11)
(5.06183e-11 4.03491e-11 5.48468e-12)
(2.21314e-10 1.59042e-10 1.41443e-11)
(-1.33633e-12 -1.71199e-12 2.96884e-11)
(-2.23744e-12 -3.86432e-13 2.85089e-11)
(8.72445e-14 -2.54447e-13 1.45722e-11)
(-2.97201e-12 -1.27992e-13 9.81334e-12)
(-2.95139e-12 -1.50803e-13 1.00031e-11)
(-5.82116e-12 -1.73203e-13 7.89011e-12)
(-5.17316e-13 -7.65883e-14 9.17305e-14)
(-5.82698e-12 -1.16197e-13 7.68571e-12)
(-5.8246e-12 -9.85647e-14 7.47511e-12)
(-5.68925e-13 -7.04701e-14 2.71051e-15)
(-5.82281e-12 -1.27742e-13 7.64476e-12)
(-1.34249e-12 -1.33107e-16 -2.58025e-12)
(-1.21853e-12 -6.24734e-15 -2.42256e-12)
(-1.67931e-12 -7.87507e-14 -9.26364e-13)
(-1.25681e-12 -9.62397e-15 -2.49233e-12)
(-1.73395e-12 -4.8744e-14 -1.03376e-12)
(-1.31883e-12 -1.11821e-14 -2.55628e-12)
(-1.2727e-12 2.78172e-16 -2.50894e-12)
(-2.0493e-12 -1.5156e-12 -5.6122e-13)
(-2.05755e-12 -8.39483e-13 -1.93019e-12)
(-6.49788e-13 -5.84724e-13 -8.96291e-13)
(-1.45195e-12 -4.49352e-13 -6.91164e-12)
(-1.34142e-12 -6.99423e-14 -9.28289e-13)
(-2.38831e-12 -1.83435e-12 -4.77337e-13)
(-2.2301e-12 -8.14567e-13 -5.18998e-12)
(-3.95748e-12 -8.75368e-13 -9.54487e-12)
(-1.82879e-13 -4.301e-13 -2.62997e-12)
(-1.56356e-13 -5.79685e-13 -2.62784e-12)
(-2.5508e-12 -9.8708e-13 -1.42475e-11)
(-1.97242e-12 -1.18657e-12 -8.20063e-12)
(-8.18573e-15 -2.57517e-13 -3.33031e-12)
(-3.52058e-12 -7.65359e-13 -1.17464e-11)
(8.66463e-12 5.31417e-11 1.06158e-10)
(2.93321e-12 1.42281e-11 3.83215e-11)
(6.15261e-12 5.63313e-11 1.08257e-10)
(2.06539e-12 9.2315e-12 4.09699e-11)
(2.77712e-13 3.38358e-11 1.1743e-10)
(1.46877e-11 4.49639e-11 1.13058e-10)
(8.89802e-13 1.32791e-11 3.50014e-11)
(3.58659e-10 4.04825e-10 7.85355e-11)
(4.58847e-10 5.16407e-10 3.60989e-11)
(4.6763e-10 4.38501e-10 1.47625e-12)
(4.37815e-10 4.03547e-10 3.83372e-11)
(4.2076e-10 3.88095e-10 3.72384e-11)
(4.34823e-10 4.87901e-10 2.48393e-11)
(3.88902e-10 4.44114e-10 5.2031e-11)
(6.82178e-11 1.36318e-10 1.07543e-10)
(2.64421e-11 4.0352e-11 3.70521e-11)
(1.30782e-10 2.5315e-10 1.03134e-10)
(2.74073e-11 4.33257e-11 3.25716e-11)
(8.35574e-11 1.24164e-10 1.18786e-10)
(1.12243e-10 1.37042e-10 9.36105e-11)
(1.95368e-11 3.76354e-11 3.35399e-11)
(-2.01408e-12 -1.01964e-12 -1.52275e-13)
(8.4705e-13 -5.55601e-13 4.99187e-12)
(-2.46161e-12 -6.27604e-13 -1.08122e-12)
(5.17642e-13 -2.0527e-13 4.45326e-12)
(-1.76082e-12 -1.05593e-12 1.11107e-13)
(-2.32359e-12 -5.39174e-13 -6.16096e-13)
(2.79341e-10 4.25699e-10 6.42831e-12)
(3.79101e-10 3.87336e-10 9.77528e-12)
(3.54555e-10 4.75924e-10 7.51176e-12)
(3.04249e-10 3.36944e-10 6.85399e-12)
(3.08518e-10 3.38689e-10 8.21172e-12)
(3.58818e-10 4.77389e-10 8.31792e-12)
(2.75858e-10 4.25048e-10 5.79161e-12)
(2.95428e-10 4.29519e-10 1.08416e-11)
(3.96212e-10 3.91822e-10 1.38904e-11)
(3.28075e-10 3.43716e-10 1.35867e-11)
(3.79041e-10 4.82741e-10 1.43727e-11)
(2.97506e-10 4.3057e-10 1.19751e-11)
(3.25629e-10 3.42824e-10 1.19499e-11)
(3.7543e-10 4.80834e-10 1.31668e-11)
(3.70557e-11 4.34353e-11 3.49241e-11)
(1.18367e-10 1.31091e-10 1.11044e-10)
(-1.98563e-11 2.72274e-11 -7.14146e-12)
(-1.27661e-11 2.50696e-11 -3.67931e-12)
(-5.92806e-12 1.00089e-11 -1.95463e-12)
(-1.22279e-11 2.58519e-11 -5.37618e-12)
(-9.83829e-12 1.02905e-11 -1.39837e-12)
(-1.27981e-12 -1.27859e-12 1.11568e-12)
(2.53206e-12 -1.74013e-12 8.60064e-12)
(-4.81242e-14 -1.29759e-12 2.89218e-12)
(3.44995e-12 -1.83341e-12 9.08893e-12)
(6.72712e-12 -1.92358e-13 1.59328e-11)
(2.63041e-12 -7.67594e-13 3.9999e-12)
(3.17668e-10 4.40355e-10 1.93033e-11)
(4.22483e-10 3.93679e-10 2.52997e-11)
(4.11891e-10 4.97849e-10 2.37586e-11)
(3.53714e-10 3.46398e-10 2.32072e-11)
(3.25491e-10 4.41706e-10 2.00085e-11)
(3.4446e-10 3.42821e-10 2.13802e-11)
(4.0259e-10 4.94291e-10 2.30737e-11)
(3.00687e-10 4.33373e-10 1.43185e-11)
(4.04392e-10 3.93009e-10 1.74315e-11)
(3.28695e-10 3.42843e-10 1.41936e-11)
(3.80924e-10 4.84365e-10 1.54373e-11)
(2.99289e-10 4.32047e-10 1.31247e-11)
(3.30393e-10 3.43297e-10 1.60355e-11)
(3.83918e-10 4.86091e-10 1.67399e-11)
(-4.32417e-12 -9.61047e-14 -7.51036e-12)
(-6.62585e-13 -7.09817e-14 -2.84739e-13)
(-4.36999e-12 -1.07074e-13 -7.73717e-12)
(4.657e-10 3.55939e-10 3.57369e-11)
(4.54662e-10 3.53249e-10 7.04023e-12)
(5.01917e-10 5.63201e-10 1.98173e-11)
(4.78444e-10 5.40174e-10 -1.95652e-11)
(3.95933e-10 4.50129e-10 3.75182e-11)
(4.69574e-10 5.25635e-10 2.38969e-11)
(4.88849e-10 4.33352e-10 3.23186e-11)
(4.37306e-10 3.94201e-10 2.95691e-11)
(3.95362e-10 4.4875e-10 4.24146e-11)
(4.62038e-10 5.09867e-10 2.90182e-11)
(4.3055e-10 3.82078e-10 3.24759e-11)
(3.88758e-10 4.45293e-10 3.18396e-11)
(4.90587e-10 4.16543e-10 3.19306e-11)
(4.66305e-10 5.01117e-10 3.13818e-11)
(4.20077e-10 3.63662e-10 3.14745e-11)
(4.67177e-10 5.02173e-10 3.06369e-11)
(4.21989e-10 3.6538e-10 3.19235e-11)
(3.87769e-10 4.44832e-10 3.16381e-11)
(5.25536e-10 5.76085e-10 1.50121e-11)
(5.19942e-10 5.61793e-10 2.53244e-11)
(5.36914e-10 5.54132e-10 3.0339e-11)
(5.36455e-10 5.544e-10 2.97906e-11)
(4.6377e-10 3.44269e-10 3.23997e-11)
(4.58549e-10 3.34153e-10 3.62565e-11)
(4.44192e-10 3.10937e-10 3.18387e-11)
(4.46837e-10 3.13489e-10 3.2472e-11)
(-1.71411e-12 -5.20745e-13 -6.25286e-13)
(-4.4519e-13 -4.09624e-13 2.87076e-12)
(-1.69334e-12 -2.58484e-13 -5.42391e-13)
(-6.92292e-13 -1.21346e-13 2.55343e-12)
(-1.76957e-12 -2.89342e-13 -4.61943e-13)
(-1.74447e-12 -1.45643e-13 -5.80257e-13)
(-4.1176e-12 -1.30773e-13 -7.43721e-12)
(-1.12391e-13 -2.55538e-13 6.09611e-13)
(-4.04507e-12 -1.90213e-13 -7.53816e-12)
(-2.70604e-12 -1.4479e-12 -3.30973e-12)
(1.0823e-12 -9.91561e-13 4.02002e-12)
(-2.80429e-12 -1.47642e-12 -4.55548e-12)
(-2.68584e-12 -1.19963e-13 -3.24073e-12)
(-1.36372e-12 -2.39039e-13 -3.41766e-13)
(-2.60188e-12 -1.41305e-13 -3.08499e-12)
(-2.09468e-12 -3.48458e-13 -1.34807e-12)
(-5.62367e-13 -6.01433e-13 2.21767e-12)