/*--------------------------------*- C++ -*----------------------------------*\
| =========                 |                                                 |
| \\      /  F ield         | OpenFOAM: The Open Source CFD Toolbox           |
|  \\    /   O peration     | Version:  2012                                  |
|   \\  /    A nd           | Website:  www.openfoam.com                      |
|    \\/     M anipulation  |                                                 |
\*---------------------------------------------------------------------------*/
FoamFile
{
    version     2.0;
    format      ascii;
    class       volVectorField;
    location    "0.106/solid";
    object      D_0_0_0;
}
// * * * * * * * * * * * * * * * * * * * * * * * * * * * * * * * * * * * * * //

dimensions      [0 1 0 0 0 0 0];


internalField   nonuniform List<vector> 
3124
(
(2.01744e-11 5.48307e-11 4.14956e-11)
(-6.81561e-14 1.61321e-13 -1.06063e-12)
(3.42457e-12 -4.20173e-13 2.30742e-11)
(7.15521e-11 2.33886e-10 -3.46171e-12)
(1.64835e-12 7.62643e-13 4.14639e-11)
(6.19042e-14 1.01e-13 -1.9733e-12)
(4.44582e-12 -4.79607e-13 2.33677e-11)
(7.43885e-11 2.37667e-10 -2.834e-12)
(1.49347e-12 2.64853e-13 4.20309e-11)
(-1.83808e-13 8.78542e-12 1.90578e-11)
(1.28373e-11 3.89504e-11 5.18749e-11)
(9.27134e-11 2.27674e-10 3.42625e-11)
(-1.0722e-12 -9.46605e-12 3.36961e-11)
(7.05284e-13 -4.3762e-13 1.75643e-11)
(-4.93979e-12 7.3844e-12 1.64364e-11)
(4.05624e-12 -5.54977e-12 3.21632e-11)
(5.9124e-13 1.96457e-11 5.11481e-11)
(3.15486e-12 -5.17052e-12 2.66291e-11)
(8.68328e-12 -2.95653e-12 2.73223e-11)
(8.91581e-11 2.34537e-10 1.90584e-11)
(-1.22717e-12 -6.85458e-13 3.37532e-11)
(-1.38858e-12 -5.88087e-13 3.35308e-11)
(6.69523e-13 -4.12081e-13 1.74668e-11)
(4.65435e-10 4.96179e-10 3.98455e-11)
(3.18417e-11 4.17248e-11 3.59297e-11)
(2.31444e-11 6.27303e-11 3.81138e-11)
(6.44107e-11 1.49436e-10 9.77263e-11)
(1.9918e-10 5.79323e-10 1.98021e-10)
(2.03475e-11 3.04233e-11 2.87089e-11)
(1.17403e-10 1.28792e-10 8.18291e-11)
(2.07041e-12 -1.07271e-12 8.49906e-12)
(1.70859e-12 -1.96166e-12 2.13852e-11)
(2.24149e-12 -6.61233e-13 8.85563e-12)
(3.74308e-10 4.12209e-10 9.61798e-13)
(6.0528e-11 1.58627e-10 -1.93063e-12)
(2.28576e-10 9.17849e-10 -5.10291e-12)
(6.90194e-11 2.31987e-10 -2.96174e-12)
(3.9371e-10 4.23863e-10 4.25655e-12)
(2.19479e-10 9.10486e-10 -2.62263e-12)
(5.74031e-11 1.56874e-10 -2.41485e-12)
(2.28912e-11 6.72083e-11 3.78512e-11)
(5.92771e-12 -1.17584e-11 4.68917e-11)
(-2.8488e-12 1.63872e-12 -6.40103e-12)
(-3.77209e-12 8.83022e-12 1.01465e-12)
(-1.154e-11 1.33817e-11 2.8527e-12)
(7.87411e-12 -7.98446e-15 2.78235e-11)
(2.66432e-12 -1.51209e-12 9.88027e-12)
(7.0879e-12 -1.36803e-13 2.00116e-11)
(4.13435e-10 4.35696e-10 1.42311e-11)
(7.82478e-11 2.4037e-10 1.83332e-12)
(6.17506e-11 1.60663e-10 -1.19192e-12)
(2.33266e-10 9.29379e-10 -3.84037e-12)
(3.94034e-10 4.24005e-10 4.68595e-12)
(2.48735e-10 9.5243e-10 9.90796e-12)
(6.52448e-11 1.62807e-10 5.30768e-13)
(6.85951e-13 -2.98339e-12 4.10611e-11)
(-1.78702e-12 -4.25262e-13 3.22572e-11)
(3.82405e-13 -2.81711e-13 1.6631e-11)
(5.51267e-14 -1.04727e-13 1.90129e-12)
(2.96702e-12 9.32978e-12 9.50613e-12)
(-4.28655e-12 1.13866e-11 6.49408e-11)
(2.948e-11 3.07173e-11 3.50005e-11)
(6.36407e-11 4.38816e-11 2.95185e-11)
(9.38134e-12 4.47113e-11 4.80211e-11)
(4.84692e-12 -4.86715e-12 5.90407e-11)
(2.3728e-10 8.20889e-10 2.71708e-12)
(3.05647e-11 4.22515e-11 3.72756e-11)
(4.71004e-10 4.94919e-10 3.49942e-11)
(9.27595e-11 2.0481e-10 6.85141e-11)
(2.53492e-10 8.89801e-10 4.04911e-11)
(9.5026e-11 1.65965e-10 2.04615e-11)
(2.22159e-10 7.57553e-10 1.09928e-10)
(4.55177e-10 4.61938e-10 2.73356e-11)
(1.01892e-10 1.60181e-10 4.95645e-11)
(2.82779e-10 1.13184e-09 2.23519e-11)
(2.34644e-10 9.44247e-10 7.31318e-11)
(-5.79638e-12 2.80015e-12 6.70944e-11)
(-3.93728e-12 -9.9168e-12 5.46132e-11)
(3.58893e-11 3.7692e-11 5.45471e-11)
(5.35291e-11 4.73314e-11 7.53544e-12)
(5.63503e-11 5.02206e-11 2.00838e-11)
(6.06717e-13 -8.25924e-13 5.73597e-12)
(5.12928e-13 -3.9654e-13 5.85108e-12)
(1.97832e-12 -2.09982e-12 2.05189e-11)
(6.01733e-13 -2.37711e-13 2.93621e-12)
(1.6668e-12 -9.48463e-13 6.66891e-12)
(-7.02839e-13 -2.2584e-13 1.58432e-12)
(8.08304e-14 -5.53005e-13 4.45296e-12)
(3.72542e-11 4.52404e-11 2.89652e-13)
(3.43682e-11 4.45916e-11 -9.33221e-13)
(2.61859e-10 1.17867e-09 -1.16846e-12)
(2.53083e-10 1.17587e-09 -9.41464e-13)
(3.72265e-10 4.11585e-10 6.68922e-13)
(6.67493e-11 2.31092e-10 -3.22573e-12)
(2.1707e-10 9.11658e-10 -4.99392e-12)
(5.39106e-11 1.55515e-10 -2.57634e-12)
(2.50744e-10 1.17917e-09 -2.84998e-12)
(3.37823e-11 4.44112e-11 -3.72587e-13)
(2.74975e-11 4.74858e-11 4.91275e-11)
(1.85741e-11 1.17574e-12 4.30539e-11)
(-6.59163e-12 2.58188e-12 -1.78318e-12)
(-1.34945e-11 1.04987e-11 5.51573e-11)
(-1.67289e-11 1.31893e-11 1.34e-11)
(2.66619e-14 8.00705e-12 -3.13479e-12)
(-8.9534e-12 1.6151e-11 9.97865e-12)
(-1.15158e-11 3.03053e-12 5.80844e-11)
(3.41473e-11 1.30691e-11 4.32816e-12)
(-1.23976e-11 1.31674e-11 1.94846e-11)
(-5.01665e-12 -3.56323e-12 3.32227e-11)
(-1.60673e-12 -2.55501e-12 4.36829e-11)
(6.0031e-12 6.08383e-12 2.21863e-11)
(1.14048e-12 -1.21408e-12 6.92244e-12)
(4.59573e-12 4.68837e-13 1.51327e-11)
(-5.15041e-12 -6.28367e-12 3.77698e-11)
(3.44471e-12 5.48974e-12 1.4636e-11)
(4.49265e-11 3.82513e-12 1.98309e-12)
(4.19316e-10 4.38382e-10 1.58035e-11)
(8.35538e-11 2.38798e-10 9.47189e-12)
(2.55642e-10 8.95728e-10 3.1625e-11)
(8.69965e-11 1.66322e-10 1.07968e-11)
(4.56927e-10 4.62245e-10 2.5477e-11)
(2.52177e-10 9.40826e-10 1.87782e-11)
(7.55108e-11 1.65119e-10 4.182e-12)
(3.78481e-11 4.53134e-11 4.26803e-14)
(4.24374e-11 4.57697e-11 1.39187e-12)
(2.67358e-10 1.19756e-09 -1.57444e-12)
(2.85816e-10 1.24078e-09 1.08616e-11)
(2.87011e-10 1.13359e-09 2.1385e-11)
(2.88369e-10 1.21849e-09 1.85514e-11)
(5.25939e-11 4.75873e-11 6.08419e-12)
(4.41771e-11 4.61848e-11 1.4705e-12)
(1.33013e-13 -3.10812e-12 3.73148e-11)
(-1.71173e-12 -4.61675e-13 3.2556e-11)
(3.77829e-13 -2.77682e-13 1.67126e-11)
(4.60155e-13 -1.96657e-13 2.70545e-12)
(1.12382e-13 -1.05997e-13 2.01815e-12)
(-1.15583e-12 -7.21771e-14 5.67945e-13)
(-8.30787e-13 -1.64243e-13 1.31683e-12)
(-1.09797e-12 -9.58752e-14 6.91744e-13)
(2.31564e-10 9.82556e-10 -5.67552e-12)
(-7.06851e-12 -2.9184e-12 -3.73441e-12)
(-5.34824e-13 -6.85741e-13 4.59747e-14)
(-2.31035e-13 -2.5004e-13 1.7497e-11)
(2.18496e-12 -4.80976e-13 2.31309e-11)
(-4.0358e-13 -3.74593e-13 1.79684e-11)
(3.17635e-12 8.84912e-13 4.17968e-11)
(-6.57225e-12 1.14104e-11 -4.44106e-11)
(1.46009e-13 -1.98738e-14 -9.62301e-13)
(-7.56095e-13 -6.74365e-13 -2.8137e-14)
(2.99935e-13 2.65575e-12 -4.14042e-12)
(7.17984e-12 -6.30331e-13 2.49923e-11)
(-2.88069e-13 -5.17199e-13 1.73714e-11)
(-4.33622e-13 -9.27839e-13 1.87505e-11)
(2.0731e-12 -2.01518e-13 4.28863e-11)
(5.47026e-11 1.05002e-11 1.31142e-10)
(4.52014e-12 9.14139e-12 1.59422e-11)
(-6.06232e-13 1.82348e-11 4.12914e-11)
(-3.47537e-13 -5.73562e-12 5.333e-11)
(-1.07508e-12 2.69163e-12 1.79092e-10)
(1.1523e-11 1.95502e-11 3.59333e-11)
(3.63349e-12 -2.43124e-12 4.27975e-11)
(-1.10794e-11 1.26814e-10 2.67263e-10)
(2.46562e-11 4.36441e-11 6.08258e-11)
(4.19505e-11 -2.47005e-11 2.13047e-10)
(1.59076e-11 2.08578e-11 5.91125e-11)
(-3.20994e-11 3.0636e-10 1.41517e-10)
(4.29733e-11 6.83976e-11 1.6645e-10)
(3.39868e-11 4.00397e-11 6.20464e-11)
(9.04e-12 1.09637e-11 2.40704e-10)
(1.15606e-11 5.35516e-12 9.73155e-11)
(-5.68961e-12 -1.15531e-11 4.66988e-11)
(-5.17642e-12 -1.16894e-11 3.92865e-11)
(6.04198e-12 6.47085e-12 1.72395e-10)
(4.77333e-12 8.58489e-12 1.24722e-10)
(-6.5817e-12 -1.21637e-11 5.58164e-11)
(1.06557e-12 -9.39055e-13 1.80399e-11)
(-2.31261e-12 -3.17972e-13 1.26093e-11)
(-2.15336e-12 -7.21003e-13 1.30605e-11)
(-6.35344e-12 4.32192e-11 5.93808e-11)
(-2.3913e-11 -2.74003e-11 2.13418e-10)
(7.71579e-11 3.15178e-10 1.18288e-10)
(-9.84923e-12 5.42103e-12 8.29654e-11)
(-7.44279e-12 5.6628e-12 1.08619e-11)
(-1.11169e-11 1.52691e-11 3.48371e-11)
(-1.25478e-12 -5.22656e-12 4.90699e-11)
(-1.87431e-12 3.01729e-12 1.60096e-10)
(-1.59689e-11 1.2465e-11 2.36183e-11)
(-2.92712e-12 -1.98299e-12 2.32361e-11)
(1.55004e-11 1.46638e-11 1.45977e-10)
(1.56778e-11 6.40194e-12 9.78294e-11)
(-2.23671e-12 -7.78428e-12 4.13579e-11)
(7.97076e-12 -9.50075e-13 3.2241e-11)
(6.56605e-12 7.08806e-12 1.59463e-10)
(3.81546e-11 1.63764e-11 1.03573e-10)
(-3.2302e-13 -2.0717e-12 3.85516e-11)
(3.6051e-12 9.7195e-12 7.18559e-11)
(1.34737e-11 5.68279e-12 9.04243e-11)
(-2.34984e-12 -6.93617e-12 2.93425e-11)
(6.72991e-12 -2.95916e-12 2.21628e-11)
(3.65786e-12 9.56515e-12 1.12569e-10)
(1.97354e-11 9.0619e-12 7.67552e-11)
(1.11876e-14 -2.06323e-12 2.35659e-11)
(6.47252e-11 1.73242e-11 7.60292e-11)
(1.87619e-11 6.3301e-12 9.20169e-11)
(1.4575e-11 2.36517e-13 2.8906e-11)
(1.23872e-11 -1.98121e-12 2.37081e-11)
(4.55735e-11 1.51778e-11 1.04595e-10)
(2.71491e-11 9.73548e-12 7.29639e-11)
(2.05286e-11 1.61106e-13 2.50723e-11)
(-9.8919e-13 -1.08823e-12 3.39904e-11)
(-1.49908e-12 -5.40425e-13 3.32277e-11)
(5.19802e-13 -3.25512e-13 1.71513e-11)
(-2.33638e-12 -2.87977e-13 1.25239e-11)
(-2.42077e-12 -2.22998e-13 1.22098e-11)
(1.39262e-10 2.47438e-10 1.47021e-10)
(3.2083e-10 5.47779e-10 1.0086e-10)
(3.34847e-10 3.62966e-10 -5.75568e-12)
(2.9531e-10 3.60092e-10 8.68415e-11)
(2.04889e-10 2.33923e-10 1.2613e-10)
(2.42581e-10 3.94241e-10 1.35497e-10)
(2.31343e-10 4.09188e-10 1.00324e-10)
(5.69044e-11 1.33254e-10 1.19805e-10)
(4.6458e-11 6.84751e-11 9.27391e-11)
(1.77126e-11 2.97536e-11 2.97258e-11)
(2.06921e-11 4.28008e-11 3.11553e-11)
(6.34079e-11 1.00523e-10 8.93534e-11)
(8.20185e-11 1.56875e-10 9.3393e-11)
(1.4275e-11 3.69452e-11 3.56132e-11)
(-6.02671e-12 -4.94761e-12 -6.01395e-12)
(-2.73296e-12 -4.12631e-13 1.55106e-11)
(1.61794e-12 -5.57026e-14 7.49143e-12)
(-3.45014e-12 -3.34719e-13 1.54008e-11)
(1.96234e-12 -7.55111e-13 2.30191e-11)
(-8.83133e-13 -1.44891e-12 1.62365e-11)
(-4.5203e-13 -6.00584e-13 1.77975e-11)
(1.42792e-12 1.75364e-14 7.47974e-12)
(-3.40096e-12 -1.3332e-12 1.38089e-11)
(-3.26258e-12 -4.75087e-13 1.51993e-11)
(1.74178e-10 4.59021e-10 -3.72511e-12)
(3.84625e-10 4.18338e-10 2.40286e-12)
(2.64031e-10 6.08971e-10 -1.56538e-12)
(2.14296e-10 3.22857e-10 -2.87002e-12)
(2.19546e-10 3.25553e-10 -2.07811e-12)
(2.69211e-10 6.09956e-10 -1.65035e-12)
(1.69972e-10 4.57746e-10 -3.7381e-12)
(1.77437e-10 4.60228e-10 -2.89273e-12)
(3.86719e-10 4.19106e-10 2.59313e-12)
(2.26009e-10 3.2989e-10 4.25047e-13)
(2.77113e-10 6.1662e-10 -9.33499e-13)
(1.80008e-10 4.64297e-10 -2.43992e-12)
(2.23317e-10 3.27321e-10 -1.44506e-12)
(2.73772e-10 6.11604e-10 -2.5655e-13)
(4.02556e-12 3.75108e-12 4.14785e-11)
(-6.9729e-12 8.37725e-12 -4.44268e-11)
(4.8502e-13 4.55144e-13 -6.79482e-12)
(-8.71164e-12 5.96479e-12 -6.21706e-12)
(-1.20912e-12 3.98053e-12 -2.98272e-11)
(-8.36814e-12 9.65932e-12 -2.06791e-11)
(-3.46022e-12 3.36964e-12 -1.00675e-11)
(7.86665e-12 1.55067e-12 -3.46376e-11)
(6.43454e-14 1.35723e-11 -3.66765e-11)
(1.25661e-11 2.9095e-11 -1.5366e-11)
(-3.74007e-12 1.46875e-11 -1.93718e-12)
(4.16707e-12 2.61682e-11 -3.24499e-12)
(-1.06199e-12 3.93621e-12 -3.52793e-12)
(-4.02329e-12 1.21519e-11 -3.56596e-11)
(-1.30929e-11 2.3894e-11 -2.03462e-12)
(-1.04583e-11 1.00351e-11 -2.01539e-12)
(-4.29182e-12 1.21105e-11 -2.201e-12)
(-8.66022e-12 1.13164e-11 -9.60873e-12)
(2.38079e-12 2.40397e-11 -9.66178e-12)
(-5.57134e-12 9.42227e-12 -5.7999e-12)
(7.44567e-12 -4.79163e-13 2.56777e-11)
(-2.33724e-13 1.10124e-12 2.14403e-11)
(-4.14686e-13 -6.59725e-13 1.94129e-11)
(-2.17993e-12 -5.22506e-13 1.55736e-11)
(6.73706e-12 -1.43082e-12 1.70408e-11)
(-1.82689e-12 -7.06937e-13 1.62465e-11)
(-5.02894e-13 7.77473e-14 1.88364e-11)
(7.16251e-12 -1.01888e-12 1.71824e-11)
(-1.94144e-12 -5.62544e-13 1.66001e-11)
(1.86662e-10 4.79871e-10 2.14962e-12)
(3.98665e-10 4.26865e-10 9.13857e-12)
(2.9312e-10 6.46637e-10 7.59203e-12)
(2.38158e-10 3.38239e-10 4.85135e-12)
(1.93861e-10 4.82862e-10 4.46314e-12)
(2.29789e-10 3.34039e-10 3.86058e-12)
(2.85351e-10 6.4284e-10 4.64757e-12)
(1.83296e-10 4.75522e-10 1.61129e-13)
(3.97792e-10 4.26477e-10 7.83413e-12)
(2.26773e-10 3.30994e-10 1.63838e-12)
(2.79374e-10 6.24611e-10 5.36994e-13)
(1.81632e-10 4.68679e-10 -1.11877e-12)
(2.27296e-10 3.32859e-10 3.4689e-12)
(2.81398e-10 6.34428e-10 1.13598e-12)
(1.35283e-12 -1.35541e-12 4.32632e-11)
(-1.83483e-12 -3.65013e-13 3.19772e-11)
(3.06732e-13 -2.08216e-13 1.64086e-11)
(-2.49397e-12 -1.86885e-13 1.17904e-11)
(-5.32674e-12 -1.67843e-13 9.36862e-12)
(3.60884e-10 3.074e-10 5.23859e-11)
(1.81708e-10 1.51493e-10 1.18897e-10)
(-1.03716e-11 -5.16478e-12 1.14959e-10)
(4.0467e-12 8.14722e-12 1.07031e-11)
(2.83935e-12 1.66135e-11 2.90034e-11)
(2.50538e-11 2.93191e-11 2.74465e-11)
(-3.1448e-11 5.08433e-11 1.55023e-10)
(7.11077e-12 1.4941e-11 2.71226e-11)
(1.78759e-11 -6.57285e-13 1.33694e-11)
(4.9857e-11 1.96671e-11 1.78906e-10)
(-2.41921e-12 1.62413e-11 5.59053e-11)
(4.81001e-12 1.03007e-11 2.46335e-10)
(1.22284e-11 1.73537e-11 6.77559e-11)
(2.67904e-11 2.20029e-11 2.81835e-10)
(7.30336e-13 6.44116e-12 1.98915e-10)
(1.5163e-11 2.18099e-11 5.39627e-11)
(1.65495e-11 3.89777e-11 1.7032e-10)
(8.42106e-11 8.5906e-11 6.20215e-11)
(1.47245e-11 2.03125e-11 2.98134e-11)
(3.00224e-11 2.93141e-11 5.61237e-11)
(9.24796e-11 9.22531e-11 1.06642e-10)
(3.97678e-11 2.87342e-11 2.66384e-10)
(2.36658e-11 2.5163e-11 3.96454e-11)
(2.76969e-10 2.12935e-10 1.4239e-11)
(2.98315e-11 4.98591e-11 4.18938e-11)
(2.13141e-11 1.62383e-10 9.14599e-11)
(4.04599e-10 7.08754e-10 3.88855e-11)
(1.88562e-10 3.72345e-10 1.1568e-10)
(1.07335e-10 1.34545e-10 2.08053e-10)
(2.11052e-11 1.52771e-11 4.06091e-11)
(7.12432e-12 7.95264e-11 2.69635e-10)
(8.61777e-12 4.22967e-11 3.51804e-11)
(1.06832e-10 2.06561e-10 1.20427e-10)
(3.99515e-11 -1.64298e-10 2.21421e-10)
(3.26737e-11 4.97318e-11 4.04295e-11)
(1.19624e-11 8.8619e-11 2.87321e-10)
(7.95969e-12 3.99736e-12 6.18592e-11)
(8.4514e-12 2.96285e-11 1.95594e-10)
(1.00559e-11 1.55614e-11 7.46823e-11)
(2.42404e-11 4.93069e-11 3.0545e-10)
(1.25536e-11 3.2258e-11 1.81324e-10)
(1.69838e-11 2.99385e-11 7.26274e-11)
(3.45135e-10 7.39322e-10 5.34297e-11)
(1.17577e-10 2.49444e-10 1.1577e-10)
(1.75128e-10 3.74812e-10 1.36995e-10)
(5.22664e-11 1.28553e-10 2.29191e-10)
(9.03269e-11 1.14539e-10 3.95398e-11)
(1.84986e-11 3.75796e-11 3.05168e-11)
(2.6467e-11 4.21828e-11 6.22612e-11)
(7.96677e-11 1.21939e-10 1.4133e-10)
(3.33201e-11 5.38182e-11 2.93321e-10)
(2.79954e-11 5.33685e-11 5.1643e-11)
(2.43648e-10 4.64654e-10 5.85021e-11)
(3.38786e-10 6.06831e-10 5.9892e-11)
(4.56843e-10 4.72805e-10 3.66856e-11)
(3.08371e-10 3.64465e-10 5.79995e-11)
(2.48521e-10 4.36365e-10 8.44907e-11)
(3.3688e-10 6.30212e-10 4.33335e-11)
(3.00681e-10 3.65122e-10 4.05793e-11)
(2.39941e-10 4.71858e-10 4.38998e-11)
(4.58342e-10 4.71406e-10 3.35571e-11)
(3.33311e-10 6.36174e-10 2.84023e-11)
(2.87697e-10 3.56578e-10 2.73704e-11)
(3.34423e-10 6.35434e-10 3.37819e-11)
(2.92586e-10 3.59363e-10 3.38744e-11)
(2.35056e-10 4.75549e-10 3.26248e-11)
(4.12788e-10 7.44827e-10 2.32906e-11)
(4.26376e-10 7.79637e-10 2.50776e-11)
(2.73584e-10 1.11432e-09 3.07168e-11)
(3.77533e-10 8.80443e-10 2.25049e-11)
(3.71657e-10 8.71403e-10 2.77948e-11)
(3.49912e-10 7.8431e-10 4.43314e-11)
(2.63918e-10 1.06816e-09 3.66511e-11)
(3.69369e-10 8.60954e-10 3.01052e-11)
(4.33455e-10 7.81748e-10 2.20074e-11)
(4.28376e-10 7.82866e-10 2.35636e-11)
(1.25097e-11 1.32169e-11 2.68967e-10)
(-7.18353e-12 -6.55983e-12 6.02641e-11)
(4.94957e-12 1.0788e-11 2.48967e-10)
(4.9447e-12 8.03357e-12 7.35019e-11)
(2.41012e-11 2.14751e-11 2.90304e-10)
(5.21194e-12 6.99722e-12 1.98619e-10)
(-2.44778e-12 -2.85502e-12 6.95451e-11)
(1.18274e-11 1.53805e-11 2.60818e-10)
(-5.22371e-12 -1.16973e-11 4.64199e-11)
(6.55389e-12 2.55373e-11 1.79731e-10)
(2.10441e-12 2.20556e-12 7.23267e-11)
(2.06842e-11 3.86563e-11 3.02091e-10)
(4.04397e-12 1.24816e-11 1.40623e-10)
(-3.24653e-12 -7.77497e-12 6.50494e-11)
(1.64943e-11 1.80766e-11 2.83922e-10)
(8.48565e-11 9.34396e-11 1.51447e-10)
(2.1415e-11 2.10913e-11 7.07965e-11)
(1.78441e-11 2.41739e-11 7.20905e-11)
(3.2633e-11 2.92413e-11 2.861e-10)
(3.0632e-11 4.38442e-11 2.97056e-10)
(7.09108e-12 7.35405e-12 7.45525e-11)
(3.46579e-10 2.87352e-10 4.52627e-11)
(3.36524e-10 2.79953e-10 3.44029e-11)
(2.29441e-10 1.83623e-10 1.88904e-11)
(5.3715e-11 4.77084e-11 9.84419e-12)
(2.26957e-10 1.84275e-10 2.49963e-11)
(3.24792e-10 2.69963e-10 2.39392e-11)
(3.3097e-10 2.74315e-10 3.02042e-11)
(2.20676e-10 1.89621e-10 5.25901e-11)
(5.65066e-11 4.72049e-11 1.20179e-11)
(2.40816e-10 1.92242e-10 2.56462e-11)
(-6.46126e-14 -1.83341e-13 -3.72948e-13)
(3.78438e-13 -8.54701e-14 5.16817e-12)
(-4.91335e-13 -1.55578e-14 -9.07684e-13)
(1.37454e-13 -4.82006e-16 4.92128e-12)
(-4.21167e-13 -3.35228e-14 -1.01837e-12)
(-4.6806e-13 -2.35292e-14 -8.6705e-13)
(1.16599e-12 -1.23723e-12 1.83431e-11)
(-1.17178e-12 -1.60184e-12 1.54519e-11)
(-2.03271e-12 -9.9452e-13 1.33586e-11)
(-5.24178e-12 -2.67467e-13 1.01431e-11)
(1.11087e-12 -5.60442e-13 3.80549e-12)
(-5.15392e-12 -6.64348e-13 1.05865e-11)
(-3.88047e-12 -1.55317e-12 1.30469e-11)
(1.41492e-12 -7.95255e-13 4.50413e-12)
(-5.03951e-12 -9.3899e-13 1.08667e-11)
(-7.5956e-13 -2.21755e-14 -1.74375e-12)
(-3.66504e-13 -4.20566e-13 2.39176e-12)
(-5.98777e-13 -1.95633e-14 -1.52884e-12)
(-4.02244e-13 -2.84063e-14 -1.08951e-12)
(-1.45005e-13 -5.67488e-13 2.98629e-12)
(-5.64987e-13 -3.3198e-14 -1.47523e-12)
(2.46977e-10 2.39389e-10 -1.14078e-12)
(2.55214e-10 2.43163e-10 -9.4351e-13)
(1.77513e-10 1.67741e-10 4.04406e-13)
(3.63352e-11 4.50911e-11 -6.60196e-13)
(1.75212e-10 1.66887e-10 -6.71374e-13)
(2.61101e-10 2.4581e-10 1.20349e-12)
(2.56892e-10 2.43874e-10 -1.94083e-13)
(1.67569e-10 1.63763e-10 -1.47183e-12)
(3.56646e-11 4.48845e-11 -2.96118e-13)
(1.72686e-10 1.65796e-10 -1.00588e-12)
(3.7662e-10 7.61264e-10 -8.68498e-13)
(3.82711e-10 7.60361e-10 1.29104e-12)
(3.40243e-10 8.92468e-10 9.86321e-13)
(2.57983e-10 1.1696e-09 8.43215e-14)
(3.33847e-10 8.80984e-10 8.1449e-13)
(3.9148e-10 7.69435e-10 3.30474e-12)
(3.84604e-10 7.59275e-10 1.63064e-12)
(3.26893e-10 8.86591e-10 -1.24848e-12)
(2.55424e-10 1.17113e-09 8.69681e-14)
(3.32078e-10 8.82253e-10 6.37687e-13)
(2.59422e-10 6.0846e-10 -3.19554e-12)
(2.10207e-10 3.21363e-10 -2.7038e-12)
(1.66537e-10 4.57296e-10 -4.32128e-12)
(3.74776e-10 7.62146e-10 -9.76224e-13)
(3.25216e-10 8.87838e-10 -1.58435e-12)
(2.45188e-10 2.38799e-10 -1.68831e-12)
(1.6489e-10 1.6279e-10 -1.42707e-12)
(3.51472e-12 1.50254e-11 4.19373e-11)
(1.54229e-11 -1.67622e-10 2.18815e-10)
(4.33257e-12 3.31506e-11 5.53665e-11)
(9.94596e-12 4.33736e-11 1.78357e-10)
(-1.04686e-11 6.82581e-12 6.0489e-11)
(-7.81857e-12 4.00242e-12 4.54996e-12)
(-1.3809e-11 7.66807e-12 1.2449e-12)
(-8.79435e-12 3.80389e-12 -1.10092e-11)
(-8.80209e-12 8.58107e-12 -7.12465e-12)
(-1.6289e-11 9.89966e-12 1.17297e-11)
(-3.05889e-12 -6.25032e-13 1.36018e-11)
(-9.77418e-12 8.15495e-12 9.64006e-11)
(-1.34886e-11 1.41072e-11 4.67763e-11)
(6.42788e-13 9.89157e-12 2.29036e-10)
(-1.86279e-11 1.1676e-11 4.20138e-11)
(-1.08216e-12 5.97486e-12 1.78585e-10)
(-6.69008e-12 1.24433e-11 1.50762e-10)
(-1.87057e-11 1.32405e-11 3.34613e-11)
(-1.03978e-11 8.98416e-12 7.43975e-11)
(-5.07658e-12 1.88497e-11 3.95935e-11)
(-1.62889e-11 1.10431e-11 6.84339e-12)
(-1.98142e-11 1.22525e-11 2.70426e-11)
(-8.94605e-12 1.11764e-11 3.03347e-12)
(-7.45894e-12 1.36885e-11 1.22922e-10)
(-1.92995e-11 1.22393e-11 1.94738e-11)
(1.82996e-11 3.95044e-11 -1.95988e-11)
(-1.45789e-12 8.06784e-12 -1.30544e-13)
(6.3491e-12 3.32901e-11 -1.30527e-11)
(4.45029e-12 1.06899e-11 8.1472e-12)
(6.30654e-11 5.48425e-11 5.42819e-11)
(1.02364e-13 2.45382e-11 3.31552e-11)
(-2.82631e-12 1.68189e-11 1.77249e-12)
(-1.43785e-12 2.03849e-11 1.31981e-11)
(3.77801e-12 3.19393e-11 2.07637e-13)
(3.5874e-11 4.45359e-11 5.76582e-11)
(7.39927e-12 1.50372e-11 1.71014e-10)
(-7.58995e-12 -4.94943e-12 5.24859e-11)
(1.44656e-12 1.02255e-11 2.33323e-10)
(-1.59348e-11 6.53253e-12 4.68676e-11)
(5.12478e-12 7.28847e-12 1.84771e-10)
(-4.3865e-12 1.43013e-11 1.61786e-10)
(-9.479e-12 5.47529e-13 4.58301e-11)
(1.95915e-11 2.28276e-11 1.21304e-10)
(1.3791e-11 4.70875e-12 2.89999e-11)
(1.15368e-10 3.88872e-11 6.33097e-11)
(1.14355e-11 1.60524e-11 2.33046e-11)
(5.08408e-11 4.31992e-11 6.82139e-11)
(5.04997e-11 2.04809e-11 9.37574e-11)
(1.50616e-12 6.54879e-12 3.15031e-11)
(-3.52488e-12 1.97151e-11 9.6362e-11)
(-5.9705e-13 2.21083e-11 5.03352e-11)
(-1.70088e-11 9.40519e-12 3.20592e-11)
(-3.03612e-12 1.34847e-11 2.22036e-11)
(-4.86897e-12 1.49149e-11 1.33765e-10)
(3.00375e-11 3.74209e-11 7.09695e-11)
(-1.04869e-11 7.19396e-12 3.31704e-11)
(8.4148e-12 9.65065e-11 1.23002e-10)
(-1.06355e-11 1.76025e-11 4.81343e-11)
(-1.52704e-12 2.23687e-12 2.12944e-11)
(1.55093e-11 5.373e-11 1.61815e-10)
(-3.11751e-12 4.27768e-12 1.97064e-11)
(6.43999e-12 9.19163e-11 1.1585e-10)
(6.76827e-14 1.26548e-12 1.86453e-11)
(-2.00544e-12 7.56909e-13 1.54587e-11)
(3.97447e-12 7.58883e-11 8.84545e-11)
(-2.2999e-12 3.31172e-12 1.82762e-11)
(1.57908e-12 -1.80793e-13 1.04423e-12)
(3.9828e-12 -1.42338e-12 1.32332e-11)
(3.28163e-12 -2.09841e-13 2.1886e-12)
(4.39189e-12 -1.00135e-12 1.36475e-11)
(4.37066e-12 4.20096e-14 4.02329e-12)
(5.02997e-12 -2.80512e-13 3.676e-12)
(-1.79641e-12 2.1653e-11 7.74273e-11)
(-2.49926e-12 -7.50492e-12 3.198e-11)
(-2.26235e-12 1.12181e-11 1.02848e-10)
(-4.64129e-12 5.76904e-12 3.06775e-11)
(3.45222e-12 1.35121e-11 1.27292e-10)
(-2.21306e-12 3.45507e-11 9.49792e-11)
(-2.48035e-12 1.89914e-12 2.5469e-11)
(4.68859e-12 3.21157e-11 5.74193e-11)
(5.04075e-12 -4.34411e-12 9.91999e-12)
(2.11947e-11 8.99573e-12 5.97611e-11)
(5.40982e-13 -2.01026e-12 9.79548e-12)
(3.02126e-12 4.16109e-11 5.86519e-11)
(-1.815e-12 8.89404e-13 1.34673e-11)
(1.93281e-12 6.66494e-13 2.85221e-12)
(2.69755e-12 7.10958e-11 8.16147e-11)
(-4.47093e-13 -1.41487e-12 9.38732e-12)
(8.42684e-11 2.06749e-11 7.08843e-11)
(2.46891e-11 4.24878e-12 2.64796e-11)
(1.30768e-10 2.79113e-11 6.66868e-11)
(6.14362e-11 -2.96699e-12 -6.41006e-12)
(6.277e-11 1.76667e-11 5.84278e-11)
(1.77466e-10 1.91033e-11 2.28745e-11)
(3.24376e-11 8.17219e-13 2.30558e-11)
(6.89482e-11 1.92025e-11 6.05848e-11)
(6.85404e-12 -4.85765e-12 1.04948e-11)
(2.95481e-11 9.8722e-12 5.94659e-11)
(1.44855e-11 -1.23703e-12 1.15262e-11)
(9.0023e-11 2.32553e-11 5.7429e-11)
(6.25934e-11 -5.08581e-12 -7.85787e-12)
(1.89848e-10 2.19353e-11 -2.25813e-12)
(3.92007e-11 -6.10378e-12 1.93014e-11)
(2.14824e-10 4.79568e-10 1.23806e-11)
(4.43355e-10 4.53293e-10 2.01771e-11)
(3.04728e-10 6.45113e-10 1.24735e-11)
(2.49708e-10 3.42824e-10 6.20118e-12)
(2.03125e-10 4.8211e-10 7.8471e-12)
(3.17395e-10 6.40854e-10 1.57605e-11)
(2.6453e-10 3.48517e-10 1.04096e-11)
(2.23814e-10 4.77334e-10 1.77776e-11)
(4.48258e-10 4.55847e-10 2.1126e-11)
(3.32218e-10 6.35229e-10 2.32194e-11)
(2.83252e-10 3.54363e-10 2.18385e-11)
(2.3073e-10 4.75634e-10 2.47116e-11)
(3.2745e-10 6.37176e-10 2.0213e-11)
(2.75453e-10 3.52045e-10 1.50658e-11)
(2.76133e-10 2.49644e-10 6.06921e-12)
(2.62863e-10 2.4437e-10 5.11768e-12)
(1.77376e-10 1.67194e-10 1.13919e-12)
(3.91784e-11 4.52988e-11 8.76638e-13)
(1.78477e-10 1.66259e-10 2.04078e-12)
(2.61318e-10 2.4574e-10 2.23782e-12)
(2.6205e-10 2.44629e-10 3.99529e-12)
(1.87738e-10 1.68278e-10 3.60809e-12)
(4.03614e-11 4.54049e-11 7.20365e-13)
(1.7965e-10 1.65307e-10 2.9634e-12)
(4.18404e-10 8.14654e-10 1.12858e-11)
(4.07758e-10 8.08069e-10 6.39211e-12)
(3.4285e-10 8.99597e-10 1.0842e-12)
(2.7415e-10 1.22126e-09 -5.77556e-13)
(3.52762e-10 9.30852e-10 3.17926e-12)
(3.94177e-10 7.75108e-10 3.56059e-12)
(4.03954e-10 8.00081e-10 5.80422e-12)
(3.66071e-10 9.43906e-10 1.17409e-11)
(2.81111e-10 1.24058e-09 3.6306e-12)
(3.56318e-10 9.3973e-10 4.26416e-12)
(4.21811e-10 8.09475e-10 1.22251e-11)
(4.30905e-10 7.90163e-10 1.63641e-11)
(3.78668e-10 8.79144e-10 2.13945e-11)
(2.88814e-10 1.14759e-09 2.31282e-11)
(3.78073e-10 8.9075e-10 1.97117e-11)
(4.34277e-10 7.80502e-10 2.08711e-11)
(4.33405e-10 7.85803e-10 1.75507e-11)
(3.68978e-10 9.36727e-10 1.35485e-11)
(2.89097e-10 1.18148e-09 2.32364e-11)
(3.76061e-10 9.00644e-10 1.87932e-11)
(2.81447e-10 2.51771e-10 7.61353e-12)
(3.0471e-10 2.62554e-10 1.16633e-11)
(2.2621e-10 1.82651e-10 1.51979e-11)
(5.01683e-11 4.72412e-11 3.58561e-12)
(2.18923e-10 1.80332e-10 1.05811e-11)
(3.22509e-10 2.688e-10 2.08316e-11)
(3.09905e-10 2.64408e-10 1.40922e-11)
(1.96059e-10 1.71592e-10 5.17352e-12)
(4.72436e-11 4.68865e-11 2.83603e-12)
(2.09772e-10 1.77611e-10 7.60465e-12)
(-5.45714e-13 -2.01173e-12 3.48089e-11)
(-1.59452e-12 -5.19986e-13 3.29037e-11)
(5.16683e-13 -3.47323e-13 1.7057e-11)
(-2.47945e-12 -1.85366e-13 1.18626e-11)
(-2.43208e-12 -2.20602e-13 1.21338e-11)
(-5.24765e-12 -2.53669e-13 1.00573e-11)
(2.91042e-13 -1.18965e-13 2.41219e-12)
(-5.28498e-12 -1.8069e-13 9.75419e-12)
(-5.31739e-12 -1.50744e-13 9.43334e-12)
(2.24155e-13 -1.12119e-13 2.28167e-12)
(-5.28967e-12 -1.90084e-13 9.68268e-12)
(-9.75513e-13 -2.39128e-15 -2.02886e-12)
(-8.01082e-13 -8.90277e-15 -1.7964e-12)
(-9.57848e-13 -1.11166e-13 1.0397e-12)
(-8.59396e-13 -1.24394e-14 -1.89599e-12)
(-1.02464e-12 -8.01648e-14 9.00704e-13)
(-9.46511e-13 -1.35611e-14 -1.99692e-12)
(-8.82184e-13 -2.40194e-15 -1.92244e-12)
(2.22907e-13 1.04585e-12 2.1149e-12)
(-1.58576e-12 -7.67932e-14 -7.44178e-13)
(2.91714e-13 8.8436e-13 6.98545e-13)
(-4.47994e-13 2.7638e-13 -4.12207e-12)
(8.67588e-13 2.2713e-12 2.89523e-12)
(-1.26203e-12 -7.03897e-14 7.58446e-13)
(-1.24073e-12 -1.90626e-14 -2.44394e-12)
(-7.18977e-13 1.16514e-12 -4.99464e-12)
(1.67586e-13 -7.6417e-15 -1.74667e-12)
(7.20036e-13 6.39282e-13 -1.08259e-12)
(-1.45713e-12 -3.25954e-13 -1.12775e-11)
(3.98029e-13 1.06749e-12 -3.61773e-12)
(8.26908e-13 7.90902e-13 -1.78965e-12)
(-2.02448e-12 -3.23213e-14 -8.73077e-12)
(6.78205e-12 5.99374e-11 1.31844e-10)
(6.2531e-13 1.53309e-11 4.81106e-11)
(1.33738e-12 6.40464e-11 1.3626e-10)
(-4.55565e-13 1.1311e-11 4.99464e-11)
(-3.66889e-12 3.90095e-11 1.43036e-10)
(1.19363e-11 5.03729e-11 1.41987e-10)
(-9.26127e-13 1.50363e-11 4.35621e-11)
(3.35597e-10 4.42512e-10 9.16335e-11)
(4.33116e-10 5.6447e-10 4.6908e-11)
(4.503e-10 4.79369e-10 1.21335e-11)
(4.16306e-10 4.43767e-10 4.93077e-11)
(4.02826e-10 4.24373e-10 4.92343e-11)
(4.13271e-10 5.3194e-10 3.57781e-11)
(3.62567e-10 4.86417e-10 6.31036e-11)
(4.60713e-11 1.52041e-10 1.22094e-10)
(1.78212e-11 4.60107e-11 4.32189e-11)
(1.08547e-10 2.83328e-10 1.18809e-10)
(2.02964e-11 4.83485e-11 3.75762e-11)
(5.64199e-11 1.4043e-10 1.36887e-10)
(9.3871e-11 1.52525e-10 1.07009e-10)
(1.23938e-11 4.23621e-11 3.86181e-11)
(-8.26629e-13 -1.16928e-12 3.45806e-12)
(2.00944e-12 -6.49328e-13 8.27039e-12)
(-1.28156e-12 -7.47554e-13 2.47994e-12)
(1.54258e-12 -3.10406e-13 7.45271e-12)
(-7.64823e-13 -1.1857e-12 3.17694e-12)
(-1.25092e-12 -6.80228e-13 2.68577e-12)
(2.75106e-10 4.51977e-10 -1.5326e-12)
(3.78107e-10 4.14628e-10 1.64979e-12)
(3.51919e-10 5.04809e-10 -3.1608e-13)
(3.02958e-10 3.61005e-10 -6.23478e-13)
(3.06709e-10 3.63277e-10 3.20658e-13)
(3.55646e-10 5.06812e-10 7.94585e-14)
(2.72184e-10 4.50825e-10 -1.76489e-12)
(2.87091e-10 4.58503e-10 7.91931e-13)
(3.91155e-10 4.21999e-10 3.51216e-12)
(3.21399e-10 3.71654e-10 3.1144e-12)
(3.70508e-10 5.16064e-10 3.47351e-12)
(2.88117e-10 4.60251e-10 1.53046e-12)
(3.19974e-10 3.70047e-10 1.89789e-12)
(3.67887e-10 5.13197e-10 2.69931e-12)
(2.78797e-11 4.92151e-11 4.18314e-11)
(8.94641e-11 1.49059e-10 1.31583e-10)
(-1.32574e-11 2.68084e-11 -4.23317e-12)
(-4.81546e-12 2.49615e-11 -2.35302e-12)
(-2.96687e-12 9.91907e-12 -9.18307e-13)
(-5.37173e-12 2.62547e-11 -2.17761e-12)
(-6.93073e-12 9.9002e-12 -5.63997e-13)
(-4.64049e-14 -1.44385e-12 4.94041e-12)
(3.72391e-12 -1.84358e-12 1.21136e-11)
(1.21414e-12 -1.46218e-12 6.89381e-12)
(4.61063e-12 -1.66955e-12 1.35492e-11)
(7.93896e-12 1.22622e-14 1.9791e-11)
(3.86783e-12 -5.5432e-13 8.30515e-12)
(2.9772e-10 4.75684e-10 7.12487e-12)
(4.05928e-10 4.30674e-10 1.25163e-11)
(3.90226e-10 5.38429e-10 1.10853e-11)
(3.35299e-10 3.8078e-10 1.10164e-11)
(3.03683e-10 4.78007e-10 7.90452e-12)
(3.27851e-10 3.76181e-10 9.11165e-12)
(3.82793e-10 5.33793e-10 1.03435e-11)
(2.88819e-10 4.6438e-10 3.14514e-12)
(3.95822e-10 4.25373e-10 5.78503e-12)
(3.20846e-10 3.71254e-10 3.33252e-12)
(3.7098e-10 5.18284e-10 4.14182e-12)
(2.8868e-10 4.62305e-10 2.30839e-12)
(3.21337e-10 3.72508e-10 4.8069e-12)
(3.72702e-10 5.20786e-10 5.10846e-12)
(-3.53772e-12 -1.39181e-13 -5.10085e-12)
(7.38987e-14 -1.04758e-13 1.84482e-12)
(-3.59482e-12 -1.48495e-13 -5.3575e-12)
(4.48254e-10 3.93487e-10 4.70414e-11)
(4.40546e-10 3.87455e-10 1.82674e-11)
(4.765e-10 6.15636e-10 2.99063e-11)
(4.58263e-10 5.88863e-10 -1.05926e-11)
(3.63076e-10 4.95988e-10 4.45064e-11)
(4.40295e-10 5.76544e-10 3.24764e-11)
(4.60973e-10 4.81939e-10 4.01621e-11)
(4.12515e-10 4.36238e-10 3.8918e-11)
(3.65477e-10 4.93052e-10 5.15377e-11)
(4.29261e-10 5.61771e-10 3.61303e-11)
(4.02696e-10 4.25433e-10 3.99544e-11)
(3.50306e-10 4.90778e-10 2.8704e-11)
(4.56218e-10 4.64318e-10 2.92009e-11)
(4.27776e-10 5.51404e-10 2.64686e-11)
(3.86654e-10 4.05684e-10 2.70148e-11)
(4.28094e-10 5.53234e-10 2.74824e-11)
(3.88118e-10 4.0814e-10 2.93357e-11)
(3.49916e-10 4.89611e-10 2.68492e-11)
(4.9675e-10 6.31804e-10 2.33376e-11)
(4.87312e-10 6.18615e-10 3.24483e-11)
(4.98749e-10 6.09086e-10 2.53561e-11)
(4.97567e-10 6.10219e-10 2.66841e-11)
(4.43293e-10 3.83816e-10 4.22868e-11)
(4.35277e-10 3.74953e-10 4.44681e-11)
(4.15102e-10 3.5088e-10 2.76647e-11)
(4.17425e-10 3.54114e-10 3.02685e-11)
(-8.06345e-13 -5.66204e-13 1.68446e-12)
(5.85683e-13 -4.82295e-13 5.6798e-12)
(-8.41564e-13 -3.06707e-13 1.66073e-12)
(2.03986e-13 -1.87421e-13 5.06884e-12)
(-1.05651e-12 -3.14151e-13 1.37143e-12)
(-1.0075e-12 -1.84895e-13 1.33459e-12)
(-3.21373e-12 -1.96972e-13 -4.68298e-12)
(7.58715e-13 -3.06226e-13 3.11807e-12)
(-3.1266e-12 -2.57319e-13 -4.73373e-12)
(-1.69411e-12 -1.54442e-12 -2.26164e-13)
(2.01095e-12 -1.05553e-12 6.68033e-12)
(-1.84205e-12 -1.55346e-12 -1.59606e-12)
(-2.03229e-12 -1.42734e-13 -1.59102e-12)
(-5.8328e-13 -2.75542e-13 1.78756e-12)
(-1.93749e-12 -1.64272e-13 -1.4061e-12)
(-1.35028e-12 -3.69382e-13 5.29615e-13)
(2.80207e-13 -6.48069e-13 4.49737e-12)