/*--------------------------------*- C++ -*----------------------------------*\
| =========                 |                                                 |
| \\      /  F ield         | OpenFOAM: The Open Source CFD Toolbox           |
|  \\    /   O peration     | Version:  2012                                  |
|   \\  /    A nd           | Website:  www.openfoam.com                      |
|    \\/     M anipulation  |                                                 |
\*---------------------------------------------------------------------------*/
FoamFile
{
    version     2.0;
    format      ascii;
    class       volScalarField;
    location    "0.106/solid";
    object      epsilonEq;
}
// * * * * * * * * * * * * * * * * * * * * * * * * * * * * * * * * * * * * * //

dimensions      [0 0 0 0 0 0 0];


internalField   nonuniform List<scalar> 
3124
(
6.30915e-09
3.45323e-10
4.86995e-09
1.77153e-08
4.61533e-09
5.84697e-10
4.99843e-09
1.81016e-08
4.83369e-09
4.15814e-09
9.71251e-09
1.72892e-08
4.69627e-09
3.70014e-09
3.56413e-09
4.48389e-09
6.88587e-09
3.31382e-09
3.75735e-09
1.76666e-08
3.92174e-09
3.91393e-09
3.68321e-09
6.6636e-09
5.82843e-09
1.15917e-08
1.11847e-08
1.30612e-08
7.45718e-09
1.00756e-08
8.3587e-10
4.56518e-09
8.1231e-10
5.30263e-09
1.02555e-08
1.87199e-08
1.76011e-08
5.55889e-09
1.88597e-08
1.01067e-08
1.23453e-08
5.77525e-09
1.69805e-09
1.78937e-09
2.09266e-09
6.59927e-09
1.14903e-09
3.58391e-09
5.6361e-09
1.836e-08
1.03928e-08
1.91313e-08
5.51258e-09
1.98796e-08
1.05847e-08
4.85758e-09
3.79427e-09
3.53698e-09
7.12893e-10
3.24669e-09
1.18626e-08
8.90952e-09
9.74684e-09
9.49887e-09
9.87916e-09
1.60327e-08
1.03706e-08
7.36722e-09
1.56803e-08
1.69832e-08
1.16597e-08
1.50751e-08
5.8955e-09
1.2068e-08
1.13356e-08
1.07642e-08
1.20675e-08
9.0124e-09
1.19648e-08
9.65876e-09
1.01622e-08
9.03407e-10
9.19218e-10
4.38109e-09
6.30789e-10
6.35301e-10
4.52519e-10
7.66029e-10
7.60139e-09
7.26796e-09
1.27285e-08
1.27912e-08
5.30607e-09
1.76093e-08
1.89997e-08
9.99211e-09
1.28347e-08
7.15854e-09
1.07584e-08
1.26966e-08
1.32562e-09
9.916e-09
2.84766e-09
1.7991e-09
2.28296e-09
1.02843e-08
4.27761e-09
3.35385e-09
6.98876e-09
5.97343e-09
3.95996e-09
1.18209e-09
3.61671e-09
5.06117e-09
3.61808e-09
5.05129e-09
5.64957e-09
1.80849e-08
1.69536e-08
1.13465e-08
6.05814e-09
1.92272e-08
1.09668e-08
7.63425e-09
8.06339e-09
1.29398e-08
1.33915e-08
1.15065e-08
1.30443e-08
9.59711e-09
8.42237e-09
4.36373e-09
3.8255e-09
3.553e-09
6.42332e-10
7.024e-10
5.76232e-10
4.76937e-10
5.62997e-10
2.12808e-08
1.34417e-09
7.46061e-10
4.04894e-09
4.88495e-09
4.2886e-09
4.55147e-09
2.05333e-09
8.75826e-10
6.77809e-10
2.1486e-09
5.51311e-09
3.99529e-09
4.35236e-09
5.03724e-09
7.03952e-09
3.51737e-09
7.55788e-09
6.42675e-09
8.32719e-09
6.88171e-09
5.47056e-09
1.67545e-08
1.48795e-08
1.27215e-08
9.80077e-09
1.23889e-08
1.09788e-08
1.26402e-08
1.14512e-08
3.60606e-09
7.52307e-09
5.90296e-09
7.69115e-09
5.14706e-09
9.51766e-09
3.77647e-09
2.98429e-09
3.05756e-09
1.45825e-08
1.24059e-08
1.14603e-08
3.48847e-09
2.41788e-09
6.27808e-09
5.90628e-09
7.18496e-09
4.25754e-09
2.66148e-09
6.128e-09
3.60158e-09
6.40698e-09
4.63641e-09
6.82894e-09
3.95027e-09
5.92652e-09
2.17655e-09
3.21032e-09
3.73585e-09
2.75551e-09
4.48725e-09
2.69715e-09
2.59019e-09
2.88789e-09
3.2451e-09
4.14873e-09
3.28062e-09
4.07449e-09
2.49508e-09
3.84985e-09
3.93129e-09
3.89208e-09
3.63801e-09
2.96745e-09
2.91516e-09
1.18732e-08
1.09942e-08
2.26498e-08
9.32858e-09
1.24955e-08
1.35039e-08
1.14341e-08
8.91082e-09
1.97345e-08
6.22694e-09
7.65006e-09
9.10072e-09
1.06249e-08
7.78545e-09
3.32872e-09
3.3753e-09
6.06798e-10
3.45349e-09
4.87497e-09
3.87823e-09
4.25403e-09
6.91449e-10
3.08142e-09
3.42639e-09
1.10624e-08
5.46718e-09
9.2518e-09
6.7177e-09
6.74431e-09
9.14968e-09
1.1121e-08
1.10453e-08
5.45533e-09
6.82556e-09
9.14022e-09
1.11441e-08
6.78627e-09
9.08084e-09
4.72165e-09
2.87228e-09
1.41974e-09
2.48001e-09
2.54766e-09
1.94575e-09
2.46507e-09
5.85925e-09
2.78057e-09
2.22591e-09
1.79354e-09
1.52854e-09
2.2662e-09
2.45518e-09
1.52046e-09
2.25476e-09
1.86141e-09
1.33391e-09
2.07671e-09
2.41638e-09
5.64177e-09
5.20422e-09
4.52213e-09
3.33645e-09
2.4599e-09
3.43453e-09
4.31833e-09
2.6652e-09
3.52277e-09
1.17816e-08
5.48116e-09
1.00582e-08
7.05083e-09
1.17958e-08
6.99399e-09
1.00327e-08
1.16172e-08
5.52562e-09
6.88854e-09
9.38155e-09
1.13479e-08
6.94107e-09
9.73016e-09
5.11505e-09
3.76588e-09
3.50196e-09
2.8335e-09
2.04961e-09
7.78429e-09
1.33332e-08
2.34483e-08
2.6068e-09
4.18788e-09
4.69682e-09
1.01941e-08
4.41172e-09
6.01142e-09
9.86199e-09
1.0255e-08
1.16513e-08
1.28016e-08
1.42124e-08
9.32985e-09
1.03361e-08
2.29068e-08
2.43291e-08
5.5438e-09
1.15018e-08
9.55185e-09
1.46368e-08
7.85976e-09
7.3699e-09
6.10112e-09
1.85354e-08
8.55189e-09
1.61035e-08
2.25782e-08
1.50375e-08
2.08849e-08
7.873e-09
1.48164e-08
7.89099e-08
1.15131e-08
1.64638e-08
9.88507e-09
9.71721e-09
1.3812e-08
1.48479e-08
1.0977e-08
1.32841e-08
8.98783e-09
3.03234e-08
1.7446e-08
1.89908e-08
2.74602e-08
9.15728e-09
1.32423e-08
1.44573e-08
1.55806e-08
1.21349e-08
1.11802e-08
1.00974e-08
5.91373e-09
8.52161e-09
1.12387e-08
9.26438e-09
7.57336e-09
1.10359e-08
6.16308e-09
8.89021e-09
7.16014e-09
9.06643e-09
7.26033e-09
1.09052e-08
8.8533e-09
7.81459e-09
1.11679e-08
9.05252e-09
9.02399e-09
9.40822e-09
1.07388e-08
8.87748e-09
7.98284e-09
8.00016e-09
1.29697e-08
1.0479e-08
1.17857e-08
1.35963e-08
1.4296e-08
9.14191e-09
1.25185e-08
1.24773e-08
7.36031e-09
9.1706e-09
1.31295e-08
1.45737e-08
5.92316e-09
1.14851e-08
1.3734e-08
2.36348e-08
1.36491e-08
1.39222e-08
1.47596e-08
1.50593e-08
1.38016e-08
8.99517e-09
7.2033e-09
6.92484e-09
9.74249e-09
7.36243e-09
7.07285e-09
7.24058e-09
8.78453e-09
9.90952e-09
6.77259e-09
9.55344e-10
7.29784e-10
1.39355e-09
7.68907e-10
1.39769e-09
1.34549e-09
3.84253e-09
3.67049e-09
3.13148e-09
2.1757e-09
5.87645e-10
2.23458e-09
2.86657e-09
5.39796e-10
2.30261e-09
1.96078e-09
4.02065e-10
1.80433e-09
1.47328e-09
4.27382e-10
1.75647e-09
5.95506e-09
6.08521e-09
6.25011e-09
7.53066e-09
6.2143e-09
6.22035e-09
6.15469e-09
6.12527e-09
7.41674e-09
6.12827e-09
8.47043e-09
8.37567e-09
9.95153e-09
1.26708e-08
9.88238e-09
8.48164e-09
8.43354e-09
1.00737e-08
1.27056e-08
9.8905e-09
9.31796e-09
6.70269e-09
1.11824e-08
8.44813e-09
1.00835e-08
5.89402e-09
6.02693e-09
1.51311e-08
7.87909e-08
1.15369e-08
3.53801e-09
2.41345e-09
1.44027e-09
2.00903e-09
1.63416e-09
1.41543e-09
2.51797e-09
1.46475e-09
4.17983e-09
8.4174e-09
1.07258e-08
7.52855e-09
8.14862e-09
6.81234e-09
5.9868e-09
3.06796e-09
1.92749e-09
2.28983e-09
4.92006e-09
1.01526e-09
5.41328e-09
3.70795e-09
2.46236e-09
2.1002e-09
2.22116e-09
2.99105e-09
4.76428e-09
1.7698e-09
1.95208e-09
2.29004e-09
1.87205e-09
3.3432e-09
7.83223e-09
8.88952e-09
1.09177e-08
8.23726e-09
8.23624e-09
7.29427e-09
7.61304e-09
5.09161e-09
4.24371e-09
6.28757e-09
3.84938e-09
4.46426e-09
3.74923e-09
4.60542e-09
5.10514e-09
2.12042e-09
5.53125e-09
3.3846e-09
5.87634e-09
3.48393e-09
5.21908e-09
4.30429e-09
9.28863e-09
5.31527e-09
5.38791e-09
5.35868e-09
3.91516e-09
4.57235e-09
3.54027e-09
2.808e-09
4.93562e-09
6.08777e-10
2.75208e-09
1.87825e-09
3.03628e-09
2.98594e-09
3.08663e-09
2.50296e-09
4.30272e-09
5.14035e-09
3.66748e-09
5.14463e-09
3.18729e-09
2.96847e-09
1.35426e-09
2.82679e-09
2.06893e-09
2.07683e-09
1.59048e-09
3.19234e-09
1.87329e-09
2.60864e-09
2.14929e-09
3.05435e-09
4.32123e-09
6.0576e-09
6.52254e-09
3.62943e-09
5.08887e-09
4.52584e-09
2.80969e-09
3.10824e-09
2.14853e-09
4.26461e-09
3.24965e-09
7.06597e-09
6.66757e-09
4.82898e-09
1.13197e-08
5.96692e-09
9.77718e-09
7.10337e-09
1.15879e-08
9.33829e-09
7.20083e-09
1.10343e-08
5.94969e-09
8.83133e-09
7.23869e-09
1.09254e-08
8.95805e-09
7.24381e-09
6.25131e-09
6.08962e-09
6.32485e-09
7.68614e-09
6.37211e-09
6.21604e-09
6.11204e-09
6.53791e-09
7.79789e-09
6.51802e-09
8.9489e-09
8.89884e-09
1.00305e-08
1.32403e-08
1.0609e-08
8.54204e-09
8.93594e-09
1.07274e-08
1.34153e-08
1.06881e-08
8.93039e-09
8.48319e-09
9.10642e-09
1.18666e-08
9.44723e-09
8.09737e-09
8.30665e-09
1.0606e-08
1.24546e-08
9.69315e-09
6.43149e-09
6.85786e-09
6.97489e-09
9.29878e-09
6.9021e-09
7.12031e-09
7.00734e-09
6.75055e-09
8.89882e-09
6.76636e-09
4.03206e-09
3.86017e-09
3.61932e-09
2.84881e-09
2.89803e-09
2.16193e-09
6.66879e-10
2.11543e-09
2.06176e-09
6.74484e-10
2.10201e-09
2.13626e-09
1.99947e-09
5.22087e-10
2.06109e-09
5.34022e-10
2.11597e-09
2.07533e-09
4.7109e-10
1.90823e-10
2.50415e-10
9.08788e-10
5.11237e-10
3.23226e-10
6.00418e-10
1.02696e-09
7.63546e-10
6.40706e-10
1.39907e-09
8.60685e-10
9.02769e-10
1.23505e-09
5.25464e-09
6.75962e-09
5.97799e-09
7.04595e-09
6.73036e-09
5.91272e-09
6.28501e-09
1.09946e-08
7.41721e-09
9.44913e-09
7.05022e-09
8.33212e-09
9.01426e-09
9.41478e-09
9.85984e-09
9.72806e-09
1.32642e-08
9.18912e-09
1.18131e-08
1.16841e-08
8.91253e-09
8.81548e-10
7.01142e-10
7.19037e-10
7.90735e-10
6.76387e-10
7.97012e-10
7.55839e-09
5.37665e-09
6.36407e-09
6.04094e-09
6.03808e-09
6.34709e-09
7.57348e-09
7.51482e-09
5.48696e-09
6.18072e-09
6.47778e-09
7.60759e-09
6.18998e-09
6.46914e-09
1.02794e-08
1.25953e-08
1.93362e-09
1.71811e-09
2.22686e-09
1.71072e-09
2.17391e-09
1.11951e-09
1.59078e-09
1.36911e-09
3.02775e-09
3.14772e-09
2.20034e-09
8.09845e-09
5.48872e-09
6.74154e-09
6.35513e-09
8.13356e-09
6.32292e-09
6.75435e-09
7.77357e-09
5.5457e-09
6.24313e-09
6.52861e-09
7.65917e-09
6.19771e-09
6.53789e-09
7.83789e-10
7.32837e-10
8.12695e-10
5.43068e-09
8.30197e-09
7.15266e-09
1.08247e-08
8.34364e-09
7.89821e-09
6.22595e-09
7.79472e-09
9.34475e-09
7.50981e-09
7.17367e-09
7.60437e-09
5.99231e-09
6.75424e-09
6.61996e-09
6.76303e-09
6.53377e-09
7.56213e-09
9.2792e-09
7.33922e-09
7.17525e-09
7.19238e-09
6.90098e-09
6.06341e-09
5.56667e-09
5.66742e-09
3.44922e-10
8.1695e-10
3.71413e-10
8.7254e-10
3.90207e-10
3.62041e-10
7.05338e-10
6.34889e-10
7.14655e-10
4.23361e-10
5.16736e-10
2.17499e-10
1.09972e-09
4.23775e-10
1.04105e-09
4.92545e-10
6.51081e-10
5.75804e-10
4.8936e-09
4.94164e-09
5.12289e-09
5.0748e-09
6.61874e-09
6.69999e-09
6.84241e-09
6.77974e-09
7.58384e-09
6.31036e-09
5.22241e-09
5.97982e-09
7.60308e-09
6.29959e-09
5.9662e-09
6.63185e-09
6.5496e-09
4.86955e-09
4.80467e-09
1.55127e-09
1.60271e-09
2.12184e-09
1.53924e-09
1.82049e-09
3.45736e-09
3.73035e-09
4.5736e-09
6.58234e-09
5.94633e-09
4.62663e-09
6.53657e-09
3.93477e-09
5.54236e-09
3.93939e-09
3.81148e-09
4.05876e-09
4.0099e-10
1.62863e-09
6.90249e-10
3.48825e-09
2.6154e-09
2.46551e-09
3.49837e-09
2.8213e-09
2.88736e-09
7.99827e-09
5.816e-09
6.84847e-09
6.46403e-09
8.02591e-09
6.78091e-09
6.48268e-09
7.57819e-09
5.94717e-09
6.77234e-09
6.58466e-09
7.61258e-09
6.79387e-09
6.65634e-09
5.15609e-09
5.02801e-09
5.06988e-09
5.09223e-09
7.18926e-09
7.0009e-09
6.86727e-09
6.87807e-09
7.09052e-09
7.3101e-09
7.19474e-09
7.13775e-09
5.21435e-09
5.34966e-09
5.71488e-09
5.62617e-09
7.11666e-10
6.58002e-10
7.34876e-10
7.74767e-10
7.02101e-10
7.78627e-10
5.76581e-10
1.27735e-09
1.26597e-09
1.14276e-09
4.84319e-10
1.14262e-09
5.4424e-10
1.25855e-09
1.22603e-09
3.53268e-10
1.48788e-09
1.74758e-09
7.25881e-10
5.5544e-10
3.23659e-10
3.07411e-10
8.35291e-10
4.68373e-09
4.77236e-09
4.03492e-09
4.16503e-09
4.76919e-09
4.20683e-09
4.70401e-09
4.73824e-09
4.36416e-09
4.2598e-09
4.73178e-09
4.33476e-09
4.74944e-09
4.7163e-09
4.30269e-09
4.1847e-09
4.3714e-09
4.18087e-09
3.76612e-09
6.12167e-09
5.41776e-09
7.60107e-10
3.44195e-10
6.88388e-10
4.24796e-10
1.63715e-09
5.68402e-10
2.29421e-09
2.15835e-09
3.35889e-09
1.84614e-09
1.50628e-09
2.3997e-09
3.09849e-09
1.31048e-09
2.07151e-09
3.72768e-09
2.01053e-09
5.39673e-09
4.97191e-09
3.90951e-09
4.05733e-09
5.02689e-09
3.95559e-09
5.25132e-09
5.69979e-09
4.28132e-09
5.73654e-09
4.19298e-09
5.94582e-09
4.10308e-09
5.51486e-09
4.42087e-09
4.61419e-09
4.87562e-09
4.86834e-09
7.18202e-09
9.69532e-09
7.63482e-09
6.12466e-09
6.14394e-09
8.57462e-09
7.52499e-09
5.39002e-09
6.21441e-09
5.76588e-09
6.53415e-09
5.24413e-09
5.89694e-09
6.2573e-09
7.31505e-09
8.56067e-09
8.1332e-09
6.95665e-09
7.08647e-09
8.55677e-09
7.08879e-09
5.11886e-09
6.25858e-09
4.74434e-09
6.05429e-09
4.62501e-09
5.74368e-09
5.79681e-09
1.61998e-08
1.51037e-08
1.69039e-08
1.5313e-08
1.43534e-08
2.05834e-08
1.46409e-08
8.29156e-09
1.01712e-08
9.11539e-09
1.11849e-08
7.97022e-09
1.00751e-08
9.35083e-09
5.12007e-09
3.9256e-09
4.76057e-09
3.86338e-09
4.67994e-09
4.12114e-09
5.33402e-09
7.17705e-09
8.92742e-09
6.04628e-09
7.71804e-09
6.37694e-09
6.96714e-09
8.72872e-09
5.96843e-09
6.88729e-09
4.35504e-09
5.51536e-09
4.73616e-09
6.02628e-09
6.79591e-09
3.64201e-09
3.58232e-09
2.99232e-09
2.99788e-09
3.61859e-09
3.013e-09
3.5972e-09
3.65454e-09
3.06675e-09
3.66672e-09
3.02124e-09
3.70195e-09
3.02458e-09
3.625e-09
4.26196e-09
4.82001e-09
3.67202e-09
2.69646e-09
3.18325e-09
4.73659e-09
3.90423e-09
4.00474e-09
5.74396e-09
5.21276e-09
5.01949e-09
4.68654e-09
4.43242e-09
4.94967e-09
5.40719e-09
6.05301e-09
7.1591e-09
6.04746e-09
6.34412e-09
6.11773e-09
5.03693e-09
3.08102e-09
2.42367e-09
2.91382e-09
3.8907e-09
2.33598e-09
3.4792e-09
3.97011e-09
5.48361e-09
6.45276e-09
5.08201e-09
6.19885e-09
5.24599e-09
6.55811e-09
5.36772e-09
4.54588e-09
3.87111e-09
4.48023e-09
3.79071e-09
4.40689e-09
4.20014e-09
4.42473e-09
5.66288e-09
6.42809e-09
5.46558e-09
6.8944e-09
5.74442e-09
5.19755e-09
6.70191e-09
4.55686e-09
4.47923e-09
4.05497e-09
4.18744e-09
4.27818e-09
4.57313e-09
4.51571e-09
2.91111e-09
3.13497e-09
3.27564e-09
2.92635e-09
3.13034e-09
2.95588e-09
2.74784e-09
3.00593e-09
3.77383e-09
3.65748e-09
4.12788e-09
3.4877e-09
2.9623e-09
3.66129e-09
2.52133e-09
1.67538e-09
2.87759e-09
2.37499e-09
2.55729e-09
2.18516e-09
2.12645e-09
3.32022e-09
3.18263e-09
2.68941e-09
3.10258e-09
3.05898e-09
3.28077e-09
2.93374e-09
3.48637e-09
3.28406e-09
3.57717e-09
2.79851e-09
3.69978e-09
3.14919e-09
3.09295e-09
3.69363e-09
3.63776e-09
4.00582e-09
3.83399e-09
3.87294e-09
3.56042e-09
3.65863e-09
3.02223e-09
2.40773e-09
2.58828e-09
2.53587e-09
2.80771e-09
2.6522e-09
2.63326e-09
3.63997e-09
3.65224e-09
3.66961e-09
3.63493e-09
3.65776e-09
3.61442e-09
3.59781e-09
3.62981e-09
3.59022e-09
3.5641e-09
2.98498e-09
2.95103e-09
3.61445e-09
2.96097e-09
3.54977e-09
3.58317e-09
2.92353e-09
3.51575e-09
2.93134e-09
3.55931e-09
2.94922e-09
3.53024e-09
1.16001e-08
7.1919e-09
1.42568e-08
1.42273e-08
1.67995e-08
8.26443e-09
8.21067e-09
9.18441e-09
6.49808e-09
1.14314e-08
1.18406e-08
1.40883e-08
7.39686e-09
6.34872e-09
3.77999e-09
2.13837e-09
1.9121e-09
3.74198e-09
3.42464e-09
3.84494e-09
2.11393e-09
1.82542e-09
6.08022e-10
6.89698e-10
6.53392e-10
1.99298e-09
3.86253e-09
3.4544e-09
1.79254e-09
3.86869e-09
2.03453e-09
1.78358e-09
4.62997e-09
4.45275e-09
3.9078e-09
4.045e-09
4.09743e-09
4.4899e-09
4.58951e-09
4.71533e-09
4.32775e-09
4.71895e-09
4.17283e-09
4.75683e-09
4.23193e-09
4.67904e-09
7.82722e-10
8.1747e-10
8.48263e-10
1.90495e-09
1.58399e-09
3.42543e-09
3.23907e-09
3.59493e-09
1.91172e-09
1.73856e-09
2.08804e-09
3.80007e-09
1.83621e-09
3.3517e-09
2.08189e-09
3.70523e-09
1.81464e-09
7.51954e-09
5.36949e-09
6.09982e-09
6.39575e-09
7.53805e-09
6.07986e-09
6.39513e-09
7.52029e-09
5.52051e-09
6.15984e-09
6.45053e-09
7.51404e-09
6.14978e-09
6.42608e-09
9.63425e-09
4.04703e-09
4.25004e-09
4.9695e-09
2.79644e-09
2.36427e-09
2.20477e-09
2.34535e-09
2.66858e-09
2.81589e-09
2.55337e-09
2.94086e-09
5.51408e-09
2.79685e-09
4.24327e-09
4.06709e-09
3.60384e-09
3.45282e-09
2.40203e-09
3.44702e-09
2.09716e-09
2.77431e-09
3.15776e-09
2.40869e-09
2.15417e-09
2.55074e-09
2.19525e-09
2.64731e-09
2.21101e-09
2.09399e-09
1.89753e-09
2.77575e-09
1.79968e-09
2.4811e-09
2.78692e-09
1.94498e-09
1.61776e-09
1.58496e-09
1.54629e-09
2.09285e-09
1.65658e-09
1.66805e-09
2.54137e-09
2.74294e-09
2.25216e-09
2.35134e-09
2.98794e-09
2.42406e-09
2.62078e-09
2.02457e-09
2.02872e-09
1.78883e-09
2.62583e-09
1.64783e-09
2.36987e-09
2.10473e-09
1.92188e-09
1.77107e-09
1.30063e-09
1.79521e-09
1.82746e-09
2.09868e-09
1.53663e-09
1.9207e-09
1.60811e-09
2.8358e-09
2.00497e-09
2.34076e-09
1.82131e-09
1.93301e-09
6.57621e-09
6.60587e-09
5.64852e-09
5.02453e-09
4.98998e-09
7.27385e-09
6.40221e-09
6.41575e-09
4.45476e-09
5.92848e-09
4.7609e-09
6.12522e-09
4.79706e-09
6.14366e-09
2.27702e-09
2.01329e-09
3.68423e-09
3.33302e-09
3.63195e-09
2.35459e-09
2.06486e-09
2.06666e-09
1.61913e-09
1.53026e-09
2.25585e-09
3.80887e-09
3.37022e-09
2.01293e-09
3.70409e-09
2.23858e-09
2.05416e-09
2.5571e-09
3.20733e-09
5.08891e-09
4.01322e-09
4.37607e-09
3.72836e-09
2.5303e-09
2.94142e-09
1.68575e-09
1.88112e-09
2.43378e-09
3.87743e-09
3.73062e-09
2.01432e-09
4.19767e-09
2.11986e-09
2.17328e-09
8.1398e-09
5.52278e-09
6.29851e-09
6.66273e-09
8.05142e-09
6.27185e-09
6.70157e-09
7.83589e-09
5.47063e-09
6.21909e-09
6.63791e-09
7.99438e-09
6.24936e-09
6.57054e-09
4.41165e-09
4.72152e-09
4.93418e-09
4.84471e-09
3.54108e-09
3.49716e-09
3.48177e-09
3.49999e-09
3.45555e-09
3.42182e-09
2.84764e-09
2.81793e-09
2.82904e-09
3.47382e-09
3.40837e-09
3.44699e-09
2.80017e-09
3.38431e-09
2.80254e-09
3.43312e-09
2.81516e-09
3.39454e-09
9.55743e-10
8.86351e-10
2.38533e-09
2.03216e-09
2.36514e-09
9.65887e-10
8.88262e-10
7.48733e-10
8.30126e-10
9.49219e-10
2.01707e-09
2.35093e-09
8.87875e-10
2.31329e-08
7.41908e-09
9.17432e-09
5.94214e-09
9.91257e-09
5.12438e-09
6.98615e-09
9.156e-09
6.22291e-09
8.2139e-09
1.43217e-08
1.38429e-08
1.22719e-08
8.38244e-09
2.56104e-08
1.10567e-08
4.06895e-09
2.74407e-08
6.45632e-09
1.66392e-08
4.31971e-09
5.37555e-09
1.50567e-08
4.29099e-09
7.88278e-09
3.4562e-09
5.28877e-09
2.89756e-09
6.89943e-09
3.0203e-09
1.16389e-08
1.25574e-08
1.10547e-08
1.01118e-08
1.06565e-08
1.2066e-08
1.18482e-08
1.2349e-08
1.18525e-08
1.26351e-08
1.10354e-08
1.19905e-08
1.26859e-08
1.14761e-08
1.30014e-08
1.35543e-08
1.34496e-08
1.39198e-08
1.26208e-08
1.3362e-08
1.3477e-08
1.12185e-08
9.8479e-09
9.68638e-09
1.03831e-08
1.03559e-08
1.12175e-08
1.04327e-08
1.00345e-08
2.54483e-08
1.30382e-08
1.01452e-08
2.14008e-08
7.09933e-09
1.17196e-08
8.92787e-09
8.9597e-09
1.88024e-08
2.2295e-08
5.48095e-09
2.33551e-08
1.38795e-08
6.47764e-09
1.51465e-08
1.08326e-08
7.70831e-09
5.41933e-09
2.00579e-08
5.45206e-09
1.28688e-08
1.33343e-08
1.6089e-08
1.38861e-08
1.9465e-08
1.33802e-08
1.46615e-08
1.18575e-08
3.89306e-08
1.00435e-08
1.41294e-08
6.56349e-09
7.09803e-09
5.41022e-09
6.7498e-09
1.05792e-08
2.03111e-09
1.29752e-08
5.01752e-09
5.29195e-09
7.04359e-09
8.30484e-09
6.90995e-09
7.9664e-09
1.03073e-08
7.19296e-09
9.77879e-09
1.13643e-08
3.36796e-08
6.90496e-09
3.08292e-08
1.15353e-08
1.92342e-08
1.06821e-08
9.82622e-09
9.58645e-09
2.8465e-08
4.58737e-08
1.78676e-08
1.59138e-08
4.37959e-08
1.10078e-08
5.49139e-09
1.61965e-08
1.87319e-08
1.0398e-08
1.37536e-08
2.51437e-08
6.73303e-09
1.43005e-08
6.90698e-08
2.44118e-08
6.21751e-08
1.91141e-08
6.73217e-08
2.04156e-08
1.44448e-08
1.59518e-08
1.58314e-08
1.57858e-08
1.51762e-08
1.50359e-08
1.54174e-08
1.21406e-08
9.00406e-09
1.23345e-08
7.96398e-09
1.17538e-08
1.1376e-08
8.56926e-09
1.42476e-08
1.52813e-08
1.4488e-08
1.50458e-08
1.48217e-08
1.54594e-08
1.387e-08
2.95581e-08
9.65134e-09
3.83143e-09
3.58187e-08
1.81688e-08
7.54031e-08
9.92208e-08
5.12961e-08
1.5422e-08
3.05141e-08
1.61174e-08
1.73996e-08
2.44362e-08
1.36384e-08
1.54676e-08
1.24627e-08
9.56028e-09
2.67919e-08
2.44209e-08
6.36996e-09
2.88492e-08
1.48304e-08
9.67845e-09
2.49588e-08
1.88047e-08
7.1183e-09
6.88357e-09
2.78449e-08
7.60997e-09
1.56729e-08
1.60733e-08
1.48423e-08
1.50941e-08
1.6747e-08
1.56924e-08
1.51921e-08
8.04744e-09
6.35696e-09
6.92696e-09
6.69529e-09
7.75528e-09
7.0079e-09
6.80371e-09
7.62071e-09
5.89678e-09
6.84133e-09
6.65555e-09
7.80225e-09
6.8288e-09
6.64085e-09
8.50427e-09
8.47767e-09
8.1924e-09
8.07282e-09
7.66465e-09
7.07865e-09
7.80766e-09
7.44444e-09
8.00157e-09
7.52795e-09
7.76013e-09
7.75949e-09
1.03388e-08
1.16907e-08
1.1657e-08
1.03304e-08
9.79372e-09
1.11567e-08
9.88337e-09
1.11874e-08
7.77294e-09
1.21588e-08
1.06188e-08
1.0135e-08
1.015e-08
1.01603e-08
8.68173e-09
1.08728e-08
7.47706e-09
7.13479e-09
7.56652e-09
7.99166e-09
7.62316e-09
7.55953e-09
7.55792e-09
7.54278e-09
7.61684e-09
7.91199e-09
7.538e-09
7.50794e-09
1.29444e-08
1.38205e-08
1.18062e-08
1.3006e-08
1.19529e-08
1.29499e-08
1.37908e-08
1.26185e-08
1.20504e-08
1.2787e-08
1.13694e-08
1.29133e-08
1.24782e-08
1.1673e-08
1.36555e-08
1.40993e-08
1.36611e-08
1.43967e-08
1.38653e-08
1.34231e-08
1.43188e-08
1.17024e-08
1.0506e-08
9.50611e-09
1.05164e-08
1.06462e-08
1.18066e-08
1.06775e-08
1.14622e-08
1.33928e-08
1.01604e-08
1.23274e-08
1.04405e-08
1.12712e-08
1.31904e-08
9.87893e-09
8.99379e-09
1.11501e-08
7.52711e-09
1.11736e-08
9.65364e-09
7.58915e-09
1.24423e-08
1.40727e-08
1.35357e-08
1.46952e-08
1.35848e-08
1.23728e-08
1.40024e-08
8.72401e-09
7.68841e-09
6.11231e-09
6.50132e-09
7.78832e-09
8.56994e-09
6.74097e-09
1.47819e-08
1.42316e-08
1.4293e-08
1.38316e-08
1.43658e-08
1.44379e-08
1.44199e-08
1.44687e-08
1.40739e-08
1.69171e-08
1.74007e-08
1.53466e-08
1.55224e-08
1.54433e-08
1.47377e-08
1.44578e-08
1.53207e-08
1.46217e-08
1.47626e-08
1.48125e-08
1.45195e-08
1.49203e-08
1.46088e-08
1.49397e-08
1.51115e-08
1.51129e-08
1.44962e-08
1.46496e-08
5.67628e-09
6.03874e-09
7.49627e-09
7.28315e-09
7.6509e-09
8.1152e-09
7.98607e-09
6.70581e-09
7.6509e-09
7.2428e-09
6.82017e-09
6.19759e-09
7.41503e-09
6.31775e-09
6.97986e-09
7.24331e-09
6.51217e-09
7.1275e-09
7.20002e-09
6.55501e-09
5.62311e-09
7.20404e-09
5.71005e-09
7.20478e-09
6.37246e-09
6.98146e-09
7.0657e-09
6.41194e-09
5.5595e-09
7.31121e-09
5.63772e-09
7.15932e-09
5.77817e-09
5.58617e-09
6.98069e-09
6.27819e-09
6.9045e-09
6.95827e-09
6.14658e-09
6.97454e-09
6.91693e-09
6.95758e-09
7.11839e-09
6.37485e-09
6.91936e-09
6.2633e-09
7.06633e-09
7.09509e-09
6.49376e-09
6.6111e-09
7.34015e-09
6.09558e-09
5.3634e-09
7.50196e-09
5.54158e-09
7.43196e-09
6.70242e-09
7.02004e-09
6.71901e-09
7.40851e-09
5.71756e-09
7.34097e-09
5.5302e-09
7.43206e-09
9.56277e-10
1.11074e-09
1.00236e-09
7.30824e-10
3.84055e-10
4.07192e-10
1.33116e-09
1.05817e-09
1.07143e-09
8.68779e-10
3.82538e-10
3.50197e-10
1.09191e-09
1.27428e-09
9.8204e-10
1.03761e-09
1.33382e-09
9.66135e-10
4.08842e-09
4.26618e-09
3.7013e-09
3.45008e-09
4.30125e-09
3.45333e-09
4.06208e-09
3.90331e-09
3.12636e-09
3.74683e-09
3.25905e-09
3.76809e-09
3.26712e-09
3.87646e-09
1.03415e-09
9.14829e-10
2.52062e-09
2.18294e-09
2.53842e-09
1.02384e-09
9.19445e-10
6.22879e-10
6.50465e-10
7.07488e-10
1.0315e-09
2.59761e-09
2.20182e-09
9.28226e-10
2.55171e-09
1.06808e-09
9.26579e-10
1.31983e-09
1.36393e-09
3.24081e-09
2.62498e-09
1.54903e-09
2.97235e-09
1.12751e-09
5.09396e-10
5.62257e-10
4.08897e-10
1.1691e-09
2.64548e-09
2.42927e-09
9.48206e-10
2.79613e-09
1.07431e-09
1.00067e-09
1.88481e-09
1.8609e-09
1.80496e-09
4.02306e-10
9.3556e-10
9.84513e-10
1.8307e-09
1.72709e-09
1.75987e-09
1.25306e-09
1.56211e-09
1.37189e-09
5.13039e-10
8.38629e-10
7.14931e-10
1.62262e-09
1.64741e-09
1.49561e-09
5.01972e-09
4.94624e-09
6.15275e-09
5.66459e-09
5.92475e-09
6.25024e-09
5.63234e-09
6.26006e-09
6.14741e-09
6.16825e-09
6.30024e-09
5.7182e-09
5.94407e-09
5.64361e-09
6.21662e-09
6.25155e-09
5.61477e-09
6.34212e-09
6.38589e-09
5.54896e-09
4.72749e-09
5.29961e-09
4.73984e-09
5.23842e-09
5.60555e-09
6.4096e-09
6.39772e-09
5.61488e-09
4.72579e-09
5.11949e-09
4.66834e-09
5.20076e-09
5.05396e-09
5.09644e-09
6.29537e-09
5.79941e-09
6.12386e-09
6.40811e-09
5.7571e-09
6.36915e-09
6.34182e-09
6.28055e-09
6.34714e-09
5.77274e-09
6.11331e-09
5.73932e-09
6.27785e-09
6.35991e-09
5.48185e-09
6.29594e-09
6.28677e-09
5.52925e-09
4.58892e-09
4.90048e-09
4.52613e-09
4.97621e-09
5.51001e-09
6.25952e-09
6.2971e-09
5.42699e-09
4.61647e-09
5.08492e-09
4.64301e-09
5.02579e-09
6.77249e-09
6.67086e-09
7.44966e-09
8.41859e-09
7.86952e-09
7.42888e-09
7.91219e-09
7.93677e-09
7.46313e-09
8.44303e-09
7.47833e-09
7.8782e-09
1.20482e-08
1.37506e-08
1.21099e-08
1.36593e-08
1.20299e-08
1.36718e-08
1.20272e-08
1.36686e-08
6.7564e-09
6.79876e-09
7.57135e-09
8.44116e-09
8.00762e-09
7.55605e-09
7.94469e-09
7.89794e-09
7.53013e-09
8.37775e-09
7.49689e-09
7.96198e-09
1.19745e-08
1.3648e-08
1.19921e-08
1.36229e-08
1.19976e-08
1.3608e-08
1.19778e-08
1.36527e-08
7.40137e-09
7.88533e-09
8.45289e-09
7.39295e-09
7.85489e-09
1.19667e-08
1.3633e-08
1.19733e-08
1.36185e-08
6.04056e-09
5.60009e-09
6.19845e-09
5.77705e-09
6.09638e-09
5.53972e-09
6.15118e-09
4.50116e-09
4.87672e-09
4.49669e-09
4.8511e-09
5.37378e-09
6.20251e-09
5.39394e-09
6.18713e-09
4.48529e-09
4.82714e-09
2.51558e-08
6.37646e-08
2.14154e-08
1.1448e-08
3.46721e-08
7.96451e-08
5.25043e-08
1.22084e-08
1.2141e-08
1.16415e-08
1.17751e-08
1.22356e-08
1.08487e-08
1.07087e-08
1.11201e-08
1.07865e-08
2.89774e-08
4.9903e-09
1.35461e-08
1.89097e-08
1.4324e-08
1.44356e-08
1.47161e-08
1.44868e-08
1.46078e-08
1.46442e-08
1.46532e-08
1.47394e-08
1.26263e-08
1.27666e-08
1.34217e-08
1.31403e-08
1.44801e-08
1.42756e-08
1.36895e-08
1.40744e-08
1.48605e-09
1.30193e-09
2.39618e-09
1.70088e-09
2.1523e-09
1.7318e-09
9.47255e-10
1.47369e-09
8.94331e-10
1.69715e-09
1.77278e-09
2.05786e-09
1.31149e-09
9.40444e-10
1.42262e-09
1.49904e-09
1.9542e-09
9.00287e-10
1.56234e-09
9.83542e-10
1.50544e-09
6.55338e-09
5.59121e-09
5.11695e-09
4.6978e-09
5.92817e-09
6.60164e-09
5.38048e-09
9.15614e-09
1.0677e-08
1.00364e-08
9.46992e-09
1.02882e-08
8.67761e-09
9.72148e-09
8.11231e-09
6.88903e-09
8.57932e-09
9.2805e-09
7.39078e-09
9.24587e-09
7.92297e-09
7.66246e-09
5.90103e-09
8.32691e-09
7.10182e-09
7.41408e-09
6.40238e-09
8.26102e-09
2.85068e-09
1.81099e-09
3.93326e-09
3.31444e-09
2.51753e-09
2.3197e-09
3.81074e-09
2.25053e-09
2.35133e-09
1.40601e-09
2.52032e-09
1.93933e-09
1.96943e-09
2.58913e-09
1.64917e-09
1.02814e-09
1.11222e-09
1.37843e-09
1.51871e-09
1.51501e-09
1.46695e-09
3.58585e-09
4.59994e-09
3.73618e-09
5.36797e-09
3.05114e-09
4.79938e-09
4.14319e-09
2.31936e-09
1.83947e-09
1.73257e-09
1.94017e-09
1.8556e-09
1.50511e-09
1.51939e-09
1.66555e-09
2.11579e-09
1.75611e-09
2.07652e-09
1.69818e-09
1.67324e-09
1.9616e-09
1.65186e-09
2.29791e-09
1.5083e-09
1.82479e-09
1.60323e-09
1.48354e-09
1.66906e-09
1.9438e-09
1.64357e-09
7.20633e-09
6.96687e-09
2.97868e-09
3.05641e-09
3.50862e-09
2.21351e-09
3.07701e-09
4.08695e-09
2.89726e-09
5.0244e-09
4.66211e-09
5.97136e-09
4.12305e-09
5.18517e-09
4.19768e-09
5.06205e-09
2.58412e-09
2.77761e-09
3.43597e-09
2.6126e-09
2.39091e-09
3.54412e-09
1.87173e-09
2.19309e-09
1.75151e-09
1.92689e-09
2.33497e-09
1.69664e-09
2.10996e-09
1.97927e-09
3.23989e-09
2.38923e-09
3.18018e-09
2.20134e-09
3.06236e-09
2.45676e-09
2.26342e-09
1.87205e-09
1.87853e-09
2.27826e-09
2.64239e-09
1.96814e-09
8.48318e-09
7.90612e-09
8.16971e-09
7.35637e-09
7.77101e-09
8.73343e-09
7.87332e-09
9.96538e-09
1.09171e-08
1.05351e-08
9.81185e-09
1.05898e-08
1.00767e-08
9.66778e-09
9.1946e-09
7.80625e-09
8.52992e-09
9.63785e-09
8.20016e-09
9.64305e-09
9.01942e-09
8.88078e-09
7.49902e-09
8.80479e-09
7.55246e-09
8.74216e-09
8.9139e-09
7.90339e-09
4.35114e-09
3.85013e-09
4.54474e-09
5.48981e-09
4.6953e-09
3.97369e-09
4.07664e-09
4.38709e-09
6.51071e-09
6.08591e-09
4.68773e-09
5.55926e-09
4.42194e-09
4.82311e-09
4.43452e-09
3.64148e-09
5.75691e-09
4.17857e-09
5.34197e-09
4.3133e-09
3.80099e-09
4.08002e-09
4.16933e-09
3.7898e-09
3.70573e-09
4.06471e-09
3.89869e-09
4.09827e-09
3.05354e-09
2.53016e-09
2.81463e-09
2.4293e-09
3.01984e-09
2.62103e-09
2.96403e-09
4.3081e-09
6.04258e-09
4.08548e-09
5.79236e-09
4.46552e-09
3.80741e-09
6.34566e-09
2.94032e-09
2.96817e-09
2.75041e-09
3.38684e-09
2.7991e-09
2.42458e-09
3.3758e-09
7.53898e-09
5.20532e-09
4.93421e-09
4.85827e-09
5.50478e-09
5.87636e-09
6.60252e-09
8.49633e-09
6.80567e-09
5.2912e-09
5.10931e-09
6.80016e-09
6.86556e-09
6.53997e-09
6.63707e-09
5.9499e-09
5.70719e-09
9.63634e-09
6.2587e-09
1.49529e-08
7.64228e-09
7.65539e-09
4.79155e-09
5.70847e-09
5.05807e-09
5.15072e-09
6.18645e-09
6.01076e-09
4.83385e-09
4.37673e-09
3.4913e-09
4.45245e-09
3.94586e-09
5.83534e-09
3.85153e-09
5.955e-09
4.04813e-09
4.52667e-09
4.60689e-09
3.6675e-09
6.0035e-09
4.72302e-09
3.96843e-09
3.22161e-09
3.2261e-09
3.94006e-09
3.57069e-09
3.17693e-09
3.76852e-09
3.59353e-09
3.19364e-09
3.18289e-09
3.00185e-09
3.39249e-09
3.46805e-09
2.70359e-09
5.0118e-09
4.42815e-09
4.60725e-09
4.41656e-09
5.64561e-09
3.93292e-09
4.29417e-09
5.62722e-10
8.06316e-10
3.26923e-10
2.21232e-09
1.67717e-09
1.18633e-09
1.50398e-09
6.73535e-10
2.84332e-10
3.3494e-09
2.01536e-09
2.31582e-09
1.88599e-09
3.40184e-09
1.70592e-09
1.18039e-09
3.51155e-09
1.51851e-09
3.10249e-09
4.0158e-09
4.24173e-09
4.70816e-09
3.58352e-09
4.66582e-09
2.49719e-09
9.25164e-10
1.08745e-09
1.08615e-09
1.29182e-09
1.04895e-09
8.34189e-10
9.8299e-10
1.67623e-09
2.9578e-09
2.20783e-09
2.47931e-09
1.89719e-09
1.99697e-09
2.34835e-09
1.22682e-09
1.31903e-09
1.96284e-09
1.69582e-09
1.56038e-09
1.01891e-09
1.45883e-09
1.34896e-09
1.58821e-09
2.17524e-09
1.69394e-09
1.53714e-09
1.19915e-09
1.93138e-09
1.54908e-09
2.03988e-09
1.56454e-09
1.34132e-09
2.05037e-09
1.73828e-09
1.23002e-09
2.18441e-09
2.98138e-09
2.83249e-09
2.7733e-09
2.81107e-09
2.29287e-09
2.53987e-09
2.33512e-09
1.70446e-09
2.41691e-09
1.93212e-09
2.23719e-09
2.77006e-09
2.60283e-09
2.35559e-09
2.37643e-09
2.04784e-09
1.57082e-09
1.56996e-09
2.44313e-09
1.66872e-09
1.90957e-09
1.21006e-09
2.11378e-09
4.11503e-09
3.22227e-09
3.88776e-09
3.08758e-09
3.08885e-09
4.04833e-09
3.95977e-09
4.74025e-09
6.97247e-09
4.94809e-09
5.89753e-09
5.18168e-09
5.90537e-09
4.49423e-09
2.1213e-09
2.43093e-09
3.08356e-09
2.91017e-09
2.53859e-09
2.51303e-09
2.64129e-09
2.28733e-09
3.30137e-09
2.3746e-09
3.42085e-09
2.59559e-09
2.06631e-09
3.49541e-09
1.6737e-09
2.13632e-09
2.00358e-09
1.80146e-09
2.13279e-09
1.42533e-09
2.13343e-09
2.75583e-09
3.49354e-09
3.8378e-09
3.96111e-09
3.07322e-09
3.37197e-09
3.71834e-09
4.41414e-09
4.08803e-09
3.64356e-09
3.28096e-09
4.5814e-09
4.23285e-09
3.29018e-09
5.40987e-09
5.48957e-09
6.17776e-09
5.52023e-09
6.53878e-09
5.63873e-09
5.1592e-09
7.85784e-09
5.81538e-09
6.82504e-09
6.57858e-09
7.81824e-09
6.85349e-09
6.54908e-09
7.65164e-09
6.03758e-09
6.81722e-09
6.63707e-09
7.70511e-09
6.78816e-09
6.60321e-09
4.98969e-09
5.05648e-09
6.35251e-09
5.94428e-09
6.03368e-09