/*--------------------------------*- C++ -*----------------------------------*\
| =========                 |                                                 |
| \\      /  F ield         | OpenFOAM: The Open Source CFD Toolbox           |
|  \\    /   O peration     | Version:  2012                                  |
|   \\  /    A nd           | Website:  www.openfoam.com                      |
|    \\/     M anipulation  |                                                 |
\*---------------------------------------------------------------------------*/
FoamFile
{
    version     2.0;
    format      ascii;
    class       volSymmTensorField;
    location    "0.106/solid";
    object      epsilon;
}
// * * * * * * * * * * * * * * * * * * * * * * * * * * * * * * * * * * * * * //

dimensions      [0 0 0 0 0 0 0];


internalField   nonuniform List<symmTensor> 
3124
(
(-2.9601e-10 1.3107e-09 2.07934e-09 3.95774e-09 4.28231e-09 3.5196e-09)
(-6.17747e-11 -7.53047e-11 1.70914e-11 -7.49114e-11 -1.11364e-10 -5.29954e-10)
(2.23899e-10 -1.01401e-10 9.04561e-10 1.77814e-11 -7.51117e-11 7.25018e-09)
(-2.10602e-09 2.50332e-09 -1.29547e-10 2.50659e-08 4.52856e-11 -7.56622e-11)
(3.92625e-10 -7.3119e-11 3.38566e-10 -8.77198e-11 7.60235e-11 7.03559e-09)
(2.99724e-11 -5.37128e-11 -2.54229e-11 -5.06254e-11 -2.0971e-10 -7.98874e-10)
(1.76118e-10 -1.32717e-10 1.07961e-09 3.54766e-12 -5.75274e-11 7.34468e-09)
(-2.21685e-09 2.74629e-09 -1.86425e-10 2.54751e-08 8.91505e-11 -1.76387e-10)
(3.67475e-10 -2.52973e-11 4.60507e-10 -4.07685e-11 5.56803e-11 7.36042e-09)
(-5.43679e-10 -2.75472e-11 1.10013e-11 1.10986e-09 2.4803e-09 4.57191e-09)
(2.9282e-10 -4.87126e-10 1.05715e-09 -3.02232e-09 2.54755e-09 1.20692e-08)
(-1.50014e-09 4.45374e-09 -3.56837e-10 2.34651e-08 1.41345e-09 -8.1731e-10)
(4.70889e-10 3.31879e-10 -1.1522e-11 2.51675e-10 -1.00948e-09 7.15832e-09)
(2.49556e-10 2.15517e-12 4.4462e-10 1.01898e-11 -3.07355e-11 5.62222e-09)
(-3.64256e-10 -4.09189e-10 -5.50169e-10 9.27082e-10 2.08686e-09 3.86692e-09)
(5.50295e-10 5.19127e-10 6.5756e-10 1.83282e-10 -5.81366e-10 6.84879e-09)
(1.0374e-10 -2.24695e-10 5.65523e-10 3.13415e-10 1.0289e-09 1.03261e-08)
(6.501e-10 2.2875e-10 4.31323e-10 2.133e-10 -4.88941e-10 5.24136e-09)
(7.42791e-10 3.91001e-10 1.1566e-09 4.56379e-11 -3.03658e-10 5.55675e-09)
(-1.73789e-09 4.05051e-09 -4.53905e-10 2.43711e-08 9.07176e-10 -4.59446e-10)
(2.964e-10 5.60096e-12 2.78716e-10 1.78208e-11 -1.16157e-11 6.01487e-09)
(2.95942e-10 5.18595e-12 2.74785e-10 7.99652e-12 -1.50573e-11 5.99816e-09)
(2.50599e-10 -2.48949e-13 4.36229e-10 4.75754e-12 -4.98263e-11 5.59576e-09)
(1.01517e-08 1.64048e-09 5.75652e-10 1.22462e-08 -1.29911e-09 2.11674e-09)
(-6.03134e-10 8.08639e-10 2.02585e-09 3.42818e-09 3.90928e-09 3.44325e-09)
(-5.17021e-10 -5.84877e-10 3.28612e-09 -3.34834e-10 7.25358e-09 1.01114e-08)
(-2.38067e-10 3.59294e-09 1.58894e-09 1.31081e-08 4.45647e-09 -4.57173e-11)
(4.10049e-09 -4.23716e-10 2.29691e-09 1.61975e-08 6.14146e-09 -1.87447e-09)
(4.96164e-10 1.01089e-10 4.13684e-09 1.12547e-09 4.63204e-09 3.82511e-09)
(9.55365e-10 4.10633e-09 1.62041e-09 1.1377e-08 3.6044e-09 -8.70879e-10)
(1.62374e-10 -3.55013e-11 4.0894e-10 3.57489e-11 -1.13196e-10 1.10707e-09)
(2.67366e-10 4.43907e-11 6.25011e-10 -2.60132e-11 -2.08166e-10 6.8675e-09)
(1.78356e-10 2.54934e-12 3.9039e-10 -1.75845e-11 -8.07056e-11 1.06988e-09)
(6.85022e-09 -8.72645e-11 -1.76038e-10 8.40731e-09 1.02385e-10 -2.00641e-10)
(2.65152e-09 2.95877e-09 -6.78417e-11 1.55854e-08 1.39966e-10 -9.26136e-11)
(1.73339e-10 -3.73344e-09 -3.28456e-10 2.7368e-08 -3.07422e-10 -6.37484e-11)
(-2.09419e-09 2.30765e-09 -1.00043e-10 2.49609e-08 6.52252e-11 -5.76042e-11)
(7.23332e-09 1.57881e-10 -1.89557e-10 8.72758e-09 2.13575e-10 -2.37443e-10)
(1.49392e-10 -3.75246e-09 -1.58636e-10 2.75179e-08 2.48398e-10 -1.66984e-10)
(2.61919e-09 2.74835e-09 -1.08139e-10 1.54814e-08 9.02515e-11 -6.16828e-11)
(-7.97596e-10 7.68708e-12 4.49659e-09 -2.62803e-10 7.56712e-09 9.97016e-09)
(2.56974e-10 2.64971e-10 4.59471e-10 -1.43229e-09 1.75048e-09 7.34132e-09)
(2.43963e-10 -3.77176e-10 -4.12355e-10 4.21972e-10 -4.11918e-10 -1.9071e-09)
(-6.41999e-10 4.61379e-10 -2.75759e-10 -2.87851e-10 1.41566e-09 -9.45594e-10)
(5.26153e-10 5.62215e-11 -1.14193e-09 3.08731e-10 1.31322e-09 -4.32668e-10)
(-4.14622e-10 6.14534e-10 1.5741e-09 -1.61991e-10 1.35377e-10 9.16258e-09)
(1.5756e-10 -7.47472e-11 4.83178e-10 3.26654e-11 -2.10673e-10 1.54722e-09)
(2.68558e-10 1.32059e-11 1.19486e-09 -3.5391e-10 -1.1496e-10 4.88541e-09)
(6.98584e-09 -6.25153e-11 -4.41446e-10 8.8638e-09 2.3634e-10 -3.25256e-10)
(-2.22479e-09 3.09745e-09 -2.92665e-10 2.56846e-08 3.617e-10 -3.04261e-10)
(2.59967e-09 3.03586e-09 -6.37324e-11 1.57188e-08 2.30248e-10 -1.20872e-10)
(6.29096e-11 -3.61747e-09 -4.39996e-10 2.79058e-08 -5.44737e-10 -2.05917e-10)
(7.09689e-09 4.78342e-11 -1.93819e-10 8.66163e-09 2.23658e-10 -2.61267e-10)
(4.56914e-11 -3.01429e-09 -5.55783e-10 2.8951e-08 5.84754e-10 -7.77343e-10)
(2.58442e-09 3.28354e-09 -2.78396e-10 1.58367e-08 3.18129e-10 -1.42798e-10)
(3.17095e-10 1.18589e-12 4.47475e-10 -3.19415e-11 -1.35124e-10 7.37752e-09)
(2.93448e-10 4.28448e-12 2.55499e-10 2.04214e-12 -1.34794e-11 5.81626e-09)
(2.56507e-10 2.2046e-12 4.0004e-10 8.34609e-13 -3.78221e-11 5.38363e-09)
(2.13267e-10 -1.03249e-12 1.15478e-10 1.11556e-12 -9.70524e-12 -9.26947e-10)
(-2.85876e-10 -1.30103e-10 1.70866e-10 1.46129e-09 2.34928e-09 2.76306e-09)
(-1.23355e-09 -2.27277e-10 -4.00368e-10 -5.16264e-10 1.09747e-09 1.67883e-08)
(-3.4187e-10 -3.43492e-10 5.16946e-09 6.16834e-10 4.39116e-09 6.42586e-09)
(2.74912e-09 6.69998e-09 6.67108e-10 8.84604e-09 1.38374e-09 -8.45049e-10)
(-5.3407e-10 -5.28256e-10 2.27466e-09 5.91878e-10 6.3015e-09 8.18838e-09)
(-5.07608e-10 -6.60645e-10 4.05685e-10 -5.87953e-10 -9.2669e-10 1.41223e-08)
(8.69506e-09 -1.6671e-09 4.48712e-09 8.94816e-09 1.04856e-08 -4.5845e-09)
(3.46195e-12 -1.07834e-09 4.87654e-09 -2.36224e-10 6.44047e-09 6.4161e-09)
(9.50807e-09 8.51966e-10 -4.39023e-12 1.14737e-08 -1.81366e-09 1.3822e-10)
(-7.46666e-10 4.59568e-09 2.07296e-10 2.08391e-08 2.47347e-09 -9.94926e-10)
(1.34408e-09 -2.97305e-09 -4.27816e-10 2.51495e-08 3.41761e-11 -7.84292e-10)
(2.73451e-09 5.18937e-09 -4.55825e-10 1.58112e-08 7.87956e-10 -4.41132e-10)
(3.55462e-09 -1.48433e-09 9.92857e-10 2.15253e-08 3.64155e-09 -2.28492e-09)
(7.8933e-09 1.96908e-10 4.03645e-11 9.51176e-09 -3.0189e-11 -2.1829e-11)
(2.92587e-09 5.81876e-09 -7.55727e-10 1.55618e-08 1.07286e-09 -8.15623e-10)
(1.0413e-08 -1.6855e-09 5.21181e-11 1.93672e-08 -2.80776e-10 5.04892e-11)
(1.06259e-08 -5.77507e-10 1.11295e-09 1.77944e-08 5.63125e-10 -5.03634e-10)
(-8.20778e-10 -2.01888e-10 -5.64145e-10 -8.02602e-10 2.08362e-10 1.72562e-08)
(-4.44274e-10 -4.47568e-10 -2.17877e-10 -2.63773e-10 -1.3648e-09 1.29274e-08)
(-1.05947e-09 -1.5269e-09 4.38618e-09 -7.40069e-10 4.48038e-09 1.31392e-08)
(4.56266e-09 7.26533e-09 4.16655e-12 8.02449e-09 7.76244e-10 -9.0425e-11)
(4.46127e-09 7.46564e-09 -7.71392e-10 8.6516e-09 1.07197e-09 -2.80809e-10)
(-1.3336e-10 -2.21544e-11 -1.10146e-10 3.43493e-11 -9.74188e-11 1.27295e-09)
(-1.46847e-10 -3.25797e-12 -1.41379e-10 -1.26614e-11 -4.86583e-11 1.26953e-09)
(2.26202e-10 3.63978e-11 6.193e-10 -1.6039e-11 -2.53524e-10 6.56998e-09)
(2.36186e-10 -7.63359e-12 1.93417e-10 7.86844e-12 -2.16961e-11 -7.3957e-10)
(2.15933e-10 -1.7731e-11 3.96964e-10 -2.38203e-11 -1.64053e-10 6.53356e-10)
(-1.28436e-10 -6.99276e-12 -3.74521e-10 6.07822e-12 -3.00177e-11 -2.14548e-10)
(-1.51058e-10 -1.28073e-11 -1.90049e-10 -1.64457e-11 -9.67872e-11 9.97801e-10)
(4.18221e-09 5.14833e-09 -1.25644e-10 8.12963e-09 2.90784e-10 -4.92269e-11)
(4.06502e-09 4.78831e-09 4.09945e-11 8.13923e-09 1.37074e-10 -2.63153e-11)
(1.06674e-08 -1.72727e-09 -2.72269e-10 2.15028e-08 -1.65475e-10 -2.61921e-10)
(1.06661e-08 -1.70291e-09 -1.66724e-10 2.16838e-08 1.82641e-10 -2.02067e-10)
(6.86802e-09 -4.64264e-11 -1.51528e-10 8.43307e-09 1.15103e-10 -1.84961e-10)
(-2.13991e-09 2.14529e-09 -7.33544e-11 2.49875e-08 1.67525e-11 -6.32299e-11)
(8.65713e-11 -3.7594e-09 -1.38914e-10 2.76876e-08 1.45778e-10 -1.96191e-10)
(2.56031e-09 2.51601e-09 -7.163e-11 1.54167e-08 5.37246e-11 -4.8431e-11)
(1.06687e-08 -1.69511e-09 -1.39952e-10 2.18092e-08 1.04401e-10 -1.576e-10)
(4.01755e-09 4.66578e-09 -1.09929e-10 8.13046e-09 1.46669e-10 -2.55254e-11)
(-6.67852e-10 -4.38089e-10 4.29511e-09 4.3848e-10 6.58343e-09 8.46212e-09)
(-7.48547e-10 3.18726e-10 7.36238e-10 -5.23535e-10 -3.02141e-10 1.83499e-08)
(2.04722e-10 -4.71724e-10 -7.2669e-10 5.10439e-10 4.2655e-11 -9.17752e-10)
(-7.3272e-10 6.61224e-11 -1.296e-09 -4.2752e-10 1.02933e-09 1.40122e-08)
(3.30049e-10 1.36101e-10 -1.67015e-09 1.54321e-10 1.3224e-09 2.37585e-09)
(-3.36114e-10 1.43878e-10 -4.91496e-10 -9.58012e-11 1.32922e-09 -1.2893e-09)
(4.14374e-10 3.57284e-10 -8.61098e-10 1.85073e-10 1.60962e-09 1.44309e-09)
(-4.86627e-10 2.33991e-10 -9.92181e-10 -6.86815e-10 2.47732e-10 1.47314e-08)
(3.00814e-09 1.88292e-09 2.41619e-09 -7.11836e-10 5.00522e-10 2.52289e-09)
(3.56267e-10 5.17082e-10 -1.2293e-09 3.90969e-11 1.34297e-09 4.00384e-09)
(2.39785e-10 1.13651e-09 5.5233e-10 -5.53583e-10 2.06867e-10 1.00659e-08)
(-2.71962e-10 -4.36288e-10 -2.76095e-11 6.39852e-10 3.51448e-11 9.07685e-09)
(2.11401e-10 5.27627e-11 9.83977e-10 -7.96963e-11 1.2459e-10 5.74563e-09)
(-1.35547e-10 -5.28388e-11 -2.89321e-11 3.27418e-11 -1.90938e-10 1.68138e-09)
(-1.31708e-10 -2.42966e-12 6.19929e-10 -3.00346e-10 7.52654e-11 5.09812e-09)
(-1.10476e-10 -2.57484e-10 -2.7952e-10 7.30841e-10 -3.86541e-10 7.80834e-09)
(-8.83778e-11 -8.85237e-12 6.03498e-10 -2.71253e-11 2.40637e-10 5.25114e-09)
(4.44925e-09 1.10764e-09 3.03891e-09 -1.31909e-09 3.7861e-10 2.36445e-09)
(7.0457e-09 -8.91609e-11 -4.8642e-10 8.8757e-09 1.91438e-10 -3.13325e-10)
(-1.98653e-09 3.56909e-09 -4.05168e-10 2.51592e-08 7.02677e-10 -3.73534e-10)
(1.16176e-09 -3.01544e-09 -5.42493e-10 2.52126e-08 1.22034e-10 -4.01996e-10)
(2.81931e-09 4.7309e-09 -4.48227e-10 1.58851e-08 6.04214e-10 -2.80709e-10)
(8.12588e-09 4.57737e-10 -5.76142e-11 9.66337e-09 3.76428e-11 -5.86886e-11)
(3.14745e-10 -2.94194e-09 -5.53248e-10 2.80977e-08 1.12448e-09 -6.99944e-10)
(2.72229e-09 3.99903e-09 -4.90344e-10 1.59128e-08 4.37962e-10 -2.13571e-10)
(4.20936e-09 5.21313e-09 3.35076e-11 8.04897e-09 3.10176e-10 -5.59053e-11)
(4.3587e-09 5.72184e-09 -2.04585e-10 7.84651e-09 4.99367e-10 -6.79225e-11)
(1.07511e-08 -1.67018e-09 -3.34066e-10 2.19013e-08 -3.48596e-10 -2.39443e-10)
(1.09651e-08 -1.402e-09 -4.70168e-10 2.27474e-08 3.40333e-10 -2.45559e-10)
(1.03763e-08 -1.61139e-09 -2.04935e-10 1.95351e-08 -1.36794e-10 -1.11254e-10)
(1.08648e-08 -1.40989e-09 -4.84671e-10 2.20601e-08 7.06379e-10 -2.91113e-10)
(4.67917e-09 7.18544e-09 -2.59572e-10 8.06695e-09 7.59664e-10 -9.24071e-11)
(4.4421e-09 6.08009e-09 -6.33443e-11 7.90876e-09 5.04293e-10 -6.28418e-11)
(3.09991e-10 2.79426e-12 3.68274e-10 1.98618e-12 -1.35574e-10 6.66073e-09)
(2.9449e-10 6.13083e-12 2.60646e-10 1.99404e-12 -8.65062e-12 5.86306e-09)
(2.5908e-10 5.94722e-12 4.04045e-10 2.71646e-12 -1.56713e-11 5.4095e-09)
(2.30301e-10 -4.75057e-12 1.74684e-10 4.91268e-12 -1.69714e-11 -7.75563e-10)
(2.14567e-10 -1.96883e-12 1.21157e-10 5.16444e-13 -7.24658e-12 -9.08087e-10)
(-1.28904e-10 4.0815e-13 -4.28787e-10 8.94955e-13 -5.58525e-12 -4.91547e-10)
(-1.28271e-10 -2.12938e-12 -3.87378e-10 4.31874e-12 -1.73158e-11 -2.79969e-10)
(-1.28707e-10 -3.3884e-12 -4.23751e-10 4.94035e-13 -1.16959e-11 -4.65995e-10)
(-2.16166e-09 -1.47637e-09 -1.123e-10 3.06055e-08 1.08774e-10 -1.68632e-10)
(-8.21573e-10 -6.84566e-10 -7.03906e-10 -9.70961e-10 -5.93807e-10 -1.2099e-09)
(-1.9338e-10 -3.53216e-10 -3.02345e-10 -6.091e-10 -3.77469e-10 -1.84963e-10)
(-1.45263e-10 1.00509e-11 3.28974e-10 2.39235e-11 1.88806e-11 5.98407e-09)
(2.34811e-10 -2.11062e-11 6.48043e-10 -3.25056e-11 -2.27531e-11 7.3382e-09)
(-2.42294e-10 -2.68031e-12 3.16482e-10 -2.64398e-11 -2.89108e-11 6.27222e-09)
(3.86499e-10 -9.6868e-11 3.24104e-10 -1.7741e-10 1.25024e-10 6.88556e-09)
(2.68583e-10 -5.49566e-11 3.3764e-10 -4.34216e-10 -5.22923e-11 -3.04199e-09)
(-9.95259e-11 -3.76025e-11 8.51313e-12 -1.20814e-10 -4.53424e-10 -1.16104e-09)
(-1.68725e-10 -2.93036e-10 -2.35572e-10 -7.12832e-10 -3.49035e-10 -2.92133e-10)
(8.56979e-11 -1.28402e-10 -7.86524e-11 4.89166e-10 5.38043e-10 -2.76683e-09)
(8.12796e-11 -6.73306e-11 1.52805e-09 -8.09048e-11 -1.31202e-11 7.83273e-09)
(-1.00594e-10 1.38549e-11 2.91642e-10 3.13082e-11 -2.7879e-11 5.93563e-09)
(-9.672e-11 -6.0276e-12 2.42163e-10 -3.30345e-11 -6.77516e-11 6.44888e-09)
(3.26648e-10 -8.09617e-13 5.50761e-10 -3.59492e-11 3.06426e-11 7.63398e-09)
(1.5166e-09 1.47912e-09 2.52572e-09 1.88565e-09 1.21193e-09 1.07172e-08)
(-3.69274e-10 3.08178e-10 8.37648e-10 1.35239e-09 2.19499e-09 3.45295e-09)
(-1.11914e-09 -1.10861e-10 -7.59923e-11 3.01702e-10 1.77651e-09 1.04304e-08)
(-2.43775e-10 6.11904e-11 -1.13192e-10 -1.66967e-10 4.1407e-09 6.23216e-09)
(-1.31062e-09 1.44535e-10 -4.77428e-10 8.44741e-10 5.8018e-10 1.20463e-08)
(-9.89937e-10 1.30728e-10 1.67346e-09 4.74895e-10 2.18968e-09 8.8039e-09)
(-1.78519e-09 9.67866e-10 2.03952e-09 1.12899e-09 2.52581e-09 4.82342e-09)
(1.30104e-09 -5.35166e-09 2.24561e-09 -3.47837e-09 3.15285e-09 2.09024e-08)
(-1.94104e-10 -9.8961e-10 1.36735e-09 -5.65933e-09 1.09983e-08 7.28664e-09)
(-1.82509e-10 9.48571e-11 6.44226e-10 -7.45841e-09 -9.0697e-11 1.41554e-08)
(-9.0423e-11 -9.30818e-10 1.16152e-09 -1.96132e-09 1.68331e-09 1.30579e-08)
(8.49766e-11 -4.8109e-09 1.75413e-09 1.11009e-08 -2.15277e-09 1.83115e-08)
(-3.16482e-11 -4.31541e-10 9.06183e-10 -2.35382e-09 -1.53059e-09 1.48418e-08)
(4.18259e-10 -1.43115e-09 1.27152e-09 -3.36257e-09 5.88295e-09 1.38232e-08)
(-5.34578e-10 -6.89185e-10 -7.62844e-10 -4.36829e-10 -1.38524e-09 1.6429e-08)
(7.32991e-10 2.70754e-10 2.01266e-10 -2.22515e-10 -2.02788e-10 5.55701e-09)
(1.70576e-10 2.18928e-10 -4.92174e-10 -1.96875e-10 -1.35317e-09 1.09813e-08)
(1.22371e-10 1.01351e-10 -4.33125e-10 2.30676e-10 -1.29119e-09 8.70865e-09)
(-1.1432e-10 1.14415e-10 -5.77606e-10 -2.75586e-10 -9.98831e-10 1.11648e-08)
(2.06075e-10 -4.76046e-10 -6.14998e-10 -1.68347e-10 -2.71248e-10 7.59957e-09)
(-2.39406e-10 -2.03818e-10 -5.84292e-10 -4.92818e-10 -1.459e-09 1.36423e-08)
(2.35693e-10 -4.28668e-14 4.89652e-10 3.78867e-11 -1.11436e-10 5.73169e-09)
(-2.41371e-10 1.41454e-12 -3.18685e-11 7.94821e-12 -3.19665e-11 4.35382e-09)
(-2.43338e-10 -4.39256e-12 -6.65251e-12 3.29368e-11 -7.83884e-11 4.47287e-09)
(-2.82461e-10 2.74712e-10 1.86071e-09 -5.56299e-09 1.0896e-08 6.60432e-09)
(2.77712e-11 -9.30595e-10 5.19907e-10 -7.43909e-09 1.64476e-11 1.36455e-08)
(5.76248e-10 3.84133e-09 -5.39372e-10 1.11813e-08 -2.86839e-09 1.77673e-08)
(-3.74661e-10 5.59953e-11 -8.68778e-10 5.73179e-10 4.54387e-10 4.97925e-09)
(-1.46365e-10 -6.02397e-10 -7.97582e-10 7.63058e-10 1.35208e-09 2.32135e-09)
(-6.97336e-10 -2.48618e-10 -1.1599e-09 2.69328e-10 1.42836e-09 8.5973e-09)
(-2.05721e-10 -5.03181e-11 -3.06997e-10 -1.53845e-10 3.82464e-09 5.67797e-09)
(-7.05198e-10 1.19647e-10 -8.81637e-10 8.02055e-10 4.9255e-10 1.06005e-08)
(-2.6684e-10 -2.96658e-10 -1.59686e-09 3.3123e-10 1.14351e-09 5.38757e-09)
(-9.75919e-11 -3.18603e-10 -5.31983e-10 2.59179e-10 1.80404e-09 2.30005e-09)
(1.04765e-09 1.28301e-09 -2.60002e-10 -4.09413e-11 -6.56997e-10 9.2879e-09)
(9.78432e-10 5.20957e-10 4.68578e-10 -2.18322e-10 -8.33583e-11 5.53929e-09)
(2.97053e-10 5.21819e-10 4.16001e-11 -6.12847e-11 -9.48028e-10 9.53843e-09)
(5.87849e-10 7.326e-10 9.84216e-10 5.92829e-11 -1.46408e-10 6.92482e-09)
(9.0458e-11 3.6816e-10 -5.36386e-11 -2.273e-10 -8.63269e-10 1.0041e-08)
(2.41198e-09 1.35717e-09 2.0794e-10 -2.69901e-10 1.70928e-12 5.9762e-09)
(2.01383e-10 8.1301e-10 1.31878e-10 -6.03775e-11 -2.99423e-10 8.82679e-09)
(7.66444e-10 -4.43003e-10 -3.67015e-10 5.16797e-10 -1.33151e-10 3.73457e-09)
(1.01756e-09 2.75978e-10 2.89548e-10 -1.36071e-10 2.23658e-10 5.08409e-09)
(2.98691e-10 4.52384e-11 -1.18914e-10 4.26163e-10 -5.6796e-10 5.87368e-09)
(7.21224e-10 5.59496e-11 7.64022e-10 -1.22012e-12 -4.72242e-10 4.13662e-09)
(4.0363e-10 -4.53141e-10 -6.84341e-10 1.38038e-10 8.44738e-11 6.84422e-09)
(1.75455e-09 9.72341e-11 6.93704e-10 -2.02725e-10 -2.51987e-10 4.21571e-09)
(4.63124e-10 -9.29321e-11 1.34923e-10 2.78673e-10 -3.4225e-10 4.19686e-09)
(3.87477e-09 9.22192e-10 8.38738e-10 4.99802e-11 -3.98073e-10 3.59208e-09)
(1.27838e-09 5.11103e-10 4.76696e-10 -1.51967e-10 1.74302e-10 5.10227e-09)
(8.65206e-10 5.44614e-10 1.60906e-09 -8.65631e-11 -2.47451e-11 5.81045e-09)
(8.84527e-10 2.73426e-10 1.42931e-09 -8.43778e-11 -4.19119e-10 4.47825e-09)
(2.74203e-09 1.24148e-09 1.67406e-10 -3.07912e-10 3.03654e-10 6.25612e-09)
(1.98168e-09 4.54276e-10 1.03793e-11 -2.75226e-10 -2.77982e-10 3.90867e-09)
(1.18364e-09 3.56384e-10 2.16481e-09 -9.32218e-11 -1.56711e-10 4.74179e-09)
(2.98348e-10 2.79876e-12 2.84496e-10 2.99026e-11 -2.72316e-11 6.03564e-09)
(2.95084e-10 6.66151e-12 2.70119e-10 2.89645e-12 -9.49864e-12 5.9628e-09)
(2.55315e-10 5.34106e-12 4.23214e-10 6.03072e-13 -1.9387e-11 5.53091e-09)
(-2.4044e-10 2.41601e-14 -3.65928e-11 4.2826e-12 -2.86946e-11 4.32733e-09)
(-2.38141e-10 1.689e-12 -4.9512e-11 1.22154e-12 -2.17855e-11 4.24836e-09)
(4.22117e-09 3.55957e-09 4.31886e-09 1.14208e-08 6.6157e-09 5.38176e-10)
(8.2151e-09 2.81701e-09 1.22456e-09 1.51995e-08 1.84997e-09 -2.32148e-09)
(6.53056e-09 1.21038e-09 1.30708e-08 1.05117e-08 1.02222e-08 -9.14188e-09)
(9.09992e-09 3.42221e-09 3.60308e-10 1.10275e-08 1.18695e-09 -2.31622e-09)
(5.05397e-09 3.40776e-09 6.05419e-09 9.65956e-09 5.83242e-09 -2.05337e-09)
(5.01642e-09 1.31079e-09 5.87832e-09 8.73436e-09 8.44853e-09 -1.89863e-09)
(5.54669e-09 3.13105e-09 1.42124e-09 1.35833e-08 4.19361e-09 -2.98469e-09)
(1.40456e-09 1.92495e-09 4.21977e-09 5.65662e-09 5.71728e-09 5.1112e-09)
(-1.21978e-10 -2.57276e-09 1.27157e-08 3.49777e-09 1.0468e-08 -4.03733e-09)
(-3.25211e-10 1.85915e-10 2.712e-09 1.049e-09 3.31426e-09 5.90313e-09)
(2.9237e-10 7.49428e-12 3.32448e-09 7.0746e-10 4.90402e-09 5.62274e-09)
(3.15251e-10 1.31045e-09 5.28757e-09 4.30713e-09 5.12212e-09 4.89286e-09)
(1.49149e-09 1.20361e-10 5.14807e-09 1.97014e-09 7.3488e-09 5.23213e-09)
(4.62754e-11 1.98797e-10 2.90785e-09 1.14269e-09 4.71938e-09 7.16527e-09)
(-7.99044e-10 -1.49721e-09 -1.39735e-09 -2.24225e-09 -1.78886e-09 -2.60971e-09)
(-2.11712e-10 -4.65302e-11 6.82729e-11 1.30178e-11 -3.11066e-12 4.95784e-09)
(1.66955e-10 4.4811e-12 3.25905e-10 9.13323e-12 1.83106e-11 7.88095e-10)
(-2.70711e-10 6.76128e-12 -7.66927e-11 -1.35445e-11 -2.38742e-11 5.03143e-09)
(2.55907e-10 -1.14581e-11 6.2261e-10 -4.95768e-11 -5.71381e-11 7.33012e-09)
(-2.02222e-10 -1.72796e-11 2.04486e-10 -3.28086e-11 -1.7131e-10 5.67952e-09)
(-2.31537e-10 -3.89503e-12 2.958e-10 -3.60131e-11 -6.47556e-11 6.22342e-09)
(1.5264e-10 2.16951e-11 3.15137e-10 5.00888e-12 5.59363e-11 9.45226e-10)
(-2.12652e-10 -1.77813e-11 -1.04996e-10 -3.59781e-11 -1.51497e-10 4.48413e-09)
(-2.51829e-10 1.53799e-11 -6.58441e-11 -2.86494e-11 -4.94931e-11 4.99366e-09)
(3.04866e-09 -1.95805e-09 -3.02788e-10 1.74503e-08 2.64345e-10 -1.336e-10)
(7.13443e-09 1.11168e-10 -2.06765e-10 8.6425e-09 1.47513e-10 -1.93386e-10)
(6.63674e-09 -2.41305e-09 -2.58109e-10 1.50701e-08 1.63519e-10 -1.69303e-10)
(7.07042e-09 -7.65314e-10 -1.84457e-10 1.1276e-08 8.41706e-11 -1.21453e-10)
(7.15916e-09 -6.27422e-10 -2.33855e-10 1.13052e-08 1.72406e-10 -1.4953e-10)
(6.72481e-09 -2.28939e-09 -2.52409e-10 1.49648e-08 1.9434e-10 -1.73833e-10)
(2.94967e-09 -2.10595e-09 -1.65203e-10 1.74739e-08 1.6494e-11 -1.16237e-10)
(3.09751e-09 -1.86445e-09 -1.15329e-10 1.74922e-08 -3.9002e-11 -1.27301e-10)
(7.12182e-09 6.8019e-11 -2.08459e-10 8.60337e-09 1.51373e-10 -2.05996e-10)
(7.26413e-09 -5.00629e-10 -1.11449e-10 1.14162e-08 1.8978e-10 -1.99074e-10)
(6.77641e-09 -2.21775e-09 -1.29179e-10 1.49972e-08 -3.74028e-12 -1.80366e-10)
(3.06086e-09 -1.84444e-09 -1.76915e-10 1.76157e-08 1.10512e-10 -1.59766e-10)
(7.26797e-09 -4.92509e-10 -1.43984e-10 1.13743e-08 1.08025e-10 -1.73507e-10)
(6.78217e-09 -2.20807e-09 -2.13604e-10 1.49008e-08 1.1249e-10 -1.72242e-10)
(4.04202e-10 -1.53456e-10 4.47637e-10 -2.885e-10 2.00453e-10 7.05851e-09)
(3.63815e-10 -1.38266e-10 2.70745e-10 2.93504e-10 1.11837e-10 -3.94264e-09)
(-6.193e-11 -1.65821e-10 -8.1219e-11 4.75738e-10 -5.26955e-10 -1.63241e-09)
(3.90308e-10 -2.61478e-10 -9.18472e-10 4.48692e-10 6.30975e-10 -2.72783e-09)
(3.54007e-11 -3.53069e-10 1.08085e-11 4.6952e-10 -7.05243e-10 -3.29663e-09)
(1.87412e-10 -7.805e-11 -3.88638e-10 4.97496e-10 5.39686e-10 -2.32232e-09)
(2.43942e-10 -4.81102e-11 -4.56892e-10 5.01975e-10 4.34982e-10 -3.15146e-09)
(7.47488e-10 -1.99007e-11 9.08404e-10 1.17488e-09 -1.58169e-10 -7.67337e-09)
(4.64815e-10 4.35138e-10 6.00506e-10 1.28185e-10 2.10331e-10 -3.64412e-09)
(3.5608e-10 2.54172e-10 4.65466e-10 1.63887e-09 -2.54984e-10 -1.98162e-09)
(-2.56486e-10 3.4867e-10 -2.28368e-10 1.57521e-10 1.34759e-09 -1.11722e-09)
(1.54027e-10 6.3281e-10 4.03499e-10 9.97402e-10 6.1025e-11 -1.16283e-09)
(4.66965e-11 -1.63315e-10 -4.36832e-10 3.95094e-10 1.01063e-09 -2.56256e-09)
(1.01878e-10 4.15475e-10 1.55722e-10 3.81237e-10 6.60778e-10 -3.16487e-09)
(1.38114e-10 3.08825e-10 -8.67744e-10 5.19337e-10 7.87184e-10 -5.01027e-10)
(4.92432e-10 -7.67612e-11 -1.1119e-09 3.23499e-10 9.85465e-10 -1.77778e-09)
(3.33809e-10 1.0851e-10 -3.60284e-10 2.85454e-10 1.18234e-09 -1.47239e-09)
(9.56185e-11 6.02074e-11 -3.14092e-10 5.4111e-10 2.08544e-10 -1.53023e-09)
(2.48384e-10 6.52431e-10 9.01714e-10 7.67129e-10 5.47728e-11 -1.89568e-09)
(3.59183e-10 -1.61951e-11 -5.59928e-10 3.51576e-10 1.14571e-09 -2.51833e-09)
(7.35198e-11 -9.50746e-11 1.59884e-09 -3.4045e-11 6.48154e-11 8.01343e-09)
(3.67634e-11 2.6278e-11 3.05196e-10 -4.36411e-10 4.89357e-10 7.53134e-09)
(-1.12002e-10 -3.04737e-11 2.64692e-10 -1.36463e-11 -6.71284e-11 6.70312e-09)
(-1.55585e-10 -4.17528e-11 1.33893e-10 1.47393e-11 -1.89596e-11 4.92607e-09)
(3.2161e-10 -7.39487e-11 1.10231e-09 -2.54322e-11 -1.43762e-10 3.27874e-09)
(-4.80878e-11 -6.97031e-12 1.58702e-10 -2.05123e-11 -3.19066e-11 5.10979e-09)
(8.4249e-11 -1.00496e-10 3.43754e-10 -4.12473e-10 3.49015e-10 6.24079e-09)
(3.75265e-10 -5.2528e-11 1.24535e-09 -3.30297e-11 -1.1525e-10 3.51127e-09)
(-3.70132e-11 -2.79804e-11 1.61808e-10 9.97742e-12 -5.64125e-11 5.26191e-09)
(2.61445e-09 -2.03266e-09 -3.35109e-10 1.82711e-08 -8.36981e-12 -3.15103e-10)
(6.72104e-09 -2.02525e-10 -2.66202e-10 8.61077e-09 2.75894e-10 -3.56241e-10)
(6.54906e-09 -2.29378e-09 -6.62522e-10 1.63063e-08 3.19275e-10 -3.54333e-10)
(6.98067e-09 -8.20943e-10 -5.90636e-10 1.17053e-08 3.2789e-10 -2.34289e-10)
(2.70562e-09 -1.80808e-09 -7.70642e-10 1.83079e-08 4.65901e-10 -3.67622e-10)
(6.92212e-09 -9.51919e-10 -2.78536e-10 1.16463e-08 2.23641e-10 -2.14242e-10)
(6.48302e-09 -2.44708e-09 -3.86822e-10 1.62338e-08 3.09407e-11 -3.35613e-10)
(2.73203e-09 -2.02099e-09 -2.33129e-10 1.80996e-08 7.99498e-11 -2.66009e-10)
(6.90081e-09 -7.57503e-11 -2.30473e-10 8.65216e-09 2.86929e-10 -3.45955e-10)
(7.18202e-09 -6.24196e-10 -2.24597e-11 1.1504e-08 1.39084e-10 -2.24047e-10)
(6.69782e-09 -2.30057e-09 -1.07915e-10 1.53274e-08 -1.34649e-10 -2.217e-10)
(2.92189e-09 -1.92474e-09 -1.43049e-11 1.78282e-08 -2.00213e-10 -2.01415e-10)
(7.01632e-09 -8.44826e-10 -1.03748e-10 1.15594e-08 2.63572e-10 -2.27398e-10)
(6.56967e-09 -2.40916e-09 -1.60282e-10 1.581e-08 -1.27193e-10 -2.75186e-10)
(3.19259e-10 5.86401e-12 5.20853e-10 -3.62688e-11 -1.1463e-11 7.7546e-09)
(2.91731e-10 4.80079e-12 2.50708e-10 1.57034e-12 -6.66058e-12 5.77313e-09)
(2.55712e-10 5.01305e-12 3.95427e-10 6.07362e-14 -8.86788e-12 5.33124e-09)
(-2.35989e-10 -3.80386e-13 -6.13397e-11 -8.03409e-14 -1.83578e-11 4.12585e-09)
(-2.49392e-10 -7.12896e-13 -4.17958e-10 -1.21752e-12 -1.6206e-11 2.8548e-09)
(9.27506e-09 3.62564e-09 -1.60618e-09 9.52291e-09 -7.44161e-10 4.71704e-11)
(3.74801e-09 3.40008e-09 8.39156e-09 6.20005e-09 5.44462e-09 -2.81155e-09)
(-1.08632e-08 4.64315e-10 1.83212e-08 4.27402e-09 3.84244e-09 3.55047e-10)
(2.14209e-10 2.1312e-10 4.27929e-10 1.58747e-09 2.00198e-09 1.98058e-09)
(9.57984e-11 5.95481e-10 6.82514e-10 8.40748e-10 2.17377e-09 5.20197e-09)
(-1.4063e-09 -5.91285e-10 6.68321e-10 3.08594e-09 3.27046e-09 9.93708e-10)
(1.3553e-08 4.93755e-09 6.23752e-10 2.86814e-09 6.38749e-10 -3.13981e-10)
(2.80237e-10 6.08672e-10 1.79039e-09 7.30007e-10 2.37025e-09 4.51243e-09)
(-1.03902e-09 2.52745e-09 3.8952e-09 2.56553e-09 1.50487e-09 4.65519e-10)
(-1.17847e-09 3.7113e-11 2.13672e-09 1.72417e-09 1.94028e-09 1.39666e-08)
(-1.36686e-09 -1.84267e-10 -2.44609e-10 -1.17982e-10 1.54446e-09 1.43578e-08)
(-1.25987e-09 -1.29318e-10 -4.63824e-10 4.87286e-11 3.36939e-10 1.68048e-08)
(-1.69195e-09 -5.70617e-10 1.12588e-09 -4.42734e-10 1.709e-09 1.7748e-08)
(-2.3899e-09 -1.03125e-09 3.24052e-10 6.05342e-11 7.67566e-10 1.99233e-08)
(-1.43248e-09 1.05624e-10 -5.52941e-10 5.72834e-10 4.77999e-10 1.33977e-08)
(-1.57518e-09 -1.99318e-10 1.6491e-09 7.29925e-11 2.19536e-09 1.39324e-08)
(-8.8067e-09 -6.08633e-09 1.5576e-08 -6.49616e-10 7.61146e-09 6.13249e-09)
(-4.2303e-09 -4.94977e-09 1.57255e-08 -7.49321e-10 1.28409e-08 1.06839e-09)
(3.86005e-10 8.36531e-10 3.14637e-09 1.01211e-09 2.74944e-09 4.4912e-09)
(-1.74946e-09 -7.54172e-10 3.93134e-09 -1.34174e-10 3.12722e-09 1.38328e-08)
(-1.75875e-09 3.79803e-10 6.80067e-09 2.57269e-09 3.9336e-09 2.77639e-09)
(-2.79375e-09 -1.7995e-09 1.46639e-09 -2.00623e-10 1.31567e-09 1.98483e-08)
(-8.83643e-10 2.57316e-10 3.76422e-09 5.14266e-10 2.82194e-09 8.23751e-09)
(2.11911e-09 1.05069e-09 3.91497e-09 7.57838e-09 2.03339e-09 -1.32864e-09)
(1.99607e-09 1.67592e-09 1.21566e-09 6.07113e-09 3.44726e-09 -7.40096e-10)
(2.58461e-08 7.39121e-09 -4.24292e-10 4.35278e-09 2.30288e-09 -5.91415e-10)
(1.13634e-08 1.94586e-09 1.48817e-09 1.40611e-08 -1.63349e-09 1.17589e-09)
(3.61253e-09 1.11118e-09 8.90257e-09 1.42959e-08 6.98002e-09 -1.54542e-09)
(-4.54423e-09 -6.64535e-09 8.57637e-09 -5.92535e-09 1.03544e-08 1.64626e-08)
(-6.15124e-10 -1.34656e-09 1.83367e-09 2.66022e-09 1.27083e-08 1.8247e-10)
(1.72447e-09 4.10941e-09 2.90695e-09 2.28942e-08 1.06844e-08 -2.75043e-09)
(6.22807e-10 -2.32272e-10 2.49961e-09 7.6071e-10 5.94532e-09 4.50011e-09)
(5.06271e-09 -5.24294e-09 5.02494e-09 1.23383e-09 1.03886e-08 4.12638e-09)
(6.34633e-09 -3.22987e-09 5.72251e-09 -7.63113e-08 4.79331e-08 8.18846e-09)
(8.69359e-10 -1.59017e-09 2.07499e-09 9.29053e-11 9.14057e-09 5.64188e-09)
(9.52342e-10 -3.52113e-09 4.60114e-10 -4.63675e-09 2.48972e-09 2.11801e-08)
(-5.15947e-10 -9.57215e-10 8.63833e-10 -9.30129e-10 9.88335e-11 1.393e-08)
(1.17143e-10 -9.90502e-10 8.8425e-10 -1.17058e-09 -1.34864e-09 1.36319e-08)
(-6.0981e-10 -1.19274e-09 1.23979e-09 -2.22915e-09 1.10134e-09 1.8946e-08)
(-3.59836e-10 -1.89413e-09 1.78136e-10 -1.51273e-09 8.54692e-10 2.10179e-08)
(-8.08576e-10 -1.1671e-09 4.74604e-11 -1.32643e-09 -2.00721e-09 1.48929e-08)
(-4.51084e-10 -1.17713e-09 1.73465e-09 -2.36536e-09 2.55002e-09 1.76079e-08)
(9.59429e-09 1.0831e-09 8.94962e-10 1.42823e-08 1.73054e-10 -6.81584e-10)
(5.22676e-09 8.39648e-09 2.2128e-09 4.47445e-08 8.04503e-10 -8.89559e-10)
(1.02745e-08 -2.48611e-09 6.81052e-09 7.29207e-09 1.12281e-08 -3.1433e-09)
(-3.01453e-09 -5.57904e-09 4.14084e-09 -3.23275e-09 6.78251e-09 1.98678e-08)
(-3.58787e-09 -6.22423e-09 1.55595e-08 -3.89458e-09 1.66015e-08 1.47694e-09)
(6.06398e-10 -3.22358e-10 4.12272e-09 6.66609e-10 6.57438e-09 3.41192e-09)
(-5.18884e-10 -1.65713e-09 3.02729e-09 -1.94046e-09 4.92038e-09 1.56428e-08)
(4.53738e-10 -6.85637e-10 7.3802e-09 1.37513e-08 6.20519e-09 -4.69509e-10)
(-8.19926e-10 -2.72963e-09 6.41402e-10 -3.06443e-09 2.14311e-09 2.05312e-08)
(6.20062e-11 -1.24121e-09 3.29837e-09 -1.83367e-09 7.18326e-09 1.08007e-08)
(4.1435e-09 9.46308e-10 -9.39659e-10 1.72173e-08 3.71444e-10 -1.45642e-09)
(8.02304e-09 1.33996e-09 -5.41698e-10 1.58474e-08 -3.83034e-10 -1.36078e-09)
(7.94918e-09 -1.50965e-10 2.87303e-10 9.7166e-09 -5.70783e-10 1.69677e-10)
(8.44138e-09 2.06898e-09 -1.22499e-09 1.24935e-08 -5.45274e-10 -1.05818e-09)
(4.93975e-09 1.98164e-09 -5.92021e-10 1.67666e-08 1.14762e-09 -1.89447e-09)
(7.38953e-09 -1.5354e-10 -4.63586e-10 1.54312e-08 -3.9968e-10 -5.65337e-10)
(7.69977e-09 1.06188e-09 -7.26189e-10 1.19787e-08 -2.5931e-10 -6.56096e-10)
(3.78209e-09 2.79254e-10 -7.85172e-10 1.74908e-08 2.82561e-10 -7.98491e-10)
(8.11163e-09 1.95207e-10 1.94705e-10 9.92553e-09 -4.27578e-10 -4.88874e-11)
(7.15056e-09 -9.18083e-10 -3.06998e-10 1.50605e-08 -2.58491e-10 -2.03462e-10)
(7.69346e-09 6.52539e-10 -3.7016e-10 1.18326e-08 1.00288e-10 -2.76125e-10)
(7.1774e-09 -6.94996e-10 -3.57077e-10 1.5294e-08 -3.9521e-10 -3.0726e-10)
(7.58992e-09 7.02066e-10 -5.4308e-10 1.19384e-08 -4.13124e-11 -3.37911e-10)
(3.68109e-09 -1.49288e-11 -6.30729e-10 1.74458e-08 8.64782e-11 -5.83924e-10)
(1.1069e-08 1.3825e-09 7.00987e-10 1.38003e-08 -7.31103e-10 -2.91312e-10)
(9.63401e-09 -9.01751e-11 5.83266e-10 1.3724e-08 -8.39957e-10 6.47466e-10)
(1.05039e-08 -1.64761e-09 3.53281e-10 1.91861e-08 -4.28886e-13 1.62657e-10)
(9.82296e-09 -1.30759e-09 5.42977e-11 1.53295e-08 -4.87761e-10 9.46362e-11)
(9.97904e-09 -1.01706e-09 -5.28284e-11 1.53625e-08 -2.7781e-10 9.5214e-11)
(1.0713e-08 8.4608e-10 2.11888e-10 1.47122e-08 -2.59041e-11 -8.84414e-10)
(1.0335e-08 -1.69315e-09 9.64443e-10 1.78222e-08 9.11887e-10 -1.88352e-10)
(9.97208e-09 -7.78549e-10 1.89537e-10 1.52563e-08 -4.31641e-10 2.0877e-10)
(9.14637e-09 -4.79167e-10 1.76193e-10 1.36823e-08 -3.71481e-10 1.55702e-10)
(9.44164e-09 -2.59329e-10 2.19992e-10 1.38259e-08 -5.31189e-10 3.02578e-10)
(-8.37742e-10 -8.24045e-10 -5.42315e-10 -5.64727e-10 -5.06667e-10 1.86568e-08)
(-2.91944e-10 -5.41801e-11 -6.78836e-10 -7.12653e-10 -8.21732e-10 1.51029e-08)
(-1.13281e-09 -1.46513e-10 -4.29332e-10 -1.31241e-10 -1.00784e-10 1.70069e-08)
(-1.39408e-09 -7.56431e-10 5.09973e-10 -8.77023e-10 7.92043e-10 1.91464e-08)
(-1.84923e-09 -1.01808e-09 4.15613e-11 -2.24552e-10 1.0994e-10 2.02872e-08)
(-4.00587e-10 1.87212e-11 -6.70925e-10 -3.42369e-10 -9.15452e-10 1.31996e-08)
(-8.08222e-10 -6.12792e-10 -2.17365e-10 -9.80239e-10 -4.04789e-10 1.7836e-08)
(-6.83044e-10 -9.67211e-10 -5.19817e-10 -5.35345e-10 -1.2136e-09 1.78903e-08)