/*--------------------------------*- C++ -*----------------------------------*\
| =========                 |                                                 |
| \\      /  F ield         | OpenFOAM: The Open Source CFD Toolbox           |
|  \\    /   O peration     | Version:  2012                                  |
|   \\  /    A nd           | Website:  www.openfoam.com                      |
|    \\/     M anipulation  |                                                 |
\*---------------------------------------------------------------------------*/
FoamFile
{
    version     2.0;
    format      ascii;
    class       pointVectorField;
    location    "0.106/solid";
    object      pointD;
}
// * * * * * * * * * * * * * * * * * * * * * * * * * * * * * * * * * * * * * //

dimensions      [0 1 0 0 0 0 0];


internalField   nonuniform List<vector> 
5201
(
(-4.04262e-11 -3.33916e-11 -1.4231e-11)
(5.57082e-13 -2.04551e-14 -2.62483e-14)
(-3.11291e-12 5.13102e-13 -2.40838e-12)
(2.31903e-11 9.28901e-12 -8.03628e-13)
(-7.09094e-13 8.50699e-13 -1.68074e-11)
(2.15807e-12 1.39061e-12 -2.81783e-12)
(3.52299e-11 7.06976e-12 1.76218e-11)
(-4.53194e-12 -1.71856e-13 -1.78047e-12)
(-6.06679e-13 -6.57888e-12 -1.17916e-12)
(-6.25878e-12 -1.66241e-11 -1.69301e-11)
(1.56781e-12 -6.95664e-12 1.23397e-11)
(3.42809e-11 2.32348e-11 5.62083e-11)
(7.43738e-13 -1.94687e-12 2.19528e-12)
(-3.65326e-12 -6.36768e-13 4.10329e-12)
(2.16826e-12 -9.74542e-12 -1.33203e-11)
(-3.00594e-13 -9.33869e-13 1.86399e-12)
(-4.14479e-12 -1.89758e-12 -1.72644e-12)
(-4.66625e-12 -1.8059e-13 -1.80016e-12)
(2.72633e-11 9.73226e-12 5.51741e-12)
(-3.21728e-11 -1.41435e-12 1.10128e-13)
(2.54785e-10 1.09147e-09 4.26827e-12)
(2.18345e-11 9.78094e-12 -3.12657e-13)
(-8.46528e-12 2.30117e-12 4.86773e-13)
(-2.90961e-12 -1.4605e-11 -3.53209e-12)
(3.1602e-10 1.01449e-09 4.07671e-11)
(-2.90836e-11 2.12128e-12 1.67362e-12)
(1.90073e-11 3.50415e-12 -1.13598e-11)
(4.75381e-13 -1.22328e-13 2.65229e-12)
(2.48309e-10 7.67727e-10 1.06432e-10)
(2.32765e-10 1.08673e-09 4.2982e-12)
(2.97893e-10 1.11074e-09 3.08669e-11)
(1.03363e-11 6.81087e-12 -1.24789e-12)
(1.64051e-13 -4.54993e-13 2.7446e-12)
(3.00838e-14 1.66664e-12 2.17863e-12)
(-1.10889e-11 6.26227e-12 2.11032e-13)
(3.46417e-13 -4.95343e-14 2.5147e-12)
(-1.34636e-13 1.20022e-11 1.81032e-11)
(-3.19744e-11 -1.67594e-12 -3.71723e-13)
(-3.23089e-11 -6.98197e-13 -5.51378e-13)
(9.03205e-11 1.40492e-10 1.21286e-10)
(1.32876e-10 3.86168e-10 3.09478e-12)
(-1.17099e-11 9.92549e-12 -5.89523e-11)
(1.49496e-10 3.98757e-10 9.3611e-12)
(4.67166e-11 6.08181e-12 1.61595e-10)
(4.24966e-11 1.08147e-10 2.82441e-10)
(2.21953e-10 3.69809e-10 5.82465e-11)
(1.82235e-11 1.95167e-11 2.89065e-10)
(1.18603e-10 3.8589e-10 -1.43567e-14)
(-2.8883e-12 2.17939e-12 7.50811e-11)
(1.58267e-11 2.06018e-11 1.48713e-10)
(1.03958e-11 7.85769e-11 1.18426e-10)
(1.57933e-12 2.19988e-11 6.36641e-11)
(7.78199e-11 1.27654e-11 6.19701e-11)
(1.91427e-10 3.89036e-10 2.49062e-11)
(-2.43193e-11 -3.44218e-11 -2.09896e-11)
(3.15393e-12 -8.29444e-13 1.0825e-11)
(1.30306e-11 1.7772e-11 4.9191e-11)
(1.91896e-12 -1.31535e-12 4.48363e-12)
(-1.31019e-13 3.89097e-12 1.86213e-12)
(-1.59664e-12 -2.42698e-12 3.37244e-13)
(-5.7666e-13 -7.95568e-14 -3.25082e-12)
(-4.52975e-12 -9.61677e-14 6.14301e-13)
(-4.04037e-12 -6.69539e-14 -1.16246e-12)
(-4.63918e-12 -1.48467e-13 -1.79532e-12)
(2.56727e-11 1.01037e-11 1.0575e-12)
(-4.05846e-11 3.63435e-12 -1.43605e-12)
(2.10685e-10 5.25535e-10 4.22682e-12)
(2.19041e-11 9.24132e-12 -5.41219e-13)
(4.2546e-13 -2.97586e-12 -1.40869e-11)
(-3.32134e-13 -5.4758e-13 -6.52606e-12)
(-6.47288e-12 1.11934e-11 1.47899e-12)
(6.53657e-13 -1.44977e-11 2.92267e-11)
(6.39922e-13 -3.11133e-11 1.43678e-11)
(-4.56132e-12 8.25612e-12 -1.27149e-11)
(1.41738e-11 3.3409e-12 1.89548e-10)
(2.96594e-12 -9.91047e-12 -2.76392e-12)
(4.22599e-11 9.11366e-12 3.4665e-11)
(2.88072e-11 7.60189e-12 1.09399e-11)
(2.63862e-10 4.9301e-10 5.28012e-11)
(-2.54674e-11 5.69882e-12 9.16776e-12)
(9.406e-13 -6.81308e-14 7.44428e-13)
(-4.26613e-12 -7.50269e-13 -1.93133e-12)
(-4.62198e-12 -1.91596e-13 -1.79616e-12)
(-5.17769e-12 -9.4628e-14 9.11573e-13)
(2.15759e-11 9.90375e-12 -7.21241e-13)
(1.5508e-11 5.40832e-12 8.61443e-11)
(-6.9201e-12 -9.97585e-12 -1.12908e-12)
(-4.51292e-12 -1.18324e-11 -1.74516e-12)
(-3.4139e-12 -2.87925e-12 3.31896e-12)
(9.35521e-13 -5.04049e-12 7.98424e-14)
(-1.10009e-13 5.34752e-15 9.51476e-14)
(3.93847e-10 6.48057e-10 5.8249e-11)
(1.46332e-10 1.35997e-10 5.66456e-11)
(3.16238e-10 2.66286e-10 4.66971e-11)
(3.04594e-10 7.55036e-10 6.12718e-12)
(1.97307e-10 2.21226e-10 3.20869e-12)
(-1.07878e-12 1.73709e-11 2.13609e-11)
(3.69873e-10 7.89095e-10 2.53253e-11)
(2.39326e-10 2.26137e-10 1.32456e-11)
(-4.00801e-12 -1.13205e-12 1.11514e-11)
(1.02814e-11 1.86483e-11 2.53251e-11)
(1.18607e-10 2.20364e-10 2.08104e-10)
(-3.98601e-12 -8.54771e-12 6.32928e-12)
(2.20141e-10 3.55827e-10 1.01526e-10)
(1.93584e-11 2.65903e-11 5.04241e-11)
(-8.55335e-12 3.82437e-12 -5.75784e-13)
(-5.92053e-13 2.6984e-12 -3.61082e-11)
(3.59238e-12 3.22297e-11 -2.4928e-11)
(-3.10206e-12 1.98327e-12 1.77142e-13)
(-4.08244e-12 -1.28224e-12 -3.20876e-13)
(-3.02225e-13 1.18557e-13 1.87558e-12)
(1.47631e-12 -1.02464e-12 3.91641e-12)
(-4.78676e-12 -9.6837e-13 8.86046e-13)
(-5.08273e-12 -7.19547e-14 8.76223e-13)
(2.37684e-10 5.29135e-10 2.15428e-11)
(-3.81767e-11 5.29735e-12 1.74951e-12)
(2.14815e-10 2.24981e-10 9.13265e-12)
(-3.19851e-11 -1.42134e-12 -2.82591e-13)
(-3.23697e-11 -1.4797e-12 1.50175e-14)
(3.29313e-10 7.59133e-10 1.05564e-11)
(2.40823e-10 1.07884e-09 6.51626e-12)
(2.77449e-10 1.12203e-09 1.07684e-11)
(1.94188e-10 5.21523e-10 7.53725e-13)
(-4.13319e-11 3.61305e-12 -7.59341e-13)
(9.49009e-12 8.05944e-12 2.60681e-10)
(8.06054e-12 8.32241e-12 5.15662e-12)
(-1.45048e-11 4.69662e-12 1.28234e-12)
(7.43404e-12 3.01682e-11 1.51352e-10)
(4.37888e-12 4.9949e-12 6.77823e-12)
(-1.89228e-12 -4.74525e-12 9.33237e-13)
(3.06069e-10 9.64963e-10 6.33626e-11)
(4.1135e-10 7.34589e-10 3.02913e-11)
(3.09646e-10 1.04858e-09 4.21074e-11)
(2.91039e-10 2.39977e-10 2.51175e-11)
(-2.62826e-11 3.91071e-12 4.39601e-12)
(-3.10875e-11 8.24799e-13 -2.55229e-14)
(3.35462e-11 -4.32788e-12 -1.94245e-11)
(-9.17296e-12 3.3008e-12 1.80743e-12)
(2.15983e-12 6.41446e-14 1.44604e-13)
(-1.01018e-13 2.56301e-14 -2.81146e-13)
(7.33169e-13 -4.33614e-13 3.00746e-12)
(3.86964e-13 -5.00511e-14 2.58381e-12)
(-1.90411e-13 9.81056e-16 1.01862e-13)
(-3.16506e-11 -1.88777e-12 -2.90048e-13)
(1.17992e-10 1.38706e-10 1.13784e-10)
(9.20069e-11 1.1418e-10 1.22983e-10)
(1.61682e-10 2.22908e-10 1.43795e-10)
(2.15584e-10 3.2508e-10 9.25089e-11)
(1.40508e-10 3.90388e-10 5.23882e-12)
(2.00465e-10 5.20591e-10 2.16549e-12)
(2.07928e-10 2.24241e-10 5.28239e-12)
(3.16508e-10 7.4929e-10 9.52898e-12)
(1.24759e-10 3.86514e-10 1.5262e-12)
(2.24513e-10 5.3367e-10 1.02949e-11)
(-6.427e-12 7.26164e-12 -2.31758e-11)
(-2.77287e-12 2.53235e-11 -2.07598e-11)
(1.67079e-10 3.99116e-10 1.5969e-11)
(2.1958e-10 2.22171e-10 1.22988e-11)
(3.45989e-10 7.88468e-10 1.45813e-11)
(3.11267e-11 1.85556e-11 3.13768e-10)
(4.44596e-12 -3.4435e-12 1.91996e-10)
(2.91534e-11 4.13151e-11 3.26693e-10)
(2.69679e-11 -8.52886e-11 2.75596e-10)
(2.00458e-11 4.43056e-11 1.72807e-10)
(4.11543e-10 7.23909e-10 3.31782e-11)
(3.00807e-10 2.46462e-10 3.0346e-11)
(2.63793e-10 4.57689e-10 8.05466e-11)
(2.10746e-10 3.81623e-10 3.64643e-11)
(1.02722e-11 1.266e-11 1.85148e-10)
(7.413e-12 1.41953e-11 1.23796e-10)
(1.89727e-10 2.19583e-10 2.07987e-12)
(1.89282e-10 5.21348e-10 -1.0189e-12)
(1.5662e-11 3.84439e-11 1.49991e-10)
(2.4997e-10 5.10205e-10 3.5476e-11)
(2.35279e-12 1.00895e-11 1.512e-10)
(4.32428e-11 4.35659e-11 6.09427e-11)
(5.16922e-11 1.72658e-11 9.18846e-11)
(3.50299e-12 5.64952e-11 9.11935e-11)
(2.39201e-11 -7.87315e-13 6.20913e-11)
(3.97335e-10 7.51326e-10 3.11237e-11)
(2.71107e-10 2.36128e-10 1.78872e-11)
(-1.78236e-12 1.35018e-12 9.42513e-12)
(-4.8913e-12 -1.48876e-13 9.77372e-13)
(-5.00733e-12 -5.48053e-13 2.92192e-13)
(6.18693e-14 2.28912e-13 -1.08676e-12)
(2.14597e-11 3.89657e-12 1.35484e-11)
(-5.60968e-12 -9.30225e-12 2.43932e-12)
(8.12718e-12 9.87684e-12 3.27318e-12)
(-5.24721e-12 -4.41704e-13 8.96218e-13)
(-2.15901e-15 2.14284e-14 4.00457e-14)
(-2.66281e-13 -2.24922e-14 -3.92584e-13)
(3.90726e-12 -8.09585e-14 1.6036e-12)
(-1.24834e-12 -4.51211e-12 1.84038e-13)
(-1.10468e-12 -7.59839e-13 6.26046e-13)
(-9.78629e-13 -6.30011e-12 4.02826e-12)
(-1.29237e-11 7.62995e-12 -8.23174e-14)
(-9.32887e-12 -2.70992e-12 2.10272e-12)
(-1.27392e-13 3.09199e-15 1.23922e-13)
(-5.13062e-12 -7.8341e-14 8.83093e-13)
(1.62837e-11 1.75555e-11 5.06196e-11)
(-4.06359e-11 3.3376e-12 -9.44424e-13)
(-4.0786e-11 4.69757e-12 -7.37385e-13)
(6.47152e-12 -9.85481e-12 8.72269e-12)
(-1.64004e-11 8.33317e-12 2.50175e-11)
(-4.164e-11 3.59361e-12 -1.00063e-12)
(1.7202e-12 -5.0825e-12 6.47581e-12)
(-3.21383e-11 4.86856e-12 5.22007e-12)
(1.51345e-11 -6.68941e-13 7.36502e-11)
(6.07866e-12 2.62394e-12 7.42541e-11)
(-6.295e-12 -1.44679e-12 -1.45226e-11)
(1.84761e-11 -3.89199e-13 9.31244e-11)
(6.68446e-12 -2.81856e-13 7.28465e-11)
(7.64754e-12 2.23828e-11 6.21449e-11)
(1.78578e-11 9.09337e-11 1.04261e-10)
(-5.72078e-12 -1.94903e-11 7.40494e-11)
(1.01532e-11 -6.29311e-13 5.87899e-11)
(2.47663e-11 9.21973e-11 9.03551e-11)
(-1.7243e-11 1.55824e-11 4.36429e-11)
(7.40107e-12 -6.87281e-12 6.18869e-11)
(4.45469e-12 -8.5089e-12 3.64369e-11)
(2.69029e-11 -4.02785e-12 4.44024e-11)
(3.59941e-12 -7.55195e-13 6.31622e-11)
(3.51328e-12 -4.91056e-13 6.32154e-11)
(9.84329e-12 -2.96911e-13 5.76228e-11)
(3.06413e-10 3.71297e-10 1.08398e-10)
(5.26805e-11 7.23655e-11 4.89169e-11)
(1.45267e-11 -7.80828e-13 7.24747e-11)
(2.36109e-10 4.33635e-10 5.46122e-12)
(2.48254e-10 4.36273e-10 8.77479e-12)
(8.50545e-12 8.66386e-12 6.81853e-11)
(-8.35236e-12 4.22768e-12 -2.92106e-11)
(-1.58013e-11 2.73557e-11 -1.23316e-11)
(-1.42217e-11 1.75498e-11 -1.57359e-11)
(2.13293e-11 5.15631e-12 1.04875e-10)
(2.6815e-10 4.49003e-10 1.67413e-11)
(2.5523e-10 4.42678e-10 1.28504e-11)
(7.18778e-12 -1.44044e-12 7.7781e-11)
(3.17099e-12 -3.58695e-13 6.15746e-11)
(9.31556e-12 -1.70166e-13 5.54882e-11)
(-3.48764e-12 2.39128e-11 3.7514e-11)
(9.28273e-12 2.4244e-11 1.29999e-10)
(6.82967e-11 5.1109e-11 3.55438e-11)
(9.69078e-11 6.89642e-11 3.69326e-11)
(3.47981e-11 1.21107e-10 2.2626e-11)
(1.77925e-11 1.12028e-11 1.37501e-10)
(2.8795e-10 5.7235e-10 -1.4687e-11)
(6.211e-11 9.95942e-11 4.3446e-11)
(3.53472e-10 4.46186e-10 4.63458e-11)
(3.44865e-10 4.486e-10 3.46517e-11)
(5.2257e-10 1.0422e-09 1.45365e-11)
(4.61333e-10 9.4851e-10 -1.62508e-11)
(-2.72113e-12 -1.82986e-14 1.40549e-10)
(-1.89775e-12 -1.417e-11 1.15223e-10)
(3.79155e-11 3.62712e-11 1.44091e-10)
(1.67364e-10 5.92762e-11 1.5327e-11)
(1.66321e-10 6.09295e-11 2.11708e-11)
(1.17314e-11 -1.24489e-12 6.40704e-11)
(1.22112e-10 6.35116e-11 4.60674e-12)
(1.16569e-10 6.37338e-11 3.27299e-12)
(4.8009e-10 1.11206e-09 1.45703e-11)
(4.70359e-10 1.11791e-09 5.86505e-12)
(2.2447e-10 4.32248e-10 3.17574e-12)
(4.63598e-10 1.12753e-09 3.93398e-12)
(1.11382e-10 6.37879e-11 2.32776e-12)
(5.91377e-11 1.24896e-10 2.84261e-11)
(9.17867e-12 6.15622e-12 1.13438e-10)
(-1.94212e-11 9.13206e-12 -2.46711e-12)
(-2.4672e-11 1.8851e-11 8.71743e-11)
(-2.88807e-11 1.91085e-11 2.43363e-11)
(5.21598e-12 3.70203e-11 -1.20957e-11)
(8.04485e-11 4.02282e-11 -1.4922e-12)
(-4.74602e-12 2.87732e-11 9.31095e-12)
(-1.49073e-11 1.715e-12 1.04692e-10)
(2.85093e-11 1.82435e-11 4.78188e-11)
(-1.64806e-11 1.69854e-11 4.50346e-11)
(1.22922e-12 5.96167e-11 9.12579e-11)
(7.44208e-12 1.93182e-11 3.52272e-11)
(-3.73544e-12 -7.05079e-13 4.34874e-11)
(1.56068e-11 -3.58403e-12 1.75268e-11)
(5.43169e-12 3.57232e-11 1.45867e-11)
(8.32882e-11 5.13393e-12 3.04384e-11)
(3.51946e-11 3.39978e-12 2.52517e-11)
(9.35274e-11 -1.83187e-13 2.20606e-11)
(3.01519e-10 4.5059e-10 2.16774e-11)
(3.32879e-10 4.48405e-10 2.88367e-11)
(1.2599e-10 6.18117e-11 6.40514e-12)
(1.33723e-10 5.98474e-11 8.63225e-12)
(5.01902e-10 1.14841e-09 2.29606e-11)
(5.2655e-10 1.18247e-09 1.84328e-11)
(5.29936e-10 1.05644e-09 1.92349e-11)
(5.3386e-10 1.13024e-09 1.18563e-11)
(1.65187e-10 6.08722e-11 1.29913e-11)
(1.48353e-10 6.04544e-11 1.078e-11)
(4.24606e-12 -2.09331e-12 6.50693e-11)
(3.31931e-12 -4.33426e-13 6.23215e-11)
(9.56267e-12 -2.20778e-13 5.64558e-11)
(6.22542e-13 4.11949e-14 1.9304e-12)
(-2.48008e-12 1.65805e-13 -7.11798e-13)
(3.16048e-13 -4.01446e-13 -4.94204e-14)
(-2.54245e-12 -8.01365e-13 -1.51317e-11)
(-1.70692e-12 1.24704e-13 -2.99975e-12)
(-8.9953e-12 6.26823e-13 2.17342e-12)
(-2.67089e-12 -6.39549e-13 1.27277e-12)
(-3.75771e-12 5.36491e-13 -1.5051e-12)
(1.75986e-11 4.70583e-14 6.4608e-11)
(-3.23606e-13 -1.25878e-13 -1.46783e-11)
(-5.59949e-13 3.69424e-13 -1.28101e-11)
(-3.97372e-12 1.01632e-11 4.97657e-12)
(-1.472e-12 4.08668e-12 1.43179e-12)
(2.25773e-12 -1.24696e-11 1.74052e-11)
(1.23269e-11 1.12277e-11 9.39465e-11)
(5.03192e-12 -2.87802e-12 -3.50666e-12)
(-4.42478e-12 -2.89806e-13 -1.83235e-12)
(-4.59936e-12 -1.74338e-13 -1.82002e-12)
(1.25882e-11 -4.64381e-13 5.35531e-11)
(-9.23284e-12 -2.91636e-13 1.83226e-12)
(-2.90428e-12 -1.20576e-13 7.43672e-13)
(8.66526e-12 -9.58055e-12 4.43463e-11)
(-3.76868e-12 -9.74971e-12 -2.21346e-12)
(-3.488e-12 -9.19758e-12 -1.90267e-12)
(4.83526e-13 -4.49101e-12 1.27649e-12)
(1.14978e-12 -5.00994e-12 8.81925e-13)
(4.7754e-10 5.79484e-10 2.95588e-11)
(4.33962e-10 3.52883e-10 3.96197e-11)
(3.78243e-10 5.45742e-10 7.20043e-12)
(2.89417e-10 2.88941e-10 6.45911e-12)
(4.44131e-10 5.72438e-10 2.48742e-11)
(3.42033e-10 2.95619e-10 2.25176e-11)
(-7.76408e-13 -5.62106e-12 -1.3518e-11)
(-3.676e-12 -8.28725e-13 7.67712e-12)
(1.17497e-11 1.08352e-11 4.6608e-12)
(7.61723e-13 -4.98351e-11 2.18923e-11)
(5.61091e-11 4.40595e-11 1.59224e-10)
(-4.9382e-12 -1.01737e-11 8.93028e-12)
(8.07632e-12 -7.31388e-12 9.09929e-12)
(3.86806e-12 -3.91888e-12 3.4358e-12)
(-3.4634e-13 -1.46583e-12 -1.19645e-12)
(-5.62625e-12 1.25719e-12 -3.25272e-12)
(-4.422e-12 1.02335e-12 -1.27483e-11)
(3.33554e-12 1.60226e-12 4.9768e-12)
(-1.01481e-11 3.30906e-11 -1.03471e-11)
(-1.83152e-12 6.06691e-13 5.98357e-13)
(5.61026e-13 -6.26799e-12 -2.19183e-12)
(-3.72668e-12 1.90382e-12 3.53927e-13)
(1.78822e-11 3.64283e-11 6.99833e-11)
(5.77678e-12 -1.24513e-11 -2.24839e-11)
(-2.0868e-12 -2.19413e-12 1.15183e-12)
(-6.89782e-12 -9.91593e-13 -2.66314e-12)
(-1.14139e-12 -3.90282e-13 -9.79918e-13)
(-1.30436e-13 -2.76918e-13 2.22352e-12)
(2.51122e-13 -1.51591e-12 2.60558e-12)
(-4.23031e-12 -1.14508e-12 -1.16457e-12)
(-4.11768e-12 -1.54711e-12 -2.03404e-12)
(1.54344e-11 -3.89664e-13 6.49909e-11)
(-2.69178e-12 -1.00984e-12 7.79639e-13)
(-8.68271e-12 -3.17973e-12 1.72068e-12)
(-4.6593e-12 -1.60694e-13 -1.8326e-12)
(-4.65515e-12 -2.01703e-13 -1.82933e-12)
(1.21667e-11 -1.92872e-13 5.14866e-11)
(-9.31187e-12 -3.34062e-13 1.89859e-12)
(-2.89787e-12 -9.65485e-14 7.17126e-13)
(-2.38412e-12 3.42976e-12 1.24062e-13)
(7.73831e-11 1.22545e-10 4.74517e-12)
(-3.56431e-11 4.5344e-12 -5.41042e-14)
(-3.55152e-11 4.55801e-12 1.21078e-13)
(2.98827e-10 1.30541e-09 1.10379e-11)
(2.74359e-10 9.53515e-10 6.5339e-12)
(2.46634e-10 1.08109e-09 5.34359e-12)
(2.65355e-10 1.10722e-09 5.44225e-12)
(-8.02842e-12 7.77563e-12 3.91991e-13)
(-8.16217e-12 -4.88984e-12 1.93127e-13)
(-1.212e-11 1.03399e-11 1.26868e-10)
(-2.12016e-12 3.39833e-12 1.22504e-12)
(-1.20323e-11 3.59368e-12 1.47503e-12)
(1.79926e-13 -1.35846e-11 -4.37056e-12)
(-5.02858e-12 -1.39713e-11 -3.98534e-12)
(1.31843e-12 -8.56386e-12 7.95358e-11)
(-1.52775e-12 -1.12827e-11 3.29015e-12)
(-4.19342e-12 -7.97955e-12 -4.85788e-13)
(3.54788e-10 1.20218e-09 2.50216e-11)
(3.14609e-10 1.00114e-09 4.8939e-11)
(3.47693e-10 8.93037e-10 3.45779e-11)
(3.13712e-10 1.0246e-09 4.05674e-11)
(-1.0763e-12 4.52691e-12 4.95931e-13)
(1.21082e-10 1.3117e-10 1.47171e-11)
(-3.46268e-11 7.90945e-12 2.38532e-12)
(-3.55088e-11 7.26318e-12 7.99907e-13)
(-1.38678e-12 -7.36528e-13 1.70607e-12)
(1.12928e-10 2.49771e-11 2.13059e-11)
(2.75416e-11 -3.24803e-12 -1.70633e-11)
(1.65718e-12 3.01269e-12 1.45316e-12)
(3.82268e-13 -1.29571e-11 1.26513e-12)
(-7.21393e-12 -7.45126e-14 -3.07492e-12)
(-1.20633e-12 -4.67479e-14 -9.28347e-13)
(6.4909e-13 -2.22589e-13 2.81743e-12)
(4.60497e-13 -7.56028e-14 2.62468e-12)
(3.16622e-10 7.10901e-10 8.50226e-11)
(1.90601e-10 4.65811e-10 1.39929e-10)
(2.6299e-10 8.97238e-10 2.54815e-11)
(2.85856e-10 8.8342e-10 9.26904e-11)
(4.87879e-10 5.68089e-10 3.02001e-11)
(4.06287e-10 3.14488e-10 3.08696e-11)
(3.14073e-10 2.94542e-10 1.30801e-11)
(4.04628e-10 5.53325e-10 1.52886e-11)
(2.51493e-10 9.49749e-10 5.43295e-12)
(2.43962e-10 1.10566e-09 2.29313e-12)
(2.36521e-10 1.0824e-09 6.20726e-12)
(2.76388e-10 1.30324e-09 3.74773e-12)
(2.29201e-10 1.08882e-09 1.66291e-12)
(3.1641e-10 9.81237e-10 2.84412e-11)
(2.88829e-10 1.1249e-09 2.0241e-11)
(3.04554e-10 1.08209e-09 3.92711e-11)
(3.38984e-10 1.33489e-09 2.01706e-11)
(7.7243e-11 7.95006e-11 2.5262e-11)
(-5.95893e-14 -2.31012e-12 2.36114e-12)
(7.39946e-13 -2.33341e-12 2.65e-12)
(1.56258e-11 1.20819e-11 2.83577e-12)
(1.32918e-11 1.36151e-11 2.44132e-12)
(-2.58311e-13 4.92067e-14 1.92126e-12)
(-6.60842e-12 -1.51895e-12 -2.49093e-12)
(-1.32465e-12 -1.80671e-13 -9.32742e-13)
(6.62947e-13 -6.34762e-13 3.11782e-12)
(-3.82872e-12 -1.75165e-12 -2.89788e-12)
(1.80707e-12 -4.1346e-13 4.28907e-12)
(-5.01884e-13 -5.65163e-12 3.65518e-13)
(-8.59686e-13 4.90689e-13 -8.73682e-13)
(4.09069e-11 -1.21334e-11 -1.54416e-11)
(-2.09272e-11 2.33167e-11 1.27341e-11)
(-9.93334e-12 5.65162e-12 -5.49578e-13)
(-7.71704e-12 4.71547e-12 -8.63195e-13)
(-1.34506e-11 5.28263e-12 2.15722e-13)
(-1.34593e-11 5.44139e-12 3.31588e-12)
(-7.11575e-12 -7.32489e-14 -2.92463e-12)
(3.91252e-13 -4.35138e-14 2.53568e-12)
(4.12299e-13 -4.98211e-14 2.56971e-12)
(-1.18478e-12 -1.97082e-14 -9.06242e-13)
(1.48295e-10 1.46961e-10 3.44162e-11)
(2.26806e-12 2.03865e-11 2.49424e-11)
(3.96155e-12 5.13402e-12 2.26591e-12)
(-3.21665e-11 8.8009e-12 9.3414e-12)
(6.83067e-11 1.20617e-10 1.23005e-12)
(-3.53848e-11 4.27951e-12 -4.15557e-13)
(-2.7001e-12 3.16599e-12 3.34057e-14)
(-3.48914e-11 3.95632e-12 -3.19888e-13)
(9.11511e-11 1.23024e-10 6.22134e-12)
(-3.55214e-11 4.85254e-12 -3.19303e-13)
(-3.6291e-11 5.98336e-12 -5.40179e-13)
(-1.6368e-12 3.84587e-12 1.53947e-13)
(1.0134e-10 1.28868e-10 1.22316e-10)
(1.45367e-10 2.10136e-10 1.3622e-10)
(1.65005e-10 2.49684e-10 1.19841e-10)
(3.15271e-11 6.19168e-11 7.14475e-11)
(1.1009e-11 -4.38166e-13 5.21993e-11)
(1.35541e-10 3.90969e-10 4.00775e-12)
(1.52256e-10 2.98474e-10 3.75209e-12)
(2.09754e-10 5.79676e-10 5.92523e-12)
(1.2741e-10 3.89824e-10 2.25538e-12)
(-8.84312e-12 8.84096e-12 -5.31216e-11)
(-8.44856e-12 1.6109e-11 -2.37253e-11)
(-9.49254e-12 1.44746e-11 -2.89126e-11)
(1.79269e-11 1.27336e-11 -6.02237e-11)
(1.26336e-11 4.83248e-13 5.06699e-11)
(1.43141e-10 3.98453e-10 6.97475e-12)
(1.55765e-10 4.04721e-10 1.23618e-11)
(1.65582e-10 3.04431e-10 1.06468e-11)
(2.31401e-10 6.02834e-10 1.18445e-11)
(4.96223e-12 -9.58986e-14 3.2917e-11)
(2.97804e-10 9.13682e-11 1.25015e-11)
(4.41459e-11 1.8772e-11 2.58098e-10)
(8.25635e-12 -4.07383e-12 2.19473e-10)
(3.67916e-11 3.3679e-11 6.51943e-11)
(2.42963e-11 -5.68473e-12 5.40583e-11)
(1.16773e-10 2.34805e-10 2.46023e-11)
(3.15765e-11 6.71581e-11 3.13827e-10)
(5.56146e-11 6.52209e-11 2.21331e-10)
(2.98505e-11 4.56367e-11 2.79665e-10)
(3.33884e-11 8.25261e-11 1.20187e-10)
(2.24523e-10 3.54572e-10 7.618e-11)
(3.12411e-10 5.59184e-10 5.30548e-11)
(2.45967e-10 3.08265e-10 4.21643e-11)
(2.17403e-10 3.81432e-10 4.52436e-11)
(5.50303e-10 8.44574e-10 1.02396e-11)
(2.48329e-11 2.00101e-11 3.17985e-10)
(2.39144e-11 2.80928e-11 3.189e-10)
(1.37322e-11 1.43536e-11 2.36251e-10)
(1.29196e-11 1.78162e-11 1.90461e-10)
(2.79914e-14 -7.46004e-12 1.39639e-10)
(4.12854e-10 1.36263e-10 3.04507e-11)
(6.22034e-12 -6.72543e-13 3.67863e-11)
(3.12343e-10 1.34966e-10 8.58576e-12)
(5.12384e-10 8.8171e-10 1.07463e-11)
(1.19959e-10 3.90235e-10 6.8701e-13)
(1.36031e-10 2.95821e-10 8.17421e-13)
(8.00388e-12 6.74813e-11 2.20773e-10)
(-4.73845e-12 5.24638e-12 1.9328e-11)
(4.18921e-13 -1.00919e-12 1.35762e-10)
(-1.06855e-12 6.13493e-12 1.13284e-10)
(-2.79815e-11 1.74988e-11 3.74335e-11)
(-3.36631e-12 -2.3255e-12 4.23215e-11)
(1.19285e-11 3.51632e-11 -1.6983e-11)
(5.54854e-11 4.4313e-11 2.06723e-11)
(1.09422e-11 1.41206e-11 1.70446e-10)
(7.56863e-12 1.55789e-11 1.56954e-10)
(2.41341e-11 2.63533e-11 7.80484e-11)
(3.32485e-11 1.89697e-11 1.19443e-10)
(-6.1115e-12 4.60242e-12 7.28142e-11)
(1.37012e-11 1.35741e-10 7.20416e-11)
(1.61185e-11 7.52034e-11 1.28914e-10)
(6.55348e-12 6.70535e-11 1.04923e-10)
(-2.0754e-13 2.04064e-11 7.07641e-11)
(3.33049e-12 1.37268e-11 8.54891e-11)
(1.05287e-12 4.17511e-11 7.34429e-11)
(1.6037e-11 4.44114e-11 1.82505e-11)
(8.87078e-12 6.64679e-12 4.77843e-11)
(-9.30396e-13 -2.62389e-13 3.27292e-11)
(6.58015e-11 1.41247e-11 8.35913e-11)
(4.46585e-11 4.81248e-12 5.85318e-11)
(1.29044e-10 1.64913e-11 3.27303e-11)
(8.04341e-11 1.11836e-11 3.53774e-11)
(5.18775e-11 2.89786e-13 3.92053e-11)
(1.78311e-10 3.9833e-10 2.02357e-11)
(2.01715e-10 3.87812e-10 3.03389e-11)
(2.84274e-10 5.84107e-10 3.07061e-11)
(2.13271e-10 3.0835e-10 1.90387e-11)
(3.25402e-10 1.29483e-10 1.46005e-11)
(5.57808e-10 9.33334e-10 2.45701e-11)
(5.73652e-10 8.78943e-10 1.96779e-11)
(3.84174e-10 1.33918e-10 2.56292e-11)
(5.40237e-12 -1.51835e-13 3.44488e-11)
(6.35671e-13 -1.10978e-12 -8.31157e-13)
(-1.19368e-12 -9.29346e-13 -6.41905e-12)
(1.40745e-12 -3.13026e-12 -2.33334e-13)
(1.8506e-11 3.52876e-12 6.16188e-11)
(-7.33023e-12 1.46596e-12 1.31014e-12)
(-2.2484e-12 -8.02035e-13 2.17701e-12)
(1.10729e-11 1.34872e-13 4.84161e-11)
(-4.84215e-12 4.11727e-14 1.0204e-12)
(-4.59726e-12 -4.16211e-13 3.37429e-13)
(1.7314e-11 -8.69983e-13 7.46843e-11)
(-2.58689e-12 -1.39277e-13 5.05984e-13)
(-7.77033e-12 6.99699e-14 1.84112e-12)
(1.19081e-11 -1.54463e-13 5.06624e-11)
(-9.28472e-12 -2.80845e-13 1.88102e-12)
(-2.90049e-12 -8.10135e-14 7.19101e-13)
(3.42339e-12 7.10881e-12 2.599e-12)
(1.48113e-12 2.49423e-12 -8.33574e-13)
(-9.60146e-12 5.41675e-12 1.07907e-12)
(-3.52227e-12 1.71229e-12 -6.53748e-13)
(-1.13972e-11 2.20271e-11 9.34228e-11)
(3.12478e-12 1.23477e-11 3.60323e-12)
(-1.15253e-11 9.51635e-12 2.13374e-13)
(1.43535e-12 -1.29552e-11 1.32594e-10)
(-1.11175e-13 -1.54203e-11 3.15956e-11)
(1.42083e-12 -1.05353e-11 1.95091e-11)
(3.10932e-11 2.64596e-10 -2.10272e-11)
(2.00862e-11 -1.6879e-11 1.21083e-11)
(-1.62605e-11 -1.98327e-11 1.28677e-11)
(8.74411e-12 2.23452e-11 8.89615e-11)
(2.17273e-12 1.42768e-11 -1.25675e-11)
(-5.0463e-12 4.27975e-13 -7.81212e-12)
(2.61374e-11 1.66556e-10 2.11157e-10)
(2.85819e-11 3.25647e-11 1.77667e-10)
(-2.7828e-12 2.93187e-11 1.69816e-10)
(1.5629e-11 1.69615e-11 8.59836e-11)
(1.62976e-11 -7.34157e-12 7.33587e-12)
(-3.98543e-14 -1.47293e-14 -1.34257e-13)
(2.42826e-12 4.02705e-14 1.08969e-12)
(1.28446e-11 -8.65529e-13 5.45127e-11)
(-2.87043e-12 -5.07372e-13 7.70686e-13)
(-9.16023e-12 -1.28063e-12 1.26725e-12)
(1.23916e-11 -2.69116e-13 5.26642e-11)
(-9.28237e-12 -3.51968e-13 1.89624e-12)
(-2.91992e-12 -1.09162e-13 7.27911e-13)
(5.67426e-12 -2.7302e-13 3.54111e-11)
(-5.24332e-12 -1.6463e-13 9.1567e-13)
(-5.1733e-12 -8.95065e-14 8.88551e-13)
(1.23063e-11 9.78816e-12 1.22854e-10)
(9.98633e-12 6.65448e-12 9.14536e-11)
(2.70015e-11 8.59311e-12 9.82418e-11)
(1.96352e-11 2.96206e-12 7.75357e-11)
(-7.04735e-12 -1.35952e-11 9.21384e-11)
(-7.98171e-12 -1.1126e-11 5.87044e-13)
(-6.07064e-12 -6.96716e-12 1.05269e-12)
(-3.52788e-12 -1.49702e-11 6.01619e-11)
(-7.20904e-12 -1.43486e-11 -7.0386e-13)
(-2.79702e-12 -7.37087e-12 2.35521e-13)
(2.7498e-11 3.99816e-12 4.9456e-11)
(-2.02727e-12 -3.54285e-12 5.25652e-12)
(-5.21674e-12 -3.59778e-12 2.54324e-12)
(1.96353e-11 -9.30116e-12 3.31479e-11)
(-3.30582e-13 -3.47948e-12 -1.82476e-13)
(1.50663e-12 -4.18099e-12 5.16585e-13)
(8.07537e-14 1.17626e-14 1.78867e-13)
(8.19791e-16 6.35556e-15 1.84585e-13)
(3.2828e-10 5.17827e-10 9.15624e-11)
(3.018e-10 4.91665e-10 1.00759e-10)
(4.66827e-10 7.61149e-10 -1.93487e-11)
(4.06131e-10 6.9961e-10 3.81705e-11)
(4.86924e-10 5.74319e-10 2.84888e-11)
(4.13718e-10 3.21873e-10 3.29953e-11)
(1.42074e-10 1.29778e-10 9.95339e-11)
(1.57873e-10 1.98878e-10 7.37407e-11)
(7.27612e-11 5.7396e-11 2.44015e-10)
(6.58725e-11 7.42283e-11 2.57282e-10)
(2.48639e-10 2.40038e-10 8.11786e-11)
(2.52221e-10 3.03229e-10 7.7009e-11)
(4.21401e-10 1.5268e-10 3.5427e-11)
(3.02567e-10 2.5218e-10 3.761e-11)
(3.04487e-10 2.93356e-10 9.27812e-12)
(3.91614e-10 5.47502e-10 1.09834e-11)
(3.10335e-10 7.52005e-10 8.05192e-12)
(1.98575e-10 5.81247e-10 3.64685e-12)
(5.05937e-10 8.91143e-10 5.93852e-12)
(2.99722e-10 7.5628e-10 4.06849e-12)
(2.03032e-10 2.22946e-10 3.99922e-12)
(1.42932e-10 2.97023e-10 1.79031e-12)
(2.99732e-10 1.34134e-10 6.60542e-12)
(1.93437e-10 2.20333e-10 2.59803e-12)
(-4.7733e-12 1.36348e-11 -9.94657e-12)
(-2.45257e-12 2.01538e-11 -2.41118e-11)
(8.57146e-13 1.32307e-11 7.85603e-11)
(1.19085e-11 2.76171e-11 5.92687e-11)
(1.11251e-11 1.04446e-10 3.07947e-11)
(4.7462e-10 5.70415e-10 2.90232e-11)
(3.85418e-10 3.10358e-10 2.70631e-11)
(3.17292e-10 2.90449e-10 1.79214e-11)
(4.19591e-10 5.66117e-10 2.01124e-11)
(2.53823e-10 6.03182e-10 2.18312e-11)
(3.57027e-10 7.95677e-10 1.98019e-11)
(3.83986e-10 7.71448e-10 2.94812e-11)
(5.76465e-10 9.34229e-10 1.87301e-11)
(1.84368e-10 3.07344e-10 1.24348e-11)
(2.27323e-10 2.2279e-10 1.25746e-11)
(2.55848e-10 2.31741e-10 1.47899e-11)
(3.47958e-10 1.29598e-10 2.20905e-11)
(1.12254e-11 3.59776e-11 6.17359e-11)
(-1.53455e-12 -4.13663e-13 8.61591e-12)
(3.1397e-13 2.52809e-12 3.04965e-12)
(-2.41105e-11 8.0695e-11 1.06743e-10)
(-1.2258e-11 -3.47125e-13 1.00549e-11)
(1.22647e-10 2.73609e-10 1.5219e-10)
(1.09347e-10 4.73375e-10 3.83574e-11)
(5.46999e-11 8.97008e-11 4.48031e-11)
(-2.78875e-12 -2.98246e-12 3.4291e-12)
(9.05418e-12 -2.63826e-12 -4.70893e-13)
(-2.10697e-11 1.40314e-11 -1.11472e-11)
(-4.08449e-12 1.27007e-12 -2.17228e-12)
(-1.1829e-11 5.56042e-12 -1.66353e-13)
(-4.58438e-12 4.19644e-12 -4.65152e-11)
(-1.581e-12 5.39919e-12 -2.63654e-11)
(-2.42676e-14 1.15133e-13 -1.31268e-11)
(-6.20371e-13 3.14351e-11 -8.31566e-12)
(-5.38894e-12 2.28776e-11 -8.35137e-12)
(-2.17383e-12 2.37393e-12 2.2496e-13)
(-2.13729e-12 1.59639e-12 3.19307e-13)
(4.03118e-11 8.49627e-11 1.6433e-10)
(1.35877e-11 1.18905e-11 5.71062e-11)
(-5.06901e-12 -7.3746e-13 1.27092e-13)
(-2.92977e-12 3.51778e-12 -2.63197e-12)
(-7.44139e-12 1.97864e-13 -2.57993e-12)
(-1.24701e-12 4.43326e-14 -8.40739e-13)
(-4.71694e-12 -4.49481e-13 -4.00129e-12)
(-9.85864e-13 -5.73046e-13 -9.29849e-13)
(9.23245e-12 -9.08433e-13 4.56005e-11)
(-4.76131e-12 -5.42188e-13 8.50603e-13)
(-5.1171e-12 -9.11283e-13 8.55376e-13)
(5.18143e-12 -1.19791e-13 3.36618e-11)
(-5.09978e-12 -7.42466e-14 8.63289e-13)
(-5.12411e-12 -7.90842e-14 8.69006e-13)
(1.59214e-10 3.01057e-10 7.4678e-12)
(2.12581e-10 2.25464e-10 7.10254e-12)
(2.17232e-10 2.23955e-10 1.10766e-11)
(3.20461e-10 1.33636e-10 1.01339e-11)
(7.40294e-11 1.22283e-10 2.42966e-12)
(-2.62217e-12 3.3303e-12 3.41485e-14)
(8.04884e-11 1.20743e-10 6.08192e-12)
(-1.72177e-12 3.57633e-12 1.59802e-13)
(2.20009e-10 5.86903e-10 7.1528e-12)
(3.22677e-10 7.50642e-10 1.01904e-11)
(3.36868e-10 7.73357e-10 1.17692e-11)
(5.28444e-10 8.93211e-10 2.03878e-11)
(2.61126e-10 9.41354e-10 8.22204e-12)
(2.85066e-10 1.29054e-09 7.76298e-12)
(2.94102e-10 9.87172e-10 1.14581e-11)
(3.19688e-10 1.34935e-09 1.43148e-11)
(1.82317e-11 1.09402e-11 2.99245e-10)
(8.25182e-12 3.65654e-12 2.35087e-10)
(9.77484e-12 1.14813e-11 2.43914e-10)
(4.30674e-12 8.20823e-12 2.142e-10)
(3.08779e-11 2.87855e-11 1.47638e-10)
(8.22382e-13 1.43836e-13 2.49408e-12)
(1.16701e-11 1.22801e-11 5.27382e-12)
(-2.7905e-11 1.60569e-11 7.40636e-11)
(-1.42157e-11 7.42514e-12 -7.15233e-14)
(-1.29123e-11 3.14667e-13 1.93867e-12)
(1.61618e-11 3.88268e-11 2.931e-10)
(6.82829e-12 3.67383e-11 1.44103e-10)
(6.73107e-12 2.29386e-11 1.23992e-10)
(2.66105e-12 3.2701e-11 1.10799e-10)
(2.57053e-11 3.35615e-11 1.55296e-10)
(9.51509e-12 1.05548e-11 1.14757e-11)
(-1.22027e-12 -3.3587e-12 3.5791e-12)
(-3.51725e-12 1.84093e-11 4.98327e-11)
(-1.76701e-12 -3.7176e-12 3.93281e-13)
(-1.18625e-12 -3.71552e-12 6.6904e-13)
(3.44935e-10 8.58655e-10 4.80174e-11)
(3.35655e-10 1.14939e-09 2.22569e-11)
(4.12356e-10 7.33194e-10 3.06899e-11)
(3.0412e-10 5.72425e-10 3.748e-11)
(5.71613e-10 8.57047e-10 2.42781e-11)
(4.06765e-10 7.38063e-10 3.08877e-11)
(3.50799e-10 1.24706e-09 2.6098e-11)
(3.35812e-10 9.23332e-10 3.73886e-11)
(2.94928e-10 2.41656e-10 2.79599e-11)
(2.33586e-10 3.07834e-10 2.93668e-11)
(4.05272e-10 1.34518e-10 2.55701e-11)
(2.83724e-10 2.39303e-10 2.15686e-11)
(1.25758e-10 1.34704e-10 1.97957e-11)
(-7.54125e-13 4.41171e-12 5.8615e-14)
(1.08964e-10 1.28744e-10 9.10589e-12)
(-1.58596e-12 4.29512e-12 8.30513e-14)
(1.07667e-10 5.37715e-11 4.83497e-11)
(7.90741e-11 2.42052e-11 6.65954e-11)
(1.65823e-10 -8.80368e-12 -1.96273e-11)
(1.98554e-12 -4.84445e-12 3.77897e-12)
(1.50189e-11 3.22182e-11 3.68464e-11)
(-1.09242e-11 1.26033e-12 4.65919e-13)
(3.97051e-12 4.58434e-12 -7.07296e-12)
(2.58084e-11 -6.60664e-12 3.57001e-11)
(5.79112e-12 1.2456e-13 2.521e-12)
(1.40959e-12 -4.6444e-12 -5.50788e-13)
(3.10799e-12 -9.95548e-12 1.92365e-12)
(9.79957e-14 2.96045e-14 -3.88173e-14)
(-1.6664e-13 -4.12329e-14 -3.58975e-13)
(-7.1606e-12 -6.51697e-13 -3.45647e-12)
(-1.2695e-12 -1.22302e-13 -9.81263e-13)
(-1.18703e-12 -1.83362e-14 -9.06654e-13)
(-7.15485e-12 -6.32093e-14 -2.96483e-12)
(-6.7079e-14 2.06142e-15 1.85987e-13)
(-2.22286e-14 2.21292e-15 2.01583e-13)
(6.46943e-11 1.19662e-10 7.24358e-13)
(-2.39259e-12 -1.53556e-12 -4.65198e-12)
(1.62011e-11 -9.34848e-13 8.0704e-11)
(1.73532e-11 -4.55063e-13 7.22854e-11)
(1.11908e-11 -9.33854e-14 5.20912e-11)
(1.48936e-11 -5.45367e-13 7.27813e-11)
(1.80639e-11 1.23361e-12 6.06967e-11)
(6.19126e-12 6.24784e-13 7.65069e-11)
(6.83341e-12 5.4717e-12 7.13584e-11)
(-8.31785e-12 1.1221e-11 -2.46576e-11)
(-7.06879e-12 1.16194e-11 -1.30847e-11)
(2.01513e-11 1.20947e-12 1.00098e-10)
(1.15164e-11 2.39514e-14 4.78248e-11)
(7.27176e-12 -3.54573e-13 7.48144e-11)
(3.12882e-12 -3.20042e-13 6.12683e-11)