/*--------------------------------*- C++ -*----------------------------------*\
| =========                 |                                                 |
| \\      /  F ield         | OpenFOAM: The Open Source CFD Toolbox           |
|  \\    /   O peration     | Version:  2012                                  |
|   \\  /    A nd           | Website:  www.openfoam.com                      |
|    \\/     M anipulation  |                                                 |
\*---------------------------------------------------------------------------*/
FoamFile
{
    version     2.0;
    format      ascii;
    class       volSymmTensorField;
    location    "0.106/solid";
    object      sigma;
}
// * * * * * * * * * * * * * * * * * * * * * * * * * * * * * * * * * * * * * //

dimensions      [1 -1 -2 0 0 0 0];


internalField   nonuniform List<symmTensor> 
3124
(
(152.7 39.3209 62.3802 280.312 128.469 267.168)
(-16.8526 -2.25914 0.512743 -17.2467 -3.34091 -30.898)
(175.284 -3.04203 27.1368 169.1 -2.25335 386.072)
(451.715 75.0995 -3.88641 1266.87 1.35857 512.626)
(176.94 -2.19357 10.157 162.529 2.2807 376.229)
(-17.5402 -1.61138 -0.762686 -19.9581 -6.2913 -42.4056)
(174.581 -3.9815 32.3883 169.404 -1.72582 389.638)
(452.836 82.3887 -5.59275 1283.59 2.67452 514.049)
(183.985 -0.758918 13.8152 171.737 1.67041 393.773)
(99.2967 -0.826417 0.330038 148.903 74.4089 252.764)
(218.929 -14.6138 31.7146 119.474 76.4265 572.221)
(430.817 133.612 -10.7051 1179.77 42.4035 451.302)
(191.447 9.95638 -0.34566 184.87 -30.2845 392.069)
(139.831 0.0646552 13.3386 132.65 -0.922065 301.011)
(88.7416 -12.2757 -16.5051 127.482 62.6058 215.677)
(187.112 15.5738 19.7268 176.102 -17.441 376.067)
(244.836 -6.74085 16.9657 251.126 30.8671 551.506)
(156.86 6.86249 12.9397 143.756 -14.6682 294.598)
(165.05 11.73 34.698 144.136 -9.10973 309.469)
(446.774 121.515 -13.6172 1230.04 27.2153 485.127)
(151.297 0.168029 8.36148 142.939 -0.348471 322.851)
(150.676 0.155578 8.24354 142.037 -0.451719 321.742)
(139.168 -0.00746848 13.0869 131.793 -1.49479 299.523)
(856.131 49.2144 17.2696 918.967 -38.9732 615.082)
(122.943 24.2592 60.7756 243.882 117.278 244.334)
(192.829 -17.5463 98.5836 198.294 217.608 511.681)
(281.404 107.788 47.6682 681.787 133.694 287.174)
(537.544 -12.7115 68.9074 900.454 184.244 358.295)
(137.437 3.03267 124.105 156.316 138.961 237.305)
(286.544 123.19 48.6122 599.193 108.132 231.757)
(34.2381 -1.06504 12.2682 30.4394 -3.39588 62.5791)
(167.97 1.33172 18.7503 159.169 -6.24497 365.974)
(33.0402 0.0764802 11.7117 27.162 -2.42117 59.7858)
(544.287 -2.61793 -5.28114 590.999 3.07156 332.761)
(487.793 88.763 -2.03525 875.81 4.19898 405.469)
(623.446 -112.003 -9.85369 1439.29 -9.22266 616.334)
(450.379 69.2294 -3.0013 1262.03 1.95675 511.477)
(570.777 4.73643 -5.6867 615.605 6.40726 346.654)
(623.239 -112.574 -4.75909 1444.29 7.45194 613.748)
(484.452 82.4504 -3.24417 870.32 2.70754 404.026)
(176.542 0.230613 134.898 192.586 227.014 499.575)
(146.444 7.94913 13.7841 95.7662 52.5145 358.974)
(-20.6073 -11.3153 -12.3707 -15.2671 -12.3575 -85.1392)
(-61.4575 13.8414 -8.27276 -50.833 42.4699 -70.5653)
(24.8344 1.68665 -34.258 18.3118 39.3966 -3.93021)
(180.746 18.436 47.2231 188.324 4.06132 468.062)
(43.8192 -2.24242 14.4953 40.0724 -6.32018 85.509)
(116.058 0.396176 35.8458 97.384 -3.44879 254.564)
(558.874 -1.87546 -13.2434 615.213 7.09021 339.541)
(454.256 92.9235 -8.77994 1291.54 10.851 511.872)
(487.436 91.0758 -1.91197 881.011 6.90745 405.82)
(626.55 -108.524 -13.1999 1461.84 -16.3421 618.485)
(561.595 1.43503 -5.81457 608.537 6.70975 340.85)
(636.306 -90.4287 -16.6735 1503.47 17.5426 611.615)
(488.794 98.5063 -8.35187 886.361 9.54387 406.977)
(181.923 0.0355767 13.4243 171.452 -4.05372 393.736)
(146.318 0.128534 7.66498 137.576 -0.404381 312.002)
(134.617 0.0661381 12.0012 126.947 -1.13466 288.431)
(-9.6347 -0.0309747 3.46433 -15.9992 -0.291157 -43.8411)
(80.0392 -3.90308 5.12599 132.454 70.4784 171.507)
(301.359 -6.81832 -12.0111 322.877 32.9241 842.014)
(140.513 -10.3048 155.084 169.274 131.735 343.545)
(324.351 200.999 20.0132 507.259 41.5121 216.526)
(169.517 -15.8477 68.2399 203.295 189.045 431.19)
(277.873 -19.8193 12.1706 275.463 -27.8007 716.77)
(554.673 -50.0131 134.614 562.266 314.568 156.286)
(139.229 -32.3501 146.296 132.038 193.214 331.608)
(760.441 25.559 -0.131707 819.41 -54.4097 479.346)
(407.293 137.87 6.21889 1054.87 74.2042 399.846)
(618.781 -89.1915 -12.8345 1332.94 1.02528 554.93)
(489.388 155.681 -13.6747 881.688 23.6387 394.119)
(619.525 -44.53 29.7857 1158.64 109.247 444.339)
(627.922 5.90724 1.21094 676.476 -0.905669 390.468)
(485.398 174.563 -22.6718 864.476 32.1859 373.153)
(983.579 -50.5649 1.56354 1252.21 -8.42327 672.705)
(946.901 -17.3252 33.3884 1161.96 16.8938 613.015)
(327.116 -6.05664 -16.9243 327.661 6.25085 869.425)
(261.608 -13.427 -6.53632 267.023 -40.944 662.759)
(223.359 -45.8069 131.585 232.941 134.411 649.32)
(418.056 217.96 0.124997 521.911 23.2873 278.463)
(422.559 223.969 -23.1418 548.269 32.159 280.297)
(22.4128 -0.664633 -3.30439 27.4441 -2.92256 64.6021)
(20.5701 -0.097739 -4.24136 24.5956 -1.45975 63.0613)
(159.339 1.09193 18.579 152.072 -7.60571 349.653)
(-4.06352 -0.229008 5.8025 -10.913 -0.650884 -33.3362)
(25.501 -0.53193 11.9089 18.3084 -4.92159 38.6237)
(-11.4335 -0.209783 -11.2356 -7.39804 -0.90053 -14.0168)
(14.1499 -0.384218 -5.70148 18.1883 -2.90362 48.6157)
(401.375 154.45 -3.76931 519.798 8.72353 274.432)
(395.954 143.649 1.22983 518.18 4.11222 273.214)
(1037.96 -51.8181 -8.16806 1363.02 -4.96424 710.079)
(1043.31 -51.0874 -5.00171 1373.84 5.47923 717.264)
(546.153 -1.39279 -4.54583 593.105 3.45309 334.564)
(448.452 64.3588 -2.20063 1262.28 0.502574 510.752)
(623.103 -112.782 -4.16741 1451.14 4.37334 614.62)
(480.201 75.4803 -2.1489 865.891 1.61174 401.939)
(1047.27 -50.8534 -4.19855 1381.48 3.13204 722.479)
(393.283 139.973 -3.29787 516.67 4.40006 271.99)
(165.201 -13.1427 128.853 198.391 197.503 439.1)
(361.796 9.56177 22.0871 368.546 -9.06422 934.75)
(1.58338 -14.1517 -21.8007 10.7549 1.27965 -32.0909)
(267.187 1.98367 -38.8799 276.343 30.8799 709.534)
(74.2565 4.08304 -50.1044 68.9846 39.6721 135.631)
(-48.8108 4.31633 -14.7449 -41.6014 39.8767 -77.4065)
(58.3883 10.7185 -25.8329 51.5092 48.2886 89.2497)
(290.455 7.01973 -29.7654 284.45 7.43197 746.996)
(198.676 56.4877 72.4858 87.077 15.0156 184.119)
(109.67 15.5124 -36.8789 100.155 40.2892 219.097)
(226.616 34.0952 16.5699 202.815 6.206 521.399)
(204.348 -13.0886 -0.828286 231.702 1.05435 484.812)
(138.582 1.58288 29.5193 129.849 3.73771 304.609)
(31.4515 -1.58516 -0.867963 36.5002 -5.72813 85.9593)
(101.035 -0.0728899 18.5979 95.976 2.25796 257.93)
(186.331 -7.72453 -8.3856 211.571 -11.5962 423.896)
(112.9 -0.265571 18.1049 114.738 7.2191 273.086)
(257.106 33.2292 91.1674 84.0562 11.3583 194.562)
(562.552 -2.67483 -14.5926 617.453 5.74314 341.782)
(453.385 107.073 -12.155 1267.76 21.0803 501.775)
(619.231 -90.4632 -16.2748 1340.76 3.66103 572.319)
(499.114 141.927 -13.4468 891.089 18.1264 406.113)
(642.714 13.7321 -1.72843 688.838 1.12929 397.177)
(632.975 -88.2583 -16.5974 1466.46 33.7345 602.534)
(496.152 119.971 -14.7103 891.867 13.1389 408.076)
(400.836 156.394 1.00523 516.024 9.30527 272.877)
(403.85 171.655 -6.13755 508.484 14.981 271.051)
(1051.82 -50.1053 -10.022 1386.33 -10.4579 722.108)
(1081.96 -42.0601 -14.1051 1435.43 10.21 745.64)
(981.794 -48.3416 -6.14806 1256.56 -4.10383 667.166)
(1060.2 -42.2967 -14.5401 1396.06 21.1914 725.526)
(425.084 215.563 -7.78716 526.717 22.7899 281.936)
(409.744 182.403 -1.90033 513.743 15.1288 274.595)
(166.186 0.0838277 11.0482 156.945 -4.06722 356.708)
(147.425 0.183925 7.81937 138.65 -0.259519 314.482)
(135.377 0.178417 12.1213 127.686 -0.470139 289.889)
(-5.24885 -0.142517 5.24051 -12.0105 -0.509143 -35.4248)
(-9.15556 -0.0590648 3.6347 -15.5771 -0.217397 -42.8352)
(-17.8071 0.0122445 -12.8636 -13.9131 -0.167558 -28.6864)
(-12.9364 -0.0638813 -11.6213 -8.95866 -0.519473 -17.4873)
(-17.2309 -0.101652 -12.7125 -13.3548 -0.350878 -27.3495)
(571.342 -44.2911 -3.36899 1554.36 3.26323 631.133)
(-92.202 -20.537 -21.1172 -96.6836 -17.8142 -103.852)
(-28.0189 -10.5965 -9.07036 -40.4905 -11.3241 -27.7664)
(127.553 0.301528 9.86923 132.629 0.566418 311.433)
(176.706 -0.633187 19.4413 168.686 -0.682594 389.807)
(127.81 -0.0804092 9.49445 134.285 -0.867325 323.245)
(171.224 -2.90604 9.72311 154.307 3.75071 366.196)
(-64.114 -1.6487 10.1292 -85.198 -1.56877 -163.431)
(-34.0669 -1.12807 0.255394 -34.7055 -13.6027 -65.9124)
(-31.4698 -8.79109 -7.06717 -47.793 -10.4711 -35.172)
(-46.7483 -3.85205 -2.35957 -34.6443 16.1413 -132.324)
(178.683 -2.01992 45.8414 173.818 -0.393606 411.227)
(128.975 0.415647 8.74925 132.932 -0.836369 310.061)
(139.279 -0.180828 7.2649 141.189 -2.03255 335.647)
(188.105 -0.0242885 16.5228 177.227 0.919277 407.324)
(363.185 44.3736 75.7716 374.256 36.3578 639.201)
(88.7334 9.24535 25.1294 140.383 65.8496 203.4)
(182.718 -3.32584 -2.27977 225.344 53.2953 529.206)
(123.669 1.83571 -3.39577 125.973 124.221 317.947)
(221.241 4.33604 -14.3228 285.901 17.4054 621.947)
(156.801 3.92183 50.2037 200.746 65.6905 450.616)
(40.2068 29.036 61.1856 127.632 75.7742 238.465)
(460.345 -160.55 67.3684 316.962 94.5855 1048.38)
(26.424 -29.6883 41.0205 -137.533 329.95 250.846)
(141.101 2.84571 19.3268 -77.1762 -2.72091 571.239)
(244.925 -27.9245 34.8455 188.798 50.4994 639.373)
(666.24 -144.327 52.6239 996.719 -64.5832 1213.03)
(279.319 -12.9462 27.1855 209.654 -45.9176 725.524)
(257.323 -42.9344 38.1455 143.898 176.489 659.471)
(331.758 -20.6755 -22.8853 334.691 -41.5573 840.665)
(158.508 8.12261 6.03799 129.843 -6.08365 303.229)
(251.604 6.56785 -14.7652 240.581 -40.5952 575.925)
(207.559 3.04053 -12.9937 210.808 -38.7356 465.147)
(239.005 3.43245 -17.3282 234.167 -29.9649 577.378)
(178.021 -14.2814 -18.4499 166.789 -8.13745 399.826)
(283.294 -6.11454 -17.5288 275.692 -43.7699 699.744)
(142.189 -0.001286 14.6896 136.255 -3.34308 307.069)
(85.4679 0.0424361 -0.956056 92.9475 -0.958996 223.324)
(88.6054 -0.131777 -0.199575 96.8936 -2.35165 230.091)
(8.60073 8.24137 55.8212 -149.815 326.879 215.204)
(141.103 -27.9178 15.5972 -82.9033 0.493429 549.635)
(681.596 115.24 -16.1812 999.746 -86.0516 1197.33)
(105.26 1.67986 -26.0633 133.695 13.6316 265.877)
(61.715 -18.0719 -23.9275 88.9977 40.5623 135.746)
(162.889 -7.45854 -34.7969 191.889 42.8508 441.728)
(113.493 -1.50954 -9.2099 115.049 114.739 290.003)
(219.535 3.58941 -26.4491 264.753 14.7765 558.707)
(114.664 -8.89974 -47.9058 132.606 34.3054 284.296)
(52.4591 -9.5581 -15.9595 63.1623 54.1213 124.388)
(263.058 38.4902 -7.80005 230.4 -19.7099 510.265)
(171.089 15.6287 14.0573 135.187 -2.50075 307.915)
(228.831 15.6546 1.248 218.081 -28.4408 506.072)
(188.004 21.978 29.5265 172.147 -4.39225 378.114)
(225.558 11.0448 -1.60916 216.025 -25.8981 524.074)
(255.02 40.7152 6.2382 174.564 0.0512783 361.947)
(207.817 24.3903 3.95634 199.964 -8.98269 466.579)
(135.894 -13.2901 -11.0105 128.405 -3.99454 224.938)
(164.753 8.27933 8.68643 130.144 6.70973 286.748)
(157.428 1.35715 -3.56743 161.252 -17.0388 324.677)
(130.911 1.67849 22.9207 109.237 -14.1673 233.372)
(178.291 -13.5942 -20.5302 170.324 2.53422 371.509)
(182.406 2.91702 20.8111 123.688 -7.55962 256.241)
(125.013 -2.78796 4.04769 119.48 -10.2675 237.026)
(285.372 27.6658 25.1621 170.628 -11.9422 276.891)
(178.497 15.3331 14.3009 135.586 5.22906 293.214)
(174.211 16.3384 48.2718 145.658 -0.742354 322.568)
(145.3 8.20278 42.8792 116.233 -12.5736 253.111)
(277.791 37.2445 5.02217 186.293 9.10962 383.214)
(185.791 13.6283 0.31138 118.084 -8.33947 243.601)
(166.734 10.6915 64.9442 128.428 -4.70133 273.478)
(152.138 0.0839629 8.53488 144.085 -0.816948 324.257)
(149.72 0.199845 8.10358 140.954 -0.284959 319.751)
(137.863 0.160232 12.6964 130.222 -0.581609 296.131)
(84.8381 0.000724803 -1.09779 92.1798 -0.860838 221.871)
(83.1132 0.05067 -1.48536 90.2941 -0.653564 217.708)
(490.689 106.787 129.566 706.677 198.471 380.199)
(721.048 84.5102 36.7368 930.579 55.4992 404.95)
(373.676 36.3113 392.123 493.112 306.666 -96.4969)
(673.75 102.666 10.8092 731.579 35.6086 331.266)
(436.473 102.233 181.626 574.641 174.973 223.253)
(417.166 39.3236 176.35 528.704 253.456 209.714)
(529.67 93.9316 42.6371 770.768 125.808 273.728)
(316.015 57.7486 126.593 443.577 171.519 427.214)
(-18.5441 -77.1829 381.47 90.0483 314.041 -136.005)
(139.349 5.57746 81.3601 180.576 99.4277 326.2)
(157.779 0.224829 99.7345 170.232 147.121 317.69)
(223.55 39.3136 158.627 343.307 153.664 360.879)
(240.354 3.61084 154.442 254.714 220.464 352.573)
(189.359 5.96391 87.2355 222.251 141.581 402.928)
(-151.119 -44.9162 -41.9204 -194.415 -53.6657 -205.439)
(100.729 -1.39591 2.04819 107.471 -0.0933199 255.816)
(26.7028 0.134433 9.77714 21.9681 0.549317 45.337)
(98.6901 0.202838 -2.30078 106.405 -0.716227 257.754)
(177.247 -0.343743 18.6783 168.083 -1.71414 389.474)
(116.434 -0.518388 6.13458 121.517 -5.13929 292.887)
(127.061 -0.116851 8.87399 132.927 -1.94267 320.71)
(29.3939 0.650853 9.4541 24.965 1.67809 53.1715)
(88.9192 -0.533438 -3.14987 94.2194 -4.54491 229.823)
(98.4917 0.461398 -1.97532 105.187 -1.48479 255.856)
(549.68 -58.7416 -9.08365 981.727 7.93034 454.212)
(564.663 3.33503 -6.20295 609.905 4.4254 344.828)
(683.697 -72.3914 -7.74327 936.699 4.90557 479.516)
(622.175 -22.9594 -5.5337 748.343 2.52512 406.419)
(626.858 -18.8226 -7.01564 751.239 5.17217 407.598)
(685.85 -68.6818 -7.57227 933.05 5.83021 478.89)
(545.406 -63.1784 -4.95608 981.134 0.49482 453.429)
(553.329 -55.9334 -3.45986 985.168 -1.17006 456.584)
(562.837 2.04057 -6.25378 607.283 4.54118 343.002)
(633.752 -15.0189 -3.34346 758.312 5.6934 409.855)
(689.14 -66.5324 -3.87538 935.763 -0.112208 480.437)
(553.454 -55.3333 -5.30746 990.098 3.31536 456.835)
(633.587 -14.7753 -4.31953 756.779 3.24076 410.343)
(687.457 -66.2421 -6.40811 931.017 3.37471 478.825)
(173.546 -4.60367 13.4291 152.765 6.0136 373.175)
(-63.0052 -4.14799 8.12236 -65.1145 3.35512 -192.199)
(-29.2765 -4.97463 -2.43657 -13.1465 -15.8087 -76.391)
(-30.7894 -7.84433 -27.5541 -29.0378 18.9293 -124.333)
(-61.7515 -10.5921 0.324254 -48.7279 -21.1573 -161.712)
(-31.2195 -2.3415 -11.6591 -21.917 16.1906 -106.512)
(-46.8065 -1.44331 -13.7068 -39.0655 13.0495 -148.669)
(-106.973 -0.597022 27.2521 -94.1512 -4.74506 -359.599)
(-54.7058 13.0542 18.0152 -64.8048 6.30994 -177.974)
(10.9823 7.62517 13.964 49.466 -7.64952 -59.1486)
(-35.0588 10.4601 -6.85105 -22.6386 40.4276 -60.8809)
(4.36421 18.9843 12.105 29.6655 1.83075 -35.1416)
(-46.3164 -4.89946 -13.105 -35.8645 30.3188 -124.594)
(-57.2831 12.4643 4.67165 -48.9023 19.8233 -155.285)
(7.66299 9.26476 -26.0323 19.0997 23.6155 -11.5112)
(-6.86858 -2.30284 -33.3569 -11.9366 29.5639 -74.9748)
(-9.18112 3.2553 -10.8085 -10.6318 35.4702 -63.3671)
(-17.2353 1.80622 -9.42276 -3.87061 6.25631 -66.0109)
(-12.3523 19.5729 27.0514 3.21004 1.64318 -76.6743)
(-29.8948 -0.485852 -16.7978 -30.123 34.3713 -116.22)
(183.396 -2.85224 47.9653 180.169 1.94446 421.593)
(161.566 0.78834 9.15588 147.371 14.6807 386.403)
(144.633 -0.914211 7.94077 147.584 -2.01385 349.087)
(103 -1.25258 4.01679 108.11 -0.568789 255.449)
(90.084 -2.21846 33.0694 79.6727 -4.31287 178.798)
(111.984 -0.209109 4.76107 112.811 -0.957198 266.721)
(135.56 -3.01489 10.3126 120.658 10.4705 320.256)
(97.9618 -1.57584 37.3604 85.713 -3.4575 192.042)
(116.674 -0.839411 4.85423 118.084 -1.69237 275.642)
(541.269 -60.9799 -10.0533 1010.97 -0.251094 453.383)
(538.581 -6.07576 -7.98606 595.273 8.27682 326.263)
(702.745 -68.8133 -19.8756 995.463 9.57824 495.644)
(624.583 -24.6283 -17.7191 766.322 9.8367 408.134)
(545.702 -54.2423 -23.1193 1013.77 13.977 453.505)
(620.633 -28.5576 -8.35607 762.36 6.70923 406.542)
(698.068 -73.4123 -11.6047 990.592 0.92822 493.509)
(544.687 -60.6298 -6.99388 1005.71 2.39849 454.746)
(549.182 -2.27251 -6.91419 601.723 8.60787 331.779)
(630.856 -18.7259 -0.67379 760.516 4.17251 408.674)
(691.515 -69.0172 -3.23745 950.403 -4.03947 483.929)
(550.002 -57.7423 -0.429148 997.192 -6.0064 456.303)
(623.327 -25.3448 -3.11244 759.619 7.90716 406.015)
(694.44 -72.2749 -4.80845 971.648 -3.8158 489.094)
(190.423 0.17592 15.6256 179.758 -0.34389 413.484)
(145.247 0.144024 7.52123 136.542 -0.199818 309.688)
(133.379 0.150392 11.8628 125.71 -0.266036 285.645)
(80.4404 -0.0114116 -1.84019 87.5177 -0.550735 211.296)
(51.1125 -0.0213869 -12.5387 58.5577 -0.486179 144.238)
(702.268 108.769 -48.1853 709.703 -22.3248 425.431)
(273.012 102.002 251.747 346.573 163.339 76.2249)
(-466.164 13.9294 549.635 -12.0476 115.273 -129.617)
(91.5272 6.39361 12.8379 132.725 60.0594 144.518)
(140.991 17.8644 20.4754 163.339 65.2132 294.176)
(17.9615 -17.7386 20.0496 152.728 98.1137 89.9616)
(768.999 148.127 18.7125 448.454 19.1625 352.991)
(132.667 18.2601 53.7116 146.16 71.1076 259.633)
(13.65 75.8234 116.856 121.786 45.1461 58.7862)
(291.172 1.11339 64.1015 378.251 58.2085 745.524)
(248.635 -5.52801 -7.33828 286.101 46.3338 720.373)
(313.061 -3.87954 -13.9147 352.319 10.1082 855.001)
(300.542 -17.1185 33.7763 338.018 51.2699 883.741)
(324.167 -30.9375 9.72157 397.68 23.027 993.563)
(239.133 3.16871 -16.5882 299.292 14.34 684.039)
(232.424 -5.97953 49.4731 281.869 65.8608 697.651)
(-338.987 -182.59 467.281 -94.2747 228.344 109.188)
(-214.912 -148.493 471.764 -110.482 385.227 -55.9512)
(144.09 25.0959 94.3911 162.873 82.4832 267.246)
(216.373 -22.6252 117.94 264.832 93.8167 683.842)
(28.0198 11.3941 204.02 157.963 118.008 164.074)
(295.402 -53.9851 43.9916 373.195 39.4702 974.664)
(150.524 7.71949 112.926 192.461 84.6583 424.158)
(251.872 31.5208 117.449 415.65 61.0018 148.44)
(224.742 50.2777 36.4698 346.994 103.418 142.657)
(1441.55 221.736 -12.7288 796.75 69.0863 648.425)
(939.41 58.3759 44.6452 1020.34 -49.0046 633.785)
(476.545 33.3354 267.077 797.047 209.401 321.806)
(-1.48434 -199.36 257.291 -42.9181 310.631 628.72)
(31.6665 -40.3969 55.0102 129.927 381.25 55.5943)
(543.77 123.282 87.2084 1178.86 320.533 409.523)
(151.066 -6.96817 74.9883 155.203 178.36 267.385)
(386.397 -157.288 150.748 271.531 311.657 358.307)
(-1199.58 -96.8961 171.675 -3679.31 1437.99 -1144.32)
(174.674 -47.7052 62.2497 151.381 274.217 317.85)
(422.222 -105.634 13.8034 254.55 74.6915 1029.05)
(265.411 -28.7165 25.915 252.985 2.96501 698.79)
(286.529 -29.7151 26.5275 247.897 -40.4592 691.97)
(344.114 -35.7822 37.1936 295.533 33.0402 930.788)
(419.975 -56.8239 5.34409 385.388 25.6408 1061.31)
(262.795 -35.0129 1.42381 247.259 -60.2164 733.838)
(319.276 -35.314 52.0394 261.847 76.5005 861.046)
(809.717 32.4931 26.8489 950.359 5.19162 501.441)
(1261.14 251.894 66.384 2446.67 24.1351 1077.65)
(632.756 -74.5834 204.315 543.285 336.844 230.224)
(216.025 -167.371 124.225 209.478 203.475 902.493)
(-242.76 -186.727 466.784 -251.961 498.046 -90.8156)
(123.603 -9.67075 123.682 125.409 197.231 207.768)
(281.06 -49.7138 90.8188 238.413 147.611 765.91)
(322.661 -20.5691 221.406 721.587 186.156 294.964)
(349.957 -81.8888 19.2421 282.622 64.2934 990.492)
(205.013 -37.2363 98.9512 148.143 215.498 527.174)
(572.154 28.3892 -28.1898 964.368 11.1433 404.156)
(747.159 40.1988 -16.251 981.89 -11.491 465.644)
(639.774 -4.52895 8.61909 692.796 -17.1235 406.388)
(700.467 62.0695 -36.7498 822.03 -16.3582 415.48)
(593.961 59.4493 -17.7606 948.767 34.4287 388.934)
(722.433 -4.60621 -13.9076 963.685 -11.9904 483.787)
(658.996 31.8563 -21.7857 787.364 -7.7793 408.32)
(574.137 8.37762 -23.5552 985.399 8.47684 436.72)
(648.085 5.8562 5.84116 702.502 -12.8273 403.269)
(709.688 -27.5425 -9.20993 946.987 -7.75472 489.068)
(663.926 19.5762 -11.1048 788.1 3.00864 424.839)
(714.016 -20.8499 -10.7123 957.515 -11.8563 489.476)
(659.482 21.062 -16.2924 789.937 -1.23937 421.647)
(572.648 -0.447865 -18.9219 985.589 2.59435 444.698)
(885.076 41.475 21.0296 967.015 -21.9331 544.266)
(829.144 -2.70525 17.498 951.844 -25.1987 559.547)
(986.799 -49.4284 10.5984 1247.27 -0.0128666 676.564)
(862.748 -39.2277 1.62893 1027.94 -14.6328 570.899)
(871.697 -30.5118 -1.58485 1033.2 -8.33431 575.182)
(873.557 25.3824 6.35664 993.533 -0.777123 525.635)
(939.351 -50.7944 28.9333 1163.97 27.3566 623.649)
(871.498 -23.3565 5.68612 1030.02 -12.9492 578.599)
(791.538 -14.375 5.28578 927.615 -11.1444 521.818)
(813.577 -7.77986 6.59976 945.105 -15.9357 539.405)
(363.091 -24.7214 -16.2694 371.282 -15.2 947.929)
(308.452 -1.6254 -20.3651 295.831 -24.652 770.296)
(320.229 -4.3954 -12.88 350.276 -3.02351 864.419)
(337.871 -22.6929 15.2992 353.383 23.7613 954.084)
(354.325 -30.5423 1.24684 403.065 3.29821 1018.42)
(268.257 0.561637 -20.1278 270.004 -27.4636 676.263)
(336.824 -18.3837 -6.52095 331.664 -12.1437 896.152)
(354.627 -29.0163 -15.5945 359.058 -36.408 911.828)
(234.425 -4.54157 -11.0922 240.762 -43.5496 559.388)
(251.956 -29.2995 -32.5648 233.638 -44.98 640.571)
(339.437 -31.8872 11.8161 311.493 -1.05718 912.849)
(402.955 -53.3106 -6.35305 387.831 9.29285 1044.25)
(195.575 -18.3282 -4.51303 189.531 -11.8555 456.232)
(317.364 -20.6709 -5.85045 303.687 -31.1703 823.043)
(375.05 -34.6352 -3.42693 382.795 -2.62247 993.951)
(-272.91 -192.707 401.904 -201.745 367.36 118.38)
(308.373 -38.3852 72.8902 330.219 64.4945 905.86)
(330.936 -49.2709 63.0357 310.866 75.3547 917.523)
(329.384 -49.6486 25.0393 388.512 12.3098 1013.76)
(357.578 -68.6713 12.9125 328.905 45.5121 1004.87)
(347.306 -36.8453 26.4311 341.021 20.9429 959.158)
(737.719 130.698 -45.2301 766.484 -27.2278 430.2)
(682.536 90.2491 -22.257 682.905 -7.22286 401.66)
(631.409 100.499 -3.2346 620.184 14.4224 368.784)
(416.539 219.078 -10.0419 522.227 26.2065 275.788)
(653.782 107.88 -14.6471 634.984 14.0696 373.552)
(684.965 85.3732 -12.0136 671.356 9.14193 397.781)
(678.727 89.7515 -13.6222 678.87 1.47776 393.433)
(736.734 132.225 -52.3956 703.537 -12.5587 413.086)
(408.292 221.172 -2.26266 522.579 29.0065 266.025)
(589.988 92.4329 1.58297 604.812 13.4661 339.456)
(-29.1612 -1.8481 -7.78131 -29.4396 -1.50783 -69.9133)
(16.1952 0.0675933 -4.73832 20.1723 -0.0351504 49.7946)
(-44.1148 -0.0578052 -15.0595 -43.5173 -0.0884798 -100.841)
(17.4417 0.424838 -4.48786 21.248 0.985871 52.8482)
(-43.7746 -0.0697467 -13.877 -43.7454 -0.427392 -101.878)
(-42.5787 -0.113027 -14.7265 -42.1356 -0.675708 -97.2549)
(144.895 0.0889731 15.5558 139.289 -3.69605 312.704)
(109.659 -0.861374 4.65352 115.658 -5.93448 277.224)
(91.4581 -0.324111 0.444455 99.8893 -3.45373 236.271)
(55.7086 0.0919808 -11.9553 63.4699 -0.749228 155.036)
(2.26941 -0.377519 8.72366 -4.9602 -2.10339 -21.7924)
(58.8771 -0.195123 -11.3634 67.2987 -2.05239 161.364)
(81.7752 -1.15956 -5.07227 87.9088 -5.77909 213.023)
(6.21986 -0.279637 9.98682 -1.38512 -2.47691 -12.7094)
(61.8376 -0.422969 -10.6428 70.3256 -3.0804 167.638)
(-61.4473 -0.198522 -19.5143 -61.2579 -0.235722 -142.855)
(-4.64281 -0.220472 -9.6673 -0.183768 -1.89728 2.18305)
(-56.1043 0.036624 -17.1764 -56.3086 -0.171349 -131.754)
(-45.7383 0.0934899 -14.0377 -45.9973 -0.374402 -107.542)
(-0.75391 -0.229382 -8.78486 3.65365 -2.2366 11.872)
(-54.6486 -0.15925 -16.5307 -54.8815 -0.359476 -128.435)
(625.749 50.3634 -5.86724 613.856 2.73007 366.878)
(632.647 54.4872 -2.8432 620.157 5.80102 369.816)
(609.266 77.7414 -3.90069 596.281 10.0508 356.81)
(400.988 151.932 1.41537 521.17 6.17334 274.971)
(608.716 77.1662 -1.2388 596.962 4.49379 357.548)
(638.697 57.6942 -0.768574 625.477 9.18455 371.356)
(637.243 56.4481 -6.04919 624.122 4.00403 372.106)
(604.281 74.4235 -1.52385 592.993 2.88721 355.261)
(398.608 148.18 -4.02125 520.208 5.98878 274.278)
(603.442 74.7918 -4.8038 593.292 7.70285 355.582)
(742.928 -42.0463 1.22277 921.28 2.11547 491.353)
(742.837 -38.6222 -11.7321 910.065 6.63909 485.771)
(860.481 -64.3817 -12.2904 1068.02 -4.04219 570.173)
(1033.42 -52.0282 -6.71503 1356.13 1.76797 706.163)
(856.941 -64.0579 -0.811098 1062.19 4.72039 567.402)
(747.146 -38.1006 -14.1016 916.608 1.31082 486.653)
(745.529 -37.505 -0.175494 915.207 3.02638 486.585)
(857.403 -66.5516 -0.0180475 1076.17 4.74913 571.501)
(1036.9 -51.7126 -5.6252 1362.16 6.06062 710.316)
(855.56 -64.4501 -12.6843 1060.92 9.04733 566.742)
(681.13 -75.5494 -5.53476 938.363 3.95198 479.7)
(615.499 -27.1989 -5.37054 743.554 4.22087 403.271)
(541.046 -66.7132 -7.69597 979.341 6.62084 451.196)
(741.601 -42.9324 -10.9185 919.584 5.30673 491.777)
(857.504 -67.044 -11.681 1077.5 6.53025 573.07)
(621.064 48.4541 -1.95598 609.834 4.76782 364.193)
(598.016 71.5511 -3.66549 588.516 6.38598 352.503)
(24.7787 10.4759 93.6887 119.701 378.502 51.8538)
(-1180.57 -177.033 51.7591 -3674.97 1426.11 -1123.44)
(311.009 6.12587 16.1439 287.179 95.184 790.04)
(352.416 21.2133 -0.465344 354.62 29.5689 499.705)
(79.1678 0.768723 -25.0952 99.1541 13.6824 184.255)
(29.068 -18.4044 -25.1369 47.3426 18.0485 46.0234)
(9.1799 -8.34353 -41.0443 11.0399 23.6094 -25.0429)
(-26.8209 -8.62628 -24.6418 -11.9009 -6.42603 -74.7863)
(-16.3789 -2.19109 -17.5097 -2.45967 13.0441 -59.0889)
(58.9506 -9.15533 -49.0366 68.3882 28.3154 117.535)
(32.3452 -11.1808 -15.9212 44.6657 28.3242 64.7451)
(121.979 3.34092 -25.3749 146.726 14.8263 314.06)
(220.044 -2.57042 -41.3545 241.718 39.5768 595.949)
(300.017 0.951321 -17.0631 330.298 12.9178 795.675)
(208.148 4.16755 -54.5884 211.074 34.9443 529.164)
(234.058 3.20302 -26.8183 275.086 13.186 615.802)
(211.909 10.0828 -27.7206 227.795 22.8349 519.205)
(163.15 -2.05952 -55.6027 174.403 37.7987 411.492)
(97.6981 3.137 -25.4853 114.887 15.0099 233.511)
(63.8274 15.4564 -20.0054 76.7302 20.203 135.522)
(38.6217 -2.71377 -49.8188 35.5508 32.0314 45.1343)
(140.858 4.17494 -58.7881 136.939 37.4445 324.32)
(-1.57521 1.36575 -18.4093 12.2838 7.01254 -22.4558)
(178.449 11.8059 -32.8866 190.099 20.6163 417.298)
(98.3659 -2.63933 -57.6595 101.771 35.7629 218.395)
(6.28408 27.7726 -0.0813035 42.5363 -3.60605 -70.1381)
(-8.31409 5.08567 -9.28121 -7.53371 50.6424 -37.9496)
(-2.14344 27.9689 18.9802 24.8433 -7.81914 -65.0262)
(108.625 31.3056 36.1334 85.329 52.4572 147.939)
(241.528 121.722 -2.7651 201.854 7.66237 233.342)
(69.3699 22.6908 -11.8506 82.2923 28.0135 119.389)
(21.5934 10.0045 -8.4772 14.8737 46.0567 -10.1063)
(100.589 33.5691 7.57859 75.6307 38.8384 133.653)
(16.6418 28.63 -9.277 37.2619 28.9705 -12.3267)
(166.593 82.6975 -5.69805 176.385 9.99294 212.083)
(290.613 31.5732 -9.83323 279.685 -20.8446 630.906)
(274.173 11.9748 -15.7142 260.492 -19.9498 664.217)
(310.465 1.77253 -11.841 333.386 -0.949474 812.378)
(235.551 13.0181 -45.605 230.555 17.7167 593.182)
(254.514 8.1853 -2.516 252.019 -28.0098 620.402)
(236.753 13.759 -29.3963 246.923 9.58524 564.684)
(231.934 20.5163 -23.5771 224.236 -2.45379 566.276)
(238.12 50.0034 -24.9999 194.022 -1.68983 420.165)
(197.42 31.4484 48.973 150.046 13.5757 328.879)
(400.129 86.0594 -12.7294 128.331 3.04147 308.019)
(173.138 47.1828 42.8761 128.141 39.3247 258.595)
(233.373 108.321 23.2046 185.492 13.0256 245.671)
(264.937 47.6945 -0.715692 168.859 -7.9287 337.427)
(192.725 33.6963 8.99713 166.815 17.4718 374.402)
(199.094 38.3103 -42.0199 188.398 6.92655 400.74)
(88.3357 22.7303 -13.5983 102.753 22.235 168.763)
(172.799 13.5095 -50.4691 162.133 27.9375 394.046)
(137.059 29.5664 -4.32063 125.739 37.8817 258.355)
(199.956 17.9693 -36.2149 209.48 5.77012 459.384)
(178.377 77.3893 25.3799 170.973 10.4264 240.341)
(184.971 24.8474 -28.5468 171.302 19.5157 400.8)
(189.955 -3.20404 -0.203437 362.21 58.4876 346.579)
(251.236 19.7338 -33.4687 250.504 116.262 610.917)
(176.082 1.09899 4.85329 158.17 20.9074 402.889)
(257.866 95.0543 -12.6435 351.683 46.232 439.629)
(185.071 -6.90372 -14.476 180.092 19.6278 419.653)
(195.06 -15.3556 -2.4316 352.659 48.2266 342.486)
(157.902 -4.34895 13.7118 142.127 13.3182 352.489)
(140.263 3.85003 -9.09979 163.818 20.9029 304.882)
(166.743 -5.37814 -7.05748 295.781 18.5009 278.334)
(169.732 -5.00049 -11.6647 167.878 12.6608 388.721)
(15.2863 -1.95024 14.9758 7.06239 -1.51832 8.23977)
(80.6762 -1.91761 12.1269 84.5991 -6.01992 204.148)
(58.1573 -1.95555 44.0236 43.0448 -1.78555 84.3248)
(90.0554 -1.38373 15.2382 92.9573 -4.27593 225.316)
(98.7362 2.89257 57.0716 82.7634 -0.664 180.557)
(102.033 -2.08339 67.2881 79.9349 -3.16048 163.788)
(137.371 -18.5188 -1.73405 170.323 12.3851 255.699)
(168.623 -2.45172 -4.37179 186.47 -15.8806 368.384)
(165.773 -17.4268 -23.1426 179.936 -13.5368 397.107)
(142.165 -4.15051 -9.64106 163.613 19.485 312.334)
(197.191 -19.2954 14.6944 195.755 -8.94091 423.608)
(146.131 -14.5847 -17.2276 207.984 19.0814 299.864)
(128.77 -6.18818 -4.19008 140.442 3.58667 267.029)
(119.005 -23.9041 2.95136 150.079 -6.17317 168.232)
(101.937 -0.837031 37.4669 91.9885 -25.7952 196.449)
(151.151 -0.348917 15.0098 93.162 -17.0855 189.935)
(96.3553 -2.08383 7.3703 104.411 -13.2619 189.725)
(122.921 -23.6845 0.707537 184.348 -1.52694 178.155)
(128.865 1.07018 -8.78245 152.56 20.2343 277.653)
(58.7824 2.72788 25.6714 57.2985 1.87606 129.417)
(154.995 -13.6886 -4.58038 277.371 7.46625 258.086)
(101.244 -0.873407 0.676247 113.517 -3.23539 203.33)
(329.282 26.4237 14.9305 184.307 -3.33638 274.991)
(206.224 23.335 81.7728 129.98 7.22251 275.817)
(441.756 54.7192 9.35439 164.487 16.0393 384.553)
(303.897 -1.82054 127.653 110.772 -24.9926 121.265)
(298.239 41.6679 18.7953 158.746 1.40528 304.695)
(484.306 17.0136 17.1003 232.61 -6.0666 303.036)
(211.856 11.7679 100.666 126.946 4.75672 241.422)
(272.675 22.263 26.2927 152.555 -22.8456 218.767)
(109.829 2.50392 47.2675 97.9789 -22.829 209.609)
(164.222 11.5159 2.44425 92.8017 -21.3609 189.647)
(136.048 -1.51399 85.4879 113 -14.7594 242.19)
(329.056 20.9775 24.5647 178.752 -15.6513 229.913)
(295.031 0.509395 134.677 83.8763 -31.0304 87.6643)
(443.363 19.7198 -3.19338 185.753 3.09267 117.007)
(190.618 4.69429 111.899 96.6237 15.9067 190.582)
(569.325 -25.2515 -30.9181 1007.21 21.0647 457.272)
(620.876 12.1917 -13.1065 669.241 5.39041 381.818)
(707.904 -57.4662 -26.8141 983.994 14.9272 494.276)
(642.663 -11.1947 -22.6858 777.308 8.38557 415.963)
(555.804 -41.6973 -26.4611 1011.84 12.3912 454.938)
(711.004 -43.1705 -26.6049 964.839 15.366 491.741)
(657.869 4.27619 -24.3178 786.668 11.4461 421.709)