/*--------------------------------*- C++ -*----------------------------------*\
| =========                 |                                                 |
| \\      /  F ield         | OpenFOAM: The Open Source CFD Toolbox           |
|  \\    /   O peration     | Version:  2012                                  |
|   \\  /    A nd           | Website:  www.openfoam.com                      |
|    \\/     M anipulation  |                                                 |
\*---------------------------------------------------------------------------*/
FoamFile
{
    version     2.0;
    format      ascii;
    class       volScalarField;
    location    "0.106/solid";
    object      sigmaEq;
}
// * * * * * * * * * * * * * * * * * * * * * * * * * * * * * * * * * * * * * //

dimensions      [1 -1 -2 0 0 0 0];


internalField   nonuniform List<scalar> 
3124
(
283.912
15.5395
219.148
797.19
207.69
26.3114
224.929
814.573
217.516
187.116
437.063
778.015
211.332
166.506
160.386
201.775
309.864
149.122
169.081
794.997
176.478
176.127
165.744
299.862
262.279
521.625
503.313
587.752
335.573
453.403
37.6142
205.433
36.554
238.618
461.497
842.395
792.048
250.15
848.686
454.801
555.538
259.886
76.4123
80.5216
94.1699
296.967
51.7063
161.276
253.625
826.201
467.678
860.907
248.066
894.581
476.313
218.591
170.742
159.164
32.0802
146.101
533.817
400.928
438.608
427.449
444.562
721.471
466.677
331.525
705.612
764.243
524.687
678.381
265.297
543.061
510.102
484.389
543.039
405.558
538.416
434.644
457.298
40.6533
41.3648
197.149
28.3855
28.5886
20.3634
34.4713
342.062
327.058
572.785
575.602
238.773
792.42
854.987
449.645
577.562
322.134
484.13
571.349
59.6528
446.22
128.145
80.9594
102.733
462.795
192.492
150.923
314.494
268.805
178.198
53.1943
162.752
227.753
162.814
227.308
254.231
813.822
762.912
510.593
272.616
865.224
493.504
343.541
362.853
582.29
602.617
517.791
586.994
431.87
379.007
196.368
172.148
159.885
28.9049
31.608
25.9304
21.4622
25.3349
957.637
60.4875
33.5727
182.202
219.823
192.987
204.816
92.4001
39.4122
30.5014
96.6871
248.09
179.788
195.856
226.676
316.778
158.282
340.105
289.204
374.723
309.677
246.175
753.954
669.579
572.468
441.035
557.501
494.047
568.808
515.303
162.273
338.538
265.633
346.102
231.618
428.295
169.941
134.293
137.59
656.21
558.265
515.712
156.981
108.805
282.514
265.783
323.323
191.589
119.767
275.76
162.071
288.314
208.638
307.302
177.762
266.693
97.945
144.465
168.113
123.998
201.926
121.372
116.559
129.955
146.03
186.693
147.628
183.352
112.279
173.243
176.908
175.144
163.711
133.535
131.182
534.292
494.741
1019.24
419.786
562.297
607.678
514.536
400.987
888.054
280.212
344.253
409.532
478.118
350.345
149.792
151.889
27.3059
155.407
219.373
174.521
191.431
31.1152
138.664
154.188
497.809
246.023
416.331
302.297
303.494
411.736
500.445
497.04
245.49
307.15
411.31
501.482
305.382
408.638
212.474
129.253
63.8882
111.6
114.645
87.5585
110.928
263.666
125.126
100.166
80.7093
68.7842
101.979
110.483
68.4205
101.464
83.7633
60.026
93.4518
108.737
253.879
234.19
203.496
150.14
110.696
154.554
194.325
119.934
158.525
530.171
246.652
452.618
317.287
530.811
314.73
451.473
522.773
248.653
309.984
422.17
510.657
312.348
437.857
230.177
169.464
157.588
127.507
92.2327
350.293
599.995
1055.18
117.306
188.455
211.357
458.736
198.528
270.514
443.789
461.476
524.306
576.07
639.556
419.843
465.124
1030.81
1094.81
249.471
517.583
429.833
658.658
353.689
331.645
274.55
834.093
384.835
724.659
1016.02
676.687
939.819
354.285
666.739
3550.94
518.087
740.872
444.828
437.275
621.541
668.154
493.967
597.786
404.452
1364.55
785.072
854.586
1235.71
412.077
595.904
650.578
701.127
546.072
503.111
454.385
266.118
383.472
505.741
416.897
340.801
496.614
277.339
400.06
322.206
407.989
326.715
490.736
398.399
351.657
502.556
407.364
406.08
423.37
483.247
399.486
359.228
360.007
583.637
471.554
530.356
611.834
643.321
411.386
563.334
561.476
331.214
412.677
590.828
655.818
266.542
516.83
618.029
1063.57
614.209
626.497
664.18
677.667
621.073
404.783
324.149
311.618
438.412
331.309
318.278
325.826
395.304
445.928
304.767
42.9905
32.8403
62.7097
34.6008
62.8962
60.5469
172.914
165.172
140.917
97.9064
26.444
100.556
128.996
24.2908
103.618
88.2352
18.0929
81.1947
66.2978
19.2322
79.041
267.978
273.834
281.255
338.88
279.643
279.916
276.961
275.637
333.753
275.772
381.169
376.905
447.819
570.185
444.707
381.674
379.509
453.318
571.753
445.073
419.308
301.621
503.207
380.166
453.758
265.231
271.212
680.901
3545.59
519.161
159.211
108.605
64.812
90.4062
73.5371
63.6945
113.309
65.9138
188.092
378.783
482.66
338.785
366.688
306.555
269.406
138.058
86.7372
103.042
221.403
45.6869
243.598
166.858
110.806
94.5091
99.9523
134.597
214.393
79.6412
87.8438
103.052
84.2424
150.444
352.45
400.028
491.295
370.677
370.631
328.242
342.587
229.122
190.967
282.941
173.222
200.892
168.715
207.244
229.731
95.4191
248.906
152.307
264.435
156.777
234.859
193.693
417.988
239.187
242.456
241.141
176.182
205.756
159.312
126.36
222.103
27.395
123.844
84.5213
136.633
134.367
138.898
112.633
193.622
231.316
165.037
231.508
143.428
133.581
60.9418
127.205
93.1021
93.4574
71.5718
143.655
84.298
117.389
96.7179
137.446
194.455
272.592
293.514
163.324
228.999
203.663
126.436
139.871
96.6837
191.907
146.234
317.969
300.041
217.304
509.385
268.512
439.973
319.652
521.455
420.223
324.037
496.545
267.736
397.41
325.741
491.643
403.112
325.971
281.309
274.033
284.618
345.876
286.745
279.722
275.042
294.206
350.905
293.311
402.7
400.448
451.372
595.815
477.404
384.392
402.117
482.734
603.69
480.966
401.867
381.743
409.789
533.997
425.125
364.382
373.799
477.268
560.458
436.192
289.417
308.604
313.87
418.445
310.595
320.414
315.33
303.775
400.447
304.486
181.443
173.708
162.87
128.197
130.411
97.287
30.0095
95.1945
92.779
30.3518
94.5902
96.1317
89.976
23.4939
92.7491
24.031
95.2185
93.3898
21.1991
8.58703
11.2687
40.8955
23.0056
14.5452
27.0188
46.213
34.3596
28.8318
62.9582
38.7308
40.6246
55.5773
236.459
304.183
269.009
317.068
302.866
266.072
282.826
494.755
333.774
425.211
317.26
374.945
405.642
423.665
443.693
437.763
596.89
413.511
531.591
525.785
401.064
39.6697
31.5514
32.3567
35.5831
30.4374
35.8655
340.128
241.949
286.383
271.842
271.714
285.619
340.807
338.167
246.913
278.132
291.5
342.342
278.549
291.111
462.574
566.789
87.0129
77.3149
100.209
76.9822
97.8261
50.3779
71.5852
61.6101
136.249
141.647
99.0153
364.43
246.992
303.369
285.981
366.01
284.531
303.946
349.811
249.556
280.941
293.787
344.663
278.897
294.205
35.2705
32.9777
36.5713
244.381
373.589
321.87
487.112
375.464
355.42
280.168
350.762
420.514
337.941
322.815
342.197
269.654
303.941
297.898
304.336
294.02
340.296
417.564
330.265
322.886
323.657
310.544
272.854
250.5
255.034
15.5215
36.7627
16.7136
39.2643
17.5593
16.2919
31.7402
28.57
32.1595
19.0512
23.2531
9.78747
49.4876
19.0699
46.8472
22.1645
29.2986
25.9112
220.212
222.374
230.53
228.366
297.843
301.5
307.908
305.088
341.273
283.966
235.009
269.092
342.139
283.482
268.479
298.433
294.732
219.13
216.21
69.8073
72.1218
95.4828
69.2658
81.922
155.581
167.866
205.812
296.206
267.585
208.198
294.146
177.065
249.406
177.272
171.517
182.644
18.0445
73.2885
31.0612
156.971
117.693
110.948
157.427
126.959
129.931
359.922
261.72
308.181
290.881
361.166
305.141
291.721
341.018
267.623
304.755
296.31
342.566
305.724
299.535
232.024
226.26
228.145
229.15
323.517
315.04
309.027
309.513
319.074
328.954
323.763
321.199
234.646
240.735
257.169
253.177
32.025
29.6101
33.0694
34.8645
31.5946
35.0382
25.9462
57.4807
56.9684
51.4243
21.7944
51.4178
24.4908
56.6347
55.1714
15.8971
66.9547
78.641
32.6647
24.9948
14.5647
13.8335
37.5881
210.768
214.756
181.571
187.426
214.613
189.307
211.681
213.221
196.387
191.691
212.93
195.064
213.725
212.233
193.621
188.312
196.713
188.139
169.475
275.475
243.799
34.2048
15.4888
30.9775
19.1158
73.6716
25.5781
103.24
97.1257
151.15
83.0762
67.7828
107.987
139.432
58.9714
93.2178
167.746
90.4737
242.853
223.736
175.928
182.58
226.21
178.002
236.31
256.491
192.66
258.144
188.684
267.562
184.639
248.169
198.939
207.638
219.403
219.075
323.191
436.289
343.567
275.61
276.477
385.858
338.624
242.551
279.649
259.464
294.037
235.986
265.362
281.579
329.177
385.23
365.994
313.049
318.891
385.055
318.996
230.349
281.636
213.495
272.443
208.125
258.466
260.857
728.991
679.665
760.677
689.086
645.903
926.251
658.838
373.12
457.704
410.193
503.323
358.66
453.378
420.788
230.403
176.652
214.226
173.852
210.597
185.451
240.031
322.967
401.734
272.083
347.312
286.962
313.521
392.792
268.579
309.928
195.977
248.191
213.127
271.183
305.816
163.891
161.205
134.654
134.905
162.837
135.585
161.874
164.454
138.004
165.002
135.956
166.588
136.106
163.125
191.788
216.901
165.241
121.341
143.246
213.147
175.69
180.213
258.478
234.574
225.877
210.894
199.459
222.735
243.324
272.386
322.16
272.136
285.485
275.298
226.662
138.646
109.065
131.122
175.082
105.119
156.564
178.655
246.763
290.374
228.69
278.948
236.07
295.115
241.547
204.564
174.2
201.61
170.582
198.31
189.006
199.113
254.83
289.264
245.951
310.248
258.499
233.89
301.586
205.059
201.566
182.474
188.435
192.518
205.791
203.207
131
141.074
147.404
131.686
140.865
133.015
123.653
135.267
169.823
164.587
185.755
156.946
133.303
164.758
113.46
75.392
129.491
106.874
115.078
98.3321
95.6901
149.41
143.219
121.024
139.616
137.654
147.634
132.018
156.887
147.783
160.973
125.933
166.49
141.713
139.183
166.213
163.699
180.262
172.529
174.282
160.219
164.638
136
108.348
116.473
114.114
126.347
119.349
118.497
163.798
164.351
165.132
163.572
164.599
162.649
161.902
163.342
161.56
160.385
134.324
132.796
162.65
133.244
159.74
161.243
131.559
158.209
131.91
160.169
132.715
158.861
522.005
323.636
641.555
640.227
755.978
371.9
369.48
413.298
292.414
514.414
532.828
633.975
332.859
285.692
170.099
96.2267
86.0444
168.389
154.109
173.022
95.1268
82.1441
27.361
31.0364
29.4026
89.684
173.814
155.448
80.6642
174.091
91.5536
80.2613
208.349
200.374
175.851
182.025
184.384
202.046
206.528
212.19
194.749
212.353
187.777
214.057
190.437
210.557
35.2225
36.7862
38.1718
85.7229
71.2796
154.144
145.758
161.772
86.0275
78.2351
93.9619
171.003
82.6297
150.827
93.685
166.735
81.659
338.379
241.627
274.492
287.809
339.212
273.594
287.781
338.413
248.423
277.193
290.274
338.132
276.74
289.174
433.541
182.117
191.252
223.628
125.84
106.392
99.2147
105.541
120.086
126.715
114.902
132.339
248.133
125.858
190.947
183.019
162.173
155.377
108.091
155.116
94.3723
124.844
142.099
108.391
96.9376
114.783
98.7863
119.129
99.4954
94.2293
85.3889
124.909
80.9858
111.649
125.411
87.5239
72.799
71.3233
69.5831
94.1781
74.5462
75.062
114.362
123.432
101.347
105.81
134.458
109.083
117.935
91.1059
91.2925
80.4975
118.162
74.1523
106.644
94.7128
86.4848
79.698
58.5283
80.7845
82.2356
94.4405
69.1485
86.4314
72.365
127.611
90.2235
105.334
81.9591
86.9855
295.93
297.264
254.184
226.104
224.549
327.323
288.099
288.709
200.464
266.782
214.24
275.635
215.868
276.465
102.466
90.5981
165.79
149.986
163.438
105.957
92.9188
92.9995
72.8607
68.8618
101.513
171.399
151.66
90.5821
166.684
100.736
92.437
115.07
144.33
229.001
180.595
196.923
167.776
113.864
132.364
75.8588
84.6505
109.52
174.484
167.878
90.6446
188.895
95.3937
97.7975
366.291
248.525
283.433
299.823
362.314
282.233
301.57
352.615
246.178
279.859
298.706
359.747
281.221
295.674
198.524
212.468
222.038
218.012
159.349
157.372
156.68
157.5
155.5
153.982
128.144
126.807
127.307
156.322
153.377
155.114
126.008
152.294
126.114
154.49
126.682
152.754
43.0084
39.8858
107.34
91.4472
106.431
43.4649
39.9718
33.693
37.3557
42.7148
90.7684
105.792
39.9544
1040.98
333.859
412.845
267.396
446.066
230.597
314.377
412.02
280.031
369.625
644.476
622.932
552.237
377.21
1152.47
497.553
183.103
1234.83
290.534
748.763
194.387
241.9
677.55
193.094
354.725
155.529
237.995
130.39
310.474
135.913
523.751
565.082
497.463
455.03
479.544
542.971
533.168
555.707
533.363
568.58
496.595
539.573
570.867
516.425
585.061
609.943
605.231
626.393
567.938
601.29
606.465
504.832
443.156
435.887
467.239
466.015
504.786
469.471
451.551
1145.18
586.719
456.532
963.036
319.47
527.384
401.754
403.187
846.107
1003.27
246.643
1050.98
624.576
291.494
681.592
487.467
346.874
243.87
902.604
245.343
579.098
600.043
724.003
624.873
875.926
602.109
659.768
533.589
1751.88
451.957
635.822
295.357
319.411
243.46
303.741
476.064
91.3998
583.885
225.789
238.138
316.962
373.718
310.948
358.488
463.829
323.683
440.045
511.395
1515.58
310.723
1387.31
519.088
865.538
480.695
442.18
431.39
1280.93
2064.32
804.043
716.12
1970.81
495.352
247.113
728.844
842.937
467.91
618.912
1131.47
302.986
643.521
3108.14
1098.53
2797.88
860.133
3029.48
918.701
650.017
717.829
712.413
710.36
682.927
676.614
693.784
546.327
405.183
555.05
358.379
528.919
511.921
385.617
641.14
687.659
651.959
677.063
666.977
695.675
624.15
1330.11
434.31
172.415
1611.84
817.594
3393.14
4464.94
2308.33
693.988
1373.14
725.283
782.982
1099.63
613.726
696.041
560.823
430.213
1205.64
1098.94
286.648
1298.21
667.369
435.53
1123.15
846.213
320.323
309.761
1253.02
342.449
705.279
723.297
667.903
679.233
753.616
706.157
683.646
362.135
286.063
311.713
301.288
348.988
315.356
306.167
342.932
265.355
307.86
299.5
351.101
307.296
298.838
382.692
381.495
368.658
363.277
344.909
318.539
351.345
335
360.071
338.758
349.206
349.177
465.247
526.079
524.564
464.868
440.717
502.053
444.751
503.432
349.782
547.144
477.844
456.077
456.751
457.214
390.678
489.276
336.468
321.066
340.493
359.625
343.042
340.179
340.107
339.425
342.758
356.04
339.21
337.857
582.499
621.92
531.279
585.272
537.882
582.746
620.585
567.831
542.267
575.413
511.622
581.101
561.52
525.283
614.496
634.469
614.749
647.851
623.94
604.04
644.346
526.607
472.77
427.775
473.24
479.077
531.296
480.487
515.8
602.676
457.218
554.733
469.821
507.204
593.57
444.552
404.721
501.756
338.72
502.812
434.414
341.512
559.904
633.273
609.107
661.282
611.317
556.776
630.106
392.581
345.979
275.054
292.559
350.475
385.647
303.344
665.184
640.424
643.187
622.422
646.459
649.705
648.893
651.09
633.327
761.267
783.031
690.597
698.509
694.948
663.196
650.603
689.43
657.976
664.317
666.564
653.377
671.412
657.395
672.288
680.015
680.08
652.327
659.23
255.433
271.743
337.332
327.742
344.291
365.184
359.373
301.761
344.291
325.926
306.908
278.892
333.676
284.299
314.094
325.949
293.048
320.737
324.001
294.976
253.04
324.182
256.952
324.215
286.761
314.166
317.956
288.538
250.178
329.005
253.698
322.169
260.018
251.378
314.131
282.518
310.703
313.122
276.596
313.854
311.262
313.091
320.328
286.868
311.371
281.849
317.985
319.279
292.219
297.499
330.307
274.301
241.353
337.588
249.371
334.438
301.609
315.902
302.355
333.383
257.29
330.344
248.859
334.442
43.0324
49.9834
45.1063
32.8871
17.2825
18.3237
59.9022
47.6177
48.2144
39.0951
17.2142
15.7589
49.136
57.3428
44.1918
46.6922
60.0218
43.4761
183.979
191.978
166.559
155.253
193.556
155.4
182.794
175.649
140.686
168.607
146.657
169.564
147.02
174.441
46.5368
41.1673
113.428
98.2325
114.229
46.0727
41.375
28.0295
29.2709
31.8369
46.4176
116.893
99.0818
41.7702
114.827
48.0635
41.6961
59.3923
61.3767
145.837
118.124
69.7065
133.756
50.7379
22.9228
25.3015
18.4004
52.6097
119.047
109.317
42.6693
125.826
48.3441
45.0303
84.8164
83.7404
81.2234
18.1038
42.1002
44.3031
82.3815
77.7188
79.1943
56.3876
70.2949
61.7353
23.0867
37.7383
32.1719
73.0177
74.1334
67.3024
225.887
222.581
276.874
254.907
266.614
281.261
253.455
281.703
276.633
277.571
283.511
257.319
267.483
253.963
279.748
281.32
252.665
285.395
287.365
249.703
212.737
238.482
213.293
235.729
252.25
288.432
287.898
252.67
212.661
230.377
210.075
234.034
227.428
229.34
283.292
260.974
275.573
288.365
259.069
286.612
285.382
282.625
285.621
259.773
275.099
258.269
282.503
286.196
246.683
283.317
282.905
248.816
206.501
220.521
203.676
223.93
247.951
281.678
283.37
244.214
207.741
228.821
208.935
226.16
304.762
300.189
335.234
378.837
354.128
334.299
356.048
357.155
335.841
379.936
336.525
354.519
542.168
618.777
544.945
614.669
541.344
615.231
541.226
615.086
304.038
305.944
340.711
379.852
360.343
340.022
357.511
355.407
338.856
376.999
337.36
358.289
538.854
614.162
539.643
613.029
539.891
612.36
539.003
614.371
333.062
354.84
380.38
332.683
353.47
538.502
613.487
538.8
612.832
271.825
252.004
278.93
259.967
274.337
249.287
276.803
202.552
219.453
202.351
218.3
241.82
279.113
242.727
278.421
201.838
217.221
1132.01
2869.41
963.695
515.162
1560.25
3584.03
2362.69
549.376
546.344
523.869
529.879
550.604
488.193
481.892
500.404
485.39
1303.98
224.563
609.572
850.938
644.579
649.603
662.224
651.908
657.353
658.99
659.393
663.275
568.185
574.498
603.976
591.313
651.604
642.403
616.029
633.346
66.8724
58.5867
107.828
76.5394
96.8535
77.9309
42.6265
66.3163
40.2449
76.3719
79.7751
92.6036
59.0171
42.32
64.018
67.4568
87.9388
40.5129
70.3051
44.2594
67.7447
294.902
251.604
230.263
211.401
266.768
297.074
242.121
412.026
480.464
451.64
426.146
462.969
390.493
437.467
365.054
310.006
386.069
417.622
332.585
416.064
356.534
344.811
265.547
374.711
319.582
333.634
288.107
371.746
128.281
81.4947
176.997
149.15
113.289
104.387
171.483
101.274
105.81
63.2703
113.414
87.27
88.6244
116.511
74.2128
46.2665
50.0501
62.0292
68.3419
68.1754
66.0127
161.363
206.998
168.128
241.559
137.301
215.972
186.443
104.371
82.7762
77.9656
87.3076
83.5021
67.7299
68.3726
74.9496
95.2106
79.0252
93.4433
76.418
75.2957
88.2722
74.3337
103.406
67.8735
82.1155
72.1453
66.7593
75.1075
87.4711
73.9606
324.285
313.509
134.041
137.538
157.888
99.6078
138.465
183.913
130.377
226.098
209.795
268.711
185.537
233.333
188.896
227.792
116.285
124.993
154.619
117.567
107.591
159.485
84.2278
98.6889
78.8181
86.7101
105.074
76.3486
94.9484
89.067
145.795
107.515
143.108
99.0601
137.806
110.554
101.854
84.2423
84.5338
102.522
118.907
88.5662
381.743
355.775
367.637
331.037
349.695
393.004
354.299
448.442
491.268
474.078
441.533
476.542
453.453
435.05
413.757
351.281
383.847
433.703
369.007
433.937
405.874
399.635
337.456
396.215
339.861
393.397
401.126
355.653
195.801
173.256
204.513
247.041
211.289
178.816
183.449
197.419
292.982
273.866
210.948
250.167
198.987
217.04
199.554
163.867
259.061
188.035
240.388
194.098
171.045
183.601
187.62
170.541
166.758
182.912
175.441
184.422
137.409
113.857
126.659
109.318
135.893
117.946
133.381
193.864
271.916
183.847
260.656
200.948
171.333
285.555
132.314
133.567
123.769
152.408
125.96
109.106
151.911
339.254
234.239
222.039
218.622
247.715
264.436
297.113
382.335
306.255
238.104
229.919
306.007
308.95
294.299
298.668
267.746
256.824
433.635
281.641
672.883
343.902
344.493
215.62
256.881
227.613
231.782
278.39
270.484
217.523
196.953
157.109
200.36
177.563
262.59
173.319
267.975
182.166
203.7
207.31
165.038
270.158
212.536
178.579
144.973
145.174
177.303
160.681
142.962
169.583
161.709
143.714
143.23
135.083
152.662
156.062
121.661
225.531
199.267
207.326
198.745
254.052
176.982
193.238
25.3225
36.2842
14.7116
99.5544
75.4728
53.3848
67.6791
30.3091
12.7949
150.723
90.6914
104.212
84.8694
153.083
76.7665
53.1175
158.02
68.333
139.612
180.711
190.878
211.867
161.258
209.962
112.374
41.6324
48.9355
48.8769
58.1318
47.203
37.5385
44.2345
75.4303
133.101
99.3524
111.569
85.3735
89.8637
105.676
55.2068
59.3562
88.3277
76.312
70.2171
45.8511
65.6473
60.7033
71.4694
97.8858
76.2273
69.1711
53.9619
86.912
69.7086
91.7947
70.4044
60.3592
92.2668
78.2227
55.3508
98.2985
134.162
127.462
124.799
126.498
103.179
114.294
105.08
76.7005
108.761
86.9456
100.673
124.653
117.127
106.001
106.939
92.1527
70.6867
70.648
109.941
75.0923
85.9309
54.4529
95.12
185.176
145.002
174.949
138.941
138.998
182.175
178.19
213.311
313.761
222.664
265.389
233.176
265.742
202.24
95.4587
109.392
138.76
130.958
114.237
113.086
118.858
102.93
148.562
106.857
153.938
116.801
92.9841
157.294
75.3164
96.1345
90.1613
81.0658
95.9754
64.1397
96.0042
124.012
157.209
172.701
178.25
138.295
151.739
167.325
198.636
183.961
163.96
147.643
206.163
190.478
148.058
243.444
247.031
277.999
248.411
294.245
253.743
232.164
353.603
261.692
307.127
296.036
351.821
308.407
294.709
344.324
271.691
306.775
298.668
346.73
305.467
297.144
224.536
227.541
285.863
267.492
271.516
297.781
263.835
293.537
291.124
285.43
294.267
267.104
270.486
262.668
284.055
293.715
255.523
295.013
293.237
257.477
216.707
240.246
212.998
245.56
255.89
290.451
253.28
292.22
216.568
254.04
219.179
248.703
228.449
225.412
285.174
263.371
274.877
289.909
259.517
285.422
289.395
283.305
291.317
261.157
272.983
261.664
286.487
289.925
264.083
298.812
300.452
259.414
227.202
273.601
228.988
268.088
262.897
303.327
300.396
267.683
224.238
257.324
219.888
264.153
315.5
316.451
353.034
406.641
376.051
355.897
375.046
374.276
350.388
405.95
353.563
375.722
550.376
618.01
546.254
624.621
551.018
634.215
622.335
556.314
312.587
311.605
342.823
390.009
362.39
345.095
365.061
370.098
352.209
392.01
346.132
368.695
554.714
625.947
625.108
550.782
555.172
622.612
633.312
553.133
328.74
322.965
357.289
391.902
370.219
350.958
370.472
363.356
352.183
389.057
354.499
363.921
491.498
547.879
484.234
553.705
504.029
583.671
569.172
516.316
322.077
323.414
343.041
348.318
365.768
345.152
352.569
360.106
347.682
371.612
347.763
356.048
538.778
620.252
611.048
548.866
536.427
588.738
606.585
521.217
249.429
241.816
298.697
273.614
292.3
302.931
272.484
295.893
304.452
300.02
306.996
277.267
295.99
273.266
304.869
303.562
290.316
312.95
315.098
282.977
257.331
326.135
258.264
321.141
288.209
314.595
289.932
314.978
256.458
305.708
249.828
316.29
251.306
256.569
308.479
281.547
313.132
312.576
312.22
280.784
311.473
309.73
310.69
282.186
312.983
278.996
308.042
311.25
276.508
310.666
309.567
283.103
237.407
276.883
233.696
284.584
278.196
308.358
271.094
310.943
243.094
299.505
247.213
290.111
188.858
176.606
166.131
170.485
159.091
160.339
162.466
160.102
157.786
154.748
128.719
128.82
156.83
129.475
155.449
158.516
131.145
157.308
129.655
159.718
130.166
156.47
45.2328
40.989
113.025
96.4916
111.935
45.9606
40.9036
30.2086
33.2787
33.5726
44.8677
110.431
95.7071
40.4732
111.318
44.6976
40.7191
43.7238
39.9804
107.816
93.1704
43.5856
108.396
40.1733
31.1293
33.5651
34.6278
43.9662
110.005
93.8434
40.3278
109.065
44.5292
40.3162
26.5321
57.8673
92.3909
94.4223
91.0281
95.3076
91.9255
86.5704
88.9532
85.7844
22.6932
54.3599
52.9406
90.3097
89.423
87.232
24.0141
55.2157
54.6237
91.5682
92.0632
89.173
90.2064
92.041
88.8478
642.98
639.514
639.332
639.593
641.467
640.612
638.94
640.364
641.266
640.748
640.247
232.695
230.329
217.955
243.68
243.345
235.929
224.683
278.757
232.667
241.381
256.788
260.871
272.208
254.583
183.908
167.048
186.447
173.464
186.51
182.678
174.109
181.256
165.01
185.437
172.583
182.516
185.225
171.929
568.02
544.489
606.366
701.215
687.752
609.056
597.162
227.362
213.723
222.844
212.558
229.763
221.943
218.636
692.531
880.358
637.882
835.802
698.704
873.503
633.213
692.837
648.85
840.244
876.781
872.923
639.311
696.597
1014.02
333.735
277.031
371.055
313.03
314.956
366.182
305.685
725.305
893.65
655.574
884.309
710.24
908.43
679.882
733.174
695.322
911.271
900.101
916.327
730.973
698.16
174.657
158.405
179.266
165.861
178.836
175.679
165.239
1000.77
992.57
993.952
991.083
653.156
820.029
757.448
572.567
572.664
804.685
658.363
639.33
543.391
720.209
730
608.895
559.668
774.43
204.854
186.355
215.09
204.198
214.363
205.543
194.987
655.341
879.832
699.769
197.997
210.19
240.153
164.487
204.866
215.717
191.651
341.514
347.003
493.654
327.062
360.236
637.793
332.118
233.175
250.242
260.712
255.276
241.798
244.063
288.711
675.72
830.635
570.605
779.206
664.534
843.297
584.809
694.978
667.563
893.291
819.87
716.803
866.849
624.071
177.22
160.605
180.278
166.673
176.041
180.717
167.372
996.425
231.035
218.919
233.957
223.713
233.132
229.899
223.724
62.5757
35.717
63.3576
29.9621
35.1642
51.2515
45.6669
292.416
240.53
292.141
275.389
280.677
303.982
265.901
184.706
168.134
189.288
177.365
187.912
187.133
175.465
181.055
164.218
184.044
170.512
184.142
179.966
171.037
229.543
217.737
233.336
223.254
230.132
232.814
222.169
326.629
260.474
295.686
282.88
310.654
308.728
292.064
174.501
157.87
177.946
164.323
173.892
178.062
164.641
703.012
450.696
499.689
321.385
515.439
512.897
296.473
843.853
904.725
621.498
858.363
678.216
560.722
1033.15
423.734
500.612
409.782
412.821
508.446
411.096
422.851
413.08
398.55
500.907
408.159
506.669
407.53
405.931
381.909
454.232
387.756
401.945
387.658
474.521
383.632
404.353
382.223
398.976
492.686
483.842
390.442
384.871
196.595
178.847
192.655
180.966
190.308
198.004
186.686
479.967
564.899
443.71
466.041
556.937
462.344
483.27
478.608
460.758
442.43
558.655
556.732
461.559
479.565
483.93
575.904
450.259
470.34
571.04
469.537
485.602
482.856
464.692
449.296
562.03
567.858
465.937
479.97
486.164
577.698
471.928
454.33
486.011
578.676
472.035
485.747
454.15
579.033
237.97
276.755
225.989
318.17
230.808
227.201
311.704
216.378
236.278
221.855
260.67
249.7
227.312
218.178
276.964
356.512
214.629
331.191
316.282
241.836
349.7
493.868
568.454
460.445
471.12
583.607
487.015
477.691
498.82
493.851
464.924
608.773
589.614
486.423
508.044
516.412
615.584
487.388
503.523
622.495
506.998
512.765
517.083
503.384
487.467
614.723
624.282
507.549
511.665
434.004
499.633
414.718
409.444
431.359
497.219
419.092
442.57
433.798
414.528
520.501
502.19
424.534
453.391
494.328
606.441
463.631
493.974
584.372
505.758
483.006
482.652
450.534
453.968
537.384
568.705
466.154
465.764
178.03
161.746
182.81
169.542
179.554
182.097
168.573
)
;

boundaryField
{
    left
    {
        type            calculated;
        value           nonuniform List<scalar> 
703
(
273.694
214.351
21.9443
222.034
226.937
221.255
34.0751
429.657
244.196
214.047
161.872
188.877
188.922
170.874
306.074
184.968
187.837
220.467
161.301
497.127
304.889
251.069
200.959
68.7881
58.1005
273.781
538.688
184.063
229.271
74.3752
188.503
290.878
84.1751
155.826
108.142
16.4502
154.725
442.872
546.854
397.324
522.396
647.84
424.041
145.134
471.328
515.295
21.7167
49.5529
193.443
36.8822
29.2579
41.7368
47.7778
305.065
488.016
185.344
207.57
150.193
54.9205
253.318
151.499
339.389
207.252
278.895
350.05
449.703
209.623
79.2442
279.413
205.566
455.344
76.0355
165.849
35.4009
31.0175
34.4817
155.281
16.6445
19.8464
215.636
190.431
178.891
59.3366
113.722
220.799
233.491
176.213
192.016
249.039
29.6406
97.9639
49.002
436.974
634.833
665.976
367.178
448.129
303.827
192.485
356.801
357.931
137.425
140.66
165.79
600.729
188.003
188.842
196.324
136.3
143.238
168.536
199.799
206.072
313.535
249.322
140.07
219.211
273.484
305.356
158.975
134.631
136.978
282.794
320.962
339.511
173.848
189.425
215.229
47.3726
176.336
162.654
171.244
179.24
47.6097
168.308
216.96
182.752
238.878
159.806
171.636
167.43
203.055
175.412
164.423
255.959
198.919
228.663
125.106
108.428
83.5394
108.14
120.398
138.043
98.9605
109.883
133.936
152.969
131.387
588.419
602.791
440.591
367.345
681.522
660.945
346.567
573.023
319.333
579.184
542.965
471.332
617.806
587.046
614.967
363.167
511.213
559.575
221.805
248.206
135.57
601.853
456.346
270.076
456.27
487.975
560.057
31.2676
141.787
139.03
157.775
143.233
37.4064
168.591
143.354
165.748
27.3578
79.912
69.9929
87.9827
80.3317
26.8457
36.6761
71.1945
47.2194
69.7379
68.1775
36.4209
494.279
291.065
186.781
192.497
130.861
222.183
189.092
62.7043
128.81
126.69
177.477
146.621
219.279
71.0491
117.646
152.878
157.934
114.758
236.838
246.935
357.588
168.453
227.416
203.756
219.342
174.431
541.399
251.984
198.504
211.398
507.957
373.28
321.498
397.132
181.999
245.325
287.291
96.3172
187.716
146.187
169.296
214.064
191.574
292.474
261.323
171.985
401.815
351.117
386.446
97.4053
148.525
116.097
126.902
96.5938
32.6517
92.3266
89.9362
95.3622
93.1288
33.6167
131.937
134.123
158.362
17.3235
136.033
134.34
138.518
136.504
17.7737
8.3022
29.8742
24.1541
35.0287
39.4891
30.5241
302.101
271.702
305.025
396.185
349.51
390.291
49.2749
35.3226
31.1071
38.348
41.3651
55.581
437.255
100.127
35.1949
35.4202
105.921
49.9967
189.575
139.208
122.449
85.0477
87.0092
17.1436
24.4975
83.7184
83.4126
50.9747
57.2986
54.0573
36.1242
49.7788
48.8267
69.8298
67.4193
27.8116
40.7112
37.7338
39.2749
39.8738
38.989
38.7305
154.14
97.7457
101.331
32.4414
36.1809
73.6884
115.774
124.657
150.296
184.717
182.1
149.122
295.469
239.497
211.84
92.5957
99.6467
273.892
34.5368
75.8163
77.5334
30.3581
70.6433
72.2709
76.3142
74.5398
33.4929
17.4756
85.7259
84.963
82.849
84.5869
19.701
189.049
208.99
209.152
210.715
207.599
184.375
65.5138
26.8337
55.0296
65.2198
124.251
179.238
231.909
219.453
251.829
242.988
185.444
77.9214
62.09
82.3114
23.5669
31.5933
30.9201
138.231
162.387
161.398
165.382
163.279
138.915
135.535
159.508
158.616
160.948
160.005
136.102
180.9
203.68
198.037
209.059
207.276
186.046
39.0128
35.6175
57.7437
172.453
132.387
135.186
127.341
127.241
168.043
176.756
140.472
135.711
138.748
139.541
179.277
47.0727
43.5602
43.3152
172.15
33.0564
29.0871
126.715
167.899
123.42
121.988
134.39
126.825
165.269
191.38
133.488
161.859
119.648
128.194
184.399
187.701
46.0348
30.3925
209.087
267.865
259.429
287.963
275.903
217.581
165.669
214.907
113.002
120.392
89.2113
133.61
123.04
122.811
123.073
133.283
17.3369
88.1904
130.19
153.691
153.171
154.824
154.121
130.716
80.7355
86.2236
27.8571
140.69
126.432
126.268
125.241
126.076
139.948
151.232
124.653
125.308
125.557
125.147
146.794
41.6763
72.6678
80.1636
148.917
174.215
168.513
190.462
181.882
156.378
60.699
56.6853
29.8788
72.504
81.4318
89.0342
73.5331
77.1538
72.85
81.2754
93.8735
98.6204
91.7409
92.2926
80.9947
26.3973
65.0794
64.6577
37.835
42.2013
35.1214
66.8453
63.8396
63.0795
59.2344
56.948
48.9373
61.9953
60.8074
66.3079
63.7283
60.0839
69.1353
44.0481
35.1934
40.5665
78.0603
91.9231
149.901
244.11
77.4382
63.235
83.0071
83.2819
227.592
62.8055
24.259
28.8695
30.7387
19.6296
117.529
98.2566
50.0833
67.9422
84.0434
97.077
94.9493
120.243
82.6953
105.608
105.722
91.7215
134.314
129.807
124.517
192.001
98.4843
103.291
115.849