/*--------------------------------*- C++ -*----------------------------------*\
| =========                 |                                                 |
| \\      /  F ield         | OpenFOAM: The Open Source CFD Toolbox           |
|  \\    /   O peration     | Version:  2012                                  |
|   \\  /    A nd           | Website:  www.openfoam.com                      |
|    \\/     M anipulation  |                                                 |
\*---------------------------------------------------------------------------*/
FoamFile
{
    version     2.0;
    format      ascii;
    class       volVectorField;
    location    "0.105/solid";
    object      D_0_0;
}
// * * * * * * * * * * * * * * * * * * * * * * * * * * * * * * * * * * * * * //

dimensions      [0 1 0 0 0 0 0];


internalField   nonuniform List<vector> 
3125
(
(-8.87606e-06 -1.01725e-05 6.90113e-07)
(-1.52739e-05 -1.70751e-05 8.51226e-07)
(-2.07733e-05 -2.26849e-05 9.30447e-07)
(-2.81218e-05 -2.99386e-05 9.74776e-07)
(-3.4112e-05 -3.58441e-05 9.79363e-07)
(-8.88019e-06 -1.01813e-05 1.4817e-06)
(-1.45177e-05 -1.6283e-05 8.36513e-07)
(-9.53412e-06 -1.09049e-05 7.11058e-07)
(-1.4549e-05 -1.62885e-05 1.69993e-06)
(-9.54134e-06 -1.09133e-05 1.51593e-06)
(-1.53088e-05 -1.70802e-05 1.71903e-06)
(-2.08326e-05 -2.26877e-05 1.81228e-06)
(-2.73002e-05 -2.91325e-05 9.72538e-07)
(-2.15804e-05 -2.34905e-05 9.38382e-07)
(-2.73809e-05 -2.91334e-05 1.85546e-06)
(-2.16429e-05 -2.3493e-05 1.8207e-06)
(-3.4112e-05 -3.58823e-05 6.02267e-07)
(-3.41549e-05 -3.58824e-05 1.02701e-06)
(-2.82044e-05 -2.99394e-05 1.85779e-06)
(-3.41561e-05 -3.58442e-05 1.41459e-06)
(-9.09957e-06 -1.03194e-05 3.0318e-06)
(-9.0874e-06 -1.03275e-05 2.7567e-06)
(-2.10045e-05 -2.26864e-05 3.8663e-06)
(-1.82169e-05 -1.99083e-05 3.75781e-06)
(-1.5121e-05 -1.67772e-05 3.25816e-06)
(-1.75922e-05 -1.94693e-05 8.90292e-07)
(-1.78217e-05 -1.95372e-05 3.3964e-06)
(-1.51262e-05 -1.67579e-05 3.58617e-06)
(-1.78243e-05 -1.95126e-05 3.73924e-06)
(-2.10046e-05 -2.27172e-05 3.51111e-06)
(-1.83792e-05 -2.02716e-05 9.01608e-07)
(-1.82147e-05 -1.99337e-05 3.41316e-06)
(-3.41061e-05 -3.55243e-05 3.99651e-06)
(-3.12179e-05 -3.26737e-05 4.01376e-06)
(-2.79411e-05 -2.95065e-05 3.63003e-06)
(-3.05853e-05 -3.23586e-05 9.78638e-07)
(-3.08137e-05 -3.23153e-05 3.64399e-06)
(-2.79367e-05 -2.94653e-05 3.99766e-06)
(-3.08082e-05 -3.22716e-05 4.01276e-06)
(-3.41158e-05 -3.55711e-05 3.64701e-06)
(-3.14062e-05 -3.31671e-05 9.79186e-07)
(-3.12236e-05 -3.27177e-05 3.64495e-06)
(-9.10429e-06 -1.0337e-05 3.51171e-06)
(-9.09149e-06 -1.03396e-05 3.13678e-06)
(-9.42742e-06 -1.06814e-05 3.07198e-06)
(-1.18242e-05 -1.3285e-05 3.32629e-06)
(-1.23092e-05 -1.39352e-05 7.87449e-07)
(-1.47434e-05 -1.63858e-05 3.23532e-06)
(-1.21715e-05 -1.36787e-05 3.05267e-06)
(-9.41567e-06 -1.069e-05 2.79309e-06)
(-1.15957e-05 -1.31648e-05 7.69494e-07)
(-1.18154e-05 -1.32979e-05 3.02324e-06)
(-1.47491e-05 -1.63673e-05 3.56089e-06)
(-1.218e-05 -1.36652e-05 3.35882e-06)
(-9.43302e-06 -1.06986e-05 3.55576e-06)
(-1.18365e-05 -1.32991e-05 3.83162e-06)
(-1.23298e-05 -1.39418e-05 1.63238e-06)
(-1.47599e-05 -1.63933e-05 3.64738e-06)
(-1.21822e-05 -1.36882e-05 3.45483e-06)
(-9.42043e-06 -1.07018e-05 3.17624e-06)
(-1.16128e-05 -1.31719e-05 1.60622e-06)
(-1.18253e-05 -1.33076e-05 3.42352e-06)
(-1.47698e-05 -1.63782e-05 4.08103e-06)
(-1.21933e-05 -1.36789e-05 3.86652e-06)
(-2.10424e-05 -2.26918e-05 4.39702e-06)
(-1.82475e-05 -1.99159e-05 4.28596e-06)
(-1.51383e-05 -1.67844e-05 3.67123e-06)
(-1.76378e-05 -1.94733e-05 1.76708e-06)
(-1.7845e-05 -1.95427e-05 3.81435e-06)
(-1.51481e-05 -1.67684e-05 4.10758e-06)
(-1.78537e-05 -1.95205e-05 4.26682e-06)
(-2.10345e-05 -2.27209e-05 3.93149e-06)
(-1.84283e-05 -2.02753e-05 1.78026e-06)
(-1.82388e-05 -1.99389e-05 3.83156e-06)
(-2.14073e-05 -2.30842e-05 3.87888e-06)
(-2.42497e-05 -2.58718e-05 3.94854e-06)
(-2.48387e-05 -2.67144e-05 9.62187e-07)
(-2.75306e-05 -2.91061e-05 3.62676e-06)
(-2.46608e-05 -2.63074e-05 3.59222e-06)
(-2.14077e-05 -2.31156e-05 3.52247e-06)
(-2.40207e-05 -2.59084e-05 9.57377e-07)
(-2.42521e-05 -2.59081e-05 3.58542e-06)
(-2.75263e-05 -2.90654e-05 3.99408e-06)
(-2.46581e-05 -2.62705e-05 3.95605e-06)
(-2.14462e-05 -2.30893e-05 4.40983e-06)
(-2.42951e-05 -2.58751e-05 4.48071e-06)
(-2.49126e-05 -2.67159e-05 1.84504e-06)
(-2.7571e-05 -2.91072e-05 4.04928e-06)
(-2.46973e-05 -2.63095e-05 4.01376e-06)
(-2.14384e-05 -2.31191e-05 3.94302e-06)
(-2.40919e-05 -2.59102e-05 1.84021e-06)
(-2.42879e-05 -2.59103e-05 4.00685e-06)
(-2.75778e-05 -2.9067e-05 4.52783e-06)
(-2.47044e-05 -2.62735e-05 4.48839e-06)
(-3.41643e-05 -3.55242e-05 4.54483e-06)
(-3.12737e-05 -3.26741e-05 4.55015e-06)
(-2.79821e-05 -2.95075e-05 4.05273e-06)
(-3.06724e-05 -3.2359e-05 1.8622e-06)
(-3.08572e-05 -3.23157e-05 4.06818e-06)
(-2.79888e-05 -2.94668e-05 4.53167e-06)
(-3.08636e-05 -3.22721e-05 4.54886e-06)
(-3.41611e-05 -3.5571e-05 4.07698e-06)
(-3.14943e-05 -3.31674e-05 1.86281e-06)
(-3.12675e-05 -3.2718e-05 4.06934e-06)
(-9.15937e-06 -1.03113e-05 4.28653e-06)
(-9.05277e-06 -1.0346e-05 1.55994e-06)
(-2.10282e-05 -2.2579e-05 5.43275e-06)
(-1.98285e-05 -2.13959e-05 5.37603e-06)
(-1.50985e-05 -1.68397e-05 1.85265e-06)
(-1.60389e-05 -1.78705e-05 8.65097e-07)
(-1.62462e-05 -1.80275e-05 1.89056e-06)
(-1.51645e-05 -1.66979e-05 5.05181e-06)
(-1.63058e-05 -1.78649e-05 5.1484e-06)
(-2.09907e-05 -2.28226e-05 2.0035e-06)
(-1.99704e-05 -2.18797e-05 9.21679e-07)
(-1.97859e-05 -2.16199e-05 1.98068e-06)
(-3.4103e-05 -3.53439e-05 5.64824e-06)
(-3.28765e-05 -3.41346e-05 5.63202e-06)
(-2.79336e-05 -2.96501e-05 2.07517e-06)
(-2.89433e-05 -3.07449e-05 9.76497e-07)
(-2.91662e-05 -3.0857e-05 2.07984e-06)
(-2.795e-05 -2.93167e-05 5.6077e-06)
(-2.918e-05 -3.05132e-05 5.61848e-06)
(-3.41082e-05 -3.57254e-05 2.10183e-06)
(-3.30711e-05 -3.4812e-05 9.76412e-07)
(-3.28696e-05 -3.45001e-05 2.08554e-06)
(-9.15833e-06 -1.03272e-05 4.6075e-06)
(-9.05737e-06 -1.03551e-05 2.03446e-06)
(-9.48581e-06 -1.06706e-05 4.34236e-06)
(-1.04879e-05 -1.17641e-05 4.50148e-06)
(-1.3771e-05 -1.54952e-05 8.20971e-07)
(-1.47204e-05 -1.64455e-05 1.83926e-06)
(-1.36001e-05 -1.52692e-05 1.79592e-06)
(-9.38174e-06 -1.07108e-05 1.5808e-06)
(-1.02073e-05 -1.16486e-05 7.31283e-07)
(-1.03916e-05 -1.18216e-05 1.64119e-06)
(-1.47884e-05 -1.63105e-05 5.01718e-06)
(-1.36749e-05 -1.51545e-05 4.90581e-06)
(-9.4856e-06 -1.0686e-05 4.66585e-06)
(-1.04902e-05 -1.17784e-05 4.83176e-06)
(-1.37987e-05 -1.5501e-05 1.67917e-06)
(-1.47403e-05 -1.64512e-05 2.35466e-06)
(-1.3617e-05 -1.52754e-05 2.30673e-06)
(-9.38726e-06 -1.07196e-05 2.05925e-06)
(-1.02177e-05 -1.16565e-05 1.54806e-06)
(-1.03997e-05 -1.18297e-05 2.13013e-06)
(-1.48011e-05 -1.63204e-05 5.36445e-06)
(-1.3685e-05 -1.51654e-05 5.25013e-06)
(-2.1054e-05 -2.25839e-05 5.78715e-06)
(-1.9852e-05 -2.14016e-05 5.72979e-06)
(-1.51196e-05 -1.68451e-05 2.36934e-06)
(-1.60774e-05 -1.78753e-05 1.73654e-06)
(-1.62703e-05 -1.80323e-05 2.41045e-06)
(-1.5178e-05 -1.67074e-05 5.39991e-06)
(-1.63219e-05 -1.78734e-05 5.49857e-06)
(-2.1027e-05 -2.28254e-05 2.52926e-06)
(-2.00263e-05 -2.18828e-05 1.80279e-06)
(-1.98194e-05 -2.16232e-05 2.50571e-06)
(-2.14303e-05 -2.29738e-05 5.44969e-06)
(-2.26419e-05 -2.41592e-05 5.49492e-06)
(-2.64789e-05 -2.83264e-05 9.69726e-07)
(-2.75228e-05 -2.92481e-05 2.07321e-06)
(-2.62907e-05 -2.80423e-05 2.06585e-06)
(-2.13942e-05 -2.32238e-05 2.01029e-06)
(-2.2391e-05 -2.42964e-05 9.45502e-07)
(-2.26105e-05 -2.44278e-05 2.02865e-06)
(-2.754e-05 -2.89186e-05 5.60306e-06)
(-2.63109e-05 -2.77257e-05 5.58559e-06)
(-2.14568e-05 -2.29784e-05 5.80428e-06)
(-2.26705e-05 -2.41631e-05 5.85002e-06)
(-2.65575e-05 -2.83275e-05 1.85259e-06)
(-2.75719e-05 -2.9249e-05 2.6003e-06)
(-2.63379e-05 -2.80435e-05 2.59269e-06)
(-2.14316e-05 -2.32264e-05 2.5362e-06)
(-2.24565e-05 -2.42986e-05 1.82811e-06)
(-2.26505e-05 -2.443e-05 2.55493e-06)
(-2.75754e-05 -2.892e-05 5.9605e-06)
(-2.63448e-05 -2.77277e-05 5.94232e-06)
(-3.30783e-05 -3.48958e-05 2.13319e-07)
(-3.31604e-05 -3.4896e-05 1.02814e-06)
(-3.41424e-05 -3.53438e-05 6.01133e-06)
(-3.29155e-05 -3.41348e-05 5.99273e-06)
(-2.79833e-05 -2.96509e-05 2.60235e-06)
(-2.90276e-05 -3.07456e-05 1.85967e-06)
(-2.92174e-05 -3.08575e-05 2.60739e-06)
(-2.79857e-05 -2.93181e-05 5.9654e-06)
(-2.92169e-05 -3.05141e-05 5.97705e-06)
(-3.4159e-05 -3.57254e-05 2.59501e-06)
(-3.31612e-05 -3.48122e-05 1.86369e-06)
(-3.29238e-05 -3.45002e-05 2.6139e-06)
(-9.14138e-06 -1.03105e-05 3.93392e-06)
(-9.05962e-06 -1.03417e-05 1.85304e-06)
(-1.82469e-05 -1.98224e-05 5.28593e-06)
(-1.9431e-05 -2.10021e-05 5.35509e-06)
(-2.10201e-05 -2.26075e-05 4.99577e-06)
(-1.98022e-05 -2.14943e-05 3.82429e-06)
(-1.98197e-05 -2.14219e-05 4.94295e-06)
(-1.82371e-05 -1.98448e-05 4.85913e-06)
(-1.94039e-05 -2.10974e-05 3.80882e-06)
(-1.9422e-05 -2.10272e-05 4.92346e-06)
(-1.5103e-05 -1.68244e-05 2.19734e-06)
(-1.62667e-05 -1.79562e-05 3.32197e-06)
(-1.62503e-05 -1.801e-05 2.2416e-06)
(-1.68119e-05 -1.86688e-05 8.78121e-07)
(-1.78035e-05 -1.96201e-05 1.93483e-06)
(-1.66327e-05 -1.84248e-05 1.90218e-06)
(-1.66527e-05 -1.83506e-05 3.3417e-06)
(-1.78071e-05 -1.95997e-05 2.29335e-06)
(-1.66367e-05 -1.84066e-05 2.25529e-06)
(-1.78552e-05 -1.94299e-05 5.26069e-06)
(-1.66904e-05 -1.82553e-05 5.1782e-06)
(-1.51524e-05 -1.67128e-05 4.64177e-06)
(-1.62708e-05 -1.79347e-05 3.65682e-06)
(-1.62947e-05 -1.78827e-05 4.73138e-06)
(-1.78451e-05 -1.94514e-05 4.83567e-06)
(-1.66564e-05 -1.83283e-05 3.67866e-06)
(-1.66795e-05 -1.8274e-05 4.75905e-06)
(-2.09934e-05 -2.27967e-05 2.37345e-06)
(-1.98014e-05 -2.15228e-05 3.47318e-06)
(-1.9789e-05 -2.15961e-05 2.3469e-06)
(-1.91721e-05 -2.10751e-05 9.12069e-07)
(-1.8197e-05 -2.00194e-05 1.94476e-06)
(-1.93867e-05 -2.12194e-05 1.97237e-06)
(-1.94027e-05 -2.11251e-05 3.45921e-06)
(-1.82006e-05 -1.99983e-05 2.30501e-06)
(-1.93899e-05 -2.11962e-05 2.33715e-06)
(-3.12283e-05 -3.25144e-05 5.62795e-06)
(-3.246e-05 -3.37243e-05 5.63105e-06)
(-3.41101e-05 -3.53994e-05 5.19785e-06)
(-3.28691e-05 -3.42992e-05 4.01504e-06)
(-3.28716e-05 -3.41779e-05 5.18203e-06)
(-3.12236e-05 -3.25572e-05 5.17861e-06)
(-3.24516e-05 -3.38874e-05 4.01529e-06)
(-3.24553e-05 -3.37677e-05 5.18125e-06)
(-2.79351e-05 -2.96149e-05 2.45695e-06)
(-2.91728e-05 -3.07089e-05 3.63778e-06)
(-2.91674e-05 -3.08207e-05 2.46239e-06)
(-2.97646e-05 -3.15515e-05 9.77761e-07)
(-3.08079e-05 -3.2468e-05 2.08355e-06)
(-2.95767e-05 -3.12595e-05 2.081e-06)
(-2.95833e-05 -3.11101e-05 3.63973e-06)
(-3.08089e-05 -3.24306e-05 2.46675e-06)
(-2.9578e-05 -3.12229e-05 2.46376e-06)
(-3.08189e-05 -3.21133e-05 5.62672e-06)
(-2.95899e-05 -3.09126e-05 5.62113e-06)
(-2.79446e-05 -2.93566e-05 5.15937e-06)
(-2.91679e-05 -3.06665e-05 4.00609e-06)
(-2.91749e-05 -3.05544e-05 5.16956e-06)
(-3.08141e-05 -3.21559e-05 5.17743e-06)
(-2.95782e-05 -3.10674e-05 4.0082e-06)
(-2.95849e-05 -3.09542e-05 5.17208e-06)
(-3.41087e-05 -3.56856e-05 2.48975e-06)
(-3.28775e-05 -3.43464e-05 3.64695e-06)
(-3.28708e-05 -3.4462e-05 2.46948e-06)
(-3.22308e-05 -3.39808e-05 9.79206e-07)
(-3.12179e-05 -3.28713e-05 2.08412e-06)
(-3.24526e-05 -3.40882e-05 2.08525e-06)
(-3.2459e-05 -3.39334e-05 3.64674e-06)
(-3.1219e-05 -3.28337e-05 2.46743e-06)
(-3.24537e-05 -3.40501e-05 2.46895e-06)
(-9.14217e-06 -1.03282e-05 4.3286e-06)
(-9.06449e-06 -1.03519e-05 2.30785e-06)
(-9.46822e-06 -1.06706e-05 3.98545e-06)
(-1.04336e-05 -1.17835e-05 3.18671e-06)
(-1.04715e-05 -1.17668e-05 4.13242e-06)
(-1.18733e-05 -1.32536e-05 4.69448e-06)
(-1.08292e-05 -1.21334e-05 4.55176e-06)
(-1.07762e-05 -1.21557e-05 3.22303e-06)
(-1.18583e-05 -1.326e-05 4.31084e-06)
(-1.08131e-05 -1.2137e-05 4.17888e-06)
(-1.30346e-05 -1.47123e-05 8.04612e-07)
(-1.21436e-05 -1.37191e-05 1.7318e-06)
(-1.32319e-05 -1.48795e-05 1.78072e-06)
(-1.47249e-05 -1.64309e-05 2.18155e-06)
(-1.36252e-05 -1.52179e-05 3.16197e-06)
(-1.36051e-05 -1.52567e-05 2.13087e-06)
(-1.21492e-05 -1.37093e-05 2.05559e-06)
(-1.32576e-05 -1.4831e-05 3.13589e-06)
(-1.3237e-05 -1.48677e-05 2.1129e-06)
(-9.38849e-06 -1.07059e-05 1.87783e-06)
(-1.04231e-05 -1.17938e-05 2.89695e-06)
(-1.03978e-05 -1.1815e-05 1.94883e-06)
(-1.08948e-05 -1.24023e-05 7.50767e-07)
(-1.17868e-05 -1.33356e-05 1.71474e-06)
(-1.07353e-05 -1.21968e-05 1.66013e-06)
(-1.07662e-05 -1.21667e-05 2.92982e-06)
(-1.17925e-05 -1.33265e-05 2.0354e-06)
(-1.07414e-05 -1.21896e-05 1.9713e-06)
(-1.22277e-05 -1.36307e-05 4.73937e-06)
(-1.33089e-05 -1.47715e-05 4.86615e-06)
(-1.47761e-05 -1.63245e-05 4.60966e-06)
(-1.3632e-05 -1.52016e-05 3.47972e-06)
(-1.36616e-05 -1.51656e-05 4.50645e-06)
(-1.22131e-05 -1.3638e-05 4.35237e-06)
(-1.32648e-05 -1.48154e-05 3.45087e-06)
(-1.32953e-05 -1.47816e-05 4.46972e-06)
(-9.46991e-06 -1.06879e-05 4.38326e-06)
(-1.0442e-05 -1.17994e-05 3.68086e-06)
(-1.04759e-05 -1.17828e-05 4.53862e-06)
(-1.1879e-05 -1.32664e-05 5.03208e-06)
(-1.08323e-05 -1.21473e-05 4.88405e-06)
(-1.07856e-05 -1.21711e-05 3.72024e-06)
(-1.18666e-05 -1.32743e-05 4.72609e-06)
(-1.08185e-05 -1.21526e-05 4.58757e-06)
(-1.30587e-05 -1.47185e-05 1.65668e-06)
(-1.21565e-05 -1.37262e-05 2.23453e-06)
(-1.32477e-05 -1.48859e-05 2.28972e-06)
(-1.47444e-05 -1.64372e-05 2.67529e-06)
(-1.36392e-05 -1.52262e-05 3.57044e-06)
(-1.36216e-05 -1.52636e-05 2.62023e-06)
(-1.21618e-05 -1.37173e-05 2.53726e-06)
(-1.32708e-05 -1.48396e-05 3.54296e-06)
(-1.32525e-05 -1.48749e-05 2.60055e-06)
(-9.39418e-06 -1.07159e-05 2.33637e-06)
(-1.043e-05 -1.18047e-05 3.28834e-06)
(-1.0406e-05 -1.18241e-05 2.41739e-06)
(-1.09085e-05 -1.24098e-05 1.57814e-06)
(-1.17987e-05 -1.33429e-05 2.21505e-06)
(-1.07444e-05 -1.22047e-05 2.1522e-06)
(-1.07738e-05 -1.21773e-05 3.32365e-06)
(-1.18042e-05 -1.33347e-05 2.51478e-06)
(-1.07505e-05 -1.21985e-05 2.44282e-06)
(-1.22343e-05 -1.36431e-05 5.07851e-06)
(-1.33181e-05 -1.47827e-05 5.20931e-06)
(-1.47923e-05 -1.63355e-05 5.03687e-06)
(-1.36496e-05 -1.52137e-05 3.99535e-06)
(-1.36748e-05 -1.51778e-05 4.93001e-06)
(-1.22223e-05 -1.36519e-05 4.76953e-06)
(-1.32813e-05 -1.48279e-05 3.96474e-06)
(-1.33075e-05 -1.47942e-05 4.89185e-06)
(-1.82672e-05 -1.98293e-05 5.63848e-06)
(-1.94537e-05 -2.10081e-05 5.70859e-06)
(-2.10516e-05 -2.26129e-05 5.43172e-06)
(-1.98371e-05 -2.15006e-05 4.35415e-06)
(-1.98486e-05 -2.14282e-05 5.37812e-06)
(-1.82621e-05 -1.98525e-05 5.29285e-06)
(-1.94377e-05 -2.1104e-05 4.33832e-06)
(-1.94499e-05 -2.10338e-05 5.35833e-06)
(-1.51234e-05 -1.68305e-05 2.6923e-06)
(-1.62866e-05 -1.79627e-05 3.73756e-06)
(-1.62737e-05 -1.80154e-05 2.73962e-06)
(-1.6854e-05 -1.86732e-05 1.75254e-06)
(-1.78318e-05 -1.96242e-05 2.45771e-06)
(-1.6658e-05 -1.84294e-05 2.42296e-06)
(-1.66735e-05 -1.83569e-05 3.75797e-06)
(-1.78345e-05 -1.96043e-05 2.79422e-06)
(-1.66612e-05 -1.84118e-05 2.75414e-06)
(-1.78747e-05 -1.94371e-05 5.61286e-06)
(-1.67073e-05 -1.82635e-05 5.52895e-06)
(-1.51696e-05 -1.67235e-05 5.07e-06)
(-1.62959e-05 -1.7944e-05 4.1814e-06)
(-1.63148e-05 -1.78922e-05 5.16218e-06)
(-1.78692e-05 -1.94594e-05 5.26892e-06)
(-1.66826e-05 -1.83373e-05 4.20412e-06)
(-1.67007e-05 -1.82831e-05 5.19056e-06)
(-2.10285e-05 -2.27998e-05 2.87711e-06)
(-1.98289e-05 -2.15271e-05 3.89291e-06)
(-1.98213e-05 -2.15997e-05 2.84986e-06)
(-1.92247e-05 -2.10785e-05 1.79214e-06)
(-1.82264e-05 -2.00233e-05 2.4682e-06)
(-1.94191e-05 -2.12228e-05 2.49709e-06)
(-1.94293e-05 -2.11297e-05 3.87867e-06)
(-1.8229e-05 -2.00028e-05 2.80641e-06)
(-1.94212e-05 -2.12001e-05 2.8398e-06)
(-2.14223e-05 -2.30031e-05 5.01156e-06)
(-2.26212e-05 -2.42781e-05 3.91256e-06)
(-2.26346e-05 -2.4191e-05 5.05375e-06)
(-2.42677e-05 -2.57424e-05 5.54299e-06)
(-2.30474e-05 -2.45548e-05 5.5082e-06)
(-2.30274e-05 -2.46764e-05 3.92247e-06)
(-2.4261e-05 -2.5777e-05 5.09867e-06)
(-2.30402e-05 -2.45872e-05 5.06615e-06)
(-2.56583e-05 -2.75204e-05 9.6629e-07)
(-2.46507e-05 -2.64355e-05 2.05235e-06)
(-2.58803e-05 -2.76406e-05 2.06292e-06)
(-2.75243e-05 -2.92133e-05 2.45465e-06)
(-2.62994e-05 -2.79059e-05 3.61459e-06)
(-2.62924e-05 -2.80089e-05 2.44609e-06)
(-2.46527e-05 -2.6404e-05 2.43036e-06)
(-2.58893e-05 -2.75061e-05 3.60969e-06)
(-2.58821e-05 -2.76076e-05 2.44264e-06)
(-2.13969e-05 -2.31972e-05 2.3814e-06)
(-2.26225e-05 -2.43118e-05 3.55288e-06)
(-2.26128e-05 -2.43993e-05 2.40274e-06)
(-2.32046e-05 -2.51024e-05 9.51825e-07)
(-2.42417e-05 -2.60339e-05 2.04827e-06)
(-2.30173e-05 -2.48292e-05 2.03401e-06)
(-2.3029e-05 -2.47107e-05 3.56185e-06)
(-2.42437e-05 -2.6003e-05 2.42558e-06)
(-2.30196e-05 -2.48001e-05 2.40902e-06)
(-2.46755e-05 -2.61387e-05 5.55298e-06)
(-2.59015e-05 -2.73286e-05 5.57849e-06)
(-2.75345e-05 -2.8958e-05 5.15499e-06)
(-2.62957e-05 -2.78667e-05 3.98071e-06)
(-2.6305e-05 -2.77635e-05 5.13857e-06)
(-2.4669e-05 -2.6174e-05 5.10801e-06)
(-2.58859e-05 -2.74674e-05 3.97532e-06)
(-2.58955e-05 -2.73658e-05 5.13191e-06)
(-2.14547e-05 -2.30082e-05 5.44773e-06)
(-2.2663e-05 -2.42824e-05 4.44407e-06)
(-2.26695e-05 -2.41953e-05 5.4905e-06)
(-2.42988e-05 -2.57454e-05 5.89875e-06)
(-2.30766e-05 -2.45584e-05 5.86346e-06)
(-2.30702e-05 -2.46804e-05 4.45416e-06)
(-2.42991e-05 -2.57803e-05 5.53614e-06)
(-2.30759e-05 -2.45913e-05 5.50308e-06)
(-2.57346e-05 -2.75217e-05 1.84914e-06)
(-2.46951e-05 -2.6437e-05 2.57895e-06)
(-2.59268e-05 -2.76418e-05 2.58969e-06)
(-2.75717e-05 -2.92142e-05 2.95992e-06)
(-2.63382e-05 -2.79074e-05 4.03663e-06)
(-2.6338e-05 -2.80102e-05 2.95103e-06)
(-2.46955e-05 -2.64058e-05 2.93498e-06)
(-2.59276e-05 -2.75077e-05 4.0316e-06)
(-2.5927e-05 -2.7609e-05 2.9475e-06)
(-2.1433e-05 -2.32002e-05 2.88523e-06)
(-2.26555e-05 -2.43147e-05 3.97386e-06)
(-2.26515e-05 -2.44018e-05 2.90695e-06)
(-2.32731e-05 -2.51044e-05 1.83459e-06)
(-2.42852e-05 -2.60356e-05 2.57482e-06)
(-2.30583e-05 -2.48313e-05 2.56037e-06)
(-2.30627e-05 -2.47134e-05 3.98294e-06)
(-2.42857e-05 -2.60049e-05 2.93013e-06)
(-2.30592e-05 -2.48025e-05 2.91333e-06)
(-2.47073e-05 -2.61414e-05 5.90892e-06)
(-2.5935e-05 -2.73308e-05 5.935e-06)
(-2.75776e-05 -2.89596e-05 5.59432e-06)
(-2.63452e-05 -2.78688e-05 4.51379e-06)
(-2.63464e-05 -2.77657e-05 5.57711e-06)
(-2.47078e-05 -2.6177e-05 5.54568e-06)
(-2.59346e-05 -2.74698e-05 4.50819e-06)
(-2.59363e-05 -2.73682e-05 5.57021e-06)
(-3.12666e-05 -3.25148e-05 5.98807e-06)
(-3.24989e-05 -3.37246e-05 5.99168e-06)
(-3.41582e-05 -3.53993e-05 5.64411e-06)
(-3.29259e-05 -3.42994e-05 4.55276e-06)
(-3.29192e-05 -3.41781e-05 5.62513e-06)
(-3.12703e-05 -3.25576e-05 5.62093e-06)
(-3.25081e-05 -3.38876e-05 4.55246e-06)
(-3.25028e-05 -3.37679e-05 5.62427e-06)
(-2.79831e-05 -2.96158e-05 2.96234e-06)
(-2.92151e-05 -3.07096e-05 4.06108e-06)
(-2.92169e-05 -3.08213e-05 2.96824e-06)
(-2.98504e-05 -3.1552e-05 1.86113e-06)
(-3.08607e-05 -3.24683e-05 2.61168e-06)
(-2.96284e-05 -3.126e-05 2.60869e-06)
(-2.96259e-05 -3.11107e-05 4.06325e-06)
(-3.086e-05 -3.24309e-05 2.97327e-06)
(-2.96279e-05 -3.12234e-05 2.96977e-06)
(-3.0857e-05 -3.21139e-05 5.98655e-06)
(-2.96271e-05 -3.09135e-05 5.98001e-06)
(-2.79882e-05 -2.93581e-05 5.59899e-06)
(-2.92216e-05 -3.06675e-05 4.54095e-06)
(-2.92199e-05 -3.05553e-05 5.61015e-06)
(-3.08606e-05 -3.21564e-05 5.61942e-06)
(-2.96324e-05 -3.10682e-05 4.54337e-06)
(-2.96303e-05 -3.09551e-05 5.61302e-06)
(-3.41581e-05 -3.56856e-05 2.96648e-06)
(-3.29223e-05 -3.43464e-05 4.07274e-06)
(-3.29232e-05 -3.44621e-05 2.97674e-06)
(-3.23198e-05 -3.3981e-05 1.86295e-06)
(-3.12711e-05 -3.28716e-05 2.61237e-06)
(-3.25066e-05 -3.40884e-05 2.61371e-06)
(-3.25035e-05 -3.39335e-05 4.07179e-06)
(-3.12704e-05 -3.2834e-05 2.9741e-06)
(-3.25058e-05 -3.40502e-05 2.97598e-06)
(-9.21113e-06 -1.03421e-05 5.18899e-06)
(-8.88985e-06 -9.98944e-06 5.1206e-06)
(-2.10504e-05 -2.2508e-05 6.5475e-06)
(-2.065e-05 -2.21158e-05 6.52657e-06)
(-1.51984e-05 -1.66691e-05 6.09926e-06)
(-1.55758e-05 -1.70542e-05 6.13875e-06)
(-3.40305e-05 -3.51622e-05 6.67018e-06)
(-3.36864e-05 -3.48197e-05 6.69542e-06)
(-2.79637e-05 -2.92157e-05 6.74962e-06)
(-2.83734e-05 -2.9613e-05 6.75418e-06)
(-9.20491e-06 -1.03502e-05 5.32762e-06)
(-8.88297e-06 -9.99771e-06 5.25807e-06)
(-9.5364e-06 -1.06977e-05 5.25567e-06)
(-9.86555e-06 -1.1056e-05 5.32064e-06)
(-1.48232e-05 -1.6285e-05 6.05829e-06)
(-1.44505e-05 -1.59019e-05 6.01583e-06)
(-9.53084e-06 -1.07056e-05 5.39539e-06)
(-9.86065e-06 -1.10637e-05 5.46139e-06)
(-1.48268e-05 -1.62901e-05 6.20828e-06)
(-1.44536e-05 -1.59072e-05 6.16542e-06)
(-2.10614e-05 -2.25107e-05 6.70073e-06)
(-2.06607e-05 -2.21186e-05 6.67969e-06)
(-1.52025e-05 -1.66741e-05 6.2496e-06)
(-1.55804e-05 -1.7059e-05 6.28943e-06)
(-2.14518e-05 -2.29005e-05 6.56728e-06)
(-2.18542e-05 -2.32932e-05 6.58593e-06)
(-2.75541e-05 -2.88187e-05 6.74442e-06)
(-2.71446e-05 -2.84221e-05 6.73854e-06)
(-2.14632e-05 -2.2903e-05 6.7206e-06)
(-2.18659e-05 -2.32956e-05 6.73935e-06)
(-2.75696e-05 -2.88197e-05 6.89933e-06)
(-2.71599e-05 -2.84232e-05 6.89332e-06)
(-3.37741e-05 -3.55043e-05 1.02639e-06)
(-3.41998e-05 -3.58858e-05 1.43674e-06)
(-3.38212e-05 -3.55097e-05 1.4374e-06)
(-3.40502e-05 -3.51587e-05 6.88473e-06)
(-3.37091e-05 -3.48228e-05 6.87636e-06)
(-2.79794e-05 -2.92165e-05 6.90468e-06)
(-2.83893e-05 -2.96138e-05 6.90939e-06)
(-3.38227e-05 -3.54207e-05 2.32219e-06)
(-3.4158e-05 -3.58051e-05 1.81508e-06)
(-3.37753e-05 -3.54659e-05 1.41658e-06)
(-3.42021e-05 -3.58482e-05 1.82717e-06)
(-3.37759e-05 -3.54247e-05 1.82613e-06)
(-3.38241e-05 -3.54724e-05 1.83079e-06)
(-3.42055e-05 -3.58019e-05 2.31009e-06)
(-9.11244e-06 -1.03147e-05 3.31185e-06)
(-8.77568e-06 -9.96033e-06 2.99064e-06)
(-9.09137e-06 -1.03131e-05 2.6862e-06)
(-8.76779e-06 -9.95378e-06 2.64831e-06)
(-8.78891e-06 -9.95624e-06 3.26694e-06)
(-8.7465e-06 -9.96391e-06 2.07412e-06)
(-9.07677e-06 -1.03325e-05 2.45767e-06)
(-8.7631e-06 -9.96786e-06 2.71941e-06)
(-9.08086e-06 -1.03191e-05 2.41615e-06)
(-8.757e-06 -9.95927e-06 2.38187e-06)
(-8.7522e-06 -9.97242e-06 2.42434e-06)
(-9.07056e-06 -1.03242e-05 2.1044e-06)
(-1.8274e-05 -1.97695e-05 6.37539e-06)
(-1.86665e-05 -2.01596e-05 6.40375e-06)
(-2.10074e-05 -2.26594e-05 4.22114e-06)
(-2.06026e-05 -2.22889e-05 3.85302e-06)
(-2.09813e-05 -2.269e-05 3.47314e-06)
(-2.058e-05 -2.22921e-05 3.46029e-06)
(-2.06058e-05 -2.22625e-05 4.2067e-06)
(-1.81975e-05 -1.99096e-05 3.36848e-06)
(-1.82217e-05 -1.98863e-05 4.10315e-06)
(-1.86111e-05 -2.03043e-05 3.77559e-06)
(-1.85911e-05 -2.0306e-05 3.38558e-06)
(-1.86156e-05 -2.02816e-05 4.1225e-06)
(-1.54767e-05 -1.71811e-05 2.54107e-06)
(-1.51145e-05 -1.67933e-05 2.90667e-06)
(-1.51048e-05 -1.67725e-05 2.88626e-06)
(-1.55008e-05 -1.71694e-05 3.28021e-06)
(-1.54839e-05 -1.7165e-05 2.90738e-06)
(-1.50974e-05 -1.67879e-05 2.52217e-06)
(-1.54945e-05 -1.71863e-05 2.92645e-06)
(-1.74036e-05 -1.91574e-05 2.62631e-06)
(-1.78009e-05 -1.95341e-05 3.01942e-06)
(-1.74303e-05 -1.91412e-05 3.37891e-06)
(-1.78166e-05 -1.95585e-05 3.03075e-06)
(-1.74101e-05 -1.91379e-05 3.00247e-06)
(-1.77944e-05 -1.95544e-05 2.64153e-06)
(-1.74251e-05 -1.91618e-05 3.01504e-06)
(-1.78831e-05 -1.93798e-05 6.34571e-06)
(-1.74939e-05 -1.89907e-05 6.31469e-06)
(-1.51333e-05 -1.67418e-05 3.91627e-06)
(-1.51109e-05 -1.67567e-05 3.20443e-06)
(-1.55056e-05 -1.71494e-05 3.61058e-06)
(-1.54898e-05 -1.71485e-05 3.22765e-06)
(-1.55124e-05 -1.71326e-05 3.94286e-06)
(-1.78053e-05 -1.95136e-05 3.35063e-06)
(-1.78293e-05 -1.94913e-05 4.08294e-06)
(-1.74332e-05 -1.91173e-05 3.71987e-06)
(-1.74148e-05 -1.9118e-05 3.33204e-06)
(-1.74386e-05 -1.90968e-05 4.06186e-06)
(-2.05714e-05 -2.23423e-05 2.73163e-06)
(-2.1001e-05 -2.27443e-05 3.13385e-06)
(-2.06024e-05 -2.23189e-05 3.49911e-06)
(-2.09786e-05 -2.27158e-05 3.13127e-06)
(-2.0577e-05 -2.23173e-05 3.11952e-06)
(-2.05987e-05 -2.23452e-05 3.12306e-06)
(-2.09731e-05 -2.27414e-05 2.74222e-06)
(-1.85809e-05 -2.03495e-05 2.67018e-06)
(-1.81932e-05 -1.99308e-05 3.03569e-06)
(-1.86092e-05 -2.03305e-05 3.42921e-06)
(-1.82099e-05 -1.99557e-05 3.04581e-06)
(-1.85871e-05 -2.03278e-05 3.05129e-06)
(-1.81869e-05 -1.99517e-05 2.65615e-06)
(-1.86046e-05 -2.03533e-05 3.06023e-06)
(-3.12399e-05 -3.24056e-05 6.77138e-06)
(-3.16489e-05 -3.28064e-05 6.77234e-06)
(-3.41058e-05 -3.54858e-05 4.35374e-06)
(-3.37233e-05 -3.51438e-05 4.01068e-06)
(-3.40648e-05 -3.55259e-05 3.59461e-06)
(-3.36783e-05 -3.51418e-05 3.60767e-06)
(-3.37159e-05 -3.50968e-05 4.38481e-06)
(-3.11856e-05 -3.26828e-05 3.61383e-06)
(-3.12167e-05 -3.26342e-05 4.38056e-06)
(-3.16279e-05 -3.30765e-05 4.01454e-06)
(-3.15952e-05 -3.30855e-05 3.61438e-06)
(-3.16264e-05 -3.30366e-05 4.38138e-06)
(-2.83123e-05 -2.9944e-05 2.84952e-06)
(-2.79398e-05 -2.95434e-05 3.24097e-06)
(-2.79062e-05 -2.9508e-05 3.24724e-06)
(-2.83517e-05 -2.99071e-05 3.63295e-06)
(-2.83164e-05 -2.99087e-05 3.24996e-06)
(-2.7902e-05 -2.95429e-05 2.84706e-06)
(-2.83505e-05 -2.99444e-05 3.2436e-06)
(-3.03629e-05 -3.19522e-05 2.85743e-06)
(-3.07765e-05 -3.23174e-05 3.25968e-06)
(-3.04037e-05 -3.19133e-05 3.64281e-06)
(-3.08129e-05 -3.23546e-05 3.2536e-06)
(-3.03668e-05 -3.19153e-05 3.25873e-06)
(-3.07727e-05 -3.23545e-05 2.85828e-06)
(-3.04028e-05 -3.19523e-05 3.25253e-06)
(-3.08307e-05 -3.20054e-05 6.77019e-06)
(-3.04214e-05 -3.16056e-05 6.76867e-06)
(-2.79365e-05 -2.94285e-05 4.36344e-06)
(-2.79063e-05 -2.94733e-05 3.59965e-06)
(-2.83472e-05 -2.98655e-05 4.00084e-06)
(-2.83165e-05 -2.98737e-05 3.60259e-06)
(-2.83468e-05 -2.98283e-05 4.36685e-06)
(-3.0776e-05 -3.22806e-05 3.61305e-06)
(-3.08071e-05 -3.22324e-05 4.3795e-06)
(-3.03983e-05 -3.18699e-05 4.01151e-06)
(-3.03664e-05 -3.18788e-05 3.61204e-06)
(-3.03974e-05 -3.1831e-05 4.37819e-06)
(-3.36774e-05 -3.52192e-05 2.86083e-06)
(-3.41131e-05 -3.56088e-05 3.26629e-06)
(-3.37352e-05 -3.51947e-05 3.64272e-06)
(-3.40741e-05 -3.55703e-05 3.26106e-06)
(-3.36839e-05 -3.5184e-05 3.2594e-06)
(-3.37311e-05 -3.52314e-05 3.25519e-06)
(-3.40689e-05 -3.56064e-05 2.868e-06)
(-3.15922e-05 -3.31604e-05 2.85946e-06)
(-3.11861e-05 -3.27198e-05 3.26042e-06)
(-3.16339e-05 -3.31209e-05 3.64572e-06)
(-3.12229e-05 -3.27573e-05 3.25448e-06)
(-3.1596e-05 -3.31228e-05 3.26098e-06)
(-3.11824e-05 -3.27571e-05 2.85895e-06)
(-3.16333e-05 -3.31607e-05 3.2552e-06)
(-9.11665e-06 -1.03343e-05 3.81381e-06)
(-8.77953e-06 -9.97841e-06 3.46648e-06)
(-9.1053e-06 -1.03494e-05 3.72075e-06)
(-8.79217e-06 -9.97629e-06 3.76465e-06)
(-8.78005e-06 -9.99105e-06 3.6741e-06)
(-8.75911e-06 -9.99625e-06 3.15849e-06)
(-9.08138e-06 -1.03438e-05 2.84803e-06)
(-8.76651e-06 -9.9803e-06 3.09625e-06)
(-9.09447e-06 -1.03516e-05 3.44251e-06)
(-8.75615e-06 -9.98401e-06 2.81136e-06)
(-8.76896e-06 -9.99268e-06 3.3995e-06)
(-9.08493e-06 -1.03557e-05 3.19812e-06)
(-9.43993e-06 -1.06762e-05 3.35568e-06)
(-9.4189e-06 -1.06754e-05 2.72326e-06)
(-9.75911e-06 -1.10462e-05 3.11119e-06)
(-9.75025e-06 -1.10404e-05 2.7595e-06)
(-9.77127e-06 -1.10404e-05 3.39846e-06)
(-1.19161e-05 -1.32554e-05 5.67536e-06)
(-1.15658e-05 -1.28836e-05 5.62036e-06)
(-1.18131e-05 -1.32809e-05 2.95951e-06)
(-1.14716e-05 -1.29066e-05 3.29281e-06)
(-1.18343e-05 -1.32753e-05 3.63304e-06)
(-1.14609e-05 -1.29023e-05 2.92824e-06)
(-1.14821e-05 -1.28976e-05 3.59654e-06)
(-1.43456e-05 -1.60044e-05 2.4825e-06)
(-1.47367e-05 -1.64012e-05 2.88619e-06)
(-1.47279e-05 -1.6381e-05 2.86442e-06)
(-1.43682e-05 -1.59954e-05 3.21168e-06)
(-1.47204e-05 -1.63957e-05 2.50265e-06)
(-1.43533e-05 -1.59903e-05 2.84187e-06)
(-1.43613e-05 -1.60101e-05 2.86499e-06)
(-1.25103e-05 -1.40659e-05 2.37232e-06)
(-1.21603e-05 -1.36723e-05 2.69139e-06)
(-1.21632e-05 -1.36893e-05 2.7225e-06)
(-1.25307e-05 -1.40613e-05 3.08125e-06)
(-1.21516e-05 -1.36825e-05 2.34838e-06)
(-1.25188e-05 -1.40551e-05 2.71829e-06)
(-1.25226e-05 -1.40725e-05 2.7481e-06)
(-9.73038e-06 -1.10535e-05 2.16306e-06)
(-9.4053e-06 -1.06956e-05 2.4902e-06)
(-9.40866e-06 -1.06818e-05 2.44969e-06)
(-9.74778e-06 -1.10553e-05 2.82859e-06)
(-9.39855e-06 -1.06875e-05 2.13404e-06)
(-9.74029e-06 -1.10474e-05 2.48249e-06)
(-9.73768e-06 -1.10616e-05 2.52196e-06)
(-1.14433e-05 -1.29209e-05 2.29861e-06)
(-1.18047e-05 -1.32912e-05 2.66376e-06)
(-1.14624e-05 -1.29188e-05 2.99296e-06)
(-1.18068e-05 -1.33077e-05 2.69615e-06)
(-1.14523e-05 -1.29119e-05 2.63539e-06)
(-1.17959e-05 -1.33008e-05 2.32381e-06)
(-1.14536e-05 -1.2928e-05 2.66903e-06)
(-1.22695e-05 -1.3629e-05 5.72874e-06)
(-1.26259e-05 -1.40042e-05 5.78052e-06)
(-1.47565e-05 -1.6352e-05 3.88873e-06)
(-1.47342e-05 -1.63657e-05 3.18043e-06)
(-1.43743e-05 -1.59776e-05 3.53472e-06)
(-1.43599e-05 -1.59758e-05 3.15564e-06)
(-1.4382e-05 -1.59631e-05 3.86023e-06)
(-1.21684e-05 -1.36614e-05 2.98997e-06)
(-1.21897e-05 -1.36549e-05 3.66851e-06)
(-1.25387e-05 -1.40471e-05 3.39043e-06)
(-1.25267e-05 -1.40436e-05 3.01961e-06)
(-1.25481e-05 -1.4036e-05 3.70297e-06)
(-9.44511e-06 -1.06952e-05 3.86166e-06)
(-9.43453e-06 -1.07108e-05 3.76611e-06)
(-9.76562e-06 -1.10629e-05 3.59863e-06)
(-9.77744e-06 -1.10589e-05 3.90824e-06)
(-9.76765e-06 -1.10749e-05 3.8102e-06)
(-1.1915e-05 -1.32619e-05 5.82116e-06)
(-1.15641e-05 -1.28903e-05 5.76544e-06)
(-1.18419e-05 -1.33101e-05 4.04862e-06)
(-1.14829e-05 -1.29212e-05 3.79561e-06)
(-1.18468e-05 -1.3291e-05 4.16143e-06)
(-1.14934e-05 -1.29138e-05 4.1223e-06)
(-1.14877e-05 -1.29323e-05 4.01191e-06)
(-1.43914e-05 -1.60246e-05 3.66531e-06)
(-1.47537e-05 -1.64082e-05 3.30958e-06)
(-1.43839e-05 -1.60032e-05 3.62264e-06)
(-1.47732e-05 -1.64011e-05 3.97687e-06)
(-1.43774e-05 -1.60174e-05 3.28725e-06)
(-1.43965e-05 -1.60112e-05 3.95138e-06)
(-1.47684e-05 -1.64152e-05 3.68862e-06)
(-1.25448e-05 -1.40897e-05 3.53482e-06)
(-1.21907e-05 -1.36976e-05 3.77724e-06)
(-1.21744e-05 -1.36981e-05 3.13567e-06)
(-1.25422e-05 -1.40704e-05 3.48517e-06)
(-1.25346e-05 -1.4081e-05 3.16308e-06)
(-1.21839e-05 -1.3707e-05 3.50583e-06)
(-1.25513e-05 -1.40797e-05 3.80886e-06)
(-9.74841e-06 -1.10835e-05 3.27402e-06)
(-9.41058e-06 -1.07067e-05 2.88374e-06)
(-9.42397e-06 -1.07136e-05 3.48433e-06)
(-9.75324e-06 -1.10669e-05 3.21465e-06)
(-9.41472e-06 -1.07182e-05 3.23662e-06)
(-9.74364e-06 -1.10723e-05 2.91849e-06)
(-9.75734e-06 -1.10783e-05 3.52496e-06)
(-1.14713e-05 -1.2947e-05 3.44482e-06)
(-1.18331e-05 -1.33173e-05 3.74454e-06)
(-1.14715e-05 -1.29288e-05 3.39123e-06)
(-1.18172e-05 -1.33168e-05 3.10737e-06)
(-1.14632e-05 -1.29374e-05 3.07818e-06)
(-1.14787e-05 -1.29389e-05 3.71076e-06)
(-1.1826e-05 -1.33261e-05 3.47583e-06)
(-1.2269e-05 -1.36353e-05 5.8752e-06)
(-1.2626e-05 -1.40104e-05 5.9276e-06)