/*--------------------------------*- C++ -*----------------------------------*\
| =========                 |                                                 |
| \\      /  F ield         | OpenFOAM: The Open Source CFD Toolbox           |
|  \\    /   O peration     | Version:  2012                                  |
|   \\  /    A nd           | Website:  www.openfoam.com                      |
|    \\/     M anipulation  |                                                 |
\*---------------------------------------------------------------------------*/
FoamFile
{
    version     2.0;
    format      ascii;
    class       volScalarField;
    location    "0.105/solid";
    object      epsilonEq;
}
// * * * * * * * * * * * * * * * * * * * * * * * * * * * * * * * * * * * * * //

dimensions      [0 0 0 0 0 0 0];


internalField   nonuniform List<scalar> 
3125
(
5.25821e-06
3.86659e-06
2.7392e-06
1.28309e-06
1.0754e-07
6.57376e-06
4.02526e-06
5.10827e-06
4.6532e-06
6.31499e-06
4.43681e-06
3.046e-06
1.44375e-06
2.57707e-06
1.61179e-06
2.86113e-06
1.25396e-07
1.15605e-07
1.43564e-06
9.80338e-08
1.28805e-05
1.18045e-05
4.334e-06
5.9149e-06
7.35244e-06
3.38609e-06
5.7348e-06
7.94974e-06
6.15679e-06
4.08889e-06
3.22499e-06
5.51652e-06
7.49349e-08
5.92813e-07
1.45958e-06
8.0201e-07
7.24772e-07
1.45352e-06
6.86104e-07
7.24168e-08
6.39738e-07
6.32259e-07
1.36783e-05
1.24422e-05
1.25729e-05
1.04746e-05
4.496e-06
7.59539e-06
9.36846e-06
1.15265e-05
4.65079e-06
9.6312e-06
8.21902e-06
1.01835e-05
1.33383e-05
1.10348e-05
5.3332e-06
7.8951e-06
9.795e-06
1.21382e-05
5.57057e-06
1.00786e-05
8.59476e-06
1.07178e-05
4.49729e-06
6.14711e-06
7.63676e-06
3.81651e-06
5.92985e-06
8.30626e-06
6.40177e-06
4.21826e-06
3.61839e-06
5.70135e-06
4.12532e-06
2.79671e-06
1.92828e-06
1.57948e-06
2.54033e-06
3.90021e-06
2.09022e-06
2.69522e-06
1.58197e-06
2.62671e-06
4.28145e-06
2.91729e-06
2.14141e-06
1.65425e-06
2.6315e-06
4.02375e-06
2.31925e-06
2.78929e-06
1.6814e-06
2.74398e-06
1.10763e-07
6.60327e-07
1.53208e-06
9.07327e-07
7.76682e-07
1.55053e-06
7.58588e-07
1.02812e-07
7.28714e-07
6.80375e-07
1.76808e-05
7.66486e-06
5.46608e-06
6.38329e-06
5.13928e-06
3.70704e-06
4.72547e-06
1.05877e-05
9.46322e-06
3.19478e-06
2.90145e-06
3.55775e-06
6.83286e-08
1.54134e-07
1.40626e-06
1.12258e-06
1.13315e-06
1.50775e-06
1.05371e-06
6.43987e-08
2.87484e-07
3.42108e-07
1.77601e-05
8.4027e-06
1.72356e-05
1.5918e-05
4.1832e-06
5.27953e-06
5.70766e-06
7.50919e-06
4.95694e-06
7.0471e-06
1.09723e-05
1.21538e-05
1.73119e-05
1.59858e-05
4.87453e-06
5.62958e-06
6.11436e-06
8.21704e-06
6.06154e-06
7.66823e-06
1.10154e-05
1.22015e-05
5.49913e-06
6.41645e-06
5.4722e-06
4.22546e-06
5.01136e-06
1.06294e-05
9.50146e-06
3.35588e-06
3.23343e-06
3.74178e-06
5.17364e-06
4.33781e-06
1.60501e-06
1.49923e-06
1.78765e-06
3.07728e-06
2.41468e-06
2.73314e-06
1.67641e-06
2.23334e-06
5.2068e-06
4.37181e-06
1.7878e-06
1.5869e-06
1.8864e-06
3.2317e-06
2.67877e-06
2.87006e-06
1.718e-06
2.27265e-06
2.90503e-07
3.27454e-07
8.65509e-08
1.87295e-07
1.49019e-06
1.25981e-06
1.20532e-06
1.55001e-06
1.09738e-06
7.24032e-08
3.37582e-07
3.74679e-07
1.63993e-05
8.6654e-06
7.69433e-06
6.70185e-06
5.15947e-06
4.98651e-06
6.00662e-06
7.21642e-06
5.2125e-06
6.30069e-06
5.66287e-06
6.64074e-06
5.17641e-06
3.547e-06
4.19219e-06
4.5903e-06
6.40951e-06
4.55279e-06
5.01779e-06
8.03696e-06
9.09858e-06
9.88231e-06
7.16091e-06
8.84682e-06
7.53238e-06
6.9046e-06
8.51087e-06
3.40068e-06
4.67846e-06
3.8171e-06
3.06326e-06
4.06255e-06
3.68147e-06
4.88253e-06
4.40166e-06
3.96012e-06
4.70614e-07
2.20563e-07
7.26643e-08
2.49545e-07
1.78713e-07
5.04099e-07
3.31367e-07
2.49917e-07
1.42125e-06
1.12368e-06
1.13492e-06
9.62544e-07
7.8243e-07
1.0447e-06
1.01922e-06
7.73588e-07
1.04278e-06
5.70143e-07
9.19922e-07
1.49065e-06
1.0978e-06
1.0646e-06
6.01929e-07
9.88641e-07
9.37925e-07
6.03397e-08
2.80819e-07
3.31111e-07
4.74868e-07
6.96197e-07
4.33554e-07
3.6677e-07
6.85613e-07
4.21918e-07
1.67303e-05
9.38538e-06
1.59909e-05
1.16612e-05
1.47817e-05
1.42074e-05
1.54852e-05
1.13613e-05
1.32108e-05
1.43843e-05
4.34008e-06
6.29343e-06
5.8525e-06
5.82838e-06
8.34041e-06
6.33433e-06
7.02933e-06
8.59384e-06
6.506e-06
8.47924e-06
1.07029e-05
7.92713e-06
4.80453e-06
6.44235e-06
6.89459e-06
1.0432e-05
7.20648e-06
7.74519e-06
1.37888e-05
1.25563e-05
1.02363e-05
9.04463e-06
1.13232e-05
1.28262e-05
9.32543e-06
1.16934e-05
1.63086e-05
1.23339e-05
1.50615e-05
1.42653e-05
1.55504e-05
1.20047e-05
1.34446e-05
1.46521e-05
5.10123e-06
6.78719e-06
6.27953e-06
6.17016e-06
8.69034e-06
6.73164e-06
7.51182e-06
8.96189e-06
6.92336e-06
9.16992e-06
1.12403e-05
8.53388e-06
5.81331e-06
6.95975e-06
7.48882e-06
1.09459e-05
7.71219e-06
8.32557e-06
1.38444e-05
1.26059e-05
1.03954e-05
9.48313e-06
1.15075e-05
1.30494e-05
9.78659e-06
1.18869e-05
7.72882e-06
6.73522e-06
5.23714e-06
5.17521e-06
6.09326e-06
7.31927e-06
5.41103e-06
6.39094e-06
5.98771e-06
6.8829e-06
5.45498e-06
4.01865e-06
4.42607e-06
4.86215e-06
6.63895e-06
4.77993e-06
5.28239e-06
8.07203e-06
9.13585e-06
1.00337e-05
7.46474e-06
8.97742e-06
7.64013e-06
7.19253e-06
8.63524e-06
3.55592e-06
4.82835e-06
3.9949e-06
3.42422e-06
4.2852e-06
3.87422e-06
5.0403e-06
4.61763e-06
4.14655e-06
4.8892e-06
3.52696e-06
4.11638e-06
3.32508e-06
4.07354e-06
3.33702e-06
3.17893e-06
3.87184e-06
1.76644e-06
2.19233e-06
1.88619e-06
1.52026e-06
1.96491e-06
1.82952e-06
2.2721e-06
2.10206e-06
1.93678e-06
3.2663e-06
3.35845e-06
2.87637e-06
2.25251e-06
2.29703e-06
2.62205e-06
3.18624e-06
2.38834e-06
2.751e-06
3.09092e-06
2.43556e-06
1.64806e-06
1.9984e-06
2.16631e-06
2.96193e-06
2.1476e-06
2.35412e-06
4.96445e-06
3.66488e-06
4.18593e-06
3.36099e-06
4.10788e-06
3.46999e-06
3.24405e-06
3.93996e-06
1.96448e-06
2.30635e-06
1.9886e-06
1.60596e-06
2.04626e-06
1.92536e-06
2.38204e-06
2.18565e-06
2.03598e-06
3.41496e-06
3.4671e-06
3.00804e-06
2.49812e-06
2.41517e-06
2.75387e-06
3.29077e-06
2.5021e-06
2.87773e-06
3.12738e-06
2.47415e-06
1.71157e-06
2.10481e-06
2.2298e-06
3.02642e-06
2.25648e-06
2.41774e-06
5.12192e-07
2.56349e-07
9.9491e-08
2.95059e-07
2.18325e-07
5.58075e-07
3.82261e-07
2.93442e-07
1.50351e-06
1.18855e-06
1.20619e-06
1.08353e-06
8.37828e-07
1.11285e-06
1.08125e-06
8.28651e-07
1.1102e-06
6.12782e-07
9.63658e-07
1.55408e-06
1.18627e-06
1.12691e-06
6.58479e-07
1.07372e-06
9.99319e-07
7.69034e-08
3.12738e-07
3.63851e-07
5.47066e-07
7.4728e-07
4.7091e-07
4.0258e-07
7.36436e-07
4.59293e-07
2.05906e-05
2.11198e-05
6.19496e-06
6.54668e-06
1.22226e-05
1.17751e-05
1.99184e-08
2.76056e-08
1.54913e-06
1.36274e-06
2.04299e-05
2.09521e-05
2.00648e-05
1.95425e-05
1.26758e-05
1.31345e-05
1.99108e-05
1.93952e-05
1.26052e-05
1.30595e-05
6.17454e-06
6.52413e-06
1.21563e-05
1.1713e-05
5.85124e-06
5.5155e-06
1.74612e-06
1.95333e-06
5.83261e-06
5.49879e-06
1.74364e-06
1.95032e-06
1.74497e-07
1.05253e-07
1.7975e-07
2.32809e-08
3.25867e-08
1.5472e-06
1.36133e-06
1.79487e-07
8.3118e-08
1.64415e-07
9.03547e-08
1.60977e-07
1.73966e-07
8.16083e-08
1.40092e-05
1.31899e-05
1.23687e-05
1.266e-05
1.43514e-05
1.04947e-05
1.0756e-05
1.20841e-05
1.1344e-05
1.16049e-05
1.10053e-05
1.02654e-05
8.81564e-06
8.41936e-06
4.5909e-06
4.54713e-06
4.21799e-06
4.4243e-06
4.8245e-06
5.74378e-06
6.3259e-06
5.67684e-06
5.51464e-06
6.06432e-06
6.353e-06
6.78084e-06
7.14148e-06
7.1123e-06
6.91189e-06
6.55673e-06
6.56603e-06
5.36627e-06
5.58839e-06
5.95644e-06
5.33243e-06
5.80211e-06
5.17583e-06
5.5311e-06
9.21895e-06
9.62886e-06
8.56526e-06
7.69416e-06
7.68359e-06
7.43989e-06
8.27205e-06
5.97638e-06
6.59183e-06
6.40245e-06
6.21244e-06
6.86196e-06
3.91548e-06
3.85328e-06
4.28153e-06
3.99122e-06
4.17906e-06
4.02686e-06
3.7468e-06
4.80227e-06
5.3776e-06
5.30166e-06
5.13666e-06
5.16975e-06
4.98779e-06
4.94386e-06
3.75699e-07
2.84013e-07
7.16503e-08
1.01243e-07
5.11945e-08
8.54448e-08
8.97409e-08
5.70905e-07
5.61148e-07
5.02802e-07
4.83218e-07
4.70834e-07
1.2839e-06
1.45041e-06
1.40657e-06
1.34375e-06
1.29258e-06
1.39091e-06
1.34125e-06
7.95083e-07
6.87621e-07
8.19906e-07
7.46265e-07
7.80055e-07
7.05216e-07
8.39253e-07
4.80477e-07
5.97782e-07
1.45938e-06
1.41171e-06
1.33011e-06
1.29097e-06
1.32798e-06
6.61796e-07
6.55775e-07
7.82996e-07
7.5632e-07
7.54981e-07
1.04774e-07
6.66417e-08
1.15823e-07
4.99235e-08
9.50687e-08
1.23156e-07
4.79178e-08
5.31078e-07
5.97925e-07
5.42004e-07
6.55154e-07
5.10614e-07
6.1732e-07
5.65528e-07
1.4673e-05
1.40208e-05
1.37414e-05
1.50425e-05
1.40896e-05
1.21587e-05
1.13905e-05
1.27483e-05
1.2843e-05
1.16662e-05
1.31662e-05
1.18631e-05
1.3669e-05
1.20789e-05
1.22671e-05
1.17906e-05
1.33309e-05
1.64903e-05
1.69887e-05
1.00959e-05
1.07679e-05
1.13503e-05
1.03738e-05
1.16742e-05
6.96988e-06
6.9981e-06
7.37343e-06
7.84109e-06
6.76238e-06
7.60763e-06
7.21775e-06
8.03351e-06
9.05634e-06
8.58228e-06
9.10797e-06
8.25093e-06
8.81013e-06
8.34966e-06
9.80975e-06
1.0508e-05
1.10842e-05
1.12502e-05
1.00371e-05
1.08257e-05
1.02616e-05
8.68997e-06
9.30438e-06
9.89607e-06
8.81683e-06
9.55404e-06
8.46978e-06
9.05327e-06
1.59965e-05
1.55071e-05
8.86201e-06
7.95125e-06
8.49133e-06
8.211e-06
9.16215e-06
9.81997e-06
1.1029e-05
9.89502e-06
9.54627e-06
1.07105e-05
1.43062e-05
1.33959e-05
1.30008e-05
1.39421e-05
1.30532e-05
1.63797e-05
1.68722e-05
1.10612e-05
1.1355e-05
1.18191e-05
1.21651e-05
1.13851e-05
7.76875e-06
7.29776e-06
8.15686e-06
8.08241e-06
7.53325e-06
8.3541e-06
7.52159e-06
9.05624e-06
1.00615e-05
9.00726e-06
9.51431e-06
8.75467e-06
9.32362e-06
9.76808e-06
1.12795e-05
1.11167e-05
1.25224e-05
1.18365e-05
1.157e-05
1.0845e-05
1.22045e-05
9.86781e-06
1.03582e-05
1.0365e-05
9.26246e-06
9.52022e-06
1.06582e-05
9.5942e-06
1.58913e-05
1.54074e-05
9.18032e-06
8.88714e-06
8.60072e-06
9.49676e-06
8.89474e-06
1.07407e-05
1.14765e-05
1.0404e-05
1.11374e-05
1.04237e-05
8.77803e-06
8.38455e-06
4.73991e-06
4.71823e-06
4.50542e-06
4.97949e-06
4.72495e-06
6.14832e-06
6.52881e-06
5.89709e-06
6.25773e-06
5.89879e-06
7.03809e-06
7.06532e-06
7.38191e-06
7.81459e-06
6.83601e-06
7.278e-06
7.55072e-06
5.89484e-06
6.05367e-06
6.16232e-06
5.52903e-06
5.73834e-06
6.29261e-06
5.67783e-06
9.17816e-06
9.58504e-06
8.868e-06
8.02171e-06
8.31077e-06
8.55991e-06
8.02501e-06
6.40267e-06
6.80486e-06
6.66096e-06
7.08579e-06
6.66171e-06
4.27232e-06
3.98527e-06
4.41723e-06
4.30421e-06
4.16508e-06
4.50675e-06
4.0881e-06
5.25583e-06
5.81911e-06
5.47691e-06
5.32323e-06
5.12101e-06
5.58907e-06
5.46478e-06
4.36233e-06
4.01585e-06
3.92123e-06
3.81796e-06
4.13891e-06
3.67955e-06
3.96367e-06
2.72443e-06
2.97179e-06
2.91102e-06
2.89508e-06
3.10177e-06
1.61502e-06
1.56281e-06
1.52472e-06
1.7036e-06
1.50123e-06
1.64708e-06
1.67864e-06
2.23801e-06
2.47233e-06
2.44959e-06
2.38985e-06
2.37346e-06
2.32398e-06
2.31192e-06
3.41856e-06
3.68311e-06
3.80695e-06
3.71553e-06
3.58112e-06
3.62635e-06
3.51638e-06
2.65487e-06
2.62493e-06
2.85454e-06
2.59096e-06
2.78168e-06
2.5124e-06
2.73609e-06
3.40461e-06
3.13874e-06
1.59673e-06
1.53745e-06
1.71556e-06
1.66823e-06
1.74006e-06
2.55862e-06
2.72604e-06
2.46185e-06
2.39775e-06
2.54686e-06
4.50587e-06
4.29111e-06
4.07072e-06
4.27744e-06
4.08199e-06
3.67107e-06
3.95398e-06
2.93941e-06
3.09609e-06
3.0287e-06
3.22201e-06
3.11636e-06
1.82097e-06
1.63814e-06
1.78054e-06
1.71056e-06
1.75646e-06
1.83826e-06
1.70067e-06
2.4764e-06
2.69703e-06
2.54305e-06
2.47834e-06
2.40253e-06
2.61892e-06
2.54246e-06
3.73232e-06
3.80933e-06
4.10647e-06
3.8337e-06
3.90806e-06
3.63727e-06
3.91351e-06
2.91635e-06
2.85636e-06
2.9518e-06
2.68749e-06
2.83591e-06
3.02055e-06
2.76563e-06
3.397e-06
3.13225e-06
1.7008e-06
1.81732e-06
1.71542e-06
1.84568e-06
1.85033e-06
2.76794e-06
2.84145e-06
2.57604e-06
2.66025e-06
2.60173e-06
3.78802e-07
2.88028e-07
1.1436e-07
1.41481e-07
1.22516e-07
1.38619e-07
1.53843e-07
6.90615e-07
6.37191e-07
5.65054e-07
5.41416e-07
5.93315e-07
1.46971e-06
1.52318e-06
1.41388e-06
1.58686e-06
1.41138e-06
1.58355e-06
1.46709e-06
9.39471e-07
8.16779e-07
8.75402e-07
7.96964e-07
8.93623e-07
9.18222e-07
8.39815e-07
4.82583e-07
5.99304e-07
1.56176e-06
1.42449e-06
1.58526e-06
1.42843e-06
1.45967e-06
7.90518e-07
7.36756e-07
8.60109e-07
8.40454e-07
8.93367e-07
1.68303e-07
9.39024e-08
1.43763e-07
1.17074e-07
1.48059e-07
1.60315e-07
1.11051e-07
6.45043e-07
7.17553e-07
5.86144e-07
7.02049e-07
6.08468e-07
6.2036e-07
7.41669e-07
1.91099e-05
1.81288e-05
1.95992e-05
5.02932e-06
4.34298e-06
4.31287e-06
5.01627e-06
7.27332e-06
6.90621e-06
5.80653e-06
5.76522e-06
6.13136e-06
6.80254e-06
6.07104e-06
6.46345e-06
3.72334e-06
3.4141e-06
3.76875e-06
3.3941e-06
3.61773e-06
3.27261e-06
3.29765e-06
3.56908e-06
1.08979e-05
1.13335e-05
1.1375e-05
1.02079e-05
1.09615e-05
1.01511e-05
9.83299e-06
1.05536e-05
2.68345e-06
2.48615e-06
2.53806e-06
2.6186e-06
2.77936e-06
2.67133e-06
2.62362e-06
2.84165e-06
8.81491e-08
5.12189e-08
4.47957e-08
6.70845e-08
4.84826e-08
1.20105e-07
1.00308e-07
7.41879e-08
1.18464e-06
1.25359e-06
1.2627e-06
1.17464e-06
1.10791e-06
1.02373e-06
1.10448e-06
1.02912e-06
1.02242e-06
1.18712e-06
1.51768e-06
1.34777e-06
1.34544e-06
1.03019e-06
1.19633e-06
1.18289e-06
1.55819e-07
1.24898e-07
1.671e-07
1.06653e-07
2.36223e-07
3.35483e-07
2.40706e-07
3.29309e-07
3.94961e-06
5.63615e-06
5.6942e-06
3.27697e-06
3.30091e-06
3.39243e-06
3.37277e-06
3.87219e-06
3.87651e-06
3.80053e-06
3.80001e-06
4.16814e-06
4.22075e-06
4.38885e-06
4.33633e-06
5.49186e-06
5.43551e-06
5.24021e-06
5.29537e-06
1.89599e-05
1.82112e-05
1.94427e-05
7.36606e-06
6.34072e-06
6.43271e-06
7.23932e-06
1.86238e-05
1.67933e-05
1.8141e-05
1.85091e-05
1.9024e-05
1.63541e-05
1.71856e-05
1.76615e-05
3.91774e-06
3.51225e-06
3.87543e-06
3.52724e-06
4.02611e-06
3.63717e-06
3.62762e-06
4.06485e-06
4.88206e-06
4.22651e-06
4.89906e-06
4.25045e-06
4.766e-06
4.15473e-06
4.13656e-06
4.74524e-06
1.40682e-05
1.35988e-05
1.17939e-05
1.13616e-05
1.22178e-05
1.30807e-05
1.17555e-05
1.26469e-05
1.84802e-05
1.68667e-05
1.80036e-05
1.83746e-05
1.8883e-05
1.64246e-05
1.70603e-05
1.75302e-05
5.06924e-06
4.49937e-06
4.57553e-06
4.96804e-06
5.22335e-06
4.78481e-06
4.70716e-06
5.3275e-06
6.92697e-06
6.17683e-06
6.08727e-06
7.05031e-06
6.74271e-06
5.84069e-06
5.92791e-06
6.6227e-06
1.39839e-05
1.35191e-05
1.17302e-05
1.14061e-05
1.21498e-05
1.30035e-05
1.18016e-05
1.25743e-05
3.20576e-06
3.17798e-06
3.07541e-06
3.10702e-06
2.38848e-06
2.44236e-06
2.56151e-06
2.51124e-06
4.05637e-06
4.00306e-06
3.84072e-06
3.89506e-06
2.89779e-06
2.96342e-06
3.11717e-06
3.05374e-06
1.30568e-06
1.38246e-06
1.52379e-06
1.44955e-06
2.31994e-06
2.26266e-06
2.13398e-06
2.19429e-06
1.59145e-06
1.68085e-06
1.84959e-06
1.76262e-06
2.80943e-06
2.74094e-06
2.58281e-06
2.65433e-06
7.24642e-06
6.88143e-06
5.79556e-06
5.79827e-06
6.11804e-06
6.78417e-06
6.10412e-06
6.44764e-06
4.72015e-06
4.37214e-06
4.81882e-06
4.29693e-06
4.5763e-06
4.09986e-06
4.17423e-06
4.48003e-06
1.08436e-05
1.12753e-05
1.13157e-05
1.02483e-05
1.09064e-05
1.01038e-05
9.87232e-06
1.05023e-05
3.26216e-06
2.99972e-06
3.07552e-06
3.17469e-06
3.37815e-06
3.25073e-06
3.17571e-06
3.46657e-06
5.48913e-06
4.88803e-06
5.17911e-06
4.86903e-06
5.18813e-06
4.60935e-06
4.58214e-06
4.87679e-06
1.41799e-06
1.32471e-06
1.34066e-06
1.40165e-06
1.49837e-06
1.5489e-06
1.47449e-06
1.57446e-06
2.45808e-06
2.4025e-06
2.52498e-06
2.34682e-06
2.36585e-06
2.20531e-06
2.26462e-06
2.297e-06
2.39818e-06
2.17085e-06
1.69966e-06
1.85361e-06
1.89095e-06
2.3015e-06
2.03932e-06
2.09169e-06
5.48033e-06
4.92141e-06
5.17255e-06
4.85552e-06
5.17285e-06
4.64302e-06
4.57953e-06
4.87218e-06
1.73988e-06
1.60616e-06
1.69739e-06
1.64848e-06
1.8336e-06
1.87161e-06
1.78232e-06
1.92423e-06
2.97492e-06
2.90229e-06
2.82501e-06
3.06212e-06
2.86636e-06
2.65152e-06
2.73033e-06
2.77918e-06
2.39403e-06
2.1671e-06
1.71359e-06
1.89446e-06
1.9039e-06
2.31225e-06
2.07941e-06
2.10351e-06
1.23897e-06
1.16031e-06
1.01325e-06
1.09357e-06
1.40641e-07
1.7542e-07
3.35383e-07
2.42544e-07
1.51004e-06
1.41793e-06
1.24245e-06
1.33697e-06
1.02503e-07
2.0036e-07
4.361e-07
3.16703e-07
9.51984e-08
5.9227e-08
5.21496e-08
9.5185e-08
6.04052e-08
1.39036e-07
1.30962e-07
9.05969e-08
1.4631e-06
1.52207e-06
1.55567e-06
1.42862e-06
1.37238e-06
1.25044e-06
1.3457e-06
1.27868e-06
1.02212e-06
1.18602e-06
1.53265e-06
1.39061e-06
1.36139e-06
1.04793e-06
1.23969e-06
1.19972e-06
1.87253e-07
7.4078e-08
1.60972e-07
8.47763e-08
1.63697e-07
8.21606e-08
1.81729e-07
1.94224e-07
9.32229e-08
1.96668e-07
8.71662e-08
3.19036e-07
4.34754e-07
3.15358e-07
4.38109e-07
1.52293e-05
1.68102e-05
1.56068e-05
7.64807e-06
8.03005e-06
8.22723e-06
7.35755e-06
7.86116e-06
7.14868e-06
7.02666e-06
7.50157e-06
4.87992e-06
5.43584e-06
5.13523e-06
4.76469e-06
4.84892e-06
5.30637e-06
4.63465e-06
5.06305e-06
5.71829e-06
5.66224e-06
5.39605e-06
6.77857e-06
6.90573e-06
6.49197e-06
5.44266e-06
5.06707e-06
5.55444e-06
5.28902e-06
5.80714e-06
6.60044e-06
5.93371e-06
6.21032e-06
6.15133e-06
6.87503e-06
6.46013e-06
6.14404e-06
5.95178e-06
6.68476e-06
6.35372e-06
3.31103e-06
3.02095e-06
3.25632e-06
3.05563e-06
3.41369e-06
3.17821e-06
3.46524e-06
3.14839e-06
5.55913e-06
6.18138e-06
6.23809e-06
5.93699e-06
5.75433e-06
6.01873e-06
5.73265e-06
1.04686e-05
1.00455e-05
8.5998e-06
8.38532e-06
8.97858e-06
9.75436e-06
8.73922e-06
9.36349e-06
9.23554e-06
9.53263e-06
8.91347e-06
7.4206e-06
6.93974e-06
7.69651e-06
7.18839e-06
7.98244e-06
9.18741e-06
8.28163e-06
8.59546e-06
7.06999e-06
7.85353e-06
7.36612e-06
6.65175e-06
6.69418e-06
7.41439e-06
6.45174e-06
7.13617e-06
8.17972e-06
7.97204e-06
7.66682e-06
4.08717e-06
4.47811e-06
4.56536e-06
4.38404e-06
4.37048e-06
4.26179e-06
4.20381e-06
3.09844e-06
2.93034e-06
3.15575e-06
2.89123e-06
2.99899e-06
2.75851e-06
2.93905e-06
2.80198e-06
4.6194e-06
5.0903e-06
4.76359e-06
4.56748e-06
4.96506e-06
4.43924e-06
4.75411e-06
1.40383e-07
2.05565e-07
4.20355e-07
3.79338e-07
3.29725e-07
1.79327e-07
2.95946e-07
2.4938e-07
7.92654e-08
7.42616e-08
8.4496e-08
1.71607e-07
2.3572e-07
2.23742e-07
1.58506e-07
1.51311e-07
1.17855e-07
2.03277e-07
1.36538e-07
5.35777e-07
4.12942e-07
4.44784e-07
4.15763e-07
3.16078e-07
3.02097e-07
3.98454e-07
3.84562e-07
3.2819e-07
2.78327e-07
3.58969e-07
1.18024e-06
1.2318e-06
1.07665e-06
1.13223e-06
1.07974e-06
1.18269e-06
1.23521e-06
8.00802e-07
7.19609e-07
7.19909e-07
8.04165e-07
8.7476e-07
9.54923e-07
9.54363e-07
8.72362e-07
8.87289e-07
9.17996e-07
9.74333e-07
1.03209e-06
9.82116e-07
8.75549e-07
9.34471e-07
8.69197e-07
7.27516e-07
5.21589e-07
6.78181e-07
6.33264e-07
8.8771e-07
7.94696e-07
7.55332e-07
1.4781e-06
1.34098e-06
1.33766e-06
1.21156e-06
1.06371e-06
1.08246e-06
1.17503e-06
1.20237e-06
1.19892e-06
1.0769e-06
1.20393e-06
6.32181e-07
7.06746e-07
7.34286e-07
8.83746e-07
9.57001e-07
9.68093e-07
8.54619e-07
8.58982e-07
8.18637e-07
9.56419e-07
8.4226e-07
1.92149e-07
1.96479e-07
2.58254e-07
3.00728e-07
1.76569e-07
2.76893e-07
2.11998e-07
5.63746e-07
6.52015e-07
6.47076e-07
5.64368e-07
4.90173e-07
4.06949e-07
4.0588e-07
4.9593e-07
4.46162e-07
4.53676e-07
3.41534e-07
3.89127e-07
4.25356e-07
3.61838e-07
4.77071e-07
3.56546e-06
3.55373e-06
3.46502e-06
3.48067e-06
3.63924e-06
3.64682e-06
3.72494e-06
3.72151e-06
4.73708e-06
4.68449e-06
4.50833e-06
4.56077e-06
4.86488e-06
4.91813e-06
5.10422e-06
5.05002e-06
1.56964e-05
1.71548e-05
1.60931e-05
1.48541e-05
1.5585e-05
1.44812e-05
1.19632e-05
1.12186e-05
1.26612e-05
1.15038e-05
1.2995e-05
1.51819e-05
1.37429e-05
1.41108e-05
1.79983e-05
1.74914e-05
1.53194e-05
1.46297e-05
1.57801e-05
1.67133e-05
1.50557e-05
1.62448e-05
1.10635e-05
1.09352e-05
1.23298e-05
1.06535e-05
1.20008e-05
1.22986e-05
1.35988e-05
1.26555e-05
1.33777e-05
1.39899e-05
1.30151e-05
4.32069e-06
3.84705e-06
3.8483e-06
4.35247e-06
4.20975e-06
3.73954e-06
4.17436e-06
3.74379e-06
7.17927e-06
8.08947e-06
8.08261e-06
7.66401e-06
7.39039e-06
7.84407e-06
7.43976e-06
7.81755e-06
8.84974e-06
8.32318e-06
7.89044e-06
7.60317e-06
8.56576e-06
8.119e-06
9.58344e-06
1.09756e-05
1.03126e-05
9.77328e-06
1.05684e-05
9.35832e-06
1.00166e-05
4.49272e-06
3.95372e-06
3.94689e-06
4.46449e-06
4.60622e-06
4.04341e-06
4.63066e-06
4.05596e-06
8.91152e-06
1.0163e-05
1.00582e-05
9.53156e-06
9.80536e-06
9.13431e-06
9.29154e-06
1.4543e-05
1.50226e-05
1.48629e-05
1.3374e-05
1.44107e-05
1.35195e-05
1.29631e-05
1.39628e-05
9.56155e-06
1.05945e-05
9.89139e-06
8.76656e-06
8.738e-06
9.77224e-06
8.47329e-06
9.46559e-06
1.09569e-05
1.05621e-05
1.02249e-05
1.1945e-05
1.2445e-05
1.15944e-05
9.60896e-06
9.00513e-06
1.0082e-05
9.27466e-06
1.03948e-05
1.20674e-05
1.09029e-05
1.12469e-05
1.53023e-05
1.58898e-05
1.49111e-05
1.2666e-05
1.32223e-05
1.23767e-05
1.35807e-05
1.27135e-05
1.5474e-05
1.41375e-05
1.45228e-05
1.78699e-05
1.7369e-05
1.52168e-05
1.469e-05
1.5672e-05
1.65938e-05
1.51184e-05
1.61311e-05
1.16784e-05
1.28668e-05
1.2043e-05
1.25144e-05
1.17125e-05
1.26281e-05
1.38436e-05
1.30005e-05
1.37552e-05
1.42461e-05
1.33762e-05
5.75852e-06
5.22208e-06
5.14115e-06
5.86867e-06
5.59401e-06
4.92107e-06
5.48696e-06
5.00023e-06
8.01944e-06
8.42198e-06
8.01326e-06
8.90879e-06
7.77181e-06
8.27358e-06
8.62959e-06
8.79207e-06
9.23658e-06
8.25759e-06
9.19165e-06
8.50474e-06
8.53116e-06
9.47811e-06
1.09916e-05
1.15372e-05
1.03082e-05
1.15771e-05
1.05755e-05
1.18893e-05
1.07064e-05
6.15174e-06
5.36765e-06
5.45056e-06
6.0384e-06
6.32635e-06
5.68582e-06
6.44306e-06
5.60073e-06
1.01445e-05
1.06541e-05
1.00432e-05
1.12677e-05
9.78049e-06
1.09614e-05
1.0424e-05
1.44536e-05
1.49281e-05
1.47656e-05
1.34275e-05
1.43186e-05
1.34374e-05
1.30146e-05
1.38758e-05
9.78491e-06
1.07617e-05
1.01262e-05
9.18331e-06
1.01416e-05
9.49484e-06
9.81721e-06
9.19281e-06
1.11324e-05
1.08214e-05
1.04717e-05
1.22594e-05
1.26579e-05
1.18942e-05
1.00936e-05
1.04698e-05
9.80071e-06
1.08018e-05
1.01104e-05
1.22704e-05
1.11751e-05
1.15327e-05
2.85979e-06
2.89924e-06
3.00487e-06
2.96939e-06
2.79013e-06
2.747e-06
2.63073e-06
2.6774e-06
3.52267e-06
3.57963e-06
3.73642e-06
3.68068e-06
3.42464e-06
3.36574e-06
3.20956e-06
3.27066e-06
1.80001e-06
1.73063e-06
1.59133e-06
1.66313e-06
1.86773e-06
1.93416e-06
2.0656e-06
2.00227e-06
2.17848e-06
2.09793e-06
1.93139e-06
2.01538e-06
2.26167e-06
2.33927e-06
2.49787e-06
2.42314e-06
7.61859e-06
7.998e-06
8.19726e-06
7.39154e-06
7.83422e-06
7.12757e-06
7.06031e-06
7.47765e-06
4.9856e-06
5.51626e-06
5.24497e-06
4.94429e-06
5.475e-06
5.17949e-06
5.22457e-06
4.94971e-06
5.80169e-06
5.78125e-06
5.51023e-06
6.92124e-06
7.00405e-06
6.62806e-06
5.6517e-06
5.73074e-06
5.41429e-06
5.99167e-06
5.6541e-06
6.69459e-06
6.058e-06
6.3403e-06
6.80184e-06
7.13058e-06
6.38697e-06
7.035e-06
6.60985e-06
6.56933e-06
7.29082e-06
4.11294e-06
3.71947e-06
3.79306e-06
4.02082e-06
4.24681e-06
3.98136e-06
4.34102e-06
3.90735e-06
6.11581e-06
6.39872e-06
6.16741e-06
6.78333e-06
5.95118e-06
6.34065e-06
6.53584e-06
1.04178e-05
9.99822e-06
8.56657e-06
8.42104e-06
8.94207e-06
9.71074e-06
8.77568e-06
9.32347e-06
9.44796e-06
9.67678e-06
9.11547e-06
7.74118e-06
7.9567e-06
7.4664e-06
8.25612e-06
7.74351e-06
9.32464e-06
8.46425e-06
8.78754e-06
7.21971e-06
7.9665e-06
7.52336e-06
6.92457e-06
7.66178e-06
7.19365e-06
7.37145e-06
6.92538e-06
8.29824e-06
8.14571e-06
7.83206e-06
4.46074e-06
4.62067e-06
4.53625e-06
4.92584e-06
4.34881e-06
4.714e-06
4.6533e-06
3.80078e-06
3.60893e-06
3.53505e-06
3.8914e-06
3.67626e-06
3.35411e-06
3.58695e-06
3.42836e-06
5.05091e-06
5.25654e-06
4.72744e-06
5.14233e-06
4.92239e-06
5.36346e-06
4.85003e-06
4.6302e-06
4.62519e-06
4.3862e-06
3.72172e-06
3.43517e-06
3.70773e-06
3.62437e-06
3.92067e-06
4.36752e-06
3.91576e-06
4.14803e-06
4.55856e-06
4.25666e-06
3.484e-06
3.56699e-06
3.74629e-06
4.29551e-06
3.81653e-06
4.01682e-06
3.15193e-06
3.25052e-06
3.50023e-06
3.07045e-06
3.29823e-06
3.04803e-06
3.40296e-06
3.25557e-06
3.68953e-06
3.63398e-06
3.46944e-06
1.8159e-06
1.83987e-06
1.77076e-06
1.88968e-06
1.73161e-06
1.6231e-06
1.65652e-06
1.69501e-06
1.73242e-06
1.83211e-06
1.90483e-06
1.92104e-06
1.85342e-06
1.77379e-06
1.79809e-06
2.10617e-06
2.24373e-06
2.04022e-06
2.04761e-06
1.97802e-06
2.17994e-06
2.17789e-06
3.25922e-06
3.5349e-06
3.27667e-06
3.19345e-06
3.44958e-06
3.10315e-06
3.35313e-06
2.04805e-06
1.91708e-06
1.98311e-06
1.97564e-06
2.13636e-06
2.12484e-06
2.20698e-06
2.06214e-06
2.80087e-06
3.01823e-06
3.10764e-06
3.03738e-06
2.94261e-06
2.95031e-06
2.88489e-06
2.63549e-06
2.88234e-06
3.23026e-06
2.86453e-06
2.98494e-06
2.52044e-06
2.64606e-06
2.74833e-06
1.6254e-06
1.81317e-06
1.77956e-06
1.85438e-06
1.94485e-06
2.0448e-06
1.80403e-06
1.88943e-06
1.98596e-06
2.1084e-06
1.94057e-06
2.84694e-06
2.75206e-06
2.65234e-06
2.30212e-06
2.09077e-06
2.20617e-06
2.24178e-06
2.37356e-06
2.54945e-06
2.283e-06
2.46436e-06
4.73222e-06
4.69831e-06
4.48492e-06
3.86516e-06
3.83772e-06
3.67964e-06
4.05468e-06
3.87812e-06
4.43876e-06
4.00892e-06
4.2438e-06
4.54636e-06
4.2458e-06
3.48812e-06
3.60235e-06
3.74883e-06
4.29465e-06
3.85137e-06
4.01774e-06
3.28037e-06
3.62659e-06
3.48655e-06
3.42132e-06
3.29877e-06
3.13364e-06
3.46894e-06
3.34268e-06
3.78036e-06
3.70096e-06
3.55828e-06
2.20717e-06
2.21663e-06
2.13192e-06
2.29568e-06
2.10964e-06
1.95769e-06
2.02017e-06
2.0447e-06
1.94473e-06
1.9113e-06
2.00385e-06
2.1065e-06
1.87845e-06
2.072e-06
1.97026e-06
2.3378e-06
2.32971e-06
2.13287e-06
2.2472e-06
2.26579e-06
2.20296e-06
2.39253e-06
3.5607e-06
3.6481e-06
3.30483e-06
3.54179e-06
3.46906e-06
3.72524e-06
3.39327e-06
2.48367e-06
2.30541e-06
2.38803e-06
2.39595e-06
2.58607e-06
2.55905e-06
2.67353e-06
2.4783e-06
3.07115e-06
3.11898e-06
3.14462e-06
3.36325e-06
2.9883e-06
3.1895e-06
3.23013e-06
2.63048e-06
2.87659e-06
3.23575e-06
2.90163e-06
2.99189e-06
2.52999e-06
2.68389e-06
2.7566e-06
1.70482e-06
1.87671e-06
1.85959e-06
1.9585e-06
2.1533e-06
2.13536e-06
1.9965e-06
1.99033e-06
2.04949e-06
2.18949e-06
2.02114e-06
2.93128e-06
2.81611e-06
2.73565e-06
2.41357e-06
2.31623e-06
2.28553e-06
2.48521e-06
2.44097e-06
2.61324e-06
2.36477e-06
2.54684e-06
7.14048e-07
7.98148e-07
9.46682e-07
8.64571e-07
6.47391e-07
5.60616e-07
4.0552e-07
4.93188e-07
8.87968e-07
9.85683e-07
1.16221e-06
1.06572e-06
8.07973e-07
7.07343e-07
5.2337e-07
6.26939e-07
1.46332e-07
2.10551e-07
4.41189e-07
4.19414e-07
3.50701e-07
1.99574e-07
3.34156e-07
2.70313e-07
1.10657e-07
1.10482e-07
1.24495e-07
2.1245e-07
2.76826e-07
3.15374e-07
1.99741e-07
2.2948e-07
1.5448e-07
2.47033e-07
1.76474e-07
5.97913e-07
4.63869e-07
5.02746e-07
4.72418e-07
3.60823e-07
4.05625e-07
4.49288e-07
4.98421e-07
3.75673e-07
3.26862e-07
4.12404e-07
1.35867e-06
1.29938e-06
1.19651e-06
1.23813e-06
1.30249e-06
1.25025e-06
1.35087e-06
1.00564e-06
8.91785e-07
9.90126e-07
9.10172e-07
1.09396e-06
1.16826e-06
1.18872e-06
1.07124e-06
1.04095e-06
9.76864e-07
1.09335e-06
1.12869e-06
9.92423e-07
1.14451e-06
1.02206e-06
8.69298e-07
7.28223e-07
5.41962e-07
7.21504e-07
6.53158e-07
9.06157e-07
8.38351e-07
7.74526e-07
1.55682e-06
1.40423e-06
1.41549e-06
1.30313e-06
1.17821e-06
1.22165e-06
1.30065e-06
1.33851e-06
1.26186e-06
1.15229e-06
1.28072e-06
6.9795e-07
7.65392e-07
8.03198e-07
9.65008e-07
1.06083e-06
1.10867e-06
9.48316e-07
9.99242e-07
8.78878e-07
1.03001e-06
9.13753e-07
2.63079e-07
2.25048e-07
3.31524e-07
3.36946e-07
2.39055e-07
2.46115e-07
3.58362e-07
7.2356e-07
8.10809e-07
7.09313e-07
8.21597e-07
6.35298e-07
5.23463e-07
5.34456e-07
6.28092e-07
5.49387e-07
4.93708e-07
4.23843e-07
4.3033e-07
5.15923e-07
5.24797e-07
4.54032e-07
1.46916e-07
9.11538e-08
1.58819e-07
1.14555e-07
1.55988e-07
1.5285e-07
9.73328e-08
1.71654e-07
1.32979e-07
1.68931e-07
1.13863e-07
6.116e-08
1.36063e-07
5.63441e-08
1.23044e-07
1.2973e-07
4.88723e-08
1.73074e-07
8.43463e-08
1.56691e-07
9.25411e-08
1.77686e-07
1.52532e-07
1.01349e-07
6.27253e-06
6.89414e-06
7.82098e-06
7.11971e-06
6.99426e-06
6.18757e-06
7.25254e-06
4.30365e-06
4.71275e-06
4.89015e-06
5e-06
4.39753e-06
4.6137e-06
4.76362e-06
4.1897e-06
4.51143e-06
4.86224e-06
4.37592e-06
4.47466e-06
4.6365e-06
4.09563e-06
2.97159e-06
3.03182e-06
3.31438e-06
3.07179e-06
3.12773e-06
2.87782e-06
3.18534e-06
3.07592e-06
3.41726e-06
3.43505e-06
3.34194e-06
3.2455e-06
3.30131e-06
3.17024e-06
1.23155e-06
1.38824e-06
1.33937e-06
1.31385e-06
1.31672e-06
1.2975e-06
1.25049e-06
1.14891e-06
1.0761e-06
1.22327e-06
1.12325e-06
1.21364e-06
1.16245e-06
1.06504e-06
1.41025e-07
7.50492e-08
1.43368e-07
6.77272e-08
1.5106e-07
8.28435e-08
1.34036e-07
2.30895e-07
3.18197e-07
2.44986e-07
3.53932e-07
2.44993e-07
2.28247e-07
3.26402e-07
8.35773e-06
7.51463e-06
8.59034e-06
9.02585e-06
7.66333e-06
8.17035e-06
9.23729e-06
4.60567e-06
4.85504e-06
5.01854e-06
5.42115e-06
4.51251e-06
4.95437e-06
5.1462e-06
4.72204e-06
5.40465e-06
5.19937e-06
5.56378e-06
5.09979e-06
4.8146e-06
5.27584e-06
5.97933e-06
6.73045e-06
6.98587e-06
7.35446e-06
6.06574e-06
6.6303e-06
6.85326e-06
5.85806e-06
6.58758e-06
7.20033e-06
6.36869e-06
6.46885e-06
6.71975e-06
5.7706e-06
5.61987e-06
5.15173e-06
5.7893e-06
5.92528e-06
5.28198e-06
5.46794e-06
6.09866e-06
5.77408e-06
6.45621e-06
5.5594e-06
5.9507e-06
5.42651e-06
5.93058e-06
6.27769e-06
7.80213e-06
7.34667e-06
8.81235e-06
8.03238e-06
7.98536e-06
7.1999e-06
8.60514e-06
7.62123e-06
8.19318e-06
7.84972e-06
6.8903e-06
7.03496e-06
8.39602e-06
7.44208e-06
5.17103e-06
5.01091e-06
5.31644e-06
5.75162e-06
4.88315e-06
5.3182e-06
5.58355e-06
5.02599e-06
5.25249e-06
5.16305e-06
4.62089e-06
4.74596e-06
5.41535e-06
4.8832e-06
3.45711e-06
3.17872e-06
3.48254e-06
3.49011e-06
3.28868e-06
3.3392e-06
3.62193e-06
3.57616e-06
3.89459e-06
3.61096e-06
3.51622e-06
3.4038e-06
3.7579e-06
3.69769e-06
1.48718e-06
1.47474e-06
1.42999e-06
1.59414e-06
1.40098e-06
1.56589e-06
1.52143e-06
1.57399e-06
1.70941e-06
1.7471e-06
1.6899e-06
1.65539e-06
1.66142e-06
1.61506e-06
2.68234e-06
2.91779e-06
2.95835e-06
2.96081e-06
2.77577e-06
2.82253e-06
2.84716e-06
2.58215e-06
2.62772e-06
2.84645e-06
2.61745e-06
2.71218e-06
2.73622e-06
2.48969e-06
1.75401e-06
1.56069e-06
1.68546e-06
1.65773e-06
1.65706e-06
1.6552e-06
1.75881e-06
1.85011e-06
1.96583e-06
1.8458e-06
1.78502e-06
1.74819e-06
1.95034e-06
1.86202e-06
3.10929e-06
3.0672e-06
3.3591e-06
3.10903e-06
3.22364e-06
2.95933e-06
3.23209e-06
2.99751e-06
2.98336e-06
2.98878e-06
2.74544e-06
2.85115e-06
3.10594e-06
2.88599e-06
1.46277e-06
1.47189e-06
1.39398e-06
1.5571e-06
1.37625e-06
1.56031e-06
1.45844e-06
1.36972e-06
1.26343e-06
1.29942e-06
1.19442e-06
1.28921e-06
1.36018e-06
1.27276e-06
3.06292e-07
4.02879e-07
2.71777e-07
3.83752e-07
2.71459e-07