/*--------------------------------*- C++ -*----------------------------------*\
| =========                 |                                                 |
| \\      /  F ield         | OpenFOAM: The Open Source CFD Toolbox           |
|  \\    /   O peration     | Version:  2012                                  |
|   \\  /    A nd           | Website:  www.openfoam.com                      |
|    \\/     M anipulation  |                                                 |
\*---------------------------------------------------------------------------*/
FoamFile
{
    version     2.0;
    format      ascii;
    class       volSymmTensorField;
    location    "0.105/solid";
    object      epsilon;
}
// * * * * * * * * * * * * * * * * * * * * * * * * * * * * * * * * * * * * * //

dimensions      [0 0 0 0 0 0 0];


internalField   nonuniform List<symmTensor> 
3125
(
(-1.37372e-06 5.99673e-08 -3.35622e-06 -1.07685e-06 -2.9957e-07 4.07291e-06)
(-8.05743e-07 3.73939e-08 -2.75433e-06 -7.10447e-07 -2.18544e-07 2.51688e-06)
(-4.19446e-07 2.19483e-08 -2.12025e-06 -4.22132e-07 -1.50368e-07 1.40313e-06)
(-6.68442e-08 6.61316e-09 -1.08101e-06 -1.23927e-07 -6.61361e-08 3.32122e-07)
(9.11005e-08 3.15011e-08 -5.2263e-08 -3.91146e-08 -3.4048e-09 -1.98094e-08)
(-1.72425e-06 -1.03405e-07 -3.35747e-06 -2.01864e-06 1.19395e-07 6.08308e-06)
(-8.65923e-07 3.98519e-08 -2.83249e-06 -7.52401e-07 -2.281e-07 2.68606e-06)
(-1.30815e-06 5.75218e-08 -3.30027e-06 -1.03797e-06 -2.91224e-07 3.89823e-06)
(-1.03367e-06 -5.84998e-08 -2.97246e-06 -1.17653e-06 1.34053e-07 3.5993e-06)
(-1.63138e-06 -9.73316e-08 -3.32387e-06 -1.90335e-06 1.22135e-07 5.74629e-06)
(-9.56785e-07 -5.33684e-08 -2.90487e-06 -1.08539e-06 1.34483e-07 3.32654e-06)
(-4.91567e-07 -2.21691e-08 -2.30388e-06 -5.48097e-07 1.25529e-07 1.69401e-06)
(-9.54767e-08 8.1742e-09 -1.2077e-06 -1.49363e-07 -7.49476e-08 4.20824e-07)
(-3.70779e-07 2.00558e-08 -2.01712e-06 -3.83231e-07 -1.40615e-07 1.25883e-06)
(-1.43058e-07 2.87851e-09 -1.34359e-06 -1.61392e-07 8.40308e-08 4.86555e-07)
(-4.36417e-07 -1.82752e-08 -2.19942e-06 -4.86258e-07 1.22306e-07 1.50298e-06)
(1.18183e-07 3.02771e-08 -5.25996e-08 -4.48947e-08 -2.75288e-09 -2.93921e-08)
(1.00622e-07 2.71342e-08 -5.6705e-08 -4.3503e-08 -4.82045e-11 -2.27825e-08)
(-1.14193e-07 5.01015e-09 -1.2054e-06 -1.3047e-07 7.62958e-08 3.88252e-07)
(7.19053e-08 2.82152e-08 -5.62048e-08 -3.65978e-08 3.39132e-10 -1.28201e-08)
(-4.57968e-06 9.99747e-08 -2.55546e-06 -4.21798e-06 -2.43981e-07 1.44e-05)
(-4.05548e-06 7.87045e-08 -2.76702e-06 -3.85842e-06 -2.09324e-07 1.30836e-05)
(-1.40842e-06 2.31126e-08 -1.61975e-06 -1.33742e-06 -1.19043e-07 4.48748e-06)
(-1.98135e-06 3.4274e-08 -1.87806e-06 -1.87632e-06 -1.46894e-07 6.32105e-06)
(-2.42996e-06 3.7352e-08 -2.32487e-06 -2.34196e-06 -1.45603e-07 7.8777e-06)
(-6.31846e-07 3.0442e-08 -2.50128e-06 -5.8486e-07 -1.89501e-07 2.02154e-06)
(-1.84682e-06 2.59095e-08 -2.08582e-06 -1.78635e-06 -1.19415e-07 5.98715e-06)
(-2.72962e-06 5.09815e-08 -2.13546e-06 -2.56607e-06 -1.78833e-07 8.68318e-06)
(-2.06972e-06 3.61475e-08 -1.91242e-06 -1.95857e-06 -1.50915e-07 6.60183e-06)
(-1.26036e-06 1.67471e-08 -1.76975e-06 -1.21962e-06 -9.06715e-08 4.06992e-06)
(-5.76489e-07 2.8291e-08 -2.41088e-06 -5.43435e-07 -1.79697e-07 1.86164e-06)
(-1.76857e-06 2.45384e-08 -2.04884e-06 -1.71123e-06 -1.15724e-07 5.73234e-06)
(-7.86179e-08 1.12124e-08 -2.96595e-08 7.78469e-09 -4.96669e-09 2.73927e-08)
(-1.29189e-07 4.74827e-09 -4.3927e-07 -1.0879e-07 -2.88301e-08 3.38135e-07)
(-3.6239e-07 8.39078e-09 -9.48881e-07 -3.33097e-07 -3.86367e-08 1.09686e-06)
(5.08085e-09 2.59676e-09 -6.86795e-07 -6.56887e-08 -4.12968e-08 1.22302e-07)
(-1.42051e-07 6.72877e-09 -5.48902e-07 -1.25063e-07 -2.2731e-08 3.91924e-07)
(-4.00482e-07 7.89938e-09 -8.65744e-07 -3.61838e-07 -5.54341e-08 1.19827e-06)
(-1.55696e-07 5.09145e-09 -4.96219e-07 -1.32343e-07 -3.21205e-08 4.18902e-07)
(-7.12342e-08 1.51679e-08 -3.19968e-08 4.98203e-09 -4.9588e-09 2.69357e-08)
(2.63306e-08 1.50526e-09 -5.49393e-07 -5.2833e-08 -3.37453e-08 7.17559e-08)
(-1.17899e-07 6.43034e-09 -4.87806e-07 -1.03638e-07 -2.07111e-08 3.18198e-07)
(-4.36898e-06 -2.63951e-08 -2.5599e-06 -4.78223e-06 1.33395e-07 1.54524e-05)
(-4.01685e-06 1.83507e-08 -2.76415e-06 -4.30099e-06 6.63352e-08 1.38777e-05)
(-4.46297e-06 9.66709e-08 -2.53523e-06 -4.11569e-06 -2.40341e-07 1.40437e-05)
(-3.67116e-06 7.485e-08 -2.3785e-06 -3.41526e-06 -2.14154e-07 1.16122e-05)
(-1.05135e-06 4.72371e-08 -3.04973e-06 -8.77049e-07 -2.56023e-07 3.20148e-06)
(-2.51795e-06 3.9267e-08 -2.3562e-06 -2.42522e-06 -1.49375e-07 8.16183e-06)
(-3.1628e-06 5.45915e-08 -2.5565e-06 -3.03109e-06 -1.7595e-07 1.02356e-05)
(-3.95325e-06 7.58432e-08 -2.74612e-06 -3.76431e-06 -2.05715e-07 1.27588e-05)
(-1.11469e-06 4.98397e-08 -3.11638e-06 -9.17991e-07 -2.65085e-07 3.37506e-06)
(-3.25873e-06 5.7064e-08 -2.58244e-06 -3.1206e-06 -1.79735e-07 1.05428e-05)
(-2.82939e-06 5.33853e-08 -2.16485e-06 -2.65697e-06 -1.8281e-07 8.99572e-06)
(-3.56195e-06 7.19496e-08 -2.35384e-06 -3.31777e-06 -2.10259e-07 1.12748e-05)
(-4.26076e-06 -2.62364e-08 -2.54592e-06 -4.65654e-06 1.34491e-07 1.50523e-05)
(-3.52395e-06 -2.42857e-08 -2.42703e-06 -3.80648e-06 1.40368e-07 1.23405e-05)
(-1.27773e-06 -7.4468e-08 -3.14861e-06 -1.46969e-06 1.30721e-07 4.47095e-06)
(-2.50132e-06 4.80778e-09 -2.41221e-06 -2.62337e-06 8.82358e-08 8.51726e-06)
(-3.13701e-06 9.20983e-09 -2.59128e-06 -3.32301e-06 8.05705e-08 1.07585e-05)
(-3.91612e-06 1.7191e-08 -2.74805e-06 -4.18857e-06 6.80957e-08 1.35198e-05)
(-1.36328e-06 -7.99808e-08 -3.1987e-06 -1.57373e-06 1.28958e-07 4.77833e-06)
(-3.23157e-06 1.00582e-08 -2.61359e-06 -3.42763e-06 7.91979e-08 1.10929e-05)
(-2.73506e-06 -2.02223e-08 -2.2453e-06 -2.90935e-06 1.42533e-07 9.46594e-06)
(-3.42198e-06 -2.38998e-08 -2.40705e-06 -3.68968e-06 1.40934e-07 1.19671e-05)
(-1.38921e-06 -6.34611e-09 -1.72493e-06 -1.41519e-06 1.27694e-07 4.64196e-06)
(-1.9341e-06 -1.31853e-08 -1.97893e-06 -2.01425e-06 1.37618e-07 6.58212e-06)
(-2.4146e-06 4.40684e-09 -2.38333e-06 -2.52842e-06 8.89941e-08 8.2124e-06)
(-7.4121e-07 -3.90941e-08 -2.675e-06 -8.33153e-07 1.33374e-07 2.56569e-06)
(-1.84024e-06 2.95717e-09 -2.15697e-06 -1.90287e-06 9.19783e-08 6.19883e-06)
(-2.64115e-06 -1.95414e-08 -2.21903e-06 -2.80356e-06 1.42388e-07 9.12595e-06)
(-2.01791e-06 -1.40536e-08 -2.01182e-06 -2.10708e-06 1.38568e-07 6.88203e-06)
(-1.26326e-06 4.03677e-09 -1.84604e-06 -1.28036e-06 8.94456e-08 4.18602e-06)
(-6.74471e-07 -3.45491e-08 -2.58916e-06 -7.56279e-07 1.32148e-07 2.33201e-06)
(-1.76319e-06 2.94219e-09 -2.12119e-06 -1.81942e-06 9.20202e-08 5.92951e-06)
(-1.3335e-06 2.17842e-08 -1.58031e-06 -1.26614e-06 -1.15086e-07 4.24585e-06)
(-8.61931e-07 1.40295e-08 -1.28693e-06 -8.12441e-07 -8.80474e-08 2.71307e-06)
(-1.97768e-07 1.28612e-08 -1.57252e-06 -2.39379e-07 -1.02397e-07 7.37639e-07)
(-4.00859e-07 8.63589e-09 -1.00263e-06 -3.71019e-07 -4.12018e-08 1.22385e-06)
(-7.21062e-07 1.08509e-08 -1.35978e-06 -6.89341e-07 -6.1095e-08 2.28821e-06)
(-1.19377e-06 1.58728e-08 -1.72702e-06 -1.15469e-06 -8.72384e-08 3.85106e-06)
(-2.3744e-07 1.46085e-08 -1.68825e-06 -2.73222e-07 -1.11823e-07 8.58501e-07)
(-7.74073e-07 1.13005e-08 -1.40808e-06 -7.41911e-07 -6.41922e-08 2.46426e-06)
(-4.43523e-07 8.42684e-09 -9.1508e-07 -4.03666e-07 -5.89149e-08 1.33907e-06)
(-8.02444e-07 1.31624e-08 -1.24259e-06 -7.54557e-07 -8.42304e-08 2.51824e-06)
(-1.31774e-06 -5.27822e-09 -1.68536e-06 -1.33721e-06 1.2579e-07 4.38874e-06)
(-8.66523e-07 2.22857e-09 -1.38499e-06 -8.48197e-07 1.09076e-07 2.79753e-06)
(-2.48597e-07 -4.89854e-09 -1.73601e-06 -2.77381e-07 1.03862e-07 8.52101e-07)
(-4.21105e-07 1.16323e-08 -1.06006e-06 -3.81911e-07 6.14729e-08 1.26375e-06)
(-7.34004e-07 7.91393e-09 -1.43015e-06 -7.13852e-07 7.78421e-08 2.34627e-06)
(-1.19784e-06 4.35333e-09 -1.8033e-06 -1.21012e-06 8.86001e-08 3.95832e-06)
(-2.90454e-07 -7.87832e-09 -1.85864e-06 -3.23794e-07 1.09318e-07 9.97501e-07)
(-7.85922e-07 7.40043e-09 -1.47968e-06 -7.69282e-07 7.96284e-08 2.52657e-06)
(-4.65513e-07 1.04428e-08 -9.93625e-07 -4.19009e-07 8.18557e-08 1.39543e-06)
(-8.09553e-07 3.34432e-09 -1.33891e-06 -7.86774e-07 1.06182e-07 2.59726e-06)
(-1.16268e-07 2.75181e-08 -3.54237e-08 1.59845e-08 2.13247e-09 4.17058e-08)
(-1.64587e-07 1.50318e-08 -4.84105e-07 -1.12475e-07 3.90185e-08 3.81774e-07)
(-3.83624e-07 1.2092e-08 -1.00394e-06 -3.42727e-07 5.8532e-08 1.1354e-06)
(-4.26551e-08 8.55195e-09 -7.74473e-07 -6.12463e-08 4.92589e-08 1.60444e-07)
(-1.68789e-07 1.3344e-08 -5.84733e-07 -1.27713e-07 3.34669e-08 4.23046e-07)
(-4.24333e-07 1.13501e-08 -9.41034e-07 -3.7563e-07 7.77807e-08 1.25301e-06)
(-1.9011e-07 1.49551e-08 -5.45046e-07 -1.37396e-07 4.44169e-08 4.64641e-07)
(-1.01815e-07 3.01792e-08 -3.83745e-08 1.39869e-08 1.65291e-09 3.71243e-08)
(-2.12604e-08 9.47039e-09 -6.24612e-07 -4.53349e-08 3.91757e-08 1.04819e-07)
(-1.45082e-07 1.32764e-08 -5.20784e-07 -1.05195e-07 2.92048e-08 3.47745e-07)
(-6.49849e-06 -3.33285e-08 -1.53879e-06 -6.09154e-06 -1.52364e-07 2.00882e-05)
(-2.38935e-06 2.94214e-08 -3.25153e-06 -2.21283e-06 -2.35851e-07 7.71278e-06)
(-1.94025e-06 -3.51955e-09 -9.86423e-07 -1.84154e-06 -7.3157e-08 6.12677e-06)
(-2.27257e-06 -5.63779e-09 -1.05494e-06 -2.15979e-06 -8.05226e-08 7.18124e-06)
(-1.43654e-06 1.34864e-08 -2.73105e-06 -1.36219e-06 -1.58078e-07 4.68109e-06)
(-7.46688e-07 3.50636e-08 -2.67297e-06 -6.68522e-07 -2.08947e-07 2.34954e-06)
(-1.28345e-06 1.17202e-08 -2.61463e-06 -1.22361e-06 -1.44645e-07 4.19329e-06)
(-3.81933e-06 -1.54353e-08 -1.29334e-06 -3.62074e-06 -1.10608e-07 1.20006e-05)
(-3.4022e-06 -1.27716e-08 -1.23905e-06 -3.22969e-06 -1.03081e-07 1.07138e-05)
(-7.36885e-07 7.68327e-09 -2.07722e-06 -7.21915e-07 -9.33863e-08 2.4319e-06)
(-4.70163e-07 2.40216e-08 -2.22038e-06 -4.61943e-07 -1.60111e-07 1.552e-06)
(-8.6323e-07 8.27722e-09 -2.2237e-06 -8.38599e-07 -1.05586e-07 2.83839e-06)
(-7.90531e-08 1.24069e-08 1.87486e-09 1.64384e-08 -2.97868e-09 2.49677e-08)
(-7.8618e-08 9.77213e-09 -9.18605e-08 -3.12142e-08 -8.56011e-09 1.06166e-07)
(-1.93661e-07 7.31668e-09 -1.11246e-06 -2.09769e-07 -3.6163e-08 6.54175e-07)
(-4.09243e-08 5.20755e-09 -9.51804e-07 -1.01354e-07 -5.75774e-08 2.52672e-07)
(-1.29586e-07 7.15501e-09 -9.19683e-07 -1.51097e-07 -2.88195e-08 4.5009e-07)
(-5.32186e-07 5.98242e-09 -5.29662e-07 -4.71106e-07 -3.39019e-08 1.56401e-06)
(-3.73211e-07 7.41167e-09 -4.34083e-07 -3.15827e-07 -2.76908e-08 1.04399e-06)
(1.33311e-08 2.51623e-08 -4.63059e-08 -2.06201e-08 -4.68112e-09 4.64984e-09)
(7.11464e-08 3.56942e-09 -2.42008e-07 -3.73541e-08 -1.87663e-08 -1.20611e-09)
(9.46364e-09 7.68763e-09 -2.9234e-07 -4.11891e-08 -1.29185e-08 5.00511e-08)
(-5.70616e-06 -1.71086e-08 -1.58924e-06 -6.04144e-06 9.47261e-08 2.06216e-05)
(-2.54546e-06 1.55447e-08 -3.24753e-06 -2.64119e-06 2.00017e-08 8.68558e-06)
(-6.32827e-06 -3.21285e-08 -1.5271e-06 -5.9363e-06 -1.50026e-07 1.95819e-05)
(-5.8259e-06 -2.85717e-08 -1.49007e-06 -5.47693e-06 -1.42813e-07 1.80824e-05)
(-9.26961e-07 4.22921e-08 -2.90785e-06 -7.94211e-07 -2.37513e-07 2.85675e-06)
(-1.48822e-06 1.41381e-08 -2.76706e-06 -1.40915e-06 -1.62765e-07 4.84899e-06)
(-1.64832e-06 1.63089e-08 -2.8738e-06 -1.55324e-06 -1.76327e-07 5.35783e-06)
(-2.33018e-06 2.82828e-08 -3.22786e-06 -2.16055e-06 -2.3102e-07 7.52354e-06)
(-1.24308e-06 5.49638e-08 -3.24159e-06 -9.98492e-07 -2.82704e-07 3.72359e-06)
(-2.15366e-06 2.48363e-08 -3.14838e-06 -2.0047e-06 -2.17854e-07 6.96741e-06)
(-3.96256e-06 -1.63477e-08 -1.31067e-06 -3.75453e-06 -1.13141e-07 1.24404e-05)
(-4.40411e-06 -1.92063e-08 -1.36044e-06 -4.16565e-06 -1.20679e-07 1.37904e-05)
(-5.5684e-06 -1.63632e-08 -1.58006e-06 -5.88833e-06 9.54292e-08 2.00928e-05)
(-5.15944e-06 -1.41477e-08 -1.54973e-06 -5.43506e-06 9.73368e-08 1.8529e-05)
(-1.11275e-06 -6.3656e-08 -3.03551e-06 -1.27097e-06 1.33289e-07 3.88111e-06)
(-1.56179e-06 6.94909e-09 -2.83569e-06 -1.6011e-06 5.77508e-08 5.2868e-06)
(-1.73383e-06 7.81089e-09 -2.93313e-06 -1.7817e-06 5.22737e-08 5.87751e-06)
(-2.47991e-06 1.47118e-08 -3.23105e-06 -2.57132e-06 2.32948e-08 8.45581e-06)
(-1.54022e-06 -9.14392e-08 -3.28629e-06 -1.79069e-06 1.24648e-07 5.41636e-06)
(-2.28539e-06 1.26786e-08 -3.16697e-06 -2.36459e-06 3.0754e-08 7.78475e-06)
(-3.60513e-06 -6.46757e-09 -1.38702e-06 -3.7326e-06 1.00107e-07 1.26773e-05)
(-3.97947e-06 -8.31215e-09 -1.43407e-06 -4.13945e-06 1.00178e-07 1.40721e-05)
(-1.83112e-06 2.49625e-09 -1.06111e-06 -1.83474e-06 8.89664e-08 6.20693e-06)
(-2.13028e-06 9.11845e-10 -1.13195e-06 -2.1511e-06 9.2561e-08 7.2808e-06)
(-1.50596e-06 6.59548e-09 -2.80318e-06 -1.54271e-06 5.97657e-08 5.09313e-06)
(-8.82368e-07 -4.84679e-08 -2.83286e-06 -9.97773e-07 1.3452e-07 3.06318e-06)
(-1.34302e-06 6.08585e-09 -2.69388e-06 -1.37251e-06 6.42768e-08 4.53476e-06)
(-3.48282e-06 -5.87282e-09 -1.37041e-06 -3.60014e-06 9.99667e-08 1.22237e-05)
(-3.12396e-06 -4.08457e-09 -1.31751e-06 -3.21275e-06 9.90666e-08 1.08987e-05)
(-7.70145e-07 6.26491e-09 -2.16978e-06 -7.79051e-07 7.37163e-08 2.5719e-06)
(-5.49536e-07 -2.60872e-08 -2.40354e-06 -6.13717e-07 1.28248e-07 1.89595e-06)
(-9.00483e-07 5.78322e-09 -2.31578e-06 -9.13577e-07 7.3062e-08 3.01692e-06)
(-1.83475e-06 -2.85607e-09 -9.62807e-07 -1.74012e-06 -7.0715e-08 5.7903e-06)
(-1.53444e-06 -9.5542e-10 -8.89498e-07 -1.45027e-06 -6.34954e-08 4.82795e-06)
(-1.26787e-07 9.70173e-09 -1.33211e-06 -1.77248e-07 -8.39402e-08 5.18283e-07)
(-2.1671e-07 7.3412e-09 -1.17482e-06 -2.31611e-07 -3.88055e-08 7.30737e-07)
(-2.93443e-07 7.27434e-09 -1.35955e-06 -3.04326e-07 -4.74434e-08 9.81054e-07)
(-6.97126e-07 7.53178e-09 -2.02757e-06 -6.84704e-07 -8.94241e-08 2.30061e-06)
(-3.24073e-07 1.8147e-08 -1.9106e-06 -3.45329e-07 -1.30946e-07 1.11964e-06)
(-5.81825e-07 7.23491e-09 -1.87097e-06 -5.77333e-07 -7.79127e-08 1.92795e-06)
(-5.91341e-07 5.52317e-09 -5.6011e-07 -5.29191e-07 -3.60405e-08 1.75819e-06)
(-7.87059e-07 3.92563e-09 -6.48333e-07 -7.214e-07 -4.25491e-08 2.40058e-06)
(-1.73541e-06 2.96983e-09 -1.03657e-06 -1.73381e-06 8.76368e-08 5.86491e-06)
(-1.46101e-06 4.48674e-09 -9.59858e-07 -1.44542e-06 8.30516e-08 4.8886e-06)
(-1.74742e-07 6.47184e-10 -1.47814e-06 -1.96134e-07 9.12371e-08 5.96536e-07)
(-2.43621e-07 1.04976e-08 -1.24337e-06 -2.37951e-07 5.62505e-08 7.68322e-07)
(-3.19478e-07 9.69133e-09 -1.43602e-06 -3.1547e-07 6.24969e-08 1.02722e-06)
(-7.28659e-07 6.35984e-09 -2.1202e-06 -7.36431e-07 7.3791e-08 2.42918e-06)
(-3.84507e-07 -1.4663e-08 -2.09047e-06 -4.28255e-07 1.18525e-07 1.3231e-06)
(-6.10953e-07 7.09451e-09 -1.96184e-06 -6.15234e-07 7.28718e-08 2.02722e-06)
(-5.78928e-07 9.89527e-09 -6.10251e-07 -5.2702e-07 5.71633e-08 1.79471e-06)
(-7.64396e-07 8.55212e-09 -7.04443e-07 -7.18932e-07 6.49657e-08 2.43922e-06)
(1.0048e-07 6.9615e-09 -2.39412e-07 -3.87862e-08 -1.08073e-08 -2.28774e-08)
(6.6153e-08 9.73005e-09 -2.78776e-07 -2.79636e-08 1.20577e-08 -8.22452e-09)
(-1.00592e-07 1.74145e-08 -3.37061e-09 9.40862e-09 -3.7133e-10 3.70851e-08)
(-1.00173e-07 1.23842e-08 -1.1015e-07 -3.03055e-08 8.8767e-09 1.30137e-07)
(-2.20451e-07 1.06392e-08 -1.17821e-06 -2.14702e-07 5.38849e-08 6.89549e-07)
(-8.82332e-08 6.60278e-09 -1.06442e-06 -1.03544e-07 6.7928e-08 3.01453e-07)
(-1.57408e-07 1.0918e-08 -9.76098e-07 -1.529e-07 4.5642e-08 4.80366e-07)
(-5.22722e-07 1.02557e-08 -5.77694e-07 -4.69044e-07 5.43559e-08 1.6001e-06)
(-3.71733e-07 1.13389e-08 -4.75314e-07 -3.14017e-07 4.50156e-08 1.07937e-06)
(-1.4618e-08 3.06219e-08 -5.23662e-08 -1.25872e-08 2.17278e-09 1.35627e-08)
(2.23548e-08 1.42948e-08 -2.90339e-07 -2.40502e-08 1.75531e-08 1.84072e-08)
(-1.96792e-08 1.14062e-08 -3.19606e-07 -3.40809e-08 1.13579e-08 6.52413e-08)
(-5.9796e-06 -3.88917e-09 -1.84661e-06 -5.6034e-06 -1.84828e-07 1.85943e-05)
(-2.8172e-06 2.01683e-08 -3.16716e-06 -2.62294e-06 -2.28298e-07 9.05583e-06)
(-2.75096e-06 -8.60712e-09 -1.14071e-06 -2.61502e-06 -9.05374e-08 8.68644e-06)
(-2.38847e-06 -6.37224e-09 -1.07695e-06 -2.2704e-06 -8.30706e-08 7.54718e-06)
(-1.8109e-06 5.14277e-09 -1.17539e-06 -1.70766e-06 -8.90497e-08 5.70523e-06)
(-1.64382e-06 2.75174e-08 -1.73423e-06 -1.56013e-06 -1.3093e-07 5.24384e-06)
(-2.11813e-06 4.6254e-09 -1.25786e-06 -2.0006e-06 -9.80407e-08 6.68094e-06)
(-2.55926e-06 3.87834e-09 -1.36136e-06 -2.4192e-06 -1.10157e-07 8.07304e-06)
(-1.72572e-06 2.91233e-08 -1.77114e-06 -1.63718e-06 -1.34934e-07 5.50597e-06)
(-2.22511e-06 4.44812e-09 -1.2844e-06 -2.10232e-06 -1.01065e-07 7.01948e-06)
(-1.6922e-06 9.40518e-09 -2.65977e-06 -1.60569e-06 -1.54071e-07 5.48218e-06)
(-2.17277e-06 3.20512e-08 -2.22666e-06 -2.09778e-06 -1.34306e-07 7.04559e-06)
(-1.51262e-06 8.30392e-09 -2.54693e-06 -1.44081e-06 -1.41236e-07 4.90802e-06)
(-6.88764e-07 3.28128e-08 -2.58879e-06 -6.26639e-07 -1.99222e-07 2.18431e-06)
(-1.0891e-06 9.87211e-09 -2.44899e-06 -1.04639e-06 -1.26927e-07 3.56905e-06)
(-1.23429e-06 1.12082e-08 -2.57529e-06 -1.17863e-06 -1.40097e-07 4.03296e-06)
(-2.0894e-06 3.04199e-08 -2.19252e-06 -2.01836e-06 -1.30538e-07 6.77534e-06)
(-1.28453e-06 7.26369e-09 -2.38558e-06 -1.23014e-06 -1.24306e-07 4.17554e-06)
(-1.45455e-06 8.04769e-09 -2.50808e-06 -1.38719e-06 -1.36877e-07 4.72076e-06)
(-2.87661e-06 -9.39261e-09 -1.16114e-06 -2.73406e-06 -9.30414e-08 9.07942e-06)
(-3.26745e-06 -1.19197e-08 -1.22019e-06 -3.10293e-06 -1.00542e-07 1.02961e-05)
(-3.54017e-06 2.01086e-09 -1.54629e-06 -3.34248e-06 -1.34504e-07 1.11353e-05)
(-2.4383e-06 4.42323e-08 -2.0436e-06 -2.29926e-06 -1.66901e-07 7.7675e-06)
(-3.15781e-06 2.75285e-09 -1.48035e-06 -2.98373e-06 -1.25366e-07 9.94671e-06)
(-2.67491e-06 3.68057e-09 -1.38605e-06 -2.52855e-06 -1.13202e-07 8.43636e-06)
(-2.34397e-06 4.21296e-08 -2.01175e-06 -2.21239e-06 -1.62855e-07 7.46995e-06)
(-3.03413e-06 2.98887e-09 -1.45748e-06 -2.86735e-06 -1.22318e-07 9.56085e-06)
(-8.72229e-07 6.34104e-09 -2.02348e-06 -8.4539e-07 -9.21638e-08 2.84402e-06)
(-1.46937e-06 1.97101e-08 -1.89367e-06 -1.42264e-06 -1.01252e-07 4.75533e-06)
(-1.01965e-06 6.56604e-09 -2.16565e-06 -9.8349e-07 -1.03843e-07 3.3204e-06)
(-5.22587e-07 2.61646e-08 -2.31709e-06 -5.02424e-07 -1.6991e-07 1.70501e-06)
(-1.04274e-06 9.49373e-09 -2.40625e-06 -1.00367e-06 -1.2251e-07 3.41731e-06)
(-9.06468e-07 8.53796e-09 -2.26989e-06 -8.78728e-07 -1.09767e-07 2.98047e-06)
(-1.54203e-06 2.08216e-08 -1.93354e-06 -1.49293e-06 -1.04835e-07 4.993e-06)
(-1.22986e-06 7.11843e-09 -2.34342e-06 -1.1793e-06 -1.20057e-07 3.99856e-06)
(-1.07061e-06 6.62725e-09 -2.21112e-06 -1.03117e-06 -1.07892e-07 3.48589e-06)
(-1.71879e-07 9.34826e-09 -2.54911e-07 -1.23741e-07 -1.70797e-08 4.0038e-07)
(-9.46901e-08 9.86465e-09 -1.33299e-07 -4.98258e-08 -1.07324e-08 1.60132e-07)
(-8.19741e-08 1.26392e-08 -1.1396e-08 1.60854e-08 -3.1835e-09 2.84497e-08)
(-5.67819e-08 3.15842e-09 -1.9854e-07 -3.46109e-08 -1.6157e-08 9.80985e-08)
(-7.18127e-08 9.13422e-09 -1.20921e-07 -3.26936e-08 -1.17219e-08 1.09566e-07)
(-1.59571e-07 9.1647e-09 -3.07672e-07 -1.21934e-07 -2.12607e-08 3.93199e-07)
(-6.79935e-08 3.55891e-09 -2.60788e-07 -5.08939e-08 -1.93037e-08 1.44647e-07)
(-8.63987e-08 9.3561e-09 -1.68461e-07 -5.12748e-08 -1.40137e-08 1.62716e-07)
(-2.37596e-07 7.52549e-09 -1.08393e-06 -2.40409e-07 -3.66305e-08 7.68959e-07)
(-2.57536e-07 7.73209e-09 -7.82847e-07 -2.31455e-07 -3.13668e-08 7.549e-07)
(-1.62878e-07 7.50278e-09 -8.96179e-07 -1.71087e-07 -2.93848e-08 5.30059e-07)
(-1.71912e-08 3.85247e-09 -8.20621e-07 -8.17297e-08 -4.93252e-08 1.82668e-07)
(-5.73469e-08 6.67194e-09 -6.53563e-07 -9.04967e-08 -2.0888e-08 2.32249e-07)
(-1.1044e-07 7.05748e-09 -8.54637e-07 -1.34105e-07 -2.66699e-08 3.89311e-07)
(-2.26042e-07 7.49377e-09 -7.25882e-07 -2.01714e-07 -2.9054e-08 6.54139e-07)
(-7.90853e-08 7.24256e-09 -6.35607e-07 -9.89127e-08 -2.13745e-08 2.75242e-07)
(-1.40407e-07 7.50691e-09 -8.32292e-07 -1.50881e-07 -2.72062e-08 4.59347e-07)
(-2.05446e-07 9.06242e-09 -2.93138e-07 -1.55275e-07 -1.92704e-08 5.05463e-07)
(-3.26459e-07 7.86605e-09 -4.00633e-07 -2.70619e-07 -2.55662e-08 8.92289e-07)
(-5.00256e-07 7.58801e-09 -6.29249e-07 -4.43719e-07 -4.13425e-08 1.47841e-06)
(-2.83488e-07 6.5659e-09 -7.13002e-07 -2.49643e-07 -4.52839e-08 8.19424e-07)
(-3.50668e-07 8.19339e-09 -5.16313e-07 -3.00282e-07 -3.37765e-08 9.95451e-07)
(-1.9162e-07 9.02106e-09 -3.51816e-07 -1.51366e-07 -2.37956e-08 4.92385e-07)
(-2.48489e-07 6.18724e-09 -6.60407e-07 -2.16769e-07 -4.18799e-08 7.07919e-07)
(-3.06517e-07 8.41572e-09 -4.76947e-07 -2.58417e-07 -3.12725e-08 8.54201e-07)
(-1.19605e-08 2.33825e-08 -4.43578e-08 -1.36638e-08 -4.7166e-09 1.12709e-08)
(-5.13637e-08 5.73681e-09 -2.28999e-07 -3.46469e-08 -1.34439e-08 9.57814e-08)
(-5.86489e-09 8.2482e-09 -2.8158e-07 -3.83254e-08 -1.34807e-08 6.32097e-08)
(4.71884e-08 2.37626e-09 -4.07533e-07 -4.50856e-08 -2.50744e-08 2.99755e-08)
(-4.16648e-08 6.5347e-09 -5.85093e-07 -7.85487e-08 -1.91928e-08 1.87479e-07)
(-1.16607e-09 6.95196e-09 -3.69536e-07 -4.90582e-08 -1.46235e-08 7.85869e-08)
(-6.17356e-08 5.6802e-09 -2.96391e-07 -5.00737e-08 -1.52329e-08 1.39627e-07)
(-6.11241e-08 7.18476e-09 -5.68159e-07 -8.44735e-08 -1.96243e-08 2.23028e-07)
(-1.65895e-08 7.45275e-09 -3.57031e-07 -4.84995e-08 -1.50208e-08 9.59554e-08)
(-5.52284e-06 -5.80059e-08 -1.8767e-06 -5.66967e-06 1.08536e-07 1.92865e-05)
(-2.92739e-06 8.30498e-09 -3.16225e-06 -3.0471e-06 3.60361e-08 9.98109e-06)
(-5.82524e-06 -3.38873e-09 -1.8322e-06 -5.46161e-06 -1.82e-07 1.81278e-05)
(-4.118e-06 8.70027e-08 -2.47139e-06 -3.81194e-06 -2.29293e-07 1.29876e-05)
(-5.36931e-06 -2.08005e-09 -1.78662e-06 -5.04186e-06 -1.73335e-07 1.6746e-05)
(-5.17719e-06 -2.41889e-08 -1.43598e-06 -4.88082e-06 -1.3312e-07 1.61335e-05)
(-5.66139e-06 -2.74575e-08 -1.47707e-06 -5.32606e-06 -1.40386e-07 1.75895e-05)
(-4.00481e-06 8.39021e-08 -2.44898e-06 -3.71184e-06 -2.25536e-07 1.26401e-05)
(-4.77951e-06 -5.83229e-10 -1.72028e-06 -4.49671e-06 -1.61655e-07 1.49492e-05)
(-5.21984e-06 -1.68716e-09 -1.77065e-06 -4.90393e-06 -1.70441e-07 1.62917e-05)
(-9.88865e-07 4.48134e-08 -2.98015e-06 -8.35818e-07 -2.46848e-07 3.02865e-06)
(-1.86849e-06 1.97404e-08 -3.00393e-06 -1.75064e-06 -1.94681e-07 6.05938e-06)
(-1.70221e-06 1.70949e-08 -2.90657e-06 -1.6019e-06 -1.81097e-07 5.53231e-06)
(-1.75336e-06 9.79089e-09 -2.69541e-06 -1.66176e-06 -1.58525e-07 5.67858e-06)
(-2.78835e-06 4.54086e-08 -2.44609e-06 -2.68017e-06 -1.60759e-07 9.03318e-06)
(-1.94151e-06 1.11911e-08 -2.79881e-06 -1.8335e-06 -1.71505e-07 6.27834e-06)
(-2.20113e-06 1.34641e-08 -2.92553e-06 -2.0693e-06 -1.89061e-07 7.10486e-06)
(-2.88053e-06 4.75982e-08 -2.47471e-06 -2.76678e-06 -1.64566e-07 9.32959e-06)
(-2.00539e-06 1.1703e-08 -2.8313e-06 -1.89168e-06 -1.7602e-07 6.48273e-06)
(-2.74686e-06 1.93364e-08 -3.14353e-06 -2.56016e-06 -2.2383e-07 8.83329e-06)
(-3.6509e-06 6.75075e-08 -2.67975e-06 -3.48501e-06 -1.94702e-07 1.17959e-05)
(-2.53837e-06 1.69813e-08 -3.06677e-06 -2.37341e-06 -2.11095e-07 8.17513e-06)
(-1.17863e-06 5.2434e-08 -3.18039e-06 -9.58507e-07 -2.73973e-07 3.54917e-06)
(-1.92435e-06 2.06758e-08 -3.03354e-06 -1.80074e-06 -1.99545e-07 6.23958e-06)
(-2.09606e-06 2.37686e-08 -3.1218e-06 -1.9534e-06 -2.12988e-07 6.78234e-06)
(-3.55163e-06 6.48218e-08 -2.65637e-06 -3.39301e-06 -1.90997e-07 1.14792e-05)
(-2.26743e-06 1.4114e-08 -2.95496e-06 -2.12929e-06 -1.93622e-07 7.31623e-06)
(-2.46996e-06 1.62261e-08 -3.04031e-06 -2.31189e-06 -2.06566e-07 7.95775e-06)
(-5.01907e-06 -2.31646e-08 -1.42162e-06 -4.73499e-06 -1.3068e-07 1.56562e-05)
(-4.55513e-06 -2.0184e-08 -1.37626e-06 -4.30579e-06 -1.23224e-07 1.42501e-05)
(-3.67123e-06 1.7493e-09 -1.56736e-06 -3.46516e-06 -1.37545e-07 1.15414e-05)
(-3.13628e-06 6.09347e-08 -2.24943e-06 -2.93522e-06 -1.94649e-07 9.95375e-06)
(-4.07481e-06 9.15793e-10 -1.62797e-06 -3.84196e-06 -1.46678e-07 1.27876e-05)
(-4.63556e-06 -2.63965e-10 -1.70269e-06 -4.36325e-06 -1.58662e-07 1.45091e-05)
(-3.24099e-06 6.36048e-08 -2.27641e-06 -3.02967e-06 -1.98605e-07 1.02795e-05)
(-4.21264e-06 6.30554e-10 -1.64728e-06 -3.97032e-06 -1.49702e-07 1.32118e-05)
(-5.38709e-06 -5.60456e-08 -1.86625e-06 -5.52516e-06 1.09432e-07 1.8791e-05)
(-3.94033e-06 -2.55777e-08 -2.49945e-06 -4.2856e-06 1.37439e-07 1.38702e-05)
(-4.98473e-06 -5.04015e-08 -1.83159e-06 -5.09763e-06 1.11804e-07 1.73259e-05)
(-4.62546e-06 -1.14228e-08 -1.50293e-06 -4.84641e-06 9.9096e-08 1.65015e-05)
(-5.02467e-06 -1.34657e-08 -1.53875e-06 -5.28612e-06 9.78878e-08 1.80157e-05)
(-3.83503e-06 -2.5289e-08 -2.48249e-06 -4.1641e-06 1.38261e-07 1.34826e-05)
(-4.46083e-06 -4.32579e-08 -1.77774e-06 -4.54292e-06 1.14049e-07 1.54274e-05)
(-4.85233e-06 -4.85809e-08 -1.81897e-06 -4.95723e-06 1.12473e-07 1.68452e-05)
(-1.1941e-06 -6.89535e-08 -3.0943e-06 -1.36872e-06 1.32145e-07 4.17177e-06)
(-1.97286e-06 9.5897e-09 -3.04745e-06 -2.03354e-06 4.35575e-08 6.7019e-06)
(-1.79248e-06 8.30122e-09 -2.96148e-06 -1.84338e-06 4.98763e-08 6.08159e-06)
(-1.80577e-06 3.44641e-09 -2.76088e-06 -1.85167e-06 6.92487e-08 6.09442e-06)
(-2.76784e-06 6.36207e-09 -2.4939e-06 -2.91592e-06 8.54002e-08 9.45559e-06)
(-2.00215e-06 3.8956e-09 -2.8547e-06 -2.05961e-06 6.42564e-08 6.77229e-06)
(-2.2749e-06 4.80271e-09 -2.96593e-06 -2.3493e-06 5.66204e-08 7.71575e-06)
(-2.85872e-06 6.98881e-09 -2.51943e-06 -3.01591e-06 8.42965e-08 9.77595e-06)
(-2.06926e-06 4.04326e-09 -2.88341e-06 -2.13063e-06 6.25663e-08 7.00458e-06)
(-2.85254e-06 7.858e-09 -3.14461e-06 -2.96687e-06 3.83832e-08 9.72028e-06)
(-3.61814e-06 1.39083e-08 -2.69507e-06 -3.85664e-06 7.31631e-08 1.24622e-05)
(-2.63132e-06 6.53933e-09 -3.08367e-06 -2.72967e-06 4.57391e-08 8.95223e-06)
(-1.45078e-06 -8.56235e-08 -3.24455e-06 -1.68076e-06 1.26932e-07 5.09355e-06)
(-2.03408e-06 1.02215e-08 -3.07175e-06 -2.09825e-06 4.07843e-08 6.9155e-06)
(-2.22188e-06 1.19211e-08 -3.14662e-06 -2.29714e-06 3.38126e-08 7.56259e-06)
(-3.5203e-06 1.28866e-08 -2.6759e-06 -3.74787e-06 7.47318e-08 1.21153e-05)
(-2.34489e-06 5.07475e-09 -2.99085e-06 -2.42372e-06 5.46405e-08 7.95862e-06)
(-2.55874e-06 6.17008e-09 -3.06244e-06 -2.65217e-06 4.79222e-08 8.69984e-06)
(-4.49423e-06 -1.07966e-08 -1.49011e-06 -4.7023e-06 9.93898e-08 1.60058e-05)
(-4.10657e-06 -8.94198e-09 -1.44875e-06 -4.27805e-06 1.0003e-07 1.45479e-05)
(-3.46499e-06 -3.01984e-08 -1.64334e-06 -3.4952e-06 1.15625e-07 1.18496e-05)
(-3.02336e-06 -2.2009e-08 -2.31936e-06 -3.2355e-06 1.42377e-07 1.05127e-05)
(-3.82945e-06 -3.49531e-08 -1.69803e-06 -3.8776e-06 1.15546e-07 1.3154e-05)
(-4.33235e-06 -4.15507e-08 -1.76292e-06 -4.40722e-06 1.14472e-07 1.49634e-05)
(-3.12157e-06 -2.25264e-08 -2.34243e-06 -3.34704e-06 1.4213e-07 1.08702e-05)
(-3.95344e-06 -3.65764e-08 -1.71507e-06 -4.00796e-06 1.15363e-07 1.35991e-05)
(-2.55524e-06 -1.20748e-09 -1.21939e-06 -2.60315e-06 9.61693e-08 8.81874e-06)
(-2.23382e-06 3.49855e-10 -1.15451e-06 -2.26093e-06 9.35318e-08 7.65422e-06)
(-1.75325e-06 -8.26409e-09 -1.261e-06 -1.71687e-06 1.03329e-07 5.80871e-06)
(-1.61349e-06 -9.38219e-09 -1.83884e-06 -1.66077e-06 1.32626e-07 5.43836e-06)
(-2.03994e-06 -1.18982e-08 -1.34445e-06 -2.01261e-06 1.07371e-07 6.80998e-06)
(-2.44865e-06 -1.70909e-08 -1.44726e-06 -2.43569e-06 1.11462e-07 8.24495e-06)
(-1.69142e-06 -1.0343e-08 -1.87506e-06 -1.74642e-06 1.3404e-07 5.71573e-06)
(-2.13937e-06 -1.31636e-08 -1.37103e-06 -2.11537e-06 1.08523e-07 7.15831e-06)
(-1.74182e-06 3.42841e-09 -2.72827e-06 -1.78438e-06 7.0621e-08 5.87377e-06)
(-2.16122e-06 3.49362e-09 -2.29148e-06 -2.25175e-06 9.08196e-08 7.32288e-06)
(-1.55561e-06 3.25636e-09 -2.62281e-06 -1.58813e-06 7.45475e-08 5.23239e-06)
(-8.10375e-07 -4.36173e-08 -2.75615e-06 -9.13644e-07 1.34168e-07 2.80947e-06)
(-1.13739e-06 5.71192e-09 -2.53577e-06 -1.15862e-06 6.9241e-08 3.8292e-06)
(-1.29032e-06 5.84994e-09 -2.65717e-06 -1.31768e-06 6.58591e-08 4.35247e-06)
(-2.07911e-06 3.29445e-09 -2.2592e-06 -2.16232e-06 9.12636e-08 7.03504e-06)
(-1.32019e-06 3.43272e-09 -2.46888e-06 -1.34122e-06 7.82956e-08 4.42277e-06)
(-1.49519e-06 3.33748e-09 -2.58622e-06 -1.52488e-06 7.55651e-08 5.02447e-06)
(-2.66581e-06 -1.77859e-09 -1.23999e-06 -2.72123e-06 9.69032e-08 9.22123e-06)
(-3.00715e-06 -3.52241e-09 -1.29893e-06 -3.08708e-06 9.8677e-08 1.04695e-05)
(-3.34614e-06 -2.86565e-08 -1.62397e-06 -3.37077e-06 1.15502e-07 1.14255e-05)
(-2.36649e-06 -1.73662e-08 -2.13521e-06 -2.49537e-06 1.4137e-07 8.13432e-06)
(-2.99805e-06 -2.41468e-08 -1.56221e-06 -3.00715e-06 1.14612e-07 1.01873e-05)
(-2.55526e-06 -1.84483e-08 -1.47144e-06 -2.54632e-06 1.12241e-07 8.62067e-06)
(-2.2774e-06 -1.65604e-08 -2.10564e-06 -2.39584e-06 1.40853e-07 7.81356e-06)
(-2.88499e-06 -2.26913e-08 -1.54044e-06 -2.88927e-06 1.14165e-07 9.78634e-06)
(-8.98901e-07 4.79985e-09 -2.11268e-06 -9.02123e-07 8.04108e-08 2.97769e-06)
(-1.46879e-06 3.32181e-09 -1.96923e-06 -1.50145e-06 9.11704e-08 4.90195e-06)
(-1.0485e-06 4.22515e-09 -2.25411e-06 -1.05791e-06 8.04682e-08 3.49055e-06)
(-6.10506e-07 -3.01941e-08 -2.49876e-06 -6.83122e-07 1.30436e-07 2.10868e-06)
(-1.08812e-06 5.59989e-09 -2.49477e-06 -1.10762e-06 7.03859e-08 3.6592e-06)
(-9.45992e-07 5.79225e-09 -2.36106e-06 -9.60503e-07 7.24599e-08 3.1737e-06)
(-1.54028e-06 3.16994e-09 -2.00847e-06 -1.57851e-06 9.15449e-08 5.15122e-06)
(-1.26365e-06 3.61155e-09 -2.42822e-06 -1.28231e-06 7.8933e-08 4.22864e-06)
(-1.10076e-06 3.98405e-09 -2.29884e-06 -1.11219e-06 8.03066e-08 3.6698e-06)
(-1.71321e-06 5.30512e-09 -1.14697e-06 -1.61423e-06 -8.608e-08 5.39378e-06)
(-1.11983e-06 1.81149e-08 -1.45828e-06 -1.06171e-06 -1.03377e-07 3.55395e-06)
(-1.43478e-06 5.74874e-09 -1.05894e-06 -1.34722e-06 -7.7251e-08 4.50285e-06)
(-1.17315e-06 1.35625e-09 -7.86314e-07 -1.09933e-06 -5.40043e-08 3.6605e-06)
(-1.43987e-06 -3.66799e-10 -8.64352e-07 -1.35867e-06 -6.10662e-08 4.52344e-06)
(-1.05241e-06 1.70259e-08 -1.41636e-06 -9.96812e-07 -9.9452e-08 3.33478e-06)
(-1.09898e-06 6.25696e-09 -9.35281e-07 -1.02359e-06 -6.57389e-08 3.42156e-06)
(-1.34697e-06 5.88716e-09 -1.02874e-06 -1.26274e-06 -7.43366e-08 4.22082e-06)
(-1.60989e-07 1.1331e-08 -1.45367e-06 -2.07354e-07 -9.31018e-08 6.24092e-07)
(-4.10941e-07 7.15279e-09 -1.59502e-06 -4.16068e-07 -6.0159e-08 1.36722e-06)
(-3.2083e-07 7.24988e-09 -1.41903e-06 -3.30611e-07 -5.0466e-08 1.07284e-06)
(-2.64753e-07 7.4401e-09 -1.14505e-06 -2.66266e-07 -3.92533e-08 8.57887e-07)
(-5.27138e-07 9.41843e-09 -1.15978e-06 -4.9641e-07 -4.93344e-08 1.64309e-06)