/*--------------------------------*- C++ -*----------------------------------*\
| =========                 |                                                 |
| \\      /  F ield         | OpenFOAM: The Open Source CFD Toolbox           |
|  \\    /   O peration     | Version:  2012                                  |
|   \\  /    A nd           | Website:  www.openfoam.com                      |
|    \\/     M anipulation  |                                                 |
\*---------------------------------------------------------------------------*/
FoamFile
{
    version     2.0;
    format      ascii;
    class       volVectorField;
    location    "0.105/solid";
    object      sigmaMaxDir;
}
// * * * * * * * * * * * * * * * * * * * * * * * * * * * * * * * * * * * * * //

dimensions      [1 -1 -2 0 0 0 0];


internalField   nonuniform List<vector> 
3125
(
(0.90151 0.0395226 0.43095)
(0.869148 0.0454208 0.492462)
(0.833478 0.0461788 0.550619)
(0.767137 0.0441189 0.639964)
(-0.359974 0.780449 -0.511194)
(0.936296 0.0581325 0.346369)
(0.873391 0.0450122 0.484935)
(0.898472 0.0403716 0.43717)
(0.898474 -0.00480358 0.439)
(0.932743 0.0468032 0.35749)
(0.892456 -0.0097295 0.451029)
(0.84422 -0.0345355 0.534884)
(0.776036 0.0441303 0.629142)
(0.827386 0.0459747 0.559749)
(0.781818 -0.0518856 0.621344)
(0.836626 -0.0371929 0.54651)
(-0.302604 0.782582 -0.544056)
(-0.338524 0.741448 -0.579358)
(0.774 -0.0538095 0.630895)
(-0.416711 0.700557 -0.579285)
(0.987035 -0.095056 0.129328)
(0.98546 -0.0711813 0.154278)
(0.968439 0.0148642 0.248808)
(0.977527 -0.00499002 0.210752)
(0.977615 -0.0100587 0.210159)
(0.855243 0.0461616 0.516166)
(0.970178 0.00653458 0.242305)
(0.983555 -0.0334186 0.177491)
(0.978501 -0.00830539 0.206075)
(0.957132 0.0177128 0.28911)
(0.850171 0.046217 0.524474)
(0.968851 0.00838566 0.247503)
(0.964275 -0.100887 0.24494)
(0.856062 0.0379229 0.51548)
(0.896794 0.01923 0.442031)
(0.735032 0.0463828 0.676445)
(0.847456 0.0176367 0.530572)
(0.915152 0.035938 0.401503)
(0.865219 0.0376096 0.499981)
(0.951023 -0.149165 0.27075)
(0.719882 0.049609 0.692322)
(0.838751 0.0177778 0.544225)
(0.103714 0.994585 0.00656363)
(0.969048 -0.198374 0.14695)
(0.987039 -0.0919076 0.131555)
(0.986521 -0.0675859 0.149028)
(0.885041 0.0434436 0.463482)
(0.978446 -0.0129499 0.206098)
(0.982872 -0.0362136 0.180697)
(0.98532 -0.0672205 0.156925)
(0.888611 0.0427471 0.456665)
(0.983319 -0.0399331 0.177449)
(0.984056 -0.0372309 0.173921)
(0.986341 -0.0638872 0.151822)
(0.127427 0.991801 0.00969159)
(0.988221 0.0409822 0.147445)
(0.914949 0.0128688 0.403363)
(0.976978 -0.0592845 0.204939)
(0.980698 -0.0822897 0.177368)
(0.973241 -0.173743 0.150381)
(0.919877 0.0199943 0.391696)
(0.980823 -0.0881725 0.173814)
(0.984196 -0.0227059 0.175622)
(0.988286 0.0237112 0.15076)
(0.964321 -0.0616298 0.257462)
(0.975197 -0.0472059 0.216245)
(0.976142 -0.0576826 0.209331)
(0.872992 -0.0220392 0.487236)
(0.968364 -0.0526125 0.243932)
(0.983392 -0.0262238 0.179587)
(0.976424 -0.0449979 0.211117)
(0.954366 -0.0546484 0.293596)
(0.866067 -0.0255759 0.499273)
(0.966949 -0.0525265 0.249499)
(0.966755 0.0171514 0.255127)
(0.951126 0.0295095 0.30739)
(0.80004 0.0449646 0.59826)
(0.902336 0.0195798 0.430589)
(0.932925 0.0213134 0.359441)
(0.955039 0.0185667 0.295898)
(0.807356 0.0452349 0.588328)
(0.936313 0.0213221 0.350517)
(0.920445 0.0355819 0.389249)
(0.948204 0.0306436 0.316181)
(0.962365 -0.0635734 0.264219)
(0.944801 -0.0759086 0.31873)
(0.805399 -0.0461409 0.590935)
(0.898022 -0.0671846 0.43479)
(0.928679 -0.0613433 0.365777)
(0.952116 -0.0552228 0.300709)
(0.81327 -0.0441252 0.580211)
(0.932213 -0.0605181 0.356813)
(0.91304 -0.0876103 0.398349)
(0.941609 -0.0775936 0.327646)
(0.961689 -0.185484 0.201867)
(0.858396 -0.0963524 0.503858)
(0.892724 -0.0679262 0.445456)
(0.749598 -0.0586305 0.659291)
(0.849117 -0.0716493 0.523323)
(0.907937 -0.0888899 0.409572)
(0.865182 -0.0954881 0.492282)
(0.946787 -0.21885 0.236005)
(0.739623 -0.0612863 0.670225)
(0.842109 -0.0721007 0.534465)
(0.994779 0.0840626 0.0578569)
(0.958648 0.0339006 0.282569)
(0.991191 0.0561819 0.119933)
(0.991962 0.0627866 0.109865)
(0.933351 0.0391976 0.356818)
(0.864726 0.0457273 0.500158)
(0.927278 0.0387567 0.372361)
(0.993513 0.0795874 0.0812303)
(0.993239 0.0767788 0.0870675)
(0.895497 0.033104 0.443835)
(0.839302 0.0462308 0.541697)
(0.904653 0.0349681 0.424711)
(0.991635 -0.127323 -0.0211865)
(0.923462 -0.0675826 0.377691)
(0.823124 0.0193156 0.567534)
(0.757638 0.0442975 0.65117)
(0.806139 0.017268 0.591474)
(0.972661 0.0109191 0.231974)
(0.962464 0.00212408 0.271401)
(0.647355 -0.53793 0.539965)
(0.64962 0.0686535 0.757153)
(0.730859 0.0143903 0.682376)
(0.0474233 0.998875 -0.000722052)
(0.965498 -0.026012 0.25911)
(0.994715 0.0840946 0.058902)
(0.994529 0.0838971 0.0622355)
(0.877443 0.0445484 0.477608)
(0.935291 0.0393401 0.351685)
(0.940601 0.03923 0.337241)
(0.957484 0.0344639 0.286421)
(0.895316 0.0412232 0.443519)
(0.953866 0.036436 0.298015)
(0.993599 0.0803184 0.079433)
(0.993841 0.0820929 0.0744325)
(0.0469447 0.998897 -0.000813959)
(0.0445382 0.999007 -0.00117748)
(0.904235 0.000502377 0.427035)
(0.940412 -0.0265616 0.338998)
(0.946239 -0.0254724 0.322464)
(0.964277 -0.0256535 0.26365)
(0.928798 0.0368323 0.368752)
(0.960543 -0.0248031 0.277023)
(-0.17505 0.98434 -0.0207995)
(0.00890133 0.999949 -0.00479944)
(0.986277 -0.102909 0.129103)
(0.987622 -0.103218 0.118105)
(0.938244 -0.0269655 0.344921)
(0.886194 -0.0141798 0.463098)
(0.931527 -0.028428 0.36256)
(0.748057 -0.660044 0.0689382)
(0.984496 -0.148892 0.0927342)
(0.896497 -0.0360043 0.441585)
(0.851664 -0.0317974 0.523122)
(0.906464 -0.0338793 0.420922)
(0.990862 0.0538508 0.123663)
(0.989594 0.0464273 0.136193)
(0.784422 0.0443377 0.61864)
(0.828518 0.0200833 0.559602)
(0.843529 0.0226313 0.536606)
(0.892165 0.0324011 0.450547)
(0.821012 0.0457889 0.569071)
(0.881703 0.0302037 0.470836)
(0.975227 0.0136115 0.220787)
(0.9811 0.0224652 0.192193)
(0.985743 -0.102846 0.133167)
(0.983667 -0.104238 0.146742)
(0.789627 -0.0501202 0.611536)
(0.828395 -0.047502 0.558126)
(0.842728 -0.0453864 0.536424)
(0.892869 -0.0366617 0.448822)
(0.828919 -0.0396114 0.557965)
(0.8817 -0.0388767 0.470207)
(0.965076 -0.113894 0.235917)
(0.972184 -0.11084 0.20633)
(0.6119 0.0252359 0.790532)
(0.657095 -0.0685289 0.750687)
(0.988028 -0.152502 0.023309)
(0.920065 -0.126644 0.370732)
(0.823328 -0.0480996 0.565524)
(0.766162 -0.0555071 0.640245)
(0.808047 -0.0498614 0.587005)
(0.962132 -0.114606 0.247321)
(0.950893 -0.117034 0.28654)
(0.748806 -0.438821 0.496714)
(0.701563 -0.0904815 0.70684)
(0.750802 -0.0601634 0.657781)
(0.996612 0.034359 0.0747276)
(0.969335 0.0363862 0.243034)
(0.99267 0.0699259 0.0985764)
(0.992162 0.0648208 0.106834)
(0.988052 0.0296359 0.151247)
(0.972867 0.00707578 0.231257)
(0.989807 0.0307873 0.139049)
(0.991609 0.0319108 0.125272)
(0.974155 0.00421499 0.225843)
(0.990308 0.0311026 0.13536)
(0.948541 0.040822 0.314011)
(0.974795 -0.00219078 0.223092)
(0.943313 0.0402692 0.329453)
(0.860094 0.0459208 0.508064)
(0.918097 0.0374661 0.394581)
(0.925059 0.0384501 0.377873)
(0.973738 0.000169326 0.227672)
(0.93529 0.0388224 0.351746)
(0.941418 0.0398887 0.334875)
(0.992807 0.0714592 0.0960665)
(0.993139 0.0756505 0.0891781)
(0.994029 0.0333366 0.103898)
(0.981739 -0.0223019 0.188919)
(0.993261 0.0329681 0.111116)
(0.991986 0.0321206 0.122194)
(0.981022 -0.0187465 0.19299)
(0.992971 0.0328004 0.113718)
(0.914774 0.0341309 0.402522)
(0.962729 0.0144902 0.270079)
(0.92325 0.0360698 0.382503)
(0.844871 0.0462376 0.532967)
(0.915554 0.0369961 0.400489)
(0.907568 0.035552 0.418398)
(0.964391 0.0131605 0.264153)
(0.933068 0.0382668 0.35766)
(0.925866 0.0367426 0.376061)
(0.93453 -0.0183518 0.355412)
(0.91915 -0.0477134 0.391007)
(0.98799 -0.120947 0.0961625)
(0.824117 0.0412656 0.564915)
(0.89467 -0.0295695 0.445747)
(0.91329 0.00165636 0.407307)
(0.828505 0.0406415 0.558505)
(0.893071 -0.0171116 0.449589)
(0.842639 0.0193992 0.53813)
(0.878061 0.0181539 0.478204)
(0.824536 0.0172057 0.565548)
(0.747157 0.0449554 0.663125)
(0.779588 0.0160221 0.626087)
(0.799939 0.016777 0.599847)
(0.871044 0.0178527 0.49088)
(0.79615 0.0154729 0.604901)
(0.817966 0.0165437 0.575028)
(0.941163 -0.0130019 0.337704)
(0.958021 -0.00117286 0.286695)
(0.959911 0.0178553 0.279737)
(0.896724 0.0366544 0.441069)
(0.946772 0.0137628 0.321611)
(0.921087 0.00505531 0.389323)
(0.889633 0.0367086 0.455199)
(0.941275 0.0120141 0.337428)
(0.768671 -0.396992 0.501541)
(0.807605 0.0179147 0.589452)
(0.748621 0.0127407 0.662876)
(0.697881 0.0500548 0.714462)
(0.771802 0.0160871 0.635659)
(0.743748 0.0162043 0.668263)
(0.812484 0.0190139 0.582674)
(0.787973 0.0152685 0.615521)
(0.759857 0.0149982 0.649918)
(0.68316 0.728682 0.0481134)
(0.973814 -0.0264348 0.225803)
(0.996518 0.0341894 0.0760404)
(0.986953 -0.0818923 0.138624)
(0.996201 0.0338944 0.080223)
(0.994244 0.0834358 0.0672038)
(0.994459 0.0838456 0.0634183)
(0.986881 -0.0784449 0.141113)
(0.995687 0.0336777 0.0864423)
(0.996082 0.0338384 0.0817055)
(0.88133 0.0440021 0.470448)
(0.946956 0.0384543 0.319054)
(0.9423 0.0391968 0.332467)
(0.950164 0.0410058 0.309041)
(0.98063 -0.0222752 0.1946)
(0.954645 0.041038 0.294905)
(0.959901 0.0404641 0.277402)
(0.98126 -0.0256053 0.190981)
(0.95604 0.0410236 0.290351)
(0.968419 0.0369693 0.246573)
(0.984692 -0.0553611 0.165276)
(0.965505 0.0386494 0.257499)
(0.892032 0.041995 0.450017)
(0.94845 0.0382355 0.314612)
(0.952548 0.0368499 0.302148)
(0.984409 -0.0514462 0.168202)
(0.961109 0.0402388 0.273223)
(0.964456 0.0390672 0.26134)
(0.994165 0.0832904 0.068553)
(0.993921 0.0825227 0.0728834)
(0.994256 0.0334295 0.101669)
(0.985281 -0.0486708 0.163869)
(0.994865 0.0336494 0.0954573)
(0.99554 0.0336732 0.0881266)
(0.985602 -0.0525153 0.160719)
(0.995047 0.0336761 0.0935284)
(0.722151 0.689762 0.0522122)
(0.640967 0.763129 0.082433)
(0.833976 0.547935 0.0652038)
(0.0383764 0.999261 -0.00193671)
(0.0435679 0.99905 -0.00131981)
(0.952559 0.274387 0.131694)
(0.931962 0.353485 0.0805887)
(0.865149 0.49669 0.0693976)
(0.909727 0.00635551 0.415158)
(0.953159 -0.0246525 0.301465)
(0.948122 -0.0252099 0.316905)
(0.953378 -0.0292291 0.30036)
(0.979067 -0.0661515 0.192489)
(0.958274 -0.0278599 0.28449)
(0.963957 -0.0265025 0.264734)
(0.979615 -0.0692816 0.188559)
(0.959798 -0.0274544 0.279347)
(0.972879 -0.0261896 0.229826)
(0.97925 -0.124021 0.160273)
(0.969882 -0.0259285 0.242192)
(0.924501 0.0279236 0.380156)
(0.954791 -0.0245631 0.296263)
(0.959131 -0.02467 0.281885)
(0.980072 -0.112696 0.163581)
(0.965252 -0.0262821 0.259996)
(0.968781 -0.0259323 0.246556)
(0.0359033 0.999353 -0.00221286)
(0.0205458 0.999782 -0.00373105)
(0.987124 0.121693 0.103809)
(0.986343 -0.0097588 0.164416)
(0.977886 0.186042 0.0955338)
(0.9462 0.312527 0.0838554)
(0.986965 -0.0040548 0.160884)
(0.972713 0.21267 0.0927403)
(0.988415 -0.108943 0.105677)
(0.987984 -0.103513 0.114777)
(0.986398 -0.0349775 0.16061)
(0.969526 -0.0557109 0.238572)
(0.988958 -0.0177469 0.147132)
(0.991233 0.0110281 0.131668)
(0.971066 -0.0537067 0.232693)
(0.989656 -0.0112327 0.143019)
(0.951585 -0.0297929 0.305938)
(0.973235 -0.0543849 0.223285)
(0.945828 -0.031458 0.323141)
(0.8797 -0.0183328 0.475175)
(0.921329 -0.0306964 0.387571)
(0.929039 -0.0289235 0.368849)
(0.972126 -0.0537183 0.228222)
(0.936965 -0.0339995 0.347764)
(0.943722 -0.0321185 0.329176)
(0.98839 -0.111794 0.102899)
(0.986702 -0.131757 0.0951852)
(0.988806 0.104393 0.106606)
(0.98072 -0.0351 0.192239)
(0.991417 0.0615769 0.115326)
(0.991559 0.0195833 0.128168)
(0.979728 -0.0378139 0.196733)
(0.991722 0.0497272 0.118386)
(0.914515 -0.0396553 0.402604)
(0.960388 -0.0532342 0.273534)
(0.923716 -0.0375434 0.381235)
(0.858946 -0.0288264 0.511254)
(0.918488 -0.0312813 0.39421)
(0.909688 -0.0332649 0.413959)
(0.962175 -0.0529346 0.267238)
(0.934498 -0.0347428 0.354269)
(0.926591 -0.0367914 0.374266)
(0.987366 0.0291988 0.15574)
(0.960963 0.0233014 0.275695)
(0.984924 0.0277813 0.170742)
(0.986962 0.0358937 0.156899)
(0.989051 0.0438798 0.140898)
(0.958757 0.0249972 0.283127)
(0.980431 0.0256171 0.195187)
(0.983954 0.0272522 0.176331)
(0.792428 0.0445838 0.608334)
(0.861736 0.0260782 0.506687)
(0.848342 0.0234835 0.528928)
(0.848247 0.0202925 0.529212)
(0.917069 0.0206093 0.398196)
(0.863868 0.022941 0.503196)
(0.882274 0.0266017 0.469984)
(0.921407 0.0209231 0.388036)
(0.868733 0.0239169 0.494702)
(0.9117 0.0333205 0.409504)
(0.947969 0.0203571 0.317712)
(0.901739 0.0310459 0.431165)
(0.814338 0.0454994 0.578605)
(0.866026 0.0269421 0.499273)
(0.87791 0.0294077 0.477922)
(0.945316 0.0207311 0.325498)
(0.886479 0.0275852 0.461946)
(0.898133 0.0301264 0.438691)
(0.986067 0.0332582 0.162992)
(0.982593 0.0252717 0.184043)
(0.963357 0.018943 0.267552)
(0.934121 0.0341325 0.355321)
(0.971566 0.0220313 0.23574)
(0.979008 0.0249904 0.202284)
(0.938041 0.033472 0.344904)
(0.973742 0.0228491 0.226507)
(0.985389 -0.0400784 0.165538)
(0.955751 -0.069063 0.285954)
(0.981851 -0.0538599 0.181846)
(0.979809 -0.10685 0.168987)
(0.982864 -0.104539 0.151822)
(0.953254 -0.0708984 0.293736)
(0.975703 -0.0689167 0.207978)
(0.980485 -0.0579273 0.187865)
(0.797475 -0.0482312 0.601421)
(0.860904 -0.0424982 0.50699)
(0.847488 -0.0447478 0.528925)
(0.847 -0.0508975 0.529151)
(0.912491 -0.0647754 0.403937)
(0.861935 -0.0490912 0.504637)
(0.880312 -0.0463215 0.472129)
(0.916867 -0.0639275 0.39404)
(0.866738 -0.0483755 0.496413)
(0.911179 -0.0404529 0.41002)
(0.944541 -0.0573072 0.323354)
(0.900562 -0.0426108 0.432635)
(0.821121 -0.0419722 0.569209)
(0.865322 -0.0418174 0.499468)
(0.877661 -0.0395567 0.477646)
(0.941709 -0.0580892 0.331376)
(0.884635 -0.0455372 0.464055)
(0.896732 -0.0434245 0.440439)
(0.978615 -0.107323 0.175485)
(0.974093 -0.109664 0.19778)
(0.95505 -0.0912363 0.282056)
(0.92673 -0.0836404 0.366301)
(0.964561 -0.0839379 0.250152)
(0.973838 -0.0722092 0.215466)
(0.930792 -0.082243 0.356178)
(0.967199 -0.0811993 0.240694)
(0.923578 -0.12018 0.364088)
(0.913442 -0.123821 0.387675)
(0.985979 -0.132403 0.101558)
(0.842827 -0.106414 0.52756)
(0.901076 -0.110275 0.419405)
(0.907488 -0.104965 0.406752)
(0.84205 -0.101076 0.529844)
(0.895774 -0.108489 0.431068)
(0.841733 -0.0515458 0.537427)
(0.875416 -0.0698728 0.478293)
(0.825418 -0.0529077 0.562038)
(0.758117 -0.0573664 0.64959)
(0.785586 -0.0511701 0.616633)
(0.802576 -0.0502643 0.594429)
(0.869149 -0.0704534 0.489506)
(0.801393 -0.0537538 0.595719)
(0.819626 -0.0533472 0.57041)
(0.929611 -0.119206 0.348732)
(0.946246 -0.117486 0.301357)
(0.951248 -0.0933094 0.293973)
(0.891053 -0.0919826 0.444481)
(0.937529 -0.0987357 0.333603)
(0.913834 -0.103746 0.392612)
(0.884881 -0.093036 0.456432)
(0.932131 -0.10018 0.347987)
(0.834701 -0.345739 0.428647)
(0.822555 -0.0801571 0.563008)
(0.767858 -0.0604101 0.637766)
(0.726442 -0.0631591 0.684319)
(0.779254 -0.0514066 0.624597)
(0.7588 -0.0537971 0.649098)
(0.823659 -0.0750029 0.562104)
(0.794761 -0.0539431 0.604521)
(0.774369 -0.0551861 0.630323)
(0.662585 0.748768 0.0181091)
(0.66359 0.747885 0.0177996)
(0.718596 0.694155 0.0420542)
(0.708135 0.704931 0.0402133)
(0.654236 0.755857 0.0256029)
(0.654906 0.755255 0.0262484)
(0.968661 -0.00343102 -0.248363)
(0.976427 -0.191735 -0.0991373)
(0.974918 0.190077 0.115784)
(0.979164 0.160743 0.124093)
(0.17366 0.984804 0.00204909)
(0.180273 0.983614 0.00218848)
(0.661575 0.749653 0.018428)
(0.660679 0.750434 0.0187587)
(0.653647 0.756387 0.0249862)
(0.653526 0.75651 0.0244082)
(0.166979 0.985959 0.0019028)
(0.160089 0.987101 0.00174423)
(0.0380478 0.999273 -0.00226036)
(0.0486826 0.998813 -0.00181804)
(-0.370733 0.928354 -0.0267556)
(-0.297765 0.954387 -0.0219602)
(0.0268528 0.999636 -0.0027464)
(0.0152804 0.999878 -0.00326898)
(0.729571 0.682485 0.0440414)
(0.743274 0.667383 0.0462955)
(0.969189 0.221237 0.108291)
(0.961642 0.254847 0.101473)
(-0.482897 0.875015 -0.0340395)
(-0.617645 0.785281 -0.0429945)
(0.992998 0.0235927 0.115754)
(0.99395 0.0119187 0.109184)
(0.551931 -0.154232 0.819503)
(0.408818 -0.535177 0.739225)
(0.589716 -0.186095 0.785877)
(0.992922 -0.051407 -0.107069)
(0.997927 0.0599493 0.0234125)
(0.991803 0.0341369 0.123128)
(0.990414 0.0423121 0.131492)
(0.684026 -0.183783 0.705926)
(-0.52244 0.619353 -0.586054)
(0.616099 -0.14299 0.774581)
(0.497975 -0.49928 0.709042)
(0.649105 -0.189746 0.736654)
(0.643363 -0.187485 0.742249)
(0.624638 -0.392773 0.674949)
(0.981568 -0.157865 0.107713)
(0.987012 -0.0981787 0.127155)
(0.95802 0.251422 0.137787)
(0.958032 0.25248 0.13575)
(0.981267 -0.160965 0.10586)
(0.974538 0.123373 0.187231)
(0.983516 0.0105253 0.180515)
(0.985568 -0.0751327 0.151692)
(0.977876 0.132166 0.162144)
(0.978214 0.132473 0.159839)
(0.98405 0.00886137 0.177671)
(0.97404 0.123389 0.189792)
(0.67023 0.741459 0.0321008)
(0.674172 0.737828 0.0331812)
(0.976673 -0.0177287 0.213997)
(0.970015 0.0123898 0.24273)
(0.950661 0.180086 0.252613)
(0.951611 0.183313 0.246643)
(0.977795 -0.0219273 0.208414)
(0.95542 0.201922 0.215406)
(0.982545 -0.0493566 0.179355)
(0.97648 -0.0018383 0.215598)
(0.954973 0.198936 0.220117)
(0.981964 -0.044603 0.183729)
(0.960845 0.120377 0.249573)
(0.969875 0.0316769 0.241536)
(0.96893 0.12591 0.21289)
(0.976732 -0.00729533 0.214339)
(0.968137 0.125408 0.216759)
(0.961861 0.120845 0.245396)
(0.968716 0.0323198 0.24606)
(0.954882 0.118091 0.272499)
(0.962357 0.121971 0.242882)
(0.971432 0.00456824 0.237273)
(0.960516 0.0342847 0.276104)
(0.963457 0.122611 0.238153)
(0.953488 0.117644 0.277526)
(0.962049 0.0341673 0.270729)
(0.66617 0.745152 0.0310691)
(0.663706 0.747385 0.030147)
(0.984779 -0.0884186 0.149642)
(0.957377 0.223198 0.183335)
(0.983002 -0.0297254 0.181173)
(0.957274 0.220699 0.186864)
(0.9847 -0.0835765 0.152908)
(0.955782 0.204974 0.210869)
(0.98305 -0.0541941 0.175145)
(0.979407 -0.0117187 0.201557)
(0.956164 0.207626 0.206497)
(0.983483 -0.0590783 0.17109)
(0.941441 0.112927 0.317704)
(0.94502 0.0330239 0.325341)
(0.959105 0.0168142 0.282552)
(0.950703 0.116312 0.287462)
(0.952489 0.117122 0.281155)
(0.947322 0.0334657 0.318529)
(0.939296 0.112239 0.324232)
(0.95051 0.116337 0.288092)
(0.961186 0.121353 0.247779)
(0.967446 0.0101348 0.252874)
(0.958904 0.0343639 0.281642)
(0.959951 0.120662 0.252854)
(0.952031 0.117058 0.282728)
(0.957209 0.0344092 0.287344)
(0.975398 0.0142598 0.219991)
(0.970744 -0.00591163 0.240045)
(0.974853 -0.103057 0.197586)
(0.884587 0.00949236 0.466278)
(0.954826 -0.0332131 0.295303)
(0.848636 -0.0336598 0.527906)
(0.910563 -0.00339746 0.413357)
(0.842774 0.0930009 0.530172)
(0.873711 0.0334383 0.485295)
(0.846545 0.0384592 0.530926)
(0.831828 0.0868459 0.548197)
(0.864128 0.0337269 0.502141)
(0.867837 0.0932361 0.488023)
(0.879492 0.0200351 0.475492)
(0.891399 0.0993106 0.442205)
(0.890916 0.0189236 0.453774)
(0.885149 0.0980377 0.454863)
(0.874228 0.0946685 0.476197)
(0.87352 0.0192901 0.486406)
(0.828393 0.086468 0.553433)
(0.835911 0.0885083 0.541682)
(0.855751 0.0177644 0.517083)
(0.830362 0.0153967 0.557011)
(0.845759 0.0905349 0.525827)
(0.818621 0.0851715 0.567984)
(0.838543 0.0159301 0.544603)
(0.979077 0.0312431 0.201076)
(0.981639 0.050117 0.184049)
(0.931419 0.0280484 0.362867)
(0.905042 0.124522 0.406685)
(0.909458 0.0361524 0.41422)
(0.899437 0.121013 0.419964)
(0.9261 0.0291529 0.376151)
(0.852923 0.0986486 0.512631)
(0.88291 0.0331537 0.46837)
(0.873899 0.0373155 0.484672)
(0.862453 0.102845 0.495579)
(0.891578 0.0327345 0.451683)
(0.758378 0.0394778 0.650618)
(0.917116 -0.206591 0.340909)
(0.85763 -0.0361555 0.512995)
(0.920061 -0.0840602 0.38265)
(0.803341 0.0186775 0.595227)
(0.822008 -0.0502632 0.567254)
(0.857031 -0.106429 0.504154)
(0.796495 0.0816208 0.59911)
(0.825248 0.0864042 0.558121)
(0.829719 0.0181672 0.557886)
(0.821752 0.0151119 0.569645)
(0.81371 0.0838186 0.575196)
(0.807999 0.0835697 0.583227)
(0.812759 0.0150617 0.582405)
(0.443948 0.895058 0.0422075)
(0.088807 0.996038 0.00466369)
(-0.228678 0.972397 -0.0463638)
(0.394634 0.918132 0.0360281)
(-0.170685 0.984579 -0.0383419)
(0.974173 -0.156746 0.162536)
(0.979362 -0.107315 0.171272)
(0.962784 -0.22914 0.143321)
(0.978633 0.150353 0.140254)
(0.979173 -0.113926 0.16805)
(0.963649 0.231238 0.133824)
(0.974736 -0.149508 0.165945)
(0.981866 -0.154672 0.109617)
(0.958 0.250344 0.139875)
(0.98703 -0.0886367 0.133846)
(0.957995 0.249148 0.142026)
(0.982164 -0.15134 0.111579)
(0.655674 0.754752 0.0210015)
(0.656313 0.754207 0.0205907)
(0.957903 0.240809 0.15631)
(0.986666 -0.0712967 0.146313)
(0.983772 -0.12903 0.124676)
(0.957925 0.242362 0.153752)
(0.98353 -0.133069 0.12232)
(0.963796 0.121402 0.237401)
(0.970983 0.0309868 0.237134)
(0.969681 0.126407 0.20914)
(0.979224 -0.0159347 0.202154)
(0.962846 0.121183 0.241335)
(0.9704 0.126849 0.205509)
(0.972041 0.0302563 0.232854)
(0.967918 0.122584 0.219337)
(0.974022 0.12931 0.185906)
(0.977519 0.0240538 0.209472)
(0.98238 -0.032582 0.184032)
(0.968635 0.12281 0.216019)
(0.973486 0.128948 0.188935)
(0.9767 0.0252927 0.213114)
(0.973004 0.123272 0.195106)
(0.982958 0.0121692 0.183425)
(0.97752 0.13188 0.164506)
(0.985149 -0.0632211 0.15964)
(0.973528 0.123364 0.192416)
(0.977149 0.131582 0.166933)
(0.982376 0.0138124 0.186406)
(0.970013 0.122981 0.209645)
(0.974532 0.129663 0.182961)
(0.983725 -0.0436996 0.174287)
(0.978304 0.0227681 0.205921)
(0.975021 0.129991 0.180102)
(0.969334 0.122936 0.212785)
(0.979055 0.0214335 0.202462)
(0.654927 0.755389 0.0214248)
(0.654532 0.755718 0.0218733)
(0.984811 -0.0932168 0.146485)
(0.957491 0.22547 0.179926)
(0.984508 -0.0410577 0.170463)
(0.957613 0.227549 0.17663)
(0.984799 -0.0979618 0.143435)
(0.95786 0.239249 0.158945)
(0.983995 -0.12489 0.127106)
(0.986129 -0.0601404 0.154701)
(0.957864 0.237403 0.161667)
(0.9842 -0.120626 0.129614)
(0.503821 0.862367 0.0498753)
(-0.305536 0.950473 -0.05699)
(0.171044 0.98514 0.0156035)
(0.574757 0.81618 0.0592069)
(-0.405656 0.911278 -0.070824)
(0.114215 0.993456 0.000509222)
(0.122576 0.992459 0.000759728)
(0.890243 -0.432126 0.143995)
(0.987158 0.0691616 0.143996)
(0.932319 0.342248 0.11682)
(0.904954 0.410951 0.110349)
(0.86135 -0.488982 0.13774)
(0.966301 -0.120076 0.227694)
(0.970554 -0.0576132 0.233894)
(0.977747 -0.0611763 0.200671)
(0.974404 -0.092365 0.204953)
(0.971604 -0.0587244 0.22921)
(0.975659 -0.0890503 0.200399)
(0.965181 -0.119477 0.232704)
(0.971022 -0.123666 0.204505)
(0.982758 -0.0582839 0.175468)
(0.976586 -0.0697338 0.203511)
(0.980445 -0.0772215 0.181007)
(0.975912 -0.067285 0.207529)
(0.97179 -0.124661 0.200211)
(0.981615 -0.065252 0.17937)
(0.974944 -0.139894 0.172953)
(0.979421 -0.101316 0.174556)
(0.984884 0.0944982 0.145167)
(0.976093 -0.153673 0.153711)
(0.974951 -0.144115 0.169414)
(0.979374 -0.0958013 0.177902)
(0.98727 0.0546818 0.149361)
(0.973093 -0.127471 0.191938)
(0.983882 -0.050128 0.171649)
(0.980795 -0.0950102 0.170338)
(0.977202 -0.0723986 0.199588)
(0.977754 -0.075326 0.195763)
(0.984969 -0.0405483 0.167905)
(0.972483 -0.125902 0.196023)
(0.105828 0.994384 0.000249248)
(0.0969088 0.995293 -3.96734e-05)
(0.984546 0.0899151 0.150281)
(0.984954 -0.0189489 0.171776)
(0.951224 -0.250901 0.179502)
(0.983496 0.106159 0.146515)
(0.94908 -0.261825 0.1752)
(0.909327 -0.388391 0.149252)
(0.950397 0.286019 0.122223)
(0.987988 0.011815 0.154076)
(0.962343 0.24039 0.126919)
(0.922126 -0.354948 0.153933)
(-0.0886914 0.99602 -0.00877957)
(-0.109914 0.99389 -0.0100447)
(0.973365 -0.0357438 0.226458)
(0.966159 -0.0597283 0.250937)
(0.94773 -0.17504 0.266775)
(0.974918 -0.0312069 0.220364)
(0.949156 -0.177554 0.259957)
(0.954787 -0.196179 0.223373)
(0.982128 0.00181414 0.188206)
(0.973895 -0.0494485 0.221547)
(0.981168 -0.00457239 0.193102)
(0.954197 -0.192529 0.229002)
(0.962698 -0.118789 0.243108)
(0.969441 -0.0566068 0.238705)
(0.975242 -0.0563146 0.213848)
(0.973123 -0.095317 0.209632)
(0.968265 -0.0556948 0.243639)
(0.963983 -0.119035 0.237839)
(0.9718 -0.0980801 0.214444)
(0.955227 -0.117421 0.271578)
(0.962911 -0.110066 0.246348)
(0.969697 -0.0528132 0.238534)
(0.959644 -0.0529721 0.276184)
(0.961282 -0.0531735 0.270389)
(0.964535 -0.10846 0.24064)
(0.953499 -0.117082 0.277727)
(-0.0699063 0.997524 -0.00769129)
(-0.0530909 0.998567 -0.00674471)
(0.985157 0.0756321 0.154095)
(0.982547 -0.0294112 0.183674)
(0.952785 -0.241633 0.183885)
(0.985433 0.062977 0.157976)
(0.953872 -0.233771 0.188361)
(0.955273 -0.199913 0.217917)
(0.982987 0.00857727 0.183477)
(0.977586 -0.042684 0.206164)
(0.983739 0.0158066 0.178905)
(0.955492 -0.204511 0.212627)
(0.938479 -0.116082 0.325242)
(0.942965 -0.0536594 0.328539)
(0.956494 -0.0540838 0.286696)
(0.946972 -0.11914 0.298412)
(0.945448 -0.0533533 0.321374)
(0.949313 -0.11829 0.291227)
(0.935893 -0.115793 0.332712)
(0.949716 -0.116885 0.290479)
(0.961222 -0.111517 0.252223)
(0.965451 -0.0525338 0.255235)
(0.957917 -0.0528336 0.28214)
(0.956101 -0.052743 0.288252)
(0.959451 -0.112927 0.258267)
(0.951663 -0.11691 0.284024)
(0.975443 -0.0136893 0.219826)
(0.949593 0.176857 0.258831)
(0.964953 0.0193734 0.261707)
(0.948426 0.173468 0.265323)
(0.974098 -0.00972734 0.225919)
(0.849407 0.523704 0.0651246)
(0.828748 0.556265 0.0612084)
(0.937993 0.153656 0.31074)
(0.95385 0.0281469 0.298961)
(0.96309 0.0104239 0.268977)
(0.940201 0.156934 0.302315)
(0.965332 0.0074775 0.260919)
(0.885888 0.0969614 0.453654)
(0.885174 0.0208918 0.464791)
(0.897201 0.100613 0.430009)
(0.907551 0.0200137 0.419464)
(0.880244 0.0959087 0.464729)
(0.902602 0.101788 0.41827)
(0.89057 0.0218666 0.45432)
(0.909326 0.10272 0.403205)
(0.927944 0.108361 0.35662)
(0.917658 0.0271611 0.396443)
(0.929319 0.0212611 0.368664)
(0.913187 0.10394 0.394063)
(0.924435 0.107355 0.365918)
(0.913715 0.0263517 0.4055)
(0.934643 0.11049 0.337985)
(0.942589 0.0325907 0.332362)
(0.948792 0.115539 0.294015)
(0.952819 0.0193582 0.302923)
(0.937028 0.111438 0.330999)
(0.946754 0.114722 0.300825)
(0.940024 0.0321558 0.339589)
(0.92028 0.105843 0.376672)
(0.931212 0.109366 0.347683)
(0.939499 0.0212649 0.341892)
(0.921394 0.0279874 0.38762)
(0.934266 0.110286 0.339094)
(0.916841 0.104955 0.385212)
(0.924932 0.0288262 0.379039)
(0.869309 0.489385 0.0693157)
(0.890113 0.449707 0.0739093)
(0.936289 0.026824 0.350204)
(0.910195 0.127775 0.393977)
(0.925354 0.0351899 0.377467)
(0.914941 0.130758 0.381818)
(0.940743 0.0254335 0.338165)
(0.935532 0.150558 0.319551)
(0.960654 0.0131079 0.27744)
(0.94506 0.0316809 0.325359)
(0.932895 0.146999 0.328783)
(0.958001 0.0156611 0.286337)
(0.971699 -0.040115 0.232793)
(0.94617 -0.172582 0.27382)
(0.960294 -0.0654019 0.271215)
(0.969917 -0.044267 0.239379)
(0.944424 -0.17045 0.281088)
(0.986222 -0.146031 0.0777238)
(0.97838 -0.193006 0.0743088)
(0.930644 -0.158445 0.329843)
(0.947794 -0.0743182 0.310101)
(0.956306 -0.06577 0.284873)
(0.958971 -0.0626083 0.276504)
(0.933384 -0.160325 0.321076)
(0.879533 -0.112324 0.462392)
(0.881834 -0.0615043 0.467532)
(0.903087 -0.0664227 0.42429)
(0.889218 -0.124157 0.440314)
(0.887028 -0.0610121 0.457666)
(0.894166 -0.124261 0.430148)
(0.874568 -0.111637 0.471877)
(0.902144 -0.113989 0.416104)
(0.919833 -0.123721 0.37229)
(0.914083 -0.0577406 0.401395)
(0.924944 -0.0622268 0.374975)
(0.910041 -0.0582981 0.410399)
(0.906222 -0.114042 0.407132)
(0.916014 -0.123958 0.381513)
(0.930289 -0.115634 0.348125)
(0.940352 -0.0539794 0.335893)
(0.944521 -0.119873 0.305794)
(0.949737 -0.0558117 0.308034)
(0.933167 -0.115632 0.340335)
(0.937609 -0.0543117 0.343424)
(0.941941 -0.120598 0.313374)
(0.91384 -0.114749 0.389523)
(0.923473 -0.12345 0.363259)
(0.935559 -0.059677 0.348091)
(0.917948 -0.0572096 0.392553)
(0.921633 -0.0566845 0.3839)
(0.926938 -0.123189 0.354416)
(0.910115 -0.114327 0.39827)
(0.990908 -0.107256 0.0812303)
(0.993227 -0.0792809 0.0849401)
(0.927047 -0.0868173 0.364755)
(0.917857 -0.0864576 0.387381)
(0.901061 -0.144649 0.408859)
(0.931601 -0.0847093 0.353475)
(0.905509 -0.146575 0.398206)
(0.927744 -0.156389 0.338871)
(0.953448 -0.0688864 0.293586)
(0.938217 -0.0792238 0.336858)
(0.95039 -0.0718747 0.302642)
(0.92454 -0.154968 0.348152)
(0.969083 0.082682 0.232469)
(0.963312 0.0855024 0.254398)
(0.971925 -0.151407 0.180103)
(0.900492 -0.158238 0.405062)
(0.963299 -0.156661 0.217975)
(0.922202 -0.141665 0.359827)
(0.90315 -0.118499 0.412647)
(0.851706 -0.128402 0.508046)
(0.873937 -0.0998165 0.47568)
(0.851809 -0.0975745 0.514685)
(0.867749 -0.100951 0.486641)
(0.846101 -0.126076 0.517897)
(0.864208 -0.110928 0.490754)
(0.876447 -0.061964 0.477495)
(0.887191 -0.0686178 0.456271)
(0.884106 -0.123926 0.450554)
(0.870874 -0.0623936 0.48753)
(0.869474 -0.111147 0.481312)
(0.878798 -0.123804 0.460854)
(0.836065 -0.107406 0.538014)
(0.843598 -0.12122 0.523115)
(0.856006 -0.0712567 0.512032)
(0.83307 -0.0639053 0.549463)
(0.839907 -0.0638181 0.538966)
(0.849828 -0.121724 0.512812)
(0.830061 -0.106077 0.547491)
(0.974057 0.0788365 0.212126)
(0.97822 0.0738772 0.193981)
(0.922191 -0.0888408 0.376391)
(0.902565 -0.090061 0.421029)
(0.896316 -0.143037 0.419711)
(0.917034 -0.0907041 0.388356)
(0.891289 -0.141725 0.430717)
(0.857685 -0.130066 0.497453)
(0.88045 -0.0987539 0.463741)
(0.871895 -0.0946794 0.480453)
(0.887011 -0.0977668 0.45128)
(0.863503 -0.132656 0.486585)
(0.851502 -0.132508 0.507333)
(0.92449 -0.248554 0.289031)
(0.875501 -0.142715 0.46166)
(0.947107 -0.178792 0.266499)
(0.84668 -0.139132 0.513591)
(0.873874 -0.147415 0.463264)
(0.931045 -0.180338 0.317229)
(0.818042 -0.104404 0.565603)
(0.837359 -0.120609 0.533181)
(0.835179 -0.0725927 0.545166)
(0.826091 -0.0639971 0.559892)
(0.819079 -0.0641312 0.570084)
(0.831279 -0.120204 0.542703)
(0.824046 -0.105073 0.556693)
(0.778711 0.626599 0.0313518)
(0.994835 0.0840967 0.056841)
(0.777083 0.628647 0.0307411)
(0.887648 0.113916 0.446211)
(0.837672 0.0703837 0.541619)
(0.841514 0.0637086 0.536466)
(0.885187 0.106851 0.452799)
(0.69206 0.720889 0.0370492)
(0.69935 0.713739 0.0385503)
(0.898972 0.43148 0.0753298)
(0.991486 0.058363 0.116397)
(0.892578 0.44502 0.0725376)
(0.880324 0.469554 0.0674424)
(0.991745 0.0605085 0.11305)
(0.886366 0.457675 0.0699126)
(0.861739 0.103007 0.496784)
(0.825379 0.0641424 0.560924)