/*--------------------------------*- C++ -*----------------------------------*\
| =========                 |                                                 |
| \\      /  F ield         | OpenFOAM: The Open Source CFD Toolbox           |
|  \\    /   O peration     | Version:  2012                                  |
|   \\  /    A nd           | Website:  www.openfoam.com                      |
|    \\/     M anipulation  |                                                 |
\*---------------------------------------------------------------------------*/
FoamFile
{
    version     2.0;
    format      ascii;
    class       volScalarField;
    location    "0.105/solid";
    object      sigmaEq;
}
// * * * * * * * * * * * * * * * * * * * * * * * * * * * * * * * * * * * * * //

dimensions      [1 -1 -2 0 0 0 0];


internalField   nonuniform List<scalar> 
3125
(
236619
173997
123264
57739.1
4839.29
295819
181137
229872
209394
284175
199657
137070
64968.9
115968
72530.5
128751
5642.83
5202.23
64603.9
4411.52
579624
531203
195030
266170
330860
152374
258066
357738
277055
184000
145124
248244
3372.07
26676.6
65681.1
36090.5
32614.7
65408.6
30874.7
3258.76
28788.2
28451.7
615522
559898
565781
471355
202320
341793
421581
518694
209286
433404
369856
458260
600222
496567
239994
355280
440775
546220
250676
453535
386764
482300
202378
276620
343654
171743
266843
373782
288080
189822
162828
256561
185640
125852
86772.4
71076.7
114315
175509
94060
121285
71188.6
118202
192665
131278
96363.5
74441.1
118418
181069
104366
125518
75663.2
123479
4984.32
29714.7
68943.8
40829.7
34950.7
69774
34136.5
4626.53
32792.1
30616.9
795636
344919
245973
287248
231268
166817
212646
476446
425845
143765
130565
160099
3074.79
6936.04
63281.9
50516.1
50991.6
67848.6
47417
2897.94
12936.8
15394.8
799202
378121
775603
716309
188244
237579
256845
337913
223062
317120
493754
546919
779034
719362
219354
253331
275146
369767
272769
345070
495691
549069
247461
288740
246249
190146
225511
478322
427566
151015
145504
168380
232814
195201
72225.7
67465.1
80444.4
138477
108661
122991
75438.4
100500
234306
196731
80451.1
71410.6
84888
145426
120545
129153
77310
102269
13072.7
14735.4
3894.79
8428.27
67058.6
56691.3
54239.6
69750.4
49381.9
3258.14
15191.2
16860.5
737967
389943
346245
301583
232176
224393
270298
324739
234563
283531
254829
298833
232939
159615
188648
206564
288428
204876
225800
361663
409436
444704
322241
398107
338957
310707
382989
153031
210531
171769
137847
182815
165666
219714
198075
178205
21177.6
9925.34
3269.89
11229.5
8042.11
22684.5
14911.5
11246.3
63956.2
50565.6
51071.3
43314.5
35209.3
47011.4
45864.8
34811.4
46925
25656.4
41396.5
67079.3
49401.1
47907.2
27086.8
44488.9
42206.6
2715.29
12636.9
14900
21369.1
31328.9
19509.9
16504.7
30852.6
18986.3
752863
422342
719589
524754
665175
639331
696832
511259
594484
647293
195304
283204
263362
262277
375318
285045
316320
386723
292770
381566
481629
356721
216204
289906
310256
469439
324292
348534
620494
565035
460634
407008
509545
577179
419644
526204
733886
555026
677766
641938
699767
540212
605008
659345
229555
305424
282579
277657
391066
302924
338032
403285
311551
412647
505814
384025
261599
313189
336997
492567
347049
374651
622998
567267
467794
426741
517839
587222
440397
534911
347797
303085
235671
232884
274197
329367
243496
287592
269447
309731
245474
180839
199173
218797
298753
215097
237708
363241
411113
451519
335913
403984
343806
323664
388586
160016
217276
179770
154090
192834
174340
226813
207793
186595
220014
158713
185237
149629
183309
150166
143052
174233
79489.9
98654.9
84878.3
68411.9
88420.9
82328.3
102244
94592.8
87155.1
146984
151130
129437
101363
103367
117992
143381
107475
123795
139091
109600
74162.8
89928.1
97484.1
133287
96642
105936
223400
164920
188367
151244
184855
156150
145982
177298
88401.6
103786
89487.1
72268.1
92081.8
86641.2
107192
98354.3
91619.2
153673
156019
135362
112416
108683
123924
148085
112595
129498
140732
111337
77020.7
94716.2
100341
136189
101541
108798
23048.6
11535.7
4477.1
13277.6
9824.64
25113.4
17201.7
13204.9
67657.9
53484.7
54278.7
48759.1
37702.2
50078.5
48656.1
37289.3
49959
27575.2
43364.6
69933.6
53381.9
50710.8
29631.6
48317.2
44969.4
3460.65
14073.2
16373.3
24618
33627.6
21190.9
18116.1
33139.6
20668.2
926578
950391
278773
294601
550015
529879
896.33
1242.25
69710.8
61323.1
919344
942846
902918
879415
570410
591053
895988
872785
567234
587678
277854
293586
547034
527083
263306
248197
78575.5
87899.6
262468
247445
78463.6
87764.5
7852.39
4736.38
8088.76
1047.64
1466.4
69624.1
61259.9
8076.91
3740.31
7398.67
4065.96
7243.96
7828.48
3672.38
630415
593544
556593
569701
645813
472260
484019
543783
510479
522222
495238
461945
396704
378871
206590
204621
189810
199094
217102
258470
284666
255458
248159
272894
285885
305138
321367
320054
311035
295053
295471
241482
251478
268040
239959
261095
232913
248900
414853
433299
385437
346237
345762
334795
372242
268937
296632
288110
279560
308788
176197
173397
192669
179605
188058
181208
168606
216102
241992
238575
231150
232639
224450
222474
16906.4
12780.6
3224.26
4555.92
2303.75
3845.02
4038.34
25690.7
25251.6
22626.1
21744.8
21187.5
57775.6
65268.2
63295.9
60468.5
58166.2
62590.9
60356.3
35778.7
30942.9
36895.8
33581.9
35102.5
31734.7
37766.4
21621.5
26900.2
65672.3
63527
59854.9
58093.8
59759.2
29780.8
29509.9
35234.8
34034.4
33974.2
4714.81
2998.88
5212.04
2246.56
4278.09
5542
2156.3
23898.5
26906.6
24390.2
29481.9
22977.6
27779.4
25448.8
660286
630935
618362
676911
634032
547143
512571
573675
577936
524981
592481
533841
615106
543550
552022
530578
599893
742066
764493
454315
484556
510761
466820
525341
313645
314915
331804
352849
304307
342343
324799
361508
407535
386202
409859
371292
396456
375735
441439
472861
498790
506261
451670
487156
461771
391049
418697
445323
396758
429932
381140
407397
719841
697820
398790
357806
382110
369495
412297
441899
496306
445276
429582
481974
643779
602817
585036
627393
587396
737084
759251
497754
510977
531862
547432
512332
349594
328399
367059
363708
338996
375935
338472
407531
452765
405326
428144
393960
419563
439564
507578
500252
563509
532644
520652
488027
549202
444052
466118
466424
416811
428410
479620
431739
715107
693335
413114
399921
387032
427354
400263
483333
516444
468180
501182
469068
395011
377305
213296
212320
202744
224077
212623
276674
293797
265369
281598
265445
316714
317939
332186
351656
307620
327510
339783
265268
272415
277304
248806
258225
283168
255502
413017
431327
399060
360977
373985
385196
361125
288120
306219
299743
318861
299777
192255
179337
198775
193690
187429
202804
183964
236512
261860
246461
239545
230445
251508
245915
196305
180713
176455
171808
186251
165580
178365
122599
133730
130996
130279
139579
72675.8
70326.6
68612.5
76661.8
67555.5
74118.7
75538.8
100710
111255
110232
107543
106806
104579
104036
153835
165740
171313
167199
161150
163186
158237
119469
118122
128454
116593
125176
113058
123124
153207
141243
71852.9
69185.5
77200.1
75070.2
78302.7
115138
122672
110783
107899
114609
202764
193100
183182
192485
183689
165198
177929
132273
139324
136292
144990
140236
81943.7
73716.4
80124.3
76975
79040.8
82721.7
76530.1
111438
121366
114437
111525
108114
117851
114411
167954
171420
184791
172516
175863
163677
176108
131236
128536
132831
120937
127616
135925
124453
152865
140951
76536.1
81779.3
77193.8
83055.7
83265
124557
127865
115922
119711
117078
17046.1
12961.2
5146.19
6366.64
5513.21
6237.86
6922.93
31077.7
28673.6
25427.4
24363.7
26699.2
66137.1
68543.1
63624.5
71408.6
63512.3
71259.8
66018.9
42276.2
36755.1
39393.1
35863.4
40213
41320
37791.7
21716.2
26968.7
70279.2
64102.2
71336.9
64279.4
65685.1
35573.3
33154
38704.9
37820.4
40201.5
7573.65
4225.61
6469.33
5268.34
6662.64
7214.15
4997.3
29026.9
32289.9
26376.5
31592.2
27381.1
27916.2
33375.1
859945
815797
881963
226319
195434
194079
225732
327300
310780
261294
259435
275911
306114
273197
290855
167550
153635
169594
152734
162798
147268
148394
160609
490407
510009
511877
459354
493270
456800
442485
474910
120755
111877
114213
117837
125071
120210
118063
127874
3966.71
2304.85
2015.81
3018.8
2181.72
5404.74
4513.88
3338.46
53308.9
56411.4
56821.3
52858.7
49855.9
46067.9
49701.7
46310.3
46009
53420.4
68295.8
60649.4
60545
46358.4
53834.8
53229.9
7011.86
5620.4
7519.5
4799.4
10630
15096.7
10831.8
14818.9
177732
253627
256239
147464
148541
152659
151775
174249
174443
171024
171001
187566
189934
197498
195135
247134
244598
235810
238292
853197
819502
874922
331473
285332
289472
325769
838072
755700
816343
832912
856079
735933
773350
794769
176298
158051
174394
158726
181175
163673
163243
182918
219693
190193
220457
191270
214470
186963
186145
213536
633071
611944
530725
511272
549801
588633
528996
569108
831608
759000
810161
826858
849735
739108
767713
788860
228116
202472
205899
223562
235051
215316
211822
239737
311714
277957
273927
317264
303422
262831
266756
298021
629276
608357
527860
513276
546740
585158
531070
565841
144259
143009
138394
139816
107482
109906
115268
113006
182537
180138
172832
175278
130401
133354
140272
137418
58755.4
62210.8
68570.3
65229.9
104397
101820
96029.1
98743.1
71615.4
75638.3
83231.5
79317.8
126424
123342
116226
119445
326089
309664
260800
260922
275312
305288
274685
290144
212407
196747
216847
193362
205934
184494
187841
201601
487963
507386
509206
461175
490786
454670
444254
472605
146797
134987
138399
142861
152017
146283
142907
155996
247011
219961
233060
219106
233466
207421
206196
219456
63809.3
59611.9
60329.5
63074.1
67426.5
69700.5
66352
70850.5
110614
108113
113624
105607
106463
99238.8
101908
103365
107918
97688
76484.9
83412.3
85092.6
103567
91769.3
94126.2
246615
221463
232765
218498
232778
208936
206079
219248
78294.6
72277.4
76382.5
74181.8
82512.2
84222.6
80204.5
86590.4
133872
130603
127126
137796
128986
119318
122865
125063
107731
97519.7
77111.8
85250.9
85675.7
104051
93573.4
94657.8
55753.8
52213.8
45596.5
49210.7
6328.87
7893.92
15092.2
10914.5
67951.8
63806.7
55910.5
60163.4
4612.62
9016.19
19624.5
14251.6
4283.93
2665.22
2346.73
4283.32
2718.23
6256.6
5893.29
4076.86
65839.3
68493
70005.1
64288
61757.1
56269.7
60556.6
57540.7
45995.2
53371.1
68969.1
62577.3
61262.7
47156.9
55786.2
53987.6
8426.38
3333.51
7243.74
3814.93
7366.34
3697.23
8177.79
8740.09
4195.03
8850.06
3922.48
14356.6
19563.9
14191.1
19714.9
685319
756459
702306
344163
361352
370225
331090
353752
321690
316200
337571
219596
244613
231085
214411
218202
238787
208559
227837
257323
254801
242822
305036
310758
292139
244920
228018
249950
238006
261321
297020
267017
279464
276810
309376
290706
276482
267830
300814
285918
148996
135943
146535
137503
153616
143019
155936
141677
250161
278162
280714
267165
258945
270843
257969
471086
452046
386991
377339
404036
438946
393265
421357
415599
428968
401106
333927
312289
346343
323477
359210
413434
372673
386796
318150
353409
331475
299329
301238
333648
290328
321128
368087
358742
345007
183923
201515
205441
197282
196672
191781
189171
139430
131865
142009
130106
134955
124133
132257
126089
207873
229064
214362
205537
223428
199766
213935
6317.25
9250.42
18916
17070.2
14837.6
8069.72
13317.6
11222.1
3566.94
3341.77
3802.32
7722.34
10607.4
10068.4
7132.75
6808.98
5303.48
9147.48
6144.21
24110
18582.4
20015.3
18709.3
14223.5
13594.4
17930.4
17305.3
14768.6
12524.7
16153.6
53110.9
55431.1
48449.4
50950.2
48588.5
53221.1
55584.5
36036.1
32382.4
32395.9
36187.4
39364.2
42971.5
42946.3
39256.3
39928
41309.8
43845
46443.9
44195.2
39399.7
42051.2
39113.9
32738.2
23471.5
30518.1
28496.9
39947
35761.3
33989.9
66514.7
60344
60194.7
54520
47866.9
48710.7
52876.5
54106.6
53951.3
48460.4
54176.8
28448.2
31803.6
33042.9
39768.6
43065
43564.2
38457.8
38654.2
36838.7
43038.8
37901.7
8646.7
8841.55
11621.4
13532.8
7945.6
12460.2
9539.93
25368.6
29340.7
29118.4
25396.6
22057.8
18312.7
18264.6
22316.8
20077.3
20415.4
15369
17510.7
19141
16282.7
21468.2
160445
159918
155926
156630
163766
164107
167622
167468
213169
210802
202875
205235
218920
221316
229690
227251
706336
771967
724189
668434
701327
651655
538344
504835
569753
517670
584773
683187
618431
634986
809922
787112
689373
658337
710104
752099
677506
731014
497858
492083
554840
479409
540035
553439
611944
569496
601994
629547
585681
194431
173117
173173
195861
189439
168279
187846
168471
323067
364026
363717
344880
332567
352983
334789
351790
398238
374543
355070
342143
385459
365355
431255
493904
464067
439797
475579
421125
450748
202172
177917
177610
200902
207280
181954
208380
182518
401019
457336
452621
428920
441241
411044
418119
654434
676016
668831
601829
648479
608376
583340
628327
430270
476753
445112
394495
393210
439751
381298
425951
493059
475296
460123
537524
560027
521749
432403
405231
453690
417360
467766
543032
490628
506112
688605
715041
670999
569969
595002
556951
611133
572106
696332
636185
653525
804144
781606
684755
661050
705239
746723
680328
725897
525527
579006
541935
563148
527061
568267
622962
585022
618985
641075
601929
259133
234994
231352
264090
251730
221448
246913
225010
360875
378989
360597
400896
349731
372311
388332
395643
415646
371591
413624
382713
383902
426515
494622
519174
463868
520967
475897
535020
481788
276828
241544
245275
271728
284686
255862
289938
252033
456500
479436
451943
507048
440122
493264
469080
650412
671765
664452
604236
644336
604684
585657
624411
440321
484276
455679
413249
456371
427268
441774
413676
500959
486962
471228
551671
569607
535238
454211
471142
441032
486080
454966
552168
502880
518973
128690
130466
135219
133622
125556
123615
118383
120483
158520
161084
168139
165631
154109
151458
144430
147180
81000.4
77878.5
71609.9
74840.6
84047.7
87037.2
92952
90102.1
98031.6
94407
86912.7
90692.1
101775
105267
112404
109041
342837
359910
368876
332619
352540
320741
317714
336494
224352
248232
236024
222493
246375
233077
235106
222737
261076
260156
247960
311456
315182
298263
254326
257883
243643
269625
254434
301257
272610
285313
306083
320876
287414
316575
297443
295620
328087
185082
167376
170688
180937
191106
179161
195346
175831
275212
287942
277533
305250
267803
285329
294113
468802
449920
385496
378947
402393
436983
394905
419556
425158
435455
410196
348353
358052
335988
371525
348458
419609
380891
395439
324887
358493
338551
311606
344780
323714
331715
311642
373421
366557
352443
200733
207930
204131
221663
195696
212130
209398
171035
162402
159077
175113
165432
150935
161413
154276
227291
236544
212735
231405
221508
241356
218251
208359
208133
197379
167477
154583
166848
163097
176430
196539
176209
186661
205135
191550
156780
160514
168583
193298
171744
180757
141837
146273
157511
138170
148420
137162
153133
146501
166029
163529
156125
81715.5
82793.9
79684.2
85035.7
77922.4
73039.7
74543.5
76275.2
77958.9
82445.1
85717.3
86446.9
83404
79820.8
80913.9
94777.8
100968
91809.8
92142.2
89010.7
98097.3
98005.2
146665
159071
147450
143705
155231
139642
150891
92162.1
86268.8
89239.9
88903.8
96136.3
95617.9
99313.9
92796.1
126039
135820
139844
136682
132417
132764
129820
118597
129705
145362
128904
134322
113420
119073
123675
73143.1
81592.6
80080.1
83446.9
87518.2
92016.2
81181.1
85024.2
89368.4
94877.9
87325.8
128112
123843
119355
103595
94084.6
99277.7
100880
106810
114725
102735
110896
212950
211424
201822
173932
172698
165584
182461
174515
199744
180401
190971
204586
191061
156965
162106
168697
193259
173312
180799
147616
163196
156895
153959
148445
141014
156102
150421
170116
166543
160123
99322.6
99748.4
95936.3
103306
94933.9
88096.2
90907.5
92011.6
87512.7
86008.5
90173.1
94792.6
84530.2
93240
88661.8
105201
104837
95979.2
101124
101961
99133
107664
160232
164164
148717
159380
156108
167636
152697
111765
103743
107461
107818
116373
115157
120309
111523
138202
140354
141508
151346
134473
143528
145356
118372
129446
145609
130574
134635
113849
120775
124047
76717
84451.9
83681.5
88132.3
96898.6
96091.1
89842.5
89564.7
92227.1
98527
90951.3
131908
126725
123104
108611
104230
102849
111835
109844
117596
106415
114608
32132.2
35916.6
42600.7
38905.7
29132.6
25227.7
18248.4
22193.5
39958.6
44355.7
52299.4
47957.4
36358.8
31830.4
23551.7
28212.2
6584.93
9474.8
19853.5
18873.6
15781.6
8980.82
15037
12164.1
4979.55
4971.71
5602.3
9560.24
12457.2
14191.8
8988.32
10326.6
6951.61
11116.5
7941.32
26906.1
20874.1
22623.6
21258.8
16237
18253.1
20217.9
22428.9
16905.3
14708.8
18558.2
61140.1
58471.9
53843.1
55716
58611.9
56261.1
60789.3
45253.7
40130.3
44555.7
40957.7
49228
52571.9
53492.3
48205.7
46842.7
43958.9
49200.6
50790.9
44659
51503.1
45992.9
39118.4
32770.1
24388.3
32467.7
29392.1
40777.1
37725.8
34853.7
70056.8
63190.2
63697.2
58640.7
53019.3
54974.2
58529.4
60233.1
56783.7
51852.9
57632.4
31407.8
34442.6
36143.9
43425.4
47737.5
49890.1
42674.2
44965.9
39549.5
46350.5
41118.9
11838.6
10127.2
14918.6
15162.6
10757.5
11075.2
16126.3
32560.2
36486.4
31919.1
36971.9
28588.4
23555.8
24050.5
28264.1
24722.4
22216.9
19072.9
19364.9
23216.5
23615.8
20431.4
6611.22
4101.92
7146.87
5154.98
7019.44
6878.24
4379.98
7724.45
5984.07
7601.89
5123.86
2752.2
6122.82
2535.49
5536.99
5837.84
2199.25
7788.32
3795.58
7051.09
4164.35
7995.88
6863.93
4560.7
282264
310236
351944
320387
314742
278441
326364
193664
212074
220057
225000
197889
207616
214363
188536
203014
218801
196916
201359
208642
184303
133722
136432
149147
138230
140748
129502
143340
138416
153777
154577
150387
146047
148559
142661
55419.7
62470.7
60271.9
59123.4
59252.3
58387.4
56272.2
51701.1
48424.6
55047.4
50546.4
54613.6
52310.5
47927
6346.13
3377.21
6451.54
3047.73
6797.68
3727.96
6031.6
10390.3
14318.9
11024.4
15926.9
11024.7
10271.1
14688.1
376098
338158
386565
406163
344850
367666
415678
207255
218477
225834
243952
203063
222947
231579
212492
243209
233972
250370
229490
216657
237413
269070
302870
314364
330951
272958
298364
308397
263613
296441
324015
286591
291098
302389
259677
252894
231828
260519
266638
237689
246058
274440
259833
290530
250173
267782
244193
266876
282496
351096
330600
396556
361457
359341
323995
387231
342956
368693
353237
310064
316573
377821
334894
232696
225491
239240
258823
219742
239319
251260
226170
236362
232337
207940
213568
243691
219744
155570
143042
156714
157055
147991
150264
162987
160927
175257
162493
158230
153171
169105
166396
66923.2
66363.1
64349.3
71736.3
63044.1
70465
68464.5
70829.4
76923.5
78619.5
76045.5
74492.4
74763.9
72677.8
120705
131300
133126
133236
124909
127014
128122
116197
118248
128090
117785
122048
123130
112036
78930.6
70230.9
75845.9
74597.9
74567.5
74483.9
79146.7
83255.1
88462.2
83061
80325.9
78668.4
87765.3
83790.8
139918
138024
151159
139906
145064
133170
145444
134888
134251
134495
123545
128302
139767
129870
65824.5
66234.9
62729.3
70069.4
61931.3
70213.9
65629.9
61637.2
56854.1
58473.8
53748.8
58014.5
61208.2
57274.3
13783.1
18129.5
12230
17268.9
12215.7
13422
18911.7
421850
436484
398356
365144
372534
446297
413001
260859
279589
243424
247456
236612
268839
271079
252943
223120
240160
254344
229833
245104
262663
169982
176025
180727
194563
186210
165725
180434
174986
197360
190811
200525
179242
191797
186385
222057
222095
196819
211766
203297
214541
229999
229659
216451
246126
218742
237340
209853
238011
164547
163002
159181
147453
153354
169967
157813
171389
165402
165426
184268
159346
178333
177057
156536
170233
175226
177027
160803
169822
165849
151679
159094
155853
171322
147430
164404
160217
199777
214302
190393
191361
207112
184048
206620
192530
171548
191600
184739
185383
177754
199052
57298.8
64675.6
60949.4
59582.8
56712.2
61812.7
60044.9
52895.5
48475.6
55291.1
51103.1
52552.5
48602.5
55521.7
36962.9
35161.9
33259.5
39121.4
36988.4
33234
39231.5
40549.1
44567.5
46880.1
43038.1
44294.8
40771.4
42819.1
36305.6
34302.3
32830.3
38798.8
36654.7
32370.7
38388.2
40316.6
44470.7
46782.4
42835.8
44411.3
40537.2
42546.7
9257.84
13807.9
10599.7
14279.8
9775.87
13187.4
10126.9
25899.7
31620.2
29522.8
27413.5
29683
25797.9
27479.1
22308.6
18264.6
19673.5
23492.9
18478.3
22031.9
23918.5
24671
30273
29033.2
26910.3
28497.4
25266.1
26282.4
20869
17707
18331.6
22961.6
17063.9
21490
22312.6
502806
467110
432117
447781
458605
478204
490727
231378
256444
266705
276545
260830
235469
251948
226056
249083
240650
269932
221933
254918
245140
285011
288193
250303
269797
257213
276893
296887
293194
271175
277388
314536
264181
301433
305670
326498
350809
299560
308410
292420
334954
341626
318088
278225
300559
323486
285298
309734
332516
395396
426722
357758
373240
350409
404181
417017
386640
335755
364955
397780
343064
377926
407368
244862
263375
272648
296648
240823
278548
267877
250260
290450
279431
303434
254252
284521
274926
352013
360066
306749
332317
343461
313952
369393
360611
328457
388252
340401
369247
321200
378790
288639
275956
297721
324113
269753
315625
296095
281284
298826
256834
290117
274027
262928
307093
323937
302685
285973
289767
298693
312139
313905
334121
316970
294398
331409
307777
321716
344446
376272
371324
329109
355073
361180
345369
387152
365524
326315
320280
341220
351143
335766
354917
466888
456100
437030
403025
426409
478749
445176
455134
405462
393484
423594
415867
434339
443500
311322
282932
321053
332874
289241
303656
341585
319077
359492
302787
328977
326941
296372
350569
409312
381576
356160
364922
391930
398170
374869
420586
395141
412943
365361
402387
431979
384959
294280
293353
261346
280953
272294
284147
304015
284696
255372
253353
266118
263754
275067
275268
201087
185191
205624
208025
190582
214877
195066
207203
229040
201937
212155
213421
196421
221951
247918
231650
222515
223203
240062
231025
239123
256878
247111
257299
230055
248614
265993
239005
182095
169458
166477
165634
172332
176722
174609
189751
186163
173066
191696
179184
184138
197570
183315
179522
186569
201193
174239
189140
194580
177591
181608
163565
180418
171940
168735
187994
222011
223376
200609
215506
215242
230484
207963
213701
193292
199400
193541
207249
205554
200551
86852.9
95437.2
94625.8
93985.1
90116.4
90897.6
91259.7
82744.8
81264.1
82786.7
89411.9
78762
85637.9
86940.7
71206.6
69420
65283.8
72957.1
69701.9
66447.8
74285
76091.9
78828.3
77595.6
84393.6
74221.7
81102.8
79277.1
96920.5
106177
98243.1
97114.1
93249.7
102449
100532
91516.7
83540.3
92086.4
89639.1
88342.2
86245.3
95018.7
144680
156165
141626
141034
135897
151188
149455
138281
124679
135186
136424
130238
132004
142874
99181.8
99910.9
99234.1
108178
95097.2
103868
104118
103497
113379
112987
113036
107627
108616
108753
113895
111957
103346
112813
108109
108533
117872
119808
119203
130108
118251
125844
113828
123923
101289
100548
98940.7
107951
96033.5
102988
105951
96779.9
93241.7
87258.2
94191.5
92187.7
91713.8
98059.9
81107.4
73024.5
76963
75439.3
80256.4
78021.1
76005
86334
90177.9
81758.5
88394.3
85174.7
83146.7
91688.8
108555
110735
101897
111234
104943
105808
114462
102795
95283.8
96704.2
93772.1
99287.7
100489
97174.2
160119
162341
159060
147451
152631
167280
155373
153120
140167
141344
141879
146327
148550
146283
115357
104987
113689
113049
109578
110586
118190
120098
128781
118830
118751
124983
114155
123460
126725
116671
118114
116776
122752
120521
122435
133087
134126
135357
123747
128982
139605
128220
66125.7
68144.1
63124.8
70698.1
66036.5
63373.5
71008.9
61344.5
56926.1
58664.6
54135.5
61445.5
58704.6
56652.4
44707.9
37627
41806.8
39726.4
41866
43957.3
40399.8
48800.6
52513.3
49911.3
45916
53129.7
45658.3
48232.2
43050.8
36664.5
41465
39360.3
40927.9
43683.8
38647.5
47513.1
52460.8
49658.5
45688.8
45258.4
52045.4
48050.8
12469.9
17703.7
11831.8
15698.2
13033.8
11342.6
16955.6
31935
33860.5
29509.2
35470.7
29546.9
36289
31233.4
27813.8
22649.2
21308.1
25392.5
23352.4
25735.4
26964.2
29964.2
32452.7
28997.4
35057.1
28275.3
34284.4
30765.6
25666
22157.3
19942.4
24850.3
24116.4
21349.9
26478.2
)
;

boundaryField
{
    left
    {
        type            calculated;
        value           nonuniform List<scalar> 0();
    }
    bottom
    {
        type            calculated;
        value           nonuniform List<scalar> 0();
    }
    interface
    {
        type            calculated;
        value           nonuniform List<scalar> 
2171
(
4020.23
4946.01
4293.98
3320.1
2991.96
2777.5
4607.43
4146.7
791788
245401
286542
474861
424534
2993.4
2679.91
6810.81
67574.2
47159
1589.17
804676
771920
713098
492069
544909
784282
723965
498154
551996
248207
289715
480640
429480
232279
194761
75158.6
100204
234984
197231
77399.9
102424
3799.26
3973.17
8390.72
69822.2
49407.5
1759.67
735028
345309
300825
231664
269682
323948
282875
360660
408208
443428
397035
338116
381979
20979.1
9786.63
3137.13
2875.74
7953.38
22519.9
11140.2
25440.3
41145.5
66827.7
47677.5
26904.8
41986.7
1399.05
756178
716770
662701
636694
693771
592432
644930
617991
562908
459283
507955
575225
524527
737059
680530
645746
704164
607271
661979
626620
570360
469212
519549
589368
536724
349141
304145
236031
274695
330092
288143
364690
412904
452847
405061
344594
389586
219532
184830
149275
182895
142717
173847
138753
109295
73904
97204.3
132966
105647
223720
188581
151559
185303
146089
177482
141009
111518
77006.9
100360
136275
108831
23019.9
11494.2
4336.01
4550.46
9779.46
25056
13150.8
27555.3
43377.8
69911.8
50668.6
29574.8
44922.9
2222.44
278400
548997
901.753
922709
278375
548489
262954
262952
78617.5
3488.83
1008.33
69767.5
2397.22
2528.77
1462.78
628022
556192
569280
471819
510683
522428
461523
396100
206057
189772
199053
258402
283903
285720
321511
311174
294879
241358
251582
261205
232795
414203
384293
346103
268863
295828
279478
176111
179657
188117
168524
215996
242089
232730
224339
16735.9
3005.52
2928.67
1919.35
2197.14
3777.33
25659.5
25105.6
57715.3
63256
58124.2
62529.3
35730.2
30899.9
35058.1
31690
65410.6
63493.2
58058.8
29749.1
29343.9
4689.7
2268.54
1600.39
2111.29
4241.45
1074.7
2034.49
23861.6
26865.5
22939.2
27738.4
661876
619388
635098
547935
578783
593359
534599
612803
543169
530216
740371
454061
509030
313450
331953
304123
342498
361251
407715
371021
396632
441054
498991
451267
487356
390748
418881
430119
380855
397590
357661
369338
441661
494648
645288
603802
739439
498477
532861
513090
349920
364128
376376
338775
407982
453356
420041
440128
508269
564326
521375
549990
444587
466735
480263
432245
717351
413653
387507
484021
517379
469724
213299
202889
276937
293974
265689
316975
352053
327791
340157
265434
272672
283442
255652
399551
374433
288403
306428
300081
192310
193822
202949
184010
236632
262099
251730
246049
195797
180678
165341
122571
130626
72612.1
68575.4
67493
74085.2
100643
111250
106738
104569
153758
171358
161071
163225
119400
118123
125183
112990
71580.1
69151.9
75037.1
115109
122317
202750
193232
183808
165474
132331
136194
140302
81908.7
76971.3
82721.9
76494
111415
121403
117833
114440
167981
184910
175898
176214
131227
128582
135979
124439
76417.9
77204.3
124607
127762
17092.1
5271.96
4848.05
5041.59
5526.81
6926.6
31068.6
28585
26689.7
66099.9
71401.4
71222.9
66008.1
42241.9
36735.6
41300.5
37758.8
70162.6
71344.2
35564.8
33059.1
7585.37
3554.88
4619.57
5314.85
7224.91
4105.25
5046.96
28997.8
32270.6
27897.2
33343.9
854338
811782
225894
225337
260488
258821
305107
272538
167402
162653
489565
509572
457865
454897
441086
120696
117789
125013
1728.26
1987.87
2825.31
5255.21
4378.43
53297.5
45814.9
67965.9
60379.5
46052.5
53569.7
6986.28
5102.86
4785
4217.78
10609
859790
825204
332095
832704
752179
830848
732569
768671
176111
180983
219331
220067
528271
509483
585707
527099
837933
764029
743922
773271
228326
223836
235367
312356
631097
530868
515888
588720
533838
326743
261773
261741
306529
275581
212643
217022
206078
489176
512042
463353
457026
446299
146824
142922
246260
219461
206951
205594
63792.6
110573
107713
76144.1
83127.6
103200
91479
247508
222079
209492
206764
78286.8
74183.9
82517.3
133920
137811
128994
107918
77328.1
85361
104340
93705.5
5885.21
2611.97
4197.51
2314.79
2302.96
4305.14
6250.4
5869.07
65840.1
69997.3
61750.4
69165.4
62633.1
47297.7
55827.3
8409.59
1805.33
3773.03
1692.09
3586.3
1051.65
8169
8732.89
1746.62
3919.12
571.274
14354.8
682587
753397
343671
368875
330217
320603
315386
219083
244068
218154
238166
256744
254196
304275
310015
227966
249295
237949
296322
266376
276654
290833
267683
300947
148887
146440
250029
280836
258806
270959
385539
376265
437164
392116
414399
427763
312184
345357
412297
371658
317343
352514
301141
332710
367136
357783
183834
205513
196737
191688
139348
207772
214440
223513
199669
6180.78
18679.3
16889.7
7901.09
13157.8
3268.16
3384.99
3176.49
10577.1
10012.9
7099.05
5208.44
9060.11
23928.5
18435.5
14194.8
13514
14642.6
12411.8
53052.5
48404.3
48532.1
53177.1
36025.9
39876.3
43799.2
44141
39353.9
38918.4
23211.8
30288.3
39647.2
35519.5
66231.1
60098.9
47832.8
48483.6
53713.7
48201.7
28245.5
31607.4
43030.2
43350.7
36628.9
42792
8629.56
11594.6
7921.64
12439.5
25358.9
22048.5
20045.4
15337.8
19105.9
16256.2
709581
775427
665813
698626
504511
567707
517327
680602
616130
685531
655563
747636
674590
491777
552875
551526
609791
599795
627290
194189
322861
363881
332350
353142
351546
374711
341912
385631
430888
464262
475776
420775
201878
200633
400702
452813
441431
410711
665183
599456
605278
581093
429001
475327
393029
438367
491552
473809
535703
558169
405036
452241
417150
541266
489061
691709
718074
596282
557819
699230
638885
689367
665050
752036
684524
580213
542766
527855
570469
625345
621556
643583
259544
264427
252022
361224
401385
372684
388797
396067
414138
384300
427054
495280
521696
535778
482414
277216
272191
285205
457065
507748
493936
469675
668842
607677
608444
588922
441684
485788
457067
427829
502569
488615
553757
571638
471894
441624
455590
554089
504636
370556
333864
322083
318865
224655
248635
246442
233268
222911
261526
260600
312125
315846
257975
243851
301862
273105
306323
316908
295840
328441
185175
275395
305563
285530
294407
469943
387300
380504
439192
396578
426431
436696
358410
336359
348855
420767
381914
325620
359349
345098
324063
374347
367502
200800
221837
212289
209477
171153
227396
231595
241561
218343
207872
207678
154553
166407
196108
175788
204859
156315
160142
192734
171352
146244
157090
138141
136802
152783
165625
163162
81695.7