/*--------------------------------*- C++ -*----------------------------------*\
| =========                 |                                                 |
| \\      /  F ield         | OpenFOAM: The Open Source CFD Toolbox           |
|  \\    /   O peration     | Version:  2012                                  |
|   \\  /    A nd           | Website:  www.openfoam.com                      |
|    \\/     M anipulation  |                                                 |
\*---------------------------------------------------------------------------*/
FoamFile
{
    version     2.0;
    format      ascii;
    class       volSymmTensorField;
    location    "0.105/solid";
    object      sigma;
}
// * * * * * * * * * * * * * * * * * * * * * * * * * * * * * * * * * * * * * //

dimensions      [1 -1 -2 0 0 0 0];


internalField   nonuniform List<symmTensor> 
3125
(
(-4709.04 1799.02 -100687 4197.28 -8987.1 158690)
(-1656.74 1121.82 -82629.8 1202.15 -6556.33 98022)
(51.4632 658.45 -63607.4 -29.1151 -4511.04 54728.6)
(1175.06 198.395 -32430.4 -537.425 -1984.08 13144)
(3456.99 945.032 -1567.89 -449.466 -102.144 129.688)
(927.058 -3102.15 -100724 -7904.62 3581.85 235147)
(-1953.63 1195.56 -84974.6 1452.03 -6843.01 104606)
(-4322.13 1725.65 -99008.1 3783.49 -8736.73 151869)
(244.585 -1754.99 -89173.9 -4041.19 4021.6 139234)
(818.936 -2919.95 -99716.2 -7340.27 3664.05 222149)
(194.614 -1601.05 -87146.1 -3663.59 4034.48 128694)
(-24.2709 -665.074 -69116.3 -1720.17 3765.87 65543)
(1095.35 245.226 -36230.9 -521.241 -2248.43 16584.4)
(235.054 601.673 -60513.6 -138.491 -4218.44 49123.3)
(-194.405 86.3552 -40307.6 -744.408 2520.92 18694)
(-35.6819 -548.256 -65982.7 -1530.92 3669.19 58146.2)
(4533.15 908.312 -1577.99 -359.178 -82.5865 105.899)
(3791.25 814.026 -1701.15 -532.507 -1.44613 89.1079)
(-195.036 150.304 -36162 -683.331 2288.88 14878.3)
(2663.13 846.456 -1686.15 -591.965 10.174 121.365)
(-11338.7 2999.24 -76663.9 -487.646 -7319.43 558051)
(-5345.71 2361.14 -83010.6 565.97 -6279.72 508827)
(-3065.62 693.379 -48592.4 -935.591 -3571.29 173811)
(-4014.56 1028.22 -56341.9 -863.526 -4406.83 245058)
(-3018.47 1120.56 -69746 -378.654 -4368.1 306211)
(-846.521 913.261 -75038.3 563.058 -5685.02 78755.2)
(-2440.06 777.285 -62574.7 -625.852 -3582.46 232579)
(-5670.31 1529.45 -64063.9 -763.561 -5364.98 336714)
(-4186.85 1084.43 -57372.5 -852.377 -4527.44 255960)
(-2036.88 502.413 -53092.6 -814.705 -2720.15 157871)
(-606.11 848.729 -72326.3 385.492 -5390.91 72537.6)
(-2374.75 736.153 -61465.2 -654.692 -3471.73 222652)
(-3335.95 336.372 -889.786 -743.871 -149.001 -155.631)
(-1622.17 142.448 -13178.1 -1010.2 -864.903 12397.6)
(-1840.82 251.723 -28466.4 -962.029 -1159.1 41936.7)
(1540.55 77.9028 -20603.9 -582.536 -1238.9 5057.19)
(-1453.31 201.863 -16467.1 -943.663 -681.929 14565.9)
(-2205.68 236.981 -25972.3 -1046.36 -1663.02 45756.8)
(-1726.43 152.743 -14886.6 -1025.85 -963.615 15511.5)
(-3021.64 455.038 -959.903 -735.159 -148.764 -76.5487)
(1808.12 45.1577 -16481.8 -566.786 -1012.36 3170.88)
(-1362.12 192.91 -14634.2 -934.273 -621.332 11720.8)
(10707.8 -791.852 -76796.9 -1689.8 4001.85 605350)
(4591.97 550.52 -82924.6 -3932.26 1990.06 541430)
(-10924.7 2900.13 -76056.9 -506.542 -7210.23 544276)
(-8304.97 2245.5 -71355 -627.91 -6424.63 450196)
(-2896.46 1417.11 -91491.8 2332.7 -7680.69 124688)
(-3118.57 1178.01 -70685.9 -336.585 -4481.26 317275)
(-3945.87 1637.75 -76695 5.27922 -5278.49 398005)
(-5170.72 2275.3 -82383.5 497.665 -6171.46 496190)
(-3237.03 1495.19 -93491.5 2663.86 -7952.54 131455)
(-4082.92 1711.92 -77473.2 60.9899 -5392.05 409965)
(-5921.4 1601.56 -64945.6 -748.751 -5484.29 348832)
(-7969.87 2158.49 -70615.3 -644.491 -6307.77 437132)
(10214.8 -787.091 -76377.5 -1658.63 4034.74 589606)
(7008.64 -728.571 -72810.8 -1467.3 4211.05 482943)
(447.332 -2234.04 -94458.3 -5311.32 3921.64 172908)
(1293.45 144.233 -72366.2 -2367.97 2647.07 331851)
(2606.63 276.295 -77738.3 -2973.58 2417.11 419473)
(4357.22 515.731 -82441.6 -3816.24 2042.87 527436)
(531.334 -2399.42 -95961.1 -5782.21 3868.74 184780)
(2811.53 301.745 -78407.7 -3070.14 2375.94 432546)
(3932.76 -606.668 -67358.9 -1295.97 4275.98 369963)
(6588.55 -716.993 -72211.5 -1442.5 4228.01 468262)
(-331.127 -190.383 -51748 -1110.48 3830.83 180604)
(1237.06 -395.559 -59367.8 -1167.58 4128.53 256724)
(1123.02 132.205 -71499.9 -2291.68 2669.82 319933)
(68.683 -1172.82 -80250.1 -2689.61 4001.23 99275.8)
(46.386 88.7151 -64709 -1832.43 2759.35 241219)
(3593.15 -586.241 -66570.8 -1279.1 4271.64 356606)
(1495.83 -421.607 -60354.7 -1179.28 4157.03 268494)
(-943.996 121.103 -55381.3 -1456.91 2683.37 162535)
(44.1254 -1036.47 -77674.8 -2410.1 3964.45 90238.5)
(-90.1489 88.2657 -63635.8 -1777.05 2760.61 230691)
(-2965.39 653.525 -47409.3 -944.552 -3452.58 164415)
(-2487.25 420.884 -38607.9 -1002.54 -2641.42 104763)
(828.027 385.835 -47175.6 -420.301 -3071.92 28890.2)
(-1856.41 259.077 -30079 -961.194 -1236.05 46884.8)
(-1881.17 325.527 -40793.5 -929.53 -1832.85 88397.1)
(-2004.83 476.185 -51810.7 -832.509 -2617.15 149340)
(703.147 438.255 -50647.5 -370.318 -3354.69 33581.4)
(-1885.93 339.014 -42242.3 -921.081 -1925.77 95264.1)
(-2238.39 252.805 -27452.4 -1042.67 -1767.45 51239.4)
(-2445.44 394.872 -37277.7 -1008.84 -2526.91 97175)
(-522.131 -158.347 -50560.9 -1106.29 3773.71 170672)
(-1632.46 66.857 -41549.7 -1082.66 3272.28 108289)
(-120.151 -146.956 -52080.3 -983.665 3115.86 32900.8)
(-2266.53 348.969 -31801.9 -1090.72 1844.19 48279.2)
(-1805.72 237.418 -42904.5 -1201.14 2335.26 90602.6)
(-1052.25 130.6 -54099.1 -1420.51 2658 153633)
(-90.4552 -236.35 -55759.2 -1090.63 3279.54 38548.2)
(-1721.85 222.013 -44390.5 -1222.67 2388.85 97653)
(-2470.04 313.283 -29808.8 -1074.9 2455.67 53358.2)
(-1765.5 100.329 -40167.2 -1082.13 3185.46 100439)
(-4806.03 825.544 -1062.71 -838.46 63.9742 -66.8212)
(-2581.56 450.953 -14523.2 -1018.2 1170.56 13809.3)
(-2305.15 362.759 -30118.3 -1078.24 1755.96 43265.5)
(-7.44055 256.558 -23234.2 -565.178 1477.77 6085.53)
(-2216.41 400.32 -17542 -984.149 1004.01 15538.6)
(-2536.39 340.503 -28231 -1075.29 2333.42 47784)
(-2617.74 448.654 -16351.4 -1036.33 1332.51 17024.8)
(-4195.28 905.375 -1151.23 -721.225 49.5872 -27.1032)
(222.215 284.112 -18738.4 -500.019 1175.27 4004.59)
(-2159.43 398.293 -15623.5 -962.82 876.143 12625.4)
(-26246.6 -999.855 -46163.7 -14037.9 -4570.92 771353)
(-1691.89 882.643 -97545.8 3603.55 -7075.54 301372)
(-5445.47 -105.587 -29592.7 -2484.22 -2194.71 236565)
(-6327.39 -169.134 -31648.1 -2944.17 -2415.68 277287)
(-743.132 404.592 -81931.5 1487.48 -4742.34 182786)
(-1378.11 1051.91 -80189.2 966.859 -6268.41 91508.8)
(-563.308 351.605 -78439 1231.72 -4339.34 163739)
(-11968.2 -463.059 -38800.1 -6010.38 -3318.25 462630)
(-10223.5 -383.149 -37171.4 -5048.17 -3092.42 413256)
(-211.742 230.498 -62316.5 237.352 -2801.59 94851.9)
(-157.222 720.648 -66611.3 89.391 -4803.34 60507.7)
(-324.311 248.317 -66711 414.596 -3167.59 110724)
(-3218.65 372.207 56.2459 -353.905 -89.3603 -98.028)
(-2441.04 293.164 -2755.82 -1018.92 -256.803 3102.47)
(-168.057 219.5 -33373.9 -651.291 -1084.89 25267)
(1256.14 156.227 -28554.1 -556.759 -1727.32 10064)
(-75.92 214.65 -27590.5 -721.239 -864.586 17314.4)
(-3349.35 179.472 -15889.9 -1516.97 -1017.06 59536.6)
(-3209.77 222.35 -13022.5 -1488.25 -830.724 39306.4)
(340.553 754.87 -1389.18 -677.984 -140.434 80.1143)
(2867.58 107.083 -7260.25 -387.435 -562.988 697.005)
(696.236 230.629 -8770.2 -823.348 -387.555 1913.86)
(28479.2 -513.259 -47677.1 18420.8 2841.78 818311)
(2362.24 466.34 -97425.9 -509.858 600.05 339293)
(-25208.7 -963.855 -45813 -13449.6 -4500.77 752095)
(-22237 -857.15 -44702 -11767.7 -4284.39 695012)
(-2258.44 1268.76 -87235.6 1724.08 -7125.39 111253)
(-734.897 424.143 -83011.7 1637.02 -4882.94 189381)
(-933.494 489.267 -86213.9 1918.96 -5289.81 209251)
(-1666.89 848.485 -96835.9 3421.96 -6930.6 293945)
(-3946.89 1648.91 -97247.6 3390.68 -8481.13 145053)
(-1406.12 745.09 -94451.5 3062.8 -6535.62 272226)
(-12602 -490.43 -39320 -6361.23 -3394.23 479487)
(-14658.4 -576.188 -40813.1 -7504.63 -3620.36 531177)
(27258.9 -490.895 -47401.9 17660.8 2862.88 797094)
(23742.6 -424.43 -46491.9 15474 2920.1 734395)
(308.831 -1909.68 -91065.4 -4437.65 3998.68 150125)
(934.35 208.473 -85070.6 -244.983 1732.53 206392)
(1129.75 234.327 -87993.9 -306.383 1568.21 229470)
(2205.63 441.355 -96931.4 -536.632 698.843 330277)
(715.808 -2743.18 -98588.8 -6798.32 3739.45 209413)
(1970.47 380.359 -95009 -405.526 922.621 304075)
(11986.2 -194.027 -41610.6 8162.03 3003.21 500459)
(14563.1 -249.364 -43022.2 9763.7 3005.35 556111)
(2240.58 74.8875 -31833.3 2131.89 2668.99 243382)
(3578.54 27.3554 -33958.5 2953.82 2776.83 285911)
(821.569 197.864 -84095.4 -280.856 1792.97 198794)
(147.396 -1454.04 -84985.8 -3314.74 4035.59 118514)
(642.22 182.576 -80816.5 -242.439 1928.3 176976)
(11181.1 -176.185 -41112.2 7661.33 2999 482375)
(8926.19 -122.537 -39525.2 6262.47 2972 429606)
(-93.6469 187.947 -65093.5 -360.826 2211.49 100168)
(-0.287921 -782.615 -72106.1 -1925.71 3847.45 73364.4)
(49.8015 173.497 -69473.4 -343.014 2191.86 117572)
(-5195.1 -85.6822 -28884.2 -2356.34 -2121.45 223556)
(-4560.37 -28.6626 -26684.9 -2035.45 -1904.86 186311)
(1016.96 291.052 -39963.2 -496.849 -2518.21 20369.1)
(-146.955 220.236 -35244.6 -593.98 -1164.16 28276.5)
(-179.406 218.23 -40786.4 -505.895 -1423.3 38055.5)
(-241.226 225.953 -60827.2 131.424 -2682.72 89690.8)
(408.165 544.411 -57318.1 -229.514 -3928.38 43719.6)
(-157 217.047 -56129.1 -22.2386 -2337.38 75136.2)
(-3393.01 165.695 -16803.3 -1528.5 -1081.22 67092.8)
(-3538.96 117.769 -19450 -1569.21 -1276.47 92090.3)
(1840.7 89.0948 -31097 1888.58 2629.1 229850)
(768.424 134.602 -28795.7 1236.17 2491.55 191257)
(-164.933 19.4155 -44344.3 -806.678 2737.11 22973.4)
(-856.742 314.929 -37301.2 -686.662 1687.52 29501.5)
(-758.307 290.74 -43080.5 -638.078 1874.91 39642.5)
(-167.801 190.795 -63606 -400.968 2213.73 94567.2)
(-52.7144 -439.891 -62714.2 -1365.15 3555.76 51175.4)
(-305.331 212.835 -58855.1 -433.775 2186.16 78839.9)
(-1870.76 296.858 -18307.5 -313.525 1714.9 69338.2)
(-1424.42 256.564 -21133.3 -60.4781 1948.97 94683.9)
(3887.79 208.845 -7182.35 -290.206 -324.219 187.057)
(2658.8 291.902 -8363.29 -164.695 361.732 427.476)
(-4234.98 522.436 -101.118 -934.957 -11.1399 -104.664)
(-3012.88 371.526 -3304.51 -916.858 266.301 3896.41)
(-889.626 319.177 -35346.4 -717.146 1616.55 26410.4)
(-179.314 198.083 -31932.6 -638.65 2037.84 11511.3)
(-895.951 327.54 -29282.9 -760.717 1369.26 18237.3)
(-1994.09 307.672 -17330.8 -383.75 1630.68 61690.6)
(-2295.44 340.168 -14259.4 -563.955 1350.47 41237.8)
(-745.499 918.658 -1570.99 -684.574 65.1835 99.9242)
(1046.66 428.844 -8710.18 -345.492 526.594 928.231)
(-332.048 342.185 -9588.19 -764.101 340.737 2215.57)
(-21633.8 -116.675 -55398.4 -10347.8 -5544.84 715583)
(-3163.44 605.05 -95014.8 2664.39 -6848.95 353027)
(-7818.32 -258.214 -34221.4 -3740.26 -2716.12 335304)
(-6666.79 -191.167 -32308.5 -3124.78 -2492.12 291403)
(-5127.14 154.283 -35261.6 -2030 -2671.49 220357)
(-3417.25 825.522 -52027 -906.445 -3927.9 203213)
(-5894.15 138.762 -37735.8 -2368.3 -2941.22 258078)
(-7149.64 116.35 -40840.9 -2947.7 -3304.7 311819)
(-3552.49 873.699 -53134.2 -896.246 -4048.03 213398)
(-6182.36 133.444 -38531.9 -2498.6 -3031.94 271155)
(-1619.37 282.156 -79793.1 975.756 -4622.13 213612)
(-2744.57 961.536 -66799.9 -494.883 -4029.17 273806)
(-1400.33 249.117 -76407.8 753.941 -4237.09 191219)
(-1112.6 984.383 -77663.8 751.144 -5976.66 85079.5)
(-417.585 296.163 -73469.7 863.754 -3807.81 139327)
(-577.468 336.247 -77258.8 1092.38 -4202.91 157440)
(-2661.58 912.597 -65775.6 -530.208 -3916.15 263281)
(-1166.47 217.911 -71567.3 465.443 -3729.18 162636)
(-1358.6 241.431 -75242.4 662.232 -4106.3 183901)
(-8251.39 -281.778 -34834.1 -3975.05 -2791.24 350430)
(-9693.82 -357.591 -36605.8 -4757.98 -3016.26 397214)
(-10520.1 60.3258 -46388.6 -4589.48 -4035.12 429744)
(-4975.39 1326.97 -61307.9 -804.076 -5007.04 301199)
(-9117.89 82.5856 -44410.5 -3895.46 -3760.98 384018)
(-7507.22 110.417 -41581.6 -3116.35 -3396.06 325831)
(-4763.03 1263.89 -60352.5 -815.796 -4885.65 289655)
(-8688.06 89.6662 -43724.4 -3684.8 -3669.55 369161)
(-822.926 190.231 -60704.4 -17.7404 -2764.91 110664)
(-2156.61 591.304 -56810 -754.828 -3037.56 184584)
(-951.305 196.981 -64969.5 133.622 -3115.28 129250)
(-377.7 784.938 -69512.8 227.172 -5097.3 66450.1)
(-437.012 284.812 -72187.4 735.193 -3675.3 133364)
(-300.427 256.139 -68096.6 531.781 -3293 116308)
(-2205.03 624.648 -58006.1 -732.215 -3145.05 193846)
(-1134.41 213.553 -70302.7 382.463 -3601.72 155718)
(-975.657 198.818 -66333.6 207.615 -3236.75 135719)
(-2799.26 280.448 -7647.32 -1355.11 -512.391 14368.5)
(-2489.33 295.94 -3998.97 -1143.41 -321.971 5155.34)
(-3301.6 379.177 -341.879 -359.816 -95.5049 11.1118)
(-1552.58 94.7527 -5956.2 -887.448 -484.71 3093.83)
(-2040.53 274.027 -3627.64 -866.957 -351.658 3400.84)
(-2274.02 274.941 -9230.15 -1144.89 -637.821 14309.1)
(-1460.22 106.767 -7823.63 -947.235 -579.111 4918.98)
(-2028.5 280.683 -5053.84 -974.781 -420.41 5444.95)
(-581.444 225.765 -32517.8 -665.842 -1098.91 29615.2)
(-1743.14 231.963 -23485.4 -960.724 -941.004 28629.9)
(-474.252 225.083 -26885.4 -720.524 -881.544 20313.9)
(1368.56 115.574 -24618.6 -567.59 -1479.76 7364.33)
(178.706 200.158 -19606.9 -815.788 -626.639 8866.57)
(-55.968 211.725 -25639.1 -765.919 -800.096 14936.6)
(-1687.65 224.813 -21776.4 -957.824 -871.62 24717.8)
(-184.562 217.277 -19068.2 -779.384 -641.234 10445.3)
(-430.881 225.207 -24968.8 -745.106 -816.185 17561.7)
(-2906.69 271.873 -8794.14 -1401.55 -578.111 18420.6)
(-3151.51 235.981 -12019 -1476.3 -766.986 33410.9)
(-2983.03 227.64 -18877.5 -1286.9 -1240.27 56376.8)
(-2063.05 196.977 -21390.1 -1047.68 -1358.52 31024.3)
(-2768.79 245.802 -15489.4 -1257.22 -1013.3 37614.8)
(-2387.16 270.632 -10554.5 -1179.54 -713.869 18133)
(-1994.79 185.617 -19812.2 -1043.18 -1256.4 26697.5)
(-2686.99 252.472 -14308.4 -1244 -938.174 32134.6)
(-681.762 701.476 -1330.73 -732.861 -141.498 15.1794)
(-1321.07 172.104 -6869.96 -819.565 -403.318 3093.28)
(251.99 247.446 -8447.39 -721.825 -404.421 2324.23)
(2137.41 71.2877 -12226 -630.807 -752.232 1621.03)
(263.525 196.041 -17552.8 -842.994 -575.783 7137.83)
(603.177 208.559 -11086.1 -833.586 -438.704 2995.77)
(-1226.18 170.406 -8891.74 -876.318 -456.988 4814.69)
(-91.535 215.543 -17044.8 -792.018 -588.728 8433.03)
(196.809 223.582 -10710.9 -760.493 -450.625 3573.15)
(16430.3 -1740.18 -56301.1 12025.5 3256.07 760712)
(2326.93 249.15 -94867.4 -1264.41 1081.08 389581)
(-20835.5 -101.662 -54966 -9926.58 -5459.99 697757)
(-9742.83 2610.08 -74141.8 -561.008 -6878.79 503425)
(-18545 -62.4015 -53598.6 -8721.5 -5200.06 644915)
(-18616.3 -725.666 -43079.4 -9725.13 -3993.59 620706)
(-21294.8 -823.724 -44312.1 -11234.7 -4211.58 676233)
(-9366.98 2517.06 -73469.5 -577.612 -6766.07 489980)
(-15742.9 -17.4969 -51608.5 -7258.82 -4849.64 576119)
(-17816.5 -50.6149 -53119.5 -8339.27 -5113.22 627529)
(-2576.75 1344.4 -89404.6 2014.63 -7405.45 117949)
(-1149.1 592.212 -90117.8 2386.3 -5840.43 236687)
(-931.609 512.848 -87197 2077.5 -5432.92 216104)
(-1673.12 293.727 -80862.2 1074.98 -4755.76 221285)
(-3445.67 1362.26 -73382.8 -200.216 -4822.76 351200)
(-1920.61 335.732 -83964.4 1319.78 -5145.16 244675)
(-2259.18 403.922 -87765.9 1695.77 -5671.84 276920)
(-3564.4 1427.95 -74241.4 -151.903 -4936.99 362739)
(-1984.4 351.091 -84938.9 1426.76 -5280.59 252659)
(-3064.87 580.091 -94305.8 2536.16 -6714.89 344340)
(-4676.49 2025.23 -80392.6 300.312 -5841.05 458729)
(-2725.76 509.44 -92003.2 2223.17 -6332.84 318679)
(-3588.31 1573.02 -95411.6 3015.47 -8219.2 138246)
(-1154.54 620.274 -91006.2 2553.65 -5986.34 243763)
(-1392.04 713.058 -93654.1 2887.88 -6389.65 264960)
(-4520.36 1944.65 -79691.1 238.17 -5729.92 446406)
(-2333.91 423.42 -88648.8 1810.42 -5808.66 285176)
(-2640.89 486.783 -91209.2 2101.19 -6196.98 310191)
(-17773 -694.938 -42648.6 -9250.47 -3920.41 602487)
(-15398 -605.52 -41287.9 -7917.92 -3696.72 548758)
(-11023.6 52.479 -47020.7 -4841.39 -4126.34 445356)
(-6737.96 1828.04 -67482.9 -706.116 -5839.46 385963)
(-12650.5 27.4738 -48839.2 -5664.97 -4400.35 493222)
(-15085.8 -7.91894 -51080.6 -6916.61 -4759.86 559253)
(-7030.49 1908.14 -68292.4 -690.996 -5958.14 398585)
(-13230.2 18.9166 -49418.4 -5960.51 -4491.07 509504)
(15659.1 -1681.37 -55987.4 11517 3282.95 741002)
(8785.15 -767.331 -74983.4 -1572.71 4123.16 543100)
(13438.8 -1512.04 -54947.6 10051.6 3354.12 682759)
(19402.8 -342.684 -45087.8 12774.2 2972.88 653211)
(22619.8 -403.97 -46162.5 14776.3 2936.63 713830)
(8326.69 -758.669 -74474.8 -1545.22 4147.84 527855)
(10706.5 -1297.74 -53332.3 8244.01 3421.48 607353)
(12731.2 -1457.43 -54569 9584.4 3374.18 663656)
(378.327 -2068.6 -92829.1 -4860.34 3964.34 161354)
(1462.95 287.691 -91423.5 -357.346 1306.72 261706)
(1254.35 249.037 -88844.3 -272.707 1496.29 237477)
(659.101 103.392 -82826.5 -717.917 2077.46 237665)
(1830.97 190.862 -74816.9 -2611.48 2562.01 368534)
(922.432 116.868 -85641 -801.549 1927.69 264155)
(1312.88 144.081 -88977.9 -919.203 1698.61 301032)
(2018.18 209.664 -75583 -2697.79 2528.89 381058)
(1027.82 121.298 -86502.4 -813.185 1876.99 273243)
(2193.43 235.74 -94338.3 -1236.59 1151.5 379378)
(3671.77 417.249 -80852 -3483.07 2194.89 486081)
(1863.31 196.18 -92510.1 -1087.42 1372.17 349370)
(621.918 -2568.71 -97336.5 -6277.63 3807.97 196952)
(1599.22 306.645 -92152.6 -325.893 1223.53 270087)
(1823.89 357.634 -94398.7 -434.011 1014.38 295358)
(3451.01 386.598 -80276.9 -3375.9 2241.95 472519)
(1428.54 152.242 -89725.5 -936.421 1639.21 310534)
(1738.49 185.102 -91873.3 -1064.37 1437.67 339496)
(18381.7 -323.899 -44703.3 12139.6 2981.69 633383)
(15477.8 -268.259 -43462.5 10333.3 3000.91 575113)
(6062.65 -905.953 -49300.3 5156.17 3468.76 465501)
(5010.54 -660.271 -69580.7 -1353.45 4271.32 411093)
(7673.44 -1048.59 -50940.8 6229 3466.39 517178)
(10065.5 -1246.52 -52887.7 7819.23 3434.16 588938)
(5389.36 -675.792 -70272.9 -1374.99 4263.89 425143)
(8246.16 -1097.29 -51452.1 6610.32 3460.89 534824)
(5700.64 -36.2245 -36581.6 4263.43 2885.08 346920)
(4073.47 10.4957 -34635.2 3260.18 2805.95 300715)
(20.6572 -247.923 -37830 1112.11 3099.86 226880)
(287.326 -281.466 -55165.3 -1130.91 3978.79 211843)
(844.236 -356.945 -40333.4 1664.04 3221.12 266342)
(2154.44 -512.726 -43417.8 2543.12 3343.86 322962)
(509.89 -310.291 -56251.9 -1140.2 4021.21 222725)
(1149.3 -394.907 -41130.8 1869.47 3255.7 280080)
(565.64 102.852 -81848 -711.103 2118.63 229033)
(636.393 104.809 -68744.4 -2079.43 2724.59 285159)
(326.344 97.6908 -78684.4 -649.275 2236.42 203966)
(111.455 -1308.52 -82684.4 -2986.62 4025.03 108707)
(374.88 171.358 -76073.2 -262.073 2077.23 149372)
(540.885 175.498 -79715.2 -279.979 1975.77 169825)
(482.833 98.8334 -67776.1 -2013.6 2737.91 273907)
(24.6891 102.982 -74066.4 -606.133 2348.87 172314)
(242.977 100.124 -77586.6 -647.666 2266.95 195833)
(6294.99 -53.3578 -37199.7 4632.3 2907.09 362906)
(8228.51 -105.672 -38967.9 5830.72 2960.31 412527)
(5560.18 -859.696 -48719 4821.38 3465.07 448711)
(2635.61 -520.987 -64056.2 -1230.62 4241.11 317660)
(4156.47 -724.404 -46866.3 3883.45 3438.35 399718)
(2521.88 -553.449 -44143.3 2789.97 3367.22 337800)
(2335.28 -496.811 -63169.3 -1217.78 4225.6 305064)
(3722.3 -680.738 -46213.3 3593.76 3424.96 383862)
(-492.083 143.995 -63380.5 -588.748 2412.32 115806)
(-599.947 99.6543 -59077 -1579.85 2735.11 190522)
(-311.993 126.755 -67623.3 -594.398 2414.05 135859)
(23.6134 -905.822 -74962.7 -2154.89 3913.07 81599.3)
(283.939 167.997 -74843.1 -301.039 2111.58 142704)
(132.442 173.767 -70831.7 -302.864 2173.8 123723)
(-478.593 95.0981 -60254.1 -1625.62 2746.35 200266)
(-49.1541 108.347 -72846.7 -609.056 2367.99 164720)
(-243.357 119.521 -68965.2 -586.258 2409.2 142873)
(-4903.72 159.154 -34409.2 -1934.33 -2582.4 208306)
(-2715.77 543.448 -43748.3 -972.177 -3101.3 137498)
(-4324.18 172.462 -31768.1 -1697.36 -2317.53 173805)
(-3963.85 40.6876 -23589.4 -1749.26 -1620.13 141046)
(-4386.18 -11.004 -25930.6 -1950.14 -1831.99 174513)
(-2647.07 510.776 -42490.7 -979.252 -2983.56 128969)
(-3742.13 187.709 -28058.4 -1480.54 -1972.17 131874)
(-4159.34 176.615 -30862.1 -1632.41 -2230.1 162875)
(924.665 339.929 -43610 -466.281 -2793.05 24477.1)
(-173.582 214.584 -47850.5 -327.392 -1804.77 53171.1)
(-143.507 217.496 -42571 -436.923 -1513.98 41666.5)
(-588.053 223.203 -34351.4 -633.467 -1177.6 33091.1)
(-1874.54 282.553 -34793.4 -952.713 -1480.03 63232.2)
(-628.217 216.647 -39736 -561.434 -1429.95 44514.2)
(-656.807 204.195 -46609.5 -430.073 -1801.14 62119.8)
(-1876.68 291.613 -36322.6 -948.95 -1566.92 69167.2)
(-621.921 212.365 -41484.4 -520.999 -1519.62 48683.7)
(-810.689 191.252 -59240.2 -83.9384 -2649.45 104693)
(-1933.01 408.252 -47835.6 -877.624 -2312.42 124921)
(-716.411 191.014 -54679.9 -214.345 -2317.74 87669.6)
(560.795 491.43 -54032.6 -308.721 -3640.07 38529.5)
(-136.218 214.33 -49541.6 -246.012 -1906.73 57345.6)
(-190.911 215.318 -54537.3 -115.733 -2226.57 70445.4)
(-1915.74 388.794 -46468.9 -889.87 -2213.01 117189)
(-652.973 199.765 -48267.9 -381.454 -1901.18 66940.7)
(-713.679 194.253 -53117.6 -271.86 -2209.33 82247.2)
(-3854.6 56.7834 -22787.5 -1700.37 -1551.28 130556)
(-3603.38 102.727 -20300.9 -1594.62 -1346.04 101167)
(-3049.13 222.472 -19961.6 -1296.7 -1317.32 63379.1)
(-2321.35 305.097 -31775.6 -1032.98 -2085.85 69339.8)
(-3261.27 206.85 -23111.1 -1337.54 -1555.91 86529.7)
(-3626.76 191.398 -27097.6 -1440.85 -1887.47 122158)
(-2348.52 325.598 -33177.2 -1027.33 -2196.48 75909.8)
(-3341.58 202.851 -24127.3 -1357.2 -1637.89 94938)
(-225.69 -213.176 -36960.3 948.035 3054.31 214325)
(-1042.63 -62.8335 -46844 -1092.49 3581.84 142379)
(-883.504 -112.774 -34242.1 509.899 2898.15 178525)
(-379.809 191.015 -25530.2 547.693 2276.2 144663)
(453.172 147.523 -28002.5 1047.09 2443.12 179077)
(-1202.56 -29.4954 -45559 -1090.55 3510.68 133460)
(-1586.37 8.32737 -30375.5 48.0123 2648.21 135318)
(-1077.9 -81.322 -33301.9 382.172 2840.64 167228)
(-134.213 -56.5664 -48277.7 -884.35 2934.4 27711)
(-574.439 253.528 -50391.4 -553.59 2059.84 55478)
(-702.752 283.967 -44930.7 -602.927 1927.08 43395.4)
(-1272.03 292.767 -36345.3 -732.225 1769.03 34351.4)
(-2101.61 303.392 -36708.9 -1130.99 2079.62 64885.4)
(-1167.89 269.775 -41958 -702.064 1975.73 46109.4)
(-983.588 228.889 -49067.1 -658.404 2188.19 64391.9)
(-2034.71 287.356 -38291.7 -1146.76 2148.52 70935.9)
(-1121.89 258.699 -43770.5 -685.208 2035.25 50416.3)
(-551.124 153.834 -61916.1 -599.482 2402.88 109412)
(-1357.42 164.916 -50090 -1323.68 2565.08 128256)
(-717.544 177.373 -57312 -608.544 2354.11 91272)
(-65.2329 -333.402 -59301.9 -1216.33 3426.08 44642.6)
(-509.811 246.576 -52127.6 -515.513 2092.44 59875.5)
(-373.668 218.401 -57242.5 -473.311 2171.21 73824.9)
(-1453.21 178.478 -48705.7 -1295.54 2526.77 120252)
(-929.618 216.77 -50769 -642.188 2229.44 69427.8)
(-771.614 189.136 -55727.6 -622.055 2329.2 85538.9)
(-620.399 203.17 -24680 407.087 2215.61 133918)
(-1244.96 242.258 -22040.1 44.2976 2018.12 103922)
(-2489.76 215.396 -21799.5 -528.371 1994.28 65510.2)
(-2215.35 227.091 -34394 -1077.34 2794.17 71823.2)
(-2224.61 143.342 -25155.2 -360.01 2266.19 88995.5)
(-1734.24 36.4828 -29366.3 -47.052 2578.93 125356)
(-2115.06 197.148 -35871.9 -1080.66 2897.24 78553.1)
(-2116.13 117.613 -26233.9 -290.465 2349.04 97555.6)
(-2606.21 364.832 -8521.75 -794.368 797.162 15867.1)
(-2841.17 367.432 -4634.27 -893.995 400.275 6189.31)
(-4724.5 522.184 -489.648 -932.261 31.53 -50.1905)
(-2818.99 494.051 -6822.46 -888.166 474.149 3843.34)
(-3079.63 360.63 -4267.51 -871.361 339.692 4147.83)
(-2776.74 343.868 -10277.3 -827.697 934.762 15747.4)
(-2647.28 469.736 -8810.61 -954.877 644.674 5877.58)
(-2916.94 354.678 -5799.58 -878.582 489.176 6424.02)
(-1291.11 300.696 -34430.5 -746.112 1691.52 30795.6)
(-2349.48 392.475 -24901 -1041.96 1464.75 29804.4)
(-1292.38 308.429 -28526 -771.951 1426.35 21292.1)
(-109.821 239.3 -27614.5 -590.774 1769.42 8595.05)
(-721.799 311.467 -20910.2 -808.896 959.66 9563.89)
(-881.668 325.415 -27238 -784.029 1276.5 15807.8)
(-2336.7 398.615 -23110.8 -1028.96 1358.47 25845.2)
(-1104.88 295.236 -20327.3 -791.727 996.338 11200.2)
(-1264.67 309.451 -26517.1 -782.003 1328.3 18487.7)
(-2552.3 361.542 -9743.63 -750.533 917.433 20033.3)
(-2371.67 346.62 -13184.4 -612.658 1251.15 35272.4)
(-2560.66 236.902 -20638.8 -574.847 1895.6 58423.3)
(-2653.3 403.507 -23326.9 -1065.27 1936.35 32833.2)
(-2711.11 293.822 -17001.6 -691.563 1571.67 39453.1)
(-2773.89 338.373 -11699.2 -804.738 1071.1 19675.2)
(-2665.61 420.738 -21634.5 -1062.19 1794.81 28439.2)
(-2741.43 308.556 -15730.4 -723.385 1454.62 33907.7)
(-1830.45 897.96 -1520.14 -738.91 61.476 26.7088)
(-2273.89 431.87 -7517.23 -796.452 317.922 3566.7)
(-808.288 323.253 -9235.43 -680.203 351.935 2648.15)
(493.381 288.435 -14117.7 -515.918 830.406 2232.55)
(-642.809 304.341 -18761.8 -817.069 845.313 7775.95)
(-388.216 305.442 -12002.7 -782.083 463.051 3392.34)
(-2134.57 405.368 -9624.77 -867.943 456.382 5424.3)
(-1024.8 290.115 -18211.6 -790.57 877.332 9124.16)
(-824.577 289.85 -11595.5 -729.811 480.381 4003.66)
(-9732.77 -7443.43 -23032.9 -12134.1 -2194.11 914686)
(-10191.5 -7715.01 -23189.7 -12610.4 -2213.48 938037)
(-2001.6 -1417.55 -14999.5 -2696.37 -1401.67 275189)
(-2050.62 -1526.49 -15344.4 -2826.24 -1435.97 290938)
(-3924.99 -3584.58 -19524.5 -5665.76 -1830.77 544133)
(-3708.12 -3404.02 -19266.5 -5391.46 -1804.94 524233)
(-1129.54 5.47998 246.951 -566.311 12.7171 -229.901)
(-1644.87 142.92 129.55 -921.171 -71.7158 -271.421)
(-2305.17 -216.681 -8110.83 -1730.66 -769.366 66246.8)
(-2347.6 -174.971 -7633.92 -1718.16 -725.141 57831.4)
(19625.7 -1449.54 -24260.5 11369.9 2358.17 933841)
(20409.1 -1557.66 -24405.7 11894.1 2367.32 958008)
(-9284.12 -7178.16 -22869.7 -11666.7 -2175.49 891477)
(-8847.12 -6917.07 -22701 -11204.8 -2155.79 868417)
(-4157.13 -3770.7 -19776.3 -5956.62 -1856.41 564275)
(-4398.06 -3962.47 -20022.3 -6249.01 -1880.88 584660)
(18857.4 -1345.53 -24108.1 10861.1 2347.52 909835)
(18102.8 -1245.02 -23949.2 10363 2336.5 885993)
(9028.09 -215.838 -21013.3 4620.7 2085.49 572865)
(9580.55 -265.009 -21267 4954.37 2108.35 593765)
(2289.86 114.281 -15975.4 942.795 1609.96 278073)
(2605.31 115.883 -16341.9 1102.64 1643.85 294055)
(8491.78 -169.925 -20752.5 4298.79 2062.86 552224)
(7973.61 -127.89 -20485.3 3996.19 2038.84 531849)
(-1967.09 -1312.91 -14647.3 -2587.61 -1369.33 259782)
(-1934.91 -1213.67 -14288.4 -2470.31 -1335.46 244738)
(-2263.55 -257.915 -8576 -1752.64 -813.398 75135.2)
(-2212.75 -303.52 -9031.81 -1760.44 -855.102 84494.6)
(1997.02 109.96 -15600.8 819.957 1573.49 262465)
(1711.66 104.03 -15219.1 685.953 1536.74 247220)
(-970.566 -153.117 -9147.45 -203.279 939.06 76239.9)
(-847.997 -129.056 -9628.09 -176.724 985.959 85634)
(3714.22 448.19 -3967.02 -298.823 75.003 384.658)
(3138.49 628.556 -1849.9 -373.757 127.005 85.6732)
(2956.28 439.291 -4338.38 -69.1153 355.826 375.918)
(-1256.9 48.6225 118.76 -315.819 -8.28807 -166.905)
(-1568.32 -72.2341 -42.6718 -399.541 72.4774 59.5903)
(-1082.88 -177.702 -8656.48 -218.882 892.212 67317.2)
(-1186.02 -199.358 -8155.01 -231.027 843.149 58876.1)
(576.81 543.989 -4580.87 -314.218 509.746 274.58)
(1474.64 864.146 -1660.63 -647.888 37.8546 107.746)
(2129.62 456.338 -3998.79 -659.019 69.868 189.803)
(2011.91 697.234 -1837.9 -399.983 146.929 90.2057)
(1650.87 576.769 -4002.27 -458.211 161.895 508.495)
(1586.68 507.303 -4368.36 -300.725 393.888 284.927)
(655.822 627.836 -1933.94 -470.976 209.046 82.7647)
(-18447.6 4069.66 -70602.3 -6612.5 -7426.25 605652)
(-11762.5 3100.8 -77252.8 -470.724 -7428.12 571898)
(-19787.6 -6000.04 -77500.2 -3136.52 -11878.1 528017)
(-20544.7 -6206 -78175.2 -3253.83 -12005.7 540779)
(-19149.6 4199.91 -71162.7 -6867.64 -7534.73 620668)
(-13819.2 -1417.85 -88644.4 -1821.78 -11865.9 438184)
(-4568.08 924.828 -87812.2 2176.44 -6371.26 458133)
(-5524.64 2448.15 -83617.9 635.268 -6388.22 521536)
(-15540.1 -2117.64 -83170.6 494.851 -11773.4 481573)
(-16129.8 -2202.76 -83890 498.297 -11908.2 493139)
(-4719.8 964.252 -88453.1 2283.23 -6485.99 469550)
(-13298.1 -1367.3 -87876.4 -1752.22 -11733.7 428029)
(-2558.59 -2285.36 -17287.8 -3779.03 -1616.48 392372)
(-2446.77 -2145.69 -16980.7 -3598.86 -1587.22 374676)
(-4316.62 1030.22 -44468.6 -1680.71 -3674.75 188569)
(-3175.14 735.787 -49756.2 -926.804 -3690.22 183412)
(-4211.54 -1228.74 -47820.9 -1001.14 -6889.34 167724)
(-4453.33 -1323.05 -49000.1 -1024.81 -7072.07 176903)
(-4521.43 1089.45 -45540 -1744.39 -3795.26 199004)
(-6196.73 -1964.07 -55721.2 -1205.55 -8132.67 235597)
(-6040.24 1492.83 -51615.8 -2230.85 -4516.26 265982)
(-3851.18 974.966 -55291.6 -874.479 -4286.3 234328)
(-5869.72 -1848.12 -54642.3 -1170.25 -7960.06 225409)
(-5750.85 1419.82 -50645.8 -2136.69 -4394.91 254325)
(-5851.45 -606.222 -71199.5 -863.2 -9028.73 254049)
(-2584.04 380.175 -73804.1 629.223 -4356.85 275976)
(-7430.27 -944.292 -68491.1 268.38 -9228.26 294582)
(-2922.14 1065.26 -68784.2 -418.929 -4255.13 295277)
(-7067.92 -889.689 -67475.8 245.558 -9064.73 284330)
(-6170.16 -644.668 -72275.9 -892.311 -9192.62 263132)
(-2498.93 358.431 -72787.4 555.993 -4239.26 266139)
(-4441.21 -441.815 -65548.8 -741.4 -8185.36 210039)
(-5168.42 -596.004 -61020.4 89.2272 -8050.6 225176)
(-2509.96 820.147 -63662.9 -596.242 -3693.96 242661)
(-2070.06 259.136 -66221.7 158.069 -3540.73 209717)
(-5452.68 -641.233 -62140.8 117.538 -8223.8 234732)
(-4195.51 -413.69 -64362.9 -722.111 -8013.98 201547)
(-2133.45 272.258 -67372.7 218.125 -3655.79 218791)
(-2690.64 -2428.8 -17588.3 -3987.71 -1645.65 410361)
(-2821.92 -2578.79 -17883.4 -4180.6 -1673.09 428655)
(-8922.21 2164.52 -58775.3 -3208.67 -5476.58 365512)
(-9413.36 -3019.85 -63757.5 -1610.01 -9451.59 322123)
(-5428.39 1460.79 -63163.4 -776.455 -5245.34 324734)
(-8958.97 -2873.13 -62810.1 -1552.77 -9291.73 310857)
(-8506.81 2072.25 -57938.5 -3065.36 -5357.04 352505)
(-6539.64 -2085.69 -56783.4 -1245.14 -8305.29 245934)
(-6347.23 1568.75 -52569 -2332.68 -4638.02 277823)
(-4370.11 1142.64 -58383.9 -840.541 -4647.76 267031)