/*--------------------------------*- C++ -*----------------------------------*\
| =========                 |                                                 |
| \\      /  F ield         | OpenFOAM: The Open Source CFD Toolbox           |
|  \\    /   O peration     | Version:  2012                                  |
|   \\  /    A nd           | Website:  www.openfoam.com                      |
|    \\/     M anipulation  |                                                 |
\*---------------------------------------------------------------------------*/
FoamFile
{
    version     2.0;
    format      ascii;
    class       volScalarField;
    location    "0.105/solid";
    object      sigmaMin;
}
// * * * * * * * * * * * * * * * * * * * * * * * * * * * * * * * * * * * * * //

dimensions      [1 -1 -2 0 0 0 0];


internalField   nonuniform List<scalar> 
3125
(
-207043
-144952
-96799.8
-40204.5
-4258.15
-272574
-151909
-200253
-182897
-260522
-172821
-109369
-45967.2
-90106.3
-50720.9
-101277
-5181.25
-4567.54
-44343.5
-3638.81
-568295
-521980
-186352
-257289
-321277
-124126
-248255
-348396
-268131
-173937
-117230
-238399
-137.465
-20345.3
-55980.2
-24015.5
-24886.2
-57171.1
-24127.2
-284.57
-19015
-21226.7
-615134
-553953
-554609
-461141
-172759
-332241
-412215
-509462
-179672
-424060
-360437
-448163
-599533
-493870
-214668
-347018
-433510
-540129
-225767
-446417
-382013
-479331
-194430
-269908
-335254
-144128
-257511
-368793
-281564
-179565
-135072
-247103
-176980
-117274
-64189.4
-61251.1
-104131
-165419
-70515.5
-111096
-62869.5
-109637
-184563
-122304
-71118.9
-63662.7
-107491
-170712
-78339.5
-114634
-66349.5
-114412
-174.309
-22316.1
-58279.8
-26504.9
-26336.8
-60503.8
-26310
-306.453
-20968.6
-22529
-774042
-330206
-240150
-280795
-214138
-137992
-195261
-465804
-416516
-125749
-103557
-142057
68.6656
-4262.42
-48285.5
-34608.6
-37565.2
-63340
-42994.6
-1782.69
-9144.34
-10114.1
-821189
-365437
-754812
-697812
-158871
-220627
-240201
-322989
-193423
-301802
-482632
-534236
-800012
-737436
-193232
-237053
-259452
-356777
-248700
-331472
-503996
-559524
-247542
-289964
-229705
-163002
-208425
-485954
-433308
-132224
-117696
-149827
-227166
-189990
-51899.9
-52089.2
-64009.5
-120420
-83486.3
-105119
-70910.1
-95911.6
-234044
-195545
-57312.8
-54620.9
-67053.6
-126534
-93412.5
-110219
-73803.7
-99160.3
-9467.86
-9980.55
101.444
-5224.32
-50676.8
-38182.5
-39497.5
-66135.5
-45523.7
-1436.22
-9698.28
-10614.3
-719765
-376911
-338704
-294885
-225773
-215647
-263399
-317000
-225788
-276442
-240051
-289155
-217924
-131048
-170922
-189022
-278718
-189566
-210684
-353802
-400503
-434616
-313104
-389008
-330974
-301630
-374191
-137386
-200556
-156179
-110366
-164959
-147715
-209771
-182681
-162675
-17298.8
-6886.09
-89.5262
-7189.36
-5245.93
-18449.6
-10204.4
-8021.46
-50390.4
-41431.9
-38762.9
-29214.1
-24619.8
-34169.6
-37001.2
-24941.5
-35123.2
-21596.6
-37024.7
-61896.5
-41561.9
-42896
-22617
-36850.5
-37284
-1199.7
-8122.34
-9819.48
-14130.5
-21601.3
-12965.6
-11203.3
-21756.1
-12745.8
-764962
-411575
-701978
-514022
-649258
-623620
-679062
-500665
-580625
-631913
-165818
-267100
-246911
-247610
-365853
-270643
-302322
-377283
-278487
-368410
-472358
-343266
-186562
-274004
-294730
-460153
-310417
-334953
-605430
-551788
-450188
-397328
-497932
-563800
-409868
-514173
-745314
-553455
-687258
-656417
-716912
-538353
-612103
-668218
-203826
-290617
-267168
-263756
-383227
-289577
-325465
-395589
-298416
-401660
-499280
-372467
-237112
-298676
-323097
-485887
-334698
-362874
-636630
-578484
-470759
-422728
-522246
-593751
-436638
-539828
-350822
-304731
-233063
-225432
-272373
-328770
-236220
-286056
-255344
-300921
-230845
-153439
-181369
-201469
-289810
-199800
-222892
-366769
-416270
-454031
-330242
-405225
-343549
-317773
-389431
-143703
-207341
-163764
-126266
-174821
-155950
-216994
-192332
-170725
-213752
-150093
-179330
-144804
-178214
-141558
-137478
-168424
-57973.5
-81314.8
-68217
-54531.1
-78353.7
-67668.6
-86957.2
-84478.6
-72315.5
-131311
-140975
-113824
-76952.9
-85915.5
-100144
-133210
-92101.9
-108201
-134332
-104980
-68941.1
-81451.3
-92155.1
-127775
-88134.9
-100568
-220556
-156399
-184883
-149059
-183396
-147501
-141802
-173624
-64120.6
-85144.3
-71426.2
-57046.2
-81123.1
-70664
-90698.6
-87380.5
-75475.2
-137268
-145395
-118798
-85767.8
-89954.6
-104970
-137383
-96051.4
-112903
-138336
-108389
-71946
-85408.2
-95521.1
-131861
-92271.6
-104087
-19216.3
-8149.95
-1.12664
-8106.65
-6129.63
-20344.5
-11409.8
-9208.16
-52767
-43394.5
-40704.1
-32241.2
-25966.2
-35969.6
-38846.5
-26300
-36930.3
-23677.8
-39460.3
-64797.9
-44451.3
-45495.9
-24692.2
-39579.9
-39772.4
-976.387
-8710.98
-10316
-15517.8
-22804.2
-13654.4
-11986.8
-22966.6
-13436.2
-915264
-938608
-276004
-291745
-544833
-524941
166.104
254.124
-67201.3
-58792.7
-934491
-958649
-892062
-869009
-564967
-585345
-910493
-886660
-573655
-594546
-279004
-294978
-553022
-532657
-260606
-245569
-76081.9
-85433.1
-263406
-248169
-77320.5
-86704.3
-6368.15
-4070.37
-6195.38
154.058
-72.4923
-68407.8
-59976
-5009.31
-2733.64
-5291.22
-3201.32
-5142.01
-5355.26
-2366.01
-613638
-582054
-538991
-551683
-628587
-455231
-474325
-534567
-495377
-506859
-485599
-445167
-393133
-375444
-198400
-195922
-180353
-189519
-208803
-248047
-275526
-246616
-237896
-263918
-272546
-294385
-309640
-310441
-299447
-281575
-284655
-228748
-240587
-258262
-228771
-250103
-220283
-237770
-411114
-429400
-374608
-334189
-336493
-322978
-361662
-258344
-287317
-279139
-268783
-299289
-164189
-161807
-182633
-169349
-177739
-169658
-156673
-203670
-231196
-228697
-219904
-221936
-211922
-211172
-14438.8
-10372.2
-202.796
-1690.34
-151.261
-1711.75
-1482.84
-19722.1
-19738.1
-16771.2
-16265.5
-16088.5
-47744.1
-54322.7
-54234.6
-50922.7
-49265.8
-52341
-49622
-27422.9
-23812.9
-28729.5
-25104.1
-27549.1
-23875.9
-28768.2
-19094.3
-24360.3
-58550.5
-55510.5
-51723.3
-50204.8
-52725.7
-23389.8
-23636.8
-28137
-27273.3
-27802.2
-2699.05
-514.066
-2235.96
-417.079
-2193.87
-2747.99
-737.022
-17249.4
-20265.3
-17736.2
-21593.4
-16897
-20487.3
-18221.2
-667293
-630851
-622939
-684483
-639139
-547664
-505473
-567878
-579588
-518047
-594592
-533892
-598768
-526353
-541002
-513776
-583981
-734089
-756139
-439689
-474219
-497187
-451854
-511405
-299877
-304227
-319933
-343327
-290687
-330322
-314176
-346900
-394471
-375967
-400470
-356497
-383583
-365436
-425150
-463112
-483941
-497017
-435141
-472556
-451964
-375861
-405434
-436000
-386586
-416465
-366153
-397288
-712224
-690560
-387702
-345510
-372608
-356940
-400937
-427600
-483082
-435290
-415596
-469089
-650229
-606867
-584049
-633294
-590927
-747447
-770173
-498334
-508555
-534674
-550734
-513383
-343215
-318675
-358937
-358772
-329432
-371361
-331715
-403147
-450518
-396737
-420735
-385207
-415597
-436911
-506699
-492988
-564706
-526405
-520235
-480598
-549949
-440939
-464281
-459451
-408387
-420152
-478197
-428196
-724935
-702630
-412380
-395411
-384160
-427026
-397792
-483449
-518776
-464944
-503044
-468731
-398051
-380041
-207513
-204531
-194775
-218530
-204898
-270626
-289886
-258462
-277387
-259092
-309219
-308056
-323648
-346363
-297581
-320381
-334137
-256063
-264826
-268100
-237866
-247430
-275881
-245981
-416386
-435023
-397930
-355756
-370722
-383680
-357482
-282385
-302619
-293431
-315581
-294368
-180775
-167377
-188622
-183973
-175581
-193318
-172250
-226381
-253975
-236879
-228463
-219225
-243331
-236084
-188214
-171364
-167810
-162558
-178250
-163153
-175920
-113847
-125142
-123405
-121451
-131934
-62078.8
-59205.4
-59415.1
-66736
-57121.3
-64806
-64270.8
-89527.7
-101491
-98530.4
-97372.3
-95534.1
-94872.5
-92366.5
-142048
-154112
-161117
-157084
-149290
-153051
-146578
-108043
-108303
-118266
-104873
-115306
-101709
-111394
-150784
-138834
-64657.9
-61054.6
-68814.7
-66836.2
-71044.9
-106456
-115129
-102231
-99280.4
-107111
-196755
-184897
-174933
-186261
-175265
-164899
-177782
-122770
-130450
-128999
-137849
-130881
-68734.7
-61546.8
-69261.8
-65501.4
-66733.6
-71190.8
-63440.6
-98169.4
-110086
-101859
-100568
-95527.2
-104658
-103030
-155800
-159355
-174851
-162064
-163923
-151515
-165952
-118245
-117374
-122000
-108381
-115098
-124892
-111351
-152440
-140388
-68511.5
-72444.5
-67141.8
-75064.5
-73206.6
-114918
-120434
-106775
-112152
-107325
-15420
-11313.1
-57.3737
-2030.18
-238.108
-1715.5
-2106.89
-23059.5
-21892.8
-18508.7
-17971.4
-19193.4
-53401
-56545.9
-53111.3
-60029.1
-51727.3
-58327.2
-54769.4
-31392.2
-27418.7
-30320.7
-26457.8
-30260.9
-31511.6
-27472
-20129.8
-25414.2
-62243
-54909.3
-61327.8
-56257.7
-55757.5
-27106
-26041.2
-30517.5
-30434.4
-31353.6
-2832.2
-475.178
-2408.63
-323.731
-2844.49
-2483.09
-489.096
-20022.4
-23492.6
-18879.1
-22801
-19274.9
-19714.5
-23683.3
-830671
-793384
-851557
-185809
-151510
-151143
-184566
-324255
-307830
-254774
-253417
-269065
-298565
-266970
-283663
-135012
-118452
-137351
-117173
-131397
-112624
-114057
-128974
-485922
-505299
-498011
-449169
-480068
-444859
-432737
-462347
-94410.9
-83025.7
-85238.4
-91557.1
-97862.7
-90288.5
-88183.6
-100678
-1948.26
-458.322
172.322
-599.978
-312.25
-3208.81
-2100.22
-1393.05
-37280.3
-38534.4
-40110.1
-35866
-34635
-30881
-33527.5
-31892.3
-43454.5
-50866.5
-64500
-56161.4
-56803.3
-42743.8
-49371.9
-49540.9
-5883.83
-5459.83
-6463.14
-4587.72
-7718.03
-10603.6
-8177.33
-10244.1
-112643
-229760
-233823
-98307.8
-99031.1
-101343
-100761
-111238
-111507
-110193
-110052
-154751
-158242
-166760
-163207
-223428
-219443
-209395
-213309
-875375
-842512
-898149
-318835
-270182
-275262
-312182
-809905
-735694
-789262
-823363
-846104
-716691
-748364
-768743
-143191
-121583
-140965
-122698
-146827
-126805
-125861
-148949
-179554
-148157
-180938
-148313
-175922
-144962
-144998
-174415
-626782
-605948
-516159
-499650
-534519
-571828
-516854
-553074
-852757
-778991
-830302
-839512
-863005
-758131
-785910
-808022
-206552
-177866
-181987
-201190
-213658
-192488
-188258
-219177
-296945
-262458
-257507
-303439
-288420
-245151
-249975
-282081
-637069
-615691
-536321
-522276
-555880
-595725
-540788
-575684
-96518.7
-95663.4
-92828.9
-93826.3
-72269.6
-74026.1
-77719.4
-76084.4
-149984
-146541
-138571
-141967
-95211.6
-98378.1
-105163
-101970
-38169.6
-40531.1
-44954.1
-42629.5
-70186.5
-68330.9
-64268.9
-66214.1
-46075.9
-49109.8
-54870
-51814.7
-91768.4
-88614
-82163.6
-85307.5
-327971
-311307
-261618
-261367
-276445
-307101
-275512
-291609
-189122
-171810
-194322
-167791
-182511
-158032
-161955
-177456
-492741
-512568
-517013
-468155
-497963
-460661
-450606
-479182
-119814
-105610
-109087
-115572
-124964
-117203
-113665
-129323
-240784
-214474
-227116
-216576
-230882
-202077
-200748
-213761
-45726.4
-40955.8
-42857
-43624.6
-48599.3
-48794.3
-46139.2
-51514.8
-85253.6
-80126.4
-88162.1
-77811.9
-81907.2
-72551.9
-74949.5
-78981.1
-105488
-95231.3
-72619
-78865.6
-81167.5
-99490.4
-87202.9
-90121.2
-247141
-220876
-233015
-218836
-233322
-208043
-205843
-219253
-55002.2
-48972.3
-52137.4
-51551.8
-58567.8
-58568.2
-55366.6
-62100.5
-106514
-101218
-97793.4
-110632
-101800
-90207.5
-93587.8
-97778.3
-106841
-96554.4
-75219.6
-81866
-83857.1
-102399
-90322.3
-92919.7
-36084
-33706.6
-29268.7
-31661.7
-6224.29
-7003.27
-10683.8
-8345.09
-43472.7
-40456.4
-34963.1
-37953.6
-3808.14
-6250.55
-12111.1
-8906.39
-2650.52
-1055.73
140.017
-855.676
-658.817
-4318.71
-2725.99
-2215.18
-44791.2
-45884.7
-48132
-42763.3
-41550
-36746.4
-39827.2
-38284.1
-44585.3
-52042.9
-67014.4
-58867.4
-59246.9
-45051.3
-51997.6
-51929.5
-4490.4
-2012.05
-4150.5
-1359.76
-4524.27
-1822.43
-4221.59
-5317.78
-3156.78
-5759.47
-2534.94
-8411.26
-12026.6
-8773.93
-11719.6
-668202
-737652
-684654
-340997
-358067
-360971
-323848
-344956
-313746
-309238
-329212
-212562
-238057
-223931
-205692
-208379
-230244
-198865
-219420
-250603
-247376
-235539
-296932
-303250
-284222
-236114
-218058
-241272
-227898
-252498
-289727
-259440
-271723
-263603
-299731
-279373
-265538
-254748
-289356
-275037
-119272
-103157
-116671
-104884
-122854
-109536
-125380
-107953
-237316
-268418
-269500
-256158
-245984
-259741
-246902
-466804
-447963
-377242
-369141
-393780
-427590
-384708
-410562
-405531
-419226
-391329
-324726
-300921
-336227
-311887
-348866
-404020
-363440
-377297
-309845
-345169
-322958
-290306
-290076
-323747
-279360
-311432
-359575
-349759
-336263
-171835
-191510
-194981
-185822
-186284
-179612
-177666
-110434
-100125
-113124
-98261.8
-106905
-93261.3
-104163
-95248.3
-195533
-219154
-203824
-194128
-212810
-187513
-202578
-4120.66
-6930.09
-15801.6
-13416.7
-11887.5
-5581.26
-9946.56
-8478.84
-112.571
-991.532
-1200.81
-4312.53
-7016.03
-6571.58
-4255.41
-3849.45
-2835.25
-5918.77
-3326.1
-19164.5
-14630.9
-15414.3
-13402.2
-9931.63
-9509.44
-13008.5
-12688.6
-11158.8
-8791.84
-11964.9
-43327
-46071.2
-39959.4
-40757.8
-39087.5
-44506.7
-45099.2
-24308.2
-21333.3
-21722.5
-23907.2
-26694.1
-28646.1
-29376.4
-26034.2
-31136.1
-32766.8
-35617.4
-36593.4
-35024.3
-31480.2
-32597.4
-36546.2
-30177
-20203.8
-26322.5
-25121.1
-36392.9
-31462.5
-30513.9
-60382.8
-55206.8
-54114.3
-46518.7
-40324
-41920.7
-45141.4
-47181.4
-48869.1
-42537
-48164.5
-23211.1
-27145.2
-27570.2
-32374.3
-35736.3
-36937.5
-31386.7
-32230.6
-32030.6
-37228.4
-32239.5
-5450.23
-5109.69
-7709.95
-8774.48
-4884.16
-8272.92
-5729.44
-16937.3
-19329.8
-19463
-16799.3
-14834.6
-12424.3
-12390.7
-14929.5
-14154
-14407.3
-10641.3
-11841
-13699.4
-11169.4
-14982.5
-105405
-105108
-103036
-103466
-106992
-107145
-108692
-108685
-184569
-180886
-171911
-175535
-190121
-193875
-203457
-199624
-718343
-784749
-736903
-651838
-684296
-635568
-527470
-488798
-554665
-501254
-569279
-666721
-603322
-619394
-800783
-778374
-668279
-641959
-688071
-728120
-660441
-708020
-487395
-476414
-540147
-464096
-525724
-540125
-597594
-555755
-587354
-614689
-571496
-158221
-134560
-133963
-160113
-154584
-129986
-152582
-130759
-309143
-354533
-351375
-334388
-318482
-340804
-324232
-337364
-388825
-362030
-344642
-327890
-372769
-354992
-415198
-484647
-449939
-429872
-461218
-405296
-440882
-165507
-137789
-138198
-163745
-169145
-141679
-170786
-141456
-385623
-448032
-438720
-418935
-427560
-395435
-408073
-647829
-669092
-648644
-587391
-629180
-590764
-569508
-609883
-419896
-465935
-434420
-384907
-380117
-427815
-368476
-414309
-481852
-463924
-449097
-524628
-547114
-509255
-422525
-391851
-441450
-403680
-455209
-530567
-478896
-494006
-699919
-725810
-681632
-568688
-599835
-559467
-616495
-575125
-706457
-645493
-663489
-816210
-793096
-699328
-676397
-720685
-763980
-696564
-742237
-523385
-583319
-543954
-566950
-528591
-575078
-630636
-592438
-627649
-649343
-609963
-239825
-214486
-210031
-245668
-232224
-198982
-226538
-203322
-354882
-371008
-351354
-397072
-340327
-366711
-384130
-390846
-408093
-362511
-410186
-373797
-378701
-423466
-493286
-512787
-456107
-520831
-468302
-535322
-480000
-259526
-221408
-225986
-253514
-267600
-237816
-273773
-233114
-453823
-472609
-444016
-506477
-432030
-492264
-466844
-658697
-680554
-678177
-617040
-657231
-616004
-597658
-636507
-442789
-487707
-458642
-408984
-456888
-425621
-441863
-411614
-504871
-490955
-474698
-557891
-575584
-540881
-450711
-472097
-439815
-487483
-454185
-557608
-507409
-524052
-86625.2
-87898.7
-90950.9
-89819.2
-84667.5
-83276.1
-79756.7
-81272.5
-123318
-126612
-134178
-130837
-119269
-116005
-108889
-112126
-53691.2
-51485.1
-47084.7
-49343.5
-55825.5
-57959.5
-62139.4
-60089.6
-66697.7
-63609.5
-57648.8
-60738.3
-69676.8
-72776.5
-78976.7
-75860.5
-344995
-362355
-372321
-335164
-355543
-322929
-319800
-339078
-220784
-245873
-232734
-214867
-241331
-225868
-229805
-215264
-258978
-257458
-244960
-310101
-314258
-296552
-247231
-253107
-236710
-265127
-247785
-300019
-270229
-283260
-298230
-312202
-277065
-310252
-287248
-287418
-322099
-160080
-139429
-143178
-155320
-166189
-152414
-171090
-148577
-266332
-278868
-267033
-298598
-257154
-276785
-287140
-473211
-453971
-389406
-382995
-406784
-442418
-399498
-424458
-427146
-437530
-411717
-342903
-355799
-331607
-369635
-344442
-421260
-381521
-396508
-323901
-358589
-337949
-305501
-342174
-318981
-328767
-306567
-373884
-366761
-352237
-189502
-197884
-192520
-212675
-183963
-202887
-198428
-144831
-134237
-130566
-149446
-139206
-121984
-134715
-125586
-216870
-226842
-201250
-222680
-210153
-232899
-207551
-201432
-202001
-190550
-158845
-145521
-159010
-153942
-168514
-190524
-169549
-179921
-202639
-189087
-152097
-155611
-163729
-188064
-166750
-175722
-133238
-137294
-149742
-129269
-140714
-130735
-147491
-140027
-159437
-157807
-149596
-60470.8
-59251.1
-56655
-63433.9
-57414.4
-51375
-54478
-54006.4
-67215.7
-72439.7
-76218.2
-74960
-72532.3
-70407.2
-69525
-83690.1
-90820.6
-82232.4
-80577.7
-78024.1
-88450.6
-86380.4
-134950
-148934
-137423
-131998
-145152
-127996
-139204
-69524.5
-61958.5
-64495.3
-66570.2
-72745.9
-69736.7
-75699.5
-67264.2
-114537
-125639
-129870
-124960
-122495
-121190
-118091
-116168
-127292
-140821
-124200
-129922
-109242
-114414
-119390
-66970.1
-76334.6
-73872.8
-75011.2
-79120.9
-84655
-72858.8
-77711.4
-84075.4
-88614.2
-81089
-121727
-118384
-113005
-95064.6
-85611.2
-91870.7
-92330.7
-99358.4
-109314
-96444.5
-104577
-209118
-208353
-197737
-165542
-166074
-156749
-176032
-165880
-196461
-175850
-186647
-204756
-191070
-155956
-160149
-167859
-192803
-171597
-180142
-138850
-156389
-147872
-146981
-139249
-135671
-152080
-145260
-165349
-162688
-155152
-73415.4
-71987.2
-68724.9
-77126.4
-69490.2
-61954.5
-65855.1
-65190.2
-74227.3
-75084.4
-77679.4
-83245.3
-72113.2
-79917.1
-77107.7
-91884.5
-93864
-83434.5
-89612.4
-89383.6
-85801.3
-96207.5
-147880
-153623
-136384
-148838
-143856
-157280
-140164
-85062
-75682.7
-78986.2
-81244.4
-89358.6
-86180.3
-93268.4
-82838.2
-125347
-129582
-129101
-140627
-122005
-132643
-132653
-117590
-128779
-144446
-127978
-133324
-112302
-117997
-122612
-70383
-79448.8
-77421.8
-78798.2
-89034.4
-86084
-81905.6
-79521.7
-87309.1
-92462.5
-84781
-126397
-122258
-117436
-99394.9
-96454.5
-92909.6
-104160
-99989.2
-113000
-100470
-108794
-20604.9
-22984.4
-27284.3
-24896
-18769.5
-16427
-12394.2
-14693.4
-24413.1
-27294.5
-32549.4
-29622.8
-22184.4
-19324.1
-14326.2
-17205.7
-4935.07
-7822.19
-17664.9
-15149.3
-13616.3
-6947.55
-11470.8
-10050.3
-29.2493
-1215.29
-1473.34
-4900.36
-7481.01
-8469.59
-4371.7
-5134.28
-3371.41
-6831.66
-3877.42
-21205.9
-16318.8
-17218.5
-14887.2
-10767.8
-11910.3
-14279.4
-15486
-12617.1
-10030
-13505.1
-48659.2
-48147.6
-42626.9
-44877.9
-47087.2
-44094.1
-49721.5
-29118.5
-25308.5
-28290.7
-26043.2
-32037.6
-33957.1
-35191.8
-30928.2
-35464.8
-34488.5
-38342.2
-40236.4
-34219.4
-39699.7
-35782.7
-37665.6
-31269.5
-22194.4
-28538.4
-27200.3
-38635
-33797.9
-32681.8
-63667.4
-58006.8
-57273.3
-49556.5
-45124.4
-45320
-50553.3
-50423.2
-51573.7
-45439.1
-51198.8
-25464.2
-29376.7
-30013.9
-34934.7
-39964.6
-40448.4
-35069.3
-35796.8
-34399
-39990.3
-34850.9
-6155.63
-5475.76
-9298.52
-9092.17
-6034.48
-5684.93
-9582.62
-20226.7
-22794.9
-19847
-23222.3
-17560.9
-14495
-14556
-17477.3
-16479.5
-15378.5
-12551.7
-12536.9
-15871.8
-16078.3
-13002.4
-5320.8
-3359.31
-5411.73
-4810.21
-5718.54
-5395.08
-3887.36
-6567.39
-5721.21
-6618.73
-3220.33
-795.602
-3724.32
-1754.06
-3772.34
-3227.73
-1154.03
-3298.77
-693.408
-3713.68
-951.327
-3715.13
-3288.83
-693.456
-256635
-290087
-337326
-297576
-294968
-252618
-303361
-170412
-190902
-199791
-207822
-174635
-186510
-194234
-165555
-183132
-201454
-175776
-180100
-188630
-161328
-112584
-115739
-131072
-119892
-119646
-108524
-124853
-117055
-135014
-136572
-129158
-125170
-129939
-121154
-40607.1
-46320.7
-46143.5
-44626.4
-43811.3
-43178.3
-42609.1
-37420
-35793.4
-41024.6
-36634.4
-39670.5
-39131.4
-34341
-4657.56
-2523.11
-4199.18
-2499.34
-4641.43
-3337.85
-4345.9
-7225.93
-9596.53
-7287.3
-10878.2
-7961.49
-7040.95
-9800.18
-365827
-322542
-374027
-399521
-329306
-356976
-409469
-183754
-197431
-205449
-227057
-179527
-201878
-211058
-188679
-222417
-213030
-233661
-208520
-192890
-216764
-243557
-282914
-291719
-315934
-247608
-278079
-285939
-238544
-274316
-308787
-266179
-270959
-280089
-234454
-235649
-212329
-244395
-252767
-218462
-228381
-260928
-242965
-277860
-231363
-251932
-225134
-250454
-269452
-339489
-314574
-389380
-348317
-348169
-307867
-379624
-330879
-360137
-339794
-293419
-300069
-369687
-322384
-214235
-205857
-222549
-244502
-199837
-221291
-236591
-207383
-220935
-215392
-187650
-193562
-228591
-200549
-133395
-121430
-137964
-138144
-126567
-127866
-144232
-138862
-156958
-143876
-136900
-131635
-150609
-144614
-50501
-50050.7
-49812.5
-55944.6
-47156.2
-53277.4
-53536.7
-54005.5
-61309.2
-60560.4
-59955.2
-57231.7
-57460.6
-57400
-100156
-110391
-114927
-115262
-104151
-106553
-110088
-95874
-100542
-110105
-97634.5
-101389
-105248
-91940.4
-58476.2
-52072.7
-58650.7
-56732.2
-56018.4
-54491
-60875.9
-62314.6
-69590.1
-63655
-62813.6
-59565
-66499.5
-65218.3
-117282
-116568
-132036
-121007
-122614
-111578
-126204
-112258
-114788
-115533
-102053
-106908
-120365
-107135
-46994.6
-48710.5
-46854.4
-52617.9
-44931.2
-50822.3
-48686.3
-43519.4
-41079
-43117.2
-38107.5
-41737.9
-44799.4
-39875.3
-8024.67
-10998.4
-7551.12
-11178.4
-8022.75
-7836.53
-11298.5
-403237
-425577
-385410
-344974
-352157
-435478
-394615
-245573
-267123
-225952
-232610
-219259
-253427
-258531
-237784
-206004
-225205
-241631
-212598
-230067
-250027
-147552
-154887
-161339
-176850
-166694
-143348
-159079
-152310
-177594
-169492
-182957
-156523
-172162
-165228
-207354
-209076
-180144
-196502
-186513
-199945
-217049
-214848
-199447
-233329
-203570
-222418
-192958
-225139
-150611
-149541
-143532
-131616
-137405
-156540
-143968
-157364
-149247
-149823
-170935
-143292
-164220
-163678
-134484
-148883
-155955
-159170
-138657
-150683
-144752
-129852
-140208
-134846
-153355
-125706
-145384
-138903
-185378
-201209
-173823
-175929
-192616
-167579
-193465
-178229
-155288
-178325
-169233
-171177
-161389
-185831
-46076.1
-52415.7
-48221.6
-46397.8
-44341.4
-50307.4
-48068.7
-41995.9
-36948.9
-42506.7
-39823.7
-40579.3
-38064
-43868.4
-25561.9
-24485.6
-23338.8
-27698.5
-26292.9
-22753
-27342.1
-28403.3
-32518.9
-33350.4
-30902.4
-31332.5
-29372.9
-30404.1
-27152.7
-25078.7
-23618.9
-28214.1
-26768.3
-23801.2
-28554.5
-30644.2
-33432.8
-35924
-31619.5
-34279.7
-30043.8
-32170.8
-5997.39
-9264.98
-6811.57
-9300.38
-6523.48
-8785.06
-6269.11
-17399.9
-21651.5
-20448.3
-18668.4
-20085.7
-17653.6
-18835.3
-14877.8
-12266.8
-13356.8
-15784.3
-12265.9
-14914
-16187.7
-17489.1
-21729.1
-20568.1
-18680.1
-20581.3
-17625
-18497.5
-14511.3
-12009
-12315.4
-15671.1
-11620
-14769.8
-15368.8
-500621
-458157
-421521
-443591
-454887
-469418
-488092
-207014
-235795
-245349
-260363
-239630
-211189
-231171
-202040
-228162
-219772
-253552
-197841
-233851
-224336
-269326
-275818
-232704
-255201
-239482
-261348
-284596
-277367
-253178
-262909
-302425
-246320
-285461
-293472
-310049
-339065
-280978
-294330
-273990
-318338
-329793
-301804
-260087
-286354
-311470
-267013
-293609
-320588
-377441
-415721
-337781
-359997
-330624
-386014
-405928
-368895
-316340
-351586
-386505
-323464
-360384
-396182
-220329
-242715
-251152
-280829
-216176
-256894
-247388
-225329
-268478
-259115
-287821
-229449
-262719
-254386
-335042
-348419
-288010
-318526
-326672
-295047
-357836
-343455
-309216
-376881
-326734
-351901
-302130
-367330
-273462
-258037
-282757
-313199
-251622
-304312
-281368
-265696
-286636
-238230
-274863
-257998
-244562
-295288
-315073
-290965
-272245
-278507
-287827
-300585
-304669
-325635
-306922
-280876
-320197
-297326
-310335
-336342
-369356
-360804
-316363
-346737
-350489
-336608
-380640
-358205
-316697
-307322
-330183
-340276
-326565
-347204
-463361
-446971
-432357
-391864
-421273
-475665
-435878
-451166
-399392
-382103
-413949
-410253
-424864
-439097
-297464
-265286
-306699
-322463
-271791
-289357
-331580
-305665
-350415
-285804
-314921
-313973
-279226
-341077
-403630
-371233
-343988
-357038
-381759
-392071
-367424
-415325
-388602
-403119
-353406
-392393
-427145
-377975
-284323
-281462
-247075
-269291
-260257
-272093
-294414
-274385
-242585
-238888
-253737
-251329
-262846
-264614
-180920
-164249
-187940
-191204
-169918
-198340
-174529
-187306
-213200
-181579
-194697
-193926
-175791
-205803
-236281
-218651
-207367
-209029
-227211
-217176
-227175
-245560
-233953
-244757
-215084
-235918
-255001
-225508
-168262
-155439
-150251
-149265
-156181
-162807
-160553
-176152
-170501
-156955
-178012
-163280
-170335
-184216
-162189
-158582
-168453
-184011
-153047
-168369
-177136
-156269
-163606
-142168
-162114
-150309
-147577
-170219
-209473
-210229
-185012
-201002
-201955
-218234
-193164
-200877
-177911
-185845
-177794
-193823
-192462
-185445
-68488.4
-76027.4
-77922.1
-76875.2
-73665.9
-72161.7
-72517
-64689.6
-65354.5
-64724.7
-72466.8
-61114.4
-69440.5
-68141.6
-59222.3
-56920.1
-52227.6
-58774.1
-56347.3
-54691.4
-61573.9
-63905.1
-64964
-63171.9
-71353.3
-60600.4
-68735.4
-66389.5
-84096.5
-92756
-83586.7
-81963.5
-78763.7
-89500.1
-87179.5
-78832.8
-69449.9
-77062.9
-76476.1
-74043.9
-73712.6
-81748.4
-131013
-142668
-125897
-125382
-120277
-137432
-135938
-124708
-109303
-119528
-122882
-114737
-118524
-129337
-79864
-80607.3
-82311.5
-90541.6
-76089.5
-86726.8
-84195.9
-83919.2
-95844.6
-92657.6
-95334.3
-87771.8
-91277.7
-88980.3
-100716
-98488.3
-88524.2
-97338.5
-95042.5
-93557.7
-104365
-106525
-103952
-116564
-102726
-112461
-98709.5
-110395
-79090.1
-79944.8
-80478.7
-88422.7
-75550.7
-83585
-83637.4
-74880.8
-74166.1
-67382.9
-75883.2
-70525
-71638.1
-78769.4
-66199.9
-59350.8
-61449.1
-59064.7
-63604.5
-64140.5
-61288.6
-71273.9
-73108.6
-65998.8
-74204.3
-68297.5
-69094.3
-76513.6
-93265.6
-96275.3
-85495.4
-93836.2
-90513.8
-88449.5
-99191.2
-87509.3
-78084.8
-80413.2
-79477.8
-84912.9
-83185.5
-81927
-145666
-148223
-142480
-130985
-135878
-153016
-141168
-138488
-123102
-124816
-127533
-129400
-134269
-131493
-92775.5
-84040.9
-94839.2
-93488.4
-88599.7
-88049.7
-98567.5
-97383.4
-109210
-97584.1
-99870.1
-102316
-92880.7
-103883
-111580
-102201
-101529
-99396.6
-108289
-105300
-105088
-118039
-116936
-120956
-107156
-114542
-124674
-110948
-51949
-54716.8
-48624.4
-54648.9
-50382.6
-50238.8
-56535.4
-47510.4
-42210.6
-44597.8
-41736.7
-46225.9
-45911.5
-43222
-29914.9
-25432.4
-29206.4
-27049.1
-28776.3
-30390.7
-26591.1
-33062.8
-37398.9
-35096.3
-32545
-36558
-31623.4
-33873.3
-31217.5
-26449.7
-29730.2
-27304.2
-30068.5
-30864.6
-27474.2
-35082.6
-38309
-37708
-33279.4
-33820.7
-39080.6
-34538.1
-6731.79
-10595.2
-7072.86
-9833.25
-7217.96
-6571.62
-10144.5
-20327.2
-22751.5
-19703.2
-23733.1
-19514.1
-23569.2
-20519.7
-17436.4
-14213
-13706.2
-16662.2
-14257.5
-16931
-17337.2
-20329.2
-22952.7
-19724.9
-23835.5
-19562.7
-23847
-20462.3
-16895.9
-13885.4
-13037.6
-16552.7
-16269.9
-13510.2
-17148.4
)
;

boundaryField
{
    left
    {
        type            calculated;
        value           nonuniform List<scalar> 0();
    }
    bottom
    {
        type            calculated;
        value           nonuniform List<scalar> 0();
    }
    interface
    {
        type            calculated;
        value           nonuniform List<scalar> 
2171
(
-3633.55
-4675.29
-3925.7
-2833.72
145.085
112.859
135.455
109.261
-779930
-240860
-281721
-468126
-418404
241.287
89.2662
-4403.52
-63565.7
-43213.2
-701.021
-812978
-760439
-702697
-485112
-537227
-792126
-730482
-500149
-554999
-246220
-288303
-482318
-430261
-227815
-190484
-71141.5
-96165.1
-232823
-194592
-73479.6
-98733.8
234.554
-64.5526
-5255.19
-65840.5
-45306.7
-155.16
-724209
-339998
-295894
-226340
-264137
-318025
-277246
-355203
-402260
-436424
-390488
-332082
-375571
-17499.3
-7053.47
217.288
-94.7079
-5329.8
-18563.8
-8123.89
-21805.2
-37242
-62034.5
-43023.2
-22735.3
-37407.8
26.1403
-759789
-706232
-652966
-627600
-683711
-583667
-635448
-609199
-554964
-452114
-500241
-566685
-516619
-740349
-682888
-650612
-710255
-608466
-664038
-631096
-573717
-468364
-519422
-590287
-536850
-348614
-302942
-232253
-271351
-327408
-284956
-364406
-413405
-451770
-403336
-342090
-387657
-214269
-179720
-145154
-178665
-137743
-168777
-134656
-105247
-69086.2
-92327.9
-128016
-100755
-219807
-184299
-148386
-182520
-141389
-173087
-137720
-107920
-71740.4
-95254.1
-131482
-103796
-19124.1
-8145.67
207.827
-192.023
-6157.85
-20282.4
-9214.47
-23558.3
-39266.6
-64608.8
-45354.6
-24613.2
-39644.9
36.2055
-276509
-546283
133.24
-929503
-278182
-550828
-261080
-262636
-77032.3
-3232.29
174.775
-68133.3
-1743.44
-2167.9
-891.077
-617125
-539595
-552319
-455923
-495011
-506491
-445827
-393975
-198950
-180371
-189543
-248115
-276454
-272761
-309346
-299160
-281806
-228888
-240346
-249854
-220410
-412023
-376146
-334364
-258422
-288312
-268873
-164252
-169181
-177561
-156729
-203776
-230965
-221712
-212038
-14691
-320.673
156.48
198.923
-139.442
-1743
-19771.5
-19832
-47785.6
-54233.8
-49273.6
-52380.1
-27479.1
-23867.8
-27597
-23934.2
-58683.6
-55537.1
-50236.3
-23436.1
-23736.7
-2734.66
87.0078
140.523
-395.323
-2243.64
117.481
-726.904
-17313.8
-20327
-16964.5
-20548.8
-664585
-621368
-637511
-546333
-578228
-593188
-532610
-602116
-526924
-514316
-736533
-440056
-499649
-300146
-319633
-290937
-330016
-347278
-394132
-356898
-383248
-425746
-483577
-435768
-472194
-376315
-405091
-416117
-366579
-389331
-345703
-357152
-427942
-485429
-647637
-605355
-743935
-497198
-532820
-512196
-342565
-358033
-370589
-331100
-402310
-449528
-414720
-435959
-505513
-563389
-519001
-548675
-439978
-463253
-477130
-427279
-721585
-411204
-383386
-482363
-517017
-467692
-207164
-194497
-270167
-289257
-258662
-308669
-345656
-319799
-333463
-255659
-264329
-275357
-245604
-396826
-369987
-281896
-301940
-293846
-180555
-183672
-192996
-172049
-226053
-253505
-242889
-235733
-188720
-171379
-163463
-113852
-123681
-62113.1
-59405.2
-57157.5
-64786.4
-89557.1
-101413
-95563.6
-94804.2
-142095
-160960
-149341
-152902
-108074
-108215
-115207
-101738