/*--------------------------------*- C++ -*----------------------------------*\
| =========                 |                                                 |
| \\      /  F ield         | OpenFOAM: The Open Source CFD Toolbox           |
|  \\    /   O peration     | Version:  2012                                  |
|   \\  /    A nd           | Website:  www.openfoam.com                      |
|    \\/     M anipulation  |                                                 |
\*---------------------------------------------------------------------------*/
FoamFile
{
    version     2.0;
    format      ascii;
    class       volScalarField;
    location    "0.105/solid";
    object      sigmaDiff;
}
// * * * * * * * * * * * * * * * * * * * * * * * * * * * * * * * * * * * * * //

dimensions      [1 -1 -2 0 0 0 0];


internalField   nonuniform List<scalar> 
3125
(
-259805
-193369
-138733
-66072.2
-5076.6
-309101
-200982
-252672
-226214
-298067
-216651
-153157
-74230.8
-130777
-82955.2
-144390
-5834.24
-5470.58
-74025
-4742.69
-589968
-540491
-201891
-273456
-339301
-170211
-266318
-365680
-284410
-192002
-162408
-256470
-3734.62
-29896.4
-71846.7
-41431.6
-36644.9
-70762.3
-34449.4
-3650.86
-33054.6
-32080.2
-616880
-562049
-575941
-480379
-223499
-350264
-430321
-527908
-230883
-442193
-377898
-467142
-601254
-497755
-255895
-360914
-444987
-548602
-266149
-457527
-390086
-483776
-208565
-281816
-349472
-188819
-273770
-377342
-293099
-197553
-179776
-263618
-192445
-132226
-98617.1
-77455.4
-121722
-183467
-106695
-128788
-76707.5
-124500
-198956
-137959
-109443
-81352.7
-126211
-188858
-118197
-133361
-81854.8
-130163
-5362.64
-33473
-75641.1
-46967.5
-39398.4
-75808.6
-38281
-4997.98
-37750.1
-34638.4
-803058
-360619
-249183
-290639
-246186
-185696
-227308
-480981
-430027
-156838
-146667
-173691
-3198.98
-7852.02
-71459.4
-57884.9
-57880
-70476.9
-49876.1
-3228.13
-14727.5
-17601.7
-802794
-389233
-782815
-722919
-208548
-252558
-272025
-353593
-245468
-332689
-498417
-551998
-782377
-721984
-235931
-266791
-288316
-381086
-287235
-356912
-495863
-549777
-249476
-290449
-259805
-207242
-239243
-478406
-428086
-164388
-161957
-182044
-235971
-198224
-82383.8
-76035.9
-90129
-151371
-122777
-135242
-78105
-103258
-236414
-199087
-91822
-80627.2
-95249.7
-158682
-135659
-141921
-80184.9
-105099
-14850.5
-16906.7
-4216.56
-9619.87
-75863.6
-65060.7
-61686.3
-72621.2
-52157.9
-3762.17
-17482.6
-19374
-745556
-403874
-349939
-305043
-236294
-231426
-274590
-329305
-241655
-287887
-268073
-307190
-245999
-177985
-202903
-221144
-296758
-217639
-238797
-365445
-413511
-449983
-329907
-403091
-343600
-318290
-387883
-164913
-218641
-184040
-154551
-196961
-179399
-227856
-210755
-190585
-23012
-11092
-3470.82
-12820
-9102.9
-24839.6
-16933.4
-12599.5
-71733.4
-55960.7
-57673.2
-49688.4
-40183.3
-53447
-50956.4
-39609.5
-53102.5
-27662.5
-43773.3
-70376.5
-54138
-50922.8
-29463.8
-48974.9
-45097
-3112.03
-14453.8
-17043.1
-24504.5
-35790.2
-22318.8
-18802.3
-35157.9
-21705.8
-754353
-431252
-727011
-534395
-672121
-645209
-703252
-520737
-600849
-654089
-216051
-298588
-278586
-275571
-383892
-298487
-329928
-395335
-306253
-395464
-490642
-370509
-238210
-305321
-325801
-478391
-337934
-362289
-626202
-570263
-466018
-415380
-515268
-583407
-428136
-532048
-735309
-555227
-679108
-643661
-702157
-540541
-606500
-660701
-245825
-318077
-295616
-289194
-396118
-314083
-348592
-408134
-322568
-421759
-508894
-393710
-276592
-325679
-349026
-495879
-357442
-384522
-624509
-568168
-469992
-429310
-519748
-588785
-442701
-536727
-349028
-304682
-239193
-238703
-277523
-332388
-249172
-290846
-281096
-316062
-257404
-197963
-213001
-232582
-305244
-227270
-249715
-364340
-411786
-453814
-340144
-406565
-346744
-328103
-391260
-172103
-224773
-191991
-170831
-206665
-188056
-234213
-220001
-198829
-224079
-165346
-189157
-152517
-186295
-156739
-146801
-178109
-90508.3
-109617
-94896.9
-76545.3
-95329.4
-91437
-112437
-101645
-96555
-158724
-158931
-140679
-114756
-114606
-130017
-151118
-117901
-134854
-141951
-112383
-77529.8
-95848.3
-101019
-136996
-102671
-109517
-226982
-171453
-192102
-153863
-187284
-162740
-149864
-181077
-100660
-115407
-100186
-81042
-99496.3
-96412.4
-118010
-105892
-101681
-165688
-163911
-147057
-126925
-120565
-136506
-155986
-123624
-141055
-143404
-114136
-80894.4
-101239
-104282
-140096
-108131
-112742
-25229.3
-13007.8
-4846.18
-15258.5
-11239.7
-27767.5
-19657.4
-14959
-76059.6
-59380.2
-61440
-56030.5
-43121.4
-57045.5
-54231.6
-42535
-56669.3
-29931.7
-46073.9
-73760
-58782.3
-54287.7
-32530.8
-53449.1
-48419.6
-3959.42
-16172.2
-18820.5
-28348.5
-38505.3
-24331.7
-20726.7
-37863.5
-23720
-934037
-958117
-280253
-296187
-553663
-533347
-1026.78
-1431.96
-70512
-62136.5
-923371
-947035
-910117
-886357
-574244
-595077
-899855
-876495
-569047
-589608
-278153
-293949
-548734
-528670
-264685
-249484
-79362.5
-88679.4
-262707
-247649
-79361
-88611.5
-8669.37
-5099.71
-9159.21
-1118.16
-1646.15
-70571.4
-62253.3
-9306.19
-4146.28
-8294.94
-4505.38
-8201.82
-8956.21
-4194.67
-640488
-604077
-571500
-584941
-656102
-486260
-495000
-553149
-524994
-536995
-506280
-475761
-399048
-381075
-212479
-211539
-197504
-206927
-223055
-267222
-291063
-262677
-256745
-279209
-296967
-315337
-332241
-328465
-321737
-306265
-305630
-251950
-261231
-276318
-249867
-270998
-243263
-258853
-417342
-435938
-392656
-356515
-353607
-344860
-379341
-277859
-303117
-295538
-288657
-315364
-185713
-182839
-200709
-188251
-196837
-190723
-178001
-226214
-251599
-246774
-241010
-242103
-234682
-232285
-17694.5
-13518.8
-3554.21
-5257.08
-2497.65
-4438.47
-4660.46
-28766.9
-28063.6
-25466.6
-24446.6
-23664.9
-63903.2
-72071.3
-69200
-66399.8
-63824.7
-68998
-66871.8
-40228.6
-34714.9
-41304.2
-37920.1
-39242.8
-35788.4
-42522
-22438.9
-27740.6
-70272.9
-68808.5
-65024.8
-63170.5
-64213.7
-33211
-32632.1
-39139.7
-37794.6
-37381
-5408.6
-3419.7
-6018.03
-2535.99
-4925.62
-6393.96
-2486.71
-27096.2
-30288.7
-27594.8
-33381.9
-25949.1
-31415.3
-28890.4
-661909
-632624
-620176
-678745
-636154
-549386
-517601
-575600
-579429
-529803
-593716
-536419
-624968
-558131
-562004
-544839
-609548
-747564
-770221
-466800
-493726
-519295
-479584
-534047
-325117
-325152
-342855
-361353
-315649
-353574
-335075
-373681
-419945
-396724
-418554
-383616
-408656
-386213
-454896
-483784
-513049
-515404
-465306
-501166
-472636
-403678
-431320
-454164
-407324
-442773
-393615
-418009
-725115
-702873
-406134
-368303
-390257
-380217
-419770
-454112
-504671
-454023
-441529
-490177
-645217
-604362
-585751
-628681
-588730
-739913
-762218
-499658
-511874
-533328
-548753
-513984
-356573
-336338
-372503
-369642
-346785
-381630
-345690
-413196
-456892
-412112
-432573
-400924
-424944
-443968
-510814
-505487
-565284
-535258
-523560
-493465
-551271
-448849
-469962
-470191
-423414
-434827
-483175
-436831
-717797
-695893
-416072
-402998
-391111
-430122
-404081
-485504
-518076
-469938
-502993
-471515
-395885
-378083
-218647
-218394
-209833
-229324
-219599
-282750
-298281
-270733
-286225
-271697
-324393
-326023
-338180
-357820
-315842
-334962
-346169
-273930
-279956
-284092
-257718
-267040
-290538
-264329
-413980
-432391
-402205
-364767
-378318
-388524
-365705
-294009
-310553
-304576
-323040
-305469
-201912
-188697
-206438
-202200
-196768
-211234
-193684
-245641
-269560
-253640
-248547
-239527
-259358
-254898
-202132
-188272
-183204
-179235
-192017
-166459
-179291
-129260
-140175
-136407
-137067
-145051
-79586.8
-77396.7
-74745.8
-83234.1
-74222.7
-80466.2
-82857.1
-108649
-118659
-118702
-114844
-114920
-111828
-112350
-162974
-175104
-179826
-175109
-170419
-171567
-167517
-127904
-125676
-136043
-125208
-132875
-121337
-131872
-154046
-142055
-76583.5
-74657.6
-82867.2
-80720.3
-83149
-121668
-128019
-117000
-114297
-119888
-208211
-200289
-189565
-198018
-190964
-165625
-178298
-139773
-145987
-142158
-150826
-147735
-90404.9
-81342.2
-87225.4
-84512.3
-86917.2
-90475.6
-84725.4
-120848
-129931
-123372
-119252
-116922
-127379
-122894
-177758
-180788
-193369
-180351
-185632
-173042
-184740
-140942
-137162
-140708
-129981
-136752
-144594
-134081
-153359
-141503
-82129.6
-88102.6
-83999.8
-88744.4
-90233.1
-132040
-133749
-122590
-125599
-124524
-18115.5
-13979.4
-5548.63
-7261.47
-5792.79
-7091.91
-7865.4
-35150.3
-32189.2
-28774
-27498.4
-30328.9
-73727.8
-75895.1
-70081.2
-78702.5
-70566.4
-79164.6
-73043.3
-47889.3
-41581.8
-44242.4
-40615
-45406.9
-46580
-42934.2
-22822.8
-28082.3
-75754.4
-69952.4
-77953.5
-69611.3
-72083.4
-40064.4
-37021.2
-43207.6
-42009.5
-45082.9
-8677.86
-4646.51
-7421.31
-5625.12
-7674.94
-8233.87
-5422.97
-33166.4
-36658.5
-29948.4
-35880.4
-31184.8
-31805
-38025.7
-875032
-823436
-897611
-251070
-221858
-220135
-250778
-329117
-312477
-264575
-262700
-279371
-309971
-276523
-294505
-187171
-174302
-189175
-173394
-181778
-167243
-168415
-179596
-493528
-513301
-519135
-463767
-500175
-463039
-446780
-481475
-135905
-127488
-130084
-132808
-140750
-136810
-134438
-143696
-4416.83
-2628.05
-2119.46
-3443.68
-2499.07
-6036.72
-5190.83
-3814.84
-60990.3
-64775.2
-64945.8
-60709.7
-57069.2
-52946.2
-57114.7
-53053.6
-46847.5
-54244.5
-69953.9
-63232.1
-62155.2
-47875.3
-56360.9
-54791.4
-7649.42
-5725.38
-8164.47
-4938.55
-12020.8
-17272.6
-12240.8
-16917
-204438
-272088
-273944
-169249
-170394
-175153
-174224
-200312
-200582
-196583
-196501
-208296
-210458
-217931
-215840
-265425
-263580
-255252
-257114
-863102
-823348
-885240
-344868
-300928
-304237
-340059
-852607
-762707
-830338
-839355
-862771
-742739
-786297
-808233
-196472
-179383
-194635
-180027
-202032
-185597
-185240
-203677
-244147
-215683
-244644
-217081
-238090
-212154
-211059
-237396
-637492
-616165
-538346
-516069
-557801
-597424
-533932
-577496
-841111
-762099
-819272
-830264
-853286
-741966
-776071
-797590
-245393
-221515
-224439
-241364
-252611
-233615
-230680
-256718
-326608
-293389
-290170
-331299
-318062
-279670
-282808
-313484
-631450
-610402
-532632
-513616
-551747
-590668
-531591
-571094
-165457
-164117
-158809
-160343
-123406
-126094
-132220
-129721
-203074
-200811
-193369
-195744
-148442
-151670
-159147
-156068
-67644.3
-71575.4
-78860.1
-75070.2
-119803
-116935
-110317
-113346
-82455.3
-87072.8
-95730.6
-91249.8
-144110
-140702
-132835
-136427
-326612
-310098
-263320
-262841
-277903
-308040
-276502
-292812
-230377
-215455
-234356
-212506
-223604
-203657
-206632
-219670
-489335
-508857
-513755
-461383
-495124
-458621
-444620
-476745
-163738
-152447
-155905
-159792
-169346
-164221
-160863
-173271
-250121
-223070
-236014
-220226
-234664
-210485
-208869
-222261
-72814.2
-68410.2
-68916.6
-72363.2
-76897.9
-79891.4
-76078.6
-80709.4
-124866
-123235
-128084
-120438
-120211
-113269
-116262
-116874
-108691
-98458.5
-78186.6
-86112.7
-86845.6
-105430
-94499.6
-95928.8
-249071
-223659
-235161
-218710
-232973
-211214
-208377
-221595
-89571.8
-83056.2
-87679.3
-84977
-94324
-96533.6
-92040.8
-98841.6
-150311
-147599
-144003
-154316
-145001
-135536
-139266
-140932
-108462
-98318.6
-79048.3
-88119.5
-87637.7
-106061
-96427.3
-96644.9
-64170.6
-60132.5
-52525.1
-56658.5
-6420.21
-8507.5
-17240.1
-12294.8
-78281
-73513.7
-64450.1
-69349.1
-5078.81
-10316.7
-22635.5
-16419
-4908.84
-3067.53
-2521.64
-4877.54
-3124.54
-7052.5
-6800.97
-4678.41
-75555.2
-78726
-80247
-73959.4
-70912.7
-64796.1
-69679.6
-66134
-47060
-54414.1
-70879.6
-65432.7
-63141.5
-48962.8
-58610.6
-55834.3
-9729.09
-3806.04
-8342.08
-4370.61
-8435.79
-4267.99
-9442.51
-10075.1
-4713.84
-10157.6
-4507.83
-16569.6
-22570.2
-16363.7
-22748.7
-693199
-764218
-710338
-346103
-363421
-375017
-334701
-358291
-325761
-319733
-341869
-224484
-248786
-236020
-221386
-226322
-244875
-216534
-233857
-261554
-259835
-247806
-310298
-315251
-297340
-252075
-236290
-256110
-246432
-267558
-301442
-272104
-284607
-287766
-317760
-301077
-286562
-278664
-311349
-296037
-166750
-154517
-164233
-156198
-171968
-162383
-174307
-160959
-260748
-286466
-290926
-277203
-269655
-280898
-267965
-474041
-454841
-392046
-381214
-409369
-444871
-397238
-426979
-421459
-434146
-406880
-341681
-321949
-353219
-333337
-366195
-418512
-378285
-392486
-323476
-358132
-336868
-306832
-310704
-340419
-299607
-327799
-372894
-364277
-350469
-193561
-209591
-214489
-206926
-205584
-201539
-198753
-156471
-149878
-159132
-147962
-151434
-141254
-148621
-143402
-217868
-237234
-223546
-215240
-232750
-209643
-223694
-6888.78
-9921.18
-20079.6
-18706.2
-15891.1
-8851.67
-14728.5
-12148.3
-3837.58
-3836.59
-4374.3
-8877.72
-12070.1
-11440.3
-8168.63
-7807.8
-6087.17
-10385.5
-7055.25
-26625.7
-20491.6
-22237.7
-21149.8
-16116.3
-15344.9
-20235.7
-19427.4
-16407.5
-14100.3
-18059.7
-58942.9
-61105.8
-53562.8
-56827.5
-54106.5
-58617.1
-61791.5
-41340.2
-37241.3
-37177.6
-41627
-45146.1
-49411.7
-49222.1
-45140.3
-44754.1
-46072.3
-48655.5
-51969.8
-49377.3
-43886.1
-47202.9
-39956.8
-33584.7
-24724.9
-32671
-29831.5
-41409.1
-38036.5
-35391.6
-70487.7
-63561.9
-64058.7
-59485.1
-52479.9
-52815.6
-57731.2
-58396.7
-57075.3
-52054.6
-57914.8
-31232
-34376.5
-36068
-43977.3
-47415.5
-47462.1
-42525.7
-42319.4
-39581.9
-46468
-41141.4
-9892.49
-10166.5
-13242.8
-15482.9
-9092.15
-14221.4
-10955.7
-29108.4
-33750.7
-33417.4
-29190.6
-25288.2
-20982.3
-20911.6
-25637.3
-22817.9
-23175.7
-17461.1
-19978.7
-21681.6
-18546.5
-24432.4
-184183
-183653
-179026
-179752
-188122
-188445
-192548
-192433
-233177
-231222
-223475
-225495
-239085
-240999
-248976
-247088
-707827
-773542
-725760
-676165
-708587
-659241
-548152
-518477
-579013
-531618
-594228
-690288
-625739
-642431
-816123
-793074
-700356
-664391
-721560
-764537
-683740
-742955
-507179
-505424
-563910
-492458
-548921
-560234
-618448
-576414
-609168
-636195
-592725
-216502
-196262
-196471
-217776
-210777
-190930
-209311
-191010
-334674
-372563
-375322
-355236
-344314
-364398
-345104
-363817
-406891
-386342
-365465
-354028
-397456
-375791
-444540
-502980
-477594
-450556
-489345
-434242
-461559
-224658
-201853
-201352
-223572
-230547
-206285
-231434
-207086
-413806
-466230
-465914
-439628
-454305
-423995
-428778
-659061
-680853
-679351
-607372
-658549
-617580
-588724
-637957
-436219
-482246
-451155
-402752
-404402
-447500
-392251
-433560
-498665
-481536
-466261
-544201
-566124
-528311
-441020
-416668
-461585
-429048
-475812
-549000
-496971
-512563
-690041
-716417
-672409
-570384
-596136
-558135
-612316
-573312
-697682
-637621
-654934
-807399
-784714
-691735
-662991
-712547
-754720
-682491
-733545
-526133
-580150
-543202
-564358
-528494
-570007
-624394
-586663
-620470
-642462
-603484
-276020
-252586
-249611
-280289
-268349
-240045
-264169
-242991
-367606
-384241
-368070
-406095
-357365
-378785
-393782
-401585
-420287
-378899
-418565
-389852
-390113
-431190
-498180
-522021
-469707
-523636
-481537
-537388
-485663
-292554
-259396
-262413
-288192
-300672
-272486
-305143
-269408
-460995
-482977
-457977
-510016
-446350
-496528
-473268
-652708
-674188
-671115
-605539
-650693
-610465
-586756
-630475
-443045
-486377
-458276
-416075
-458753
-430548
-444350
-417229
-502965
-489302
-473696
-553521
-571248
-537205
-456245
-473330
-444037
-488078
-457693
-553895
-505093
-521061
-147674
-149610
-155062
-153330
-143986
-141860
-135872
-138182
-178541
-181157
-188451
-185950
-173864
-171099
-163613
-166534
-93079.6
-89559
-82381.7
-86035.5
-96617.2
-99977.9
-106734
-103541
-112502
-108381
-99890.1
-104205
-116689
-120639
-128614
-124834
-343438
-360597
-372060
-333978
-355602
-323588
-319195
-339443
-228766
-251692
-240361
-228444
-251395
-239798
-240242
-229591
-264472
-264325
-252216
-315239
-318284
-302148
-259850
-262778
-250218
-274389
-260852
-304437
-276688
-289297
-313976
-327042
-295893
-323381
-305797
-303718
-334687
-202841
-186318
-189396
-198961
-209191
-197955
-213101
-194925
-283697
-294585
-286133
-312254
-276514
-293626
-301304
-470066
-451079
-388812
-379909
-405850
-440759
-395726
-423168
-428010
-437848
-413173
-352366
-361735
-341039
-375033
-353277
-422097
-384112
-398539
-328564
-361345
-342119
-316245
-348634
-328989
-335734
-317129
-376185
-369896
-355897
-210311
-215515
-213398
-229896
-205005
-220469
-218883
-188912
-180940
-177777
-192796
-182955
-169307
-179062
-172557
-236550
-243838
-221949
-239521
-230660
-249345
-227629
-213201
-212148
-202177
-174169
-161751
-172496
-170393
-182137
-200505
-180922
-191416
-206182
-192532
-159010
-163432
-170907
-195844
-174694
-183187
-148347
-153313
-163101
-145085
-153952
-141707
-156924
-151089
-170700
-167362
-160755
-92873.9
-94718.6
-91196.7
-96524.4
-88608.1
-83669.5
-84868.8
-87344.6
-85100.9
-89193.9
-92455.2
-94210.2
-90763.6
-86369.4
-88463.4
-102534
-108151
-98727.3
-100103
-96574.8
-105184
-106150
-155673
-166929
-155564
-152797
-163479
-148515
-160080
-104426
-98640.8
-101996
-100867
-108885
-109184
-112331
-106009
-134626
-143487
-147822
-145668
-140257
-141496
-138692
-119372
-130495
-147501
-131738
-136383
-115340
-121881
-125661
-77211.3
-85021.7
-84231.8
-89247.7
-93489.7
-97060.5
-86996.7
-89974.9
-92853.5
-99169.5
-91551.5
-132614
-127511
-123810
-109723
-100205
-104407
-107142
-112018
-118351
-107086
-115301
-217437
-215061
-206376
-180395
-178381
-172993
-188073
-181863
-203433
-185074
-195587
-204843
-191373
-159112
-164665
-170877
-195514
-175809
-183012
-154250
-168941
-164350
-159753
-155930
-145847
-159955
-155224
-174839
-170362
-164889
-112981
-113904
-109724
-117295
-108092
-100939
-103680
-105277
-96212.7
-93278.2
-98485.8
-102908
-92636.7
-102152
-96608.9
-114469
-112478
-104476
-109383
-110624
-108234
-116046
-170051
-172034
-158033
-168074
-165454
-176306
-162514
-126511
-118412
-122439
-122293
-131584
-130885
-135731
-127002
-147964
-148250
-150780
-160049
-143685
-152222
-155155
-119050
-130066
-147725
-133293
-136720
-115884
-123538
-126106
-81429.1
-88359.9
-88455
-94566.2
-102718
-103317
-95606
-96673.8
-96157.9
-103376
-95770.2
-136764
-130651
-127973
-115248
-110088
-110169
-117715
-117236
-121535
-111282
-119481
-37013.7
-41363.4
-49059.9
-44822.9
-33538.3
-29036
-20934.1
-25507.1
-46091.9
-51167.3
-60311.3
-55304.6
-41951.2
-36719.2
-27160.3
-32551.6
-7391.77
-10412.3
-21290.6
-20847.8
-17092.4
-9967.47
-16772.7
-13323.7
-5372.07
-5661.09
-6381.29
-11037.9
-14316.1
-16345.6
-10378.7
-11922.6
-8023.86
-12742.5
-9167.54
-29980.1
-23254.2
-25368.3
-24170.3
-18539.7
-20925.6
-22946.4
-25590.7
-18983.3
-16724.2
-20947.8
-68386.6
-64661.2
-60225.7
-62117.3
-65342.2
-63135.9
-67515.5
-52098.6
-46271.8
-51349.9
-47183.6
-56651.6
-60546.5
-61511.4
-55551.7
-52902.1
-49184.6
-55212.6
-56839.6
-50274.4
-57983.3
-51660.5
-40216
-33885.8
-25931.2
-34969.2
-31019.3
-42535.8
-40343.8
-36552.1
-74689.2
-66954.3
-68229.4
-64279.9
-57984.9
-60855.5
-63692.1
-66386.5
-60465
-56113.3
-62041.3
-34781.5
-37556.5
-39786.4
-48256.6
-52475.4
-55468.4
-47152.6
-50209.5
-42846.3
-50434.7
-44997.6
-13670
-11688.2
-17147
-17468.1
-12409.7
-12788.2
-18586.6
-37539.5
-42073.2
-36817.9
-42605.7
-32967.2
-27173.6
-27746
-32599.8
-28328.1
-25318.3
-21848.7
-22225.2
-26515.9
-27002
-23480.2
-7242.72
-4367.28
-7895
-5219.02
-7645.53
-7591.5
-4467.73
-8393.03
-6051.98
-8200.65
-5838.82
-3177.02
-6993.72
-2796.72
-6258.19
-6709.94
-2512.61
-8960.02
-4261.1
-8139.7
-4692.11
-9221.45
-7923.82
-5041.53
-302301
-327653
-367686
-338092
-331776
-298483
-344210
-210413
-228272
-235472
-239831
-214764
-223853
-229620
-205030
-217967
-233562
-212921
-217364
-223756
-200658
-147609
-150377
-162409
-150992
-154909
-143141
-156320
-152561
-167164
-167999
-164947
-160428
-161740
-157038
-62993.3
-70889.5
-68027.6
-66882.4
-67272.3
-66307.7
-63629.1
-58862.7
-54950.9
-62382.9
-57547.4
-62140
-59260.3
-54623.2
-7067.86
-3659.97
-7307.5
-3238.48
-7641.86
-3794.31
-6774.69
-11810.5
-16365.7
-12574.9
-18176.3
-12489
-11691.2
-16803.8
-384967
-352080
-397503
-415471
-358486
-376955
-424705
-224496
-234920
-241388
-259009
-220197
-239314
-247283
-230001
-259196
-250483
-265479
-246115
-234261
-253251
-288749
-319868
-331948
-346587
-292649
-315706
-325839
-282955
-313623
-339630
-303849
-308051
-319710
-278999
-266665
-247305
-273899
-279659
-252957
-260144
-287292
-273485
-303010
-265336
-281047
-259582
-280183
-295167
-361115
-344519
-406145
-372943
-368939
-338197
-397093
-353260
-379089
-364921
-324528
-330756
-387954
-345614
-247158
-240830
-252856
-272004
-235265
-253491
-264589
-240685
-249947
-246029
-223468
-228935
-257155
-234511
-170559
-157502
-170205
-170911
-162498
-165239
-176918
-176081
-189278
-176070
-173021
-167953
-183091
-181510
-75751.2
-75152.4
-72485.6
-80696.1
-71451
-79725.8
-76972.9
-80026.9
-86137.7
-88670.2
-85369.4
-84100.6
-84361.7
-81543
-133811
-145017
-145673
-145921
-138287
-140483
-140436
-129029
-130082
-140572
-130731
-135277
-135213
-124581
-89625.4
-79714.7
-85464.5
-84387.6
-84461.8
-84745
-89351.1
-94408.6
-99434.3
-93768.7
-90321.3
-89007.1
-99303.2
-94390.7
-154624
-152189
-164921
-153012
-159833
-147242
-159092
-149350
-147607
-147448
-137164
-142057
-153280
-144209
-75119.1
-75255.4
-71095.9
-79422.2
-70497.1
-79983.2
-74529.8
-70415.4
-64788.2
-66392.3
-61340.2
-66097.6
-69633.2
-65534.1
-15906.3
-20896.7
-14062.3
-19807.7
-13996.8
-15485.8
-21810.9
-436661
-448629
-412328
-381148
-388682
-458482
-427659
-273140
-291158
-257234
-260640
-250289
-281242
-282608
-265104
-236533
-253288
-265790
-243382
-257143
-274152
-185679
-191480
-195025
-208940
-200684
-181249
-195963
-190932
-212162
-206593
-214996
-195347
-206429
-202131
-233732
-233341
-209681
-224615
-216304
-226092
-241300
-241455
-229733
-257527
-231664
-249258
-222996
-249363
-175182
-173637
-171203
-159056
-165133
-180699
-168304
-182163
-177512
-177574
-195175
-171291
-189243
-187879
-171620
-185475
-189359
-191037
-176082
-183768
-180983
-166514
-172670
-170629
-185208
-162056
-178173
-175137
-211077
-225490
-203114
-203946
-218539
-196621
-217745
-203702
-183815
-202585
-197228
-196425
-190179
-210110
-63887.9
-71998.6
-68291.1
-66984.6
-63696.1
-68720.5
-67036.3
-59148.5
-54697.7
-62302.7
-57372.8
-59164.3
-54502
-62162.1
-42276.8
-40180.9
-37961.2
-44598.7
-42166.9
-38034.7
-44826
-46321.5
-50659.5
-53464.8
-48998.1
-50558.1
-46413.2
-48853.6
-41035.8
-38893.4
-37339
-44073.5
-41616.5
-36673.9
-43428.2
-45455.1
-50289.4
-52662.4
-48569.9
-49939.4
-45935.6
-48016.5
-10577.5
-15773
-12126
-16338.5
-11147.7
-15061.2
-11610.4
-29672.2
-36172.8
-33732.2
-31340.3
-34002.1
-29499
-31426.1
-25566.9
-20895.6
-22484.6
-26872.9
-21163.7
-25205.5
-27370.5
-28064.9
-34396.9
-33072.2
-30705.4
-32355.3
-28819
-29920.3
-23779.3
-20229.1
-20940.1
-26228.9
-19470.2
-24537.1
-25445.8
-507413
-473944
-440828
-454683
-465206
-484829
-495643
-249621
-273182
-283237
-291870
-277218
-253777
-268876
-244012
-265200
-257436
-285220
-239812
-271179
-261775
-297658
-299799
-264238
-283146
-271280
-289416
-308528
-305963
-285496
-290781
-326246
-278372
-314326
-317345
-339771
-362647
-314388
-321976
-307118
-348356
-353432
-331233
-292669
-314088
-335228
-299873
-322751
-344291
-409758
-438829
-373631
-387100
-366143
-418690
-429088
-400859
-351223
-378782
-409781
-358669
-392002
-419403
-263514
-280428
-289303
-312117
-259427
-295344
-284702
-269222
-307510
-296326
-318930
-273251
-301441
-292088
-365679
-371936
-321700
-346001
-356994
-329036
-381295
-374411
-343799
-400220
-354118
-383184
-336408
-390725
-301255
-290808
-310499
-335742
-284861
-327479
-308325
-294079
-311106
-272100
-303043
-287185
-277950
-319166
-332902
-312334
-297391
-300791
-309517
-321649
-323086
-342860
-327363
-305688
-340625
-318387
-331082
-352954
-384038
-379883
-339825
-364506
-369911
-355050
-394658
-373545
-336476
-331151
-350279
-360041
-345694
-363184
-472414
-463138
-444236
-412330
-433907
-483973
-452416
-460959
-413540
-402984
-431230
-423660
-441779
-449617
-322948
-297852
-333406
-344270
-303894
-315680
-352743
-330468
-370149
-317216
-341154
-337922
-311076
-361478
-416280
-389958
-366385
-374094
-400132
-405409
-383779
-427275
-403504
-420771
-375409
-410405
-438386
-393595
-303869
-303133
-273096
-292172
-283692
-294052
-313405
-294476
-267103
-265199
-276250
-275326
-285089
-285228
-216077
-200584
-219457
-221963
-205872
-228750
-210231
-222208
-242735
-217289
-225959
-228207
-211905
-235742
-258356
-242140
-234644
-235450
-250476
-243164
-249697
-267167
-258991
-267534
-242126
-258943
-276124
-251018
-193251
-180170
-178623
-178200
-184918
-187447
-185787
-200867
-198736
-185255
-202412
-191771
-194865
-208632
-198563
-194701
-200369
-215181
-189485
-204252
-208602
-192749
-195646
-178608
-194193
-187183
-183748
-202034
-232821
-233931
-212837
-227851
-225855
-241182
-220385
-224609
-205829
-210092
-205780
-217907
-216546
-213041
-97503.8
-106912
-105110
-104642
-100296
-101906
-102354
-93065.4
-90809.4
-93162.8
-99763.2
-88707.1
-95508.6
-97729.8
-78704.1
-77055.1
-72968.1
-81432.5
-77716.3
-73657.5
-82214.6
-83861.9
-87459.2
-86394.4
-92860.4
-82550
-89131.5
-87483.8
-105652
-115529
-107960
-107056
-102712
-111392
-109684
-100025
-92459.8
-101767
-98349.1
-97540.5
-94519.6
-103958
-154871
-166696
-153052
-152617
-147135
-161533
-159873
-148315
-135523
-146606
-146589
-141284
-141873
-153170
-110832
-111671
-110005
-119697
-106416
-114921
-116228
-115446
-124966
-125681
-124806
-119888
-119937
-121130
-123233
-121494
-113306
-123464
-117253
-118730
-127584
-129331
-129840
-140133
-129110
-135543
-124248
-133796
-113986
-112680
-110270
-120202
-107888
-114953
-118927
-109084
-104567
-98387.3
-105220
-104154
-103167
-109717
-90246.6
-81257
-86088.8
-84813.6
-89999.8
-86555.1
-84826.2
-95767.4
-100593
-91217.3
-97468.3
-95265.1
-91962
-101393
-118923
-120637
-112482
-122711
-114667
-117053
-125006
-112966
-105998
-107037
-103083
-108815
-111480
-107124
-171291
-173025
-171589
-159374
-165098
-178464
-166015
-164263
-152459
-153162
-152392
-158718
-159135
-157377
-128923
-117498
-125827
-125565
-122318
-123922
-130950
-133982
-141959
-132113
-131113
-139041
-127254
-136439
-137553
-126730
-129337
-128459
-132951
-131218
-134304
-144024
-146300
-145782
-135146
-139302
-150632
-140250
-74235
-76052.6
-71132.4
-79680.4
-74602.7
-70935.1
-79486.4
-69062.4
-64599.8
-66258.5
-60935.6
-69576.1
-65896.2
-63954.3
-51314.2
-43112.3
-47757.6
-45533.2
-47910.2
-50317.4
-46423.9
-55967.6
-59937.5
-57002.8
-52379.3
-60848
-52220.9
-55133.1
-48968.3
-41683.4
-47215.4
-45012.1
-46422.5
-49867.4
-44062
-53913.7
-59657
-56045.6
-51927.8
-51209.9
-58908.5
-54749.4
-14398.3
-20409.8
-13627
-18045
-15046.9
-13075.7
-19545
-36759.1
-38808.5
-33823.3
-40705.2
-33897.5
-41727.8
-35884.3
-32033.2
-26078.6
-24464.3
-29132.5
-26919
-29526.4
-31013.4
-34313.4
-36976.6
-33181.5
-40159.1
-32285.5
-39175.3
-35299.8
-29455.4
-25503.8
-22868.3
-28477.8
-27594.5
-24556.5
-30429
)
;

boundaryField
{
    left
    {
        type            calculated;
        value           nonuniform List<scalar> 0();
    }
    bottom
    {
        type            calculated;
        value           nonuniform List<scalar> 0();
    }
    interface
    {
        type            calculated;
        value           nonuniform List<scalar> 
2171
(
-4339.71
-5218.75
-4620.14
-3669.03
-3229.32
-3011.62
-4864.94
-4343.07
-802835
-248999
-290462
-480812
-429860
-3062.16
-2880.92
-7692.93
-70232.5
-49631.8
-1821.24
-813390
-782597
-722714
-498247
-551823
-792550
-730943
-500758
-555571
-249386
-290364
-482939
-430919
-235784
-198028
-77862.5
-103026
-236322
-198993
-80099.1
-105009
-4075.15
-4214.27
-9589.79
-72537.2
-52081
-1838.49
-745145
-349769
-304869
-236010
-274303
-329011
-287598
-365276
-413344
-449666
-402785
-343304
-387580
-22803.6
-10927.1
-3228.22
-3130.19
-8983.79
-24647.6
-12465.7
-27442.4
-43531.6
-70106.9
-50669.2
-29255.2
-44851.5
-1405.93
-760152
-726606
-671736
-645019
-703051
-600488
-653710
-626016
-570086
-465697
-514934
-583053
-531709
-740724
-683301
-651123
-710728
-608929
-664463
-631618
-574277
-469498
-519947
-590762
-537363
-349331
-304599
-238951
-277251
-332070
-290564
-365111
-414074
-453347
-406166
-346411
-390879
-223795
-188875
-152304
-186094
-146520
-177827
-141735
-112155
-77256.9
-100741
-136715
-109238
-226749
-191894
-153768
-187189
-149684
-180876
-143310
-114044
-80762.6
-104133
-139922
-112586
-25172.5
-12969.8
-4651.16
-4829.54
-11199.2
-27693.4
-14909.3
-29869.4
-45999.9
-73634
-54179.4
-32448.9
-48317.5
-2326.33
-279431
-551043
-1035.1
-929973
-279016
-551495
-263957
-263479
-79245
-3730.47
-1072.84
-70439.9
-2737.21
-2786.03
-1687.16
-638190
-571279
-584709
-486219
-524958
-536959
-475720
-397458
-211945
-197488
-206909
-267187
-290327
-296923
-332199
-321695
-306221
-251903
-261185
-270952
-243215
-415628
-391568
-356439
-277821
-302344
-288614
-185660
-188200
-196786
-177947
-226165
-251553
-242055
-234634
-17618.5
-3282.4
-3117.76
-1978.98
-2404.54
-4359.39
-28741.1
-27913.3
-63852.3
-69149.6
-63775.8
-68945.7
-40190.9
-34680.8
-39205.6
-35754.5
-69991.7
-68785.2
-63146.2
-33185.6
-32461.2
-5386.04
-2478.25
-1668.6
-2371.78
-4887.74
-1127.01
-2341.68
-27070.2
-30258
-25922
-31385.3
-664911
-621661
-637793
-549345
-579117
-593399
-536378
-622757
-557919
-544637
-743635
-466654
-517641
-325074
-342814
-315605
-353533
-373639
-419906
-383575
-408617
-454855
-513013
-465265
-501129
-403637
-431282
-442735
-393574
-404993
-368220
-380127
-453974
-503090
-647976
-605660
-744498
-499362
-533248
-513603
-356518
-369561
-381546
-345634
-413145
-456778
-424894
-443860
-510772
-565027
-523519
-551052
-448801
-469840
-483044
-436782
-722158
-415548
-391042
-485268
-517458
-471324
-218337
-209823
-282729
-297891
-271678
-324335
-357742
-334905
-346094
-273872
-279896
-290476
-264270
-401700
-378259
-293986
-310151
-305442
-201856
-202156
-211188
-193629
-245583
-269502
-259302
-254839
-201620
-188257
-166257
-129246
-136017
-79531.7
-74694.3
-74169
-80413.6
-108592
-118605
-114862
-111773
-162919
-179775
-170365
-171514
-127847
-125622
-132820
-121279
-76290.3
-74635.3
-80698.8
-121653
-127643
-207912
-200279
-190955
-165616
-139765
-141930
-147727
-90368.3
-84490.2
-90452.3
-84690.2
-120804
-129899
-127333
-122864
-177705