/*--------------------------------*- C++ -*----------------------------------*\
| =========                 |                                                 |
| \\      /  F ield         | OpenFOAM: The Open Source CFD Toolbox           |
|  \\    /   O peration     | Version:  2012                                  |
|   \\  /    A nd           | Website:  www.openfoam.com                      |
|    \\/     M anipulation  |                                                 |
\*---------------------------------------------------------------------------*/
FoamFile
{
    version     2.0;
    format      ascii;
    class       volScalarField;
    location    "0.105/solid";
    object      sigmaMid;
}
// * * * * * * * * * * * * * * * * * * * * * * * * * * * * * * * * * * * * * //

dimensions      [1 -1 -2 0 0 0 0];


internalField   nonuniform List<scalar> 
3125
(
-3896.5
-1031.59
115.988
555.11
302.492
7877.97
-1267.55
-3497.03
4143.09
7348.61
3765.69
1782.74
545.086
215.778
731.333
1584.11
248.399
316.651
662.047
342.414
398.265
-579.92
1002.8
942.448
440
-431.287
679.053
833.455
931.834
852.557
-265.525
706.068
775.756
1029.02
979.791
584.188
958.478
1075.18
1045.72
751.628
563.243
948.841
-979.041
3768.34
432.182
639.838
-2105.56
398.027
44.0925
-501.466
-2421.77
-15.6894
814.986
665.724
-349.275
1500.14
5397.02
2346.15
2928.13
3678.41
5855.85
3018.87
1341.1
1479.07
1133.04
1206.24
2271.7
2781.84
1819.63
1324.27
1219.38
1442.85
2496.13
1764.6
1009.35
1049.5
463.851
979.564
953.757
868.537
421.66
946.461
1073.15
1053.37
1125.67
1075.55
997.995
1050.76
1175.17
1405.64
1114.49
1198.45
1030.91
1070.47
697.292
949.704
1036.42
529.395
937.154
1026.7
968.18
558.536
460.324
916.454
13957.3
-3490.9
2482.89
2936.95
-1440.52
-809.499
-1192.53
5974.75
5020.14
-217.264
8.0353
-391.342
334.275
1030.3
664.063
568.954
733.139
1532.69
1504.85
594.561
384.027
839.728
-25627.9
494.667
13371.7
11698.5
-1525.61
-1587.14
-1859.7
-3313.98
-3118.95
-2968.02
6323.06
7458.68
-24365.9
-20724.4
4536.98
234.413
295.488
521.849
6834.16
391.955
-8477.65
-11166.7
-2146.78
-2964.14
270.502
3415.14
232.078
-7715.59
-6264.93
346.842
1996.73
330.839
2356.76
2040.57
526.897
607.04
519.716
-112.206
297.495
39.3475
1543.89
1582.98
-1904.81
-1257.55
801.812
656.558
611.302
386.494
1408.88
416.73
268.611
22.4324
300.522
132.827
855.153
862.109
686.303
611.002
728.2
336.979
511.123
440.408
284.536
735.138
10371.4
-2580.28
3724.47
3115.46
2053.72
980.045
2392.31
2972.1
971.619
2522.71
-940.18
554.033
-723.888
-606.509
-832.935
-1055.5
588.11
-441.111
-633.675
3956.96
4732.42
4614.31
881.228
3920.15
3140.85
894.168
3709.43
35.2032
798.456
-114.105
-118.584
-706.138
-507.252
777.813
-359.188
-187.385
1371.6
1157.64
358.537
904.875
895.615
1169.49
963.872
1001.72
679.567
976.986
733.629
574.463
826.824
777.56
973.615
792.09
758.115
1418.35
1493.02
1309.52
1072.27
1280.37
1203.85
1066.48
1267.4
686.823
838.219
741.448
628.953
853.974
847.072
892.236
804.871
776.27
-13596.8
1253.95
9950.46
527.988
8746.03
9666.59
11168.2
556.823
7283.83
8363.96
-1801.69
-2312.49
-2014.76
-1037.39
259.574
-1275.42
-1640.77
209.631
-1379.89
-2455.59
-278.479
-2152.52
-2758.46
-2475.78
-2797.59
-209.347
-1752.4
-2033.89
9194.44
7869.4
4866.27
757.427
5689.93
6941.63
735.908
5985.5
-12859.1
1370.74
-10842.4
-16216.5
-19559.5
1528.41
-8597.72
-10236.9
4954.39
345.485
261.51
711.176
2582.27
794.487
911.441
2665.36
806.039
1226.47
3396.19
1078.28
6334.95
313.674
420.839
3300.34
928.448
1055.51
-15153.2
-12123.2
-5194.77
1396.99
-6337.46
-8104.41
1417.46
-6751.82
-4268.99
-3268.93
-1079.51
1161.53
-1627.43
-2508.8
1173.07
-1832.48
704.267
2063.62
642.404
3083.51
251.315
269.735
1998.77
598.49
640.527
-4636.72
-5832.85
-4843.95
1274.8
-3872.71
-2758.12
1261.19
-3575.71
577.035
1567.34
584.44
2233.72
290.223
290.929
1613.32
600.923
576.976
1957.95
1029.35
1720.66
1759.19
1956.58
1033.81
1503.36
1655.6
503.14
342.321
451.005
647.299
973.17
575.733
444.879
970.249
535.348
101.011
908.58
230.114
368.237
261.291
132.289
919.29
396.325
287.458
1711.27
1607.82
1319.23
1068.81
1359.95
1463.57
1065.25
1379.68
-917.541
1101.53
-487.568
-576.196
-1069.89
1095.64
-39.2154
-362.972
888.439
531.538
577.113
703.236
1097.01
676.152
637.458
1114.8
660.665
586.796
1305.57
593.356
1249.97
494.398
455.511
1276.05
622.628
605.618
-437.127
-79.9905
505.443
1047.15
349.33
52.171
1055.01
283.85
736.692
837.996
863.021
818.639
822.717
778.542
886.781
828.865
716.011
995.919
740.383
557.403
777.853
751.545
981.994
761.388
750.121
693.526
558.627
548.014
1005.62
653.663
756.974
999.308
682.411
536.005
753.389
651.922
476.985
786.993
754.998
825.14
760.954
703.176
3670.89
3864.43
1264.8
1242.93
1460.26
1401.15
566.772
897.249
1679.65
1683.3
-19226.8
-20048.4
3480.52
3294.95
1529.7
1599.25
-18422.5
-17633.8
-8251.28
-8816.51
-1450.35
-1756.75
-7703.31
-7174.51
1298.71
1321.92
1682.22
1665.47
-1178.51
-928.364
213.916
187.855
266.87
190.635
-31.5363
313.343
407.103
228.623
239.723
175.254
386.5
627.096
195.141
381.043
183.436
269.727
6196.62
365.466
1389.46
1445.43
6420.41
1658.62
-2091.29
-660.135
-768.77
-784.108
-2196.15
1594.46
1183.89
1183.72
1749.4
996.32
689.767
686.242
1812.11
677.853
2278.46
952.5
677.212
2189.51
790.779
-587.312
-381.519
479.838
-351.193
814.901
-516.434
689.53
-154.358
651.166
-130.207
-188.954
673.666
-188.612
1203.97
1209.96
3179.65
762.65
849.291
750.485
3049.53
680.624
2374.18
920.115
691.769
2474.41
628.424
280.868
836.598
135.83
97.3126
236.844
626.875
654.178
-119.069
731.761
-72.228
-84.2493
662.1
-16.2163
1550.32
1513.01
614.315
768.827
304.724
603.155
712.306
935.323
1147.21
1014.67
918.77
1118.88
799.81
798.007
734.077
978.661
760.404
787.761
814.251
837.682
867.151
965.333
877.006
857.834
836.251
872.102
1604.65
1612.25
1266.67
910.379
1073.12
925.423
1258.26
940.193
1175.74
1053.46
952.113
1195.63
543.516
724.058
719.792
378.065
594.194
676.328
397.452
824.745
871.697
937.236
878.671
868.688
833.116
876.755
-8642.43
-1618.74
-6406.44
-9421.26
-7250.52
-2791.47
1914.98
3853.45
-3156.32
1973.99
-3352.66
-2665.8
5978.26
1336.38
464.922
1286.9
5765.47
2353.95
2492.97
1016.7
613.664
4590.76
1058.69
4773.47
875.267
-660.857
-411.153
354.783
842.446
-440.113
-734.765
1061.27
-595.945
-1225.38
101.853
1102.16
-573.07
-1138.81
1472.25
-1987.43
-753.142
-424.86
1530.7
-736.703
-1885.69
1198.88
-619.341
-77.7326
-1314.68
-641.389
1147.81
-1404.31
2224.17
2094.91
3314.95
782.802
797.322
807.881
3456.43
978.364
4412.3
690.207
948.693
4239.75
-7898.16
-5607.3
269.262
-7197.5
-4874.15
-13224.6
-13923.7
-2506.4
1520.21
-4290.55
-4633.97
-2719.84
-1046.43
1163.75
2422.8
-1303.09
1198.24
-1393.56
-956.437
-1527.84
-1995.84
1444.36
2838.37
1397.86
-1629.5
-1887.92
-2419.86
1858.27
-2989.38
3585.94
-2541.29
1801.51
-2839.13
-1844.91
-2104.39
3111.64
1490.59
1538.67
-2214.26
-1735.43
-12548
-11881.9
-2288.61
1360.9
-1339.83
-2494.1
-1459.26
-2316.62
-3979.43
1459.56
-3692.23
-2149.63
-3918.2
-3518.79
-4.38429
1144.1
44.4451
-97.7612
-16.4317
-455.952
-788.936
1196.54
-656.415
-373.964
-786.839
1131.09
2199.74
-1212.95
1099
-870.054
-1122.62
-401.239
-635.769
1877.19
949.691
970.114
-709.974
-330.946
-4337.86
-4767.97
-2090.97
1308.23
-1227.22
-1900.93
-1117.16
-538.915
-927.064
1233.79
-1070.87
-627.404
90.448
842.296
1482.63
-96.9921
850.182
-154.428
141.635
-199.506
-561.716
1712.42
931.117
913.329
-487.034
-263.538
1693.15
698.321
1016.62
708.486
1641.71
1533.27
1505.21
777.886
1044.5
1409.94
767.375
1439.97
762.911
780.002
705.738
978.794
774.373
675.542
761.456
700.604
472.219
612.623
960.295
688.104
508.3
641.203
634.331
324.926
173.745
883.104
629.546
210.717
366.703
667.436
435.785
938.086
582.19
398.042
675.76
550.765
1570.52
1583.42
1275.69
897.586
1072.84
886.573
1286.61
793.275
1384.51
1058.89
812.076
1363.83
83.9269
104.458
1118.5
167.112
162.452
-130.641
-224.599
443.692
1083.88
550.189
499.123
404.882
654.196
842.702
1066.19
596.085
839.012
570.796
671.994
532.84
357.395
820.058
1154.2
821.794
502.889
399.758
236.578
835.433
-38.3867
1370.67
190.432
829.302
20.6539
437.508
314.365
1222.97
819.184
818.414
273.195
471.616
-73.6169
4.69655
816.661
1039.93
682.657
797.048
659.745
484.037
596.539
1067.15
641.229
516.526
304.149
305.54
874.985
606.856
371.789
739.858
589.504
773.732
915.026
937.5
922.512
763.113
704.291
846.506
1022.49
620.778
850.242
689.084
646.771
752.083
730.72
953.282
849.687
853.579
726.689
755.364
277.911
282.472
835.593
1021.38
700.969
853.568
717.605
774.279
911.08
980.516
904.216
769.595
567.978
558.419
563.575
482.86
532.2
539.985
514.615
750.57
731.854
894.868
841.648
829.259
731.655
754.385
13349.4
14552.9
13877
2521.67
-4820.74
-4712.45
2369.09
1196.61
1223.16
3109.93
2624.18
3251.19
3541.15
2774.73
3399.13
981.454
-2704.28
1073.01
-2572.98
971.413
-2355.07
-2498.04
875.309
1303.73
1352.8
6285.06
5641.53
5993.43
5434.5
5324.09
5714.37
545.616
-1210.04
-1401.45
479.108
527.061
-1570.99
-1379.67
587.269
1310.64
1219.52
398.752
653.934
661.855
1180.59
903.297
994.496
424.744
-198.972
437.503
-53.3942
452.8
39.3334
-102.171
433.502
1667.38
1689.87
2007.01
1524.41
1991.58
1931.91
1519.01
1976.45
238.902
49.3521
178.188
59.2425
442.347
71.2281
167.864
441.805
5154.01
106.179
-28.5482
2487.93
3159.16
3432.29
2780.99
5317.88
4769.21
4396.85
4985.06
784.407
421.751
388.738
726.68
44.8676
223.747
334.899
114.586
-32440.2
-26910.4
-33923.3
-2617.53
-3543.73
-3252.36
-2884.51
12832.7
12799.4
12326.2
2952.24
3122.8
12242.1
11355.1
11839.8
1198.86
-2794.47
1088.36
-2908.05
1216.58
-3120.07
-3025.27
1324.01
2176.6
-4482.12
2322.5
-4539.93
2132.94
-4271.46
-4245.54
1987.52
1772.88
1687.09
6600.57
6686.44
6918.11
7601.76
7064.13
7259.37
-30989
-23127
-29570.4
-16101.3
-16866.6
-21913.9
-26836.9
-28191.9
-949.376
-2353.67
-1837.2
-1213.91
-1388.41
-1998.32
-2499.61
-1118.46
-2641.16
-3057.92
-3393.06
-2374.86
-2139.37
-3243.72
-2867.23
-2406.4
-9990.35
-9399.58
-13365.5
-9341.09
-14287.6
-16236.8
-10239.7
-15246.7
2909.31
2230.15
1988.4
2657.12
856.166
1452.27
1625.14
1007.4
444.183
828.047
861.544
463.34
874.074
488.521
498.927
880.604
168.294
538.691
615.99
224.812
1302.5
716.646
598.108
1167.2
593.212
335.141
359.036
623.53
468.86
854.697
828.081
449.314
-2407.29
-2078.73
-3412.67
-2406.94
-3799.26
-4642.18
-2680.43
-4209.21
-1052.91
-1683.11
-786.82
-2210.32
-639.743
-2068.01
-1530.59
-897.154
-6160.55
-6665.71
-12481.8
-7189.44
-11632.5
-10048.7
-6718.51
-10828.4
26.4718
-1252.06
-732.25
-189.804
-285.258
-852.832
-1381.16
-55.8606
2994.28
2239.93
2872.67
1392.63
1366.58
2137.22
2666.48
2777.96
437.703
-146.655
406.332
-300.16
402.969
-411.929
-250.268
428.22
454.242
-1239.67
502.745
-1044.21
478.083
-886.857
-1083.12
424.953
1640.47
1667.56
2042.19
1554.71
2056.31
2108.52
1567.61
2092.31
-3058.19
-1675.16
-2723.03
-550.574
-738.731
-1462.75
-2141.55
-2428.8
400.296
-353.497
-18.8176
270.649
234.573
-83.6168
-451.142
383.686
-108.931
-620.423
-1127.01
105.621
169.864
-1007.06
-512.556
-28.938
143.692
146.164
-202.483
192.943
-288.36
-481.32
108.731
-382.668
482.401
146.372
135.335
415.753
9.09465
84.3411
140.712
201.223
306.038
554.937
519.954
280.678
120.692
118.798
126.294
262.473
332.595
263.348
541.681
873.129
645.166
564.64
876.765
576.94
292.102
32.1176
419.383
-264.514
424.258
-180.032
79.0648
318.849
265.427
220.13
-129.376
397.668
-54.1349
63.9087
452.881
-0.745226
486.364
388.796
548.764
349.061
637.629
399.182
425.746
228.004
166.089
288.98
100.394
320.137
87.37
156.308
395.478
8955.82
10801
9334.99
1192.95
1179.54
4268.28
3507.73
4076.12
3713.02
3305.21
3889.1
1796.58
2157.13
1881.05
987.285
675.677
1948.69
680.851
1878.28
2269.73
2072.9
1972.94
2553.39
2811.06
2420.87
961.961
673.45
2024.45
675.846
2105.43
2662.4
2180.72
2296.8
765.132
518.538
-287.815
-380.072
742.222
-318.942
-446.701
789.66
-1944.84
701.747
-2110.85
789.977
-2300.43
871.097
-2142.82
706.642
620.8
-254.509
-314.3
722.664
-220.032
-251.264
1269.04
1236.02
4487.85
4201.01
4702.53
5181.88
4460.05
4939.08
3949.83
4370.47
3742.6
865.409
715.36
2804.07
735.615
2924.86
4140.04
3356.8
3545.42
2696.3
3320.04
2847.99
907.548
707.579
2689.65
701.354
2580.39
3509.94
3178.75
3009.15
630.799
817.934
24.8274
140.46
60.899
632.202
188.9
639.583
-1927.61
707.281
-1745.38
649.017
-1555.12
573.33
-1743.13
644.705
755.158
-11.7535
89.5341
-47.9087
637.155
37.7532
1401.27
1458.03
1682.77
1317
1604.26
1365.75
1246.68
1500.43
510.905
569.175
659.575
850.274
821.917
940.96
740.65
854.958
788.579
942.191
848.764
1190.61
1126.19
1156.56
987.591
866.344
1027.91
902.347
1075.63
1070.5
1043.12
1105.23
809.729
979.027
807.961
842.77
819.029
786.566
829.771
465.793
191.691
452.965
56.8116
451.935
-14.166
457.557
116.584
835.116
970.215
829.225
854.057
827.843
847.62
863.794
1666.35
1643.43
1772.18
1450.26
1821.04
1910.67
1476.74
1875.14
1277.34
1298.84
1276.66
1072.47
937.146
1238.75
936.312
1249.7
1291.53
1270.89
1275.4
1220.8
1230.64
1241.43
1061.48
949.316
1227.77
952.165
1215.21
1252.65
1266.25
1257.14
666.244
782.941
790
796.099
725.886
727.371
743.422
461.398
103.798
461.541
228.941
441.399
338.722
436.736
145.082
805.275
916.019
835.097
843.63
857.563
777.106
863.812
4011.88
3376.22
3067.26
3723.82
3705.57
4322.15
4647.2
4049
300.958
602.367
674.234
342.728
517.914
248.114
185.826
427.439
-13508.1
-14366.2
-14295.3
8586.58
9537.36
8225.55
496.799
1188.48
5353.83
1237.03
5557.2
9136.09
7532.71
7874.58
2792.26
2636.69
9560.08
10153.5
9993.83
10890.1
10653.7
10436.8
586
1142.63
5155.44
1100.77
4963.05
6257.49
7631.71
6561.07
7200.29
7992.65
6876.46
1494.7
-3560.42
-3502.94
1612.94
1467.64
-3258.08
1347.65
-3336.47
908.194
308.622
-495.511
-891.119
940.782
-467.646
-812.277
1018.44
156.683
-521.715
-972.2
977.901
-546.713
-1054.44
1413.45
-350.082
-699.263
-1687.67
-718.187
1355.02
-1784.72
1780.07
-3753.5
-3782.3
1644.81
1815.71
-4009.59
1948.65
-4009.52
1249.75
-142.115
-680.692
-1591.13
-660.64
1300.23
-1497.14
1877.5
1979.43
9146.4
8736.77
8737.95
7970.38
8295.19
8348.87
4166.7
5129.07
4393.53
777.084
852.474
3753.81
832.932
3602.63
5403.01
4876.75
4630.12
5960.35
6610.54
5673.43
712.715
881.586
3910.34
916.808
4072.9
6292.92
5132.76
5399.35
-12759.8
-12153.9
-12051.4
865.931
-5973.27
-3707.58
-6552.62
-4232.54
-11481.8
-10752.8
-11382.9
-15361.3
-14635.9
-21773.8
-17305.8
-22989.8
-25519.7
-18419.9
-24237.4
1534.99
-5463.77
-3295.53
-5020.76
-2975.33
-8568.09
-9117.07
-9071.87
-10159.9
-9662.98
-9600.85
-1766.66
-2330.86
-2797.54
-1493.59
-1302.85
-2650.54
-1571.94
-2162.49
-1137.23
2501.44
1273.57
-1586.48
1234.67
-1230.4
-1488.79
-1425.78
2750.56
1312.96
-1685.38
1354.7
-1326.76
-1785.73
-2299.96
3491.73
1693.11
-2573.12
1747.3
-2701.13
-2181.93
-1700.45
-2945.77
-2506.12
-1969.58
-2184.67
-2685.36
-1913.07
-3093.7
-1954.47
3205.64
1640.6
-2449.54
1588.39
-2329.58
-2066.79
-10606.8
-11239
-20595
-14114.8
-19446.4
-17272.5
-13105.6
-18342.2
-5243.71
-5560.47
-5604.66
1380.03
-2936.56
-1711.24
-2709.84
-1584.1
-5941.55
-6366.67
-5978.27
-8089.05
-7633.33
-7631.31
1439.1
-3174.85
-1849.84
-3425.4
-1995.12
-7183.27
-6771.73
-7192.39
1547.86
2200.48
2422.88
1758.55
1999.59
1347.78
1165.96
1802.98
895.663
498.45
487.926
874.725
496.642
903.14
901.934
494.857
799.547
326.415
264.311
713.046
410.556
905.177
1025.64
506.082
399.139
719.948
680.928
369.863
751.334
423.871
444.256
783.519
-2763.24
-3135.59
-6713.04
-3919.58
-6147.33
-5113.67
-3587.5
-5612.62
-1124.42
-1252.54
-1301.13
1153.82
-302.957
-150.648
-197.043
-81.1373
-1435.38
-1681.42
-1485.9
-2570.93
-2271.71
-2332.5
1185.32
-414.986
-223.089
-532.485
-295.394
-2046.54
-1888.44
-2104.56
-703.64
2130.86
1042.54
-953.009
1070.18
-623.977
-1036.44
-375.902
-1786.13
-1244.41
-621.662
-756.781
-1387.14
-500.56
-1925.96
-473.002
1936.91
1016.99
-870.818
992.424
-547.249
-790.011
-5682.38
-5219.27
-7313.87
-5017.93
-7939.63
-9311.47
-5418.04
-8609.28
-4897.26
-4507.34
-4563.82
1293.26
-1547.13
-908.462
-1719.68
-1012.2
-4184.05
-3933.84
-4242.62
-2820.44
-3018.77
-3081.72
1248.76
-1380.76
-812.561
-1221.52
-718.693
-3291.08
-3637.47
-3353.36
37.2982
1524
871.383
-284.047
859.859
-217.581
-18.0892
-502.632
-1107.96
-1650.82
-256.714
-154.531
-1517.97
-387.122
-978.031
-136.164
1661.89
883.367
-350.453
897.834
-416.966
-76.0817
1721.02
1870.51
1652.41
1022.75
725.636
1548.58
717.411
1593.39
1792.28
1535.42
1590.93
1433.64
1465.01
2353.21
1818.18
2428.94
2582.35
1883.1
2502.51
1039.58
739.328
1509.02
752.958
1473.77
1376.68
1547.1
1408.16
1487.98
1598.46
1445.45
396.943
-661.366
-476.754
428.274
430.847
-355.819
394.231
-531.136
750.737
976.132
611.379
717.597
736.676
645.136
739.969
712.077
965.092
578.671
693.857
724.518
545.951
668.376
637.299
896.653
286.609
444.912
248.211
642.304
407.199
442.996
-604.895
-793.512
394.779
411.828
-932.035
453.713
-741.111
659.512
929.578
324.583
481.981
361.856
649.889
516.899
1639.23
1609.02
2302.39
1669.2
2240.35
2155.21
1635.67
2197.77
1278.92
1330.52
1282.03
1069.26
853.333
1310.75
872.953
1298.21
1343.47
1292.57
1286.34
1351.09
1431.04
1331.52
1060.3
839.145
1326.09
827.782
1343.33
1403.45
1302.46
1315.15
-958.122
-764.325
-801.241
1111.76
314.832
266.79
243.898
217.79
-621.54
-515.633
-653.568
-426.989
-321.362
-1229.32
-730.271
-1429.74
-1879.93
-895.094
-1641.58
1091.21
381.501
315.473
442.852
362.221
-48.0004
-139.283
-153.721
-385.808
-246.727
-264.961
148.095
-230.203
-661.505
321.794
351.928
-558.411
197.301
-155.008
633.854
1081.7
831.108
506.54
835.633
610.78
538.838
561.351
1134.02
827.231
471.164
825.249
586.244
435.558
281.621
1337.64
821.585
124.862
825.04
75.1834
323.655
275.167
-772.891
-318.82
99.4803
35.733
-415.332
229.667
-888.452
401.308
1249.39
819.674
175.638
818.64
225.812
363.751
91.3881
39.232
-1049.52
-305.449
-875.347
-603.101
-189.342
-732.406
538.857
459.528
486.162
1046.06
744.146
612.749
772.708
634.674
406.698
366.622
429.613
49.1837
137.397
138.971
1062.23
712.999
579.938
679.634
550.74
214.621
296.532
221.972
130.799
306.406
354.111
129.41
256.453
121.316
153.123
202.884
459.793
253.993
277.457
472.173
218.028
431.478
445.047
177.904
304.388
292.473
342.133
773.727
402.157
514.538
803.78
461.792
881.538
789.438
798.054
764.735
888.277
715.7
863.052
661.426
835.701
880.663
884.678
843.57
800.005
865.839
911.058
920.995
735.835
917.031
757.981
813.611
896.043
879.863
718.325
1010.18
854.77
684.432
853.216
729.155
666.95
423.514
-19.568
141.045
344.456
330.662
109.528
430.829
-102.965
746.712
968.522
856.173
699.796
857.032
738.532
712.266
253.936
257.321
282.813
651.685
236.125
119.93
604.793
179.719
586.396
586.932
630.113
1017.08
878.522
748.328
867.677
732.518
621.857
706.004
670.281
822.135
734.219
795.548
993.453
888.798
756.82
898.959
761.465
710.299
739.053
769.476
656.195
682.281
706.545
667.82
641.954
634.338
690.125
346.875
150.468
31.5991
423.059
395.117
127.79
339.602
164.293
740.043
862.24
771.338
703.668
804.714
720.941
725.542
389.937
412.06
616.502
278.257
434.878
422.32
399.241
243.478
192.544
192.835
526.742
725.633
669.672
394.261
490.146
686.637
421.363
513.044
549.046
519.808
483.744
498.494
520.375
509.277
31.4451
-844.103
-3583.16
1540.4
-605.074
113.24
1608.75
374.807
7.30617
647.387
-1385.34
327.561
-274.174
621.623
347.955
568.66
-1243.01
-218.1
68.9462
588.27
401.334
464.964
116.105
-246.451
422.541
381.683
511.464
418.073
491.825
426.667
-357.759
332.003
65.912
427.237
452.028
647.866
682.42
593.536
673.887
625.582
537.851
609.811
636.152
639.857
725.619
574.946
706.047
625.169
666.264
551.867
472.647
708.656
312.724
731.883
320.009
440.678
507.547
623.806
714.749
635.451
418.764
531.62
592.432
725.337
-280.22
582.305
-3353.69
60.94
638.188
-3448.72
298.712
-336.959
686.336
-1645.57
354.726
-51.1817
715.992
330.614
795.8
-116.448
-1796.44
-396.556
276.81
760.8
148.597
-531.144
1466.21
-3225.82
76.4744
-776.82
1400.57
114.474
1271.96
-3051.74
-714.146
-457.244
1331.26
187.402
750.737
60.2081
279.147
-1408.13
242.152
625.154
-1461.46
632.409
-1671.61
219.759
244.266
14.0513
750.948
-1612.73
646.128
80.9134
-3164.84
439.574
737.019
-240.464
-3072.91
747.495
-2802.75
468.3
-195.383
100.383
-2888.62
646.158
623.949
272.097
229.604
-1263.11
100.391
744.173
-1213.67
741.486
-1030.72
266.643
146.819
297.077
-1075.19
615.636
713.097
400.846
356.026
-168.668
474.639
594
-187.333
599.644
-308.053
316.279
448.971
355.308
-284.911
713.495
604.55
492.856
580.201
596.272
636.998
662.587
562.615
622.356
533.221
633.604
533.115
452.679
593.722
550.777
524.012
422.74
417.91
-84.4742
486.526
172.095
425.335
502.857
435.679
15.0356
219.336
466.022
425.286
546.173
671.755
690.479
648.518
425.142
703.056
592.375
427.189
595.553
379.821
684.935
617.089
655.35
670.564
380.899
597.55
507.687
-77.842
379.629
703.505
436.37
-61.0614
700.767
35.4733
419.115
480.603
535.674
22.4628
590.796
600.034
729.301
693.453
465.23
714.309
659.091
464.004
654.954
494.663
720.183
745.898
745.352
498.053
593.354
393.749
535.184
602.972
713.992
488.886
447.225
536.663
2051.15
-2348.44
-2675.78
1724.43
1797.69
-2455.88
1974.44
966.425
-753.347
790.127
-877.204
763.677
998.807
-680.024
929.399
703.027
-782.435
-533.493
728.028
897.503
-602.486
389.092
-103.05
485.19
-875.727
495.714
439.93
182.659
418.057
538.076
125.353
-1008.17
372.131
522.919
-157.824
816.54
-263.103
610.574
-492.48
626.858
792.536
-324.545
843.021
672.614
-459.625
-577.892
867.745
654.779
-394.205
690.637
184.737
-2.34768
528.391
529.64
138.262
683.014
700.592
540.329
-72.2661
33.7094
539.424
708.807
83.8664
454.513
232.82
463.647
-665.523
412.171
457.428
-42.598
429.377
438.934
10.6593
-544.187
476.731
441.713
285.242
756.077
-197.347
588.786
-310.354
771.987
580.506
-139.745
736.772
555.383
-24.5118
-232.245
722.784
562.804
-78.4367
764.257
761.717
657.46
692.64
674.277
753.937
778.897
770.257
695.726
722.768
812.566
684.225
778.184
798.082
652.324
652.358
681.85
822.142
673.58
682.274
735.199
671.066
651.46
722.571
784.424
650.639
665.11
615.975
791.395
858.003
723.234
786.626
719.492
791.365
850.509
789.803
704.748
828.19
766.528
784.983
715.038
838.937
631.231
638.075
691.313
792.986
587.76
689.241
741.238
671.645
733.555
683.609
853.947
653.425
685.697
673.052
630.207
656.05
692.19
862.166
665.564
674.822
697.524
777.67
863.02
721.986
801.503
787.944
718.268
860.977
758.327
679.233
834.026
800.235
734.454
702.936
852.187
-2552.39
1806.14
1322.43
-3047.19
-3180.66
1873.22
-2434.42
276.98
-248.775
980.549
-2240.92
935.528
218.522
-520.364
246.823
844.177
-459.284
-2081.76
306.959
883.45
-180.231
1080.66
-834.974
831.443
-1103.34
865.963
1038.6
-911.54
1124.29
947.271
-1204.77
-1078.29
910.514
1166.78
-997.117
1321.79
-1433.8
1141.6
-1562.7
1095.39
1372.84
-1344.98
1266.88
998.056
-1453.5
-1167.76
1042.02
1216.5
-1252.21
1827.23
-2236.81
1647.59
-2362.83
1581.26
1897.26
-2132.79
1754.02
1444.68
-2241.01
-1924.61
1507.85
1684.95
-2024.52
184.178
-585.687
1037.78
-2551.05
249.88
1087.55
-314.731
218.944
1205.79
-386.275
-2717.93
152.408
1150.56
-648.814
1492.88
-1530.76
1201.71
-1833.65
1432.23
1255.78
-1623.14
1555.51
1376.87
-1820.34
-1948.35
1617.69
1320.29
-1724
641.911
170.457
283.652
-2125.87
-71.5383
-2055.83
754.378
754.928
-1828.2
-27.3267
316.654
635.644
190.907
-1892.81
-914.456
1047.67
746.107
-1192.77
-1283.89
1083.6
-831.155
-999.101
-1483.56
755.024
1156.29
-1388.95
1116.17
-1085.61
-1363.72
1323.92
863.927
-1916.96
1275.92
-1811.11
-1459.1
-1268.17
-1594.49
849.048
1192.11
1235.96
-1696.12
-1176.71
-2202.46
1748.92
-2908.25
1162.78
-2780.83
-2316.63
1686.06
-2089.5
-2522.37
1138.05
1572.76
-2645.45
1632.18
-1978.89
756.018
-112.104
379.293
-2294.23
143.354
643.27
-2369.32
646.768
-2623.37
122.983
348.93
752.049
-156.592
-2543.18
-1661.14
1367.32
979.824
-2037.72
1418.93
-1559.65
-2150.38
-1764.3
-2392.32
1522.15
999.657
1466.27
-1870.43
-2275.64
-674.509
1018.78
672.958
-1093.5
-1009.87
986.414
-750.98
-597.139
-834.03
669.017
933.097
-914.277
961.389
-523.849
733.09
233.076
276.762
-699.765
354.437
-734.261
606.465
613.52
-898.861
327.66
238.486
735.082
186.086
-859.347
-320.156
847.088
617.813
-518.344
868.206
-588.295
-255.64
-385.718
-745.403
911.619
616.627
886.695
-453.356
-672.505
122.003
753.75
583.024
-13.1146
-63.7726
761.889
168.255
75.3032
-177.483
573.897
779.332
-126.01
768.243
26.857
606.735
386.64
267.959
-581.347
270.746
724.832
-549.913
721.693
-411.561
315.291
307.77
600.134
414.331
-438.825
-137.944
831.685
584.592
-440.582
814.26
-194.95
-378.948
-79.4842
-246.293
787.985
589.106
802.462
-26.031
-305.497
590.225
572.348
477.328
360.273
493.604
558.352
365.404
573.419
521.962
408.218
435.566
609.745
504.655
606.662
736.255
739.154
648.766
631.656
634.761
744.843
718.917
727.582
607.324
594.315
669.822
623.994
717.087
693.177
695.81
552.16
561.656
468.843
577.889
687.046
581.897
701.243
599.782
514.413
640.515
586.295
709.533
614.013
675.798
235.206
523.031
136.462
529.016
677.7
278.199
671.005
531.258
198.319
364.423
525.574
671.016
324.764
536.803
316.3
469.448
241.806
576.255
454.349
542.604
559.918
437.479
503.63
154.681
522.906
450.559
270.232
677.966
516.145
557.283
369.755
681.825
546.629
482.988
674.998
532.612
407.512
317.044
671.723
543.624
443.6
595.262
630.061
534.651
262.823
586.427
268.745
681.65
680.511
329.085
623.98
571.308
591.069
654.186
326.068
604.636
785.369
696.172
548.968
529.909
780.625
622.025
589.191
487.119
681.215
769.376
504.73
774.287
572.981
505.03
750.116
641.07
373.814
753.864
397.88
482.754
530.064
455.937
654.556
762.815
759.33
431.732
551.813
250.513
750.27
43.4408
582.374
84.9943
211.413
745.205
291.468
179.828
593.95
740.814
139.091
744.039
328.335
692.347
553.617
492.283
199.683
595.427
590.867
193.074
593.376
112.652
568.563
454.621
693.15
514.941
122.284
424.728
745.528
619.559
334.432
744.426
454.586
302.069
395.04
226.257
742.192
605.553
741.919
362.916
259.647
643.666
791.632
721.494
569.584
580.358
796.516
634.814
656.647
612.418
733.792
805.3
600.723
802.132
666.544
634.61
791.402
773.505
537.653
766.22
544.802
590.467
597.141
524.206
763.269
757.174
641.596
765.195
519.618
679.26
807.615
760.548
648.542
811.233
642.314
683.35
676.65
625.431
809.519
752.619
811.093
672.262
631.284
589.044
608.98
589.096
678.016
575.794
616.286
621.66
586.272
770.532
783.275
554.983
786.424
608.723
546.614
583.097
533.809
796.788
776.457
566.667
739.962
555.392
673.796
800.996
750.979
652.627
790.353
679.625
646.832
665.906
630.978
737.314
735.586
769.173
652.908
645.259
)
;

boundaryField
{
    left
    {
        type            calculated;
        value           nonuniform List<scalar> 0();
    }
    bottom
    {
        type            calculated;
        value           nonuniform List<scalar> 0();
    }
    interface
    {
        type            calculated;
        value           nonuniform List<scalar> 
2171
(
-36.284
-56.8201
-57.0977
-36.5484
696.54
663.628
703.07
534.81
328.99
777.688
731.85
552.015
596.18
383.904
551.41
857.584
992.282
1005.85
15.2186
-17309.2
341.523
378.428
537.344
494.878
-16382.1
-13702.5
-4640.57
-6647.75
790.514
758.868
-4010.41
-2234.35
792.968
837.738
984.434
956.118
800.584
829.035
904.242
893.921
865.268
472.223
735.956
906.069
902.463
14.8143
266.038
671.069
716.511
718.499
672.543
610.811
656.215
656.058
611.067
490.506
534.321
594.861
550.023
981.902
905.504
408.18
510.546
812.81
937.441
858.21
993.394
1007.08
942.183
955.922
945.99
959.787
40.0006
-7647.95
279.301
315.298
429.017
391.097
366
328.705
441.628
481.066
475.082
433.15
379.427
418.575
-7009.71
-5163.51
-10380.6
-12844.8
-2866.59
-4571.36
-9596.06
-7356.43
561.924
-272.893
-2322.84
-767.259
337.322
748.032
745.97
714.857
670.341
703.573
-139.096
-1681.27
574.64
611.266
658.586
623.415
734.923
779.897
894.336
852.425
838.149
795.872
907.784
944.594
932.225
903.598
853.143
890.264
756.663
784.672
862.51
838.003
818.343
794.465
870.019
888.583
860.807
851.637
826.948
844.755
856.528
779.471
928.411
430.167
695.153
817.528
735.903
871.433
898.557
864.596
859.579
829.239
858.087
261.088
847.594
644.444
552.876
-14232.3
-451.788
-5395.63
859.377
-213.71
942.242
-50.0207
319.407
941.722
-17.8848
-17.768
22.0233
209.261
170.92
161.513
40.7142
87.8887
78.0735
50.0541
752.191
664.981
605.519
591.968
500.218
555.461
255.162
286.847
300.835
241.325
321.279
382.758
369.093
334.254
740.329
433.7
383.971
485.141
539.128
472.088
432.591
497.302
483.373
446.001
362.605
396.743
411.513
347.985
994.457
344.574
581.008
324.332
362.053
559.321
833.566
901.73
669.895
714.139
722.311
660.873
689.054
734.394
738.352
686.042
897.196
828.903
836.409
841.009
906.193
444.377
591.295
287.029
302.164
469.321
231.132
280.982
668.313
726.111
713.173
679.157
-5786.47
-4278.91
-5142.18
180.964
221.651
131.892
191.83
222.492
182.574
195.447
530.494
265.223
308.945
216.862
273.69
228.708
261.125
157.362
187.028
145.197
199.393
70.9865
98.0199
59.8945
109.384
123.678
175.509
164.313
134.289
417.985
369.513
357.457
277.555
322.007
-5069.66
-3427.51
-9660.09
390.18
-346.269
379.664
360.351
406.46
395.509
370.993
304.983
326.317
293.368
338.336
214.864
233.421
203.117
245.504
271.135
314.807
303.485
282.087
-9138.89
527.312
486.65
402.38
282.385
416.167
710.827
662.874
590.36
635.576
602.671
392.937
417.766
381.836
429.357
445.287
493.714
483.637
455.022
540.211
498.777
579.003
623.546
569.708
522.244
572.781
563.85
530.781
475.21
504.212
514.878
464.958
681.782
621.181
946.769
723.339
787.399
642.966
705.16
651.929
696.132
584.372
624.251
570.627
637.686
475.288
511.843
460.229
527.001
544.88
610.758
597.741
557.573
885.897
819.074
811.58
737.855
803.03
721.999
673.002
683.709
893.629
732.703
783.761
727.335
631.127
679.58
677.182
633.893
606.957
645.404
600.56
652.19
548.312
581.947
539.547
591.061
587.187
638.5
631.774
593.665
828.502
775.466
740.621
793.039
893.241
283.102
879.55
429.31
313.254
482.386
740.221
792.244
721.208
637.47
681.987
636.156
683.354
626.605
661.747
670.497
619.136
832.933
778.641
751.065
800.978
385.305
506.046
503.834
264.609
409.518
532.944
243.956
593.474
650.011
634.315
607.82
364.114
317.838
-182.729
-176.806
803.132
762.992
758.856
747.391
-36.1584
-27.6439
686.462
583.932
567.018