/*--------------------------------*- C++ -*----------------------------------*\
| =========                 |                                                 |
| \\      /  F ield         | OpenFOAM: The Open Source CFD Toolbox           |
|  \\    /   O peration     | Version:  2012                                  |
|   \\  /    A nd           | Website:  www.openfoam.com                      |
|    \\/     M anipulation  |                                                 |
\*---------------------------------------------------------------------------*/
FoamFile
{
    version     2.0;
    format      ascii;
    class       volVectorField;
    location    "0.107/solid";
    object      D;
}
// * * * * * * * * * * * * * * * * * * * * * * * * * * * * * * * * * * * * * //

dimensions      [0 1 0 0 0 0 0];


internalField   nonuniform List<vector> 
24998
(
(1.75907e-11 5.43454e-11 4.12751e-11)
(-3.67856e-13 -2.52976e-13 -1.85059e-12)
(3.33477e-12 -9.22195e-13 2.04302e-11)
(-1.08734e-13 -1.53207e-13 1.1724e-11)
(8.56091e-12 -5.80008e-11 1.22161e-11)
(7.74962e-11 2.2196e-10 -8.69359e-12)
(7.17588e-11 2.07588e-10 -4.4529e-12)
(6.1957e-11 1.95794e-10 -4.80937e-12)
(4.18924e-11 1.72361e-10 2.9436e-11)
(2.91014e-11 5.62117e-11 3.90622e-11)
(1.77552e-12 2.92463e-13 3.73812e-11)
(1.77106e-10 2.35659e-10 -7.52301e-12)
(-2.75104e-13 -2.52879e-13 -2.72266e-12)
(4.39436e-12 -8.96757e-13 2.09617e-11)
(7.7475e-11 2.26986e-10 -8.84555e-12)
(1.21312e-12 -3.73676e-13 3.72614e-11)
(-2.43501e-12 -2.63396e-13 2.34652e-11)
(-1.10843e-13 -1.48204e-13 1.17732e-11)
(-2.46769e-12 -2.15351e-13 2.33083e-11)
(4.67092e-12 -6.18762e-11 3.12833e-11)
(6.55598e-12 -3.84634e-11 1.40566e-11)
(8.95008e-12 -1.30295e-10 3.50801e-11)
(1.75185e-10 2.31361e-10 -8.1687e-12)
(1.73853e-10 2.17974e-10 -4.75256e-12)
(7.258e-11 2.08962e-10 -4.71178e-12)
(1.72987e-10 2.1662e-10 -4.51804e-12)
(1.65048e-10 2.06979e-10 -4.95743e-12)
(6.3756e-11 1.9774e-10 -4.8137e-12)
(1.63241e-10 2.05087e-10 -4.93976e-12)
(1.4653e-10 1.8425e-10 2.58888e-11)
(4.13504e-11 1.77611e-10 1.91166e-11)
(1.45206e-10 1.76454e-10 4.4113e-11)
(9.35988e-14 -1.47352e-12 -3.72182e-14)
(3.17685e-10 -5.59977e-11 1.119e-11)
(-3.94899e-13 8.71099e-12 1.8535e-11)
(1.43295e-11 3.78968e-11 5.12694e-11)
(8.15662e-11 2.23873e-10 2.91484e-11)
(-2.04702e-12 -1.11495e-11 3.20352e-11)
(4.0948e-12 -3.71019e-12 1.98629e-11)
(8.64669e-12 -1.90689e-13 1.22899e-11)
(3.67131e-13 -5.61227e-13 1.34382e-11)
(8.36988e-12 -3.59951e-14 1.20452e-11)
(8.83286e-12 -1.10528e-13 1.17042e-11)
(-1.27616e-14 1.15099e-13 1.18209e-11)
(2.1235e-06 -6.3361e-07 2.54534e-06)
(1.78967e-11 5.88279e-11 1.47579e-11)
(5.06518e-08 4.19997e-09 5.74094e-08)
(5.97233e-09 8.63212e-09 -3.36476e-08)
(1.75988e-06 -4.60946e-07 -7.2753e-07)
(7.55954e-11 2.15275e-10 -6.64101e-12)
(1.42244e-05 -4.04711e-06 6.1828e-06)
(7.42417e-06 -2.03134e-06 4.7607e-06)
(7.43146e-06 -2.06742e-06 -1.4345e-06)
(1.38305e-05 -4.00487e-06 -1.84208e-06)
(6.89726e-11 2.03839e-10 -4.29895e-12)
(3.27039e-05 -1.03399e-05 7.75019e-06)
(2.35788e-05 -7.11183e-06 7.2394e-06)
(2.37882e-05 -7.27909e-06 -2.19815e-06)
(3.23428e-05 -1.02961e-05 -2.35664e-06)
(5.44682e-11 1.88589e-10 -2.4815e-12)
(5.29163e-05 -1.79134e-05 8.1554e-06)
(4.3465e-05 -1.43322e-05 7.97129e-06)
(4.37654e-05 -1.45157e-05 -2.44079e-06)
(5.30353e-05 -1.80232e-05 -1.96785e-06)
(3.82689e-12 -1.39538e-12 -1.65518e-12)
(1.68237e-12 3.91628e-11 5.1179e-11)
(1.58985e-10 2.3109e-10 3.47062e-11)
(1.84184e-10 -1.7135e-11 2.71933e-11)
(2.65296e-12 -3.4733e-12 2.13684e-11)
(3.26873e-10 1.25389e-11 3.18679e-11)
(8.58298e-12 2.09412e-11 5.08364e-11)
(-5.19974e-12 -3.4902e-12 4.92345e-11)
(1.91789e-10 1.05763e-11 3.82409e-11)
(1.61374e-10 2.39097e-10 1.56784e-11)
(-5.09552e-12 7.28261e-12 1.59382e-11)
(3.22811e-12 -6.96367e-12 2.9869e-11)
(2.38427e-12 1.90252e-11 5.04885e-11)
(2.38513e-12 -6.92882e-12 2.45116e-11)
(8.06917e-12 -4.52493e-12 2.47896e-11)
(8.08243e-11 2.29005e-10 1.26232e-11)
(-9.21171e-15 -5.9228e-12 4.44001e-11)
(-1.62292e-12 -9.01334e-13 2.61769e-11)
(6.05528e-12 -3.90559e-13 3.11778e-11)
(8.38702e-12 -1.34263e-13 1.20692e-11)
(8.60087e-12 -7.04848e-14 1.22772e-11)
(-1.81139e-12 -7.48473e-13 2.58047e-11)
(5.71697e-12 -1.93794e-13 3.06915e-11)
(5.99085e-12 -2.86995e-13 3.1136e-11)
(3.44926e-13 -5.20452e-13 1.3306e-11)
(5.713e-12 -1.81022e-13 3.05881e-11)
(-2.35869e-12 1.02192e-13 2.34288e-11)
(6.27544e-12 -8.29371e-14 3.01321e-11)
(1.38747e-11 3.53309e-11 1.32554e-11)
(8.8687e-12 -6.78782e-15 1.16862e-11)
(-2.26566e-12 1.63993e-16 2.36807e-11)
(1.52037e-12 5.82479e-11 2.89519e-11)
(6.38102e-12 -5.96781e-14 3.0083e-11)
(-1.26296e-15 7.58622e-14 1.18905e-11)
(2.09245e-06 -6.22876e-07 2.38637e-06)
(6.77041e-12 1.47272e-10 2.92758e-11)
(-4.44379e-11 -6.11829e-09 -1.51456e-08)
(1.74098e-06 -4.84087e-07 -3.56954e-07)
(5.97395e-08 2.57556e-08 1.15028e-07)
(2.12069e-06 -6.68948e-07 2.58714e-06)
(8.59359e-08 -2.06674e-08 9.10337e-08)
(2.08763e-06 -6.72835e-07 2.44884e-06)
(-3.89069e-09 9.55816e-09 -1.17576e-08)
(1.71445e-06 -4.71399e-07 -2.38511e-07)
(5.2037e-08 -2.81925e-08 7.59391e-08)
(2.34994e-06 -6.8879e-07 2.69403e-06)
(7.0341e-06 -1.92238e-06 4.6485e-06)
(2.31924e-06 -6.78621e-07 2.52661e-06)
(6.63069e-06 -1.85132e-06 -6.59739e-07)
(2.20147e-06 -6.10583e-07 -3.99723e-07)
(7.00934e-06 -1.91882e-06 4.36822e-06)
(2.34764e-06 -7.23589e-07 2.73836e-06)
(7.03737e-06 -1.9492e-06 4.73097e-06)
(2.31519e-06 -7.27808e-07 2.59278e-06)
(6.61529e-06 -1.84165e-06 -4.38486e-07)
(2.17584e-06 -5.98334e-07 -2.67987e-07)
(7.01351e-06 -1.95671e-06 4.49059e-06)
(-4.09358e-10 2.11647e-08 -3.18194e-08)
(1.72894e-06 -4.35329e-07 -5.97606e-07)
(6.64421e-06 -1.8387e-06 -1.36652e-06)
(2.21969e-06 -5.8849e-07 -8.17472e-07)
(6.62459e-06 -1.81925e-06 -1.12385e-06)
(2.18951e-06 -5.63738e-07 -6.72771e-07)
(1.76339e-10 2.24277e-10 -6.52209e-12)
(1.75437e-10 2.22298e-10 -5.96596e-12)
(7.49365e-11 2.13218e-10 -5.96883e-12)
(1.42062e-05 -4.0478e-06 5.81215e-06)
(7.41851e-06 -2.07879e-06 -6.92048e-07)
(7.39982e-06 -2.02811e-06 4.47386e-06)
(1.38211e-05 -4.00916e-06 -8.87492e-07)
(1.42304e-05 -4.06588e-06 6.30323e-06)
(7.4277e-06 -2.05763e-06 4.84566e-06)
(1.42146e-05 -4.07431e-06 5.99054e-06)
(7.40453e-06 -2.06947e-06 -4.58381e-07)
(7.40438e-06 -2.06526e-06 4.59989e-06)
(1.38154e-05 -4.00227e-06 -5.70979e-07)
(1.47332e-05 -4.20588e-06 6.26068e-06)
(2.29934e-05 -6.9118e-06 7.19225e-06)
(1.47155e-05 -4.20675e-06 5.88539e-06)
(2.26059e-05 -6.8765e-06 -1.04634e-06)
(1.48461e-05 -4.33128e-06 -9.11085e-07)
(2.29817e-05 -6.91454e-06 6.76131e-06)
(1.47394e-05 -4.22416e-06 6.38331e-06)
(2.29999e-05 -6.92331e-06 7.3443e-06)
(1.4724e-05 -4.23258e-06 6.06703e-06)
(2.26063e-05 -6.87214e-06 -6.4978e-07)
(1.48413e-05 -4.32472e-06 -5.83522e-07)
(2.29908e-05 -6.9308e-06 6.98634e-06)
(7.41339e-06 -2.04869e-06 -1.17831e-06)
(1.38216e-05 -3.99108e-06 -1.4957e-06)
(2.26115e-05 -6.87745e-06 -2.16746e-06)
(1.48549e-05 -4.32778e-06 -1.89076e-06)
(2.261e-05 -6.86879e-06 -1.7339e-06)
(1.48471e-05 -4.31468e-06 -1.53235e-06)
(1.70331e-10 2.12922e-10 -4.39546e-12)
(1.69216e-10 2.11585e-10 -4.48311e-12)
(6.7888e-11 2.02474e-10 -4.38221e-12)
(3.26978e-05 -1.03431e-05 7.28628e-06)
(2.3783e-05 -7.27764e-06 -1.06146e-06)
(2.35675e-05 -7.11463e-06 6.80563e-06)
(3.23403e-05 -1.02918e-05 -1.13966e-06)
(3.27091e-05 -1.03455e-05 7.92364e-06)
(2.35853e-05 -7.12292e-06 7.39312e-06)
(3.27053e-05 -1.0351e-05 7.54293e-06)
(2.3784e-05 -7.27357e-06 -6.56482e-07)
(2.35766e-05 -7.1303e-06 7.03313e-06)
(3.23446e-05 -1.02895e-05 -6.87983e-07)
(3.33292e-05 -1.05676e-05 7.77236e-06)
(4.2828e-05 -1.40924e-05 7.96597e-06)
(3.33235e-05 -1.05707e-05 7.30719e-06)
(4.24886e-05 -1.40304e-05 -1.17796e-06)
(3.35957e-05 -1.07463e-05 -1.14712e-06)
(4.28259e-05 -1.40952e-05 7.4911e-06)
(3.33344e-05 -1.05728e-05 7.94676e-06)
(4.28316e-05 -1.40939e-05 8.14916e-06)
(3.33309e-05 -1.05781e-05 7.56524e-06)
(4.2495e-05 -1.40295e-05 -7.0009e-07)
(3.36003e-05 -1.07442e-05 -6.90625e-07)
(4.28312e-05 -1.40973e-05 7.76218e-06)
(2.37874e-05 -7.27102e-06 -1.75542e-06)
(3.23462e-05 -1.02916e-05 -1.86305e-06)
(4.24888e-05 -1.40369e-05 -2.43648e-06)
(3.35978e-05 -1.0751e-05 -2.37186e-06)
(4.24955e-05 -1.40353e-05 -1.91443e-06)
(3.36018e-05 -1.07469e-05 -1.87303e-06)
(1.56239e-10 1.97988e-10 -2.32175e-12)
(1.53501e-10 1.95159e-10 7.1945e-13)
(5.09915e-11 1.85867e-10 1.46945e-13)
(5.30506e-05 -1.7967e-05 7.73378e-06)
(4.37653e-05 -1.4509e-05 -1.17986e-06)
(4.34631e-05 -1.4335e-05 7.49628e-06)
(5.30346e-05 -1.80192e-05 -1.37121e-06)
(5.29236e-05 -1.79156e-05 8.28986e-06)
(4.34686e-05 -1.43335e-05 8.15474e-06)
(5.30558e-05 -1.79679e-05 7.94111e-06)
(4.3772e-05 -1.45083e-05 -7.00493e-07)
(4.34683e-05 -1.43368e-05 7.76776e-06)
(5.30384e-05 -1.80189e-05 -1.11824e-06)
(4.37724e-05 -1.45144e-05 -1.91713e-06)
(5.30393e-05 -1.80229e-05 -1.70869e-06)
(5.74375e-12 8.7899e-12 5.91333e-12)
(7.98214e-11 3.60941e-11 5.35841e-11)
(-3.43548e-11 9.26369e-11 2.65892e-11)
(4.43439e-10 4.8962e-10 4.00466e-11)
(2.9927e-11 4.14161e-11 3.55395e-11)
(2.09428e-11 6.1297e-11 3.79513e-11)
(5.64888e-11 1.48167e-10 9.62532e-11)
(1.75629e-10 5.72044e-10 1.94534e-10)
(1.94639e-11 3.02026e-11 2.8705e-11)
(1.10716e-10 1.27327e-10 7.99508e-11)
(1.06971e-12 -1.15917e-12 6.03061e-12)
(1.4614e-12 -2.1914e-12 1.77696e-11)
(1.29642e-12 -6.91939e-13 5.93477e-12)
(-1.20734e-12 -4.34939e-14 -1.97326e-12)
(-1.42587e-13 1.18952e-14 1.15593e-11)
(-1.24519e-12 4.27322e-15 -2.09787e-12)
(8.07878e-12 -9.3858e-12 2.69964e-12)
(-3.56564e-11 -9.30301e-10 1.75374e-11)
(1.84593e-10 -3.67876e-10 1.09384e-11)
(3.77218e-10 3.80195e-10 -8.02545e-12)
(6.38319e-11 1.49223e-10 -6.88042e-12)
(2.4112e-10 8.77421e-10 -1.63344e-11)
(7.70569e-11 2.19009e-10 -7.37721e-12)
(3.9015e-10 3.96927e-10 -7.73677e-12)
(2.40448e-10 8.65071e-10 -1.1475e-11)
(6.22959e-11 1.46546e-10 -6.66969e-12)
(3.43278e-10 3.48878e-10 -4.64333e-12)
(5.26231e-11 1.36299e-10 -3.6666e-12)
(2.30077e-10 8.31668e-10 -9.60094e-12)
(7.09007e-11 2.06332e-10 -4.27966e-12)
(3.50582e-10 3.54672e-10 -5.06444e-12)
(2.27069e-10 8.2533e-10 -7.72836e-12)
(5.1404e-11 1.35242e-10 -3.56799e-12)
(2.95718e-10 3.1825e-10 1.45372e-12)
(3.9831e-11 1.26628e-10 -3.6078e-12)
(2.0697e-10 7.91926e-10 -8.44403e-12)
(5.98817e-11 1.93619e-10 -4.58242e-12)
(3.11588e-10 3.27971e-10 -1.81777e-12)
(1.99269e-10 7.79813e-10 -5.11301e-12)
(3.71805e-11 1.24893e-10 -3.3501e-12)
(2.55046e-10 2.75572e-10 1.07071e-10)
(6.3092e-12 1.11312e-10 1.76223e-11)
(1.57504e-10 7.03936e-10 1.09638e-10)
(5.03045e-11 1.58277e-10 4.09348e-11)
(2.16209e-10 2.92318e-10 6.25572e-11)
(1.91127e-10 6.16435e-10 1.96891e-10)
(1.49088e-11 1.05166e-10 2.31712e-11)
(5.65678e-11 3.77221e-10 6.85876e-11)
(4.87386e-11 3.45162e-11 2.57972e-11)
(2.06479e-11 6.56223e-11 3.79523e-11)
(7.9409e-11 1.4997e-10 9.24713e-11)
(1.1248e-10 6.23434e-10 1.99322e-10)
(3.25457e-11 2.51743e-11 2.04148e-11)
(1.42996e-10 9.70057e-11 5.68458e-11)
(7.65413e-12 -1.17246e-11 4.48802e-11)
(-8.16353e-13 -8.88572e-13 5.8321e-11)
(7.2807e-12 9.00546e-12 5.85731e-11)
(2.49627e-10 4.36062e-10 1.464e-11)
(1.76048e-10 2.39346e-10 -4.18455e-12)
(2.82895e-10 1.46007e-10 -4.12795e-12)
(2.59264e-10 9.61375e-10 -1.43043e-11)
(2.58693e-10 9.87375e-10 -2.80379e-12)
(2.62642e-10 4.24721e-10 -5.67848e-12)
(2.7953e-10 1.4859e-10 -4.06946e-12)
(-3.4944e-12 1.45879e-12 -7.37288e-12)
(-6.98445e-12 9.42348e-12 1.43454e-12)
(-1.28958e-11 1.32059e-11 1.45743e-12)
(8.56343e-12 -1.45688e-13 2.66045e-11)
(1.72041e-12 -1.59948e-12 7.42721e-12)
(6.50368e-12 -4.15369e-13 1.83144e-11)
(3.97323e-10 4.15264e-10 5.39851e-13)
(7.77604e-11 2.31182e-10 -4.85523e-12)
(6.28699e-11 1.52264e-10 -6.71356e-12)
(2.4212e-10 8.90635e-10 -1.58605e-11)
(3.89119e-10 3.97725e-10 -7.72119e-12)
(2.43633e-10 9.21129e-10 -3.84352e-12)
(6.36893e-11 1.5553e-10 -5.4456e-12)
(-9.87194e-13 -3.75252e-12 5.53624e-11)
(4.69162e-13 -3.39222e-12 3.44402e-11)
(2.14004e-12 -3.18548e-12 4.65319e-11)
(-2.26375e-12 -4.64483e-13 2.42489e-11)
(-1.8082e-12 -3.69646e-13 3.88563e-11)
(-1.59022e-12 -5.55188e-13 3.95992e-11)
(4.2628e-14 -3.08548e-13 1.23047e-11)
(-1.18725e-12 -4.72279e-14 -1.93586e-12)
(-1.0418e-12 -1.04882e-13 -1.52099e-12)
(-1.84036e-12 -2.84444e-13 3.86896e-11)
(-2.50612e-12 -2.32938e-14 2.30526e-11)
(-1.86464e-12 -7.92187e-14 3.84319e-11)
(-8.25652e-13 -6.02181e-12 2.59662e-11)
(-2.22593e-11 -6.47174e-11 4.28247e-11)
(-3.99138e-12 -6.65121e-12 4.09847e-11)
(1.01098e-12 -2.17451e-12 1.30064e-11)
(5.18756e-12 -5.47697e-12 1.81462e-12)
(-3.79634e-13 -9.57713e-15 -6.12067e-13)
(-3.4869e-11 -1.27198e-10 4.22384e-11)
(1.36555e-10 -9.33825e-10 1.04102e-10)
(2.31687e-10 -7.99097e-10 -1.55658e-10)
(2.72699e-10 4.07143e-10 -7.3565e-12)
(2.80384e-10 1.44668e-10 -5.46827e-12)
(2.57841e-10 9.49082e-10 -1.54737e-11)
(1.75617e-10 2.28249e-10 -7.57081e-12)
(2.59726e-10 9.35058e-10 -1.18925e-11)
(2.59073e-10 4.26757e-10 -6.21705e-12)
(2.81636e-10 1.41671e-10 -6.73441e-12)
(2.80638e-10 3.87673e-10 -7.86566e-12)
(1.74625e-10 2.19307e-10 -4.95579e-12)
(2.82048e-10 1.32672e-10 -4.06253e-12)
(2.54649e-10 9.02426e-10 -8.92133e-12)
(2.57026e-10 9.09955e-10 -1.05738e-11)
(2.79651e-10 3.82996e-10 -7.64217e-12)
(2.82805e-10 1.33633e-10 -4.30068e-12)
(3.58182e-10 3.61141e-10 -5.9569e-12)
(7.34029e-11 2.10329e-10 -4.90699e-12)
(5.37567e-11 1.37406e-10 -3.94067e-12)
(2.31053e-10 8.33984e-10 -8.68038e-12)
(3.50991e-10 3.54934e-10 -5.34473e-12)
(2.33881e-10 8.41309e-10 -1.04232e-11)
(5.49527e-11 1.38559e-10 -4.15223e-12)
(2.78785e-10 3.76857e-10 -7.34339e-12)
(2.81107e-10 1.31695e-10 -3.85798e-12)
(2.5386e-10 9.00006e-10 -9.79148e-12)
(1.72207e-10 2.15359e-10 -4.3807e-12)
(2.51359e-10 8.93355e-10 -8.02935e-12)
(2.79389e-10 3.82381e-10 -7.45956e-12)
(2.80327e-10 1.30685e-10 -3.87935e-12)
(2.72981e-10 3.64763e-10 -7.77627e-12)
(1.66637e-10 2.08657e-10 -4.78439e-12)
(2.72728e-10 1.24504e-10 -4.28047e-12)
(2.35501e-10 8.62241e-10 -8.10942e-12)
(2.40689e-10 8.71906e-10 -9.39351e-12)
(2.69405e-10 3.58335e-10 -7.61214e-12)
(2.74445e-10 1.25701e-10 -4.11405e-12)
(3.24411e-10 3.36028e-10 -3.39883e-12)
(6.53198e-11 1.99474e-10 -4.66713e-12)
(4.21174e-11 1.28192e-10 -3.74227e-12)
(2.092e-10 7.95097e-10 -7.5922e-12)
(3.12663e-10 3.28342e-10 -2.2905e-12)
(2.14937e-10 8.04519e-10 -9.03398e-12)
(4.41118e-11 1.29597e-10 -3.65469e-12)
(2.64772e-10 3.48659e-10 -4.74725e-12)
(2.7083e-10 1.23124e-10 -4.14575e-12)
(2.33591e-10 8.58992e-10 -8.89592e-12)
(1.61179e-10 2.0297e-10 -4.71097e-12)
(2.26732e-10 8.46542e-10 -5.66607e-12)
(2.68799e-10 3.57382e-10 -7.35816e-12)
(2.68639e-10 1.21615e-10 -3.887e-12)
(2.6423e-10 3.10823e-10 4.78546e-11)
(1.48406e-10 1.88754e-10 1.38866e-11)
(2.54585e-10 1.07082e-10 3.44168e-11)
(1.95095e-10 7.66943e-10 9.96751e-11)
(1.9972e-10 7.96004e-10 4.22213e-11)
(2.83409e-10 2.73463e-10 1.41307e-10)
(2.56871e-10 1.10575e-10 1.76477e-11)
(2.37008e-10 2.94015e-10 3.15191e-11)
(4.36739e-11 1.80571e-10 1.07498e-11)
(7.24314e-12 1.13388e-10 1.23075e-11)
(1.56773e-10 7.14038e-10 8.8718e-11)
(2.15501e-10 2.90896e-10 5.78445e-11)
(1.64634e-10 7.34487e-10 3.90242e-11)
(1.2494e-11 1.14838e-10 7.62287e-12)
(3.5985e-10 1.27827e-10 4.51383e-10)
(2.51409e-10 1.01063e-10 6.4279e-11)
(1.965e-10 7.52017e-10 1.25613e-10)
(1.45567e-10 1.58542e-10 7.16177e-11)
(2.28075e-10 6.36876e-10 2.39842e-10)
(2.88512e-10 2.64767e-10 1.63861e-10)
(2.47685e-10 8.90573e-11 1.19089e-10)
(-9.22936e-13 2.94262e-12 4.41754e-12)
(2.29535e-11 -3.46915e-11 5.82372e-12)
(-3.62042e-11 1.54948e-11 9.74536e-12)
(6.15498e-11 1.34774e-11 3.15986e-11)
(-9.71052e-11 2.01963e-10 5.66027e-11)
(5.91722e-11 -6.10469e-11 5.04709e-12)
(1.58003e-09 -5.23495e-10 6.08876e-10)
(-6.23051e-11 -1.22818e-13 1.08652e-11)
(2.50668e-12 9.33267e-12 9.46464e-12)
(-4.97997e-12 1.14092e-11 6.49175e-11)
(2.87599e-11 3.06362e-11 3.50784e-11)
(5.88378e-11 4.36442e-11 2.89402e-11)
(8.45037e-12 4.34046e-11 4.74943e-11)
(5.03413e-12 -5.84816e-12 5.80053e-11)
(2.14116e-10 8.05777e-10 2.02829e-12)
(2.98958e-11 4.15317e-11 3.72513e-11)
(4.46328e-10 4.87574e-10 3.42865e-11)
(8.09901e-11 2.02467e-10 6.51001e-11)
(2.25135e-10 8.73318e-10 2.96595e-11)
(8.60393e-11 1.62504e-10 1.64634e-11)
(1.9367e-10 7.48198e-10 1.05114e-10)
(4.26832e-10 4.50121e-10 1.841e-11)
(9.28019e-11 1.57629e-10 4.66383e-11)
(2.53332e-10 1.10898e-09 1.30082e-11)
(2.06507e-10 9.29501e-10 6.93153e-11)
(-6.81236e-12 2.43226e-12 6.71913e-11)
(-3.9595e-12 -1.12852e-11 5.36537e-11)
(3.54283e-11 3.71588e-11 5.46339e-11)
(4.86034e-11 4.66693e-11 5.61863e-12)
(5.12938e-11 4.98111e-11 1.91966e-11)
(8.44204e-12 -1.10848e-12 1.29374e-11)
(8.49147e-12 -7.17502e-13 1.27351e-11)
(-3.37648e-13 -8.9895e-13 3.44869e-12)
(-2.67409e-13 -4.04797e-13 3.52693e-12)
(1.74612e-12 -2.31531e-12 1.68454e-11)
(-4.51596e-13 -2.83709e-13 -3.41618e-13)
(6.56475e-13 -9.75092e-13 3.57909e-12)
(-1.63911e-12 -2.61217e-13 -1.14246e-12)
(-7.80169e-13 -5.78677e-13 1.93566e-12)
(8.48985e-12 -1.14498e-13 1.18865e-11)
(8.51421e-12 -1.51295e-14 1.18688e-11)
(-2.25903e-12 -2.12435e-14 -2.65566e-12)
(-2.28654e-12 -8.00014e-15 -2.75026e-12)
(-1.35373e-13 5.73605e-15 1.15703e-11)
(-1.17945e-12 6.81389e-14 -1.91915e-12)
(-1.23194e-12 5.20062e-15 -2.06713e-12)
(-2.23899e-12 4.20005e-14 -2.60999e-12)
(-2.27589e-12 1.57998e-14 -2.72404e-12)
(8.70778e-07 -3.37817e-07 1.43784e-06)
(7.2454e-10 8.42165e-10 1.18125e-10)
(7.39158e-07 -3.06456e-07 1.27024e-06)
(9.3585e-10 1.06078e-09 1.90315e-10)
(2.04389e-06 -3.96589e-07 -2.09021e-06)
(7.82536e-07 -6.03154e-08 -1.16076e-06)
(3.61762e-12 -4.24642e-12 1.55403e-12)
(1.29413e-10 -2.23607e-10 3.97193e-12)
(-1.94386e-10 -1.35577e-09 -1.54458e-10)
(4.09044e-07 -8.40117e-08 -3.3068e-07)
(1.30175e-08 1.13222e-08 -4.20935e-08)
(6.10184e-07 -3.36328e-08 -9.10737e-07)
(2.01713e-10 -9.10657e-10 -2.95739e-11)
(2.0059e-06 -4.04404e-07 -1.87496e-06)
(6.71391e-07 -1.58707e-07 -4.37334e-07)
(7.43145e-07 -6.40765e-08 -1.03727e-06)
(1.75828e-08 1.55627e-08 -4.93823e-08)
(6.48919e-07 -3.12271e-08 -1.02044e-06)
(1.68841e-10 -5.6602e-10 -1.83974e-11)
(3.7281e-11 4.18122e-11 -2.39828e-12)
(3.52587e-11 4.04232e-11 -3.05984e-12)
(2.73994e-10 1.12805e-09 -1.18885e-11)
(2.7403e-10 1.11967e-09 -9.49389e-12)
(3.75935e-10 3.79125e-10 -7.90622e-12)
(7.63191e-11 2.17275e-10 -6.87226e-12)
(2.37837e-10 8.54162e-10 -1.22751e-11)
(5.85815e-11 1.42709e-10 -5.57138e-12)
(2.40075e-10 8.65152e-10 -1.30356e-11)
(3.6704e-10 3.69658e-10 -7.70865e-12)
(5.99619e-11 1.44441e-10 -6.10447e-12)
(2.71033e-10 1.10576e-09 -1.15262e-11)
(2.73879e-10 1.12153e-09 -1.06902e-11)
(3.31251e-11 3.9135e-11 -2.40184e-12)
(3.50163e-11 4.00175e-11 -2.29441e-12)
(1.0844e-05 -3.01917e-06 5.57923e-06)
(1.03891e-05 -2.88457e-06 5.48452e-06)
(1.41768e-05 -4.05037e-06 -5.1737e-06)
(1.07883e-05 -2.98658e-06 -4.65665e-06)
(7.33106e-06 -1.95117e-06 -3.55601e-06)
(9.99476e-06 -2.82677e-06 -1.62365e-06)
(1.0308e-05 -2.85019e-06 -4.10912e-06)
(7.35918e-06 -1.94555e-06 -3.95983e-06)
(1.03322e-05 -2.84607e-06 -4.57579e-06)
(1.41569e-05 -4.05299e-06 -4.64586e-06)
(1.09117e-05 -3.10386e-06 -1.68184e-06)
(1.07647e-05 -2.9905e-06 -4.18172e-06)
(2.93484e-11 3.72203e-11 -1.15296e-12)
(2.78848e-11 3.67128e-11 -1.58976e-12)
(2.62574e-10 1.07762e-09 -8.15806e-12)
(2.59291e-10 1.0702e-09 -7.32947e-12)
(3.42798e-10 3.4867e-10 -4.40965e-12)
(6.99748e-11 2.05121e-10 -4.21815e-12)
(2.22322e-10 8.16784e-10 -7.75038e-12)
(4.88352e-11 1.33157e-10 -3.51152e-12)
(2.25941e-10 8.23609e-10 -8.87426e-12)
(3.35009e-10 3.42961e-10 -4.22559e-12)
(5.01487e-11 1.34216e-10 -3.44157e-12)
(2.5412e-10 1.05933e-09 -7.21238e-12)
(2.5808e-10 1.06793e-09 -7.45702e-12)
(2.60843e-11 3.60678e-11 -1.53752e-12)
(2.76393e-11 3.6555e-11 -1.02045e-12)
(2.83766e-05 -8.78536e-06 7.5555e-06)
(2.77671e-05 -8.56958e-06 7.5217e-06)
(3.26857e-05 -1.04169e-05 -6.54703e-06)
(2.83534e-05 -8.85501e-06 -6.37087e-06)
(2.35371e-05 -7.16853e-06 -5.46863e-06)
(2.7395e-05 -8.53163e-06 -2.27777e-06)
(2.77343e-05 -8.6371e-06 -5.69291e-06)
(2.35488e-05 -7.16845e-06 -6.09063e-06)
(2.77431e-05 -8.63791e-06 -6.34064e-06)
(3.26799e-05 -1.04151e-05 -5.87805e-06)
(2.86191e-05 -8.96354e-06 -2.3003e-06)
(2.8345e-05 -8.85408e-06 -5.72002e-06)
(2.07601e-11 3.44236e-11 -8.67154e-13)
(1.78847e-11 3.37665e-11 -1.01711e-12)
(2.37396e-10 1.02735e-09 -5.71256e-12)
(2.28877e-10 1.01199e-09 -2.43372e-12)
(2.94131e-10 3.17773e-10 2.3865e-12)
(5.74274e-11 1.9121e-10 -3.89883e-12)
(1.85642e-10 7.6073e-10 3.88863e-12)
(2.98855e-11 1.20871e-10 -1.61202e-12)
(1.96224e-10 7.75753e-10 -4.89935e-12)
(2.71591e-10 3.05801e-10 1.03812e-11)
(3.39833e-11 1.22978e-10 -2.70113e-12)
(2.13697e-10 9.87111e-10 8.65046e-12)
(2.25529e-10 1.00642e-09 -8.41321e-13)
(1.25217e-11 3.27838e-11 3.43242e-15)
(1.72162e-11 3.35572e-11 -3.28327e-13)
(4.85587e-05 -1.62584e-05 7.99196e-06)
(4.79226e-05 -1.60172e-05 7.99101e-06)
(5.30362e-05 -1.8052e-05 -6.77317e-06)
(4.85513e-05 -1.63448e-05 -6.7881e-06)
(4.34544e-05 -1.44138e-05 -6.06996e-06)
(4.75924e-05 -1.59584e-05 -2.44855e-06)
(4.79149e-05 -1.60996e-05 -6.09327e-06)
(4.34557e-05 -1.44172e-05 -6.7606e-06)
(4.79151e-05 -1.61033e-05 -6.7863e-06)
(5.30419e-05 -1.80503e-05 -6.10365e-06)
(4.88674e-05 -1.64411e-05 -2.4496e-06)
(4.85515e-05 -1.63411e-05 -6.09493e-06)
(-8.84513e-12 2.97735e-11 4.71516e-12)
(1.75303e-12 2.60246e-11 5.10832e-12)
(1.75008e-10 9.13101e-10 1.38195e-10)
(2.06996e-10 8.12309e-10 2.36977e-10)
(2.64973e-10 2.63531e-10 1.17586e-10)
(4.16703e-11 7.01928e-11 3.3839e-11)
(2.21723e-10 5.59856e-10 2.33603e-10)
(9.03772e-12 4.20726e-11 7.22869e-12)
(2.4156e-10 7.45814e-10 2.69683e-10)
(1.32306e-11 2.46854e-11 4.97154e-12)
(1.55903e-11 5.41634e-12 6.65397e-12)
(2.32185e-11 -2.08682e-11 4.85505e-12)
(2.93053e-11 1.24509e-11 1.19256e-11)
(1.08744e-10 2.98828e-11 2.49259e-11)
(2.66061e-11 4.58237e-11 4.8723e-11)
(2.46343e-11 1.0652e-11 4.63338e-11)
(4.14936e-11 8.84421e-10 9.51774e-12)
(1.83956e-11 3.00241e-11 2.49426e-11)
(5.8759e-11 4.19214e-10 6.52343e-11)
(1.34684e-10 2.05779e-10 6.96652e-11)
(2.15341e-10 9.50906e-10 3.45361e-11)
(2.56108e-10 1.46955e-10 3.2073e-11)
(1.56429e-10 8.0966e-10 1.10197e-10)
(1.72286e-10 4.78168e-10 4.08289e-11)
(2.10956e-10 1.36056e-10 3.88146e-11)
(1.8504e-10 1.21599e-09 1.77008e-11)
(1.22145e-10 1.01863e-09 7.54949e-11)
(4.83142e-11 -3.4511e-11 8.35765e-12)
(3.92653e-11 8.32016e-12 4.08006e-11)
(2.24704e-11 1.72742e-11 2.02911e-11)
(1.76893e-10 3.81281e-11 2.03656e-11)
(1.31092e-10 3.2573e-11 2.17572e-11)
(-2.836e-12 1.55439e-11 2.67061e-11)
(1.79807e-09 -3.26892e-10 6.80336e-10)
(1.59664e-11 1.6469e-11 3.28055e-11)
(2.17819e-11 1.40372e-12 4.15498e-11)
(2.3496e-11 1.17813e-11 4.61841e-11)
(1.62039e-11 1.51289e-11 5.39595e-11)
(-2.45363e-12 -7.6007e-13 6.29138e-11)
(-7.84858e-13 1.03882e-11 5.60717e-11)
(9.12125e-12 1.4524e-11 6.15491e-11)
(3.82138e-11 1.07878e-11 4.36591e-11)
(4.57421e-11 4.7567e-11 4.47474e-11)
(2.36038e-11 2.18983e-11 5.38319e-11)
(2.3469e-10 4.4808e-10 1.85035e-11)
(1.67939e-10 2.40608e-10 3.08118e-12)
(2.23461e-10 9.52834e-10 2.27306e-11)
(2.54938e-10 1.58491e-10 1.71864e-11)
(1.5785e-10 4.99001e-10 3.7962e-11)
(2.51809e-10 9.79451e-10 5.15652e-12)
(2.65871e-10 1.54795e-10 2.62313e-12)
(1.88482e-10 4.12171e-11 -1.07057e-12)
(1.83585e-10 4.23053e-11 -4.87718e-13)
(2.38952e-10 1.24031e-09 -1.1371e-11)
(2.39561e-10 1.28006e-09 3.24231e-14)
(1.99078e-10 1.21268e-09 1.39208e-11)
(2.33259e-10 1.2644e-09 6.92802e-12)
(1.74988e-10 4.29653e-11 1.5479e-11)
(1.81688e-10 4.34504e-11 9.41854e-13)
(-6.98264e-12 2.40276e-12 -2.54808e-12)
(-1.42543e-11 1.02609e-11 5.48802e-11)
(-1.78283e-11 1.30438e-11 1.22168e-11)
(-3.18629e-12 7.73837e-12 -2.78391e-12)
(-1.05054e-11 1.557e-11 8.86533e-12)
(-1.2471e-11 2.2319e-12 5.75017e-11)
(3.17969e-11 1.14292e-11 3.85023e-12)
(-1.35335e-11 1.26827e-11 1.8538e-11)
(-4.21282e-12 -3.72745e-12 3.22423e-11)
(-1.62873e-12 -3.73842e-12 4.2272e-11)
(5.57738e-12 5.26777e-12 2.0621e-11)
(2.72763e-13 -1.30766e-12 4.76366e-12)
(3.98897e-12 2.22156e-13 1.35595e-11)
(-5.37231e-12 -7.71701e-12 3.62068e-11)
(3.10347e-12 4.6577e-12 1.34134e-11)
(4.24227e-11 2.6909e-12 1.37787e-12)
(4.01487e-10 4.1885e-10 2.22971e-12)
(7.90934e-11 2.31386e-10 2.54107e-12)
(2.30603e-10 8.76561e-10 1.9456e-11)
(7.99985e-11 1.61724e-10 5.54781e-12)
(4.29714e-10 4.49988e-10 1.55585e-11)
(2.41936e-10 9.12043e-10 4.75665e-12)
(7.11404e-11 1.59183e-10 -1.79745e-12)
(3.72991e-11 4.21981e-11 -2.80884e-12)
(4.0484e-11 4.3563e-11 -1.76966e-12)
(2.7555e-10 1.14912e-09 -1.29417e-11)
(2.79746e-10 1.2008e-09 -1.67628e-12)
(2.60818e-10 1.10742e-09 1.06774e-11)
(2.77055e-10 1.18166e-09 5.78889e-12)
(4.83611e-11 4.66916e-11 3.6854e-12)
(4.14356e-11 4.43675e-11 -1.65235e-12)
(-2.47101e-12 -4.4351e-12 6.00331e-11)
(5.25595e-12 -2.40759e-12 3.22574e-11)
(8.45422e-13 -3.42335e-12 4.74687e-11)
(-1.16776e-13 -3.4463e-12 3.04472e-11)
(-7.36732e-13 -1.31713e-12 4.15589e-11)
(1.1929e-12 -2.82025e-12 4.50597e-11)
(5.8026e-12 -1.28212e-12 3.16261e-11)
(-1.42474e-12 -1.13693e-12 4.45677e-11)
(3.71247e-13 -2.25059e-12 4.66288e-11)
(8.44092e-12 -3.09896e-14 1.22075e-11)
(8.46486e-12 -1.23374e-13 1.22246e-11)
(-2.18351e-12 -5.21302e-13 2.45879e-11)
(-9.49555e-13 -9.97426e-13 4.10502e-11)
(-1.4616e-12 -6.35419e-13 3.99078e-11)
(-2.6595e-12 -3.44472e-13 4.2498e-11)
(5.78818e-12 -1.99158e-13 3.09843e-11)
(-2.45379e-12 -5e-13 4.31366e-11)
(-1.70978e-12 -8.64995e-13 4.41869e-11)
(5.81937e-12 -1.82575e-13 3.10476e-11)
(-2.30833e-12 -5.34095e-13 4.3363e-11)
(3.47499e-14 -3.09336e-13 1.2397e-11)
(-6.08391e-13 -2.34368e-13 -6.09358e-13)
(-9.85648e-13 -1.10645e-13 -1.40269e-12)
(-2.23633e-12 -4.77312e-14 -2.60824e-12)
(-2.12595e-12 -7.08601e-14 -2.27575e-12)
(-1.7842e-12 -1.91841e-13 -1.45405e-12)
(-2.07021e-12 -9.79255e-14 -2.15394e-12)
(-2.6863e-12 -2.96901e-13 4.23406e-11)
(5.85151e-12 -1.14734e-13 3.0334e-11)
(-2.68675e-12 -7.80468e-14 4.20937e-11)
(-2.49221e-12 1.89626e-14 2.30726e-11)
(-1.74513e-12 5.48136e-14 3.8768e-11)
(-1.84938e-12 4.06614e-15 3.84494e-11)
(5.93471e-12 -9.84122e-14 3.02796e-11)
(-2.54673e-12 4.61399e-14 4.23724e-11)
(-2.66523e-12 -2.93515e-14 4.21072e-11)
(9.18831e-12 1.2606e-12 1.15391e-11)
(9.21535e-12 5.98544e-13 1.15394e-11)
(-1.45599e-12 -2.54401e-12 2.51521e-11)
(-1.72501e-12 -3.58604e-14 3.89982e-11)
(-2.59813e-12 -2.89925e-12 4.02934e-11)
(-3.07932e-11 -4.50631e-11 4.49725e-11)
(5.67702e-12 3.23193e-12 3.00289e-11)
(-5.80966e-12 -4.7091e-12 4.4307e-11)
(-2.5366e-12 -4.29734e-14 4.25556e-11)
(6.26752e-12 1.06877e-12 3.00379e-11)
(-3.83732e-12 -2.05415e-12 4.36982e-11)
(7.82604e-13 -1.26141e-12 1.28502e-11)
(-1.10883e-12 6.93667e-14 -1.76173e-12)
(-6.57334e-13 6.2968e-14 -1.01673e-12)
(1.75113e-12 -2.36161e-12 6.52489e-13)
(-1.65662e-12 1.02962e-13 -1.46754e-12)
(-2.178e-12 6.67589e-14 -2.47008e-12)
(-1.87558e-12 1.06278e-13 -1.85569e-12)
(1.79473e-06 -5.49773e-07 1.0478e-06)
(8.36683e-07 -3.23176e-07 1.33799e-06)
(7.03688e-07 -2.62679e-07 6.17349e-07)
(-4.65498e-11 -8.51192e-11 4.28957e-11)
(9.8524e-10 1.40652e-09 1.63691e-11)
(4.24278e-10 -5.60375e-10 -2.66593e-10)
(2.27943e-10 -2.18385e-09 2.11729e-10)
(3.91313e-07 -1.06563e-07 -1.62671e-07)
(3.15433e-09 -5.52128e-09 3.26789e-08)
(4.08218e-07 -1.6767e-07 2.99287e-07)
(1.28518e-09 5.76184e-11 -1.36665e-10)
(1.76278e-06 -5.36181e-07 6.86133e-07)
(6.51613e-07 -1.82218e-07 -2.16922e-07)
(6.70895e-07 -2.42781e-07 4.00254e-07)
(7.04961e-07 -2.91261e-07 1.17869e-06)
(1.98257e-09 5.58366e-09 1.9316e-09)
(8.95468e-09 -7.60583e-09 4.99186e-08)
(4.38524e-07 -1.89835e-07 4.62638e-07)
(1.84017e-09 1.53214e-09 -8.1351e-11)
(8.64541e-07 -3.76875e-07 1.46462e-06)
(7.32678e-07 -3.46526e-07 1.29546e-06)
(1.77341e-06 -5.9772e-07 1.1708e-06)
(8.27405e-07 -3.78584e-07 1.37977e-06)
(6.80248e-07 -3.18445e-07 7.03885e-07)
(3.72231e-07 -9.0393e-08 -1.06823e-07)
(-1.69393e-09 -3.02006e-08 4.76694e-08)
(3.87828e-07 -2.08495e-07 3.75399e-07)
(1.73859e-06 -5.69407e-07 8.14244e-07)
(6.27294e-07 -1.66418e-07 -1.4165e-07)
(6.45932e-07 -2.8151e-07 4.88249e-07)
(6.95261e-07 -3.48938e-07 1.21837e-06)
(5.69963e-09 -4.35693e-08 6.83128e-08)
(4.19418e-07 -2.47775e-07 5.41113e-07)
(4.24863e-06 -1.17008e-06 3.67008e-06)
(4.56257e-06 -1.2524e-06 3.8003e-06)
(2.25395e-06 -6.69527e-07 1.18193e-06)
(4.22065e-06 -1.16339e-06 3.44664e-06)
(3.90075e-06 -1.10595e-06 1.55747e-06)
(4.48848e-06 -1.24378e-06 -5.55915e-07)
(6.64785e-06 -1.86866e-06 1.32105e-06)
(4.50765e-06 -1.27287e-06 1.10459e-06)
(2.22294e-06 -6.58016e-07 7.75739e-07)
(3.85288e-06 -1.06645e-06 -5.18892e-07)
(3.87269e-06 -1.09989e-06 1.02675e-06)
(4.53498e-06 -1.24614e-06 3.56932e-06)
(6.67213e-06 -1.8691e-06 1.99838e-06)
(4.53475e-06 -1.27735e-06 1.674e-06)
(4.24938e-06 -1.20112e-06 3.73232e-06)
(4.56368e-06 -1.2829e-06 3.8651e-06)
(2.23478e-06 -7.15909e-07 1.31849e-06)
(4.22107e-06 -1.20724e-06 3.53915e-06)
(3.88809e-06 -1.14787e-06 1.73583e-06)
(4.46854e-06 -1.23305e-06 -3.72481e-07)
(6.63921e-06 -1.89372e-06 1.56302e-06)
(4.49359e-06 -1.30089e-06 1.30392e-06)
(2.20065e-06 -6.90152e-07 9.17889e-07)
(3.83139e-06 -1.05535e-06 -3.48236e-07)
(3.85663e-06 -1.12892e-06 1.21174e-06)
(4.53595e-06 -1.28924e-06 3.6656e-06)
(6.66682e-06 -1.90532e-06 2.23251e-06)
(4.5241e-06 -1.31783e-06 1.86637e-06)
(2.02692e-06 -3.45846e-07 -2.00742e-06)
(7.69913e-07 -3.61621e-09 -1.11893e-06)
(3.87839e-07 -5.4786e-08 -2.71821e-07)
(1.6101e-08 3.06808e-08 -4.80519e-08)
(6.00489e-07 6.76077e-09 -8.82527e-07)
(1.99166e-06 -3.69432e-07 -1.80945e-06)
(6.43533e-07 -1.28877e-07 -3.56348e-07)
(7.32235e-07 -2.46283e-08 -1.00344e-06)
(2.15026e-08 3.97826e-08 -5.40929e-08)
(6.37647e-07 2.67558e-08 -9.85672e-07)
(2.27104e-06 -4.60861e-07 -2.2152e-06)
(4.17472e-06 -1.00838e-06 -3.03701e-06)
(4.50384e-06 -1.22712e-06 -1.14741e-06)
(6.9393e-06 -1.83482e-06 -3.47049e-06)
(4.45674e-06 -1.10719e-06 -2.82566e-06)
(2.2336e-06 -4.68802e-07 -1.98753e-06)
(3.86892e-06 -1.04837e-06 -1.06914e-06)
(4.14137e-06 -1.01586e-06 -2.72687e-06)
(6.968e-06 -1.82898e-06 -3.86463e-06)
(4.4895e-06 -1.09988e-06 -3.14692e-06)
(2.25395e-06 -4.10861e-07 -2.12745e-06)
(4.15861e-06 -9.63535e-07 -2.91718e-06)
(4.47937e-06 -1.20547e-06 -9.45962e-07)
(6.92854e-06 -1.80806e-06 -3.34941e-06)
(4.44377e-06 -1.07685e-06 -2.72777e-06)
(2.2193e-06 -4.3436e-07 -1.91816e-06)
(3.84284e-06 -1.02598e-06 -8.81655e-07)