/*--------------------------------*- C++ -*----------------------------------*\
| =========                 |                                                 |
| \\      /  F ield         | OpenFOAM: The Open Source CFD Toolbox           |
|  \\    /   O peration     | Version:  2012                                  |
|   \\  /    A nd           | Website:  www.openfoam.com                      |
|    \\/     M anipulation  |                                                 |
\*---------------------------------------------------------------------------*/
FoamFile
{
    version     2.0;
    format      ascii;
    class       volVectorField;
    location    "0.107/solid";
    object      D_0;
}
// * * * * * * * * * * * * * * * * * * * * * * * * * * * * * * * * * * * * * //

dimensions      [0 1 0 0 0 0 0];


internalField   nonuniform List<vector> 
24998
(
(1.9346e-11 5.30779e-11 4.01087e-11)
(-4.16061e-13 -3.20463e-13 -1.95814e-12)
(3.21446e-12 -7.95502e-13 1.99511e-11)
(-1.59197e-13 -1.50915e-13 1.17116e-11)
(6.00357e-12 -5.1282e-11 1.24154e-11)
(7.79752e-11 2.21216e-10 -7.02713e-12)
(7.05039e-11 2.08261e-10 -4.09459e-12)
(6.08938e-11 1.96839e-10 -4.66391e-12)
(4.11598e-11 1.73495e-10 2.98209e-11)
(3.08643e-11 5.47656e-11 3.75331e-11)
(1.56589e-12 4.78235e-13 3.63936e-11)
(1.79353e-10 2.34389e-10 -5.52764e-12)
(-3.13833e-13 -3.12865e-13 -2.82653e-12)
(4.28031e-12 -7.7458e-13 2.04324e-11)
(7.88553e-11 2.2584e-10 -6.85759e-12)
(1.04132e-12 -1.8605e-13 3.64308e-11)
(-2.52144e-12 -2.56734e-13 2.34699e-11)
(-1.62666e-13 -1.44609e-13 1.1754e-11)
(-2.55473e-12 -2.12331e-13 2.3315e-11)
(2.0498e-12 -5.38204e-11 3.08603e-11)
(4.86153e-12 -3.38331e-11 1.40687e-11)
(3.70132e-12 -1.14801e-10 3.4329e-11)
(1.76265e-10 2.30582e-10 -6.55548e-12)
(1.72614e-10 2.18665e-10 -4.33799e-12)
(7.13327e-11 2.09548e-10 -4.28244e-12)
(1.71717e-10 2.17398e-10 -4.16726e-12)
(1.63831e-10 2.08089e-10 -4.80512e-12)
(6.26459e-11 1.98756e-10 -4.66166e-12)
(1.62057e-10 2.06223e-10 -4.79493e-12)
(1.45587e-10 1.85457e-10 2.62194e-11)
(4.05646e-11 1.78778e-10 1.9417e-11)
(1.44295e-10 1.77628e-10 4.45511e-11)
(-2.75949e-12 -4.12618e-14 -2.24612e-12)
(2.87621e-10 -5.40599e-11 -5.33021e-12)
(-3.6438e-13 8.53598e-12 1.81051e-11)
(1.45793e-11 3.6827e-11 4.943e-11)
(8.82867e-11 2.20162e-10 3.02524e-11)
(-1.86085e-12 -1.12348e-11 3.1195e-11)
(2.82192e-12 -3.83232e-12 2.0385e-11)
(8.29449e-12 -1.92294e-13 1.25771e-11)
(3.03543e-13 -5.25398e-13 1.33324e-11)
(8.09732e-12 -3.46498e-14 1.23236e-11)
(8.56004e-12 -9.1448e-14 1.19899e-11)
(-8.52606e-14 1.21099e-13 1.17798e-11)
(1.86869e-06 -4.89163e-07 2.24526e-06)
(1.791e-11 5.59777e-11 1.4842e-11)
(4.4542e-08 4.24231e-09 5.05917e-08)
(4.98399e-09 7.72415e-09 -3.00556e-08)
(1.54333e-06 -4.81764e-07 -6.5134e-07)
(7.47174e-11 2.15309e-10 -5.69284e-12)
(1.25344e-05 -3.84724e-06 5.44365e-06)
(6.53932e-06 -1.78419e-06 4.19482e-06)
(6.53241e-06 -2.18198e-06 -1.2901e-06)
(1.21676e-05 -4.30574e-06 -1.66417e-06)
(6.77545e-11 2.04696e-10 -4.0765e-12)
(2.88321e-05 -1.07734e-05 6.81589e-06)
(2.07837e-05 -7.16451e-06 6.36941e-06)
(2.09414e-05 -7.99874e-06 -1.9958e-06)
(2.84818e-05 -1.14592e-05 -2.14497e-06)
(5.35477e-11 1.89724e-10 -2.331e-12)
(4.66686e-05 -1.94003e-05 7.17817e-06)
(3.83247e-05 -1.53111e-05 7.00864e-06)
(3.85537e-05 -1.63251e-05 -2.22379e-06)
(4.67593e-05 -2.03333e-05 -1.77056e-06)
(2.18509e-12 -7.3992e-13 -3.93322e-12)
(2.22557e-12 3.79355e-11 4.90084e-11)
(1.69083e-10 2.26032e-10 3.63455e-11)
(1.68407e-10 -1.71229e-11 1.77423e-11)
(1.22276e-12 -3.60162e-12 2.19573e-11)
(3.04929e-10 1.20266e-11 1.95206e-11)
(8.87207e-12 2.03564e-11 4.85081e-11)
(-7.0573e-12 -3.5341e-12 4.97952e-11)
(1.79824e-10 9.99593e-12 3.01285e-11)
(1.69498e-10 2.35111e-10 1.81541e-11)
(-5.05543e-12 7.12507e-12 1.55117e-11)
(3.34496e-12 -7.09131e-12 2.91746e-11)
(2.75621e-12 1.84889e-11 4.84967e-11)
(2.52998e-12 -7.15306e-12 2.37135e-11)
(8.14476e-12 -4.7771e-12 2.40997e-11)
(8.64406e-11 2.25927e-10 1.4589e-11)
(-1.43839e-12 -5.98985e-12 4.48513e-11)
(-1.74332e-12 -8.42019e-13 2.60083e-11)
(5.56763e-12 -3.81154e-13 3.16355e-11)
(8.11536e-12 -1.32358e-13 1.23447e-11)
(8.26614e-12 -7.15897e-14 1.25607e-11)
(-1.9246e-12 -6.99912e-13 2.56774e-11)
(5.33499e-12 -1.89683e-13 3.11757e-11)
(5.53793e-12 -2.76571e-13 3.15993e-11)
(2.77469e-13 -4.88153e-13 1.32075e-11)
(5.33626e-12 -1.76808e-13 3.1072e-11)
(-2.47713e-12 1.21062e-13 2.33915e-11)
(5.90259e-12 -4.68293e-14 3.06212e-11)
(1.40197e-11 3.38557e-11 1.34429e-11)
(8.6009e-12 1.49942e-14 1.19711e-11)
(-2.40167e-12 5.27033e-14 2.36263e-11)
(2.89891e-12 5.69641e-11 2.95253e-11)
(6.01443e-12 -3.75371e-15 3.05784e-11)
(-8.03884e-14 9.01763e-14 1.18399e-11)
(1.8394e-06 -4.86718e-07 2.10494e-06)
(8.2916e-12 1.41462e-10 2.97201e-11)
(-3.58882e-10 -5.91179e-09 -1.35575e-08)
(1.52712e-06 -4.86808e-07 -3.22785e-07)
(5.25616e-08 2.43219e-08 1.0179e-07)
(1.87434e-06 -5.20351e-07 2.28122e-06)
(7.55406e-08 -1.76366e-08 7.99383e-08)
(1.84706e-06 -5.30803e-07 2.15936e-06)
(-2.86156e-09 8.21036e-09 -9.80746e-09)
(1.52004e-06 -4.75604e-07 -2.02297e-07)
(4.5757e-08 -2.4262e-08 6.66341e-08)
(2.0681e-06 -5.35396e-07 2.37624e-06)
(6.1955e-06 -1.67741e-06 4.09619e-06)
(2.03897e-06 -5.34001e-07 2.22835e-06)
(5.82891e-06 -1.90926e-06 -6.01905e-07)
(1.93186e-06 -6.15496e-07 -3.61774e-07)
(6.16947e-06 -1.68977e-06 3.84655e-06)
(2.07484e-06 -5.66107e-07 2.4149e-06)
(6.21622e-06 -1.70107e-06 4.17779e-06)
(2.04824e-06 -5.77404e-07 2.28671e-06)
(5.85442e-06 -1.90072e-06 -3.66861e-07)
(1.9284e-06 -6.0468e-07 -2.27092e-07)
(6.19935e-06 -1.7232e-06 3.96813e-06)
(1.86545e-10 1.80825e-08 -2.72083e-08)
(1.53334e-06 -4.59155e-07 -5.17271e-07)
(5.83943e-06 -1.93594e-06 -1.2282e-06)
(1.94735e-06 -6.1421e-07 -7.32083e-07)
(5.86402e-06 -1.91877e-06 -9.68619e-07)
(1.94108e-06 -5.92364e-07 -5.82245e-07)
(1.75649e-10 2.24395e-10 -5.6319e-12)
(1.74503e-10 2.22612e-10 -5.23707e-12)
(7.38786e-11 2.13434e-10 -5.19397e-12)
(1.25123e-05 -3.8706e-06 5.11127e-06)
(6.5225e-06 -2.1515e-06 -6.32189e-07)
(6.51351e-06 -1.79735e-06 3.93921e-06)
(1.21616e-05 -4.25111e-06 -8.17947e-07)
(1.25659e-05 -3.8638e-06 5.57145e-06)
(6.56083e-06 -1.8074e-06 4.27935e-06)
(1.25581e-05 -3.89399e-06 5.30099e-06)
(6.55203e-06 -2.14327e-06 -3.82632e-07)
(6.54457e-06 -1.83013e-06 4.06513e-06)
(1.22167e-05 -4.24503e-06 -4.68611e-07)
(1.29831e-05 -4.01492e-06 5.51195e-06)
(2.02674e-05 -6.9439e-06 6.32815e-06)
(1.29612e-05 -4.03885e-06 5.17529e-06)
(1.99027e-05 -7.46419e-06 -9.72661e-07)
(1.30646e-05 -4.60753e-06 -8.40697e-07)
(2.02494e-05 -6.97464e-06 5.93965e-06)
(1.30151e-05 -4.03106e-06 5.64252e-06)
(2.03054e-05 -6.95406e-06 6.4963e-06)
(1.30078e-05 -4.06163e-06 5.36908e-06)
(1.99809e-05 -7.46034e-06 -5.23523e-07)
(1.31229e-05 -4.60174e-06 -4.77737e-07)
(2.03051e-05 -6.98898e-06 6.18882e-06)
(6.56135e-06 -2.16546e-06 -1.01473e-06)
(1.22245e-05 -4.29357e-06 -1.28028e-06)
(1.99044e-05 -7.54113e-06 -1.96701e-06)
(1.307e-05 -4.66525e-06 -1.70922e-06)
(1.99874e-05 -7.53348e-06 -1.47465e-06)
(1.31305e-05 -4.65368e-06 -1.31052e-06)
(1.69046e-10 2.13881e-10 -4.17455e-12)
(1.67941e-10 2.12589e-10 -4.28504e-12)
(6.66902e-11 2.03377e-10 -4.18478e-12)
(2.8818e-05 -1.08083e-05 6.39616e-06)
(2.09401e-05 -7.9194e-06 -9.87587e-07)
(2.0766e-05 -7.1956e-06 5.97825e-06)
(2.84837e-05 -1.13654e-05 -1.06528e-06)
(2.88732e-05 -1.07783e-05 7.01211e-06)
(2.0822e-05 -7.17431e-06 6.53972e-06)
(2.88785e-05 -1.08152e-05 6.68669e-06)
(2.10209e-05 -7.91581e-06 -5.27848e-07)
(2.08221e-05 -7.20942e-06 6.23062e-06)
(2.85791e-05 -1.13634e-05 -5.46897e-07)
(2.93837e-05 -1.10305e-05 6.83524e-06)
(3.77627e-05 -1.50373e-05 7.00403e-06)
(2.93698e-05 -1.10655e-05 6.4143e-06)
(3.74323e-05 -1.56682e-05 -1.10334e-06)
(2.95905e-05 -1.18876e-05 -1.07273e-06)
(3.77516e-05 -1.50739e-05 6.57358e-06)
(2.94249e-05 -1.10351e-05 7.03272e-06)
(3.78046e-05 -1.50386e-05 7.21339e-06)
(2.94305e-05 -1.10721e-05 6.70669e-06)
(3.75386e-05 -1.56674e-05 -5.53262e-07)
(2.96876e-05 -1.18858e-05 -5.4836e-07)
(3.78136e-05 -1.50758e-05 6.88349e-06)
(2.10272e-05 -7.99161e-06 -1.49193e-06)
(2.85846e-05 -1.14553e-05 -1.57752e-06)
(3.74279e-05 -1.5773e-05 -2.21984e-06)
(2.95883e-05 -1.19832e-05 -2.15932e-06)
(3.75436e-05 -1.57716e-05 -1.61837e-06)
(2.96931e-05 -1.19796e-05 -1.5854e-06)
(1.55166e-10 1.99186e-10 -2.16625e-12)
(1.52459e-10 1.96361e-10 8.76874e-13)
(5.01073e-11 1.8701e-10 2.9825e-13)
(4.67781e-05 -1.9492e-05 6.79514e-06)
(3.85584e-05 -1.62193e-05 -1.10518e-06)
(3.83137e-05 -1.53478e-05 6.57804e-06)
(4.67593e-05 -2.02806e-05 -1.24331e-06)
(4.6711e-05 -1.94054e-05 7.34124e-06)
(3.83666e-05 -1.53123e-05 7.21838e-06)
(4.68343e-05 -1.94957e-05 7.04183e-06)
(3.86655e-05 -1.62187e-05 -5.53451e-07)
(3.83757e-05 -1.53495e-05 6.88852e-06)
(4.68172e-05 -2.02804e-05 -9.5263e-07)
(3.86705e-05 -1.63239e-05 -1.62061e-06)
(4.68186e-05 -2.03331e-05 -1.47267e-06)
(-3.56889e-13 1.48357e-11 5.68459e-12)
(3.20122e-11 6.27731e-11 3.99676e-11)
(-8.27381e-11 1.57074e-10 2.58182e-11)
(4.4931e-10 4.80797e-10 3.75344e-11)
(3.07029e-11 4.05006e-11 3.46055e-11)
(2.27033e-11 6.01656e-11 3.6831e-11)
(6.12078e-11 1.44958e-10 9.40927e-11)
(1.89456e-10 5.6187e-10 1.90204e-10)
(2.01327e-11 2.95781e-11 2.78893e-11)
(1.12585e-10 1.2483e-10 7.82822e-11)
(9.48565e-13 -1.13272e-12 5.6171e-12)
(1.37611e-12 -2.12394e-12 1.7527e-11)
(1.21571e-12 -6.43513e-13 5.77125e-12)
(-1.24909e-12 -4.33279e-14 -2.054e-12)
(-1.96971e-13 7.68936e-15 1.15435e-11)
(-1.29032e-12 1.25432e-15 -2.1855e-12)
(7.17616e-12 -8.43752e-12 2.47945e-12)
(-6.26338e-11 -8.52788e-10 1.67735e-11)
(1.67294e-10 -3.34889e-10 1.04269e-11)
(3.75651e-10 3.7909e-10 -5.12042e-12)
(6.37069e-11 1.48421e-10 -5.26587e-12)
(2.43478e-10 8.75531e-10 -1.27152e-11)
(7.68992e-11 2.18572e-10 -5.99796e-12)
(3.90655e-10 3.94311e-10 -3.7415e-12)
(2.40146e-10 8.64535e-10 -8.65238e-12)
(6.1704e-11 1.46023e-10 -5.3165e-12)
(3.40715e-10 3.50658e-10 -4.18413e-12)
(5.13726e-11 1.3679e-10 -3.34333e-12)
(2.27002e-10 8.34176e-10 -8.79254e-12)
(6.96483e-11 2.07078e-10 -3.97872e-12)
(3.4782e-10 3.56114e-10 -4.40147e-12)
(2.23995e-10 8.28185e-10 -7.10285e-12)
(5.01794e-11 1.35797e-10 -3.29898e-12)
(2.94324e-10 3.20883e-10 1.63727e-12)
(3.89069e-11 1.2746e-10 -3.47932e-12)
(2.04292e-10 7.95585e-10 -8.12518e-12)
(5.88754e-11 1.94689e-10 -4.4353e-12)
(3.0986e-10 3.30458e-10 -1.6353e-12)
(1.9675e-10 7.83568e-10 -4.78734e-12)
(3.63413e-11 1.25754e-10 -3.21668e-12)
(2.54657e-10 2.78184e-10 1.08633e-10)
(5.843e-12 1.12269e-10 1.79501e-11)
(1.55505e-10 7.07791e-10 1.10841e-10)
(4.96585e-11 1.59314e-10 4.14599e-11)
(2.15538e-10 2.95206e-10 6.34176e-11)
(1.89533e-10 6.19473e-10 1.98884e-10)
(1.45389e-11 1.06079e-10 2.36245e-11)
(9.61982e-11 3.48967e-10 6.8609e-11)
(5.26346e-11 3.29798e-11 2.40038e-11)
(2.26729e-11 6.43397e-11 3.66705e-11)
(8.6105e-11 1.45648e-10 8.92717e-11)
(1.31006e-10 6.10708e-10 1.94572e-10)
(3.34039e-11 2.42781e-11 1.90673e-11)
(1.59154e-10 9.05011e-11 5.25935e-11)
(7.48257e-12 -1.14472e-11 4.33533e-11)
(-1.20185e-12 -5.52944e-13 5.73111e-11)
(6.85612e-12 9.36298e-12 5.65088e-11)
(2.66211e-10 4.28518e-10 1.51992e-11)
(1.79863e-10 2.37343e-10 -1.77307e-12)
(2.86019e-10 1.44695e-10 -2.52439e-12)
(2.63743e-10 9.58837e-10 -1.06247e-11)
(2.68569e-10 9.81311e-10 1.65598e-12)
(2.69531e-10 4.21529e-10 -4.88367e-12)
(2.84692e-10 1.46503e-10 -2.03548e-12)
(-3.47005e-12 1.3719e-12 -7.73207e-12)
(-7.57763e-12 9.47233e-12 1.46314e-12)
(-1.29636e-11 1.30875e-11 8.18095e-13)
(8.48851e-12 -7.47148e-14 2.58029e-11)
(1.58787e-12 -1.57282e-12 6.99831e-12)
(6.33031e-12 -4.30441e-13 1.76959e-11)
(4.02241e-10 4.09968e-10 5.17271e-12)
(8.0369e-11 2.29453e-10 -2.57549e-12)
(6.34317e-11 1.51113e-10 -4.85259e-12)
(2.45674e-10 8.88315e-10 -1.1938e-11)
(3.90067e-10 3.94882e-10 -3.56986e-12)
(2.52118e-10 9.15473e-10 7.60015e-13)
(6.51761e-11 1.5393e-10 -3.42713e-12)
(-1.34412e-12 -3.46296e-12 5.45693e-11)
(3.06809e-13 -3.27705e-12 3.40177e-11)
(1.90808e-12 -3.01147e-12 4.62908e-11)
(-2.355e-12 -4.45635e-13 2.42234e-11)
(-1.93402e-12 -3.59943e-13 3.90415e-11)
(-1.71549e-12 -5.33918e-13 3.97502e-11)
(-1.22424e-14 -2.95896e-13 1.22684e-11)
(-1.22991e-12 -4.64382e-14 -2.01814e-12)
(-1.0889e-12 -1.00194e-13 -1.61978e-12)
(-1.96652e-12 -2.77704e-13 3.88774e-11)
(-2.59826e-12 -2.8046e-14 2.30568e-11)
(-1.99316e-12 -7.952e-14 3.86238e-11)
(-1.28065e-12 -4.96689e-12 2.58082e-11)
(-2.26493e-11 -5.25518e-11 4.31671e-11)
(-4.04135e-12 -5.03198e-12 4.11218e-11)
(7.59652e-13 -1.76482e-12 1.29269e-11)
(4.53825e-12 -4.88435e-12 1.58998e-12)
(-5.01159e-13 1.84079e-14 -7.89391e-13)
(-3.74814e-11 -1.04113e-10 4.28973e-11)
(7.64647e-11 -8.44629e-10 9.85191e-11)
(1.21257e-10 -6.55675e-10 -1.28975e-10)
(2.73479e-10 4.06388e-10 -6.48602e-12)
(2.82024e-10 1.43878e-10 -4.21319e-12)
(2.60918e-10 9.47043e-10 -1.20935e-11)
(1.75874e-10 2.27834e-10 -6.26031e-12)
(2.59794e-10 9.34506e-10 -9.2561e-12)
(2.65053e-10 4.23856e-10 -5.39742e-12)
(2.82227e-10 1.41259e-10 -5.72886e-12)
(2.76846e-10 3.89339e-10 -7.19144e-12)
(1.73442e-10 2.19896e-10 -4.46306e-12)
(2.80615e-10 1.33308e-10 -3.71973e-12)
(2.51444e-10 9.04921e-10 -8.05262e-12)
(2.54023e-10 9.11969e-10 -9.43769e-12)
(2.75304e-10 3.85159e-10 -7.0912e-12)
(2.8147e-10 1.34176e-10 -3.90043e-12)
(3.55307e-10 3.6206e-10 -4.89857e-12)
(7.21828e-11 2.10814e-10 -4.39009e-12)
(5.24851e-11 1.37818e-10 -3.54729e-12)
(2.27987e-10 8.36372e-10 -7.79343e-12)
(3.48204e-10 3.56328e-10 -4.64119e-12)
(2.30959e-10 8.43221e-10 -9.24543e-12)
(5.36768e-11 1.38879e-10 -3.6703e-12)
(2.7414e-10 3.79415e-10 -6.90317e-12)
(2.79616e-10 1.32409e-10 -3.56175e-12)
(2.50611e-10 9.02619e-10 -8.99421e-12)
(1.70922e-10 2.16211e-10 -4.08505e-12)
(2.48069e-10 8.96318e-10 -7.40633e-12)
(2.75003e-10 3.84587e-10 -6.92475e-12)
(2.78798e-10 1.31464e-10 -3.6265e-12)
(2.6816e-10 3.67788e-10 -7.46416e-12)
(1.65397e-10 2.09736e-10 -4.61973e-12)
(2.71178e-10 1.25505e-10 -4.14202e-12)
(2.32443e-10 8.6598e-10 -7.76942e-12)
(2.37531e-10 8.75482e-10 -9.02519e-12)
(2.64618e-10 3.61489e-10 -7.31358e-12)
(2.72884e-10 1.26675e-10 -3.9659e-12)
(3.22386e-10 3.38339e-10 -3.17277e-12)
(6.41747e-11 2.00457e-10 -4.50444e-12)
(4.11253e-11 1.28994e-10 -3.61288e-12)
(2.06466e-10 7.98727e-10 -7.25967e-12)
(3.10889e-10 3.30812e-10 -2.10227e-12)
(2.12082e-10 8.07999e-10 -8.6747e-12)
(4.30733e-11 1.30369e-10 -3.51823e-12)
(2.60087e-10 3.51908e-10 -4.43696e-12)
(2.69299e-10 1.24147e-10 -4.01166e-12)
(2.30566e-10 8.62752e-10 -8.56886e-12)
(1.6003e-10 2.04123e-10 -4.56508e-12)
(2.23892e-10 8.50342e-10 -5.32953e-12)
(2.64026e-10 3.60546e-10 -7.06147e-12)
(2.67131e-10 1.22653e-10 -3.75534e-12)
(2.59875e-10 3.14152e-10 4.84938e-11)
(1.47429e-10 1.89977e-10 1.41485e-11)
(2.53277e-10 1.08171e-10 3.47545e-11)
(1.92769e-10 7.70712e-10 1.00753e-10)
(1.97237e-10 7.99986e-10 4.2876e-11)
(2.79282e-10 2.76727e-10 1.42479e-10)
(2.55524e-10 1.11664e-10 1.7896e-11)
(2.36142e-10 2.96854e-10 3.19743e-11)
(4.2856e-11 1.81735e-10 1.09957e-11)
(6.69913e-12 1.1435e-10 1.25682e-11)
(1.54738e-10 7.17977e-10 8.97515e-11)
(2.14792e-10 2.93774e-10 5.86391e-11)
(1.62552e-10 7.38419e-10 3.96498e-11)
(1.18981e-11 1.15792e-10 7.82689e-12)
(3.56178e-10 1.30511e-10 4.54109e-10)
(2.50128e-10 1.02137e-10 6.47616e-11)
(1.94224e-10 7.55706e-10 1.26878e-10)
(1.447e-10 1.59647e-10 7.22423e-11)
(2.25809e-10 6.40234e-10 2.4202e-10)
(2.84429e-10 2.68002e-10 1.65155e-10)
(2.46433e-10 9.00684e-11 1.19821e-10)
(-5.65246e-12 7.78303e-12 3.3198e-12)
(3.19561e-12 -2.32089e-11 -1.55177e-13)
(-8.36848e-11 6.67288e-11 6.98843e-12)
(-1.09571e-11 5.99712e-11 3.05663e-12)
(-2.08464e-10 3.16201e-10 3.75578e-11)
(3.04096e-11 -4.83982e-11 -2.42461e-12)
(1.07448e-09 -2.53927e-10 6.2086e-10)
(-1.59473e-10 8.07515e-11 -3.49226e-12)
(2.70962e-12 9.06192e-12 9.14735e-12)
(-4.8413e-12 1.12856e-11 6.38481e-11)
(2.90883e-11 3.01032e-11 3.42464e-11)
(5.91143e-11 4.23515e-11 2.80584e-11)
(9.98575e-12 4.25967e-11 4.62465e-11)
(5.2378e-12 -6.14235e-12 5.6686e-11)
(2.26959e-10 7.9258e-10 1.17738e-12)
(3.02985e-11 4.09247e-11 3.63503e-11)
(4.53287e-10 4.78472e-10 3.22358e-11)
(8.77242e-11 1.9855e-10 6.45515e-11)
(2.42803e-10 8.62163e-10 3.25303e-11)
(9.00762e-11 1.59598e-10 1.72189e-11)
(2.10585e-10 7.35395e-10 1.03584e-10)
(4.36393e-10 4.41811e-10 2.0539e-11)
(9.64635e-11 1.54605e-10 4.61352e-11)
(2.71403e-10 1.0961e-09 1.53817e-11)
(2.23344e-10 9.15105e-10 6.80175e-11)
(-6.61876e-12 2.37157e-12 6.61102e-11)
(-3.7767e-12 -1.14622e-11 5.24665e-11)
(3.55749e-11 3.66766e-11 5.35871e-11)
(4.97688e-11 4.52366e-11 6.02058e-12)
(5.20632e-11 4.83436e-11 1.86783e-11)
(7.85925e-12 -1.13496e-12 1.32741e-11)
(7.96211e-12 -7.40132e-13 1.3059e-11)
(-4.39562e-13 -8.78621e-13 3.12418e-12)
(-3.76588e-13 -3.80577e-13 3.28678e-12)
(1.65646e-12 -2.25402e-12 1.66202e-11)
(-5.20785e-13 -2.70697e-13 -5.06102e-13)
(5.61114e-13 -9.53838e-13 3.37845e-12)
(-1.70284e-12 -2.51665e-13 -1.28869e-12)
(-8.78078e-13 -5.56e-13 1.73009e-12)
(8.21607e-12 -1.11797e-13 1.21681e-11)
(8.24468e-12 -1.36207e-14 1.21487e-11)
(-2.29921e-12 -2.12017e-14 -2.73181e-12)
(-2.32968e-12 -1.04768e-14 -2.83251e-12)
(-1.91257e-13 1.13041e-15 1.15498e-11)
(-1.23827e-12 6.30269e-14 -2.03748e-12)
(-1.27925e-12 1.65728e-15 -2.15865e-12)
(-2.29378e-12 3.76682e-14 -2.71903e-12)
(-2.32028e-12 1.29729e-14 -2.80886e-12)
(7.66162e-07 -2.59693e-07 1.26897e-06)
(6.54724e-10 7.88268e-10 1.0888e-10)
(6.50455e-07 -2.3799e-07 1.12112e-06)
(8.39934e-10 9.99905e-10 1.74382e-10)
(1.79711e-06 -4.84844e-07 -1.85294e-06)
(6.87719e-07 -1.02149e-07 -1.02979e-06)
(3.07734e-12 -3.79885e-12 1.3476e-12)
(1.17363e-10 -2.03124e-10 3.80979e-12)
(-2.34387e-10 -1.2439e-09 -1.44153e-10)
(3.57461e-07 -9.20315e-08 -2.95794e-07)
(1.13933e-08 1.00183e-08 -3.72065e-08)
(5.36595e-07 -6.62727e-08 -8.07235e-07)
(1.81471e-10 -8.30207e-10 -2.64977e-11)
(1.76479e-06 -4.83634e-07 -1.6608e-06)
(5.87631e-07 -1.69162e-07 -3.91361e-07)
(6.53546e-07 -1.02119e-07 -9.19272e-07)
(1.53969e-08 1.38762e-08 -4.37815e-08)
(5.70272e-07 -6.68943e-08 -9.05471e-07)
(1.52604e-10 -5.14698e-10 -1.65546e-11)
(3.6936e-11 4.13615e-11 -1.50459e-12)
(3.47013e-11 4.02126e-11 -2.38543e-12)
(2.76518e-10 1.12605e-09 -8.42289e-12)
(2.73752e-10 1.11916e-09 -6.70357e-12)
(3.74142e-10 3.78155e-10 -5.14948e-12)
(7.57217e-11 2.1709e-10 -5.72487e-12)
(2.35722e-10 8.54985e-10 -1.03317e-11)
(5.74866e-11 1.42613e-10 -4.65497e-12)
(2.39168e-10 8.6494e-10 -1.04458e-11)
(3.6443e-10 3.69704e-10 -5.87854e-12)
(5.90487e-11 1.44144e-10 -4.98383e-12)
(2.68826e-10 1.10689e-09 -9.60585e-12)
(2.72947e-10 1.12146e-09 -8.12887e-12)
(3.24196e-11 3.91486e-11 -1.96886e-12)
(3.43629e-11 3.98773e-11 -1.69235e-12)
(9.55405e-06 -2.77762e-06 4.91394e-06)
(9.15296e-06 -2.63996e-06 4.83078e-06)
(1.24857e-05 -4.57049e-06 -4.5913e-06)
(9.49936e-06 -3.36693e-06 -4.13074e-06)
(6.45586e-06 -2.1858e-06 -3.15078e-06)
(8.78928e-06 -3.00665e-06 -1.46305e-06)
(9.07954e-06 -3.18734e-06 -3.64215e-06)
(6.47784e-06 -2.20114e-06 -3.5111e-06)
(9.09741e-06 -3.20884e-06 -4.05878e-06)
(1.24723e-05 -4.54238e-06 -4.11967e-06)
(9.59675e-06 -3.31024e-06 -1.51648e-06)
(9.48206e-06 -3.34457e-06 -3.70669e-06)
(2.86573e-11 3.74795e-11 -1.00326e-12)
(2.72466e-11 3.70102e-11 -1.47919e-12)
(2.59345e-10 1.08078e-09 -7.36613e-12)
(2.56067e-10 1.07377e-09 -6.7172e-12)
(3.40249e-10 3.50477e-10 -3.9738e-12)
(6.87345e-11 2.05926e-10 -3.96291e-12)
(2.1932e-10 8.19953e-10 -7.2828e-12)
(4.7684e-11 1.33815e-10 -3.31714e-12)
(2.22876e-10 8.2654e-10 -8.29786e-12)
(3.32699e-10 3.45022e-10 -3.91172e-12)
(4.89568e-11 1.34825e-10 -3.21594e-12)
(2.5098e-10 1.06329e-09 -6.75823e-12)
(2.54869e-10 1.0716e-09 -6.8891e-12)
(2.55074e-11 3.64014e-11 -1.4593e-12)
(2.70051e-11 3.6863e-11 -9.20983e-13)
(2.50153e-05 -9.02558e-06 6.64582e-06)
(2.44776e-05 -8.78427e-06 6.61628e-06)
(2.88036e-05 -1.19183e-05 -5.81817e-06)
(2.49834e-05 -1.01035e-05 -5.66063e-06)
(2.07425e-05 -8.10855e-06 -4.85328e-06)
(2.41203e-05 -9.43127e-06 -2.07065e-06)
(2.44436e-05 -9.80656e-06 -5.05358e-06)
(2.07473e-05 -8.14906e-06 -5.40996e-06)
(2.44453e-05 -9.85148e-06 -5.63359e-06)
(2.88049e-05 -1.18689e-05 -5.21893e-06)
(2.51994e-05 -9.92681e-06 -2.09187e-06)
(2.49821e-05 -1.00579e-05 -5.0778e-06)
(2.03191e-11 3.48049e-11 -8.20517e-13)
(1.75714e-11 3.41665e-11 -9.64186e-13)
(2.34604e-10 1.03193e-09 -5.39456e-12)
(2.26273e-10 1.01668e-09 -2.12583e-12)
(2.9277e-10 3.20416e-10 2.57252e-12)
(5.64742e-11 1.92312e-10 -3.74479e-12)
(1.83295e-10 7.64707e-10 4.26641e-12)
(2.91731e-11 1.2179e-10 -1.49007e-12)
(1.93764e-10 7.79548e-10 -4.58079e-12)
(2.70487e-10 3.08593e-10 1.06201e-11)
(3.32254e-11 1.23871e-10 -2.57322e-12)
(2.11244e-10 9.91993e-10 9.04879e-12)
(2.22981e-10 1.01116e-09 -5.08949e-13)
(1.22827e-11 3.31993e-11 4.69323e-14)
(1.69371e-11 3.39637e-11 -2.77293e-13)
(4.28182e-05 -1.75144e-05 7.02652e-06)
(4.2257e-05 -1.72381e-05 7.0257e-06)
(4.67523e-05 -2.07552e-05 -6.01931e-06)
(4.27965e-05 -1.8791e-05 -6.03206e-06)
(3.83078e-05 -1.65071e-05 -5.38965e-06)
(4.19291e-05 -1.79871e-05 -2.23071e-06)
(4.22424e-05 -1.84547e-05 -5.40995e-06)
(3.83018e-05 -1.65634e-05 -6.00826e-06)
(4.22352e-05 -1.85125e-05 -6.03055e-06)
(4.6765e-05 -2.07013e-05 -5.41913e-06)
(4.30536e-05 -1.85426e-05 -2.23157e-06)
(4.28039e-05 -1.87332e-05 -5.41137e-06)
(-8.93607e-12 3.01998e-11 4.83353e-12)
(1.72001e-12 2.64349e-11 5.29201e-12)
(1.729e-10 9.17758e-10 1.3964e-10)
(2.05266e-10 8.15637e-10 2.39257e-10)
(2.6467e-10 2.66079e-10 1.1929e-10)
(4.1357e-11 7.06792e-11 3.42311e-11)
(2.20242e-10 5.62499e-10 2.36065e-10)
(8.93117e-12 4.2502e-11 7.5089e-12)
(2.39831e-10 7.49297e-10 2.72603e-10)
(1.32484e-11 2.50715e-11 5.20355e-12)
(1.61384e-11 5.23752e-12 6.17877e-12)
(1.1155e-11 -1.49694e-11 -1.09963e-12)
(2.96886e-11 1.15992e-11 9.99891e-12)
(1.21315e-10 2.73565e-11 2.35729e-11)
(2.7902e-11 4.49521e-11 4.73273e-11)
(2.38009e-11 1.00221e-11 4.23742e-11)
(6.0894e-11 8.66618e-10 8.99239e-12)
(1.93503e-11 2.81911e-11 2.30138e-11)
(1.0013e-10 3.91131e-10 6.57869e-11)
(1.45496e-10 2.00185e-10 6.93691e-11)
(2.36648e-10 9.37919e-10 3.77046e-11)
(2.70384e-10 1.40762e-10 3.41518e-11)
(1.77984e-10 7.94221e-10 1.08689e-10)
(2.06977e-10 4.59742e-10 4.09092e-11)
(2.26805e-10 1.28749e-10 3.78683e-11)
(2.0715e-10 1.20003e-09 2.0185e-11)
(1.4392e-10 9.99868e-10 7.43464e-11)
(3.14574e-11 -2.85229e-11 1.59188e-12)
(3.69325e-11 7.78543e-12 3.60962e-11)
(2.24947e-11 1.55811e-11 1.68875e-11)
(1.86112e-10 3.63633e-11 2.12504e-11)
(1.42464e-10 2.95441e-11 2.14671e-11)
(-5.16478e-12 1.67296e-11 2.71604e-11)
(1.4268e-09 -2.18912e-10 7.38674e-10)
(1.39303e-11 1.81209e-11 3.31561e-11)
(2.15017e-11 1.52008e-12 4.00373e-11)
(2.27819e-11 1.14521e-11 4.23898e-11)
(1.57462e-11 1.5305e-11 5.15834e-11)
(-3.00881e-12 -4.15011e-13 6.20069e-11)
(-3.56373e-12 1.09077e-11 5.59793e-11)
(8.46078e-12 1.49847e-11 5.93884e-11)
(3.63171e-11 1.03842e-11 3.91753e-11)
(4.27793e-11 4.91683e-11 4.32957e-11)
(2.27384e-11 2.21479e-11 5.11246e-11)
(2.5291e-10 4.39824e-10 1.89914e-11)
(1.73756e-10 2.37684e-10 5.69225e-12)
(2.42851e-10 9.41315e-10 2.66055e-11)
(2.66022e-10 1.53916e-10 1.97701e-11)
(1.90806e-10 4.81812e-10 3.80642e-11)
(2.63987e-10 9.72294e-10 9.68041e-12)
(2.73706e-10 1.51637e-10 5.04904e-12)
(1.9032e-10 4.09197e-11 -6.89614e-13)
(1.87602e-10 4.16993e-11 8.06655e-14)
(2.43794e-10 1.23739e-09 -8.11841e-12)
(2.5002e-10 1.27234e-09 3.86103e-12)
(2.19309e-10 1.1987e-09 1.6979e-11)
(2.46119e-10 1.25543e-09 1.06679e-11)
(1.8328e-10 4.14856e-11 1.63484e-11)
(1.86453e-10 4.27005e-11 1.59912e-12)
(-6.9595e-12 2.31055e-12 -2.93956e-12)
(-1.41101e-11 1.02042e-11 5.38851e-11)
(-1.781e-11 1.29426e-11 1.15143e-11)
(-3.81696e-12 7.5852e-12 -2.74694e-12)
(-1.06318e-11 1.54135e-11 8.20216e-12)
(-1.23004e-11 2.25443e-12 5.65668e-11)
(3.14815e-11 1.12092e-11 3.58182e-12)
(-1.35703e-11 1.25878e-11 1.78182e-11)
(-4.09035e-12 -3.59261e-12 3.13575e-11)
(-1.40814e-12 -3.97755e-12 4.0939e-11)
(5.46727e-12 5.09549e-12 2.007e-11)
(1.58516e-13 -1.28467e-12 4.4134e-12)
(3.83474e-12 2.10907e-13 1.30653e-11)
(-5.16959e-12 -7.92382e-12 3.5049e-11)
(2.98691e-12 4.50109e-12 1.29482e-11)
(4.20302e-11 2.50923e-12 1.12659e-12)
(4.07062e-10 4.13201e-10 6.80663e-12)
(8.31782e-11 2.28986e-10 4.82285e-12)
(2.46884e-10 8.6654e-10 2.31108e-11)
(8.34892e-11 1.59189e-10 7.06337e-12)
(4.38963e-10 4.41929e-10 1.82069e-11)
(2.52315e-10 9.05476e-10 9.36768e-12)
(7.36696e-11 1.57094e-10 1.26061e-13)
(3.71172e-11 4.16349e-11 -1.83795e-12)
(4.07963e-11 4.26499e-11 -6.99819e-13)
(2.79331e-10 1.14668e-09 -9.31767e-12)
(2.88829e-10 1.19386e-09 2.5622e-12)
(2.77593e-10 1.09598e-09 1.37437e-11)
(2.8802e-10 1.1738e-09 9.83127e-12)
(4.93946e-11 4.53336e-11 4.33398e-12)
(4.20306e-11 4.33127e-11 -6.16077e-13)
(-2.96567e-12 -4.15218e-12 5.93507e-11)
(4.46428e-12 -2.41572e-12 3.26941e-11)
(5.44366e-13 -3.25404e-12 4.73014e-11)
(-2.68816e-13 -3.35162e-12 3.00978e-11)
(-9.10313e-13 -1.2435e-12 4.15793e-11)
(9.73499e-13 -2.69119e-12 4.49035e-11)
(5.13064e-12 -1.28252e-12 3.20647e-11)
(-1.64596e-12 -1.06759e-12 4.46671e-11)
(9.5615e-14 -2.12455e-12 4.65555e-11)
(8.147e-12 -3.47669e-14 1.24842e-11)
(8.17497e-12 -1.29859e-13 1.25001e-11)
(-2.27878e-12 -4.97119e-13 2.45434e-11)
(-1.11325e-12 -9.37796e-13 4.11104e-11)
(-1.59753e-12 -6.15258e-13 4.00433e-11)
(-2.82575e-12 -3.33686e-13 4.27484e-11)
(5.37124e-12 -2.00798e-13 3.14459e-11)
(-2.60637e-12 -4.81648e-13 4.3342e-11)
(-1.91945e-12 -8.07805e-13 4.43255e-11)
(5.41099e-12 -2.03876e-13 3.15178e-11)
(-2.48152e-12 -5.29412e-13 4.35644e-11)
(-2.02561e-14 -2.94321e-13 1.23545e-11)
(-6.74344e-13 -2.22528e-13 -7.63807e-13)
(-1.03485e-12 -1.0494e-13 -1.5068e-12)
(-2.2766e-12 -4.73262e-14 -2.68475e-12)
(-2.17052e-12 -6.73588e-14 -2.36689e-12)
(-1.84421e-12 -1.83137e-13 -1.58979e-12)
(-2.11606e-12 -9.3768e-14 -2.24838e-12)
(-2.85231e-12 -2.89799e-13 4.25947e-11)
(5.46999e-12 -1.09554e-13 3.08272e-11)
(-2.85525e-12 -7.51879e-14 4.23506e-11)
(-2.5884e-12 1.36507e-14 2.30685e-11)
(-1.88965e-12 1.03179e-13 3.89326e-11)
(-1.98208e-12 4.69567e-15 3.86359e-11)
(5.55569e-12 -9.57348e-14 3.07721e-11)
(-2.72388e-12 9.84158e-14 4.26103e-11)
(-2.83768e-12 -2.58741e-14 4.23626e-11)
(9.03813e-12 1.36759e-12 1.18472e-11)
(9.02272e-12 6.93478e-13 1.18408e-11)
(-1.75478e-12 -2.02164e-12 2.50279e-11)
(-1.87105e-12 6.68786e-14 3.91571e-11)
(-2.70296e-12 -2.07434e-12 4.04284e-11)
(-2.98181e-11 -3.38613e-11 4.54858e-11)
(5.64428e-12 3.55863e-12 3.05431e-11)
(-5.69575e-12 -3.20401e-12 4.45314e-11)
(-2.71038e-12 6.14616e-14 4.27909e-11)
(6.06057e-12 1.30803e-12 3.05455e-11)
(-3.8805e-12 -1.27557e-12 4.39185e-11)
(5.84769e-13 -9.88358e-13 1.27669e-11)
(-1.17149e-12 6.43803e-14 -1.8867e-12)
(-7.64706e-13 8.00818e-14 -1.18792e-12)
(1.3587e-12 -2.08659e-12 4.47633e-13)
(-1.75221e-12 1.12538e-13 -1.62762e-12)
(-2.23518e-12 6.22507e-14 -2.58396e-12)
(-1.96223e-12 1.10747e-13 -2.00921e-12)
(1.57281e-06 -4.81748e-07 9.2073e-07)
(7.352e-07 -2.4996e-07 1.18133e-06)
(6.15233e-07 -2.23201e-07 5.43722e-07)
(-4.6882e-11 -6.37868e-11 4.38448e-11)
(8.8443e-10 1.34202e-09 1.80604e-11)
(3.01455e-10 -4.0757e-10 -2.28248e-10)
(8.04926e-11 -2.01567e-09 1.94476e-10)
(3.41983e-07 -1.07203e-07 -1.46612e-07)
(2.50283e-09 -4.55067e-09 2.87685e-08)
(3.56031e-07 -1.46275e-07 2.62814e-07)
(9.53555e-10 1.41466e-10 -1.07197e-10)
(1.54461e-06 -4.86299e-07 6.00331e-07)
(5.70346e-07 -1.82692e-07 -1.95752e-07)
(5.86279e-07 -2.1376e-07 3.51202e-07)
(6.19557e-07 -2.27242e-07 1.04083e-06)
(1.7522e-09 5.18958e-09 1.74488e-09)
(7.62588e-09 -6.18041e-09 4.40212e-08)
(3.82809e-07 -1.60396e-07 4.07661e-07)
(1.45956e-09 1.55787e-09 -4.87419e-11)
(7.64325e-07 -2.94163e-07 1.28941e-06)
(6.47766e-07 -2.73341e-07 1.14004e-06)
(1.5737e-06 -5.24039e-07 1.03587e-06)
(7.32409e-07 -2.98849e-07 1.21421e-06)
(6.04927e-07 -2.72406e-07 6.2109e-07)
(3.31353e-07 -9.29302e-08 -9.03471e-08)
(-7.41818e-10 -2.62563e-08 4.20491e-08)
(3.45787e-07 -1.82246e-07 3.32028e-07)
(1.54299e-06 -5.15603e-07 7.22897e-07)
(5.57343e-07 -1.68679e-07 -1.20065e-07)
(5.74679e-07 -2.47917e-07 4.32249e-07)
(6.15462e-07 -2.78125e-07 1.07169e-06)
(5.76191e-09 -3.77838e-08 6.00351e-08)
(3.73608e-07 -2.11449e-07 4.76964e-07)
(3.74072e-06 -9.62057e-07 3.23559e-06)
(4.01734e-06 -1.03805e-06 3.35018e-06)
(1.97622e-06 -5.93344e-07 1.03783e-06)
(3.71296e-06 -9.67527e-07 3.03737e-06)
(3.4239e-06 -1.01212e-06 1.36469e-06)
(3.94342e-06 -1.26933e-06 -5.05303e-07)
(5.84063e-06 -1.8129e-06 1.1472e-06)
(3.95753e-06 -1.20728e-06 9.61893e-07)
(1.94884e-06 -6.0259e-07 6.78081e-07)
(3.3842e-06 -1.08473e-06 -4.71101e-07)
(3.39907e-06 -1.03468e-06 8.94943e-07)
(3.98978e-06 -1.04443e-06 3.14516e-06)
(5.86224e-06 -1.77443e-06 1.74645e-06)
(3.98154e-06 -1.18055e-06 1.46581e-06)
(3.75449e-06 -9.8944e-07 3.29389e-06)
(4.03205e-06 -1.06496e-06 3.41137e-06)
(1.98228e-06 -6.34254e-07 1.16744e-06)
(3.73259e-06 -1.00622e-06 3.12462e-06)
(3.44558e-06 -1.0491e-06 1.5402e-06)
(3.95648e-06 -1.25985e-06 -3.13628e-07)
(5.87896e-06 -1.835e-06 1.39693e-06)
(3.9814e-06 -1.232e-06 1.1626e-06)
(1.95218e-06 -6.30931e-07 8.15648e-07)
(3.39302e-06 -1.07493e-06 -2.93769e-07)
(3.41789e-06 -1.06028e-06 1.07954e-06)
(4.01079e-06 -1.08246e-06 3.23666e-06)
(5.90315e-06 -1.80637e-06 1.98576e-06)
(4.00823e-06 -1.21625e-06 1.65709e-06)
(1.79307e-06 -4.40075e-07 -1.76108e-06)
(6.81549e-07 -5.21347e-08 -9.80387e-07)
(3.45268e-07 -6.63715e-08 -2.34811e-07)
(1.42926e-08 2.68123e-08 -4.19699e-08)
(5.31265e-07 -3.06452e-08 -7.73827e-07)
(1.76075e-06 -4.52777e-07 -1.58875e-06)
(5.71904e-07 -1.42802e-07 -3.08133e-07)
(6.47732e-07 -6.732e-08 -8.80094e-07)
(1.90581e-08 3.47598e-08 -4.71578e-08)
(5.64537e-07 -1.57496e-08 -8.63366e-07)
(1.997e-06 -5.56393e-07 -1.96366e-06)
(3.67289e-06 -1.16216e-06 -2.692e-06)
(3.95593e-06 -1.28416e-06 -1.02944e-06)
(6.11063e-06 -2.05696e-06 -3.07488e-06)
(3.92325e-06 -1.25512e-06 -2.50293e-06)
(1.96526e-06 -5.54579e-07 -1.76046e-06)
(3.39741e-06 -1.0955e-06 -9.58707e-07)
(3.64543e-06 -1.15489e-06 -2.41536e-06)
(6.13322e-06 -2.0714e-06 -3.42652e-06)
(3.95009e-06 -1.26328e-06 -2.78948e-06)
(1.99375e-06 -5.12278e-07 -1.86653e-06)
(3.67696e-06 -1.12259e-06 -2.56006e-06)
(3.96709e-06 -1.26506e-06 -8.17101e-07)
(6.12129e-06 -2.03335e-06 -2.94115e-06)
(3.92689e-06 -1.22836e-06 -2.39568e-06)
(1.96188e-06 -5.24189e-07 -1.68432e-06)