/*--------------------------------*- C++ -*----------------------------------*\
| =========                 |                                                 |
| \\      /  F ield         | OpenFOAM: The Open Source CFD Toolbox           |
|  \\    /   O peration     | Version:  2012                                  |
|   \\  /    A nd           | Website:  www.openfoam.com                      |
|    \\/     M anipulation  |                                                 |
\*---------------------------------------------------------------------------*/
FoamFile
{
    version     2.0;
    format      ascii;
    class       volSymmTensorField;
    location    "0.107/solid";
    object      epsilon;
}
// * * * * * * * * * * * * * * * * * * * * * * * * * * * * * * * * * * * * * //

dimensions      [0 0 0 0 0 0 0];


internalField   nonuniform List<symmTensor> 
24998
(
(-1.9752e-11 8.10094e-10 1.38685e-09 4.33972e-09 4.78061e-09 3.9674e-09)
(-5.5556e-11 -5.79511e-11 2.97133e-11 -3.10786e-11 -7.12229e-11 -4.71773e-10)
(2.13755e-10 -8.68326e-11 9.87889e-10 1.04244e-11 -1.82811e-10 7.68586e-09)
(2.18335e-10 1.74445e-12 3.39319e-10 2.59507e-12 -3.01123e-11 4.44417e-09)
(6.43393e-10 1.28182e-09 2.00103e-09 -4.85642e-09 -8.89499e-09 6.95254e-09)
(-2.03442e-09 2.38471e-09 6.99134e-12 2.49917e-08 -3.86519e-10 1.34609e-11)
(-2.32012e-09 2.15675e-09 -1.31398e-11 2.35789e-08 -1.9277e-10 4.77266e-12)
(-2.44978e-09 1.75444e-09 -3.93851e-11 2.23571e-08 -1.9693e-10 6.99687e-12)
(-2.99348e-09 1.2917e-09 -3.41553e-10 1.98109e-08 1.58324e-09 8.90796e-10)
(-8.84117e-10 1.33236e-09 2.00088e-09 4.54275e-09 4.70032e-09 3.65719e-09)
(3.70174e-10 -7.46892e-11 4.39698e-10 -1.07246e-10 3.19032e-11 7.69488e-09)
(-4.98474e-09 6.64002e-09 -7.69743e-11 2.83468e-08 -3.53111e-10 -9.97038e-11)
(3.44044e-11 -4.20326e-11 -1.46981e-11 -1.21979e-11 -1.68428e-10 -7.37711e-10)
(1.75407e-10 -1.16774e-10 1.17448e-09 -1.57108e-12 -1.5402e-10 7.903e-09)
(-2.06526e-09 2.37591e-09 9.30757e-12 2.56383e-08 -4.1491e-10 -9.15693e-11)
(3.46429e-10 -1.90654e-11 5.26375e-10 -4.93622e-11 6.58955e-12 7.76739e-09)
(2.43131e-10 3.71237e-12 1.8338e-10 3.4339e-12 -7.14613e-12 4.85347e-09)
(2.19946e-10 3.6378e-12 3.42041e-10 4.01446e-12 -8.86855e-12 4.46292e-09)
(2.42201e-10 1.96463e-12 1.79413e-10 3.75159e-12 -1.09815e-11 4.81862e-09)
(8.07664e-10 1.27715e-09 8.47515e-10 -4.62945e-09 -3.35409e-09 8.20461e-09)
(5.55764e-10 9.96353e-10 1.5982e-09 -3.20974e-09 -5.89698e-09 6.60743e-09)
(1.1541e-09 2.49537e-09 1.43019e-09 -9.28539e-09 -6.90503e-09 1.12124e-08)
(-4.95615e-09 6.55715e-09 -6.16778e-11 2.77876e-08 -3.64422e-10 -2.20318e-11)
(-5.1614e-09 6.51329e-09 -3.10083e-11 2.64116e-08 -2.08302e-10 2.07267e-12)
(-2.30618e-09 2.18848e-09 -1.27991e-11 2.37225e-08 -2.03343e-10 5.65564e-12)
(-5.16192e-09 6.47877e-09 -3.00522e-11 2.62611e-08 -2.00377e-10 3.44873e-13)
(-5.17476e-09 6.14377e-09 -5.29639e-11 2.52056e-08 -2.13126e-10 -8.8822e-12)
(-2.428e-09 1.82888e-09 -3.27418e-11 2.25631e-08 -1.99289e-10 -5.07121e-12)
(-5.17723e-09 6.06755e-09 -6.11408e-11 2.49925e-08 -2.1238e-10 4.24974e-12)
(-5.42497e-09 5.56645e-09 -2.72052e-10 2.23988e-08 1.33739e-09 1.00611e-09)
(-2.96923e-09 1.06681e-09 -2.69005e-10 2.04066e-08 1.07155e-09 6.57835e-10)
(-5.37238e-09 5.74025e-09 -5.10965e-10 2.1227e-08 2.15983e-09 1.6015e-09)
(3.08592e-10 1.11002e-10 -6.33383e-11 -5.05361e-10 -1.59482e-10 -2.24632e-11)
(-2.22996e-08 7.04755e-09 3.61066e-08 7.41806e-09 -6.18388e-09 8.98711e-09)
(-5.24111e-10 -7.62521e-11 -2.64073e-11 1.18692e-09 2.66581e-09 4.9216e-09)
(2.71408e-10 -4.62079e-10 9.1776e-10 -3.36652e-09 2.92199e-09 1.44535e-08)
(-6.68848e-10 2.65138e-09 -1.7831e-10 2.50875e-08 1.0686e-09 -1.15008e-09)
(4.88534e-10 3.43916e-10 -1.35526e-10 2.95313e-10 -1.01592e-09 7.90201e-09)
(4.15918e-10 1.16414e-10 -3.04321e-10 -4.1134e-11 -4.79313e-10 7.87004e-09)
(2.28682e-10 -3.78323e-11 6.14588e-10 6.09934e-12 -2.9276e-11 5.08173e-09)
(2.1401e-10 6.50348e-12 4.32776e-10 1.52978e-11 -6.3942e-11 5.0788e-09)
(2.2136e-10 2.32979e-11 5.91596e-10 1.24599e-12 -1.97973e-12 4.98474e-09)
(2.0851e-10 -2.39075e-11 6.66015e-10 2.63407e-12 -1.77468e-11 4.87001e-09)
(2.16479e-10 2.0362e-12 3.55143e-10 -3.12139e-12 2.3194e-11 4.48353e-09)
(-9.70728e-06 -1.44455e-07 7.94121e-08 -9.97359e-06 5.26517e-08 3.30241e-05)
(-1.40033e-09 2.11933e-09 2.81941e-09 4.89391e-09 9.0936e-09 4.22383e-09)
(-2.95122e-07 3.69462e-06 1.00591e-05 -6.06414e-06 3.60245e-06 2.26229e-05)
(4.39348e-07 1.66121e-07 1.32339e-06 2.63161e-06 4.24807e-07 -8.88434e-06)
(3.15547e-06 -1.36089e-07 3.60588e-06 3.40008e-06 1.53228e-07 -1.05972e-05)
(-2.21457e-09 2.30467e-09 -7.10873e-12 2.43662e-08 -2.8688e-10 1.68634e-11)
(-5.11054e-06 -1.0463e-07 1.19879e-07 -5.28272e-06 -7.30192e-08 1.74019e-05)
(-7.19037e-06 -1.27458e-07 1.10839e-07 -7.41097e-06 -3.27258e-08 2.44863e-05)
(2.26282e-06 -1.26697e-07 3.44988e-06 2.51701e-06 1.90831e-07 -7.76271e-06)
(1.6711e-06 -9.52341e-08 3.24216e-06 1.91564e-06 1.74201e-07 -5.82057e-06)
(-2.3643e-09 2.04315e-09 -1.82946e-11 2.31981e-08 -1.83276e-10 -9.84355e-12)
(-1.5063e-06 -3.93932e-08 1.00083e-07 -1.56344e-06 -1.02541e-07 5.05355e-06)
(-3.00865e-06 -7.18397e-08 1.18189e-07 -3.12036e-06 -1.02076e-07 1.02158e-05)
(9.73533e-07 -5.57145e-08 2.73466e-06 1.17308e-06 1.31413e-07 -3.47533e-06)
(5.10452e-07 -2.9793e-08 2.13326e-06 6.59027e-07 9.11638e-08 -1.88954e-06)
(-2.57032e-09 1.44527e-09 -8.81656e-11 2.15822e-08 -6.75036e-11 1.22514e-10)
(-1.69899e-08 1.35932e-09 -6.50648e-09 -3.35324e-08 1.0723e-09 3.07611e-08)
(-3.63696e-07 -8.13574e-09 5.61352e-08 -3.71478e-07 -6.40897e-08 1.10834e-06)
(9.99272e-08 -6.24973e-09 1.09928e-06 1.7935e-07 4.18777e-08 -4.44901e-07)
(-8.91098e-08 -1.22223e-08 5.32455e-08 5.00571e-08 -9.90322e-10 1.81851e-08)
(5.27402e-10 4.70611e-10 3.1221e-10 -4.17248e-10 -3.58926e-10 -5.91873e-10)
(1.49711e-10 4.39998e-11 7.82938e-10 -3.36627e-09 3.04116e-09 1.44567e-08)
(-3.83673e-09 5.35268e-09 3.20617e-10 2.79168e-08 1.33948e-09 -1.07174e-09)
(-1.31206e-08 3.41827e-09 2.03164e-08 3.71792e-09 -2.17869e-09 1.15393e-08)
(5.27933e-10 1.38493e-10 -6.30644e-10 -2.29331e-11 -4.81638e-10 8.43768e-09)
(-2.54944e-08 -1.24902e-09 3.74723e-08 8.55006e-09 1.8972e-09 1.51487e-08)
(-1.83031e-11 9.01425e-13 6.85753e-10 2.05686e-10 1.11991e-09 1.29546e-08)
(9.85459e-10 2.53915e-10 -1.55749e-09 -2.51613e-10 -6.06342e-11 1.00452e-08)
(-1.44338e-08 -5.80445e-10 2.11016e-08 4.33733e-09 8.96184e-10 1.41618e-08)
(-4.0873e-09 5.75655e-09 4.90925e-11 2.85753e-08 5.17527e-10 -7.56011e-10)
(-3.55108e-10 -4.43396e-10 -5.78221e-10 9.84971e-10 2.26014e-09 4.21314e-09)
(6.02832e-10 5.38475e-10 5.65515e-10 2.22909e-10 -5.67707e-10 7.38912e-09)
(3.10162e-11 -1.93646e-10 5.10696e-10 3.14094e-10 1.15294e-09 1.27436e-08)
(6.72036e-10 2.34656e-10 3.26667e-10 2.73005e-10 -4.28524e-10 5.90018e-09)
(7.94766e-10 4.01915e-10 1.08622e-09 9.49404e-11 -2.427e-10 6.0574e-09)
(-1.11741e-09 2.5449e-09 -1.48375e-10 2.56183e-08 3.74769e-10 -6.14961e-10)
(7.37811e-10 1.2314e-10 -1.22125e-09 -8.60454e-11 -1.96735e-10 9.11784e-09)
(2.49579e-10 8.58905e-12 2.50479e-10 2.27935e-11 -3.03777e-11 5.42599e-09)
(3.67666e-10 -1.87805e-11 -6.15455e-10 7.70664e-12 -1.32786e-11 6.59566e-09)
(2.23149e-10 -3.14166e-11 5.91573e-10 1.96384e-12 -2.07723e-11 4.99376e-09)
(2.28221e-10 1.83909e-11 6.10952e-10 4.32105e-12 -8.20787e-12 5.07586e-09)
(2.48664e-10 7.34865e-12 2.39071e-10 1.22823e-11 -2.99293e-11 5.34636e-09)
(3.49626e-10 -4.91329e-12 -6.17911e-10 -1.00255e-12 -9.05503e-12 6.50631e-09)
(3.6589e-10 -1.69406e-11 -6.1658e-10 3.89109e-12 -3.7616e-12 6.58877e-09)
(2.11916e-10 5.33654e-12 4.21565e-10 7.83575e-12 -7.95276e-11 5.02329e-09)
(3.47137e-10 -4.68646e-12 -6.1477e-10 -1.02942e-12 -3.21824e-12 6.48466e-09)
(2.42911e-10 5.47508e-12 1.86641e-10 -7.64959e-12 5.1806e-12 4.84875e-09)
(3.27674e-10 4.78543e-12 -5.84136e-10 -2.33235e-12 -8.35103e-12 6.4115e-09)
(-9.1896e-10 1.10176e-09 1.82374e-09 3.65267e-09 6.0194e-09 4.39499e-09)
(2.06696e-10 3.09306e-11 6.72267e-10 2.50519e-12 1.6029e-12 4.86335e-09)
(2.45597e-10 8.99377e-12 1.95252e-10 -2.15528e-11 -7.97682e-12 4.90638e-09)
(-1.70963e-09 1.90727e-10 -7.17759e-10 5.03108e-09 2.79101e-09 5.00147e-09)
(3.22085e-10 1.47658e-12 -5.79858e-10 -3.88203e-13 -2.52725e-12 6.4043e-09)
(2.18661e-10 2.09661e-12 3.60233e-10 -3.43774e-12 -2.92371e-12 4.50945e-09)
(-9.70468e-06 4.64936e-08 3.5187e-07 -9.3848e-06 6.13172e-08 3.16719e-05)
(-3.9183e-09 1.66653e-09 2.19952e-10 1.15604e-08 6.52101e-09 2.99769e-09)
(2.24423e-07 1.41606e-07 4.86364e-07 9.07114e-07 1.04491e-06 -4.9607e-06)
(1.44518e-06 1.07733e-07 3.68144e-06 1.58588e-06 5.61963e-08 -4.98562e-06)
(-1.93513e-06 3.54253e-06 5.74875e-06 -6.44477e-06 1.64505e-06 1.44886e-05)
(-9.95575e-06 -7.28228e-09 2.09645e-07 -1.00242e-05 2.59013e-07 3.3494e-05)
(-7.21536e-06 3.46639e-06 8.33277e-06 -6.75429e-06 1.25663e-06 3.30957e-05)
(-9.88345e-06 6.0616e-09 4.92056e-07 -9.71996e-06 2.57829e-07 3.24813e-05)
(5.01319e-07 4.20513e-07 -1.38177e-07 2.17697e-07 6.73382e-07 -2.59076e-06)
(1.25115e-06 3.42879e-08 3.79719e-06 7.79936e-07 -2.30805e-07 -3.34015e-06)
(-6.47991e-06 1.87403e-06 6.02742e-06 -7.61434e-06 -2.4081e-06 3.66666e-05)
(-9.55413e-06 -1.44217e-07 8.4839e-08 -9.8198e-06 4.33785e-08 3.25099e-05)
(-7.33427e-06 -1.28745e-07 1.09308e-07 -7.55772e-06 -2.98584e-08 2.49751e-05)
(-9.55286e-06 4.53762e-08 3.54794e-07 -9.23596e-06 5.03403e-08 3.11709e-05)
(1.042e-06 4.45881e-08 3.49176e-06 1.23574e-06 9.86713e-08 -3.78458e-06)
(1.38987e-06 8.91122e-08 3.64952e-06 1.52615e-06 7.10001e-08 -4.80171e-06)
(-7.33919e-06 3.70448e-08 3.69495e-07 -7.07483e-06 -2.61264e-08 2.39039e-05)
(-9.80508e-06 -9.11968e-09 2.07224e-07 -9.87166e-06 2.49091e-07 3.29845e-05)
(-7.58066e-06 -2.38655e-08 1.69367e-07 -7.61172e-06 1.67856e-07 2.54436e-05)
(-9.73369e-06 5.32213e-09 4.88212e-07 -9.57435e-06 2.46901e-07 3.19893e-05)
(7.20286e-07 -1.88996e-10 3.66551e-06 5.5602e-07 -1.77504e-07 -2.23219e-06)
(1.16129e-06 2.05772e-08 3.80265e-06 7.52582e-07 -2.14641e-07 -3.17744e-06)
(-7.51989e-06 3.64092e-09 4.36909e-07 -7.40843e-06 1.62283e-07 2.47134e-05)
(8.87065e-07 5.22789e-07 1.24498e-07 1.50578e-06 1.30545e-06 -7.83852e-06)
(3.00285e-06 1.48999e-07 3.72792e-06 2.3435e-06 -3.03638e-07 -8.6154e-06)
(2.35241e-06 -1.30656e-07 3.46836e-06 2.60426e-06 1.91359e-07 -8.04836e-06)
(3.0569e-06 -1.39393e-07 3.58304e-06 3.27455e-06 1.66419e-07 -1.02342e-05)
(2.04238e-06 1.00392e-07 3.68453e-06 1.75075e-06 -2.54549e-07 -6.23425e-06)
(2.86382e-06 1.37506e-07 3.75302e-06 2.27206e-06 -2.89181e-07 -8.29696e-06)
(-5.11905e-09 6.60972e-09 -3.56568e-11 2.70879e-08 -2.83346e-10 1.39028e-11)
(-5.11925e-09 6.57734e-09 -3.14808e-11 2.68603e-08 -2.63045e-10 1.70751e-11)
(-2.23117e-09 2.28211e-09 -7.32987e-12 2.41396e-08 -2.58986e-10 2.56264e-11)
(-5.12161e-06 3.16006e-08 3.62039e-07 -4.91591e-06 -7.08917e-08 1.66268e-05)
(1.00153e-06 4.25729e-08 3.47137e-06 1.19882e-06 9.8524e-08 -3.65754e-06)
(-7.19596e-06 3.66705e-08 3.6953e-07 -6.93519e-06 -2.91848e-08 2.34335e-05)
(7.41567e-07 3.30836e-08 3.26014e-06 9.38486e-07 8.54648e-08 -2.79046e-06)
(-5.32938e-06 -3.13737e-08 1.37946e-07 -5.33098e-06 1.10045e-07 1.78187e-05)
(-7.43562e-06 -2.455e-08 1.67873e-07 -7.46474e-06 1.63889e-07 2.49527e-05)
(-5.28224e-06 3.98281e-09 3.84521e-07 -5.21267e-06 1.03436e-07 1.7347e-05)
(6.78123e-07 4.17301e-11 3.63807e-06 5.27362e-07 -1.7587e-07 -2.11814e-06)
(-7.37579e-06 3.65393e-09 4.33819e-07 -7.26727e-06 1.58348e-07 2.42394e-05)
(4.37477e-07 3.10317e-09 3.37742e-06 3.38008e-07 -1.70765e-07 -1.39787e-06)
(-4.97787e-06 -1.02902e-07 1.2054e-07 -5.14684e-06 -7.51624e-08 1.69499e-05)
(-3.12217e-06 -7.38768e-08 1.18612e-07 -3.23741e-06 -1.0114e-07 1.06045e-05)
(-4.9894e-06 3.12104e-08 3.60754e-07 -4.78751e-06 -7.32265e-08 1.6193e-05)
(4.59624e-07 2.29168e-08 2.82512e-06 6.35254e-07 5.56403e-08 -1.81634e-06)
(7.05698e-07 3.19233e-08 3.21787e-06 9.00769e-07 8.23201e-08 -2.6675e-06)
(-3.13563e-06 2.53601e-08 3.28393e-07 -2.99093e-06 -1.01075e-07 1.01173e-05)
(-5.1941e-06 -3.14963e-08 1.36321e-07 -5.19462e-06 1.06458e-07 1.7362e-05)
(-3.28892e-06 -2.95586e-08 1.0378e-07 -3.27444e-06 5.69165e-08 1.09225e-05)
(-5.14822e-06 3.92782e-09 3.80787e-07 -5.0809e-06 9.98794e-08 1.69052e-05)
(2.22709e-07 4.78455e-09 2.90172e-06 1.72889e-07 -1.65431e-07 -7.4112e-07)
(4.07789e-07 3.52288e-09 3.32915e-06 3.13784e-07 -1.70439e-07 -1.30545e-06)
(-3.25795e-06 2.2511e-09 3.16047e-07 -3.2176e-06 4.93201e-08 1.0667e-05)
(1.94945e-06 9.62386e-08 3.65925e-06 1.67476e-06 -2.52492e-07 -5.96429e-06)
(1.37084e-06 6.77826e-08 3.40152e-06 1.1638e-06 -2.40357e-07 -4.19289e-06)
(1.0465e-06 -5.9819e-08 2.80562e-06 1.25244e-06 1.36914e-07 -3.72299e-06)
(1.5899e-06 -9.05961e-08 3.1998e-06 1.83087e-06 1.7039e-07 -5.54988e-06)
(8.10916e-07 3.87239e-08 2.92569e-06 6.73382e-07 -2.20639e-07 -2.46516e-06)
(1.29532e-06 6.39412e-08 3.35319e-06 1.09594e-06 -2.38518e-07 -3.95765e-06)
(-5.17161e-09 6.36696e-09 -3.51487e-11 2.58634e-08 -1.91902e-10 -1.36465e-11)
(-5.17146e-09 6.32013e-09 -3.8268e-11 2.57159e-08 -1.97715e-10 -1.49455e-11)
(-2.37787e-09 1.99903e-09 -2.03065e-11 2.30562e-08 -1.87238e-10 -1.09958e-11)
(-1.5183e-06 1.8409e-08 2.59913e-07 -1.4322e-06 -1.03912e-07 4.82449e-06)
(4.25597e-07 2.15125e-08 2.75442e-06 5.9769e-07 5.15345e-08 -1.69784e-06)
(-3.02224e-06 2.49134e-08 3.25118e-07 -2.88138e-06 -1.02164e-07 9.74592e-06)
(2.04054e-07 1.11121e-08 2.1529e-06 3.4758e-07 2.50585e-08 -9.20461e-07)
(-1.60149e-06 -1.91488e-08 6.85631e-08 -1.58502e-06 1.76336e-08 5.23552e-06)
(-3.17124e-06 -2.90916e-08 1.01687e-07 -3.15652e-06 5.38438e-08 1.05262e-05)
(-1.58809e-06 -1.79715e-09 2.29758e-07 -1.5624e-06 1.02855e-08 5.13917e-06)
(1.99674e-07 4.75318e-09 2.82718e-06 1.57139e-07 -1.63937e-07 -6.73233e-07)
(-3.14159e-06 2.05388e-09 3.1099e-07 -3.10259e-06 4.63123e-08 1.02823e-05)
(6.45763e-08 2.67696e-09 2.20368e-06 7.64668e-08 -1.43114e-07 -2.90687e-07)
(-1.42095e-06 -3.71491e-08 9.82983e-08 -1.4746e-06 -1.01422e-07 4.75957e-06)
(-4.10951e-07 -9.45982e-09 5.95759e-08 -4.20816e-07 -6.76426e-08 1.27172e-06)
(-1.43278e-06 1.80049e-08 2.54229e-07 -1.35009e-06 -1.02848e-07 4.54485e-06)
(2.00447e-08 6.68325e-10 1.23751e-06 1.24701e-07 6.83714e-09 -2.49581e-07)
(1.75864e-07 9.64424e-09 2.05153e-06 3.14896e-07 2.19259e-08 -8.20404e-07)
(-4.19781e-07 1.27793e-08 1.4917e-07 -3.79371e-07 -6.8965e-08 1.2341e-06)
(-1.51127e-06 -1.82308e-08 6.6385e-08 -1.49531e-06 1.58303e-08 4.93271e-06)
(-4.38958e-07 -6.58335e-09 3.38514e-08 -4.28083e-07 -4.59495e-10 1.32594e-06)
(-1.49921e-06 -2.07483e-09 2.23605e-07 -1.474e-06 8.6625e-09 4.84425e-06)
(-2.60472e-08 -1.76297e-09 1.26573e-06 3.54241e-08 -8.982e-08 -4.50254e-08)
(4.92445e-08 2.23206e-09 2.09954e-06 6.87894e-08 -1.3832e-07 -2.49064e-07)
(-4.40435e-07 -6.46089e-09 1.24093e-07 -4.19068e-07 -5.36729e-09 1.32833e-06)
(7.48815e-07 3.55281e-08 2.85121e-06 6.21358e-07 -2.17051e-07 -2.27666e-06)
(3.72012e-07 1.52661e-08 2.22639e-06 3.20391e-07 -1.80704e-07 -1.154e-06)
(1.32464e-07 -8.08133e-09 1.22688e-06 2.1839e-07 4.68052e-08 -5.61071e-07)
(4.52778e-07 -2.65494e-08 2.03226e-06 5.93539e-07 8.53828e-08 -1.68994e-06)
(8.86226e-08 -1.56325e-09 1.28404e-06 1.09515e-07 -1.09645e-07 -3.264e-07)
(3.2747e-07 1.28213e-08 2.12188e-06 2.86448e-07 -1.73655e-07 -1.0232e-06)
(-5.21946e-09 5.78223e-09 -9.04786e-11 2.41678e-08 -7.57938e-11 1.37496e-10)
(-5.26098e-09 5.68022e-09 -1.03949e-10 2.38273e-08 7.38098e-11 2.47181e-10)
(-2.65043e-09 1.31176e-09 -1.1776e-10 2.12878e-08 6.78725e-11 2.10891e-10)
(-5.1196e-08 8.72461e-09 1.14121e-09 -1.63895e-08 7.80333e-10 3.53142e-08)
(5.00439e-09 -2.56044e-10 1.10781e-06 1.04858e-07 5.9229e-09 -1.91822e-07)
(-3.72334e-07 1.25087e-08 1.40332e-07 -3.34116e-07 -6.53276e-08 1.07929e-06)
(-1.17382e-07 -1.16277e-08 5.38163e-08 5.72758e-08 -1.78169e-09 2.78333e-08)
(-1.65061e-08 -4.00437e-09 -7.38575e-09 -3.41269e-08 -2.537e-09 3.06168e-08)
(-3.88344e-07 -5.80004e-09 3.1461e-08 -3.78084e-07 -9.72275e-10 1.15636e-06)
(-5.04472e-08 -8.00194e-09 1.77627e-10 -1.61214e-08 -3.77564e-09 3.5419e-08)
(-3.2069e-08 -2.26267e-09 1.13301e-06 3.31585e-08 -8.06539e-08 -2.82816e-08)
(-3.90647e-07 -6.68607e-09 1.16227e-07 -3.69367e-07 -5.5315e-09 1.16277e-06)
(-1.17808e-07 -7.72177e-09 5.48557e-08 5.50182e-08 -4.1307e-09 2.83309e-08)
(6.52677e-08 -3.07707e-09 1.15071e-06 9.27469e-08 -9.83179e-08 -2.5878e-07)
(-8.91524e-08 -8.25917e-09 5.46767e-08 4.75124e-08 -4.53598e-09 1.84427e-08)
(-1.22606e-09 2.0805e-10 6.08127e-10 2.03817e-09 1.46646e-09 1.50305e-09)
(-7.79045e-09 -2.13855e-09 5.06756e-09 -4.55429e-09 2.52134e-09 1.45057e-08)
(-3.11899e-09 -5.47513e-09 -3.35465e-09 5.57181e-09 7.62411e-09 5.04188e-09)
(1.11337e-08 1.37919e-09 9.16377e-11 1.32195e-08 -9.22561e-10 1.73097e-09)
(-3.65522e-10 5.07177e-10 1.65072e-09 3.77202e-09 4.29592e-09 3.79288e-09)
(-2.93023e-10 -6.16847e-10 1.88721e-09 -4.46052e-10 7.99913e-09 1.16095e-08)
(4.8188e-10 2.29805e-09 1.07691e-09 1.43264e-08 4.89433e-09 -2.53173e-10)
(6.32624e-09 -1.26505e-09 1.14219e-09 1.73021e-08 6.60944e-09 -2.60573e-09)
(7.39601e-10 9.3462e-11 3.54409e-09 1.11279e-09 5.07341e-09 4.66732e-09)
(1.47077e-09 3.33232e-09 1.29626e-09 1.23683e-08 3.95644e-09 -9.98849e-10)
(1.50342e-10 -3.79158e-11 4.42558e-10 3.63387e-11 -1.36998e-10 1.43006e-09)
(2.40136e-10 5.49467e-11 6.50335e-10 -1.82646e-11 -2.70376e-10 6.68715e-09)
(1.77572e-10 -2.21173e-13 3.91633e-10 -1.75855e-11 -1.06145e-10 1.04343e-09)
(2.06216e-10 5.0124e-14 1.54035e-11 1.36739e-12 -6.20951e-12 -1.52027e-09)
(2.18253e-10 1.60202e-12 3.33621e-10 3.26211e-12 1.2186e-11 4.38454e-09)
(2.05862e-10 -2.23378e-13 8.5485e-12 1.21114e-12 2.23654e-12 -1.56022e-09)
(-2.06236e-10 7.74519e-10 1.15972e-09 -8.22956e-10 -9.51771e-10 3.73023e-10)
(9.94368e-09 -8.74434e-10 7.97713e-09 -7.01477e-08 -1.42968e-07 3.55942e-08)
(-4.48619e-09 1.80742e-08 1.76388e-08 -5.35167e-08 -4.43114e-08 1.26138e-08)
(6.73644e-09 -6.73158e-11 -1.65752e-11 8.26189e-09 -6.23485e-11 -1.60625e-11)
(2.72058e-09 2.91429e-09 5.78492e-11 1.56204e-08 -2.94764e-10 -1.2134e-11)
(3.1253e-10 -3.82761e-09 -2.90349e-11 2.72215e-08 -5.10924e-10 1.01812e-10)
(-2.08162e-09 2.36949e-09 -7.26135e-12 2.46961e-08 -2.97037e-10 2.73443e-11)
(7.30358e-09 1.1644e-10 6.58439e-11 8.78255e-09 -4.09296e-11 -4.50314e-11)
(6.39681e-11 -3.70483e-09 1.06445e-11 2.71603e-08 8.4808e-11 -5.22766e-12)
(2.64029e-09 2.84174e-09 -1.76347e-11 1.53463e-08 -2.76345e-10 2.16982e-11)
(5.95803e-09 -8.61307e-11 -3.44988e-12 7.44514e-09 -2.00921e-11 4.7718e-12)
(2.25143e-09 2.36219e-09 1.52429e-12 1.43546e-08 -1.51055e-10 9.89043e-12)
(-4.92492e-10 -3.65947e-09 -2.34924e-11 2.62546e-08 -1.1956e-10 2.76233e-11)
(-2.3358e-09 2.1222e-09 -1.48314e-11 2.3452e-08 -1.81982e-10 8.13828e-14)
(6.14168e-09 -2.60269e-11 8.57521e-12 7.62717e-09 -1.22678e-11 2.20431e-11)
(-5.62937e-10 -3.65378e-09 -3.63382e-11 2.60975e-08 -8.92136e-11 7.71995e-12)
(2.21185e-09 2.30543e-09 -3.60131e-12 1.42528e-08 -1.42348e-10 6.948e-12)
(5.14146e-09 -1.80674e-10 -9.20162e-11 6.58805e-09 6.18297e-11 1.45676e-10)
(1.87158e-09 1.76879e-09 -2.07021e-11 1.34144e-08 -1.293e-10 1.87164e-11)
(-8.86884e-10 -3.69454e-09 -7.71625e-11 2.51066e-08 -1.21192e-10 4.24105e-11)
(-2.47707e-09 1.66749e-09 -4.92563e-11 2.21243e-08 -1.80945e-10 2.81857e-11)
(5.46542e-09 -7.71714e-11 -4.47858e-11 6.91922e-09 3.35635e-11 7.09452e-11)
(-1.01642e-09 -3.71567e-09 -1.1507e-10 2.47403e-08 -1.09655e-10 1.29683e-10)
(1.79846e-09 1.64421e-09 -3.17628e-11 1.32412e-08 -1.0778e-10 3.65803e-11)
(4.30061e-09 2.50476e-10 -8.20028e-10 5.71539e-09 7.13999e-10 2.11974e-09)
(4.26913e-10 2.17906e-10 -3.07944e-10 1.20175e-08 1.02151e-09 4.0123e-10)
(-2.35413e-09 -3.08561e-09 -8.08893e-10 2.20707e-08 9.13205e-10 2.66426e-09)
(-2.95028e-09 2.09572e-09 -3.86724e-10 1.80611e-08 2.33131e-09 1.59354e-09)
(4.19494e-09 -3.26448e-10 -8.04162e-10 5.67076e-09 8.64975e-10 1.08931e-09)
(-2.1794e-09 -1.22279e-09 -9.35834e-10 1.97848e-08 -2.53029e-10 3.99137e-09)
(1.06038e-10 5.29715e-10 3.76693e-11 1.13595e-08 1.38707e-09 6.5735e-10)
(2.71392e-09 6.97989e-10 1.63253e-09 9.2837e-09 2.14456e-09 9.95886e-10)
(3.77764e-11 2.22966e-09 2.78873e-09 3.43232e-09 3.11328e-09 2.36931e-09)
(-6.15397e-10 4.75917e-11 2.96278e-09 -3.89335e-10 8.41539e-09 1.17139e-08)
(-1.82715e-09 3.12044e-09 1.5722e-09 1.533e-08 4.98178e-09 -2.81545e-11)
(3.95239e-09 -4.25456e-09 2.46213e-09 2.01363e-08 7.35018e-09 -2.51988e-09)
(-1.87133e-10 5.50458e-10 3.59068e-09 8.17088e-10 4.33639e-09 4.28113e-09)
(-1.71031e-09 6.40697e-09 3.04944e-09 1.07024e-08 3.6431e-09 5.01792e-10)
(1.63782e-10 2.4832e-10 6.89099e-10 -1.54363e-09 1.87493e-09 8.8053e-09)
(3.43937e-10 -2.95891e-11 1.8587e-10 -2.76683e-10 3.23773e-11 1.18959e-08)
(-6.77123e-11 -5.15503e-10 7.11981e-10 -7.36115e-10 1.22415e-09 1.22597e-08)
(2.43217e-09 2.08235e-09 3.84401e-10 8.01418e-09 -1.76856e-10 -8.60808e-10)
(-4.84254e-09 6.58526e-09 1.04124e-10 2.87627e-08 -1.74018e-10 -2.53124e-10)
(-5.41341e-09 1.35841e-08 -1.47941e-10 1.76502e-08 -1.09316e-10 -7.08093e-11)
(-1.98514e-09 -1.51618e-09 -2.02159e-10 3.08757e-08 -6.72203e-10 -9.63146e-11)
(-1.57068e-09 -1.16217e-09 1.83074e-10 3.19707e-08 2.88688e-10 -6.94857e-10)
(2.13526e-09 1.77544e-09 -2.02887e-10 7.85709e-09 4.18711e-11 -2.30725e-10)
(-5.256e-09 1.3421e-08 2.05161e-10 1.79224e-08 -1.50183e-10 -1.41962e-10)
(2.50909e-10 -3.82653e-10 -4.29457e-10 4.45615e-10 -3.27652e-10 -1.69395e-09)
(-5.27172e-10 4.40995e-10 -2.08049e-10 -2.13302e-10 1.45542e-09 -7.74753e-10)
(5.57019e-10 6.75936e-11 -1.15104e-09 3.17596e-10 1.35411e-09 3.03588e-11)
(-4.55288e-10 6.55093e-10 1.72455e-09 -1.75505e-10 1.05716e-10 1.04954e-08)
(1.50349e-10 -7.75173e-11 5.3206e-10 3.18635e-11 -2.32173e-10 1.91287e-09)
(2.66316e-10 2.09025e-11 1.30079e-09 -3.90543e-10 -1.11635e-10 5.65896e-09)
(7.3741e-09 -2.36784e-10 -7.20141e-11 9.23221e-09 -1.05688e-10 -3.57785e-10)
(-1.96143e-09 2.39482e-09 -3.24638e-11 2.61536e-08 -2.0681e-10 -2.52612e-10)
(2.7305e-09 2.79506e-09 1.05316e-10 1.59526e-08 -2.64571e-10 -5.64531e-11)
(3.01561e-10 -3.7726e-09 -7.81722e-11 2.78395e-08 -7.6064e-10 -4.53309e-11)
(7.19209e-09 -1.40583e-11 8.02815e-11 8.74297e-09 -4.01541e-11 -9.02796e-11)
(6.80741e-10 -3.44691e-09 3.02719e-12 2.92859e-08 2.82539e-10 -7.28017e-10)
(2.80101e-09 2.78984e-09 -6.90851e-11 1.63059e-08 -2.18416e-10 -1.23045e-10)
(3.24511e-10 2.68135e-11 1.51197e-10 -1.53773e-10 -1.5803e-10 1.12429e-08)
(2.77769e-10 1.05333e-11 4.61663e-10 -2.34573e-11 -1.70307e-10 7.18163e-09)
(2.3413e-10 3.92515e-12 3.06086e-10 2.54509e-11 -1.23228e-10 9.41126e-09)
(2.45834e-10 4.70928e-12 2.01088e-10 3.92813e-12 -1.92787e-11 5.01737e-09)
(1.92452e-10 -1.40575e-12 6.59785e-11 4.62053e-12 -1.3871e-11 7.86599e-09)
(1.95091e-10 -4.27356e-12 8.00235e-11 3.64262e-12 -1.95134e-11 8.01665e-09)
(2.18205e-10 4.65317e-12 3.67567e-10 2.49862e-12 -4.99721e-11 4.65728e-09)
(2.06917e-10 -1.21847e-12 1.85936e-11 1.10195e-12 -4.65605e-12 -1.50965e-09)
(2.10331e-10 -1.49262e-12 4.76769e-11 1.73996e-12 -1.43033e-11 -1.36884e-09)
(1.9155e-10 1.36709e-13 6.36974e-11 4.08665e-12 -9.75075e-12 7.83205e-09)
(2.4103e-10 2.2798e-12 1.74629e-10 3.50485e-12 2.46628e-12 4.76564e-09)
(1.89278e-10 1.02577e-12 6.15787e-11 4.49368e-12 -2.51874e-12 7.78101e-09)
(3.25545e-10 1.67994e-10 3.11877e-10 -5.21628e-10 -3.45137e-10 5.5502e-09)
(1.20284e-09 -1.97817e-09 -1.59469e-09 -5.12496e-09 -3.88706e-09 1.04317e-08)
(3.46618e-10 -2.23067e-10 -9.79406e-11 -5.98095e-10 -4.36263e-10 8.50749e-09)
(2.27181e-10 9.40128e-11 5.38855e-10 -1.99002e-10 -3.37859e-10 5.01484e-09)
(-6.8832e-11 5.00683e-10 8.33542e-10 -5.21213e-10 -5.64426e-10 2.08234e-11)
(1.95761e-10 3.12081e-11 1.39069e-10 -1.76879e-11 2.35562e-12 -1.08948e-09)
(1.53285e-09 -3.7441e-09 -2.9433e-09 -1.03561e-08 -8.00171e-09 1.19522e-08)
(-6.22273e-09 1.67257e-08 9.53328e-09 -6.25527e-08 -6.46856e-08 7.40057e-08)
(-2.09173e-08 -8.85921e-09 1.33593e-08 -3.97018e-08 -5.62085e-08 1.75832e-08)
(1.7683e-09 1.76597e-09 1.13961e-11 7.36454e-09 -9.20839e-11 -8.08293e-11)
(-5.36066e-09 1.33488e-08 -1.14811e-10 1.7528e-08 -2.22258e-10 -9.78085e-11)
(-1.96956e-09 -1.60595e-09 -1.27911e-10 3.03174e-08 -4.92124e-10 4.24206e-11)
(-5.00036e-09 6.56866e-09 1.30397e-11 2.74587e-08 -3.07356e-10 1.19601e-11)
(-2.21584e-09 -1.4561e-09 5.34903e-11 3.01028e-08 4.50561e-11 5.37343e-13)
(2.35372e-09 1.58054e-09 -1.39302e-10 8.00563e-09 2.25933e-11 -1.08011e-10)
(-5.4417e-09 1.3404e-08 3.70946e-11 1.72104e-08 -3.08238e-10 -1.21466e-11)
(1.31751e-09 1.75868e-09 -2.79174e-11 6.87282e-09 -5.94946e-11 3.64202e-12)
(-5.15533e-09 6.54384e-09 -2.47966e-11 2.6555e-08 -2.14743e-10 8.03275e-12)
(-5.64449e-09 1.34431e-08 -4.7118e-11 1.62742e-08 -1.80889e-10 1.08932e-11)
(-2.68348e-09 -1.4032e-09 -4.50218e-11 2.92063e-08 -1.41302e-10 2.39139e-11)
(-2.62487e-09 -1.39249e-09 -3.88925e-11 2.9435e-08 -9.67795e-11 2.23458e-11)
(1.25325e-09 1.73235e-09 -7.73893e-11 6.77544e-09 -6.45259e-11 5.31331e-12)
(-5.6405e-09 1.34842e-08 -4.14283e-11 1.6373e-08 -1.87491e-10 2.22531e-11)
(6.29683e-09 -2.15729e-11 9.04545e-12 7.79418e-09 -1.85317e-11 2.97022e-11)
(-2.28731e-09 2.22117e-09 -1.29286e-11 2.38623e-08 -2.09524e-10 9.21486e-12)
(2.29097e-09 2.41374e-09 1.46867e-12 1.44626e-08 -1.58977e-10 1.22958e-11)
(-4.71564e-10 -3.66174e-09 -3.11479e-11 2.63353e-08 -1.3417e-10 2.58963e-11)
(6.11259e-09 -7.12574e-11 5.57112e-12 7.6034e-09 -2.78889e-11 1.4123e-11)
(-3.94876e-10 -3.66186e-09 -2.21064e-11 2.6558e-08 -8.59226e-11 1.93673e-11)
(2.33342e-09 2.46928e-09 4.80963e-13 1.45734e-08 -1.70454e-10 1.65694e-11)
(1.14795e-09 1.72366e-09 -7.25555e-11 6.63529e-09 -6.4039e-11 -1.37907e-11)
(-5.64063e-09 1.33911e-08 -5.03448e-11 1.61726e-08 -1.74085e-10 5.52071e-12)
(-2.69958e-09 -1.40273e-09 -4.71596e-11 2.91208e-08 -1.33071e-10 2.61258e-11)
(-5.16653e-09 6.44624e-09 -2.765e-11 2.61258e-08 -1.90035e-10 -3.01471e-12)
(-2.7586e-09 -1.40268e-09 -4.34764e-11 2.89479e-08 -9.6137e-11 8.61633e-12)
(1.25096e-09 1.7245e-09 -3.78914e-11 6.76132e-09 -5.98752e-11 1.05047e-11)
(-5.64603e-09 1.33555e-08 -3.49876e-11 1.6064e-08 -1.78047e-10 5.72578e-12)
(9.6917e-10 1.67111e-09 -4.79996e-11 6.38672e-09 -6.80512e-11 -1.12551e-11)
(-5.17382e-09 6.21092e-09 -4.75187e-11 2.53932e-08 -2.08808e-10 -1.40457e-11)
(-5.64054e-09 1.29974e-08 -6.50762e-11 1.53899e-08 -1.97078e-10 1.87198e-12)
(-2.98411e-09 -1.47895e-09 -8.84466e-11 2.80293e-08 -1.3341e-10 2.51081e-11)
(-2.91462e-09 -1.44957e-09 -7.71263e-11 2.83139e-08 -1.2668e-10 -2.61131e-12)
(8.70309e-10 1.64689e-09 -8.80977e-11 6.24635e-09 -7.89025e-11 1.79807e-11)
(-5.64474e-09 1.30778e-08 -6.74889e-11 1.55239e-08 -1.86502e-10 -1.71904e-12)
(5.67261e-09 -6.32289e-11 -1.96838e-11 7.1382e-09 1.25842e-11 2.49007e-11)
(-2.40958e-09 1.89343e-09 -2.75686e-11 2.27451e-08 -1.96256e-10 -1.05444e-11)
(1.93685e-09 1.87555e-09 -1.6917e-11 1.3569e-08 -1.37553e-10 7.30085e-12)
(-8.52503e-10 -3.68759e-09 -7.63783e-11 2.5212e-08 -1.19983e-10 2.66671e-11)
(5.42513e-09 -1.42432e-10 -4.32684e-11 6.886e-09 1.66599e-11 4.96426e-11)
(-7.64408e-10 -3.67341e-09 -5.37332e-11 2.54888e-08 -1.1191e-10 -1.22338e-12)
(1.99423e-09 1.96778e-09 -1.0362e-11 1.37065e-08 -1.40499e-10 1.26157e-12)
(6.97342e-10 1.61186e-09 -7.9685e-11 6.0147e-09 -7.18907e-11 1.41582e-10)
(-5.63775e-09 1.29091e-08 -8.10552e-11 1.52348e-08 -1.88042e-10 1.67558e-11)
(-3.01177e-09 -1.48887e-09 -1.00519e-10 2.79212e-08 -1.40149e-10 4.11786e-11)
(-5.18287e-09 5.98148e-09 -6.86452e-11 2.47498e-08 -1.96737e-10 2.78099e-11)
(-3.1211e-09 -1.52563e-09 -1.22231e-10 2.75424e-08 -1.28089e-10 1.3281e-10)
(8.56088e-10 1.63671e-09 -5.31819e-11 6.22831e-09 -7.18962e-11 3.25896e-11)
(-5.6347e-09 1.28096e-08 -7.81424e-11 1.50584e-08 -1.78571e-10 3.88461e-11)
(-3.64081e-10 1.53215e-09 2.11299e-10 4.78874e-09 2.10296e-10 1.76175e-09)
(-5.3871e-09 5.54447e-09 -1.64757e-10 2.30126e-08 7.3559e-10 6.51585e-10)
(-5.84161e-09 1.23837e-08 -1.40211e-10 1.29824e-08 1.62104e-09 1.35014e-09)
(-4.37441e-09 -1.19029e-09 -6.59494e-10 2.46548e-08 7.36591e-10 2.7743e-09)
(-3.97278e-09 -1.50835e-09 -3.43659e-10 2.57703e-08 3.05992e-10 1.49297e-09)
(-1.72729e-09 1.58815e-09 4.30101e-10 3.25992e-09 5.86145e-10 4.62348e-09)
(-5.75817e-09 1.23833e-08 -8.27228e-11 1.35874e-08 8.52316e-10 7.99831e-10)
(4.35334e-09 -2.32757e-10 -4.8241e-10 5.78924e-09 4.56585e-10 7.09991e-10)
(-2.87156e-09 1.07456e-09 -2.03826e-10 2.07199e-08 6.24777e-10 4.82694e-10)
(7.61482e-10 3.62094e-10 -2.84838e-10 1.22462e-08 7.97673e-10 3.4488e-10)
(-2.30724e-09 -3.3512e-09 -7.06025e-10 2.2401e-08 8.52199e-10 2.3065e-09)
(4.07701e-09 -4.33402e-10 -7.79252e-10 5.54152e-09 8.11865e-10 1.01137e-09)
(-1.92793e-09 -3.6901e-09 -4.1466e-10 2.31693e-08 3.70403e-10 1.32616e-09)
(1.0071e-09 5.6634e-10 -2.37916e-10 1.23269e-08 5.23218e-10 3.03332e-10)
(-5.51777e-09 1.34165e-09 -4.43554e-10 -1.07735e-09 -1.0305e-10 1.37787e-08)
(-5.97009e-09 1.24696e-08 -3.41499e-10 1.18081e-08 2.88552e-09 2.46416e-09)
(-4.43676e-09 -9.65833e-10 -8.48875e-10 2.41246e-08 7.56105e-10 3.30679e-09)
(-5.19371e-09 6.52942e-09 -1.15408e-09 1.82944e-08 3.58831e-09 3.10063e-09)
(-4.1794e-09 4.89496e-10 -1.46535e-09 2.08993e-08 -6.69412e-10 5.33856e-09)
(-2.04677e-09 1.56434e-09 4.9303e-10 2.95219e-09 6.15642e-10 5.34695e-09)
(-5.76261e-09 1.2668e-08 -1.06674e-09 9.28763e-09 5.30493e-09 4.68953e-09)
(-4.03927e-10 -2.48893e-10 5.43486e-11 7.12959e-10 6.91508e-10 1.10653e-09)
(5.14338e-10 2.22123e-09 2.62483e-09 -2.89583e-09 -3.90525e-09 2.32366e-09)
(1.99458e-09 -5.53184e-09 -3.54691e-09 -2.13238e-10 9.58717e-10 2.3105e-09)
(-7.26823e-09 -4.67104e-10 4.98036e-09 -3.20125e-09 1.94565e-09 1.15033e-08)
(-2.58525e-09 -1.31368e-08 -9.67038e-09 1.33191e-08 1.63971e-08 8.65351e-09)
(-8.69555e-10 4.95146e-09 6.66077e-09 -3.63172e-09 -6.88067e-09 2.74363e-09)
(-1.23354e-07 4.572e-08 1.17645e-07 -3.71541e-08 -2.60486e-08 2.01564e-07)
(9.45242e-09 -1.00071e-08 -6.73974e-09 -3.46312e-09 -7.20963e-10 1.84905e-09)
(-2.04043e-10 -2.63521e-10 4.74449e-11 1.67851e-09 2.59788e-09 3.07379e-09)
(-1.20443e-09 -2.48287e-10 -5.26073e-10 -5.42291e-10 1.14893e-09 1.77672e-08)
(-1.34272e-10 -3.68577e-10 4.79992e-09 5.57118e-10 4.72702e-09 7.33744e-09)
(2.91909e-09 6.09423e-09 5.40916e-10 1.016e-08 1.74931e-09 -9.75305e-10)