/*--------------------------------*- C++ -*----------------------------------*\
| =========                 |                                                 |
| \\      /  F ield         | OpenFOAM: The Open Source CFD Toolbox           |
|  \\    /   O peration     | Version:  2012                                  |
|   \\  /    A nd           | Website:  www.openfoam.com                      |
|    \\/     M anipulation  |                                                 |
\*---------------------------------------------------------------------------*/
FoamFile
{
    version     2.0;
    format      ascii;
    class       pointVectorField;
    location    "0.107/solid";
    object      pointD;
}
// * * * * * * * * * * * * * * * * * * * * * * * * * * * * * * * * * * * * * //

dimensions      [0 1 0 0 0 0 0];


internalField   nonuniform List<vector> 
37794
(
(-2.71592e-11 -3.83268e-11 -1.69313e-11)
(4.96005e-13 -7.84789e-14 -1.23709e-13)
(-3.18943e-12 -3.21576e-13 -2.49743e-12)
(-4.15284e-12 -1.32762e-13 -1.73851e-12)
(-4.0285e-12 -1.24411e-11 -1.12902e-11)
(2.29724e-11 9.73869e-12 -5.17631e-12)
(2.22186e-11 8.68066e-12 -1.88745e-12)
(2.06001e-11 7.72662e-12 -2.53435e-12)
(1.44938e-11 9.47981e-12 -5.75871e-12)
(2.22098e-06 -6.76674e-07 2.5832e-06)
(1.44743e-05 -4.13677e-06 6.15194e-06)
(3.30171e-05 -1.04578e-05 7.68767e-06)
(5.33215e-05 -1.80661e-05 8.40549e-06)
(-2.83205e-12 1.76624e-12 6.88459e-13)
(-4.87823e-13 9.67489e-13 -1.81779e-11)
(2.26934e-13 2.06759e-12 -3.16592e-12)
(2.4965e-11 9.45205e-12 1.14706e-11)
(1.08643e-11 -3.6608e-12 -2.77732e-13)
(-4.04012e-12 -3.96474e-13 -1.72259e-12)
(1.07679e-11 -8.14888e-14 -1.33697e-12)
(-4.11687e-12 1.52985e-13 -1.7654e-12)
(8.58547e-12 1.95672e-11 5.46196e-12)
(-1.35416e-08 4.90462e-09 4.90784e-09)
(2.26995e-11 9.23098e-12 -2.73992e-12)
(7.0137e-06 -1.94783e-06 -9.05105e-07)
(2.15829e-11 8.22014e-12 -1.86578e-12)
(2.31933e-05 -7.07161e-06 -1.38776e-06)
(1.87757e-11 7.26646e-12 -3.30882e-12)
(4.31303e-05 -1.42718e-05 -1.53568e-06)
(1.95422e-06 -5.21904e-07 -5.01741e-07)
(7.21989e-06 -1.9901e-06 4.64641e-06)
(1.43285e-05 -4.15951e-06 -1.19613e-06)
(2.32848e-05 -7.01884e-06 7.142e-06)
(3.29696e-05 -1.0518e-05 -1.49395e-06)
(4.31479e-05 -1.42141e-05 7.89666e-06)
(5.33079e-05 -1.81245e-05 -1.53888e-06)
(3.20193e-11 7.01438e-12 -2.20918e-11)
(1.09697e-11 -7.84297e-14 -1.33381e-12)
(1.09713e-11 -3.99688e-14 -1.42971e-12)
(2.24229e-08 1.62451e-08 1.95757e-08)
(-1.21606e-12 -6.81056e-12 -1.16491e-12)
(-5.78757e-12 -5.32887e-12 -5.46705e-12)
(4.58677e-11 -2.28689e-12 2.85981e-11)
(-5.39405e-12 -1.60054e-11 -4.60459e-12)
(-3.96527e-12 -1.81011e-11 -1.80229e-11)
(6.89186e-13 -8.27995e-12 1.40591e-11)
(2.06713e-11 2.87468e-11 6.15404e-11)
(6.4597e-13 -1.86498e-12 1.58012e-12)
(-3.11881e-12 -7.38001e-13 3.81915e-12)
(1.70563e-12 -1.08599e-11 -1.43695e-11)
(-3.61383e-12 -3.72033e-12 1.78105e-12)
(-4.28574e-13 -1.06451e-12 1.81709e-12)
(-3.74646e-12 -2.33188e-12 -1.67822e-12)
(-4.1563e-12 -2.71368e-13 -1.74416e-12)
(-3.42959e-12 -2.59179e-13 9.36444e-13)
(4.11141e-13 -3.02254e-14 2.47555e-12)
(-4.13971e-12 1.01004e-14 -1.73842e-12)
(-3.89992e-12 -1.7304e-13 -2.16164e-12)
(-6.85922e-12 -3.72845e-11 -4.2129e-12)
(2.03901e-12 -1.12561e-12 2.04906e-12)
(-9.51785e-11 3.24761e-11 -4.10491e-10)
(2.36561e-11 1.0997e-11 -9.88517e-13)
(3.97403e-11 -3.45308e-11 -4.5615e-13)
(-3.16752e-11 -1.09199e-12 -1.34058e-12)
(2.38622e-10 1.09057e-09 -1.744e-11)
(2.29583e-11 9.69277e-12 -3.07126e-12)
(2.25337e-11 8.97698e-12 -2.01592e-12)
(3.87623e-11 -3.47693e-11 -5.0227e-13)
(-3.05447e-11 -2.19032e-12 -7.00217e-13)
(2.32034e-10 1.03374e-09 -9.57444e-12)
(2.19505e-11 8.45757e-12 -1.72858e-12)
(2.11672e-11 7.98064e-12 -2.10601e-12)
(3.74963e-11 -3.40353e-11 -6.58482e-13)
(-2.94905e-11 -3.18831e-12 -9.40211e-13)
(2.10482e-10 9.877e-10 -8.18015e-12)
(1.9874e-11 7.47556e-12 -3.02164e-12)
(1.71822e-11 7.34084e-12 -3.21922e-12)
(3.00284e-11 -2.88978e-11 1.22599e-12)
(-3.13039e-11 -5.99556e-12 -3.02814e-12)
(1.62305e-10 8.79984e-10 1.18607e-10)
(3.88805e-12 4.17274e-12 -1.0705e-11)
(1.98831e-06 -6.19035e-07 9.89424e-07)
(4.39338e-06 -1.22573e-06 3.68646e-06)
(7.86035e-07 -3.39136e-07 1.33364e-06)
(2.1263e-06 -4.10195e-07 -1.99435e-06)
(1.06099e-05 -2.96369e-06 5.46676e-06)
(1.43502e-05 -4.16839e-06 2.43745e-06)
(1.87267e-05 -5.49507e-06 6.70777e-06)
(1.44164e-05 -4.12087e-06 -4.82256e-06)
(2.80716e-05 -8.68293e-06 7.46456e-06)
(3.29785e-05 -1.04966e-05 3.07413e-06)
(3.80597e-05 -1.23117e-05 7.82596e-06)
(3.29959e-05 -1.05262e-05 -6.05919e-06)
(4.82422e-05 -1.6139e-05 7.92037e-06)
(5.33149e-05 -1.80964e-05 3.19e-06)
(5.33082e-05 -1.81529e-05 -6.26987e-06)
(1.29051e-12 -1.85425e-12 -1.46226e-12)
(9.66665e-10 -2.13601e-10 5.63888e-10)
(-9.02264e-12 2.35187e-12 5.32101e-13)
(5.08681e-12 1.4273e-12 -3.53656e-12)
(-3.71482e-12 -1.49592e-11 -3.45595e-12)
(2.07913e-10 1.07035e-09 1.92816e-11)
(4.00236e-11 -3.2645e-11 9.00981e-12)
(-2.9911e-11 1.8543e-12 5.14008e-13)
(1.93159e-11 3.52802e-12 -1.15036e-11)
(-4.55255e-12 -2.20531e-12 -1.25173e-11)
(1.08906e-11 -7.60336e-13 -1.24576e-12)
(-2.54565e-12 -8.09028e-13 1.02135e-12)
(5.39371e-13 -1.83154e-13 2.65005e-12)
(1.08838e-11 -6.04199e-14 -1.33794e-12)
(1.07776e-11 -5.14292e-14 -1.35963e-12)
(-3.30754e-12 2.35305e-13 8.79326e-13)
(4.18393e-13 4.88564e-14 2.49169e-12)
(1.12955e-11 3.34122e-13 -1.39124e-12)
(-2.06387e-11 1.13982e-09 2.50748e-10)
(5.05147e-07 -1.14521e-07 -2.4804e-07)
(-1.33877e-08 1.00969e-08 -7.9923e-09)
(-5.42344e-09 8.29378e-09 6.58508e-09)
(2.37741e-10 1.0559e-09 -1.32244e-11)
(3.92051e-11 -3.48348e-11 -6.1812e-13)
(-3.1032e-11 -1.66983e-12 -9.49993e-13)
(4.15643e-06 -1.13397e-06 -7.18805e-07)
(7.04317e-06 -1.99149e-06 1.82494e-06)
(7.14005e-06 -1.87294e-06 -3.6267e-06)
(1.04343e-05 -2.95904e-06 -1.0637e-06)
(2.23643e-10 1.01377e-09 -8.69851e-12)
(3.82385e-11 -3.45154e-11 -5.08708e-13)
(-3.01084e-11 -2.64103e-12 -6.97986e-13)
(1.86091e-05 -5.53645e-06 -1.30365e-06)
(2.32079e-05 -7.0606e-06 2.84411e-06)
(2.32472e-05 -7.05965e-06 -5.61442e-06)
(2.80037e-05 -8.74141e-06 -1.45041e-06)
(1.86932e-10 9.45705e-10 7.02696e-12)
(3.59514e-11 -3.30217e-11 -7.51343e-13)
(-2.85084e-11 -4.15164e-12 -1.50949e-12)
(3.80292e-05 -1.23712e-05 -1.52124e-06)
(4.31352e-05 -1.42456e-05 3.17103e-06)
(4.31379e-05 -1.42943e-05 -6.24188e-06)
(4.82344e-05 -1.61957e-05 -1.54128e-06)
(1.40854e-10 8.38827e-10 1.13638e-10)
(6.8572e-07 -2.08864e-08 -1.00939e-06)
(2.39914e-10 1.07214e-09 -1.13915e-11)
(1.05409e-05 -2.9036e-06 -4.27766e-06)
(2.28314e-10 1.02414e-09 -8.56235e-12)
(2.80428e-05 -8.74023e-06 -5.87555e-06)
(2.0042e-10 9.69083e-10 -4.74284e-12)
(4.82354e-05 -1.62217e-05 -6.26923e-06)
(2.14381e-10 7.23283e-10 2.51238e-10)
(2.4032e-10 1.13396e-09 4.21797e-12)
(5.33494e-07 -2.35946e-07 4.85156e-07)
(4.18907e-06 -1.2022e-06 1.43583e-06)
(4.30434e-06 -1.0381e-06 -2.8664e-06)
(2.35489e-10 1.04483e-09 -1.00532e-11)
(1.046e-05 -2.9831e-06 2.15823e-06)
(1.86271e-05 -5.53387e-06 2.66501e-06)
(1.86794e-05 -5.51214e-06 -5.26605e-06)
(2.1798e-10 1.0021e-09 -8.70932e-12)
(2.80151e-05 -8.72433e-06 2.97882e-06)
(3.80358e-05 -1.23468e-05 3.13593e-06)
(3.80448e-05 -1.23874e-05 -6.17683e-06)
(1.71197e-10 9.18608e-10 4.00897e-11)
(4.82381e-05 -1.61683e-05 3.18687e-06)
(-4.07977e-11 3.12297e-11 2.83141e-12)
(1.03568e-11 6.988e-12 -9.98406e-13)
(1.79741e-13 -5.2408e-13 2.64767e-12)
(4.16696e-13 2.84627e-15 2.47679e-12)
(3.99992e-11 -2.12486e-10 -5.95328e-11)
(2.53875e-12 4.84559e-12 -4.92716e-12)
(3.65612e-12 -1.21048e-12 -3.07748e-13)
(-3.18774e-12 -4.32721e-13 9.79572e-13)
(-1.68924e-13 -2.45351e-12 9.83884e-13)
(-3.39559e-12 -7.48246e-13 3.80557e-13)
(-3.44864e-12 1.33448e-15 9.16097e-13)
(1.17672e-10 6.91149e-10 1.65808e-10)
(-1.87501e-13 1.78914e-12 2.05655e-12)
(-1.14162e-11 6.37312e-12 2.81928e-13)
(4.21037e-13 -7.44803e-14 2.51182e-12)
(4.92753e-13 1.40512e-13 2.5382e-12)
(-1.15927e-12 1.24498e-11 1.95171e-11)
(-3.14523e-11 -1.31799e-12 -1.40963e-12)
(-3.03471e-11 -2.41413e-12 -6.56606e-13)
(-2.89335e-11 -3.54278e-12 -1.12031e-12)
(-2.09867e-11 -8.57568e-13 -4.31715e-12)
(3.62269e-11 -1.62465e-11 3.48286e-12)
(4.10256e-11 -3.42735e-11 -2.97239e-12)
(3.96227e-11 -3.48459e-11 -1.65526e-12)
(3.90103e-11 -3.48798e-11 -7.52198e-13)
(3.85105e-11 -3.4681e-11 -5.23275e-13)
(3.79261e-11 -3.43237e-11 -5.74636e-13)
(3.69056e-11 -3.36266e-11 -7.51309e-13)
(3.4241e-11 -3.20258e-11 -4.20141e-13)
(1.23741e-11 -1.16189e-11 5.22728e-12)
(-3.21216e-11 -6.41477e-13 -2.33149e-12)
(-3.08061e-11 -1.93976e-12 -8.12853e-13)
(-2.9844e-11 -2.89386e-12 -7.86551e-13)
(-2.91192e-11 -5.22144e-12 -1.8419e-12)
(1.34825e-10 1.25597e-10 1.16785e-10)
(6.18076e-11 1.54698e-10 1.34133e-10)
(1.32909e-10 3.83935e-10 -1.24681e-11)
(1.16717e-10 3.60776e-10 -6.77571e-12)
(9.50538e-11 3.38653e-10 -6.51554e-12)
(5.41328e-11 3.03473e-10 6.02507e-11)
(1.31029e-10 1.62835e-10 1.07689e-10)
(3.76662e-10 4.74414e-10 -8.12394e-12)
(-1.08099e-11 1.01623e-11 -5.37587e-11)
(1.32044e-10 4.04792e-10 -1.10361e-11)
(3.71806e-10 4.59659e-10 -1.19377e-11)
(3.73778e-10 4.38327e-10 -7.70119e-12)
(1.20287e-10 3.65754e-10 -7.53222e-12)
(3.70832e-10 4.33128e-10 -7.15436e-12)
(3.59124e-10 4.17676e-10 -7.63032e-12)
(1.02535e-10 3.45771e-10 -6.95899e-12)
(3.52808e-10 4.10405e-10 -7.25937e-12)
(3.30828e-10 3.72915e-10 4.49503e-11)
(5.26599e-11 3.13565e-10 2.68268e-11)
(3.30258e-10 3.28804e-10 1.42812e-10)
(-5.53606e-12 -2.63937e-11 3.30369e-11)
(6.96335e-10 -7.14919e-10 5.98048e-11)
(4.21042e-11 8.34689e-12 1.73367e-10)
(3.66887e-11 1.15017e-10 3.07761e-10)
(1.62117e-10 3.98429e-10 5.29191e-11)
(1.66971e-11 2.03467e-11 3.10399e-10)
(1.27355e-10 3.78064e-10 -1.06357e-11)
(1.12743e-10 3.56397e-10 -6.53051e-12)
(8.45503e-11 3.29843e-10 -3.63059e-12)
(1.41482e-10 2.12863e-10 1.29472e-10)
(7.03624e-11 -5.73013e-12 -1.56123e-11)
(1.74018e-11 1.26126e-10 3.09214e-10)
(3.08148e-10 4.62505e-10 6.38232e-11)
(1.45365e-10 -5.09957e-11 1.09789e-10)
(1.52748e-09 5.76704e-10 7.00164e-10)
(2.75349e-11 3.92315e-11 1.9968e-10)
(1.94906e-10 5.87272e-11 2.20792e-10)
(3.37912e-10 4.85897e-10 1.22789e-11)
(-3.42254e-12 2.1622e-12 8.50751e-11)
(1.5649e-11 2.13431e-11 1.57e-10)
(1.23479e-11 8.78716e-11 1.42889e-10)
(8.24324e-13 2.8087e-11 7.59198e-11)
(7.83728e-11 1.69845e-11 6.73244e-11)
(1.47904e-10 4.06837e-10 4.85629e-12)
(3.77369e-10 4.51035e-10 -1.03965e-11)
(3.74742e-10 4.43614e-10 -9.07909e-12)
(1.24245e-10 3.70396e-10 -8.8568e-12)
(3.679e-10 4.28576e-10 -6.92925e-12)
(3.63953e-10 4.23464e-10 -7.28543e-12)
(1.08205e-10 3.51443e-10 -6.72132e-12)
(3.44975e-10 4.01062e-10 -3.71751e-12)
(3.36671e-10 3.89177e-10 8.96509e-12)
(6.92291e-11 3.20335e-10 5.70795e-12)
(3.98363e-10 1.22512e-10 4.5047e-10)
(-1.49664e-11 -3.11448e-11 -1.16979e-11)
(-1.7567e-11 -3.74191e-11 -2.27647e-11)
(1.70545e-12 -1.02826e-12 1.28649e-11)
(7.40542e-12 2.11037e-11 5.79993e-11)
(1.75754e-12 -1.29193e-12 4.13058e-12)
(-2.6495e-13 3.74758e-12 1.75037e-12)
(-1.42809e-12 -2.09579e-12 2.42267e-13)
(-9.83515e-13 -8.43156e-13 -3.3869e-12)
(-6.53648e-12 -2.41858e-12 1.74664e-12)
(-4.60617e-12 -3.69487e-13 5.89456e-13)
(-3.86661e-12 -7.51915e-13 -1.18032e-12)
(-4.12444e-12 -2.01695e-13 -1.73626e-12)
(-5.42142e-12 -2.36951e-13 1.01218e-12)
(-4.84973e-12 -5.20388e-14 8.50082e-13)
(-4.12147e-12 -6.52823e-14 -1.73315e-12)
(-3.54456e-12 -2.37723e-12 -3.64126e-12)
(-1.57285e-12 -2.25604e-11 -1.35544e-11)
(-3.74557e-12 -2.42269e-12 -2.09024e-12)
(-1.57599e-11 -4.42794e-11 -5.78196e-11)
(2.41108e-11 1.0885e-11 -4.41134e-12)
(8.98154e-11 5.05928e-12 -3.73555e-12)
(-4.01423e-11 3.96382e-12 -4.82158e-12)
(2.00126e-10 5.26603e-10 -1.42139e-11)
(2.25191e-11 9.40231e-12 -4.02482e-12)
(2.24052e-11 8.86133e-12 -1.94068e-12)
(8.78334e-11 3.44994e-12 -1.601e-12)
(-3.96401e-11 2.63595e-12 -1.87649e-12)
(1.93545e-10 4.94267e-10 -7.89653e-12)
(2.20666e-11 8.54033e-12 -1.78133e-12)
(2.08961e-11 7.85423e-12 -2.3e-12)
(8.47542e-11 2.87353e-12 -2.03167e-12)
(-3.93386e-11 1.51807e-12 -2.57043e-12)
(1.77774e-10 4.70281e-10 -8.07576e-12)
(2.0251e-11 7.59305e-12 -2.77721e-12)
(1.61956e-11 7.77635e-12 -3.65888e-12)
(7.21745e-11 6.99698e-12 -2.30477e-12)
(-4.11406e-11 2.37341e-12 -5.03008e-12)
(1.45058e-10 4.20203e-10 6.00215e-11)
(1.04724e-11 1.39406e-11 -1.51878e-11)
(2.08165e-06 -6.54811e-07 1.77675e-06)
(3.21972e-06 -9.24065e-07 3.15295e-06)
(1.40777e-06 -4.83014e-07 1.97707e-06)
(2.28565e-06 -3.64584e-07 -2.78579e-06)
(1.24882e-05 -3.52607e-06 5.82592e-06)
(1.44004e-05 -4.15816e-06 4.30216e-06)
(1.65572e-05 -4.79386e-06 6.44559e-06)
(1.45008e-05 -4.10207e-06 -6.69399e-06)
(3.05285e-05 -9.55846e-06 7.58769e-06)
(3.29947e-05 -1.04794e-05 5.40023e-06)
(3.55297e-05 -1.13768e-05 7.76641e-06)
(3.30216e-05 -1.05307e-05 -8.4012e-06)
(5.0795e-05 -1.71082e-05 7.92644e-06)
(5.3319e-05 -1.80824e-05 5.59063e-06)
(5.33062e-05 -1.81668e-05 -8.79651e-06)
(-9.05075e-13 1.25225e-12 -3.07036e-12)
(-4.80844e-12 -1.43008e-13 2.65706e-14)
(-1.93781e-12 1.40343e-12 -4.54292e-13)
(1.08863e-12 1.16324e-12 -2.91481e-12)
(9.83187e-13 -3.25969e-12 -1.5288e-11)
(-2.85007e-13 -3.75736e-13 -7.72677e-12)
(-6.7632e-12 1.17696e-11 1.60117e-12)
(5.93797e-13 -1.55971e-11 3.19217e-11)
(8.15823e-13 -3.40548e-11 1.555e-11)
(-6.497e-12 7.0888e-12 -1.35831e-11)
(1.82477e-11 3.02256e-12 2.35564e-10)
(-3.1334e-13 -1.86299e-12 -2.76362e-12)
(2.02519e-12 -1.00245e-11 -2.81742e-12)
(2.78596e-11 1.24202e-11 3.20009e-11)
(2.22404e-11 9.35446e-12 4.00713e-12)
(1.86824e-10 5.26853e-10 3.29588e-11)
(8.61193e-11 9.02309e-12 1.12687e-11)
(-3.17934e-11 6.47856e-12 5.51435e-12)
(3.10821e-12 1.50244e-13 -2.82703e-12)
(3.80753e-12 -4.26405e-12 3.74349e-12)
(5.57763e-12 -7.25695e-13 5.6929e-13)
(1.14418e-11 -2.95913e-12 -1.27699e-12)
(9.90439e-13 -6.46358e-14 6.93152e-13)
(-3.81011e-12 -1.08055e-12 -1.87033e-12)
(-4.11251e-12 -3.35918e-13 -1.73756e-12)
(-5.3074e-12 -7.64137e-13 1.11202e-12)
(-5.01262e-12 -1.8215e-13 8.97272e-13)
(6.23969e-12 8.35527e-16 -3.60245e-13)
(3.05081e-12 -2.09207e-13 2.90221e-12)
(1.08232e-11 -8.19968e-14 -1.33174e-12)
(1.07424e-11 -6.8444e-14 -1.33405e-12)
(-2.94664e-13 9.87505e-16 1.80553e-13)
(-4.1003e-12 8.32452e-14 -1.74391e-12)
(-4.03972e-12 1.85529e-13 -1.83618e-12)
(-5.38613e-12 2.68184e-13 9.61553e-13)
(-4.85572e-12 8.2836e-14 8.48063e-13)
(1.08093e-11 -3.26804e-12 4.32222e-12)
(-1.74877e-11 -5.97859e-12 1.07339e-11)
(1.10109e-11 2.73426e-12 -4.15764e-13)
(3.44063e-12 1.47604e-10 3.14132e-11)
(-3.37121e-13 1.63158e-13 -1.79874e-13)
(-1.76048e-09 -8.83144e-09 4.87004e-10)
(1.05032e-07 1.43621e-08 -9.86355e-08)
(-1.30548e-08 5.96543e-09 -1.66961e-09)
(-8.15554e-09 6.63822e-10 -2.32593e-09)
(2.30186e-11 9.61564e-12 -2.91454e-12)
(2.25336e-11 9.01595e-12 -2.32002e-12)
(1.98139e-10 5.06434e-10 -1.07367e-11)
(8.88881e-11 4.03577e-12 -2.31701e-12)
(-3.98112e-11 3.2225e-12 -2.66659e-12)
(5.50895e-06 -1.51588e-06 -8.15553e-07)
(7.01076e-06 -1.97505e-06 4.52893e-07)
(7.06075e-06 -1.91374e-06 -2.2684e-06)
(8.65927e-06 -2.42918e-06 -9.87755e-07)
(2.17709e-11 8.34771e-12 -1.77543e-12)
(2.13768e-11 8.09137e-12 -1.96604e-12)
(1.87307e-10 4.83677e-10 -7.45823e-12)
(8.65857e-11 3.1115e-12 -1.54513e-12)
(-3.95072e-11 2.12188e-12 -1.87835e-12)
(2.08683e-05 -6.28561e-06 -1.34852e-06)
(2.31929e-05 -7.06988e-06 7.22654e-07)
(2.32131e-05 -7.06827e-06 -3.508e-06)
(2.55748e-05 -7.89134e-06 -1.42164e-06)
(1.93815e-11 7.35307e-12 -3.21486e-12)
(1.80194e-11 7.22809e-12 -3.2644e-12)
(1.61179e-10 4.49609e-10 -3.74358e-13)
(8.15212e-11 2.8978e-12 -2.55724e-12)
(-3.93887e-11 6.94561e-13 -3.58447e-12)
(4.05773e-05 -1.33173e-05 -1.52983e-06)
(4.31314e-05 -1.42594e-05 8.15336e-07)
(4.31327e-05 -1.42835e-05 -3.89868e-06)
(4.56835e-05 -1.52319e-05 -1.53932e-06)
(9.21014e-13 4.28695e-12 5.97711e-12)
(1.94747e-06 -5.74465e-07 2.36989e-07)
(2.01938e-06 -4.674e-07 -1.24543e-06)
(1.12871e-06 -2.92427e-07 -3.80078e-07)
(2.96761e-06 -8.02536e-07 -6.14414e-07)
(5.73056e-06 -1.5813e-06 4.18413e-06)
(8.85007e-06 -2.45126e-06 5.07378e-06)
(7.11438e-06 -1.99731e-06 3.2359e-06)
(7.26066e-06 -1.83726e-06 -5.03865e-06)
(1.43269e-05 -4.16888e-06 6.14193e-07)
(1.4361e-05 -4.14354e-06 -3.01431e-06)
(1.23277e-05 -3.5363e-06 -1.13311e-06)
(1.64258e-05 -4.82694e-06 -1.25291e-06)
(2.09725e-05 -6.23772e-06 6.93951e-06)
(2.56541e-05 -7.83511e-06 7.31653e-06)
(2.32393e-05 -7.04384e-06 5.00674e-06)
(2.32993e-05 -7.05405e-06 -7.78864e-06)
(3.29701e-05 -1.05094e-05 7.85971e-07)
(3.2979e-05 -1.05236e-05 -3.78505e-06)
(3.04713e-05 -9.6182e-06 -1.47441e-06)
(3.54912e-05 -1.14369e-05 -1.50943e-06)
(4.06009e-05 -1.32586e-05 7.86857e-06)
(4.56962e-05 -1.51751e-05 7.91292e-06)
(4.31412e-05 -1.42303e-05 5.55888e-06)
(4.31459e-05 -1.4306e-05 -8.64927e-06)
(5.33108e-05 -1.81104e-05 8.21217e-07)
(5.33071e-05 -1.81387e-05 -3.92088e-06)
(5.08029e-05 -1.71701e-05 -1.54209e-06)
(7.23167e-10 -9.36475e-11 2.56878e-10)
(1.25752e-11 -6.53505e-12 -7.19501e-12)
(1.30294e-11 4.81372e-11 -9.96478e-11)
(1.01963e-11 6.25277e-12 -5.453e-12)
(1.00716e-11 1.81219e-11 -1.94596e-11)
(1.10114e-11 -1.91223e-13 -1.29054e-12)
(6.56768e-12 3.05427e-15 -3.64208e-13)
(3.81393e-12 -3.00193e-13 2.86644e-12)
(1.09256e-11 -5.07976e-14 -1.3307e-12)
(1.08538e-11 -4.24683e-14 -1.38076e-12)
(6.68364e-12 3.48646e-15 -2.13605e-13)
(3.31921e-12 1.00496e-13 2.85598e-12)
(1.11202e-11 1.1666e-14 -1.45879e-12)
(3.30461e-07 -2.23585e-07 6.2713e-07)
(7.26646e-09 4.59623e-09 8.84958e-09)
(-8.99608e-10 1.39106e-08 -6.4531e-10)
(1.50836e-11 6.8922e-12 9.51032e-11)
(-7.84943e-12 -1.0283e-11 -9.75526e-13)
(-5.20341e-12 -1.22967e-11 -1.75526e-12)
(-3.49895e-12 -2.91566e-12 3.49517e-12)
(7.18907e-13 -5.06283e-12 1.97777e-13)
(-1.45026e-13 8.58985e-15 1.40621e-13)
(-3.05652e-13 -2.54492e-15 1.51768e-13)
(4.48148e-10 1.75389e-08 6.82797e-09)
(-1.21883e-10 1.38591e-10 4.02838e-11)
(3.27369e-10 6.98474e-10 6.54407e-11)
(1.31684e-10 1.48691e-10 6.98327e-11)
(2.85157e-10 2.89158e-10 5.31667e-11)
(3.09228e-10 7.43671e-10 -1.06325e-11)
(2.02661e-10 2.18958e-10 -9.07152e-12)
(2.85469e-10 7.02479e-10 -6.84865e-12)
(1.76083e-10 2.00164e-10 -4.62566e-12)
(2.46665e-10 6.56578e-10 -1.49237e-12)
(1.39261e-10 1.82067e-10 -2.26094e-12)
(2.32389e-10 5.43295e-10 1.79421e-10)
(8.20217e-11 1.44579e-10 4.62248e-11)
(3.95395e-11 8.6597e-10 8.70228e-11)
(3.76698e-11 9.899e-11 5.0684e-11)
(3.4934e-10 1.56576e-10 6.88914e-11)
(2.15789e-10 1.01975e-09 4.77793e-12)
(5.33572e-10 1.88001e-10 -1.5975e-12)
(-5.33293e-13 1.80426e-11 2.94005e-11)
(3.2446e-10 8.0781e-10 -1.36486e-12)
(2.17476e-10 2.38053e-10 -6.00795e-12)
(2.3281e-10 9.70369e-10 -1.08968e-11)
(5.60435e-10 1.67036e-10 -9.77519e-12)
(2.34767e-10 9.44006e-10 -9.45621e-12)
(5.62305e-10 1.57514e-10 -7.03557e-12)
(2.97078e-10 7.1977e-10 -8.56674e-12)
(1.88257e-10 2.07827e-10 -6.01886e-12)
(2.30877e-10 9.24756e-10 -8.17377e-12)
(5.57481e-10 1.51406e-10 -5.95528e-12)
(2.23592e-10 9.04907e-10 -8.43484e-12)
(5.49201e-10 1.45457e-10 -6.44886e-12)
(2.7093e-10 6.84128e-10 -6.35444e-12)
(1.61971e-10 1.92597e-10 -4.43196e-12)
(2.11391e-10 8.75356e-10 -4.33536e-12)
(5.35809e-10 1.36938e-10 -4.96343e-12)
(1.97929e-10 8.22118e-10 4.57971e-11)
(5.21723e-10 1.21661e-10 2.48047e-11)
(2.00908e-10 6.19366e-10 3.56154e-11)
(9.14096e-11 1.68569e-10 1.26101e-11)
(2.54429e-10 5.60987e-10 3.84565e-10)
(5.18662e-10 4.57503e-11 3.47215e-10)
(-5.93881e-12 6.67318e-12 6.01314e-14)
(2.50238e-12 -5.26791e-12 1.27462e-11)
(2.22652e-10 1.5991e-10 2.11497e-10)
(3.00489e-11 -2.15498e-12 6.15831e-14)
(1.03624e-11 2.17522e-12 1.62342e-12)
(2.68639e-11 -1.31957e-11 1.10754e-11)
(-4.63933e-12 -4.34154e-13 1.19527e-11)
(9.94427e-12 1.95568e-11 2.82389e-11)
(6.78635e-11 2.40691e-10 2.37639e-10)
(-4.78389e-12 -9.10408e-12 6.92855e-12)
(8.54472e-12 -7.02944e-12 7.84761e-12)
(1.41323e-10 3.95936e-10 1.09277e-10)
(1.17569e-11 2.98796e-11 5.40781e-11)
(6.36877e-11 3.10539e-11 4.42552e-11)
(-8.86347e-12 4.1471e-12 -4.535e-13)
(-8.1824e-13 2.21058e-12 -3.22844e-11)
(8.06688e-12 3.24729e-11 -2.25421e-11)
(-3.28342e-12 2.09127e-12 2.99552e-13)
(5.79007e-13 -3.00626e-12 -7.82482e-12)
(-4.37349e-12 -1.54083e-12 -3.32811e-13)
(-3.16151e-12 1.43797e-12 9.05423e-13)
(-1.55398e-12 -5.12579e-12 1.00571e-12)
(-3.56378e-13 1.06817e-14 1.84246e-12)
(1.37023e-12 -1.14497e-12 3.90884e-12)
(-4.67697e-12 -1.13733e-12 8.73129e-13)
(-4.35581e-12 -3.21772e-12 1.62951e-12)
(-5.3625e-12 -4.66195e-13 1.05537e-12)
(-4.9031e-12 -1.12251e-13 8.59559e-13)
(-3.32397e-12 -3.6836e-13 9.65972e-13)
(-3.4264e-12 -1.39916e-13 9.35695e-13)
(4.37794e-13 -1.16698e-14 2.52263e-12)
(4.34366e-13 -4.39827e-14 2.53575e-12)
(-4.83322e-12 6.9303e-15 8.46928e-13)
(-5.42573e-12 1.76288e-14 9.96934e-13)
(-5.30367e-12 -3.35222e-13 2.54193e-13)
(-4.89206e-12 1.76906e-13 7.49055e-13)
(-4.52927e-12 -6.89888e-12 -9.48577e-13)
(1.15602e-11 -1.31988e-10 -2.45213e-12)
(9.04893e-12 -1.39963e-11 -2.50384e-12)
(7.51293e-13 2.74726e-14 2.5337e-12)
(2.27831e-11 -2.54083e-10 -1.35266e-10)
(1.71597e-10 -4.9656e-10 -4.46286e-10)
(1.97959e-10 5.43871e-10 -2.45433e-12)
(9.11312e-11 4.9757e-12 -3.44789e-12)
(-4.01972e-11 5.80135e-12 -2.70399e-12)
(5.54638e-10 1.7715e-10 -3.22e-12)
(4.06657e-11 -3.52171e-11 -1.5129e-12)
(3.95086e-11 -3.43359e-11 -1.52271e-12)
(2.10484e-10 2.28934e-10 -8.01638e-12)
(-3.14632e-11 -1.06286e-12 -1.53774e-12)
(-3.1953e-11 -1.27559e-12 -1.63405e-12)
(3.16107e-10 7.59816e-10 -1.27229e-11)
(2.38227e-10 1.07037e-09 -1.217e-11)
(2.42957e-10 1.13047e-09 -1.42336e-11)
(2.24913e-10 9.94732e-10 -9.79734e-12)
(1.99592e-10 5.14456e-10 -1.19837e-11)
(-3.99592e-11 3.68898e-12 -3.12617e-12)
(8.96479e-11 4.26534e-12 -3.37015e-12)
(1.96117e-10 4.99928e-10 -8.75025e-12)
(8.8509e-11 3.63031e-12 -1.8864e-12)
(-3.97116e-11 2.94522e-12 -2.03717e-12)
(5.59993e-10 1.54712e-10 -5.98544e-12)
(3.88537e-11 -3.48083e-11 -5.45785e-13)
(3.85837e-11 -3.46768e-11 -5.41332e-13)
(1.82122e-10 2.03845e-10 -5.11174e-12)
(-3.03509e-11 -2.29471e-12 -6.79305e-13)
(-3.05567e-11 -2.06694e-12 -7.44651e-13)
(2.91367e-10 7.10476e-10 -7.6585e-12)
(2.30335e-10 1.02825e-09 -8.85681e-12)
(2.33921e-10 1.04002e-09 -1.00337e-11)
(2.32908e-10 9.34119e-10 -8.82505e-12)
(1.90724e-10 4.89035e-10 -7.30364e-12)
(-3.95712e-11 2.39174e-12 -1.74651e-12)
(8.72989e-11 3.2415e-12 -1.48236e-12)
(1.8317e-10 4.77609e-10 -7.83738e-12)
(8.57996e-11 2.96934e-12 -1.72464e-12)
(-3.94283e-11 1.84142e-12 -2.13279e-12)
(5.43233e-10 1.41761e-10 -6.53225e-12)
(3.76823e-11 -3.41484e-11 -5.9128e-13)
(3.71787e-11 -3.38065e-11 -6.84195e-13)
(1.52229e-10 1.8789e-10 -4.03156e-12)
(-2.91695e-11 -3.35013e-12 -1.02048e-12)
(-2.95845e-11 -3.02794e-12 -8.62686e-13)
(2.60661e-10 6.72078e-10 -5.28751e-12)
(2.0591e-10 9.78807e-10 -7.08038e-12)
(2.14556e-10 9.95232e-10 -8.65677e-12)
(2.18192e-10 8.92147e-10 -7.90833e-12)
(1.70641e-10 4.60971e-10 -6.73638e-12)
(-3.91879e-11 1.15644e-12 -3.09854e-12)
(8.33824e-11 2.82442e-12 -2.38607e-12)
(1.50579e-10 4.37181e-10 1.84351e-11)
(7.88647e-11 3.409e-12 -2.26932e-12)
(-4.05054e-11 2.69191e-13 -3.53479e-12)
(5.22071e-10 1.059e-10 9.48414e-11)
(3.27244e-11 -3.10381e-11 2.59924e-13)
(2.59451e-11 -2.38392e-11 4.01358e-12)
(6.51706e-11 1.6495e-10 2.60081e-11)
(-3.22569e-11 -5.55649e-12 -4.6948e-12)
(-3.01725e-11 -5.80946e-12 -2.19295e-12)
(1.81874e-10 6.07819e-10 9.0895e-11)
(1.72476e-10 8.32536e-10 1.7923e-10)
(1.6458e-10 9.02549e-10 7.16749e-11)
(2.0225e-10 7.65446e-10 1.48339e-10)
(1.71784e-10 3.36719e-10 1.55193e-10)
(-1.82778e-11 2.0622e-12 -8.46848e-12)
(2.77968e-11 6.83992e-12 -3.97079e-12)
(1.16169e-06 -4.03708e-07 7.44455e-07)
(3.00131e-06 -8.8485e-07 1.21989e-06)
(4.27124e-06 -1.22077e-06 2.55705e-06)
(6.2952e-07 -2.95645e-07 8.86784e-07)
(1.31076e-06 -1.81662e-07 -1.51574e-06)
(3.12741e-06 -6.97208e-07 -2.44449e-06)
(4.44407e-06 -9.94513e-07 -3.9868e-06)
(8.5705e-07 9.27211e-09 -1.4443e-06)
(1.05205e-05 -2.97951e-06 3.81651e-06)
(1.23514e-05 -3.55226e-06 2.30447e-06)
(1.64456e-05 -4.82966e-06 2.55751e-06)
(1.86675e-05 -5.51939e-06 4.69706e-06)
(1.06431e-05 -2.87671e-06 -5.93986e-06)
(1.24249e-05 -3.48959e-06 -4.56311e-06)
(1.65047e-05 -4.79574e-06 -5.05662e-06)
(1.8747e-05 -5.5004e-06 -7.30737e-06)
(2.80385e-05 -8.70683e-06 5.23823e-06)
(3.04814e-05 -9.59878e-06 3.03106e-06)
(3.54989e-05 -1.14139e-05 3.10881e-06)
(3.80463e-05 -1.23306e-05 5.50308e-06)
(2.80808e-05 -8.74002e-06 -8.14878e-06)
(3.05037e-05 -9.62189e-06 -5.97638e-06)
(3.55118e-05 -1.14493e-05 -6.12546e-06)
(3.80605e-05 -1.2396e-05 -8.56188e-06)
(4.82406e-05 -1.61538e-05 5.58168e-06)
(5.0805e-05 -1.71417e-05 3.18988e-06)
(4.82379e-05 -1.62353e-05 -8.6843e-06)
(5.07947e-05 -1.71945e-05 -6.27361e-06)
(9.43289e-11 -1.16034e-10 5.97711e-11)
(-9.15346e-12 -1.221e-11 -4.613e-12)
(3.22803e-12 3.22983e-12 -3.90666e-12)
(-3.0973e-10 8.35309e-11 3.91268e-11)
(6.34219e-10 -1.08262e-10 3.77388e-10)
(8.28064e-12 8.37033e-12 2.7529e-10)
(7.9864e-12 8.59681e-12 5.33681e-12)
(-1.489e-11 4.69849e-12 1.39945e-12)
(7.35071e-11 2.2562e-11 1.8938e-10)
(5.91634e-12 6.21608e-12 -4.70144e-12)
(6.75678e-12 5.16554e-12 2.00035e-12)
(6.63483e-12 3.28484e-11 1.72187e-10)
(4.49295e-12 5.0812e-12 6.96973e-12)
(-2.24153e-12 -5.21993e-12 1.01352e-12)
(1.85538e-10 1.03598e-09 5.25936e-11)
(3.32018e-10 7.75599e-10 1.28933e-11)
(1.506e-10 1.0331e-09 2.89295e-11)
(2.25897e-10 1.08695e-09 1.60824e-11)
(5.13201e-10 2.00059e-10 5.5954e-11)
(4.00677e-11 -3.04406e-11 7.05255e-13)
(4.03322e-11 -3.19345e-11 6.07029e-14)
(2.51674e-10 2.60608e-10 1.40596e-11)
(-2.78069e-11 3.69275e-12 4.17046e-12)
(-3.13191e-11 7.118e-13 -1.68245e-12)
(3.397e-11 -4.31188e-12 -1.95245e-11)
(-9.38609e-12 3.1804e-12 1.86363e-12)
(-1.42975e-11 6.28205e-12 -1.51722e-11)
(-9.58666e-13 1.33036e-11 -5.1627e-12)
(7.1113e-12 3.76591e-14 -5.49005e-13)
(4.99015e-12 -1.67907e-12 2.36863e-12)
(2.1999e-12 9.62008e-14 -3.52874e-14)
(-7.93581e-14 2.74435e-14 -2.68913e-13)
(-2.89153e-12 -5.48019e-13 1.01749e-12)
(-1.88021e-12 -1.54824e-12 1.0727e-12)
(8.01142e-13 -5.26046e-13 3.0227e-12)
(4.56398e-13 -8.94201e-14 2.58133e-12)
(6.31359e-12 1.08758e-16 -3.66868e-13)
(3.25602e-12 -1.97481e-13 2.97301e-12)
(6.3571e-12 3.90982e-15 -3.05971e-13)
(3.07141e-12 -3.74398e-14 2.87904e-12)
(-2.51119e-13 2.28362e-15 1.65923e-13)
(-3.13082e-13 -9.23383e-16 1.75293e-13)
(-3.18983e-12 2.24419e-13 7.85096e-13)
(-3.36851e-12 1.17264e-13 9.24737e-13)
(4.36871e-13 2.18711e-14 2.52455e-12)
(4.50759e-13 8.09061e-14 2.55495e-12)
(7.41098e-12 -9.55546e-14 -1.54666e-14)
(3.2626e-12 1.93343e-13 2.89835e-12)
(4.95652e-11 -1.52428e-11 1.52203e-10)
(-1.78441e-10 8.678e-10 3.46513e-10)
(-2.52111e-13 -3.87245e-15 8.05343e-14)
(-1.89499e-11 3.14957e-11 -3.10248e-12)
(5.74584e-07 -6.59034e-08 -6.20868e-07)
(4.95617e-07 -1.74365e-07 1.14523e-07)
(1.15835e-07 -1.07929e-07 2.13026e-07)
(1.57503e-09 1.61915e-08 -2.75581e-09)
(2.45011e-07 5.48355e-08 -4.79018e-07)
(9.31883e-10 -7.97015e-09 -6.68746e-10)
(2.39552e-10 1.06781e-09 -1.36662e-11)
(3.02785e-10 7.29051e-10 -1.07117e-11)
(2.34159e-10 9.56357e-10 -1.12025e-11)
(2.3663e-10 1.04791e-09 -1.10317e-11)
(5.6247e-10 1.62445e-10 -6.93754e-12)
(3.94281e-11 -3.49537e-11 -9.0193e-13)
(3.90366e-11 -3.4765e-11 -7.93842e-13)
(1.94903e-10 2.12844e-10 -7.09802e-12)
(-3.11165e-11 -1.54382e-12 -1.12609e-12)
(-3.08144e-11 -1.78312e-12 -8.98917e-13)
(4.15215e-06 -1.17326e-06 3.5141e-07)
(4.21186e-06 -1.08886e-06 -1.79331e-06)
(5.54015e-06 -1.57119e-06 1.63746e-06)
(8.68686e-06 -2.46244e-06 1.99847e-06)
(8.77559e-06 -2.36433e-06 -3.96567e-06)
(5.64577e-06 -1.4305e-06 -3.26037e-06)
(1.04739e-05 -2.93479e-06 -2.6745e-06)
(1.04322e-05 -2.97633e-06 5.40469e-07)
(2.26134e-10 1.01917e-09 -8.65368e-12)
(2.7887e-10 6.93825e-10 -6.63965e-12)
(2.27552e-10 9.15526e-10 -8.3209e-12)
(2.21065e-10 1.0079e-09 -8.70678e-12)
(5.53676e-10 1.48744e-10 -6.03198e-12)
(3.83374e-11 -3.4561e-11 -4.78606e-13)
(3.80432e-11 -3.43823e-11 -5.38907e-13)
(1.6964e-10 1.96584e-10 -4.49738e-12)
(-3.01241e-11 -2.5182e-12 -6.69294e-13)
(-2.98894e-11 -2.75759e-12 -7.39128e-13)
(1.86081e-05 -5.53959e-06 6.74636e-07)
(1.8635e-05 -5.52736e-06 -3.29085e-06)
(2.08844e-05 -6.27848e-06 2.76038e-06)
(2.55878e-05 -7.87704e-06 2.91672e-06)
(2.56211e-05 -7.88494e-06 -5.75532e-06)
(2.09302e-05 -6.26769e-06 -5.45167e-06)
(2.80179e-05 -8.74294e-06 -3.67072e-06)
(2.80037e-05 -8.73587e-06 7.59329e-07)
(1.9419e-10 9.57782e-10 -5.62379e-13)
(2.26771e-10 6.37652e-10 9.22947e-12)
(2.03534e-10 8.52979e-10 8.28164e-12)
(1.79123e-10 9.3237e-10 1.95087e-11)
(5.27525e-10 1.30588e-10 2.10139e-12)
(3.64444e-11 -3.3313e-11 -7.1995e-13)
(3.52053e-11 -3.25719e-11 -5.55979e-13)
(1.19599e-10 1.75046e-10 2.39896e-12)
(-2.85623e-11 -3.78866e-12 -1.31149e-12)
(-2.85637e-11 -4.63079e-12 -1.68039e-12)
(3.803e-05 -1.23603e-05 8.04094e-07)
(3.80345e-05 -1.23802e-05 -3.85823e-06)
(4.05831e-05 -1.32918e-05 3.15636e-06)
(4.56876e-05 -1.5205e-05 3.18089e-06)
(4.56881e-05 -1.52567e-05 -6.25928e-06)
(4.05886e-05 -1.33368e-05 -6.21503e-06)
(4.82337e-05 -1.62086e-05 -3.91575e-06)
(4.82357e-05 -1.61823e-05 8.21155e-07)
(3.24439e-10 5.67829e-10 3.37405e-10)
(1.84806e-12 9.59595e-12 3.52452e-11)
(-5.8561e-12 1.59035e-12 -3.31975e-13)
(7.14719e-12 4.42067e-11 5.08295e-11)
(5.554e-11 3.24624e-10 1.56675e-10)
(7.51255e-11 1.56031e-10 1.32981e-10)
(7.81196e-11 1.26174e-10 1.33889e-10)
(1.32996e-10 2.42927e-10 1.59525e-10)
(1.65408e-10 3.53122e-10 9.89752e-11)
(1.33188e-10 3.9198e-10 -1.28891e-11)
(1.99253e-10 5.17137e-10 -1.3273e-11)
(2.09406e-10 2.24834e-10 -9.51482e-12)
(3.1355e-10 7.4309e-10 -1.05868e-11)
(1.29966e-10 3.81202e-10 -1.14455e-11)
(1.18516e-10 3.63152e-10 -7.12764e-12)
(1.9216e-10 4.91451e-10 -7.52373e-12)
(1.79356e-10 2.01974e-10 -4.84868e-12)
(2.88555e-10 7.06177e-10 -7.13398e-12)
(1.14761e-10 3.58642e-10 -6.55838e-12)
(9.90609e-11 3.42429e-10 -6.90657e-12)
(1.74457e-10 4.6587e-10 -7.74791e-12)
(1.46375e-10 1.85115e-10 -3.3929e-12)
(2.54267e-10 6.64794e-10 -3.92775e-12)
(9.03099e-11 3.3446e-10 -5.54459e-12)
(4.87726e-11 3.11345e-10 4.19511e-11)
(1.50706e-10 3.96588e-10 9.46592e-11)
(5.58486e-11 1.55879e-10 3.27921e-11)
(1.91739e-10 5.9484e-10 1.31423e-10)
(8.14941e-11 2.75498e-10 8.88811e-11)
(1.37091e-10 7.28895e-11 3.97474e-11)
(3.28676e-11 2.99137e-10 1.73778e-10)
(2.25117e-10 3.85268e-10 9.78273e-11)
(2.01175e-10 5.40585e-10 -1.13143e-11)