/*--------------------------------*- C++ -*----------------------------------*\
| =========                 |                                                 |
| \\      /  F ield         | OpenFOAM: The Open Source CFD Toolbox           |
|  \\    /   O peration     | Version:  2012                                  |
|   \\  /    A nd           | Website:  www.openfoam.com                      |
|    \\/     M anipulation  |                                                 |
\*---------------------------------------------------------------------------*/
FoamFile
{
    version     2.0;
    format      ascii;
    class       volVectorField;
    location    "0.107/solid";
    object      sigmaMinDir;
}
// * * * * * * * * * * * * * * * * * * * * * * * * * * * * * * * * * * * * * //

dimensions      [1 -1 -2 0 0 0 0];


internalField   nonuniform List<vector> 
24998
(
(0.165678 0.705634 0.688935)
(-0.603401 0.783612 -0.147848)
(0.129051 -0.0246437 0.991332)
(0.0795243 -0.00668573 0.996811)
(0.104611 -0.461207 0.881104)
(0.0871944 0.996074 -0.0152579)
(0.0824207 0.996564 -0.00813297)
(0.0702064 0.997493 -0.00886312)
(0.0546696 0.995179 0.0814272)
(0.222786 0.71211 0.665782)
(0.0596714 0.00349865 0.998212)
(0.188428 0.982012 -0.0121535)
(0.752044 -0.647787 0.121661)
(0.147219 -0.0209706 0.988882)
(0.0847973 0.996271 -0.0159057)
(0.0704006 0.000666035 0.997519)
(0.0396805 -0.00143972 0.999211)
(0.0798386 -0.00190575 0.996806)
(0.0391125 -0.00225974 0.999232)
(0.0637942 -0.231847 0.970658)
(0.115946 -0.410786 0.904329)
(0.0536806 -0.285874 0.956763)
(0.189307 0.981836 -0.0127062)
(0.194401 0.980893 -0.00759332)
(0.0831995 0.996496 -0.00852234)
(0.194306 0.980914 -0.00734751)
(0.190987 0.981557 -0.00830355)
(0.0726051 0.997321 -0.00885926)
(0.190048 0.981739 -0.00841293)
(0.187912 0.980592 0.0559253)
(0.0447135 0.99758 0.0532358)
(0.19839 0.975462 0.0954784)
(0.956047 0.169801 -0.239042)
(0.542762 -0.0535813 0.838176)
(-0.00857958 0.461716 0.886986)
(0.056688 0.155741 0.98617)
(0.100845 0.994124 0.0393365)
(-0.0237575 -0.131069 0.991089)
(-0.0414311 -0.0607117 0.997295)
(0.123755 -0.0065468 0.992291)
(0.0878889 -0.01237 0.996053)
(0.121433 0.000170901 0.9926)
(0.138735 -0.00421142 0.990321)
(0.0823787 0.00515543 0.996588)
(0.00185427 0.00121828 0.999998)
(0.215116 0.698733 0.682273)
(0.358192 0.140281 0.923049)
(0.102667 0.993543 0.0482901)
(0.961235 -0.144211 0.23501)
(0.0857316 0.99625 -0.011666)
(0.00533977 -0.00324332 0.99998)
(0.00350319 -0.00103995 0.999993)
(0.952413 -0.0782858 0.294584)
(0.936842 -0.029558 0.348503)
(0.0791731 0.99683 -0.00787891)
(0.0153394 -0.0155769 0.999761)
(0.00897713 -0.00770088 0.99993)
(0.902994 0.00558266 0.429617)
(0.862886 0.0184964 0.505059)
(0.0595323 0.998221 -0.00337102)
(-0.13222 0.0135488 0.991128)
(0.0381823 -0.0433026 0.998332)
(0.787021 0.0267422 0.616346)
(-0.20584 0.917874 -0.339319)
(0.932072 0.339308 0.126933)
(0.0524173 0.163238 0.985193)
(0.161834 0.985752 0.0458503)
(0.489593 -0.0117335 0.871872)
(-0.079564 -0.0574239 0.995174)
(0.510501 0.0342939 0.859193)
(0.0520616 0.0864944 0.994891)
(-0.165058 -0.00963346 0.986237)
(0.468001 0.0247291 0.883382)
(0.16859 0.985538 0.0170921)
(-0.122341 0.45668 0.881179)
(0.076193 -0.0722053 0.994475)
(0.0382187 0.0908 0.995136)
(0.0583821 -0.0727339 0.995641)
(0.192458 -0.0259993 0.980961)
(0.0938237 0.995496 0.0135644)
(-0.141536 -0.022608 0.989675)
(0.0482083 -0.00552637 0.998822)
(-0.0974031 -0.00171267 0.995244)
(0.121279 -0.00482385 0.992607)
(0.123141 -0.00114247 0.992388)
(0.0467339 -0.00552859 0.998892)
(-0.0988848 -0.00129778 0.995098)
(-0.0976588 -0.000314386 0.99522)
(0.0865797 -0.0155852 0.996123)
(-0.098696 -0.000418533 0.995118)
(0.0404245 0.00110973 0.999182)
(-0.0947184 -0.0013551 0.995503)
(0.180686 0.668989 0.720976)
(0.14009 0.00119455 0.990138)
(0.0417796 -0.00153848 0.999126)
(-0.0391935 0.70525 0.707874)
(-0.0940666 -0.000411015 0.995566)
(0.0830827 -0.000603005 0.996542)
(0.00850482 0.00150294 0.999963)
(0.0819558 0.878524 0.470616)
(0.24335 0.952622 0.18246)
(0.907617 0.0784727 0.412399)
(0.314216 0.115532 0.942295)
(0.00482358 0.00595049 0.999971)
(0.197814 0.0460692 0.979156)
(0.0116126 0.00610959 0.999914)
(0.769706 0.631552 0.0932414)
(0.870192 -0.0319808 0.491673)
(0.133376 -0.0472026 0.989941)
(0.0020134 0.00101791 0.999997)
(0.00338683 -0.000931177 0.999994)
(0.0087126 0.00125547 0.999961)
(0.884213 0.0519056 0.464192)
(0.905081 0.0707189 0.419317)
(0.011823 -0.000829052 0.99993)
(0.00484121 0.00581072 0.999971)
(0.0051245 0.00507394 0.999974)
(0.011699 0.00594026 0.999914)
(0.827748 -0.0376523 0.559835)
(0.863834 -0.0343859 0.502601)
(0.0135509 0.00505204 0.999895)
(0.448521 0.885168 0.123716)
(0.959288 0.0329215 0.280503)
(0.953914 -0.0865592 0.287323)
(0.961237 -0.134249 0.240833)
(0.934593 0.0019353 0.355715)
(0.956335 0.027249 0.291001)
(0.193499 0.981049 -0.0100377)
(0.193875 0.980981 -0.00938496)
(0.0855751 0.996275 -0.0106384)
(0.0166348 -0.00326493 0.999856)
(0.881072 0.0505687 0.470271)
(0.0120607 -0.000946243 0.999927)
(0.858266 0.0412599 0.511544)
(0.00595235 0.00474516 0.999971)
(0.0051789 0.00505125 0.999974)
(0.0169851 0.00458584 0.999845)
(0.82326 -0.0375239 0.566424)
(0.013718 0.00502582 0.999893)
(0.793404 -0.0377148 0.607526)
(0.00551288 -0.00342698 0.999979)
(0.00867887 -0.00735169 0.999935)
(0.017018 -0.00346331 0.999849)
(0.82831 0.0289087 0.559524)
(0.854806 0.0398369 0.517416)
(0.0247392 -0.00765515 0.999665)
(0.00603655 0.00471075 0.999971)
(0.00729353 0.00399346 0.999965)
(0.0172591 0.00454375 0.999841)
(0.761606 -0.0411145 0.646735)
(0.789281 -0.0379546 0.612857)
(0.0226791 0.00355301 0.999736)
(0.931162 -0.00143233 0.364602)
(0.90311 -0.0229892 0.428794)
(0.907618 0.00291523 0.419787)
(0.933883 -0.0242112 0.356759)
(0.861268 -0.0422337 0.506394)
(0.898448 -0.0256893 0.438328)
(0.193447 0.981084 -0.00718922)
(0.192998 0.981171 -0.00746521)
(0.0778789 0.99693 -0.00810531)
(0.040811 -0.0164395 0.999032)
(0.824134 0.0272673 0.565738)
(0.0254204 -0.00803191 0.999645)
(0.791291 0.0158646 0.611234)
(0.0100195 0.00255683 0.999947)
(0.00741472 0.003919 0.999965)
(0.0340933 0.00152297 0.999417)
(0.757868 -0.0417362 0.651072)
(0.0231485 0.00346075 0.999726)
(0.733384 -0.0469428 0.678191)
(0.0159903 -0.0163514 0.999738)
(0.035478 -0.0399924 0.99857)
(0.0423446 -0.0172624 0.998954)
(0.744396 0.00503568 0.667719)
(0.786011 0.0143336 0.618047)
(0.0885767 -0.0414224 0.995208)
(0.0102933 0.0024331 0.999944)
(0.019171 -0.000333748 0.999816)
(0.0351837 0.00135693 0.99938)
(0.707787 -0.0538388 0.704371)
(0.730103 -0.0477484 0.681667)
(0.0696569 -0.00330524 0.997566)
(0.855376 -0.0442225 0.516116)
(0.81132 -0.0563106 0.581884)
(0.796967 0.0258717 0.603469)
(0.855895 0.0197114 0.516773)
(0.758331 -0.0671029 0.648406)
(0.804764 -0.0577512 0.590778)
(0.186365 0.982474 -0.00363457)
(0.185085 0.98272 0.00216206)
(0.0545379 0.998507 0.00290083)
(0.014958 0.0176019 0.999733)
(0.737717 0.00416847 0.675098)
(0.0946941 -0.0446137 0.994506)
(-0.157666 0.935177 -0.317153)
(-0.148718 -0.0290036 0.988454)
(0.0203571 -0.000710155 0.999793)
(0.00893284 -0.0740339 0.997216)
(0.704514 -0.0546778 0.707581)
(0.074216 -0.00390212 0.997235)
(-0.17445 0.882509 -0.436744)
(0.751635 -0.0683748 0.656025)
(-0.239618 0.835245 -0.494923)
(0.120689 0.753804 0.645921)
(0.200293 0.0996649 0.974654)
(-0.326943 0.69762 0.637522)
(0.436396 0.897443 -0.0644519)
(0.173994 0.684171 0.708263)
(0.088451 0.438966 0.894139)
(0.157711 0.943718 0.290729)
(-0.0679277 0.956335 0.284271)
(0.335738 0.498175 0.799438)
(0.264826 0.92848 0.26037)
(0.296445 -0.0915752 0.950649)
(0.0988199 -0.0388487 0.994347)
(0.355824 -0.0810725 0.93103)
(0.99996 -2.57215e-05 0.00892092)
(0.0793187 0.00278471 0.996845)
(0.999988 -0.0010384 0.00483889)
(0.537751 -0.171724 0.82543)
(0.0560292 -0.56999 0.819739)
(0.209111 -0.397847 0.893303)
(-0.0439055 0.999008 -0.00743342)
(0.210432 0.977461 -0.0169657)
(-0.138052 0.990259 -0.018145)
(0.0874541 0.996097 -0.0119175)
(0.0778245 0.996959 -0.00403773)
(-0.133067 0.991103 0.00298726)
(0.208679 0.977833 -0.0171876)
(-0.0576211 0.998335 -0.0026674)
(0.184973 0.982692 -0.0100169)
(-0.133145 0.991087 -0.00431775)
(0.0814708 0.996646 -0.00772769)
(-0.0175219 0.999845 -0.0016325)
(-0.133359 0.991063 -0.0031439)
(0.181811 0.983287 -0.00958351)
(-0.122705 0.99238 0.0112366)
(0.14814 0.98892 -0.0095839)
(-0.138022 0.99042 -0.00427612)
(0.0673287 0.997697 -0.0082775)
(-0.0530127 0.99858 0.00523748)
(-0.139966 0.990149 -0.00367869)
(0.13947 0.990192 -0.00827204)
(0.0669465 0.982646 0.172991)
(0.0163 0.99612 0.0864775)
(-0.124642 0.990906 0.0506884)
(0.0936643 0.986637 0.133318)
(-0.270156 0.939313 0.211441)
(-0.0548671 0.998413 -0.012688)
(0.0462389 0.990924 0.126217)
(0.149445 0.955178 0.255542)
(0.419206 0.669701 0.612998)
(0.154679 0.442131 0.883513)
(0.176041 0.942252 0.284905)
(-0.17957 0.949611 0.256893)
(0.361453 0.47814 0.800459)
(0.391622 0.868634 0.303491)
(0.0796904 0.17328 0.981643)
(0.0160768 0.00261977 0.999867)
(0.0530089 0.0905323 0.994482)
(0.314755 0.94916 -0.00489969)
(0.185656 0.982602 -0.00501171)
(0.420024 0.907488 -0.00671999)
(-0.0458324 0.998722 -0.0213189)
(-0.0345358 0.999366 0.00862728)
(0.274205 0.96167 -0.00178807)
(0.416179 0.90928 -0.002114)
(-0.615056 0.78848 0.00237715)
(0.138946 0.776559 0.614533)
(-0.5193 0.527003 0.672753)
(0.152964 0.0187077 0.988055)
(0.267062 -0.117948 0.956434)
(0.222708 -0.016407 0.974747)
(-0.12401 0.992231 -0.00997189)
(0.084271 0.996412 -0.00784673)
(0.198493 0.979997 -0.0143781)
(-0.133109 0.990756 -0.0261582)
(-0.00930199 0.999946 -0.00462991)
(-0.117953 0.992976 0.00920916)
(0.194655 0.98078 -0.0134034)
(0.013806 -0.0138261 0.999809)
(0.0663357 -0.023369 0.997524)
(0.0332834 -0.0130904 0.99936)
(0.0420269 -0.00379604 0.999109)
(0.00859751 -0.00176579 0.999961)
(0.0102308 -0.00244028 0.999945)
(0.0819407 -0.0105473 0.996581)
(0.999922 -0.00615889 0.0108464)
(0.999501 -0.00916121 0.0302312)
(0.00833591 -0.00124535 0.999964)
(0.0385098 0.000535188 0.999258)
(0.00811044 -0.000322789 0.999967)
(0.0573402 -0.0547444 0.996853)
(-0.109468 -0.214302 0.970614)
(-0.0106608 -0.0474801 0.998815)
(0.108652 -0.0613938 0.992182)
(0.664843 -0.0652068 0.744131)
(0.985461 0.133325 0.105312)
(-0.131368 -0.283248 0.950007)
(0.0255801 -0.367637 0.929617)
(0.205464 -0.51211 0.833983)
(0.277721 0.960602 -0.010719)
(0.417787 0.908484 -0.0105139)
(-0.0494752 0.998648 -0.015978)
(0.191077 0.98152 -0.0104141)
(-0.0449157 0.99899 0.00141237)
(0.252254 0.96766 -0.0015573)
(0.420986 0.906997 -0.0112571)
(0.278492 0.960398 -0.0087962)
(0.194458 0.98088 -0.00773754)
(0.429006 0.903265 -0.00810626)
(-0.0438664 0.999026 -0.0047595)
(-0.043307 0.999057 -0.00322338)
(0.276593 0.960919 -0.0114738)
(0.428725 0.903398 -0.00822536)
(-0.0144169 0.999893 -0.00240316)
(0.0840337 0.996425 -0.00872889)
(0.187639 0.982182 -0.0104518)
(-0.132939 0.991113 -0.00480712)
(-0.0476452 0.998857 -0.00370385)
(-0.132266 0.99121 -0.00304295)
(0.190539 0.981617 -0.0111204)
(0.276868 0.96084 -0.0114209)
(0.429217 0.903166 -0.00793685)
(-0.043947 0.999024 -0.00448842)
(0.194157 0.980946 -0.00699781)
(-0.044105 0.999022 -0.00324553)
(0.276014 0.961108 -0.00938434)
(0.429674 0.90295 -0.00784296)
(0.27291 0.961972 -0.0114309)
(0.191797 0.981402 -0.00803968)
(0.430692 0.902449 -0.00953452)
(-0.0475112 0.99886 -0.00459681)
(-0.0462571 0.99892 -0.00433253)
(0.271512 0.96232 -0.0149156)
(0.430611 0.902492 -0.0090676)
(-0.043047 0.999071 0.00188585)
(0.0746426 0.997173 -0.00863609)
(0.155331 0.987812 -0.00999451)
(-0.137423 0.990503 -0.00421626)
(-0.096224 0.995355 0.00302853)
(-0.135998 0.990701 -0.00398395)
(0.161356 0.986845 -0.0100028)
(0.269246 0.962965 -0.0143375)
(0.430856 0.90237 -0.00956832)
(-0.0479485 0.998838 -0.00483565)
(0.188966 0.981951 -0.00796752)
(-0.0495514 0.998762 -0.00443405)
(0.270262 0.962705 -0.012558)
(0.431055 0.902279 -0.00921454)
(0.266076 0.961069 0.074501)
(0.18469 0.982353 0.029548)
(0.44113 0.894083 0.0775873)
(-0.0416243 0.998529 0.0347498)
(-0.0506589 0.998628 0.0132598)
(0.161331 0.444561 0.881101)
(0.437595 0.89834 0.0386856)
(-0.181654 0.977922 0.1033)
(0.0450912 0.998524 0.0302721)
(0.0296508 0.997393 0.0657892)
(-0.132954 0.990075 0.045551)
(-0.313677 0.927069 0.205306)
(-0.142746 0.989577 0.0190208)
(0.0488227 0.997912 0.0422838)
(-0.0235948 -0.00905824 0.999681)
(0.445992 0.88264 0.148454)
(-0.0348129 0.998687 0.0375799)
(0.233985 0.955293 0.180738)
(0.0220829 0.998746 -0.0449266)
(0.120936 0.292106 0.948709)
(0.439969 0.84439 0.305668)
(-0.0531971 0.608544 0.791735)
(0.352317 -0.337286 0.872989)
(0.70798 -0.508018 -0.490594)
(0.235477 0.109598 0.96568)
(-0.400485 0.700506 0.590681)
(0.439119 -0.298472 0.847401)
(0.303213 -0.0394503 0.952106)
(0.844614 -0.399898 -0.355961)
(-0.0233125 0.609194 0.792679)
(-0.0283538 0.0626877 0.99763)
(0.349927 0.367191 0.861813)
(0.488168 0.864479 0.119864)
(0.0514554 0.475642 0.878132)
(0.0188564 -0.052005 0.998469)
(-0.0206659 0.880431 0.473723)
(0.276046 0.439107 0.854976)
(0.254626 0.959761 -0.118422)
(0.121268 0.987618 0.0995189)
(-0.165843 0.98611 -0.00910039)
(0.258485 0.965723 0.0237431)
(-0.136429 0.981527 0.134131)
(-0.127416 0.991547 -0.0245075)
(0.298698 0.953466 0.0410062)
(-0.224691 0.974176 -0.0222641)
(-0.131358 0.991055 0.0235492)
(-0.0373779 0.0128978 0.999218)
(-0.0203165 -0.0895383 0.995776)
(0.204943 0.242411 0.94828)
(0.566977 0.823091 0.0325291)
(0.553353 0.831997 0.0397622)
(0.105086 -0.0288285 0.994045)
(0.111412 -0.0185405 0.993601)
(-0.0432476 -0.0783029 0.995991)
(-0.0916001 -0.0499789 0.994541)
(0.101774 -0.0473759 0.993679)
(0.991262 -0.0543291 0.120203)
(0.51293 -0.171127 0.841201)
(0.824618 0.111807 -0.55453)
(-0.156858 -0.0991054 0.982636)
(0.127031 -0.00431124 0.991889)
(0.128154 0.000799522 0.991754)
(0.912444 0.0189751 -0.408762)
(0.915486 -0.0065546 -0.402296)
(0.0794543 -0.00210822 0.996836)
(0.999866 0.0090324 0.0136247)
(0.999986 0.0019226 0.0049591)
(0.910113 -0.0250734 -0.4136)
(0.915288 0.0028435 -0.402789)
(0.00184213 0.00432439 0.999989)
(0.447951 0.634079 0.630304)
(-0.00109956 0.00470815 0.999988)
(0.500313 0.561367 0.659207)
(-0.173487 0.984801 -0.00833606)
(-0.107644 0.994183 -0.00349416)
(0.116906 -0.303068 0.945771)
(0.215706 -0.40195 0.889892)
(0.107085 -0.573311 0.81231)
(-0.214324 0.975986 -0.0389405)
(0.179296 0.977918 0.107377)
(-0.055028 0.99848 -0.00314704)
(0.122015 -0.467382 0.875595)
(0.556103 0.829705 0.0483617)
(0.813894 -0.551612 0.182488)
(-0.036254 0.999341 -0.00175703)
(0.124806 0.990973 0.0489458)
(-0.106723 0.994283 -0.00342099)
(0.133024 -0.469673 0.872761)
(0.557179 0.830174 -0.0190421)
(0.558485 0.82938 -0.0149783)
(-0.158692 0.987266 -0.0110277)
(-0.149738 0.98871 0.00558441)
(-0.00736657 0.999962 -0.00470452)
(0.0863015 0.996204 -0.0113704)
(-0.132704 0.991117 -0.00878136)
(0.198321 0.980039 -0.0139069)
(-0.131154 0.991362 -7.00895e-05)
(-0.0344115 0.999394 -0.00533655)
(0.201244 0.979419 -0.0154577)
(-0.148628 0.98888 -0.00518889)
(-0.146722 0.989175 0.00233386)
(0.554611 0.83203 -0.0115329)
(0.556901 0.830359 -0.0191302)
(0.00437961 -0.00208669 0.999988)
(0.00424855 -0.0019468 0.999989)
(-0.3104 0.950088 -0.0313854)
(-0.225669 0.974036 -0.0180743)
(0.935744 0.334945 0.110426)
(0.946844 -0.0549319 0.316969)
(0.965472 0.227208 0.127437)
(-0.221779 0.974975 -0.0154154)
(-0.223942 0.974444 -0.0175706)
(0.974427 0.16975 0.147233)
(0.94462 -0.0479225 0.324647)
(0.96733 0.217776 0.129796)
(0.544604 0.838592 -0.0130478)
(0.54087 0.841078 -0.00692151)
(-0.148252 0.988948 -0.00169588)
(-0.148083 0.988975 -0.00083823)
(-0.0275265 0.999621 -0.000554245)
(0.0803582 0.996736 -0.0077179)
(-0.134398 0.99092 -0.003934)
(0.174878 0.984544 -0.00949328)
(-0.133588 0.991031 -0.00334994)
(-0.0658254 0.997829 -0.00184788)
(0.178389 0.983915 -0.00943688)
(-0.148956 0.988843 -0.00140817)
(-0.148354 0.988934 -0.000962787)
(0.533977 0.845472 -0.00673904)
(0.5389 0.84228 -0.0123177)
(0.0117721 -0.0111661 0.999868)
(0.0113547 -0.0106647 0.999879)
(0.967018 0.0722181 0.244255)
(0.974907 0.0841748 0.206086)
(0.973897 0.100703 0.203431)
(0.887561 0.0122567 0.460528)
(0.968638 0.0784021 0.235783)
(0.980278 0.095892 0.172797)
(0.975737 0.0858788 0.201399)
(0.957485 0.0564418 0.282909)
(0.881859 0.0141045 0.471301)
(0.967585 0.0754479 0.241013)
(0.505059 0.86301 -0.0113597)
(0.487869 0.872915 -0.00185281)
(-0.152165 0.988355 -0.000942726)
(-0.153839 0.988096 -0.000283756)
(-0.0694952 0.997486 0.0138803)
(0.0638158 0.997939 -0.00673902)
(-0.142834 0.989747 -3.76945e-05)
(0.113889 0.993493 -0.000761205)
(-0.140755 0.990039 -0.00333762)
(-0.162579 0.986121 0.0336533)
(0.12848 0.991696 -0.00570275)
(-0.156031 0.987748 0.00275333)
(-0.154706 0.98796 0.000166463)
(0.439873 0.898001 0.0103109)
(0.47887 0.877867 -0.00570476)
(0.0790098 -0.103516 0.991485)
(0.0718291 -0.0898087 0.993365)
(0.972124 -0.012754 0.234121)
(0.860362 0.0454259 0.507655)
(0.899212 0.0241222 0.436847)
(0.75294 0.0307072 0.657372)
(0.850918 0.0186613 0.524967)
(0.916497 0.0491679 0.397008)
(0.868823 0.0457139 0.493009)
(0.960979 -0.0377861 0.27403)
(0.738047 0.0334662 0.673919)
(0.842535 0.0180167 0.53834)
(0.117186 0.989827 0.08068)
(0.334696 0.936593 0.103786)
(-0.143896 0.98837 0.0491791)
(-0.0667409 0.99767 -0.014159)
(0.0757099 0.985109 0.154364)
(0.217063 0.946744 0.237823)
(-0.00568699 0.997453 -0.0710993)
(0.15054 0.977764 0.145999)
(-0.00937272 0.995767 -0.0914375)
(0.397725 0.912569 0.0950346)
(0.596862 0.569773 0.564902)
(0.467253 -0.210822 0.85862)
(0.511065 0.314062 0.800111)
(0.553144 0.792294 0.257493)
(0.173677 0.456639 0.872535)
(0.183505 0.0677901 0.980679)
(-0.194393 0.881265 0.430795)
(0.228307 0.510021 0.82931)
(-0.0150378 0.989817 0.141551)
(0.156529 0.981918 0.106474)
(-0.101705 0.994786 -0.00748721)
(0.391982 0.917727 0.0642388)
(-0.14487 0.981215 0.127398)
(0.171819 0.982435 0.072802)
(0.383898 0.914245 0.129532)
(-0.211804 0.977175 -0.0163755)
(-0.305469 0.952198 0.00275938)
(0.451212 -0.216891 0.86566)
(0.267381 0.0636512 0.961486)
(0.35207 0.341349 0.871509)
(0.582675 0.809329 0.0740082)
(0.562255 0.810717 0.163119)
(-0.135778 0.192969 0.971765)
(0.199235 -0.323437 0.925037)
(0.169208 0.22598 0.959324)
(0.0452093 -0.015216 0.998862)
(0.173309 0.0945999 0.980314)
(0.086518 0.0641626 0.994182)
(-0.00996655 0.0049145 0.999938)
(-0.122163 0.208074 0.970454)
(0.049484 0.102567 0.993495)
(0.251739 0.0865503 0.963917)
(0.108908 0.0515592 0.992714)
(0.116385 0.0892369 0.989187)
(0.275419 0.961297 -0.00719068)
(0.177854 0.984043 0.00519161)
(-0.0900362 0.995887 -0.0101687)
(0.382507 0.923535 0.0277691)
(0.0495143 0.997707 0.0461505)
(-0.0413026 0.998896 0.0223735)
(0.396055 0.918215 0.00464004)
(0.579833 0.814735 6.07582e-05)
(0.576975 0.816762 -3.42533e-05)
(-0.14245 0.989707 -0.0137167)
(-0.121347 0.992577 0.00812579)
(-0.200326 0.979622 -0.0144807)
(-0.13157 0.991125 0.0189855)
(0.567712 0.821673 0.050554)
(0.572421 0.819873 0.0119265)
(-0.658516 0.672996 0.336799)
(-0.087725 0.0670666 0.993884)
(-0.38666 0.28681 0.87649)
(-0.0846803 0.822782 0.562014)
(-0.215452 0.46698 0.857619)
(-0.0685181 0.0136131 0.997557)
(0.726677 0.262145 0.634997)
(-0.220953 0.229107 0.947993)
(0.0585253 0.020397 0.998078)
(-0.0143055 0.0147113 0.999789)
(0.1643 0.0218058 0.986169)
(0.0103954 -0.107795 0.994119)
(0.120504 0.0122417 0.992637)
(-0.0427331 -0.0353599 0.998461)
(0.114845 0.0421754 0.992488)
(0.799912 0.13802 0.58403)
(-0.157431 0.987431 -0.0139691)
(0.0885385 0.996065 0.00394202)
(-0.161174 0.986901 -0.00707872)
(0.245359 0.969413 0.00615917)
(0.0750271 0.997061 -0.0154845)
(-0.123729 0.991935 0.0274903)
(0.219555 0.975567 -0.00802698)
(0.557032 0.830398 -0.0124603)
(0.559696 0.828599 -0.0128387)
(-0.15148 0.988282 -0.0187982)
(-0.130442 0.991414 0.0090615)
(-0.207423 0.978138 -0.0148789)
(-0.140506 0.989757 0.0252685)
(0.570744 0.821007 0.014076)
(0.562923 0.826495 -0.00491122)
(-0.0121065 -0.0135622 0.999835)
(-0.105478 -0.0105901 0.994365)
(0.00570336 -0.0129804 0.999899)
(0.0603884 -0.0258955 0.997839)
(0.0158438 -0.00594483 0.999857)
(0.0281504 -0.0134722 0.999513)
(-0.100841 -0.00496897 0.99489)
(-0.00714136 -0.00445987 0.999965)
(0.00350426 -0.00755191 0.999965)
(0.120365 0.000199918 0.99273)
(0.120636 -0.00459416 0.992686)
(0.0431401 -0.00313372 0.999064)
(0.0145441 -0.00421325 0.999885)
(0.0110898 -0.00283581 0.999934)
(-0.0154411 -0.00130913 0.99988)
(-0.0987243 -0.000302375 0.995115)
(-0.0138549 -0.00190257 0.999902)
(-0.00890365 -0.00300087 0.999956)
(-0.0985606 -0.00084383 0.995131)
(-0.0128775 -0.00184249 0.999915)
(0.0825132 -0.00617601 0.996571)
(0.994472 -0.0378452 0.0979469)
(0.999265 -0.0142428 0.0356023)
(0.911493 0.0112189 -0.411163)
(0.898201 0.0373688 -0.437993)
(0.848026 0.0861736 -0.522902)
(0.894729 0.0330982 -0.445381)
(-0.0156567 -0.001254 0.999877)
(-0.0975799 -0.00106564 0.995227)
(-0.0157871 -0.000138249 0.999875)
(0.0385483 -0.000484459 0.999257)
(0.00892602 -0.000118057 0.99996)
(0.00823023 0.000277096 0.999966)
(-0.0969408 -0.000186839 0.99529)
(-0.0149453 -7.62705e-05 0.999888)
(-0.0156324 -2.60245e-05 0.999878)
(0.152298 0.0451553 0.987303)
(0.150603 0.0215989 0.988358)
(0.0513499 -0.0257897 0.998348)
(0.00898457 -0.00107063 0.999959)
(0.000864538 -0.0232327 0.99973)
(-0.171482 -0.124262 0.977319)
(-0.101468 0.0227752 0.994578)
(-0.0393286 -0.0303088 0.998767)
(-0.0149211 -0.00107226 0.999888)
(-0.0965641 0.00594013 0.995309)
(-0.025172 -0.0149779 0.999571)
(0.102354 -0.036457 0.99408)
(0.999786 0.0120509 0.0168146)
(0.991188 0.105676 0.0798725)
(-0.0145035 -0.337292 0.941288)
(0.859052 0.0766156 -0.506122)
(0.907966 -0.0167429 -0.418709)
(0.875974 0.0271044 -0.481596)
(0.126828 -0.000319781 0.991925)
(0.00803127 0.00549666 0.999953)
(0.135336 0.0024625 0.990797)
(-0.209173 -0.183957 0.96042)
(0.310825 0.816125 0.487162)
(0.291998 -0.496092 0.817698)
(0.0481677 -0.307073 0.950466)
(0.887018 0.312082 0.340299)
(0.0807179 -0.117903 0.989739)
(0.23186 -0.00224154 0.972747)
(0.269678 -0.549016 0.79111)
(0.213628 0.00133174 0.976914)
(0.914438 0.144954 0.377877)
(0.21952 0.00195572 0.975606)
(0.0111266 0.00823606 0.999904)
(0.609846 0.636865 0.471689)
(0.0886033 -0.118904 0.988945)
(0.148675 -0.001113 0.988885)
(0.318802 -0.527557 0.787431)
(0.00598325 0.00896023 0.999942)
(0.00574383 0.011223 0.999921)
(0.12665 0.00460548 0.991937)
(0.0120956 0.0109321 0.999867)
(0.124607 0.00950208 0.992161)
(0.911348 -0.00823235 0.411555)
(-0.00427602 -0.162597 0.986683)
(0.184973 0.0090107 0.982702)
(0.201018 0.000631119 0.979587)
(0.896214 -0.017182 0.44329)
(0.192524 0.00340866 0.981286)
(0.0135517 0.0138285 0.999813)
(0.0317792 -0.161974 0.986283)
(0.122326 0.0170775 0.992343)
(0.00267163 -3.15372e-05 0.999996)
(0.00277422 -0.00014368 0.999996)
(0.128601 -0.000905089 0.991696)
(0.0101172 0.000111801 0.999949)
(0.138105 -0.00196528 0.990416)
(0.893533 0.0567374 0.445399)
(0.25612 -0.000267432 0.966645)
(0.235916 0.000122025 0.971774)
(0.21625 0.000925438 0.976338)
(0.896569 0.0589504 0.438963)
(0.230059 0.000247821 0.973177)
(0.0103143 -9.31953e-06 0.999947)
(0.155905 -0.00291627 0.987768)
(0.142092 -0.00220331 0.989851)
(0.00488531 0.00529346 0.999974)
(0.00492089 0.00524821 0.999974)
(0.128076 0.00412305 0.991756)
(0.0124217 0.0053199 0.999909)
(0.134599 0.00356385 0.990894)
(0.841956 -0.0377686 0.538223)
(0.229602 -0.000633997 0.973284)
(0.216117 -0.00028519 0.976367)
(0.203211 0.000310625 0.979135)
(0.847035 -0.0375283 0.530211)
(0.212294 -0.000171873 0.977206)
(0.0125416 0.00527007 0.999907)
(0.147138 0.00330364 0.98911)
(0.137361 0.00348137 0.990515)
(0.982176 0.175274 0.067894)
(0.923626 0.379335 0.054958)
(0.969329 0.124805 0.211718)
(0.329351 0.926594 0.181524)
(0.362698 0.931662 0.0213426)
(0.984246 0.155877 0.0834443)
(0.968228 0.0724497 0.239343)
(0.838831 0.541044 0.0602804)
(0.323836 0.932834 0.157961)
(0.742584 0.668357 0.0432182)
(-0.183139 0.983045 -0.00913359)
(-0.215284 0.976467 -0.0128149)
(0.957567 -0.110463 0.2662)
(0.926631 0.36023 0.107654)
(0.800823 0.593092 0.0832189)
(0.636417 0.769286 0.0563179)
(0.958603 -0.11728 0.259471)
(0.781867 0.618315 0.0798213)
(-0.221727 0.974991 -0.0151659)
(-0.216957 0.976093 -0.013163)
(0.981809 0.176484 0.0700275)
(0.978863 0.186482 0.0839763)
(0.944278 0.012248 0.32892)
(0.983425 0.137793 0.117851)
(0.982669 0.153828 0.10343)
(0.984178 0.155046 0.0857592)
(0.947356 0.0157195 0.319795)
(0.982719 0.154903 0.101334)
(0.979933 0.173412 0.0982837)
(0.97873 0.186345 0.0858061)
(0.578132 0.815888 -0.0094585)
(0.581119 0.813796 -0.00602764)
(-0.148162 0.988921 -0.00909208)
(-0.139383 0.990232 0.0035096)
(0.283088 0.959061 -0.00791888)
(0.192777 0.981194 -0.00978641)
(-0.0440783 0.998996 -0.0080425)
(0.42639 0.904488 -0.00968356)
(-0.0430853 0.999071 -0.000773286)
(0.276913 0.960834 -0.0108502)
(0.425372 0.904964 -0.00995552)
(-0.138588 0.990341 -0.00429002)
(-0.136349 0.99066 0.00135196)
(0.583405 0.812168 -0.00459907)
(0.582236 0.812915 -0.0130582)
(0.279069 0.960206 -0.0112036)
(0.194276 0.980912 -0.00822036)
(-0.0444557 0.998988 -0.00686227)
(0.426453 0.904459 -0.00956104)
(0.273825 0.961736 -0.00911492)
(-0.0434965 0.99905 -0.00264921)
(0.427613 0.903917 -0.00901537)
(0.585487 0.810674 -0.00365241)
(0.584795 0.811098 -0.0116314)
(-0.13761 0.990484 -0.00213939)
(-0.136938 0.990579 -0.000917259)
(-0.139383 0.990233 -0.00329647)
(-0.137422 0.990513 -0.000323327)
(0.583132 0.812287 -0.0120687)
(0.584528 0.811362 -0.00439947)
(-0.0464766 0.998908 -0.00473678)
(0.0849705 0.996341 -0.00924245)
(-0.1334 0.991037 -0.00702822)
(0.197392 0.980237 -0.0130775)
(0.00859764 0.999957 -0.00341486)
(-0.132416 0.991191 -0.00238655)
(0.194353 0.980857 -0.0120807)
(0.546195 0.837621 -0.00785743)
(0.549486 0.83538 -0.0143713)
(-0.148037 0.988979 -0.00220333)
(-0.147476 0.989065 -0.000585931)
(-0.149722 0.988722 -0.00345642)
(-0.147797 0.989018 7.98544e-05)
(0.553351 0.832789 -0.016302)
(0.551071 0.834403 -0.00960427)
(0.0142416 -0.00204286 0.999896)
(0.205736 -0.00594826 0.978589)
(0.184781 -0.00454686 0.982769)
(0.263607 -0.000433286 0.96463)
(0.871528 0.0467211 0.488115)
(0.28799 -0.00111381 0.957633)
(0.0139436 -0.00189428 0.999901)
(0.161098 -0.0031848 0.986933)
(0.178419 -0.0041583 0.983946)
(0.324396 -0.00255035 0.945918)
(0.868285 0.0454193 0.493982)
(0.296699 -0.00141056 0.95497)
(0.00555639 0.00490558 0.999973)
(0.0054907 0.00492942 0.999973)
(0.0152788 0.00482234 0.999872)
(0.183136 0.00234815 0.983085)
(0.167945 0.00284386 0.985792)
(0.234684 -0.0007793 0.972071)
(0.810218 -0.037289 0.584941)
(0.251463 -0.00135915 0.967866)
(0.0150646 0.0048509 0.999875)
(0.15086 0.00323869 0.98855)
(0.163345 0.00296831 0.986565)
(0.277151 -0.00254264 0.960823)
(0.805967 -0.037297 0.590784)
(0.257534 -0.00160594 0.966268)
(0.00676689 -0.00498121 0.999965)
(0.00698473 -0.00523211 0.999962)
(0.213367 -0.00651227 0.97695)
(0.0201102 -0.00511795 0.999785)
(0.238387 -0.00847417 0.971133)
(0.840206 0.0337671 0.541214)
(0.407293 -0.0076415 0.913266)
(0.374972 -0.00536673 0.927021)
(0.334098 -0.00302905 0.942533)
(0.84398 0.0353345 0.535209)
(0.36448 -0.00470759 0.931199)
(0.0206099 -0.00538786 0.999773)
(0.277147 -0.0118646 0.960754)
(0.247473 -0.00923114 0.968851)
(0.00653792 0.00444394 0.999969)
(0.00663193 0.00439193 0.999968)
(0.18871 0.002126 0.98203)
(0.0194412 0.00416845 0.999802)
(0.207096 0.00132076 0.97832)
(0.773175 -0.0394661 0.632964)
(0.340756 -0.00667098 0.940128)
(0.314819 -0.00482435 0.949139)
(0.284182 -0.00293108 0.958766)
(0.777135 -0.0389972 0.628124)
(0.306757 -0.0042883 0.951778)
(0.019788 0.0041045 0.999796)
(0.236376 -0.000185696 0.971662)
(0.213857 0.00099564 0.976864)
(0.984987 0.111975 0.131386)
(0.983288 0.140693 0.115545)
(0.983599 0.134713 0.11994)
(0.920078 -0.0111777 0.391576)
(0.984552 0.110994 0.135417)
(0.980285 0.170366 0.100087)
(0.98294 0.144742 0.113484)
(0.984292 0.0827186 0.155969)
(0.916085 -0.0142468 0.400732)
(0.984615 0.107461 0.13779)
(-0.382812 0.922896 -0.041458)
(0.986411 0.0781895 0.144501)
(0.92012 -0.00679332 0.391577)
(0.974381 0.104123 0.19935)
(0.976188 0.129781 0.173823)
(0.974858 0.164861 0.149908)
(0.923856 -0.0106132 0.382592)
(0.976229 0.133741 0.170562)
(0.980813 0.0967769 0.169236)
(0.985334 0.0861982 0.147262)
(0.985103 0.107934 0.133875)
(0.985001 0.0790745 0.153365)
(0.87813 -0.035687 0.477089)
(0.976849 0.0284848 0.212024)
(0.981455 0.0521028 0.184478)
(0.984113 0.0793742 0.158814)
(0.883457 -0.0333003 0.467327)
(0.981921 0.0555196 0.180964)
(0.982405 0.0458646 0.181045)
(0.984831 0.0749908 0.156473)
(0.585463 0.810622 -0.0111745)
(0.586319 0.810073 -0.0036199)
(-0.137732 0.990468 -0.00193862)
(-0.137483 0.990504 -0.00102429)
(0.276187 0.961061 -0.00913676)
(0.193857 0.981005 -0.00700884)
(-0.0449856 0.998979 -0.004062)
(0.430118 0.902737 -0.0080536)
(-0.0442561 0.999014 -0.00353055)
(0.274766 0.961432 -0.0123548)
(0.430021 0.902786 -0.00770973)
(-0.138069 0.990421 -0.00159606)
(-0.13751 0.9905 -0.00128296)
(0.587031 0.809555 -0.00394874)
(0.586395 0.809948 -0.0112073)
(0.273445 0.961793 -0.0135318)
(0.192468 0.981273 -0.00768756)
(-0.0451733 0.99897 -0.00420009)
(0.430259 0.902667 -0.00832089)
(0.274201 0.961617 -0.0102988)
(-0.045941 0.998936 -0.0040466)
(0.430445 0.902574 -0.00877337)
(0.588667 0.808357 -0.00548728)
(0.587879 0.80885 -0.0126017)
(-0.13975 0.990185 -0.00164017)
(-0.138845 0.990313 -0.00161697)
(-0.138194 0.990404 -0.001679)
(-0.138618 0.990345 -0.00142593)
(0.587048 0.809467 -0.0117407)
(0.587822 0.808976 -0.00474265)
(-0.0789275 0.99688 -0.000202823)
(0.0763862 0.997044 -0.00831442)
(-0.134688 0.99088 -0.00392036)
(0.170968 0.985229 -0.00968533)
(-0.0340922 0.999419 0.000199611)
(-0.135566 0.990761 -0.0038283)
(0.166502 0.985992 -0.0098106)
(0.51037 0.859933 -0.00614591)
(0.521072 0.853423 -0.0124165)
(-0.151532 0.988452 -0.00107235)
(-0.150344 0.988633 -0.00107288)
(-0.149256 0.988798 -0.00126549)
(-0.149864 0.988706 -0.00108856)
(0.531502 0.846966 -0.01239)
(0.524543 0.851357 -0.0067805)
(0.0321662 -0.0117424 0.999414)
(0.374854 -0.0216405 0.926831)
(0.335099 -0.0174875 0.942021)
(0.41827 -0.00849581 0.908283)