/*--------------------------------*- C++ -*----------------------------------*\
| =========                 |                                                 |
| \\      /  F ield         | OpenFOAM: The Open Source CFD Toolbox           |
|  \\    /   O peration     | Version:  2012                                  |
|   \\  /    A nd           | Website:  www.openfoam.com                      |
|    \\/     M anipulation  |                                                 |
\*---------------------------------------------------------------------------*/
FoamFile
{
    version     2.0;
    format      ascii;
    class       volScalarField;
    location    "0.107/solid";
    object      sigmaMin;
}
// * * * * * * * * * * * * * * * * * * * * * * * * * * * * * * * * * * * * * //

dimensions      [1 -1 -2 0 0 0 0];


internalField   nonuniform List<scalar> 
24998
(
-462.388
11.7547
-412.546
-239.108
-417.023
-1273.03
-1191.2
-1122.54
-998.775
-445.23
-410.689
-1412.16
14.0519
-424.162
-1303.75
-415.587
-260.574
-240.165
-258.723
-370.457
-373.683
-469.998
-1384.91
-1309.3
-1199.2
-1301.12
-1242.58
-1133.86
-1231.01
-1110.8
-1022.49
-1070.94
-5.39161
-850.275
-314.935
-704.593
-1285.51
-436.62
-422.864
-274.378
-272.966
-268.879
-263.228
-241.07
-1.29095e+06
-606.415
-1.17814e+06
50718.5
-30786
-1235.83
-679778
-957011
-33094.1
-36144.4
-1169.39
-196336
-398481
-38331.6
-36551.8
-1080.58
-504.686
-41794.3
-25091.7
-1125.41
-11.3985
-702.968
-1383.42
-737.391
-456.687
-1084.27
-688.33
-551.72
-852.456
-1421.04
-272.91
-409.044
-680.547
-332.537
-344.618
-1313.33
-498.726
-291.36
-356.526
-269.409
-273.989
-286.896
-351.268
-356.046
-269.803
-350.061
-260.079
-345.592
-473.518
-262.887
-262.871
-421.922
-345.107
-242.49
-1.23335e+06
-695.669
51853.4
-49839.9
-635661
-1.30896e+06
-1.47548e+06
-1.26441e+06
17225.7
-72407.1
-1.63568e+06
-1.27086e+06
-976136
-1.21382e+06
-52427.5
-50200.7
-930770
-1.28903e+06
-994014
-1.24522e+06
-74474.9
-72758.3
-961770
63933.3
-49387.6
-32705.5
-31411.6
-48423.7
-49168
-1346.44
-1334.44
-1223.67
-647250
-52917.9
-912442
-55603.9
-695665
-974809
-674793
-74901.5
-943303
-76701
-662090
-413697
-630346
-54830.8
-55775.8
-393580
-677799
-425786
-657577
-72821.1
-76641.4
-414536
-48811.5
-52213.8
-38277.3
-36533.8
-53807
-52638.9
-1278.86
-1270.73
-1161.43
-187269
-54336.1
-379102
-47720
-203191
-410278
-199156
-71726.5
-399545
-59700.2
-184824
-48195.3
-176367
-31543.7
-46258.3
-47293.6
-191341
-50123.2
-187662
-36209.3
-57332.3
-50659.2
-53624.3
-48646.1
-27106.1
-35894.7
-32714.2
-47317.9
-1187.38
-1170.22
-1064.87
-334.248
-28719.2
-41256.6
-1069.07
-503.708
-43483.3
-370.16
-32569.6
-44205.1
-982.349
-29829.4
-1055.15
-151.933
-522.769
-621.783
-1005.59
-412.432
-716.282
-814.035
-1053.71
-426.211
-721.755
-83.8147
-358.323
-63.1473
23.3449
-235.97
24.2687
-25.0331
-3512.76
-73.0726
-585.06
-899.985
-1454.74
-1256.67
-624.679
-1442.17
-883.914
-525.184
-817.88
-1382.67
-1183.92
-539.124
-1372.39
-811.025
-465.524
-754.773
-1314.56
-1109.85
-487.955
-1294.69
-743.427
-448.799
-652.32
-1178.73
-933.101
-425.269
-1081.59
-619.594
-591.353
-361.717
-734.271
-825.761
-1173.18
-365.283
-659.527
-442.839
-626.139
-630.032
-476.844
-1432.74
-991.885
-1576.66
-1628.77
-470.534
-1003.76
0.148473
3.57201
-79.7497
-544.883
-109.841
-303.273
-643.478
-1329.37
-914.776
-1483.15
-618.806
-1548.81
-933.014
-594.22
-383.798
-500.286
-269.287
-417.416
-425.372
-250.396
23.073
19.6737
-415.601
-255.9
-412.878
-288.081
-490.56
-441.639
-266.31
-11.6428
14.0612
-512.752
-3113.16
-693.376
-439.954
-981.644
-1550.93
-1367.8
-1532.52
-483.183
-967.595
-405.865
-1317.29
-919.234
-1475.36
-1488.6
-399.011
-925.199
-551.552
-1207.19
-824.994
-1387.33
-537.134
-1400.51
-832.413
-388.795
-913.233
-1470.56
-1293.61
-1459.76
-398.227
-907.16
-371.103
-1252.88
-867.254
-1407.09
-1422.87
-361.896
-875.21
-503.032
-1143.97
-765.006
-1320.41
-485.112
-1336.08
-774.184
-348.2
-858.324
-1401.19
-1217.96
-1381.03
-360.794
-848.301
-296.071
-1133.55
-768.038
-1260.63
-1299.56
-288.452
-783.839
-420.604
-1036.07
-669.721
-1190.71
-415.211
-1219.03
-678.142
-575.333
-744.625
-1242.98
-981.705
-1124.52
-308.659
-719.087
-80.882
-145.453
-344.721
-411.418
-1475.89
-219.014
-8127.04
-687.291
-254.404
-896.093
-513.619
-687.655
-616.027
-794.405
-812.471
-533.284
-894.055
-1176.19
-1442.63
-985.532
-1294.1
-725.182
-985.843
-1356.99
-1284.15
-924.402
-733.328
-773.392
-729.821
-759.833
-286.491
-282.387
-78.1534
-63.4119
-339.168
9.97727
-43.4896
8.98813
-47.6358
-265.975
-265.629
23.6507
24.5559
-236.122
22.6849
24.222
23
24.4937
-1.43322e+06
-11000
-1.46821e+06
-13736.5
-2544.47
-3378.06
-28.8241
-166.073
-3816.28
-24142.1
250788
-7197.19
-1102.31
-6097.29
-18373.4
-6833.1
275431
-2916.82
-769.74
-637.8
-616.407
-1371.57
-1365.45
-586.228
-1247.51
-1422.74
-858.724
-1444.24
-565.639
-869.712
-1344.82
-1368.25
-592.653
-607.974
-806664
-825173
-1853.1
-2004.12
-6147.85
-34407.7
-7314.98
-2205.65
-2027.78
-8905.25
-34857.1
-7504.37
-556.478
-546.273
-1305.74
-1296.05
-527.261
-1176.87
-1357.5
-797.446
-1369.15
-513.69
-804.314
-1281.35
-1292.84
-532.473
-542.693
-284175
-297697
-10127.3
-8172.01
-12546.5
-38088.7
-13978.2
-5817.09
-7880.53
-15354.1
-37845.4
-14169.9
-493.469
-476.982
-1239.09
-1219.47
-468.964
-1095.78
-1262.76
-716.994
-1287.36
-440.808
-730.832
-1187.76
-1212.06
-447.897
-470.429
-5758.29
-8638.31
-4119.29
-9596.58
-15282.4
-17520.3
-11725.1
-12539.2
-10264.9
-3695.7
-14344.1
-10880.3
-367.493
-333.034
-1107.88
-1039.44
-426.92
-862.087
-1020.89
-496.606
-986.946
-326.346
-140.149
-112.855
-268.965
-531.763
-647.538
-634.435
-965.414
-362.273
-667.01
-1234.85
-1558.76
-971.598
-1411.16
-609.364
-869.444
-1522.22
-1467.22
-204.198
-582.172
-331.084
-741.331
-603.025
-617.324
-7769.63
-628.318
-1054.26
-624.326
-678.783
-654.609
-564.375
-643.559
-614.953
-1079.93
-651.444
-515.289
-1432.39
-1548.15
-1022.95
-693.304
-1607.68
-1024.01
-788.593
-789.582
-1545.06
-1608.44
-1503.65
-1583.56
-782.25
-798.968
-34.5218
-761.051
-200.675
3.7261
-149.504
-793.351
-294.972
-268.945
-597.803
-558.586
-351.754
-102.992
-296.511
-486.706
-314.087
-342.424
-647.73
-1327.32
-1437.89
-978.904
-738.128
-1524.08
-958.619
-640.428
-658.794
-1400.86
-1476.75
-1347.58
-1448.95
-730.465
-678.372
-624.637
-367.969
-494.844
-340.224
-446.479
-484.33
-360.97
-463.775
-485.753
-272.378
-272.745
-273.107
-440.917
-428.64
-442.118
-354.483
-448.738
-459.718
-355.119
-451.086
-252.555
11.9407
18.9328
23.3197
19.8895
11.4298
19.0382
-440.461
-347.427
-437.914
-256.091
-416.499
-413.02
-346.862
-440.808
-438.013
-260.675
-260.83
-278.809
-419.013
-433.437
-478.528
-344.904
-461.291
-442.746
-344.997
-454.833
-261.557
22.1215
15.7833
-13.7529
13.9859
22.3516
16.002
-607019
-1.37567e+06
-673790
-441.717
-10467.3
134.792
-10635.7
-36000.8
-406203
-465842
-470.97
-417462
-40981.4
-457558
-1.42242e+06
-18057.7
-611394
-691108
1633.69
-1.44489e+06
-1.4699e+06
-669632
-1.3954e+06
-724074
-54377.9
-552572
-518395
-481378
-62514.3
-514250
-1.41919e+06
-783812
-733232
-1.13159e+06
-1.11193e+06
-586874
-1.0798e+06
-529455
-51120.6
-318154
-353798
-404173
-50807
-366011
-1.06093e+06
-457071
-511032
-1.14994e+06
-1.13024e+06
-650661
-1.1116e+06
-593828
-73356.5
-380561
-418105
-468874
-73118.3
-430732
-1.09266e+06
-519665
-575127
-25009.2
-13313.3
-31943.3
255603
-786.279
-19566.5
-40697.6
-4606.02
240260
-6724.42
-2525.6
-2411.08
-31880.6
-6017.04
-5607.29
-6106.1
-31756.3
-5636.29
-2230.74
-2392.61
-24491.9
-20766.5
-47886.8
-15882.1
-16531.6
-19324.6
-48005.8
-16771.6
-19125.4
-20415.1
-788.842
-777.923
-1517.62
-1505.66
-432.466
-1357.72
-1512.45
-947.352
-1533.03
-423.322
-955.464
-1483.75
-1506.84
-766.488
-772.652
-407.287
-1324.98
-1503.76
-939.927
-423.948
-1491.28
-932.09
-747.247
-753.432
-1447.43
-1461.2
-1474.62
-1463.78
-764.347
-756.415
-549.545
-1214.64
-1413.9
-849.315
-568.532
-1402.91
-840.481
-560.074
-571.007
-1310.48
-1323.93
-1335.6
-1326.15
-588.492
-575.475
-768529
-321881
-370941
-306559
-54313.7
-272620
-786244
-439460
-387764
-229575
-54713.1
-261607
-823614
-842251
-797922
-376606
-429314
-368154
-76044.5
-331266
-815855
-501381
-447158
-283000
-76325.1
-319092
-541858
-525261
-306045
-515636
-260308
-55740.6
-152749
-179979
-219258
-55868.7
-189491
-499806
-203955
-245696
-556081
-539242
-359350
-540290
-308700
-75240.1
-191225
-224698
-271138
-75775.2
-236135
-524040
-244416
-292245
-19287.4
-19033.3
-15896.5
-50245.7
-16382.7
-19059.2
-19005.6
-17300.7
-50759.6
-16485.9
-1840.44
-3249.67
-37785.3
-12334.3
-10825.2
-9114.86
-37528.3
-10609.5
-5525.41
-3525.64
-19323.1
-19532.1
-53770.3
-19118.2
-18373.5
-17421
-53587.5
-18259.2
-19595.8
-19549.1
-744.897
-737.972
-1442.53
-1432.34
-388.014
-1286.44
-1444.68
-895.518
-1456.48
-381.505
-901.347
-1417.27
-1429.04
-728.548
-735.37
-372.184
-1262.13
-1440.4
-889.235
-380.639
-1427.46
-882.463
-704.927
-714.444
-1380.11
-1395.73
-1412.94
-1400.31
-725.799
-717.682
-500.606
-1153.04
-1353.31
-790.18
-515.829
-1340.63
-782.486
-498.884
-512.692
-1244.94
-1260.29
-1277.13
-1264.83
-528.636
-517.093
-270520
-109842
-142038
-144117
-52219.9
-119561
-283356
-190780
-153614
-89910.3
-51284.3
-111822
-293415
-307270
-286536
-131644
-170992
-180383
-67529.6
-148987
-299947
-229046
-184949
-110228
-65815
-138939
-112194
-103024
-99964
-107689
-72891.7
-38876.6
-40169.5
-57472.5
-83030
-40966.3
-63580.3
-99022.8
-42610.7
-64714.2
-116404
-106931
-119439
-114998
-85834.1
-46221.4
-45900.9
-67799
-101172
-49244.2
-75701.1
-105800
-48526.2
-75685
-18923.8
-19370.5
-19212.3
-52340.4
-19760.3
-19586.3
-19411.2
-20020.9
-51650.3
-19817.7
-10386.9
-11929.2
-31903
-15525.1
-16139.2
-15492.5
-33132
-16117
-12605
-12096.2
-18833.5
-17986.2
-40149.4
-17700.8
-19446.2
-20011.8
-42228.2
-19580
-16069.9
-17817
-700.974
-689.41
-1374.18
-1354.03
-346.691
-1203.42
-1348.35
-824.937
-1373.62
-329.135
-837.156
-1320.72
-1346.54
-671.926
-684.65
-300.027
-1152.28
-1339.44
-811.798
-326.758
-1309.55
-798.081
-655.879
-653.278
-1231.33
-1270.82
-1312.09
-1281.27
-666.879
-656.759
-415.593
-1049.74
-1254.24
-702.524
-444.668
-1227.38
-688.959
-379.246
-401.408
-1116.82
-1143.43
-1179.05
-1151.9
-438.394
-410.607
-7065
-326.056
-12944.8
-34705.6
-18975.8
-19067.1
-9855.01
-36006.8
-18250.7
-354.023
-15180.5
-14029.8
-6007.91
-9014.29
-7557.84
-217.302
-13957
-39201.7
-20791.6
-20816.2
-10555.6
-40574.6
-19887.6
-215.408
-16483.1
-15163.3
-4269.82
-10676.8
-17290.6
-19928.9
-12651.3
-15694.5
-11550.3
-3949.51
-16138.8
-11677.9
-658.72
-736.083
-1216.04
-1124.02
-631.364
-900.047
-1061.97
-794.964
-1070.4
-824.08
-330.079
-574.043
68.8937
15.054
-332.089
-397.265
-331.839
-169.032
-237.706
-167.005
-303.473
-822.694
-539.844
-414.871
-542.795
-548.556
53.7324
25.3099
21.3978
23.5942
-466.582
-336.052
-375.849
-520.396
-416.748
-493.599
-263.064
-355.414
-358.025
-244.559
-169.876
-173.334
-353.479
-257.362
-352.091
-325.517
-484.288
-428.072
-297.819
-268.13
-218.461
-607.097
-694.622
-865.269
-102.167
-30.2116
-25.0124
-5.79781
-54.0117
-71.1645
-65.81
-364.848
-630.718
-587.319
-1211.35
-514.416
-806.648
-601.598
-706.693
-272.625
-576.759
-411.427
-663.79
-512.272
-327.781
-1169.41
-518.586
-688.542
-747.296
-1404.33
-834.492
-802.977
-912.645
-337.327
-630.869
-521.631
-632.29
-449.905
-765.125
-69.2476
-338.225
-25.9071
-276.169
-13.0401
-12.4464
-285.273
-200.242
-211.904
-12.8393
-267.986
-11.7921
-264.818
-9.08926
-9.46607
-238.839
-170.987
-168.06
-1.35115e+06
-304.134
-1953.34
-1211.1
-1.55584e+06
-98203.8
-52594.4
24591.9
26700.2
45279
-36175.5
96946
23984.4
-1365.33
-18196.6
-29035.9
-15189.3
481528
33675.5
-733547
-900056
14920.6
15549.6
-20010.4
-33515.7
-20595.8
17947.7
17329.2
-23784.9
-35732.5
-23081.3
-232475
-354028
4267.22
5961.38
-27788.6
-38322.2
-28167.2
10470.3
9531.09
-28723.3
-37085
-28905.6
485.785
-24977.2
-3757.04
-3824.98
-22645.9
-22836.4
-20038
-4082.91
-4929.23
-1533.4
-6194.55
-7766.41
-732.882
-646.393
-912.599
-542.823
-6.03519
-59.2475
-22.045
-11.0489
-45.8383
-82.5638
-188.005
-998.601
-506.324
-695.026
-707.167
-1425.65
-792.501
-733.209
-269.535
-745.14
-497.205
-629.943
-370.928
-619.282
-440.777
-100.109
-540.708
-320.748
-1524.15
-738.471
-1825.42
-1122.66
-1054.67
-708.403
-1791.29
-637.416
-582.11
-648.536
-637.832
-777.751
-728.789
-857.777
-700.121
-655.092
-728.289
-305.408
-187.618
-489.701
-379.35
-601.458
-336.846
-188.455
-535.774
-337.055
-544.214
-408.858
-570.976
-386.826
-494.988
-266.471
-321.112
-370.589
-270.334
-419.356
-291.555
-276.758
-327.669
-323.903
-362.288
-292.435
-409.395
-271.035
-326.036
-601.53
-436.932
-541.119
-296.982
-387.075
-393.612
-357.517
-454.768
-455.638
-12.8469
-271.093
-12.5202
-13.4226
-273.809
-12.7934
-282.233
-382.436
-377.741
-447.502
-352.485
-448.848
-454.317
-355.835
-453.712
-262.486
-197.419
-189.857
-446.09
-349.137
-444.819
-258.215
-354.884
-353.045
-346.145
-443.871
-443.487
-185.983
-279.989
-34.3192
-8.71839
-262.316
-6.82506
-266.828
-357.805
-361.95
-467.405
-348.527
-452.34
-444.41
-344.992
-445.369
-249.128
-172.378
-177.969
-966579
-1.29227e+06
-1.01392e+06
-524.214
-1563.92
-936.575
-263596
2728.29
-15385
-50078.7
-22962.2
-110800
-48750.5
-111674
-1.55866e+06
74731.3
-914551
-1.16512e+06
-167763
-1.36807e+06
-1.38409e+06
-996570
-1.32132e+06
-1.04299e+06
-8993.24
-104183
-93766.9
-154238
-71212
-154432
-1.39907e+06
-1.19601e+06
-1.14527e+06
-1.21088e+06
-1.03394e+06
-949451
-1.15597e+06
-904744
-51950.8
-101269
-102335
-109487
-50403.1
-108146
-986148
-728758
-770837
-1.22927e+06
-1.05204e+06
-980946
-1.1878e+06
-935585
-74059
-141822
-143558
-153179
-72887.1
-151774
-1.01752e+06
-758905
-802116
-35205
-38607.8
9183.63
142430
35599.5
-27334
-48745.7
-25696
110773
-25794.8
23942.9
22229.2
-32363.7
-19686.3
-19269.4
-18625.2
-31632.2
-18746
18167.4
18894.7
-34040
-30970.5
-48124.8
-26135.1
-25859.2
-27356.1
-48726.2
-26666.5
-25354.3
-26058.8
-698616
-508534
-547562
-100191
-53404.8
-99087.5
-857908
-713516
-672071
-91530.7
-55365.4
-92924.9
-749929
-917581
-727021
-535321
-575615
-140039
-75317.4
-138200
-888292
-744214
-701629
-125560
-76660.7
-127887
-609748
-460471
-494693
-580388
-456739
-55226.3
-78005.5
-79944.5
-90073
-55881.8
-88554.4
-438085
-312327
-346118
-624866
-473415
-521499
-606594
-482208
-73769.1
-103200
-106371
-123138
-76469.2
-120608
-460520
-332609
-367983
-23425.6
-23784.4
-26366.5
-49256.1
-26890.6
-25174.6
-24743.3
-29940.2
-51750.1
-29206.2
14703
14015.8
-38163.5
-27523.9
-27033.5
-24153.6
-36899.1
-24834.7
10775.1
11655.7
-23291.7
-22839.4
-53893.8
-33488.5
-33031.2
-30263.3
-53011.2
-30969.3
-20172.6
-20971
-221494
-153454
-179417
-75990.6
-53739.4
-73895.4
-336848
-300646
-268568
-59524.7
-49040.9
-62148.7
-240361
-364897
-235163
-164764
-192416
-99920.5
-70482.5
-96537.9
-355687
-320477
-286754
-74156.5
-61903.2
-78120
-151952
-69616.4
-144793
-145267
-121185
-34171.6
-34729
-38228.5
-56803.4
-44649.4
-53979.6
-67488.9
-45575.1
-61215.8
-157453
-72346.4
-155419
-154810
-130187
-39701.4
-39749.7
-44268.4
-70106.1
-54801
-65977
-72234.5
-48598.8
-65409.9
-14766.6
-15876.2
-33688.7
-53320.8
-33995.8
-19887.8
-18977.7
-33712.5
-49812.5
-34147.1
3706.36
2036.53
-28901.4
-23330
-25213.9
-28708.7
-35116.2
-28233.5
-3724.65
-2493.1
-14395.1
-13275.8
-35400.7
-25902.5
-28319.3
-33563.7
-45805.2
-32758.1
-9180.45
-10137.6
-543.605
-192.358
-2940.22
-31104.3
-25693.8
-27350.7
-25384.9
-40780.6
-27997.9
-783.745
-5884.27
-5247.75
480.549
-26011.3
-592.46
-174.501
-3017.49
-35184.5
-28790.5
-30582
-27211.6
-43294.9
-29627
-646.375
-6429.42
-5770.57
-3387.67
-3713.88
-25015.8
-26737.1
-21864.9
-8867.25
-7915.75
-1795.67
-7057.35
-8294.75
-980.231
-667.176
-946.908
-786.979
-214.763
-208.98
-215.823
-167.656
-222.835
-339.472
-161.784
-293.277
-300.304
-662.878
-594.119
-622.103
-298.694
-696.41
-349.328
-706.123
-292.494
-845.875
-477.156
-920.319
-1037.8
-815.899
-862.336
-794.916
-773.054
-891.561
-704.22
-451.684
-443.612
-481.936
-613.616
-625.132
-551.273
117.252
-275.375
-56.0689
-267.04
-391.964
-287.675
-325.671
-60.1219
-225.796
-261.505
-108.194
23.9855
-106.056
-237.221
-166.143
-166.625
24.048
-105.589
-105.766
-225.247
-68.0831
-409.095
-942.776
-1807.56
-768.813
-119.993
-1276.01
-626.748
-983.458
-610.685
-945.393
-746.725
-751.08
-943.994
-980.877
-993.371
-609.18
-767.036
-956.855
-1001.65
-762.268
-946.559
-917.421
-533.221
-881.777
-684.11
-685.804
-884.318
-915.448
-921.687
-531.303
-691.703
-890.482
-923.895
-690.095
-887.515
-854.511
-478.903
-815.669
-625.391
-628.418
-821.134
-850.418
-861.526
-475.883
-637.924
-832.063
-865.141
-635.323
-827.178
-742.487
-454.827
-713.986
-536.596
-549.754
-733.384
-712.304
-764.199
-436.988
-559.134
-744.852
-771.903
-559.901
-742.814
-847.091
-1152.52
-545.79
-652.816
-684.614
-838.939
-896.076
-635.411
-330.112
-403.255
-493.619
-528.666
-629.905
-525.326
-437.19
-568.545
-556.282
-593.528
-640.439
-604.055
-606.496
-643.736
-607.78
-1141.63
-1196.69
-439.613
-728.767
-1145.94
-721.223
-1192.13
-1129.84
-460.441
-712.059
-1173.25
-1123.02
-712.196
-1183.25
49.8163
4.44415
0.852367
31.7213
4.09075
27.5425
83.5497
30.3617
-66.4482
-17.1502
-54.6138
13.5108
24.3678
-51.4312
-29.918
-21.684
-9.59082
-34.0941
3.61831
-483.744
-444.637
-394.24
-278.898
-216.675
-303.003
-373.883
-235.097
-316.896
-1046.16
-615.618
-1041.55
-803.089
-1052.45
-795.79
-1031.58
-1031.1
-619.598
-777.812
-978.374
-1017.91
-783.085
-1005.41
-563.339
-553.444
-528.702
-411.616
-476.696
-493.093
-521.355
-502.051
-515.705
-265.943
-364.512
-361.045
-392.066
-419.935
-394.79
-400.893
-422.593
-397.725
-246.128
-179.422
-174.696
-108.888
21.8396
-111.742
-117.506
21.42
-112.905
-390.136
-414.442
-388.916
-256.388
-350.502
-351.043
-413.508
-387.256
-387.921
-302.011
-384.579
-400.247
-498.617
-466.886
-455.993
-419.729
-452.423
-433.554
-286.647
-194.401
-210.611
-194.17
5.82665
-151.617
-130.761
8.26135
-144.88
-578.301
-540.743
-724.988
-1352.95
-2558.73
-1477.28
-407.96
-1457.94
-962.66
-1092.82
-1131.24
-459.664
-683.377
-690.071
-1135.86
-1088.47
-1103.57
-473.684
-706.648
-1157.92
-1111.42
-702
-1145.47
-1042.12
-1088.93
-401.657
-643.091
-1044.28
-641.782
-1085.58
-1037.58
-402.341
-636.355
-1078.87
-1035.31
-638.189
-1081.69
-935.742
-542.467
-905.402
-704.429
-937.924
-702.674
-902.4
-930.997
-544.636
-696.137
-894.437
-928.553
-697.99
-898.128
-1023.86
-1065.21
-392.434
-625.469
-627.4
-1067.06
-1022.05
-1028.18
-393.887
-632.644
-1074.6
-1030.72
-631.177
-1070.55
-987.875
-1035.42
-366.753
-600.66
-990.732
-599.078
-1031.25
-982.378
-366.562
-592.307
-1023.37
-979.431
-594.746
-1026.67
-880.397
-493.266
-850.388
-654.317
-883.197
-652.285
-846.554
-874.674
-495.875
-644.155
-837.392
-871.495
-646.613
-841.713
-962.737
-1002.79
-354.602
-576.596
-579.721
-1007.32
-958.736
-969.604
-354.923
-587.286
-1018.44
-973.347
-585.11
-1013.2
-879.477
-929.034
-277.489
-521.943
-889.35
-515.83
-916.583
-867.301
-279.195
-499.074
-885.784
-853.566
-506.376
-901.285
-787.789
-409.85
-754.701
-569.804
-791.74
-567.241
-750.426
-783.203
-416.777
-563.252
-746.234
-780.059
-563.206
-746.953
-775.926
-774.51
-436.562
-501.129
-461.001
-805.242
-749.61
-810.485
-387.041
-483.681
-866.501
-834.61
-472.981
-841.558
-108.366
-54.9241
-139.426
-100.345
-187.123
-97.9517
-91.8129
-98.9194
-82.0812
-144.396
-130.828
-140.741
-77.7092
-100.157
-103.684
-629.204
-226.459
-133.953
-244.607
-198.621
-116.062
-304.674
-743.06
-695.364
-6149.92
-6503.43
-1263.13
-1584.4
-3227.84
-1656.68
-5035.83
-346.136
-363.649
-156.205
-171.866
-184.553
-346.394
-349.146
-607.614
-2221.71
-3632.69
-3125.12
-3038.92
-832.698
-725.336
-357.931
-890.46
-198.904
-1046.5
-252.179
-2540.01
-339.379
-866.959
-625.437
-341.172
-226.381
-364.845
-266.535
-863.738
-345.976
-256.465
-808.679
-772.094
-905.835
-946.043
-1053.06
-728.117
-760.422
-458.935
-480.105
-393.196
-781.017
-403.446
-1038.39
-529.973
-502.862
-462.504
-1562.16
-1129.75
-996.719
-869.012
-544.258
-1465.05
-460.293
-707.237
506.056
-586.064
-1130.99
-786.727
-772.914
-1009.61
-1134.9
-827.877
-956.862
-1039.59
-2771.77
-843.13
-1046.69
-489.883
-442.338
-881.436
-875.158
-1068.02
-698.805
-1040.55
-1062.39
-756.455
-905.447
-1029.82
-1041.45
-856.596
-1058.43
-761.959
-1019.67
-850.201
-1034.21
-854.616
-1055.72
-1061.54
-1032.31
-1363.47
-1112.51
-1122.82
-1083.14
-1288.88
-1121.88
-995.92
-1018.84
-1019.86
-827.494
-914.209
-1017.58
-1080.62
-733.239
-962.043
-984.546
-623.727
-716.526
-983.483
-1115.49
-508.837
-891.571
-1065.61
-501.863
-984.226
-1001.01
-1077.84
-1078.3
-1030.18
-934.907
-814.765
-765.103
-730.829
-790.902
-799.219
-807.155
-901.622
-732.779
-735.121
-316.862
-15.529
-23.5071
-277.185
-14.8715
-12.5219
24.3268
-55.454
37.774
-55.9827
39.6319
36.6579
-293.576
-269.262
-220.554
-136.203
-0.255656
-146.642
-206.784
-6.49885
-155.125
60.5843
-3.31323
54.2999
41.9342
-11.602
52.3158
-267.54
-11.5392
-11.5631
-265.097
-11.2802
-9.82126
70.8768
24.2352
71.1468
24.3164
71.2799
71.4288
-238.072
-166.286
-167.368
-109.921
23.61
-107.014
-105.712
23.8868
-106.377
70.3378
23.8594
71.3162
71.6483
24.176
71.1693
-1.37201e+06
-2604.47
-6054.94
-1860.85
-1.61581e+06
-66281.7
-9669.01
-29522.2
14196
-2653.76
16057.8
29179.2
27421.2
-2688.09
19159.7
16864
47.3568
-72.7816
40.0098
-107.097
-3.63381
43.6454
4589.82
-3980.78
200.153
20063.6
-2463.08
20763.5
146212
10984.6
-11170.3
10827.7
-51029.4
-3773.84
-9515.88
17356.2
-3982.17
9492.58
3701.98
-15287.3
-6029.16
-12075.3
-25891.1
-725.448
-13054.6
-6108.63
-1678.71
-9782.72
29611.8
27953.8
444513
16590.5
-9206.44
28873.7
4306.85
20083.3
-10705
18121.6
-78.3788
7024.66
-2357.75
-672.152
-685.579
-688.215
-633.797
-686.95
-699.66
-694.317
-674.784
-625.388
-675.332
-919.722
-911.441
-1088.84
-1358.83
-1076.23
-928.723
-920.914
-1081.19
-1358.9
-1071.1
-971.488
-944.009
-570.306
-737.904
-974.307
-940.371
-735.029
-964.368
-573.318
-925.054
-725.594
-932.541
-728.095
-960.261
-914.821
-911.303
-1355.57
-1057.36
-1070.38
-1079.53
-1364.73
-1075.4
-895.474
-905.535
-663.468
-655.195
-651.33
-596.932
-651.428
-647.965
-650.932
-662.145
-602.434
-661.343
-751677
-881220
16349.2
15753.3
8097.61
-1912.42
8558.6
9100.24
-1934.34
8701.87
-16566.7
-6605.02
-17115.6
-33955.6
-21627.5
-20956
-6773.31
-17998.1
-17362.9
16546.5
17132.6
10071.5
-2127.79
9709.28
9226.99
-2101.72
9591.61
-19895.8
-8289.45
-19208.7
-35301.6
-22002.2
-22705.3
-8089.43
-18263.5
-18937.4
-599.439
-603.19
-613.624
-553.893
-612.883
-610.591
-606.438
-606.773
-550.142
-606.656
-853.017
-855.437
-1023.65
-1301.92
-1019.53
-861.727
-858.841
-1013.84
-1298.66
-1016.93
-909.248
-878.548
-519.491
-679.947
-911.306
-875.701
-678.453
-904.902
-521.58
-868.914
-672.378
-872.044
-674.15
-902.651
-849.793
-846.762
-1285.22
-1000.12
-1004.56
-1011.38
-1289.26
-1007.31
-839.901
-843.253
-596.156
-592.312
-593.651
-536.411
-593.609
-585.254
-589.008
-600.517
-540.129
-599.869
-245035
-339624
7891.86
6525.36
-1224.21
-9314.69
-117.665
1336.91
-9035.1
249.387
-23651.7
-13174.8
-24135.2
-38239.1
-28619.2
-28383.4
-13379.3
-24691.8
-24313.4
8226.69
9211.54
4044.52
-6700.86
3074.89
1693.7
-6995.7
2739.12
-25191.2
-14886.7
-25142.1
-37515.2
-28775.1
-28825.7
-14717
-24827.3
-25062.4
-526.226
-533.189
-551.868
-488.894
-551.065
-545.161
-538.63
-540
-482.868
-540.163
-785.64
-791.73
-962.333
-1232.93
-955.306
-802.84
-797.405
-942.886
-1226.16
-950.606
-838.074
-808.982
-453.833
-617.8
-842.709
-802.764
-614.443
-829.76
-457.351
-788.542
-601.976
-795.253
-605.975
-824.657
-779.261
-772.216
-1195.97
-913.575
-923.144
-937.762
-1204.37
-928.725
-757.54
-765.168
-519.858
-511.452
-511.346
-456.213
-511.744
-494.279
-504.071
-527.331
-464.424
-526.502
-281.25
-20207.9
-5146.27
-4264.79
-3931.07
-6019.92
-4245.64
-6206.49
-7043.41
-4842.78
-20838.8
-14207.8
-18652.9
-20313.8
-15566.2
-19072.4
-13711.3
-14684
-17791
-5259.24
-5110.11
-6498.71
-12013.6
-6844.03
-6493.86
-11703.1
-6858.88
-2070.82
-6577.73
-7512.46
-10857.6
-14249.8
-9586.96
-7796.31
-13474.1
-9202.64
-398.786
-409.198
-411.614
-352.275
-399.799
-421.426
-413.614
-365.823
-333.212
-373.357
-712.493
-721.658
-866.566
-1094.55
-860.622
-719.013
-724.21
-828.502
-1070.85
-855.846
-671.973
-682.905
-400.525
-499.392
-698.552
-667.229
-486.629
-761.426
-970.091
-825.676
-959.327
-657.011
-379.087
-443.21
-510.069
-683.45
-589.513
-733.753
-445.188
-692.815
-665.248
-947.429
-777.232
-805.246
-933.286
-771.769
-676.619
-393.092
-374.603
-326.874
-408.055
-406.605
-356.567
-306.788
-362.027
-399.335
-492.554
-733.793
-111.83
-219.7
-287.843
-230.052
-177.62
-395.11
-1.33683
-42.5781
-129.397
-91.5962
-62.9005
-39.9021
-68.0341
-527.836
-212.134
-286.117
-169.446
-490.629
-32.9182
-186.137
-475.641
-399.65
-106.998
-1394.97
-1226.92
-981.077
-547.339
-1533.32
-501.003
-866.266
540.545
-573.892
-954.724
-686.186
-616.125
-666.2
-644.277
-711.492
-764.562
-1315.49
-2943.48
-1056.59
-1156.73
-325.18
-410.423
-570.491
-1070.76
-674.963
-580.248
-1081.66
-1202.72
-607.285
-714.386
-1029.67
-1227.85
-707.813
-1138.03
-541.189
-1255.35
-733.866
-1254.01
-719.631
-1147.33
-1353.35
-1390.48
-1532.9
-1459.35
-1466.33
-1383.64
-1442.77
-1440.94
-1404.45
-1411.6
-254.369
-316.511
-149.514
-195.983
-226.441
-135.358
-303.674
-360.527
-570.064
-576.368
-553.368
-561.899
-581.378
-467.171
-341.904
-229.235
-248.509
-480.51
-141.534
-576.66
-371.373
-389.863
-380.982
-404.118
-698.927
-377.249
-404.635
-349.305
-350.713
-665.31
-400.412
-569.713
-668.908
-422.63
-2092.49
-3535.36
179.001
-4960.2
-1325.9
-2633.53
-3191.15
-1494.85
-1096.34
-845.553
-884.972
-1815.81
-1742.56
-4619.73
-1500.02
-2293.17
-646.625
-942.678
-719.006
-626.688
-742.728
-656.437
-702.67
-700.42
-667.5
-724.559
-664.076
-666.778
-672.575
-602.332
-618.667
-646.078
-668.125
-640.522
-669.837
-631.261
-647.982
-595.012
-653.166
-681.865
-612.7
-672.397
-647.053
-1017.13
-637.68
-785.939
-670.804
-735.568
-670.121
-628.373
-657.647
-657.64
-1162.36
-579.825
-1199.08
-751.723
-1157.06
-1202.49
-767.544
-1163.88
-630.359
-1237.49
-780.1
-1166.22
-1212.64
-783.646
-395.822
-375.138
-401.506
-786.206
-399.099
-376.624
-373.298
-415.976
-787.465
-409.103
-1309.46
-1310.74
-1578.21
-1404.97
-1431.71
-1443.68
-1605.01
-1443.41
-1288.18
-1299.39
-1311.56
-1315.83
-1440.35
-1505.35
-1410.43
-1379.69
-1317.29
-1439.16
-1540.59
-1414.75
-418.776
-456.298
-435.229
-802.955
-459.092
-456.204
-472.413
-438.281
-804.641
-451.791
-223.512
-98.2324
-65.3297
-4.26119
-17.1929
-181.445
-118.264
-352.578
-647.852
-844.707
-581.612
-660.196
-562.617
-466.432
-271.139
-172.117
-124.133
-380.798
-29.3289
-459.049
-280.213
-74.6109
-45.8247
-57.8244
-222.015
-363.108
-160.69
-67.5013
-183.57
-78.6961
-272.028
-659.431
-706.285
-857.713
-637.984
-665.264
-607.399
-600.698
-450.444
-374.357
-443.993
-318.816
-347.086
-365.108
-405.481
-439.801
-205.3
-442.24
-297.681
-502.53
-294.364
-437.693
-484.553
-750.532
-465.273
-565.162
-504.396
-463.601
-411.707
-369.516
-361.835
-466.574
-37.9287
-230.914
-130.705
-255.109
-233.727
-223.911
-306.508
-421.995
-461.584
-372.792
-473.837
-363.163
-315.206
-208.703
-235.432
-224.918
-226.968
-228.902
-337.944
-169.031
-328.753
-244.453
-355.314
-354.869
-474.34
-383.733
-348.449
-500.282
-348.511
-299.839
-250.545
-220.01
-307.106
-353.446
-374.511
-461.799
-320.753
-1056.56
-708.482
-1035.12
-819.017
-1058.55
-1018.72
-829.324
-1057
-714.752
-1008.19
-849.225
-1057.62
-1006.87
-844.507
-705.119
-688.608
-697.214
-641.278
-697.389
-699.425
-689.151
-713.645
-647.275
-713.258
-1014.36
-1002.18
-1105.83
-1438.73
-1155.15
-946.022
-986.045
-1182.55
-1469.85
-1171.69
-1019.29
-991.522
-1107.07
-1357.49
-1112.75
-987.373
-986.327
-1177.18
-1399.04
-1125.04
-727.368
-767.52
-765.473
-719.663
-761.733
-799.014
-786.59
-739.245
-700.089
-741.006
-635.097
-575.382
-579.538
-390.614
-459.871
-486.368
-525.093
-489.768
-521.63
-309.901
-436.835
-406.967
-424.6
-455.025
-433.387
-474.562
-468.007
-448.652
-358.748
-456.015
-456.353
-475.713
-470.069
-478.898
-484.229
-478.504
-482.584
-271.597
-13.5691
-12.668
-273.571
-13.422
-12.8312
-277.543
-368.379
-372.884
-418.815
-436.582
-413.942
-404.665
-432.461
-409.138
-462.251
-443.966
-463.75
-353.545
-452.148
-450.359
-446.24
-467.878
-465.647
-473.706
-456.59
-472.025
-355.541
-452.815
-452.963
-453.645
-469.188
-470.286
-259.745
-181.269
-187.561
-133.668
15.5525
-126.65
-119.104
16.4197
-124.664
70.512
22.0991
69.8465
21.6256
68.3107
69.4558
62.1458
15.4435
64.974
16.473
67.5367
65.6765
-460.722
-439.024
-459.285
-348.243
-443.523
-443.963
-438.151
-458.219
-458.45
-256.873
-350.768
-351.674
-391.408
-415.075
-389.793
-387.456
-413.918
-388.486
-346.486
-443.29
-443.208
-460.009
-439.29
-458.893
-458.177
-438.336
-458.229
-269.164
-5.41096
-18.4326
-262.024
-5.47343
-6.22206
-272.033
-374.43
-367.353
-394.23
-422.764
-398.392
-410.213
-427.437
-403.588
-476.907
-474.039
-479.719
-344.729
-451.649
-453.306
-468.194
-474.951
-479.167
-461.329
-445.445
-463.173
-344.977
-449.348
-447
-449.392
-470.354
-466.134
-252.008
-190.338
-180.511
-111.166
20.2646
-115.847
-127.202
19.4079
-118.047
51.4297
5.77511
59.7432
8.52462
64.5629
59.5734
70.3744
20.5291
68.7406
19.5379
65.7036
69.0601
-806500
-628281
-834996
-1.31368e+06
-1.09195e+06
-1.03397e+06
-649485
-900017
-864700
-418.492
-349.166
-321.379
-3102.81
-5444.92
-937.515
141.215
-547.796
384.304
-112243
-5522.05
-2346.38
9101.72
-105274
-78906.2
-204369
-428491
-116664
-216723
-48558.8
-257523
-475913
-249076
-2667.12
-7621.34
-2076.09
-242105
-431166
-248492
-46882.7
-109017
-111865
-444275
-257610
-254068
-1.51723e+06
-1.1246e+06
-1.22167e+06
-135866
-4651.55
-57709.4
-812387
-648812
-182066
-885113
-208826
-931093
-724680
-994954
2783.62
-26270.1
-35083.3
-1.38797e+06
-1.57327e+06
-868759
-688680
-894537
-1.34068e+06
-1.10925e+06
-1.05991e+06
-706131
-944779
-919249
-31650
-140820
-122800
-324461
-502491
-291127
-312507
-523040
-308740
-302662
-493606
-308248
-68847.5
-148691
-153249
-504316
-314584
-312434
-1.49899e+06
-1.12847e+06