/*--------------------------------*- C++ -*----------------------------------*\
| =========                 |                                                 |
| \\      /  F ield         | OpenFOAM: The Open Source CFD Toolbox           |
|  \\    /   O peration     | Version:  2012                                  |
|   \\  /    A nd           | Website:  www.openfoam.com                      |
|    \\/     M anipulation  |                                                 |
\*---------------------------------------------------------------------------*/
FoamFile
{
    version     2.0;
    format      ascii;
    class       volVectorField;
    location    "0.107/solid";
    object      sigmaMaxDir;
}
// * * * * * * * * * * * * * * * * * * * * * * * * * * * * * * * * * * * * * //

dimensions      [1 -1 -2 0 0 0 0];


internalField   nonuniform List<vector> 
24998
(
(-0.551115 -0.513076 0.658047)
(-0.0483249 0.149131 0.987636)
(0.479738 0.876469 -0.0406637)
(-0.0212704 0.999738 0.00840229)
(-0.191867 0.859962 0.472919)
(0.996004 -0.0874648 -0.0180605)
(0.996596 -0.0824324 -0.0011167)
(0.99749 -0.0701185 0.00987322)
(0.991937 -0.0634667 0.109692)
(0.865632 0.169613 -0.471076)
(0.162158 0.986677 -0.0131518)
(0.982087 -0.188425 0.00147109)
(0.028961 0.216882 0.975768)
(0.690282 0.718226 -0.0875346)
(0.996161 -0.0851149 -0.0204819)
(0.0539016 0.998536 -0.00447086)
(-0.0171016 0.999852 0.00211978)
(-0.0227434 0.999734 0.00373297)
(-0.0102396 0.999944 0.00266215)
(-0.214751 0.946663 0.24023)
(-0.225464 0.875818 0.426742)
(-0.208847 0.933739 0.290712)
(0.981911 -0.189339 -0.00136116)
(0.980918 -0.194418 -0.00156189)
(0.99653 -0.0832166 -0.00167037)
(0.980937 -0.194321 -0.00146739)
(0.981593 -0.190979 0.00177423)
(0.99734 -0.0725432 0.00711903)
(0.981774 -0.190028 0.00309441)
(0.97903 -0.191566 0.0693074)
(0.995034 -0.0492166 0.0865213)
(0.971238 -0.208744 0.114554)
(-0.102306 0.957195 0.270759)
(0.822766 -0.16655 -0.543431)
(0.98641 0.149455 -0.0682567)
(0.143178 0.97628 -0.162409)
(0.539702 -0.0878773 0.837257)
(-0.526097 0.844632 0.0990893)
(-0.194586 0.97953 0.0515465)
(0.214675 0.976474 -0.020331)
(-0.0730189 0.997153 0.0188267)
(-0.15147 0.988291 0.0183605)
(0.177941 0.983823 -0.0207442)
(-0.00104543 0.999987 -0.0050866)
(0.401624 0.915803 -0.00186043)
(-0.210203 -0.649125 0.731062)
(-0.49993 0.863792 0.0627239)
(-0.137007 -0.0339598 0.989988)
(-0.239198 -0.0121792 0.970894)
(0.996285 -0.0858191 -0.00721733)
(0.426671 0.904406 0.000654968)
(0.415871 0.909423 -0.000511121)
(-0.296888 -0.0193551 0.954716)
(-0.349179 -0.0219522 0.936799)
(0.996861 -0.0791639 0.00148141)
(0.445538 0.895235 0.00711233)
(0.437188 0.899365 0.00300142)
(-0.429379 -0.0239501 0.902807)
(-0.504598 -0.0246698 0.863002)
(0.997778 -0.059404 0.0301845)
(-0.091097 0.995509 -0.0257613)
(0.450753 0.89239 0.0214679)
(-0.615855 -0.0247941 0.787469)
(0.923433 0.0674254 -0.377791)
(-0.325832 0.632017 0.703128)
(0.0212368 0.986144 -0.164526)
(0.986616 -0.160686 -0.0277277)
(0.862671 -0.138977 -0.486297)
(-0.183359 0.982148 0.0420127)
(0.8585 0.0362034 -0.511534)
(0.9501 0.302542 -0.0760203)
(-0.22499 0.973955 -0.0281411)
(0.882865 0.0310887 -0.468597)
(0.985616 -0.16876 0.00902392)
(0.919882 0.385515 -0.0720833)
(-0.583713 0.805375 0.103197)
(0.829609 0.552253 -0.0822513)
(-0.432372 0.897103 0.0908887)
(-0.493934 0.861216 0.119732)
(0.969039 -0.0944387 0.228133)
(-0.141303 0.989963 0.00240651)
(-0.046273 0.998899 0.00776017)
(0.0657517 0.997803 0.00815211)
(0.181809 0.983179 -0.0174358)
(-0.125795 0.991915 0.0167513)
(-0.038393 0.999236 0.00732674)
(0.0197614 0.999799 0.00326764)
(0.0565585 0.998382 0.00586535)
(-0.0701877 0.997298 0.0217041)
(0.0172106 0.99985 0.00212747)
(-0.0216615 0.999765 -0.000234011)
(-0.0145352 0.999894 -2.18878e-05)
(-0.426026 -0.607469 0.670435)
(-0.249193 0.967854 0.0340894)
(-0.0358168 0.999354 0.00303655)
(0.98691 -0.0835863 0.137919)
(-0.00462162 0.999989 -2.38351e-05)
(-0.0120482 0.999926 0.00160952)
(0.990356 -0.138301 -0.00821525)
(0.983464 -0.147806 0.104651)
(-0.0840498 -0.166697 0.982419)
(-0.413617 -0.000801016 0.91045)
(-0.521328 0.850517 0.0695616)
(0.120858 0.992649 -0.00648991)
(0.797469 -0.588423 -0.133423)
(0.999767 -0.0182875 -0.0114992)
(0.0707207 -0.229509 0.970734)
(-0.49066 0.0347375 0.870659)
(-0.662571 0.738581 0.124486)
(0.401821 0.915717 -0.00174115)
(0.415241 0.909711 -0.000559252)
(0.990604 -0.136499 -0.0084597)
(-0.464348 -0.00973094 0.885599)
(-0.420151 -0.00336603 0.907448)
(0.990753 -0.135163 -0.0118266)
(0.148857 0.988838 -0.00646669)
(0.483895 0.875099 -0.0069201)
(0.999822 -0.0148698 -0.0116096)
(-0.559143 0.0279011 0.828601)
(-0.501695 0.0318758 0.864457)
(0.999833 -0.0123635 -0.0134876)
(-0.00589758 -0.135486 0.990762)
(-0.281421 0.0276234 0.959187)
(-0.289924 -0.0188759 0.956863)
(-0.244792 -0.013559 0.969481)
(-0.355617 0.029109 0.934178)
(-0.291708 0.027009 0.956126)
(0.981088 -0.193538 -0.00308474)
(0.981014 -0.193911 -0.00312667)
(0.996307 -0.0856426 -0.00606517)
(0.988584 -0.149714 -0.0169361)
(-0.470404 -0.00997466 0.882395)
(0.990676 -0.135706 -0.0120776)
(-0.511602 -0.00996304 0.859165)
(0.699871 0.714229 -0.00755523)
(0.501537 0.865108 -0.00696747)
(0.999426 -0.0293879 -0.0168432)
(-0.565727 0.0281534 0.824112)
(0.999822 -0.0130277 -0.0136516)
(-0.606697 0.0318155 0.794296)
(0.427107 0.904201 0.000744104)
(0.436706 0.8996 0.00282365)
(0.988411 -0.150808 -0.0173457)
(-0.559558 -0.00763584 0.828756)
(-0.517469 -0.00977601 0.855646)
(0.984292 -0.174669 -0.0256964)
(0.705975 0.708196 -0.00759801)
(0.788304 0.615231 -0.00820671)
(0.999404 -0.0299646 -0.0171154)
(-0.645607 0.038261 0.76271)
(-0.611998 0.0325436 0.79019)
(0.999459 -0.0238877 -0.022588)
(-0.364402 0.0297454 0.930767)
(-0.427908 0.0352664 0.903134)
(-0.419607 -0.0237931 0.907394)
(-0.357278 -0.0222399 0.933733)
(-0.504801 0.0431402 0.862157)
(-0.437349 0.036188 0.898563)
(0.981109 -0.193455 -0.000411593)
(0.981198 -0.193004 -9.55179e-05)
(0.996962 -0.0778631 0.00224563)
(0.974433 -0.22044 -0.0434335)
(-0.565771 -0.00724335 0.824531)
(0.98392 -0.176644 -0.0264398)
(-0.611249 -0.00444896 0.791426)
(0.838048 0.545509 -0.00979208)
(0.790721 0.612121 -0.00826217)
(0.997388 0.0636651 -0.034121)
(-0.649901 0.0391214 0.759012)
(0.999507 -0.0212968 -0.0230697)
(-0.676732 0.0444818 0.734885)
(0.445552 0.895224 0.00751558)
(0.450421 0.892598 0.0197453)
(0.973374 -0.224735 -0.0451438)
(-0.667713 -0.00312833 0.744413)
(-0.618059 -0.00410271 0.786121)
(0.944783 -0.312976 -0.0971154)
(0.840037 0.542437 -0.00996708)
(0.910653 0.412809 -0.0173235)
(0.996828 0.0713837 -0.0351908)
(-0.70284 0.0466663 0.709816)
(-0.680174 0.0450897 0.731663)
(0.97924 0.19105 -0.0677443)
(-0.514442 0.044171 0.856387)
(-0.579733 0.050704 0.813227)
(-0.602977 -0.0246941 0.797376)
(-0.516299 -0.0247177 0.856052)
(-0.646178 0.053772 0.76129)
(-0.588579 0.0514699 0.8068)
(0.982422 -0.186312 0.0115835)
(0.982563 -0.185094 0.0175983)
(0.997655 -0.0546112 0.0412494)
(0.973137 -0.229985 -0.0105108)
(-0.675089 -0.00346624 0.737728)
(0.941569 -0.320353 -0.104025)
(0.948674 0.0542792 -0.311562)
(0.232328 0.970567 0.0634336)
(0.917987 0.396184 -0.01841)
(0.976119 0.217113 0.0073747)
(-0.706097 0.0462029 0.706606)
(0.977783 0.19687 -0.071998)
(0.948485 0.0314756 -0.315256)
(-0.653876 0.053261 0.754724)
(0.922378 0.0367601 -0.384535)
(0.973315 0.0380726 -0.226293)
(0.872663 0.43406 -0.223719)
(0.88593 0.461091 -0.0502225)
(-0.0215663 0.0820453 0.996395)
(0.72339 0.399202 -0.563333)
(0.29721 0.845136 -0.44431)
(-0.183179 -0.261345 0.947705)
(-0.130474 -0.290997 0.947785)
(0.479328 0.640245 -0.600275)
(-0.131482 -0.232721 0.963615)
(0.888454 -0.338744 -0.309681)
(-0.325748 0.94292 0.0692128)
(-0.407786 0.882919 0.232732)
(-0.00892074 0.00408047 0.999952)
(-0.00355493 0.999991 -0.00251063)
(-0.00484038 -0.001433 0.999987)
(-0.554241 0.665759 0.499582)
(-0.0213855 0.820155 0.571741)
(-0.29418 0.84559 0.445461)
(0.0025297 0.00755174 0.999968)
(-0.0511407 0.028337 0.998289)
(0.950603 0.137622 0.278235)
(0.996127 -0.0875536 -0.00810189)
(-0.00903395 0.00475505 0.999948)
(0.989806 0.133046 -0.0508207)
(-0.0160106 0.0209879 0.999652)
(0.000618659 0.00270755 0.999996)
(-0.0142302 0.01287 0.999816)
(0.990333 0.133212 0.0386786)
(0.996676 -0.0814734 -1.77936e-05)
(-0.00139441 0.00160831 0.999998)
(0.990046 0.133364 0.0449741)
(-0.0105974 0.0117047 0.999875)
(0.0180784 -0.00908525 0.999795)
(0.00224024 0.00935524 0.999954)
(0.988353 0.138011 0.0641222)
(0.997639 -0.0672077 0.0141234)
(0.00823221 -0.00480766 0.999955)
(0.987201 0.139834 0.0766827)
(0.0117707 0.00669529 0.999908)
(0.312048 -0.185303 0.93182)
(0.644488 -0.0765917 0.760769)
(0.985098 0.117486 0.125612)
(0.984895 -0.11141 0.132552)
(0.21179 -0.156253 0.964743)
(0.987529 0.0561382 0.147087)
(0.996223 -0.0550397 0.0671526)
(-0.447154 -0.165219 0.879066)
(0.847239 -0.0459239 -0.529223)
(0.29965 0.831156 -0.468391)
(0.883154 -0.0233403 -0.468503)
(-0.348931 -0.305642 0.885907)
(-0.589785 -0.547677 0.593467)
(0.902745 -0.298915 -0.309357)
(-0.0626658 0.983698 -0.168556)
(0.0485168 0.998817 -0.00339711)
(0.47761 0.872291 -0.104867)
(-0.146248 0.0535969 0.987795)
(0.982332 -0.185722 -0.0230607)
(0.907504 -0.419975 0.00759625)
(0.991944 0.0480236 0.11722)
(0.979458 0.0355613 -0.198487)
(0.105392 -0.0282027 0.994031)
(0.909041 -0.416121 -0.022108)
(0.227026 0.174204 0.958182)
(0.272108 -0.626605 0.73029)
(0.410979 -0.536209 0.737276)
(0.826585 -0.550401 -0.117545)
(0.711953 0.693022 -0.113333)
(-0.115737 0.992342 0.0431466)
(0.00965524 0.0112556 0.99989)
(0.996417 -0.0842099 0.00781179)
(-0.065301 0.0278609 0.997477)
(0.817442 0.124671 0.562357)
(-0.011013 0.00452739 0.999929)
(-0.0348588 -0.0134086 0.999302)
(0.0130407 0.0110759 0.999854)
(-0.0600864 0.998086 0.014632)
(-0.077032 0.996622 0.0284705)
(-0.0395549 0.999114 0.0144046)
(-0.0234186 0.999714 0.00478342)
(0.00688325 0.999975 0.00170663)
(0.0213737 0.999769 0.00222117)
(-0.045777 0.998849 0.0143352)
(-0.0108276 0.00307257 0.999937)
(-0.0301357 0.0103858 0.999492)
(-0.00115562 0.999999 0.00125503)
(-0.00947142 0.999955 -0.000170548)
(-0.00567377 0.999984 0.000368813)
(-0.203784 0.976831 0.0653667)
(0.280263 0.930209 0.236989)
(0.218559 0.97461 0.0486622)
(-0.284563 0.954403 0.0902179)
(-0.553968 0.625234 0.54973)
(-0.106381 0.000899727 0.994325)
(0.274481 0.910453 0.30941)
(-0.215773 0.905971 0.364223)
(0.011207 0.85334 0.521235)
(-0.0231922 0.017859 0.999571)
(0.908538 -0.417801 0.00100431)
(0.996095 0.0505073 0.0724149)
(0.981487 -0.191191 -0.0113735)
(0.998695 0.0449367 -0.024284)
(0.0662556 -0.0156662 0.99768)
(0.906899 -0.421115 -0.0140245)
(0.0146762 0.00490208 0.99988)
(0.980902 -0.194483 -0.00269953)
(0.903281 -0.429039 -0.00291085)
(0.998863 0.0439473 0.0184769)
(0.998933 0.0433529 0.0158945)
(0.0749409 -0.00966479 0.997141)
(0.90341 -0.428763 -0.00356174)
(-0.0014351 0.00238272 0.999996)
(0.996459 -0.0840534 -0.00190366)
(-0.0149192 0.0134895 0.999798)
(0.989896 0.133014 0.0491197)
(-0.000870665 0.00366653 0.999993)
(0.990528 0.132288 0.0367912)
(-0.0154611 0.0143273 0.999778)
(0.0774708 -0.0104734 0.99694)
(0.903184 -0.429247 -0.00243584)
(0.99885 0.0440247 0.0189941)
(0.980966 -0.194171 -0.0015181)
(0.998883 0.0441536 0.0168458)
(0.0281958 0.00166285 0.999601)
(0.902959 -0.429711 -0.00374074)
(0.0552338 -0.00380521 0.998466)
(0.981434 -0.191795 0.00103368)
(0.902478 -0.43073 -0.00220818)
(0.998393 0.0476303 0.0307085)
(0.998538 0.04636 0.0278007)
(0.154785 -0.028365 0.987541)
(0.902522 -0.430642 -0.00163301)
(0.00346573 -0.00173827 0.999992)
(0.997201 -0.0746009 0.00505765)
(-0.00125878 0.0103152 0.999946)
(0.988325 0.137401 0.0658393)
(0.00798822 -0.00227032 0.999966)
(0.989245 0.136015 0.0537902)
(-0.00572893 0.011072 0.999922)
(0.388428 -0.094958 0.916573)
(0.902408 -0.430882 -0.000666669)
(0.998256 0.0480863 0.0342324)
(0.981979 -0.188932 0.00475305)
(0.998023 0.0496856 0.0384916)
(0.0862152 -0.0112082 0.996213)
(0.902315 -0.431077 -0.000548523)
(0.963269 -0.262184 -0.0580693)
(0.981681 -0.185829 0.0420607)
(0.892792 -0.445991 0.0633516)
(0.995498 0.0384835 0.0866201)
(0.997023 0.0497958 0.0588702)
(0.960596 -0.275489 -0.0368878)
(0.897841 -0.438883 0.0355416)
(0.122468 -0.0817322 0.989101)
(0.996574 -0.0470651 0.0680136)
(0.448237 -0.0720969 0.891003)
(0.985262 0.127038 0.114541)
(0.206233 -0.14454 0.967769)
(0.98568 0.140388 0.0934083)
(0.315634 -0.0555796 0.947252)
(0.963323 -0.267573 0.0203122)
(0.879746 -0.462829 0.108796)
(0.994064 0.0307244 0.104369)
(0.942914 -0.268286 0.197321)
(0.98892 -0.0152231 0.147668)
(0.961746 -0.271136 -0.0391158)
(0.838975 -0.50788 0.195394)
(0.94547 0.28583 -0.156168)
(-0.422696 0.774889 0.469974)
(0.666766 0.709785 0.227221)
(0.952587 0.170972 -0.251689)
(0.885874 0.460747 0.0542146)
(-0.546965 0.659452 0.515706)
(0.892034 -0.339675 -0.298156)
(0.514448 0.790302 0.332815)
(0.62469 0.627918 -0.464199)
(0.952385 0.304796 0.00791555)
(0.656753 0.559861 -0.505203)
(0.319291 -0.304721 0.897328)
(0.277861 0.837759 -0.470056)
(0.670635 0.741333 0.025947)
(-0.176069 -0.469624 0.865132)
(0.481331 0.706801 -0.518413)
(0.0283332 0.115002 0.992961)
(0.139903 -0.116264 0.983316)
(5.35036e-05 0.00923718 0.999957)
(0.144366 -0.0629201 0.987522)
(-0.0799889 -0.145869 0.986065)
(-0.0268979 0.0212455 0.999412)
(0.28454 -0.129989 0.949811)
(-0.0298118 0.0159652 0.999428)
(-0.0366196 -0.0285897 0.99892)
(0.708571 0.705425 0.0174001)
(0.732463 0.676576 0.0757806)
(0.655402 0.685581 -0.316903)
(0.255418 -0.213211 0.943028)
(0.502333 -0.371414 0.780842)
(0.248984 0.968506 0.00176644)
(-0.174803 0.983872 0.0379595)
(0.98428 0.167532 0.0559101)
(0.992678 0.0743835 0.0951666)
(-0.383703 0.919705 0.0831485)
(-0.118641 0.0311279 0.992449)
(-0.497564 0.739264 0.453783)
(0.552551 0.0508472 0.831927)
(0.968471 0.179549 0.172705)
(0.162241 0.986613 -0.0164898)
(-0.200558 0.97936 0.0251265)
(0.408825 0.000615885 0.912613)
(0.402317 0.00221193 0.915498)
(-0.00311229 0.999992 0.00236296)
(-0.0135583 -0.00737129 0.999881)
(-0.00496029 0.000611696 0.999988)
(0.413633 -0.00409185 0.910434)
(0.402796 -0.00290379 0.915285)
(0.276331 0.961051 -0.00466505)
(-0.428985 -0.466103 0.77377)
(0.463539 0.886069 -0.0036621)
(-0.586226 -0.340677 0.735036)
(-0.0690788 -0.00372476 0.997604)
(-0.0665239 -0.00369603 0.997778)
(-0.667289 0.681347 0.300818)
(-0.353756 0.817267 0.454896)
(0.010712 0.817625 0.575651)
(-0.207166 -0.00646077 0.978284)
(-0.1566 -0.0793846 0.984467)
(-0.0810929 -0.00132773 0.996706)
(-0.353932 0.803701 0.478327)
(-0.0836123 -0.00204315 0.996496)
(-0.221392 -0.00404556 0.975177)
(-0.0790878 -0.00111646 0.996867)
(-0.194343 -0.0239594 0.980641)
(-0.0693797 -0.00401464 0.997582)
(-0.389383 0.785014 0.481802)
(-0.0826206 0.0782401 0.993505)
(-0.212101 0.160234 0.964022)
(0.00185349 0.0114671 0.999933)
(4.42599e-06 -0.00564742 0.999984)
(0.000387406 0.00470751 0.999989)
(0.996246 -0.086371 -0.00577004)
(0.987952 0.132981 0.0791628)
(-0.0287448 0.0199983 0.999387)
(0.991358 0.131154 0.00298363)
(-0.00435087 0.00518986 0.999977)
(-0.0188944 0.019659 0.999628)
(0.00248371 0.00562045 0.999981)
(0.000686136 -0.00225762 0.999997)
(-0.177644 0.131931 0.975211)
(-0.0601731 0.063307 0.996178)
(0.421506 0.906825 4.62286e-05)
(0.421034 0.907045 -2.29495e-05)
(-0.124553 -0.00791646 0.992181)
(-0.110368 -0.00712822 0.993865)
(-0.115639 -0.00440659 0.993282)
(-0.318456 -0.0206072 0.947714)
(-0.129711 -0.00495858 0.991539)
(-0.0965854 -0.00623363 0.995305)
(-0.108526 -0.00701648 0.994069)
(-0.148465 -0.00548014 0.988902)
(-0.325901 -0.0209763 0.945171)
(-0.131873 -0.00502988 0.991254)
(0.00277517 0.0137554 0.999902)
(-0.112134 0.0802604 0.990446)
(0.0026165 0.00210706 0.999994)
(0.00362555 0.00139044 0.999992)
(-4.65011e-05 0.000553175 1)
(0.996766 -0.0803541 0.000836955)
(0.989637 0.134425 0.0504925)
(-0.00918178 0.0112722 0.999894)
(0.990172 0.133612 0.0413073)
(0.00159583 0.00195717 0.999997)
(-0.0112318 0.0116263 0.999869)
(0.00435272 0.00207972 0.999988)
(0.00342336 0.00148711 0.999993)
(-0.100325 0.0712727 0.992399)
(0.00992141 0.00827522 0.999917)
(0.441605 0.897197 0.0048202)
(0.441339 0.897329 0.00455902)
(-0.24397 -0.0128809 0.969697)
(-0.205862 -0.0114263 0.978514)
(-0.203838 -0.00634598 0.978984)
(-0.460161 -0.0243374 0.887502)
(-0.235998 -0.00663933 0.971731)
(-0.172629 -0.0101063 0.984935)
(-0.201185 -0.0112386 0.979489)
(-0.282974 -0.00700633 0.959102)
(-0.470903 -0.0244408 0.881846)
(-0.241206 -0.00668553 0.970451)
(0.024443 -0.00114581 0.999701)
(-0.0472525 0.0285286 0.998475)
(0.00877081 0.00230413 0.999959)
(0.0136443 0.00241146 0.999904)
(0.0196414 -0.012543 0.999728)
(0.997753 -0.063663 0.0208644)
(0.985985 0.142295 0.0871014)
(0.0628548 -0.0064407 0.998002)
(0.987104 0.140596 0.0765366)
(0.045117 -0.0266418 0.998626)
(0.0284602 0.00206097 0.999593)
(0.027107 0.00149554 0.999631)
(0.0152739 0.00222329 0.999881)
(0.00716301 -0.0149891 0.999862)
(0.0464037 -0.0188226 0.998745)
(0.8737 -0.471718 -0.118874)
(0.87123 -0.479222 -0.106323)
(-0.234441 -0.0679678 0.969751)
(-0.507004 -0.0257178 0.86156)
(-0.436759 -0.00907476 0.899533)
(-0.656924 -0.024337 0.753564)
(-0.524806 -0.0130577 0.851122)
(-0.396546 -0.0192263 0.917813)
(-0.492382 -0.0248584 0.870024)
(-0.276375 -0.0892161 0.9569)
(-0.673536 -0.023336 0.738786)
(-0.538169 -0.0136972 0.842726)
(0.0988687 -0.0924639 0.990795)
(-0.121141 -0.0664589 0.990408)
(0.298456 -0.00403758 0.954415)
(0.387194 0.0389754 0.921174)
(0.42768 -0.171927 0.887429)
(0.913361 -0.282951 0.292762)
(0.994202 0.0132744 0.106703)
(0.9885 -0.146733 -0.0365718)
(0.241622 0.0909871 0.966095)
(0.00604264 -0.106182 0.994328)
(0.795739 -0.330205 -0.507705)
(-0.537765 0.703082 0.465279)
(0.75954 0.270758 -0.591429)
(0.808225 -0.585305 0.0647336)
(0.459573 0.746027 -0.481909)
(0.982552 -0.0433755 -0.180857)
(-0.0777202 -0.451629 0.888814)
(0.0429411 0.845703 -0.531924)
(-0.293946 -0.139688 0.94556)
(0.951104 -0.120792 -0.284272)
(-0.15812 -0.00873444 0.987381)
(0.918894 -0.393947 0.0209637)
(-0.320449 -0.168344 0.932187)
(0.109499 -0.0924889 0.989675)
(0.919913 -0.366541 -0.139308)
(-0.0192383 0.0125837 0.999736)
(-0.205474 -0.068746 0.976245)
(0.640158 -0.597179 -0.483295)
(0.963581 -0.0132193 -0.267088)
(0.93265 -0.0495439 -0.357365)
(0.806771 -0.587002 0.0674565)
(0.813599 -0.57762 0.0664277)
(0.226043 0.961012 -0.159251)
(0.957238 -0.137826 -0.254361)
(0.488266 0.826297 -0.280766)
(0.871953 -0.487339 -0.0468891)
(0.979386 0.0883228 -0.181668)
(0.823233 0.55741 -0.107615)
(0.0226428 0.999733 -0.0046878)
(0.239306 0.955106 -0.174658)
(0.514649 0.849872 -0.113373)
(0.961499 0.0910574 -0.259284)
(0.708583 0.696374 -0.113904)
(0.810651 0.566901 -0.14652)
(-0.117218 0.041006 0.992259)
(0.983383 -0.177534 -0.0379328)
(-0.194389 -0.0075587 0.980895)
(0.922147 -0.383465 0.0509851)
(0.019126 -0.0471459 0.998705)
(0.843984 0.046865 -0.534316)
(0.917546 -0.395562 -0.040504)
(0.814733 -0.579832 0.00205228)
(0.816753 -0.576968 -0.00477689)
(0.0208732 0.0168587 0.99964)
(-0.0100404 -0.00941326 0.999905)
(-0.0121236 0.0123006 0.999851)
(-0.0257185 -0.0225584 0.999415)
(0.820247 -0.56981 0.0501154)
(0.819863 -0.572516 0.00704785)
(0.517673 0.0802505 0.851807)
(0.921066 -0.374541 0.106571)
(0.634751 -0.606701 0.478546)
(0.21487 -0.53569 0.816619)
(-0.440032 0.737598 -0.512174)
(-0.562009 0.825626 -0.049869)
(-0.43489 0.891077 0.129817)
(-0.58636 0.745517 -0.316839)
(-0.590139 0.807099 0.0181105)
(0.932229 0.361779 0.00801543)
(-0.261771 0.964873 0.0222773)
(0.952154 0.304747 0.0230878)
(0.0752367 0.996935 -0.0214283)
(0.962282 0.267298 0.0506509)
(0.961431 0.246642 -0.121732)
(-0.204392 0.977667 0.0488981)
(0.0150152 0.0165374 0.99975)
(0.993257 -0.0885849 0.074786)
(-0.0104421 0.00546685 0.999931)
(0.0912041 -0.0294081 0.995398)
(-0.0235745 0.0172975 0.999572)
(-0.106351 -0.0407992 0.993491)
(0.088087 -0.0116289 0.996045)
(-0.200978 0.149344 0.968145)
(0.019321 0.00244068 0.99981)
(0.00401543 0.0196327 0.999799)
(-0.00325401 -0.00956764 0.999949)
(-0.0207923 0.0107981 0.999726)
(-0.00717513 -0.0265389 0.999622)
(0.337713 -0.250326 0.907352)
(-0.0852183 0.0639503 0.994308)
(-0.0815449 0.996591 0.0125308)
(0.116797 0.99289 0.0229637)
(-0.0637444 0.997877 0.0133178)
(-0.0796617 0.99635 0.0306779)
(0.065118 0.997866 0.00490113)
(0.212831 0.977063 0.0071754)
(0.0793219 0.996764 0.0130183)
(0.0988137 0.995093 0.00514383)
(0.140686 0.99003 0.00698385)
(-0.135935 0.990584 0.0162823)
(0.184422 0.982685 -0.017864)
(-0.0311981 0.999503 0.00448225)
(0.0445459 0.999001 0.00356157)
(0.0321573 0.99948 0.00247788)
(0.0128307 0.999917 0.00150733)
(0.0320315 0.999481 0.00348152)
(0.0309942 0.999517 0.0023313)
(0.0719953 0.997398 0.00363425)
(0.0324401 0.999465 0.00406047)
(0.0467643 0.998903 0.00244288)
(-0.0476096 0.998815 0.0101319)
(-0.0970486 0.0248915 0.994968)
(-0.035472 0.0093003 0.999327)
(0.411104 0.00726509 0.91156)
(0.438038 0.00741317 0.898926)
(0.522437 0.0296735 0.852162)
(0.445143 0.0146292 0.89534)
(0.00305204 0.999994 0.00130194)
(-0.00421486 0.999991 0.000657483)
(-0.00423578 0.999991 7.13858e-05)
(-0.00321561 0.999995 0.000608866)
(-0.0021318 0.999998 0.00013709)
(-0.0125878 0.999921 -0.00017348)
(-0.00698554 0.999975 -0.00049267)
(0.00508807 0.999987 0.000152329)
(-0.0119396 0.999929 -0.000160642)
(0.970042 -0.198136 -0.140573)
(0.901232 0.407915 -0.146241)
(-0.168788 0.985061 0.034128)
(0.0138977 0.999903 0.000945696)
(0.172137 0.98481 0.0227371)
(0.457435 0.868555 0.190695)
(0.981168 0.16746 0.0962648)
(0.377508 0.92501 0.0429358)
(0.0314721 0.999503 0.0015415)
(0.289914 0.95679 0.0224169)
(0.298579 0.954135 0.0218162)
(-0.234049 0.970391 0.0596867)
(-0.0167567 -0.00488855 0.999848)
(-0.0791955 -0.0105935 0.996803)
(0.70692 -0.669226 -0.228911)
(0.509415 -0.0308705 0.859967)
(0.418613 -0.00904307 0.90812)
(0.482191 -0.0229722 0.875765)
(0.963699 -0.236816 -0.123295)
(0.963473 -0.267731 -0.00626658)
(0.7243 -0.682594 -0.097238)
(0.426361 0.86672 0.258869)
(-0.292826 -0.405393 0.865973)
(0.596168 -0.57413 -0.561211)
(-0.499295 0.816751 0.289176)
(-0.361991 0.0124982 0.932098)
(-0.227401 0.964613 0.133456)
(-0.680505 0.714189 0.163848)
(-0.36097 0.704006 0.611617)
(0.965569 -0.152252 -0.210939)
(-0.383978 0.0156215 0.92321)
(0.850702 -0.489941 -0.190433)
(0.889768 -0.456372 -0.00614195)
(0.791388 -0.457571 -0.405381)
(-0.247982 0.958955 0.137516)
(-0.53007 0.84411 0.0806442)
(-0.476208 0.629158 0.614318)
(-0.0913654 0.995782 -0.00837626)
(-0.449422 0.893288 -0.00744458)
(0.991876 -0.0125536 -0.126584)
(0.979048 -0.203404 -0.00961984)
(-0.405545 0.913101 0.0421883)
(-0.408952 0.0959083 0.907502)
(-0.178914 0.970896 0.15922)
(-0.389898 0.918564 0.0649674)
(0.974958 -0.0972402 -0.200005)
(-0.441535 0.0622766 0.89508)
(-0.502443 0.85931 0.0955921)
(0.927161 -0.37459 -0.00738599)
(-0.220659 0.961297 0.164981)
(-0.358518 0.933099 0.0281364)
(0.409285 0.912406 -0.00106469)
(0.40984 0.912157 -0.00100593)
(0.973378 -0.191204 -0.1264)
(0.991176 -0.13217 -0.0100136)
(0.981574 -0.133065 -0.137136)
(-0.445676 -0.00837964 0.895155)
(0.965208 -0.0544327 -0.255754)
(0.969512 -0.0682064 -0.235358)
(0.969418 -0.119057 -0.214604)
(-0.439311 -0.00761941 0.898303)
(0.97041 -0.0754123 -0.229385)
(0.991164 -0.132247 -0.010225)
(0.982534 -0.102388 -0.155381)
(0.982296 -0.123022 -0.141281)
(0.316286 0.948641 -0.00656692)
(0.336907 0.941515 -0.00659932)
(0.986303 0.104274 -0.127805)
(0.999891 -0.00800002 -0.012379)
(0.9781 0.159736 -0.133435)
(-0.537509 0.0278821 0.842797)
(0.972832 0.0306485 -0.229475)
(0.975877 0.0317498 -0.216)
(0.978763 -0.0276161 -0.203125)
(-0.529473 0.0282528 0.847856)
(0.976814 0.0283423 -0.212204)
(0.99989 -0.00802642 -0.012499)
(0.97958 0.138037 -0.146182)
(0.97813 0.157204 -0.136196)
(-0.0702103 0.00704084 0.997507)
(-0.0621552 0.00674252 0.998044)
(-0.218827 0.0461538 0.974672)
(-0.135059 -0.144042 0.980312)
(-0.0777032 0.00741185 0.996949)
(-0.0855355 0.0067448 0.996312)
(-0.242336 0.0356914 0.969536)
(-0.0762989 0.00720596 0.997059)
(-0.146067 -0.115662 0.98249)
(-0.0642917 0.00690374 0.997907)
(-0.0706992 -0.0039033 0.99749)
(-0.0823563 -0.00507838 0.99659)
(-0.269637 -0.0171628 0.962809)
(-0.113745 -0.00431637 0.993501)
(-0.100747 -0.00356501 0.994906)
(-0.0854495 -0.0022491 0.99634)
(-0.263115 -0.0164588 0.964624)
(-0.0988745 -0.00343359 0.995094)
(-0.0949817 -0.00611589 0.99546)
(-0.0839555 -0.00522319 0.996456)
(-0.0724213 0.00715128 0.997348)
(-0.0869862 0.00800239 0.996177)
(-0.329139 0.0275208 0.94388)
(-0.120059 0.00779369 0.992736)
(-0.105778 0.00713537 0.994364)
(-0.087862 0.00674843 0.99611)
(-0.320121 0.0271438 0.946988)
(-0.103671 0.00706127 0.994587)
(-0.101379 0.00906406 0.994807)
(-0.0888688 0.00812926 0.99601)
(0.815883 -0.578192 -0.00549719)
(0.813781 -0.581148 -0.00524905)
(0.0130845 0.0111529 0.999852)
(-0.00390013 -0.00409314 0.999984)
(-0.0422155 0.0207086 0.998894)
(0.981191 -0.192859 -0.0083501)
(0.998649 0.044282 0.0271967)
(0.904517 -0.42643 -0.00246177)
(0.999061 0.0430813 -0.00459543)
(0.0747049 -0.0102697 0.997153)
(0.90494 -0.425454 -0.00850972)
(0.00799826 0.00545093 0.999953)
(0.000108349 -0.00134979 0.999999)
(0.812167 -0.583419 -0.00262645)
(0.812868 -0.582363 -0.00997999)
(0.0497767 -0.0028135 0.998756)
(0.98093 -0.194315 -0.00425775)
(0.998744 0.0446017 0.0228359)
(0.904484 -0.426497 -0.00310788)
(0.0356325 -0.000673727 0.999365)
(0.999003 0.0435209 0.00997683)
(0.903912 -0.427673 -0.00626243)
(0.810673 -0.585495 -0.00207269)
(0.811076 -0.58489 -0.00773357)
(0.00609712 0.00300698 0.999977)
(0.00473748 0.00158088 0.999988)
(0.00649095 0.00424254 0.99997)
(0.00351911 0.000814658 0.999993)
(0.812267 -0.583234 -0.00776989)
(0.811358 -0.584542 -0.00305477)
(-0.000495039 0.00471887 0.999989)
(0.996375 -0.0850035 -0.00323487)
(0.989769 0.133585 0.0501186)
(-0.0248534 0.0183396 0.999523)
(-0.00452399 0.00345385 0.999984)
(0.990507 0.132414 0.0369191)
(-0.014952 0.0152763 0.999772)
(-0.128269 0.0929041 0.987378)
(-0.00976738 0.0236224 0.999673)
(0.00304141 0.00268312 0.999992)
(0.00240568 0.00095111 0.999997)
(0.00176697 0.00376338 0.999991)
(0.00249652 0.000292334 0.999997)
(-0.0330947 0.0415374 0.998589)
(-0.150503 0.110706 0.982391)
(0.989719 -0.142301 -0.0143874)
(0.975781 -0.0747078 -0.205599)
(0.97936 -0.0824973 -0.184522)
(0.963352 -0.0513367 -0.263281)
(-0.488203 -0.0102821 0.87267)
(0.956668 -0.0445482 -0.287752)
(0.989864 -0.14132 -0.0140713)
(0.982199 -0.0973647 -0.160639)
(0.980278 -0.0856177 -0.178116)
(0.945172 -0.0389191 -0.324246)
(-0.494061 -0.0102707 0.869367)
(0.954075 -0.0428731 -0.296484)
(0.6262 0.779629 -0.00730414)
(0.613845 0.789394 -0.00726189)
(0.999642 -0.0220443 -0.015169)
(0.97986 0.0805274 -0.182727)
(0.980748 0.100588 -0.167376)
(0.971677 0.0286687 -0.234566)
(-0.584206 0.0293781 0.811073)
(0.967653 0.0213901 -0.251377)
(0.999667 -0.0210107 -0.0149596)
(0.980048 0.130421 -0.14999)
(0.980774 0.107738 -0.16271)
(0.960774 0.0111661 -0.277108)
(-0.59003 0.02992 0.806827)
(0.966108 0.0187175 -0.25746)
(0.431933 0.901904 0.00156978)
(0.432182 0.901785 0.00169963)
(0.974285 -0.0727018 -0.21327)
(0.986804 -0.160591 -0.0206712)
(0.968775 -0.0681055 -0.238403)
(-0.541255 -0.00871242 0.840813)
(0.912626 -0.0349413 -0.4073)
(0.926369 -0.0357643 -0.374915)
(0.941818 -0.0380073 -0.333967)
(-0.535252 -0.00901869 0.844644)
(0.930537 -0.0362131 -0.364403)
(0.986526 -0.162223 -0.0212111)
(0.958642 -0.0639914 -0.277328)
(0.96657 -0.066874 -0.247527)
(0.752998 0.657976 -0.00784729)
(0.756938 0.653439 -0.00789007)
(0.979303 0.0740972 -0.188347)
(0.999257 -0.0333806 -0.0192914)
(0.976765 0.0561007 -0.206842)
(-0.631961 0.0357094 0.774177)
(0.940107 -0.00736686 -0.340801)
(0.949148 -0.00113664 -0.314828)
(0.958742 0.00859948 -0.284149)
(-0.62716 0.034887 0.778109)
(0.951788 0.00105913 -0.306755)
(0.99925 -0.0333646 -0.0196402)
(0.971031 0.0360776 -0.236215)
(0.975604 0.0505783 -0.213633)
(-0.133555 0.0120633 0.990968)
(-0.118188 0.0105529 0.992935)
(-0.122107 0.00790854 0.992485)
(-0.391073 0.0318954 0.919807)
(-0.137235 0.00887332 0.990499)
(-0.103152 0.00920992 0.994623)
(-0.116191 0.0103648 0.993173)
(-0.157348 0.0103827 0.987489)
(-0.400132 0.0326893 0.915874)
(-0.139554 0.00903663 0.990173)
(-0.126789 -0.00803378 0.991897)
(-0.14425 -0.00887472 0.989501)
(-0.391625 -0.0232299 0.919832)
(-0.199789 -0.00630297 0.979819)
(-0.174533 -0.00597049 0.984633)
(-0.15107 -0.00553991 0.988508)
(-0.382738 -0.0230054 0.92357)
(-0.171318 -0.00591839 0.985198)
(-0.169071 -0.00995876 0.985554)
(-0.147036 -0.00900358 0.98909)
(-0.135976 0.0123102 0.990636)
(-0.154952 0.0143098 0.987818)
(-0.475751 0.0400775 0.878666)
(-0.212508 0.0151455 0.977042)
(-0.185367 0.0127294 0.982587)
(-0.160142 0.010607 0.987037)
(-0.466077 0.0390792 0.88388)
(-0.18191 0.0124308 0.983237)
(-0.181988 0.0172699 0.983149)
(-0.157985 0.0146352 0.987333)
(0.810606 -0.585549 -0.00705508)
(0.810071 -0.586327 -0.00213578)
(0.00584619 0.00277019 0.999979)
(0.0055494 0.00180436 0.999983)
(0.0321411 0.000265416 0.999483)
(0.981028 -0.193867 -0.000717108)
(0.99877 0.0450603 0.0206885)
(0.902753 -0.430151 -0.00279161)
(0.99881 0.044319 0.0203702)
(0.0929225 -0.0137626 0.995578)
(0.902804 -0.430047 -0.00216557)
(0.0069368 0.00257847 0.999973)
(0.00617244 0.00215215 0.999979)
(0.809554 -0.587041 -0.00215532)
(0.809932 -0.586481 -0.00701432)
(0.111704 -0.0177792 0.993582)
(0.981302 -0.192472 0.000163137)
(0.998711 0.0452582 0.0229984)
(0.90269 -0.430288 -0.00198399)
(0.0400876 -0.0007295 0.999196)
(0.998646 0.0460259 0.0242458)
(0.902594 -0.430483 -0.00294174)
(0.808358 -0.588685 -0.00268508)
(0.808836 -0.587986 -0.00749471)
(0.0111385 0.00322835 0.999933)
(0.00909531 0.00290791 0.999954)
(0.00728397 0.00271158 0.99997)
(0.00829235 0.00260045 0.999962)
(0.809452 -0.587142 -0.00717459)
(0.808975 -0.587837 -0.00253785)
(0.00374486 0.000499953 0.999993)
(0.997074 -0.0763597 0.00346758)
(0.989843 0.134727 0.0453855)
(-0.00929295 0.0114421 0.999891)
(0.00111648 -0.000161642 0.999999)
(0.989177 0.135566 0.0561249)
(-0.00646358 0.0110407 0.999918)
(-0.0732106 0.0505691 0.996034)
(0.0161476 0.0046878 0.999859)
(0.00826984 0.00235262 0.999963)