/*--------------------------------*- C++ -*----------------------------------*\
| =========                 |                                                 |
| \\      /  F ield         | OpenFOAM: The Open Source CFD Toolbox           |
|  \\    /   O peration     | Version:  2012                                  |
|   \\  /    A nd           | Website:  www.openfoam.com                      |
|    \\/     M anipulation  |                                                 |
\*---------------------------------------------------------------------------*/
FoamFile
{
    version     2.0;
    format      ascii;
    class       volScalarField;
    location    "0.107/solid";
    object      sigmaDiff;
}
// * * * * * * * * * * * * * * * * * * * * * * * * * * * * * * * * * * * * * //

dimensions      [1 -1 -2 0 0 0 0];


internalField   nonuniform List<scalar> 
24998
(
-303.567
-15.3289
-235.429
-134.074
-656.405
-823.511
-787.72
-751.674
-693.758
-331.982
-235.237
-1076.52
-25.3145
-245.284
-843.468
-235.649
-145.722
-134.593
-144.659
-444.953
-474.916
-760.474
-1058.31
-1024.69
-791.877
-1019.74
-983.191
-757.777
-975.622
-902.256
-706.71
-878.167
-27.1944
-2410.13
-205.301
-566.642
-803.279
-242.331
-240.04
-154.805
-153.125
-151.784
-148.941
-135.487
-1.29184e+06
-572.61
-1.05044e+06
-352545
-466351
-809.429
-682048
-958678
-365390
-297399
-776.653
-199216
-401198
-211611
-146937
-729.829
-1959.85
-44711.9
-67996.3
-4948.5
-54.0125
-566.247
-1007.26
-1443.03
-257.559
-2560.92
-394.822
-318.448
-1530.62
-1039.25
-178.811
-231.413
-390.508
-175.024
-193.388
-817.908
-282.033
-162.483
-199.487
-152.089
-154.495
-160.378
-197.066
-199.391
-151.663
-196.402
-145.922
-194.085
-379.662
-148.916
-148.094
-289.439
-193.784
-136.289
-1.24167e+06
-580.634
-189691
-293562
-752666
-1.3057e+06
-1.38016e+06
-1.27134e+06
-107689
-266539
-1.41885e+06
-1.2718e+06
-977760
-1.22209e+06
-254827
-287380
-937708
-1.28585e+06
-992148
-1.25208e+06
-237332
-262956
-967380
-299128
-414478
-375359
-453458
-332692
-403797
-1044.52
-1037.46
-802.97
-652969
-250982
-919304
-222571
-695488
-973040
-679286
-234083
-948838
-210238
-664389
-416395
-635998
-182793
-218085
-398249
-677715
-427097
-662012
-176764
-206505
-418184
-323613
-263942
-221038
-287788
-201553
-255863
-1006.42
-1001.26
-772.439
-191126
-177163
-383714
-133520
-205530
-411659
-202293
-171919
-403153
-132927
-187702
-51108.9
-180184
-74690.8
-126679
-50687.8
-193718
-53075.4
-190781
-76138.2
-126562
-53618.9
-194038
-141604
-76544.6
-137919
-78320.9
-133994
-947.462
-936.905
-722.603
-2658.46
-66731.2
-44630.4
-5866.86
-2011.61
-46454.3
-2637.8
-68153.8
-47159.7
-5846.56
-69976.8
-4945.37
-140.621
-778.746
-626.504
-369.103
-291.58
-617.747
-540.876
-724.465
-386.735
-496.786
-47.1217
-204.583
-37.4343
-51.8036
-132.237
-52.985
-105.255
-9160.17
-3588.78
-248.457
-488.291
-840.436
-815.925
-265.129
-842.775
-478.243
-223.363
-443.785
-831.971
-784.084
-228.169
-829.387
-440.254
-194.029
-409.894
-810.893
-744.854
-205.592
-804.529
-403.147
-124.65
-362.168
-759.924
-654.434
-155.601
-667.307
-344.449
-306.127
-285.082
-646.753
-604.889
-868.641
-353.456
-592.217
-332.187
-365.315
-407.24
-288.988
-1082.94
-1069.18
-991.261
-1009.9
-258.5
-1064.1
-77.9516
-93.5522
-107.27
-357.033
-62.996
-190.676
-288.676
-855.654
-497.799
-860.822
-265.039
-912.896
-509.668
-342.145
-217.364
-281.987
-150.665
-235.86
-240.42
-140.594
-51.5099
-47.4663
-234.856
-143.067
-233.311
-185.006
-545.432
-275.975
-160.612
-68.283
-39.5759
-868.475
-5771.72
-3886.22
-238.766
-1055.06
-973.954
-1050.62
-973.53
-256.057
-1053.06
-221.412
-1029.2
-1040.71
-960.439
-965.449
-218.242
-1044.42
-232.947
-795.782
-447.459
-833.766
-227.786
-837.948
-451.214
-214.545
-1036.28
-958.362
-1015.37
-954.945
-217.434
-1032.68
-206.258
-989.889
-1003.16
-934.729
-940.97
-201.174
-1009.51
-213.484
-763.198
-415.783
-812.832
-205.517
-817.979
-420.897
-190.536
-996.061
-932.408
-967.096
-924.612
-199.798
-988.026
-180.692
-915.626
-938.126
-876.236
-897.58
-215.918
-944.125
-158.045
-711.706
-365.176
-771.35
-154.317
-786.045
-365.502
-590.696
-935.002
-862.272
-835.967
-760.38
-243.216
-944.651
-63.6762
-341.036
-405.742
-648.195
-1339.97
-652.144
-12605.9
-819.354
-167.193
-574.279
-463.236
-456.625
-499.506
-506.021
-853.996
-552.845
-403.801
-747.45
-848.325
-568.812
-829.589
-330.597
-598.822
-643.922
-620.276
-580.786
-456.644
-626.523
-426.255
-486.472
-159.628
-157.938
-50.5171
-43.1547
-194.348
-38.8992
-29.5361
-27.0005
-35.2614
-150.248
-150.167
-41.9971
-43.0299
-132.34
-50.9715
-52.9077
-41.1493
-42.9535
-1.43453e+06
-11415.9
-1.46903e+06
-15028.3
-1.10812e+06
-1.23183e+06
-65.3819
-2593.16
-15360.8
-514865
-824022
-1.13015e+06
-5529.03
-1.0025e+06
-499598
-1.11416e+06
-951879
-1.25065e+06
-4480.89
-355.582
-343.492
-654.984
-651.205
-248.14
-814.429
-842.962
-464.8
-848.885
-238.808
-470.402
-639.755
-651.647
-328.875
-337.258
-808663
-827136
-604768
-710119
-755633
-336020
-659149
-834389
-725458
-552627
-326330
-645594
-306.123
-300.089
-623.505
-619.801
-223.779
-780.558
-824.82
-433.317
-828.627
-218.85
-436.866
-613.647
-618.46
-291.366
-297.594
-287000
-300509
-205489
-278716
-345493
-183585
-270607
-373300
-289940
-194562
-174334
-260515
-265.784
-254.129
-592.251
-579.777
-193.716
-737.447
-795.649
-386.787
-802.314
-177.11
-395.456
-553.828
-574.357
-233.367
-250.061
-8807.7
-11662.4
-4115.5
-30728.2
-72449.8
-42597.1
-37056.6
-72007.5
-35325.8
-3824.56
-34029.4
-32476.3
-190.877
-175.315
-414.445
-344.268
-105.976
-653.583
-624.295
-278.438
-324.332
-173.533
-113.236
-249.664
-272.554
-706.159
-558.299
-452.514
-937.847
-382.19
-339.07
-885.639
-946.844
-1033.43
-955.15
-350.275
-894.395
-751.681
-770.184
-466.831
-483.588
-290.785
-1191.98
-885.328
-436.515
-13487.4
-613.061
-659.174
-434.912
-436.915
-383.094
-499.276
-429.886
-495.054
-1017.08
-453.851
-298.626
-1062.03
-922.706
-1020.68
-357.247
-984.779
-1029.34
-1234.8
-1208.5
-763.716
-798.259
-746.165
-789.165
-1152.26
-1185.8
-65.4768
-479
-155.494
-91.5182
-127.046
-495.253
-223.491
-185.496
-389.966
-327.788
-205.132
-65.2857
-186.556
-275.825
-187.336
-254.382
-292.546
-840.37
-827.424
-549.844
-332.996
-894.143
-530.495
-357.88
-369.324
-669.215
-708.334
-643.203
-697.2
-427.045
-382.047
-361.115
-203.481
-276.103
-191.115
-251.655
-273.347
-200.356
-261.39
-272.599
-153.707
-153.973
-152.824
-248.853
-242.222
-249.883
-198.861
-253.666
-259.393
-199.155
-254.922
-141.662
-40.2077
-46.6465
-41.5932
-37.7313
-29.0565
-36.7608
-248.963
-194.968
-247.541
-143.213
-235.968
-233.461
-194.681
-249.721
-247.666
-147.054
-146.461
-166.995
-238.081
-257.184
-480.923
-190.875
-282.841
-251.352
-190.446
-267.252
-154.374
-50.2033
-41.8234
-38.3164
-28.959
-40.3572
-31.7865
-616098
-1.38628e+06
-681269
-694.052
-8319.94
-2466.64
-10573.7
-305917
-323536
-482544
-11458.6
-436503
-307450
-472656
-1.42358e+06
-22449.9
-488467
-705783
-12632.6
-1.44233e+06
-1.46874e+06
-676557
-1.40319e+06
-730337
-247160
-466983
-534409
-496634
-261771
-525143
-1.42448e+06
-660189
-747021
-1.13287e+06
-1.11324e+06
-595968
-1.08741e+06
-538980
-266915
-340817
-374586
-423447
-271387
-386290
-1.06846e+06
-468073
-520851
-1.14732e+06
-1.1277e+06
-658997
-1.11784e+06
-604341
-247449
-402678
-438509
-485794
-251096
-450478
-1.09882e+06
-531869
-586109
-1.07435e+06
-1.1647e+06
-420723
-876142
-1.06804e+06
-978303
-430851
-1.05974e+06
-1.03386e+06
-1.17185e+06
-1.09141e+06
-977479
-406444
-769634
-869203
-987296
-417442
-883676
-850145
-961442
-1.05884e+06
-948388
-361311
-749580
-848411
-963958
-371458
-862733
-823027
-932601
-1230.91
-1238.49
-750.025
-742.769
-236.402
-1049.44
-972.161
-1055.08
-978.699
-228.715
-1057.55
-730.106
-742.204
-1245.86
-1244.1
-222.2
-1032.71
-967.742
-1049.05
-227.496
-965.344
-1046.17
-1238.6
-1242.66
-714.459
-720.34
-725.858
-721.5
-1244.07
-1242.53
-232.557
-798.857
-838.689
-459.923
-239.229
-837.505
-455.271
-308.732
-314.984
-625.524
-631.08
-635.497
-631.96
-325.621
-318.284
-774764
-336794
-384325
-329907
-239315
-298086
-792552
-450913
-400651
-257847
-235287
-287783
-822687
-841220
-802875
-391508
-443255
-390782
-224244
-355302
-820878
-513953
-460769
-308686
-220864
-343562
-544378
-527798
-321477
-520805
-277296
-198785
-185560
-211373
-248202
-203823
-220320
-504912
-222923
-263194
-556698
-539941
-374568
-544321
-324837
-190346
-219382
-252096
-297202
-194581
-263230
-528021
-261689
-308678
-583638
-685925
-735669
-297310
-639945
-807548
-700882
-534829
-288803
-626532
-590045
-491189
-249506
-356757
-439093
-539649
-259049
-451317
-385846
-477570
-569411
-473010
-224403
-343918
-423737
-522074
-232147
-435642
-370762
-459733
-1236.93
-1232.28
-712.34
-708.305
-213.921
-1011.15
-949.322
-1024.79
-953.956
-211.356
-1029.14
-701.82
-706.873
-1224.55
-1230.86
-207.189
-995.812
-947.593
-1020.01
-210.59
-942.699
-1015
-1202.25
-1212.2
-683.218
-691.596
-699.826
-693.951
-1222.44
-1214.8
-213.212
-768.013
-823.378
-429.484
-219.195
-819.416
-425.375
-269.281
-278.495
-595.698
-603.799
-611.731
-606.102
-288.75
-281.412
-274695
-131451
-162996
-177283
-159369
-153338
-287581
-210205
-174244
-123095
-153132
-145620
-295358
-309148
-289853
-150425
-189398
-208731
-156347
-177658
-303295
-246579
-203169
-138517
-150786
-167616
-115104
-105929
-121648
-111266
-94196.4
-97827.4
-64813.7
-86725
-115749
-105264
-93963.2
-102572
-61350.7
-85637.2
-119098
-109651
-138262
-118013
-104398
-98987
-68101.2
-93440.2
-129165
-106201
-102138
-108807
-65229.2
-93984.7
-198376
-267952
-333053
-171622
-261168
-358658
-278665
-188748
-164161
-251526
-195836
-134414
-102498
-78113.8
-122956
-185846
-111268
-130136
-78029.7
-126553
-189242
-131246
-102754
-77974.7
-120820
-180476
-110695
-127645
-77780.8
-123815
-1198.84
-1186.06
-679.659
-666.594
-187.989
-957.666
-912.982
-969.674
-921.877
-183.315
-979.273
-638.123
-660.9
-1166.84
-1181.78
-180.487
-926.311
-910.263
-960.227
-182.788
-900.889
-951.083
-1145.26
-1147.03
-486.177
-566.666
-628.44
-586.132
-1162.44
-1149.42
-158.293
-716.45
-793.699
-377.754
-176.251
-787.985
-369.921
-194.116
-204.578
-435.938
-494.057
-544.825
-509.359
-227.879
-208.242
-10177.5
-9360.37
-23718.8
-57384.6
-42271
-34686.5
-13027.9
-53598
-30981.4
-9473.35
-33851
-27089.5
-9064.44
-12069.6
-10371
-9381.79
-24130.7
-59845.6
-43388.3
-35548.5
-13408.8
-56391.3
-31730.3
-9486.79
-34838.1
-27663.6
-4348.48
-31553.3
-72502.8
-44431.7
-37722.1
-72008.7
-36150
-4110.83
-35688.2
-33141.1
-1149.47
-1195.75
-458.159
-397.374
-664.634
-766.856
-717.856
-1185.7
-385.04
-1255.05
-477.207
-660.584
-61.0408
-29.9978
-196.69
-225.97
-201.335
-107.179
-133.366
-106.067
-445.945
-1914.7
-1445.35
-242.63
-316.032
-323.829
-96.6738
-38.4694
-27.8775
-96.8358
-277.884
-197.12
-220.694
-299.799
-236.402
-281.96
-147.124
-202.77
-204.25
-137.4
-107.66
-109.653
-201.684
-143.924
-200.904
-292.925
-541.767
-364.621
-235.159
-322.871
-166.775
-917.659
-1420.33
-1720.19
-142.954
-35.9836
-57.6407
-60.7662
-137.405
-82.859
-84.8035
-3874.95
-2615.23
-1853.1
-4239.84
-1735.35
-6440.25
-3032.93
-354.822
-178.107
-376.704
-338.015
-421.604
-344.576
-288.698
-933.243
-865.874
-751.657
-542.421
-710.533
-590.809
-705.37
-573.237
-191.882
-375.198
-293.637
-377.489
-270.598
-472.955
-49.9938
-186.943
-72.8132
-155.525
-79.1703
-81.8528
-159.602
-124.94
-131.303
-74.7029
-151.348
-75.8184
-149.932
-81.1176
-79.8718
-134.12
-108.349
-106.673
-1.35185e+06
-452.563
-2174.86
-1500.31
-1.48235e+06
-68723.1
-56137.9
-1.45834e+06
-1.5154e+06
-196344
-517605
-459485
-702078
-113900
-653936
-479117
-682309
-1.56324e+06
-1.7552e+06
-735692
-901850
-791136
-851813
-500976
-355530
-476225
-1.10323e+06
-1.03938e+06
-380758
-307025
-404164
-235327
-356788
-244273
-284772
-256165
-202226
-235814
-472875
-422418
-160699
-156008
-178537
-2367.53
-27882.8
-3550.46
-8422.6
-72142.9
-59513.7
-58373.8
-69797
-49679.7
-2935.31
-15353.2
-17905.7
-569.697
-665.79
-821.559
-427.868
-181.282
-94.2269
-80.3165
-79.6387
-141.634
-148.122
-240.803
-829.027
-865.991
-760.952
-514.988
-700.768
-561.885
-659.088
-663.425
-1957.4
-1141.04
-889.969
-1283.7
-980.878
-701.22
-63.1748
-321.14
-201.091
-4694.17
-2631.86
-4477.9
-2241.53
-6264.83
-2167.86
-3797.34
-374.82
-347.438
-390.882
-1003.22
-1998.88
-956.472
-1378.09
-1040.4
-1674.06
-900.134
-187.542
-126.739
-315.41
-313.395
-363.491
-219.998
-150.196
-319.496
-192.472
-322.61
-240.472
-342.387
-215.396
-302.207
-125.174
-173.981
-193.377
-144.798
-236.559
-145.119
-138.755
-148.174
-176.325
-212.869
-166.832
-221.197
-135.577
-190.327
-349.185
-243.8
-308.689
-165.144
-220.266
-223.556
-199.715
-260.298
-260.387
-74.7546
-153.028
-75.482
-78.1675
-154.558
-77.5978
-157.965
-217.923
-215.442
-257.079
-197.723
-257.798
-260.304
-199.385
-260.121
-147.486
-123.358
-119.054
-256.324
-195.868
-255.651
-144.599
-203.038
-201.675
-194.328
-255.745
-255.367
-315.066
-170.731
-138.67
-81.918
-148.319
-85.3267
-151.629
-205.369
-209.129
-344.935
-208.359
-300.067
-256.296
-193.488
-257.373
-141.387
-109.166
-112.566
-972105
-1.30096e+06
-1.02244e+06
-467.932
-1353.91
-921.369
-200487
-243414
-21812.4
-95795.2
-44920.7
-215073
-299719
-217461
-1.54664e+06
-339350
-769449
-1.1259e+06
-225519
-1.36466e+06
-1.39395e+06
-997570
-1.32856e+06
-1.04321e+06
-151012
-94879.6
-118551
-231878
-268801
-230197
-1.41463e+06
-948920
-1.13224e+06
-1.21197e+06
-1.03542e+06
-955902
-1.16394e+06
-909637
-258720
-201640
-202802
-212483
-281562
-210166
-993329
-733395
-776278
-1.2263e+06
-1.04986e+06
-982554
-1.19438e+06
-937519
-240614
-221128
-222948
-231732
-258945
-230762
-1.02335e+06
-761684
-805063
-1.45771e+06
-1.5136e+06
-340613
-507940
-627110
-623796
-423943
-649293
-1.70757e+06
-1.70501e+06
-1.43882e+06
-1.37862e+06
-385484
-509263
-534611
-644187
-440912
-615186
-1.1246e+06
-1.18882e+06
-1.43824e+06
-1.37784e+06
-341977
-483376
-508186
-614643
-392804
-586958
-1.12312e+06
-1.18738e+06
-704547
-513812
-553314
-200432
-247137
-199138
-864522
-718960
-676807
-188415
-226927
-190622
-749421
-916121
-731699
-539070
-579715
-219199
-230835
-217151
-893598
-747449
-704630
-201842
-213868
-204785
-612145
-463099
-500623
-585823
-462276
-188273
-163559
-167405
-186016
-213469
-183427
-442931
-318798
-352804
-625090
-474465
-525939
-610841
-486260
-181446
-171878
-176279
-198736
-202652
-195448
-464297
-337690
-373459
-790426
-850878
-475229
-314702
-451100
-1.10176e+06
-1.03797e+06
-359060
-272119
-381383
-771155
-712032
-230497
-263030
-284117
-373082
-278192
-350164
-490131
-543139
-770530
-711670
-209119
-248936
-268345
-351725
-247869
-330061
-491105
-543745
-225476
-161350
-187380
-159496
-171383
-155209
-341283
-307636
-275388
-124775
-140209
-130415
-242532
-366503
-238364
-171384
-199382
-167277
-166906
-162483
-359169
-326334
-292213
-129452
-139083
-135472
-154842
-72527.2
-153070
-148968
-129399
-82533.8
-71642.6
-79034.1
-118912
-119690
-112820
-70938.7
-54140.8
-70074.3
-159972
-75204.7
-162743
-157871
-137174
-83949.2
-73749.2
-81421.9
-123217
-119987
-116777
-75205.9
-56187.5
-73434.4
-246225
-286960
-242604
-186549
-224008
-473975
-423915
-155654
-149167
-171871
-231366
-194496
-85135.6
-76804.4
-91227.4
-154940
-128975
-137999
-77244.1
-101792
-233241
-196156
-86572.7
-77311.8
-91159.9
-150381
-126307
-134878
-78098.3
-102814
-3176.61
-6697.29
-7937.1
-64071.5
-58672.8
-56332.8
-28693.5
-49461.1
-36073.7
-8207.26
-15359.7
-14829.4
-2370.23
-29044.8
-3158.67
-6690.95
-7871.48
-65897.1
-60020.5
-57899.5
-30137.3
-51241.4
-36906.1
-8212.68
-16041.4
-15432.6
-3259.05
-8462.27
-72775.6
-61536.4
-59255.9
-70597.8
-50320.9
-3227.65
-16423.2
-18565.7
-1007.39
-754.642
-875.594
-1177.42
-407.373
-403.601
-236.805
-202.358
-323.305
-416.303
-338.158
-479.805
-539.526
-692.489
-690.27
-706.542
-510.849
-859.7
-370.891
-697.715
-413.239
-888.002
-522.188
-619.327
-610.287
-1171.68
-512.01
-660.825
-718.771
-627.36
-433.663
-1010.69
-314.563
-397.353
-457.243
-558.503
-395.931
-154.8
-166.582
-31.1918
-164.683
-223.812
-174.113
-197.468
-33.6312
-138.929
-160.958
-76.9543
-52.8674
-75.9215
-133.135
-105.543
-105.844
-52.8997
-75.6384
-75.767
-346.048
-419.895
-1190.72
-2929.87
-8728.27
-2169.68
-660.958
-7860.54
-1776.33
-525.163
-257.39
-463.752
-335.735
-337.548
-460.586
-524.368
-528.427
-257.459
-346.883
-466.689
-535.805
-342.569
-460.373
-498.882
-225.972
-437.816
-313.011
-313.716
-438.596
-497.663
-500.055
-225.592
-315.681
-440.849
-501.433
-315.072
-439.781
-469.276
-200.237
-404.903
-287.99
-290.296
-408.308
-465.321
-472.003
-200.364
-294.973
-414.772
-475.205
-293.214
-412.012
-427.773
-154.784
-274.308
-228.053
-249.18
-301.845
-400.171
-441.407
-154.932
-259.962
-331.359
-447.027
-259.355
-322.069
-758.057
-823.669
-525.397
-666.14
-608.89
-829.545
-832.07
-529.479
-479.395
-369.983
-458.505
-425.687
-628.652
-455.102
-262.063
-365.168
-332.505
-346.01
-379.81
-356.982
-386.675
-390.465
-365.432
-1079.66
-715.769
-270.375
-830.108
-1066.8
-842.166
-705.045
-1074.2
-267.956
-827.536
-695.564
-1062.74
-838.986
-706.696
-123.551
-67.6461
-113.77
-115.108
-83.035
-108.84
-250.768
-132.873
-112.464
-91.1418
-74.6578
-106.254
-115.224
-72.436
-106.615
-86.296
-54.0836
-101.639
-108.455
-288.192
-275.54
-231.85
-166.392
-126.763
-176.399
-233.972
-137.401
-183.832
-574.292
-275.118
-528.233
-378.787
-582.003
-372.491
-521.696
-562.241
-272.652
-355.817
-482.299
-548.77
-363.043
-502.174
-324.057
-314.568
-300.518
-233.406
-274.48
-283.088
-294.605
-286.553
-293.85
-148.8
-207.984
-206.006
-222.318
-237.335
-223.909
-227.389
-238.879
-225.616
-138.162
-113.083
-110.433
-77.3064
-50.2017
-78.788
-81.6887
-49.7154
-79.3893
-221.247
-234.227
-220.585
-143.335
-199.981
-200.269
-233.682
-219.595
-219.995
-220.283
-244.592
-283.042
-568.429
-389.117
-388.602
-265.132
-312.742
-304.737
-204.329
-124.317
-148.345
-246.728
-33.2327
-119.793
-89.4694
-33.5453
-105.792
-950.376
-1418.92
-1713.48
-2717.78
-7118.3
-3292.27
-2611.11
-6134.21
-3252.81
-1038.05
-672.958
-243.701
-812.45
-805.504
-667.386
-1043.56
-1039.15
-247.523
-810.312
-680.07
-1046.42
-802.626
-666.244
-1031.01
-666.403
-219.462
-808.115
-1032.04
-805.925
-665.364
-1028.22
-218.81
-803.308
-662.69
-1026.91
-803.63
-663.759
-506.257
-229.967
-447.182
-320.215
-507.488
-319.646
-446.237
-504.727
-230.354
-317.202
-442.633
-503.014
-318.096
-444.284
-1020.01
-658.588
-214.691
-797.934
-796.795
-658.405
-1019.88
-1022.13
-215.437
-800.947
-661.013
-1023.94
-798.023
-659.315
-999.107
-648.625
-203.798
-783.846
-1001.31
-780.683
-646.833
-995.515
-202.742
-777.675
-644.248
-994.07
-777.834
-645.063
-482.189
-209.723
-424.367
-302.213
-484.326
-301.122
-422.56
-480.203
-209.897
-297.432
-417.757
-477.52
-298.996
-420.014
-983.082
-637.125
-194.144
-767.495
-768.068
-638.238
-981.12
-987.572
-195.929
-775.246
-642.643
-990.302
-771.687
-640.503
-941.278
-616.473
-183.315
-744.848
-944.955
-743.096
-613.378
-934.216
-182.138
-739.425
-603.011
-928.766
-740.188
-607.797
-440.786
-153.539
-352.713
-257.437
-441.268
-255.605
-347.013
-445.291
-154.427
-257.382
-337.481
-445.217
-256.555
-341.247
-878.878
-557.271
-407.868
-786.566
-753.122
-567.489
-848.955
-906.328
-361.647
-746.072
-596.916
-918.589
-746.138
-586.932
-138.508
-45.2738
-127.31
-91.4432
-243.618
-87.8792
-94.775
-190.946
-159.4
-429.886
-362.496
-578.315
-176.451
-170.013
-185.13
-900.299
-229.969
-308.284
-334.934
-627.508
-150.562
-643.81
-788.507
-620.263
-4943.72
-8748.23
-1636.65
-1377.82
-2442.29
-1402.32
-5853.01
-2721.83
-1178.16
-574.038
-827.662
-853.213
-1356.6
-1646.92
-5182.6
-8144.69
-35126
-5712.68
-9504.28
-9899.35
-4922.61
-2751.42
-1364.3
-756.46
-1417.85
-926.943
-5106.57
-1880.59
-429.498
-700.782
-1196.28
-137.295
-216.865
-260.756
-487.485
-219.858
-321.836
-496.075
-503.39
-569.089
-631.057
-709.869
-467.321
-512.667
-1198.93
-1267.88
-272.088
-585.482
-496.752
-743.536
-397.098
-407.222
-344.959
-929.284
-465.235
-838.969
-1235.26
-850.348
-1120.24
-421.389
-772.184
-4269.86
-638.818
-899.897
-522.922
-508.064
-705.547
-759.711
-576.229
-692.635
-503.045
-1572.95
-861.686
-1030.59
-1446.4
-485.362
-695.537
-749.834
-815.143
-653.641
-619.638
-575.918
-345.088
-477.504
-625.023
-538.282
-434.181
-603.808
-352.732
-512.102
-409.604
-526.44
-419.417
-589.098
-489.853
-451.394
-642.463
-516.807
-521.895
-525.942
-623.38
-514.434
-456.101
-460.341
-646.056
-511.07
-571.349
-670.775
-710.039
-441.428
-620.289
-627.224
-369.794
-480.385
-663.724
-741.846
-310.596
-576.959
-688.796
-1249.53
-690.418
-714.97
-745.488
-776.322
-695.95
-493.969
-400.785
-378.73
-440.634
-402.434
-386.952
-401.545
-478.3
-451.55
-379.216
-176.155
-82.7045
-75.2693
-156.017
-82.5173
-82.6417
-40.8813
-37.6133
-60.2626
-37.9233
-62.7766
-58.6935
-163.74
-163.571
-136.078
-91.3478
-34.08
-96.2859
-128.445
-30.5812
-100.575
-95.849
-21.2797
-85.9942
-66.6047
-21.1148
-82.6465
-151.156
-76.4238
-76.1062
-149.925
-76.8741
-79.2008
-112.192
-42.699
-112.636
-42.8066
-112.879
-113.036
-133.703
-105.627
-106.28
-77.8223
-52.3234
-76.3927
-75.7045
-52.7223
-76.0727
-111.365
-42.2472
-112.827
-113.367
-42.6203
-112.664
-1.37262e+06
-3154.83
-6999.13
-2240.53
-1.57652e+06
-66709.5
-10802.1
-33571
-1.36751e+06
-1.15957e+06
-1.42368e+06
-1.59285e+06
-1.53418e+06
-1.17728e+06
-1.50162e+06
-1.44247e+06
-69.0166
-277.012
-49.5377
-450.645
-251.623
-50.9257
-73587.4
-12575.9
-70190
-506272
-720755
-727907
-618469
-1.16219e+06
-60765.9
-810893
-110838
-822526
-1.16676e+06
-836288
-10618.8
-50637.4
-74116.5
-740702
-1.04921e+06
-773108
-490572
-711418
-690769
-1.06525e+06
-811779
-782808
-1.61518e+06
-1.70392e+06
-1.31162e+06
-1.30399e+06
-67075.5
-1.64251e+06
-29675.7
-1.52407e+06
-1.29483e+06
-1.60136e+06
-577.212
-46310.3
-6862.78
-300.349
-307.912
-321.16
-354.79
-320.934
-316.184
-312.67
-315.555
-348.145
-314.033
-427.37
-422.077
-510.559
-649.377
-503.553
-432.258
-428.26
-510.137
-648.54
-501.803
-522.33
-464.762
-242.246
-333.312
-524.005
-463.607
-332.187
-519.481
-242.377
-454.691
-327.925
-459.125
-329.534
-516.176
-424.226
-422.349
-644.76
-496.263
-504.422
-509.183
-649.292
-506.743
-414.905
-420.283
-295.991
-291.938
-304.31
-330.713
-303.304
-289.204
-289.972
-308.325
-334.999
-309.102
-753785
-883049
-934275
-872271
-742922
-649454
-799302
-875950
-664512
-818315
-563599
-713951
-534593
-345748
-443822
-468107
-700165
-496546
-525026
-955134
-1.01821e+06
-1.03308e+06
-787392
-973681
-895342
-771826
-953991
-422574
-592033
-449969
-316667
-435849
-411994
-605321
-487149
-459188
-266.834
-268.366
-286.031
-305.104
-286.158
-271.898
-269.951
-283.539
-302.36
-282.565
-398.425
-399.111
-483.708
-622.062
-481.947
-401.586
-400.615
-480.087
-620.708
-481.118
-495.329
-436.613
-221.191
-311.774
-496.603
-435.589
-311.226
-494.011
-221.559
-432.686
-308.952
-433.989
-309.824
-492.417
-397.089
-395.902
-615.254
-474.392
-476.513
-479.308
-617.024
-477.452
-393.036
-394.456
-265.215
-263.477
-277.248
-293.817
-276.408
-260.187
-261.833
-279.9
-296.437
-280.05
-247876
-342391
-343032
-298847
-235148
-235692
-273190
-327576
-246160
-286404
-277473
-312523
-254055
-192877
-209646
-229202
-301818
-224063
-246427
-358409
-406052
-447700
-336587
-400996
-341793
-324670
-385856
-168646
-221793
-188691
-165147
-203306
-184591
-231221
-216801
-195566
-227.415
-231.948
-254.396
-262.561
-254.17
-239.081
-235.007
-247.544
-258.685
-247.339
-363.131
-368.159
-456.217
-588.596
-451.205
-374.827
-370.863
-443.096
-584.219
-449.173
-457.392
-400.472
-186.277
-284.655
-462.274
-396.165
-281.903
-454.15
-185.62
-385.363
-274.48
-390.573
-277.968
-448.122
-359.945
-353.189
-561.37
-419.485
-429.725
-440.765
-568.452
-432.538
-340.921
-349.601
-223.715
-217.876
-229.243
-240.287
-229.544
-206.779
-213.57
-239.441
-245.284
-238.814
-3244.21
-23100.2
-23396.8
-11646.5
-3851.39
-13451.5
-9755.12
-25501.2
-17619.2
-13275.9
-72431.6
-56449
-58185.7
-51046.1
-40547
-53894.8
-51417.4
-39990.1
-53568.5
-27963.2
-43713.3
-70631.3
-55196.6
-51367.3
-30101.8
-49980.5
-45594.4
-2934.76
-14786.3
-17346.8
-25343.2
-36135.4
-22637
-19155.3
-35519.4
-22028.7
-169.882
-187.632
-183.135
-181.582
-178.376
-180.388
-184.29
-160.811
-172.463
-166.034
-210.406
-250.396
-338.311
-391.946
-309.936
-275.902
-253.638
-264.442
-367.072
-307.014
-376.838
-240.114
-61.0069
-189.382
-392.38
-234.013
-168.617
-556.139
-654.944
-384.884
-832.7
-483.654
-250.513
-218.523
-380.055
-462.168
-163.334
-257.939
-167.954
-199.347
-172.502
-507.808
-252.677
-252.83
-320.014
-253.471
-149.911
-157.49
-131.213
-220.432
-197.97
-161.366
-150.015
-172.82
-151.876
-541.353
-480.409
-726.931
-115.786
-215.577
-214.392
-486.81
-195.551
-395.773
-170.791
-119.118
-368.285
-184.334
-168.969
-171.151
-156.924
-571.099
-350.383
-290.405
-218.457
-425.317
-134.354
-233.645
-378.44
-423.385
-694.688
-638.226
-908.036
-1255.33
-864.516
-1269.74
-511.09
-950.134
-4325.2
-645.049
-813.865
-464.174
-521.567
-485.795
-549.317
-523.175
-554.289
-744.832
-1804.02
-1109.77
-1052.49
-861.379
-468.179
-470.176
-796.524
-609.23
-570.226
-993.308
-809.474
-345.539
-741.651
-938.721
-791.207
-812.899
-1046.68
-351.087
-745.85
-859.912
-767.365
-886.719
-1036.85
-677.52
-645.811
-754.63
-732.62
-742.079
-760.835
-727.895
-728.85
-667.093
-672.359
-590.124
-748.797
-489.41
-331.856
-1016.75
-286.018
-515.03
-602.156
-603.203
-549.531
-462.695
-536.788
-804.499
-518.483
-543.542
-512.818
-280.439
-406.205
-248.349
-552.179
-414.821
-560.958
-702.074
-458.348
-1172.08
-438.13
-727.609
-751.2
-453.938
-1057.32
-407.59
-337.538
-460.961
-260.707
-5957.32
-9234.8
-28334.7
-9439.32
-9622.44
-9470.77
-6837.25
-3775.52
-1680.12
-427.091
-2038.85
-3147.93
-4535.54
-7456.97
-5136.6
-4000.59
-360.339
-620.398
-436.74
-241.555
-469.942
-391.545
-430.94
-473.854
-472.327
-460
-389.399
-397.545
-402.566
-378.657
-458.552
-407.3
-411.004
-447.675
-417.932
-718.889
-647.496
-557.639
-505.302
-862.283
-559.435
-636.406
-870.884
-1263.42
-609.498
-1496.63
-781.224
-812.651
-503.321
-502.593
-507.637
-596.346
-1012.67
-318.467
-718.169
-795.27
-1040.42
-712.114
-768.69
-991.357
-327.076
-737.166
-770.862
-1008.29
-715.691
-739.763
-665.852
-681.99
-457.676
-1235.63
-462.479
-672.947
-683.492
-450.984
-1227.71
-449.408
-630.128
-626.878
-780.005
-699.894
-721.298
-732.694
-794.078
-728.599
-606.828
-616.968
-631.347
-634.172
-724.261
-750.494
-705.031
-657.716
-628.328
-731.815
-768.704
-710.547
-644.033
-624.098
-468.59
-1149.49
-435.792
-662.245
-608.287
-432.452
-1166.98
-430.362
-134.209
-78.3465
-102.253
-70.7441
-60.9054
-135.959
-86.882
-218.07
-413.737
-522.337
-371.658
-406.949
-341.096
-300.17
-163.736
-113.175
-122.867
-252.706
-42.0016
-277.1
-194.041
-125.554
-109.589
-112
-157.15
-253.185
-103.362
-99.3991
-128.618
-95.7579
-170.98
-393.307
-434.807
-526.317
-406.555
-401.269
-364.067
-378.768
-276.02
-227.455
-328.833
-209.025
-235.56
-200.829
-248.917
-273.807
-124.654
-285.387
-189.427
-302.25
-184.249
-275.398
-262.393
-509.436
-283.721
-330.874
-294.186
-238.414
-247.836
-205.124
-166.1
-270.287
-35.262
-141.513
-98.1119
-155.584
-154.687
-156.745
-152.935
-230.581
-281.987
-206.988
-272.472
-194.638
-167.715
-79.319
-136.908
-109.949
-113.732
-89.3365
-185.971
-106.422
-146.983
-124.409
-156.236
-220.325
-308.882
-318.49
-185.249
-254.297
-212.074
-143.521
-151.862
-111.722
-205.83
-164.205
-348.185
-326.094
-230.291
-581.194
-313.655
-522.412
-385.419
-583.054
-508.039
-391.562
-578.007
-316.307
-500.557
-404.46
-581.13
-498.467
-399.03
-321.229
-309.154
-327.607
-357.297
-328.295
-316.469
-309.69
-339.383
-361.339
-339.354
-474.658
-467.255
-517.625
-687.309
-551.719
-439.558
-463.729
-568.463
-702.642
-559.92
-479.816
-460.754
-514.512
-652.338
-519.281
-455.267
-456.33
-566.896
-673.459
-526.875
-333.735
-362.96
-374.619
-412.574
-369.697
-386.439
-373.781
-355.458
-399.759
-356.279
-367.971
-327.767
-330.173
-216.132
-258.558
-273.016
-294.85
-272.485
-291.817
-172.604
-249.458
-230.999
-240.118
-256.245
-244.618
-269.732
-263.782
-253.398
-199.94
-258.253
-260.021
-269.178
-264.763
-270.71
-271.685
-269.458
-272.37
-153.334
-75.2649
-75.5262
-154.363
-75.679
-77.1507
-155.324
-210.139
-212.686
-237.263
-246.647
-234.738
-229.485
-244.375
-232.041
-262.354
-250.924
-263.17
-198.313
-259.615
-258.607
-252.245
-265.616
-264.27
-268.33
-257.861
-267.594
-199.293
-259.873
-259.799
-256.282
-266.244
-266.676
-146.138
-114.139
-117.738
-90.0754
-43.1836
-86.4268
-82.5058
-44.0391
-85.3888
-111.641
-40.2601
-110.55
-39.7033
-108.111
-109.949
-98.3195
-33.0235
-102.823
-34.1016
-106.897
-103.922
-261.495
-248.126
-260.637
-195.376
-255.069
-255.233
-247.629
-260.111
-260.17
-143.749
-200.193
-200.806
-222.565
-234.875
-221.353
-219.783
-234.107
-220.506
-194.496
-255.031
-255.094
-261.542
-248.568
-260.676
-260.148
-247.919
-260.21
-157.037
-93.8053
-117.767
-148.226
-90.7278
-86.5902
-157.316
-225.346
-215.107
-224.899
-241.661
-228.792
-245.247
-247.314
-234.851
-402.948
-370.418
-341.166
-195.538
-270.216
-281.168
-312.012
-285.139
-304.907
-262.612
-253.982
-264.313
-192.69
-263.58
-259.569
-258.688
-273.964
-267.643
-143.499
-120.893
-114.153
-78.4582
-48.0773
-80.9101
-87.1759
-46.867
-82.0827
-77.0395
-17.5481
-93.0077
-20.5784
-101.799
-93.5308
-111.3
-38.1153
-108.807
-36.8296
-103.811
-109.121
-813001
-636975
-841621
-1.32189e+06
-1.10868e+06
-1.04152e+06
-658329
-909278
-872450
-496.592
-959.903
-539.715
-3225
-6041.56
-1564.92
-1731.79
-2921.44
-592.003
-111419
-11994.1
-38620.8
-284209
-212963
-200649
-164671
-388786
-124096
-205254
-54543.2
-293010
-462106
-276654
-11496.5
-21049.8
-17923.7
-283054
-449592
-288980
-304859
-217170
-218948
-461958
-295057
-293765
-1.50486e+06
-1.13788e+06
-1.19089e+06
-114479
-13511.4
-79241
-653525
-592014
-195618
-835081
-238243
-951203
-682771
-943500
-12556.6
-38232.4
-56626.1
-1.38448e+06
-1.58084e+06
-875644
-693637
-901165
-1.34776e+06
-1.11602e+06
-1.05896e+06
-711956
-952938
-927192
-216874
-196715
-171978
-277307
-511146
-306962
-331480
-532348
-328377
-334435
-506344
-337033
-268100
-214155