/*--------------------------------*- C++ -*----------------------------------*\
| =========                 |                                                 |
| \\      /  F ield         | OpenFOAM: The Open Source CFD Toolbox           |
|  \\    /   O peration     | Version:  2012                                  |
|   \\  /    A nd           | Website:  www.openfoam.com                      |
|    \\/     M anipulation  |                                                 |
\*---------------------------------------------------------------------------*/
FoamFile
{
    version     2.0;
    format      ascii;
    class       volScalarField;
    location    "0.107/solid";
    object      sigmaHyd;
}
// * * * * * * * * * * * * * * * * * * * * * * * * * * * * * * * * * * * * * //

dimensions      [1 -1 -2 0 0 0 0];


internalField   nonuniform List<scalar> 
24998
(
269.34
-18.1483
257.076
151.616
89.0343
746.55
691.065
647.214
575.516
237.765
258.629
756.027
-23.2539
262.497
763.148
262.095
165.751
152.324
164.599
142.442
128.487
100.135
741.305
690.698
696.215
685.736
650.714
654.224
644.134
584.348
588.095
567.324
-7.12502
-191.569
181.493
369.146
756.23
282.29
267.957
172.787
172.514
169.239
165.137
152.649
433656
250.816
528567
-188935
-131355
720.477
227781
321260
-96943.6
-72599.3
676.779
64473.6
132820
-43183.2
-23401.9
621.867
-642.238
12128
-5382.77
-678.196
-15.6559
365.303
747.771
69.4426
290.637
-58.356
427.114
350.318
132.124
771.291
157.398
266.983
425.383
222.47
225.781
776.292
317.512
185.197
226.559
169.613
172.523
182.237
222.785
226.153
170.399
222
165.23
218.947
231.683
164.858
166.739
270.495
218.595
153.552
408928
345.794
-124448
-63523.4
198531
439205
621597
418533
-60831.5
-42544.4
733601
426918
327702
402417
-48972.3
-61284.9
308421
432503
333166
412141
-31066.2
-41066
318016
-176984
-106244
-100480
-126838
-79336.2
-102735
714.438
707.139
712.856
214151
-47358.4
302326
-36088.4
232647
326701
222693
-29661.3
311882
-20227.6
221818
137959
208524
-23447.6
-34483.7
129701
226632
141673
216972
-11229.5
-18975.9
136221
-76052.6
-53893.3
-46281.8
-69196.1
-31878.1
-50907.7
672.04
667.207
671.689
60904.6
-21922.9
124875
-11986.9
66593
136448
64631.9
-10283.7
131237
-4863.42
60580.6
14298.5
57264.3
-3407.17
-10713.4
14135.8
62599.1
14914.4
60808.8
-1158.58
-4258.47
15237
-29460.8
-15001.9
-6832.04
-20917.7
-4168.54
-13301.7
620.291
611.439
612.568
-1048.82
-2663.7
12117.4
-1048.87
-650.527
12672.7
-1012.36
-883.743
13089.4
-1119.9
-3274.87
-753.914
75.2428
70.2309
243.578
847.737
233.98
353.288
473.04
683.234
211.891
417.309
52.5442
224.543
39.111
-42.6624
149.697
-43.9772
-21.3255
-799.818
-1475.15
486.924
595.687
898.164
735.859
521.336
884.618
585.269
435.758
540.017
838.166
686.278
448.204
830.125
535.327
385.944
497.402
788.519
639.452
404.806
775.242
489.978
394.412
417.484
727.377
542.892
356.038
701.896
393.995
422.289
189.781
348.047
437.928
700.986
159.61
308.551
241.327
388.802
372.317
311.53
769.18
395.394
935.811
965.418
317.253
407.043
-32.4162
-49.2449
29.4116
320.598
68.0901
179.879
528.077
778.034
605.365
913.113
514.955
950.255
616.975
370.942
241.668
314.302
171.182
262.05
267
158.535
-42.3031
-37.5949
260.9
162.831
259.18
174.009
211.562
268.32
163.898
-18.4997
-29.6206
101.692
169.983
-1398.67
294.191
392.26
922.684
730.284
906.344
333.168
382.088
266.304
695.75
345.821
862.768
872.057
261.105
349.529
458.923
701.485
544.891
841.412
446.228
850.93
550.009
252.507
342.467
859.538
681.079
851.434
260.741
338.771
238.701
656.672
316.916
814.784
825.393
231.876
321.016
417.161
660.563
504.178
792.551
401.725
803.504
510.314
222.743
312.447
810.894
636.83
798.008
231.302
307.532
201.058
594.006
275.955
749.278
756.942
200.074
280.444
352.708
595.757
433.959
728.009
345.472
733.445
443.212
233.466
269.82
747.324
526.541
716.901
203.202
266.973
46.0059
-1.8795
132.985
33.5992
630.089
-57.1237
1334.31
254.747
147.818
520.667
252.209
393.374
315.122
470.362
481.688
235.884
735.109
693.942
915.03
637.691
835.647
598.766
626.758
1048.4
1009.7
541.451
438.848
407.164
453.2
465.055
181.468
178.392
46.2444
36.0501
211.796
-25.3811
25.3549
-19.3965
25.7029
167.244
166.969
-38.6832
-39.9155
149.778
-41.7297
-43.9019
-37.7501
-39.8284
480648
4422.39
491510
4642.02
-369527
-416962
-3.37032
-966.131
-3181.5
-153325
-551715
-380833
-1292.43
-328686
-150103
-372162
-626988
-427152
-1171.51
408.695
396.123
1040.39
1034
488.192
728.367
868.491
568.152
883.262
470.979
575.769
1017.23
1035.62
382.298
390.797
270582
276818
-199986
-235565
-246396
-86417.3
-213545
-277443
-240740
-177085
-82937.6
-208913
361.404
356.108
984.885
976.68
437.828
681.616
819.053
526.041
827.544
425.82
530.723
964.638
974.028
348.749
353.909
94187.9
98757.4
-61294.8
-86982.6
-105866
-34253.4
-80060.4
-120046
-90914
-53920.5
-31417.2
-76584.2
328.484
320.904
931.346
916.72
389.901
630.951
755.189
472.601
770.467
366.668
481.756
894.809
911.45
307.453
317.271
-50.7402
915.467
1725.67
-3477.02
-13496.7
-2109.07
-4145.93
-15239.4
-4556.79
1518.65
-1418.82
-3193.3
257.636
230.554
871.926
842.447
380.736
479.956
674.422
312.942
796.407
216.632
75.8373
3.76856
112.777
144.199
317.376
349.489
549.827
135.482
499.052
669.267
945.704
387.542
856.998
421.493
352.256
1131.4
1082.76
-2.27869
297.214
143.621
121.154
126.49
370.686
991.436
321.31
623.579
355.515
401.738
406.734
303.453
377.087
324.805
552.604
376.518
351.232
775
944.305
432.023
512.532
960.359
434.861
147.769
158.884
1135.08
1185.04
1116.62
1168.56
171.673
175.857
2.79556
445.977
111.51
-44.6067
83.7496
468.293
170.852
162.655
363.178
353.088
216.595
61.3157
173.312
313.36
190.462
192.84
531.158
781.083
914.575
640.966
611.947
942.783
631.463
411.541
421.484
1062.27
1120.32
1037.64
1101.84
454.93
432.227
389.536
235.032
312.743
215.251
280.323
303.956
230.223
291.479
306.124
171.527
171.764
173.563
276.765
269.05
277.537
224.905
281.711
288.813
225.349
283.222
159.981
-27.6893
-36.6057
-38.2218
-33.5713
-22.433
-32.4152
276.48
220.262
274.841
162.93
261.189
259.235
219.874
276.394
274.864
163.92
163.914
172.978
262.503
267.858
230.863
220.245
282.427
277.392
218.894
281.984
162.27
-40.9111
-31.96
-5.3786
-24.765
-36.8435
-27.6827
201667
454153
226827
115.389
5315.15
-1331.96
4885.98
-74665.2
205007
155646
-5315.79
134622
-73651
150662
475959
5349.3
306671
233724
-7057.89
484691
492582
219946
461669
243750
-47039.4
268796
175034
153741
-47803.5
170180
471331
379241
249454
380065
373450
194888
357934
175440
-53885.1
100104
112657
130071
-55584.9
116916
351662
150674
169163
385681
379049
213193
367771
193531
-35299.7
118003
131032
149042
-36715.7
135440
361484
168228
187138
-341345
-379754
-119920
-585172
-358351
-313195
-118235
-351065
-634899
-387518
-363821
-325526
-111236
-251139
-284548
-323559
-114918
-289346
-282747
-320146
-336518
-302186
-89249.3
-239281
-271806
-308550
-92571.3
-276425
-261473
-297157
149.574
137.691
1114.66
1104.96
286.696
722.096
890.117
364.118
904.137
281.007
370.341
1087.65
1105.64
124.618
130.773
267.543
700.994
884.801
360.081
282.578
874.626
354.694
111.066
114.711
1058.25
1069.28
1080.62
1071.46
123.452
117.384
456.951
706.753
862.969
561.631
473.925
853.414
555.579
363.678
369.484
988.686
999.68
1010.08
1001.7
379.407
372.282
254487
103988
120982
95994.6
-42527.4
83921.8
260380
144618
126795
68542.9
-40917.2
79993.9
275767
282044
263595
119645
137519
113716
-25504.6
101015
269552
162005
143577
84484.6
-24150.3
96835.5
181236
175639
98488.4
170350
82570.3
-28116.8
41119.3
50799.1
64849.9
-29696.9
54197.7
165078
62892.2
77474.7
185600
179929
113798
178007
96652.7
-14316.9
53395.1
64666.4
80436.7
-15426.1
68537
172606
74942.8
91089.5
-181487
-215789
-234634
-66336.7
-202401
-256353
-220799
-166742
-63159.3
-197861
-195005
-161007
-55870.7
-109747
-138091
-172634
-59151.5
-142295
-124417
-156289
-176716
-144406
-39601.9
-101823
-128966
-162408
-42325.8
-133015
-110240
-139964
109.706
105.752
1054.38
1045.95
251.953
676.619
840.623
331.981
848.91
246.82
335.232
1033.87
1043.3
100.872
104.07
239.46
662.109
837.66
328.589
246.276
828.592
324.888
90.0961
93.9616
1004.97
1016.93
1030.48
1020.46
99.3641
95.67
414.636
666.328
816.038
521.114
427.995
806.808
515.912
331.569
338.181
935.772
947.76
961.27
951.325
346.444
340.753
88680.2
30110.7
41262.7
38075.8
-17480.7
29532.6
92961.8
58285.8
45298.8
19626.9
-16054.7
26892.9
97034.9
101708
93679.4
37137.2
50261
49767.9
-7703.86
39356.1
98137.9
69763
54937.8
26789.1
-6929.56
36059.6
35987.7
32882.8
26727.1
34327.2
17636.4
-6144.83
5484.69
9856.05
17433.6
-7199.68
11567.3
31430.5
8175.15
14978.2
37299.2
34105.3
33094.4
36642.8
22095.6
-2243.24
7777.7
13797.4
23925.6
-2686.67
16115.1
33582.1
10413.6
18837.2
-53163.7
-76081.5
-98132
-22728.1
-73751.8
-106208
-79629.7
-49370.1
-20656.7
-70491.3
-57906.7
-36424.6
-12084.3
-15211.5
-29660.7
-50938.1
-14114.5
-32055
-17199.8
-33695.4
-50177.1
-31395.9
-7479.08
-13873.5
-27036.6
-46610.2
-8785.36
-29230
-14847.8
-29031
88.1523
83.926
1000.57
985.817
222.106
628.868
778.723
296.732
793.431
212.446
302.276
963.781
980.635
77.9088
81.7507
201.696
602.584
773.924
291.087
211.692
760.201
285.548
81.4994
73.5613
934.659
940.28
958.631
943.447
75.801
74.4848
346.838
603.703
750.227
462.665
371.411
736.566
452.631
267.886
283.714
869.924
872.24
889.415
875.065
302.395
289.588
749.272
-2880.94
760.014
4277.4
-1074.79
1318.62
1661.66
6309.72
1901.53
-2893.8
-824.055
468.108
51.0243
1060.02
951.616
-2987.25
1182.05
6100.01
-388.301
2032.46
1931.04
8085.85
2584.19
-3011.09
-399.86
909.76
1708.14
-3059.65
-12318.4
-1288.13
-3806.68
-13175.2
-4004.27
1551.75
-898.305
-2931.67
85.526
142.518
935.156
898.238
239.195
471.411
688.352
221.645
849.49
201.041
111.089
193.383
-92.21
-26.4795
202.935
248.46
200.019
100.06
150.683
98.7939
74.1243
-83.7529
-137.86
258.995
334.875
336.832
-93.7762
-39.8009
-32.1166
-61.5489
282.817
206.239
229.578
322.513
262.039
307.023
167.297
220.342
221.969
154.836
100.591
102.718
219.131
163.721
218.267
164.258
201.289
221.505
160.976
94.492
115.987
159.467
15.8413
60.6016
45.5839
11.8535
4.71999
-24.9349
-0.917505
31.7819
22.2348
-1038.73
-351.302
-202.675
-529.196
-128.674
-1453.3
-619.409
491.13
159.94
336.616
207.306
403.813
294.621
157.573
674.995
73.047
266.174
416.112
1082.59
466.1
402.103
545.406
220.211
386.577
326.376
383.196
279.921
456.463
39.3945
216.288
-9.02754
173.854
-22.9932
-24.6493
180.1
119.524
127.202
-21.2448
168.55
-22.6324
166.174
-27.2748
-26.4063
151.303
101.229
99.4366
453827
38.755
678.796
313.024
585894
63882.4
22025.8
-513819
-535355
-123840
-168679
-270307
-278795
-44222.2
-205974
-136556
-217363
-1.01538e+06
-648837
245930
302065
-280256
-301241
-153641
-93421.3
-144983
-387910
-365893
-110883
-76025.8
-119170
76707.4
117801
-86113.4
-101081
-66507.3
-40143.6
-59469.1
-168766
-150802
-34010.2
-25985.9
-39830
-1999.52
6433.91
1589.46
67.9989
-8518.69
-4113.83
-5677.82
-20705.7
-13230.6
410.228
-739.049
-414.22
433.451
319.449
522.594
308.205
-89.5608
9.47928
-18.4094
-32.6586
-25.1061
4.76168
39.2554
566.848
56.7583
268.207
383.906
1100.07
437.118
348.262
-9.10887
-52.4019
-12.0886
184.908
-108.037
168.764
102.468
61.8046
337.922
193.411
-262.035
-268.245
-138.71
59.3024
-1186.66
-155.633
25.6843
396.29
367.727
401.679
165.485
-23.6468
240.779
187.908
215.356
-47.3119
265.285
191.065
107.782
288.06
190.41
374.54
197.638
95.821
351.045
224.366
340.763
264.249
351.01
281.62
310.448
192.395
217.29
243.34
180.12
270.694
211.396
186.467
263.06
223.134
232.008
190.251
301.25
203.752
206.751
374
278.802
337.577
188.936
240.379
244.808
227.361
281.646
282.503
-21.2619
170.597
-21.8576
-22.2295
172.354
-22.5322
179.238
237.248
234.224
276.428
223.563
277.297
281.147
225.912
280.623
165.982
117.716
112.983
275.534
221.379
274.737
164.163
219.794
218.767
219.329
273.803
273.671
6.31704
173.331
-32.4686
-27.9353
164.324
-30.9988
168.697
221.367
223.454
289.666
234.828
280.414
274.018
218.466
274.443
156.977
102.067
105.329
321229
428362
335972
282.035
673.566
399.082
156337
-100269
4453.76
-2352.35
-815.851
4338.83
-66235.2
4241.51
544112
-246570
439550
472971
34137.9
459092
466098
332607
437409
347841
-56902
51243.5
30441.9
24235.3
-44180.3
24901
489977
601001
434290
406754
347189
314729
383230
300588
-50593.3
2163.64
2509.39
4243.45
-59229.3
4071.04
326823
241664
255140
412393
352717
326870
393077
311997
-32475.3
19691.3
20228.5
23601
-39581.6
23014.7
336533
252701
266808
-456819
-472472
-132452
-336801
-257893
-191420
-109999
-201159
-751931
-565465
-506579
-484599
-104036
-156654
-165397
-202425
-122639
-192704
-395292
-417549
-451306
-433710
-82630.8
-144941
-153451
-188298
-99286.5
-179430
-353372
-374220
231241
167730
180322
1825.22
-45747.9
1497.04
284206
235945
222643
-135.751
-37697.1
90.3778
250943
307426
240046
177657
190766
19158.4
-28263.9
18628.4
293615
247372
233486
15414
-21509.5
15961.6
204155
153766
162593
191905
150325
-24990.4
-1204.2
-1144.33
-342.388
-32882.5
-528.642
144528
101768
112738
208791
157741
172574
200039
159803
-12217.2
10767.9
11372.1
14859.8
-17757.1
14297.6
151504
109444
120940
-244063
-263909
-142034
-72788.7
-133588
-346395
-325479
-100597
-56933.7
-108585
-273332
-252794
-49432.5
-68995.7
-76356.8
-108047
-65817.3
-99940.2
-174889
-193632
-237545
-218315
-34372.3
-61120.1
-67960.9
-97898.6
-47983.7
-90146.7
-147114
-163964
72328.2
48284.1
56752.6
-1243.92
-20418.8
-1264.78
110797
97471.9
87044.2
-1038.03
-13304.4
-1111.57
79142.6
121146
76605.3
52761.5
61746.9
10159.8
-9380.32
9548.81
116667
104934
93980.2
5940.52
-5509.51
6524.19
49455.7
21565.1
45120.9
46883.3
37417.1
-4242.6
-272.172
-358.922
-954.81
-9489.25
-863.11
20890.7
12080.7
17111.3
51162.3
22427.2
49249
49888.1
41055.1
-1478.24
1943.45
2359.78
5370.12
-3693.67
4815.15
22417.9
13489.6
18892.4
-70229.8
-82832.7
-58839.1
-27130.3
-52368.8
-141653
-125763
-29469.4
-16792.3
-34650.5
-81325.9
-67588.5
-8436.15
-9623.12
-13166.3
-32085.3
-18537.4
-26761.6
-23504.7
-32763.3
-66228.6
-54853.7
-5165.47
-8239.37
-11287.6
-27779.5
-11699.6
-23087.5
-19097.2
-26502
-1230.09
-2216.64
-934.519
-206.677
-2019.47
-167.925
6818.79
10374.6
6375.12
-2120.37
-924.27
-1234.06
-2014.48
6777.45
-1215.09
-2254.77
-883.01
1551.95
-656.248
1180.45
7444.5
11511.5
7219.21
-2233.86
-852.997
-1146.86
1319.28
-68.5211
-7300.28
-2493.43
-4862.07
-16866.1
-10904.8
416.443
-562.45
-317.925
579.034
303.775
543.226
258.793
41.694
2.86467
93.2381
72.8113
91.5257
113.883
3.06023
92.8845
-2.51932
243.161
315.059
220.484
101.55
276.748
145.207
276.187
121.54
446.765
183.325
581.396
748.74
303.847
630.373
461.315
434.009
579.493
442.68
15.4618
250.65
253.006
353.309
326.387
310.585
-176.844
166.722
35.4903
159.897
244.956
173.396
196.218
38.0935
134.993
156.537
60.413
-43.6715
59.0317
150.35
98.2713
98.5578
-43.7372
58.7315
58.8411
48.1137
-116.037
-146.51
-417.633
-2103
-237.639
-165.803
-2224.04
-197.43
661.555
509.967
695.37
591.885
596.934
697.743
657.412
670.078
508.843
609.395
708.778
674.168
606.719
701.859
604.459
443.049
640.482
535.201
536.812
642.808
602.763
608.011
441.162
542.257
648.156
609.794
540.732
645.596
554.662
397.609
587.294
482.58
485.073
591.48
551.734
560.09
394.217
493.461
599.93
562.736
491.244
596.087
477.174
386.995
540.605
396.222
400.344
544.71
468.571
487.496
367.444
410.792
540.923
490.679
408.261
543.696
404.214
696.802
259.291
255.719
343.486
382.142
400.616
327.146
88.428
186.84
227.272
294.653
275.584
254.921
270.098
337.387
340.174
367.204
394.902
371.601
359.3
392.954
371.01
519.352
730.215
276.614
267.493
526.719
257.467
722.926
511.133
301.936
256.467
716.317
511.094
250.786
718.563
-93.5049
-33.9123
-47.6889
-78.5808
-36.5236
-67.354
-170.734
-85.3253
17.0159
-26.5446
15.2226
-57.7012
-72.7761
22.2326
-15.911
-13.1472
-12.3184
-12.931
-45.2452
294.199
266.09
241.02
169.866
132.631
185.848
223.575
143.753
195.181
691.764
504.107
756.917
623.981
697.24
618.118
748.112
684.708
511.104
613.803
720.229
681.379
612.554
733.899
350.635
347.295
330.809
258.795
294.609
305.448
327.783
312.451
321.88
169.075
225.972
223.828
244.99
263.598
246.66
250.448
265.245
248.467
155.895
106.51
103.566
60.8709
-40.6549
62.708
66.4365
-40.0793
63.4635
243.777
260.15
242.995
163.127
217.283
217.628
259.565
241.979
242.381
172.381
229.55
228.601
205.645
249.752
238.104
252.795
264.752
250.161
163.829
113.554
116.872
62.1711
-20.7615
77.7322
73.6356
-22.7733
77.8027
122.526
-110.045
-66.4211
34.5202
-806.328
-52.2047
-807.324
-1553.85
-542.002
496.794
688.697
313.798
240.436
248.454
694.803
491.523
504.652
327.687
258.667
709.704
507.38
258.663
702.582
456.848
655.305
263.173
207.9
458.314
207.516
652.754
453.822
264.399
203.897
647.998
452.595
205.181
650.047
619.031
450.735
660.249
553.605
620.986
551.87
657.492
615.242
452.942
546.153
651.262
613.451
547.738
654.123
445.403
637.808
256.415
196.715
198.688
639.559
444.08
448.361
257.632
201.623
645.055
449.75
201.455
642.186
423.26
616.291
235.785
181.139
424.657
181.059
613.466
419.914
236.178
176.824
608.035
418.397
178.513
610.419
574.608
408.475
614.466
508.1
576.763
506.283
611.329
570.082
411.266
499.062
604.075
567.719
501.173
607.511
409.122
594.775
227.929
168.784
170.577
597.743
407.269
413.073
227.396
173.693
604.775
414.757
173.489
601.403
378.195
561.268
194.12
148.913
379.273
150.428
558.57
376.166
200.782
154.774
556.13
376.344
150.292
556.523
503.831
341.681
543.486
429.88
506.79
426.611
541.009
499.505
349.212
418.305
539.891
497.199
420.379
539.278
378.323
557.237
220.471
205.717
169.375
558.483
402.56
377.142
203.8
151.987
556.902
374.564
162.473
558.196
53.4852
29.4116
75.5255
57.0745
93.1953
54.3549
39.7474
30.5556
13.7397
-12.5054
-13.647
-83.3414
15.498
28.2352
41.3337
181.139
109.781
23.8296
109.289
-60.1245
56.066
-18.3929
285.071
450.906
3243.21
2685.4
416.593
733.848
1847.73
906.707
2132
-692.581
-136.918
-48.4719
-153.025
-144.86
-155.105
-314.149
-1309.97
-1131.92
-9550.64
494.516
-874.098
-2711.94
-1223.3
-746.955
210.044
-87.771
428.231
-127.375
221.946
-399.598
660.599
272.325
-177.938
140.412
227.044
112.003
561.111
204.957
89.5923
505.121
447.388
539.023
542.433
610.124
435.964
434.775
-85.2515
-95.7959
222.95
423.957
153.569
586.847
286.496
313.278
276.164
1010.67
933
593.563
231.315
98.3408
803.65
228.585
390.761
-2203.89
251.529
626.619
458.308
456.557
569.939
668.175
468.253
530.808
825.325
1781.21
527.53
489.169
-167.617
186.401
470.555
505.018
585.843
332.138
705.608
794.398
620.53
697.387
703.218
783.925
668.077
721.093
626.066
767.236
671.092
776.699
670.52
721.173
864.858
842.914
1058.78
879.485
893.077
871.218
1001.59
897.382
798.291
823.98
605.902
491.7
543.132
586.655
632.106
439.401
561.225
586.306
381.713
418.992
564.854
656.556
314.368
522.318
629.398
-88.5931
554.883
562.903
618.385
608.145
591.62
691.822
633.797
583.572
452.341
597.629
626.11
626.846
664.454
447.003
557.211
201.068
-22.2643
-12.1334
174.601
-22.7816
-24.9144
-39.102
31.9107
-58.858
32.1845
-61.5666
-57.2605
185.559
162.272
132.678
78.5532
-14.1829
85.8016
123.374
-7.34687
91.347
-94.03
-6.20072
-84.3062
-65.216
0.94262
-81.139
168.215
-23.1182
-22.9554
166.409
-23.5377
-25.8082
-110.038
-39.4882
-110.464
-39.6032
-110.686
-110.881
150.81
98.3563
99.0109
61.5252
-43.1072
59.6489
58.8082
-43.5204
59.2406
-109.213
-38.9625
-110.692
-111.216
-39.4011
-110.495
460742
742.258
1941.15
520.961
569312
28431.6
3332.89
11013.9
-471507
-387652
-492287
-565749
-542589
-394288
-523689
-499535
-71.3383
-55.7088
-59.4919
-96.3506
-103.115
-65.9471
-35207.3
-1777.3
-28403.1
-195869
-241431
-279884
-366815
-439291
-15896.7
-308911
1880.08
-276398
-411635
-316515
-927.629
-31192.3
-33477.6
-236389
-345112
-249276
-141891
-237295
-221532
-351128
-271547
-253963
-575054
-615427
-885979
-495155
-17834.9
-610343
-16980.8
-534029
-455743
-573749
-175.152
-26218.4
-764.883
536.29
545.99
530.644
406.23
528.736
557.196
551.747
518.63
400.648
520.386
712.239
710.247
838.323
1030.2
828.503
723.951
716.655
826.791
1029.88
824.011
647.042
691.64
473.976
582.883
650.141
687.695
579.857
641.625
477.333
677.281
572.562
682.12
574.149
639.267
708.63
704.565
1025.51
808.272
817.098
825.158
1032.65
820.915
692.747
700.124
530.501
524.203
500.932
384.36
501.855
517.623
521.156
509.991
387.976
508.647
252042
295721
-329688
-308305
-256529
-215088
-275816
-301966
-220173
-282309
-176472
-232234
-166428
-89913.7
-133442
-142003
-227539
-153134
-163061
-336877
-358602
-355478
-261617
-335248
-308574
-256373
-328546
-127168
-190590
-136766
-79472.1
-130501
-122063
-195139
-149811
-140033
480.58
483.868
472.65
360.131
471.813
489.267
486.089
467.042
357.835
467.582
656.217
658.867
779.25
981.663
775.698
664.222
661.346
770.538
978.952
773.547
597.596
637.69
430.822
531.369
599.296
635.231
529.953
594.088
432.943
629.682
524.485
632.255
526.067
592.342
653.834
650.934
967.794
759.135
762.846
768.516
971.046
765.051
645.249
648.358
478.36
475.395
457.348
350.473
457.905
469.884
473.15
462.849
352.705
462.116
80954.9
112936
-122340
-106262
-78720.2
-71894.4
-92373.4
-111784
-75566.3
-97101.1
-76242.8
-94504.6
-68119.1
-37166.5
-50423.8
-57099.8
-90815.8
-57751.8
-65452.1
-127874
-144957
-154243
-107233
-137803
-116839
-103069
-132456
-38957.4
-63262.5
-45661.4
-28660.8
-48187.5
-41918.3
-66502.5
-55236.1
-48010
427.824
432.883
428.218
326.594
427.395
441.041
436.444
419.928
323.223
420.47
602.271
607.182
728.68
926.648
723.341
615.717
611.198
713.933
921.642
719.694
542.502
582.269
376.794
475.747
545.795
577.602
472.984
536.119
381.039
567.167
461.907
572.101
465.27
532.475
597.838
592.461
900.246
693.1
699.49
710.005
905.975
703.665
582.099
587.595
423.732
418.085
401.425
310.607
402.087
406.41
413.296
412.046
314.975
411.306
-1801.53
4820.35
-4099.41
-714.564
1607.63
-151.733
-98.6182
-4067.85
-839.542
-868.283
-9829.84
-8913.04
-6552.1
-3022.23
-2726.14
-4824.9
-7577.66
-3151.16
-5589.83
-5579.74
-11064.8
-19205.6
-9996.64
-12414
-5430.26
-8468.62
-10441.1
769.231
-226.878
-439.689
-863.893
-2134.22
-770.274
-848.873
-2472.7
-856.178
309.539
314.311
330.857
248.287
321.94
343.884
324.532
294.25
233.805
301.302
591.822
586.268
677.713
871.416
684.198
569.825
583.509
673.788
862.408
684.042
458.192
530.94
360.94
381.076
465.743
534.459
377.074
474.089
625.767
616.75
568.252
391.729
231.52
306.616
297.078
436.99
487.665
588.042
337.606
577.803
565.452
673.056
629.13
655.762
735.832
627.828
583.173
313.101
303.305
198.849
283.166
312.689
284.293
198.384
274.695
91.9142
198.706
290.592
49.1684
91.4227
158.577
-17.3459
69.1083
154.814
-90.6019
-8.21724
-7.86144
2.61601
-8.62441
-28.5392
-11.3995
190.924
48.0421
115.484
48.9432
225.905
-32.6012
56.1864
268.824
161.73
-209.818
1080.84
733.438
299.299
88.786
825.141
220.488
397.241
-2245.5
220.256
504.614
384.027
309.272
353.811
328.726
386.446
408.71
935.126
1845.74
567.199
561.971
-66.2076
154.838
276.216
607.176
331.436
250.013
493.097
738.345
425.046
286.963
478.603
756.49
253.328
524.289
347.782
775.926
255.737
768.993
235.367
531.661
1037.88
1081.43
1142.01
1076.75
1076.83
1004.45
1077.13
1061.85
1085.75
1087.46
6.17969
-14.4148
-31.0931
37.817
-141.338
13.2401
59.3897
85.3484
242.865
270.158
276.37
266.228
194.937
189.279
92.3452
-11.2431
92.5518
232.714
25.0978
272.843
147.507
72.2383
16.4538
140.76
92.8868
115.811
27.6046
-31.1902
85.3144
110.456
155.04
357.342
408.589
256.048
-185.314
-542.124
-12222.8
278.686
-2072.2
-1030.42
5.8058
30.6866
246.143
598.416
61.2144
266.524
-36.6939
872.464
-588.275
331.042
454.533
540.822
431.589
484.51
435.069
450.154
421.416
399.106
417.512
421.716
413.151
411.533
416.308
377.979
352.335
395.443
407.015
371.219
408.437
260.701
292.86
289.904
351.419
260.735
297.318
317.928
262.194
371.393
316.108
151.809
267.204
354.49
366.361
343.84
395.793
324.678
558.238
413.693
740.584
298.347
543.919
754.462
321.99
561.229
465.483
775.559
322.802
554.512
766.361
340.312
49.4837
27.3767
147.627
145.33
142.756
34.0774
25.143
160.231
149.809
155.612
1007.78
1005.79
1160.17
1025.32
1040.7
1051.69
1181.07
1048.11
992.716
1000.03
1011.2
1018.62
1065.27
1115.94
1045.73
1070.41
1024.57
1050.07
1139.58
1045.02
77.4222
115.468
164.52
191.672
198.4
95.0919
133.063
185.596
187.52
196.344
142.302
51.7434
14.1519
-23.8409
-8.60691
99.6953
62.5095
216.569
379.062
506.112
340.872
402.639
344.922
273.042
169.523
110.701
57.239
222.111
13.4244
285.113
159.645
11.5188
-4.97658
1.97522
129.349
243.607
109.621
23.6807
119.954
30.797
203.989
418.696
425.305
514.125
377.205
403.361
375.25
362.108
302.936
243.424
295.459
204.303
240.618
277.175
263.441
283.718
139.969
264.979
192.941
314.434
216.02
272.891
354.649
434.053
282.857
420.092
312.052
348.909
252.74
241.482
292.182
288.818
17.4862
138.492
70.8412
153.111
135.313
126.159
222.103
274.98
287.918
241.891
304.937
257.094
209.313
177.024
147.952
168.21
154.752
196.33
221.873
100.946
272.637
166.518
283.622
221.466
347.263
191.904
273.615
353.678
209.967
232.148
155.435
170.072
178.588
265.65
168.035
267.051
176.533
715.061
587.668
760.338
642.14
708.085
759.324
654.985
721.88
593.763
760.904
673.2
724.567
758.058
669.929
567.967
556.176
537.275
412.041
538.357
557.41
555.589
550.462
416.335
548.981
787.165
775.333
850.961
1090.58
880.865
736.02
761.811
902.879
1114.29
892.933
791.374
785.255
875.08
1040.93
874.333
790.839
786.337
900.347
1068.36
879.881
582.226
605.826
585.635
451.242
583.235
625.749
618.231
567.08
441.673
569.587
395.861
360.791
363.039
249.635
287.835
304.646
331.212
309.393
328.911
196.951
271.099
253.311
265.331
285.701
270.908
295.827
293.755
280.334
228.403
284.154
283.418
297.803
295.52
300.042
304.712
300.946
302.729
170.951
-20.8526
-21.7482
172.182
-21.1643
-22.3071
176.313
228.392
231.196
261.616
273.991
258.522
252.8
271.417
255.55
288.7
278.715
289.676
224.262
279.346
278.254
280.138
292.255
290.874
296.341
286.752
295.14
225.659
279.849
280.083
284.866
293.165
293.98
164.153
107.661
111.549
76.8658
-32.1511
72.3343
67.476
-33.2813
71.0475
-109.484
-36.5797
-108.432
-35.9244
-106.044
-107.833
-96.4503
-27.6591
-100.859
-29.0287
-104.85
-101.946
287.724
275.586
286.833
220.791
273.854
274.179
275.029
286.098
286.293
163.365
217.419
217.948
244.32
260.402
243.416
242.07
259.725
242.643
219.582
273.658
273.561
286.98
275.58
286.405
286.031
275.036
286.041
170.758
-35.3291
-35.1814
164.092
-34.1163
-32.024
170.906
228.023
225.798
245.81
264.322
247.854
251.882
266.229
250.02
266.829
265.121
283.477
224.287
277.645
279.382
279.174
292.273
291.3
287.643
278.68
288.519
218.494
276.358
275.199
280.311
291.375
289.805
158.589
111.825
106.766
62.3183
-38.3813
65.2505
71.8597
-37.1287
66.5934
-78.0901
-13.8861
-92.0843
-17.0095
-100.064
-92.1636
-109.216
-34.2869
-106.719
-32.8709
-101.921
-107.127
267770
209080
277235
435800
362736
343818
216257
299966
286593
186.719
-86.1452
84.7538
1099.58
2026.13
132.997
-952.056
-881.417
-708.323
45122.1
-808.743
-15901.1
-123189
3577.17
-18250.6
103268
188344
42786.9
92990.6
17224.9
77543.9
186068
83568.7
-3453
-1344.26
-7609.4
68931.5
139525
71327.1
-68786.3
3085.72
4186.94
144243
75911.1
73591.7
520526
378546
475205
70270.9
-2707.92
7690.94
404967
280544
66261
362044
69148.3
310461
289668
394717
-7520.51
6411.67
3745.02
465770
539618
286426
227202
295619
444011
371895
354517
234069
316476
304562
-59352.7
28379.1
25933.6
158247
194345
111678
100701
190849
108249
88682.1
158786
91538.1
-45395.9
26554.9
25815.3
163631
97888.8
94395
532875
382014
413685
504190
278282
360089
325282
275205
357072
400059
353720
258928
188247
250251
376862
280603
294445
181798
233394
241769
-52227.2
3199.31
2857
50666.5
104252
52898
57415.4
108436
55148.5
66606.2
125589
64282.3
-57355.8
3525.66
3821.42
121225
59693.9
61984.5
333007
274628
260983
200711
156783
208777
225115
162945
216911
405696
359271
277689
206514
269031
386725
291925
306502
199989
252061
260510
-33886.7
21320.5
20771.1
68639.2
122317
71050
75922.8
126658
73477.2
86017.1
144410
83416.3
-38142.4
21877.1
22440.1
139897
78389.8
80885.5
342746
286507
272176
218872
174490
227089
243681
180793
235358
-426826
-356180
-442777
-494866
-477592
-361461
-467059
-448216
-133010
-220854
-240660
-401661
-400907
-296149
-254764
-388394
-275427
-221363
-327740
-232377
-113506
-216574
-204624
-332963
-249753
-236309
-502478
-543891
-724087
-434616
-536889
-475457
-420119
-516700
-464689
-347192
-444264
-454865
-477199
-341743
-416919
-437442
-107616
-177292
-168443
-179877
-265418
-190019
-203711
-270191
-193457
-232436
-308677
-221304
-118703
-180392
-189475
-303813
-207200
-217689
-447397
-424999
-362258
-298719
-382690
-410068
-304062
-389524
-421386
-321988
-404399
-408164
-427518
-317089
-380270
-398509
-85936
-164916
-156374
-168056
-253240
-177929
-191139
-257891
-181246
-217867
-294789
-207729
-95913.1
-167851
-176454
-290213
-194460
-204380
-401506
-381116
-329251
-276829
-348606
-374036
-281934
-355019
20.0029
34.6472
146.048
149.226
146.695
40.5267
41.3964
134.951
143.485
139.105
958.394
963.806
1103.93
1015.37
1002.15
994.059
1102.44
997.644
983.816
969.357
480.43
683.597
278.071
229.223
483.429
679.702
226.794
475.567
283.378
672.952
222.687
675.822
223.065
474.13
955.525
951.417
1095.49
977.092
983.814
991.983
1102.47
987.742
942.638
947.474
11.729
6.5079
118.379
125.379
117.995
4.35042
5.50248
125.288
127.748
123.022
464.281
274.411
658.049
212.203
462.176
660.665
215.445
468.49
278.055
668.61
220.514
470.464
664.487
220.049
-7.24572
-8.02261
102.203
112.206
102.534
-11.3527
-8.69884
106.179
113.672
104.887
923.368
919.557
1062.15
948.458
952.384
958.609
1066.11
954.917
914.02
916.933
925.302
928.099
972.717
1075.7
966.352
938.161
931.052
960.57
1072.97
963.605
-4.75391
1.5459
115.887
122.634
114.839
4.54145
4.07859
109.771
119.896
111.198
627.408
467.276
663.3
558.362
625.209
665.808
560.673
632.097
465.36
672.475
567.819
634.443
669.039
565.897
500.717
497.109
476.943
365.47
477.628
491.465
494.762
483.087
367.944
482.181
676.666
673.442
781.71
992.666
786.159
666.944
670.621
792.306
996.6
788.573
679.244
681.353
804.036
1005.48
799.179
688.303
684.64
794.246
1003.02
796.566
503.494
508.11
495.353
377.718
494.277
515.166