/*--------------------------------*- C++ -*----------------------------------*\
| =========                 |                                                 |
| \\      /  F ield         | OpenFOAM: The Open Source CFD Toolbox           |
|  \\    /   O peration     | Version:  2012                                  |
|   \\  /    A nd           | Website:  www.openfoam.com                      |
|    \\/     M anipulation  |                                                 |
\*---------------------------------------------------------------------------*/
FoamFile
{
    version     2.0;
    format      ascii;
    class       volVectorField;
    location    "0.107/solid";
    object      U;
}
// * * * * * * * * * * * * * * * * * * * * * * * * * * * * * * * * * * * * * //

dimensions      [0 1 -1 0 0 0 0];


internalField   nonuniform List<vector> 
24998
(
(-3.72565e-10 9.37531e-10 1.339e-09)
(6.23452e-11 9.08301e-11 9.72456e-11)
(2.84373e-10 -9.59403e-11 6.73017e-10)
(2.0955e-10 2.65221e-11 5.20976e-10)
(1.39413e-08 -2.73139e-08 1.11012e-10)
(2.02657e-09 -6.90434e-10 -2.2729e-09)
(4.42016e-09 -2.89495e-09 -7.8097e-10)
(3.53122e-09 -3.92674e-09 -5.28603e-10)
(2.68659e-09 -4.19042e-09 -9.62053e-10)
(3.97922e-10 7.50806e-10 1.55661e-09)
(5.62439e-10 -2.45437e-11 1.29514e-09)
(-1.84337e-09 2.34861e-11 -2.90295e-09)
(2.18559e-11 9.42183e-11 1.05066e-10)
(3.35238e-10 -5.90144e-11 7.56246e-10)
(8.39623e-10 -1.92841e-10 -2.88331e-09)
(3.56599e-10 -6.49482e-11 1.23647e-09)
(3.56956e-10 2.90282e-11 8.71745e-10)
(2.18897e-10 2.26488e-11 5.56475e-10)
(3.79814e-10 3.52306e-11 9.09969e-10)
(1.50353e-08 -3.48483e-08 3.1117e-09)
(9.19073e-09 -1.9023e-08 8.27357e-10)
(3.02646e-08 -6.4826e-08 4.89353e-09)
(3.15327e-12 -5.90962e-10 -2.21908e-09)
(4.11536e-09 -2.93464e-09 -8.20431e-10)
(4.4473e-09 -2.67309e-09 -8.4497e-10)
(4.12963e-09 -3.14766e-09 -7.89934e-10)
(3.7206e-09 -4.07345e-09 -5.36907e-10)
(3.78705e-09 -3.83701e-09 -5.41929e-10)
(3.55692e-09 -4.1491e-09 -5.14511e-10)
(2.72358e-09 -4.27717e-09 -1.07761e-09)
(2.84623e-09 -4.36026e-09 -9.17559e-10)
(2.66323e-09 -4.15729e-09 -1.20063e-09)
(1.55144e-08 -8.72913e-09 -5.92502e-10)
(-2.11173e-08 1.0972e-08 -7.05492e-10)
(1.75517e-10 4.14101e-10 1.08938e-09)
(2.8931e-10 7.53999e-10 1.84124e-09)
(-4.54834e-09 3.93687e-09 -5.80712e-10)
(-2.21035e-10 -7.30005e-11 1.45961e-09)
(4.18386e-09 1.93129e-09 -1.96336e-09)
(-8.54347e-11 -3.21378e-11 2.40528e-10)
(1.37048e-10 5.57114e-12 4.62633e-10)
(2.06559e-10 -4.27297e-11 -8.9739e-11)
(3.47644e-10 -1.32283e-10 -2.22834e-10)
(3.66443e-10 -1.6668e-11 7.68798e-10)
(0.000797649 -0.000716496 0.000923305)
(-6.28501e-09 -5.05133e-09 -5.72417e-10)
(1.93372e-05 -8.19758e-07 2.12899e-05)
(3.64253e-06 3.195e-06 -1.09808e-05)
(0.000690599 8.33367e-05 -0.000234486)
(4.01678e-09 -1.54114e-09 -1.45169e-09)
(0.00525812 -0.00123315 0.0022919)
(0.00275948 -0.00137156 0.0017485)
(0.00283273 0.000480193 -0.00043175)
(0.00521662 0.00137508 -0.000514447)
(4.27006e-09 -3.37812e-09 -5.52591e-10)
(0.0120133 0.00199533 0.00291227)
(0.00868193 1.33237e-05 0.00270647)
(0.0088996 0.00350688 -0.000560636)
(0.0120479 0.0058276 -0.000572852)
(2.95668e-09 -4.2918e-09 -5.46718e-10)
(0.0193444 0.00756356 0.00304054)
(0.0159353 0.00487711 0.00300381)
(0.016233 0.00924615 -0.000581995)
(0.0194626 0.0118966 -0.000566332)
(1.0317e-08 -5.01124e-09 4.59993e-10)
(1.3637e-10 1.11986e-09 1.97416e-09)
(-1.0694e-08 5.6284e-09 -5.76345e-10)
(-8.40635e-09 4.50531e-09 1.9817e-10)
(5.00458e-09 2.2804e-09 -2.81847e-09)
(-2.71215e-08 -2.49133e-08 -3.19789e-08)
(-3.74332e-11 6.43612e-10 2.26648e-09)
(7.24649e-09 3.17408e-09 -4.6517e-09)
(-1.11534e-08 -1.12967e-08 -9.84194e-09)
(-9.48183e-09 4.65755e-09 -2.36757e-09)
(1.03945e-11 3.96676e-10 1.12202e-09)
(-7.89348e-11 1.9828e-10 1.04083e-09)
(4.77366e-11 5.9099e-10 1.98102e-09)
(-3.40402e-11 3.35588e-10 1.29718e-09)
(1.30357e-10 5.2585e-10 1.09721e-09)
(-4.19917e-09 3.29334e-09 -1.88235e-09)
(3.98632e-09 2.51004e-09 -1.86791e-09)
(2.70291e-10 5.51717e-12 8.18423e-10)
(-2.14914e-10 -4.56749e-11 5.35411e-10)
(1.80565e-10 -4.74102e-11 -5.6001e-11)
(-1.20216e-10 -4.4596e-11 2.37084e-10)
(2.76739e-10 4.58625e-12 8.16406e-10)
(2.34822e-10 -8.13793e-11 -2.60519e-11)
(-2.14043e-10 -8.83717e-11 4.54267e-10)
(1.51825e-10 7.65707e-12 4.90614e-10)
(2.56387e-10 -7.62361e-11 -6.03155e-11)
(6.0853e-10 -7.80934e-11 1.2885e-09)
(4.14106e-10 -2.4804e-10 -1.99336e-10)
(-4.92331e-09 -4.89195e-09 -5.13679e-10)
(3.18851e-10 -1.33926e-10 -2.13546e-10)
(7.1046e-10 -2.48694e-10 1.38838e-09)
(-1.08047e-08 -1.57472e-08 -4.22267e-10)
(3.94058e-10 -3.58503e-10 -2.37898e-10)
(4.0746e-10 -6.01884e-11 8.34132e-10)
(0.0007956 -0.000678465 0.000862348)
(-1.64299e-08 -2.04483e-08 7.16351e-11)
(1.51934e-06 -2.52658e-07 -4.89113e-06)
(0.000680879 -5.09491e-06 -0.00010616)
(2.20777e-05 1.33026e-06 4.00343e-05)
(0.00075746 -0.000729312 0.000957489)
(3.31709e-05 -1.01793e-05 3.53248e-05)
(0.000736255 -0.000696607 0.000909729)
(-4.3825e-06 4.68235e-06 -5.84317e-06)
(0.000586975 -5.0645e-07 -0.000109983)
(2.01666e-05 -1.31771e-05 2.98251e-05)
(0.000882098 -0.000768525 0.000978012)
(0.00261574 -0.00135241 0.00170615)
(0.000880963 -0.00072783 0.000914328)
(0.00252534 0.000200374 -0.000169223)
(0.000856608 -1.29765e-06 -0.000117388)
(0.00262803 -0.00127235 0.00161018)
(0.000838785 -0.000781146 0.00101163)
(0.00252656 -0.00136215 0.00171653)
(0.000817012 -0.000745693 0.000960877)
(0.0023169 0.000203871 -0.000229338)
(0.000748362 3.13453e-06 -0.00012485)
(0.00249663 -0.00128614 0.00162264)
(-3.18418e-06 1.04297e-05 -1.45127e-05)
(0.000589203 9.26324e-05 -0.000248689)
(0.00253785 0.000401629 -0.000415398)
(0.000866666 0.000101432 -0.000262375)
(0.00231269 0.000408688 -0.000490934)
(0.000749749 0.000110416 -0.000280659)
(3.19006e-09 -1.75915e-09 -1.43509e-09)
(3.64473e-09 -2.17826e-09 -1.26625e-09)
(4.29547e-09 -1.89857e-09 -1.30681e-09)
(0.00528331 -0.001116 0.00217673)
(0.00281984 0.000265274 -0.000173281)
(0.00277265 -0.00128901 0.0016509)
(0.00520087 0.00106896 -0.000184028)
(0.00512599 -0.00123996 0.00225803)
(0.00266739 -0.00138111 0.00175655)
(0.00508851 -0.00112564 0.00212428)
(0.00259747 0.000268646 -0.000244285)
(0.00263693 -0.00130251 0.00165994)
(0.00488594 0.00107144 -0.000345714)
(0.00544469 -0.00119269 0.00232208)
(0.00846796 -9.18933e-05 0.00268769)
(0.00547062 -0.00107346 0.00220614)
(0.00844646 0.00282 -0.000172526)
(0.00558053 0.00123851 -0.000183562)
(0.00850361 5.43747e-05 0.00256467)
(0.00531014 -0.00119932 0.00228513)
(0.00830238 -9.60613e-05 0.0026054)
(0.00527223 -0.00108285 0.00214918)
(0.00804002 0.00282156 -0.000443746)
(0.00525324 0.00124088 -0.00035934)
(0.00825923 4.84574e-05 0.00244125)
(0.00259251 0.000486986 -0.000519089)
(0.00487586 0.00138008 -0.000699918)
(0.00846555 0.00321723 -0.000557744)
(0.0055967 0.00155688 -0.000522335)
(0.00802434 0.00322036 -0.000861362)
(0.00524244 0.00156162 -0.00072304)
(4.06511e-09 -3.6415e-09 -5.61166e-10)
(4.00993e-09 -3.74004e-09 -5.48871e-10)
(4.19266e-09 -3.48148e-09 -5.38302e-10)
(0.0120565 0.00216178 0.00278782)
(0.00888011 0.00309945 -0.000170369)
(0.00871816 0.00016111 0.00258322)
(0.0120257 0.005358 -0.000156492)
(0.0118248 0.00199331 0.00279254)
(0.00851461 9.30094e-06 0.00262138)
(0.0117779 0.00215891 0.00260965)
(0.00846352 0.00310092 -0.000453855)
(0.00847117 0.000155415 0.00245571)
(0.0115476 0.00535881 -0.000507715)
(0.0122413 0.00215036 0.00292134)
(0.0157032 0.00469698 0.00300152)
(0.012285 0.00231778 0.00279691)
(0.0157419 0.00834103 -0.000150173)
(0.0124862 0.00571503 -0.000155026)
(0.0157511 0.00487506 0.00287821)
(0.0120518 0.00214846 0.00279986)
(0.0155017 0.00469644 0.00286303)
(0.0120047 0.00231508 0.0026162)
(0.0152172 0.00834132 -0.000532515)
(0.0120008 0.00571577 -0.000512873)
(0.0154529 0.00487428 0.00267276)
(0.00844717 0.00350979 -0.000877437)
(0.0115269 0.0058292 -0.000961887)
(0.0157664 0.00885817 -0.000580986)
(0.0125087 0.00619207 -0.000573956)
(0.015193 0.00885872 -0.00100153)
(0.0119796 0.0061935 -0.000969945)
(3.09047e-09 -4.33535e-09 -5.90004e-10)
(3.01634e-09 -4.28649e-09 -4.95473e-10)
(2.91456e-09 -4.26851e-09 -4.52733e-10)
(0.0194401 0.0077644 0.00293476)
(0.0162084 0.00872513 -0.000150208)
(0.0159834 0.00505565 0.0028806)
(0.0194586 0.0116404 -0.000353043)
(0.0191584 0.00757928 0.0028981)
(0.0157332 0.00487663 0.0028647)
(0.0191713 0.00777927 0.00273557)
(0.0156798 0.00872538 -0.000533342)
(0.0156844 0.00505497 0.00267428)
(0.0191742 0.0116406 -0.000552371)
(0.0156553 0.0092466 -0.00100309)
(0.0191708 0.0118968 -0.000771005)
(3.87446e-08 -3.69536e-08 -1.22469e-08)
(2.19086e-07 -1.97673e-07 3.01821e-08)
(2.62199e-07 -3.86332e-07 -3.36419e-08)
(3.22525e-09 1.27641e-08 3.85213e-09)
(9.89533e-10 1.11274e-09 1.28191e-09)
(-2.59957e-10 2.97814e-10 1.09621e-09)
(-1.59309e-09 2.87161e-09 2.92246e-09)
(-7.71089e-09 7.59402e-09 5.40206e-09)
(5.05711e-10 7.94434e-10 1.1557e-09)
(3.31514e-09 3.3831e-09 2.60196e-09)
(1.33026e-10 5.8459e-12 6.31266e-10)
(1.59682e-10 1.24465e-11 4.8292e-10)
(-3.19152e-12 -2.10319e-10 -3.25393e-10)
(2.62176e-10 1.8102e-11 6.37984e-10)
(2.59662e-10 4.05005e-11 6.03395e-10)
(3.07974e-10 2.51938e-11 7.47211e-10)
(3.59781e-09 -2.98265e-09 1.4696e-09)
(1.53458e-07 -2.49879e-07 6.1506e-09)
(5.19966e-08 -8.78296e-08 1.97297e-09)
(9.77427e-09 -2.16894e-09 -4.56001e-09)
(3.79436e-09 -9.38101e-13 -2.30604e-09)
(2.51704e-09 -5.51537e-09 -4.94837e-09)
(2.90827e-09 -9.84392e-10 -1.84363e-09)
(6.94033e-09 4.82649e-10 -5.93587e-09)
(6.63229e-09 -5.80531e-09 -4.26592e-09)
(4.30773e-09 -4.10846e-10 -1.8956e-09)
(9.93529e-09 -7.90083e-09 -1.03604e-09)
(4.62354e-09 -2.25389e-09 -6.74038e-10)
(1.09719e-08 -1.0984e-08 -1.71698e-09)
(4.4052e-09 -3.10073e-09 -6.99656e-10)
(1.05648e-08 -6.96117e-09 -1.28017e-09)
(1.08424e-08 -1.21011e-08 -1.46502e-09)
(4.56644e-09 -2.41777e-09 -5.968e-10)
(5.05278e-09 -1.02444e-08 -6.52474e-10)
(3.30049e-09 -3.17891e-09 -4.97477e-10)
(9.00243e-09 -1.42248e-08 -1.15648e-09)
(3.21581e-09 -3.98231e-09 -5.5819e-10)
(6.72173e-09 -9.7912e-09 -5.92302e-10)
(8.27913e-09 -1.43272e-08 -1.20705e-09)
(2.80011e-09 -3.28278e-09 -5.43561e-10)
(1.81178e-09 -9.81015e-09 -3.70273e-09)
(2.00044e-09 -3.43278e-09 -7.86946e-10)
(7.09318e-09 -1.56011e-08 -3.65402e-09)
(2.26857e-09 -3.59605e-09 -1.03982e-09)
(3.07518e-09 -1.08267e-08 -2.41574e-09)
(4.72563e-09 -1.06478e-08 -5.42114e-09)
(1.56214e-09 -3.19979e-09 -8.76535e-10)
(-3.64361e-08 2.90613e-08 -1.07111e-10)
(-6.71516e-10 4.43331e-10 1.57998e-09)
(-2.8595e-10 2.36893e-10 1.14937e-09)
(-3.20742e-09 3.4301e-09 4.27024e-09)
(-1.30166e-08 9.78792e-09 6.04831e-09)
(3.44793e-09 3.08707e-10 9.22626e-10)
(-1.36855e-08 5.77092e-09 5.83677e-09)
(5.57338e-10 -4.67441e-10 1.57417e-09)
(1.4545e-09 3.52132e-10 5.65582e-10)
(1.8792e-09 -1.02295e-09 2.74668e-10)
(-2.02247e-08 9.8113e-09 -1.0513e-09)
(-3.97204e-09 1.61182e-09 -3.78092e-09)
(-3.75177e-09 9.61208e-10 -2.41795e-09)
(-1.64687e-09 -5.20664e-09 -5.42317e-09)
(-8.28814e-09 5.43636e-09 -6.75418e-09)
(-5.60915e-09 2.08078e-09 -1.45839e-09)
(-6.83199e-09 2.38527e-09 -3.15479e-09)
(-1.78163e-10 2.37339e-10 8.13941e-10)
(1.79359e-09 -7.61755e-11 -4.75884e-10)
(6.49089e-11 2.9704e-10 1.51391e-09)
(2.58876e-10 -1.00528e-10 8.77341e-10)
(1.60719e-10 2.85918e-12 6.00078e-10)
(2.5539e-10 3.38597e-11 8.47524e-10)
(6.0162e-10 6.19412e-09 -6.46625e-09)
(-9.19688e-10 1.2156e-09 -3.58437e-09)
(2.9116e-09 5.59374e-10 -2.72189e-09)
(8.65558e-10 -6.00136e-09 -5.67904e-09)
(6.33779e-09 8.73658e-10 -6.20479e-09)
(-6.44122e-09 5.34099e-09 -6.75897e-09)
(1.56763e-09 1.54728e-09 -2.98682e-09)
(1.05095e-09 4.37877e-10 8.05617e-10)
(3.04173e-10 2.13985e-11 8.33227e-10)
(1.41241e-10 1.4614e-10 5.76117e-10)
(3.04881e-10 2.0802e-11 8.24842e-10)
(2.0255e-10 -1.0982e-11 5.8259e-10)
(5.36284e-11 7.52414e-14 6.56244e-10)
(1.74549e-10 2.01569e-11 4.9266e-10)
(2.63463e-10 1.67974e-11 6.33385e-10)
(2.28417e-10 1.24853e-11 5.63429e-10)
(2.33339e-10 -6.18495e-12 5.96735e-10)
(4.4617e-10 5.38648e-11 1.00892e-09)
(2.99055e-10 1.86573e-11 6.14603e-10)
(2.52968e-09 -4.90689e-09 1.92612e-09)
(6.12601e-09 -6.11544e-08 3.70784e-10)
(6.76727e-10 -8.51641e-09 1.01589e-09)
(1.3354e-09 -1.88398e-09 9.97761e-10)
(2.70666e-09 -1.9346e-09 1.47949e-09)
(6.83055e-10 -1.10591e-10 1.23759e-09)
(1.89313e-08 -1.16194e-07 -6.10183e-10)
(3.06972e-07 -3.42691e-07 2.06042e-08)
(4.78383e-07 -7.40305e-07 -7.37703e-08)
(5.03963e-09 -1.95235e-09 -1.41704e-09)
(-1.21956e-09 1.51579e-10 -1.82587e-09)
(6.62117e-10 -4.90799e-09 -4.7138e-09)
(1.4072e-09 -9.83799e-10 -1.79767e-09)
(5.70827e-09 -5.57668e-09 -4.09243e-09)
(-4.18555e-09 1.70119e-09 -1.44915e-09)
(7.20115e-10 -4.18591e-10 -1.47333e-09)
(1.36338e-08 -7.60133e-09 -1.37104e-09)
(4.04837e-09 -2.74395e-09 -8.75935e-10)
(4.65925e-09 -2.55888e-09 -6.77452e-10)
(1.12412e-08 -1.07434e-08 -1.82696e-09)
(1.09985e-08 -9.92956e-09 -2.15162e-09)
(1.4645e-08 -8.44076e-09 -1.24266e-09)
(4.47609e-09 -2.38286e-09 -7.20213e-10)
(1.11054e-08 -5.73534e-09 -1.83228e-09)
(4.45823e-09 -2.46807e-09 -9.26916e-10)
(4.71321e-09 -2.05666e-09 -7.55073e-10)
(1.10306e-08 -1.06218e-08 -1.82547e-09)
(1.07005e-08 -6.81027e-09 -1.35246e-09)
(1.09035e-08 -9.73197e-09 -2.20559e-09)
(4.78705e-09 -1.85095e-09 -8.61339e-10)
(1.50762e-08 -9.66765e-09 -1.1426e-09)
(4.71583e-09 -2.74483e-09 -6.69929e-10)
(1.13268e-08 -1.1044e-08 -1.74512e-09)
(4.12099e-09 -3.36442e-09 -7.11657e-10)
(1.12677e-08 -1.22632e-08 -1.5126e-09)
(1.46815e-08 -8.51792e-09 -1.21664e-09)
(4.73812e-09 -2.9302e-09 -6.1192e-10)
(1.52248e-08 -1.08039e-08 -1.10379e-09)
(3.84008e-09 -3.96527e-09 -5.58179e-10)
(4.58101e-09 -3.52715e-09 -4.94369e-10)
(1.00248e-08 -1.44678e-08 -1.23882e-09)
(1.05137e-08 -1.3799e-08 -1.25924e-09)
(1.49248e-08 -1.12255e-08 -1.12649e-09)
(4.64756e-09 -3.43393e-09 -5.08844e-10)
(8.0385e-09 -9.213e-09 -6.76249e-10)
(3.96122e-09 -3.72671e-09 -5.49488e-10)
(3.69054e-09 -3.07338e-09 -4.66367e-10)
(9.29774e-09 -1.41992e-08 -1.20967e-09)
(6.96843e-09 -9.72096e-09 -6.17563e-10)
(9.87401e-09 -1.36906e-08 -1.21066e-09)
(3.9102e-09 -2.97036e-09 -4.51299e-10)
(1.44267e-08 -1.14092e-08 -1.15951e-09)
(4.48654e-09 -3.58649e-09 -4.87701e-10)
(9.87171e-09 -1.44376e-08 -1.18021e-09)
(3.38602e-09 -4.14967e-09 -5.41332e-10)
(8.84814e-09 -1.39873e-08 -1.26814e-09)
(1.48445e-08 -1.12333e-08 -1.11657e-09)
(4.38183e-09 -3.60605e-09 -4.78202e-10)
(1.35745e-08 -1.14266e-08 -2.1961e-09)
(2.83782e-09 -4.36991e-09 -9.60844e-10)
(3.60153e-09 -3.64393e-09 -1.07851e-09)
(7.46738e-09 -1.4052e-08 -3.47e-09)
(8.02177e-09 -1.50164e-08 -2.20006e-09)
(1.29774e-08 -1.10937e-08 -3.82483e-09)
(3.78769e-09 -3.65219e-09 -8.12794e-10)
(3.63957e-09 -1.06446e-08 -1.55499e-09)
(2.83582e-09 -4.31352e-09 -8.76052e-10)
(2.29967e-09 -3.47008e-09 -7.41363e-10)
(7.2038e-09 -1.57219e-08 -3.30173e-09)
(3.2565e-09 -1.07137e-08 -2.32833e-09)
(6.88411e-09 -1.50445e-08 -2.05668e-09)
(2.38365e-09 -3.46494e-09 -6.30765e-10)
(1.15055e-08 -8.88174e-09 -8.68625e-09)
(3.61808e-09 -3.59155e-09 -1.50079e-09)
(7.3819e-09 -1.42246e-08 -3.89849e-09)
(2.61958e-09 -3.87436e-09 -1.51148e-09)
(8.38966e-09 -1.36736e-08 -6.41412e-09)
(1.28339e-08 -1.09661e-08 -4.19053e-09)
(3.66997e-09 -3.30929e-09 -2.21475e-09)
(2.87179e-08 -2.76209e-08 -7.94625e-09)
(8.16662e-08 -3.31764e-08 -1.36103e-09)
(2.42963e-07 -2.59396e-07 -2.33414e-08)
(3.59124e-07 -3.03277e-07 1.37219e-07)
(5.62395e-07 -7.11251e-07 1.91159e-08)
(9.83396e-08 -2.25387e-08 -1.59056e-09)
(-7.20418e-07 -1.51942e-07 -1.26069e-06)
(4.46326e-07 -3.92081e-07 5.45311e-09)
(2.35576e-10 3.74711e-10 4.20521e-10)
(1.75366e-10 1.98275e-10 2.89997e-09)
(8.60986e-10 9.12804e-10 1.40336e-09)
(3.71465e-09 1.73438e-09 1.24767e-09)
(-9.11059e-11 2.30646e-10 8.13343e-10)
(2.89402e-10 4.53334e-10 1.74004e-09)
(-7.75655e-09 7.09336e-09 3.85531e-09)
(7.24506e-10 8.14528e-10 1.28417e-09)
(1.89775e-09 1.25084e-08 3.43999e-09)
(-3.44071e-09 4.0245e-09 1.33089e-09)
(-1.55562e-08 9.85733e-09 -2.12008e-09)
(1.78203e-10 3.53036e-09 -7.05064e-10)
(-1.13025e-08 1.04024e-08 3.6617e-09)
(-2.87344e-09 9.7985e-09 -1.92376e-09)
(1.33653e-09 3.84037e-09 1.09389e-09)
(-1.60523e-08 1.04648e-08 -1.94499e-09)
(-1.1643e-08 1.11362e-08 3.01645e-09)
(-1.51691e-10 -8.16172e-11 2.8016e-09)
(2.69691e-10 1.54331e-10 1.79208e-09)
(1.08372e-09 8.95268e-10 1.8915e-09)
(2.06537e-09 1.6512e-09 -4.18197e-10)
(3.25728e-09 2.02235e-09 7.16054e-10)
(4.39492e-10 3.30065e-10 7.78888e-11)
(2.61498e-10 2.49726e-10 1.69707e-10)
(8.80679e-11 -3.34763e-12 4.2123e-10)
(2.38212e-10 -7.05087e-11 2.91388e-10)
(1.49417e-10 1.92027e-11 5.00494e-10)
(2.16358e-10 3.05142e-12 5.39495e-10)
(1.71246e-10 1.18403e-11 1.13841e-10)
(2.03014e-10 2.38688e-12 4.69469e-10)
(2.35632e-10 -2.17888e-11 2.8415e-10)
(3.17464e-10 -3.21051e-11 -1.78457e-10)
(2.91253e-10 -1.86493e-11 -1.69619e-10)
(2.48195e-10 1.40934e-11 5.57545e-10)
(2.88686e-10 2.00569e-11 6.52626e-10)
(2.69694e-10 4.12826e-11 6.39952e-10)
(3.89676e-10 3.02179e-11 9.38694e-10)
(3.2394e-10 2.68103e-11 7.76691e-10)
(3.5887e-10 2.41371e-11 8.18934e-10)
(2.97708e-10 2.12e-11 6.71917e-10)
(0.000327137 -0.000346313 0.000519258)
(1.53591e-07 4.92772e-08 1.975e-08)
(0.000277035 -0.000295327 0.000458635)
(2.29104e-07 3.1121e-08 3.46131e-08)
(0.000777336 0.000412362 -0.000726987)
(0.000299599 0.000191779 -0.000399578)
(2.14833e-09 -1.36888e-09 1.3113e-09)
(3.47095e-08 -5.48679e-08 1.16378e-09)
(2.3217e-07 -3.52541e-07 -2.83125e-08)
(0.000167384 3.46419e-05 -0.000107511)
(5.19023e-06 4.27923e-06 -1.50393e-05)
(0.000231953 0.000146836 -0.000316592)
(6.31758e-08 -2.10171e-07 -7.28529e-09)
(0.000757326 0.00036668 -0.000657607)
(0.000269841 4.48415e-05 -0.00014167)
(0.000282306 0.000172504 -0.000361229)
(7.00742e-06 5.26902e-06 -1.70565e-05)
(0.000248578 0.000162409 -0.00035033)
(4.73263e-08 -1.35564e-07 -4.02505e-09)
(2.78479e-09 3.44329e-11 -1.30881e-09)
(2.84664e-09 -3.76725e-10 -9.54859e-10)
(2.72303e-09 -7.87531e-09 -4.8092e-09)
(7.11448e-09 -7.68603e-09 -4.58979e-09)
(1.01771e-08 -2.38788e-09 -4.38424e-09)
(3.5931e-09 -1.23117e-09 -1.58549e-09)
(9.69407e-09 -7.35293e-09 -3.34387e-09)
(4.79312e-09 -9.57853e-10 -1.38349e-09)
(7.7136e-09 -6.0211e-09 -4.0125e-09)
(1.10883e-08 -3.54386e-09 -3.00518e-09)
(4.71558e-09 -6.71748e-10 -1.58203e-09)
(1.02998e-08 -9.52792e-09 -3.4663e-09)
(8.28795e-09 -8.02713e-09 -4.31056e-09)
(2.79904e-09 -7.07759e-10 -6.37222e-10)
(3.00315e-09 -4.84051e-10 -8.43765e-10)
(0.00401752 -0.00140335 0.00205962)
(0.00385035 -0.00141199 0.00202341)
(0.00527702 0.00250999 -0.00177185)
(0.00402709 0.00181308 -0.00160412)
(0.00273367 0.00109602 -0.00124161)
(0.00379002 0.000785899 -0.000473591)
(0.00383167 0.00159346 -0.00142775)
(0.00275862 0.00120434 -0.00137243)
(0.00385862 0.00172646 -0.00157755)
(0.00524793 0.00234992 -0.00160454)
(0.00413161 0.000912956 -0.000485303)
(0.00399989 0.00167663 -0.00145189)
(2.57035e-09 -1.23602e-09 -2.95471e-10)
(2.44512e-09 -1.32402e-09 -2.38476e-10)
(1.17274e-08 -1.40008e-08 -1.67028e-09)
(1.15654e-08 -1.53218e-08 -1.41593e-09)
(9.93728e-09 -7.94464e-09 -9.9535e-10)
(4.36594e-09 -3.25551e-09 -6.05507e-10)
(1.0507e-08 -1.28362e-08 -1.24349e-09)
(4.33569e-09 -2.65449e-09 -4.71938e-10)
(1.08062e-08 -1.23202e-08 -1.39117e-09)
(9.10982e-09 -8.48474e-09 -7.96619e-10)
(4.48424e-09 -2.54054e-09 -5.15971e-10)
(1.11674e-08 -1.62334e-08 -1.24215e-09)
(1.15088e-08 -1.55986e-08 -1.37978e-09)
(2.26173e-09 -1.3925e-09 -1.87688e-10)
(2.45282e-09 -1.34534e-09 -2.16995e-10)
(0.0104343 0.000983177 0.00283325)
(0.0102118 0.00085019 0.00281961)
(0.0120722 0.00760176 -0.00219776)
(0.0104853 0.00626971 -0.00214405)
(0.00868997 0.00465775 -0.00186672)
(0.0102285 0.00444419 -0.000567222)
(0.010227 0.00585554 -0.00193636)
(0.00872313 0.00487008 -0.00205885)
(0.0102616 0.00608665 -0.00213489)
(0.0120362 0.00735174 -0.00199388)
(0.010679 0.00477723 -0.000568885)
(0.0104506 0.00603608 -0.00194476)
(1.67147e-09 -1.51693e-09 -1.70361e-10)
(8.27215e-10 -1.6082e-09 -2.32984e-10)
(9.55973e-09 -1.81598e-08 -1.17334e-09)
(8.61295e-09 -1.81967e-08 -1.0804e-09)
(4.93848e-09 -1.02603e-08 -6.64067e-10)
(2.97578e-09 -4.12784e-09 -6.12083e-10)
(7.9027e-09 -1.57066e-08 -1.36958e-09)
(2.35529e-09 -3.50541e-09 -3.79862e-10)
(7.98692e-09 -1.45183e-08 -1.13122e-09)
(4.16974e-09 -1.08792e-08 -8.48302e-10)
(2.39078e-09 -3.41787e-09 -4.79525e-10)
(8.46672e-09 -1.92167e-08 -1.50474e-09)
(8.38624e-09 -1.83921e-08 -1.21229e-09)
(7.17431e-10 -1.64513e-09 -1.14229e-10)
(6.07496e-10 -1.64254e-09 -2.11716e-10)
(0.0177901 0.00634325 0.00301311)
(0.0175585 0.00615815 0.00301264)
(0.0195037 0.0139657 -0.00227407)
(0.017867 0.012607 -0.00228078)
(0.0159707 0.0107385 -0.0020573)
(0.0176306 0.0104076 -0.000584909)
(0.0175967 0.0121262 -0.00206743)
(0.0160088 0.011017 -0.00226798)
(0.0176352 0.0124107 -0.00227969)
(0.0194651 0.0136911 -0.00207163)
(0.0180957 0.0107929 -0.000585755)
(0.0178286 0.012322 -0.00206837)
(5.80734e-10 -1.53363e-09 -2.5874e-10)
(4.28198e-10 -1.45735e-09 -2.12945e-10)
(7.83468e-09 -1.89717e-08 -4.60232e-09)
(5.26845e-09 -9.55062e-09 -5.68613e-09)
(1.52272e-09 -9.63288e-09 -4.01738e-09)
(1.05425e-09 -1.58682e-09 -8.5627e-10)
(4.63602e-09 -8.6481e-09 -7.31611e-09)
(5.54179e-10 -1.48664e-09 -3.89199e-10)
(6.13816e-09 -1.31508e-08 -9.14166e-09)
(3.41295e-10 -1.34788e-09 -1.78266e-10)
(1.64353e-09 -6.61784e-10 1.51902e-10)
(4.87409e-08 -1.4528e-08 2.00392e-09)
(6.49122e-09 1.26008e-10 1.16205e-09)
(-9.6283e-09 2.28758e-09 2.22195e-09)
(7.44925e-11 1.23542e-10 8.04113e-10)
(1.21193e-09 1.34209e-09 3.5583e-09)
(-1.44838e-08 1.14163e-08 3.89492e-09)
(2.7693e-09 1.62198e-09 1.46159e-09)
(-4.00301e-08 3.00639e-08 -6.6936e-10)
(-9.23682e-09 5.53429e-09 1.79648e-09)
(-2.17766e-08 1.2574e-08 -2.10145e-09)
(-1.74869e-08 8.06063e-09 -6.63862e-10)
(-1.73144e-08 1.26899e-08 3.98797e-09)
(-4.47019e-08 2.7589e-08 1.61012e-11)
(-1.56748e-08 7.93136e-09 3.46213e-09)
(-2.28901e-08 1.41634e-08 -1.88895e-09)
(-1.80553e-08 1.48451e-08 3.01808e-09)
(5.49905e-08 -7.05722e-09 1.6487e-09)
(2.15993e-09 1.30328e-09 3.78399e-09)
(6.42535e-09 2.02905e-09 2.76644e-09)
(-1.23378e-08 2.879e-09 -5.32594e-10)
(-9.54171e-09 3.43313e-09 1.21377e-09)
(1.22727e-08 -4.01299e-09 -8.68438e-09)
(-1.38504e-06 1.31386e-07 -1.32827e-06)
(7.9399e-09 -4.73456e-09 -1.0644e-08)
(8.74435e-10 -2.90727e-10 1.5027e-09)
(5.65741e-10 9.13966e-11 3.41991e-09)
(1.09328e-09 -1.62381e-09 1.04716e-09)
(2.21249e-09 7.58839e-10 -4.21843e-11)
(1.38554e-08 -4.38755e-10 -1.31559e-08)
(2.83728e-09 -1.79566e-09 -1.1356e-09)
(7.79623e-10 -3.95543e-10 3.36986e-09)
(1.09169e-08 -1.07627e-08 -9.81204e-09)
(1.61509e-09 -3.13725e-09 4.62605e-10)
(-2.26871e-08 1.13068e-08 -8.32966e-10)
(-6.61388e-09 3.32492e-09 -3.25447e-09)
(-2.05237e-08 1.10174e-08 -3.59424e-09)
(-1.51656e-08 6.46848e-09 -2.63144e-09)
(-4.33851e-08 2.61903e-08 1.52218e-10)
(-1.16711e-08 7.20836e-09 -6.28029e-09)
(-1.07938e-08 4.34586e-09 -3.24487e-09)
(-2.13878e-09 2.99118e-10 -5.89012e-10)
(-5.68568e-09 9.20649e-10 -9.1871e-10)
(-1.93862e-09 -8.07527e-09 -4.4334e-09)
(-8.13205e-09 1.01238e-08 -6.31471e-09)
(-2.14866e-08 1.22929e-08 -3.15318e-09)
(-1.18147e-08 1.03523e-08 -5.10051e-09)
(-1.16995e-08 2.55079e-09 -8.24545e-10)
(-6.84554e-09 1.25691e-09 -1.0328e-09)
(-1.12896e-10 2.52616e-10 9.63063e-10)
(-1.36598e-10 -4.6552e-11 2.75891e-09)
(-1.17377e-10 2.37513e-10 1.73561e-09)
(1.90528e-09 5.04578e-10 -4.45596e-10)
(2.59587e-10 3.67855e-10 1.63203e-09)
(-2.84416e-10 -4.52072e-10 2.32126e-09)
(7.89904e-10 4.91104e-10 5.17542e-10)
(1.14226e-10 1.35479e-10 1.78963e-09)
(-7.17399e-11 -2.24599e-10 1.04165e-09)
(1.11673e-10 3.44886e-10 1.74912e-09)
(1.66083e-10 2.82639e-10 6.69495e-10)
(1.23592e-10 -1.95905e-11 4.62383e-10)
(2.11936e-10 1.26094e-11 6.42269e-10)
(8.26937e-11 2.55907e-10 1.62504e-09)
(2.16326e-10 2.28911e-10 6.43747e-10)
(1.02995e-09 5.08468e-10 4.47362e-10)
(-1.58086e-10 6.93997e-09 -6.2711e-09)
(-2.7771e-09 2.55798e-09 -2.80471e-09)
(-1.49154e-08 8.60331e-09 -3.45345e-09)
(-6.77097e-11 3.04501e-09 -1.68417e-09)
(-2.7591e-09 9.52003e-09 -2.73797e-09)
(-8.65488e-09 6.65089e-09 -6.32305e-09)
(4.22546e-10 2.51418e-09 -2.48153e-09)
(2.68825e-09 2.32834e-10 -1.43429e-09)
(1.9422e-09 8.66904e-10 -1.4997e-09)
(1.15435e-09 -9.72751e-09 -4.45822e-09)
(-8.29445e-09 1.02302e-08 -6.81399e-09)
(-1.55059e-08 8.83107e-09 -3.13499e-09)
(-9.73718e-09 9.4216e-09 -4.9543e-09)
(1.83569e-09 1.53586e-09 -6.9359e-10)
(1.60045e-09 1.11104e-09 -1.35928e-09)
(1.47031e-09 8.03211e-10 4.46697e-10)
(5.20311e-10 5.98444e-10 3.60956e-10)
(1.19561e-10 2.234e-10 6.78146e-10)
(2.85227e-10 3.44732e-11 8.59832e-10)
(5.71011e-11 3.03949e-12 6.81083e-10)
(9.76325e-11 1.28869e-10 6.38958e-10)
(8.78367e-11 3.35073e-10 5.6661e-10)
(3.97712e-12 -2.16108e-11 7.06462e-10)
(2.25601e-11 1.71167e-10 7.0603e-10)
(1.27669e-10 -1.17097e-11 6.60351e-11)
(4.26402e-11 1.45866e-11 9.56029e-11)
(2.94165e-10 2.01427e-11 8.27574e-10)
(8.30857e-11 -1.12609e-11 6.7267e-10)
(8.79433e-11 7.0037e-11 6.58017e-10)
(2.07749e-10 -4.3339e-11 5.23429e-10)
(2.69301e-10 -2.69631e-11 3.12552e-10)
(-9.64299e-11 -1.05906e-11 7.59684e-10)
(4.33095e-11 -4.72895e-11 6.6326e-10)
(4.05354e-11 1.669e-10 2.68526e-10)
(2.08403e-11 1.77086e-10 6.78619e-10)
(1.76231e-10 1.48224e-11 4.99582e-10)
(2.19534e-10 3.75922e-12 5.43286e-10)
(2.30393e-10 9.61159e-12 5.63392e-10)
(2.44034e-10 1.36258e-11 5.469e-10)
(2.15845e-10 9.09128e-12 4.92276e-10)
(2.00578e-10 2.85545e-12 4.61521e-10)
(2.13308e-10 7.66487e-12 4.83616e-10)
(2.4083e-10 -2.71495e-11 5.17536e-10)
(4.11509e-10 -5.72131e-11 -2.06231e-10)
(3.20154e-10 -1.23384e-11 5.25399e-10)
(4.75543e-10 5.22351e-11 1.07666e-09)
(4.41066e-10 -2.59295e-10 8.06026e-10)
(3.37498e-10 1.70576e-11 6.59476e-10)
(4.14499e-10 -2.28941e-11 -2.14351e-10)
(4.24433e-10 -2.98978e-10 6.56353e-10)
(3.60264e-10 -9.43999e-12 5.38309e-10)
(-3.88415e-10 -1.33966e-09 -3.7347e-10)
(-1.45295e-10 -9.92633e-10 -3.11928e-10)
(1.64632e-09 -2.46856e-09 1.76375e-09)
(4.73578e-10 -5.49949e-10 8.39647e-10)
(5.87817e-10 -4.38661e-09 1.00994e-09)
(-6.49456e-10 -6.06611e-08 -1.14099e-10)
(-1.36074e-09 -3.78273e-09 -2.63562e-10)
(-2.7805e-10 -8.48822e-09 8.16131e-10)
(4.37079e-10 -5.87492e-10 6.69736e-10)
(-4.52773e-10 -2.16201e-09 -2.55693e-10)
(1.14966e-10 -4.40381e-09 8.05013e-10)
(1.05271e-09 -1.26279e-09 1.02012e-09)
(4.11771e-10 2.87516e-11 9.77212e-10)
(6.24433e-10 -6.88245e-11 1.21153e-09)
(1.64964e-09 -8.7326e-10 1.29589e-09)
(5.5032e-10 -3.50997e-11 1.07518e-09)
(3.71529e-10 2.49819e-11 8.45183e-10)
(5.11778e-10 -1.40966e-11 1.04404e-09)
(0.00070779 -0.000349952 0.000382677)
(0.00031876 -0.000326472 0.000478773)
(0.000284437 -0.00018474 0.000219658)
(6.77383e-09 -1.15971e-07 -1.39345e-09)
(2.20489e-07 -7.27742e-08 -4.76191e-09)
(4.73508e-07 -8.19255e-07 -1.06495e-07)
(7.17589e-07 -6.02526e-07 5.09444e-08)
(0.000159866 1.73288e-06 -5.01487e-05)
(2.56753e-06 -3.59518e-06 1.18394e-05)
(0.000169623 -9.60276e-05 0.00010812)
(1.32873e-06 -9.80623e-07 -1.47688e-07)
(0.000696608 -0.000261863 0.000257201)
(0.000261432 -1.37914e-06 -6.61509e-05)
(0.000273024 -0.000137336 0.000145254)
(0.000267838 -0.000277881 0.00042124)
(6.13207e-07 5.39917e-07 4.68077e-07)
(4.62968e-06 -5.38322e-06 1.79201e-05)
(0.000180105 -0.00013086 0.000164179)
(1.40504e-06 -9.79951e-07 -1.73037e-07)
(0.0003086 -0.000360521 0.000552855)
(0.000261605 -0.000309983 0.000491259)
(0.000601488 -0.000367419 0.000431785)
(0.000291184 -0.00034667 0.000525429)
(0.000224983 -0.000204898 0.000268824)
(0.000121055 7.60622e-06 -4.95354e-05)
(-4.2362e-06 -1.30079e-05 1.88882e-05)
(0.00012382 -0.000111206 0.000142986)
(0.000588354 -0.000273977 0.000294165)
(0.000209091 4.15204e-06 -6.4921e-05)
(0.000212024 -0.000151367 0.00018343)
(0.000244769 -0.000298966 0.000466463)
(-1.32564e-06 -1.91958e-05 2.75013e-05)
(0.000135848 -0.000152358 0.000209543)
(0.00158703 -0.00109883 0.0013395)
(0.00170322 -0.00113913 0.00138804)
(0.000884132 -0.000401261 0.000435518)
(0.00159224 -0.00103948 0.00125881)
(0.00151122 -0.000525999 0.000588582)
(0.00172173 6.67373e-05 -0.000152358)
(0.00254826 -0.000382994 0.000540013)
(0.00174217 -0.000395677 0.000437626)
(0.000873356 -0.000299185 0.000294104)
(0.00148227 3.97917e-05 -0.000145031)
(0.00150183 -0.000381696 0.00040243)
(0.00170934 -0.00107714 0.0013052)
(0.0025558 -0.000582621 0.000778854)
(0.00175112 -0.000553983 0.000637673)
(0.00152193 -0.0011101 0.00136535)
(0.00163504 -0.0011502 0.0014123)
(0.000761671 -0.000418158 0.000481324)
(0.0014963 -0.00105542 0.00129396)
(0.00133981 -0.000541279 0.000616213)
(0.00155581 7.06222e-05 -0.000184426)
(0.00230883 -0.000392132 0.000513909)
(0.00155147 -0.000405895 0.0004437)
(0.000748744 -0.000310898 0.00032753)
(0.00133071 4.38082e-05 -0.000169492)
(0.0013276 -0.000392277 0.000417168)
(0.00160884 -0.0010928 0.00133803)
(0.0023201 -0.00059583 0.000766292)
(0.00156343 -0.000568741 0.000656828)
(0.000714115 0.000430823 -0.00076965)
(0.000269078 0.000212459 -0.000435301)
(0.000125646 4.57318e-05 -0.000114747)
(5.35446e-06 1.26523e-05 -1.93726e-05)
(0.000211499 0.000161583 -0.000340873)
(0.000707519 0.000379401 -0.000688012)
(0.000213446 5.5554e-05 -0.000149225)
(0.000258318 0.000186883 -0.000386344)
(7.3177e-06 1.63403e-05 -2.22442e-05)
(0.00022251 0.000183566 -0.000384823)
(0.000862801 0.000446625 -0.000770911)
(0.00157522 0.000720057 -0.00105741)
(0.00173312 0.000226296 -0.000358454)
(0.00258895 0.00103631 -0.00121251)
(0.00166994 0.000686055 -0.000990735)
(0.000842499 0.000397175 -0.000697336)
(0.00149331 0.000185246 -0.000336682)
(0.00155291 0.000644487 -0.000956418)
(0.0026136 0.00114103 -0.00134033)
(0.00169256 0.000765312 -0.00109535)
(0.000794812 0.000464813 -0.000814854)
(0.00147398 0.00073635 -0.00111432)
(0.00155392 0.000234154 -0.000403579)
(0.00247977 0.00104602 -0.00127284)
(0.00158643 0.000697076 -0.00103439)
(0.000788927 0.000409701 -0.000728752)
(0.00132961 0.000193376 -0.000373547)
(0.00147309 0.000655695 -0.000998129)
(0.00247509 0.00115515 -0.00142067)
(0.0015866 0.000781335 -0.00115471)
(-1.3798e-09 1.66817e-10 -4.97986e-10)
(7.32537e-10 -8.32623e-11 -3.59362e-10)
(8.73644e-10 -6.85171e-09 -4.38851e-09)
(6.45744e-09 -7.27333e-09 -4.21689e-09)
(5.89538e-09 -2.3234e-09 -1.43106e-09)