/*--------------------------------*- C++ -*----------------------------------*\
| =========                 |                                                 |
| \\      /  F ield         | OpenFOAM: The Open Source CFD Toolbox           |
|  \\    /   O peration     | Version:  2012                                  |
|   \\  /    A nd           | Website:  www.openfoam.com                      |
|    \\/     M anipulation  |                                                 |
\*---------------------------------------------------------------------------*/
FoamFile
{
    version     2.0;
    format      ascii;
    class       volVectorField;
    location    "0.108/solid";
    object      D_0_0_0;
}
// * * * * * * * * * * * * * * * * * * * * * * * * * * * * * * * * * * * * * //

dimensions      [0 1 0 0 0 0 0];


internalField   nonuniform List<vector> 
24998
(
(9.30435e-12 6.08111e-11 4.72953e-11)
(-2.14698e-14 2.16134e-13 -1.05285e-12)
(4.14695e-12 -1.38069e-12 2.37834e-11)
(1.31757e-13 -2.03614e-13 1.25428e-11)
(1.34859e-11 -6.06823e-11 1.29616e-11)
(7.19047e-11 2.30202e-10 -1.52901e-11)
(7.31888e-11 2.09494e-10 -5.85486e-12)
(6.28111e-11 1.96152e-10 -5.24078e-12)
(4.23757e-11 1.72356e-10 2.94871e-11)
(2.12064e-11 6.34968e-11 4.70474e-11)
(3.31006e-12 -1.642e-13 4.39483e-11)
(1.62729e-10 2.46753e-10 -1.54085e-11)
(3.95348e-14 1.4537e-13 -1.96735e-12)
(5.19996e-12 -1.30599e-12 2.4505e-11)
(6.8337e-11 2.36977e-10 -1.64776e-11)
(2.47119e-12 -9.81871e-13 4.30353e-11)
(-2.04152e-12 -3.43588e-13 2.48702e-11)
(1.29499e-13 -2.02421e-13 1.26034e-11)
(-2.09878e-12 -2.81602e-13 2.46495e-11)
(1.04028e-11 -6.76016e-11 3.26663e-11)
(9.83972e-12 -4.05316e-11 1.48114e-11)
(2.03349e-11 -1.39215e-10 3.65101e-11)
(1.65504e-10 2.40234e-10 -1.4689e-11)
(1.73859e-10 2.20156e-10 -6.38553e-12)
(7.39597e-11 2.11227e-10 -6.40529e-12)
(1.73165e-10 2.18434e-10 -5.87489e-12)
(1.65282e-10 2.074e-10 -5.4377e-12)
(6.47417e-11 1.98217e-10 -5.29862e-12)
(1.63414e-10 2.05398e-10 -5.36178e-12)
(1.46628e-10 1.84207e-10 2.58402e-11)
(4.18749e-11 1.77591e-10 1.91059e-11)
(1.45325e-10 1.76424e-10 4.40895e-11)
(1.0364e-11 -9.80107e-12 1.2241e-11)
(8.99891e-10 -1.56001e-10 4.64667e-11)
(-5.29271e-13 9.47789e-12 2.05648e-11)
(1.56432e-11 4.38227e-11 6.19e-11)
(5.01526e-11 2.44193e-10 2.55492e-11)
(-2.79447e-12 -1.01946e-11 3.67568e-11)
(7.0434e-12 -3.43357e-12 1.98522e-11)
(9.13754e-12 -1.91649e-13 1.24242e-11)
(7.73446e-13 -7.6049e-13 1.49042e-11)
(8.34255e-12 -1.40672e-14 1.23332e-11)
(8.59161e-12 -1.27667e-13 1.21426e-11)
(1.68559e-13 8.08921e-14 1.25065e-11)
(1.98771e-06 -8.33947e-07 2.36771e-06)
(1.16264e-11 4.22401e-11 1.42595e-11)
(4.76162e-08 3.36898e-09 5.3702e-08)
(6.09588e-09 8.43179e-09 -3.13133e-08)
(1.65869e-06 -4.29174e-07 -6.79077e-07)
(7.53911e-11 2.199e-10 -1.03805e-11)
(1.32825e-05 -4.42529e-06 5.76405e-06)
(6.93903e-06 -2.47711e-06 4.43367e-06)
(6.97098e-06 -1.8943e-06 -1.32798e-06)
(1.29512e-05 -3.49101e-06 -1.69005e-06)
(7.03084e-11 2.0496e-10 -5.13162e-12)
(3.05011e-05 -9.34499e-06 7.2364e-06)
(2.20013e-05 -6.95853e-06 6.75563e-06)
(2.22452e-05 -5.91413e-06 -1.99629e-06)
(3.02221e-05 -7.9833e-06 -2.12933e-06)
(5.50218e-11 1.8868e-10 -2.7019e-12)
(4.93082e-05 -1.4543e-05 7.60995e-06)
(4.05209e-05 -1.21122e-05 7.4452e-06)
(4.08648e-05 -1.07844e-05 -2.20018e-06)
(4.94445e-05 -1.31609e-05 -1.79559e-06)
(1.03435e-11 -6.24398e-12 1.06434e-11)
(3.28388e-12 4.54885e-11 6.32936e-11)
(1.10614e-10 2.58418e-10 2.81928e-11)
(4.93699e-10 -5.52243e-11 5.65453e-11)
(6.06199e-12 -3.02461e-12 2.13887e-11)
(8.38578e-10 3.41535e-11 6.02849e-11)
(1.16287e-11 2.42799e-11 6.37947e-11)
(-9.13013e-13 -2.22082e-12 5.17157e-11)
(4.74618e-10 2.81603e-11 6.63152e-11)
(1.22342e-10 2.61523e-10 5.48774e-12)
(-5.24206e-12 7.97572e-12 1.79324e-11)
(2.80057e-12 -5.98644e-12 3.40275e-11)
(3.12414e-12 2.20775e-11 6.19155e-11)
(1.70054e-12 -5.3809e-12 2.91862e-11)
(7.72748e-12 -3.00347e-12 2.89311e-11)
(5.44267e-11 2.46644e-10 5.04356e-12)
(3.32955e-12 -5.55348e-12 4.62336e-11)
(-9.3083e-13 -1.21843e-12 2.86988e-11)
(6.75855e-12 -4.55025e-13 3.18237e-11)
(8.37655e-12 -1.14051e-13 1.23461e-11)
(9.03158e-12 -6.71075e-14 1.24178e-11)
(-1.17052e-12 -1.01733e-12 2.80922e-11)
(5.72816e-12 -1.70999e-13 3.13481e-11)
(6.55193e-12 -3.33973e-13 3.17512e-11)
(7.55207e-13 -7.04518e-13 1.47006e-11)
(5.67918e-12 -1.52931e-13 3.12654e-11)
(-2.06653e-12 4.02518e-14 2.45946e-11)
(5.9625e-12 -1.30466e-13 3.10332e-11)
(9.54415e-12 2.43076e-11 1.31938e-11)
(8.61463e-12 -4.59443e-14 1.2131e-11)
(-1.95901e-12 -1.06815e-13 2.48469e-11)
(-4.04833e-12 3.6398e-11 3.03956e-11)
(6.01144e-12 -1.97628e-13 3.10279e-11)
(1.82212e-13 3.12313e-14 1.25683e-11)
(1.96156e-06 -8.13752e-07 2.21636e-06)
(-4.08144e-12 1.02471e-10 3.07454e-11)
(4.39697e-10 -5.45698e-09 -1.41333e-08)
(1.63982e-06 -4.78641e-07 -3.34906e-07)
(5.55534e-08 2.13738e-08 1.06421e-07)
(1.97359e-06 -8.66863e-07 2.42202e-06)
(8.10399e-08 -1.99118e-08 8.57537e-08)
(1.94004e-06 -8.60284e-07 2.29609e-06)
(-4.62741e-09 9.32555e-09 -1.06373e-08)
(1.58628e-06 -4.66822e-07 -2.18192e-07)
(4.91991e-08 -2.71302e-08 7.17178e-08)
(2.19949e-06 -9.08294e-07 2.50617e-06)
(6.57495e-06 -2.3611e-06 4.32887e-06)
(2.17395e-06 -8.87644e-07 2.34693e-06)
(6.21914e-06 -1.77387e-06 -6.09989e-07)
(2.07186e-06 -6.03677e-07 -3.74617e-07)
(6.55888e-06 -2.33201e-06 4.06592e-06)
(2.18472e-06 -9.40707e-07 2.56288e-06)
(6.54853e-06 -2.38607e-06 4.41519e-06)
(2.15146e-06 -9.33458e-07 2.43017e-06)
(6.13531e-06 -1.76486e-06 -4.10839e-07)
(2.01414e-06 -5.92266e-07 -2.4569e-07)
(6.51935e-06 -2.36728e-06 4.19287e-06)
(-1.5288e-09 2.04379e-08 -2.96925e-08)
(1.59845e-06 -4.05314e-07 -5.54565e-07)
(6.23457e-06 -1.69425e-06 -1.26659e-06)
(2.09029e-06 -5.50146e-07 -7.62682e-07)
(6.1411e-06 -1.67615e-06 -1.05164e-06)
(2.02535e-06 -5.27092e-07 -6.24659e-07)
(1.73845e-10 2.28965e-10 -1.01091e-11)
(1.74021e-10 2.26146e-10 -8.89263e-12)
(7.54805e-11 2.17081e-10 -9.03381e-12)
(1.32763e-05 -4.38647e-06 5.42064e-06)
(6.95589e-06 -1.9776e-06 -6.38323e-07)
(6.9236e-06 -2.44741e-06 4.16479e-06)
(1.29381e-05 -3.59985e-06 -8.04317e-07)
(1.32431e-05 -4.44274e-06 5.87019e-06)
(6.91179e-06 -2.50159e-06 4.52155e-06)
(1.32177e-05 -4.41112e-06 5.57701e-06)
(6.86842e-06 -1.96892e-06 -4.31062e-07)
(6.88285e-06 -2.48199e-06 4.29406e-06)
(1.28255e-05 -3.59344e-06 -5.51438e-07)
(1.37569e-05 -4.5666e-06 5.83703e-06)
(2.14558e-05 -6.80323e-06 6.71131e-06)
(1.37514e-05 -4.5272e-06 5.48957e-06)
(2.11363e-05 -5.76554e-06 -9.31394e-07)
(1.38951e-05 -3.85521e-06 -8.23666e-07)
(2.14585e-05 -6.75576e-06 6.31611e-06)
(1.37167e-05 -4.58361e-06 5.94408e-06)
(2.14048e-05 -6.81394e-06 6.82864e-06)
(1.36915e-05 -4.55122e-06 5.64731e-06)
(2.09971e-05 -5.76149e-06 -6.45014e-07)
(1.37789e-05 -3.84911e-06 -5.65661e-07)
(2.13829e-05 -6.77087e-06 6.48921e-06)
(6.8736e-06 -1.87687e-06 -1.10417e-06)
(1.28268e-05 -3.4782e-06 -1.41636e-06)
(2.11475e-05 -5.62966e-06 -1.9703e-06)
(1.39079e-05 -3.74281e-06 -1.73253e-06)
(2.09946e-05 -5.62162e-06 -1.65971e-06)
(1.37798e-05 -3.73062e-06 -1.45321e-06)
(1.70681e-10 2.1396e-10 -5.21682e-12)
(1.69564e-10 2.12436e-10 -5.18919e-12)
(6.9153e-11 2.03401e-10 -5.09445e-12)
(3.0511e-05 -9.29079e-06 6.81394e-06)
(2.22342e-05 -6.05308e-06 -9.43088e-07)
(2.20045e-05 -6.91057e-06 6.35806e-06)
(3.02124e-05 -8.14095e-06 -1.00247e-06)
(3.04411e-05 -9.35017e-06 7.35923e-06)
(2.19497e-05 -6.96885e-06 6.87345e-06)
(3.04221e-05 -9.29809e-06 6.99536e-06)
(2.2092e-05 -6.0493e-06 -6.53563e-07)
(2.19279e-05 -6.92514e-06 6.53189e-06)
(3.00519e-05 -8.13882e-06 -6.95822e-07)
(3.10835e-05 -9.5068e-06 7.2573e-06)
(3.99278e-05 -1.19492e-05 7.44015e-06)
(3.10937e-05 -9.45225e-06 6.83383e-06)
(3.96672e-05 -1.06395e-05 -1.03124e-06)
(3.13824e-05 -8.44801e-06 -1.00806e-06)
(3.99425e-05 -1.18907e-05 7.00927e-06)
(3.1023e-05 -9.51168e-06 7.38033e-06)
(3.9862e-05 -1.19506e-05 7.56449e-06)
(3.10041e-05 -9.45914e-06 7.01556e-06)
(3.94932e-05 -1.06387e-05 -7.13609e-07)
(3.12197e-05 -8.44608e-06 -6.99583e-07)
(3.9845e-05 -1.18927e-05 7.19312e-06)
(2.2089e-05 -5.90663e-06 -1.6822e-06)
(3.00461e-05 -7.97915e-06 -1.79601e-06)
(3.96758e-05 -1.0468e-05 -2.19644e-06)
(3.13918e-05 -8.28815e-06 -2.14205e-06)
(3.94852e-05 -1.04665e-05 -1.85038e-06)
(3.12136e-05 -8.28442e-06 -1.80665e-06)
(1.56275e-10 1.98054e-10 -2.55042e-12)
(1.53543e-10 1.95166e-10 5.41338e-13)
(5.15563e-11 1.85898e-10 -1.66505e-14)
(4.94493e-05 -1.45242e-05 7.22842e-06)
(4.08563e-05 -1.0957e-05 -1.03271e-06)
(4.05358e-05 -1.20536e-05 7.01425e-06)
(4.94425e-05 -1.32449e-05 -1.24109e-06)
(4.92508e-05 -1.45396e-05 7.69118e-06)
(4.04548e-05 -1.21135e-05 7.56953e-06)
(4.93618e-05 -1.452e-05 7.35837e-06)
(4.06812e-05 -1.09564e-05 -7.14249e-07)
(4.04379e-05 -1.20553e-05 7.1981e-06)
(4.93487e-05 -1.32446e-05 -1.07276e-06)
(4.06731e-05 -1.07832e-05 -1.85312e-06)
(4.93482e-05 -1.31606e-05 -1.62327e-06)
(1.96694e-11 -8.666e-12 1.13574e-11)
(2.37336e-10 -7.10669e-12 1.07531e-10)
(8.56117e-11 -9.86303e-11 3.43882e-11)
(4.20099e-10 5.31535e-10 5.21245e-11)
(2.6184e-11 4.58388e-11 4.02037e-11)
(1.33915e-11 6.74682e-11 4.38177e-11)
(3.40362e-11 1.64823e-10 1.07836e-10)
(1.1346e-10 6.27589e-10 2.18053e-10)
(1.63707e-11 3.31701e-11 3.25444e-11)
(1.01886e-10 1.39582e-10 8.87004e-11)
(2.03423e-12 -1.29586e-12 8.96665e-12)
(2.00187e-12 -2.53089e-12 1.99707e-11)
(2.07297e-12 -8.05193e-13 8.0961e-12)
(-8.75008e-13 -7.06325e-14 -1.06959e-12)
(5.45897e-14 -1.39459e-14 1.22866e-11)
(-9.62204e-13 -1.29675e-14 -1.31697e-12)
(8.30068e-12 -8.86024e-12 3.26492e-12)
(2.83613e-11 -8.85806e-10 2.10218e-11)
(1.71781e-10 -3.31654e-10 1.06743e-11)
(3.80186e-10 3.97342e-10 -1.84819e-11)
(6.22352e-11 1.5678e-10 -1.30744e-11)
(2.22442e-10 9.03379e-10 -2.99916e-11)
(7.39775e-11 2.25783e-10 -1.29388e-11)
(3.85847e-10 4.20468e-10 -2.20166e-11)
(2.31863e-10 8.83946e-10 -2.21924e-11)
(6.25099e-11 1.52867e-10 -1.19666e-11)
(3.49382e-10 3.53866e-10 -6.30933e-12)
(5.54099e-11 1.38313e-10 -4.9417e-12)
(2.32505e-10 8.37092e-10 -1.26433e-11)
(7.23229e-11 2.07933e-10 -5.445e-12)
(3.57466e-10 3.61129e-10 -7.53542e-12)
(2.29591e-10 8.29334e-10 -1.00361e-11)
(5.40684e-11 1.36972e-10 -4.61934e-12)
(2.97969e-10 3.19581e-10 1.08416e-12)
(4.1356e-11 1.27188e-10 -4.0039e-12)
(2.08461e-10 7.92492e-10 -9.3338e-12)
(6.05811e-11 1.93868e-10 -4.95617e-12)
(3.14778e-10 3.29918e-10 -2.32582e-12)
(2.00366e-10 7.79915e-10 -5.81456e-12)
(3.84295e-11 1.25329e-10 -3.70511e-12)
(2.55805e-10 2.75667e-10 1.07855e-10)
(7.12956e-12 1.11446e-10 1.77048e-11)
(1.58286e-10 7.03511e-10 1.09633e-10)
(5.06894e-11 1.58299e-10 4.10654e-11)
(2.17512e-10 2.92674e-10 6.27344e-11)
(1.91761e-10 6.16296e-10 1.97012e-10)
(1.56054e-11 1.05283e-10 2.33758e-11)
(-1.33795e-10 5.24423e-10 7.02647e-11)
(3.03344e-11 4.15545e-11 3.54809e-11)
(1.25659e-11 7.22366e-11 4.46006e-11)
(4.69033e-11 1.72595e-10 1.09547e-10)
(2.75748e-11 6.92612e-10 2.25117e-10)
(3.40089e-11 2.61281e-11 2.70649e-11)
(6.17515e-11 1.30785e-10 7.97599e-11)
(1.05513e-11 -1.17028e-11 5.40834e-11)
(1.16854e-12 -1.14791e-12 6.56999e-11)
(1.58955e-11 1.35487e-11 7.12663e-11)
(1.62971e-10 4.84807e-10 1.33524e-11)
(1.55459e-10 2.53237e-10 -1.349e-11)
(2.62375e-10 1.57115e-10 -1.07205e-11)
(2.30286e-10 9.9103e-10 -2.79617e-11)
(2.08768e-10 1.02884e-09 -1.91243e-11)
(2.13353e-10 4.5566e-10 -8.27926e-12)
(2.50978e-10 1.62789e-10 -1.22467e-11)
(-3.40166e-12 1.87393e-12 -5.46873e-12)
(-3.72009e-12 9.10075e-12 1.55685e-12)
(-1.22059e-11 1.38375e-11 4.80401e-12)
(9.97133e-12 1.74543e-13 3.14754e-11)
(2.72896e-12 -1.73398e-12 1.04643e-11)
(7.72496e-12 -2.21391e-13 2.22074e-11)
(3.77819e-10 4.48367e-10 -1.56666e-11)
(6.38625e-11 2.43312e-10 -1.33923e-11)
(5.86912e-11 1.61236e-10 -1.3685e-11)
(2.18905e-10 9.18977e-10 -3.0387e-11)
(3.83174e-10 4.22097e-10 -2.24492e-11)
(2.02107e-10 9.59923e-10 -2.05739e-11)
(5.60918e-11 1.66111e-10 -1.28654e-11)
(5.09871e-13 -4.47574e-12 6.15478e-11)
(1.42456e-12 -3.93044e-12 3.83257e-11)
(3.03694e-12 -3.96223e-12 5.01701e-11)
(-1.78542e-12 -6.04761e-13 2.5914e-11)
(-1.54633e-12 -4.3817e-13 4.00902e-11)
(-1.23402e-12 -6.97139e-13 4.1022e-11)
(3.52993e-13 -4.08528e-13 1.33232e-11)
(-8.47425e-13 -7.61867e-14 -1.01119e-12)
(-6.23691e-13 -1.50204e-13 -3.88847e-13)
(-1.6052e-12 -3.35382e-13 3.98839e-11)
(-2.18996e-12 -5.99449e-14 2.42767e-11)
(-1.68868e-12 -9.71588e-14 3.95747e-11)
(1.16188e-13 -7.18915e-12 2.71979e-11)
(-1.66541e-11 -8.22964e-11 4.42725e-11)
(-3.28615e-12 -9.42586e-12 4.22801e-11)
(1.47337e-12 -2.6144e-12 1.368e-11)
(5.45866e-12 -5.23662e-12 2.38701e-12)
(-1.30979e-13 -3.50623e-14 2.21462e-14)
(-2.35301e-11 -1.60567e-10 4.38454e-11)
(2.36392e-10 -9.42317e-10 1.03829e-10)
(3.29727e-10 -1.02363e-09 -1.32557e-10)
(2.48007e-10 4.26399e-10 -1.04006e-11)
(2.65931e-10 1.53394e-10 -1.076e-11)
(2.34143e-10 9.75955e-10 -2.82343e-11)
(1.69253e-10 2.35385e-10 -1.29501e-11)
(2.47494e-10 9.5428e-10 -2.18601e-11)
(2.13613e-10 4.56073e-10 -8.95268e-12)
(2.71514e-10 1.48589e-10 -1.10287e-11)
(2.75063e-10 3.95886e-10 -1.02688e-11)
(1.74351e-10 2.21935e-10 -6.93371e-12)
(2.80756e-10 1.34807e-10 -5.4289e-12)
(2.55632e-10 9.08202e-10 -1.21535e-11)
(2.57082e-10 9.17795e-10 -1.48804e-11)
(2.76629e-10 3.89012e-10 -9.57931e-12)
(2.81038e-10 1.36174e-10 -5.93677e-12)
(3.65584e-10 3.69816e-10 -9.91014e-12)
(7.46521e-11 2.13032e-10 -6.9688e-12)
(5.66272e-11 1.3975e-10 -5.49642e-12)
(2.3339e-10 8.39864e-10 -1.20118e-11)
(3.57908e-10 3.61562e-10 -7.95196e-12)
(2.35583e-10 8.49263e-10 -1.49096e-11)
(5.78584e-11 1.41295e-10 -6.06691e-12)
(2.77283e-10 3.81181e-10 -8.83441e-12)
(2.80141e-10 1.33495e-10 -5.00827e-12)
(2.55016e-10 9.05255e-10 -1.27453e-11)
(1.72486e-10 2.16871e-10 -5.51945e-12)
(2.52808e-10 8.97205e-10 -1.02917e-11)
(2.76612e-10 3.88166e-10 -9.34265e-12)
(2.79585e-10 1.32207e-10 -4.85417e-12)
(2.72671e-10 3.66945e-10 -8.68175e-12)
(1.66927e-10 2.09203e-10 -5.32677e-12)
(2.72378e-10 1.25048e-10 -4.70557e-12)
(2.36573e-10 8.6291e-10 -9.0689e-12)
(2.42003e-10 8.73179e-10 -1.05511e-11)
(2.69207e-10 3.5992e-10 -8.35781e-12)
(2.74096e-10 1.26355e-10 -4.59572e-12)
(3.28589e-10 3.38732e-10 -4.12427e-12)
(6.64139e-11 2.00085e-10 -5.21293e-12)
(4.38691e-11 1.28873e-10 -4.16957e-12)
(2.10817e-10 7.95803e-10 -8.54275e-12)
(3.15953e-10 3.30348e-10 -2.8173e-12)
(2.16897e-10 8.05861e-10 -1.0183e-11)
(4.60484e-11 1.30405e-10 -4.12752e-12)
(2.64593e-10 3.49715e-10 -5.29604e-12)
(2.7047e-10 1.2357e-10 -4.51956e-12)
(2.34567e-10 8.59502e-10 -9.79601e-12)
(1.61287e-10 2.03184e-10 -5.06801e-12)
(2.27464e-10 8.4657e-10 -6.35742e-12)
(2.68613e-10 3.58894e-10 -8.08485e-12)
(2.68265e-10 1.21974e-10 -4.20391e-12)
(2.64329e-10 3.11251e-10 4.76473e-11)
(1.48486e-10 1.8871e-10 1.38038e-11)
(2.54376e-10 1.07175e-10 3.43238e-11)
(1.95736e-10 7.66411e-10 9.95558e-11)
(2.00314e-10 7.95375e-10 4.20026e-11)
(2.83632e-10 2.73806e-10 1.41061e-10)
(2.56613e-10 1.10684e-10 1.7546e-11)
(2.38594e-10 2.94581e-10 3.14236e-11)
(4.42207e-11 1.8055e-10 1.06868e-11)
(8.15222e-12 1.13531e-10 1.23144e-11)
(1.57591e-10 7.13523e-10 8.86654e-11)
(2.16843e-10 2.91269e-10 5.79772e-11)
(1.65473e-10 7.3387e-10 3.88228e-11)
(1.34748e-11 1.14999e-10 7.57207e-12)
(3.5999e-10 1.28265e-10 4.50723e-10)
(2.51248e-10 1.01149e-10 6.41683e-11)
(1.97155e-10 7.51525e-10 1.25517e-10)
(1.4568e-10 1.58555e-10 7.16026e-11)
(2.28494e-10 6.36815e-10 2.39773e-10)
(2.88751e-10 2.65104e-10 1.63589e-10)
(2.47541e-10 8.91511e-11 1.18934e-10)
(9.62788e-12 -1.42469e-11 1.33281e-11)
(1.2999e-10 -1.39565e-10 3.84246e-11)
(1.05099e-10 -2.16761e-10 2.42175e-11)
(2.81474e-10 -8.68684e-11 1.11123e-10)
(2.01971e-10 -1.06412e-10 1.15886e-10)
(2.57613e-10 -2.17281e-10 4.34843e-11)
(4.29106e-09 -1.6485e-09 1.13762e-09)
(2.754e-10 -4.26798e-10 4.22835e-11)
(1.52929e-12 1.05895e-11 1.09824e-11)
(-5.59125e-12 1.20649e-11 6.95198e-11)
(2.72349e-11 3.30975e-11 3.89244e-11)
(5.80306e-11 4.98527e-11 3.3386e-11)
(2.30002e-12 4.78747e-11 5.42784e-11)
(4.18258e-12 -3.86129e-12 6.56808e-11)
(1.59053e-10 8.81218e-10 7.32734e-12)
(2.81685e-11 4.46484e-11 4.1551e-11)
(4.18954e-10 5.31732e-10 4.43694e-11)
(4.91925e-11 2.23228e-10 6.92808e-11)
(1.46356e-10 9.36647e-10 1.97187e-11)
(6.7915e-11 1.78142e-10 1.44768e-11)
(1.17669e-10 8.17139e-10 1.14989e-10)
(3.89706e-10 4.95046e-10 1.22768e-11)
(7.61123e-11 1.73185e-10 5.04207e-11)
(1.74977e-10 1.18435e-09 5.41357e-12)
(1.33149e-10 1.01005e-09 7.78493e-11)
(-7.5435e-12 3.04267e-12 7.19647e-11)
(-4.9154e-12 -9.80283e-12 6.03944e-11)
(3.47562e-11 3.95962e-11 5.95425e-11)
(4.40211e-11 5.39726e-11 4.50248e-12)
(4.81731e-11 5.68943e-11 2.21316e-11)
(9.70592e-12 -1.10433e-12 1.29967e-11)
(9.59472e-12 -7.13213e-13 1.27995e-11)
(4.9986e-13 -1.00044e-12 5.87227e-12)
(4.3016e-13 -4.81656e-13 5.37169e-12)
(2.29883e-12 -2.63244e-12 1.89322e-11)
(1.20795e-13 -3.61824e-13 1.22645e-12)
(1.40341e-12 -1.07709e-12 5.64033e-12)
(-1.12534e-12 -3.1869e-13 2.05434e-13)
(-1.13485e-13 -6.51085e-13 3.70017e-12)
(8.35717e-12 -9.12174e-14 1.22438e-11)
(8.37386e-12 7.94314e-15 1.22336e-11)
(-1.95928e-12 -4.20454e-14 -1.87592e-12)
(-2.03185e-12 -2.14348e-14 -2.07911e-12)
(5.80367e-14 -1.79165e-14 1.22865e-11)
(-9.31978e-13 5.60534e-14 -1.2227e-12)
(-9.55432e-13 -1.06653e-14 -1.30047e-12)
(-2.01834e-12 3.27755e-14 -2.0166e-12)
(-2.02635e-12 3.28521e-15 -2.06466e-12)
(8.14838e-07 -4.06768e-07 1.33748e-06)
(6.1923e-10 6.81293e-10 1.02913e-10)
(6.91381e-07 -3.58637e-07 1.1817e-06)
(8.10842e-10 8.50603e-10 1.64899e-10)
(1.91761e-06 -2.65768e-07 -1.94336e-06)
(7.35132e-07 -6.62213e-09 -1.07773e-06)
(3.71849e-12 -3.97144e-12 2.02308e-12)
(1.18856e-10 -2.01592e-10 4.2866e-12)
(-8.88365e-11 -1.28293e-09 -1.41499e-10)
(3.88281e-07 -7.30099e-08 -3.08709e-07)
(1.22852e-08 1.08029e-08 -3.91714e-08)
(5.72754e-07 4.96586e-09 -8.46177e-07)
(1.89693e-10 -8.17508e-10 -2.55545e-11)
(1.8801e-06 -2.8854e-07 -1.74421e-06)
(6.35402e-07 -1.42661e-07 -4.08312e-07)
(6.97435e-07 -1.6779e-08 -9.63996e-07)
(1.66128e-08 1.45959e-08 -4.58121e-08)
(6.09692e-07 1.26905e-08 -9.47089e-07)
(1.55455e-10 -5.0861e-10 -1.5731e-11)
(3.85732e-11 4.55453e-11 -5.73452e-12)
(3.73603e-11 4.32055e-11 -5.65287e-12)
(2.54736e-10 1.15921e-09 -2.45428e-11)
(2.65191e-10 1.14255e-09 -1.96224e-11)
(3.79577e-10 3.95553e-10 -1.78397e-11)
(7.4942e-11 2.22832e-10 -1.14551e-11)
(2.36245e-10 8.669e-10 -1.95986e-11)
(6.07603e-11 1.4717e-10 -9.13315e-12)
(2.33724e-10 8.82257e-10 -2.28648e-11)
(3.73649e-10 3.81957e-10 -1.44542e-11)
(6.13389e-11 1.49703e-10 -1.04829e-11)
(2.69471e-10 1.12116e-09 -1.85366e-11)
(2.67397e-10 1.14202e-09 -1.99855e-11)
(3.57653e-11 4.10126e-11 -4.07219e-12)
(3.7417e-11 4.25073e-11 -4.62371e-12)
(1.013e-05 -3.47233e-06 5.19892e-06)
(9.70556e-06 -3.34195e-06 5.11031e-06)
(1.32512e-05 -3.14817e-06 -4.7974e-06)
(1.00891e-05 -2.34887e-06 -4.32199e-06)
(6.85595e-06 -1.57501e-06 -3.30521e-06)
(9.36755e-06 -2.53961e-06 -1.49737e-06)
(9.63449e-06 -2.29043e-06 -3.81627e-06)
(6.88722e-06 -1.53252e-06 -3.6789e-06)
(9.66329e-06 -2.24075e-06 -4.24751e-06)
(1.32252e-05 -3.20588e-06 -4.31053e-06)
(1.02245e-05 -2.76844e-06 -1.54903e-06)
(1.00606e-05 -2.39957e-06 -3.88322e-06)
(3.17744e-11 3.80824e-11 -1.7489e-12)
(3.00655e-11 3.74035e-11 -2.02758e-12)
(2.65139e-10 1.08407e-09 -1.10523e-11)
(2.61919e-10 1.07496e-09 -9.52612e-12)
(3.48783e-10 3.53489e-10 -5.99721e-12)
(7.13596e-11 2.06462e-10 -5.19846e-12)
(2.2469e-10 8.19382e-10 -9.39942e-12)
(5.12233e-11 1.34445e-10 -4.24754e-12)
(2.28435e-10 8.2724e-10 -1.09891e-11)
(3.402e-10 3.46712e-10 -5.33011e-12)
(5.26774e-11 1.35707e-10 -4.31709e-12)
(2.56577e-10 1.06238e-09 -8.77205e-12)
(2.6068e-10 1.0722e-09 -9.46003e-12)
(2.79937e-11 3.65894e-11 -1.83306e-12)
(2.97743e-11 3.71976e-11 -1.41078e-12)
(2.64708e-05 -8.22012e-06 7.053e-06)
(2.59031e-05 -8.0608e-06 7.02118e-06)
(3.05068e-05 -7.48656e-06 -6.0516e-06)
(2.64699e-05 -6.46415e-06 -5.89126e-06)
(2.19708e-05 -5.41272e-06 -5.06441e-06)
(2.56091e-05 -6.78554e-06 -2.06333e-06)
(2.58822e-05 -6.39995e-06 -5.26908e-06)
(2.19917e-05 -5.33924e-06 -5.63606e-06)
(2.59011e-05 -6.32084e-06 -5.86375e-06)
(3.04898e-05 -7.57121e-06 -5.43792e-06)
(2.67506e-05 -7.08144e-06 -2.08222e-06)
(2.64512e-05 -6.54401e-06 -5.29381e-06)
(2.20504e-11 3.47061e-11 -1.02152e-12)
(1.8708e-11 3.39622e-11 -1.16271e-12)
(2.38904e-10 1.02787e-09 -6.54464e-12)
(2.30005e-10 1.01203e-09 -3.08303e-12)
(2.96273e-10 3.19033e-10 2.02744e-12)
(5.80082e-11 1.91368e-10 -4.19544e-12)
(1.86507e-10 7.60386e-10 3.45203e-12)
(3.09096e-11 1.21144e-10 -1.77493e-12)
(1.97222e-10 7.75743e-10 -5.54167e-12)
(2.73377e-10 3.06676e-10 1.01338e-11)
(3.50244e-11 1.2331e-10 -2.95909e-12)
(2.14525e-10 9.86472e-10 8.22245e-12)
(2.26548e-10 1.00625e-09 -1.41801e-12)
(1.32971e-11 3.29361e-11 -4.22837e-14)
(1.79147e-11 3.37262e-11 -4.45216e-13)
(4.52627e-05 -1.34137e-05 7.46502e-06)
(4.46706e-05 -1.32514e-05 7.46409e-06)
(4.94592e-05 -1.24788e-05 -6.25911e-06)
(4.52829e-05 -1.13469e-05 -6.27331e-06)
(4.05243e-05 -1.01765e-05 -5.61374e-06)
(4.44288e-05 -1.1739e-05 -2.20713e-06)
(4.46773e-05 -1.12821e-05 -5.63569e-06)
(4.05383e-05 -1.0084e-05 -6.24719e-06)
(4.46905e-05 -1.1188e-05 -6.27154e-06)
(4.94506e-05 -1.25712e-05 -5.64542e-06)
(4.56159e-05 -1.20591e-05 -2.20815e-06)
(4.52699e-05 -1.14411e-05 -5.6373e-06)
(-8.22143e-12 2.98811e-11 4.76974e-12)
(2.32883e-12 2.61362e-11 5.27784e-12)
(1.75836e-10 9.12507e-10 1.38141e-10)
(2.0762e-10 8.12112e-10 2.37075e-10)
(2.65546e-10 2.635e-10 1.18499e-10)
(4.178e-11 7.02187e-11 3.39458e-11)
(2.22219e-10 5.59737e-10 2.33827e-10)
(9.3813e-12 4.21378e-11 7.43728e-12)
(2.42032e-10 7.45737e-10 2.69837e-10)
(1.37625e-11 2.47689e-11 5.20929e-12)
(1.31833e-11 5.73194e-12 9.21735e-12)
(9.74024e-11 -8.3371e-11 3.60695e-11)
(3.4819e-11 1.03477e-11 2.12937e-11)
(4.2145e-11 4.43296e-11 3.28116e-11)
(2.27481e-11 5.03075e-11 5.62604e-11)
(5.07654e-11 1.21565e-11 6.63751e-11)
(-4.51435e-11 9.82496e-10 1.33522e-11)
(2.23116e-11 3.51688e-11 3.45048e-11)
(-1.39145e-10 5.65833e-10 6.36896e-11)
(8.22811e-11 2.35416e-10 7.24479e-11)
(1.18776e-10 1.0236e-09 2.27112e-11)
(1.86637e-10 1.7996e-10 2.27219e-11)
(5.79156e-11 8.92666e-10 1.19972e-10)
(9.27214e-12 5.76466e-10 4.17434e-11)
(1.3243e-10 1.74568e-10 4.4468e-11)
(8.68065e-11 1.30662e-09 9.19193e-12)
(2.49415e-11 1.12124e-09 8.32962e-11)
(1.76337e-10 -1.20134e-10 4.33209e-11)
(8.86992e-11 7.6075e-12 6.35554e-11)
(3.55926e-11 1.73064e-11 3.71157e-11)
(1.30317e-10 4.84828e-11 1.62214e-11)
(7.13776e-11 4.94767e-11 2.38612e-11)
(1.68979e-11 2.71914e-11 2.60197e-11)
(4.50837e-09 -1.1022e-09 1.46677e-09)
(4.74648e-11 2.94693e-11 3.55167e-11)
(2.63017e-11 2.61013e-12 5.01748e-11)
(4.9266e-11 1.49448e-11 6.51784e-11)
(3.08949e-11 2.23699e-11 6.69503e-11)
(-1.56708e-13 -7.01552e-13 7.02172e-11)
(2.61686e-11 2.38998e-11 6.3457e-11)
(2.17511e-11 2.23602e-11 7.54303e-11)
(8.68951e-11 1.57672e-11 6.54881e-11)
(1.13586e-10 8.5087e-11 4.96176e-11)
(4.77256e-11 3.45797e-11 6.81452e-11)
(1.41074e-10 5.00321e-10 1.75757e-11)
(1.3888e-10 2.58306e-10 -7.5076e-12)
(1.35457e-10 1.01876e-09 8.09523e-12)
(2.00787e-10 1.8378e-10 5.86981e-12)
(3.46264e-12 5.90785e-10 3.85054e-11)
(1.92822e-10 1.02565e-09 -1.17366e-11)
(2.25892e-10 1.73688e-10 -7.64052e-12)
(1.74624e-10 4.45156e-11 -2.76229e-12)
(1.60767e-10 4.7042e-11 -2.99807e-12)
(2.08095e-10 1.27726e-09 -2.32754e-11)
(1.87285e-10 1.33062e-09 -1.31901e-11)
(1.08749e-10 1.29421e-09 3.2142e-12)
(1.71645e-10 1.32183e-09 -6.43084e-12)
(1.33165e-10 5.19075e-11 1.14207e-11)
(1.55468e-10 4.88843e-11 -1.98639e-12)
(-6.9591e-12 2.82991e-12 -5.72685e-13)
(-1.47395e-11 1.06993e-11 5.91464e-11)
(-1.75633e-11 1.35938e-11 1.57287e-11)
(2.18561e-13 8.49234e-12 -2.71046e-12)
(-9.52799e-12 1.64797e-11 1.22613e-11)
(-1.30124e-11 2.62801e-12 6.17755e-11)
(3.41321e-11 1.29336e-11 5.25872e-12)
(-1.30813e-11 1.33428e-11 2.21157e-11)
(-3.56447e-12 -3.66779e-12 3.7432e-11)
(-2.42944e-12 -2.09145e-12 5.01778e-11)
(6.45741e-12 6.49531e-12 2.41595e-11)
(1.15289e-12 -1.4131e-12 7.2954e-12)
(5.05644e-12 3.72501e-13 1.67464e-11)
(-6.3764e-12 -6.14124e-12 4.30545e-11)
(3.90186e-12 5.77627e-12 1.6333e-11)
(4.52134e-11 3.79354e-12 2.71488e-12)
(3.79506e-10 4.53035e-10 -1.36828e-11)
(5.91951e-11 2.46095e-10 -6.29261e-12)
(1.57875e-10 9.34831e-10 6.18529e-12)
(6.42644e-11 1.75904e-10 1.10697e-13)
(3.93658e-10 4.9373e-10 7.38762e-12)
(1.92905e-10 9.54569e-10 -1.20649e-11)
(5.94434e-11 1.71546e-10 -8.891e-12)
(3.79101e-11 4.63526e-11 -6.37601e-12)
(3.94294e-11 4.89619e-11 -5.64233e-12)
(2.51511e-10 1.18346e-09 -2.63722e-11)
(2.37085e-10 1.2472e-09 -1.62985e-11)
(1.87761e-10 1.17642e-09 3.0473e-13)
(2.26795e-10 1.23285e-09 -8.70466e-12)
(4.43788e-11 5.37336e-11 1.48555e-12)
(3.93093e-11 5.0275e-11 -5.40657e-12)
(-7.7184e-13 -5.01232e-12 6.60357e-11)
(6.946e-12 -2.53169e-12 3.32517e-11)
(1.80496e-12 -4.18739e-12 5.08957e-11)
(7.58384e-13 -3.91585e-12 3.39171e-11)
(-1.30376e-13 -1.71066e-12 4.37423e-11)
(2.01765e-12 -3.46012e-12 4.82174e-11)
(7.1587e-12 -1.40257e-12 3.24729e-11)
(-8.19767e-13 -1.50196e-12 4.65525e-11)
(1.22861e-12 -2.87881e-12 4.95545e-11)
(8.57792e-12 -1.60107e-14 1.24217e-11)
(8.63094e-12 -1.1079e-13 1.24283e-11)
(-1.67082e-12 -6.86581e-13 2.63723e-11)
(-4.05538e-13 -1.32093e-12 4.30082e-11)
(-1.06519e-12 -8.10749e-13 4.14232e-11)
(-2.44262e-12 -3.95441e-13 4.36537e-11)
(5.97524e-12 -1.95877e-13 3.15924e-11)
(-2.13289e-12 -6.18837e-13 4.44448e-11)
(-1.17667e-12 -1.16068e-12 4.59652e-11)
(6.08012e-12 -1.87346e-13 3.16436e-11)
(-1.94163e-12 -6.84862e-13 4.47482e-11)
(3.43763e-13 -4.16878e-13 1.34477e-11)
(-5.8934e-14 -3.07785e-13 8.95034e-13)
(-5.55305e-13 -1.58647e-13 -2.35338e-13)
(-1.92903e-12 -6.99634e-14 -1.8093e-12)
(-1.74899e-12 -1.04898e-13 -1.29868e-12)
(-1.29055e-12 -2.45909e-13 -1.61454e-13)
(-1.68148e-12 -1.34075e-13 -1.14531e-12)
(-2.49859e-12 -3.30709e-13 4.34692e-11)
(5.69262e-12 -8.0462e-14 3.10991e-11)
(-2.5664e-12 -8.34642e-14 4.31954e-11)
(-2.18949e-12 -1.25884e-14 2.42703e-11)
(-1.61133e-12 -4.06876e-14 3.99271e-11)
(-1.68962e-12 -1.25544e-14 3.95862e-11)
(5.73974e-12 -6.70301e-14 3.10746e-11)
(-2.4874e-12 -5.13455e-14 4.35182e-11)
(-2.56285e-12 -3.47534e-14 4.32112e-11)
(8.50723e-12 2.5985e-13 1.20117e-11)
(8.65877e-12 -7.07868e-14 1.20269e-11)
(-8.55016e-13 -3.19683e-12 2.63551e-11)
(-1.5836e-12 -2.35051e-13 4.01796e-11)
(-2.21265e-12 -4.37392e-12 4.15556e-11)
(-2.70507e-11 -6.60773e-11 4.65314e-11)
(4.56424e-12 4.96915e-13 3.11728e-11)
(-5.41605e-12 -7.90748e-12 4.56173e-11)
(-2.48172e-12 -2.57188e-13 4.37307e-11)
(5.50401e-12 -2.94464e-13 3.11233e-11)
(-3.6519e-12 -3.73244e-12 4.49712e-11)
(1.14087e-12 -1.57513e-12 1.35283e-11)
(-8.65428e-13 5.74678e-14 -1.07458e-12)
(-4.14766e-13 3.99694e-14 -3.77129e-13)
(1.91008e-12 -2.2333e-12 1.1296e-12)
(-1.45203e-12 8.90696e-14 -9.34952e-13)
(-1.96075e-12 5.77457e-14 -1.88436e-12)
(-1.67149e-12 9.32122e-14 -1.31691e-12)
(1.6913e-06 -6.467e-07 9.65785e-07)
(7.84111e-07 -3.89414e-07 1.24186e-06)
(6.65293e-07 -3.03488e-07 5.67457e-07)
(-3.91481e-11 -1.25638e-10 4.47471e-11)
(8.34078e-10 1.06985e-09 1.76732e-11)
(4.69593e-10 -8.40831e-10 -2.33008e-10)
(4.41204e-10 -2.14359e-09 1.98718e-10)
(3.71249e-07 -1.02756e-07 -1.52738e-07)
(3.4323e-09 -5.67e-09 3.02054e-08)
(3.87654e-07 -1.84912e-07 2.74188e-07)
(1.4512e-09 -6.28543e-10 -1.7686e-10)
(1.66197e-06 -6.07166e-07 6.30471e-07)
(6.16318e-07 -1.77834e-07 -2.03774e-07)
(6.35179e-07 -2.72341e-07 3.66429e-07)
(6.60299e-07 -3.41569e-07 1.09399e-06)
(1.75318e-09 4.60782e-09 1.70578e-09)
(8.80697e-09 -7.93335e-09 4.62218e-08)
(4.15484e-07 -2.13891e-07 4.2549e-07)
(1.89909e-09 5.99798e-10 -1.38055e-10)
(8.05172e-07 -4.43191e-07 1.37512e-06)
(6.82507e-07 -3.96047e-07 1.21707e-06)
(1.63995e-06 -6.91354e-07 1.10599e-06)
(7.69543e-07 -4.41088e-07 1.29828e-06)
(6.27779e-07 -3.55334e-07 6.68433e-07)
(3.42628e-07 -8.76866e-08 -9.72145e-08)
(-2.61942e-09 -2.8872e-08 4.58901e-08)
(3.56572e-07 -2.23119e-07 3.58673e-07)
(1.60706e-06 -6.38111e-07 7.7134e-07)
(5.78824e-07 -1.63093e-07 -1.29011e-07)
(5.9542e-07 -3.08329e-07 4.6535e-07)
(6.46823e-07 -3.95397e-07 1.14726e-06)
(4.42093e-09 -4.17462e-08 6.54584e-08)
(3.86377e-07 -2.68068e-07 5.15027e-07)
(3.97401e-06 -1.51317e-06 3.41576e-06)
(4.26727e-06 -1.61072e-06 3.53721e-06)
(2.12251e-06 -7.85028e-07 1.09063e-06)
(3.95286e-06 -1.48885e-06 3.20466e-06)
(3.66697e-06 -1.26815e-06 1.44193e-06)
(4.21466e-06 -1.21385e-06 -5.17454e-07)
(6.2401e-06 -1.98634e-06 1.22913e-06)
(4.23633e-06 -1.39414e-06 1.02289e-06)
(2.09408e-06 -7.42438e-07 7.13887e-07)
(3.61952e-06 -1.04575e-06 -4.83954e-07)
(3.64138e-06 -1.2155e-06 9.49308e-07)
(4.24674e-06 -1.58582e-06 3.31918e-06)
(6.26204e-06 -2.05363e-06 1.85816e-06)
(4.26099e-06 -1.45036e-06 1.5515e-06)
(3.9541e-06 -1.54207e-06 3.48779e-06)
(4.24656e-06 -1.63912e-06 3.61121e-06)
(2.06742e-06 -8.2822e-07 1.24366e-06)
(3.92284e-06 -1.52969e-06 3.31047e-06)
(3.60035e-06 -1.30718e-06 1.6308e-06)
(4.14177e-06 -1.20385e-06 -3.45388e-07)
(6.15264e-06 -2.00966e-06 1.46136e-06)
(4.16137e-06 -1.42023e-06 1.22481e-06)
(2.03515e-06 -7.72362e-07 8.67957e-07)
(3.5503e-06 -1.03541e-06 -3.21886e-07)
(3.57049e-06 -1.24253e-06 1.14005e-06)
(4.21557e-06 -1.62596e-06 3.4279e-06)
(6.17904e-06 -2.08733e-06 2.08754e-06)
(4.19037e-06 -1.48805e-06 1.7513e-06)
(1.88173e-06 -2.18503e-07 -1.8757e-06)
(7.14208e-07 4.62174e-08 -1.04778e-06)
(3.56564e-07 -4.57458e-08 -2.52375e-07)
(1.48031e-08 2.92091e-08 -4.52326e-08)
(5.57668e-07 4.26121e-08 -8.25881e-07)
(1.85103e-06 -2.55964e-07 -1.68952e-06)
(5.93178e-07 -1.14874e-07 -3.30656e-07)
(6.80118e-07 1.99816e-08 -9.38609e-07)
(1.98325e-08 3.77916e-08 -5.10586e-08)
(5.91425e-07 6.67286e-08 -9.23491e-07)
(2.13032e-06 -3.17916e-07 -2.05972e-06)
(3.91139e-06 -7.68822e-07 -2.82376e-06)
(4.23122e-06 -1.14525e-06 -1.06707e-06)
(6.49019e-06 -1.48034e-06 -3.22607e-06)
(4.1715e-06 -8.78227e-07 -2.62823e-06)
(2.09314e-06 -3.42102e-07 -1.84901e-06)
(3.63652e-06 -9.80828e-07 -9.95245e-07)
(3.87681e-06 -8.01635e-07 -2.5365e-06)
(6.52182e-06 -1.4389e-06 -3.59085e-06)
(4.2057e-06 -8.44295e-07 -2.92578e-06)
(2.09268e-06 -2.71346e-07 -1.98756e-06)
(3.86303e-06 -7.2707e-07 -2.72421e-06)
(4.14956e-06 -1.12509e-06 -8.817e-07)
(6.4435e-06 -1.45544e-06 -3.12695e-06)
(4.13182e-06 -8.49982e-07 -2.54591e-06)
(2.06273e-06 -3.1002e-07 -1.79081e-06)