/*--------------------------------*- C++ -*----------------------------------*\
| =========                 |                                                 |
| \\      /  F ield         | OpenFOAM: The Open Source CFD Toolbox           |
|  \\    /   O peration     | Version:  2012                                  |
|   \\  /    A nd           | Website:  www.openfoam.com                      |
|    \\/     M anipulation  |                                                 |
\*---------------------------------------------------------------------------*/
FoamFile
{
    version     2.0;
    format      ascii;
    class       volSymmTensorField;
    location    "0.108/solid";
    object      epsilon;
}
// * * * * * * * * * * * * * * * * * * * * * * * * * * * * * * * * * * * * * //

dimensions      [0 0 0 0 0 0 0];


internalField   nonuniform List<symmTensor> 
24998
(
(-0.000705525 0.0011753 0.00136062 -0.000221535 -0.00024804 9.19977e-05)
(-1.25853e-05 -0.000180924 -0.000133729 -0.000413704 -0.000426249 -0.000684596)
(0.000250128 3.4912e-05 -0.00107315 -0.000140812 0.000177448 -0.00273807)
(-0.000109132 -1.20233e-05 -0.000275766 1.22056e-05 5.88119e-05 -0.00310045)
(-1.2458e-05 -1.97053e-05 -0.000141317 2.44298e-05 9.25258e-05 -0.000969791)
(-0.00012552 -0.00286822 0.000115956 -0.000192483 3.39394e-05 -0.00023026)
(-3.61071e-05 -0.00103167 4.72912e-05 -0.000316146 0.000149001 -9.27011e-06)
(7.80209e-05 -0.000439899 2.57842e-05 0.000254357 4.47997e-05 -7.69917e-06)
(9.29061e-05 -0.000188241 7.19055e-06 0.000381944 0.000104775 4.88733e-05)
(-0.000951536 0.00178982 0.00207019 -0.000853406 -0.000841917 -0.000225703)
(-0.000451408 3.71851e-05 -0.000238802 -0.000277673 0.000176908 -0.000191893)
(0.000327669 -0.0027797 2.50246e-05 0.000559368 0.000287077 -0.000328551)
(1.02163e-05 -0.000168277 -0.000147066 -0.000367008 -0.000455809 -0.000747465)
(0.000270638 5.59761e-05 -0.00116077 -0.00019508 0.000289374 -0.00282233)
(4.37796e-06 -0.00270979 -0.000150293 -0.000352164 0.000318447 -0.00029153)
(-0.000508147 9.84602e-05 -0.000168286 -0.000149199 2.32774e-05 -0.000158991)
(-0.000177957 -2.02181e-05 -0.000289616 1.23567e-05 3.06821e-05 -0.00325623)
(-0.000117821 -1.53306e-05 -0.000276122 1.03615e-05 5.02745e-05 -0.00314288)
(-0.000164533 -2.12787e-05 -0.000288674 1.03334e-05 4.02413e-05 -0.00316762)
(-2.96127e-05 -2.15978e-05 -0.000127078 2.60505e-05 4.77843e-05 -0.00102757)
(-1.7467e-05 -1.6813e-05 -0.000140075 1.40894e-05 7.88813e-05 -0.00100391)
(-2.68394e-05 -3.55049e-05 -0.000127053 5.4366e-05 6.7232e-05 -0.00097047)
(8.10972e-07 -0.00281886 0.000249145 0.000867225 -7.45506e-05 -0.000215629)
(5.74807e-05 -0.00113718 5.06044e-05 -0.000249722 0.000171411 -4.60368e-07)
(-7.19816e-05 -0.00113933 5.27528e-05 -0.000451376 0.000152768 5.36197e-06)
(8.62677e-05 -0.00105079 5.04044e-05 -0.000132795 0.000164171 -1.41666e-05)
(0.0001318 -0.000556797 3.25799e-05 0.000312276 5.88567e-05 -1.11085e-05)
(7.19862e-05 -0.000491926 2.89338e-05 0.000220064 5.22498e-05 -1.03382e-05)
(0.000131845 -0.000506349 2.89809e-05 0.000337663 5.08822e-05 -8.45913e-06)
(0.000120384 -0.000274624 1.40182e-05 0.000424333 8.10005e-05 3.20378e-05)
(9.33594e-05 -0.000208791 8.9564e-06 0.000382163 7.69476e-05 3.12298e-05)
(0.000117282 -0.00025289 1.27228e-05 0.000419239 0.000109541 5.10326e-05)
(-0.000216565 0.00508073 0.0033815 -0.0116886 -0.00408734 0.00252858)
(-0.123341 0.0264761 0.187609 0.021721 -0.0571667 0.0119924)
(-2.60493e-05 -7.15741e-06 -6.35976e-05 -0.000184835 -0.000410049 -0.000731761)
(-0.000629724 -4.28166e-05 0.00256548 0.00135693 -0.00197183 -0.00905479)
(-0.0013331 0.00162186 -0.000947344 0.000198346 0.0002213 7.96537e-05)
(-4.73034e-05 4.23941e-05 0.000250742 -0.000112239 -0.000257638 -0.00247275)
(-0.0143123 -0.00571572 0.0336737 0.00152497 0.00218073 -0.0216478)
(-0.00113793 0.000114582 0.00748994 -0.000205544 0.00164385 -0.0176221)
(-0.000136024 -1.65662e-07 -0.000146973 -1.16174e-05 1.57416e-06 -0.0026162)
(-0.000640713 -2.49381e-05 0.00278926 1.65799e-05 0.000372882 -0.00624291)
(-0.000249093 6.68466e-06 0.000723279 -2.04976e-05 0.00017549 -0.00198857)
(-5.34198e-05 -1.74326e-05 -0.000208456 -5.36088e-06 8.70023e-05 -0.00193323)
(0.000144666 -0.000152227 2.01569e-05 6.87601e-05 6.54556e-05 -0.000449838)
(-7.12753e-05 1.58903e-05 0.000192308 9.67828e-06 8.69695e-05 -0.000595556)
(-2.1873e-06 -0.00117634 -0.00152838 -0.000122506 -0.0016091 -0.00227026)
(0.000366852 -0.000801247 -4.08926e-05 -0.00495326 0.00214426 0.00799069)
(0.00143671 0.000445166 0.00230994 -0.000710237 0.00190297 -0.000966661)
(-0.000277824 -0.00193345 0.000198765 -0.000753872 -5.40829e-05 9.4625e-05)
(2.26997e-06 -0.000102819 7.65566e-05 -8.73818e-05 -0.000236072 0.00073435)
(0.000263931 -0.000316886 0.000188337 -7.41788e-05 -0.000497685 -8.74445e-06)
(0.00160789 0.000187326 -0.000349736 0.00100402 -0.000257594 -0.00388465)
(0.000951028 8.09168e-05 -0.00080166 0.000231534 -0.000463792 -0.00156236)
(3.1026e-05 -0.000762589 4.10334e-05 -3.59283e-06 0.000103412 -1.96523e-05)
(-9.09813e-06 8.5072e-05 -0.000159277 0.000128502 0.000384457 0.000777949)
(-0.000104139 6.01163e-05 -9.42748e-05 3.38742e-06 0.000206274 0.000996004)
(0.000346783 2.72778e-05 -0.000644349 -0.000405584 -0.000225196 0.000539134)
(0.000169338 1.88031e-06 -0.000434518 -0.000375158 -5.94865e-05 0.000891417)
(9.00596e-05 -0.000316292 1.76483e-05 0.00032726 3.60216e-05 1.50399e-06)
(0.000216484 3.23715e-05 -9.39603e-05 0.000271481 -9.70721e-06 0.000352855)
(0.000162492 4.92752e-05 -0.000123644 0.000255421 0.000304433 0.000393671)
(0.000140179 -2.31855e-05 -0.000199584 -3.74305e-05 2.91731e-05 0.000536596)
(0.000182379 -0.000181655 -6.31789e-06 0.000193284 1.56083e-05 0.000223896)
(-0.000645916 0.00459478 0.00293419 -0.0083888 -0.00290752 0.00180208)
(-0.00114732 -6.38767e-05 0.00250574 0.00152354 -0.00189359 -0.00922569)
(-0.00137664 0.00319325 -0.00147097 -0.000822999 0.000589393 4.82402e-05)
(-0.0679137 0.0165303 0.113811 0.00872985 -0.0303492 0.00540744)
(-0.0174802 -0.00396439 0.0380019 0.00276835 -0.00248985 -0.0168587)
(-0.10824 0.00965989 0.180177 -0.0148929 -0.0596541 0.0206391)
(-0.00137379 -0.000370269 0.00235008 0.00139938 -0.000834152 -0.0115117)
(-0.016197 -0.00229115 0.013263 -0.000239957 -0.000923727 -0.0120142)
(-0.070615 0.0109138 0.115823 -0.00232246 -0.0325097 0.00967365)
(-0.000282887 0.00107453 -0.0014108 -0.00119126 0.000551192 -9.86377e-05)
(-1.32816e-06 -2.42139e-05 -6.00923e-05 -0.000151794 -0.000479904 -0.000963937)
(-1.02863e-07 5.31061e-05 0.000254429 -0.000149254 -0.000233854 -0.00231186)
(-0.000514595 -0.000247513 0.00245832 0.000735801 -0.00117174 -0.011502)
(-2.07497e-05 1.236e-05 0.000408743 -0.000196791 -0.000509427 -0.00275237)
(1.09441e-05 3.06951e-05 0.000327206 -0.000291219 -0.000432178 -0.00227554)
(-0.000681357 0.000259351 -0.000955935 -0.000612805 0.000298995 6.20363e-05)
(-0.0108208 -0.00446455 0.00952029 0.000142912 0.00028128 -0.019328)
(-0.000328971 -4.293e-05 -0.000118043 -5.06447e-06 -1.10513e-05 -0.00243005)
(-0.0022184 -0.000219026 0.00541235 -0.000155982 0.000872403 -0.0161217)
(-0.000694301 -2.38977e-05 0.00295654 -5.46375e-06 0.000388591 -0.00658769)
(-0.0010077 5.77581e-05 0.00704782 -0.000130446 0.00137365 -0.0158901)
(-0.000294827 -4.28354e-05 -0.000143653 -8.54128e-06 -1.25013e-05 -0.00263278)
(-0.0010206 -7.91704e-05 0.00178754 -4.44562e-07 0.000177648 -0.00618885)
(-0.00199263 -0.000221397 0.00446038 -0.000178538 0.000640388 -0.0130902)
(-0.000148321 1.1427e-06 -0.000147092 -1.01316e-05 -1.02698e-05 -0.00265192)
(-0.00092381 -7.63396e-05 0.0015787 8.09236e-06 0.000188489 -0.00560212)
(-7.71109e-05 -1.66175e-05 -0.000210053 -4.04119e-06 5.09489e-05 -0.00200705)
(-0.000331126 -1.26169e-05 0.0004871 -2.09525e-05 9.61963e-05 -0.00209089)
(-8.34651e-05 1.51057e-05 0.000201785 4.25475e-06 8.30342e-05 -0.000638484)
(-0.000219647 2.40906e-06 0.000665927 -1.03938e-05 0.000160044 -0.00185382)
(-6.83446e-05 -1.50047e-05 -0.00019619 -4.41092e-06 4.78349e-05 -0.00184398)
(-0.000108286 1.67126e-05 0.000151793 1.50795e-05 5.32378e-05 -0.000723322)
(-0.000288008 -8.0066e-06 0.000415416 -1.73225e-05 8.39942e-05 -0.00182354)
(-4.25414e-05 -1.50729e-05 -0.000203376 -8.62996e-07 8.46516e-05 -0.00185824)
(0.000127172 -8.84343e-05 3.3347e-05 0.000144152 0.000203785 -0.000588729)
(-9.01212e-05 3.12985e-05 0.000142422 3.06097e-05 6.47121e-05 -0.000641841)
(0.000697133 -0.000629304 0.000523997 -0.000518342 -0.00120636 0.00589283)
(0.00084731 0.0003117 0.00132931 -0.000670465 0.00251273 -0.000450816)
(0.00099368 -0.000542266 -0.000250527 -0.000213706 -0.00154573 -0.00357347)
(4.30561e-06 -0.000150174 -9.61679e-05 5.21352e-05 1.4702e-05 1.51917e-06)
(0.000957786 -0.00140555 -0.00211827 6.83912e-05 -0.00219414 -0.00441218)
(-1.47224e-06 -6.55963e-05 -0.000241241 -7.7582e-05 0.00015437 0.000175744)
(-0.000242008 -0.000365861 -0.00233743 0.00495572 0.00311493 -0.0131791)
(-0.00168154 0.000311919 -0.00270107 -0.000235498 0.00256104 0.00200369)
(0.000974555 -0.000702125 -0.00256668 0.000739329 -0.00161079 -0.006121)
(0.000183999 -0.000191117 3.71411e-05 5.29073e-05 1.12999e-05 -0.000465016)
(0.000279063 -0.000327187 0.000188887 -6.98864e-05 -0.000495063 -6.28714e-05)
(0.000147503 -7.12879e-05 4.84894e-05 0.000207642 0.000134151 -0.000702406)
(0.00128911 0.000254743 -0.000115165 0.000807138 -0.000169918 -0.00322019)
(0.00101613 0.000349392 0.00110577 -0.000209853 0.00198923 -0.00140513)
(0.000169812 2.03317e-05 0.000178812 0.000427269 -0.000515878 -0.000746432)
(-9.42404e-05 -0.000189951 -0.000107244 8.17148e-06 -3.56428e-05 0.000243523)
(-0.000616686 -0.000344971 -0.000217483 -0.000256091 -0.000511673 0.00175247)
(-8.02878e-05 -4.9307e-05 -0.000240933 -0.000198579 8.86896e-05 0.000506725)
(-0.00163407 0.000250751 -0.000543697 -0.00135795 -0.000147948 0.00411267)
(-0.00177881 0.00034989 -0.00239773 -0.000639318 0.0020319 0.00284923)
(-0.000507603 2.42533e-05 -0.000248189 -0.000792412 -0.000532552 0.0023913)
(-0.000299672 -0.000113657 -0.00312015 0.00624779 0.00314614 -0.0151731)
(-0.00238478 0.000434826 -0.00361831 -0.000294487 0.00198459 0.00277309)
(0.0016837 0.000211267 -0.000192409 0.00105963 -0.000155089 -0.00409725)
(0.00159509 0.000423709 0.00189706 -0.000134034 0.00149456 -0.00210622)
(-0.00205863 0.000208566 -0.000463486 -0.00161189 -0.000117558 0.00492511)
(-0.00246541 0.000419539 -0.00313679 -0.000798803 0.00156774 0.00375445)
(-0.00021698 -0.00176389 0.000148669 -0.000286618 -7.73634e-05 0.000131294)
(-0.00013102 -0.00152151 9.45788e-05 -0.000443053 4.41798e-05 0.000102528)
(-0.000229083 -0.0016431 0.000136865 -0.000783123 3.70042e-05 8.76511e-05)
(-2.05914e-05 2.66683e-07 6.29799e-05 6.46262e-05 -0.000275526 0.000464544)
(0.00123922 0.000226357 -0.000212139 0.000772702 -0.000307151 -0.00305857)
(0.00015864 2.06628e-05 0.00017752 0.000409637 -0.000522754 -0.000677288)
(0.000726282 5.82588e-05 -0.000509509 0.000205197 -0.000593256 -0.001178)
(-0.000308943 -0.000145592 -8.27151e-05 -0.000153163 -0.000237795 0.00138086)
(-0.00060961 -0.00033626 -0.000215386 -0.000256589 -0.00051303 0.00176068)
(-0.000267449 -1.63408e-05 -7.1024e-05 -0.000350881 -0.000277874 0.00159009)
(-0.00153959 0.000222289 -0.000366479 -0.00127995 -0.000288318 0.00389956)
(-0.000503264 2.32063e-05 -0.000241807 -0.00077948 -0.000538314 0.00238219)
(-0.000771267 5.55261e-05 0.000377078 -0.000424275 -0.000591448 0.00175887)
(-1.26436e-05 -8.88251e-05 6.5078e-05 -8.44174e-05 -0.000208629 0.000768887)
(-0.000105611 5.48162e-05 -8.6255e-05 -4.0712e-06 0.000185912 0.000998987)
(-2.91161e-05 -1.27709e-06 5.21461e-05 4.51602e-05 -0.000246803 0.000526886)
(0.000271868 -3.75359e-05 -0.000458722 -0.000256657 -0.000325825 0.000441953)
(0.00065351 4.06915e-05 -0.000515876 0.0001216 -0.000574841 -0.000907992)
(-6.71373e-05 -1.54285e-05 -9.63694e-05 -0.00010591 0.000170806 0.00104782)
(-0.000285147 -0.000133894 -7.13015e-05 -0.000142047 -0.00020964 0.00133992)
(1.44826e-05 -8.6213e-06 9.13735e-05 2.51255e-05 0.000190882 0.000790375)
(-0.000247189 -1.93711e-05 -5.7997e-05 -0.000318751 -0.000248724 0.00152211)
(-0.00011106 -3.7429e-05 0.000599843 0.000295795 -0.000333806 -6.62693e-06)
(-0.00066838 3.86474e-05 0.000429997 -0.000303714 -0.000574717 0.00146338)
(9.49475e-06 -4.77048e-05 0.000116357 6.80578e-05 0.00017531 0.00069277)
(-0.0019293 0.000185059 -0.000228096 -0.00150579 -0.000224978 0.00463535)
(-0.000976888 8.24711e-05 0.000665405 -0.000420951 -0.00045837 0.0019542)
(0.000390958 3.15259e-05 -0.000673768 -0.000376767 -0.000254851 0.000406436)
(0.000861656 7.21129e-05 -0.000805676 0.000121364 -0.000448639 -0.00123444)
(-0.000204636 3.47909e-05 0.000812047 0.000440825 -0.000265842 -0.000152566)
(-0.000855602 7.388e-05 0.000716236 -0.000272807 -0.00044612 0.00159651)
(0.000123142 -0.000813767 4.70614e-05 0.000135071 0.00011246 -2.11161e-05)
(0.000127418 -0.000741728 4.39297e-05 0.00019448 9.5852e-05 -1.90287e-05)
(4.47051e-05 -0.000685445 3.84306e-05 6.90106e-05 8.76132e-05 -1.7993e-05)
(3.79159e-05 -7.45871e-06 -0.000165806 -1.14185e-05 0.000387933 0.000885365)
(0.000237728 -4.32968e-05 -0.000442947 -0.00027797 -0.000287272 0.000549571)
(-6.40129e-05 -1.55213e-05 -0.000103501 -0.000106395 0.000192813 0.00105539)
(0.000118939 -6.12973e-05 -0.000320363 -0.000244713 -7.14644e-05 0.000816196)
(0.000165906 7.37836e-06 0.000168235 0.000172376 0.000390995 0.000444338)
(2.83776e-05 -4.40315e-06 9.92858e-05 3.55127e-05 0.00021178 0.000760547)
(0.000162137 -5.00508e-05 0.000193034 0.000240338 0.00039418 0.000309438)
(-5.68353e-05 -4.33373e-05 0.00060325 0.000343172 -0.000295871 -0.000123927)
(2.30415e-05 -4.87564e-05 0.000125254 8.5655e-05 0.000197441 0.000653715)
(0.000174172 -5.97278e-05 0.000540195 0.000458606 -8.16819e-05 -0.000422104)
(4.97179e-08 8.39745e-05 -0.000160602 0.000136811 0.000387366 0.000755849)
(0.000153046 5.17381e-05 -0.000128205 0.000249501 0.000316892 0.000413833)
(4.68651e-05 -6.44783e-06 -0.000166142 -4.72607e-07 0.000391677 0.000860969)
(0.000135236 -5.45503e-05 -0.000175168 -1.90911e-06 3.73885e-05 0.000530467)
(0.000115231 -6.14584e-05 -0.000302096 -0.000220953 -4.99861e-05 0.000801661)
(0.000183948 1.10599e-05 -0.000131418 0.000179196 0.000325095 0.000446258)
(0.000170048 5.27636e-06 0.000168899 0.000179928 0.000394225 0.000430854)
(0.000198084 -3.52022e-05 0.000135569 0.000267438 0.000321635 0.000317705)
(0.000168178 -4.9779e-05 0.000194086 0.000244501 0.000397796 0.000299721)
(0.000238679 -5.24055e-05 0.000347013 0.000327049 2.96576e-05 -0.000123647)
(0.000190325 -6.01989e-05 0.000521788 0.000451648 -6.00727e-05 -0.000408044)
(0.000217658 -3.80406e-05 0.000151713 0.000255939 0.000329788 0.000276872)
(-0.000141606 3.03175e-05 0.000801534 0.000493869 -0.0002373 -0.000288665)
(0.000136845 4.38655e-06 0.000652415 0.000595311 -7.46652e-05 -0.000615844)
(0.000139026 -2.13543e-05 -0.000222637 -7.82206e-05 2.55684e-05 0.000589854)
(0.00015865 -1.35396e-06 -0.000405924 -0.000346666 -4.2994e-05 0.000879431)
(0.000232374 -2.03613e-05 0.000393 0.000391819 1.39689e-05 -0.000235884)
(0.000157401 5.80986e-07 0.000623451 0.000581157 -5.80518e-05 -0.000595283)
(0.000129771 -0.000385205 2.04284e-05 0.000389619 4.05782e-05 8.71583e-07)
(0.000128273 -0.000353046 1.83481e-05 0.000401177 4.28448e-05 5.47825e-06)
(9.21678e-05 -0.000284262 1.52884e-05 0.000344662 3.86803e-05 5.97291e-06)
(0.000220868 2.02844e-06 -2.57425e-05 0.000249723 1.36663e-05 0.000296758)
(0.00014078 -5.21232e-05 -0.000157899 3.07833e-05 4.14156e-05 0.000482969)
(0.000191944 1.22405e-05 -0.000125906 0.000190226 0.000312584 0.000420515)
(0.000182672 -0.000179606 -5.82811e-06 0.000196975 1.54263e-05 0.000227937)
(0.0001999 -2.12014e-05 -5.97904e-05 0.000262557 -1.38153e-06 0.000345975)
(0.000197618 -3.81967e-05 0.000129839 0.000271508 0.000309337 0.0003145)
(0.00021271 -3.55901e-05 -1.26938e-05 0.000253022 -3.15424e-06 0.000291923)
(0.000240538 -5.02846e-05 0.000317552 0.000305049 3.42272e-05 -7.27072e-05)
(0.000219416 -3.73648e-05 0.000145994 0.000254529 0.000316969 0.00028027)
(0.000231827 -0.000179915 1.60178e-05 0.000210528 1.46224e-05 0.000205691)
(0.000236595 -2.25811e-05 0.000357439 0.000360103 1.84126e-05 -0.000172332)
(0.000232694 -0.000182785 1.52635e-05 0.000203383 1.44346e-05 0.000202324)
(-0.00482661 0.00206836 0.0045308 -0.00903412 -0.00310649 0.0045725)
(-0.0381011 -0.025228 0.0163362 -0.0330907 -0.000129062 0.0555481)
(0.0087991 -0.00456947 0.0207546 -0.0408767 -0.0630036 -0.00839837)
(-0.00106983 0.00112997 0.000219839 0.000407012 4.72112e-05 0.00141902)
(-0.000544098 0.0005983 0.00062169 -0.000266706 -0.000160726 4.06901e-05)
(-0.000554369 0.000466402 0.00345603 -0.000312735 -0.00220452 -0.00218557)
(-0.00153454 0.00254016 0.000490943 -5.87838e-05 0.000424604 0.000521866)
(-0.00307016 0.00223648 0.00112735 0.000482882 0.00235509 0.000493319)
(-0.000659259 0.000161457 0.00125864 -0.000125914 -0.000683134 -0.000671624)
(-0.00109036 0.00113714 0.000176052 -0.000149265 0.0002816 0.000319299)
(-0.000344065 2.20479e-05 -0.00116309 -7.7972e-06 4.36274e-05 -0.00340264)
(4.21537e-05 8.34366e-05 -0.000455968 -1.13544e-05 6.37514e-05 -0.00269589)
(-0.000147719 1.66877e-05 -0.000695268 -2.64609e-06 3.13563e-05 -0.00272185)
(-2.28387e-05 2.0298e-06 -0.000474295 2.64031e-06 1.85771e-05 -0.00268478)
(-8.54638e-05 -2.14172e-05 -0.00025219 -7.77543e-07 9.37074e-05 -0.002603)
(-1.97167e-05 2.9508e-06 -0.000408407 5.46898e-07 2.93185e-05 -0.00229335)
(-6.35751e-06 -1.16673e-06 -0.000181595 1.71962e-06 1.85117e-05 -0.000960005)
(-7.08596e-05 -5.19623e-05 -0.000139875 0.000340056 0.00073493 -0.000885935)
(1.6229e-05 -4.80297e-05 -0.000195121 0.000108643 0.000108438 -0.000811928)
(-0.00137103 -0.000596483 0.00024061 -0.00143471 -0.000173611 -0.000253644)
(-0.000417754 -0.0028955 4.20138e-05 -0.000921356 0.000112135 -0.000226054)
(-7.84328e-05 -0.00190659 0.000157396 0.000416436 4.60839e-05 -0.000537801)
(-0.000243451 -0.00266064 0.000248341 -0.000346925 -0.000131038 -7.53105e-05)
(-0.00122942 -0.00066469 -8.21993e-05 -0.0012855 8.05958e-05 -0.000759919)
(-0.000463056 -0.0015647 0.000569945 -7.74369e-05 -0.000249508 -3.64379e-05)
(-0.00046694 -0.00275232 0.00016617 -0.000945976 -3.84541e-05 -0.000115082)
(-0.000359737 -0.000202934 4.45108e-05 -0.000373945 -2.24638e-05 1.97053e-06)
(-0.000216662 -0.00107784 3.32671e-05 -0.000360059 9.37931e-05 -9.6038e-07)
(-8.35323e-05 -0.00049055 9.25896e-05 -0.000286849 8.3052e-05 -1.29681e-05)
(-8.06105e-06 -0.000935065 4.48703e-05 -0.000194989 0.000136487 -1.69235e-05)
(-0.000578451 -0.000254108 5.25756e-05 -0.000599298 -2.62816e-05 2.58729e-05)
(1.76926e-05 -0.000431725 8.72296e-05 -0.00013512 7.02882e-05 -3.35768e-05)
(-0.000167684 -0.000959379 3.06081e-05 -0.000245508 8.80604e-05 -9.18457e-06)
(9.61395e-05 -8.41082e-05 2.21171e-05 9.94671e-05 -1.39673e-05 6.58244e-06)
(2.67607e-05 -0.000389815 1.83183e-05 0.000189592 2.50944e-05 -4.75978e-06)
(0.000204917 -0.000231658 5.29723e-05 0.000200193 2.3513e-05 -1.59416e-05)
(8.2936e-05 -0.000393551 2.28722e-05 0.000282941 3.94786e-05 -4.98072e-06)
(3.595e-05 -0.000105895 2.79921e-05 3.86286e-05 -1.7672e-05 -3.48975e-06)
(0.000223333 -0.000200052 4.40405e-05 0.000232093 1.94893e-05 -7.26056e-06)
(4.09776e-05 -0.000338903 1.62119e-05 0.000218573 2.20917e-05 -2.48227e-06)
(0.000184048 -3.62754e-05 -2.8156e-05 0.00018682 3.56258e-05 0.000208658)
(9.057e-05 -0.000121831 -1.48234e-07 0.000331146 9.06234e-05 4.45579e-05)
(0.000232482 -0.000109267 1.42221e-05 0.000277735 5.21203e-05 0.000117347)
(9.07772e-05 -0.0001692 6.91342e-06 0.000354649 0.000147031 8.31796e-05)
(0.000189114 -4.91483e-05 -2.01053e-05 0.000195866 2.6791e-05 0.000103753)
(0.000226277 -9.42811e-05 7.03207e-06 0.000246073 4.81131e-05 0.000204199)
(9.29233e-05 -0.000101702 -3.0197e-06 0.000314012 0.00012883 7.3426e-05)
(-0.0080998 0.00374039 0.000523636 -0.0136847 0.00053345 -0.00163683)
(-0.00100386 0.00297874 0.00299329 -0.00278475 -0.00188285 -0.000596203)
(-0.000843092 0.000110118 0.00374408 -0.000282662 -0.00256473 -0.00255124)
(-0.00208118 0.0041206 0.00105194 -0.00149453 3.49765e-05 0.000831891)
(-0.00372784 0.00115614 0.00110823 0.000482586 0.00214853 0.000845761)
(-0.00286804 0.00213 0.00883799 -0.00086542 -0.00481304 -0.00226853)
(-0.00240115 0.00658761 0.00132701 -0.00573107 -0.000464442 0.000959166)
(-0.000948444 -0.000627374 -0.000216467 -0.000152956 0.000336174 -0.00175474)
(-0.00247729 -1.70945e-05 0.002634 -0.000891124 -0.0003176 0.00675206)
(-0.00590101 -0.00276652 0.00555538 -0.00175203 0.0026855 0.0134328)
(0.000855061 -8.95606e-05 -0.000694892 -5.73742e-05 -0.000169203 0.000328226)
(0.000559815 -0.00214512 -0.000391643 -0.000328441 0.000582093 -0.000282426)
(0.000887492 -0.00328247 0.000397321 0.00127127 6.01878e-05 -0.000184911)
(0.000378531 -0.00175687 -7.73276e-05 0.000973824 0.000365313 -0.000629869)
(0.000314309 -0.000662187 -0.00119505 -0.000415259 0.000632455 -0.000393494)
(0.00175466 -0.00079216 1.55153e-05 0.00193794 2.33402e-05 0.000481216)
(0.00181264 -0.00321641 8.15618e-05 0.000376457 0.000331962 -0.000259279)
(-4.18656e-05 -7.36019e-05 -8.14903e-05 -3.71604e-05 -0.000425657 -0.00124643)
(-0.000628172 0.000211441 -0.000403813 -0.000372447 -6.75139e-05 -0.00109778)
(-9.59078e-05 -3.26813e-05 -0.000186174 -1.42235e-05 -3.10224e-05 -0.0022821)
(0.000137212 -0.000404212 -0.00161085 -0.000283688 0.000611511 -0.00400546)
(-0.000399716 2.37576e-05 -0.00125425 -1.54746e-05 5.08685e-05 -0.00335248)
(-0.000884657 -0.00024601 -0.00177312 -0.000187635 -0.000198408 -0.00300667)
(-0.00113156 -0.000343128 -0.00077668 -0.00110114 0.000664724 -0.000655138)
(2.55308e-05 -0.00208059 -0.000467927 -0.00077009 0.000523701 -0.000192853)
(-0.000392448 -0.00271921 -0.000159541 -0.000968007 0.000338016 -0.000269013)
(2.7126e-05 -0.00182366 -0.000167564 0.000341832 0.000305234 -0.000637407)
(-0.00121824 -0.000667288 -0.000172767 -0.00127079 0.000138693 -0.000799976)
(-8.22409e-05 -0.000817522 -0.00122283 -0.000608023 0.00055883 -0.000400731)
(-0.00044699 -0.0021931 -0.000347363 -0.00108098 0.000533629 -0.000189825)
(-0.0024233 0.000216829 0.0025139 -0.00011332 -0.000629871 0.00190467)
(-0.000511894 2.96334e-05 -0.000112716 1.52975e-05 -4.78923e-05 -0.00124093)
(-0.00193702 -0.000506243 0.00189073 0.000118701 0.000203642 -0.0030549)
(-0.000217441 -2.38104e-05 -0.000257185 5.60487e-06 -4.78311e-06 -0.00319458)
(-0.000305204 -5.68e-05 0.000159646 1.92547e-05 0.000100697 -0.00411772)
(-0.000398914 -9.15017e-05 0.0002916 -1.32888e-05 7.01099e-05 -0.00424377)
(-0.000141371 -3.18596e-06 -0.000243215 5.68437e-06 -2.619e-05 -0.00309243)
(-2.31071e-05 1.65942e-06 -0.000480796 2.92174e-06 1.54246e-05 -0.00272353)
(-2.20123e-05 -1.80514e-06 -0.000483237 2.61829e-06 -9.68478e-06 -0.00276177)
(-0.000276079 -5.49928e-05 0.000125608 1.63954e-05 0.000115556 -0.00393896)
(-0.000122928 -2.21427e-05 -0.000264074 2.11847e-06 5.54816e-05 -0.00271881)
(-0.000187119 -4.37073e-05 3.97219e-05 -3.36882e-06 0.000130353 -0.00319389)
(-4.21488e-05 -1.12045e-05 -0.000147819 -6.73119e-07 3.67448e-05 -0.00130197)
(-4.87754e-05 -6.53647e-07 -3.3475e-05 3.98343e-05 8.9044e-05 -0.000985199)
(-5.78715e-05 -7.68202e-06 -3.58923e-05 -3.45391e-06 6.71431e-05 -0.00130435)
(-2.37619e-05 -1.11428e-05 -0.000160397 -5.20144e-07 6.46374e-05 -0.00132729)
(-7.45908e-06 -1.18017e-07 -0.000186391 8.89221e-07 1.81535e-05 -0.000992563)
(-1.17761e-05 2.34885e-06 -0.00023448 -7.02221e-07 2.19721e-05 -0.00127573)
(-5.24694e-05 7.37954e-06 -2.71406e-05 8.22559e-05 0.000125968 -0.000920317)
(-2.26337e-05 -0.000185339 -0.000137721 0.000417297 0.000404164 -0.00112651)
(-9.68546e-05 0.000146028 9.78433e-05 0.000622862 0.00065545 -0.000985909)
(0.000575474 -0.000570872 0.000249088 0.000902037 0.000123278 0.000135085)
(0.000113761 -0.00274922 0.000380807 0.00135304 -0.000190835 -5.27298e-05)
(0.000232456 -0.00188694 0.000246853 0.00106847 3.98312e-05 -0.00051204)
(-0.000214398 -0.00250247 0.000284619 0.000561383 -0.000247038 -2.03725e-05)
(-0.000292229 -0.0015941 0.00057645 0.000367869 -0.000312055 3.71725e-05)
(0.00166686 -0.000805786 0.000126877 0.00192835 -1.93838e-05 0.000470253)
(-0.000228009 -0.00215849 0.000209425 0.00085121 -0.000237506 8.05378e-05)
(0.000220195 -0.000295861 0.000102944 0.000228536 0.000107117 -9.55804e-06)
(1.36451e-05 -0.00123406 5.37798e-05 -0.000364244 0.00016194 2.38287e-05)
(0.000254479 -0.00121691 4.5095e-05 -5.61469e-05 0.000176306 -7.95028e-06)
(2.77628e-06 -0.000538177 0.000100925 -0.000252298 9.7591e-05 -6.99157e-06)
(-0.000137542 -0.000631142 0.000126298 -0.00041507 9.27189e-05 5.13291e-05)
(0.000344113 -0.000248141 8.62313e-05 0.000325482 8.77931e-05 -1.99202e-05)
(0.000213524 -0.00127532 3.5193e-05 -0.000153204 0.000175954 8.9225e-06)
(-0.000881329 -0.000313146 8.69979e-05 -0.000915779 -5.16085e-05 9.68842e-05)
(-0.000117053 -0.00126627 6.54834e-05 -0.000590842 0.000140586 2.85357e-05)
(-0.000272274 -0.00121146 3.93993e-05 -0.00048922 9.10208e-05 1.26875e-05)
(-0.000125804 -0.000513395 9.70906e-05 -0.00034466 8.62103e-05 4.18888e-07)
(-0.000599402 -0.000248324 5.47986e-05 -0.000624894 -2.76452e-05 4.44637e-05)
(-0.000279435 -0.000599957 0.000131665 -0.00052074 8.14984e-05 5.93135e-05)
(-0.000333129 -0.00136777 5.22887e-05 -0.000627944 7.47386e-05 3.153e-05)
(0.000425736 -0.000204602 7.84647e-05 0.000402528 7.50146e-05 -3.1098e-05)
(0.000275333 -0.00115216 5.03592e-05 3.79513e-05 0.000165227 -1.67641e-05)
(3.88396e-05 -0.000515423 9.81939e-05 -0.000196894 9.39756e-05 -1.95759e-05)
(0.000104601 -0.000968917 5.03599e-05 -2.74557e-05 0.000148755 -2.03787e-05)
(0.000122045 -0.000451272 9.45179e-05 -5.22225e-05 7.99856e-05 -3.74641e-05)
(0.00035241 -0.000236555 8.50318e-05 0.000332903 8.49302e-05 -2.71608e-05)
(0.000283776 -0.00108161 5.19145e-05 0.000118572 0.000149173 -2.0171e-05)
(0.000459809 -0.000134209 5.64745e-05 0.000443459 5.09242e-05 -3.06612e-05)
(0.00013123 -0.000612849 3.63933e-05 0.000281036 6.89784e-05 -1.37824e-05)
(0.000254671 -0.000673578 3.20397e-05 0.000349238 6.50012e-05 -1.09907e-05)
(0.000248779 -0.000254349 5.99953e-05 0.0002405 3.10849e-05 -2.04215e-05)
(0.000233132 -0.000295603 7.05213e-05 0.000198757 3.90747e-05 -2.81262e-05)
(0.000452655 -0.00011313 4.68722e-05 0.000439964 4.21235e-05 -2.33249e-05)
(0.000262073 -0.000731204 3.59972e-05 0.000330208 7.48466e-05 -1.32556e-05)
(-5.25559e-05 -0.000133015 3.43167e-05 -5.2475e-05 -2.08275e-05 -1.07489e-05)
(6.46574e-05 -0.000550068 3.21862e-05 0.000178837 6.18595e-05 -1.29975e-05)
(1.01514e-05 -0.000447379 2.0451e-05 0.000155196 2.9902e-05 -6.94914e-06)
(0.000198057 -0.000243684 5.61443e-05 0.000186742 2.56215e-05 -1.88053e-05)
(3.04577e-05 -0.000105216 2.88627e-05 3.18722e-05 -1.82528e-05 -8.358e-07)
(0.000172849 -0.000283071 6.57434e-05 0.000137861 3.26908e-05 -2.64772e-05)
(-9.20963e-06 -0.00051217 2.2551e-05 0.000114218 3.64917e-05 -9.12374e-06)
(0.000440236 -9.3075e-05 3.79504e-05 0.000430683 3.41833e-05 -1.27576e-05)
(0.00024744 -0.00062142 2.84531e-05 0.000364292 5.6996e-05 -8.66098e-06)
(0.000252548 -0.000242341 5.6523e-05 0.000251793 2.86349e-05 -1.75328e-05)
(0.000131579 -0.000461269 2.57003e-05 0.00035852 4.50683e-05 -5.73738e-06)
(0.000261868 -0.000211312 4.71129e-05 0.000278897 2.37951e-05 -8.62651e-06)
(0.000451536 -0.000110432 4.55178e-05 0.000438868 4.08254e-05 -2.24804e-05)
(0.000240466 -0.00057456 2.52681e-05 0.000376424 5.09351e-05 -6.20827e-06)
(0.000404921 -6.28698e-05 3.5312e-05 0.000400293 3.39172e-05 3.803e-05)
(0.000123499 -0.000298243 1.52586e-05 0.000419235 6.14746e-05 2.00881e-05)
(0.000199801 -0.000373199 1.83769e-05 0.000412736 8.20962e-05 3.06098e-05)
(0.000255295 -0.000121387 2.40992e-05 0.000308883 4.84293e-05 9.63816e-05)
(0.000263969 -0.000138044 2.85546e-05 0.000314465 3.18761e-05 4.79463e-05)
(0.000378786 -5.22201e-05 4.51025e-05 0.000376275 4.71314e-05 9.96498e-05)
(0.000207633 -0.000400172 1.82223e-05 0.000409999 6.34146e-05 1.83934e-05)
(0.000175813 -5.65932e-05 4.9169e-07 0.000181909 5.06424e-06 4.45038e-05)
(9.36853e-05 -0.000231112 1.09026e-05 0.000372597 5.76648e-05 1.99707e-05)
(8.74204e-05 -0.000142943 1.81865e-06 0.000325521 6.37629e-05 2.88197e-05)
(0.000234465 -0.000114174 1.63368e-05 0.000282043 4.63579e-05 9.53313e-05)
(0.000190076 -4.85812e-05 -1.69091e-05 0.00019653 2.37874e-05 9.45467e-05)
(0.000239025 -0.000130204 2.31435e-05 0.000283659 2.9423e-05 4.82448e-05)
(8.37786e-05 -0.000165369 4.50896e-06 0.000313214 4.52692e-05 1.88621e-05)
(0.000326428 -4.56274e-05 4.01504e-05 0.000320036 4.45014e-05 0.000248346)
(0.000191925 -0.000348415 1.77768e-05 0.000407456 0.000111092 5.08082e-05)
(0.000251656 -0.000116735 2.23481e-05 0.000303335 5.39698e-05 0.000119141)
(0.000111511 -0.000234257 1.50784e-05 0.000385465 0.000153158 8.84716e-05)
(0.000240309 -0.000103604 1.68695e-05 0.000267294 4.86553e-05 0.000209188)
(0.000374093 -5.1133e-05 4.70394e-05 0.000371453 4.89343e-05 0.000113493)
(0.000178863 -0.000321991 2.12886e-05 0.000372438 0.000152681 9.07214e-05)
(-0.000653905 0.00257417 0.00325048 -0.0142917 -0.00626426 0.0023532)
(-0.0101992 0.0241534 0.0390618 -0.0205012 -0.0429826 -0.000609857)
(0.0161579 0.0131072 0.0346543 -0.0566267 -0.0823624 -0.016221)
(-0.00460857 0.00776646 0.0237923 -0.0244308 -6.55692e-05 0.0645568)
(0.0169284 0.00582739 0.0627285 -0.0788972 -0.105962 0.0103159)
(-0.026609 0.0395326 0.0695079 -0.0205071 -0.0608408 -0.00271562)
(-1.32964 0.594598 1.7855 0.125972 -1.43453 -1.05838)
(0.028997 0.0499511 0.0863057 -0.107387 -0.142283 -0.0116287)
(-0.000134428 0.00016018 0.000154826 -0.000293996 -0.000268573 -0.000245986)
(-9.05847e-05 5.74048e-05 3.57584e-05 2.50568e-05 -0.000112581 -0.00201997)
(-0.00052016 0.000137664 0.00070983 2.66146e-05 -0.000555465 -0.00103997)
(-0.000326006 0.000331441 -1.21839e-05 -0.00112593 0.000107982 0.00020394)
(-0.000315533 0.000254983 0.00373999 -0.000786702 -0.00269621 -0.00317782)
(-0.000416496 0.000159616 0.00144086 0.000271092 -0.000758741 -0.00535952)
(-0.00212037 0.00269433 3.58758e-05 0.00358576 -0.00207801 0.00288913)
(-0.000719809 0.000116229 0.00127419 -1.77643e-05 -0.000722143 -0.00115148)