/*--------------------------------*- C++ -*----------------------------------*\
| =========                 |                                                 |
| \\      /  F ield         | OpenFOAM: The Open Source CFD Toolbox           |
|  \\    /   O peration     | Version:  2012                                  |
|   \\  /    A nd           | Website:  www.openfoam.com                      |
|    \\/     M anipulation  |                                                 |
\*---------------------------------------------------------------------------*/
FoamFile
{
    version     2.0;
    format      ascii;
    class       pointVectorField;
    location    "0.108/solid";
    object      pointD;
}
// * * * * * * * * * * * * * * * * * * * * * * * * * * * * * * * * * * * * * //

dimensions      [0 1 0 0 0 0 0];


internalField   nonuniform List<vector> 
37794
(
(-2.21288e-05 -1.69275e-08 -1.95051e-06)
(8.77878e-07 5.40716e-07 1.10805e-06)
(-8.5219e-06 8.4304e-07 -2.13922e-06)
(1.01652e-06 3.55709e-07 -9.62026e-09)
(2.1371e-08 3.70984e-07 2.71026e-08)
(-1.45326e-05 1.08426e-06 3.90802e-07)
(-4.21922e-06 -6.03276e-08 1.70325e-06)
(-1.93421e-06 4.13234e-07 4.36721e-07)
(-9.02043e-07 6.61722e-07 1.86286e-07)
(-0.000192347 0.00223202 -0.000135041)
(-0.000592085 0.00370144 -3.13235e-05)
(-0.000719733 0.000459214 9.24143e-05)
(-0.000719352 -0.00128632 0.00015547)
(-2.74287e-05 3.56131e-05 -1.04467e-05)
(-3.63525e-07 -2.53836e-07 3.37531e-06)
(3.29186e-07 -9.2637e-06 -3.41732e-06)
(-2.53314e-06 -6.2889e-07 3.90328e-06)
(8.26789e-05 5.99426e-07 -3.7624e-05)
(9.07733e-07 -3.63065e-07 -1.82329e-07)
(2.93621e-06 2.55332e-06 -2.66105e-06)
(3.55394e-07 6.01107e-07 -2.8878e-08)
(-3.3713e-07 4.44543e-07 -8.30653e-08)
(1.65747e-06 -4.6253e-05 -1.18614e-06)
(-5.70033e-06 -7.40937e-07 -3.48849e-07)
(-0.000430389 0.00695938 6.21315e-05)
(-2.93921e-06 2.56213e-07 9.38995e-07)
(-0.000683616 0.0041679 9.91252e-05)
(-1.30282e-06 5.02388e-07 2.39256e-07)
(-0.000706103 0.00101452 0.000124017)
(-0.000203631 0.00400432 2.01133e-05)
(-0.00042115 0.00440262 -0.000102832)
(-0.000595979 0.00628126 8.48147e-05)
(-0.000686396 0.00191323 3.92375e-05)
(-0.000710982 0.00228478 0.000111156)
(-0.000719202 -0.00045237 0.000126148)
(-0.00069393 7.12278e-05 0.000138624)
(0.000197051 5.14058e-05 -0.00011771)
(1.39052e-05 1.1364e-05 -9.27049e-06)
(-2.71145e-07 1.14278e-06 -5.3515e-07)
(-2.00328e-06 -1.65079e-06 1.28988e-06)
(1.05752e-06 -7.02293e-07 1.24107e-07)
(-3.50857e-05 3.33681e-05 -2.25372e-05)
(0.00022008 5.13418e-05 8.45956e-05)
(-2.32057e-05 1.28141e-05 1.34459e-06)
(-5.67277e-06 6.93404e-07 -5.31946e-07)
(2.90816e-06 -1.8197e-06 -5.42224e-06)
(2.16146e-05 -8.00841e-06 2.20789e-06)
(6.88112e-07 -6.50285e-07 3.03018e-06)
(-3.04592e-06 1.16709e-06 1.90741e-06)
(-1.99172e-05 -2.16589e-06 -5.9439e-06)
(4.37855e-05 -3.05437e-05 -5.43714e-07)
(-2.37777e-06 3.90461e-07 -3.65245e-06)
(-2.59633e-06 -5.51837e-07 -1.03837e-06)
(1.17599e-06 -2.91401e-07 -7.72782e-09)
(3.94414e-06 1.86228e-06 -7.79795e-07)
(1.6127e-07 8.6958e-08 -1.09222e-08)
(6.8552e-07 6.61689e-07 -1.62748e-08)
(1.4307e-07 4.43731e-07 -3.2153e-08)
(-1.9876e-07 9.20482e-07 3.16725e-08)
(1.1948e-08 8.39772e-08 -7.19978e-10)
(3.07265e-07 4.77763e-07 2.07765e-06)
(-1.56719e-05 3.3221e-07 5.04486e-06)
(2.35976e-06 3.95908e-06 -4.54228e-06)
(-1.18812e-06 -4.08575e-06 4.28461e-07)
(-0.000157984 1.99687e-05 4.76636e-06)
(-8.55511e-06 -6.5904e-07 -2.84553e-06)
(-4.81034e-06 -3.43861e-07 1.46587e-06)
(-1.09069e-06 1.83107e-06 5.87257e-07)
(1.52954e-08 -1.53691e-06 7.45983e-07)
(-6.05818e-05 -1.10072e-05 7.22751e-06)
(-3.5751e-06 1.26248e-07 1.34174e-06)
(-2.38464e-06 3.48126e-07 6.37668e-07)
(-3.34351e-07 1.1765e-06 7.76867e-08)
(-1.04293e-07 -3.52737e-07 2.22653e-07)
(-2.78627e-05 9.65856e-06 2.52707e-06)
(-1.58094e-06 4.60952e-07 3.10624e-07)
(-1.08416e-06 5.50183e-07 2.16222e-07)
(-1.37003e-07 8.57838e-07 4.28438e-08)
(-8.11144e-08 1.41792e-07 1.00089e-07)
(-1.30268e-05 1.3806e-05 5.93808e-06)
(-2.97491e-07 4.67713e-07 -6.22975e-08)
(-0.000193554 0.00303748 -4.76978e-05)
(-0.000310628 0.00370424 -0.000127811)
(-8.08654e-05 0.00054072 -0.000107274)
(-0.000220924 0.00536893 8.97707e-05)
(-0.000516187 0.00432213 -6.87567e-05)
(-0.000595165 0.00493418 2.84069e-05)
(-0.000648354 0.00282307 5.51539e-06)
(-0.000595826 0.00781164 0.000138975)
(-0.000709041 0.00110805 6.83844e-05)
(-0.00071584 0.00138341 0.000100695)
(-0.000722018 -4.44948e-05 0.000111457)
(-0.000705637 0.00319167 0.00012082)
(-0.000714118 -0.000828287 0.000137608)
(-0.00070099 -0.000570812 0.000142489)
(-0.000687045 0.000703239 0.000134226)
(4.22996e-05 -5.45467e-05 -3.99511e-05)
(0.0100922 -0.00432739 0.00295602)
(-4.38223e-07 -2.62277e-07 -1.62749e-07)
(4.07901e-05 -1.34978e-05 -6.002e-06)
(4.94105e-06 -3.57785e-06 8.74439e-07)
(5.8583e-05 -1.24413e-05 2.01946e-05)
(-2.49958e-05 -5.70631e-07 1.51936e-05)
(-1.9142e-06 -2.48503e-06 3.71438e-07)
(4.16575e-06 -4.28427e-08 -2.49622e-06)
(1.38641e-05 0.000102933 -6.97157e-05)
(1.55784e-05 1.2914e-05 -1.53091e-05)
(1.52214e-05 3.00145e-06 -6.75495e-08)
(5.15151e-08 -6.17129e-08 -1.03601e-07)
(6.15095e-06 3.67104e-06 -4.63702e-06)
(5.19041e-07 2.24043e-06 -1.18511e-06)
(4.50334e-07 1.82509e-06 -3.31019e-07)
(7.10323e-08 1.43999e-07 -4.96971e-09)
(-3.71834e-07 6.4603e-07 -2.54372e-07)
(-6.78547e-08 9.74877e-07 2.45172e-07)
(-9.07944e-05 0.00142572 -1.77926e-05)
(4.67822e-07 -2.46306e-05 3.80713e-06)
(1.74079e-06 -3.25773e-05 3.17408e-07)
(-9.45429e-05 -2.26754e-05 1.4218e-06)
(-1.80765e-08 1.21405e-06 4.58914e-07)
(2.2906e-07 -2.78918e-06 4.57574e-07)
(-0.000321316 0.00600126 4.45756e-05)
(-0.000425754 0.00555455 -1.49737e-05)
(-0.00043674 0.00872551 0.000136317)
(-0.000523071 0.00695392 7.50442e-05)
(-4.18826e-05 3.10583e-06 4.69744e-06)
(-6.14102e-07 1.50848e-06 2.12447e-07)
(-9.1779e-08 -8.19549e-07 4.43442e-07)
(-0.00064891 0.0052664 9.25582e-05)
(-0.000686035 0.00303675 6.87921e-05)
(-0.000679935 0.00535629 0.00012806)
(-0.000703114 0.00314905 0.000105168)
(-1.87437e-05 1.26261e-05 2.12548e-06)
(-1.98407e-07 9.57483e-07 3.99106e-08)
(-1.00177e-07 -6.79397e-08 1.25749e-07)
(-0.000710856 0.00158394 0.000117385)
(-0.0007126 0.000287403 0.000124183)
(-0.000700003 0.00173613 0.000123354)
(-0.00069961 0.000526583 0.000131109)
(0.000177421 -1.59057e-05 3.33814e-05)
(-0.000110498 0.00212722 3.95231e-05)
(-0.000132027 -2.1894e-06 -5.99657e-06)
(-0.00052571 0.00863699 0.000140945)
(-5.06842e-05 -2.74972e-06 6.16527e-06)
(-0.000698433 0.00418566 0.00012338)
(-2.28347e-05 1.14019e-05 2.05416e-06)
(-0.000693284 0.00119362 0.000128041)
(-1.09289e-05 1.17666e-05 1.21092e-05)
(-8.94553e-05 -3.16093e-05 2.73115e-05)
(-7.81106e-05 0.000999887 -5.92249e-05)
(-0.000314391 0.00472196 -3.3841e-05)
(-0.000332592 0.00769913 0.000120835)
(-7.31648e-05 -2.02832e-05 6.40037e-06)
(-0.000520414 0.00554328 6.44889e-06)
(-0.000649804 0.00401932 4.94823e-05)
(-0.000646698 0.0066234 0.000133835)
(-3.42241e-05 7.03414e-06 3.42657e-06)
(-0.000706853 0.00213628 8.5896e-05)
(-0.000716624 0.000779755 0.00011334)
(-0.000705068 0.00238548 0.000120819)
(-1.55424e-05 1.34527e-05 3.10812e-06)
(-0.00070665 -0.000147718 0.000133699)
(-0.00018318 -0.000152823 -0.0001506)
(2.47688e-07 -1.63205e-06 -9.06426e-07)
(-7.01953e-07 2.23737e-07 -1.32603e-06)
(1.20067e-07 1.50223e-07 -6.74778e-09)
(-1.05543e-07 4.48326e-07 1.30376e-07)
(0.000100392 5.23019e-05 7.65682e-06)
(1.03713e-05 -6.66236e-06 -7.85339e-06)
(6.88178e-06 9.10841e-07 -8.71423e-07)
(4.36928e-05 4.42378e-06 2.92165e-06)
(-2.66533e-08 1.21044e-06 -1.9644e-07)
(1.65616e-06 2.42045e-06 -5.13502e-07)
(3.47744e-07 5.76969e-06 2.77794e-06)
(-4.53377e-06 -1.1724e-06 -6.76289e-06)
(-7.34945e-08 2.3218e-07 -1.17409e-07)
(1.84028e-07 -6.00948e-08 1.96946e-08)
(3.5909e-08 1.13899e-07 -4.26367e-09)
(1.27334e-06 -7.55058e-08 -1.26285e-06)
(-2.09526e-07 -3.75322e-06 8.4814e-08)
(-6.18284e-08 -1.14301e-06 6.03652e-07)
(-1.03417e-07 -1.93044e-07 1.61856e-07)
(6.84231e-08 2.94654e-07 -1.56027e-08)
(1.11858e-06 -1.48464e-05 2.47129e-06)
(-1.21202e-05 6.9018e-06 7.88559e-07)
(2.76423e-06 9.2049e-07 -1.66665e-06)
(-1.09539e-06 1.74616e-06 7.97392e-07)
(-8.40094e-07 1.69652e-06 3.61035e-07)
(-4.49313e-07 1.32899e-06 1.26086e-07)
(-2.53869e-07 1.05312e-06 5.14169e-08)
(-1.59348e-07 8.86459e-07 4.21615e-08)
(-2.09817e-07 8.12252e-07 -9.10171e-08)
(-1.67407e-06 -3.44448e-06 1.25407e-06)
(1.53995e-07 -2.04408e-06 7.43504e-07)
(-1.01835e-07 -5.58341e-07 3.14345e-07)
(-9.42444e-08 3.37665e-08 1.09794e-07)
(0.000344605 -7.02166e-05 0.000282291)
(5.96918e-05 -9.86001e-06 1.59704e-06)
(-0.000109588 -1.57769e-05 -1.39205e-07)
(-3.94628e-05 -6.37615e-06 5.03062e-06)
(-1.51715e-05 4.37257e-06 1.46522e-06)
(-5.494e-06 7.122e-06 4.77526e-06)
(0.000137267 -5.55485e-05 -2.57262e-05)
(-0.000115942 1.19524e-05 8.93152e-06)
(-9.0268e-06 7.74216e-07 -3.30945e-05)
(-9.80352e-05 -1.87901e-05 1.45798e-05)
(-9.84633e-05 2.26782e-05 -9.16942e-06)
(-4.77221e-05 -2.95014e-06 6.65455e-06)
(-4.91137e-05 -1.18041e-05 5.07962e-06)
(-4.1938e-05 1.00669e-06 5.98661e-06)
(-2.55347e-05 6.95864e-06 2.45054e-06)
(-1.95288e-05 2.89372e-06 1.99966e-06)
(-2.15122e-05 7.68562e-06 1.85229e-06)
(-1.35159e-05 8.72297e-06 2.70712e-06)
(-7.12912e-06 6.8617e-06 2.43193e-06)
(-1.16698e-05 8.59726e-06 5.23011e-06)
(0.000331272 -0.000670828 9.18784e-05)
(0.00653698 -0.0049673 0.000821551)
(5.51691e-06 -4.49876e-06 -1.97629e-05)
(2.92088e-05 -2.19454e-05 -5.45385e-05)
(5.64928e-05 8.811e-06 1.12591e-05)
(6.95767e-06 -2.49303e-06 -3.25353e-05)
(-8.53672e-05 -1.93364e-05 -1.99701e-06)
(-3.1609e-05 -2.19165e-06 3.97245e-06)
(-1.17598e-05 5.43175e-06 1.26418e-06)
(-3.85162e-06 3.57351e-06 1.10301e-05)
(0.000236102 -0.000169696 1.64838e-05)
(0.000159116 -6.95058e-05 -1.35282e-05)
(0.000175926 -4.19438e-05 3.7278e-05)
(0.00104181 -0.000428669 2.78147e-05)
(0.0104187 -0.0065295 0.00329273)
(0.000175212 3.14292e-05 -3.20907e-06)
(0.00127504 -5.66542e-05 -0.000454323)
(-2.46606e-05 -2.87378e-05 3.08472e-05)
(-7.6885e-07 3.26638e-07 -3.70616e-05)
(2.9094e-06 -1.0543e-06 -3.71084e-05)
(3.08392e-05 -2.76589e-05 -0.0001517)
(6.78846e-06 -7.66498e-06 -6.22694e-05)
(1.36511e-05 -2.91501e-05 -3.10357e-05)
(-3.06245e-05 -1.96813e-05 1.82974e-05)
(-6.81596e-05 1.55005e-06 -3.97632e-06)
(-5.44104e-05 -5.49971e-06 4.22735e-06)
(-6.30141e-05 -1.73263e-05 2.59494e-06)
(-3.60218e-05 3.93829e-06 4.60801e-06)
(-3.04152e-05 5.80315e-06 3.37034e-06)
(-2.49832e-05 7.9663e-07 2.85372e-06)
(-1.82844e-05 8.16347e-06 1.58641e-06)
(-1.56748e-05 8.4754e-06 1.76306e-06)
(-9.13278e-06 6.22723e-06 1.49091e-06)
(-9.54004e-06 4.20927e-06 1.23026e-05)
(-3.23041e-05 1.35832e-05 -1.11964e-06)
(-1.63545e-05 -1.12687e-06 -2.31024e-06)
(5.22083e-06 -4.86516e-07 -4.36418e-06)
(1.75467e-05 -1.31107e-05 -4.98324e-06)
(1.50287e-06 -3.63815e-07 2.52596e-06)
(1.1652e-06 1.13857e-06 9.51973e-07)
(-1.19124e-06 -2.25608e-06 1.28612e-06)
(-1.21928e-05 4.0339e-06 -4.74745e-06)
(-1.74641e-06 -1.11596e-05 2.03959e-08)
(3.26066e-06 7.86462e-07 -4.17861e-07)
(-5.97371e-06 -6.54256e-07 -1.80912e-06)
(1.10984e-06 8.8127e-09 -1.43816e-08)
(2.05407e-06 8.86973e-07 -4.09138e-07)
(2.5908e-07 1.36369e-07 -6.32871e-08)
(8.66461e-07 5.72624e-07 -1.09873e-08)
(7.37788e-08 3.79672e-07 -2.20957e-08)
(-1.11712e-07 6.77832e-07 6.89433e-08)
(4.26536e-11 1.31155e-07 -1.61198e-09)
(2.0737e-08 5.29781e-07 2.86301e-07)
(-1.63457e-05 1.14432e-06 3.72994e-06)
(-1.00681e-05 3.88843e-06 -2.51286e-06)
(-1.18278e-05 -3.17621e-06 3.63667e-07)
(-0.000109018 6.7738e-06 3.5626e-06)
(-1.13828e-05 1.15e-07 -2.37059e-06)
(-4.51884e-06 -1.85784e-07 1.71808e-06)
(-4.16709e-06 1.13801e-06 1.39256e-06)
(-2.86913e-06 -1.24063e-06 1.99212e-06)
(-4.22636e-05 -5.56559e-06 6.36567e-06)
(-3.90254e-06 4.18939e-08 1.54897e-06)
(-2.14645e-06 3.83415e-07 5.26122e-07)
(-1.8105e-06 1.02035e-06 2.25412e-07)
(-1.38275e-06 -5.61888e-08 6.0231e-07)
(-1.93631e-05 5.63416e-06 2.04261e-06)
(-1.74698e-06 4.38564e-07 3.6627e-07)
(-9.91969e-07 5.86641e-07 2.10025e-07)
(-8.44616e-07 9.79502e-07 1.12476e-07)
(-6.46707e-07 4.70318e-07 2.66666e-07)
(-8.99065e-06 8.20033e-06 3.63578e-06)
(-8.19196e-07 8.55303e-07 7.55735e-08)
(-0.000191996 0.00262022 -8.75795e-05)
(-0.000251777 0.00304726 -0.000134386)
(-0.000134339 0.00134774 -0.00012743)
(-0.000231559 0.0063033 0.00013036)
(-0.000556629 0.00406107 -5.01732e-05)
(-0.00059399 0.00429875 -1.40822e-06)
(-0.00062263 0.00327836 -1.26524e-05)
(-0.000595493 0.00868577 0.000166272)
(-0.000715657 0.000763613 8.10453e-05)
(-0.000717937 0.000919681 9.60026e-05)
(-0.000721712 0.000191688 0.000102531)
(-0.000702859 0.0036827 0.000124598)
(-0.000711874 -0.00102322 0.000143048)
(-0.000704911 -0.000900601 0.000144982)
(-0.000683714 0.00104026 0.000130742)
(-2.81596e-05 5.16287e-05 -1.3855e-05)
(-2.00588e-05 1.6076e-05 -2.75183e-06)
(1.4644e-05 -1.96416e-05 -1.86853e-05)
(6.4002e-06 -1.00831e-05 6.17574e-05)
(-8.14248e-07 5.64763e-07 1.63042e-06)
(6.90025e-08 -7.21493e-07 4.45626e-06)
(-9.47781e-07 -1.30112e-06 -4.30765e-07)
(2.20786e-07 2.71908e-06 -6.592e-06)
(1.72227e-06 1.04688e-05 -8.97095e-06)
(-1.66278e-05 1.29226e-05 -1.07569e-05)
(6.28236e-05 1.43827e-07 -0.000189575)
(-1.68765e-06 -7.16032e-06 1.44316e-06)
(4.30929e-06 -5.53768e-06 3.33747e-07)
(1.14817e-05 -1.2939e-07 3.55016e-06)
(-1.14585e-05 -5.2448e-07 3.99697e-06)
(4.82399e-05 -1.05224e-05 2.24305e-05)
(-1.01651e-06 -7.46498e-07 1.9968e-05)
(-2.12544e-06 -1.00262e-06 -9.09966e-07)
(0.000392828 -1.08381e-05 5.71284e-05)
(8.64994e-05 -5.48128e-05 -1.40038e-05)
(2.02992e-05 5.31642e-05 -6.47219e-05)
(2.1031e-05 -5.59182e-06 -1.67029e-05)
(6.10222e-07 -6.07274e-08 1.9778e-06)
(-1.96629e-07 -3.42551e-07 -5.02311e-07)
(1.21122e-06 -3.40211e-07 -5.84554e-08)
(4.9716e-06 -6.63049e-07 -6.13777e-07)
(2.57786e-07 -2.24977e-07 -1.60177e-08)
(1.40434e-05 -1.28846e-07 5.94337e-06)
(6.15083e-06 3.16356e-06 -1.46909e-06)
(4.38382e-06 2.56834e-06 -3.40939e-06)
(1.69013e-06 2.72138e-06 -1.85995e-06)
(-6.23125e-07 -4.0796e-09 2.75167e-07)
(5.07565e-07 6.58217e-07 -2.29784e-08)
(2.34678e-07 5.24005e-07 -3.24869e-08)
(3.94352e-07 1.24187e-06 -1.86113e-07)
(1.02301e-07 2.37625e-07 -3.42419e-08)
(8.65371e-07 -2.03152e-08 4.7071e-07)
(-2.88122e-07 8.86316e-07 -6.60902e-08)
(-3.62668e-07 5.09905e-07 -1.66119e-07)
(-2.70313e-07 5.19272e-07 2.67671e-08)
(-2.48308e-07 -4.61596e-09 9.0797e-08)
(5.74469e-06 2.57794e-05 2.85706e-06)
(-5.43334e-05 0.000276081 -7.4396e-05)
(3.81596e-08 -2.91317e-05 1.53505e-06)
(3.74075e-06 -3.54571e-05 8.72108e-07)
(-6.72004e-06 -8.62389e-07 -1.80311e-06)
(-5.1581e-06 -5.34975e-07 7.98193e-07)
(-6.49513e-05 -1.17626e-05 8.35625e-08)
(-3.79035e-06 8.53305e-07 -8.48149e-07)
(-4.71266e-06 -2.64224e-06 1.04824e-06)
(-0.000377535 0.00661371 5.40529e-05)
(-0.000427865 0.00621905 2.44619e-05)
(-0.000433334 0.00779372 9.92576e-05)
(-0.000479076 0.00706095 6.90613e-05)
(-3.25031e-06 1.96754e-07 1.1308e-06)
(-2.6493e-06 3.06083e-07 7.7443e-07)
(-2.91733e-05 2.04564e-06 3.96194e-06)
(-2.83809e-06 1.12646e-06 6.12289e-07)
(-2.05253e-06 -5.04428e-07 1.17665e-06)
(-0.000668366 0.00471513 9.59447e-05)
(-0.000684982 0.00359983 8.40099e-05)
(-0.000681815 0.00475572 0.00011391)
(-0.000695041 0.00364199 0.000102178)
(-1.43397e-06 4.81708e-07 2.68104e-07)
(-1.18739e-06 5.24327e-07 2.23264e-07)
(-1.29972e-05 7.3177e-06 1.54601e-06)
(-1.19966e-06 9.37308e-07 1.11507e-07)
(-9.44544e-07 2.14453e-07 3.44013e-07)
(-0.000708856 0.00128574 0.000120645)
(-0.000709308 0.000652872 0.000124015)
(-0.000702951 0.00137713 0.000123861)
(-0.000702908 0.000763648 0.000127504)
(-4.57018e-08 3.28394e-07 5.89048e-07)
(-0.00019756 0.00348862 -1.29404e-05)
(-0.00021168 0.00462509 5.39407e-05)
(-0.000145538 0.00272827 4.46553e-06)
(-0.000262852 0.00512097 3.338e-05)
(-0.000367453 0.0041593 -0.000116906)
(-0.000470912 0.00444765 -8.65248e-05)
(-0.000423628 0.00494356 -5.76277e-05)
(-0.000440551 0.00977986 0.000175524)
(-0.000595698 0.00559018 5.69872e-05)
(-0.000595916 0.00702357 0.000112175)
(-0.000562066 0.00667983 8.02475e-05)
(-0.00062487 0.00579831 8.88821e-05)
(-0.000669494 0.00236141 2.28809e-05)
(-0.000699435 0.00149257 5.44348e-05)
(-0.000686523 0.00246942 5.35425e-05)
(-0.000677726 0.00601673 0.000141751)
(-0.000713473 0.00183651 0.000105841)
(-0.000708282 0.00273847 0.000116251)
(-0.000708264 0.00269579 0.000108148)
(-0.000711692 0.00191526 0.000114226)
(-0.000721057 -0.000256491 0.00011929)
(-0.000716792 -0.000640412 0.000132187)
(-0.000715921 -8.5494e-05 0.00012479)
(-0.000697135 0.00211527 0.000122166)
(-0.00069743 -0.000247811 0.000140504)
(-0.000690418 0.000390437 0.000136575)
(-0.000696447 0.000295369 0.000134861)
(0.00386306 -0.00101521 0.000454091)
(0.000125008 -8.85871e-05 -9.8317e-05)
(0.00159677 0.000546264 -0.000963019)
(5.6215e-05 -1.94635e-05 -2.30402e-05)
(0.000112991 -0.000100301 -6.62743e-05)
(1.70041e-05 1.47033e-05 -1.35625e-05)
(3.79021e-05 -2.55804e-07 1.46268e-05)
(2.69215e-05 1.37972e-05 -3.3443e-06)
(9.05823e-06 6.091e-06 -6.40165e-06)
(-3.78742e-08 1.58445e-06 -7.83817e-07)
(3.51411e-06 -4.5168e-08 1.59406e-06)
(3.86769e-07 2.08893e-06 -5.29897e-07)
(-3.52671e-07 8.51799e-07 -3.70288e-07)
(-4.09211e-05 2.77506e-05 -6.84888e-05)
(1.9753e-06 -3.86302e-07 3.109e-06)
(1.39967e-06 -1.07657e-05 2.88732e-06)
(3.92504e-06 -6.62253e-06 -3.85284e-05)
(1.58226e-07 -5.4966e-07 -1.95463e-07)
(2.85981e-06 -1.47078e-06 1.80291e-06)
(-1.07097e-07 -2.88623e-07 -2.10525e-07)
(1.01641e-06 -1.11449e-06 -3.93461e-07)
(-5.17986e-07 -2.94163e-09 3.3591e-07)
(-4.19595e-07 -7.3591e-09 1.74611e-07)
(2.16501e-06 -2.60442e-05 -4.1638e-06)
(0.000864851 -0.00253272 -0.000171041)
(0.00014397 3.85132e-05 1.61736e-05)
(3.87195e-05 -1.45036e-05 -1.41793e-05)
(3.56625e-05 -6.54982e-06 6.51969e-06)
(-0.000142931 -3.28589e-05 -3.56214e-06)
(-0.000111552 -2.14095e-05 -2.10436e-06)
(-5.14396e-05 -7.69805e-06 3.85961e-06)
(-3.90143e-05 -4.08894e-06 2.32869e-06)
(-1.89487e-05 8.62143e-06 1.17033e-06)
(-1.18789e-05 3.98371e-06 5.4124e-07)
(-6.82123e-06 1.05613e-05 1.12567e-05)
(-1.99069e-06 5.71881e-06 6.06278e-06)
(0.000303995 -5.49691e-05 1.7197e-05)
(0.000299232 -0.000195493 -1.75307e-05)
(0.000308509 -0.000167591 4.89566e-06)
(-8.8391e-05 -2.56165e-05 9.45217e-06)
(-0.000152138 1.03318e-05 8.7362e-07)
(-4.2102e-06 -1.18543e-06 -3.43565e-05)
(-9.53095e-05 -4.04256e-05 3.29231e-05)
(-8.37095e-05 -2.41054e-05 2.35989e-05)
(-0.000128491 2.52012e-05 -2.6808e-06)
(-7.18248e-05 8.27248e-06 -3.3675e-06)
(-7.10282e-05 -8.92786e-06 8.01143e-06)
(-5.53648e-05 -1.66972e-06 6.64797e-06)
(-8.10546e-05 -2.73807e-05 2.64358e-06)
(-6.4841e-05 -1.34663e-05 9.8438e-07)
(-5.35981e-05 4.46812e-06 6.73499e-06)
(-4.67192e-05 4.62094e-06 5.10908e-06)
(-3.88452e-05 1.14501e-05 4.03569e-06)
(-3.51123e-05 6.95854e-06 3.01796e-06)
(-3.1804e-05 3.25564e-06 2.00115e-06)
(-2.24093e-05 1.27283e-06 1.07516e-06)
(-2.79259e-05 1.41259e-05 2.53065e-06)
(-2.62897e-05 7.70821e-06 1.86249e-06)
(-2.06913e-05 1.50916e-05 3.38092e-06)
(-2.03399e-05 8.01623e-06 2.14315e-06)
(-1.12623e-05 1.1349e-05 2.46911e-06)
(-5.69676e-06 5.4854e-06 1.24665e-06)
(-1.53922e-05 1.26558e-05 1.26618e-05)
(-1.54427e-05 6.82275e-06 7.86083e-06)
(-1.75935e-05 -5.12367e-05 -3.80474e-05)
(4.48625e-05 -5.37917e-05 7.27789e-05)
(0.000694671 0.000123562 0.000786818)
(-2.89192e-05 8.0452e-05 -5.05133e-05)
(4.32181e-06 -4.09719e-06 -7.33453e-06)
(8.02453e-06 -1.37203e-05 -9.00621e-06)
(-1.15361e-07 -1.31434e-06 -1.0509e-06)
(-2.54108e-07 -2.47387e-06 -2.24093e-06)
(0.000113076 -5.21483e-05 -3.01748e-05)
(2.75099e-06 -1.52882e-06 -3.9504e-07)
(3.74672e-06 1.3307e-06 -3.02217e-06)
(0.000137923 -1.21159e-05 2.22744e-05)
(7.80048e-06 -3.57028e-07 -4.92471e-07)
(3.68584e-05 -1.22001e-05 5.15799e-06)
(5.68171e-08 -1.22442e-06 -3.96509e-07)
(-3.55674e-07 2.47189e-06 -2.23119e-05)
(-2.31643e-05 1.13962e-06 -1.59858e-05)
(3.23097e-07 -1.67404e-07 -6.21375e-07)
(-9.15869e-06 2.87081e-06 -1.71838e-05)
(7.91913e-06 -1.29065e-06 -3.5387e-06)
(3.8317e-05 8.188e-07 -1.12293e-06)
(6.12254e-05 -9.34993e-06 -8.7173e-07)
(-1.34277e-06 3.28816e-07 -2.35346e-06)
(-3.69551e-06 7.00907e-07 -5.39824e-06)
(1.32099e-06 8.25845e-08 3.19034e-08)
(9.13261e-06 -3.39562e-06 -5.6453e-07)
(3.01978e-06 -2.88574e-07 -4.5073e-07)
(1.71741e-07 -1.58848e-07 -6.7758e-08)
(5.12714e-06 1.04402e-06 -8.69337e-07)
(2.71608e-06 2.38615e-06 -6.34945e-07)
(1.44946e-07 1.33733e-07 -7.78346e-09)
(1.67626e-07 1.32104e-08 -1.26127e-08)
(1.94516e-07 2.51494e-07 -4.81082e-08)
(1.06519e-06 1.457e-06 -2.81832e-07)
(5.29776e-08 8.75138e-07 -1.13659e-07)
(3.88349e-08 1.81613e-07 -2.27178e-08)
(-1.41734e-07 9.9604e-07 -1.22518e-07)
(-1.42082e-07 1.33575e-06 5.29045e-07)
(-1.4189e-08 9.58791e-08 1.35191e-08)
(2.38278e-08 9.76014e-08 -3.57686e-09)
(-1.60449e-07 7.04847e-07 3.92577e-07)
(-7.95721e-07 5.91593e-06 3.76487e-06)
(-6.84989e-05 -1.59932e-05 2.15681e-05)
(-1.78742e-05 2.0977e-06 9.45959e-06)
(-8.76014e-06 -2.91337e-06 1.51816e-06)
(-0.000126689 3.23294e-05 -9.96912e-06)
(-3.19499e-06 6.13579e-06 -3.45217e-06)
(3.76264e-06 1.84609e-06 -3.46157e-06)
(-0.000120978 -2.23159e-05 8.92386e-06)
(-7.05461e-07 -4.07504e-06 1.27177e-07)
(-1.47893e-06 -3.7948e-06 9.14879e-07)
(-0.000159576 -2.68062e-05 9.56466e-06)
(-0.000151417 1.45935e-05 -4.93273e-06)
(-0.000138124 -6.44095e-07 1.85873e-05)
(-0.000166111 5.54996e-05 -1.79394e-06)
(-8.97903e-05 -2.00507e-06 -6.46207e-06)
(-8.17439e-06 -3.48487e-06 -4.86988e-07)
(-3.71604e-06 1.48325e-06 -4.96131e-06)
(-5.08138e-05 -1.04852e-05 5.42307e-06)
(-4.41007e-06 1.01861e-06 1.25132e-06)
(-3.39294e-06 -1.80589e-06 1.99744e-06)
(-5.20354e-05 2.00287e-06 6.25352e-06)
(-1.16039e-06 1.83261e-06 7.08446e-07)
(-9.69648e-07 1.77751e-06 4.65358e-07)
(-5.02608e-05 -8.31758e-06 2.44227e-06)
(-3.24475e-08 -1.33029e-06 6.83546e-07)
(7.80857e-08 -1.77099e-06 7.74243e-07)
(-6.42954e-05 -1.66068e-05 4.20335e-06)
(-5.54667e-05 -6.58367e-06 6.81447e-06)
(-6.62963e-05 -1.57792e-05 7.18441e-06)
(-6.15614e-05 -1.98459e-06 7.9587e-06)
(-3.53553e-05 -1.12873e-06 5.33075e-06)
(-2.45686e-06 -8.2756e-07 1.59819e-06)
(-3.51771e-06 1.15861e-06 9.86177e-07)
(-2.38061e-05 4.19041e-06 2.82929e-06)
(-2.2624e-06 1.07455e-06 3.68288e-07)
(-1.68745e-06 -2.51349e-07 8.41761e-07)
(-3.02685e-05 7.43026e-06 2.30951e-06)
(-3.8659e-07 1.24897e-06 9.84384e-08)
(-2.90224e-07 1.11112e-06 6.26041e-08)
(-1.64928e-05 2.85275e-06 6.87578e-07)
(-1.04291e-07 -2.67838e-07 1.8882e-07)
(-1.03354e-07 -4.49148e-07 2.64088e-07)
(-2.46154e-05 6.40452e-06 1.40482e-06)
(-2.51587e-05 1.06243e-05 2.23192e-06)
(-3.08797e-05 8.47686e-06 2.92691e-06)
(-3.28341e-05 1.30913e-05 3.08736e-06)
(-1.58011e-05 6.62118e-06 1.59896e-06)
(-1.13906e-06 9.42846e-08 4.41521e-07)
(-1.46444e-06 9.72584e-07 1.4743e-07)
(-1.07795e-05 7.8419e-06 2.07264e-06)
(-9.97347e-07 9.23068e-07 1.17397e-07)
(-7.88593e-07 3.21084e-07 3.00672e-07)
(-1.79331e-05 8.13254e-06 3.5837e-06)
(-1.45451e-07 8.62551e-07 4.63511e-08)
(-1.73832e-07 9.15829e-07 5.72212e-12)
(-3.73353e-06 6.05941e-06 2.63986e-06)
(-5.43212e-08 2.49315e-07 6.63107e-08)
(-8.94117e-08 8.23516e-08 1.06832e-07)
(-8.80874e-06 1.2033e-05 5.23229e-06)
(-1.19346e-05 1.3395e-05 8.52472e-06)
(-1.42062e-05 1.37248e-05 4.20351e-06)
(-1.78968e-05 1.50804e-05 6.15667e-06)
(-7.34631e-06 7.19435e-06 7.70305e-06)
(-2.06105e-07 4.13608e-07 -1.39921e-08)
(-2.87532e-07 6.15374e-07 -1.00297e-07)
(-0.000133638 0.00200508 -5.23462e-05)
(-0.000254498 0.00397019 -4.15506e-05)
(-0.000312343 0.00417977 -7.85443e-05)
(-7.63515e-05 0.000793852 -7.79385e-05)
(-0.000165249 0.00379612 6.70882e-05)
(-0.000277087 0.00669287 0.000107542)
(-0.000339558 0.0087595 0.000162508)
(-0.000123172 0.00270712 7.45039e-05)
(-0.000518631 0.00490452 -3.05958e-05)
(-0.00056035 0.00529471 1.74635e-05)
(-0.000624928 0.00449817 3.91227e-05)
(-0.00064944 0.00341011 2.722e-05)
(-0.000527108 0.00961581 0.000174937)
(-0.000563205 0.0082915 0.000140548)
(-0.00062361 0.00724259 0.000136624)
(-0.000645206 0.00738742 0.000154091)
(-0.000708179 0.00161957 7.65844e-05)
(-0.000712589 0.00174009 9.35803e-05)
(-0.00071703 0.00106466 0.000107268)
(-0.0007194 0.000365629 0.00011191)
(-0.000695835 0.00475445 0.000131497)
(-0.000703224 0.0036646 0.000121795)
(-0.000706112 0.00276634 0.000120491)
(-0.000702228 0.00281332 0.000121538)
(-0.00071038 -0.000491949 0.00013542)
(-0.000703636 -0.000361087 0.000138167)
(-0.00069037 0.00153783 0.00012576)
(-0.00069 0.000943889 0.000131026)
(0.00107683 -0.000997147 0.000116839)
(2.90144e-05 -0.000115296 -8.26777e-05)
(1.52434e-05 -2.14908e-05 -1.49569e-05)
(-0.000896615 -0.00154804 -0.000747225)
(0.00794372 -4.10039e-06 0.00250811)
(2.45273e-06 -1.7178e-06 -3.33639e-05)
(-5.5432e-07 -5.95667e-07 -5.66173e-07)
(-1.77015e-07 -7.51633e-08 -1.21278e-07)
(0.00051269 -5.97149e-05 1.70731e-05)
(8.80284e-05 2.34904e-05 -1.84922e-05)
(2.67832e-05 -6.01711e-06 -1.33659e-05)
(1.22629e-05 -5.43385e-06 -6.76278e-05)
(1.44062e-06 -3.5317e-06 9.95316e-07)
(1.55939e-06 1.15217e-06 7.7861e-08)
(0.00013476 1.79663e-05 2.13303e-05)
(4.01353e-05 -2.49352e-06 3.15768e-05)
(0.000121244 -2.40447e-05 1.24078e-05)
(-2.03567e-05 -4.11808e-05 2.5794e-05)
(5.02742e-05 -7.63586e-05 2.63832e-05)
(-1.99066e-05 -8.32945e-06 1.8669e-05)
(-2.05542e-05 4.76396e-06 7.70968e-06)
(-1.88062e-05 -1.69354e-05 2.10712e-05)
(-2.79382e-07 -9.70596e-07 -1.04713e-06)
(-1.95382e-06 -3.08861e-06 1.07566e-06)
(6.20056e-06 -4.29447e-07 -3.9842e-06)
(1.04354e-07 5.01804e-07 1.01992e-09)
(0.00120149 -9.51846e-05 0.000219817)
(0.000231081 0.000115385 -3.52563e-05)
(7.89092e-05 4.66157e-07 1.89373e-05)
(6.54587e-05 3.01744e-05 -1.54512e-05)
(3.67386e-07 3.3456e-07 2.1513e-06)
(-1.38213e-07 -2.33463e-08 8.84675e-07)
(9.70509e-06 1.37951e-06 -8.33006e-07)
(2.67533e-05 4.35552e-06 7.05211e-07)
(-1.91709e-07 1.29169e-07 -4.63937e-07)
(1.63505e-07 -8.42455e-08 2.04578e-08)
(2.00875e-05 -2.49623e-07 8.98326e-06)
(1.19654e-05 3.62049e-06 -1.71816e-06)
(7.17299e-06 -8.86299e-08 3.14844e-06)
(2.09665e-06 3.32499e-06 -8.8344e-07)
(-6.47451e-07 2.18361e-09 2.61276e-07)
(-5.25826e-07 -7.51987e-09 2.33463e-07)
(1.57335e-07 1.49783e-06 -2.59403e-07)
(9.17581e-07 2.15823e-06 -4.14937e-07)
(9.47853e-08 1.53546e-07 -5.37122e-09)
(5.15575e-08 1.30811e-07 -4.48227e-09)
(1.78572e-06 -2.45741e-08 8.57612e-07)
(-1.20168e-07 1.27643e-06 -3.0222e-07)
(3.28299e-07 -4.76141e-08 3.88848e-07)
(-6.78525e-09 2.86912e-06 1.54387e-06)
(-3.25109e-07 -5.89355e-09 1.24483e-07)
(-1.56347e-07 -5.25804e-08 8.09949e-08)
(-0.000100645 0.00174146 9.99735e-06)
(-8.41045e-05 0.00120034 -4.08375e-05)
(-3.56528e-05 0.000194052 -7.46549e-05)
(6.42489e-06 2.42315e-05 1.89331e-05)
(-5.57761e-05 0.000650681 6.10557e-06)
(-4.72087e-07 1.28378e-05 2.49812e-06)
(-0.000111369 -1.61091e-05 -2.6816e-06)
(-0.000106562 -3.56497e-05 -1.46712e-06)
(-8.90292e-05 -6.63937e-06 4.90247e-06)
(-8.21599e-05 -2.32628e-05 4.52538e-06)
(-5.75697e-05 -3.08377e-06 4.24087e-06)
(1.23947e-06 8.86245e-07 -3.40108e-07)
(-7.70554e-07 1.54066e-06 7.5328e-07)
(-8.55398e-05 -1.84453e-05 -2.1072e-06)
(1.07155e-07 -3.27358e-06 2.42959e-07)
(2.2e-07 -2.37761e-06 6.39569e-07)
(-0.000317277 0.00532014 6.45677e-06)
(-0.000326523 0.00679034 8.24125e-05)
(-0.000371819 0.00525275 -2.48755e-05)
(-0.00047545 0.00564187 -4.44153e-06)
(-0.000483443 0.0087985 0.000139705)
(-0.000386175 0.00837117 0.000130224)
(-0.000524313 0.00776021 0.000108191)
(-0.000521754 0.00622039 4.13603e-05)
(-4.61552e-05 4.60847e-07 5.43004e-06)
(-4.07134e-05 -1.25135e-06 2.89521e-06)
(-4.5889e-05 8.77925e-06 5.29944e-06)
(-3.78964e-05 5.26806e-06 4.02113e-06)
(-4.07453e-05 6.12394e-06 3.96521e-06)
(-7.19791e-07 1.6036e-06 2.77366e-07)
(-5.24134e-07 1.41577e-06 1.63301e-07)
(-2.98512e-05 -9.58085e-07 1.67938e-06)
(-8.11077e-08 -9.733e-07 5.21331e-07)
(-9.8413e-08 -6.81562e-07 3.74024e-07)
(-0.000649523 0.00463422 7.12086e-05)
(-0.000647851 0.00593173 0.000113514)
(-0.000670047 0.003525 5.93942e-05)
(-0.000698147 0.00257039 7.76329e-05)
(-0.000690818 0.00475196 0.000125504)
(-0.000665359 0.00598625 0.000130901)
(-0.000700786 0.00366524 0.000114572)
(-0.000705101 0.00264366 9.54953e-05)
(-2.0672e-05 1.20663e-05 2.00937e-06)
(-1.45778e-05 1.0207e-05 1.41085e-06)
(-2.39541e-05 1.47383e-05 2.50289e-06)
(-1.70456e-05 1.3082e-05 2.46119e-06)
(-2.30531e-05 7.8794e-06 1.74251e-06)
(-2.23256e-07 1.00193e-06 4.38984e-08)
(-1.77091e-07 9.18978e-07 3.96146e-08)
(-8.34287e-06 4.82059e-06 6.76982e-07)
(-1.02077e-07 -1.26836e-07 1.41042e-07)
(-9.75794e-08 -1.50535e-08 1.15543e-07)
(-0.000713746 0.00118434 0.000115265)
(-0.000707895 0.00198606 0.000119322)
(-0.000715012 0.000522932 0.000118959)
(-0.000709704 6.6098e-05 0.000129074)
(-0.000696694 0.00145489 0.000125464)
(-0.000702908 0.0020441 0.000121786)
(-0.00069632 0.00086225 0.00012973)
(-0.000703048 0.000190805 0.000132337)
(-9.81453e-06 8.56459e-06 1.6502e-05)
(-4.40922e-08 4.99474e-07 8.1703e-07)
(3.8644e-08 2.73419e-07 5.51312e-07)
(0.000223273 -0.000609009 5.4985e-05)
(0.000767367 -0.000852272 0.000411643)
(9.2507e-05 -1.76598e-05 -8.09023e-06)
(2.05405e-05 -1.15895e-05 -3.99669e-06)
(7.14719e-05 -2.53998e-05 2.18851e-06)
(7.70485e-05 6.52779e-06 1.4599e-05)
(-0.00011113 -1.55032e-05 6.5261e-06)
(-0.000103061 5.23672e-06 -4.58656e-06)
(-0.00012086 -2.19667e-05 1.90572e-06)
(-0.00015794 -2.80194e-05 3.0363e-07)
(-9.88651e-05 -1.78979e-05 -2.77196e-06)
(-4.39737e-05 -8.96072e-06 5.27187e-06)
(-3.87057e-05 -3.19453e-06 5.96016e-06)
(-4.43354e-05 -6.06421e-06 2.51249e-06)
(-5.75489e-05 -1.18344e-05 4.17987e-06)
(-3.53703e-05 -4.1182e-06 4.54926e-06)
(-1.72212e-05 3.6964e-06 1.69247e-06)
(-1.74813e-05 6.1729e-06 1.77716e-06)
(-1.4038e-05 3.46376e-06 5.83173e-07)
(-2.16103e-05 7.60912e-06 1.23826e-06)
(-1.33574e-05 4.94328e-06 1.3202e-06)
(-6.28894e-06 7.09887e-06 3.34454e-06)
(-8.19703e-06 8.09017e-06 5.14259e-06)
(-2.83315e-06 6.21291e-06 3.93522e-06)
(-7.79842e-06 1.18546e-05 7.74878e-06)
(-4.71641e-06 6.43126e-06 7.17555e-06)
(0.000202494 -0.000132632 -3.35878e-05)
(0.000184533 -8.20589e-05 -1.49476e-05)
(0.000219198 -6.45812e-05 1.24445e-05)
(-9.91334e-05 -2.49693e-06 1.43339e-05)
(-0.000114541 2.60479e-05 -2.74999e-06)
(-8.92227e-05 -1.12379e-05 2.11633e-05)