/*--------------------------------*- C++ -*----------------------------------*\
| =========                 |                                                 |
| \\      /  F ield         | OpenFOAM: The Open Source CFD Toolbox           |
|  \\    /   O peration     | Version:  2012                                  |
|   \\  /    A nd           | Website:  www.openfoam.com                      |
|    \\/     M anipulation  |                                                 |
\*---------------------------------------------------------------------------*/
FoamFile
{
    version     2.0;
    format      ascii;
    class       volVectorField;
    location    "0.108/solid";
    object      sigmaMidDir;
}
// * * * * * * * * * * * * * * * * * * * * * * * * * * * * * * * * * * * * * //

dimensions      [1 -1 -2 0 0 0 0];


internalField   nonuniform List<vector> 
24998
(
(0.11903 0.787061 -0.605282)
(0.367239 0.693469 -0.619867)
(0.0462496 0.997734 0.0488629)
(0.981574 0.170382 -0.0864981)
(0.819731 0.568913 -0.0661761)
(0.0123198 0.0408289 0.99909)
(0.130555 0.0404543 0.990615)
(0.149 0.0841668 0.985249)
(0.614421 0.107909 0.781564)
(0.202325 0.794146 -0.573059)
(0.521725 0.827924 -0.205779)
(0.113631 0.0352308 0.992898)
(0.372104 0.723188 -0.58184)
(0.0741235 0.994348 0.076011)
(0.11706 -0.0409187 0.992282)
(0.0646922 0.917539 0.392349)
(0.98647 0.136534 -0.0907471)
(0.979735 0.180983 -0.0858148)
(0.98248 0.16233 -0.0915536)
(0.8914 0.443772 -0.0920413)
(0.806022 0.588028 -0.0674706)
(0.893858 0.439327 -0.0894982)
(0.00785966 0.088651 0.996032)
(0.137669 0.0491528 0.989258)
(0.11796 0.0367049 0.99234)
(0.146645 0.0589686 0.98743)
(0.157102 0.0947716 0.983025)
(0.140578 0.0791965 0.986897)
(0.163959 0.0983911 0.981548)
(0.468288 0.157186 0.869482)
(0.537734 0.145882 0.830398)
(0.536447 0.129149 0.833994)
(0.771632 0.456859 -0.442565)
(0.295845 0.950161 0.0983315)
(0.938421 -0.328499 0.107023)
(0.932337 0.300791 0.200679)
(-0.0989169 0.426291 0.899161)
(-0.221 0.966879 -0.127689)
(0.075253 0.976658 0.201189)
(-0.320942 0.945825 -0.0490994)
(0.998259 0.00223081 -0.058948)
(-0.229691 0.972245 -0.0445138)
(-0.629434 0.758802 -0.167426)
(0.856032 0.512027 -0.0709704)
(0.618038 0.770994 0.153617)
(0.790551 -0.584815 0.181718)
(-0.539611 -0.567318 0.622069)
(0.990659 -0.129622 0.0423435)
(-0.562858 0.776568 0.283078)
(-0.0772144 0.115805 0.990266)
(0.904489 -0.365728 -0.219416)
(0.778532 0.31038 -0.545484)
(-0.290511 0.956404 -0.0299105)
(-0.263241 0.956355 -0.126843)
(0.134459 0.060066 0.989097)
(0.736031 0.647707 -0.19681)
(0.535642 0.835334 -0.123713)
(0.730277 -0.407966 0.54796)
(0.904575 -0.0681824 0.420826)
(0.221115 0.110293 0.968991)
(0.120371 0.95863 0.257953)
(0.862935 0.465002 -0.197776)
(0.915688 -0.103587 0.38831)
(0.0942883 -0.055358 0.994005)
(0.701494 0.514543 -0.493104)
(0.946905 0.231016 0.223611)
(-0.0185491 0.410062 0.911869)
(0.259651 0.964794 0.0418709)
(0.150341 0.972597 0.177348)
(0.294168 0.950877 0.0964268)
(0.956096 0.217841 0.196024)
(0.460874 0.66625 0.586264)
(0.263653 0.962325 0.066474)
(0.356474 0.74583 0.562729)
(0.997365 -0.0665026 -0.0290061)
(-0.160273 0.979308 -0.123564)
(0.895001 0.419595 0.151371)
(0.367979 0.921864 -0.121483)
(0.136318 0.973835 -0.181832)
(0.372372 0.914219 0.15982)
(0.710325 0.455384 0.536716)
(0.989953 0.129721 -0.0562708)
(0.914884 -0.27062 0.299585)
(-0.22488 0.97341 -0.0436216)
(-0.274554 0.960771 -0.0392203)
(0.987324 0.146367 -0.0613799)
(0.953019 0.0481932 0.299052)
(0.943368 -0.0139534 0.331453)
(0.998203 -0.0134283 -0.0583913)
(0.955124 0.0390692 0.293618)
(0.934079 0.345047 -0.0918645)
(0.967076 -0.0623174 0.246739)
(0.801173 -0.566351 0.19331)
(-0.632587 0.756447 -0.166197)
(0.927038 0.363522 -0.0919331)
(0.940704 -0.274324 0.199557)
(0.967541 -0.0751967 0.241267)
(0.841616 0.535648 -0.0690267)
(0.832474 0.517085 0.199022)
(0.905413 -0.382767 0.183621)
(0.940561 -0.295784 -0.166905)
(0.817562 -0.504766 -0.277135)
(0.43804 0.820825 -0.366561)
(-0.094192 -0.537508 0.837982)
(0.374498 0.788441 -0.487968)
(0.582521 0.811102 0.0527477)
(0.978007 0.158306 -0.135801)
(0.594299 0.787628 -0.162637)
(0.15037 0.952012 -0.266573)
(0.575531 0.813893 0.0796407)
(0.76033 0.350961 -0.546557)
(0.867337 0.480378 0.130242)
(-0.401639 0.915374 -0.0278733)
(0.718304 -0.636467 -0.280978)
(0.983312 0.147783 0.106105)
(-0.523081 0.807621 -0.272276)
(-0.589474 0.793685 0.150282)
(0.880575 -0.309606 0.358793)
(0.462357 0.883813 0.0714096)
(0.534545 0.836874 -0.117913)
(0.995573 -0.0578229 0.074105)
(0.978277 0.11049 -0.175405)
(0.399524 0.909492 -0.114911)
(-0.298346 0.954292 -0.0177859)
(-0.461692 0.864415 0.199067)
(0.341338 0.939022 0.0415372)
(0.360927 0.929799 -0.0721465)
(-0.0653638 0.0959805 0.993235)
(0.00699011 0.0609557 0.998116)
(-0.0239807 0.0875745 0.995869)
(0.906957 0.405392 0.114398)
(-0.398805 0.915536 -0.0524246)
(0.981741 0.15702 0.107373)
(-0.401007 0.890295 -0.215796)
(-0.563809 0.819665 0.101332)
(-0.590459 0.792999 0.150033)
(0.978485 -0.206212 0.00657567)
(0.469449 0.878991 0.083619)
(0.995603 -0.0602463 0.0717262)
(0.419576 0.892911 0.163294)
(0.894048 -0.406025 -0.189268)
(0.51438 0.84992 -0.114228)
(0.882655 0.454365 0.120301)
(0.737254 -0.536783 0.410268)
(-0.416746 0.875143 -0.245861)
(0.996068 -0.0136427 0.0875352)
(-0.558056 0.824461 0.094012)
(0.830918 -0.555013 0.0391973)
(0.97082 -0.2398 -0.0018926)
(0.523239 0.804242 0.281809)
(0.416298 0.891475 0.1788)
(-0.635964 0.765341 -0.0990093)
(0.340133 0.939178 0.0474699)
(0.279894 0.954315 0.104608)
(0.654537 -0.547674 0.521186)
(-0.271637 0.950968 -0.147896)
(0.460132 0.83958 0.288763)
(0.281158 0.952442 0.11749)
(0.150022 0.0805657 0.985395)
(0.15003 0.0849361 0.985026)
(0.133661 0.065523 0.988859)
(0.952565 0.300491 0.0482068)
(0.779631 -0.478666 0.403801)
(0.995784 0.032605 0.0857337)
(0.894739 -0.297221 0.333318)
(0.92027 -0.391228 -0.00655507)
(0.872673 -0.487768 0.0229065)
(0.87683 -0.46093 0.136797)
(0.544113 0.786772 0.291431)
(-0.662827 0.740082 -0.113748)
(0.566807 0.766144 0.302907)
(0.745048 0.636906 -0.198126)
(0.8583 0.47361 -0.197524)
(0.950229 0.308277 0.0450543)
(0.849964 -0.379459 0.365474)
(0.89759 -0.292316 0.329976)
(0.922185 0.386363 -0.0172901)
(0.919227 -0.393727 -0.000150662)
(0.899142 -0.41475 0.139735)
(0.880234 -0.455176 0.134176)
(0.155852 0.970305 0.184983)
(0.541375 0.787113 0.295578)
(0.900367 -0.421778 0.106971)
(0.523769 0.784086 0.33298)
(0.825009 0.328913 0.459539)
(0.920741 -0.0780867 0.382281)
(0.911434 -0.0578681 0.407357)
(0.129544 0.986183 0.103252)
(0.830655 0.319564 0.45595)
(0.219407 0.119287 0.968314)
(0.260099 0.132139 0.956498)
(0.274996 0.12546 0.953224)
(0.218726 0.96347 -0.154543)
(0.822186 -0.424114 0.379656)
(0.92146 0.387758 -0.0235677)
(0.0944749 -0.0553211 0.993989)
(-0.192748 0.972757 -0.128812)
(0.896441 -0.414869 0.155815)
(-0.472463 0.864002 -0.174009)
(0.104981 0.978676 0.176559)
(0.899779 -0.423166 0.10643)
(0.0817338 0.098905 0.991735)
(0.0867274 0.991922 0.0925697)
(0.077594 0.094678 0.992479)
(0.813319 0.539666 -0.217422)
(-0.634469 0.757261 0.154937)
(0.897533 0.335933 -0.285629)
(0.436099 0.847063 -0.303813)
(0.22699 0.796005 -0.561116)
(0.526472 0.849846 -0.024274)
(-0.196488 -0.318924 0.927189)
(-0.277252 -0.568191 0.774784)
(0.511263 0.852273 0.110638)
(-0.307475 -0.452183 0.837251)
(-0.112739 0.992295 0.0513808)
(-0.405389 0.909553 0.091504)
(-0.242127 0.967486 0.0731139)
(0.0214785 0.999764 0.00312019)
(0.923346 0.375941 -0.0781101)
(0.0434448 0.999043 0.0050333)
(0.172136 0.98498 -0.0135501)
(0.986384 0.162904 -0.0225363)
(0.824387 0.552645 -0.122349)
(0.655979 -0.642148 -0.396657)
(0.0357832 0.0120953 0.999286)
(0.0726085 0.0988116 0.992454)
(-0.057748 0.0958147 0.993723)
(0.328004 -0.313013 0.891312)
(-0.118532 0.35701 0.92655)
(-0.0331774 0.064361 0.997375)
(0.688448 -0.678178 -0.257126)
(0.0819868 0.0140414 0.996534)
(0.0619636 0.173991 0.982796)
(0.134895 0.0469564 0.989747)
(0.709635 -0.688382 -0.150159)
(0.0996873 0.203197 0.97405)
(0.0871652 0.0169975 0.996049)
(0.608962 0.683634 0.402255)
(0.0901988 0.0533313 0.994495)
(0.44092 0.500886 0.744784)
(0.163012 0.0904374 0.98247)
(-0.0567356 0.23239 0.970967)
(0.57291 0.596406 0.562206)
(0.103201 0.0598107 0.992861)
(0.563975 -0.359594 0.743387)
(0.779555 0.150923 0.607879)
(0.690221 0.440902 0.57376)
(0.673011 0.0197653 0.739368)
(0.745149 0.663199 0.0701409)
(0.482989 0.12279 0.866974)
(0.834329 0.0619298 0.547777)
(0.885729 0.439715 -0.148777)
(0.318236 0.727609 -0.607709)
(0.584467 0.809819 0.0509064)
(-0.189126 -0.356657 0.914892)
(0.0357488 0.726771 -0.685948)
(0.469423 0.882251 -0.0357147)
(-0.22829 -0.297053 0.927169)
(0.868816 0.492757 -0.0484662)
(0.0370989 0.9989 0.0286859)
(-0.443827 0.896102 0.00428585)
(-0.36202 0.787104 -0.499409)
(0.259114 -0.0573911 0.96414)
(0.0804327 0.144642 0.98621)
(0.317135 0.135885 0.938595)
(0.445239 0.891961 -0.0785319)
(0.745926 0.664326 0.0475957)
(0.120514 0.101029 0.987557)
(0.952282 0.26135 -0.157655)
(-0.608725 0.684611 0.400951)
(0.92969 0.358613 -0.0840973)
(0.441049 0.896277 -0.0465121)
(-0.0534911 0.997944 0.0353121)
(0.254705 0.939792 -0.22785)
(0.563328 0.815576 -0.132278)
(0.266573 -0.157902 0.950792)
(0.137837 -0.0620514 0.988509)
(0.146144 -0.0347419 0.988653)
(0.365781 -0.375547 0.851568)
(0.154651 0.87342 -0.461758)
(0.280771 -0.15825 0.946639)
(0.180582 0.980257 0.0805359)
(0.9869 -0.0705872 -0.145072)
(0.73019 0.333857 0.596123)
(0.989857 0.113727 -0.085139)
(0.986434 0.157731 0.0454927)
(0.972792 0.218262 0.0777022)
(0.996627 0.0081519 -0.0816597)
(0.0180687 0.999834 0.00247007)
(0.0018758 0.999991 -0.00383123)
(0.985132 0.16729 0.0391063)
(0.963752 0.250437 -0.0919985)
(0.977975 0.207561 0.0219795)
(0.899783 0.42644 -0.0924123)
(0.998696 0.0398669 -0.0318747)
(0.986602 0.161955 -0.0196939)
(0.764814 0.641248 -0.0621358)
(0.130578 0.991417 -0.00638347)
(0.0531826 0.998557 0.00742574)
(0.999149 -0.0226025 -0.034497)
(0.94105 0.338199 0.00683793)
(0.984501 -0.174155 -0.0206966)
(0.547179 0.461571 0.698246)
(0.00276838 0.137394 0.990513)
(0.174587 0.19041 0.966056)
(-0.0684175 0.116662 0.990812)
(-0.0760018 0.346114 0.935109)
(0.74612 0.647129 0.156614)
(-0.0697532 0.104934 0.99203)
(0.454507 0.437499 0.775898)
(0.116874 0.0410454 0.992298)
(0.139641 0.0646738 0.988088)
(0.0861165 0.180984 0.979708)
(-0.00861761 0.198925 0.979977)
(0.578605 0.603027 0.549157)
(0.130203 0.0468954 0.990378)
(0.715572 -0.684319 -0.140229)
(0.0904298 0.0402316 0.99509)
(0.068195 0.0161666 0.997541)
(0.0414796 0.174292 0.98382)
(0.714416 -0.685656 -0.139591)
(-0.163212 0.299304 0.940095)
(0.0414763 0.0269974 0.998775)
(0.637156 0.682137 0.358777)
(0.14379 0.0770504 0.986604)
(0.101327 0.191824 0.976185)
(0.149694 0.0678169 0.986404)
(0.143944 0.240979 0.959796)
(0.59419 0.623833 0.507711)
(0.145272 0.0853714 0.985702)
(0.667205 0.716409 0.203952)
(0.153019 0.0916224 0.983967)
(0.148039 0.102625 0.983642)
(0.495196 0.548093 0.674073)
(0.371941 0.45364 0.809858)
(0.674275 0.718975 0.168607)
(0.146346 0.100943 0.98407)
(-0.206174 0.284786 0.936157)
(0.135925 0.0747431 0.987896)
(0.0836211 0.0481048 0.995336)
(0.393277 0.46384 0.793842)
(-0.0789289 0.237029 0.968291)
(0.271904 0.365967 0.89002)
(0.0810832 0.0432886 0.995767)
(0.679806 0.720062 0.139194)
(0.151291 0.10481 0.982917)
(0.533659 0.574239 0.620853)
(0.175005 0.103109 0.979154)
(0.624043 0.624821 0.469222)
(0.674447 0.719957 0.163659)
(0.15713 0.107993 0.981656)
(0.683665 0.712889 0.156176)
(0.390535 0.159074 0.90674)
(0.382482 0.192054 0.903782)
(0.714697 0.511683 0.476853)
(0.726952 0.59566 0.341656)
(0.676088 0.689757 0.259114)
(0.312324 0.17611 0.933509)
(0.725991 0.685942 0.0491932)
(0.444137 0.153491 0.882714)
(0.690806 0.196371 0.695863)
(0.710763 0.499702 0.49509)
(0.741878 0.667266 0.0661281)
(0.720521 0.593309 0.358934)
(0.548616 0.192024 0.813725)
(0.546157 0.565698 0.617817)
(0.450327 0.184751 0.87354)
(0.69436 0.460227 0.553223)
(0.591175 0.0553769 0.80464)
(0.473729 0.190511 0.859818)
(0.670136 0.685356 0.284966)
(0.507187 0.136527 0.850954)
(0.90052 0.313049 -0.301767)
(0.732435 0.678482 -0.0565812)
(0.859856 0.448724 -0.243503)
(0.862018 0.422382 -0.280211)
(0.837299 0.462737 -0.291213)
(0.653931 0.756 -0.0289438)
(0.706054 0.625627 0.331781)
(0.777264 0.561622 -0.283621)
(0.903692 0.398023 0.157857)
(0.931994 -0.360399 0.0387184)
(0.808916 0.477918 0.342416)
(0.941114 0.33283 -0.0594067)
(0.54932 0.832789 -0.0686387)
(0.963523 0.106861 0.245366)
(0.326232 0.45793 0.826966)
(0.605555 0.766963 0.212298)
(-0.153149 -0.176981 0.972226)
(-0.216355 0.00534585 0.9763)
(-0.266293 0.812869 0.518007)
(0.337994 0.908701 -0.244995)
(-0.26842 -0.193846 0.943597)
(0.538531 0.837178 -0.0954883)
(-0.332768 -0.23787 0.912515)
(-0.109456 0.790724 0.602309)
(-0.16185 -0.178591 0.97052)
(0.889388 -0.453214 0.059882)
(0.982354 0.0283374 0.18487)
(0.848729 0.389726 0.357454)
(0.667031 -0.355081 0.654971)
(0.965423 0.243727 0.0924978)
(-0.365125 0.929152 -0.0579654)
(-0.357751 0.931613 -0.0641258)
(-0.0156317 0.999695 0.0190979)
(-0.00367385 0.999875 0.0154102)
(-0.553148 0.827561 0.0957571)
(-0.0748005 0.997155 0.00933463)
(-0.206974 0.976639 0.0577815)
(-0.00413084 0.99999 -0.00163348)
(0.0129779 0.999869 0.00968291)
(-0.432998 0.896419 -0.0945808)
(-0.433617 0.89625 -0.0933431)
(0.0146272 0.999888 0.00332066)
(0.0309787 0.999506 0.0053064)
(0.919653 0.384936 -0.0778607)
(0.0516554 0.998642 0.00676807)
(0.0449079 0.998977 0.00539721)
(0.0378443 0.99926 0.00681649)
(0.0320339 0.999471 0.00564126)
(0.883775 -0.296396 -0.362065)
(-0.655936 0.75098 -0.0760098)
(-0.0670322 -0.0518035 0.996405)
(-0.60259 0.795453 -0.0643392)
(-0.62363 0.656153 0.424911)
(0.894174 -0.195908 -0.402582)
(0.0993723 0.995043 -0.00380175)
(0.747586 0.653955 -0.116011)
(0.997169 0.0638606 -0.0397028)
(0.929508 -0.173766 -0.325301)
(0.981594 -0.00839014 0.190794)
(0.965737 -0.134594 -0.221892)
(0.79839 0.595292 -0.0905598)
(0.763804 -0.393382 -0.511717)
(0.887391 -0.310371 -0.340891)
(0.954675 -0.145782 -0.259507)
(0.993558 -0.00879824 0.11298)
(0.921304 -0.167467 -0.350934)
(0.751336 0.652722 -0.0972034)
(0.0646155 -0.0175599 0.997756)
(-0.0213534 0.0199729 0.999572)
(0.53734 0.530057 0.655977)
(-0.0201708 0.743763 0.668139)
(0.66282 -0.65024 -0.37129)
(-0.0897771 0.121089 0.988573)
(-0.366762 0.507065 0.779981)
(-0.0725421 0.093999 0.992926)
(-0.184301 0.411619 0.892526)
(0.704491 -0.672618 -0.226446)
(-0.0700735 0.091525 0.993334)
(-0.49157 0.807709 0.325522)
(-0.170329 0.799588 0.575888)
(-0.0519766 0.0370887 0.997959)
(-0.046042 0.0427672 0.998024)
(0.900377 -0.0600524 -0.430948)
(0.889688 -0.0117922 -0.456417)
(-0.426717 0.89661 -0.118336)
(-0.539345 0.841776 -0.0228331)
(-0.611981 0.790869 0.00236587)
(-0.267187 0.961391 -0.065861)
(-0.58484 0.80741 -0.0777888)
(-0.634312 0.772585 0.0275761)
(-0.555085 0.831686 -0.0133807)
(-0.517869 0.832372 -0.197405)
(-0.262037 0.961818 -0.0790171)
(-0.578014 0.811014 -0.0903076)
(0.0210206 0.00737852 0.999752)
(0.0354064 -0.00554936 0.999358)
(0.648421 -0.612715 -0.451808)
(-0.195817 0.481466 0.854311)
(0.675279 -0.673201 -0.301328)
(0.135352 0.0538004 0.989336)
(0.153693 0.261766 0.952815)
(0.0854866 0.0277581 0.995953)
(0.110058 0.216488 0.970062)
(-0.52897 0.555803 0.641306)
(0.0874311 0.0220578 0.995926)
(0.226818 0.619926 0.751163)
(-0.0726654 0.482045 0.873128)
(0.0318868 -0.000750588 0.999491)
(0.0296533 0.00588909 0.999543)
(0.657585 0.732269 -0.177099)
(0.644315 0.744909 -0.173114)
(0.682668 -0.192706 0.70486)
(0.6064 -0.288278 0.741063)
(0.523504 -0.601449 0.603493)
(0.848257 -0.16794 0.502251)
(0.612415 -0.421332 0.668899)
(0.495833 -0.552398 0.670079)
(0.593996 -0.30936 0.742607)
(0.714427 -0.29692 0.633588)
(0.868614 -0.129489 0.47827)
(0.626106 -0.400545 0.668996)
(0.0165358 0.01955 0.999672)
(0.0237308 0.014814 0.999609)
(0.602616 0.773954 0.194549)
(0.620027 0.771722 0.141462)
(0.647711 0.694883 0.312425)
(0.185475 0.0986312 0.977687)
(0.672121 0.634638 0.38143)
(0.169628 0.0836107 0.981955)
(0.604859 0.615771 0.504947)
(0.710501 0.699279 0.0787184)
(0.126921 0.0689282 0.989515)
(0.643176 0.757803 0.109813)
(0.624239 0.770238 0.130612)
(0.0643531 0.0186183 0.997753)
(0.0285091 0.0215286 0.999362)
(0.88185 0.395009 -0.257503)
(0.884814 0.40126 -0.236844)
(0.0961319 -0.191322 0.976808)
(0.789531 -0.175182 0.588177)
(0.822926 -0.236493 0.516589)
(0.69131 -0.605857 0.393736)
(0.799956 -0.261873 0.539902)
(0.789689 -0.135075 0.598454)
(0.794563 -0.162069 0.585153)
(0.123982 -0.129041 0.983858)
(-0.209839 0.945509 -0.248959)
(0.789123 -0.268214 0.552581)
(0.957413 0.143846 0.250338)
(0.996536 0.0449781 0.0699477)
(0.660127 0.717605 0.221982)
(0.33679 0.147422 0.929967)
(0.559229 -0.484039 0.67303)
(0.74814 -0.0637962 0.660467)
(0.326713 -0.00846734 0.945086)
(0.949715 0.00308735 0.313101)
(0.204717 -0.0705 0.976279)
(0.998965 0.0409791 0.0197379)
(-0.3131 -0.658004 0.684835)
(0.674737 0.736768 -0.043631)
(0.513938 0.855761 -0.0595019)
(-0.071179 -0.106636 0.991747)
(0.676763 0.735829 -0.0233908)
(0.204001 0.978246 0.0376647)
(0.272178 0.85561 0.440285)
(0.456953 0.888386 0.0443233)
(0.88015 0.474636 0.00754552)
(-0.148502 0.0317619 0.988402)
(-0.460314 0.699714 0.546362)
(0.172395 0.372275 0.911971)
(-0.221533 -0.464954 0.85717)
(0.770556 0.485828 0.412571)
(0.0496313 0.146811 0.987919)
(-0.415958 0.87721 0.239752)
(0.311427 0.884555 -0.347239)
(0.602827 0.797809 -0.0100655)
(0.224393 0.974174 0.0251513)
(0.488232 0.872701 0.00479031)
(0.567298 0.318921 0.759251)
(0.0325253 0.111607 0.99322)
(0.221681 0.928879 0.296717)
(0.769192 0.362425 0.5263)
(0.310537 0.906957 0.284597)
(0.140613 0.819208 0.555992)
(0.181562 0.981311 0.0637456)
(-0.372882 0.927376 -0.0305394)
(0.03546 0.998328 0.0456465)
(0.797743 0.301919 0.521968)
(-0.358408 0.930838 0.0712985)
(0.239955 0.968781 0.0623283)
(0.829087 0.354532 0.432344)
(-0.281836 0.959306 0.0173383)
(0.600772 -0.493795 0.628681)
(0.602635 0.02189 0.797716)
(-0.381089 0.88488 0.267878)
(0.365429 0.410998 0.83519)
(0.728289 0.507121 0.460893)
(0.178993 0.980868 -0.0765436)
(0.235864 0.0323147 0.971249)
(-0.0503663 0.0545997 0.997237)
(-0.0224157 0.043383 0.998807)
(0.765343 0.55902 0.318977)
(0.299739 0.952828 -0.0476976)
(-0.358881 0.929709 0.0827434)
(0.0807012 0.996656 0.0127963)
(0.0841662 -0.183614 0.979389)
(-0.03144 0.00832578 0.999471)
(0.998825 -0.00868982 -0.0476708)
(0.894117 -0.447772 0.00746553)
(0.997726 -0.0473902 -0.047937)
(-0.0781258 0.995094 0.0607014)
(0.972378 0.215082 -0.0906652)
(0.826157 -0.562595 0.0308579)
(-0.20934 0.94727 -0.242603)
(0.958025 -0.28602 -0.0195056)
(0.66877 0.610037 0.424972)
(0.975234 0.114237 0.189388)
(0.333502 0.849717 -0.40836)
(-0.0285892 0.999262 0.0256576)
(0.423192 0.901741 -0.0881583)
(0.981124 0.122408 0.149707)
(0.669699 0.726278 -0.154998)
(0.00345864 0.982994 -0.183606)
(0.580233 0.808359 -0.0994286)
(0.482273 -0.350351 0.802911)
(-0.222342 0.920413 0.321564)
(-0.458978 0.664236 -0.590025)
(0.53817 0.839599 -0.0738004)
(0.124685 0.973064 -0.193909)
(0.461961 -0.311589 0.830364)
(0.115362 -0.0519966 0.991962)
(0.283623 -0.127249 0.950455)
(0.747419 0.646111 0.154615)
(0.327376 0.941684 -0.0778228)
(-0.0586613 0.898573 0.434885)
(0.220353 0.972614 0.0739433)
(0.575799 -0.299802 0.760641)
(0.359617 -0.169764 0.917527)
(0.317385 0.935934 0.152625)
(0.960735 -0.10648 0.256222)
(0.800398 0.393321 0.452395)
(0.996971 -0.0140551 -0.0764973)
(0.904965 0.347783 0.245123)
(0.79538 0.353039 0.492681)
(0.865365 -0.444501 0.231436)
(0.849613 0.425987 0.310953)
(0.780875 0.470928 0.41044)
(-0.159621 0.986923 -0.0224444)
(-0.180392 0.983241 -0.0263926)
(0.988533 0.127519 -0.0808818)
(0.919951 0.344286 0.187504)
(0.964397 0.24619 0.0965844)
(0.983672 0.151369 0.0973508)
(0.945051 0.0690157 0.319555)
(0.965155 0.223596 0.135945)
(0.87276 0.414538 0.257775)
(0.941931 0.0829893 0.325391)
(0.953199 0.258562 0.156711)
(0.995536 0.0509974 -0.0794131)
(-0.0479199 0.99885 0.00143337)
(-0.00540978 0.99998 -0.0032735)
(0.0121756 0.999922 0.0027198)
(-0.00171733 0.999993 -0.00324261)
(-0.0004716 0.999987 -0.00516422)
(-0.00622934 0.999976 -0.00298053)
(0.982921 0.160706 0.0896688)
(0.960584 0.0347823 0.275804)
(0.97793 0.197961 0.0668104)
(0.956122 0.278182 -0.0919018)
(0.978258 0.207384 0.00151132)
(0.976689 0.214021 0.0165476)
(0.963433 0.00460454 0.26791)
(0.984331 0.171942 0.0391023)
(0.978101 0.199507 0.0592985)
(0.768065 -0.606628 0.205133)
(0.75877 -0.618222 0.205109)
(0.906623 0.411716 -0.0923323)
(0.979463 0.201602 -0.00298808)
(0.984056 0.177175 -0.0156023)
(0.998836 -0.0481964 -0.00184651)
(0.96753 -0.120105 0.222395)
(0.994496 0.103905 0.0134786)
(0.986492 0.160367 0.0334132)
(0.968231 -0.104435 0.227203)
(0.992187 0.12342 0.0182578)
(0.787036 0.613428 -0.0654193)
(0.051466 0.99865 0.00705923)
(0.0523717 0.998599 0.00755422)
(0.0768899 0.99704 0.000213345)
(0.0386515 0.999224 0.0075355)
(0.0377519 0.999262 0.00706822)
(0.0385212 0.999229 0.00753213)
(0.927338 -0.373013 -0.0301017)
(0.909896 -0.282594 0.303694)
(0.963172 -0.266927 0.0323914)
(0.99197 -0.126282 -0.00695164)
(0.758381 -0.643989 0.100679)
(0.961577 -0.274282 -0.0117839)
(0.930222 0.351791 0.104545)
(0.969975 -0.202719 -0.134366)
(-0.613877 0.787571 0.0537305)
(0.971945 -0.235193 0.00273386)
(0.970685 -0.240233 -0.00772159)
(0.886983 -0.446368 -0.118396)
(0.958191 -0.24511 -0.147616)
(0.964223 -0.26466 -0.0151194)
(0.909136 -0.384656 0.159721)
(-0.645484 0.74896 -0.149698)
(0.663241 -0.604122 -0.441756)
(0.965281 -0.257345 0.044797)
(0.938292 -0.345558 -0.0140515)
(-0.350225 0.93588 0.0383455)
(-0.37418 0.927269 0.0127296)
(0.610382 0.784432 -0.110002)
(0.853227 0.518757 -0.053796)
(0.84012 0.525652 -0.133748)
(0.908277 0.386584 -0.159952)
(0.963362 0.228368 -0.140646)
(0.886595 0.446908 -0.119256)
(0.599661 0.789615 -0.130057)
(0.840698 0.497409 -0.214036)
(0.840492 0.518808 -0.156244)
(0.849477 0.522547 -0.0730353)
(0.953169 0.259152 -0.155915)
(0.878614 0.464617 -0.110309)
(0.625757 0.644465 -0.439424)
(0.64105 0.607778 -0.46868)
(0.869609 -0.489191 -0.0668698)
(0.98994 0.113374 0.084646)
(0.319482 0.937064 0.140866)
(-0.432431 0.898434 0.0762888)
(0.0486294 0.997294 -0.0551376)
(-0.123667 0.990442 0.0610764)
(0.791322 -0.590151 -0.159788)
(-0.465539 0.875763 0.127721)
(-0.231175 0.966451 0.111941)
(0.990029 0.109124 0.0890755)
(0.674689 0.737744 -0.0229823)
(0.45942 0.884388 0.0824078)
(-0.580212 0.803621 0.132466)
(-0.581297 0.802024 0.137296)
(0.517311 0.851849 -0.0821205)
(0.99273 -0.0703221 0.0976815)
(0.123914 0.99122 -0.0461345)
(0.446237 0.89475 0.01719)
(0.919112 -0.383051 0.0922251)
(0.318287 0.947843 0.0169659)
(0.517906 0.850061 -0.0957615)
(0.451453 0.892253 -0.00867842)
(0.356565 0.934261 -0.00425815)
(0.993697 -0.0621768 0.0932744)
(0.910318 -0.404601 0.0872838)
(-0.688828 0.70845 -0.153669)
(0.480003 0.872644 -0.089938)
(0.638191 0.669409 -0.380268)
(0.834333 0.432242 -0.342135)
(0.977727 0.153492 -0.143145)
(0.801228 0.524299 -0.288349)
(0.574514 0.806061 -0.142125)
(0.708026 0.623634 -0.33133)
(0.758749 0.578924 -0.298574)
(0.977724 0.12929 -0.16535)
(0.695499 0.597048 -0.39977)
(-0.598376 0.720026 0.351438)
(-0.613685 0.786199 0.0726828)
(-0.321744 0.946356 0.0298432)
(-0.612569 0.790272 0.0151287)
(-0.603206 0.779919 0.16694)
(0.72495 -0.458418 -0.514102)
(-0.335134 0.940592 0.054505)
(-0.603271 0.770332 0.206526)
(-0.639328 0.768317 0.0307999)
(-0.622849 0.779898 0.0617935)
(0.487462 0.870893 -0.062667)
(0.595825 0.802192 0.0384742)
(0.326999 0.94492 0.0140684)
(0.635236 0.766494 0.0946664)
(0.596467 0.801611 0.0405833)
(0.567936 0.815253 -0.113187)
(0.325092 0.945682 -0.000229658)
(0.589351 0.807385 0.0281907)
(0.664513 0.745504 0.0514394)
(0.610866 0.790515 0.0439114)
(-0.0551455 0.0603084 0.996655)
(-0.0374346 -0.0113484 0.999235)
(0.575864 0.495697 0.650127)
(0.0696959 0.541935 0.837525)
(0.479361 0.435709 0.761821)
(-0.0960094 0.119936 0.988128)
(-0.273558 0.426684 0.862037)
(-0.00681647 0.0166591 0.999838)
(-0.138755 0.382227 0.913592)
(0.390615 0.331075 0.858958)
(-0.073606 0.0613244 0.9954)
(-0.436691 0.744094 0.505594)
(-0.0640331 0.603679 0.794652)
(0.0813311 -0.00321062 0.996682)
(0.000887381 -0.0102469 0.999947)
(0.432698 0.409085 0.803382)
(0.0748388 0.0417539 0.996321)
(-0.27198 0.407075 0.871961)
(0.0664751 0.00688451 0.997764)
(0.379246 0.329421 0.86467)
(-0.0886339 0.247791 0.964751)
(0.109243 0.0247833 0.993706)
(0.110418 0.049373 0.992658)
(0.114437 0.0477364 0.992283)
(-0.399274 0.567906 0.719766)
(-0.65996 0.667609 0.344603)
(-0.524575 0.743717 0.414374)
(-0.656026 0.685166 0.316509)
(0.0959402 0.0150783 0.995273)
(0.107936 0.0340429 0.993575)
(0.718726 -0.680437 -0.142962)
(0.0412913 0.0571976 0.997509)
(-0.403503 0.513627 0.757214)
(-0.0437839 0.0757519 0.996165)
(0.704822 -0.676493 -0.213503)
(-0.310001 0.405384 0.859978)
(0.000947058 0.0487971 0.998808)
(0.0228725 -0.00242665 0.999735)
(-0.0119026 0.0231013 0.999662)
(0.714596 -0.622574 -0.31899)
(0.730596 -0.655113 -0.192499)
(-0.569114 0.775134 0.274365)
(0.711111 -0.675524 -0.194907)
(-0.0550196 0.0475195 0.997354)
(-0.0147634 0.0161654 0.99976)
(0.961365 0.252165 0.110412)
(0.0744049 0.927404 -0.366587)
(0.678764 0.713372 -0.174299)
(0.0683796 0.993909 -0.0864225)
(-0.390077 0.913258 -0.117478)
(-0.01177 0.984749 -0.173582)
(0.965008 0.237879 0.110335)
(0.70342 0.70911 -0.048613)
(0.706326 0.694956 -0.134682)
(-0.308919 0.909829 -0.277093)
(-0.387884 0.911066 -0.139659)
(-0.0732617 0.976827 -0.201102)
(-0.588173 0.797238 0.135881)
(-0.589653 0.795601 0.139028)
(0.993749 -0.101253 0.0470129)
(0.882594 -0.458841 -0.102437)
(0.92459 -0.380695 -0.0142982)
(0.934352 -0.349686 0.0685954)
(0.464791 0.878149 0.113242)
(0.939705 -0.341977 -0.00231428)
(0.994225 -0.0944973 0.0508684)
(0.919251 -0.38809 0.0660609)
(0.926659 -0.375839 0.00698079)
(-0.296099 0.935726 0.191681)
(0.453366 0.882694 0.123737)
(0.933577 -0.357196 -0.0290802)
(-0.213265 0.976962 0.00791435)
(0.0973877 0.995148 -0.0139929)
(-0.482787 0.81844 -0.311564)
(-0.607357 0.794226 0.0179449)
(0.76426 -0.586816 0.267497)
(-0.572565 0.729123 -0.374898)
(0.833566 -0.45585 0.312038)
(0.714033 -0.61832 0.328386)
(-0.396648 0.868064 -0.298556)
(-0.519605 0.781557 -0.345224)
(-0.649434 0.685233 -0.329684)
(-0.692362 0.721365 -0.016347)
(0.871896 -0.408289 0.270366)
(0.800477 -0.536639 0.266938)
(-0.514769 0.857245 0.0119672)
(-0.515844 0.85667 -0.00477354)
(0.807172 -0.570185 -0.152845)
(-0.683974 0.728297 0.0420025)
(0.149421 0.967004 0.20634)
(0.457922 0.855218 0.242715)
(0.323766 0.921965 0.212498)
(0.30615 0.92979 0.20436)
(0.152473 0.970284 0.187883)
(0.440012 0.86873 0.227369)
(0.289598 0.935981 0.200183)
(-0.634931 0.771918 0.0316913)
(0.211153 0.95947 0.186633)
(0.195754 0.95959 0.202159)
(0.469347 0.870394 0.148751)
(0.581824 0.810954 0.0619258)
(0.637563 0.763922 0.0996788)
(0.310273 0.948355 0.0659815)
(0.624596 0.768941 0.136415)
(0.663562 0.746408 0.0505937)
(0.598123 0.799373 0.0570238)
(0.575837 0.784251 0.231003)
(0.29788 0.951727 0.0740532)
(0.618829 0.772242 0.143848)
(-0.414327 0.89975 -0.137051)
(-0.379397 0.868324 -0.319486)
(-0.39264 0.867914 -0.304234)
(-0.512777 0.629292 -0.583996)
(-0.473182 0.782016 -0.405647)
(-0.509748 0.8326 -0.216644)
(-0.341925 0.906411 -0.248006)
(-0.47351 0.795129 -0.378891)
(0.479427 -0.599191 0.641186)
(-0.384125 0.851726 -0.356386)
(0.461019 0.870712 0.171235)
(0.530754 0.729678 0.431127)
(0.336876 0.922178 0.190008)
(0.74451 0.487036 0.456619)
(0.64035 0.650696 0.408102)
(0.573821 0.78018 0.249097)
(0.314008 0.934542 0.167424)
(0.624926 0.675229 0.391833)
(0.723975 0.351887 0.593326)
(0.558604 0.680007 0.474924)
(0.115895 0.0600409 0.991445)
(0.106444 0.0534476 0.992881)
(-0.214534 0.510107 0.832926)
(0.10988 0.536286 0.836854)
(0.640822 0.688486 0.33961)
(0.150227 0.0749805 0.985804)
(0.219255 0.321385 0.921216)
(0.145509 0.0946958 0.984815)
(0.158338 0.258993 0.952813)
(0.655993 0.705483 0.268268)
(0.145575 0.0909332 0.985159)
(0.419261 0.71135 0.564094)
(0.204945 0.584953 0.784747)
(0.100413 0.0534005 0.993512)
(0.112141 0.0634054 0.991667)
(0.666674 0.714873 0.210955)
(0.150866 0.0884811 0.984586)
(0.24231 0.343303 0.90743)
(0.145404 0.0973425 0.984572)
(0.657207 0.70821 0.257909)
(0.336032 0.424342 0.840843)
(0.145616 0.0992928 0.984346)
(0.0869189 0.0488388 0.995018)
(0.100722 0.0620254 0.992979)
(0.619029 0.752751 0.223984)
(0.580286 0.756331 0.302047)
(0.47166 0.732243 0.491281)
(0.558606 0.75687 0.339275)
(0.106712 0.0634614 0.992263)
(0.0935861 0.0515135 0.994278)
(-0.240126 0.312473 0.919076)
(0.133901 0.0703178 0.988497)
(0.170437 0.278427 0.945214)
(0.0829961 0.0332665 0.995994)
(-0.467378 0.504161 0.726209)
(0.241778 0.340396 0.908666)
(0.081223 0.0384421 0.995954)
(0.0184482 0.0111442 0.999768)
(0.0186971 0.0156863 0.999702)
(0.589884 0.776888 0.220188)
(0.539204 0.774347 0.331127)
(0.330629 0.682781 0.651532)
(0.505784 0.767653 0.393563)
(0.0253822 0.0104308 0.999623)
(0.0237822 0.00569248 0.999701)
(0.972428 0.223213 0.0675202)
(0.949635 -0.0943009 0.298832)
(0.931133 -0.225974 0.286229)
(0.855892 -0.415959 0.30729)
(0.857788 -0.359685 0.367187)
(0.895548 -0.327334 0.301407)
(0.975205 0.20997 0.0699109)
(0.888059 -0.370175 0.272619)
(0.922789 -0.262298 0.28224)
(0.917454 -0.244508 0.313837)
(0.872206 -0.335728 0.355731)
(0.903379 -0.304105 0.302368)
(0.928734 -0.369677 -0.0281597)
(0.928158 -0.371245 -0.0264711)
(0.826511 -0.542055 0.151841)
(-0.225145 0.974281 0.00923555)
(-0.0234093 0.99628 0.0829354)
(0.319008 0.923745 0.211964)
(0.587644 0.748088 0.308284)
(0.256629 0.947716 0.189674)
(0.814535 -0.559631 0.152792)
(0.190653 0.965727 0.17613)
(0.0492971 0.992272 0.11387)
(0.0324079 0.993781 0.106536)
(0.592305 0.743658 0.310076)
(0.21527 0.960745 0.175008)
(0.806592 0.556215 -0.200087)
(0.813295 0.546539 -0.199618)
(0.95304 -0.0327478 0.301068)
(0.9344 0.355618 0.0208068)
(0.924776 0.263476 0.274534)
(0.888918 -0.310245 0.337005)
(0.748087 0.638797 0.179733)
(0.930917 -0.0876069 0.354569)
(0.920337 -0.224436 0.320325)
(0.8942 -0.299953 0.332316)
(0.927719 -0.139475 0.346243)
(0.932693 0.360284 0.0167149)