/*--------------------------------*- C++ -*----------------------------------*\
| =========                 |                                                 |
| \\      /  F ield         | OpenFOAM: The Open Source CFD Toolbox           |
|  \\    /   O peration     | Version:  2012                                  |
|   \\  /    A nd           | Website:  www.openfoam.com                      |
|    \\/     M anipulation  |                                                 |
\*---------------------------------------------------------------------------*/
FoamFile
{
    version     2.0;
    format      ascii;
    class       volScalarField;
    location    "0.108/solid";
    object      sigmaMax;
}
// * * * * * * * * * * * * * * * * * * * * * * * * * * * * * * * * * * * * * //

dimensions      [1 -1 -2 0 0 0 0];


internalField   nonuniform List<scalar> 
24998
(
8.8181e+07
5.6238e+07
1.51981e+08
1.65742e+08
5.14888e+07
1.03278e+08
4.51559e+07
1.41649e+06
-1.062e+07
1.62887e+08
3.98826e+07
5.82875e+07
5.76487e+07
1.58929e+08
1.01266e+08
3.6318e+07
1.75496e+08
1.68191e+08
1.70608e+08
5.45616e+07
5.35316e+07
5.09451e+07
5.81278e+07
4.22714e+07
5.46297e+07
3.44279e+07
866617
4.47392e+06
-1.5994e+06
-1.08543e+07
-1.00755e+07
-1.12206e+07
6.62852e+08
9.98309e+09
4.98588e+07
4.89967e+08
1.03861e+08
1.35022e+08
2.34688e+09
1.04551e+09
1.40933e+08
3.76859e+08
1.18664e+08
1.03612e+08
1.91384e+07
3.48104e+07
1.74891e+08
8.55801e+07
1.02722e+08
9.50985e+07
-9.02848e+06
1.25878e+07
1.46208e+08
6.49861e+07
2.27226e+07
-1.47966e+07
-1.53732e+07
3.76215e+06
-4.06199e+06
-5.2845e+06
-2.38072e+07
-1.67033e+07
-1.3172e+07
-1.36674e+07
5.12353e+08
5.05643e+08
1.91384e+08
5.91243e+09
2.3661e+09
9.60038e+09
6.20542e+08
1.46756e+09
6.16487e+09
1.13064e+08
6.0835e+07
1.26332e+08
6.17424e+08
1.54024e+08
1.29795e+08
7.27582e+07
1.4486e+09
1.35294e+08
9.56917e+08
3.98944e+08
9.46607e+08
1.45313e+08
3.64794e+08
7.84149e+08
1.4305e+08
3.29403e+08
1.07909e+08
1.21595e+08
3.75028e+07
1.09934e+08
9.91223e+07
4.12235e+07
1.0587e+08
9.93177e+07
2.65054e+07
3.6204e+07
-1.09156e+08
1.02258e+08
1.89222e+08
3.2886e+06
2.61645e+08
3.50535e+06
6.12413e+08
1.13112e+08
3.19095e+08
1.91782e+07
1.39599e+07
2.95833e+07
1.22181e+08
1.03634e+08
3.23924e+07
4.33107e+06
7.38373e+06
1.36646e+06
2.90723e+07
9.05635e+07
1.84167e+06
6.94135e+08
1.37644e+08
1.537e+08
1.15989e+08
3.66466e+07
1.11613e+08
6.88914e+07
6.52497e+07
8.61545e+07
-8.77611e+06
1.16301e+08
2.99206e+07
5.03409e+07
-8.13765e+06
6.66248e+06
-1.00061e+07
2.58902e+07
1.34488e+06
1.3866e+07
-1.00876e+07
-1.54458e+07
-1.01507e+07
3.45783e+06
4.1212e+07
-1.57612e+07
-9.05783e+06
-1.75035e+07
-1.07637e+07
1.7073e+07
1.32428e+07
-1.5321e+07
3.30409e+07
2.24807e+07
5.78505e+06
5.37397e+07
2.8765e+07
2.23377e+07
1.57647e+07
1.11297e+07
1.70873e+07
-1.54229e+07
1.36001e+06
-1.57847e+07
-7.36736e+06
-1.35387e+07
-1.7407e+07
-9.99139e+06
1.81844e+07
-1.51163e+07
1.75292e+07
-1.47889e+07
-1.64607e+07
-1.54058e+07
-1.42661e+07
-8.32423e+06
-1.61905e+07
-1.33686e+07
-1.51836e+07
-9.85892e+06
196030
1.6059e+07
-1.33534e+07
2.99225e+07
2.72477e+07
-1.22298e+07
-5.09227e+06
5.05675e+06
2.52422e+07
-6.9921e+06
-8.26606e+06
-6.86604e+06
-2.36247e+07
-1.49876e+07
-1.63684e+07
-1.39671e+07
-2.34047e+07
-1.55524e+07
-2.27595e+07
-2.37486e+06
-1.39006e+07
-1.57257e+07
1.87149e+06
-1.53266e+07
5.48562e+08
2.218e+09
3.62745e+09
3.37055e+07
5.59633e+07
2.39561e+08
1.27509e+08
1.7161e+08
9.60524e+07
7.62227e+07
1.98335e+08
1.43123e+08
1.51566e+08
1.43869e+08
1.39443e+08
1.22977e+08
5.15167e+07
5.1058e+07
4.14083e+07
1.2887e+08
1.42606e+08
5.76406e+07
1.03735e+08
1.31366e+08
6.95582e+07
1.38518e+08
3.3572e+07
5.42372e+07
2.98623e+07
3.66846e+07
5.12237e+07
1.90549e+07
4.46916e+07
-4.5585e+06
4.03457e+06
-6.43761e+06
-1.18886e+06
486539
-8.92564e+06
927045
-1.74951e+07
-1.0418e+07
-1.659e+07
-1.05385e+07
-1.38728e+07
-1.89144e+07
-1.07334e+07
9.93909e+08
3.03023e+08
2.71358e+08
2.41769e+08
1.77015e+08
5.35472e+08
4.90742e+08
1.19303e+08
1.92064e+07
1.39437e+08
-1.63205e+07
6.41257e+07
2.34318e+07
1.87611e+07
5.03534e+07
-1.08308e+08
2.40619e+07
7.14823e+07
8.71895e+07
1.22775e+08
2.31571e+08
1.99197e+08
2.12811e+08
1.17473e+08
9.59608e+07
1.39302e+08
5.56282e+07
1.31383e+08
6.96318e+07
1.28389e+08
1.23326e+08
7.68765e+07
2.45088e+08
1.73144e+08
2.22891e+08
2.32774e+08
1.6601e+08
1.45933e+08
1.47912e+08
2.12872e+08
1.46284e+08
1.72142e+08
6.98585e+07
5.21896e+07
6.99919e+07
7.09004e+07
5.32893e+07
6.85308e+07
4.81403e+07
5.34469e+07
4.69725e+07
-3.22624e+07
3.11981e+07
2.24388e+07
6.3457e+07
4.63694e+07
-1.05049e+08
4.15709e+07
-4.11362e+06
5.05757e+07
3.02366e+07
2.69387e+07
3.96452e+07
-1.15942e+07
3.67595e+07
7.46318e+07
6.49522e+07
6.49231e+07
3.4011e+07
5.23807e+07
4.76221e+07
7.67314e+07
-1.57517e+07
2.41057e+07
2.31111e+07
2.73594e+07
1.30686e+07
-1.1869e+07
1.86183e+07
-1.82382e+07
3.76212e+06
-1.77403e+06
-8.15077e+06
-5.01783e+06
-1.85356e+07
463381
8.18706e+06
8.05141e+06
7.65232e+06
-5.37774e+06
863251
-1.49919e+06
1.18543e+07
-1.87103e+07
-3.68963e+06
-8.97276e+06
-3.70288e+06
-1.0895e+07
-1.85492e+07
-5.33197e+06
-1.98815e+07
-1.01969e+07
-1.11253e+07
-1.69024e+07
-1.50671e+07
-2.16954e+07
-1.05858e+07
-1.03778e+07
-9.24719e+06
-9.69604e+06
-1.58359e+07
-1.34903e+07
-1.38652e+07
-8.74884e+06
-2.61704e+07
-1.13958e+07
-1.76299e+07
-1.07956e+07
-1.98707e+07
-2.21278e+07
-1.08265e+07
7.97176e+08
3.15295e+09
5.12412e+09
3.93193e+07
5.92341e+09
5.02551e+09
1.57184e+11
9.25105e+09
3.43174e+07
1.07731e+08
8.56044e+07
6.56727e+07
2.98061e+08
2.99265e+08
1.12752e+06
1.14405e+08
1.01567e+06
1.39242e+08
1.13462e+08
7.22623e+07
1.555e+08
7.62277e+07
7.85821e+07
6.74484e+07
5.58442e+07
1.10182e+08
2.19043e+08
9.93599e+07
1.04258e+08
6.74359e+07
1.89966e+09
1.78675e+09
2.21006e+08
1.56483e+08
1.40957e+08
1.30937e+08
1.50356e+08
1.28998e+08
1.52316e+08
2.24239e+08
2.05094e+08
1.4078e+08
1.20671e+08
1.34759e+08
9.51764e+07
1.19479e+08
9.38977e+07
1.17323e+08
1.94168e+07
2.14019e+07
1.9918e+07
1.97421e+07
7.31797e+07
6.50224e+07
5.12948e+07
4.15109e+07
5.14924e+07
1.45967e+08
-2.3344e+06
9.56376e+07
4.20277e+07
6.79022e+07
1.07593e+08
9.0495e+07
-7.68586e+07
6.50186e+07
4.12411e+07
1.47292e+08
1.38325e+08
8.98564e+06
3.32971e+07
1.26847e+08
1.01228e+08
6.87455e+07
1.16629e+08
7.16095e+07
1.03828e+08
1.29073e+08
4.85979e+07
4.05318e+07
1.13961e+08
1.33334e+08
294084
1.83864e+06
4.9299e+07
7.8918e+07
7.44291e+07
1.14118e+08
6.02517e+07
1.08171e+08
8.31236e+07
3.87953e+07
1.01769e+08
5.76907e+07
5.82685e+07
4.42682e+07
1.96948e+07
1.01719e+07
3.2687e+07
2.92263e+07
8.00733e+06
2.88262e+07
1.59185e+07
1.93042e+07
3.62441e+07
982638
7.41445e+06
2.86431e+07
3.97006e+07
-1.48981e+07
-1.49153e+07
-6.86188e+06
-3.32466e+06
5.80764e+06
22776.5
-344904
3.22209e+06
-2.70381e+06
-5.01954e+06
-997243
-1.01326e+06
5.60043e+06
846282
-8.35783e+06
-1.01206e+07
-4.71352e+06
-3.40599e+06
-1.12051e+07
-4.00669e+06
-9.58563e+06
-7.45823e+06
-1.73571e+06
-1.20927e+07
-1.06455e+07
-4.11858e+06
-624417
-1.989e+07
-1.92963e+07
-1.40126e+07
-1.49274e+07
-1.20802e+07
-1.56699e+07
-1.43524e+07
-1.28294e+07
-1.46709e+07
-1.33123e+07
-1.58205e+07
-1.46446e+07
-9.61597e+06
-9.80964e+06
-1.89282e+07
-2.19864e+07
-1.77245e+07
-7.4005e+06
-1.97871e+07
-8.60725e+06
-2.24159e+07
-9.21892e+06
2.44875e+08
2.1678e+09
6.79891e+08
5.8629e+08
3.111e+08
8.77735e+08
1.24098e+08
6.02771e+08
9.41032e+08
2.60325e+08
1.28172e+08
3.03312e+08
1.49943e+08
5.046e+08
4.90658e+08
1.24994e+08
1.91829e+08
3.302e+09
1.48949e+09
8.87967e+08
9.55374e+07
5.7223e+08
3.56645e+09
1.19081e+11
4.46688e+09
2.92129e+08
1.02902e+09
3.66634e+08
1.55394e+08
4.74958e+09
4.99154e+08
1.7576e+09
9.31845e+09
1.15668e+09
1.05818e+07
6.55156e+07
1.19917e+08
1.08908e+08
4.89417e+08
6.97376e+07
3.58516e+07
5.85471e+07
7.29456e+07
-1.69101e+07
4.91067e+07
1.27342e+08
7.84241e+07
6.28613e+07
7.55324e+07
7.20901e+07
1.15931e+08
1.21765e+08
8.35637e+07
1.1671e+08
1.15547e+08
1.33906e+08
1.18783e+08
8.46029e+07
3.34702e+08
1.20231e+08
2.28828e+08
3.00155e+08
2.79655e+08
2.14044e+08
1.36367e+08
1.17758e+08
7.86388e+07
1.1038e+08
7.81283e+07
8.65373e+07
8.3279e+07
1.08241e+08
1.46911e+08
1.35395e+08
1.16937e+07
6.92364e+07
8.93799e+07
8.95759e+07
1.12831e+08
1.3156e+08
3.61295e+08
1.88607e+09
5.34316e+08
9.76886e+07
2.33652e+08
2.43999e+08
1.65344e+09
3.29113e+08
4.669e+08
5.54169e+08
5.84121e+08
1.67106e+08
2.31924e+08
2.3297e+08
2.46046e+08
4.71902e+08
2.66911e+08
3.02312e+08
5.22629e+08
2.72897e+08
1.63032e+08
1.33413e+08
1.4656e+08
1.42755e+08
1.44549e+08
1.30729e+08
1.43098e+08
2.32671e+08
2.18835e+08
1.82063e+08
1.36626e+08
1.17717e+08
1.57549e+08
1.87598e+08
1.20162e+08
1.64907e+08
6.17341e+07
6.64406e+07
7.62307e+07
1.06229e+08
7.76349e+07
5.05055e+07
6.15091e+07
6.91044e+07
1.07657e+08
7.03562e+07
7.71389e+07
7.40668e+07
9.18599e+07
7.11282e+07
5.30492e+07
6.80185e+07
9.06956e+07
7.05518e+07
7.32292e+07
2.33157e+07
8.80478e+07
4.62268e+07
2.44455e+07
4.32818e+07
8.60966e+07
1.53627e+08
-2.98076e+07
1.24801e+08
5.85184e+07
8.3846e+07
1.24502e+08
1.02341e+08
2.19004e+07
2.30201e+07
-1.80595e+07
1.08857e+08
5.32211e+07
9.98132e+07
1.20143e+08
6.53226e+07
1.29061e+08
1.95214e+08
3.1153e+08
5.34917e+08
2.77314e+08
8.16613e+07
2.32713e+08
2.09583e+08
1.54263e+08
5.03004e+08
2.61746e+08
2.03291e+07
2.00866e+07
7.85601e+07
4.22581e+07
1.07088e+08
1.26063e+08
1.14309e+08
1.1865e+08
8.76562e+07
1.22071e+08
1.13736e+08
4.22672e+07
1.06895e+08
1.11923e+08
9.63013e+06
9.75718e+06
4.37898e+07
3.43859e+06
1.79997e+07
4.36044e+07
1.54222e+07
2.26363e+07
5.9047e+07
5.11812e+07
2.74905e+07
3.52113e+06
1.45184e+07
1.59448e+07
1.00807e+08
2.12108e+08
3.51218e+08
4.92614e+08
1.89078e+08
9.36446e+07
2.70849e+08
1.70327e+08
6.43166e+08
2.38173e+08
7.83485e+07
1.11734e+08
1.59048e+08
7.5614e+07
7.49774e+07
6.69404e+07
1.5352e+08
7.36133e+07
1.10664e+08
1.13891e+08
9.13748e+07
4.97824e+07
5.43656e+07
3.72678e+07
5.25561e+07
8.71018e+07
6.38083e+07
5.55881e+07
3.18897e+07
4.63626e+07
5.97887e+07
6.14216e+07
-1.81788e+07
1.55687e+07
-2.92818e+07
6.82377e+07
5.65707e+07
5.02239e+07
5.20558e+07
1.74476e+06
4.83182e+07
3.99189e+07
2.59833e+07
6.51973e+07
6.42819e+07
-3.07569e+06
5.86313e+07
5.46757e+07
4.80071e+07
958427
4.38891e+07
4.30451e+07
4.47861e+07
5.35199e+07
1.70603e+07
2.83318e+07
3.97261e+07
3.20599e+07
6.35342e+07
5.68992e+07
7.61587e+07
7.57178e+07
6.54835e+07
1.03056e+08
1.01774e+08
5.23562e+07
8.9541e+07
6.39536e+07
8.09486e+07
2.34347e+07
3.50987e+07
4.76148e+07
3.89657e+07
1.07125e+08
8.75627e+07
7.06245e+06
2.79062e+07
6.00799e+07
1.0769e+08
9.04346e+07
7.90267e+07
9.94002e+06
1.00083e+08
7.11174e+07
3.56496e+07
8.03699e+07
6.80014e+07
-865533
188317
-4.24718e+06
-376986
6.17982e+06
1.43282e+07
1.899e+07
9.41111e+06
-3.45189e+06
1.33553e+07
8.24892e+06
1.29951e+06
1.73179e+07
7.41835e+06
-1.56128e+07
-1.57354e+07
1.86285e+07
-1.43531e+07
-73836.2
1.37525e+07
-4.36212e+06
1.69396e+06
2.61613e+07
1.90664e+07
5.55044e+06
-1.46775e+07
-7.39058e+06
-3.03613e+06
-1.47433e+07
-1.53192e+07
-2.49592e+06
-1.47729e+07
-5.50438e+06
1.38458e+07
2.90327e+06
-603402
275164
1.31928e+07
-935864
-1.50392e+07
-2.44766e+06
-5.43044e+06
2.80613e+07
2.64328e+07
3.5695e+07
2.60966e+07
2.74565e+07
3.07329e+07
2.65515e+07
2.28344e+07
2.47067e+07
2.66088e+07
4.53423e+07
2.12394e+07
1.8714e+07
6.9624e+06
1.78416e+07
3.61855e+07
2.57242e+07
1.98184e+07
4.4815e+06
1.84551e+07
2.85722e+07
3.30743e+07
2.48017e+07
2.37532e+07
2.28768e+07
2.26152e+07
2.37536e+07
2.26999e+07
3.68525e+07
3.37033e+07
4.15887e+07
3.35909e+07
1.35548e+07
4.88802e+06
-1.57623e+07
2.11491e+07
3.12729e+06
9.68776e+06
1.02435e+07
-1.7507e+07
1.38266e+07
-2.59147e+06
2.56611e+06
2.43277e+07
3.09885e+07
-1.82368e+07
7.15721e+06
1.15879e+06
6.12969e+06
-1.74951e+07
-3.69764e+06
3.07801e+06
1.11189e+07
1.5336e+07
-9.75762e+06
-7.74722e+06
-3.89313e+06
-6.92946e+06
2.22812e+07
1.69221e+07
8.69293e+06
1.22274e+07
5.74035e+06
2.23502e+07
1.86319e+07
99050.1
1.67241e+07
7.58534e+06
1.39712e+07
-7.69472e+06
-5.33147e+06
-684110
-4.36673e+06
2.51138e+07
1.66335e+07
-1.56313e+07
-1.29566e+07
-1.1015e+07
-5.50889e+06
-3.09845e+06
-8.16618e+06
-1.56681e+07
-8.25236e+06
-1.03733e+07
-1.12966e+07
-4.26437e+06
-8.97286e+06
-1.5285e+07
-1.55928e+07
-1.20676e+07
5.73127e+06
5.08683e+06
4.59349e+06
2.00294e+07
8.81304e+06
-1.24826e+07
-723217
4.0781e+06
9.39954e+06
1.99578e+07
9.56637e+06
-1.52107e+07
-1.52942e+07
-1.36045e+07
-1.5462e+07
-1.53782e+07
-1.18884e+07
-1.69902e+07
-1.51107e+07
-1.20787e+07
-1.10357e+07
-1.43796e+07
-1.55103e+07
-1.69675e+07
-1.58808e+07
-1.32775e+07
-1.33811e+07
5.19813e+06
-1.02893e+07
1.7153e+06
7.78435e+06
-4.00036e+06
2.47932e+06
8.59756e+06
1.01273e+07
4.3606e+06
-1.0531e+07
-5.79999e+06
79416
2.86384e+07
3.49318e+07
2.37383e+07
3.13452e+07
2.1934e+07
3.7003e+07
3.54984e+07
1.64062e+07
3.09704e+07
2.14311e+07
-7.28796e+06
-9.99305e+06
-9.24887e+06
-1.17294e+07
-9.08023e+06
-5.51265e+06
-8.2131e+06
-8.66057e+06
-1.25332e+07
-1.03266e+07
2.74738e+07
1.81529e+07
1.45371e+07
-398462
7.33906e+06
1.55153e+07
1.75299e+07
8.41789e+06
6.34705e+06
1.66958e+07
9.90408e+06
6.61548e+06
-1.03237e+07
-1.16287e+07
-1.8742e+07
-5.48655e+06
-1.27425e+07
-7.9455e+06
-1.14141e+07
-1.89817e+07
-6.74089e+06
-1.34031e+07
-1.2063e+07
3.09073e+06
5.68342e+06
-1.97214e+07
-9.33012e+06
-1.31794e+07
-8.97717e+06
-1.90493e+07
-1.45298e+07
-9.85835e+06
-2.2607e+06
-409508
-1.86858e+07
-1.609e+07
-1.38769e+07
-1.54366e+07
2.35827e+06
198643
-1.01727e+07
-8.17979e+06
-1.17178e+07
-5.92485e+06
-7.60104e+06
-1.32718e+07
-7.50533e+06
-9.3551e+06
-8.33895e+06
-1.77475e+07
-1.49875e+07
-1.25847e+07
-1.4289e+07
-5.19594e+06
-7.65091e+06
-1.90903e+07
-1.83077e+07
-1.85756e+07
-1.72824e+07
-1.67463e+07
-1.79105e+07
-1.85389e+07
-1.72587e+07
-1.81712e+07
-1.75606e+07
-1.69791e+07
-1.81567e+07
-1.98269e+07
-1.91488e+07
-1.94777e+07
-1.8976e+07
-1.62984e+07
-6.28495e+06
-9.71469e+06
-1.29858e+07
-1.86506e+07
-7.92483e+06
-1.43224e+07
-1.8483e+07
-1.19219e+07
-1.4989e+07
-1.44045e+07
-6.38425e+06
-1.4859e+06
-7.1672e+06
-8.78681e+06
4.87353e+06
-5.03889e+06
-1.43323e+07
-9.90146e+06
-9.77004e+06
-2.64741e+06
-3.04864e+06
-1.98057e+07
-2.31056e+07
-2.69094e+07
-7.18989e+06
-2.07009e+07
-5.22019e+06
-2.36645e+07
-1.70958e+06
1.41336e+09
1.25945e+09
6.36042e+07
8.94078e+07
1.92657e+08
1.53747e+08
1.63854e+08
1.56583e+08
1.5618e+08
1.47896e+08
5.21465e+07
4.71125e+07
4.73122e+07
7.85271e+07
-1.782e+07
-2.51626e+07
9.71668e+07
5.91672e+07
8.57361e+07
1.03694e+08
2.42707e+08
2.0865e+08
3.19329e+08
7.93412e+06
4.39373e+07
3.29552e+07
1.77846e+08
1.8915e+08
1.92424e+08
1.71636e+08
1.58713e+08
1.62173e+08
1.83103e+08
1.63741e+08
1.74942e+08
5.9002e+07
5.42611e+07
5.88842e+07
6.00829e+07
5.40219e+07
6.03954e+07
5.06205e+07
4.84094e+07
4.83073e+07
1.97951e+09
7.97059e+08
1.04619e+09
9.51297e+08
1.46367e+09
1.28379e+09
1.21267e+09
2.23252e+10
1.14583e+10
9.47247e+09
1.51089e+10
9.82372e+09
2.1335e+10
1.56587e+10
7.85235e+07
3.80497e+07
8.46247e+07
7.23776e+07
9.88362e+07
6.62891e+07
3.76512e+07
1.90039e+08
3.18452e+08
5.0417e+08
4.13055e+08
6.49896e+08
4.09249e+08
3.13871e+08
1.20106e+08
1.33748e+08
1.26378e+08
1.4148e+08
1.21689e+08
1.57711e+08
1.2896e+08
7.01525e+09
1.94002e+09
3.11558e+09
1.36264e+09
1.10566e+09
1.35123e+09
1.38597e+08
1.26001e+08
1.21314e+08
3.91421e+08
3.11505e+08
3.18343e+08
1.48643e+08
1.09792e+08
1.41537e+08
1.16527e+08
1.00768e+08
1.12639e+08
1.93485e+07
2.78873e+07
2.82205e+07
2.1187e+07
7.63691e+07
1.27133e+07
1.32278e+07
7.31721e+07
4.2729e+07
-2.43542e+07
2.46516e+08
3.61125e+07
9.72937e+07
6.56601e+07
8.73573e+07
9.5246e+07
9.96517e+07
-3.19643e+08
-1.35836e+08
-5.39455e+06
8.10312e+06
4.19113e+07
5.43736e+07
7.64777e+07
1.36782e+08
7.1361e+07
9.95752e+07
9.05926e+07
3.90875e+07
7.69089e+07
4.75501e+07
-1.47893e+07
-1.5169e+07
-2.50382e+07
-2.3676e+07
4.04167e+06
2.29967e+06
883893
-9.55129e+06
-1.46088e+07
-7.29761e+06
-3.03214e+06
-5.76002e+06
-2.29322e+07
-1.76061e+07
-1.43365e+07
-1.68828e+07
-1.38038e+07
-1.40808e+07
-1.46353e+07
-2.30083e+07
-2.17395e+07
-1.35429e+07
-1.52417e+07
-1.63504e+07
-1.70068e+07
-2.49174e+06
-1.69253e+07
-3.05206e+06
7.76833e+08
3.81919e+08
7.85977e+08
8.62683e+08
1.27183e+09
5.72409e+08
5.74363e+08
3.53369e+08
3.44534e+08
5.64486e+08
3.8752e+08
7.58367e+08
4.06815e+08
3.13826e+08
3.36686e+09
8.18994e+09
5.76341e+09
3.70053e+09
7.41996e+09
3.6193e+09
3.47103e+09
8.79957e+09
1.59752e+09
1.33219e+10
2.55269e+10
9.60637e+09
1.2246e+10
1.09638e+10
1.49787e+10
1.2663e+10
1.30009e+10
7.98845e+08
1.80095e+09
7.76595e+08
4.38113e+09
7.73306e+09
3.86016e+09
6.9553e+09
3.49416e+09
8.40208e+09
4.41901e+09
1.22089e+08
6.76765e+07
1.00007e+08
8.38875e+07
1.06412e+08
1.09964e+08
1.01075e+08
1.09724e+08
1.32065e+08
1.2201e+08
1.25843e+08
1.2185e+08
1.21959e+08
1.20882e+08
1.82975e+08
1.29567e+08
1.65914e+08
1.7232e+08
1.35368e+08
1.22891e+08
2.00467e+08
1.2277e+08
1.34291e+08
1.294e+08
1.41672e+08
1.28188e+08
1.41138e+08
1.35725e+08
1.37058e+09
1.69106e+09
1.86768e+09
1.25129e+08
1.4782e+08
1.33448e+08
1.17704e+09
6.74269e+08
8.3912e+08
4.13219e+08
4.59032e+08
4.80738e+08
1.02505e+09
7.44542e+08
8.27735e+08
1.5376e+08
1.60244e+08
1.69557e+08
3.16604e+08
3.96137e+08
3.36133e+08
5.61238e+08
6.67371e+08
4.9207e+08
1.51242e+08
1.29288e+08
1.40175e+08
2.91964e+08
2.91664e+08
2.63346e+08
1.1719e+08
1.11677e+08
1.21951e+08
1.3998e+08
1.23232e+08
1.4005e+08
3.02889e+07
4.63989e+07
3.89941e+07
1.0166e+08
8.85551e+07
7.97045e+07
9.0882e+07
1.02018e+08
9.3022e+07
4.54928e+07
4.70665e+07
5.12252e+07
1.08469e+08
9.23025e+07
9.55201e+07
8.77565e+07
9.69835e+07
8.62249e+07
5.06808e+07
2.04535e+07
5.45936e+07
4.06946e+07
3.18747e+07
3.68386e+07
1.31833e+09
5.21435e+06
-4.69945e+07
-4.28235e+07
1.62981e+08
9.747e+07
1.05331e+08
1.00831e+08
4.98397e+07
1.37238e+08
8.22253e+07
-1.0931e+07
8.29488e+07
3.41535e+07
2.48163e+08
3.23051e+07
4.3257e+07
7.32036e+07
4.29175e+08
5.94388e+08
4.30169e+08
1.06178e+08
1.42328e+08
1.36389e+08
2.78938e+08
3.52607e+08
2.4139e+08
1.98114e+07
1.74394e+07
4.93696e+07
3.75772e+07
4.41323e+07
1.26001e+08
1.193e+08
1.23184e+08
9.89702e+07
1.09065e+08
1.04849e+08
3.84523e+07
3.92664e+07
3.75726e+07
7.55723e+06
9.03405e+06
2.50414e+07
2.38163e+06
4.99039e+06
3.29201e+07
2.45578e+07
2.80787e+07
8.3206e+07
7.37756e+07
6.65069e+07
3.00267e+06
-2.25584e+06
-538942
5.29693e+07
1.09267e+08
5.4552e+08
5.681e+08
3.30729e+08
1.06649e+08
1.7093e+08
1.39687e+08
7.02328e+08
4.24467e+08
8.09035e+07
9.77225e+07
1.58693e+08
7.78346e+07
7.98772e+07
8.49478e+07
1.30944e+08
7.92746e+07
1.01913e+08
1.06547e+08
3.84676e+07
5.71201e+06
4.12088e+07
3.46892e+07
4.09616e+07
9.74816e+07
9.15457e+07
7.6352e+07
-2.38567e+07
-2.61641e+07
-3.21553e+06
3.13009e+06
7.81413e+06
1.13284e+08
1.08775e+08
1.05578e+08
2.17031e+07
3.29568e+07
3.22017e+07
4.59549e+07
6.00603e+07
5.58094e+07
-5.08869e+06
4.14446e+06
-7.56031e+06
-7.4448e+06
-6.50874e+06
2.16244e+07
2.32184e+07
1.91329e+07
-491043
-2.1371e+06
-3.15794e+06
9.88157e+06
1.47568e+07
1.08491e+07
-1.29802e+07
-1.56681e+07
-131671
-1.27948e+07
-4.51912e+06
6.09883e+06
1.0244e+06
3.2721e+06
3.6763e+07
3.28668e+07
2.84384e+07
-1.55345e+07
-1.53577e+07
-1.36081e+07
-1.17742e+07
-1.71007e+07
-8.46824e+06
-1.289e+07
-9.39895e+06
1.58858e+07
1.27424e+07
1.14417e+07
9.14995e+06
1.28962e+07
8.68907e+06
-1.55408e+07
-1.22365e+07
-1.35174e+07
2.02065e+07
1.10368e+07
3.30321e+07
3.0175e+07
2.86713e+07
-2.2289e+07
-1.58564e+07
1.95781e+07
2.29304e+07
2.10945e+07
3.79023e+07
2.65136e+07
8.76614e+06
5.35275e+06
9.56955e+06
3.61656e+07
4.33513e+07
2.83413e+07
-7.60346e+06
-928982
2.31359e+07
3.11765e+07
2.74389e+07
1.85875e+07
1.86053e+07
1.93569e+07
2.24946e+07
1.85167e+07
4.93597e+07
4.71253e+07
-1.54915e+07
-1.87553e+07
-1.86687e+07
-746506
-361127
-2.19216e+06
-1.57771e+07
-1.5521e+07
-1.68663e+07
-8.40014e+06
-6.38041e+06
-7.4843e+06
-1.41356e+07
-1.6817e+07
-1.06365e+07
-7.46531e+06
-1.03034e+07
1.40352e+07
1.91029e+07
1.51592e+07
-1.41734e+07
-1.37117e+07
-1.11977e+07
1.49614e+07
1.86867e+07
1.59169e+07
-1.49163e+07
-1.58631e+07
-1.84812e+07
-1.53849e+07
-1.86123e+07
-1.35069e+07
-1.51338e+07
-1.43778e+07
-9.30691e+06
-9.25401e+06
-1.01959e+07
-1.5797e+07
-1.83783e+07
-1.77017e+07
-1.31348e+07
-1.42048e+07
-9.729e+06
-9.76486e+06
-7.51758e+06
2.77236e+06
-1.1923e+06
1.29204e+06
1.36958e+07
1.4307e+07
1.21209e+07
-1.19076e+07
-1.20939e+07
-1.20255e+07
3.99951e+07
4.38373e+07
1.86849e+07
3.07977e+07
1.8274e+07
4.97673e+07
5.00451e+07
1.26034e+07
2.88923e+07
1.47765e+07
-2.53471e+07
-2.5845e+07
-1.12589e+07
-1.34776e+07
-1.25643e+07
-7.83029e+06
-6.13301e+06
-9.14776e+06
-2.34118e+07
-2.4487e+07
3.85926e+07
3.39816e+07
8.25801e+06
-2.73607e+06
400077
1.18865e+07
2.29292e+07
9.25004e+06
1.30816e+07
1.84242e+07
-2.22695e+07
-2.19172e+07
-2.23338e+07
-1.58614e+07
-1.5667e+07
-1.65187e+07
-1.70529e+07
-1.78253e+07
-1.88538e+07
-1.52921e+07
-1.6715e+07
-1.72072e+07
-2.26409e+07
-1.6918e+07
-2.30401e+07
-2.15698e+07
-2.24843e+07
-3.66654e+06
-4.9085e+06
-6.12397e+06
-1.57519e+07
-1.40636e+07
-1.48563e+07
-1.68076e+07
-1.58374e+07
-1.6685e+07
-1.28435e+07
-9.0492e+06
-3.73251e+06
-1.2429e+06
-6.77871e+06
1.13091e+07
6.06809e+06
-1.50973e+07
-1.51228e+07
-1.47964e+07
-1.73919e+07
-1.75737e+06
-1.70587e+07
-1.28286e+06
1.85869e+09
1.11008e+09
1.10606e+09
8.40969e+08
1.99176e+09
1.21373e+09
2.23528e+09
1.3119e+09
-1.55759e+08
6.41868e+08
1.58685e+09
7.80585e+08
1.77855e+09
4.71718e+09
2.15089e+09
1.62356e+09
2.55985e+09
2.26704e+09
1.23358e+09
1.03336e+08
8.1917e+07
1.24006e+08
8.52111e+07
8.59803e+07
1.03772e+08
9.38596e+07
1.03516e+08
1.27719e+08
7.75594e+07
1.20456e+08
8.58134e+07
1.2315e+08
9.90576e+07
8.41109e+07
1.32357e+08
1.76141e+08
1.15762e+08
1.53262e+08
1.30609e+08
1.55597e+08
1.73071e+08
1.00366e+08
1.1158e+08
1.5296e+08
1.36015e+08
1.44454e+08
1.52141e+08
1.33001e+08
1.44433e+08
1.32864e+08
1.30112e+08
1.4111e+08
5.20996e+07
4.68234e+07
4.72811e+07
4.55471e+07
4.41778e+07
4.61448e+07
4.55076e+07
4.29742e+07
4.61495e+07
1.2441e+08
1.33341e+08
1.11461e+08
1.33416e+08
1.35684e+08
1.13022e+08
1.22207e+08
1.25097e+08
1.3483e+08
1.37583e+08
1.11376e+08
1.2339e+08
1.38479e+08
1.1316e+08
3.96789e+07
4.13505e+07
2.95965e+07
4.02398e+07
4.28067e+07
3.33037e+07
3.61317e+07
4.49501e+07
4.23778e+07
5.24408e+07
4.22271e+07
4.90039e+07
4.95274e+07
3.79732e+07
-2.06298e+06
-2.53808e+06
-5.93774e+06
-1.89768e+06
-1.09276e+06
-5.01999e+06
-3.07777e+06
-385016
-2.22697e+06
2.04291e+06
-2.6016e+06
844927
1.0951e+06
-3.7988e+06
-1.44958e+07
-1.61809e+07
-1.77229e+07
-1.53528e+07
-1.44971e+07
-1.69556e+07
-1.53027e+07
-1.36681e+07
-1.56397e+07
-1.31158e+07
-1.51987e+07
-1.32685e+07
-1.36723e+07
-1.60827e+07
5.67856e+08
5.94658e+08
8.20703e+08
6.14578e+08
5.84672e+08
4.5661e+08
5.98469e+08
4.49482e+08
6.75082e+08
4.74302e+08
4.04862e+08
5.1624e+08
4.09365e+08
3.80378e+08
1.47023e+08
4.77789e+07
-7.04478e+06
-3.77697e+07
-2.92828e+07
-7.16002e+07
5.00689e+07
6.76268e+06
-4.36779e+07
-4.598e+06
9.58585e+06
-8.44801e+07
-5.46834e+07
4.76195e+06
-5.11757e+07
-1.90187e+07
-1.40975e+07
-8.80592e+07
-4.24412e+07
-4.44785e+07
-8.44113e+06
-5.26498e+07
-3.68144e+07
1.25628e+08
6.22297e+07
1.15322e+08
1.08232e+08
1.17654e+08
1.0619e+08
2.00315e+08
1.11485e+08
9.25758e+07
1.04605e+08
1.05947e+08
1.08835e+08
1.16741e+08
1.20153e+08
1.23811e+08
1.18037e+08
1.2e+08
1.0927e+08
1.18399e+08
2.93921e+08
5.14616e+08
3.74017e+08
1.41666e+08
2.33442e+08
2.18498e+08
3.66122e+08
2.40094e+08
2.57226e+08
1.11667e+08
1.15277e+08
9.6097e+07
1.20178e+08
1.04259e+08
1.23878e+08
9.9299e+07
1.15629e+08
1.1781e+08
1.34897e+08
1.08494e+08
1.21292e+08
1.30255e+08
1.03919e+08
2.78939e+07
2.25409e+08
8.51697e+07
5.99326e+07
6.70271e+07
5.209e+07
2.59905e+08
1.26413e+08
1.14934e+08
1.77072e+08
1.88573e+08
1.92266e+08
2.04634e+08
2.29457e+08
2.0924e+08
2.07973e+08
2.32283e+08
2.10214e+08
1.71368e+08
1.57577e+08
1.62117e+08
1.55064e+08
1.49576e+08
1.58752e+08
1.55457e+08
1.49905e+08
1.58861e+08
1.96935e+08
2.00456e+08
1.8698e+08
1.55474e+08
1.54761e+08
1.65329e+08
1.86659e+08
1.63259e+08
1.75569e+08
6.4112e+07
7.03763e+07
6.42699e+07
5.34109e+07
5.72768e+07
5.82788e+07
7.04036e+07
6.3213e+07
6.39505e+07
6.26707e+07
7.06341e+07
6.27688e+07
5.39352e+07
5.92016e+07
6.01785e+07
7.01546e+07
6.13979e+07
6.24956e+07
4.95529e+07
4.53611e+07
4.69741e+07
4.86078e+07
5.33362e+07
4.92557e+07
4.54478e+07
4.98369e+07
4.74534e+07
1.60272e+07
-3.34321e+06
-6.50558e+07
6.93901e+06
-539432
-1.7556e+07
2.30912e+07
4.36438e+06
-7.09747e+07
-2.97986e+07
-4.34389e+07
-3.86028e+06
-1.84005e+07
-3.2643e+07
2.16224e+07
1.4556e+07
-7.86694e+06
9.69733e+06
2.41583e+07
7.1735e+06
1.13087e+07
1.7187e+07
-8.43657e+06
1.44513e+06
5.09911e+06
1.50311e+07
3.43794e+06
7.99814e+06
6.59537e+07
6.3698e+07
6.35622e+07
7.52063e+07
7.11547e+07
7.14928e+07
5.82023e+07
5.95155e+07
6.23321e+07
5.99359e+07
4.75021e+07
5.48962e+07
6.32502e+07
5.23374e+07
5.54313e+06
-4.25085e+06
-1.41898e+07
-7.13631e+06
-5.99499e+06
-2.44702e+06
4.14102e+06
9.15128e+06
-1.40668e+07
-1.81757e+06
2.21079e+06
1.09193e+07
-3.34243e+06
-151786
-1.04189e+07
-1.31084e+07
-1.8406e+07
-1.58169e+07
-1.00852e+07
-1.60258e+07
-1.35234e+07
-1.16612e+07
-1.84281e+07
-1.66316e+07
-1.42604e+07
-1.18726e+07
-1.64899e+07
-1.39386e+07
6.49306e+06
4.47808e+06
3.96321e+06
9.88869e+06
8.20789e+06
8.60777e+06
2.2456e+06
4.24546e+06
4.04414e+06
4.57325e+06
-1.05827e+06
2.78469e+06
5.67918e+06
394808
-1.37906e+07
-1.535e+07
-1.86452e+07
-1.73477e+07
-1.72767e+07
-1.51197e+07
-1.3839e+07
-1.29956e+07
-1.86141e+07
-1.69544e+07
-1.45882e+07
-1.28786e+07
-1.70507e+07
-1.48478e+07
-1.6615e+07
-1.77824e+07
-2.04732e+07
-1.85966e+07
-1.65024e+07
-1.87923e+07
-1.82355e+07
-1.71321e+07
-2.07336e+07
-1.94234e+07
-1.94594e+07
-1.7295e+07
-1.91293e+07
-1.88161e+07
-1.12082e+07
-1.16996e+07
-1.1967e+07
-1.05193e+07
-1.08961e+07
-1.08894e+07
-1.26619e+07
-1.20852e+07
-1.19707e+07
-1.22184e+07
-1.42825e+07
-1.2413e+07
-1.17817e+07
-1.3467e+07
-1.85783e+07
-2.31321e+07
-2.43417e+07
-2.1703e+07
-2.08514e+07
-2.20962e+07
-1.91683e+07
-1.81172e+07
-2.361e+07
-1.98658e+07
-2.02512e+07
-1.7847e+07
-2.03748e+07
-2.11239e+07
2.05133e+09
8.62661e+08
1.38241e+09
1.24835e+09
2.06318e+09
1.42804e+09
1.25664e+09
2.58339e+09
1.86679e+09
3.78684e+09
4.26259e+09
6.19976e+09
1.84085e+09
2.39189e+09
2.7241e+09
7.26659e+09
2.73311e+09
5.19346e+09
2.71318e+09
6.80139e+09
2.75288e+09
-4.36161e+08
1.32836e+09
1.75093e+09
2.81307e+10
3.33452e+10
8.75076e+09
2.19339e+09
7.30989e+09
3.48018e+09
2.4733e+10
1.77495e+10
7.43863e+09
4.75132e+09
7.51872e+09
8.31561e+09
8.5955e+09
1.10473e+10
2.89132e+10
4.8792e+10
5.07764e+10
4.63476e+10
4.57374e+10
2.66418e+10
3.16826e+10
2.12636e+10
1.01535e+10
9.13314e+09
1.84361e+10
9.228e+09
3.21091e+10
1.69548e+10
5.39029e+07
6.11914e+07
4.73555e+07
3.31064e+07
5.01509e+07
4.59163e+07
7.24876e+07
4.9235e+07
4.85456e+07
8.52522e+07
1.02031e+08
1.09741e+08
9.8882e+07
9.63015e+07
1.02698e+08
8.84294e+07
5.64431e+07
1.17295e+08
6.51847e+07
8.91635e+07
6.25884e+07
9.78811e+07
7.04014e+07
4.53012e+07
6.19537e+07
9.54193e+07
-5.64937e+07
1.55692e+08
3.29114e+08
3.02465e+08
6.65197e+08
2.15564e+08
2.74654e+08
-5.51646e+07
2.54083e+08
1.95109e+08
3.80697e+08
1.04209e+08
2.20854e+08
1.36439e+08
3.99291e+08
2.74835e+08
1.42427e+07
1.09303e+09
2.46254e+08
1.21345e+08
1.40329e+08
1.52322e+08
1.33482e+08
1.84021e+08
1.09634e+08
1.79828e+08
8.65739e+07
6.04941e+07
3.08732e+07
8.67655e+07
8.62406e+07
6.16045e+07
9.14678e+07
8.83843e+07
4.78894e+07
8.16314e+07
9.84861e+07
7.01759e+07
1.00238e+08
9.10551e+07
-6.42019e+07
-3.2243e+07
4.79952e+07
6.57843e+07
3.18647e+07
-4.69175e+06
2.68306e+07
1.58308e+07
4.57806e+07
-7.19526e+06
1.09657e+08
1.1599e+08
1.09903e+08
1.02209e+08
9.25285e+07
1.18491e+08
1.11237e+08
1.19008e+08
1.80667e+08
2.08951e+08
1.57258e+08
1.32801e+08
1.48576e+08
1.38212e+08
1.05524e+08
1.28329e+08
9.69534e+07
1.15317e+08
8.78035e+07
1.10265e+08
1.09087e+08
5.49013e+07
7.55375e+07
8.09477e+07
9.0412e+07
7.50951e+07
9.44319e+07
8.55517e+07
5.74832e+07
7.49551e+07
6.03434e+07
2.01213e+09
1.84772e+09
2.6458e+09
1.48015e+09
1.69488e+09
1.45313e+09
8.3067e+07
1.87995e+08
7.7485e+07
1.81732e+08
8.89287e+07
8.62134e+07
1.39069e+08
1.26745e+08
1.21184e+08
1.21215e+08
1.33126e+08
1.10511e+08
1.0171e+08
1.3454e+08
1.07427e+08
1.13831e+08
1.31957e+08
1.06853e+08
9.71415e+07
1.34779e+08
1.02554e+08
2.87382e+08
2.19042e+08
2.88241e+08
1.61253e+08
1.99933e+08
1.53848e+08
1.27716e+08
1.3318e+08
1.20894e+08
1.3016e+08
1.10117e+08
1.18345e+08
1.2121e+08
1.28989e+08
1.16712e+08
9.92428e+07
1.05398e+08
1.10626e+08
1.2628e+08
1.08959e+08
1.14523e+08
8.70955e+07
1.0376e+08
9.56487e+07
1.07308e+08
1.07188e+08
9.85481e+07
1.91641e+07
2.62672e+07
1.39924e+07
1.92624e+07
7.24094e+07
1.26299e+07
1.2365e+07
8.4626e+06
6.4784e+07
6.42302e+07
4.38923e+07
-1.75664e+07
2.98685e+07
6.32602e+07
1.92168e+06
3.50337e+07
4.89638e+07
4.66439e+07
4.44869e+07
4.52999e+07
3.9709e+07
4.31535e+07
5.70424e+07
4.83349e+07
4.12634e+07
9.5576e+06
1.3154e+08
1.0542e+08
1.17504e+07
8.62221e+07
5.6233e+07
1.02809e+08
1.47844e+08
1.19418e+08
1.1414e+08
9.78411e+07
4.78653e+07
1.76772e+07
3.16811e+07
8.17538e+07
7.42274e+07
9.16384e+07
9.96968e+07
1.2264e+08
1.04345e+08
7.74359e+07
1.10427e+08
9.58996e+07
-3.72033e+07
-1.00691e+08
-1.98742e+08
3.89205e+07
4.91714e+07
-1.00455e+08
2.91361e+07
-1.26836e+07
7.93217e+07
-6.00055e+07
3.87917e+07
2.20168e+07
3.85327e+07
1.32526e+08
1.37246e+08
1.14129e+08
1.45858e+08
1.13626e+08
1.39988e+08
1.39389e+08
1.10905e+08
1.43084e+08
1.1156e+08
9.60008e+07
9.56459e+07
8.31988e+07
1.51865e+07
8.83679e+07
9.20618e+07
9.58671e+07
9.13033e+07
2.42609e+07
8.97592e+07
1.14163e+08
1.08488e+08
1.17717e+08
1.27287e+08
1.19031e+08
1.04368e+08
1.23327e+08
1.09005e+08
1.15263e+08
9.38507e+07
1.10648e+08
9.93039e+07
1.15205e+08
1.02963e+08
9.4634e+07
9.09976e+07
4.81123e+07
8.04688e+07
8.63213e+07
9.12179e+07
4.54838e+07
8.81501e+07
8.26002e+07
8.82766e+07
1.28202e+08
1.21473e+08
9.55697e+07
1.20702e+08
9.60888e+07
1.08429e+08
1.15886e+08
1.05167e+08
1.27016e+08
1.04559e+08
-4.02909e+06
6.53682e+06
7.13138e+07
5.86019e+07