/*--------------------------------*- C++ -*----------------------------------*\
| =========                 |                                                 |
| \\      /  F ield         | OpenFOAM: The Open Source CFD Toolbox           |
|  \\    /   O peration     | Version:  2012                                  |
|   \\  /    A nd           | Website:  www.openfoam.com                      |
|    \\/     M anipulation  |                                                 |
\*---------------------------------------------------------------------------*/
FoamFile
{
    version     2.0;
    format      ascii;
    class       volScalarField;
    location    "0.108/solid";
    object      sigmaHyd;
}
// * * * * * * * * * * * * * * * * * * * * * * * * * * * * * * * * * * * * * //

dimensions      [1 -1 -2 0 0 0 0];


internalField   nonuniform List<scalar> 
24998
(
-2.71395e+07
-3.61038e+07
-8.54346e+07
-1.03915e+08
-3.11291e+07
-1.78186e+07
-1.17495e+07
1.0552e+07
1.7021e+07
-6.59959e+07
-2.99317e+07
1.81508e+07
-3.58884e+07
-8.927e+07
-2.07778e+07
-2.6531e+07
-1.1121e+08
-1.05636e+08
-1.07959e+08
-3.35119e+07
-3.27367e+07
-3.06457e+07
2.12032e+07
-6.2628e+06
-1.68348e+07
-1.97256e+06
1.40714e+07
9.15565e+06
1.49841e+07
1.87445e+07
1.64694e+07
1.90955e+07
-3.0474e+08
-2.91288e+09
-3.0636e+07
-2.70647e+08
-3.42909e+07
-8.55494e+07
-1.11914e+09
-6.16382e+08
-8.98249e+07
-2.23179e+08
-7.33902e+07
-6.47402e+07
-7.68339e+06
-2.13575e+07
-7.78358e+07
1.10639e+08
-7.806e+06
-3.04548e+07
2.11002e+07
5.88275e+06
-4.1364e+07
-1.23434e+07
252877
2.9164e+07
2.90957e+07
1.56108e+07
2.22819e+07
1.36118e+07
2.73266e+07
2.63765e+07
2.07787e+07
1.94857e+07
-2.35061e+08
-2.87608e+08
-6.99205e+07
-1.74773e+09
-1.02604e+09
-3.33105e+09
-3.73299e+08
-9.24663e+08
-2.05608e+09
-5.11154e+07
-3.63044e+07
-7.99896e+07
-3.66625e+08
-9.65222e+07
-8.30639e+07
-4.00441e+07
-9.7519e+08
-8.98328e+07
-6.01123e+08
-2.36842e+08
-5.53417e+08
-9.54248e+07
-2.34321e+08
-4.95993e+08
-9.1337e+07
-2.1183e+08
-6.78665e+07
-7.93966e+07
-2.33251e+07
-6.77253e+07
-6.22938e+07
-2.65372e+07
-6.91882e+07
-6.18035e+07
-1.03157e+07
-2.2794e+07
1.97328e+08
-8.90409e+06
-9.07887e+07
1.8837e+06
-1.10045e+08
3.14241e+06
-2.75126e+08
2.81631e+06
-1.43231e+08
-7.41358e+06
4.75494e+06
-1.1286e+07
-3.65279e+07
-1.94624e+07
-4.8539e+06
5.11726e+06
2.85901e+07
7.40539e+06
3.64211e+07
1.40108e+07
3.54667e+07
-2.99813e+08
3.04924e+06
-4.40026e+07
-2.09676e+07
4.0774e+07
1.59327e+07
-1.20999e+07
-1.53252e+07
-3.0048e+07
1.65288e+07
-3.40159e+07
-3.54286e+06
-8.0119e+06
2.98594e+07
2.90707e+07
3.15822e+07
3.51006e+07
3.5732e+07
1.83083e+07
2.18343e+07
2.89024e+07
1.76452e+07
1.48578e+07
-4.31868e+06
2.84301e+07
2.96636e+07
2.69745e+07
3.10754e+07
5.78852e+06
1.59667e+07
2.50355e+07
3.90083e+07
1.80819e+07
1.36704e+07
-8.17116e+06
2.71778e+06
1.52133e+07
7.70564e+06
9.84327e+06
3.11099e+06
2.96355e+07
1.65532e+07
2.87619e+07
2.24387e+07
2.54352e+07
2.67942e+07
2.31372e+07
5.27831e+06
2.47784e+07
6.84691e+06
2.90131e+07
2.65323e+07
2.94892e+07
2.15733e+07
2.2618e+07
2.63056e+07
2.5377e+07
2.54549e+07
2.3153e+07
1.43676e+07
7.60272e+06
2.43903e+07
2.06696e+06
3.78013e+06
2.11464e+07
2.2471e+07
1.262e+07
4.65647e+06
1.69085e+07
1.73852e+07
1.43911e+07
2.49389e+07
2.12723e+07
2.60873e+07
1.97465e+07
2.6274e+07
2.54679e+07
2.46238e+07
1.53686e+07
2.4512e+07
2.10615e+07
1.37919e+07
2.0748e+07
-3.01868e+08
-5.08421e+08
-1.31547e+09
2.45766e+07
-2.50287e+07
-9.9212e+07
-3.48225e+07
-6.80538e+07
-4.73459e+07
-2.99107e+07
-1.22021e+08
-8.66155e+07
-9.33471e+07
-8.79119e+07
-8.74003e+07
-7.51568e+07
-3.13509e+07
-2.0044e+07
-2.23293e+07
-9.94298e+07
-5.08678e+07
-6.49342e+06
-2.16348e+07
-1.06432e+08
-1.87503e+07
-4.96599e+07
-2.37806e+07
-1.87747e+07
-1.24589e+07
-7.14914e+06
-3.7436e+07
-4.90763e+06
-1.37273e+07
6.57114e+06
6.87676e+06
1.2648e+07
1.17291e+07
2.31039e+06
1.45654e+07
8.35472e+06
1.88346e+07
1.51539e+07
2.03958e+07
1.71797e+07
1.58838e+07
2.19878e+07
1.56117e+07
-7.61194e+08
-1.42507e+08
-1.19502e+08
-8.91742e+07
-7.79837e+07
-1.95065e+08
-2.33124e+08
-9.28246e+07
1.09969e+08
1.87843e+08
3.65922e+07
-1.65919e+06
6.415e+07
2.34808e+07
-1.60694e+07
1.35649e+08
6.2719e+07
-4.30773e+07
-6.81981e+07
-7.77475e+07
-1.34938e+08
-1.22449e+08
-1.32566e+08
-9.38548e+07
-3.04659e+07
-5.29577e+07
-8.72462e+06
-1.06893e+08
-3.54573e+07
-5.58285e+07
-2.05385e+07
-5.64696e+07
-1.5838e+08
-1.10708e+08
-1.43119e+08
-1.51319e+08
-1.04914e+08
-8.91707e+07
-9.03879e+07
-1.36456e+08
-9.22876e+07
-1.09992e+08
-4.37057e+07
-3.23095e+07
-4.43844e+07
-4.39262e+07
-3.24718e+07
-4.18669e+07
-2.89422e+07
-2.3785e+07
-1.49468e+07
5.24094e+07
4.59574e+07
2.56388e+07
1.06149e+07
3.66642e+06
1.32128e+08
2.28715e+07
1.42731e+07
-1.062e+07
6.1874e+06
-8.33667e+06
-1.62917e+07
2.11144e+07
2.25038e+06
-5.52573e+07
-2.20792e+07
-2.43362e+07
-1.52765e+07
-3.83446e+07
-2.4078e+07
-3.02101e+07
2.59079e+07
9.6369e+06
-5.773e+06
1.84493e+06
1.05164e+06
2.139e+07
1.24208e+07
2.83597e+07
1.29507e+07
1.92699e+07
1.52379e+07
1.31223e+07
2.82521e+07
1.88183e+07
-3.76284e+06
7.49114e+06
5.14794e+06
1.18948e+07
1.99856e+06
9.23757e+06
3.11625e+06
2.78903e+07
1.95998e+07
1.58213e+07
1.57418e+07
1.72945e+07
2.82075e+07
1.98472e+07
2.74054e+07
1.82917e+07
2.09023e+07
2.14682e+07
2.03574e+07
2.77781e+07
2.06708e+07
1.30723e+07
1.58032e+07
1.43572e+07
1.98848e+07
1.56375e+07
1.85552e+07
1.35153e+07
2.90813e+07
2.11312e+07
2.19093e+07
1.90271e+07
2.32957e+07
2.79188e+07
2.08657e+07
-4.09253e+08
-1.01758e+09
-1.84242e+09
1.15432e+09
-1.67872e+09
-1.61953e+09
-7.35164e+10
-2.92561e+09
-2.19183e+07
-6.77786e+07
-4.98391e+07
-4.056e+07
-1.39102e+08
-1.7891e+08
1.41522e+08
-6.13944e+07
6.74892e+07
-4.27111e+07
-2.97884e+07
-3.95856e+07
-4.43834e+07
-2.73345e+07
-3.2825e+07
1.45368e+06
4.65731e+07
-6.99308e+07
-1.35083e+08
-6.09768e+07
-5.90115e+07
-4.59057e+07
-1.14425e+09
-1.06729e+09
-1.32736e+08
-9.44142e+07
-8.66686e+07
-8.03158e+07
-9.2588e+07
-7.86571e+07
-9.20684e+07
-1.35951e+08
-1.24055e+08
-8.58335e+07
-7.35856e+07
-8.41748e+07
-5.81636e+07
-7.302e+07
-5.72608e+07
-7.15446e+07
-9.24005e+06
-8.86532e+06
-9.41254e+06
-7.0098e+06
-1.14051e+07
7.06734e+07
-3.12009e+07
-2.34129e+07
-1.01511e+07
7.16667e+07
9.24566e+07
5.47966e+07
-2.22185e+07
-6.45334e+06
6.17225e+07
4.32222e+07
2.40399e+08
9.09454e+07
-2.25686e+07
-3.85145e+07
-3.47312e+07
6.96052e+06
-1.45234e+07
-9.74385e+07
-2.72719e+07
-3.20871e+07
-4.55119e+07
-2.38298e+07
-7.7804e+07
-4.82066e+07
-3.3939e+07
-2.23742e+07
-3.04276e+07
-3.40444e+07
1.46967e+07
1.36454e+07
-1.17429e+07
-2.68782e+07
-2.63928e+07
-3.00096e+07
-1.88983e+07
-4.21421e+07
-2.90459e+07
-8.4253e+06
-2.56227e+07
-1.76246e+07
-1.25284e+07
-7.14275e+06
-1.31873e+07
-5.29436e+06
-2.30588e+07
-3.14867e+06
2.7809e+06
-5.40734e+06
-2.72349e+06
-1.25634e+07
-9.27011e+06
2.73125e+06
-2.99093e+06
-960592
-5.12785e+06
2.96848e+07
2.96615e+07
2.12465e+07
1.92629e+07
8.77159e+06
1.98034e+07
1.27782e+07
1.39327e+07
1.87942e+07
1.55492e+07
2.0712e+07
1.32137e+07
7.48459e+06
9.03131e+06
1.30205e+07
1.50398e+07
6.80705e+06
1.27362e+07
1.65064e+07
1.0743e+07
1.51266e+07
1.00499e+07
9.62894e+06
1.70572e+07
1.5622e+07
1.07459e+07
9.57501e+06
2.54999e+07
2.55202e+07
1.74261e+07
1.87032e+07
1.75517e+07
1.97328e+07
1.76188e+07
2.02924e+07
1.89167e+07
1.74701e+07
1.94166e+07
1.76018e+07
1.39028e+07
1.4688e+07
2.13092e+07
2.31174e+07
1.91598e+07
1.62797e+07
2.27163e+07
1.44455e+07
2.36194e+07
1.43049e+07
-1.22173e+08
-6.71233e+08
-2.36294e+08
-2.68081e+08
-1.57221e+08
-2.82983e+08
-4.42098e+06
-2.07544e+08
-7.07398e+08
-9.55188e+07
-2.42811e+07
-1.30436e+08
-4.70071e+07
-3.70777e+08
-2.26007e+08
-4.30219e+07
-1.15318e+08
-1.0486e+09
-5.42914e+08
-3.12624e+08
-6.09887e+07
-2.60983e+08
-1.63212e+09
-5.69863e+10
-1.85189e+09
-1.732e+08
-3.84245e+08
7.7925e+07
-1.04445e+07
-2.74977e+09
-3.97975e+07
-7.17534e+08
-5.49581e+09
-4.92566e+08
1.08852e+07
-2.82972e+07
-3.37044e+07
-3.16363e+07
-3.52374e+08
-3.03341e+07
3.32608e+07
4.48113e+07
8.82978e+07
3.68647e+07
-2.12007e+07
-5.8073e+07
-4.52959e+07
5.96201e+06
8.77442e+07
-4.31912e+07
-7.22404e+07
-7.66085e+07
-6.25978e+07
-7.51254e+07
-7.2687e+07
-7.30604e+07
-7.54953e+07
-5.51061e+07
-2.01998e+08
-7.39973e+07
-1.37451e+08
-1.84731e+08
-1.6868e+08
-1.34386e+08
-6.95904e+07
-9.04347e+07
-3.93571e+07
-4.02511e+07
-5.13043e+07
-3.99437e+07
-4.43404e+07
-5.65239e+07
-4.03127e+07
-4.66867e+07
4.21731e+06
-3.74135e+07
-2.96543e+07
-5.09006e+07
-5.79419e+07
-5.11117e+07
-1.97099e+08
-1.17809e+09
-3.36358e+08
-6.89402e+07
-1.57599e+08
-1.63284e+08
-1.03065e+09
-2.17755e+08
-3.01134e+08
-3.25271e+08
-3.4398e+08
-1.07381e+08
-1.55298e+08
-1.52261e+08
-1.5888e+08
-3.02319e+08
-1.74338e+08
-2.01089e+08
-3.3424e+08
-1.78995e+08
-1.03106e+08
-8.17433e+07
-8.95622e+07
-8.70362e+07
-8.81554e+07
-7.97195e+07
-8.72802e+07
-1.50013e+08
-1.41748e+08
-1.17073e+08
-8.61241e+07
-7.50009e+07
-1.0059e+08
-1.21834e+08
-7.70539e+07
-1.05968e+08
-3.84588e+07
-4.15846e+07
-4.77719e+07
-6.76421e+07
-4.93191e+07
-3.14708e+07
-4.0255e+07
-4.4111e+07
-6.89962e+07
-4.60611e+07
-4.93274e+07
-4.60902e+07
-5.61362e+07
-4.34565e+07
-3.22945e+07
-4.14722e+07
-5.53076e+07
-4.30187e+07
-1.27512e+07
-459996
3.02108e+07
-2.79892e+07
-1.00737e+07
-1.48204e+07
-4.24045e+07
5.50107e+07
6.36162e+07
4.74313e+07
-1.4109e+07
-1.15193e+07
4.69871e+07
3.65935e+07
4.9448e+06
-6.49144e+06
4.82357e+07
3.88532e+07
-1.49354e+07
-3.18915e+07
-3.90978e+07
1.94473e+06
-4.11167e+07
-4.81768e+07
-8.52314e+07
-2.37987e+08
-7.54219e+07
1.68647e+06
-4.91825e+07
-4.88226e+07
-4.91083e+07
-2.23484e+08
-7.45416e+07
-3.36369e+06
-2.48821e+06
-2.07806e+07
-1.23697e+07
-3.33334e+07
-3.86889e+07
-3.24038e+07
-3.59177e+07
-2.0418e+07
-3.68487e+07
-3.47207e+07
-1.18102e+07
-2.99583e+07
-3.41637e+07
2.07758e+07
2.22332e+07
1.4004e+07
2.74874e+07
3.62025e+07
3.54459e+07
4.23403e+07
3.90055e+07
1.36757e+07
3.27547e+07
3.53757e+07
2.91726e+07
4.38968e+07
4.00152e+07
9.46938e+06
-6.01891e+07
-9.97518e+07
-2.01238e+08
-4.12393e+07
4.26083e+06
-5.87558e+07
-3.32502e+07
-2.89367e+08
-7.48733e+07
-1.82765e+07
-4.40562e+07
-4.54456e+07
-2.71154e+07
-2.7525e+07
-1.06264e+07
-4.2856e+07
-2.66783e+07
-4.34863e+07
-4.53093e+07
1.50038e+07
3.40389e+07
4.03034e+07
1.51334e+07
1.75395e+07
7.19976e+06
3.73775e+07
1.72358e+07
3.01007e+07
3.46335e+07
2.37623e+07
-9.09272e+06
3.92432e+07
7.82922e+06
4.99915e+07
-2.97298e+06
-2.03343e+07
-2.39707e+06
-4.90883e+06
1.294e+07
5.91909e+06
-2.27005e+07
-3.62531e+06
-1.41714e+07
-1.43554e+07
1.36161e+07
-1.41475e+07
-2.16805e+07
-3.88092e+06
1.35499e+07
-1.85686e+07
-1.54774e+06
5.01322e+06
-762051
-9.78354e+06
-1.83479e+07
-2.4274e+07
-2.09243e+07
-1.15055e+07
-3.83815e+06
-5.64342e+07
-2.68304e+07
-3.20791e+07
-4.13324e+07
-7.60993e+07
-2.67699e+07
-3.60449e+07
-1.50183e+07
-2.10473e+07
-1.62024e+07
-2.55368e+07
-3.41064e+07
-2.84977e+07
-2.87986e+07
-2.35357e+07
7.61286e+06
209298
-1.17076e+07
-2.95705e+07
-2.36728e+07
-1.85497e+07
6.21339e+06
-2.69937e+07
-1.57814e+07
-2.46915e+06
-1.97557e+07
-1.4478e+07
3.05565e+07
3.05525e+07
3.47475e+07
2.9468e+07
3.64325e+07
4.16331e+07
2.85916e+07
3.64599e+07
3.51009e+07
4.33567e+07
3.86111e+07
2.69334e+07
2.60044e+07
3.41618e+07
2.62154e+07
2.66563e+07
3.85326e+06
2.40971e+07
1.33326e+07
8.20132e+06
1.99204e+07
1.35921e+07
1.23811e+06
5.44799e+06
1.09182e+07
2.48109e+07
2.19881e+07
1.59335e+07
2.8383e+07
2.81732e+07
2.72347e+07
2.78212e+07
2.13808e+07
8.71593e+06
1.37154e+07
1.71491e+07
2.46437e+07
1.01778e+07
1.87279e+07
2.74042e+07
1.62873e+07
1.97948e+07
2.19043e+06
1.42286e+07
1.4365e+07
3.07847e+07
7.9407e+06
2.86309e+07
1.61181e+07
1.13483e+06
2.75708e+07
6.99919e+06
-9.72268e+06
2.82841e+06
6.08091e+06
8.05753e+06
1.97983e+06
-7.15878e+06
2.93336e+06
952621
1.29806e+07
4.3491e+06
748499
-7.10786e+06
6.33373e+06
-3.80922e+06
-3.20568e+06
456219
8.121e+06
-2.92021e+06
-1.09041e+07
-7.86335e+06
6.97658e+06
1.03412e+07
-6.98139e+06
275583
2.59626e+07
5.06466e+06
7.76231e+06
1.616e+07
2.98222e+06
2.7905e+07
1.45606e+07
7.43592e+06
2.36149e+06
1.33017e+07
1.14522e+07
2.84034e+07
1.15644e+07
9.07138e+06
1.73371e+07
2.78821e+07
1.2253e+07
1.8195e+07
1.59003e+07
1.53074e+07
1.54448e+07
1.31809e+07
8.84975e+06
1.22389e+07
1.39234e+07
1.49507e+07
-4.1817e+06
5.49889e+06
4.32985e+06
-2.09646e+06
-1.20058e+07
8.16213e+06
722652
6.73937e+06
4.59186e+06
1.22322e+07
9.46635e+06
4.35625e+06
8.33941e+06
520977
3.54081e+06
3.00425e+07
2.75068e+07
2.69208e+07
2.14798e+07
2.02376e+07
2.46719e+07
3.00095e+07
2.34567e+07
2.63852e+07
2.61442e+07
2.10435e+07
2.53092e+07
2.5868e+07
2.59615e+07
2.34277e+07
1.48915e+07
1.4283e+07
1.29954e+07
4.98271e+06
1.19951e+07
2.35278e+07
1.55224e+07
1.43391e+07
1.28534e+07
5.23942e+06
1.20036e+07
2.79385e+07
2.77396e+07
2.74254e+07
2.81485e+07
2.65748e+07
2.23598e+07
2.38719e+07
2.51385e+07
2.61397e+07
2.25395e+07
2.55036e+07
2.79182e+07
2.47179e+07
2.61609e+07
2.52952e+07
2.52823e+07
1.53081e+07
2.35392e+07
1.70267e+07
1.13045e+07
1.84927e+07
1.60881e+07
1.33553e+07
1.03098e+07
1.53262e+07
2.36299e+07
1.98644e+07
1.76958e+07
-5.88553e+06
-9.63958e+06
-3.71498e+06
1.63708e+06
-2.05417e+06
-1.10113e+07
-9.99372e+06
1.45301e+06
1.91101e+06
-1.68655e+06
2.13738e+07
2.1468e+07
2.21147e+07
1.75202e+07
1.70674e+07
1.5788e+07
2.23333e+07
1.69546e+07
2.04625e+07
2.13887e+07
-5.20801e+06
-31535.1
9.01447e+06
1.03115e+07
6.38892e+06
1.97137e+06
7.8336e+06
5.82777e+06
6.30017e+06
772942
1.61149e+07
1.64816e+07
1.60852e+07
1.73865e+07
2.78545e+07
1.6375e+07
1.87673e+07
2.01881e+07
1.77249e+07
2.75341e+07
2.00375e+07
1.91149e+07
1.78321e+07
1.68923e+07
1.66218e+07
2.73861e+07
1.78377e+07
1.90927e+07
2.03272e+07
2.75156e+07
2.00194e+07
2.04812e+07
1.78451e+07
1.74288e+07
2.21845e+07
2.09506e+07
1.95271e+07
2.05722e+07
1.70067e+07
1.72942e+07
1.28932e+07
1.51115e+07
1.69318e+07
1.17371e+07
1.02407e+07
1.81336e+07
1.26491e+07
1.3519e+07
1.25428e+07
2.07088e+07
1.92189e+07
1.74944e+07
1.87707e+07
1.11721e+07
1.21606e+07
2.48443e+07
2.27467e+07
2.28026e+07
2.34425e+07
2.04311e+07
2.23395e+07
2.49232e+07
2.42416e+07
2.30571e+07
2.23389e+07
2.02022e+07
2.21106e+07
2.58574e+07
2.57947e+07
2.54104e+07
2.32106e+07
2.29706e+07
1.92822e+07
1.81663e+07
2.14141e+07
2.53086e+07
2.05791e+07
2.24882e+07
2.30086e+07
1.8998e+07
2.19705e+07
1.77115e+07
1.29091e+07
1.08535e+07
1.71028e+07
1.4399e+07
7.08382e+06
1.22297e+07
1.83599e+07
1.81046e+07
1.48798e+07
1.80175e+07
1.81528e+07
2.2671e+07
2.41359e+07
2.93311e+07
1.70583e+07
2.39291e+07
1.8556e+07
2.44723e+07
1.72111e+07
-4.52918e+08
-3.95333e+08
-4.47193e+07
-5.34299e+07
-1.15511e+08
-8.78138e+07
-9.90551e+07
-9.65941e+07
-9.80015e+07
-9.12038e+07
-3.16524e+07
-2.7054e+07
-2.77767e+07
-5.62015e+07
8.73969e+07
1.07791e+08
-7.41847e+07
-3.84245e+07
-5.38739e+07
-6.37177e+07
-1.33758e+08
-1.24719e+08
-1.87761e+08
4.97603e+07
-3.44192e+07
1.49959e+07
-1.12922e+08
-1.19797e+08
-1.22108e+08
-1.07876e+08
-9.79215e+07
-1.00104e+08
-1.15811e+08
-1.03494e+08
-1.10534e+08
-3.6618e+07
-3.3381e+07
-3.66276e+07
-3.70327e+07
-3.29314e+07
-3.70416e+07
-3.04401e+07
-2.78449e+07
-2.75238e+07
-7.81535e+08
-3.75927e+08
-3.54005e+08
-3.0673e+08
-5.56738e+08
-4.49846e+08
-4.1288e+08
-8.0871e+09
-4.53076e+09
-2.99112e+09
-2.85882e+09
-3.89952e+09
-6.52597e+09
-4.36239e+09
-6.14498e+07
-2.47434e+07
-5.27366e+07
-3.96587e+07
-6.63503e+07
-4.23808e+07
-2.30573e+07
-1.31095e+08
-9.46453e+07
-2.66478e+08
-2.38734e+08
-5.30103e+08
-2.65815e+08
-1.57211e+08
-8.01158e+07
-8.793e+07
-7.97986e+07
-9.09619e+07
-7.94766e+07
-1.01563e+08
-8.2233e+07
-3.94271e+09
-1.15176e+09
-1.72678e+09
-8.02868e+08
-6.36135e+08
-7.78495e+08
-8.76431e+07
-7.90535e+07
-7.6206e+07
-2.26449e+08
-1.86182e+08
-1.84874e+08
-9.08481e+07
-6.45735e+07
-8.30148e+07
-7.26507e+07
-6.20532e+07
-6.93887e+07
-8.10574e+06
-1.62224e+07
-1.64405e+07
-1.16035e+07
-9.86929e+06
-1.85877e+06
-4.57094e+06
-2.99403e+07
1.68598e+07
3.38314e+08
7.5443e+07
1.60708e+08
1.18997e+08
7.7747e+07
-5.46148e+06
9.92086e+06
9.90206e+06
5.73487e+08
3.0328e+08
1.85679e+07
9.27453e+06
-1.78234e+07
-2.96562e+07
-2.42632e+07
-3.80315e+07
-2.14241e+07
-7.69671e+07
-6.66342e+07
-6.06324e+06
-1.6699e+07
-9.89989e+06
2.94761e+07
2.94995e+07
3.47148e+07
3.46905e+07
1.10197e+07
1.72623e+07
1.27689e+07
2.64071e+07
2.99608e+07
1.71783e+07
2.19339e+07
1.65121e+07
2.58232e+07
2.59466e+07
1.65771e+07
1.89433e+07
1.85797e+07
2.04135e+07
1.85586e+07
2.71724e+07
2.52133e+07
1.85554e+07
1.87749e+07
1.84923e+07
2.12955e+07
1.28468e+07
2.25087e+07
1.20137e+07
-3.1631e+08
-1.83699e+08
-2.60706e+08
-2.91369e+08
-4.80343e+08
-2.0579e+08
-2.44037e+08
-1.81729e+08
-1.19915e+08
-3.39603e+08
-2.26766e+08
-6.08143e+08
-2.72258e+08
-1.72286e+08
-1.40958e+09
-3.50927e+09
-1.84631e+09
-1.17122e+09
-2.98075e+09
-1.29436e+09
-1.14848e+09
-4.9822e+09
-3.15675e+08
-7.57472e+09
-1.03943e+10
-4.03859e+09
-3.6747e+09
-4.22963e+09
-4.74169e+09
-6.51625e+09
-4.14971e+09
-5.03642e+08
-1.08498e+09
-3.75262e+08
-2.22507e+09
-3.12819e+09
-1.37577e+09
-2.6926e+09
-1.05871e+09
-3.5175e+09
-1.90158e+09
-7.95764e+07
-4.00787e+07
-6.12437e+07
-4.50669e+07
-7.08275e+07
-6.69937e+07
-5.29261e+07
-6.95041e+07
-8.70006e+07
-7.68942e+07
-7.87879e+07
-7.89484e+07
-7.83418e+07
-7.59564e+07
-1.26176e+08
-8.50566e+07
-1.05893e+08
-1.07476e+08
-8.14319e+07
-8.76379e+07
-1.2256e+08
-8.82722e+07
-8.93618e+07
-8.17504e+07
-8.97223e+07
-8.37126e+07
-1.03471e+08
-8.47309e+07
-8.85188e+08
-1.12254e+09
-1.16403e+09
-8.4281e+07
-9.87534e+07
-9.05793e+07
-7.36063e+08
-4.37761e+08
-5.40138e+08
-2.38748e+08
-2.70519e+08
-2.7668e+08
-5.88768e+08
-4.37803e+08
-4.74642e+08
-1.00046e+08
-1.05596e+08
-1.10549e+08
-2.04302e+08
-2.54294e+08
-2.17465e+08
-3.66069e+08
-4.24551e+08
-3.20552e+08
-9.62273e+07
-8.09661e+07
-8.73416e+07
-1.88271e+08
-1.8791e+08
-1.69974e+08
-7.3759e+07
-7.03004e+07
-7.6804e+07
-9.1272e+07
-7.97325e+07
-9.06181e+07
-1.77515e+07
-2.89367e+07
-2.31031e+07
-5.98891e+07
-5.51261e+07
-4.70618e+07
-5.70692e+07
-6.41895e+07
-5.85004e+07
-2.87583e+07
-3.06137e+07
-3.27754e+07
-7.01687e+07
-6.03733e+07
-6.17829e+07
-5.47321e+07
-5.9715e+07
-5.30685e+07
-1.20378e+07
-6.33165e+06
-2.47873e+06
-2.5098e+07
-1.91136e+07
-2.15145e+07
-7.55129e+08
1.58837e+08
8.14871e+07
1.1998e+08
-4.72157e+06
-8.69148e+06
5.55353e+06
4.7583e+06
4.11201e+06
-7.7712e+07
-2.95609e+07
8.86249e+07
-4.45706e+07
-9.77352e+06
-8.16485e+07
2.1505e+06
-1.24617e+07
-1.58239e+07
-1.15115e+08
-2.70774e+08
-1.22008e+08
1.18936e+06
-1.08659e+07
-1.24792e+07
-8.16163e+07
-1.79335e+08
-8.21922e+07
-6.15542e+06
1.4596e+06
-1.19035e+07
-1.29055e+07
-1.75876e+07
-3.82871e+07
-3.41241e+07
-3.59091e+07
-1.85417e+07
-2.76238e+07
-2.62001e+07
-8.38063e+06
-1.18917e+07
-1.37689e+07
1.31509e+07
2.657e+07
5.29326e+06
1.79761e+07
1.77818e+07
3.70496e+07
3.71443e+07
3.74331e+07
1.24855e+07
2.22974e+07
2.09881e+07
3.38058e+07
3.45695e+07
3.21468e+07
2.83928e+07
-1.35142e+07
-1.58416e+08
-2.65067e+08
-5.57739e+07
2.27664e+06
-1.29979e+07
-1.01165e+07
-3.90671e+08
-2.57917e+08
-4.18068e+07
-6.79717e+07
-4.57261e+07
-2.506e+07
-2.65154e+07
-9.88092e+06
-3.10651e+07
-1.85912e+07
-7.98659e+07
-8.61792e+07
3.87729e+07
6.08376e+07
4.17313e+07
1.86537e+07
1.95986e+07
5.94589e+06
2.55269e+07
1.29683e+07
6.1677e+07
6.98548e+07
1.29274e+07
1.18698e+07
8.17212e+06
-3.16089e+07
-3.0932e+07
-2.8545e+07
558190
-9.14768e+06
-6.15832e+06
-5.94865e+06
-1.18481e+07
-9.72172e+06
3.0287e+07
3.00557e+07
3.3045e+07
2.79985e+07
2.96839e+07
3.6144e+07
3.32581e+07
3.45995e+07
3.59365e+07
3.36741e+07
3.43467e+07
2.08553e+07
2.07945e+07
2.32057e+07
2.39663e+07
2.81621e+07
1.33361e+07
2.07087e+07
1.68259e+07
1.29041e+07
1.63118e+07
1.44351e+07
-2.33555e+06
-828374
1.07918e+06
2.71597e+07
2.64875e+07
2.41669e+07
2.9147e+07
2.74486e+07
2.75577e+07
2.96283e+07
2.56108e+07
6.52558e+06
8.60385e+06
9.36838e+06
1.86236e+07
1.38161e+07
1.65555e+07
2.59318e+07
2.05226e+07
2.22059e+07
-29799.3
1.05825e+07
1.80766e+07
3.66422e+07
1.61898e+07
5.831e+07
4.69797e+07
6.9465e+06
2.11364e+07
8.95593e+06
-1.40951e+07
-3.70556e+06
1.14444e+07
1.02426e+07
8.03957e+06
-4.67636e+06
-4.21094e+06
-1.12619e+06
2.49579e+07
1.97734e+07
-3.26907e+06
-1.19321e+07
3.62478e+06
1.60646e+06
1.67668e+06
6.17177e+06
1.25833e+07
4.59186e+06
-3.09824e+07
-2.84932e+07
2.99386e+07
2.91139e+07
2.81192e+07
1.79402e+07
1.80099e+07
1.93235e+07
2.95112e+07
2.61348e+07
2.80517e+07
2.33772e+07
2.21282e+07
2.31252e+07
2.55695e+07
2.64047e+07
2.31731e+07
1.95621e+07
2.05319e+07
8.05422e+06
4.98459e+06
7.7099e+06
2.41233e+07
2.12611e+07
1.97193e+07
9.11262e+06
6.18978e+06
8.5425e+06
2.85979e+07
2.70576e+07
2.78838e+07
2.89767e+07
2.86277e+07
2.18632e+07
2.21404e+07
2.24702e+07
2.35042e+07
2.26848e+07
2.35187e+07
2.69843e+07
2.61389e+07
2.58459e+07
2.53143e+07
2.53515e+07
2.09125e+07
2.32566e+07
2.0087e+07
1.33468e+07
1.59069e+07
1.4973e+07
9.77932e+06
8.44415e+06
1.05302e+07
2.40414e+07
2.25049e+07
2.28282e+07
-2.53336e+07
-2.81869e+07
1.53584e+06
1.68554e+06
1.91122e+06
-3.14957e+07
-3.22063e+07
5.51716e+06
3.00418e+06
4.26652e+06
3.45958e+07
3.38756e+07
2.15031e+07
1.85494e+07
1.85319e+07
1.7429e+07
2.2533e+07
1.78558e+07
2.78056e+07
2.96291e+07
-2.42747e+07
-2.07648e+07
1.14107e+07
1.30488e+07
1.15906e+07
5.8902e+06
5.64225e+06
7.29319e+06
-4.72496e+06
-8.8228e+06
2.50791e+07
2.43809e+07
2.4078e+07
2.18157e+07
2.09789e+07
2.1496e+07
2.5488e+07
2.50874e+07
2.52981e+07
2.08284e+07
1.99844e+07
2.04909e+07
2.62837e+07
2.56003e+07
2.57477e+07
2.43281e+07
2.50202e+07
1.68227e+07
1.63424e+07
1.77105e+07
2.48664e+07
2.36298e+07
2.34037e+07
2.1947e+07
2.03974e+07
2.12976e+07
1.41931e+07
1.15146e+07
1.34927e+07
1.49381e+07
1.48775e+07
-3.36069e+06
632484
1.97637e+07
2.01266e+07
1.85747e+07
2.44176e+07
1.31294e+07
2.31365e+07
1.4139e+07
-9.03741e+08
-4.77265e+08
-5.3934e+08
-4.63862e+08
-9.98739e+08
-5.55036e+08
-9.93604e+08
-4.03506e+08
7.06831e+08
1.21434e+08
-6.33557e+08
-1.33795e+08
-7.11163e+08
-2.19311e+09
-8.81929e+08
-5.32213e+08
-1.2081e+09
-1.0318e+09
-5.18678e+08
-3.32334e+07
-2.06727e+06
-5.15349e+07
-3.57806e+07
-3.70999e+07
-2.97786e+07
-1.52593e+07
-4.43023e+07
-6.01386e+07
-3.69519e+07
-5.16279e+07
-4.32761e+07
-5.66528e+07
-3.85417e+07
-5.51485e+07
-8.34476e+07
-1.08438e+08
-7.37559e+07
-8.88852e+07
-8.09041e+07
-9.44689e+07
-1.06598e+08
-6.49027e+07
-7.13453e+07
-9.41461e+07
-8.31187e+07
-8.89033e+07
-9.52083e+07
-8.1981e+07
-8.90587e+07
-8.11969e+07
-8.00594e+07
-8.68415e+07
-3.16677e+07
-2.81851e+07
-2.7963e+07
-2.45948e+07
-1.87122e+07
-2.64533e+07
-2.72075e+07
-1.92248e+07
-2.68413e+07
-5.70378e+07
-1.04834e+08
-6.62947e+07
-7.7517e+07
-7.89111e+07
-6.67031e+07
-5.67162e+07
-5.72228e+07
-1.06484e+08
-8.18789e+07
-6.70524e+07
-5.73872e+07
-8.11858e+07
-6.70089e+07
-1.7344e+07
-2.98125e+07
-1.63443e+07
-2.11776e+07
-2.29117e+07
-1.90612e+07
-1.54383e+07
-2.11045e+07
-3.06353e+07
-2.94369e+07
-2.54268e+07
-2.32481e+07
-2.7503e+07
-2.23481e+07
8.77936e+06
4.72072e+06
9.59158e+06
7.21671e+06
6.68446e+06
8.80406e+06
9.34686e+06
7.67471e+06
4.4532e+06
4.6246e+06
6.92247e+06
7.01461e+06
5.24084e+06
7.83661e+06
1.81286e+07
1.75395e+07
1.97935e+07
1.81042e+07
1.74573e+07
1.91082e+07
1.87763e+07
1.75254e+07
1.71945e+07
1.62635e+07
1.77712e+07
1.71089e+07
1.67473e+07
1.84157e+07
-2.92196e+08
-2.95055e+08
-5.01512e+08
-3.50478e+08
-2.95654e+08
-2.23559e+08
-2.96495e+08
-2.19004e+08
-3.07721e+08
-1.8555e+08
-1.56189e+08
-2.27211e+08
-1.87509e+08
-1.57209e+08
-1.02532e+08
8.18276e+07
1.09915e+08
1.49171e+08
2.0256e+08
2.13999e+08
1.70378e+08
2.27757e+08
2.19481e+08
5.46924e+07
2.2988e+07
1.08716e+08
9.99909e+07
3.91674e+07
1.00937e+08
4.92552e+07
6.57302e+07
1.1164e+08
9.49072e+07
8.32273e+07
6.66427e+07
1.04364e+08
7.10222e+07
-8.70491e+07
-3.94139e+07
-7.20757e+07
-6.85903e+07
-7.8783e+07
-6.85176e+07
-1.30864e+08
-8.45914e+07
-8.03592e+07
-7.16581e+07
-8.3089e+07
-6.76553e+07
-8.42102e+07
-8.06912e+07
-7.76302e+07
-7.65277e+07
-8.04443e+07
-8.13115e+07
-7.47555e+07
-1.64411e+08
-2.95936e+08
-2.18947e+08
-8.88768e+07
-1.43181e+08
-1.3324e+08
-2.17372e+08
-1.46702e+08
-1.55485e+08
-6.17375e+07
-9.77353e+07
-6.97144e+07
-8.16075e+07
-6.18787e+07
-8.1122e+07
-6.9298e+07
-5.92509e+07
-9.92021e+07
-8.22633e+07
-6.76734e+07
-5.88355e+07
-8.21418e+07
-6.84158e+07
5.64461e+07
-1.23451e+08
-1.80974e+07
-4.64198e+07
-3.73113e+07
-1.36197e+07
-1.59233e+08
-7.77218e+07
-5.80011e+07
-1.1275e+08
-1.20576e+08
-1.22369e+08
-1.30595e+08
-1.47743e+08
-1.33857e+08
-1.34254e+08
-1.50206e+08
-1.34984e+08
-1.07793e+08
-9.74815e+07
-1.00095e+08
-9.54459e+07
-9.13945e+07
-9.77272e+07
-9.57902e+07
-9.15999e+07
-9.7804e+07
-1.25481e+08
-1.2834e+08
-1.18992e+08
-9.81738e+07
-9.76269e+07
-1.0437e+08
-1.19377e+08
-1.03697e+08
-1.11614e+08
-3.99974e+07
-4.41285e+07
-4.01903e+07
-3.29319e+07
-3.59601e+07
-3.64075e+07
-4.43953e+07
-3.99512e+07
-4.0199e+07
-3.88366e+07
-4.34275e+07
-3.8533e+07
-3.28933e+07
-3.61427e+07
-3.68818e+07
-4.30802e+07
-3.74933e+07
-3.83303e+07
-2.97186e+07
-2.54243e+07
-2.63126e+07
-2.59161e+07
-1.90782e+07
-2.5437e+07
-2.24266e+07
-1.50072e+07
-2.33122e+07
3.98041e+07
4.02046e+07
8.86437e+07
3.3529e+07
4.21831e+07
5.57016e+07
3.01456e+07
5.37616e+07
9.50692e+07
7.82536e+07
8.30806e+07
6.10942e+07
6.45779e+07
7.20894e+07
3.8385e+06
1.71927e+06
1.74684e+07
1.12113e+07
2.51439e+06
1.28328e+07
3.68042e+06
6.59852e+06
1.78596e+07
1.68903e+07
7.87763e+06
7.83976e+06
1.5618e+07
5.91784e+06
-3.40899e+07
-4.69802e+07
-4.01086e+07
-4.4334e+07
-3.65845e+07
-4.20869e+07
-3.64606e+07
-2.97405e+07
-4.59267e+07
-3.45068e+07
-2.90851e+07
-2.73856e+07
-3.66263e+07
-3.25002e+07
1.3586e+07
1.47707e+07
2.40742e+07
2.26249e+07
2.19893e+07
1.34374e+07
1.43629e+07
1.1429e+07
2.38848e+07
1.92662e+07
9.99603e+06
1.04012e+07
2.01886e+07
1.16789e+07
2.12278e+07
2.17118e+07
2.83599e+07
2.66091e+07
2.11194e+07
2.66361e+07
2.20007e+07
2.16582e+07
2.83324e+07
2.66745e+07
2.25271e+07
2.17225e+07
2.66767e+07
2.23166e+07
3.43407e+06
-855029
2.14712e+06
-562056
2.53092e+06
276566
3.40259e+06
4.95138e+06
-495969
2.94807e+06
5.79473e+06
5.7228e+06
2.22961e+06
4.725e+06
2.23409e+07
2.32276e+07
2.80417e+07
2.65347e+07
2.65688e+07
2.30989e+07
2.23456e+07
2.20867e+07
2.80705e+07
2.66497e+07
2.27613e+07
2.20511e+07
2.66282e+07
2.29168e+07
2.34358e+07
2.42477e+07
2.74785e+07
2.62492e+07
2.33792e+07
2.6292e+07
2.44046e+07
2.37171e+07
2.75427e+07
2.64909e+07
2.48899e+07
2.38201e+07
2.63789e+07
2.46433e+07
1.53415e+07
1.42354e+07
1.53974e+07
1.38923e+07
1.49856e+07
1.42384e+07
1.59205e+07
1.60401e+07
1.44309e+07
1.54447e+07
1.71055e+07
1.64092e+07
1.50692e+07
1.65398e+07
2.44974e+07
2.63625e+07
2.86483e+07
2.73571e+07
2.69129e+07
2.59424e+07
2.48914e+07
2.43193e+07
2.83563e+07
2.66247e+07
2.52158e+07
2.41295e+07
2.69057e+07
2.55766e+07
-7.9732e+08
-4.22544e+08
-5.58766e+08
-6.30825e+08
-9.59722e+08
-5.30541e+08
-4.33452e+08
-1.02524e+09
-6.05962e+08
-1.47274e+09
-1.42418e+09
-2.50128e+09
-7.02887e+08
-8.08403e+08
-1.07607e+09
-3.05599e+09
-1.03129e+09
-1.80817e+09
-1.20277e+09
-2.74728e+09
-9.73445e+08
1.00979e+09
7.36031e+08
-3.84569e+08
-1.65079e+09
-1.11036e+10
-3.71537e+09
3.74853e+08
2.8785e+08
-1.46182e+09
-9.21274e+09
-6.64742e+09
-2.39808e+09
-1.80143e+09
-2.48505e+09
-3.2254e+09
-3.38379e+09
-3.30865e+09
-9.82156e+09
-1.4082e+10
1.60779e+08
-1.01711e+10
-1.39028e+10
-5.29452e+09
-8.39148e+09
-8.01287e+09
-4.17267e+09
-2.91081e+09
-4.50535e+09
-3.60588e+09
-1.09187e+10
-5.0901e+09
-3.349e+07
-3.31597e+07
-2.01159e+07
-2.17826e+07
-2.99791e+07
-2.53978e+07
-4.97877e+07
-3.18384e+07
-2.73408e+07
-6.36335e+07
-6.35634e+07
-7.18679e+07
-6.30652e+07
-6.77819e+07
-6.80537e+07
-5.58507e+07
-2.64759e+07
-5.89066e+07
-3.74367e+07
-5.65569e+07
-3.60852e+07
-7.13917e+07
-4.46503e+07
-1.02681e+07
-3.50691e+07
-6.1284e+07
1.56725e+08
-5.62326e+07
-2.02297e+08
-9.69683e+07
-3.77491e+08
-9.25004e+07
-1.04669e+08
7.1815e+08
-1.11857e+08
-1.3097e+08
-2.23478e+08
-6.13837e+07
-1.29424e+08
-9.08743e+07
-2.60605e+08
-1.57309e+08
4.99876e+07
-6.76799e+08
-7.77275e+07
-7.30759e+07
-7.37795e+07
-7.10394e+07
-7.90702e+07
-9.4264e+07
-7.91802e+07
-9.44536e+07
-3.39989e+06
2.46041e+07
2.65906e+07
-3.23269e+07
-2.3778e+06
1.59526e+07
-3.50073e+07
-1.21271e+07
5.43341e+06
-2.31014e+07
-5.24248e+07
-1.70682e+06
-4.66894e+07
-2.7198e+07
1.67814e+08
1.01161e+08
3.21152e+07
-7.68164e+06
3.77109e+07
7.19175e+07
7.211e+07
5.36712e+07
7.0505e+06
6.69103e+07
-7.42139e+07
-7.36268e+07
-7.19827e+07
-6.6147e+07
-6.526e+07
-7.73083e+07
-7.19327e+07
-8.02637e+07
-1.11648e+08
-1.19755e+08
-9.91053e+07
-9.05253e+07
-9.15517e+07
-8.79652e+07
-7.28797e+07
-7.28178e+07
-6.30375e+07
-7.37312e+07
-6.47259e+07
-8.01257e+07
-7.13137e+07
-3.49362e+07
-4.54707e+07
-4.83713e+07
-5.62023e+07
-4.07329e+07
-6.43601e+07
-5.40857e+07
-2.40044e+07
-5.16749e+07
-2.36248e+07
-1.21316e+09
-1.0628e+09
-1.4818e+09
-8.80446e+08
-9.75901e+08
-8.38649e+08
-4.98655e+07
-1.1296e+08
-4.65198e+07
-1.09317e+08
-5.32256e+07
-5.18995e+07
-8.73657e+07
-7.88552e+07
-7.60569e+07
-7.59117e+07
-8.18298e+07
-6.99877e+07
-6.55086e+07
-8.27557e+07
-6.83494e+07
-6.82128e+07
-8.0276e+07
-6.40378e+07
-5.82137e+07
-8.18672e+07
-6.14268e+07
-1.71507e+08
-1.27638e+08
-1.67306e+08
-9.88801e+07
-1.16633e+08
-9.01026e+07
-7.65605e+07
-8.12073e+07
-7.2471e+07
-7.9368e+07
-6.60079e+07
-7.09426e+07
-7.58626e+07
-7.94982e+07
-7.19058e+07
-6.10222e+07
-6.44134e+07
-6.80409e+07
-7.76944e+07
-6.6589e+07
-7.0444e+07
-5.22012e+07
-6.32753e+07
-5.73304e+07
-6.43233e+07
-6.53654e+07
-5.90697e+07
-8.11598e+06
-1.46018e+07
-5.68372e+06
-1.01276e+07
-1.64965e+07
-664736
-4.29778e+06
-3.49826e+06
-1.7837e+07
1.56759e+07
2.09961e+07
1.1054e+08
3.67155e+07
2.73058e+07
9.88339e+07
3.7501e+07
-2.93344e+07
-2.81803e+07
-2.66386e+07
-2.72395e+07
-2.36385e+07
-2.58286e+07
9.25062e+07
-1.81281e+07
5.64622e+07
2.48606e+08
4.98301e+07
1.31515e+08
2.04549e+08
1.40721e+08
-3.12361e+06
1.15587e+08
-2.62972e+07
5.26313e+07
9.3895e+07
1.3163e+08
-2.13316e+07
3.42081e+07
5.87394e+07
-4.88103e+06
9.94745e+06
1.12427e+07
2.90307e+07
4.30659e+07
1.67985e+07
1.69034e+07
4.55981e+07
1.80601e+07
1.41361e+08
2.46523e+08
4.39707e+08
2.20802e+08
2.02106e+06
2.74648e+08
-2.45988e+06
1.25151e+08