/*--------------------------------*- C++ -*----------------------------------*\
| =========                 |                                                 |
| \\      /  F ield         | OpenFOAM: The Open Source CFD Toolbox           |
|  \\    /   O peration     | Version:  2012                                  |
|   \\  /    A nd           | Website:  www.openfoam.com                      |
|    \\/     M anipulation  |                                                 |
\*---------------------------------------------------------------------------*/
FoamFile
{
    version     2.0;
    format      ascii;
    class       volScalarField;
    location    "0.108/solid";
    object      sigmaEq;
}
// * * * * * * * * * * * * * * * * * * * * * * * * * * * * * * * * * * * * * //

dimensions      [1 -1 -2 0 0 0 0];


internalField   nonuniform List<scalar> 
24998
(
9.6592e+07
3.0592e+07
1.01589e+08
9.27801e+07
3.05929e+07
1.49195e+08
5.49337e+07
2.40394e+07
1.46233e+07
1.50177e+08
1.70119e+07
1.4717e+08
3.29138e+07
1.06682e+08
1.42334e+08
1.47304e+07
9.65307e+07
9.38775e+07
9.40606e+07
3.1625e+07
3.12283e+07
3.05857e+07
1.50077e+08
6.04131e+07
6.11281e+07
5.56175e+07
3.03346e+07
2.6454e+07
2.79882e+07
1.83361e+07
1.51194e+07
1.75933e+07
5.47038e+08
1.11131e+10
2.88982e+07
3.32826e+08
1.07784e+08
7.42319e+07
1.88185e+09
6.46506e+08
7.6721e+07
2.30937e+08
6.79987e+07
5.8329e+07
1.89181e+07
2.03085e+07
1.46394e+08
3.58385e+08
1.71529e+08
1.03422e+08
2.7267e+07
3.35035e+07
1.58425e+08
8.28095e+07
4.00674e+07
3.10514e+07
3.37914e+07
4.39652e+07
4.01158e+07
1.87365e+07
6.29526e+06
1.82922e+07
1.85604e+07
9.5453e+06
4.23654e+08
3.33493e+08
1.88957e+08
6.57761e+09
2.07759e+09
1.04631e+10
3.76675e+08
8.22354e+08
6.66781e+09
1.01171e+08
3.68393e+07
6.96388e+07
3.7764e+08
8.6388e+07
7.04378e+07
5.78447e+07
7.4566e+08
6.87236e+07
5.33745e+08
2.43618e+08
5.9245e+08
7.52108e+07
1.96089e+08
4.32292e+08
7.76431e+07
1.7676e+08
6.00899e+07
6.349e+07
2.13811e+07
6.33809e+07
5.52643e+07
2.22046e+07
5.52019e+07
5.62886e+07
2.4672e+07
2.03897e+07
1.92481e+08
1.54588e+08
1.50122e+08
9.41437e+06
2.29813e+08
1.66946e+07
5.26096e+08
2.16747e+08
2.64544e+08
2.05105e+07
3.39785e+07
2.77133e+07
1.29778e+08
1.35176e+08
4.28195e+07
1.45906e+07
7.45364e+07
2.38694e+07
1.71435e+08
2.06639e+08
9.65039e+07
6.15119e+08
2.54295e+08
1.6573e+08
1.59666e+08
2.04943e+08
2.48327e+08
9.27996e+07
8.05121e+07
8.87027e+07
1.99205e+07
1.24619e+08
4.12129e+07
6.5386e+07
5.08251e+07
7.45434e+07
5.89404e+07
1.61667e+08
9.60258e+07
8.01024e+07
2.74789e+07
3.35854e+07
2.04409e+07
3.48846e+07
5.75915e+07
3.55466e+07
4.86487e+07
2.56047e+07
5.57948e+07
3.73722e+07
7.00361e+07
2.2648e+07
1.9187e+08
9.12408e+07
4.41035e+07
7.3219e+07
4.81837e+07
7.98014e+07
4.29944e+07
3.934e+07
3.60376e+07
3.41596e+07
3.50604e+07
3.60835e+07
3.29517e+07
2.36119e+07
2.50115e+07
2.32714e+07
3.73657e+07
2.19088e+07
3.68915e+07
3.05244e+07
1.92272e+07
3.34969e+07
1.7348e+07
3.15726e+07
1.98842e+07
2.35733e+07
1.84938e+07
2.33972e+07
2.21114e+07
3.57641e+07
1.903e+07
4.85404e+07
4.6626e+07
2.1222e+07
3.84066e+07
2.6572e+07
4.49123e+07
2.2629e+07
2.12875e+07
1.7507e+07
2.5033e+06
1.5147e+07
1.88254e+07
9.44866e+06
5.03699e+06
1.78116e+07
2.84917e+06
1.98116e+07
1.83059e+07
9.44401e+06
2.35995e+07
9.60218e+06
4.73357e+08
3.15158e+09
3.69529e+09
8.83953e+07
4.80711e+07
2.20817e+08
1.46948e+08
2.08103e+08
7.66145e+07
7.19768e+07
1.14481e+08
8.4906e+07
8.73337e+07
8.39482e+07
7.80972e+07
7.17425e+07
3.02565e+07
5.06928e+07
2.88894e+07
4.88846e+07
1.51735e+08
1.0248e+08
1.39201e+08
3.81259e+07
8.83463e+07
1.44919e+08
1.55068e+07
5.70234e+07
2.73147e+07
4.94621e+07
2.28929e+07
2.35257e+07
5.04751e+07
5.33333e+06
2.103e+07
1.40338e+07
2.19679e+07
5.89387e+06
1.28087e+07
1.8686e+07
3.10013e+06
1.12342e+07
7.65372e+06
1.41533e+07
4.08277e+06
5.61858e+06
1.0999e+07
3.70721e+08
2.47744e+08
2.43746e+08
2.35041e+08
1.91934e+08
5.37164e+08
3.90795e+08
5.68001e+07
2.91131e+08
6.34966e+08
4.43754e+07
1.20118e+08
1.76254e+08
1.02394e+08
8.11487e+07
5.82769e+07
1.76888e+08
4.28106e+07
3.06384e+07
6.75816e+07
1.49975e+08
1.15139e+08
1.20745e+08
5.77209e+07
1.16086e+08
1.43934e+08
9.99082e+07
3.89163e+07
8.29122e+07
1.21032e+08
1.75853e+08
3.34254e+07
1.32107e+08
9.38062e+07
1.19978e+08
1.22631e+08
9.17034e+07
8.5157e+07
8.63e+07
1.14904e+08
8.10486e+07
9.33784e+07
3.92427e+07
2.99229e+07
3.84429e+07
4.04735e+07
3.12337e+07
4.00038e+07
2.90583e+07
4.78847e+07
5.47433e+07
3.85802e+07
1.49966e+08
1.071e+08
1.33162e+08
9.11885e+07
5.85611e+07
1.16981e+08
1.85803e+07
6.57457e+07
6.45231e+07
2.98602e+07
3.59221e+07
1.79057e+07
6.75984e+07
3.44238e+07
6.83917e+07
6.45001e+07
2.89738e+07
2.37725e+07
3.55788e+07
7.32682e+07
1.79893e+07
6.10725e+07
2.84228e+07
5.11493e+07
2.48285e+07
1.7704e+07
5.73461e+07
1.65461e+07
3.30026e+07
3.65153e+07
1.58202e+07
1.75468e+07
1.56169e+07
3.9389e+07
7.32747e+06
2.92442e+07
2.37776e+07
1.45206e+07
5.82767e+06
1.61705e+07
2.69616e+07
1.45363e+07
3.39389e+07
1.53256e+07
2.59444e+07
1.40834e+07
1.54914e+07
3.16486e+07
1.16955e+07
1.91535e+07
2.22295e+07
8.98118e+06
1.05123e+07
9.39963e+06
2.34025e+07
4.99892e+06
1.57137e+07
1.1525e+07
8.1937e+06
4.18064e+06
9.57972e+06
1.19999e+07
4.51612e+06
2.11906e+07
8.3891e+06
1.69062e+07
6.19874e+06
8.94468e+06
2.00042e+07
6.03993e+08
3.30913e+09
5.06086e+09
2.75395e+09
6.98317e+09
5.26067e+09
1.29368e+11
9.73384e+09
1.86238e+07
6.00806e+07
5.4888e+07
3.92258e+07
2.52842e+08
1.8084e+08
2.39637e+08
8.19276e+07
1.03748e+08
1.53756e+08
1.40658e+08
5.12258e+07
1.79546e+08
8.12378e+07
6.9772e+07
1.15891e+08
1.65084e+08
6.04539e+07
1.26318e+08
5.82971e+07
7.43809e+07
3.67173e+07
1.13433e+09
1.08084e+09
1.3254e+08
9.31707e+07
8.1485e+07
7.59422e+07
8.66574e+07
7.55347e+07
9.04291e+07
1.3264e+08
1.21733e+08
8.24384e+07
7.06443e+07
7.59027e+07
5.55295e+07
6.97008e+07
5.49688e+07
6.8684e+07
2.4573e+07
2.11386e+07
2.75169e+07
2.25778e+07
1.17568e+08
2.48224e+08
3.01499e+07
2.72647e+07
7.21223e+07
4.30577e+08
2.00988e+08
2.74047e+08
3.03949e+07
1.08756e+08
3.28991e+08
2.4159e+08
3.57583e+08
2.86379e+08
2.83792e+07
1.82489e+08
1.72416e+08
3.75429e+07
3.41581e+07
4.97644e+07
1.21326e+08
5.71925e+07
1.12504e+08
8.00631e+07
4.77053e+07
1.29723e+08
2.73931e+07
3.27834e+07
1.36983e+08
1.64656e+08
2.85104e+07
2.90552e+07
6.23073e+07
8.29384e+07
7.9296e+07
1.27778e+08
6.74537e+07
1.04614e+08
8.59779e+07
5.01062e+07
1.16178e+08
6.53492e+07
7.59414e+07
6.25587e+07
1.0189e+07
7.88679e+06
1.50557e+07
4.45327e+07
1.97576e+07
3.9425e+07
2.24541e+07
1.03792e+07
4.46454e+07
7.28052e+06
7.50631e+06
4.78156e+07
5.85901e+07
3.36487e+07
3.38536e+07
2.52727e+07
2.94343e+07
2.5596e+07
4.38202e+07
2.12452e+07
3.44581e+07
3.00231e+07
1.74468e+07
4.33749e+07
2.07407e+07
2.49109e+07
1.99471e+07
7.98826e+06
8.13301e+06
5.42359e+06
2.02115e+07
1.14069e+07
1.50836e+07
1.24521e+07
5.26782e+06
1.67133e+07
7.96364e+06
8.15272e+06
1.50663e+07
1.8538e+07
9.91714e+06
1.10969e+07
5.78093e+06
7.50441e+06
9.05318e+06
1.13465e+07
5.77938e+06
1.3053e+07
8.15981e+06
6.97427e+06
9.38907e+06
5.35624e+06
1.07561e+07
1.11595e+07
4.03276e+06
1.99231e+06
2.97181e+06
1.8588e+07
4.89028e+06
1.30975e+07
1.87122e+06
1.13579e+07
1.88276e+08
2.33695e+09
7.00198e+08
4.92258e+08
2.47911e+08
9.39264e+08
2.23677e+08
6.21378e+08
3.81266e+08
2.55414e+08
1.62162e+08
2.72666e+08
1.69308e+08
2.24523e+08
4.02847e+08
1.26122e+08
1.36425e+08
3.49843e+09
1.48187e+09
8.96552e+08
5.86722e+07
4.8023e+08
2.94346e+09
1.14027e+11
3.9389e+09
1.8447e+08
9.88962e+08
7.72009e+08
2.84543e+08
3.05937e+09
7.63496e+08
1.60087e+09
5.81211e+09
1.01452e+09
5.3718e+07
8.30232e+07
1.39713e+08
1.41524e+08
2.26286e+08
8.72644e+07
1.43467e+08
1.91953e+08
3.07089e+08
4.61425e+07
4.95572e+07
1.114e+08
6.12263e+07
1.25681e+08
3.10069e+08
4.33883e+07
6.56002e+07
6.77722e+07
3.1714e+07
6.24374e+07
6.43509e+07
9.45104e+07
6.50086e+07
7.41587e+07
1.99455e+08
7.08888e+07
1.37211e+08
1.7336e+08
1.66659e+08
1.20391e+08
1.0514e+08
6.14697e+07
7.65406e+07
1.23764e+08
5.39389e+07
8.04931e+07
8.56893e+07
8.74652e+07
1.79161e+08
1.47861e+08
3.96826e+07
5.75497e+07
1.02342e+08
6.79501e+07
8.93368e+07
1.33674e+08
2.50661e+08
1.06209e+09
2.98547e+08
4.48126e+07
1.15976e+08
1.24019e+08
9.34408e+08
1.68692e+08
2.50847e+08
3.4443e+08
3.61419e+08
8.97715e+07
1.16212e+08
1.21594e+08
1.31199e+08
2.54634e+08
1.39438e+08
1.5315e+08
2.82792e+08
1.41512e+08
8.99507e+07
7.75162e+07
8.55102e+07
8.35963e+07
8.46089e+07
7.65345e+07
8.37452e+07
1.2439e+08
1.15903e+08
9.7706e+07
7.57975e+07
6.4134e+07
8.55591e+07
9.88913e+07
6.47488e+07
8.85799e+07
3.49601e+07
3.73438e+07
4.27021e+07
5.79301e+07
4.25057e+07
2.86686e+07
3.20167e+07
3.75358e+07
5.80635e+07
3.65855e+07
4.17646e+07
4.19786e+07
5.35955e+07
4.15157e+07
3.11411e+07
3.98295e+07
5.30951e+07
4.13102e+07
9.44328e+07
3.76106e+07
2.18362e+08
2.76248e+07
2.50703e+07
4.89633e+07
7.1069e+07
3.86056e+08
5.21403e+07
3.17329e+08
7.74943e+07
1.14612e+08
3.12293e+08
2.54964e+08
4.40156e+07
3.4367e+07
4.64153e+07
2.73567e+08
6.86194e+07
1.0373e+08
1.24097e+08
1.3243e+08
1.33356e+08
2.42382e+08
3.85841e+08
4.59305e+08
3.36025e+08
1.6154e+08
3.14409e+08
2.69963e+08
1.59454e+08
4.31061e+08
3.06752e+08
3.20653e+07
3.30059e+07
8.72684e+07
4.54455e+07
1.1069e+08
1.33282e+08
1.22904e+08
1.24227e+08
1.02768e+08
1.30751e+08
1.18716e+08
4.63985e+07
1.15469e+08
1.16702e+08
5.89432e+07
6.27078e+07
1.30063e+08
7.97611e+07
1.58038e+08
1.91807e+08
1.70565e+08
1.75639e+08
1.55926e+08
1.95514e+08
1.71575e+08
8.43088e+07
1.6501e+08
1.64851e+08
2.03974e+08
2.50878e+08
4.01011e+08
4.54982e+08
2.56098e+08
1.79019e+08
3.37107e+08
2.38878e+08
5.50282e+08
2.68753e+08
1.12671e+08
1.11145e+08
1.72658e+08
8.03592e+07
8.2632e+07
1.00334e+08
1.69397e+08
8.25955e+07
1.0656e+08
1.11674e+08
2.00955e+08
1.75442e+08
2.33877e+08
1.0742e+08
1.39771e+08
1.74253e+08
2.39358e+08
1.44161e+08
1.32897e+08
1.70779e+08
1.5207e+08
8.69929e+07
4.79958e+07
4.15468e+07
3.96022e+07
1.10867e+08
5.6868e+07
7.9404e+07
8.16395e+07
2.48327e+07
9.2597e+07
2.75514e+07
3.77099e+07
8.41495e+07
8.1814e+07
1.90187e+07
7.21052e+07
5.09473e+07
7.35673e+07
2.47761e+07
3.86852e+07
7.03698e+07
8.74996e+07
9.07116e+07
1.11746e+07
1.56417e+07
2.4772e+07
1.7673e+07
8.64198e+07
9.05841e+07
3.5686e+07
7.73077e+07
5.13733e+07
9.68632e+07
4.68473e+07
3.86461e+07
8.38552e+07
8.08937e+07
9.81197e+07
1.1573e+07
1.68413e+07
2.54071e+07
1.90019e+07
1.2823e+08
1.04668e+08
2.55073e+07
4.21806e+07
7.26001e+07
1.17218e+08
1.0133e+08
9.0758e+07
2.73562e+07
1.09698e+08
8.30551e+07
4.99598e+07
9.21971e+07
8.03396e+07
6.54509e+07
6.72398e+07
8.0493e+07
8.30845e+07
1.19135e+08
1.63641e+08
1.27064e+08
1.32919e+08
8.32345e+07
1.59206e+08
1.30767e+08
8.4003e+07
1.14827e+08
1.20804e+08
3.04778e+07
3.09724e+07
3.3755e+07
2.81383e+07
2.19746e+07
3.77476e+07
3.32166e+07
2.68254e+07
4.14304e+07
4.07816e+07
2.69884e+07
2.93192e+07
3.31042e+07
2.3528e+07
3.49896e+07
3.33824e+07
7.16705e+07
3.60346e+07
4.24917e+07
4.27924e+07
2.84901e+07
3.75674e+07
7.2562e+07
4.73531e+07
4.4213e+07
3.36948e+07
2.43734e+07
3.52565e+07
5.40011e+07
8.26477e+07
1.02705e+08
1.47653e+08
7.13449e+07
1.27079e+08
8.77374e+07
4.43851e+07
1.32576e+08
6.7308e+07
5.96857e+07
4.48156e+07
4.86003e+07
2.64077e+07
3.41455e+07
4.80494e+07
5.24983e+07
3.5593e+07
3.52634e+07
4.32319e+07
5.11851e+07
4.07463e+07
5.17588e+07
3.18585e+07
3.24142e+07
4.20783e+07
5.59025e+07
3.28722e+07
4.05752e+07
4.03492e+07
8.57834e+07
7.89623e+07
1.02286e+07
8.92047e+06
1.78668e+07
4.69401e+07
2.11527e+07
4.96815e+07
2.38541e+07
1.75694e+07
5.35004e+07
8.95316e+06
8.84485e+06
6.90076e+07
7.66032e+07
1.66762e+07
3.60044e+07
2.03687e+07
4.60072e+07
1.74438e+07
1.818e+07
4.256e+07
5.15909e+07
5.75424e+07
9.45782e+06
9.36558e+06
9.06752e+06
9.28474e+06
6.66492e+07
5.96229e+07
7.35205e+06
3.24333e+07
1.89382e+07
3.47583e+07
1.01977e+07
1.68118e+07
3.06128e+07
2.68389e+07
3.34935e+07
7.91794e+06
7.68324e+06
7.32388e+06
7.58419e+06
4.46094e+07
3.60195e+07
3.71625e+07
3.89399e+07
4.09776e+07
3.55535e+07
3.5616e+07
3.97854e+07
3.73229e+07
3.58733e+07
4.06135e+07
3.80993e+07
3.53879e+07
4.01002e+07
2.34453e+07
2.34456e+07
2.15149e+07
3.12495e+07
2.94381e+07
2.85712e+07
3.83751e+07
3.17861e+07
2.1259e+07
2.42973e+07
2.81377e+07
3.36163e+07
3.84545e+07
3.27629e+07
2.59382e+07
2.51698e+07
3.73908e+07
2.78173e+07
3.09737e+07
2.4029e+07
1.98707e+07
2.77953e+07
3.65859e+07
2.61498e+07
3.02947e+07
2.68707e+07
2.03859e+07
2.84241e+07
2.23578e+07
2.20194e+07
3.11011e+07
2.28707e+07
2.86074e+07
2.88233e+07
2.23448e+07
2.82323e+07
3.31667e+07
3.08471e+07
2.98559e+07
2.25722e+07
2.19099e+07
2.7226e+07
3.57902e+07
3.98928e+07
3.19149e+07
4.96563e+07
3.1339e+07
4.07129e+07
4.02231e+07
2.78922e+07
4.9474e+07
3.10895e+07
2.46321e+07
1.97598e+07
2.92637e+07
9.55695e+06
1.308e+07
1.69766e+07
3.18164e+07
1.35905e+07
1.38063e+07
1.90326e+07
3.49941e+07
2.82316e+07
3.53355e+07
1.5191e+07
2.12118e+07
2.72797e+07
3.80595e+07
2.20418e+07
1.94088e+07
2.71721e+07
4.98736e+07
4.50408e+07
9.49237e+06
9.12992e+06
1.44105e+07
2.41729e+07
1.25492e+07
2.77993e+07
1.37386e+07
1.33997e+07
2.96134e+07
8.97139e+06
9.10047e+06
3.97858e+07
4.36599e+07
1.1921e+07
2.01335e+07
1.21628e+07
2.6178e+07
1.32541e+07
1.09597e+07
2.47192e+07
3.18646e+07
3.45573e+07
5.53452e+06
7.6226e+06
8.87655e+06
8.04608e+06
3.86761e+07
3.54834e+07
5.01567e+06
1.65038e+07
1.10606e+07
1.37675e+07
5.32803e+06
9.98778e+06
1.27431e+07
1.08075e+07
1.15326e+07
4.85727e+06
6.72373e+06
7.84062e+06
7.11625e+06
1.41212e+07
1.20298e+07
9.88593e+06
7.23886e+06
8.60694e+06
1.72695e+07
9.27669e+06
1.03581e+07
1.11219e+07
1.7747e+07
1.06269e+07
7.79894e+06
7.73846e+06
8.48728e+06
1.0626e+07
1.17294e+07
1.04358e+07
7.18573e+06
1.12015e+07
2.01964e+07
1.32754e+07
1.36679e+07
1.16675e+07
1.98869e+07
1.34054e+07
7.72029e+06
1.13587e+07
1.1587e+07
5.82541e+06
9.84229e+06
1.43409e+07
1.53237e+07
8.55203e+06
1.83117e+07
1.08581e+07
7.16192e+06
1.29236e+07
7.78979e+06
3.11613e+07
2.88754e+07
4.56671e+06
1.63934e+06
3.80683e+06
2.0128e+07
5.42074e+06
2.51739e+07
1.21263e+06
2.7939e+07
1.55919e+09
1.47979e+09
2.94745e+07
5.41449e+07
1.16042e+08
9.95815e+07
9.72714e+07
8.99834e+07
8.73062e+07
8.50396e+07
3.07542e+07
3.0397e+07
2.93936e+07
3.74319e+07
1.65015e+08
2.08497e+08
3.48157e+07
3.12391e+07
4.79063e+07
6.01929e+07
1.65722e+08
1.26372e+08
1.9799e+08
1.19355e+08
1.71692e+07
8.61315e+07
9.75017e+07
1.04145e+08
1.05608e+08
9.56886e+07
9.11882e+07
9.3103e+07
1.01037e+08
9.04458e+07
9.66953e+07
3.36002e+07
3.13786e+07
3.34101e+07
3.45908e+07
3.16445e+07
3.50354e+07
3.04441e+07
3.12698e+07
3.17958e+07
1.80604e+09
6.41768e+08
1.08355e+09
9.90687e+08
1.37174e+09
1.29948e+09
1.24055e+09
2.14012e+10
1.04556e+10
1.00082e+10
1.91765e+10
8.88746e+09
2.22843e+10
1.73779e+10
2.86571e+07
2.02028e+07
4.79591e+07
5.02382e+07
4.89408e+07
3.63148e+07
2.46079e+07
1.59396e+08
3.58983e+08
3.77257e+08
2.63627e+08
2.4015e+08
2.18548e+08
2.42294e+08
6.03197e+07
6.92025e+07
6.99135e+07
7.58785e+07
6.33904e+07
8.45024e+07
7.02073e+07
4.64589e+09
1.19509e+09
2.10349e+09
8.42041e+08
7.0763e+08
8.62947e+08
7.64716e+07
7.04356e+07
6.76835e+07
2.48438e+08
1.88283e+08
2.00921e+08
8.67928e+07
6.80049e+07
8.80304e+07
6.58362e+07
5.80759e+07
6.48796e+07
1.76481e+07
1.75771e+07
1.81042e+07
1.4623e+07
1.14207e+08
2.01916e+07
1.41857e+07
7.63705e+07
1.0216e+08
6.47016e+08
5.29129e+08
3.99529e+08
4.1273e+08
2.98727e+08
1.39323e+08
2.01752e+08
1.92431e+08
6.35119e+08
3.19298e+08
2.71879e+07
3.1663e+07
4.34465e+07
4.48707e+07
8.36118e+07
1.4935e+08
7.95976e+07
4.87292e+07
4.81929e+07
5.34325e+07
9.33566e+07
6.04127e+07
3.24184e+07
3.41155e+07
2.28224e+07
2.51565e+07
2.68476e+07
4.39988e+07
2.47277e+07
3.38067e+07
3.17848e+07
1.86725e+07
4.1532e+07
2.01427e+07
5.00921e+06
1.53619e+07
4.43337e+06
4.819e+06
9.27647e+06
1.59967e+07
7.69587e+06
1.03403e+07
8.53746e+06
8.23378e+06
6.66814e+06
4.32681e+06
6.62654e+06
1.90264e+07
8.74019e+06
1.70221e+07
6.92999e+08
3.01906e+08
8.27103e+08
8.7155e+08
1.1996e+09
5.75335e+08
4.98208e+08
2.66823e+08
3.68493e+08
3.92513e+08
2.54101e+08
2.41192e+08
2.68544e+08
2.47489e+08
2.93799e+09
7.07779e+09
6.06314e+09
3.99677e+09
6.65941e+09
3.53089e+09
3.60569e+09
5.76671e+09
2.18792e+09
8.66988e+09
2.30718e+10
8.66907e+09
1.52603e+10
1.07822e+10
1.5984e+10
9.35591e+09
1.51096e+10
4.6305e+08
1.07431e+09
6.39213e+08
3.301e+09
7.06665e+09
3.96611e+09
6.75429e+09
3.71092e+09
7.56626e+09
3.88895e+09
6.3783e+07
4.14755e+07
5.81823e+07
5.9378e+07
5.3475e+07
6.44807e+07
7.36443e+07
6.1219e+07
6.86252e+07
6.7752e+07
7.09751e+07
6.45207e+07
7.02843e+07
6.76108e+07
8.64336e+07
6.82798e+07
9.02592e+07
9.84928e+07
8.13983e+07
6.93392e+07
1.17564e+08
7.34912e+07
6.95836e+07
7.22311e+07
7.8664e+07
7.45473e+07
7.09386e+07
7.77908e+07
7.43304e+08
8.70303e+08
1.05972e+09
6.20314e+07
7.44763e+07
6.56418e+07
6.61556e+08
3.55462e+08
4.49275e+08
2.62785e+08
2.83457e+08
3.07502e+08
6.57679e+08
4.6202e+08
5.32398e+08
8.08591e+07
8.25461e+07
8.89025e+07
1.68964e+08
2.1311e+08
1.78509e+08
2.93314e+08
3.64335e+08
2.57785e+08
8.25976e+07
7.24943e+07
7.92547e+07
1.56019e+08
1.56004e+08
1.40484e+08
6.51769e+07
6.20881e+07
6.77489e+07
7.327e+07
6.53749e+07
7.42941e+07
1.88668e+07
2.62505e+07
2.38844e+07
6.28112e+07
5.02119e+07
4.90755e+07
5.07372e+07
5.67605e+07
5.17976e+07
2.52206e+07
2.48211e+07
2.77585e+07
5.75598e+07
4.80594e+07
5.07016e+07
4.95533e+07
5.59066e+07
4.97385e+07
6.28079e+07
2.2624e+07
9.03688e+07
2.3618e+07
1.97086e+07
2.35426e+07
8.56798e+08
3.66805e+08
9.09928e+07
1.64784e+08
2.97525e+08
1.44602e+08
1.90234e+08
1.79585e+08
1.04992e+08
1.08646e+08
8.32825e+07
1.74284e+08
8.31731e+07
3.67738e+07
2.51327e+08
6.91483e+07
4.72634e+07
9.99581e+07
5.25579e+08
5.00349e+08
5.01008e+08
2.03671e+08
2.3508e+08
2.22773e+08
3.01955e+08
2.62154e+08
2.65935e+08
2.61225e+07
3.46122e+07
5.92114e+07
3.72867e+07
4.01951e+07
1.33052e+08
1.28291e+08
1.31524e+08
1.26561e+08
1.27957e+08
1.21244e+08
4.62527e+07
4.12328e+07
3.65073e+07
3.72879e+07
7.22389e+07
6.6798e+07
5.26611e+07
6.22057e+07
1.79829e+08
1.72094e+08
1.79316e+08
1.94225e+08
2.01411e+08
1.90742e+08
9.49852e+07
8.92489e+07
8.4493e+07
1.41665e+08
1.64151e+08
6.17126e+08
4.65761e+08
4.48669e+08
1.99661e+08
2.67408e+08
2.31174e+08
4.85643e+08
2.84422e+08
7.01731e+07
5.75134e+07
1.70776e+08
8.46999e+07
8.65377e+07
1.26755e+08
1.595e+08
1.01336e+08
4.88324e+07
4.90501e+07
1.35017e+08
1.16999e+08
2.1652e+08
1.17582e+08
1.30345e+08
1.91669e+08
2.45413e+08
1.71944e+08
6.31976e+07
7.44325e+07
2.03183e+07
2.65059e+07
2.62228e+07
1.22998e+08
1.17908e+08
1.16026e+08
3.55194e+07
3.59823e+07
3.9478e+07
6.11798e+07
7.39352e+07
7.0053e+07
5.73633e+07
7.27785e+07
6.84405e+07
5.6725e+07
6.39861e+07
1.63183e+08
1.50802e+08
1.52906e+08
9.22596e+07
8.60606e+07
8.64801e+07
8.17955e+07
9.10753e+07
9.318e+07
2.85745e+07
3.26766e+07
2.41539e+07
2.32827e+07
2.46584e+07
3.50763e+07
3.43147e+07
3.36547e+07
5.31588e+07
5.07726e+07
4.62766e+07
3.33819e+07
2.82835e+07
2.6721e+07
4.24216e+07
2.816e+07
5.2756e+07
4.67802e+07
4.4857e+07
3.8046e+07
3.51914e+07
3.598e+07
7.12203e+07
6.10911e+07
6.16933e+07
2.61446e+07
1.91318e+07
2.35977e+07
3.07752e+07
3.31759e+07
1.13249e+08
1.77693e+08
1.00448e+08
5.97789e+07
5.05542e+07
5.50358e+07
1.04055e+08
6.47082e+07
4.29435e+07
4.1413e+07
4.47062e+07
2.76387e+07
3.06139e+07
5.11301e+07
6.48624e+07
4.47538e+07
3.44466e+07
3.63428e+07
3.03035e+07
2.95247e+07
4.8302e+07
3.24734e+07
3.36542e+07
5.21547e+07
6.99679e+07
4.48146e+07
2.94143e+07
2.95779e+07
3.58195e+07
2.79877e+07
2.77298e+07
3.52159e+07
3.53517e+07
3.6087e+07
3.71405e+07
2.80656e+07
2.94906e+07
3.48595e+07
3.40633e+07
3.59654e+07
2.35935e+07
2.38691e+07
2.26557e+07
2.00478e+07
1.78058e+07
3.52518e+07
3.76891e+07
3.57333e+07
2.08481e+07
1.82411e+07
1.67629e+07
3.63392e+07
3.77221e+07
3.69755e+07
2.87273e+07
2.1902e+07
2.61308e+07
3.12691e+07
2.59321e+07
1.95949e+07
1.82873e+07
2.06925e+07
3.34398e+07
2.99571e+07
3.17444e+07
2.29674e+07
1.69649e+07
1.85993e+07
2.32675e+07
2.02729e+07
1.89815e+07
2.34818e+07
2.06679e+07
2.44065e+07
2.24174e+07
2.46826e+07
3.54068e+07
3.43571e+07
3.41519e+07
2.08781e+07
1.72592e+07
1.81747e+07
2.34377e+07
2.51475e+07
3.22569e+07
4.90706e+07
3.16223e+07
2.9303e+07
2.87337e+07
2.75969e+07
4.79515e+07
2.91055e+07
2.20269e+07
1.96965e+07
2.39275e+07
9.84119e+06
1.1529e+07
1.81784e+07
3.64272e+07
1.66127e+07
1.09723e+07
1.30092e+07
2.28348e+07
2.09208e+07
2.95296e+07
1.56857e+07
1.81972e+07
2.70498e+07
4.29012e+07
2.51217e+07
1.27148e+07
1.47588e+07
4.57178e+06
3.99432e+06
3.49332e+06
1.59359e+07
1.30361e+07
1.36816e+07
1.56151e+07
1.54929e+07
1.33029e+07
9.04517e+06
5.96143e+06
6.0142e+06
6.05047e+06
1.54783e+07
4.81226e+06
4.47133e+06
4.15949e+06
2.01558e+07
1.75424e+07
1.78919e+07
1.58041e+07
1.62021e+07
1.42874e+07
8.97692e+06
7.81816e+06
7.93408e+06
2.14715e+06
3.72457e+06
1.48625e+07
2.07183e+07
1.23966e+07
1.20548e+07
1.00865e+07
8.39253e+06
8.66725e+06
6.11983e+06
1.11524e+07
2.0276e+07
9.52862e+06
2.23976e+07
1.54591e+09
1.05967e+09
1.04325e+09
8.03039e+08
1.55713e+09
1.17434e+09
2.28105e+09
1.5238e+09
1.30759e+09
1.69891e+09
1.56355e+09
1.22918e+09
1.70356e+09
3.83105e+09
2.05344e+09
2.01855e+09
2.05738e+09
1.9316e+09
1.33182e+09
1.15387e+08
1.41649e+08
1.16646e+08
7.83836e+07
7.81066e+07
1.33093e+08
1.32817e+08
9.55259e+07
1.06697e+08
6.37295e+07
1.11317e+08
6.5739e+07
1.08817e+08
9.77251e+07
4.43606e+07
7.34051e+07
1.0156e+08
6.30794e+07
9.69338e+07
7.45777e+07
9.17318e+07
9.97142e+07
5.33093e+07
6.04371e+07
8.82219e+07
7.93571e+07
8.33289e+07
8.54306e+07
7.6532e+07
8.30625e+07
7.75127e+07
7.50823e+07
8.14051e+07
3.06578e+07
2.79712e+07
2.90345e+07
3.20614e+07
4.0632e+07
2.97278e+07
2.74742e+07
3.73343e+07
2.90808e+07
1.09791e+08
4.43263e+07
7.16419e+07
8.68803e+07
8.89811e+07
7.42397e+07
1.05355e+08
1.12563e+08
4.32122e+07
8.97375e+07
7.42309e+07
1.11559e+08
9.07976e+07
7.52237e+07
3.49686e+07
1.85274e+07
2.02197e+07
2.91804e+07
3.0265e+07
2.15691e+07
3.27909e+07
3.70568e+07
1.91804e+07
3.46678e+07
2.52668e+07
3.96461e+07
3.33222e+07
2.35422e+07
1.43344e+07
5.57759e+06
8.92689e+06
1.15194e+07
1.18428e+07
9.17692e+06
1.37204e+07
1.50555e+07
5.48952e+06
1.30687e+07
9.80168e+06
1.57894e+07
1.26855e+07
9.4991e+06
7.64217e+06
3.52334e+06
4.07697e+06
5.88096e+06
6.56062e+06
4.60546e+06
6.79333e+06
8.12794e+06
3.63576e+06
7.20924e+06
5.51096e+06
8.52487e+06
6.95309e+06
5.09264e+06
4.21683e+08
4.54899e+08
5.34956e+08
3.99692e+08
4.41727e+08
3.58848e+08
4.55745e+08
3.56796e+08
5.97794e+08
4.52086e+08
3.94504e+08
4.44629e+08
3.47308e+08
3.51037e+08
7.24709e+07
2.96085e+08
2.45166e+08
2.67906e+08
4.15702e+08
3.61468e+08
4.65195e+08
5.16896e+08
4.11766e+08
1.05262e+08
6.23323e+07
4.75626e+07
1.14973e+08
9.87788e+07
1.1202e+08
5.56546e+07
1.12176e+08
4.53888e+07
1.1103e+08
7.93135e+07
1.22278e+08
1.13449e+08
6.48929e+07
5.8046e+07
3.53622e+07
6.49049e+07
6.04982e+07
5.83473e+07
5.68918e+07
1.0587e+08
4.18486e+07
2.0923e+07
4.95134e+07
3.45858e+07
6.19019e+07
4.90811e+07
5.94836e+07
6.92975e+07
6.22916e+07
5.9397e+07
4.24101e+07
6.54937e+07
1.95682e+08
3.28508e+08
2.33215e+08
7.92591e+07
1.35413e+08
1.28029e+08
2.23292e+08
1.40102e+08
1.52768e+08
9.14097e+07
4.46076e+07
6.44219e+07
7.51623e+07
8.36237e+07
7.74359e+07
6.49546e+07
1.00443e+08
4.12204e+07
8.67637e+07
7.16724e+07
1.0746e+08
8.24867e+07
6.77544e+07
1.66751e+08
1.53114e+08
1.07695e+08
2.42543e+07
4.53422e+07
6.22838e+07
1.52271e+08
7.37999e+07
8.59498e+07
9.66161e+07
1.02175e+08
1.04999e+08
1.1127e+08
1.22925e+08
1.13313e+08
1.1089e+08
1.23509e+08
1.13114e+08
9.54148e+07
9.01432e+07
9.30335e+07
8.94287e+07
8.72851e+07
9.15386e+07
8.95011e+07
8.74698e+07
9.15862e+07
1.07364e+08
1.08412e+08
1.02135e+08
8.60136e+07
8.57567e+07
9.15077e+07
1.01116e+08
8.94442e+07
9.60585e+07
3.61878e+07
3.93838e+07
3.61346e+07
3.08017e+07
3.20274e+07
3.28459e+07
3.90338e+07
3.49288e+07
3.56525e+07
3.57659e+07
4.08138e+07
3.6358e+07
3.15702e+07
3.45957e+07
3.49498e+07
4.06158e+07
3.58644e+07
3.62524e+07
2.99801e+07
3.07216e+07
3.17595e+07
3.53466e+07
5.79931e+07
3.76928e+07
3.67634e+07
5.93372e+07
3.84318e+07
1.09883e+08
7.08716e+07
4.94032e+07
7.47151e+07
8.03973e+07
7.81383e+07
9.84976e+07
1.19115e+08
4.97893e+07
1.03271e+08
8.61698e+07
1.23427e+08
9.51306e+07
8.52908e+07
4.40953e+07
2.74457e+07
1.80656e+07
3.81414e+07
4.54875e+07
3.72291e+07
2.59064e+07
4.23121e+07
1.77275e+07
3.58158e+07
2.3827e+07
4.12386e+07
3.66559e+07
2.48537e+07
4.83319e+07
2.93512e+07
3.57777e+07
4.64187e+07
5.22365e+07
4.41742e+07
3.29804e+07
4.52815e+07
2.82283e+07
3.82362e+07
2.77198e+07
4.2122e+07
3.99781e+07
2.99456e+07
3.69962e+07
2.12473e+07
1.78271e+07
3.26643e+07
3.35766e+07
2.19039e+07
3.59839e+07
3.85833e+07
1.79356e+07
3.52173e+07
2.31783e+07
3.95897e+07
3.43234e+07
2.23977e+07
2.4494e+07
1.68739e+07
1.61458e+07
2.44735e+07
2.53624e+07
2.37425e+07
1.64133e+07
2.35275e+07
1.60269e+07
2.22353e+07
1.56259e+07
2.27388e+07
2.28934e+07
1.60407e+07
1.84754e+07
6.42757e+06
1.1604e+07
1.62755e+07
1.95081e+07
1.57519e+07
1.11285e+07
1.75041e+07
6.45761e+06
1.40856e+07
1.02157e+07
1.66292e+07
1.45372e+07
1.05972e+07
2.04236e+07
1.42339e+07
1.49573e+07
1.96159e+07
2.01578e+07
1.45772e+07
1.97714e+07
2.11737e+07
1.50757e+07
2.14557e+07
1.52776e+07
2.18861e+07
2.08622e+07
1.48984e+07
1.43074e+07
1.09946e+07
1.08619e+07
1.4868e+07
1.48239e+07
1.43554e+07
1.04524e+07
1.37736e+07
1.0552e+07
1.31671e+07
9.16255e+06
1.3223e+07
1.3749e+07
9.85861e+06
9.43585e+06
4.67578e+06
6.92926e+06
8.16683e+06
9.75454e+06
7.98433e+06
6.62417e+06
9.13499e+06
4.61377e+06
7.49503e+06
5.91272e+06
8.81765e+06
7.68131e+06
6.28252e+06
1.1256e+07
5.4261e+06
6.63863e+06
9.80944e+06
1.07446e+07
6.47821e+06
1.01629e+07
1.20016e+07
7.30716e+06
1.24466e+07
8.37494e+06
1.26474e+07
1.17869e+07
7.49682e+06
1.89384e+09
6.71932e+08
1.31138e+09
9.62745e+08
1.70211e+09
1.40149e+09
1.28392e+09
2.34191e+09
1.96317e+09
3.47229e+09
4.37391e+09
5.55551e+09
1.71545e+09
2.45238e+09
2.4777e+09
6.3508e+09
2.64927e+09
5.20121e+09
2.28858e+09
6.09444e+09
2.7525e+09
9.24367e+08
3.98957e+09
2.13015e+09
4.78762e+10
3.354e+10
7.59748e+09
4.5908e+09
1.45952e+10
3.10361e+09
2.35218e+10
1.67063e+10
7.77221e+09
4.42533e+09
7.73267e+09
7.64951e+09
7.8181e+09
1.19115e+10
2.87535e+10
5.32179e+10
1.32213e+11
5.60353e+10
4.82736e+10
3.20456e+10
3.58085e+10
1.99472e+10
9.02542e+09
9.5505e+09
2.1749e+10
8.46006e+09
3.21662e+10
1.82776e+10
4.4685e+07
5.41448e+07
6.70323e+07
1.71413e+07
3.08749e+07
3.08185e+07
4.08966e+07
2.69519e+07
3.26684e+07
3.68651e+07
5.79071e+07
5.71986e+07
5.41703e+07
4.56221e+07
5.22083e+07
4.94764e+07
7.62614e+07
9.62529e+07
4.29586e+07
5.00093e+07
4.37938e+07
4.60593e+07
4.0041e+07
5.36951e+07
4.10959e+07
5.99816e+07
1.97605e+08
1.62166e+08
2.03339e+08
3.34757e+08
4.89374e+08
1.97746e+08
2.57593e+08
1.59415e+09
2.24294e+08
1.27759e+08
2.36043e+08
7.82823e+07
1.37519e+08
7.15562e+07
2.0984e+08
1.77847e+08
1.14591e+08
6.4296e+08
2.62437e+08
7.27269e+07
1.1027e+08
1.29099e+08
8.3145e+07
1.48982e+08
5.34467e+07
1.34122e+08
1.33084e+08
1.3738e+08
8.73177e+07
8.34316e+07
1.39754e+08
1.2205e+08
8.56478e+07
1.18614e+08
8.36379e+07
9.11899e+07
7.49866e+07
1.0639e+08
8.32898e+07
9.69553e+07
1.86714e+08
1.15139e+08
1.30721e+08
9.16348e+07
1.04778e+08
1.16707e+08
1.6453e+08
1.07002e+08
8.84324e+07
1.0177e+08
5.37387e+07
6.36091e+07
5.72104e+07
5.42857e+07
4.32729e+07
6.1884e+07
5.90581e+07
5.88875e+07
1.03686e+08
1.38729e+08
8.75281e+07
6.56854e+07
8.5784e+07
7.55728e+07
5.01458e+07
9.43246e+07
5.13384e+07
6.26766e+07
3.9997e+07
5.06921e+07
5.6813e+07
4.85407e+07
6.40276e+07
5.96994e+07
5.80708e+07
5.88848e+07
6.88629e+07
6.74417e+07
5.31357e+07
4.3585e+07
5.72726e+07
1.20329e+09
1.18295e+09
1.75999e+09
9.01875e+08
1.08339e+09
9.25668e+08
4.98541e+07
1.1266e+08
4.65023e+07
1.0872e+08
5.36182e+07
5.15232e+07
7.75801e+07
7.1853e+07
6.77122e+07
6.79633e+07
7.69535e+07
6.08206e+07
5.44096e+07
7.76843e+07
5.86681e+07
6.85012e+07
7.75535e+07
6.42911e+07
5.84537e+07
7.94046e+07
6.1759e+07
1.74075e+08
1.3757e+08
1.82063e+08
9.36879e+07
1.25358e+08
9.59014e+07
7.6813e+07
7.79774e+07
7.27092e+07
7.62048e+07
6.62321e+07
7.11774e+07
6.80488e+07
7.42389e+07
6.72132e+07
5.73352e+07
6.14879e+07
6.38821e+07
7.28817e+07
6.35666e+07
6.6123e+07
5.23965e+07
6.07411e+07
5.75376e+07
6.45449e+07
6.27491e+07
5.92796e+07
1.84221e+07
1.81299e+07
1.36083e+07
1.4083e+07
8.80835e+07
2.74892e+07
1.36232e+07
1.16449e+07
9.23106e+07
1.49853e+08
1.20701e+08
1.57889e+08
1.13501e+08
1.67939e+08
1.86669e+08
1.33734e+08
2.94758e+07
2.77071e+07
2.68018e+07
2.71066e+07
2.41363e+07
2.60163e+07
2.98694e+08
4.97018e+07
2.03486e+08
5.26145e+08
3.37498e+08
4.44214e+08
4.8268e+08
4.3429e+08
1.01415e+08
4.07881e+08
2.4104e+08
3.18646e+08
3.88167e+08
4.32134e+08
4.25524e+07
9.76302e+07
1.88498e+08
1.31523e+08
1.48404e+08
1.81088e+08
2.54241e+08
3.04212e+08
2.15279e+08
1.67023e+08
2.86359e+08
2.02674e+08
1.77526e+08
2.62774e+08
6.0365e+08
4.97006e+08
1.01806e+08
3.75821e+08
4.54528e+07
2.10738e+08
4.21574e+08
3.10972e+08
2.38095e+07
8.31088e+07
2.69272e+07
7.97668e+07
8.26118e+07
7.31349e+07
1.82255e+08
7.34767e+07
8.27552e+07
8.33589e+07
7.22993e+07
1.78647e+08
7.2661e+07
4.45391e+07
4.111e+07
6.14636e+07
3.65343e+07
6.30131e+07
3.64956e+07
4.11518e+07
5.88513e+07
3.54879e+07
6.15607e+07
9.20348e+07
6.81808e+07
5.05473e+07
8.22138e+07
9.88205e+07
6.39658e+07
7.86197e+07
8.48556e+07
5.03713e+07
5.51727e+07
6.89115e+07
5.95363e+07
7.27634e+07
7.79931e+07
4.35361e+07
4.35042e+07
2.93707e+07
4.37289e+07
4.84917e+07
5.59079e+07
3.11352e+07
5.14174e+07
3.98208e+07
4.21008e+07
7.77999e+07
7.31434e+07
6.17948e+07
1.46439e+08
6.28027e+07
6.50437e+07
7.02828e+07
6.89944e+07
1.55591e+08
6.80963e+07
2.73731e+07
3.09773e+07
4.66245e+07
4.53213e+07
5.18986e+07
7.08263e+07
5.57466e+07
6.05907e+07
7.37996e+07
5.70082e+07
8.21273e+07
7.50184e+07
7.81235e+07
1.38974e+08
7.19326e+07
7.77882e+07
7.32958e+07
7.06666e+07
7.64401e+07
4.69995e+07
4.79486e+07
6.71539e+07
9.74626e+07
6.53381e+07
6.16837e+07
9.47417e+07
6.45458e+07
5.27678e+07
5.66091e+07
5.95654e+07
1.04588e+08
6.9664e+07
6.28265e+07
5.88058e+07
6.85401e+07
6.1848e+07
2.79841e+07
2.98397e+07
3.13865e+07
7.12081e+07