/*--------------------------------*- C++ -*----------------------------------*\
| =========                 |                                                 |
| \\      /  F ield         | OpenFOAM: The Open Source CFD Toolbox           |
|  \\    /   O peration     | Version:  2012                                  |
|   \\  /    A nd           | Website:  www.openfoam.com                      |
|    \\/     M anipulation  |                                                 |
\*---------------------------------------------------------------------------*/
FoamFile
{
    version     2.0;
    format      ascii;
    class       volScalarField;
    location    "0.108/solid";
    object      sigmaDiff;
}
// * * * * * * * * * * * * * * * * * * * * * * * * * * * * * * * * * * * * * //

dimensions      [1 -1 -2 0 0 0 0];


internalField   nonuniform List<scalar> 
24998
(
-1.09323e+08
-3.30148e+07
-1.1072e+08
-9.4289e+07
-3.15829e+07
-1.7226e+08
-6.31062e+07
-2.7183e+07
-1.59695e+07
-1.67173e+08
-1.96384e+07
-1.67927e+08
-3.50842e+07
-1.16914e+08
-1.64255e+08
-1.53798e+07
-9.8978e+07
-9.55013e+07
-9.63138e+07
-3.26054e+07
-3.20572e+07
-3.21164e+07
-1.71795e+08
-6.96372e+07
-6.98912e+07
-6.42101e+07
-3.42126e+07
-3.0137e+07
-3.13354e+07
-1.99211e+07
-1.6339e+07
-1.93399e+07
-5.96893e+08
-1.25227e+10
-2.99431e+07
-3.58105e+08
-1.19926e+08
-7.52603e+07
-2.0651e+09
-6.7849e+08
-7.8398e+07
-2.38528e+08
-6.99088e+07
-5.92203e+07
-2.17526e+07
-2.14992e+07
-1.5447e+08
-4.12383e+08
-1.97607e+08
-1.17733e+08
-2.98777e+07
-3.8582e+07
-1.68306e+08
-9.33642e+07
-4.62627e+07
-3.44576e+07
-3.6056e+07
-4.81075e+07
-4.42843e+07
-2.05538e+07
-7.25913e+06
-2.09407e+07
-1.98619e+07
-1.09594e+07
-4.62405e+08
-3.6471e+08
-2.11117e+08
-7.43579e+09
-2.31337e+09
-1.20523e+10
-4.08915e+08
-8.80422e+08
-7.63229e+09
-1.16023e+08
-3.78295e+07
-7.19255e+07
-3.95235e+08
-8.90458e+07
-7.40916e+07
-6.67538e+07
-8.41448e+08
-7.31182e+07
-5.38067e+08
-2.51849e+08
-6.22189e+08
-7.91826e+07
-2.02757e+08
-4.36363e+08
-7.9515e+07
-1.83218e+08
-6.10812e+07
-6.61482e+07
-2.25423e+07
-6.5006e+07
-5.61329e+07
-2.36362e+07
-5.75888e+07
-5.70756e+07
-2.6799e+07
-2.20407e+07
-2.12998e+08
-1.77841e+08
-1.63315e+08
-1.08372e+07
-2.46578e+08
-1.7702e+07
-5.89219e+08
-2.48593e+08
-2.75273e+08
-2.3682e+07
-3.91249e+07
-2.9663e+07
-1.39052e+08
-1.54135e+08
-4.78187e+07
-1.61747e+07
-8.36476e+07
-2.46559e+07
-1.79355e+08
-2.34523e+08
-1.01354e+08
-6.88984e+08
-2.92951e+08
-1.75962e+08
-1.84076e+08
-2.13625e+08
-2.82721e+08
-1.06439e+08
-9.1957e+07
-1.00339e+08
-2.0967e+07
-1.33353e+08
-4.62246e+07
-7.25102e+07
-5.51035e+07
-8.35095e+07
-6.08044e+07
-1.68442e+08
-1.00811e+08
-8.51722e+07
-2.97941e+07
-3.56827e+07
-2.10983e+07
-3.98851e+07
-6.45463e+07
-3.63472e+07
-5.25985e+07
-2.65051e+07
-5.7454e+07
-4.28697e+07
-7.53597e+07
-2.45817e+07
-1.99605e+08
-1.00099e+08
-4.82747e+07
-8.35067e+07
-5.27481e+07
-8.89638e+07
-4.94544e+07
-4.50969e+07
-4.15635e+07
-3.67287e+07
-3.98729e+07
-3.70073e+07
-3.64483e+07
-2.67719e+07
-2.60154e+07
-2.68538e+07
-4.24414e+07
-2.39789e+07
-3.93952e+07
-3.39392e+07
-2.1974e+07
-3.61337e+07
-1.87243e+07
-3.48213e+07
-2.25927e+07
-2.67922e+07
-2.13131e+07
-2.70071e+07
-2.38196e+07
-3.80322e+07
-2.19732e+07
-5.22145e+07
-4.81589e+07
-2.28878e+07
-4.23523e+07
-2.75184e+07
-4.62349e+07
-2.47204e+07
-2.30959e+07
-1.90138e+07
-2.86207e+06
-1.62721e+07
-2.1455e+07
-1.08389e+07
-5.81472e+06
-2.05313e+07
-3.11152e+06
-2.15413e+07
-2.11373e+07
-1.0898e+07
-2.4775e+07
-1.108e+07
-5.40469e+08
-3.62212e+09
-4.2047e+09
-9.49714e+07
-5.3652e+07
-2.48996e+08
-1.66505e+08
-2.35289e+08
-8.63771e+07
-8.03439e+07
-1.15324e+08
-8.76273e+07
-8.78501e+07
-8.47818e+07
-7.93785e+07
-7.24907e+07
-3.06473e+07
-5.81479e+07
-3.08976e+07
-5.62651e+07
-1.7452e+08
-1.15947e+08
-1.60616e+08
-4.16735e+07
-1.02011e+08
-1.6613e+08
-1.75593e+07
-6.50553e+07
-3.07461e+07
-5.70013e+07
-2.6349e+07
-2.70841e+07
-5.78549e+07
-5.55735e+06
-2.39912e+07
-1.53755e+07
-2.46161e+07
-6.5854e+06
-1.40123e+07
-2.11182e+07
-3.37229e+06
-1.21285e+07
-8.65207e+06
-1.57664e+07
-4.60497e+06
-6.46442e+06
-1.20585e+07
-4.21142e+08
-2.74465e+08
-2.77873e+08
-2.59728e+08
-2.18719e+08
-6.06913e+08
-4.20067e+08
-6.31609e+07
-3.19213e+08
-7.23427e+08
-4.90672e+07
-1.37092e+08
-1.99212e+08
-1.09802e+08
-8.76682e+07
-6.4916e+07
-1.99321e+08
-4.50126e+07
-3.49985e+07
-6.88834e+07
-1.67177e+08
-1.16267e+08
-1.25885e+08
-6.17373e+07
-1.33946e+08
-1.65768e+08
-1.1131e+08
-4.41513e+07
-8.88856e+07
-1.39405e+08
-2.03008e+08
-3.83619e+07
-1.43431e+08
-9.6748e+07
-1.24715e+08
-1.28234e+08
-9.35544e+07
-8.59987e+07
-8.71579e+07
-1.19258e+08
-8.27009e+07
-9.63204e+07
-3.98259e+07
-3.12507e+07
-3.93108e+07
-4.10349e+07
-3.16209e+07
-4.0458e+07
-3.10418e+07
-5.47126e+07
-6.31947e+07
-4.40667e+07
-1.70796e+08
-1.17831e+08
-1.53483e+08
-1.04955e+08
-6.49736e+07
-1.34701e+08
-2.13764e+07
-7.55377e+07
-7.4453e+07
-3.40417e+07
-3.9623e+07
-2.05169e+07
-7.80558e+07
-3.9714e+07
-7.77473e+07
-7.318e+07
-3.21749e+07
-2.74274e+07
-3.78075e+07
-8.26754e+07
-2.07579e+07
-7.03461e+07
-3.26274e+07
-5.90516e+07
-2.86602e+07
-2.03222e+07
-6.5888e+07
-1.89802e+07
-3.74615e+07
-4.09024e+07
-1.73949e+07
-1.9462e+07
-1.78134e+07
-4.43604e+07
-8.42992e+06
-3.35067e+07
-2.72981e+07
-1.59746e+07
-6.56826e+06
-1.81076e+07
-3.1071e+07
-1.6459e+07
-3.77972e+07
-1.6839e+07
-2.88133e+07
-1.55489e+07
-1.76549e+07
-3.5034e+07
-1.30573e+07
-2.06945e+07
-2.43104e+07
-1.02031e+07
-1.19161e+07
-1.04286e+07
-2.54367e+07
-5.74015e+06
-1.69101e+07
-1.22814e+07
-9.24879e+06
-4.75964e+06
-1.07891e+07
-1.27138e+07
-5.03228e+06
-2.34685e+07
-9.53744e+06
-1.90147e+07
-7.14003e+06
-9.91832e+06
-2.26614e+07
-6.7537e+08
-3.68291e+09
-5.60098e+09
-2.99856e+09
-8.02289e+09
-5.83311e+09
-1.43627e+11
-1.07428e+10
-1.91589e+07
-6.23897e+07
-6.0346e+07
-4.3986e+07
-2.87005e+08
-1.86617e+08
-2.76266e+08
-9.09077e+07
-1.11014e+08
-1.74656e+08
-1.6217e+08
-5.76098e+07
-2.05216e+08
-9.35128e+07
-7.58759e+07
-1.33623e+08
-1.88516e+08
-6.21464e+07
-1.31577e+08
-6.2857e+07
-8.54406e+07
-4.23811e+07
-1.16345e+09
-1.11362e+09
-1.35858e+08
-9.51506e+07
-8.31101e+07
-7.6668e+07
-8.72108e+07
-7.65872e+07
-9.2245e+07
-1.36715e+08
-1.25309e+08
-8.34231e+07
-7.15103e+07
-7.70372e+07
-5.61345e+07
-7.0431e+07
-5.56578e+07
-6.95279e+07
-2.63828e+07
-2.43792e+07
-2.8782e+07
-2.60508e+07
-1.34439e+08
-2.8557e+08
-3.05689e+07
-2.86082e+07
-8.32734e+07
-4.88548e+08
-2.21054e+08
-3.15435e+08
-3.34081e+07
-1.255e+08
-3.74711e+08
-2.78325e+08
-3.95519e+08
-3.29308e+08
-3.06477e+07
-2.1035e+08
-1.98523e+08
-4.06259e+07
-3.93224e+07
-5.74114e+07
-1.39298e+08
-6.40677e+07
-1.27311e+08
-9.22736e+07
-5.48682e+07
-1.47848e+08
-3.14204e+07
-3.77709e+07
-1.5726e+08
-1.89473e+08
-3.26057e+07
-3.3305e+07
-7.17036e+07
-9.42406e+07
-9.11683e+07
-1.37857e+08
-7.73301e+07
-1.1849e+08
-9.75715e+07
-5.76017e+07
-1.26482e+08
-7.4916e+07
-8.7405e+07
-7.21444e+07
-1.14477e+07
-9.01659e+06
-1.68982e+07
-5.14056e+07
-2.27269e+07
-4.54617e+07
-2.59147e+07
-1.14639e+07
-5.13562e+07
-8.27711e+06
-8.66158e+06
-5.52121e+07
-6.76011e+07
-3.67892e+07
-3.69158e+07
-2.9174e+07
-3.38206e+07
-2.9548e+07
-4.83205e+07
-2.45247e+07
-3.89637e+07
-3.44451e+07
-2.00733e+07
-4.78921e+07
-2.39357e+07
-2.8484e+07
-2.2527e+07
-9.22232e+06
-9.35359e+06
-5.69332e+06
-2.24142e+07
-1.26736e+07
-1.65702e+07
-1.36648e+07
-5.93991e+06
-1.86504e+07
-9.07617e+06
-9.35723e+06
-1.64773e+07
-2.08061e+07
-1.14447e+07
-1.27992e+07
-6.66968e+06
-8.50614e+06
-1.04134e+07
-1.16201e+07
-6.66927e+06
-1.50703e+07
-9.31388e+06
-8.03891e+06
-9.83101e+06
-6.16908e+06
-1.14084e+07
-1.2182e+07
-4.6528e+06
-2.29961e+06
-3.33569e+06
-2.08048e+07
-5.63336e+06
-1.43803e+07
-2.0896e+06
-1.2487e+07
-2.06946e+08
-2.61989e+09
-7.91259e+08
-5.46811e+08
-2.83045e+08
-1.06176e+09
-2.56556e+08
-7.00312e+08
-4.37145e+08
-2.84286e+08
-1.8173e+08
-3.07974e+08
-1.94507e+08
-2.58804e+08
-4.36536e+08
-1.39164e+08
-1.57352e+08
-3.90097e+09
-1.66477e+09
-1.00327e+09
-6.77059e+07
-5.31812e+08
-3.18743e+09
-1.31119e+11
-4.12986e+09
-2.05505e+08
-1.08638e+09
-8.9143e+08
-3.23398e+08
-3.34684e+09
-8.7891e+08
-1.76736e+09
-6.2824e+09
-1.10707e+09
-5.70248e+07
-9.13059e+07
-1.5985e+08
-1.62792e+08
-2.60181e+08
-9.61711e+07
-1.60927e+08
-2.20381e+08
-3.51113e+08
-5.02067e+07
-5.7175e+07
-1.27099e+08
-7.03429e+07
-1.44621e+08
-3.54702e+08
-4.44226e+07
-6.72047e+07
-6.9045e+07
-3.38116e+07
-6.39707e+07
-6.59038e+07
-1.05438e+08
-6.67675e+07
-7.86054e+07
-2.06343e+08
-7.78313e+07
-1.4072e+08
-1.7823e+08
-1.71139e+08
-1.27988e+08
-1.18617e+08
-6.74344e+07
-8.71277e+07
-1.42841e+08
-6.09762e+07
-9.29445e+07
-9.46072e+07
-1.00901e+08
-2.06557e+08
-1.70288e+08
-4.21704e+07
-6.62941e+07
-1.18153e+08
-7.84393e+07
-1.02352e+08
-1.53873e+08
-2.7319e+08
-1.07087e+09
-3.14814e+08
-5.01608e+07
-1.26141e+08
-1.36586e+08
-9.45782e+08
-1.80647e+08
-2.67778e+08
-3.5911e+08
-3.77256e+08
-9.29089e+07
-1.24842e+08
-1.27616e+08
-1.3702e+08
-2.61021e+08
-1.4618e+08
-1.63398e+08
-2.88861e+08
-1.4873e+08
-9.1813e+07
-7.82564e+07
-8.63702e+07
-8.4592e+07
-8.56026e+07
-7.75419e+07
-8.47352e+07
-1.29764e+08
-1.20215e+08
-1.01275e+08
-7.72603e+07
-6.56806e+07
-8.80603e+07
-1.0267e+08
-6.6592e+07
-9.15857e+07
-3.59608e+07
-3.85033e+07
-4.33165e+07
-5.92639e+07
-4.34275e+07
-3.00432e+07
-3.35807e+07
-3.85598e+07
-5.96565e+07
-3.83078e+07
-4.28653e+07
-4.2586e+07
-5.41817e+07
-4.19849e+07
-3.15637e+07
-4.03404e+07
-5.37618e+07
-4.18385e+07
-1.05861e+08
-4.32128e+07
-2.50908e+08
-2.95741e+07
-2.89465e+07
-5.6534e+07
-8.1408e+07
-4.43465e+08
-5.77083e+07
-3.64735e+08
-8.94755e+07
-1.29826e+08
-3.59472e+08
-2.93206e+08
-5.0529e+07
-3.85334e+07
-5.11951e+07
-3.14208e+08
-7.91125e+07
-1.13135e+08
-1.35959e+08
-1.50421e+08
-1.43201e+08
-2.78591e+08
-4.45354e+08
-5.10161e+08
-3.86905e+08
-1.84083e+08
-3.62979e+08
-3.11215e+08
-1.71227e+08
-4.77065e+08
-3.5209e+08
-3.67113e+07
-3.78367e+07
-9.25633e+07
-4.91273e+07
-1.12707e+08
-1.45052e+08
-1.24814e+08
-1.27356e+08
-1.12244e+08
-1.43692e+08
-1.2243e+08
-5.03636e+07
-1.17641e+08
-1.18858e+08
-6.7166e+07
-7.12926e+07
-1.4267e+08
-8.38496e+07
-1.59546e+08
-2.05619e+08
-1.71467e+08
-1.78679e+08
-1.7341e+08
-2.12263e+08
-1.77055e+08
-8.86344e+07
-1.6835e+08
-1.65854e+08
-2.34319e+08
-2.88462e+08
-4.55791e+08
-5.10057e+08
-2.95716e+08
-2.05964e+08
-3.82504e+08
-2.75817e+08
-6.14701e+08
-3.08793e+08
-1.2916e+08
-1.27642e+08
-1.86458e+08
-9.2457e+07
-9.54112e+07
-1.15731e+08
-1.85496e+08
-9.53391e+07
-1.20776e+08
-1.27961e+08
-2.30092e+08
-1.96375e+08
-2.49294e+08
-1.20874e+08
-1.58312e+08
-2.00204e+08
-2.58636e+08
-1.6355e+08
-1.47804e+08
-1.90787e+08
-1.75055e+08
-1.00146e+08
-5.24552e+07
-4.79336e+07
-4.52458e+07
-1.27939e+08
-6.40077e+07
-9.13899e+07
-9.42691e+07
-2.8647e+07
-1.06886e+08
-3.13659e+07
-4.34921e+07
-9.67292e+07
-9.39078e+07
-2.19135e+07
-8.25037e+07
-5.64712e+07
-8.47287e+07
-2.85999e+07
-4.22238e+07
-8.11963e+07
-1.01006e+08
-1.04736e+08
-1.22974e+07
-1.75828e+07
-2.82255e+07
-2.00366e+07
-9.94724e+07
-1.04563e+08
-4.11066e+07
-8.74618e+07
-5.66526e+07
-1.09021e+08
-5.39121e+07
-4.09955e+07
-9.42985e+07
-9.30312e+07
-1.12612e+08
-1.31755e+07
-1.9439e+07
-2.91123e+07
-2.18804e+07
-1.4715e+08
-1.20065e+08
-2.94528e+07
-4.26258e+07
-7.39773e+07
-1.18917e+08
-1.09071e+08
-9.23204e+07
-3.15618e+07
-1.11806e+08
-8.46857e+07
-5.22779e+07
-9.97459e+07
-8.19938e+07
-7.22272e+07
-7.43657e+07
-8.39867e+07
-8.44568e+07
-1.21963e+08
-1.65043e+08
-1.32066e+08
-1.34465e+08
-8.69461e+07
-1.62764e+08
-1.33954e+08
-8.42343e+07
-1.19641e+08
-1.22102e+08
-3.09146e+07
-3.15574e+07
-3.45757e+07
-2.84981e+07
-2.5284e+07
-4.35836e+07
-3.69842e+07
-3.09677e+07
-4.41181e+07
-4.69531e+07
-3.09782e+07
-2.9675e+07
-3.62309e+07
-2.70769e+07
-3.68474e+07
-3.50145e+07
-7.2509e+07
-3.70406e+07
-4.41321e+07
-4.89628e+07
-3.28922e+07
-4.11009e+07
-7.32861e+07
-5.34353e+07
-4.70395e+07
-3.47887e+07
-2.8133e+07
-3.76583e+07
-6.22792e+07
-9.31926e+07
-1.15545e+08
-1.54896e+08
-8.0609e+07
-1.41391e+08
-9.86517e+07
-5.098e+07
-1.40134e+08
-7.61607e+07
-6.87883e+07
-5.14325e+07
-5.52545e+07
-3.04834e+07
-3.94261e+07
-5.52732e+07
-6.03861e+07
-4.10919e+07
-3.98243e+07
-4.94698e+07
-5.90981e+07
-4.58583e+07
-5.95846e+07
-3.62404e+07
-3.72534e+07
-4.84265e+07
-6.45363e+07
-3.78407e+07
-4.55403e+07
-4.52336e+07
-9.90012e+07
-9.10144e+07
-1.1431e+07
-1.03004e+07
-2.06271e+07
-5.41223e+07
-2.40938e+07
-5.67068e+07
-2.7486e+07
-2.02667e+07
-6.12817e+07
-1.02863e+07
-1.01961e+07
-7.93651e+07
-8.82599e+07
-1.9146e+07
-4.10914e+07
-2.30785e+07
-5.23039e+07
-2.01095e+07
-2.02677e+07
-4.81692e+07
-5.89592e+07
-6.59512e+07
-1.08885e+07
-1.0814e+07
-1.04317e+07
-1.07197e+07
-7.66144e+07
-6.83775e+07
-8.42641e+06
-3.7312e+07
-2.17003e+07
-4.01301e+07
-1.12566e+07
-1.89513e+07
-3.53401e+07
-3.07721e+07
-3.85916e+07
-9.1421e+06
-8.82042e+06
-8.29502e+06
-8.66765e+06
-5.15088e+07
-4.15405e+07
-3.90693e+07
-4.04441e+07
-4.30935e+07
-3.91237e+07
-3.99397e+07
-4.27391e+07
-3.91211e+07
-3.87936e+07
-4.29264e+07
-4.01183e+07
-3.95312e+07
-4.28308e+07
-2.58358e+07
-2.56822e+07
-2.46236e+07
-3.34909e+07
-3.17888e+07
-3.2714e+07
-4.21744e+07
-3.46838e+07
-2.42587e+07
-2.79017e+07
-3.07104e+07
-3.56797e+07
-4.18876e+07
-3.53307e+07
-2.9229e+07
-2.84152e+07
-3.86969e+07
-3.0744e+07
-3.18204e+07
-2.6206e+07
-2.01254e+07
-2.85364e+07
-3.8351e+07
-2.85996e+07
-3.12844e+07
-2.98017e+07
-2.12939e+07
-2.9206e+07
-2.56623e+07
-2.52942e+07
-3.34142e+07
-2.64083e+07
-3.11703e+07
-3.05407e+07
-2.47234e+07
-3.05205e+07
-3.52162e+07
-3.26369e+07
-3.20695e+07
-2.60631e+07
-2.4511e+07
-2.98434e+07
-4.0351e+07
-4.50592e+07
-3.62656e+07
-5.19322e+07
-3.5385e+07
-4.57578e+07
-4.54287e+07
-3.12733e+07
-5.15588e+07
-3.50758e+07
-2.84389e+07
-2.28155e+07
-3.19994e+07
-1.09873e+07
-1.5011e+07
-1.95217e+07
-3.48877e+07
-1.55992e+07
-1.59415e+07
-2.19755e+07
-3.94296e+07
-3.1585e+07
-3.57655e+07
-1.66643e+07
-2.3531e+07
-3.05569e+07
-3.86463e+07
-2.44899e+07
-2.1338e+07
-3.03552e+07
-5.69557e+07
-5.12624e+07
-1.09091e+07
-1.03457e+07
-1.63035e+07
-2.66214e+07
-1.40642e+07
-3.04133e+07
-1.52148e+07
-1.50632e+07
-3.25829e+07
-1.0104e+07
-1.02798e+07
-4.50791e+07
-4.96521e+07
-1.33162e+07
-2.17522e+07
-1.36747e+07
-2.8506e+07
-1.489e+07
-1.24101e+07
-2.68451e+07
-3.58784e+07
-3.89761e+07
-6.26277e+06
-8.57495e+06
-9.99877e+06
-9.04458e+06
-4.37906e+07
-4.00302e+07
-5.76442e+06
-1.77973e+07
-1.23365e+07
-1.48702e+07
-6.01783e+06
-1.12328e+07
-1.3571e+07
-1.13381e+07
-1.18807e+07
-5.57657e+06
-7.62802e+06
-8.91787e+06
-8.07017e+06
-1.52637e+07
-1.25079e+07
-1.14141e+07
-8.2982e+06
-9.70092e+06
-1.76635e+07
-9.82867e+06
-1.12317e+07
-1.28418e+07
-1.87456e+07
-1.17718e+07
-8.9424e+06
-8.32318e+06
-9.43608e+06
-1.22648e+07
-1.35372e+07
-1.20462e+07
-8.29166e+06
-1.29128e+07
-2.25403e+07
-1.49518e+07
-1.56413e+07
-1.34698e+07
-2.24065e+07
-1.53938e+07
-8.91133e+06
-1.29494e+07
-1.33353e+07
-6.72391e+06
-1.0387e+07
-1.57068e+07
-1.69612e+07
-9.28797e+06
-2.00666e+07
-1.15065e+07
-8.26209e+06
-1.4586e+07
-8.46761e+06
-3.51587e+07
-3.2992e+07
-5.18904e+06
-1.86116e+06
-4.28995e+06
-2.2677e+07
-6.24901e+06
-2.88275e+07
-1.23986e+06
-3.2195e+07
-1.78493e+09
-1.70837e+09
-3.30288e+07
-5.64997e+07
-1.20719e+08
-1.05617e+08
-9.93798e+07
-9.01804e+07
-8.87699e+07
-8.53235e+07
-3.126e+07
-3.25846e+07
-3.06327e+07
-4.31437e+07
-1.78162e+08
-2.2074e+08
-3.72861e+07
-3.27258e+07
-4.96925e+07
-6.29874e+07
-1.79306e+08
-1.32221e+08
-2.06514e+08
-1.33997e+08
-1.97831e+07
-9.92836e+07
-1.00125e+08
-1.06867e+08
-1.08542e+08
-9.7399e+07
-9.13546e+07
-9.31848e+07
-1.03521e+08
-9.24986e+07
-9.89225e+07
-3.43124e+07
-3.24246e+07
-3.41332e+07
-3.51734e+07
-3.20652e+07
-3.53607e+07
-3.21447e+07
-3.38062e+07
-3.47842e+07
-1.90141e+09
-6.97077e+08
-1.21721e+09
-1.09157e+09
-1.46202e+09
-1.4541e+09
-1.38201e+09
-2.215e+10
-1.10593e+10
-1.10938e+10
-2.15424e+10
-8.96928e+09
-2.32377e+10
-1.91713e+10
-3.30342e+07
-2.1764e+07
-4.98465e+07
-5.52749e+07
-5.13554e+07
-3.91611e+07
-2.83803e+07
-1.64988e+08
-4.09121e+08
-4.27726e+08
-2.80857e+08
-2.71675e+08
-2.37313e+08
-2.6908e+08
-6.36459e+07
-7.33996e+07
-7.12991e+07
-7.80358e+07
-6.50547e+07
-8.81935e+07
-7.24338e+07
-4.947e+09
-1.28276e+09
-2.25145e+09
-8.76252e+08
-7.43974e+08
-9.06072e+08
-7.78589e+07
-7.12283e+07
-6.86408e+07
-2.60185e+08
-1.94111e+08
-2.09998e+08
-8.91085e+07
-7.06562e+07
-9.15934e+07
-6.67877e+07
-5.84544e+07
-6.52653e+07
-1.98673e+07
-1.8463e+07
-1.99454e+07
-1.59225e+07
-1.3186e+08
-2.31763e+07
-1.62826e+07
-8.81374e+07
-1.17945e+08
-7.27095e+08
-6.0777e+08
-4.50646e+08
-4.71731e+08
-3.34784e+08
-1.60792e+08
-2.30365e+08
-2.22138e+08
-6.74247e+08
-3.64989e+08
-3.05416e+07
-3.64441e+07
-5.00613e+07
-5.16676e+07
-9.52199e+07
-1.59146e+08
-9.04506e+07
-5.41153e+07
-5.44763e+07
-6.11004e+07
-1.03961e+08
-6.88612e+07
-3.57613e+07
-3.67906e+07
-2.46832e+07
-2.74744e+07
-3.09664e+07
-4.82716e+07
-2.84805e+07
-3.82404e+07
-3.56769e+07
-2.13784e+07
-4.58744e+07
-2.30949e+07
-5.78413e+06
-1.76575e+07
-5.03013e+06
-5.22537e+06
-1.05664e+07
-1.69301e+07
-8.74818e+06
-1.10039e+07
-9.11524e+06
-9.45643e+06
-7.63617e+06
-4.88603e+06
-7.35079e+06
-2.18767e+07
-9.8183e+06
-1.94716e+07
-7.22744e+08
-3.27563e+08
-9.33166e+08
-9.48621e+08
-1.28642e+09
-6.47549e+08
-5.255e+08
-2.9791e+08
-4.2308e+08
-4.53196e+08
-2.87402e+08
-2.74992e+08
-3.04107e+08
-2.85739e+08
-2.99967e+09
-7.53762e+09
-6.73944e+09
-4.51969e+09
-6.71053e+09
-3.80637e+09
-4.02047e+09
-6.12067e+09
-2.52552e+09
-9.15292e+09
-2.50841e+10
-9.6936e+09
-1.7603e+10
-1.22784e+10
-1.79179e+10
-1.01372e+10
-1.74412e+10
-5.20992e+08
-1.08986e+09
-7.26082e+08
-3.61589e+09
-7.76883e+09
-4.51029e+09
-7.65057e+09
-4.02965e+09
-8.417e+09
-4.313e+09
-6.45535e+07
-4.28731e+07
-5.93586e+07
-6.49368e+07
-5.52403e+07
-6.54856e+07
-8.05364e+07
-6.63339e+07
-7.4431e+07
-6.95594e+07
-7.48854e+07
-6.70452e+07
-8.02507e+07
-7.05486e+07
-9.36037e+07
-7.50209e+07
-9.37288e+07
-1.06212e+08
-8.60766e+07
-7.87745e+07
-1.24273e+08
-8.18755e+07
-7.73933e+07
-7.74952e+07
-8.41389e+07
-8.59196e+07
-8.12659e+07
-8.46665e+07
-8.14479e+08
-9.53111e+08
-1.11012e+09
-6.68597e+07
-8.01784e+07
-7.19169e+07
-6.67522e+08
-3.67637e+08
-4.63961e+08
-2.75437e+08
-2.94154e+08
-3.23099e+08
-6.92134e+08
-4.84355e+08
-5.60885e+08
-8.45083e+07
-8.7583e+07
-9.33217e+07
-1.76034e+08
-2.19781e+08
-1.85765e+08
-3.0322e+08
-3.69282e+08
-2.66614e+08
-8.45602e+07
-7.32247e+07
-7.97358e+07
-1.62603e+08
-1.61853e+08
-1.46372e+08
-6.63076e+07
-6.30301e+07
-6.88428e+07
-7.62513e+07
-6.75828e+07
-7.68414e+07
-1.96785e+07
-2.71936e+07
-2.47088e+07
-6.51965e+07
-5.16561e+07
-5.08719e+07
-5.15011e+07
-5.75754e+07
-5.25073e+07
-2.65134e+07
-2.62099e+07
-2.89197e+07
-5.94954e+07
-5.01956e+07
-5.24047e+07
-5.02816e+07
-5.62794e+07
-5.00922e+07
-7.19281e+07
-2.57703e+07
-1.04349e+08
-2.52646e+07
-2.18515e+07
-2.59239e+07
-9.27286e+08
-4.03125e+08
-9.49546e+07
-1.83458e+08
-3.40939e+08
-1.65705e+08
-2.19632e+08
-2.07255e+08
-1.19546e+08
-1.25026e+08
-9.42228e+07
-1.91359e+08
-9.22264e+07
-3.88025e+07
-2.6589e+08
-7.82058e+07
-5.19678e+07
-1.15416e+08
-6.05635e+08
-5.55459e+08
-5.73809e+08
-2.33033e+08
-2.71079e+08
-2.56768e+08
-3.30484e+08
-2.79679e+08
-3.06368e+08
-2.98433e+07
-3.98139e+07
-6.69639e+07
-3.96368e+07
-4.29922e+07
-1.43e+08
-1.34474e+08
-1.38227e+08
-1.42726e+08
-1.44143e+08
-1.34123e+08
-5.1013e+07
-4.32259e+07
-4.00988e+07
-4.2972e+07
-8.14908e+07
-7.37364e+07
-5.53069e+07
-6.41736e+07
-1.89262e+08
-1.76319e+08
-1.84866e+08
-2.1908e+08
-2.25348e+08
-2.11155e+08
-9.98361e+07
-9.1737e+07
-8.779e+07
-1.63574e+08
-1.89514e+08
-7.01325e+08
-5.13198e+08
-5.14419e+08
-2.29642e+08
-3.08514e+08
-2.66622e+08
-5.43438e+08
-3.28317e+08
-8.08939e+07
-6.55729e+07
-1.81713e+08
-9.65542e+07
-9.90334e+07
-1.46206e+08
-1.81414e+08
-1.16738e+08
-5.38149e+07
-5.27064e+07
-1.55885e+08
-1.35056e+08
-2.26722e+08
-1.29758e+08
-1.44809e+08
-2.20124e+08
-2.74586e+08
-1.962e+08
-7.28094e+07
-8.59094e+07
-2.27452e+07
-3.05894e+07
-3.01065e+07
-1.28814e+08
-1.26221e+08
-1.21613e+08
-4.03825e+07
-3.82472e+07
-4.23533e+07
-6.68854e+07
-8.11965e+07
-7.56702e+07
-6.271e+07
-8.11051e+07
-7.1003e+07
-5.83212e+07
-6.57777e+07
-1.66486e+08
-1.56744e+08
-1.55619e+08
-9.66997e+07
-8.8813e+07
-8.87758e+07
-8.5113e+07
-9.5953e+07
-9.60752e+07
-2.99568e+07
-3.41956e+07
-2.77881e+07
-2.34347e+07
-2.78987e+07
-4.03062e+07
-3.89307e+07
-3.84934e+07
-5.89224e+07
-5.7515e+07
-5.20465e+07
-3.38723e+07
-2.9876e+07
-2.82635e+07
-4.53854e+07
-2.90872e+07
-5.4216e+07
-4.78963e+07
-4.608e+07
-4.39028e+07
-4.04493e+07
-4.15459e+07
-7.50108e+07
-6.66932e+07
-6.59866e+07
-2.77054e+07
-2.08264e+07
-2.43906e+07
-3.34867e+07
-3.64708e+07
-1.24788e+08
-1.8494e+08
-1.10348e+08
-6.87976e+07
-5.78837e+07
-6.1741e+07
-1.12498e+08
-7.18795e+07
-4.94813e+07
-4.76851e+07
-4.92859e+07
-3.18913e+07
-3.53492e+07
-5.85365e+07
-7.46291e+07
-5.14121e+07
-3.90562e+07
-4.1455e+07
-3.29757e+07
-3.24455e+07
-5.39425e+07
-3.70482e+07
-3.87306e+07
-5.87362e+07
-7.92437e+07
-5.10624e+07
-3.3491e+07
-3.35383e+07
-3.8137e+07
-2.89777e+07
-2.79354e+07
-3.9635e+07
-3.99999e+07
-4.0325e+07
-3.84432e+07
-2.9265e+07
-3.07804e+07
-3.78548e+07
-3.77911e+07
-3.91996e+07
-2.65051e+07
-2.53801e+07
-2.61e+07
-2.30667e+07
-2.05596e+07
-4.00819e+07
-4.23226e+07
-4.00808e+07
-2.33291e+07
-1.95804e+07
-1.90434e+07
-3.84586e+07
-4.0507e+07
-3.93412e+07
-3.21283e+07
-2.49103e+07
-2.68043e+07
-3.40759e+07
-2.72267e+07
-2.12302e+07
-1.91503e+07
-2.18139e+07
-3.61811e+07
-3.29467e+07
-3.42243e+07
-2.58345e+07
-1.87659e+07
-2.03135e+07
-2.65881e+07
-2.33389e+07
-2.19033e+07
-2.71135e+07
-2.37423e+07
-2.60993e+07
-2.43354e+07
-2.65568e+07
-3.73503e+07
-3.64203e+07
-3.5972e+07
-2.41063e+07
-1.98593e+07
-2.09562e+07
-2.66707e+07
-2.86812e+07
-3.66697e+07
-5.20823e+07
-3.55449e+07
-3.33935e+07
-3.28032e+07
-2.9937e+07
-4.96911e+07
-3.17894e+07
-2.37511e+07
-2.10431e+07
-2.59557e+07
-1.1212e+07
-1.31463e+07
-2.08051e+07
-4.0111e+07
-1.89884e+07
-1.16554e+07
-1.37614e+07
-2.59555e+07
-2.36828e+07
-3.02255e+07
-1.69689e+07
-1.95819e+07
-2.92897e+07
-4.39791e+07
-2.7075e+07
-1.37654e+07
-1.6264e+07
-5.23748e+06
-4.57063e+06
-3.95272e+06
-1.65512e+07
-1.39247e+07
-1.40853e+07
-1.7936e+07
-1.72537e+07
-1.4943e+07
-1.03742e+07
-6.86102e+06
-6.91802e+06
-6.9643e+06
-1.78528e+07
-5.55169e+06
-5.11628e+06
-4.77549e+06
-2.2102e+07
-1.92787e+07
-1.98336e+07
-1.8249e+07
-1.8693e+07
-1.64611e+07
-1.03646e+07
-9.02617e+06
-9.16081e+06
-2.43747e+06
-3.95413e+06
-1.61188e+07
-2.20964e+07
-1.35738e+07
-1.29508e+07
-1.05398e+07
-9.67294e+06
-1.00081e+07
-7.00063e+06
-1.26453e+07
-2.33863e+07
-1.07168e+07
-2.58612e+07
-1.76809e+09
-1.22118e+09
-1.19924e+09
-8.9475e+08
-1.75155e+09
-1.35448e+09
-2.62283e+09
-1.75642e+09
-1.41156e+09
-1.86961e+09
-1.79507e+09
-1.40593e+09
-1.93707e+09
-4.12387e+09
-2.34824e+09
-2.31886e+09
-2.22893e+09
-2.16802e+09
-1.52835e+09
-1.32582e+08
-1.63434e+08
-1.33128e+08
-8.88245e+07
-8.88633e+07
-1.53397e+08
-1.53208e+08
-1.09119e+08
-1.2059e+08
-7.1732e+07
-1.27274e+08
-7.29425e+07
-1.24858e+08
-1.11673e+08
-4.86242e+07
-7.47891e+07
-1.02141e+08
-6.47247e+07
-1.01445e+08
-7.55788e+07
-9.32554e+07
-1.00264e+08
-5.52078e+07
-6.22073e+07
-8.85226e+07
-8.01634e+07
-8.36864e+07
-8.67507e+07
-7.68923e+07
-8.33693e+07
-7.83059e+07
-7.54877e+07
-8.17774e+07
-3.11008e+07
-2.84629e+07
-3.00296e+07
-3.50884e+07
-4.61951e+07
-3.14773e+07
-2.81122e+07
-4.20731e+07
-3.0477e+07
-1.25833e+08
-4.95017e+07
-8.11977e+07
-9.69843e+07
-1.00053e+08
-8.45814e+07
-1.20216e+08
-1.29529e+08
-4.69694e+07
-1.02452e+08
-8.55459e+07
-1.28689e+08
-1.02857e+08
-8.62196e+07
-3.92873e+07
-2.1125e+07
-2.20145e+07
-3.19559e+07
-3.27517e+07
-2.30781e+07
-3.71434e+07
-4.13609e+07
-2.19972e+07
-3.64378e+07
-2.62571e+07
-4.37734e+07
-3.55502e+07
-2.47176e+07
-1.59618e+07
-5.88105e+06
-9.54896e+06
-1.27757e+07
-1.32146e+07
-9.83934e+06
-1.5172e+07
-1.69096e+07
-5.85487e+06
-1.48581e+07
-1.07265e+07
-1.78534e+07
-1.43549e+07
-1.02816e+07
-8.54266e+06
-3.69729e+06
-4.63075e+06
-6.54593e+06
-7.22875e+06
-5.12489e+06
-7.72709e+06
-9.08171e+06
-3.94252e+06
-7.86694e+06
-6.13033e+06
-9.38863e+06
-7.61644e+06
-5.63554e+06
-4.61246e+08
-4.90102e+08
-6.16557e+08
-4.26802e+08
-4.82436e+08
-3.96367e+08
-4.82001e+08
-3.96652e+08
-6.84847e+08
-5.07921e+08
-4.47166e+08
-4.90506e+08
-3.90166e+08
-3.95765e+08
-8.30487e+07
-3.23343e+08
-2.64299e+08
-2.88002e+08
-4.47223e+08
-3.81958e+08
-5.19583e+08
-5.70437e+08
-4.46289e+08
-1.17701e+08
-7.12061e+07
-5.40609e+07
-1.21503e+08
-1.0838e+08
-1.22868e+08
-6.39772e+07
-1.243e+08
-5.1793e+07
-1.23918e+08
-8.92805e+07
-1.36733e+08
-1.25367e+08
-7.42479e+07
-6.04914e+07
-3.93625e+07
-6.61134e+07
-6.5898e+07
-5.95576e+07
-6.03151e+07
-1.15065e+08
-4.67677e+07
-2.4155e+07
-5.11751e+07
-3.69063e+07
-6.41059e+07
-5.18468e+07
-6.25879e+07
-7.0367e+07
-6.33373e+07
-6.0912e+07
-4.5581e+07
-6.65867e+07
-2.07837e+08
-3.3837e+08
-2.42334e+08
-8.11813e+07
-1.36747e+08
-1.31368e+08
-2.28124e+08
-1.41269e+08
-1.56598e+08
-1.05152e+08
-4.71095e+07
-6.89229e+07
-8.55569e+07
-9.49375e+07
-8.91883e+07
-7.20444e+07
-1.15857e+08
-4.54241e+07
-9.97252e+07
-8.27383e+07
-1.24075e+08
-9.52318e+07
-7.74388e+07
-1.8923e+08
-1.57193e+08
-1.2279e+08
-2.79597e+07
-4.93731e+07
-7.12375e+07
-1.62309e+08
-7.91463e+07
-9.10054e+07
-9.94067e+07
-1.05482e+08
-1.08123e+08
-1.15013e+08
-1.27954e+08
-1.17317e+08
-1.15372e+08
-1.28803e+08
-1.17353e+08
-9.71932e+07
-9.03309e+07
-9.31191e+07
-8.97107e+07
-8.81327e+07
-9.17562e+07
-8.96794e+07
-8.83209e+07
-9.1789e+07
-1.10794e+08
-1.12311e+08
-1.05213e+08
-8.78628e+07
-8.74728e+07
-9.3475e+07
-1.04532e+08
-9.18007e+07
-9.8772e+07
-3.67913e+07
-3.99348e+07
-3.67221e+07
-3.20239e+07
-3.30308e+07
-3.37296e+07
-3.97557e+07
-3.58096e+07
-3.6401e+07
-3.63435e+07
-4.11365e+07
-3.66771e+07
-3.19534e+07
-3.5001e+07
-3.52757e+07
-4.09515e+07
-3.62802e+07
-3.65768e+07
-3.18853e+07
-3.39671e+07
-3.49981e+07
-3.95398e+07
-6.69067e+07
-4.26624e+07
-4.18142e+07
-6.84866e+07
-4.3644e+07
-1.24819e+08
-8.08888e+07
-5.52883e+07
-8.58523e+07
-9.16876e+07
-8.79411e+07
-1.13146e+08
-1.34045e+08
-5.59133e+07
-1.15039e+08
-9.54692e+07
-1.37049e+08
-1.06914e+08
-9.46354e+07
-5.09169e+07
-3.16534e+07
-2.06988e+07
-4.38946e+07
-5.25042e+07
-4.273e+07
-2.99139e+07
-4.88106e+07
-2.03119e+07
-4.07489e+07
-2.73989e+07
-4.75187e+07
-4.1833e+07
-2.86625e+07
-5.19405e+07
-3.3883e+07
-3.89393e+07
-4.81544e+07
-5.54922e+07
-4.54965e+07
-3.54487e+07
-4.89707e+07
-3.2593e+07
-3.96787e+07
-2.89452e+07
-4.6144e+07
-4.09967e+07
-3.16995e+07
-4.21769e+07
-2.39945e+07
-2.05415e+07
-3.64892e+07
-3.75536e+07
-2.48123e+07
-4.09778e+07
-4.42331e+07
-2.06375e+07
-3.97773e+07
-2.65153e+07
-4.54539e+07
-3.86802e+07
-2.55104e+07
-2.68134e+07
-1.91817e+07
-1.84785e+07
-2.67854e+07
-2.76464e+07
-2.60874e+07
-1.87076e+07
-2.54625e+07
-1.83276e+07
-2.45067e+07
-1.78897e+07
-2.47541e+07
-2.51227e+07
-1.83224e+07
-2.12049e+07
-7.41608e+06
-1.32743e+07
-1.87918e+07
-2.24615e+07
-1.81751e+07
-1.26382e+07
-2.00158e+07
-7.43368e+06
-1.6151e+07
-1.13428e+07
-1.8917e+07
-1.67142e+07
-1.18956e+07
-2.20021e+07
-1.63981e+07
-1.69848e+07
-2.18403e+07
-2.23458e+07
-1.67731e+07
-2.14795e+07
-2.29884e+07
-1.71327e+07
-2.36506e+07
-1.75229e+07
-2.35856e+07
-2.31002e+07
-1.7119e+07
-1.60054e+07
-1.26886e+07
-1.20957e+07
-1.69346e+07
-1.64618e+07
-1.63982e+07
-1.20597e+07
-1.54197e+07
-1.17441e+07
-1.511e+07
-1.05678e+07
-1.49208e+07
-1.57317e+07
-1.13733e+07
-1.03067e+07
-5.37371e+06
-7.82503e+06
-8.76078e+06
-1.05131e+07
-8.60651e+06
-7.46909e+06
-9.94302e+06
-5.28913e+06
-8.14377e+06
-6.61705e+06
-9.72792e+06
-8.33147e+06
-7.07398e+06
-1.28731e+07
-6.25543e+06
-7.34328e+06
-1.13269e+07
-1.23977e+07
-7.47052e+06
-1.17252e+07
-1.36807e+07
-8.06959e+06
-1.4307e+07
-9.65923e+06
-1.42937e+07
-1.35806e+07
-8.64481e+06
-2.00801e+09
-7.32425e+08
-1.48933e+09
-1.0778e+09
-1.88434e+09
-1.57118e+09
-1.43789e+09
-2.42279e+09
-2.19523e+09
-3.5226e+09
-4.83604e+09
-5.71758e+09
-1.80545e+09
-2.72757e+09
-2.56868e+09
-6.69976e+09
-2.96187e+09
-5.72785e+09
-2.45233e+09
-6.31332e+09
-3.05727e+09
-1.05545e+09
-4.54892e+09
-2.38467e+09
-5.51521e+10
-3.53526e+10
-8.02658e+09
-5.29397e+09
-1.66608e+10
-3.42181e+09
-2.52209e+10
-1.74221e+10
-8.60024e+09
-4.46307e+09
-8.51385e+09
-7.90431e+09
-7.86961e+09
-1.31505e+10
-3.01273e+10
-5.84259e+10
-1.38702e+11
-6.23331e+10
-5.18387e+10
-3.27467e+10
-3.94711e+10
-2.08481e+10
-9.54101e+09
-1.05022e+10
-2.4378e+10
-8.82222e+09
-3.46341e+10
-2.02009e+10
-4.94094e+07
-6.17424e+07
-7.15396e+07
-1.83161e+07
-3.3804e+07
-3.16912e+07
-4.71284e+07
-2.99875e+07
-3.61095e+07
-4.25516e+07
-6.05165e+07
-6.06537e+07
-5.77258e+07
-5.19319e+07
-5.48672e+07
-5.33335e+07
-8.05187e+07
-1.10632e+08
-4.77606e+07
-5.49309e+07
-5.03606e+07
-5.31836e+07
-4.47165e+07
-5.89188e+07
-4.48957e+07
-6.92404e+07
-2.24382e+08
-1.85888e+08
-2.31701e+08
-3.83626e+08
-5.6478e+08
-2.25534e+08
-2.76115e+08
-1.71381e+09
-2.53315e+08
-1.44742e+08
-2.41632e+08
-9.00683e+07
-1.42993e+08
-8.05808e+07
-2.23909e+08
-1.89853e+08
-1.32163e+08
-7.13015e+08
-2.93493e+08
-7.63553e+07
-1.26871e+08
-1.46425e+08
-9.07779e+07
-1.71464e+08
-6.16997e+07
-1.51077e+08
-1.51507e+08
-1.5697e+08
-9.42514e+07
-9.15373e+07
-1.60946e+08
-1.37645e+08
-9.20624e+07
-1.32508e+08
-9.41008e+07
-1.02027e+08
-8.59174e+07
-1.18734e+08
-9.30432e+07
-1.04454e+08
-2.1516e+08
-1.32647e+08
-1.49876e+08
-1.03495e+08
-1.09741e+08
-1.34761e+08
-1.89416e+08
-1.18166e+08
-1.01905e+08
-1.17465e+08
-5.76856e+07
-6.51936e+07
-6.04238e+07
-5.67352e+07
-4.90577e+07
-6.38987e+07
-6.09586e+07
-6.35999e+07
-1.06825e+08
-1.54968e+08
-9.14065e+07
-7.33008e+07
-8.92926e+07
-7.85596e+07
-5.52083e+07
-1.08852e+08
-5.48525e+07
-6.58989e+07
-4.61845e+07
-5.84483e+07
-5.90639e+07
-5.20032e+07
-7.13395e+07
-6.86659e+07
-6.70099e+07
-6.79821e+07
-7.51487e+07
-7.50117e+07
-6.02438e+07
-4.99783e+07
-6.41439e+07
-1.26073e+09
-1.24353e+09
-1.87385e+09
-9.36929e+08
-1.13801e+09
-9.70988e+08
-5.11138e+07
-1.1539e+08
-4.77479e+07
-1.11269e+08
-5.50612e+07
-5.28115e+07
-7.8699e+07
-7.27547e+07
-6.86656e+07
-6.85947e+07
-7.76077e+07
-6.19938e+07
-5.62817e+07
-7.83034e+07
-6.00416e+07