/*--------------------------------*- C++ -*----------------------------------*\
| =========                 |                                                 |
| \\      /  F ield         | OpenFOAM: The Open Source CFD Toolbox           |
|  \\    /   O peration     | Version:  2012                                  |
|   \\  /    A nd           | Website:  www.openfoam.com                      |
|    \\/     M anipulation  |                                                 |
\*---------------------------------------------------------------------------*/
FoamFile
{
    version     2.0;
    format      ascii;
    class       volVectorField;
    location    "0.108/solid";
    object      sigmaMinDir;
}
// * * * * * * * * * * * * * * * * * * * * * * * * * * * * * * * * * * * * * //

dimensions      [1 -1 -2 0 0 0 0];


internalField   nonuniform List<vector> 
24998
(
(0.65694 0.394672 0.642389)
(0.907205 -0.414092 0.0742105)
(0.951058 -0.0290193 -0.307646)
(-0.168064 0.985208 0.0334611)
(-0.555446 0.817828 0.150459)
(0.711338 -0.702567 0.0199396)
(0.747976 -0.65985 -0.0716306)
(-0.632325 0.774142 0.0294946)
(-0.413481 0.887711 0.20249)
(0.707148 0.286348 0.646488)
(-0.380156 0.441558 0.812717)
(-0.689746 0.722086 0.0533155)
(0.908041 -0.413533 0.066726)
(0.946505 -0.0461432 -0.319373)
(0.723395 -0.681054 -0.113424)
(-0.414897 -0.332848 0.846802)
(-0.135151 0.990597 0.0212516)
(-0.178912 0.983367 0.0313019)
(-0.160503 0.986665 0.0270345)
(-0.436163 0.895167 0.0918586)
(-0.576135 0.805581 0.138227)
(-0.429609 0.896367 0.109373)
(-0.651091 0.756448 -0.0621893)
(0.747714 -0.660187 -0.071252)
(0.758502 -0.648302 -0.0661843)
(0.737638 -0.671616 -0.0694394)
(-0.646526 0.762309 0.0298317)
(-0.650681 0.758685 0.0318027)
(-0.631403 0.774957 0.0277881)
(-0.496558 0.86077 0.111827)
(-0.449764 0.882705 0.136179)
(-0.470692 0.866029 0.168652)
(0.519523 -0.0512401 0.852918)
(0.529113 -0.248706 0.811286)
(0.339531 0.819564 -0.461556)
(-0.253726 0.939633 -0.229592)
(0.572158 0.763656 -0.299105)
(0.96994 0.231573 0.0747661)
(0.740884 -0.189801 0.644257)
(0.877067 0.316376 0.361468)
(-0.00219171 0.999997 0.000728052)
(0.895756 0.229064 0.380986)
(0.700139 0.647274 0.3014)
(-0.505469 0.85788 0.0924284)
(0.783154 -0.620853 -0.0347933)
(0.532642 0.803052 0.267208)
(0.724744 -0.689018 0.000300956)
(-0.021185 0.160452 0.986816)
(0.755574 0.344555 0.557127)
(0.74432 -0.654131 0.134534)
(0.124446 -0.26576 0.955973)
(0.610455 -0.576297 0.543348)
(0.9549 0.287765 -0.0731895)
(0.928541 0.215492 -0.302282)
(0.711486 -0.700609 -0.0541736)
(-0.112722 0.403939 0.907815)
(-0.0705122 0.190235 0.979203)
(-0.638849 -0.123677 0.759326)
(-0.423815 -0.0371011 0.904989)
(-0.567707 0.822446 0.0359325)
(-0.463276 -0.175569 0.868649)
(-0.14097 0.597386 0.789467)
(-0.384619 0.0543203 0.921476)
(-0.691227 0.714913 0.105383)
(0.566557 0.0171106 0.823845)
(-0.186096 0.960962 -0.204744)
(0.693809 0.661978 -0.283574)
(0.559059 -0.185528 0.808105)
(0.687296 -0.231767 0.688409)
(0.535991 -0.247661 0.80708)
(-0.201836 0.974457 -0.0984675)
(-0.455368 0.744545 -0.488152)
(0.548559 -0.206262 0.810271)
(0.721021 0.163436 -0.673363)
(0.048062 0.905086 -0.422505)
(0.981067 0.171833 0.0893375)
(-0.396301 0.903729 -0.161925)
(0.919443 -0.34127 0.195342)
(0.981596 -0.107996 0.1575)
(-0.55067 0.079027 0.830974)
(-0.431696 0.884119 -0.178809)
(-0.129826 0.991535 0.00179682)
(0.240641 0.961382 0.133554)
(0.896226 0.224202 0.38277)
(0.888545 0.269084 0.371593)
(-0.146442 0.989214 0.00329605)
(-0.0545359 0.998429 0.0128949)
(-0.00230973 0.998815 0.0486217)
(0.0131809 0.999902 -0.00462085)
(-0.0470845 0.998685 0.020277)
(-0.340763 0.938276 0.0593275)
(0.0494931 0.997098 0.0578464)
(0.516727 0.817636 0.253897)
(0.699413 0.650126 0.296913)
(-0.359009 0.931259 0.0622007)
(0.254455 0.959648 0.119703)
(0.0623367 0.996219 0.0605099)
(-0.528902 0.843307 0.0953703)
(-0.549498 0.816531 0.177)
(0.356976 0.920535 0.158695)
(0.114546 -0.186366 0.97578)
(0.546876 0.529892 0.648184)
(0.895116 -0.435906 0.0935561)
(-0.657173 0.665848 0.353228)
(0.86616 -0.485299 -0.119382)
(-0.524841 0.325792 0.786385)
(-0.133019 0.974908 0.178496)
(-0.34496 0.432319 0.833128)
(0.940455 -0.220889 -0.258366)
(0.814721 -0.579068 0.0301645)
(0.635171 -0.57773 0.512626)
(-0.493218 0.864662 0.0953689)
(0.915505 0.400554 -0.0375087)
(0.673345 0.534359 0.510947)
(-0.100315 0.926979 -0.36145)
(-0.325777 0.105742 0.939515)
(-0.0537395 -0.22416 0.973069)
(-0.336855 0.123623 0.933406)
(-0.0945638 -0.0309262 0.995038)
(-0.321685 0.33049 0.887297)
(-0.0825016 -0.159789 0.983698)
(-0.0837325 0.984635 0.15324)
(-0.403094 0.286872 0.869034)
(0.953916 0.297497 -0.0392298)
(0.833231 0.34565 0.43157)
(-0.066486 -0.0199599 0.997588)
(-0.355175 0.208577 0.911233)
(0.710503 -0.694421 0.113862)
(0.742574 -0.668815 0.0356445)
(0.763171 -0.641851 0.0748201)
(0.0886047 -0.449117 0.889069)
(0.915941 0.394886 -0.0715323)
(-0.104953 0.917894 -0.382694)
(0.892994 0.327357 -0.308866)
(-0.0349986 -0.146294 0.988622)
(-0.0536893 -0.224083 0.97309)
(-0.0358256 -0.138434 0.989723)
(-0.0689375 -0.0579263 0.995938)
(-0.0806779 -0.162443 0.983414)
(0.128424 -0.236478 0.963112)
(0.0996787 -0.231601 0.967691)
(-0.0659284 0.172 0.982888)
(0.0730294 -0.385414 0.919849)
(-0.586361 -0.20672 0.783229)
(0.878506 0.318252 -0.356291)
(-0.0846993 0.143022 0.986089)
(-0.0317769 -0.134444 0.990412)
(0.104328 0.224615 0.968847)
(-0.0304492 -0.131093 0.990902)
(0.499791 -0.557451 0.662916)
(0.167686 -0.268554 0.948557)
(0.135465 0.237017 0.962015)
(-0.035668 -0.0375587 0.998658)
(0.199927 -0.164515 0.965901)
(-0.685042 -0.137989 0.715315)
(0.915609 0.208027 -0.344071)
(0.545194 -0.523884 0.654453)
(0.244753 -0.189547 0.950878)
(-0.701289 0.711217 0.0486192)
(-0.688312 0.724175 0.0423933)
(-0.697867 0.714686 0.0469722)
(-0.153873 0.338878 0.928162)
(-0.537587 -0.180819 0.823593)
(-0.0898515 0.158826 0.98321)
(-0.359774 -0.0375369 0.932284)
(0.236335 0.542413 0.806185)
(0.117589 0.255447 0.959646)
(0.212809 0.627188 0.749231)
(0.528618 -0.591209 0.609127)
(0.148574 0.278887 0.948761)
(0.650246 -0.641797 0.406543)
(-0.115239 0.415481 0.902272)
(-0.139624 0.585945 0.798232)
(-0.157188 0.349526 0.923647)
(-0.359242 0.0899834 0.928896)
(-0.35131 -0.0221564 0.935997)
(-0.204695 0.525528 0.825785)
(0.236608 0.552099 0.799502)
(0.181306 0.643583 0.743592)
(0.214238 0.633472 0.743516)
(0.840336 -0.228673 0.491471)
(0.675889 -0.616521 0.403827)
(0.216861 0.648083 0.730041)
(-0.537803 0.6075 -0.584561)
(-0.265415 0.943426 -0.198753)
(-0.380098 0.0417212 0.924005)
(-0.409338 -0.0274229 0.911971)
(0.859665 -0.163594 0.483956)
(-0.263094 0.946982 -0.184408)
(-0.581702 0.812785 0.0316781)
(-0.563347 0.825291 0.0391767)
(-0.542347 0.838892 0.0460494)
(-0.274093 0.212665 0.937895)
(-0.369145 0.110433 0.922787)
(-0.206072 0.539331 0.816491)
(-0.687676 0.718335 0.10534)
(-0.341521 0.056561 0.938171)
(0.171296 0.648646 0.741563)
(-0.192366 0.0915834 0.97704)
(0.842464 -0.181859 0.507131)
(0.216574 0.644853 0.73298)
(0.728017 -0.685508 0.00836578)
(0.86063 -0.121401 0.494548)
(0.73508 -0.677942 0.00720255)
(0.340699 -0.138834 0.929865)
(0.179335 -0.0507608 0.982478)
(0.430846 -0.530251 0.730209)
(0.190167 0.243239 0.951142)
(0.615046 0.329556 0.716318)
(0.654176 -0.386689 0.650019)
(0.564496 0.736392 0.372922)
(0.336211 0.698039 0.632221)
(0.568136 -0.431759 0.700576)
(0.463562 0.697225 0.546797)
(0.940887 0.123235 -0.315506)
(0.899912 0.414668 -0.134943)
(0.938767 0.252645 -0.234281)
(0.985155 -0.0206327 -0.170425)
(-0.371191 0.925996 0.0689071)
(0.984213 -0.0419337 -0.171946)
(0.968333 -0.17172 -0.181227)
(-0.137872 0.893838 0.426668)
(-0.525608 0.827637 0.196858)
(0.301344 -0.25901 0.917663)
(0.736744 -0.675927 -0.0182005)
(-0.660574 0.750298 -0.0263738)
(0.710884 -0.694918 0.108315)
(0.643106 -0.617132 -0.45339)
(-0.64148 0.684732 -0.345898)
(0.736114 -0.673439 0.0679439)
(0.202017 -0.161186 0.966027)
(0.727824 -0.68392 -0.0502429)
(0.778802 -0.624256 0.0614144)
(0.736488 -0.672979 -0.0684495)
(0.121988 -0.0898609 0.988455)
(0.769456 -0.636412 0.054014)
(0.718791 -0.693348 -0.0510701)
(-0.696601 0.70347 -0.140986)
(-0.630165 0.776306 0.0155243)
(0.713768 -0.698777 0.0473873)
(-0.612446 0.789984 0.0288986)
(0.692573 -0.691329 0.20593)
(-0.70193 0.711169 -0.0391366)
(-0.610414 0.791926 0.0157421)
(-0.505034 0.562041 0.655019)
(-0.354794 0.906212 0.230002)
(-0.606939 0.784487 0.1273)
(-0.373162 0.872163 0.316356)
(-0.659713 0.717636 0.223108)
(-0.616052 0.75127 0.236797)
(-0.297733 0.886903 0.353212)
(0.125391 0.0819541 0.988717)
(0.747299 0.201903 0.633072)
(0.607742 -0.478465 0.633815)
(0.652302 0.650795 0.388546)
(0.225183 0.662878 0.714063)
(0.606284 -0.292655 0.73944)
(0.754178 0.5483 0.361363)
(-0.475856 0.858026 0.193268)
(0.256037 -0.0372488 0.965949)
(0.239653 0.114086 0.964132)
(0.821638 0.0163882 -0.569774)
(0.746488 -0.621526 -0.237616)
(-0.687128 0.724796 -0.0502613)
(-0.637833 0.762976 0.105052)
(0.721587 -0.409352 -0.55834)
(-0.665194 0.746664 0.0032862)
(0.779063 -0.626178 -0.0310118)
(-0.296099 0.916371 -0.269423)
(0.609164 0.727087 -0.316644)
(-0.358533 0.93337 0.0165772)
(0.841552 -0.431016 -0.325599)
(0.937127 0.0623812 -0.343367)
(0.831536 -0.333131 -0.444491)
(-0.503588 0.465841 0.727593)
(0.729033 -0.612233 -0.306075)
(0.733116 -0.664695 -0.14395)
(-0.668705 0.733012 0.124607)
(0.618879 -0.58523 -0.523922)
(0.689777 -0.430065 -0.582454)
(0.709414 -0.630108 -0.315746)
(0.403011 -0.148437 0.903077)
(0.0648829 0.996936 -0.0436887)
(-0.324589 0.937248 -0.127315)
(-0.113491 0.99351 0.00762943)
(-0.158672 0.98717 0.017858)
(-0.219005 0.975723 0.00106937)
(-0.00881478 0.999931 -0.00776038)
(0.985243 -0.0173844 -0.170279)
(0.985657 -0.00249542 -0.168745)
(-0.168274 0.985463 0.023375)
(-0.247362 0.967941 0.0436135)
(-0.208267 0.977365 0.0371723)
(-0.42101 0.904122 0.0728954)
(-0.0369626 0.99552 0.0870244)
(-0.16067 0.98547 0.0550841)
(-0.633056 0.765922 0.112265)
(0.974995 -0.129578 -0.180538)
(0.982833 -0.0510266 -0.177298)
(0.0266578 0.992168 0.12203)
(-0.329772 0.912724 0.241215)
(0.171009 0.92707 0.333612)
(-0.60973 0.791315 -0.0452792)
(-0.62364 0.774533 -0.105692)
(-0.627235 0.777805 -0.0399512)
(-0.646005 0.751638 -0.133109)
(-0.616419 0.720833 -0.316903)
(-0.649115 0.759347 -0.0451928)
(-0.610955 0.781632 -0.125637)
(-0.700631 0.713478 0.00811502)
(0.754726 -0.653115 -0.061877)
(0.746372 -0.662624 -0.0621096)
(0.787087 -0.615237 0.0444692)
(0.782119 -0.609298 0.130559)
(0.720608 -0.69334 0.00210351)
(0.751332 -0.656443 -0.0676925)
(0.11337 -0.0843139 0.989969)
(0.767009 -0.640138 -0.0438219)
(0.736366 -0.675435 -0.0393939)
(0.780881 -0.619928 0.0769022)
(0.114462 -0.0822913 0.990013)
(0.757519 -0.572461 0.313772)
(0.743684 -0.668409 -0.0128157)
(0.728431 -0.685061 0.00886871)
(0.738821 -0.671635 -0.0552254)
(0.784507 -0.618818 0.0401695)
(0.726117 -0.684668 -0.0631212)
(0.774101 -0.631635 0.0424919)
(0.722294 -0.691571 0.00442269)
(0.73046 -0.68122 -0.0486546)
(0.730263 -0.683086 0.0104659)
(-0.661007 0.749654 0.0329904)
(-0.680711 0.732088 0.0260675)
(0.715847 -0.697059 0.0408983)
(0.730645 -0.681206 0.0460153)
(0.728328 -0.685169 0.00905098)
(-0.689098 0.724119 0.0282015)
(0.671353 -0.654851 0.347066)
(-0.667629 0.743643 0.0355964)
(-0.647452 0.761904 0.0175713)
(0.718451 -0.693816 0.0494682)
(0.6923 -0.685856 0.224324)
(0.732054 -0.678979 0.055544)
(-0.662674 0.748601 0.0214165)
(0.726393 -0.687238 0.00752594)
(-0.672132 0.740024 0.0245453)
(0.710533 -0.702578 0.0390843)
(-0.615594 0.787598 0.0270876)
(-0.69511 0.718195 -0.0318932)
(0.728743 -0.684728 0.00901968)
(-0.663266 0.748003 0.0238776)
(0.721232 -0.692678 0.00461855)
(-0.52131 0.85003 0.0754044)
(-0.594951 0.799581 0.0818729)
(-0.613015 0.786522 0.0748037)
(-0.638345 0.769573 0.0165134)
(0.714568 -0.699562 -0.00224934)
(-0.610604 0.790007 0.0552521)
(-0.687294 0.726169 0.0174763)
(-0.483923 0.870244 0.092163)
(-0.408946 0.899802 0.152052)
(-0.615211 0.782849 0.0930693)
(-0.666173 0.722229 0.186008)
(-0.642094 0.766303 0.0222561)
(-0.456034 0.884468 0.0987415)
(0.725925 -0.687668 -0.012069)
(-0.577528 0.806404 0.127175)
(-0.605468 0.789115 0.103467)
(-0.443339 0.855717 0.266832)
(-0.622051 0.763499 0.173558)
(0.715364 -0.69875 -0.00174772)
(-0.558431 0.804121 0.203824)
(0.381257 -0.234796 0.894155)
(0.430201 -0.396791 0.810854)
(0.461987 -0.480886 0.745196)
(0.298666 0.0234048 0.954071)
(0.49505 -0.415567 0.76304)
(0.45938 -0.366379 0.809158)
(-0.299354 0.688275 -0.660806)
(0.539028 -0.361901 0.760577)
(0.140702 -0.624233 0.768464)
(0.361917 0.931156 -0.044333)
(-0.281272 0.826026 -0.488434)
(0.0316794 0.088128 0.995605)
(0.685837 -0.40241 0.606377)
(-0.0715693 0.986317 -0.148515)
(0.264654 0.795596 -0.544963)
(0.527817 -0.586731 0.614131)
(0.493522 0.838658 0.230409)
(0.538897 0.834505 0.114854)
(-0.45672 -0.579662 0.674832)
(-0.227721 0.331542 0.915545)
(0.346258 0.89466 0.282291)
(-0.351649 0.326284 0.877429)
(0.345669 0.86954 0.352723)
(-0.530532 -0.558895 0.637317)
(0.386399 0.893488 0.228854)
(0.455555 0.889585 -0.0332923)
(0.00229134 0.986558 -0.163398)
(-0.262089 0.897073 -0.355766)
(-0.442503 0.518443 0.731716)
(-0.135142 0.164496 0.977076)
(0.892315 0.367043 0.262781)
(0.892477 0.361312 0.270071)
(0.991408 0.0179773 -0.129562)
(0.990003 0.0058096 -0.14093)
(0.821138 0.560998 -0.104946)
(0.981134 0.0752657 -0.178079)
(0.951115 0.214699 -0.222003)
(0.984644 0.00378234 -0.174536)
(0.989178 -0.0114226 -0.146274)
(0.826127 0.436627 0.356189)
(0.827545 0.437072 0.352332)
(0.98386 -0.0138002 -0.178409)
(0.983275 -0.0295215 -0.179719)
(-0.37996 0.922233 0.0715368)
(0.983412 -0.0496854 -0.174446)
(0.984098 -0.0433084 -0.172266)
(0.98264 -0.0359733 -0.182003)
(0.983198 -0.0304965 -0.179978)
(0.383881 0.901715 0.19886)
(0.638282 0.605601 0.47523)
(0.390471 0.917638 0.073977)
(0.668502 0.54716 0.503707)
(0.777933 0.467485 0.419855)
(0.446725 0.330526 0.831378)
(0.977313 -0.0983184 -0.187597)
(-0.629245 0.753284 0.191351)
(-0.0363454 0.871533 0.488987)
(0.359114 0.225605 0.905615)
(-0.173325 0.380365 0.90845)
(0.257861 0.401047 0.879016)
(-0.56289 0.791269 0.238847)
(0.641506 0.550159 0.534598)
(0.4288 0.284107 0.857563)
(0.297233 0.420692 0.85713)
(-0.104354 0.317668 0.942442)
(0.387168 0.311362 0.867845)
(-0.622231 0.749764 0.225127)
(-0.641989 0.764736 0.0550347)
(-0.639479 0.768261 -0.0290119)
(-0.643719 0.760295 -0.0870509)
(0.582149 -0.534568 0.61265)
(0.284937 -0.239522 0.928138)
(0.723487 -0.674224 0.148288)
(0.609444 -0.5025 0.613247)
(0.741417 -0.660815 0.116726)
(-0.635936 0.642449 -0.427604)
(0.177808 -0.141617 0.973822)
(0.737152 -0.666147 0.11338)
(0.353109 -0.156822 0.922345)
(0.533431 -0.416568 0.736153)
(-0.637865 0.767669 -0.0617519)
(-0.637747 0.76772 -0.0623196)
(0.351521 -0.483305 0.801779)
(0.388625 -0.505131 0.770593)
(0.870833 0.372044 -0.321298)
(0.820072 0.518893 -0.241315)
(0.780634 0.604536 -0.158574)
(0.953008 0.253494 -0.165882)
(0.793128 0.54911 -0.263488)
(0.76396 0.631895 -0.130667)
(0.811393 0.53786 -0.228795)
(0.828749 0.430945 -0.357017)
(0.94993 0.242622 -0.196895)
(0.796912 0.537195 -0.27632)
(-0.628521 0.777757 0.00747506)
(-0.615973 0.787332 0.0261954)
(0.45174 -0.168022 0.876185)
(0.763686 -0.471635 0.440845)
(0.233197 -0.192714 0.953142)
(0.724323 -0.68669 -0.0617527)
(0.753603 -0.654737 0.0583158)
(-0.699224 0.713776 0.0401236)
(0.765655 -0.640797 0.0561392)
(0.475414 -0.431897 0.76645)
(0.70932 -0.703338 -0.0466928)
(0.794415 -0.563947 0.22554)
(0.7835 -0.514103 0.349037)
(-0.599177 0.800373 0.0197166)
(-0.6144 0.788878 0.0135794)
(-0.0967408 0.3152 0.944082)
(-0.0938137 0.301641 0.948795)
(0.724998 0.0580589 -0.686299)
(0.787732 0.0907064 -0.609304)
(0.822586 0.172202 -0.541939)
(-0.519755 -0.0821328 0.850358)
(0.765469 0.104666 -0.634903)
(0.847991 0.141604 -0.510745)
(0.796428 0.0959546 -0.597072)
(-0.67331 -0.0453417 0.737968)
(-0.489121 -0.0698172 0.869417)
(0.754941 0.0967423 -0.648618)
(-0.541887 0.840418 -0.00747209)
(-0.507939 0.861393 -0.000707181)
(0.771282 -0.627434 0.107004)
(0.768673 -0.633624 0.0875374)
(-0.695469 0.706701 -0.129987)
(-0.590988 0.806092 0.0307948)
(-0.679413 0.733394 -0.0230501)
(-0.561611 0.826973 0.026601)
(-0.69793 0.71525 -0.0362047)
(-0.694967 0.714849 -0.0775394)
(-0.587735 0.808829 0.0190448)
(0.756508 -0.651048 0.0619115)
(0.767789 -0.635745 0.0795584)
(-0.447274 0.894314 0.0121603)
(-0.496924 0.867783 -0.00451816)
(-0.109782 0.70309 0.702575)
(-0.120854 0.688551 0.715047)
(0.7654 -0.613165 -0.195424)
(-0.586599 0.066299 0.807159)
(-0.513805 0.0782795 0.854328)
(-0.419266 0.107455 0.901482)
(-0.512629 0.169431 0.841727)
(-0.602887 0.00986633 0.797766)
(-0.58475 0.0552842 0.809328)
(0.729489 -0.660283 -0.178529)
(-0.442162 0.135335 0.886666)
(-0.519126 0.189636 0.833394)
(-0.193795 0.962882 0.187889)
(-0.0669914 0.932553 0.354762)
(0.742931 -0.667348 -0.0519711)
(0.783998 -0.590888 -0.190258)
(-0.454529 0.49992 0.737213)
(-0.309989 0.846465 0.432901)
(-0.647994 0.725925 0.230513)
(-0.161547 0.861418 0.48152)
(0.805433 -0.554635 -0.208944)
(-0.045469 0.888227 0.45715)
(0.823149 0.171649 0.54126)
(0.448232 -0.362094 0.817298)
(0.584876 -0.298823 0.754072)
(0.729994 0.67199 0.124648)
(0.602224 -0.535049 0.592494)
(0.564195 -0.148924 0.8121)
(0.236439 -0.502998 0.831318)
(0.562959 -0.327427 0.75886)
(-0.0422552 0.0625046 0.99715)
(0.653488 0.753313 0.0739758)
(0.324257 0.705438 -0.63025)
(0.827769 0.447089 -0.338984)
(0.0771288 0.867903 0.49071)
(-0.376023 -0.176143 0.909715)
(0.791363 0.597674 -0.128575)
(-0.386487 -0.409174 0.826562)
(-0.0527613 0.380943 0.923092)
(0.472499 -0.3468 0.810231)
(0.606967 -0.159909 0.778473)
(0.557847 -0.316299 0.767308)
(0.780023 0.0875538 -0.619595)
(0.72374 0.682727 -0.100418)
(0.561449 -0.370374 0.739998)
(-0.231569 0.925718 -0.299035)
(0.571752 -0.4174 0.706313)
(0.902571 -0.33688 0.268101)
(0.621355 -0.164723 0.766018)
(0.362733 0.175985 0.915125)
(0.410688 -0.0561972 0.910042)
(-0.212527 0.950855 -0.225183)
(0.440864 0.101439 0.891824)
(0.653392 -0.208655 0.727697)
(-0.308586 0.934972 -0.174937)
(0.617303 0.167465 0.768695)
(0.748843 0.072329 -0.658789)
(0.746801 -0.367812 -0.554078)
(-0.486305 -0.438276 0.755924)
(0.901579 0.0669203 -0.427408)
(-0.41911 -0.202493 0.885067)
(0.720441 -0.183657 -0.668757)
(0.88458 -0.420943 -0.200811)
(0.750124 -0.657159 0.0738658)
(0.754081 -0.655212 0.0453825)
(-0.608324 0.790155 0.0748151)
(0.768531 -0.270782 -0.579687)
(-0.506237 -0.268357 0.819578)
(0.737312 -0.0510528 -0.67362)
(0.836114 -0.521662 -0.169654)
(0.758276 -0.651276 0.0292781)
(-0.0064809 0.950993 -0.309146)
(0.447799 0.893713 -0.0274615)
(0.0473225 0.998876 -0.00254753)
(0.803161 0.0988947 -0.587497)
(-0.215758 0.976444 0.00239503)
(0.563179 0.826201 -0.0148549)
(0.947803 0.257588 0.187929)
(0.285762 0.958183 -0.0149998)
(0.738344 -0.611965 -0.283455)
(-0.1007 0.991723 -0.0796506)
(0.720847 -0.509 -0.470424)
(0.991219 0.0316556 -0.128384)
(0.896925 -0.430714 -0.100057)
(-0.109009 0.989522 -0.0946751)
(0.729974 -0.682158 -0.0424143)
(0.980603 0.0326485 0.193267)
(-0.492462 0.445452 0.747699)
(0.665828 -0.449021 -0.595864)
(-0.525301 -0.390946 0.755791)
(-0.41494 0.426964 0.803447)
(-0.387487 0.324229 0.862977)
(-0.678094 0.226241 0.699288)
(0.619676 -0.556414 -0.553539)
(-0.639752 0.760043 0.114241)
(-0.62443 0.727713 0.283763)
(-0.663509 0.7377 0.124716)
(0.730176 -0.304398 -0.611706)
(-0.585413 -0.383831 0.714118)
(0.712439 -0.108703 -0.693264)
(-0.511858 0.593276 0.621309)
(-0.604658 0.706524 0.367714)
(0.63658 -0.329572 0.697243)
(0.0949003 0.993843 0.0571764)
(-0.395801 0.913517 -0.093959)
(0.0120676 0.999579 -0.026382)
(-0.351994 0.935586 -0.0278982)
(-0.345847 0.931888 -0.109428)
(0.418701 0.895058 0.153496)
(-0.431417 0.900483 -0.0548525)
(-0.461852 0.877631 -0.128281)
(0.906065 0.155493 0.393534)
(0.901773 0.176041 0.394734)
(-0.127359 0.991831 0.00716156)
(-0.345805 0.937957 -0.0256064)
(-0.247139 0.968977 -0.0021926)
(-0.153539 0.988026 0.0151549)
(-0.0749813 0.997164 0.00638776)
(-0.225173 0.974311 -0.00386246)
(-0.415936 0.907917 -0.0518014)
(-0.0888511 0.99604 0.00316839)
(-0.260259 0.965488 -0.00995376)
(-0.0516407 0.998647 -0.00606673)
(0.983575 0.047437 -0.174153)
(0.985776 0.00478299 -0.167998)
(0.983903 -0.0114955 -0.178334)
(0.983893 0.00111005 -0.178754)
(0.984353 -0.000445768 -0.176209)
(0.983862 0.0055959 -0.178843)
(-0.163173 0.986377 0.0208487)
(-0.0460375 0.998346 0.0344379)
(-0.200537 0.979086 0.0342784)
(-0.27475 0.960299 0.0483537)
(-0.20722 0.97714 0.0475017)
(-0.214531 0.975871 0.0406516)
(-0.0167975 0.998924 0.0432371)
(-0.173648 0.983757 0.0454813)
(-0.201919 0.978669 0.0378817)
(0.559596 0.791552 0.245556)
(0.569813 0.782566 0.250806)
(-0.406556 0.910945 0.0699367)
(-0.201217 0.978319 0.0490213)
(-0.176138 0.982947 0.0528188)
(0.0481693 0.994866 0.0890074)
(0.106828 0.991751 0.0708426)
(-0.104489 0.99304 0.0543533)
(-0.161836 0.985685 0.0472643)
(0.09153 0.99357 0.0666414)
(-0.124211 0.99091 0.0516592)
(-0.605439 0.788403 0.108924)
(0.983363 -0.0494426 -0.174794)
(0.982938 -0.0502118 -0.176952)
(0.979465 -0.0754945 -0.186946)
(0.982149 -0.0365996 -0.184508)
(0.98259 -0.0358326 -0.182298)
(0.982204 -0.0364761 -0.184241)
(0.283534 0.647829 0.707055)
(-0.187425 0.373057 0.908681)
(0.0769344 0.389009 0.918016)
(0.126165 0.984227 0.124013)
(0.586351 0.741495 0.326157)
(0.262814 0.907269 0.328317)
(-0.366894 0.898165 0.242255)
(0.195655 0.322265 0.92621)
(-0.0129269 -0.078085 0.996863)
(0.0776185 0.331691 0.94019)
(0.22459 0.895099 0.385171)
(0.39189 0.591917 0.704313)
(0.239981 0.407495 0.881111)
(0.122865 0.395632 0.910153)
(-0.0666088 0.244271 0.967417)
(0.666538 0.648083 0.368395)
(0.147383 -0.473273 0.868499)
(0.0414175 0.32011 0.946475)
(0.325242 0.867857 0.375556)
(0.935519 0.351528 -0.0350968)
(0.925653 0.374289 -0.0554403)
(-0.448567 0.456767 0.768213)
(-0.511392 0.852412 0.108959)
(-0.416974 0.783606 0.460538)
(-0.247803 0.805152 0.538817)
(-0.205275 0.965314 0.161344)
(-0.355116 0.822868 0.4436)
(-0.424798 0.451818 0.784479)
(-0.291418 0.748733 0.595378)
(-0.382598 0.772472 0.50686)
(-0.516611 0.851872 0.0861749)
(-0.237642 0.960634 0.143904)
(-0.388634 0.829941 0.400202)
(0.777674 -0.559103 0.28745)
(0.764117 -0.562669 0.31548)
(0.443955 0.715453 0.539473)
(-0.0953818 0.976632 -0.192595)
(0.941275 -0.330963 0.0668239)
(0.90001 0.424962 0.096902)
(0.998422 -0.046984 0.0307564)
(0.988586 0.11763 0.0941351)
(0.568773 0.614688 0.546494)
(0.880736 0.444238 0.164187)
(0.966257 0.214633 0.142409)
(-0.0877077 0.972361 -0.216385)
(0.736756 -0.671253 0.0813038)
(0.88389 -0.464358 0.0557726)
(-0.0582644 -0.203178 0.977407)
(-0.056795 -0.208313 0.976412)
(-0.39339 0.321917 0.86117)
(-0.105419 -0.116367 0.987596)
(-0.22373 0.0732041 0.971898)
(-0.181756 0.0718051 0.980719)
(-0.116491 -0.0405895 0.992362)
(-0.196257 0.0483732 0.979359)
(-0.383527 0.330802 0.862251)
(-0.215696 0.118563 0.969236)
(-0.233568 0.0935537 0.967829)
(-0.100474 -0.125024 0.987053)
(-0.117766 -0.0510206 0.99173)
(-0.187982 0.0301665 0.981709)
(-0.233128 0.22572 0.945887)
(-0.269874 0.657109 0.703829)
(-0.247625 0.848364 0.467933)
(-0.118702 0.966871 0.225987)
(-0.225534 0.710976 0.666068)
(-0.215388 0.316409 0.923847)
(-0.361541 0.72314 0.58852)
(-0.229046 0.666218 0.709712)
(-0.0981499 0.977955 0.184314)
(-0.257347 0.726449 0.637217)
(0.796478 0.486931 0.358497)
(0.78955 0.610929 0.0581081)
(0.943718 0.317976 0.0910332)
(0.781238 0.608253 -0.140343)
(0.794177 0.606654 0.0354123)
(0.684615 0.561707 0.464529)
(0.933868 0.323962 0.151455)
(0.794513 0.603012 0.0715963)
(0.761353 0.638128 -0.114603)
(0.782197 0.622309 0.0299888)
(-0.219194 0.19153 0.956698)
(-0.123813 0.0444167 0.991311)
(-0.17054 0.0443617 0.984352)
(-0.0566439 -0.0760057 0.995497)
(-0.131928 0.0480403 0.990094)
(-0.208143 0.275306 0.938554)
(-0.211395 0.0729069 0.974678)
(-0.142254 0.069362 0.987397)
(-0.0215216 -0.0497146 0.998532)
(-0.110867 0.0304925 0.993367)
(0.752378 -0.653709 0.0811859)
(0.804735 -0.593172 0.0234113)
(-0.598915 0.797079 -0.0772395)
(-0.598963 0.694121 -0.399299)
(-0.625689 0.778372 -0.0514722)
(-0.670665 0.725756 -0.153254)
(0.646777 -0.581751 0.493198)
(-0.703751 0.710252 -0.016632)
(-0.619779 0.686007 -0.381141)
(-0.652176 0.758055 0.00439617)
(-0.64934 0.754603 -0.0945056)
(0.468165 -0.291942 0.834021)
(-0.592236 0.617918 -0.51714)
(0.822082 -0.565184 -0.0689041)
(0.814106 -0.580678 -0.0066729)
(-0.697335 0.716666 0.0106533)
(0.755317 -0.654704 -0.0292983)
(0.672078 -0.568157 0.474877)
(0.737433 -0.673954 -0.0444806)
(-0.660505 0.750812 0.00365477)
(0.768771 -0.598848 0.22444)
(0.750378 -0.657697 -0.0660893)
(0.7909 -0.609221 -0.0576739)
(0.802009 -0.593881 -0.0639233)
(0.680785 -0.342187 0.647642)
(0.379115 -0.10007 0.919923)
(0.413587 -0.202813 0.887588)
(0.351729 -0.0934949 0.931421)
(0.818574 -0.570086 -0.0702705)
(0.804901 -0.589588 -0.0672382)
(0.115564 -0.0858479 0.989583)
(0.770416 -0.637524 0.004665)
(0.607434 -0.468522 0.641492)
(0.746507 -0.660179 0.0830131)
(0.168299 -0.132913 0.976734)
(0.702596 -0.511709 0.494483)
(0.747772 -0.663199 0.0316918)
(-0.629245 0.777036 0.0162823)
(-0.637494 0.770037 -0.0253853)
(0.339138 -0.0905069 0.936373)
(0.225537 -0.0345662 0.973621)
(0.306067 -0.109996 0.945634)
(0.22707 -0.0417002 0.972985)
(-0.638154 0.766561 -0.0717273)
(-0.637257 0.770341 -0.0218662)
(-0.136602 0.785231 -0.603947)
(0.991109 -0.109433 -0.0756847)
(0.734021 -0.66624 0.131671)
(0.997582 -0.0670362 0.0183565)
(0.91455 0.369451 -0.164634)
(0.99926 0.00522725 -0.0381017)
(-0.135044 0.811521 -0.568504)
(0.710005 -0.697833 0.0944491)
(0.707868 -0.69479 0.127243)
(0.939772 0.247193 -0.23606)
(0.912675 0.358487 -0.196242)
(0.995701 0.0601818 -0.0704098)
(-0.0495372 -0.203216 0.97788)
(-0.0503634 -0.208023 0.976826)
(-0.0635111 -0.166449 0.984003)
(0.0261821 -0.169578 0.985169)
(-0.0378351 -0.129106 0.990909)
(-0.0960627 -0.0617981 0.993455)
(0.00620809 -0.131125 0.991346)
(-0.0394893 -0.115228 0.992554)
(-0.0662551 -0.167591 0.983628)
(-0.100764 -0.0697362 0.992463)
(-0.0543326 -0.115539 0.991816)
(0.056043 -0.183314 0.981456)
(0.0329715 -0.155337 0.987311)
(-0.0195008 -0.131656 0.991104)
(-0.0108141 -0.0104607 0.999887)
(-0.0208586 0.0160975 0.999653)
(0.860677 0.377743 -0.341387)
(-0.0243626 -0.0411988 0.998854)
(-0.537373 -0.350128 0.767229)
(0.74626 0.27413 -0.606587)
(-0.407989 -0.127183 0.904085)
(-0.586516 -0.272167 0.762839)
(0.897822 0.299083 -0.323209)
(0.79194 0.288896 -0.537932)
(0.674059 0.318083 -0.666684)
(-0.033882 -0.0098727 0.999377)
(-0.330961 -0.0843945 0.939863)
(-0.459001 -0.262462 0.848782)
(0.0101615 -0.00785707 0.999918)
(0.0190302 0.0170294 0.999674)
(0.0556359 -0.184288 0.981296)
(0.0276106 -0.031691 0.999116)
(0.198704 -0.233792 0.951766)
(0.367193 -0.430601 0.824471)
(0.553147 -0.366663 0.748055)
(0.315305 -0.301587 0.899793)
(0.0898703 -0.20293 0.97506)
(0.313831 -0.385997 0.867477)
(0.243453 -0.274298 0.930318)
(0.0395832 -0.00846295 0.99918)
(0.54788 -0.274301 0.790308)
(0.272092 -0.2512 0.928905)
(0.228352 -0.282369 0.931731)
(0.106972 -0.151781 0.982609)
(-0.0452869 -0.0919991 0.994729)
(0.0552727 -0.0872859 0.994649)
(0.04284 -0.208153 0.977158)
(-0.00845984 -0.0601369 0.998154)
(0.0910877 -0.138504 0.986164)
(0.168917 -0.39058 0.904939)
(0.0874767 -0.104463 0.990674)
(0.0571587 -0.226905 0.972238)
(0.875029 0.35239 -0.331882)
(0.882704 0.236206 -0.406252)
(0.815108 0.175192 -0.552183)
(0.828218 0.183461 -0.529525)
(0.848105 0.27978 -0.449935)
(0.832699 0.414181 -0.367515)
(0.848932 0.184762 -0.495154)
(0.848155 0.295615 -0.439596)
(0.853835 0.149667 -0.498564)
(0.881114 0.222852 -0.417102)
(0.245817 -0.310721 0.918165)
(0.291221 -0.634731 0.715756)
(0.452345 -0.335503 0.826331)
(-0.281366 0.849154 -0.446956)
(-0.277839 0.691578 -0.666727)
(0.185905 -0.420298 0.888138)
(0.400566 -0.290286 0.869069)
(0.272551 -0.659032 0.700994)
(-0.159998 0.922311 -0.351771)
(-0.277751 0.692888 -0.665402)
(0.788983 -0.611933 -0.0551698)
(0.780928 -0.6226 -0.0502056)
(0.761202 -0.447025 0.46983)
(0.803362 -0.543686 0.24293)
(0.729442 -0.683967 0.0101876)
(0.713906 -0.698023 -0.0557005)
(0.755503 -0.653375 0.0481288)
(0.713725 -0.699383 -0.0382053)
(0.769359 -0.637205 0.0453528)
(0.730246 -0.6831 0.0107339)
(0.722032 -0.690525 -0.0429557)
(0.791974 -0.590338 0.155813)
(0.800142 -0.561896 0.209873)
(0.772748 -0.633182 -0.0440676)
(0.779365 -0.624714 -0.0481902)
(0.729771 -0.683613 0.0103209)
(-0.674912 0.736961 0.0371874)
(0.750342 -0.659228 0.0490387)
(-0.70553 0.707854 0.0342107)
(0.730908 -0.682383 0.0112921)
(0.735864 -0.675508 0.0468249)
(-0.697346 0.716067 0.0309288)
(0.756717 -0.652855 -0.034058)
(0.763101 -0.645214 -0.0371021)
(0.756817 -0.64795 0.085959)
(0.768061 -0.631565 0.105866)
(0.785689 -0.60191 0.142823)
(0.774223 -0.622548 0.114075)
(0.771148 -0.635249 -0.0423041)
(0.764888 -0.643001 -0.038681)
(0.662484 -0.639279 0.390433)
(-0.683304 0.728999 0.0407015)
(0.749364 -0.659511 0.0591474)
(-0.688264 0.724703 0.0331476)
(0.532536 -0.495136 0.686474)
(0.736508 -0.674061 0.0565405)
(-0.676175 0.736256 0.0267258)
(-0.548867 0.835909 0.000810246)
(-0.573311 0.819335 -0.0021337)
(0.775158 -0.621193 0.115102)
(0.78224 -0.606167 0.143742)
(0.7917 -0.576435 0.202322)
(0.786227 -0.597949 0.155898)
(-0.596457 0.802616 0.00677005)
(-0.577726 0.81618 0.00909621)
(-0.126724 0.262738 0.956509)
(-0.290173 0.0953611 0.952211)
(-0.283502 0.0451478 0.957908)
(-0.375679 -0.091736 0.922198)
(-0.429672 -0.109705 0.896296)
(-0.323844 -0.0149355 0.945993)
(-0.122947 0.251374 0.960049)
(-0.311618 -0.048711 0.948958)
(-0.285605 0.0260443 0.957994)
(-0.310103 0.0546686 0.94913)
(-0.405495 -0.0895587 0.909699)
(-0.316022 0.00454052 0.948741)
(0.205528 0.450152 0.868977)
(0.197738 0.431614 0.880119)
(0.202381 0.537837 0.818397)
(0.810998 0.182142 0.555974)
(0.808766 -0.0298923 0.58737)
(0.619329 -0.372474 0.691155)
(-0.581632 0.655429 -0.481785)
(0.756903 -0.319104 0.570325)
(0.198628 0.516509 0.832926)
(0.630853 -0.258 0.731752)
(0.786185 -0.108868 0.608326)
(0.844821 -0.0841946 0.528383)
(-0.595716 0.663319 -0.452912)
(0.788347 -0.276733 0.549479)
(-0.128434 0.495315 0.859167)