/*--------------------------------*- C++ -*----------------------------------*\
| =========                 |                                                 |
| \\      /  F ield         | OpenFOAM: The Open Source CFD Toolbox           |
|  \\    /   O peration     | Version:  2012                                  |
|   \\  /    A nd           | Website:  www.openfoam.com                      |
|    \\/     M anipulation  |                                                 |
\*---------------------------------------------------------------------------*/
FoamFile
{
    version     2.0;
    format      ascii;
    class       volSymmTensorField;
    location    "0.108/solid";
    object      sigma;
}
// * * * * * * * * * * * * * * * * * * * * * * * * * * * * * * * * * * * * * //

dimensions      [1 -1 -2 0 0 0 0];


internalField   nonuniform List<symmTensor> 
24998
(
(-3.99547e+07 3.52589e+07 4.08186e+07 -2.5435e+07 -7.4412e+06 -1.6029e+07)
(-2.53725e+07 -5.42772e+06 -4.01187e+06 -3.7406e+07 -1.27875e+07 -4.55328e+07)
(-5.16432e+07 1.04736e+06 -3.21944e+07 -6.33714e+07 5.32343e+06 -1.41289e+08)
(-7.52149e+07 -360698 -8.27299e+06 -7.15748e+07 1.76436e+06 -1.64954e+08)
(-2.19247e+07 -591158 -4.2395e+06 -2.0818e+07 2.77577e+06 -5.06446e+07)
(-1.61015e+07 -8.60466e+07 3.47868e+06 -1.81104e+07 1.01818e+06 -1.92437e+07)
(-9.21748e+06 -3.09501e+07 1.41874e+06 -1.76186e+07 4.47003e+06 -8.41237e+06)
(9.64589e+06 -1.3197e+07 773525 1.4936e+07 1.34399e+06 7.07429e+06)
(1.4571e+07 -5.64723e+06 215716 2.32421e+07 3.14326e+06 1.325e+07)
(-7.42356e+07 5.36945e+07 6.21058e+07 -7.12917e+07 -2.52575e+07 -5.24606e+07)
(-3.42641e+07 1.11555e+06 -7.16407e+06 -2.90521e+07 5.30725e+06 -2.64787e+07)
(2.2396e+07 -8.3391e+07 750739 2.9347e+07 8.61231e+06 2.70941e+06)
(-2.45393e+07 -5.04831e+06 -4.41199e+06 -3.5856e+07 -1.36743e+07 -4.72697e+07)
(-5.36832e+07 1.67928e+06 -3.48232e+07 -6.76547e+07 8.68123e+06 -1.46472e+08)
(-1.42533e+07 -8.12937e+07 -4.50879e+06 -2.49495e+07 9.55341e+06 -2.31305e+07)
(-3.3612e+07 2.9538e+06 -5.04858e+06 -2.28435e+07 698323 -2.31373e+07)
(-8.233e+07 -606544 -8.68848e+06 -7.66206e+07 920463 -1.74678e+08)
(-7.66673e+07 -459918 -8.28366e+06 -7.28218e+07 1.50824e+06 -1.67419e+08)
(-7.96768e+07 -638362 -8.66021e+06 -7.44308e+07 1.20724e+06 -1.69769e+08)
(-2.40889e+07 -647935 -3.81233e+06 -2.2419e+07 1.43353e+06 -5.40277e+07)
(-2.31879e+07 -504390 -4.20225e+06 -2.22412e+07 2.36644e+06 -5.2781e+07)
(-2.20214e+07 -1.06515e+06 -3.81158e+06 -1.95853e+07 2.01696e+06 -5.03304e+07)
(1.47035e+07 -8.45657e+07 7.47436e+06 4.06959e+07 -2.23652e+06 8.2103e+06)
(-2.61136e+06 -3.41153e+07 1.51813e+06 -1.18274e+07 5.14234e+06 -4.3496e+06)
(-1.38143e+07 -3.41798e+07 1.58258e+06 -2.51962e+07 4.58304e+06 -1.1494e+07)
(1.22241e+06 -3.15236e+07 1.51213e+06 -5.34947e+06 4.92513e+06 -1.79061e+06)
(1.36958e+07 -1.67039e+07 977397 1.91101e+07 1.7657e+06 9.40851e+06)
(8.49811e+06 -1.47578e+07 868013 1.29405e+07 1.5675e+06 6.02838e+06)
(1.4329e+07 -1.51905e+07 869427 2.05035e+07 1.52647e+06 1.01198e+07)
(1.65885e+07 -8.23873e+06 420545 2.5707e+07 2.43002e+06 1.39381e+07)
(1.42027e+07 -6.26372e+06 268692 2.28668e+07 2.30843e+06 1.23388e+07)
(1.67384e+07 -7.5867e+06 381683 2.57971e+07 3.28623e+06 1.47509e+07)
(-2.17471e+08 1.52422e+08 1.01445e+08 -5.61633e+08 -1.2262e+08 -1.35117e+08)
(-5.71683e+09 7.94282e+08 5.62826e+09 -1.36498e+09 -1.715e+09 -1.65684e+09)
(-2.1991e+07 -214722 -1.90793e+06 -2.67546e+07 -1.23015e+07 -4.31624e+07)
(-2.06262e+08 -1.2845e+06 7.69643e+07 -1.46663e+08 -5.91549e+07 -4.59015e+08)
(-6.37329e+07 4.86557e+07 -2.84203e+07 -1.77895e+07 6.63899e+06 -2.13502e+07)
(-6.06456e+07 1.27182e+06 7.52227e+06 -6.25937e+07 -7.72914e+06 -1.33409e+08)
(-1.20416e+09 -1.71472e+08 1.01021e+09 -7.29042e+08 6.5422e+07 -1.42423e+09)
(-4.60864e+08 3.43745e+06 2.24698e+08 -4.32893e+08 4.93154e+07 -9.5539e+08)
(-6.62672e+07 -4969.85 -4.40918e+06 -6.2535e+07 47224.7 -1.40673e+08)
(-1.7373e+08 -748144 8.36777e+07 -1.54011e+08 1.11865e+07 -3.41796e+08)
(-5.82814e+07 200540 2.16984e+07 -5.14235e+07 5.26469e+06 -1.10466e+08)
(-4.64228e+07 -522978 -6.25367e+06 -4.4981e+07 2.61007e+06 -1.02817e+08)
(-979295 -4.56681e+06 604707 -3.25646e+06 1.96367e+06 -1.88144e+07)
(-1.69242e+07 476710 5.76923e+06 -1.44956e+07 2.60908e+06 -3.26526e+07)
(-5.3952e+07 -3.52901e+07 -4.58513e+07 -5.75615e+07 -4.82731e+07 -1.21994e+08)
(8.76018e+07 -2.40374e+07 -1.22678e+06 -7.20016e+07 6.43279e+07 3.16317e+08)
(3.76972e+07 1.3355e+07 6.92981e+07 -2.67113e+07 5.7089e+07 -3.4404e+07)
(-2.94188e+07 -5.80034e+07 5.96295e+06 -4.37003e+07 -1.62249e+06 -1.82453e+07)
(1.46759e+07 -3.08458e+06 2.2967e+06 1.19864e+07 -7.08215e+06 3.66383e+07)
(1.19906e+07 -9.50657e+06 5.6501e+06 1.84731e+06 -1.49305e+07 3.81034e+06)
(1.96001e+07 5.61977e+06 -1.04921e+07 1.48406e+06 -7.72782e+06 -1.45176e+08)
(1.99854e+07 2.4275e+06 -2.40498e+07 -1.59941e+06 -1.39138e+07 -5.54162e+07)
(1.10585e+06 -2.28777e+07 1.231e+06 67283.8 3.10236e+06 -414502)
(1.99175e+07 2.55216e+06 -4.7783e+06 2.40455e+07 1.15337e+07 4.35289e+07)
(1.7019e+07 1.80349e+06 -2.82824e+06 2.02448e+07 6.18823e+06 5.00233e+07)
(2.1211e+07 818334 -1.93305e+07 -1.36003e+06 -6.75589e+06 2.69815e+07)
(2.05061e+07 56409.3 -1.30355e+07 4.17118e+06 -1.78459e+06 4.21684e+07)
(1.21253e+07 -9.48877e+06 529449 1.92413e+07 1.08065e+06 9.46865e+06)
(2.5413e+07 971145 -2.81881e+06 2.70629e+07 -291216 2.95041e+07)
(2.31354e+07 1.47826e+06 -3.70931e+06 2.59233e+07 9.13299e+06 3.00707e+07)
(1.85906e+07 -695565 -5.98753e+06 1.32623e+07 875192 3.04831e+07)
(1.89614e+07 -5.44966e+06 -189537 1.92886e+07 468248 2.02069e+07)
(-1.82112e+08 1.37843e+08 8.80258e+07 -4.14398e+08 -8.72255e+07 -1.08672e+08)
(-2.33533e+08 -1.9163e+06 7.51721e+07 -1.53407e+08 -5.68076e+07 -4.75884e+08)
(-8.97058e+07 9.57975e+07 -4.41291e+07 -7.30965e+07 1.76818e+07 -4.69593e+07)
(-3.24738e+09 4.95908e+08 3.41432e+09 -9.48073e+08 -9.10477e+08 -1.04775e+09)
(-1.23474e+09 -1.18932e+08 1.14006e+09 -6.27287e+08 -7.46956e+07 -1.2161e+09)
(-5.55331e+09 2.89797e+08 5.40532e+09 -2.7529e+09 -1.78962e+09 -1.68694e+09)
(-2.99651e+08 -1.11081e+07 7.05023e+07 -2.16456e+08 -2.50246e+07 -6.03789e+08)
(-1.12606e+09 -6.87345e+07 3.9789e+08 -6.4735e+08 -2.77118e+07 -1.00058e+09)
(-3.54189e+09 3.27413e+08 3.47468e+09 -1.49311e+09 -9.75291e+08 -1.13323e+09)
(-4.38742e+07 3.22358e+07 -4.2324e+07 -7.11252e+07 1.65358e+07 -3.83467e+07)
(-2.51737e+07 -726418 -1.80277e+06 -2.96877e+07 -1.43971e+07 -5.40519e+07)
(-5.53805e+07 1.59318e+06 7.63286e+06 -5.98551e+07 -7.01562e+06 -1.24733e+08)
(-2.69255e+08 -7.4254e+06 7.37497e+07 -2.31744e+08 -3.51522e+07 -5.98877e+08)
(-6.74456e+07 370801 1.22623e+07 -7.27268e+07 -1.52828e+07 -1.49394e+08)
(-5.71774e+07 920854 9.81618e+06 -6.62423e+07 -1.29653e+07 -1.25772e+08)
(-4.81636e+07 7.78053e+06 -2.8678e+07 -4.6107e+07 8.96984e+06 -2.58618e+07)
(-9.99756e+08 -1.33936e+08 2.85609e+08 -6.70844e+08 8.43839e+06 -1.25497e+09)
(-7.20611e+07 -1.2879e+06 -3.54128e+06 -6.23439e+07 -331538 -1.35093e+08)
(-4.82714e+08 -6.57078e+06 1.62371e+08 -4.20841e+08 2.61721e+07 -8.99813e+08)
(-1.84797e+08 -716932 8.86962e+07 -1.64132e+08 1.16577e+07 -3.61598e+08)
(-4.13366e+08 1.73274e+06 2.11435e+08 -3.87048e+08 4.12094e+07 -8.59837e+08)
(-7.49082e+07 -1.28506e+06 -4.30958e+06 -6.63196e+07 -375039 -1.45047e+08)
(-1.9284e+08 -2.37511e+06 5.36263e+07 -1.62236e+08 5.32945e+06 -3.47888e+08)
(-4.03159e+08 -6.6419e+06 1.33811e+08 -3.48736e+08 1.92116e+07 -7.36085e+08)
(-6.76829e+07 34281 -4.41276e+06 -6.35372e+07 -308094 -1.42791e+08)
(-1.74366e+08 -2.29019e+06 4.7361e+07 -1.46409e+08 5.65467e+06 -3.14715e+08)
(-4.92978e+07 -498526 -6.3016e+06 -4.71057e+07 1.52847e+06 -1.07196e+08)
(-6.49007e+07 -378507 1.4613e+07 -5.55954e+07 2.88589e+06 -1.17694e+08)
(-1.86521e+07 453170 6.05355e+06 -1.60205e+07 2.49103e+06 -3.53026e+07)
(-5.34762e+07 72271.9 1.99778e+07 -4.71986e+07 4.80133e+06 -1.02501e+08)
(-4.51768e+07 -450142 -5.88571e+06 -4.32588e+07 1.43505e+06 -9.84458e+07)
(-2.16204e+07 501378 4.5538e+06 -1.79195e+07 1.59714e+06 -4.00715e+07)
(-5.65397e+07 -240198 1.24625e+07 -4.84192e+07 2.51982e+06 -1.02606e+08)
(-4.40633e+07 -452186 -6.10128e+06 -4.28129e+07 2.53955e+06 -9.85343e+07)
(-3.32647e+06 -2.65303e+06 1.00041e+06 -2.81705e+06 6.11354e+06 -2.48035e+07)
(-1.84841e+07 938956 4.27267e+06 -1.48621e+07 1.94136e+06 -3.50357e+07)
(1.57525e+08 -1.88791e+07 1.57199e+07 1.21061e+08 -3.61909e+07 3.13396e+08)
(1.92549e+07 9.35101e+06 3.98794e+07 -2.62783e+07 7.5382e+07 -1.96889e+07)
(-3.30433e+07 -1.6268e+07 -7.51581e+06 -6.92649e+07 -4.63719e+07 -1.70058e+08)
(1.43327e+06 -4.50521e+06 -2.88504e+06 2.86816e+06 441059 1.34967e+06)
(-4.74515e+07 -4.21665e+07 -6.35482e+07 -7.41333e+07 -6.58242e+07 -2.0855e+08)
(2.13135e+06 -1.96789e+06 -7.23724e+06 -151946 4.63111e+06 7.44783e+06)
(-1.97732e+08 -1.09758e+07 -7.01229e+07 -4.18002e+07 9.3448e+07 -5.85845e+08)
(-4.84963e+07 9.35756e+06 -8.10322e+07 -5.11518e+06 7.68312e+07 6.20605e+07)
(-6.99234e+07 -2.10637e+07 -7.70004e+07 -7.69802e+07 -4.83238e+07 -2.8279e+08)
(387489 -5.73352e+06 1.11423e+06 -3.54526e+06 338998 -1.9083e+07)
(1.16638e+07 -9.81561e+06 5.66662e+06 1.19529e+06 -1.48519e+07 1.40574e+06)
(-3.38828e+06 -2.13864e+06 1.45468e+06 -1.58411e+06 4.02453e+06 -2.88855e+07)
(1.33849e+07 7.6423e+06 -3.45496e+06 -1.07444e+06 -5.09754e+06 -1.21894e+08)
(1.701e+07 1.04818e+07 3.31732e+07 -1.97696e+07 5.9677e+07 -5.56278e+07)
(1.73397e+06 609951 5.36436e+06 9.45768e+06 -1.54763e+07 -2.57534e+07)
(715508 -5.69853e+06 -3.21732e+06 3.78786e+06 -1.06928e+06 1.08484e+07)
(1.29257e+06 -1.03491e+07 -6.52449e+06 1.21104e+07 -1.53502e+07 7.23674e+07)
(2.71817e+06 -1.47921e+06 -7.228e+06 -830569 2.66069e+06 2.03286e+07)
(-2.38076e+07 7.52252e+06 -1.63109e+07 -1.55239e+07 -4.43843e+06 1.48595e+08)
(-4.36645e+07 1.04967e+07 -7.19318e+07 -9.47975e+06 6.09569e+07 9.51766e+07)
(9.32579e+06 727598 -7.44566e+06 781498 -1.59766e+07 9.62928e+07)
(-2.16553e+08 -3.4097e+06 -9.36046e+07 -2.01294e+07 9.43843e+07 -6.62757e+08)
(-6.94323e+07 1.30448e+07 -1.08549e+08 -6.7236e+06 5.95377e+07 8.53037e+07)
(2.00476e+07 6.33801e+06 -5.77226e+06 1.32544e+06 -4.65268e+06 -1.53381e+08)
(3.33368e+07 1.27113e+07 5.69117e+07 -1.8537e+07 4.48368e+07 -7.77025e+07)
(-3.35309e+07 6.25697e+06 -1.39046e+07 -2.01284e+07 -3.52674e+06 1.75981e+08)
(-6.29319e+07 1.25862e+07 -9.41038e+07 -1.29338e+07 4.70321e+07 1.23664e+08)
(-1.48863e+07 -5.29168e+07 4.46007e+06 -1.69754e+07 -2.3209e+06 -4.43805e+06)
(-1.45404e+07 -4.56453e+07 2.83736e+06 -2.39013e+07 1.32539e+06 -7.53393e+06)
(-2.7675e+07 -4.9293e+07 4.10594e+06 -4.42962e+07 1.11013e+06 -1.8173e+07)
(1.08253e+07 8000.48 1.8894e+06 1.33818e+07 -8.26579e+06 2.53793e+07)
(1.36272e+07 6.7907e+06 -6.36418e+06 -368434 -9.21454e+06 -1.15307e+08)
(2.30644e+06 619885 5.3256e+06 9.83636e+06 -1.56826e+07 -2.27714e+07)
(1.62418e+07 1.74776e+06 -1.52853e+07 609196 -1.77977e+07 -4.08866e+07)
(1.14036e+07 -4.36777e+06 -2.48145e+06 1.6077e+07 -7.13385e+06 6.20976e+07)
(1.83759e+06 -1.00878e+07 -6.46158e+06 1.24282e+07 -1.53909e+07 7.29463e+07)
(1.38412e+07 -490224 -2.13072e+06 1.13382e+07 -8.33622e+06 6.95673e+07)
(-2.18873e+07 6.66866e+06 -1.09944e+07 -1.40981e+07 -8.64954e+06 1.41287e+08)
(9.6396e+06 696190 -7.25422e+06 1.35311e+06 -1.61494e+07 9.62032e+07)
(-1.04631e+07 1.66578e+06 1.13123e+07 -53277 -1.77434e+07 6.54412e+07)
(1.47368e+07 -2.66475e+06 1.95234e+06 1.25836e+07 -6.25888e+06 3.81827e+07)
(1.6841e+07 1.64449e+06 -2.58765e+06 1.98872e+07 5.57735e+06 4.9979e+07)
(1.13424e+07 -38312.8 1.56438e+06 1.35707e+07 -7.4041e+06 2.80225e+07)
(1.84422e+07 -1.12608e+06 -1.37616e+07 2.58645e+06 -9.77475e+06 2.35448e+07)
(1.66155e+07 1.22074e+06 -1.54763e+07 658128 -1.72452e+07 -3.02296e+07)
(1.76682e+07 -462855 -2.89108e+06 1.6505e+07 5.12417e+06 5.11169e+07)
(1.19819e+07 -4.01683e+06 -2.13905e+06 1.62749e+07 -6.28921e+06 6.0734e+07)
(1.91091e+07 -258639 2.7412e+06 1.94284e+07 5.72647e+06 4.23859e+07)
(1.40981e+07 -581134 -1.73991e+06 1.19512e+07 -7.46171e+06 6.7177e+07)
(675640 -1.12287e+06 1.79953e+07 1.28813e+07 -1.00142e+07 3.80863e+06)
(-8.99756e+06 1.15942e+06 1.28999e+07 1.94241e+06 -1.72415e+07 5.49551e+07)
(1.76171e+07 -1.43114e+06 3.4907e+06 1.9374e+07 5.25929e+06 3.81153e+07)
(-3.08731e+07 5.55178e+06 -6.84287e+06 -1.8168e+07 -6.74935e+06 1.66066e+08)
(-1.67884e+07 2.47413e+06 1.99622e+07 -110301 -1.37511e+07 7.11443e+07)
(2.11928e+07 945777 -2.02131e+07 -1.83893e+06 -7.64552e+06 2.16572e+07)
(2.01927e+07 2.16339e+06 -2.41703e+07 -2.01603e+06 -1.34592e+07 -4.26902e+07)
(-4.25753e+06 1.04373e+06 2.43614e+07 1.51063e+07 -7.97526e+06 -2.69543e+06)
(-1.51358e+07 2.2164e+06 2.14871e+07 2.34807e+06 -1.33836e+07 5.84276e+07)
(9.02893e+06 -2.4413e+07 1.41184e+06 9.38679e+06 3.3738e+06 4.70119e+06)
(1.06371e+07 -2.22518e+07 1.31789e+06 1.2649e+07 2.87556e+06 6.24371e+06)
(3.49492e+06 -2.05634e+07 1.15292e+06 4.22408e+06 2.62839e+06 1.61397e+06)
(2.16544e+07 -223761 -4.97419e+06 2.01743e+07 1.1638e+07 4.70778e+07)
(1.85917e+07 -1.2989e+06 -1.32884e+07 3.1208e+06 -8.61815e+06 2.7947e+07)
(1.79917e+07 -465638 -3.10503e+06 1.67202e+07 5.7844e+06 5.15738e+07)
(1.91027e+07 -1.83892e+06 -9.6109e+06 8.1931e+06 -2.14393e+06 4.00204e+07)
(2.25861e+07 221351 5.04704e+06 2.27802e+07 1.17298e+07 3.09391e+07)
(1.94012e+07 -132095 2.97858e+06 1.96152e+07 6.3534e+06 4.13662e+07)
(2.08822e+07 -1.50152e+06 5.79102e+06 2.32282e+07 1.18254e+07 2.53012e+07)
(1.94916e+06 -1.30012e+06 1.80975e+07 1.39494e+07 -8.87613e+06 -63588.8)
(1.78455e+07 -1.46269e+06 3.75763e+06 1.97239e+07 5.92323e+06 3.67657e+07)
(9.96534e+06 -1.79183e+06 1.62058e+07 1.84984e+07 -2.45046e+06 -7.92296e+06)
(2.00875e+07 2.51923e+06 -4.81807e+06 2.41903e+07 1.1621e+07 4.27614e+07)
(2.29599e+07 1.55214e+06 -3.84615e+06 2.58536e+07 9.50675e+06 3.07835e+07)
(2.18216e+07 -193435 -4.98426e+06 2.04015e+07 1.17503e+07 4.62447e+07)
(1.89924e+07 -1.63651e+06 -5.25503e+06 1.48781e+07 1.12165e+06 3.08494e+07)
(1.91156e+07 -1.84375e+06 -9.06289e+06 9.03004e+06 -1.49958e+06 3.97084e+07)
(2.373e+07 331796 -3.94254e+06 2.35874e+07 9.75284e+06 3.15993e+07)
(2.26701e+07 158291 5.06697e+06 2.29665e+07 1.18268e+07 3.04943e+07)
(2.35651e+07 -1.05607e+06 4.06707e+06 2.56458e+07 9.64905e+06 2.71537e+07)
(2.10743e+07 -1.49337e+06 5.82257e+06 2.3364e+07 1.19339e+07 2.50206e+07)
(1.71072e+07 -1.57217e+06 1.04104e+07 1.97583e+07 889728 6.23741e+06)
(1.09732e+07 -1.80597e+06 1.56537e+07 1.88129e+07 -1.80218e+06 -6.97789e+06)
(2.34153e+07 -1.14122e+06 4.5514e+06 2.45637e+07 9.89365e+06 2.51917e+07)
(-2.8172e+06 909526 2.4046e+07 1.6247e+07 -7.11899e+06 -7.22897e+06)
(6.72235e+06 131596 1.95725e+07 2.04763e+07 -2.23996e+06 -1.58583e+07)
(1.88106e+07 -640628 -6.67912e+06 1.22932e+07 767053 3.23355e+07)
(2.03164e+07 -40618.9 -1.21777e+07 5.15688e+06 -1.28982e+06 4.19398e+07)
(1.57081e+07 -610838 1.179e+07 2.04915e+07 419067 1.6604e+06)
(7.94575e+06 17429.6 1.87035e+07 2.06584e+07 -1.74155e+06 -1.46348e+07)
(1.5599e+07 -1.15562e+07 612853 2.33944e+07 1.21735e+06 1.1732e+07)
(1.58841e+07 -1.05914e+07 550442 2.40712e+07 1.28534e+06 1.22002e+07)
(1.27281e+07 -8.52787e+06 458653 2.03029e+07 1.16041e+06 1.01422e+07)
(2.38914e+07 60853.3 -772275 2.47571e+07 409990 2.61681e+07)
(1.89504e+07 -1.5637e+06 -4.73698e+06 1.56505e+07 1.24247e+06 2.9216e+07)
(2.38187e+07 367216 -3.77718e+06 2.37672e+07 9.37752e+06 3.06759e+07)
(1.91508e+07 -5.38818e+06 -174843 1.95799e+07 462790 2.05087e+07)
(2.41867e+07 -636041 -1.79371e+06 2.60664e+07 -41446 2.8569e+07)
(2.35601e+07 -1.1459e+06 3.89516e+06 2.57768e+07 9.2801e+06 2.70666e+07)
(2.34285e+07 -1.0677e+06 -380813 2.46379e+07 -94627.2 2.58049e+07)
(1.78559e+07 -1.50854e+06 9.52656e+06 1.97912e+07 1.02681e+06 8.45856e+06)
(2.35523e+07 -1.12094e+06 4.37981e+06 2.46057e+07 9.50907e+06 2.53779e+07)
(2.15359e+07 -5.39745e+06 480533 2.08969e+07 438672 2.07518e+07)
(1.66461e+07 -677432 1.07232e+07 2.03513e+07 552378 4.3783e+06)
(2.13448e+07 -5.48355e+06 457904 2.04655e+07 433039 2.04337e+07)
(-3.53784e+08 6.20509e+07 1.35924e+08 -4.80009e+08 -9.31948e+07 -7.18104e+07)
(-1.49502e+09 -7.56841e+08 4.90087e+08 -1.3447e+09 -3.87187e+06 1.31446e+09)
(-6.46736e+08 -1.37084e+08 6.22639e+08 -2.13701e+09 -1.89011e+09 -1.16266e+09)
(-1.50803e+07 3.3899e+07 6.59518e+06 2.92249e+07 1.41634e+06 5.9585e+07)
(-3.36505e+07 1.7949e+07 1.86507e+07 -2.53287e+07 -4.82178e+06 -1.61069e+07)
(-8.53163e+07 1.39921e+07 1.03681e+08 -7.80673e+07 -6.61357e+07 -1.34252e+08)
(-7.01442e+07 7.62049e+07 1.47283e+07 -2.58714e+07 1.27381e+07 -8.45192e+06)
(-1.39219e+08 6.70943e+07 3.38206e+07 -3.26277e+07 7.06527e+07 -3.23146e+07)
(-5.25557e+07 4.8437e+06 3.77593e+07 -3.65554e+07 -2.0494e+07 -5.29267e+07)
(-5.34183e+07 3.41141e+07 5.28156e+06 -2.51853e+07 8.44801e+06 -1.11284e+07)
(-9.47983e+07 661437 -3.48928e+07 -8.47102e+07 1.30882e+06 -1.86556e+08)
(-5.86999e+07 2.5031e+06 -1.3679e+07 -6.03052e+07 1.91254e+06 -1.40841e+08)
(-6.90565e+07 500631 -2.0858e+07 -6.47043e+07 940689 -1.46281e+08)
(-6.15473e+07 60894.1 -1.42289e+07 -6.07829e+07 557313 -1.41406e+08)
(-6.30718e+07 -642516 -7.5657e+06 -6.05312e+07 2.81122e+06 -1.38598e+08)
(-5.26231e+07 88523.9 -1.22522e+07 -5.20152e+07 879554 -1.20832e+08)
(-2.18952e+07 -35002 -5.44785e+06 -2.16529e+07 555352 -5.05046e+07)
(-1.60024e+07 -1.55887e+06 -4.19625e+06 -3.67492e+06 2.20479e+07 -4.04547e+07)
(-1.49719e+07 -1.44089e+06 -5.85362e+06 -1.21995e+07 3.25313e+06 -3.98166e+07)
(-1.09967e+08 -1.78945e+07 7.21829e+06 -1.11877e+08 -5.20832e+06 -7.64454e+07)
(-4.77488e+07 -8.68649e+07 1.26041e+06 -6.28569e+07 3.36404e+06 -4.19978e+07)
(-6.84843e+06 -5.71976e+07 4.72188e+06 7.99762e+06 1.38252e+06 -2.06295e+07)
(-2.22815e+07 -7.98193e+07 7.45022e+06 -2.53857e+07 -3.93114e+06 -1.72373e+07)
(-1.10566e+08 -1.99407e+07 -2.46598e+06 -1.12249e+08 2.41787e+06 -9.64813e+07)
(-2.68726e+07 -4.69409e+07 1.70983e+07 -1.53041e+07 -7.48523e+06 -1.40741e+07)
(-4.83881e+07 -8.25696e+07 4.98511e+06 -6.27592e+07 -1.15362e+06 -3.78324e+07)
(-2.72556e+07 -6.08801e+06 1.33532e+06 -2.76818e+07 -673913 -1.64044e+07)
(-1.94977e+07 -3.23353e+07 998014 -2.37996e+07 2.81379e+06 -1.30267e+07)
(-1.11313e+07 -1.47165e+07 2.77769e+06 -1.72308e+07 2.49156e+06 -9.01441e+06)
(-5.19124e+06 -2.80519e+07 1.34611e+06 -1.07991e+07 4.09462e+06 -5.45711e+06)
(-4.32707e+07 -7.62324e+06 1.57727e+06 -4.38962e+07 -788448 -2.5141e+07)
(-2.86681e+06 -1.29517e+07 2.61689e+06 -7.45118e+06 2.10864e+06 -4.40489e+06)
(-1.4534e+07 -2.87814e+07 918244 -1.68687e+07 2.64181e+06 -9.77902e+06)
(7.43344e+06 -2.52325e+06 663512 7.53326e+06 -419018 4.74672e+06)
(5.56366e+06 -1.16944e+07 549549 1.04486e+07 752831 4.61804e+06)
(1.49038e+07 -6.94974e+06 1.58917e+06 1.47621e+07 705389 8.27805e+06)
(1.06082e+07 -1.18065e+07 686167 1.66084e+07 1.18436e+06 7.97074e+06)
(2.678e+06 -3.17686e+06 839763 2.75836e+06 -530160 1.49481e+06)
(1.67837e+07 -6.00157e+06 1.32121e+06 1.70465e+07 584679 9.86589e+06)
(7.01337e+06 -1.01671e+07 486357 1.23412e+07 662752 5.70957e+06)
(1.85608e+07 -1.08826e+06 -844679 1.86439e+07 1.06877e+06 1.92991e+07)
(1.32083e+07 -3.65492e+06 -4447.03 2.04255e+07 2.7187e+06 1.18279e+07)
(2.10947e+07 -3.278e+06 426664 2.24522e+07 1.56361e+06 1.76406e+07)
(1.46169e+07 -5.076e+06 207403 2.25331e+07 4.41092e+06 1.4389e+07)
(1.66699e+07 -1.47445e+06 -603158 1.68725e+07 803731 1.41091e+07)
(2.20107e+07 -2.82843e+06 210962 2.26045e+07 1.44339e+06 2.13483e+07)
(1.35958e+07 -3.05105e+06 -90591 2.02285e+07 3.86491e+06 1.30109e+07)
(-7.69975e+08 1.12212e+08 1.57091e+07 -9.37522e+08 1.60035e+07 -5.76085e+08)
(-1.28774e+08 8.93622e+07 8.97986e+07 -1.82201e+08 -5.64854e+07 -1.16544e+08)
(-1.08025e+08 3.30354e+06 1.12323e+08 -9.12123e+07 -7.6942e+07 -1.5927e+08)
(-1.24171e+08 1.23618e+08 3.15581e+07 -1.06572e+08 1.04929e+06 -3.67792e+07)
(-1.65824e+08 3.46841e+07 3.3247e+07 -3.95111e+07 6.4456e+07 -2.86159e+07)
(-2.21086e+08 6.39e+07 2.6514e+08 -1.61007e+08 -1.44391e+08 -2.03101e+08)
(-2.33428e+08 1.97628e+08 3.98104e+07 -3.33326e+08 -1.39333e+07 -1.32619e+08)
(-9.27165e+07 -1.88212e+07 -6.49402e+06 -6.88519e+07 1.00852e+07 -1.16905e+08)
(1.81356e+06 -512835 7.902e+07 4.93985e+07 -9.52799e+06 2.78694e+08)
(-4.6985e+07 -8.29955e+07 1.66661e+08 7.74844e+07 8.05649e+07 5.3303e+08)
(5.09849e+07 -2.68682e+06 -2.08468e+07 2.36118e+07 -5.07608e+06 3.51798e+07)
(1.56458e+07 -6.43537e+07 -1.17493e+07 -1.10019e+07 1.74628e+07 -9.62145e+06)
(7.10363e+07 -9.84741e+07 1.19196e+07 8.25495e+07 1.80563e+06 3.88642e+07)
(2.76118e+07 -5.2706e+07 -2.31983e+06 4.54707e+07 1.09594e+07 -2.64015e+06)
(-1.69573e+06 -1.98656e+07 -3.58516e+07 -2.35828e+07 1.89736e+07 -2.29298e+07)
(1.46551e+08 -2.37648e+07 465460 1.52049e+08 700206 1.08347e+08)
(9.77999e+07 -9.64922e+07 2.44686e+06 5.47145e+07 9.95885e+06 3.56425e+07)
(-3.10787e+07 -2.20806e+06 -2.44471e+06 -3.09376e+07 -1.27697e+07 -6.72156e+07)
(-6.60592e+07 6.34324e+06 -1.21144e+07 -5.83875e+07 -2.02542e+06 -8.01475e+07)
(-5.67024e+07 -980438 -5.58521e+06 -5.42519e+07 -930672 -1.22288e+08)
(-8.93021e+07 -1.21264e+07 -4.83254e+07 -1.01929e+08 1.83453e+07 -2.13582e+08)
(-9.67641e+07 712727 -3.76276e+07 -8.52368e+07 1.52605e+06 -1.85347e+08)
(-1.18316e+08 -7.38031e+06 -5.31935e+07 -9.74057e+07 -5.95225e+06 -1.81977e+08)
(-9.89231e+07 -1.02938e+07 -2.33004e+07 -9.80107e+07 1.99417e+07 -8.46305e+07)
(-2.03258e+07 -6.24177e+07 -1.40378e+07 -4.41945e+07 1.5711e+07 -2.68774e+07)
(-4.84365e+07 -8.15763e+07 -4.78623e+06 -6.57032e+07 1.01405e+07 -4.47334e+07)
(-5.22634e+06 -5.47098e+07 -5.02691e+06 4.21482e+06 9.15703e+06 -2.51623e+07)
(-1.1055e+08 -2.00186e+07 -5.183e+06 -1.12126e+08 4.1608e+06 -9.8002e+07)
(-2.70146e+07 -2.45257e+07 -3.66848e+07 -4.2788e+07 1.67649e+07 -3.65693e+07)
(-5.20602e+07 -6.57931e+07 -1.04209e+07 -7.108e+07 1.60089e+07 -4.43452e+07)
(-8.69179e+07 6.50487e+06 7.54171e+07 -1.76186e+07 -1.88961e+07 4.2921e+07)
(-5.44511e+07 889002 -3.38147e+06 -3.86354e+07 -1.43677e+06 -7.63222e+07)
(-1.67758e+08 -1.51873e+07 5.67218e+07 -1.06086e+08 6.10926e+06 -2.01294e+08)
(-8.31675e+07 -714312 -7.71556e+06 -7.64762e+07 -143493 -1.72482e+08)
(-1.08239e+08 -1.704e+06 4.78939e+06 -9.8505e+07 3.02092e+06 -2.22614e+08)
(-1.16727e+08 -2.74505e+06 8.74801e+06 -1.05158e+08 2.1033e+06 -2.32073e+08)
(-7.68738e+07 -95578.7 -7.29644e+06 -7.24621e+07 -785701 -1.65406e+08)
(-6.24268e+07 49782.5 -1.44239e+07 -6.16459e+07 462739 -1.43439e+08)
(-6.32366e+07 -54154.2 -1.44971e+07 -6.24977e+07 -290543 -1.45429e+08)
(-1.02752e+08 -1.64978e+06 3.76823e+06 -9.39776e+07 3.46669e+06 -2.12638e+08)
(-6.75793e+07 -664282 -7.92221e+06 -6.38279e+07 1.66445e+06 -1.45456e+08)
(-8.17621e+07 -1.31122e+06 1.19166e+06 -7.62496e+07 3.91058e+06 -1.71965e+08)
(-3.15223e+07 -336135 -4.43456e+06 -3.0278e+07 1.10234e+06 -6.93169e+07)
(-2.38314e+07 -19609.4 -1.00425e+06 -2.11731e+07 2.67132e+06 -5.19241e+07)
(-3.24638e+07 -230461 -1.07677e+06 -3.08313e+07 2.01429e+06 -6.98581e+07)
(-3.11233e+07 -334284 -4.8119e+06 -3.0426e+07 1.93912e+06 -7.02292e+07)
(-2.27043e+07 -3540.52 -5.59172e+06 -2.24538e+07 544606 -5.22574e+07)
(-2.93381e+07 70465.6 -7.03439e+06 -2.90059e+07 659164 -6.72568e+07)
(-2.1611e+07 221386 -814219 -1.75693e+07 3.77905e+06 -4.76464e+07)
(-1.71456e+07 -5.56016e+06 -4.13162e+06 -3.94765e+06 1.21249e+07 -5.02619e+07)
(-1.32534e+07 4.38084e+06 2.9353e+06 8.33806e+06 1.96635e+07 -3.99251e+07)
(5.35477e+07 -1.71262e+07 7.47264e+06 6.33445e+07 3.69835e+06 4.0336e+07)
(3.52295e+07 -8.24765e+07 1.14242e+07 7.24079e+07 -5.72504e+06 3.02348e+07)
(2.47236e+07 -5.66083e+07 7.40558e+06 4.9804e+07 1.19494e+06 2.3887e+06)
(916822 -7.50742e+07 8.53857e+06 2.41902e+07 -7.41113e+06 6.73759e+06)
(-6.22857e+06 -4.7823e+07 1.72935e+07 1.35744e+07 -9.36166e+06 3.65346e+06)
(1.41479e+08 -2.41736e+07 3.80632e+06 1.49324e+08 -581513 1.05581e+08)
(8.99386e+06 -6.47548e+07 6.28276e+06 4.13704e+07 -7.12517e+06 1.82503e+07)
(1.64872e+07 -8.87582e+06 3.08833e+06 1.67375e+07 3.21351e+06 9.59466e+06)
(-6.94297e+06 -3.70217e+07 1.6134e+06 -1.82796e+07 4.85819e+06 -6.63746e+06)
(1.19179e+07 -3.65073e+07 1.35285e+06 2.59918e+06 5.28919e+06 4.04507e+06)
(-5.68825e+06 -1.61453e+07 3.02774e+06 -1.33405e+07 2.92773e+06 -5.98129e+06)
(-1.54051e+07 -1.89343e+07 3.78895e+06 -2.3731e+07 2.78157e+06 -9.73898e+06)
(2.49411e+07 -7.44424e+06 2.58694e+06 2.43822e+07 2.63379e+06 1.40201e+07)
(7.96367e+06 -3.82597e+07 1.05579e+06 -3.03817e+06 5.27862e+06 1.82563e+06)
(-6.46949e+07 -9.39438e+06 2.60994e+06 -6.57284e+07 -1.54826e+06 -3.53485e+07)
(-1.87972e+07 -3.79882e+07 1.9645e+06 -3.30109e+07 4.21757e+06 -1.44295e+07)
(-2.50164e+07 -3.63438e+07 1.18198e+06 -3.15248e+07 2.73062e+06 -1.64675e+07)
(-1.43502e+07 -1.54018e+07 2.91272e+06 -2.09158e+07 2.58631e+06 -1.05635e+07)
(-4.45283e+07 -7.44973e+06 1.64396e+06 -4.52931e+07 -829355 -2.52123e+07)
(-2.50524e+07 -1.79987e+07 3.94995e+06 -3.22916e+07 2.44495e+06 -1.489e+07)
(-3.09086e+07 -4.1033e+07 1.56866e+06 -3.9753e+07 2.24216e+06 -1.99688e+07)
(3.07083e+07 -6.13807e+06 2.35394e+06 3.00121e+07 2.25044e+06 1.70033e+07)
(1.49317e+07 -3.45649e+07 1.51078e+06 7.81024e+06 4.95681e+06 6.16878e+06)
(-2.8315e+06 -1.54627e+07 2.94582e+06 -9.90353e+06 2.81927e+06 -4.58397e+06)
(4.4153e+06 -2.90675e+07 1.5108e+06 453591 4.46265e+06 665900)
(4.38941e+06 -1.35381e+07 2.83554e+06 -838616 2.39957e+06 -395864)
(2.53807e+07 -7.09666e+06 2.55096e+06 2.47955e+07 2.54791e+06 1.39936e+07)
(1.71123e+07 -3.24484e+07 1.55744e+06 1.21562e+07 4.4752e+06 7.99387e+06)
(3.34279e+07 -4.02626e+06 1.69423e+06 3.29374e+07 1.52773e+06 1.87138e+07)
(1.29028e+07 -1.83855e+07 1.0918e+06 1.7397e+07 2.06935e+06 8.55242e+06)
(2.09808e+07 -2.02073e+07 961191 2.38178e+07 1.95004e+06 1.30109e+07)
(1.80127e+07 -7.63046e+06 1.79986e+06 1.77643e+07 932548 9.93665e+06)
(1.60786e+07 -8.86808e+06 2.11564e+06 1.50474e+07 1.17224e+06 8.24087e+06)
(3.31388e+07 -3.39391e+06 1.40617e+06 3.2758e+07 1.26371e+06 1.88594e+07)
(2.08902e+07 -2.19361e+07 1.07992e+06 2.29343e+07 2.2454e+06 1.26304e+07)
(-4.18172e+06 -3.99045e+06 1.0295e+06 -4.17929e+06 -624826 -2.92751e+06)
(7.1259e+06 -1.6502e+07 965586 1.05513e+07 1.85579e+06 4.79625e+06)
(3.8685e+06 -1.34214e+07 613531 8.21984e+06 897060 3.35548e+06)
(1.41766e+07 -7.31051e+06 1.68433e+06 1.38371e+07 768646 7.67069e+06)
(2.29735e+06 -3.15647e+06 865882 2.33978e+06 -547585 1.35854e+06)
(1.15807e+07 -8.49212e+06 1.9723e+06 1.05311e+07 980724 5.60092e+06)
(1.88111e+06 -1.53651e+07 676531 5.58394e+06 1.09475e+06 1.88369e+06)
(3.25157e+07 -2.79225e+06 1.13851e+06 3.22291e+07 1.0255e+06 1.89259e+07)
(2.09923e+07 -1.86426e+07 853593 2.44979e+07 1.70988e+06 1.33093e+07)
(1.85296e+07 -7.27024e+06 1.69569e+06 1.8507e+07 859048 1.04272e+07)
(1.48455e+07 -1.38381e+07 771010 2.16537e+07 1.35205e+06 1.0726e+07)
(1.98292e+07 -6.33936e+06 1.41339e+06 2.034e+07 713854 1.17143e+07)
(3.30744e+07 -3.31297e+06 1.36553e+06 3.26943e+07 1.22476e+06 1.88539e+07)
(2.09543e+07 -1.72368e+07 758043 2.50331e+07 1.52805e+06 1.35541e+07)
(3.11206e+07 -1.8861e+06 1.05936e+06 3.09818e+07 1.01752e+06 2.01139e+07)
(1.63685e+07 -8.9473e+06 457759 2.52406e+07 1.84424e+06 1.32661e+07)
(2.04649e+07 -1.1196e+07 551308 2.68529e+07 2.46289e+06 1.53891e+07)
(2.25214e+07 -3.64161e+06 722975 2.41291e+07 1.45288e+06 1.7754e+07)
(2.20127e+07 -4.14133e+06 856637 2.35275e+07 956282 1.5532e+07)
(3.05946e+07 -1.5666e+06 1.35307e+06 3.05192e+07 1.41394e+06 2.22205e+07)
(2.05396e+07 -1.20051e+07 546669 2.66105e+07 1.90244e+06 1.48624e+07)
(1.43245e+07 -1.6978e+06 14750.7 1.45074e+07 151927 1.03852e+07)
(1.37513e+07 -6.93336e+06 327079 2.21186e+07 1.72994e+06 1.15398e+07)
(1.25622e+07 -4.28829e+06 54559.5 1.97052e+07 1.91289e+06 1.08042e+07)
(2.08003e+07 -3.42522e+06 490104 2.22277e+07 1.39074e+06 1.66263e+07)
(1.65282e+07 -1.45743e+06 -507273 1.67218e+07 713623 1.36623e+07)
(2.00166e+07 -3.90612e+06 694306 2.13557e+07 882689 1.42932e+07)
(1.18701e+07 -4.96107e+06 135269 1.87531e+07 1.35808e+06 9.92258e+06)
(2.9926e+07 -1.36882e+06 1.20451e+06 2.97343e+07 1.33504e+06 2.75836e+07)
(2.0387e+07 -1.04524e+07 533305 2.6853e+07 3.33277e+06 1.61535e+07)
(2.27177e+07 -3.50205e+06 670443 2.4268e+07 1.6191e+06 1.87422e+07)
(1.65179e+07 -7.0277e+06 452352 2.47365e+07 4.59474e+06 1.58267e+07)
(2.33371e+07 -3.10812e+06 506086 2.41466e+07 1.45966e+06 2.24034e+07)
(3.05512e+07 -1.53399e+06 1.41118e+06 3.0472e+07 1.46803e+06 2.27332e+07)
(1.98114e+07 -9.65973e+06 638657 2.56186e+07 4.58042e+06 1.71671e+07)
(-3.02946e+08 7.72251e+07 9.75145e+07 -7.12081e+08 -1.87928e+08 -2.12733e+08)
(-1.01046e+09 7.24601e+08 1.17185e+09 -1.31952e+09 -1.28948e+09 -7.22777e+08)
(-7.90785e+08 3.93215e+08 1.03963e+09 -2.97432e+09 -2.47087e+09 -1.76215e+09)
(6.60884e+08 2.32994e+08 7.13769e+08 6.62176e+07 -1.96708e+06 2.73584e+09)
(-6.54339e+08 1.74822e+08 1.88185e+09 -3.5291e+09 -3.17886e+09 -8.52714e+08)
(-1.91948e+09 1.18598e+09 2.08524e+09 -1.73643e+09 -1.82522e+09 -1.20268e+09)
(-9.0785e+10 1.7838e+10 5.35649e+10 -4.71168e+10 -4.30358e+10 -8.26473e+10)
(-1.15551e+09 1.49853e+09 2.58917e+09 -5.24703e+09 -4.26849e+09 -2.37428e+09)
(-1.92071e+07 4.80539e+06 4.64477e+06 -2.39941e+07 -8.05718e+06 -2.25538e+07)
(-4.96412e+07 1.72214e+06 1.07275e+06 -4.6172e+07 -3.37743e+06 -1.07523e+08)
(-5.01088e+07 4.12992e+06 2.12949e+07 -3.37056e+07 -1.6664e+07 -6.5703e+07)
(-3.78602e+07 9.94322e+06 -365516 -6.1858e+07 3.23946e+06 -2.19618e+07)
(-1.05767e+08 7.64949e+06 1.122e+08 -1.19902e+08 -8.08862e+07 -1.91636e+08)
(-1.36356e+08 4.78849e+06 4.32259e+07 -1.15728e+08 -2.27622e+07 -2.84646e+08)
(3.43657e+07 8.083e+07 1.07627e+06 2.05549e+08 -6.23402e+07 1.8465e+08)
(-6.4098e+07 3.48688e+06 3.82256e+07 -4.30367e+07 -2.16643e+07 -7.70483e+07)
(2.82399e+07 4.85098e+07 -1.44708e+06 8.00259e+07 5.19146e+06 9.42019e+07)
(-8.31402e+07 7.8412e+07 -1.34677e+07 -1.76089e+07 1.734e+07 -2.73842e+07)
(-7.33336e+07 2.37007e+07 -6.22383e+07 -263183 -2.60244e+07 -1.57685e+07)
(-6.46573e+07 8.06498e+06 -1.53581e+07 -3.25534e+07 8.48834e+06 -2.15463e+07)
(-1.21664e+08 7.02394e+07 -1.23947e+07 1.35731e+07 2.8391e+07 -2.50599e+07)
(-4.9245e+07 1.32405e+07 -3.15871e+07 -2.90094e+07 2.25217e+07 -3.74918e+06)
(-6.27173e+07 2.76661e+07 -9.39194e+06 -1.77385e+07 9.94514e+06 -1.80191e+07)