/*--------------------------------*- C++ -*----------------------------------*\
| =========                 |                                                 |
| \\      /  F ield         | OpenFOAM: The Open Source CFD Toolbox           |
|  \\    /   O peration     | Version:  2012                                  |
|   \\  /    A nd           | Website:  www.openfoam.com                      |
|    \\/     M anipulation  |                                                 |
\*---------------------------------------------------------------------------*/
FoamFile
{
    version     2.0;
    format      ascii;
    class       surfaceScalarField;
    location    "0.106/fluid";
    object      meshPhi;
}
// * * * * * * * * * * * * * * * * * * * * * * * * * * * * * * * * * * * * * //

dimensions      [0 3 -1 0 0 0 0];
oriented        oriented;


internalField   nonuniform List<scalar> 
47532
(
-1.70119e-07
5.22905e-08
-9.1399e-09
2.41672e-07
-4.56067e-07
1.35857e-07
-1.46255e-08
5.18718e-07
-6.66986e-07
7.04438e-07
2.26915e-07
-1.38337e-08
-7.88018e-07
8.08188e-07
3.49018e-07
-1.07607e-08
-8.50585e-07
8.59419e-07
4.922e-07
-8.0509e-09
-8.72441e-07
8.72857e-07
6.12958e-07
-6.28859e-09
-8.6419e-07
8.5834e-07
6.94338e-07
-5.25902e-09
-8.32151e-07
8.20479e-07
7.28992e-07
-4.63651e-09
-7.7646e-07
7.58786e-07
7.11623e-07
-4.12614e-09
-6.95406e-07
6.70444e-07
6.32874e-07
-3.58895e-09
-5.83891e-07
5.51301e-07
5.02935e-07
-2.95498e-09
-4.39694e-07
3.96956e-07
4.02821e-07
-2.1655e-09
-2.48996e-07
1.92711e-07
2.26864e-07
-1.13982e-09
-6.09475e-08
-4.40032e-07
8.62093e-07
1.088e-07
-5.77491e-08
-2.61486e-06
-3.19268e-07
-1.5313e-07
4.65662e-07
3.25236e-06
-6.40719e-07
-4.95666e-06
-1.71629e-07
5.42474e-06
8.67829e-07
-9.80971e-07
-6.51034e-06
6.78005e-06
1.28239e-06
-1.38877e-07
-1.41707e-06
-7.37286e-06
7.51314e-06
1.80087e-06
-1.0235e-07
-1.94814e-06
-7.7981e-06
7.85468e-06
2.43352e-06
-7.66133e-08
-2.4117e-06
-7.92055e-06
7.9116e-06
2.99131e-06
-6.03114e-08
-2.70932e-06
-7.80068e-06
7.73794e-06
3.34086e-06
-5.00635e-08
-2.79355e-06
-7.47376e-06
7.3606e-06
3.41997e-06
-4.31602e-08
-2.68036e-06
-6.94699e-06
6.78461e-06
3.25834e-06
-3.7558e-08
-2.40594e-06
-6.21572e-06
5.99619e-06
2.92662e-06
-3.21903e-08
-1.98138e-06
-5.2363e-06
4.94423e-06
2.44636e-06
-2.63389e-08
-1.51787e-06
-3.92981e-06
3.54079e-06
1.85864e-06
-1.9175e-08
-8.41674e-07
-2.20887e-06
1.70552e-06
1.0137e-06
-1.01099e-08
-1.87356e-06
-2.99949e-07
3.79144e-07
-3.74448e-07
3.2554e-06
-7.83061e-06
-1.06214e-06
1.27972e-06
-6.1007e-07
9.18615e-06
-1.74108e-06
-1.22551e-05
1.2965e-05
2.06924e-06
-4.98916e-07
-2.35207e-06
-1.43869e-05
1.46938e-05
2.76429e-06
-3.34216e-07
-3.07672e-06
-1.52549e-05
1.53554e-05
3.53874e-06
-2.31409e-07
-3.908e-06
-1.54818e-05
1.54798e-05
4.38794e-06
-1.73866e-07
-4.62935e-06
-1.53471e-05
1.52617e-05
5.11468e-06
-1.36338e-07
-5.04355e-06
-1.48853e-05
1.47222e-05
5.51819e-06
-1.09805e-07
-5.05801e-06
-1.41204e-05
1.38823e-05
5.49865e-06
-9.10186e-08
-4.7358e-06
-1.30518e-05
1.27342e-05
5.11722e-06
-7.66966e-08
-4.26765e-06
-1.16374e-05
1.12181e-05
4.57882e-06
-6.42266e-08
-3.5758e-06
-9.77124e-06
9.21555e-06
3.82326e-06
-5.14244e-08
-2.63135e-06
-7.30178e-06
6.57492e-06
2.80501e-06
-3.69779e-08
-1.40585e-06
-4.09576e-06
3.15937e-06
1.49456e-06
-1.94454e-08
-4.15809e-06
-6.85267e-07
-1.83594e-06
6.48381e-06
-1.35187e-05
-1.84641e-06
-1.36721e-06
1.55073e-05
-2.93895e-06
-1.99546e-05
2.09707e-05
-9.04462e-07
-3.91364e-06
-2.29376e-05
2.33159e-05
-5.9728e-07
-4.79818e-06
-2.3861e-05
2.38924e-05
-4.16231e-07
-5.60379e-06
-2.36965e-05
2.35601e-05
-3.09013e-07
-6.24454e-06
-2.29954e-05
2.27617e-05
-2.3873e-07
-6.5693e-06
-2.19389e-05
2.16275e-05
-1.88159e-07
-6.42329e-06
-2.05912e-05
2.02096e-05
-1.52149e-07
-5.84459e-06
-1.89344e-05
1.84569e-05
-1.25037e-07
-5.13953e-06
-1.68287e-05
1.62075e-05
-1.02612e-07
-4.27637e-06
-1.4063e-05
1.32438e-05
-8.05538e-08
-3.12745e-06
-1.04489e-05
9.39571e-06
-5.67509e-08
-1.64831e-06
-5.82443e-06
4.48623e-06
-2.92351e-08
1.66332e-08
-1.0665e-07
1.74654e-07
3.14835e-08
-2.31444e-08
-3.97513e-07
4.93457e-08
1.0407e-07
-6.72421e-08
4.68925e-07
6.4096e-08
-6.55207e-07
1.70966e-07
7.04558e-07
-8.30334e-08
5.78408e-08
-8.11154e-07
8.35174e-07
2.47689e-07
-7.34549e-08
4.43892e-08
-8.84714e-07
8.95973e-07
3.71813e-07
-5.60177e-08
3.31462e-08
-9.17367e-07
9.20671e-07
5.20475e-07
-4.17903e-08
2.57069e-08
-9.20081e-07
9.16794e-07
6.41328e-07
-3.22987e-08
2.11704e-08
-8.99523e-07
8.91555e-07
7.1798e-07
-2.64512e-08
1.8372e-08
-8.60515e-07
8.47407e-07
7.48037e-07
-2.28219e-08
1.61504e-08
-7.98914e-07
7.79713e-07
7.18945e-07
-1.9964e-08
1.39336e-08
-7.12752e-07
6.86915e-07
6.38803e-07
-1.71582e-08
1.14608e-08
-5.97962e-07
5.64494e-07
5.25713e-07
-1.40778e-08
8.43005e-09
-4.50068e-07
4.0651e-07
3.99235e-07
-1.03632e-08
4.46256e-09
-2.55659e-07
1.98094e-07
2.26183e-07
-5.49552e-09
8.09642e-08
-9.1364e-08
1.64411e-06
2.09849e-07
-1.20534e-07
4.17603e-07
-2.59681e-07
-2.75511e-06
3.31136e-06
4.22027e-07
-5.82489e-07
7.16956e-07
-5.37992e-07
-5.11665e-06
7.55188e-07
-9.48664e-07
5.67166e-06
7.38182e-07
-7.70863e-07
-6.97946e-06
7.28969e-06
1.02925e-06
-9.47599e-07
5.86728e-07
-1.06542e-06
-7.91086e-06
8.04216e-06
1.39219e-06
-7.46624e-07
4.27269e-07
-1.51151e-06
-8.28665e-06
8.33615e-06
1.9191e-06
-5.4136e-07
3.16055e-07
-2.04741e-06
-8.41079e-06
8.41392e-06
2.54621e-06
-3.98604e-07
2.45544e-07
-2.49881e-06
-8.35341e-06
8.31169e-06
3.08249e-06
-3.07993e-07
2.00881e-07
-2.77875e-06
-8.12489e-06
8.04287e-06
3.41368e-06
-2.50734e-07
1.71289e-07
-2.85523e-06
-7.73172e-06
7.6049e-06
3.49085e-06
-2.12954e-07
1.4784e-07
-2.71315e-06
-7.15005e-06
6.97326e-06
3.30446e-06
-1.83268e-07
1.26078e-07
-2.40912e-06
-6.36462e-06
6.13344e-06
2.92866e-06
-1.55758e-07
1.0348e-07
-1.9987e-06
-5.34578e-06
5.04501e-06
2.43543e-06
-1.27599e-07
7.58261e-08
-1.51645e-06
-4.0097e-06
3.61594e-06
1.84009e-06
-9.34215e-08
3.99647e-08
-8.4486e-07
-2.26469e-06
1.75191e-06
1.01447e-06
-4.91818e-08
6.85224e-07
-9.63786e-07
1.01413e-05
1.36423e-06
-1.06793e-06
-1.19317e-05
2.56917e-06
-1.24443e-06
1.60854e-06
-3.62193e-06
1.27914e-05
2.74663e-06
-1.70535e-06
-1.52395e-05
2.06236e-06
1.58846e-05
-3.55585e-06
2.11534e-06
-2.10934e-06
-1.71352e-05
1.7337e-05
2.53202e-06
-2.67271e-06
1.42988e-06
-2.60036e-06
-1.74859e-05
1.74395e-05
3.06564e-06
-1.80901e-06
9.66507e-07
-3.28337e-06
-1.71467e-05
1.70322e-05
3.77348e-06
-1.21998e-06
7.02834e-07
-4.04628e-06
-1.6681e-05
1.65641e-05
4.53576e-06
-8.79272e-07
5.42023e-07
-4.71415e-06
-1.61748e-05
1.60277e-05
5.20114e-06
-6.73881e-07
4.33758e-07
-5.11487e-06
-1.55112e-05
1.53123e-05
5.58872e-06
-5.38062e-07
3.58585e-07
-5.14692e-06
-1.46214e-05
1.43576e-05
5.58588e-06
-4.44603e-07
3.01524e-07
-4.81153e-06
-1.34537e-05
1.31117e-05
5.19875e-06
-3.73645e-07
2.51996e-07
-4.23758e-06
-1.19448e-05
1.15043e-05
4.56811e-06
-3.11814e-07
2.02582e-07
-3.50455e-06
-1.00002e-05
9.41366e-06
3.76298e-06
-2.50269e-07
1.45829e-07
-2.58293e-06
-7.43891e-06
6.70536e-06
2.76076e-06
-1.79497e-07
7.62981e-08
-1.39528e-06
-4.17907e-06
3.22596e-06
1.48153e-06
-9.36989e-08
4.88803e-07
-5.28906e-07
3.96818e-06
5.45992e-07
-5.42159e-07
-1.96197e-05
7.96132e-06
-2.42951e-06
2.52115e-06
-9.65669e-06
2.06758e-05
-2.38283e-05
5.4075e-06
-2.75688e-06
-6.60646e-06
2.46663e-05
3.55109e-06
-3.46613e-06
-2.63256e-05
2.66115e-05
-4.34451e-06
2.35812e-06
-4.24264e-06
-2.68521e-05
2.67816e-05
-2.89754e-06
1.63379e-06
-5.03007e-06
-2.6289e-05
2.60635e-05
-2.01148e-06
1.20238e-06
-5.75607e-06
-2.52959e-05
2.50217e-05
-1.47903e-06
9.25301e-07
-6.34279e-06
-2.41444e-05
2.38311e-05
-1.13732e-06
7.30466e-07
-6.62598e-06
-2.28253e-05
2.24664e-05
-8.9895e-07
5.91682e-07
-6.48706e-06
-2.13063e-05
2.08865e-05
-7.29311e-07
4.86718e-07
-5.9484e-06
-1.95027e-05
1.8991e-05
-6.00252e-07
3.98287e-07
-5.19529e-06
-1.72661e-05
1.66143e-05
-4.9051e-07
3.12713e-07
-4.26614e-06
-1.43796e-05
1.35292e-05
-3.84489e-07
2.20424e-07
-3.10596e-06
-1.06482e-05
9.56912e-06
-2.70574e-07
1.12991e-07
-1.63809e-06
-5.92152e-06
4.55839e-06
-1.3852e-07
-2.54352e-07
4.01706e-08
7.6758e-08
-4.43361e-08
4.02547e-07
-8.20161e-07
1.1755e-07
2.08921e-07
-1.29738e-07
9.24689e-07
1.40606e-07
-1.10787e-06
1.13279e-06
2.4866e-07
-1.56072e-07
1.19164e-07
-1.14144e-06
1.13075e-06
2.69681e-07
-1.32274e-07
8.92928e-08
-1.09783e-06
1.09122e-06
3.89039e-07
-9.89116e-08
6.67224e-08
-1.07095e-06
1.06211e-06
5.47741e-07
-7.41097e-08
5.11839e-08
-1.03039e-06
1.01889e-06
6.6634e-07
-5.68153e-08
4.14268e-08
-9.82756e-07
9.69922e-07
7.39203e-07
-4.58667e-08
3.52647e-08
-9.27012e-07
9.10655e-07
7.61929e-07
-3.89301e-08
3.04931e-08
-8.53442e-07
8.31224e-07
7.25638e-07
-3.35991e-08
2.57826e-08
-7.53637e-07
7.2409e-07
6.3851e-07
-2.82638e-08
2.08583e-08
-6.26725e-07
5.91072e-07
5.26047e-07
-2.27087e-08
1.53098e-08
-4.70851e-07
4.25448e-07
3.93517e-07
-1.66289e-08
8.17833e-09
-2.68424e-07
2.08177e-07
2.16515e-07
-8.90344e-09
-3.01183e-07
2.26097e-07
4.95015e-06
-2.53349e-07
6.74501e-07
-6.3566e-07
-7.15122e-06
1.00677e-06
-1.10395e-06
8.10443e-06
1.02676e-06
1.60026e-06
-1.0039e-06
-1.0492e-05
-1.75474e-06
1.10013e-05
1.36538e-06
1.56165e-06
-1.07715e-06
-1.16336e-05
1.1608e-05
1.40735e-06
-1.72225e-06
1.20999e-06
-1.20487e-06
-1.11789e-05
1.09897e-05
1.59987e-06
-1.34209e-06
8.71376e-07
-1.63659e-06
-1.04352e-05
1.02784e-05
2.10297e-06
-9.68618e-07
6.36569e-07
-2.16237e-06
-9.87083e-06
9.74906e-06
2.69697e-06
-7.07877e-07
4.86208e-07
-2.58578e-06
-9.39229e-06
9.27412e-06
3.18609e-06
-5.39721e-07
3.91513e-07
-2.84454e-06
-8.90826e-06
8.7804e-06
3.48713e-06
-4.33376e-07
3.2991e-07
-2.91348e-06
-8.36227e-06
8.20729e-06
3.56164e-06
-3.64583e-07
2.82293e-07
-2.75945e-06
-7.67467e-06
7.47072e-06
3.36418e-06
-3.11939e-07
2.35863e-07
-2.40645e-06
-6.75019e-06
6.47482e-06
2.92046e-06
-2.5881e-07
1.88944e-07
-1.97227e-06
-5.5851e-06
5.26179e-06
2.38783e-06
-2.04963e-07
1.37283e-07
-1.47236e-06
-4.17194e-06
3.76161e-06
1.77406e-06
-1.48679e-07
7.25393e-08
-8.05329e-07
-2.35966e-06
1.82611e-06
9.64979e-07
-7.85984e-08
1.92875e-06
-3.15815e-06
3.45892e-05
4.05185e-06
-2.08812e-06
-3.37844e-05
6.05465e-06
-3.10282e-06
3.79519e-06
-6.49221e-06
3.32237e-05
5.56626e-06
-2.9608e-06
-3.09051e-05
3.00286e-05
3.48304e-06
-5.98603e-06
4.09248e-06
-2.85494e-06
-2.74025e-05
2.65637e-05
3.35357e-06
-4.42716e-06
2.81605e-06
-3.13772e-06
-2.42108e-05
2.3491e-05
3.63437e-06
-3.07927e-06
1.92803e-06
-3.67002e-06
-2.15692e-05
2.10238e-05
4.17324e-06
-2.12685e-06
1.37783e-06
-4.29934e-06
-1.96446e-05
1.92622e-05
4.7997e-06
-1.52346e-06
1.04181e-06
-4.86049e-06
-1.82554e-05
1.79503e-05
5.35591e-06
-1.15012e-06
8.26943e-07
-5.2035e-06
-1.70661e-05
1.67733e-05
5.67904e-06
-9.11553e-07
6.8327e-07
-5.23706e-06
-1.58656e-05
1.55437e-05
5.67159e-06
-7.53222e-07
5.73777e-07
-4.89626e-06
-1.44823e-05
1.40929e-05
5.28362e-06
-6.33358e-07
4.73638e-07
-4.23302e-06
-1.27342e-05
1.22217e-05
4.5794e-06
-5.20416e-07
3.7507e-07
-3.45182e-06
-1.0547e-05
9.90765e-06
3.72601e-06
-4.08521e-07
2.65251e-07
-2.50859e-06
-7.77358e-06
6.98843e-06
2.69745e-06
-2.88441e-07
1.37371e-07
-1.33876e-06
-4.33263e-06
3.34152e-06
1.4295e-06
-1.48754e-07
8.05545e-07
-1.30612e-06
1.18575e-05
1.35283e-06
-8.32621e-07
-4.87894e-05
1.31813e-05
-4.90165e-06
4.99547e-06
-1.3869e-05
4.79532e-05
-4.42586e-05
9.30774e-06
-4.36757e-06
4.44748e-06
-9.86459e-06
4.28875e-05
6.20671e-06
-4.28251e-06
-3.90252e-05
3.78692e-05
4.37887e-06
-6.62708e-06
4.2177e-06
-4.67102e-06
-3.48022e-05
3.3898e-05
-4.54146e-06
2.97667e-06
-5.3216e-06
-3.14982e-05
3.07923e-05
-3.22855e-06
2.2011e-06
-5.97809e-06
-2.89062e-05
2.83423e-05
-2.39645e-06
1.69411e-06
-6.48078e-06
-2.67796e-05
2.62888e-05
-1.84633e-06
1.3462e-06
-6.6852e-06
-2.48714e-05
2.44066e-05
-1.47032e-06
1.09935e-06
-6.52237e-06
-2.29726e-05
2.24698e-05
-1.20348e-06
9.06434e-07
-6.00799e-06
-2.086e-05
2.0276e-05
-9.92579e-07
7.38201e-07
-5.22676e-06
-1.83312e-05
1.76032e-05
-8.07169e-07
5.74793e-07
-4.24314e-06
-1.51517e-05
1.42339e-05
-6.27534e-07
4.02489e-07
-3.0604e-06
-1.11542e-05
1.00102e-05
-4.39353e-07
2.05492e-07
-1.60128e-06
-6.17139e-06
4.74714e-06
-2.24197e-07
5.0047e-08
6.34088e-09
-3.66013e-09
-2.77801e-08
-1.80871e-09
7.34723e-08
-8.48755e-09
5.1589e-09
1.12194e-08
-9.06605e-09
-3.11344e-09
-1.14862e-08
-2.47982e-09
5.48904e-08
-3.33046e-08
1.87175e-08
4.27389e-07
-2.95015e-09
-3.54003e-09
-2.59652e-09
-3.99542e-09
1.08515e-06
1.35144e-07
-1.70496e-07
1.04907e-07
-7.03477e-08
-7.91031e-07
-1.05894e-07
3.44053e-08
-6.91642e-09
-2.83309e-08
4.81236e-07
-2.89182e-08
-2.92528e-08
-5.90529e-08
-3.59711e-08
2.43119e-07
1.73957e-06
-1.49015e-07
-1.26601e-06
-8.2991e-08
1.03454e-08
1.2309e-07
2.21733e-08
-4.22646e-08
3.10674e-07
2.77152e-08
-2.43706e-07
6.6644e-08
1.85767e-07
-2.36233e-07
1.48869e-07
-1.06281e-07
1.45222e-06
3.82269e-07
-4.2542e-07
2.81329e-06
2.90932e-07
-2.48257e-07
-2.33796e-06
5.11656e-08
-3.26697e-08
-3.40075e-09
-7.54062e-09
-4.37513e-09
-2.52246e-08
-3.43907e-08
-4.89398e-08
-3.63918e-08
1.49718e-07
1.45267e-06
-1.12486e-07
-1.5403e-07
-1.31693e-07
-1.13937e-07
-1.53034e-07
-9.83875e-08
4.37749e-08
9.58929e-07
1.21449e-07
1.85119e-06
-3.21939e-07
1.96182e-07
-1.45194e-06
2.33378e-07
5.17216e-07
-4.31129e-07
2.20105e-07
-3.47636e-07
3.88142e-06
7.3597e-07
5.81425e-06
-1.46092e-06
8.72533e-07
-5.32468e-07
-4.95111e-06
1.92863e-07
-2.41781e-07
-1.99833e-07
-1.29669e-07
-1.74342e-07
-1.48053e-07
3.99736e-07
3.54802e-06
-3.1127e-07
-1.09145e-06
-3.13469e-07
-4.33463e-07
-3.75893e-07
-2.73509e-07
3.55216e-07
5.43408e-06
7.42043e-07
-2.26908e-06
7.68649e-06
1.36391e-06
-6.68722e-06
9.83146e-07
4.27079e-07
-2.30249e-06
1.61126e-06
-1.33506e-06
1.1014e-05
3.30831e-07
4.37412e-07
3.43139e-07
1.78006e-06
-6.7824e-06
1.33332e-05
4.85466e-06
-1.5621e-06
-1.22821e-05
-1.80174e-06
-5.62631e-07
-3.60714e-07
-4.98639e-07
-4.15751e-07
4.33489e-07
3.19661e-06
4.4245e-07
-8.47667e-06
1.40219e-05
6.42159e-06
-1.28095e-05
1.63446e-08
-1.19271e-08
-1.64775e-08
-3.75236e-09
-1.38214e-08
-4.44957e-09
7.05488e-07
-4.86703e-08
-6.34992e-09
-4.49572e-09
-5.05113e-09
-5.6992e-09
1.60004e-06
1.97892e-07
-1.02521e-07
-1.21473e-06
-2.38575e-07
-2.09166e-08
2.16551e-07
1.82726e-08
3.56478e-08
-3.03607e-08
-9.03484e-09
-3.34058e-08
-8.22905e-09
-9.09497e-08
2.42472e-07
7.79713e-08
1.6953e-06
-1.5027e-08
-1.58077e-08
-1.36507e-08
-1.73499e-08
-4.15574e-07
3.40894e-06
4.37766e-07
3.63922e-07
-2.26423e-07
-2.69868e-06
-2.43679e-06
-1.86878e-05
2.54876e-06
-1.0222e-05
-1.21794e-06
7.80081e-07
1.07415e-05
1.26266e-06
-1.37973e-05
-4.47314e-06
4.07805e-05
1.28647e-05
-4.09048e-05
4.62308e-06
4.25404e-08
-2.31218e-08
-3.92262e-08
-9.8101e-09
-3.62049e-08
-1.06082e-08
2.04064e-06
-1.02406e-07
-2.18329e-08
-1.78478e-08
-1.95147e-08
-2.00481e-08
4.03306e-06
5.23266e-07
-2.70769e-07
-3.21182e-06
-4.57826e-07
-5.10962e-06
-4.93749e-05
5.25726e-06
-1.44927e-05
3.78926e-09
3.37636e-10
-3.91283e-10
-1.93726e-09
1.62596e-10
-1.03086e-10
-5.98576e-12
-8.34689e-12
1.45036e-10
5.5714e-12
1.5479e-11
1.19582e-11
-8.16212e-13
-9.22977e-13
6.06936e-13
-4.84222e-12
1.02347e-08
-1.28538e-08
3.50714e-08
2.69357e-07
-2.76278e-08
-1.71099e-08
-4.35979e-08
-3.03286e-08
-2.63812e-08
4.14273e-09
7.70213e-10
-9.00622e-11
-8.10227e-10
-2.21131e-10
-7.38505e-10
-2.4495e-10
-7.07634e-10
9.67449e-10
-2.5892e-10
7.29627e-09
-7.6126e-11
-2.91866e-11
-4.09788e-11
-6.0138e-11
-2.56965e-10
-7.61252e-10
-3.30256e-10
-2.00366e-09
-3.88682e-10
2.23529e-10
5.66383e-10
2.99783e-09
-2.12639e-08
3.84001e-09
-3.83138e-09
2.87514e-08
2.08392e-09
-2.25489e-09
2.44095e-08
-1.10873e-08
-1.78303e-08
-2.19396e-08
-8.22923e-09
1.95859e-07
-1.21386e-09
-1.89569e-09
-2.23136e-09
-9.23159e-10
7.4392e-08
6.83139e-10
2.46873e-10
9.39466e-10
1.78914e-10
-7.90126e-09
-9.10652e-09
-4.37744e-09
-1.47705e-08
-2.62292e-09
-2.23088e-08
3.65917e-08
3.31215e-07
1.10506e-09
3.20801e-09
2.39189e-09
1.46462e-09
-5.91068e-08
-1.86918e-08
-6.5705e-08
-2.34465e-08
-5.17878e-08
-2.59312e-11
3.75541e-10
-1.7678e-11
2.97975e-11
-1.8679e-11
-3.65641e-12
-1.64508e-11
-4.14855e-12
-1.84827e-09
-1.93124e-09
9.19521e-10
2.30855e-08
2.53372e-09
-1.15221e-08
2.00471e-07
8.27106e-10
1.26005e-09
5.85041e-10
1.82629e-09
-3.27719e-08
-1.43873e-08
-2.93902e-08
-1.06421e-08
-4.02308e-08
6.59188e-09
-4.85853e-09
5.18969e-08
2.22012e-09
-4.71599e-09
8.96624e-11
1.01644e-09
-5.07613e-11
-7.14703e-11
-4.40125e-11
-1.04388e-11
-4.67121e-11
-9.88192e-12
-1.09248e-07
1.54037e-07
1.2693e-06
9.06529e-09
2.51384e-08
1.8115e-08
1.25953e-08
-4.65462e-07
-8.06692e-08
-2.69502e-07
-9.56309e-08
-2.25918e-07
-1.77023e-10
2.09607e-09
-1.44418e-10
1.70479e-10
-9.86258e-11
-2.12704e-11
-9.40107e-11
-2.23319e-11
-1.52255e-08
-1.57538e-08
7.28255e-09
1.3073e-07
1.68833e-08
-7.81831e-08
9.40984e-07
6.87225e-09
1.06537e-08
5.17223e-09
1.41858e-08
-2.6828e-07
-6.83392e-08
-1.62839e-07
-5.81085e-08
-1.9299e-07
3.20806e-08
-3.46577e-08
2.19312e-07
1.59841e-08
-2.43212e-08
3.12495e-10
3.35852e-09
-3.53049e-10
-2.58707e-10
-1.50453e-10
-3.63674e-11
-1.5693e-10
-3.4916e-11
-6.37236e-10
6.94963e-09
-2.06934e-09
6.4491e-10
-3.49534e-10
-8.46011e-11
-3.24471e-10
-9.22774e-11
-7.92463e-08
-2.09945e-07
1.18647e-07
6.84431e-07
9.76937e-08
-1.18483e-07
8.87029e-07
-7.77411e-07
1.35541e-07
4.72333e-07
-8.14917e-07
-1.56138e-06
-1.13061e-05
-1.50176e-06
-1.84851e-06
6.01377e-06
1.54463e-05
-6.00126e-06
-2.24974e-06
1.99216e-05
4.5517e-06
-1.85034e-05
-3.06043e-09
3.4266e-08
3.49696e-09
2.46284e-09
-1.69351e-08
-1.18049e-09
3.48877e-12
4.61816e-11
-1.64041e-11
4.50747e-12
-3.67415e-12
3.2035e-11
3.54973e-11
3.29601e-12
6.77239e-10
-3.20638e-11
1.67281e-09
2.08823e-08
2.01551e-09
-1.83438e-09
-6.80731e-10
-1.01987e-08
-6.27751e-11
9.92034e-11
1.26375e-09
5.29463e-11
-1.17708e-11
-6.77517e-12
7.91366e-11
9.77357e-12
5.95783e-12
-2.79985e-11
-1.14302e-06
-1.11654e-05
1.52046e-06
-3.29666e-06
5.3824e-07
6.3037e-07
6.36994e-07
-2.13789e-06
1.74115e-05
-2.85811e-06
1.89995e-05
-2.22388e-06
-1.83036e-05
-8.41288e-06
-2.66332e-06
1.71607e-06
2.85817e-05
3.46138e-06
-5.61078e-06
-2.65872e-06
2.83526e-05
5.04327e-06
-2.84987e-05
3.33531e-06
-3.96827e-06
1.12849e-06
1.21566e-06
1.12775e-06
3.67553e-06
4.02719e-05
-4.44008e-06
-1.16576e-05
3.95961e-05
1.08188e-05
-3.9961e-05
-4.22001e-06
1.71346e-06
4.12304e-06
-5.57274e-07
-4.0607e-06
5.55042e-07
-1.88998e-06
-6.75392e-07
-8.35307e-07
6.35669e-07
6.60477e-06
8.65085e-07
6.72979e-06
-2.33851e-06
-8.38367e-07
8.39672e-07
2.1992e-06
-6.67684e-06
-2.62653e-06
-2.28557e-05
2.7229e-06
-7.3292e-06
-4.30016e-06
1.22578e-05
4.40035e-06
4.05053e-05
-1.02709e-05
-3.99083e-06
3.87544e-05
9.48043e-06
-3.94552e-05
4.07826e-06
-5.13832e-09
7.34125e-08
8.93019e-09
4.46312e-09
-3.71304e-08
-3.10025e-09
9.50327e-12
1.27027e-10
-4.52571e-11
1.87469e-11
-9.20665e-12
9.25915e-11
2.65688e-10
-5.75097e-11
2.13128e-09
-8.66914e-11
4.25377e-09
5.84244e-08
6.89179e-09
-4.07005e-09
-2.39777e-09
-2.93679e-08
-1.22543e-10
4.14076e-10
2.90425e-09
1.06426e-10
-9.88088e-11
-1.15294e-11
1.65261e-10
2.52356e-11
1.05692e-11
-5.91877e-11
-3.1185e-06
-3.41862e-05
3.8771e-06
-6.01481e-06
1.30394e-06
1.38774e-06
1.38456e-06
4.88108e-05
-4.19632e-06
-5.11626e-06
4.72032e-05
-4.79998e-05
-1.22804e-05
-4.83964e-06
2.75074e-06
1.18934e-05
-1.29682e-06
-1.18837e-05
1.28135e-06
-2.81617e-06
-8.856e-07
-1.53944e-06
8.73261e-07
1.53181e-05
1.59617e-06
1.53019e-05
-2.98351e-06
-1.51868e-06
1.49959e-06
2.93153e-06
-1.53151e-05
-4.46184e-06
-4.56055e-05
4.54486e-06
-1.08661e-05
5.91913e-10
-6.65257e-10
5.52407e-09
3.22016e-10
-2.53253e-10
9.03376e-11
-3.69299e-11
-1.45215e-11
-2.71691e-10
-2.70742e-10
1.46426e-10
3.51356e-10
-1.1866e-09
2.64268e-09
-2.91792e-09
-1.33268e-08
1.52176e-09
-1.47357e-09
-3.36205e-11
-4.61627e-11
-8.43796e-12
-3.19206e-11
3.96279e-11
1.34479e-11
4.12395e-10
7.03281e-09
-8.03326e-10
-4.27468e-09
6.34697e-10
3.76679e-10
2.92456e-10
-1.38348e-11
-1.68133e-11
-1.21866e-11
-3.13692e-12
-1.42779e-11
-2.68952e-12
-1.32876e-09
6.25569e-10
-1.02886e-09
1.60797e-08
-1.74751e-10
6.13036e-12
8.6527e-12
8.4294e-12
2.43131e-09
8.25516e-11
2.02749e-10
9.59124e-08
-1.50429e-08
2.24776e-10
8.47391e-10
3.93677e-10
4.1645e-10
-3.12005e-10
-1.34789e-09
-4.8488e-10
-8.90838e-10
-4.52736e-09
-2.0627e-08
-7.32353e-09
-1.27929e-08
-1.28116e-09
9.56581e-09
1.0038e-09
6.36208e-10
6.96866e-09
7.64317e-10
-1.92947e-10
-4.76531e-10
-2.10132e-10
-2.66734e-10
-3.95928e-10
-9.80538e-11
-3.43688e-11
-4.30789e-11
6.8389e-10
-5.30192e-10
-2.02559e-10
-3.70559e-10
6.56454e-09
-4.14788e-10
-3.00741e-11
-4.70165e-11
-8.27229e-11
-6.22817e-11
-1.78689e-07
3.48009e-07
4.5105e-08
1.79988e-09
4.59188e-09
2.78632e-09
3.22539e-09
-4.9768e-08
-2.17938e-09
-6.23304e-09
-4.09022e-09
-3.95941e-09
3.28118e-08
-4.43234e-09
-2.14473e-08
2.36984e-09
3.8078e-09
2.28235e-08
1.17585e-09
1.36086e-09
6.82211e-10
2.21064e-09
-2.93578e-08
-1.22729e-09
-1.86791e-09
-7.50769e-10
-2.86251e-09
6.49325e-09
5.88868e-10
-3.18543e-09
-6.02887e-10
-1.92344e-10
4.17183e-11
-1.48408e-11
3.81211e-12
2.83837e-12
2.91648e-11
4.86223e-12
2.50651e-11
6.03158e-10
-2.78372e-12
1.8742e-10
1.42004e-11
-8.86914e-12
1.70627e-08
1.63281e-09
1.19811e-09
-5.4282e-10
-8.24716e-09
1.55247e-11
-4.29465e-13
-6.08306e-12
-9.83255e-13
5.48692e-08
4.92731e-07
2.43943e-09
4.03093e-09
1.88144e-09
5.26491e-09
-9.89249e-08
-3.48185e-08
-8.02992e-08
-2.88467e-08
-9.78986e-08
1.95539e-09
-1.27395e-10
-1.46028e-10
-8.63297e-11
-2.03485e-11
-9.02188e-11
-1.95427e-11
-1.2645e-08
5.75061e-09
-1.1625e-08
1.10953e-07
-6.14336e-09
6.36643e-08
2.84374e-09
7.68433e-09
6.91457e-07
3.1047e-09
8.53383e-09
4.03295e-09
6.54166e-09
-1.61814e-07
-4.16398e-08
-1.38902e-07
-4.92657e-08
-1.1637e-07
1.11761e-09
-5.77752e-11
8.87022e-11
-5.25279e-11
-1.10835e-11
-4.945e-11
-1.17713e-11
2.26435e-07
1.73195e-06
2.60685e-08
3.3326e-08
1.74004e-08
4.95637e-08
-8.69536e-07
-1.40165e-07
-3.19389e-07
-1.14699e-07
-3.90509e-07
6.2756e-09
-1.58251e-09
-5.0549e-10
-2.87438e-10
-7.81026e-11
-3.06052e-10
-7.28054e-11
-1.40085e-07
7.19651e-08
-5.71435e-08
5.24498e-07
-4.56331e-08
2.62386e-07
2.16924e-08
3.60754e-08
2.29987e-06
3.88931e-08
1.15578e-07
6.66612e-08
6.98408e-08
-1.73938e-06
-1.75648e-07
-5.93105e-07
-2.31739e-07
-4.77493e-07
5.72301e-08
1.01725e-07
4.38048e-08
3.59002e-09
-4.13824e-10
3.01136e-10
-1.71068e-10
-3.80513e-11
-1.63152e-10
-4.00213e-11
-1.58456e-08
-1.28984e-08
-7.95682e-09
-1.49325e-08
1.90585e-07
-8.72834e-08
2.01031e-08
-4.16527e-06
-4.10377e-06
-6.87217e-07
5.99768e-06
-4.10231e-06
-4.85119e-07
1.38031e-07
1.86351e-07
1.19945e-07
1.98119e-07
4.62421e-07
2.56118e-07
4.16935e-07
3.18753e-07
-9.77074e-07
-4.55516e-07
-5.52605e-07
-1.53989e-07
-3.00402e-07
1.22125e-06
1.70532e-07
3.36493e-06
-4.57044e-07
-3.29649e-06
1.51778e-06
4.61023e-07
1.41307e-06
-1.97224e-07
2.09199e-07
-1.34632e-06
-1.05743e-06
-7.89576e-06
-1.17505e-06
9.39855e-06
6.47654e-06
-8.48391e-06
4.2954e-07
5.26336e-07
4.31779e-07
5.13035e-07
-1.74497e-06
-2.6535e-06
-3.3396e-06
-2.65121e-06
3.43448e-07
2.60585e-07
2.70195e-07
3.41992e-07
-1.05864e-06
-1.47232e-06
-2.0054e-06
-2.03002e-06
3.87558e-08
4.07538e-09
-1.92599e-08
-3.05702e-09
-1.39478e-09
1.21375e-10
-4.31758e-11
1.76572e-11
8.61205e-12
2.43432e-10
-5.07121e-11
7.99685e-11
2.03086e-09
1.13054e-10
1.35375e-09
-1.57054e-11
-5.99354e-11
5.36896e-08
6.21959e-09
3.59353e-09
-2.14001e-09
-2.68533e-08
8.445e-11
1.0724e-11
-2.99303e-11
-6.73122e-12
-1.01592e-05
6.98042e-07
6.26871e-07
7.2894e-07
6.08453e-07
-2.47885e-06
-4.09198e-06
-4.94392e-06
-4.90566e-06
-1.15499e-05
-4.98495e-06
-4.20638e-06
1.97687e-05
-2.54145e-05
3.24159e-06
-1.16779e-05
2.60397e-05
-3.11663e-06
-1.15534e-05
7.98151e-07
9.38049e-07
8.34236e-07
8.89498e-07
-3.22985e-06
-6.69873e-06
-5.80803e-06
-5.77602e-06
-1.31046e-05
-5.84919e-06
-6.73595e-06
2.6226e-05
-9.36714e-07
-7.14716e-07
7.58097e-06
9.69453e-07
1.08039e-05
-1.2039e-06
-1.07787e-05
2.65857e-06
1.19856e-06
7.68623e-06
-9.40715e-07
9.34758e-07
-7.64404e-06
-2.45434e-06
-3.28661e-05
3.94199e-06
-3.80211e-06
3.31436e-05
1.26889e-05
-1.35792e-05
1.1769e-06
1.33939e-06
1.2449e-06
1.26032e-06
-4.70072e-06
-9.72683e-06
-1.08214e-05
-9.73508e-06
1.4379e-05
-1.53797e-05
-9.72182e-06
-1.07664e-05
4.1238e-05
1.07968e-06
1.04303e-06
9.90014e-07
1.14449e-06
-3.9775e-06
-7.66898e-06
-8.69408e-06
-8.68268e-06
-8.67491e-06
-7.70049e-06
3.34381e-05
7.80575e-08
9.44285e-09
-3.98685e-08
-4.81574e-09
-3.30913e-09
4.32161e-10
3.03458e-09
-1.04236e-10
-1.14728e-10
1.71952e-10
2.62449e-11
-6.18761e-11
-1.11228e-11
-1.42474e-05
1.42402e-06
1.43105e-06
1.517e-06
1.34915e-06
-5.38175e-06
-1.19351e-05
-1.30193e-05
-1.30728e-05
-1.61242e-05
-1.29653e-05
-1.18727e-05
4.94594e-05
-5.81133e-05
5.83586e-06
-1.49671e-05
5.69852e-05
-5.69156e-06
-1.47095e-05
1.50588e-06
1.68038e-06
1.60126e-06
1.57433e-06
-6.0059e-06
-1.54013e-05
-1.41464e-05
-1.42293e-05
-1.66354e-05
-1.41129e-05
-1.52373e-05
5.79234e-05
-1.60978e-06
-8.99443e-07
1.64972e-05
1.66905e-06
1.64454e-05
-1.59578e-06
1.56624e-06
-1.64792e-05
-3.00719e-06
-6.69176e-05
6.36181e-06
-6.20739e-06
6.5119e-05
1.71388e-06
1.75831e-06
1.65062e-06
1.83177e-06
-6.56652e-06
-1.65825e-05
-1.76053e-05
-1.77689e-05
-1.75391e-05
-1.64082e-05
6.63918e-05
1.40198e-10
-2.42044e-10
6.07271e-10
5.61919e-09
-4.64131e-10
-2.46451e-10
-6.96257e-10
-3.92858e-10
-4.49346e-10
4.71833e-12
-1.81372e-12
8.57866e-13
-4.36344e-13
4.2335e-14
-2.72038e-13
-1.75156e-14
9.40756e-13
-2.93743e-11
-6.69332e-12
3.14641e-12
8.31143e-12
4.69463e-11
-2.16384e-10
4.78858e-11
-4.87361e-11
3.73247e-10
1.83385e-11
-2.77799e-11
3.73209e-10
3.76708e-09
-1.62873e-11
-3.49147e-11
-4.14763e-11
-1.01689e-11
-1.35538e-10
-1.69822e-10
-2.36124e-10
-8.28873e-11
1.49882e-09
1.12195e-11
2.39545e-12
1.19834e-11
2.90425e-12
-1.31794e-10
-1.35125e-10
-7.71392e-11
-2.6311e-10
-3.55386e-11
1.12459e-09
1.18494e-10
-1.52154e-10
-8.80682e-11
-7.92663e-10
5.69241e-11
-2.91654e-11
-4.29143e-11
1.98459e-11
3.51647e-10
3.26403e-11
-5.86221e-11
7.42192e-10
-9.68192e-11
6.72327e-11
3.60439e-11
-5.05053e-10
6.31827e-11
-6.81547e-11
5.55986e-10
3.00094e-11
-4.76546e-11
-1.98264e-06
-1.34818e-07
3.6615e-07
-2.2883e-07
-2.47513e-07
2.5623e-06
8.6994e-07
6.36843e-06
-6.87229e-07
-5.11452e-06
-4.35839e-07
2.63968e-07
2.34393e-06
3.01399e-07
4.1138e-06
-6.65335e-07
4.60504e-07
-3.50715e-06
5.54777e-07
8.64068e-07
-1.71531e-06
1.08374e-06
-6.4222e-07
6.81954e-06
1.31123e-06
9.89921e-06
-2.07565e-06
1.45814e-06
-1.02719e-06
-8.92434e-06
5.13972e-09
6.33602e-10
-1.20273e-09
-5.18649e-10
-3.67302e-09
4.28718e-10
-2.61657e-10
-3.10132e-10
1.28364e-10
2.04904e-09
2.58717e-10
-4.46525e-10
4.1223e-09
-8.30393e-10
4.50485e-10
2.93022e-10
-2.87732e-09
3.75361e-10
-4.43526e-10
2.64513e-09
1.79345e-10
-3.07685e-10
-6.34921e-06
1.05575e-06
-5.96559e-07
-5.71108e-07
-1.30247e-06
5.69773e-06
1.22235e-05
-1.0167e-05
-1.27722e-06
-1.41087e-06
1.63197e-06
1.12029e-06
8.83435e-06
1.22514e-05
-2.82127e-06
1.9899e-06
-1.11853e-05
1.60177e-06
-6.65592e-06
4.81992e-06
-1.66193e-06
1.45788e-05
1.85235e-05
-5.37116e-06
4.00684e-06
-1.72626e-05
-2.09293e-06
4.2589e-08
5.86488e-09
-4.77165e-08
-4.14157e-09
-3.64548e-08
2.1907e-08
-1.47678e-09
-4.73366e-09
1.87775e-09
1.23762e-08
1.57459e-09
-2.3488e-09
2.05913e-08
-1.56471e-08
2.58627e-09
5.86353e-09
-1.61051e-08
4.02151e-09
-1.61688e-08
3.03901e-08
7.15308e-09
-2.5687e-09
-3.23899e-07
8.5766e-08
-5.8225e-08
-1.48888e-07
2.05012e-06
-3.28136e-07
3.5197e-06
4.70944e-07
-3.1032e-07
-3.03362e-06
-5.74273e-07
3.5167e-08
6.50297e-08
3.4453e-07
-1.01538e-07
7.12537e-07
8.88388e-08
-6.00876e-07
1.56475e-07
-5.66754e-07
5.37603e-07
4.97275e-07
-3.07936e-07
4.17438e-06
-9.81409e-07
6.25218e-06
8.13611e-07
8.61973e-07
-5.48616e-07
-5.63864e-06
-2.275e-06
3.45849e-07
-4.54477e-07
-6.39671e-07
7.25521e-06
-6.85958e-07
8.99696e-06
-8.16952e-07
-8.24597e-06
-2.15237e-06
1.94344e-07
4.10552e-06
5.50672e-07
-7.9259e-07
6.02705e-06
6.95087e-07
-5.22311e-06
7.63769e-07
-1.32972e-06
1.16337e-06
2.11094e-05
-1.77448e-06
-3.87571e-06
2.18237e-05
3.43744e-06
-2.15544e-05
-1.89713e-06
-6.95093e-07
1.81259e-07
-1.11965e-07
-3.63973e-07
-6.23298e-07
4.90694e-06
7.2101e-06
9.3708e-07
-6.3358e-07
-6.5428e-06
-1.07828e-06
-6.23478e-06
-8.70503e-07
9.09651e-07
2.56261e-05
-1.45465e-06
-2.12915e-06
2.60681e-05
-2.59234e-05
-4.18751e-06
-2.24071e-06
-3.92968e-11
5.04578e-12
-1.09531e-11
4.51316e-11
3.4885e-12
-2.93724e-12
-4.83464e-12
2.09146e-12
4.31138e-12
-1.44065e-11
2.93638e-11
-3.85939e-11
-1.09093e-10
-1.36963e-11
2.0558e-12
3.44267e-12
2.55744e-12
2.57748e-12
-4.19133e-12
-1.65245e-12
1.19246e-12
1.05872e-12
4.93211e-12
-1.37312e-11
2.66312e-10
-3.68584e-11
2.26628e-11
-1.77377e-10
1.30877e-11
-3.62746e-11
1.69678e-11
2.92777e-10
-2.03585e-11
5.87181e-10
-7.65769e-11
-3.9696e-11
2.9562e-11
-4.16599e-10
-6.46763e-12
-1.79794e-11
1.30548e-10
9.58526e-12
1.07308e-11
7.51104e-08
-8.75149e-09
-9.84432e-09
-2.53162e-09
-3.6338e-09
8.11813e-09
1.28548e-09
2.8708e-10
6.17749e-10
-2.03003e-10
-4.9554e-10
-3.00629e-10
-7.36738e-10
6.38894e-09
4.09729e-08
9.46922e-10
1.50827e-10
5.4587e-10
-1.31959e-09
-4.71129e-09
-6.96674e-09
-1.9028e-09
-1.5037e-10
-1.6467e-10
-3.74478e-11
-1.47182e-10
2.02411e-10
1.18765e-10
1.71319e-09
2.07688e-08
-1.39335e-07
-3.38888e-08
3.21789e-08
2.63627e-07
1.85426e-08
1.49082e-07
1.94626e-09
1.70466e-09
1.05879e-09
-1.47568e-08
-1.31439e-08
-6.1838e-09
-4.85816e-09
1.51431e-08
-5.18914e-10
-4.04777e-10
-9.59283e-10
-1.22667e-09
-6.02054e-11
-1.90328e-11
-7.42569e-11
7.72067e-11
7.2025e-10
-5.86798e-11
1.22013e-08
-1.27176e-08
-2.50612e-10
-9.19592e-10
-3.98915e-10
1.10676e-07
4.3977e-10
1.7045e-09
9.91961e-10
-5.81115e-09
-1.38961e-08
-8.89058e-09
-2.24148e-08
1.9948e-07
2.53346e-08
8.05966e-10
2.25531e-09
1.30569e-09
-1.11154e-09
-1.33659e-09
-2.13218e-09
-1.85741e-09
-7.36228e-10
-2.36167e-11
-2.64846e-11
-2.13767e-11
5.75753e-10
1.29116e-08
1.28605e-09
3.87477e-08
-2.39667e-08
-6.66813e-08
5.72921e-07
6.87196e-08
3.25369e-12
-1.89604e-12
-1.1947e-12
4.49784e-09
4.16633e-10
-2.88902e-10
2.90782e-07
3.49904e-08
-2.16215e-08
-1.23613e-09
-7.38523e-10
-5.58496e-10
2.17093e-07
-1.62559e-08
-1.24145e-08
-3.14494e-08
-4.20692e-08
-3.25858e-07
7.50377e-08