/*--------------------------------*- C++ -*----------------------------------*\
| =========                 |                                                 |
| \\      /  F ield         | OpenFOAM: The Open Source CFD Toolbox           |
|  \\    /   O peration     | Version:  2012                                  |
|   \\  /    A nd           | Website:  www.openfoam.com                      |
|    \\/     M anipulation  |                                                 |
\*---------------------------------------------------------------------------*/
FoamFile
{
    version     2.0;
    format      ascii;
    class       surfaceScalarField;
    location    "0.106/fluid";
    object      phi;
}
// * * * * * * * * * * * * * * * * * * * * * * * * * * * * * * * * * * * * * //

dimensions      [0 3 -1 0 0 0 0];
oriented        oriented;


internalField   nonuniform List<scalar> 
47532
(
-0.00143388
-1.42272e-05
-1.38459e-05
0.00146183
-0.00148827
-5.73922e-06
-2.07344e-06
0.00149587
-0.00150958
0.00151224
-2.13619e-06
-8.36943e-07
-0.00151792
0.00151926
-1.32318e-06
-5.06561e-07
-0.00152219
0.0015229
-1.10695e-06
-3.03219e-07
-0.00152452
0.00152494
-1.10306e-06
-1.84369e-07
-0.00152593
0.0015262
-1.1318e-06
-1.13196e-07
-0.00152687
0.00152705
-1.1289e-06
-6.88225e-08
-0.00152753
0.00152767
-1.06944e-06
-4.18909e-08
-0.00152803
0.00152814
-9.41362e-07
-2.60888e-08
-0.00152844
0.00152854
-7.59525e-07
-1.50871e-08
-0.00152885
0.00152896
-6.0476e-07
-9.66371e-09
-0.00152929
0.00152941
-3.52693e-07
-6.52581e-09
0.000130754
-0.00159279
0.00153954
-7.10279e-05
-6.91597e-06
-0.00150409
4.8526e-05
-9.38259e-07
-4.29752e-05
0.00149878
1.54771e-05
-0.00150145
-1.03353e-06
0.00150349
-1.70918e-05
7.58675e-06
-0.00150824
0.00150958
-8.90537e-06
-5.90078e-07
5.07781e-06
-0.00151279
0.00151362
-6.17258e-06
-3.7024e-07
4.47576e-06
-0.00151559
0.0015161
-5.49959e-06
-2.22487e-07
4.44113e-06
-0.00151735
0.0015177
-5.47237e-06
-1.26466e-07
4.47135e-06
-0.0015186
0.00151887
-5.49842e-06
-6.62997e-08
4.3412e-06
-0.00151961
0.00151986
-5.31238e-06
-2.80299e-08
4.02157e-06
-0.0015206
0.00152085
-4.89276e-06
-4.16375e-09
3.52934e-06
-0.00152168
0.00152199
-4.29804e-06
7.17955e-09
2.88365e-06
-0.00152303
0.00152343
-3.54918e-06
1.10483e-08
2.17971e-06
-0.00152482
0.00152535
-2.65975e-06
8.49544e-09
1.18774e-06
-0.00152718
0.00152786
-1.4291e-06
1.01473e-09
-0.00155451
2.36938e-05
-1.39215e-05
-3.69197e-06
0.00154721
-0.00152615
2.44512e-05
-2.04329e-05
3.78254e-06
0.00151721
1.68724e-05
-0.00150739
0.00150637
-1.64341e-05
-1.37474e-07
1.14309e-05
-0.00150537
0.00150549
-1.20071e-05
-2.04431e-07
9.01421e-06
-0.00150641
0.00150678
-9.84609e-06
-1.68317e-07
8.33913e-06
-0.00150789
0.00150823
-9.19578e-06
-8.87417e-08
8.30253e-06
-0.00150918
0.00150948
-9.11835e-06
-2.49955e-08
8.21951e-06
-0.00151036
0.00151066
-8.97346e-06
1.33478e-08
7.83809e-06
-0.00151156
0.00151189
-8.50507e-06
3.23e-08
7.10715e-06
-0.00151295
0.00151335
-7.68862e-06
4.6044e-08
6.27432e-06
-0.0015147
0.00151522
-6.74406e-06
4.99689e-08
5.18281e-06
-0.00151707
0.0015178
-5.55875e-06
4.07448e-08
3.78802e-06
-0.00152035
0.00152132
-4.04659e-06
2.73663e-08
2.01499e-06
-0.00152467
0.00152594
-2.14566e-06
8.17606e-09
-0.0014867
-9.30808e-06
-1.88642e-05
0.00149212
-0.00150701
1.31454e-05
4.32726e-06
0.00150605
1.52011e-05
-0.0015011
0.00150014
3.7453e-07
1.32248e-05
-0.00149842
0.00149817
1.57975e-07
1.18409e-05
-0.00149817
0.00149834
1.09235e-07
1.12332e-05
-0.00149914
0.00149946
1.27951e-07
1.09795e-05
-0.0015005
0.00150087
1.36966e-07
1.06196e-05
-0.00150202
0.00150242
1.34527e-07
9.89343e-06
-0.00150368
0.00150413
1.23419e-07
8.7952e-06
-0.0015056
0.00150615
1.14226e-07
7.63217e-06
-0.00150808
0.00150884
9.88142e-08
6.27774e-06
-0.00151152
0.00151258
7.59693e-08
4.5599e-06
-0.00151626
0.00151766
5.04568e-08
2.39874e-06
-0.00152246
0.00152426
1.62107e-08
3.92883e-05
-0.00111178
0.00135194
-0.000250867
-2.86719e-05
-0.0014828
1.70824e-05
-2.94641e-06
-1.4788e-05
0.00148329
7.91856e-06
-0.00149838
-5.12896e-06
0.00150279
-7.40786e-06
3.66043e-06
-0.0015118
0.00151397
-2.08846e-06
-4.04675e-06
1.97498e-06
-0.00151891
0.00152013
-1.2909e-06
-2.38834e-06
1.16944e-06
-0.00152281
0.00152346
-1.11116e-06
-1.4277e-06
7.12335e-07
-0.00152498
0.00152537
-1.12102e-06
-8.69082e-07
4.39765e-07
-0.00152632
0.00152657
-1.14801e-06
-5.34318e-07
2.69044e-07
-0.0015272
0.00152738
-1.1423e-06
-3.27726e-07
1.65737e-07
-0.00152784
0.00152797
-1.06994e-06
-1.97128e-07
9.66503e-08
-0.00152832
0.00152843
-9.40558e-07
-1.18037e-07
5.80381e-08
-0.00152872
0.00152882
-7.77016e-07
-7.14163e-08
3.46489e-08
-0.00152913
0.00152923
-5.95713e-07
-4.23885e-08
2.05237e-08
-0.00152956
0.00152968
-3.48343e-07
-2.50563e-08
2.722e-05
6.37356e-05
0.00168694
-4.86214e-05
-1.95587e-05
3.0954e-06
0.000139288
-0.00157546
0.00155149
-0.000100251
-1.87457e-05
1.43263e-05
4.15349e-05
-0.00151649
-4.12171e-05
-1.04197e-05
0.00151168
6.08927e-06
1.52296e-05
-0.00150664
0.00150678
-1.66807e-05
-5.19662e-06
2.84485e-06
7.38544e-06
-0.00150906
0.00151005
-8.68931e-06
-2.92733e-06
1.48789e-06
4.99549e-06
-0.00151289
0.00151372
-6.09508e-06
-1.74525e-06
8.40005e-07
4.4888e-06
-0.00151572
0.00151624
-5.515e-06
-1.01191e-06
4.69549e-07
4.48353e-06
-0.00151752
0.00151787
-5.51048e-06
-5.59996e-07
2.33966e-07
4.50183e-06
-0.00151877
0.00151904
-5.52302e-06
-2.80511e-07
8.95282e-08
4.37365e-06
-0.00151979
0.00152004
-5.34813e-06
-1.05815e-07
1.9295e-09
4.01977e-06
-0.00152078
0.00152104
-4.89848e-06
1.32151e-09
-4.19593e-08
3.49334e-06
-0.00152189
0.0015222
-4.25029e-06
5.60614e-08
-6.01091e-08
2.87864e-06
-0.00152326
0.00152366
-3.50853e-06
7.43428e-08
-5.22528e-08
2.1567e-06
-0.00152507
0.0015256
-2.61424e-06
6.42254e-08
-2.44726e-08
1.17917e-06
-0.00152744
0.00152813
-1.41651e-06
3.00547e-08
1.55678e-05
-3.36241e-07
0.0015811
1.80669e-05
-1.96618e-05
-0.00157031
-5.19824e-06
2.40427e-05
-2.0537e-06
-1.23477e-05
0.00156565
7.83329e-06
2.34411e-05
-0.00153364
-1.85827e-05
0.00152416
-3.53973e-06
2.9831e-06
1.63236e-05
-0.00150862
0.0015065
-1.59176e-05
-1.5099e-06
1.26771e-06
1.13153e-05
-0.00150436
0.00150443
-1.19413e-05
-9.51778e-07
5.756e-07
9.02417e-06
-0.0015056
0.0015061
-9.89543e-06
-5.76825e-07
2.25884e-07
8.36058e-06
-0.00150754
0.00150795
-9.22206e-06
-2.477e-07
1.91697e-08
8.30244e-06
-0.00150904
0.00150936
-9.11503e-06
-6.65003e-09
-1.08986e-07
8.22485e-06
-0.0015103
0.0015106
-8.97152e-06
1.43571e-07
-1.76391e-07
7.86709e-06
-0.00151154
0.00151188
-8.53478e-06
2.25844e-07
-2.11905e-07
7.13978e-06
-0.00151299
0.0015134
-7.72005e-06
2.68103e-07
-2.20956e-07
6.1687e-06
-0.00151481
0.00151535
-6.65562e-06
2.71612e-07
-1.97763e-07
5.06155e-06
-0.00151724
0.001518
-5.45008e-06
2.44699e-07
-1.47188e-07
3.70269e-06
-0.00152059
0.00152156
-3.96365e-06
1.81564e-07
-7.30807e-08
1.97886e-06
-0.00152493
0.00152619
-2.10369e-06
8.91837e-08
9.9281e-06
-2.69088e-05
0.000418456
2.9046e-05
-4.67759e-06
-0.00148898
5.38626e-06
-4.0883e-05
3.02407e-05
-5.35718e-06
0.0015001
-0.00150407
9.25081e-07
8.41523e-06
2.24897e-06
0.00150391
-2.7652e-07
1.41201e-05
-0.00150028
0.00149892
1.72406e-06
-6.2759e-07
1.31178e-05
-0.00149689
0.00149671
1.15952e-06
-6.89892e-07
1.18596e-05
-0.00149707
0.00149738
9.0905e-07
-6.83422e-07
1.12455e-05
-0.00149851
0.0014989
8.38344e-07
-6.39078e-07
1.09729e-05
-0.00150011
0.00150052
7.84798e-07
-5.97722e-07
1.05919e-05
-0.00150175
0.00150218
7.36636e-07
-5.44394e-07
9.9095e-06
-0.0015035
0.00150397
6.74445e-07
-4.97813e-07
8.85245e-06
-0.00150551
0.00150609
6.1469e-07
-4.35114e-07
7.6264e-06
-0.00150812
0.00150891
5.35757e-07
-3.53741e-07
6.2208e-06
-0.00151167
0.00151275
4.37065e-07
-2.56162e-07
4.49696e-06
-0.00151646
0.00151788
3.14433e-07
-1.26072e-07
2.35709e-06
-0.00152271
0.00152452
1.54871e-07
-0.00112395
1.94018e-05
-0.000238415
-1.78884e-05
0.00136063
-0.00148702
1.53033e-05
-7.8116e-07
-1.48023e-05
0.00148702
9.74465e-06
-0.00150198
0.00150619
-4.39616e-06
-9.78531e-06
5.72329e-06
-0.00151439
0.0015163
-1.82477e-06
-6.0555e-06
3.41589e-06
-0.00152048
0.00152147
-1.18587e-06
-3.67252e-06
2.0688e-06
-0.00152366
0.0015242
-1.07605e-06
-2.23123e-06
1.26704e-06
-0.00152547
0.00152581
-1.10687e-06
-1.37013e-06
7.79806e-07
-0.00152661
0.00152683
-1.13832e-06
-8.42853e-07
4.78899e-07
-0.00152738
0.00152753
-1.13007e-06
-5.1752e-07
2.92598e-07
-0.00152794
0.00152806
-1.05417e-06
-3.1217e-07
1.73759e-07
-0.00152839
0.00152849
-9.21012e-07
-1.88234e-07
1.04037e-07
-0.00152878
0.00152887
-7.54446e-07
-1.12052e-07
6.16828e-08
-0.00152916
0.00152926
-5.73422e-07
-6.62997e-08
3.62602e-08
-0.00152959
0.0015297
-3.29146e-07
-3.92408e-08
2.34851e-05
5.19153e-06
0.00169072
-4.81492e-06
-1.62927e-05
0.000106085
-0.00155802
1.17457e-05
-1.34326e-05
0.00152811
-7.57736e-05
1.10622e-05
3.40829e-05
-0.00150143
-1.08976e-05
0.00150096
-3.45282e-05
7.13812e-06
1.32463e-05
-0.00150285
0.00150393
-1.46891e-05
-6.91875e-06
4.15366e-06
6.61072e-06
-0.00150767
0.00150891
-7.89187e-06
-4.23954e-06
2.41055e-06
4.70025e-06
-0.0015122
0.00151307
-5.78937e-06
-2.553e-06
1.3984e-06
4.36269e-06
-0.00151515
0.00151569
-5.38203e-06
-1.48294e-06
7.68879e-07
4.41385e-06
-0.001517
0.00151736
-5.42586e-06
-8.12402e-07
3.76752e-07
4.44027e-06
-0.00151829
0.00151857
-5.44189e-06
-3.93572e-07
1.28222e-07
4.32625e-06
-0.00151933
0.00151957
-5.28684e-06
-1.26744e-07
-2.12079e-08
3.97149e-06
-0.00152035
0.00152064
-4.84623e-06
2.67083e-08
-9.2388e-08
3.40217e-06
-0.00152159
0.00152195
-4.13403e-06
1.04487e-07
-1.11567e-07
2.75666e-06
-0.00152309
0.00152352
-3.35263e-06
1.2087e-07
-9.28092e-08
2.03866e-06
-0.00152497
0.00152551
-2.45854e-06
1.0035e-07
-4.42561e-08
1.09808e-06
-0.00152738
0.00152808
-1.31709e-06
4.80146e-08
1.2609e-06
4.24304e-07
0.00156842
6.33591e-06
-3.88205e-06
-0.00152823
1.80917e-06
2.5279e-05
-1.05469e-05
-5.28112e-06
0.00151726
3.32395e-06
2.26064e-05
-0.00150076
0.00149848
-1.95425e-05
-3.38832e-06
2.40325e-06
1.54333e-05
-0.00149616
0.00149629
-1.5444e-05
-1.96531e-06
1.34656e-06
1.08905e-05
-0.00149806
0.00149894
-1.15918e-05
-1.17954e-06
6.62926e-07
8.85111e-06
-0.00150181
0.0015027
-9.71829e-06
-6.4236e-07
2.39882e-07
8.26542e-06
-0.00150497
0.00150559
-9.12253e-06
-2.13832e-07
-6.53438e-08
8.19875e-06
-0.00150714
0.00150759
-9.00316e-06
1.00584e-07
-2.59402e-07
8.10157e-06
-0.00150879
0.00150916
-8.83529e-06
3.06922e-07
-3.7445e-07
7.79002e-06
-0.00151028
0.00151066
-8.44462e-06
4.23187e-07
-4.29469e-07
7.07431e-06
-0.0015119
0.00151236
-7.64863e-06
4.7796e-07
-4.24207e-07
6.00969e-06
-0.00151398
0.00151461
-6.51477e-06
4.70019e-07
-3.68299e-07
4.88804e-06
-0.00151669
0.0015175
-5.28746e-06
4.01614e-07
-2.68871e-07
3.50244e-06
-0.00152026
0.0015213
-3.78397e-06
2.92948e-07
-1.30072e-07
1.85032e-06
-0.00152481
0.00152612
-1.98132e-06
1.39453e-07
1.78956e-06
-1.77238e-05
0.000404772
2.26518e-05
-8.07353e-07
-0.00146258
-5.4911e-06
-1.2522e-05
9.40656e-06
4.57889e-06
0.00146807
-0.00147504
-3.17225e-06
1.25651e-05
-1.52553e-05
3.438e-06
0.00147929
-1.93168e-06
1.4103e-05
-0.00148593
0.00148671
-1.40067e-05
2.43963e-06
-1.52696e-06
1.26388e-05
-0.00148896
0.00148972
1.79701e-06
-1.37148e-06
1.15331e-05
-0.00149207
0.00149282
1.51147e-06
-1.2528e-06
1.10586e-05
-0.00149492
0.00149556
1.37089e-06
-1.17213e-06
1.07933e-05
-0.00149737
0.00149793
1.28417e-06
-1.11205e-06
1.03944e-05
-0.00149952
0.00150003
1.2183e-06
-1.02999e-06
9.75017e-06
-0.00150161
0.00150216
1.13224e-06
-9.35222e-07
8.74634e-06
-0.00150395
0.00150461
1.02737e-06
-8.09999e-07
7.48087e-06
-0.00150689
0.00150778
8.8793e-07
-6.56589e-07
6.05975e-06
-0.00151081
0.00151197
7.14195e-07
-4.69681e-07
4.32765e-06
-0.00151591
0.0015174
5.13308e-07
-2.30793e-07
2.25614e-06
-0.00152245
0.00152432
2.5335e-07
0.000392933
-3.68909e-05
5.47529e-05
-0.000404334
-6.48624e-06
0.00112916
-4.83321e-05
5.76185e-05
-0.000431818
-0.000241938
-0.000112939
-0.000239486
-0.00011232
4.75076e-05
-4.10141e-05
5.35316e-05
0.00185457
5.3646e-06
-1.63708e-05
-1.35701e-05
2.42679e-06
0.00153564
-8.63463e-05
-2.17301e-05
7.29705e-05
0.000120319
-0.00162116
-0.00137777
-2.52335e-05
-3.09743e-05
0.000233635
0.00150672
4.76885e-06
-0.000408087
-0.000412332
-0.000401354
-6.5068e-05
0.00147348
7.45263e-05
-0.00147328
-1.01839e-05
5.58576e-05
0.00135582
-0.000243293
-2.06212e-05
0.00146363
1.78907e-05
-0.00146367
2.64773e-06
-7.5434e-05
-1.79336e-05
4.43657e-05
8.75933e-05
0.00149668
-3.91349e-05
-1.88712e-05
0.00146712
1.59939e-05
4.13775e-05
-0.00146699
-4.83419e-05
4.49407e-05
2.4311e-05
4.22032e-05
3.45586e-05
-0.000439014
-0.000431419
-0.00043014
-0.000427097
-1.61384e-05
0.00156037
2.57718e-05
3.3708e-05
-0.000405218
-0.000397366
-0.00040391
-0.000398153
5.25281e-05
0.00178201
3.59931e-05
0.00153601
2.05972e-06
2.93613e-05
-0.00160561
-4.85524e-05
5.3561e-06
-1.97419e-05
5.01054e-05
-1.52068e-05
0.00168505
-2.33629e-05
0.00150901
3.85183e-06
3.41382e-05
2.57458e-05
-0.00154991
-8.11654e-06
3.57292e-05
-0.00040278
-0.000396872
-0.000403456
-0.000396298
2.90266e-05
0.00152993
-4.03258e-06
4.9851e-06
-0.000383463
-0.000393738
-0.000394939
-0.000389071
4.73541e-05
0.00167555
-6.36384e-06
9.2346e-06
0.00150396
2.95353e-05
-0.00154425
-2.22297e-05
5.52341e-07
-1.84174e-05
4.89288e-05
2.56124e-05
0.00165242
-1.02189e-06
6.68594e-07
-1.48714e-06
-3.82835e-05
-1.52158e-06
0.00148583
4.47535e-05
2.12658e-05
-0.00151138
-1.70122e-05
-0.00037899
-0.000374973
-0.000382165
-0.000363131
5.48948e-06
0.000422874
1.22278e-05
-1.31246e-05
0.00148185
2.42242e-05
-0.00150467
-0.000447047
-3.24855e-05
-0.000230914
-0.000109085
-0.000230852
-0.000109816
0.00175641
-1.81909e-05
3.24444e-05
1.07078e-05
2.99966e-05
1.28796e-05
0.00155421
-0.000174032
0.000220269
-0.00158999
-3.26104e-05
-2.20208e-05
0.00112615
2.25144e-05
-0.000423714
-0.000235517
-0.000116216
-0.000235523
-0.000115844
-6.62648e-06
-5.48585e-06
8.37499e-06
0.00176684
1.85881e-05
5.32352e-07
7.35686e-07
1.82548e-05
-1.38575e-05
0.00155017
-0.000120024
1.86097e-05
0.000164143
-0.00159993
-6.37975e-05
-0.00147903
5.13477e-05
-9.92738e-06
-1.24879e-05
6.20076e-07
0.000406897
1.94064e-05
5.07362e-06
-1.05421e-05
0.0014732
-1.29581e-06
-0.00147511
9.58823e-06
-0.000426338
-1.97008e-05
-0.000234457
-0.000115427
-0.000234424
-0.000115824
0.00175175
-4.64172e-06
2.27989e-05
4.42913e-06
2.26179e-05
4.61923e-06
0.00154847
-0.00013203
0.000175736
-0.00159291
-1.41842e-05
-2.62863e-05
-0.00145854
2.37544e-05
4.7174e-06
0.000583677
-8.39077e-05
-2.68853e-05
-0.000625525
1.37366e-05
0.000138902
6.90673e-06
-6.92038e-07
0.000165566
2.06393e-06
-7.22478e-06
-3.48609e-05
-7.45665e-06
-3.75044e-07
8.89527e-06
3.37973e-05
7.50688e-05
5.20828e-05
-7.16301e-05
0.00138872
-5.90384e-05
-0.000336374
-0.000354612
-0.000345081
-0.000349298
0.000306264
8.40655e-06
-4.78828e-05
-7.3978e-05
-6.31818e-05
-6.47813e-05
-6.48494e-05
-1.76913e-05
-8.75314e-05
-5.65888e-05
0.000199554
1.66622e-05
2.17238e-05
1.84906e-06
2.72961e-05
-1.21929e-05
-5.04293e-05
-4.2658e-05
-0.000284098
-6.24476e-06
2.5571e-05
-6.1059e-05
0.000325829
-0.000376778
-2.99385e-05
-2.5707e-05
0.00035751
2.31792e-05
5.17267e-05
-0.000197345
-0.00032257
-0.000239755
-0.000337987
-0.000211048
0.00126586
2.47793e-05
2.16538e-05
2.22284e-05
4.91032e-05
0.00143478
-3.14281e-06
3.02463e-05
1.19317e-05
3.45303e-05
-5.54882e-05
-0.000331058
-0.000354121
-0.000353466
-0.000362185
2.37415e-05
-4.9e-06
0.00172615
8.10935e-06
5.45597e-05
5.5577e-05
9.78111e-06
-7.71664e-06
-0.000473749
-0.000460229
-0.000467217
-0.000464255
-2.87812e-05
6.8822e-05
1.00678e-05
1.5825e-05
-1.45161e-05
-1.86801e-05
-1.62918e-05
-1.64459e-05
-2.55619e-06
-2.54031e-05
3.27174e-05
0.000466801
7.35123e-07
4.46747e-05
0.00173969
1.1789e-05
4.62572e-05
1.09768e-05
5.49253e-05
3.69244e-07
-0.000475213
-0.000472265
-0.000471087
-0.000466467
8.69493e-06
-8.6162e-06
0.000446158
1.40516e-05
-1.04651e-05
-1.19042e-06
7.45664e-05
1.35369e-06
1.16521e-06
-1.74584e-05
-2.0638e-05
-1.7358e-05
-2.04413e-05
1.36891e-06
2.40465e-06
0.00166223
1.43551e-05
5.97659e-05
5.95677e-05
1.42474e-05
-4.49711e-05
-0.000444698
-0.00044017
-0.000444779
-0.000439589
1.43033e-07
7.26344e-05
1.72599e-06
-3.58265e-07
-1.71063e-05
-2.00833e-05
-1.68689e-05
-2.00886e-05
-3.5568e-06
-1.38175e-05
1.99122e-05
0.000430676
2.65927e-06
9.65282e-07
0.00167382
1.2844e-05
5.78261e-05
1.30188e-05
5.76337e-05
-3.33612e-05
-0.000447575
-0.000443122
-0.000448127
-0.000442838
2.89803e-06
-1.62538e-05
0.000429036
2.16105e-05
-1.85315e-06
1.44522e-06
7.2085e-05
1.64685e-06
-1.36065e-06
-1.71383e-05
-1.98478e-05
-1.66746e-05
-2.01588e-05
-1.19117e-05
7.23179e-05
4.88275e-06
1.072e-05
-1.72836e-05
-2.1067e-05
-1.78572e-05
-1.98056e-05
2.80974e-07
-2.35358e-05
4.07775e-05
0.000429275
3.79758e-06
1.10905e-05
0.000401732
-4.31238e-05
5.39703e-06
1.57627e-05
-0.000390624
6.21291e-06
-0.00150481
4.56293e-06
3.464e-05
1.2758e-05
0.00147235
-9.2066e-07
2.81101e-05
0.00147639
-7.23969e-07
-0.00146965
-6.37175e-06
0.000525555
-8.92688e-05
2.61009e-06
-0.000578499
0.000145954
4.15674e-06
-3.10113e-05
3.20064e-05
-1.38357e-06
-3.76831e-06
1.65826e-06
-6.57398e-08
1.6344e-07
0.000159399
-1.16548e-06
1.30731e-05
0.000520893
-9.87615e-05
-6.30353e-06
0.000149808
-0.000578722
-7.91767e-07
-2.67931e-07
0.000158159
5.20741e-07
1.13493e-06
-2.36186e-06
-3.03576e-05
-9.78362e-07
2.15868e-06
3.15391e-05
2.08043e-05
-0.00156996
6.52355e-06
-1.85851e-05
2.87644e-05
2.72252e-05
2.89802e-05
-6.61024e-05
0.00156763
-1.88227e-05
0.00153993
-5.71185e-05
-0.00153014
-1.72545e-05
-8.03132e-08
7.81591e-06
0.00158778
3.32952e-07
-1.55604e-06
2.35185e-05
0.00153074
9.21227e-06
-0.00155132
-1.05671e-05
1.24443e-06
1.25032e-05
1.3115e-05
1.30897e-05
4.90528e-06
0.00155446
-1.51716e-05
4.28704e-06
0.00150169
2.87246e-06
-0.00150485
-1.35795e-05
1.9524e-05
0.000382193
-3.01469e-05
-0.000395625
3.11957e-05
-7.01725e-06
-4.00381e-06
-8.62564e-06
1.63718e-06
0.000414043
1.71659e-05
0.000392176
-6.74087e-06
-6.59746e-06
1.62346e-05
9.40593e-07
-0.000395924
2.67452e-06
-0.00150426
-5.00863e-06
1.69441e-06
4.17255e-07
-1.93326e-06
-3.24952e-06
0.00147357
3.75964e-06
1.73034e-05
0.00147431
-3.16393e-06
-0.0014718
-1.90494e-05
-2.25726e-06
0.000515087
-9.14856e-05
1.72856e-06
-0.000568914
0.000145799
1.6734e-06
-2.95553e-05
3.08982e-05
-1.20029e-06
-1.81615e-06
2.8149e-07
-1.13951e-06
1.74977e-06
0.000156871
-1.25365e-07
3.41715e-06
0.000515494
-9.38024e-05
-2.43898e-06
0.000147622
-0.000570327
5.18816e-08
-1.03209e-06
0.000156142
-1.96975e-08
1.74733e-06
-1.64662e-06
-2.91538e-05
-1.25124e-06
1.42588e-06
3.06256e-05
2.28831e-05
-0.00154199
-5.06793e-06
-5.56588e-06
1.85827e-05
1.77795e-05
1.86403e-05
0.001534
3.54086e-07
-3.28227e-05
0.00149719
-0.00149476
3.10921e-06
-2.63611e-05
1.90685e-06
0.000379105
-1.74662e-05
-0.000386222
2.28204e-05
-6.98503e-08
-1.12535e-06
-1.4158e-05
5.36349e-07
0.000399878
2.01858e-05
0.000377292
-6.29985e-07
-1.32399e-05
1.99115e-05
-5.57627e-07
-0.00038269
1.01513e-05
-0.00147167
-1.16628e-05
3.75156e-06
-9.21184e-05
-3.73105e-05
0.000515257
3.09583e-05
0.00016689
-1.53346e-05
2.08213e-05
-2.59022e-05
2.72376e-06
-1.21479e-05
2.81879e-05
-8.66859e-05
-0.000213453
-4.84358e-05
-3.32263e-05
-0.000403009
2.99358e-05
7.79497e-05
-4.03777e-05
3.08523e-05
3.59593e-05
3.34295e-05
-0.000113013
3.81182e-05
-1.98295e-05
0.00048006
-3.80533e-05
-0.000509024
-3.04299e-05
1.35375e-05
9.91209e-05
6.14278e-07
-2.80662e-05
-2.56332e-05
-2.37052e-05
-2.1531e-05
-2.9581e-05
-2.14781e-05
3.28295e-05
-1.1069e-05
0.000481569
-2.43072e-05
1.10369e-06
-4.3457e-06
3.75295e-06
0.000551942
3.33225e-05
2.03066e-05
0.00178893
-8.79147e-05
5.57273e-05
8.73666e-05
4.36554e-05
9.15392e-05
-6.12103e-06
7.46649e-06
-2.96101e-06
5.26868e-09
-0.000474449
-0.000484727
-0.000475437
-0.000498454
-3.84945e-05
0.000434148
-4.05626e-05
3.28475e-05
0.000222277
-9.41217e-05
-7.00956e-05
-4.51825e-05
-5.35942e-06
-4.87981e-05
-1.34637e-06
1.20699e-05
8.68456e-06
6.5314e-06
7.25613e-05
-0.000113196
-0.000116995
-0.000119555
0.000457229
-1.52838e-05
-1.11043e-05
-2.60118e-05
-2.12943e-05
-7.23565e-06
-0.00158726
0.00146232
-6.95441e-05
2.38149e-05
3.32248e-05
2.14253e-05
3.84312e-05
3.22652e-06
7.87599e-06
2.7242e-05
2.75752e-05
1.15e-05
0.000366229
-2.04393e-05
-0.000368466
1.56343e-05
-4.14049e-05
-1.94006e-05
3.78629e-05
5.73268e-05
8.09699e-05
3.41331e-05
-3.02366e-05
6.35978e-06
1.47935e-05
1.38552e-07
1.96378e-05
0.000534846
-0.000105492
-0.000595879
-9.8136e-06
0.000149449
-3.13583e-05
3.22001e-05
-7.15996e-07
4.03091e-06
1.9681e-06
-4.46695e-07
7.00231e-07
0.000159336
5.5144e-06
0.000161858
-7.45292e-06
2.56897e-07
0.000535999
-8.45929e-05
2.23053e-06
0.000145519
-0.000586092
-3.19285e-05
-7.63243e-07
3.13152e-05
-6.0801e-06
-3.49544e-06
0.00169986
1.21622e-05
5.79257e-05
1.23998e-05
5.67008e-05
-2.45568e-05
-0.0004552
-0.000452708
-0.000457998
-0.000450187
7.28882e-05
1.67297e-06
-9.03912e-08
-1.71427e-05
-2.01429e-05
-1.69204e-05
-2.01237e-05
-1.56637e-05
2.12758e-05
-4.22585e-06
0.000431967
-1.07464e-05
0.000440583
1.69507e-05
7.1487e-06
0.00168318
1.37498e-05
5.84109e-05
1.35195e-05
5.90178e-05
-3.96012e-05
-0.000450915
-0.000444636
-0.000449674
-0.000445835
7.40488e-05
1.40651e-06
-1.14209e-06
-1.74895e-05
-2.03617e-05
-1.71494e-05
-2.05041e-05
-1.98927e-05
0.00166277
1.35629e-05
5.86217e-05
1.34547e-05
6.12343e-05
-1.89162e-05
-0.000444884
-0.000438849
-0.000443731
-0.00044107
7.11822e-05
8.60709e-07
-8.91844e-06
-1.7646e-05
-1.97305e-05
-1.67317e-05
-2.09325e-05
-9.16761e-06
2.00449e-05
2.59943e-06
0.000438257
-1.11747e-05
0.000429183
1.95417e-05
1.59126e-06
0.00164413
1.98702e-05
7.40355e-05
2.24274e-05
6.64339e-05
-4.99289e-05
-0.000446001
-0.000442005
-0.0004478
-0.00043971
1.51801e-06
-1.24852e-05
1.29086e-06
7.20923e-05
1.65869e-06
1.43357e-06
-1.68397e-05
-2.01869e-05
-1.69034e-05
-1.98124e-05
-4.24827e-05
-9.10065e-05
-7.34528e-05
-9.14657e-05
0.000355235
-1.93197e-05
3.47379e-05
-0.00145496
-2.69057e-05
4.82253e-05
0.00144755
-5.13404e-05
6.57262e-05
-2.55108e-05
1.20779e-05
-5.92665e-06
-1.94594e-06
3.95969e-05
5.13682e-05
4.67434e-05
4.61328e-05
-0.000400137
-0.000419168
-0.000409572
-3.87687e-05
-1.50135e-05
0.000429188
4.07978e-05
0.000402213
3.90821e-06
-0.000403069
6.12212e-06
1.04813e-05
0.000376955
-5.35361e-05
5.17848e-05
-0.000400303
-1.7807e-05
-0.0014779
-0.000128845
0.00150199
4.52536e-05
-2.23906e-05
9.62721e-07
1.4995e-05
1.37584e-05
2.27866e-06
2.98487e-05
-0.000403759
-0.000391394
-0.000390918
4.09137e-05
4.72281e-05
3.83922e-05
4.64579e-05
-0.000175311
-0.000369733
-0.000370351
-0.000363318
0.000517411
-9.5953e-05
-0.000573266
-3.83532e-06
0.000149249
-2.97227e-05
3.10683e-05
-1.14766e-06
1.47542e-06
-8.13953e-07
1.5823e-06
2.14467e-07
0.000157139
-1.00329e-06
0.000157828
1.4778e-06
-5.21489e-07
0.000519453
-9.11025e-05
2.06439e-06
0.00014618
-0.000573209
-3.01971e-05
-1.1967e-06
3.1395e-05
-2.36308e-06
-1.22871e-05
2.38909e-05
3.27542e-05
3.3297e-05
2.35783e-05
-9.81718e-05
-0.000371791
-0.000379768
-0.000369844
-1.65125e-06
-0.000361999
-0.00036305
0.00145314
-0.0014954
-1.66546e-06
3.01674e-07
0.00148546
2.06652e-06
-2.90585e-06
8.4815e-06
2.08495e-05
2.06289e-05
8.51152e-06
-1.74203e-05
-0.000379637
-0.000393003
-0.000380252
9.46224e-07
-0.000372341
-0.000371652
0.00146305
-2.07723e-05
-1.64256e-06
0.000411476
2.48918e-05
0.000384106
-1.12716e-05
-0.000389157
-6.19183e-07
1.89238e-05
0.000382297
-2.13925e-05
2.55104e-05
-0.000391358
-1.71385e-06
-0.00147255
3.24251e-05
-3.75201e-05
0.00147741
-1.21699e-06
3.69603e-06
1.14014e-05
2.32894e-05
2.32958e-05
1.13109e-05
-3.31787e-05
-0.000385158
-0.000371304
-0.0003724
-4.74077e-06
5.63454e-06
-0.000365673
-0.000364747
0.0014461
1.80002e-05
2.84785e-05
1.78592e-05
2.86624e-05
-6.67474e-05
-0.000370486
-0.000380563
-0.000368866
-0.000361469
-0.000362892
0.00144492
0.000512944
-9.22711e-05
-0.000567143
-1.95689e-06
0.000146124
-1.14573e-06
0.000155935
1.7994e-06
1.66879e-07
-2.89256e-05
-1.23306e-06
3.03992e-05
-1.88735e-06
4.532e-06
1.50299e-05
2.63927e-05
2.64301e-05
1.50392e-05
-5.26917e-05
-0.000366731
-0.000377658
-0.000365215
6.71257e-06
-0.000358587
-0.00035998
0.00143168
-0.00145354
1.40884e-05
4.30243e-06
0.00145617
-1.48056e-05
2.9126e-06
1.24431e-05
2.41641e-05
2.4203e-05
1.23518e-05
-3.84247e-05
-0.000364262
-0.000378461
-0.000365566
5.34055e-06
-0.000359499
-0.000358339
0.00142732
-1.61101e-05
-8.9012e-07
0.000397675
2.12703e-05
0.000374494
-1.54169e-05
2.12575e-05
-0.000380442
-4.33873e-07
-0.00144129
1.94387e-05
-2.00674e-05
0.00144663
1.35892e-05
2.51715e-05
1.36127e-05
2.5186e-05
-4.46655e-05
-0.000361675
-0.000373267
-0.000360288
-0.000354583
-0.00035585
0.00141685
1.38588e-05
3.85458e-05
-4.16553e-05
0.000355138
-6.4111e-06
-0.000101751
-7.88062e-05
-9.80002e-05
-8.0923e-05
1.15573e-05
-6.14308e-06
4.65525e-07
-5.8798e-06
1.36878e-06
-3.22628e-06
1.18643e-06
6.71071e-07
-7.63971e-05
2.63613e-06
2.67248e-06
-8.23016e-06
7.93186e-05
-8.14718e-05
-1.54718e-05
-8.32975e-06
7.90661e-05
8.94199e-06
1.72651e-05
-7.9189e-05
0.000118607
9.64791e-06
-6.87459e-06
3.56622e-06
4.12632e-06
-1.35892e-05
-4.5161e-06
-2.33823e-05
5.45881e-06
0.000370917
1.13876e-05
1.72925e-05
8.43681e-06
2.5736e-05
-2.58445e-05
-0.0001062
-8.12908e-05
-8.27605e-05
-9.91297e-05
0.000106322
1.35289e-05
-6.47856e-07
-1.5954e-05
-0.000113465
1.02163e-05
-7.18817e-06
-1.86995e-05
2.43968e-05
0.000125486
8.73916e-06
-4.94085e-06
9.70503e-05
-7.96546e-06
1.07773e-05
1.54478e-05
-0.000110369
1.55742e-05
-2.62735e-06
0.00011934
8.09392e-06
-1.6563e-05
-0.00151171
-4.21729e-06
-5.39125e-05
3.49107e-05
-4.40145e-06
0.00155251
-2.59485e-05
0.00152991
3.41368e-05
-0.00154181
2.56859e-06
1.53106e-05
0.00149714
-4.92657e-05
0.00147316
-1.60457e-05
1.01487e-05
-0.00147033
-3.66899e-05
-2.70346e-05
-2.60129e-07
1.52429e-05
3.05016e-05
0.00148989
-2.65282e-05
0.00148164
-1.19468e-05
4.58751e-06
2.96061e-05
-0.00147812
9.34304e-05
5.76837e-07
-3.30446e-06
-5.68431e-07
-0.000103225
1.30898e-05
-1.5385e-06
-8.8797e-06
1.69591e-05
0.000116902
1.48493e-06
-8.8628e-07
9.37506e-05
-3.30818e-06
9.87551e-07
1.30944e-05
-0.000103639
8.38436e-07
-8.94449e-06
0.000116407
1.70296e-05
-9.11852e-07
-0.001537
-1.9806e-05
3.46869e-06
5.57695e-06
-1.7272e-05
0.00153121
0.00151733
-0.00152542
2.73502e-06
1.04068e-05
1.09436e-05
-2.429e-05
0.00148452
0.00147841
-8.69807e-06
2.26266e-06
-0.00147373
-2.54327e-05
-1.05289e-06
2.1637e-05
2.28539e-05
0.0014774
0.00148157
-5.99207e-06
2.18138e-06
-0.00147632
2.64418e-05
0.000104315
1.19376e-05
-8.43222e-06
-8.95305e-06
-0.000114969
1.61216e-05
-1.22706e-06
-1.06671e-05
1.82051e-05
0.000120011
1.98332e-06
-4.70196e-06
9.94601e-05
-9.19404e-06
5.65243e-06
1.64876e-05
-0.000107698
3.5207e-06
-8.59516e-06
0.000131695
1.72308e-05
-2.0891e-06
-0.00148039
-5.40417e-06
-1.777e-05
0.000161968
0.00154077
-2.76581e-05
0.00150916
-5.61649e-05
6.10508e-05
-0.00151784
-1.55958e-05
2.01098e-05
-0.000236187
0.00136144
-1.64988e-05
0.00148281
1.59822e-05
-0.0014828
2.6577e-07
-1.42358e-05
-9.54219e-05
1.81648e-05
0.000115344
0.00152536
-1.34496e-05
0.00149145
-3.9945e-05
1.38991e-05
4.46917e-05
-0.00149743
-0.00160846
-0.000116319
-2.31584e-05
1.28832e-05
0.00158397
-2.1762e-05
0.00158413
4.39819e-05
-0.00158063
-2.32431e-05
8.71102e-06
0.00170661
-2.11582e-06
-1.10162e-05
0.00155882
1.59366e-05
-0.00161043
-7.43948e-05
-1.42715e-06
8.84982e-06
0.00159914
-3.80213e-07
-3.43646e-06
0.00154403
1.22368e-05
-0.00156324
3.33233e-05
-0.00148597
-1.98814e-06
-1.5844e-05
0.000125985
-1.47926e-05
0.001528
0.00149897
-4.53862e-05
5.00218e-05
-0.00150463
-1.33209e-05
-0.00160339
-1.27876e-05
-8.61543e-05
0.00157986
-3.45764e-06
4.88521e-06
0.00154555
-0.00155764
-6.68348e-06
3.74861e-05
-9.27872e-05
-3.84402e-05
-6.19107e-06
9.59522e-05
8.9925e-06
3.24738e-05
2.23325e-06
2.56139e-06
-1.25262e-05
-6.86655e-05
-2.16206e-05
-1.25255e-05
-9.14608e-05
2.4091e-05
5.34476e-06
5.04208e-06
4.11416e-06
5.54302e-06
-2.26534e-05
8.68587e-08
-1.62652e-05
-3.45896e-06
4.22907e-05
-2.3023e-06
0.000103601
-1.42624e-05
2.26691e-06
-0.000110389
2.10861e-05
-1.8501e-05
2.75156e-05
0.000126596
-8.26606e-06
0.00010236
-1.20593e-05
-2.06965e-06
1.96487e-05
-0.00011282
-1.20037e-05
-1.40226e-05
0.000119379
2.13642e-05
1.08324e-05
0.00164187
-4.42583e-05
-0.000529699
-0.000399827
-0.000423668
-0.000530924
4.60295e-05
2.16991e-05
4.22954e-05
0.000164991
0.000172211
0.000165159
0.000171599
-0.000463251
0.00108344
2.91912e-05
1.74709e-05
3.38721e-05
-9.78466e-05
-0.000226728
-0.000226478
-0.000104231
-2.02012e-05
2.74778e-05
3.10711e-05
2.77822e-05
-9.97041e-05
1.67653e-05
-1.4551e-05
6.18386e-05
-0.0017316
-4.71872e-05
-0.000265959
0.00155095
-0.00037932
0.00146548
4.00723e-05
3.75161e-05
4.34085e-05
-3.73078e-05
-0.000539922
-0.000428687
-0.000448861
-0.000389296
0.000147196
0.000148911
0.000155052
0.000152946
2.77083e-05
3.20811e-05
2.76331e-05
-0.000109283
-2.62541e-05
-2.4192e-05
-0.000316057
-2.7214e-05
7.41031e-05
0.000120461
9.45173e-05
0.00180786
3.69854e-05
4.52155e-05
4.18368e-05
-0.000517497
-0.000495099
-0.000513997
-0.000494725
0.00173915
-0.000126302
2.80109e-05
2.79637e-05
3.94128e-05
2.82967e-05
4.67597e-05
5.1707e-05
3.08547e-05
-9.46968e-06
-1.09486e-06
4.26517e-06
5.18226e-06
5.17573e-06
0.000527581
1.22868e-05
7.66381e-05
0.000104083
-4.50505e-05
0.00174971
-3.09737e-05
2.21265e-06
-4.0096e-06
3.31957e-06
0.000546189
-1.38336e-05
1.37663e-06
0.00163687
-0.000225141
-4.43026e-05
9.14516e-05
6.13462e-05
7.3359e-05
0.00183524
-0.000510063
-0.000515826
-0.000503846
-0.000495219
-0.0014448
-7.04088e-05
7.03926e-05
0.00141706
-4.41328e-05
-9.29462e-05
0.00132766
5.72065e-05
9.48136e-05
5.97044e-05
-0.000356131
-0.000367732
-0.000354377
-2.6967e-05
0.000161912
-0.00010896
0.00148035
8.32785e-05
0.00144293
-5.79441e-05
-1.4816e-06
2.56402e-05
2.02432e-05
1.47003e-05
-0.000375639
-0.000375438
-0.000376568
-5.13243e-05
-5.05858e-05
0.00141816
-2.24077e-05
0.00136236
2.27156e-05
0.00150556
-1.94293e-05
5.59548e-05
5.65884e-05
3.94406e-05
3.98323e-05
2.52433e-05
-9.57466e-05
-6.94463e-05
-8.79955e-05
0.000400324
-3.09327e-05
2.51705e-05
5.22507e-05
-4.41594e-05
-0.000413937
-0.000404647
-0.000410543
-0.000406335
0.00157852