/*--------------------------------*- C++ -*----------------------------------*\
| =========                 |                                                 |
| \\      /  F ield         | OpenFOAM: The Open Source CFD Toolbox           |
|  \\    /   O peration     | Version:  2012                                  |
|   \\  /    A nd           | Website:  www.openfoam.com                      |
|    \\/     M anipulation  |                                                 |
\*---------------------------------------------------------------------------*/
FoamFile
{
    version     2.0;
    format      ascii;
    class       volVectorField;
    location    "0.106/fluid";
    object      U;
}
// * * * * * * * * * * * * * * * * * * * * * * * * * * * * * * * * * * * * * //

dimensions      [0 1 -1 0 0 0 0];


internalField   nonuniform List<vector> 
16421
(
(1.14833 -0.00645662 -0.0191046)
(1.17147 -0.00216303 0.00156661)
(1.18555 -0.000752378 -0.000185471)
(1.19154 -0.000315546 -0.000185905)
(1.19465 -0.0001281 -0.000112095)
(1.19634 -6.23768e-05 -6.87448e-05)
(1.19734 -4.05403e-05 -4.2733e-05)
(1.19797 -3.20047e-05 -2.67408e-05)
(1.1984 -2.80627e-05 -1.72553e-05)
(1.19869 -2.64227e-05 -1.15745e-05)
(1.1989 -2.99492e-05 -7.1096e-06)
(1.19907 -3.68921e-05 -5.02307e-06)
(1.19924 -4.44482e-05 -3.75613e-06)
(1.22401 -0.0499145 -0.132296)
(1.1795 -0.0365929 0.0231364)
(1.18276 -0.0131679 0.00175357)
(1.18889 -0.00578862 4.34678e-05)
(1.19298 -0.00292342 -0.000154224)
(1.19552 -0.00160441 -0.00010495)
(1.19709 -0.000924472 -6.78653e-05)
(1.19806 -0.000549209 -4.41695e-05)
(1.19867 -0.000331941 -2.86877e-05)
(1.19905 -0.000203519 -1.91041e-05)
(1.1993 -0.000124401 -1.36538e-05)
(1.19946 -7.02594e-05 -1.07241e-05)
(1.19957 -3.65648e-05 -9.07155e-06)
(1.19964 -1.35621e-05 -8.20099e-06)
(1.21835 -0.0155647 -0.118267)
(1.20004 -0.0178483 0.0296098)
(1.19252 -0.0121198 0.00257836)
(1.19316 -0.00709939 0.000217781)
(1.19494 -0.00412945 -0.000145732)
(1.19649 -0.00243993 -0.000112895)
(1.19759 -0.00146723 -7.43493e-05)
(1.19831 -0.000895 -4.90076e-05)
(1.1988 -0.000552165 -3.40491e-05)
(1.19911 -0.000343524 -2.33967e-05)
(1.19931 -0.000211791 -1.71176e-05)
(1.19946 -0.000129703 -1.6014e-05)
(1.19956 -7.57419e-05 -1.48415e-05)
(1.19964 -3.98252e-05 -1.43385e-05)
(1.17406 0.0168219 -0.0569248)
(1.19501 -0.00823197 0.0156551)
(1.19524 -0.00932098 0.00146144)
(1.19587 -0.00652124 -3.9346e-07)
(1.19675 -0.00419991 -0.000183703)
(1.19758 -0.00264182 -0.000126823)
(1.19822 -0.00165453 -8.01043e-05)
(1.19866 -0.00103632 -5.33048e-05)
(1.19898 -0.000651727 -3.85683e-05)
(1.19921 -0.000408604 -2.84134e-05)
(1.19936 -0.00025271 -2.28951e-05)
(1.19948 -0.000154924 -2.18091e-05)
(1.19958 -9.4812e-05 -2.07748e-05)
(1.19966 -5.13421e-05 -2.08639e-05)
(0.991689 -0.229181 -0.0354612)
(1.16252 0.00498004 -0.0163728)
(1.17753 -0.00222452 -0.00670821)
(1.18711 -0.000714094 -0.00324424)
(1.19233 -0.000296447 -0.00182641)
(1.19516 -0.000121652 -0.00109761)
(1.19672 -6.14055e-05 -0.000675688)
(1.19766 -4.06715e-05 -0.000422294)
(1.19825 -3.16471e-05 -0.000265481)
(1.19864 -2.80121e-05 -0.000168294)
(1.19892 -2.75112e-05 -0.000105545)
(1.19912 -3.02288e-05 -6.7764e-05)
(1.19929 -3.69331e-05 -4.2094e-05)
(1.19945 -4.45871e-05 -2.40564e-05)
(1.32919 -0.0485087 -0.0386256)
(1.22315 -0.0854487 -0.0467681)
(1.19066 -0.0345468 -0.0160436)
(1.18735 -0.0126624 -0.00591214)
(1.19046 -0.00556474 -0.00297903)
(1.19378 -0.00280036 -0.00170024)
(1.19612 -0.00155023 -0.00103858)
(1.19757 -0.000899144 -0.000647712)
(1.19846 -0.000536597 -0.00040794)
(1.19902 -0.00032639 -0.000258016)
(1.19937 -0.00020071 -0.000163676)
(1.1996 -0.000122302 -0.000103848)
(1.19974 -7.15708e-05 -6.55149e-05)
(1.19982 -3.84682e-05 -4.07059e-05)
(1.19987 -1.55258e-05 -2.28967e-05)
(1.24784 0.00184655 -0.0600672)
(1.23788 -0.0161348 -0.0554738)
(1.21127 -0.0169928 -0.0142803)
(1.19688 -0.0114186 -0.00465601)
(1.19494 -0.00680203 -0.00243712)
(1.19595 -0.00398709 -0.0014404)
(1.19726 -0.00236728 -0.000906163)
(1.1982 -0.00142835 -0.000578519)
(1.19883 -0.000874213 -0.000370756)
(1.19925 -0.000542303 -0.000237867)
(1.19951 -0.000338577 -0.000152218)
(1.19968 -0.000210283 -9.74571e-05)
(1.19979 -0.000129835 -6.19424e-05)
(1.19986 -7.70907e-05 -3.85219e-05)
(1.19991 -4.15055e-05 -2.14302e-05)
(1.33676 0.10769 -0.0235336)
(1.19148 0.0240155 -0.0368114)
(1.20081 -0.00282942 -0.00900092)
(1.19951 -0.00795752 -0.00323545)
(1.19796 -0.0061434 -0.0018081)
(1.19803 -0.00404789 -0.00112944)
(1.19854 -0.00255904 -0.000742548)
(1.19898 -0.00160768 -0.000489897)
(1.19931 -0.0010106 -0.00032143)
(1.19954 -0.000637757 -0.000210824)
(1.1997 -0.000402018 -0.000136862)
(1.19981 -0.000252287 -8.9771e-05)
(1.19988 -0.000156097 -5.74648e-05)
(1.19992 -9.42551e-05 -3.47173e-05)
(1.19995 -5.22474e-05 -1.9024e-05)
(1.00313 -0.222334 -0.018657)
(1.16607 0.00594879 -0.0144755)
(1.18058 -0.00190442 -0.00858287)
(1.18927 -0.00061689 -0.00496429)
(1.19363 -0.000256152 -0.00300356)
(1.1959 -0.000109193 -0.0018381)
(1.19717 -5.82825e-05 -0.00113908)
(1.19793 -3.92666e-05 -0.000713687)
(1.19842 -3.09943e-05 -0.000450299)
(1.19875 -2.86104e-05 -0.000284575)
(1.19899 -2.90967e-05 -0.000180366)
(1.19917 -3.01804e-05 -0.000113582)
(1.19933 -3.68148e-05 -7.05286e-05)
(1.19947 -4.47639e-05 -4.07806e-05)
(1.33315 -0.0180574 -0.00959859)
(1.21033 -0.0610011 -0.020379)
(1.18522 -0.028043 -0.0144359)
(1.18856 -0.0107291 -0.00810353)
(1.19208 -0.00486448 -0.00460032)
(1.19496 -0.00251998 -0.00279902)
(1.19684 -0.00141521 -0.00174205)
(1.19801 -0.00083017 -0.00109213)
(1.19874 -0.000500654 -0.000689393)
(1.19919 -0.000307429 -0.00043744)
(1.19948 -0.000190014 -0.00027783)
(1.19967 -0.000115906 -0.000176393)
(1.19978 -6.8645e-05 -0.000112109)
(1.19986 -3.75238e-05 -6.97493e-05)
(1.1999 -1.5907e-05 -4.03092e-05)
(1.25673 0.00119221 -0.0138975)
(1.21872 -0.0181755 -0.0206754)
(1.20103 -0.0162686 -0.0130324)
(1.19642 -0.0102962 -0.00688068)
(1.19592 -0.00607961 -0.00386326)
(1.19686 -0.00359776 -0.00238263)
(1.19787 -0.00216322 -0.00152622)
(1.19859 -0.001321 -0.000980243)
(1.19908 -0.000816212 -0.000630486)
(1.19941 -0.000511433 -0.000406179)
(1.19962 -0.00032095 -0.000260082)
(1.19975 -0.000202004 -0.0001667)
(1.19984 -0.000125745 -0.000107938)
(1.1999 -7.50077e-05 -6.76635e-05)
(1.19993 -4.1019e-05 -3.97707e-05)
(1.3209 0.085001 0.00116561)
(1.19106 0.00102861 -0.0143625)
(1.19608 -0.00548856 -0.00909417)
(1.19936 -0.00739995 -0.00501083)
(1.19867 -0.00554345 -0.00294081)
(1.19872 -0.00365794 -0.00189499)
(1.19901 -0.00234025 -0.0012594)
(1.19929 -0.00148659 -0.000836011)
(1.19952 -0.000943934 -0.000553018)
(1.19968 -0.000600103 -0.000362849)
(1.19979 -0.000383272 -0.000235878)
(1.19987 -0.000243355 -0.000155991)
(1.19992 -0.000151534 -0.000101716)
(1.19995 -9.08165e-05 -6.3535e-05)
(1.19997 -5.13359e-05 -3.78356e-05)
(1.2401 -0.202115 0.224919)
(0.755758 -0.369087 -0.0406084)
(1.46892 0.0546978 -0.0381315)
(1.22225 -0.0997027 0.0314617)
(1.11459 -0.00185589 -0.0553615)
(1.22096 -0.177387 -0.0900626)
(1.15578 -0.0643225 0.0028157)
(0.998991 -0.226767 -0.0260337)
(1.14849 0.00738152 -0.00884107)
(1.17549 -0.0855882 0.0288984)
(1.15087 -0.0336747 -0.00324445)
(1.33308 -0.0136284 -0.12234)
(1.25254 -0.0181351 -0.120778)
(1.399 0.0304404 -0.000877094)
(1.22267 -0.0452856 0.0653252)
(1.33007 0.00846628 0.0379317)
(1.19567 -0.0170961 0.0873418)
(1.24935 -0.0102005 -0.121335)
(1.22291 0.00781667 -0.152871)
(1.32313 0.00235595 0.0403191)
(1.19283 -0.0199293 0.0897094)
(1.32353 -0.0439847 0.0237687)
(1.17759 -0.014142 0.0544726)
(1.17539 0.0367106 -0.0452979)
(1.34791 0.0296431 -0.0444394)
(1.17865 -0.0556627 0.0121309)
(0.734129 -0.375976 -0.0393084)
(1.39925 -0.0562367 -0.0251379)
(1.21987 -0.189169 -0.0630338)
(0.754421 -0.362973 -0.0159329)
(1.40928 0.00146209 -0.00235421)
(1.22681 -0.138316 -0.00318355)
(1.17089 0.0316529 -0.0451598)
(1.32387 0.0681352 -0.0184656)
(1.18806 -0.0140886 -0.000228727)
(0.750171 -0.363869 -0.0198598)
(1.39708 -0.0176222 -0.00798125)
(1.22441 -0.147866 -0.0194718)
(1.18231 0.00228042 -0.0146684)
(1.83473 -0.352639 -0.12486)
(2.02666 0.116481 -0.0395133)
(-0.501167 -0.0340454 -0.101622)
(1.08833 -0.041026 -0.0209281)
(0.909835 0.0537711 -0.173547)
(0.509016 -0.366726 -0.255394)
(0.972295 -0.175072 0.0243336)
(1.14613 -0.119717 -0.0726937)
(0.929908 -0.17307 -0.100811)
(1.13303 -0.0417571 -0.0165618)
(1.44926 -0.00119863 0.188103)
(0.60004 0.364726 -0.268158)
(1.46419 -0.0195746 -0.0719053)
(1.45211 -0.0398488 0.16753)
(1.3964 0.0626549 0.0193535)
(0.730988 -0.0752529 -0.317003)
(1.37789 -0.000462116 0.152054)
(0.712662 0.056394 -0.307329)
(1.34866 -0.0261169 0.00373583)
(1.39112 -0.000892445 0.163228)
(1.34431 0.0430216 -0.00417172)
(0.708146 -0.0393016 -0.304868)
(0.710571 0.211111 -0.296287)
(1.35872 7.18463e-05 -0.0531151)
(1.20885 -0.0276337 -0.193738)
(1.1938 -0.000885839 0.00962713)
(1.1642 -0.0440167 0.0157853)
(1.17226 -0.0228891 0.00253342)
(1.73534 -0.392191 -0.0369595)
(-0.460909 -0.0417971 -0.0698005)
(1.97922 0.0296306 -0.00116401)
(1.7264 -0.410918 -0.0293345)
(1.96518 0.0165178 -0.0306309)
(-0.454769 -0.0404027 -0.0177764)
(1.23594 -0.0137087 -0.0719292)
(1.2591 0.0727088 -0.0529884)
(1.21612 0.0732703 -0.0657471)
(1.26773 0.00101988 0.00957076)
(1.22807 -0.0174286 0.0104055)
(1.27052 0.0132023 0.00643619)
(1.21064 0.0311134 0.00514642)
(1.22505 0.103537 -0.0599439)
(1.33256 0.0543021 -0.0256056)
(1.24642 0.0336101 -0.031473)
(1.19997 0.00321725 -0.0133399)
(1.1899 -0.012713 0.000918793)
(1.18866 -0.00971006 -0.00101083)
(1.70464 -0.395948 -0.0226437)
(-0.444933 -0.0430942 -0.0386725)
(1.95038 0.0049375 0.0168002)
(1.70728 -0.402698 0.00342615)
(1.94134 0.00530028 -0.0197029)
(-0.440658 -0.0439649 -0.00757835)
(1.2282 -0.01611 -0.0210862)
(1.26012 0.0333288 -0.0105444)
(1.21167 0.0431117 -0.0175269)
(1.23063 0.0693349 -0.0165165)
(1.31675 0.0756681 -0.0169106)
(1.23308 0.0576517 -0.0120854)
(1.19396 -0.00273572 -0.0104232)
(1.6768 -0.403 -0.178887)
(0.0677748 -0.243205 -0.340295)
(0.787796 -0.239424 -0.00721991)
(1.20303 -0.19338 -0.0968619)
(-0.249209 -0.283361 -0.195104)
(1.49946 -0.163123 -0.192911)
(1.00972 0.364938 -0.447459)
(1.50497 0.0405514 -0.0698423)
(1.68694 0.0778669 -0.144616)
(1.47651 -0.0235291 -0.00644772)
(1.39569 -0.179279 -0.186669)
(0.496534 -0.202094 -0.318302)
(1.43534 0.255434 0.274794)
(1.19205 -0.0370511 0.172689)
(1.12968 -0.150976 -0.0697468)
(1.35472 0.00236181 0.138069)
(1.74145 -0.393241 -0.0951603)
(-0.466265 -0.0371937 -0.0438953)
(1.97844 0.0429765 -0.0404262)
(1.98034 0.125471 0.0264009)
(1.75568 -0.382373 -0.0637476)
(-0.45962 -0.0349528 -0.0928265)
(1.41648 -0.00556594 0.171612)
(0.715149 -0.0598795 -0.308123)
(1.3523 0.0502 -0.00359833)
(1.37969 -0.00490182 0.0145304)
(1.39836 -0.000143872 0.157583)
(0.726627 0.044085 -0.313585)
(1.37181 0.00719532 0.171465)
(0.704662 0.0949807 -0.301615)
(1.3738 -6.43623e-05 0.020699)
(1.34586 -0.0225391 0.0159246)
(1.3559 -0.0413201 0.12211)
(0.70676 0.0777594 -0.30743)
(1.08115 0.160385 0.190846)
(1.11556 -0.0523671 0.0202686)
(1.22286 -0.068679 0.022802)
(1.35102 0.135913 -0.0956804)
(1.2587 0.00593685 -0.080014)
(1.21404 0.179005 -0.106362)
(1.1658 0.0957894 -0.0691)
(1.22389 -0.0382301 -0.0029461)
(1.13521 0.134977 -0.0952226)
(1.71437 -0.408416 -0.00695117)
(-0.447391 -0.0425003 -0.00804088)
(1.95339 0.00850952 -0.0240864)
(1.96183 0.00880635 0.0101567)
(1.71822 -0.395986 -0.0266661)
(-0.452281 -0.0420469 -0.0477836)
(1.16561 0.062061 -0.0422903)
(1.15177 0.0454046 -0.0234215)
(1.1889 -0.0273823 0.00528776)
(1.20904 -0.0032532 -0.00261496)
(1.18095 0.0171678 -0.00481181)
(1.32779 0.0920273 -0.00532107)
(1.23822 0.0495221 -0.0153362)
(1.22966 0.0791647 -0.0290881)
(1.17833 0.010736 -0.0237245)
(1.19905 0.0119098 -0.00387431)
(1.1767 0.0250566 -0.00514956)
(1.18039 0.0392678 -0.0199802)
(1.16242 0.0370768 -0.015788)
(1.69845 -0.397741 0.00742378)
(1.93887 0.0039953 0.0211818)
(-0.43749 -0.0442122 -0.0385302)
(1.18671 0.0297251 -0.0126457)
(1.16787 0.0335134 -0.0119349)
(1.18645 -0.00809261 -0.00520617)
(1.19352 0.0185669 -0.00695818)
(1.17397 0.0288606 -0.00754272)
(1.31344 0.0825404 0.00321312)
(1.22953 0.0652427 -0.0129658)
(1.18445 -0.00145165 -0.0132695)
(1.18908 0.0251444 -0.0130829)
(1.17139 0.0321634 -0.0124331)
(1.12382 -0.129107 0.0412669)
(0.422163 -0.0680554 -0.154221)
(0.0869983 0.146173 0.0337663)
(1.01894 -0.0938529 0.197705)
(1.01316 -0.255556 -0.0626222)
(0.279954 -0.207818 -0.0982823)
(1.17887 -0.129947 -0.0646293)
(1.40139 0.194001 -0.0142594)
(1.62202 0.0833413 -0.264708)
(1.31882 0.111391 -0.130834)
(1.52888 0.241773 0.0223998)
(1.18628 -0.0451437 0.0156511)
(1.22203 -0.0255236 -0.11636)
(1.211 -0.0251178 0.0265403)
(1.17885 -0.0432028 0.0450886)
(1.15595 -0.0315166 -0.00178352)
(1.17195 -0.0206242 0.0614916)
(1.16775 -0.0214795 0.00346445)
(1.23887 0.0132745 -0.0492224)
(1.51899 -0.00683784 -0.0775305)
(1.24383 0.00797143 -0.0490712)
(1.51239 0.040013 -0.0790194)
(1.20869 -0.018204 0.0257399)
(1.20222 -0.00343927 -0.134493)
(1.20452 -0.0073549 0.0180112)
(1.16939 -0.0229034 0.0637239)
(1.16685 -0.021712 0.00485165)
(1.16597 -0.0152965 0.0395142)
(1.17544 -0.0216479 0.00119035)
(1.34024 0.144225 -0.0927127)
(1.55015 -0.00950544 -0.0799295)
(1.292 0.065552 -0.105947)
(1.64792 0.0339386 -0.0516956)
(1.16324 0.00257671 -0.0206497)
(1.20661 -0.149741 -0.0539074)
(1.18792 -0.0495543 -0.0244527)
(1.0042 -0.222228 -0.0131139)
(1.16472 0.00515884 -0.0103988)
(1.20128 -0.107454 -0.00333185)
(1.17504 -0.0343443 -0.00591619)
(1.24352 -0.103743 -0.0585448)
(1.24629 0.000455017 -0.0634024)
(1.2438 -0.0205593 -0.0777502)
(1.34407 -0.00562591 0.00150796)
(1.2425 -0.0623704 0.00182274)
(1.26918 0.00385419 0.0110511)
(1.23212 -0.0175601 0.011326)
(1.16798 0.00418019 -0.0158881)
(1.20282 -0.116074 -0.0199999)
(1.18193 -0.0389029 -0.0164711)
(1.2406 -0.0731622 -0.0200303)
(1.25594 0.00345186 -0.0145076)
(1.23443 -0.0176035 -0.0218555)
(1.1464 -0.455816 -0.0565376)
(0.951497 -0.144892 0.19154)
(1.06137 -0.339867 -0.108144)
(0.406312 -0.195638 0.0745588)
(1.39435 0.0251776 -0.217857)
(1.64241 0.107653 -0.26197)
(1.36124 0.0291024 -0.196307)
(1.57204 0.160755 -0.174406)
(1.36278 -0.559361 -0.072325)
(0.700712 -0.368046 -0.0662179)
(-0.208774 -0.260697 -0.0698006)
(1.25312 -0.357586 -0.0341043)
(1.15745 -0.395061 -0.0784961)
(1.45799 -0.503732 -0.0249204)
(-0.227691 -0.276306 -0.0774595)
(1.46459 -0.262318 -0.029942)
(1.39531 -0.118515 -0.0607552)
(1.67869 0.052086 -0.0395823)
(1.41604 -0.0307132 -0.0242624)
(1.70137 0.00834984 -0.019817)
(1.30605 -0.228232 -0.118872)
(1.52 -0.108556 -0.0324088)
(1.11625 -0.0759972 -0.0195596)
(1.00715 -0.251614 -0.129987)
(1.16633 -0.122907 -0.0790666)
(1.11862 -0.0441875 0.104384)
(1.14784 -0.0987353 -0.0263129)
(1.12034 -0.0403133 0.035883)
(1.0457 -0.154533 -0.0974784)
(1.27883 -0.0119757 0.282678)
(1.17471 0.211079 0.215165)
(1.2713 -0.0576684 -0.114621)
(1.15286 -0.0791705 0.216603)
(1.2893 -0.0256665 0.292769)
(1.14194 -0.0293252 0.218171)
(1.12606 -0.0196398 0.154009)
(1.25473 0.0138201 -0.0483439)
(1.51549 0.0476007 -0.0793052)
(1.24426 0.0161141 -0.0500014)
(1.52901 0.00654093 -0.0741582)
(1.26173 -0.0195697 0.271952)
(1.27093 -0.0217192 -0.123595)
(1.10047 -0.00936764 0.153041)
(1.11922 -0.0167227 0.192001)
(1.12674 -0.0323198 0.203006)
(1.2507 -0.0100496 0.25538)
(1.11702 -0.00350546 0.151876)
(1.23353 -0.0106129 0.247376)
(1.09665 0.00483755 0.153487)
(1.23866 -0.00133108 -0.122465)
(1.11399 -0.0173593 0.196416)
(1.24341 -0.0114354 0.262557)
(1.10659 -0.0130966 0.185725)
(1.08679 0.00617669 0.151643)
(1.24405 0.019429 -0.0680681)
(1.55257 0.0414815 -0.0671661)
(1.26116 0.0611763 -0.07016)
(1.52326 -0.0215121 -0.0829794)
(1.2308 -0.00684511 0.275074)
(1.23647 0.000535523 -0.12929)
(1.05799 0.11776 0.136499)
(1.08763 -0.0350287 0.168577)
(1.10935 -0.0126752 0.208353)
(1.20946 -0.0544831 0.215354)
(1.08972 0.0229918 0.151684)
(1.42007 -0.501512 -0.014302)
(-0.204988 -0.279333 -0.0645035)
(1.207 -0.373627 -0.0428454)
(0.754558 -0.365484 -0.0226377)
(1.38705 -0.531346 -0.0403576)
(1.23106 -0.3518 -0.0150548)
(-0.194942 -0.264103 -0.0375006)
(1.49513 -0.143584 -0.00651941)
(1.66961 0.00626686 -0.0216846)
(1.34389 -0.136098 -0.0464168)
(1.42875 0.0160722 -0.00939135)
(1.45382 -0.194284 -0.0396066)
(1.66034 0.0221417 -0.0175036)
(1.37909 -0.0711248 -0.00682427)
(1.39168 -0.518267 -0.0225917)
(0.744546 -0.369507 -0.0261073)
(-0.18578 -0.264688 -0.0243452)
(1.22271 -0.35015 -0.0110087)
(1.21449 -0.362481 -0.0252211)
(1.40286 -0.501836 -0.0110088)
(-0.192992 -0.271867 -0.0409496)
(1.45814 -0.176085 -0.0212125)
(1.40035 -0.0286408 -0.013681)
(1.64768 0.0125888 -0.0082459)
(1.36237 -0.0827713 -0.00333846)
(1.65339 0.00369265 -0.0107373)
(1.35309 -0.107813 -0.022739)
(1.47477 -0.154648 -0.00498275)
(1.39165 -0.500032 -0.0107351)
(-0.184107 -0.267103 -0.0301795)
(1.21509 -0.354379 -0.0175514)
(0.754438 -0.359957 -0.0157559)
(1.39014 -0.508237 -0.0150089)
(1.21663 -0.347729 -0.0115433)
(-0.177974 -0.263541 -0.0219657)
(1.4612 -0.158065 -0.00549497)
(1.64309 0.00522041 -0.00415733)
(1.35193 -0.09749 -0.0132727)
(1.39782 -0.00497507 -0.000972218)
(1.45763 -0.167161 -0.0122527)
(1.63662 0.00896273 -0.00366765)
(1.35241 -0.0868961 -0.00371314)
(1.38467 -0.500341 -0.0137065)
(0.753895 -0.358628 -0.0197082)
(1.21266 -0.3478 -0.0160336)
(-0.175822 -0.263241 -0.0299762)
(1.45215 -0.161873 -0.00918257)
(1.3909 -0.0126709 -0.00466925)
(1.6325 0.00647025 -0.000209558)
(1.34674 -0.0923648 -0.0094184)
(-0.290238 0.28762 -0.184541)
(-0.538271 -0.0204933 -0.179227)
(0.177048 0.0570629 0.0011855)
(-0.459115 0.411803 -0.307979)
(2.24495 0.396021 -0.18912)
(2.22653 0.127623 -0.174199)
(-0.117768 0.0657199 -0.250384)
(1.9351 -0.16712 -0.100455)
(2.017 0.173832 -0.0847728)
(1.97973 -0.0962464 -0.118106)
(-0.0787634 0.0206187 0.000947593)
(-0.353963 0.580853 -0.200931)
(1.61793 -0.456386 -0.134137)
(0.896855 -0.269728 0.118927)
(2.11119 -0.00795724 -0.193777)
(-0.236289 0.236485 -0.16059)
(0.695237 -0.389252 -0.0679724)
(-0.40243 0.00906485 0.00358014)
(0.477443 -0.0416056 -0.0036364)
(-0.19853 0.203907 -0.0571167)
(1.04726 -0.118064 -0.0579772)
(0.0360962 0.0632067 -0.00371787)
(1.12585 -0.210694 -0.129055)
(0.681792 -0.352469 -0.224658)
(1.06269 -0.243797 -0.0866207)
(1.10743 -0.181547 -0.0937735)
(0.545756 -0.319431 -0.233972)
(1.22569 0.102353 -0.160448)
(1.0658 0.0225134 -0.334565)
(0.690849 -0.102883 -0.3035)
(1.08976 0.0889218 -0.157156)
(1.17027 -0.109363 -0.376968)
(1.40118 0.164867 0.0411369)
(1.53383 0.086205 -0.0287985)
(1.48828 0.174252 0.0722451)
(1.29743 0.0412653 -0.019)
(1.26009 0.0990351 -0.150154)
(1.13222 -0.066842 -0.386622)
(0.718848 0.00652843 -0.312316)
(1.17555 0.0811043 -0.392048)
(1.18567 0.0228468 -0.15964)
(1.10474 -0.0166537 -0.163661)
(1.06661 0.089438 -0.391586)
(0.711839 -0.0551375 -0.30654)
(1.10773 0.034675 -0.164681)
(1.06222 -0.0791614 -0.390423)
(1.23622 0.00265445 -0.0522298)
(1.51474 0.0412374 -0.0802352)
(1.51443 -0.017765 -0.0807684)
(1.23588 0.019615 -0.05221)
(1.10157 0.0335037 -0.166485)
(1.05549 -0.0696741 -0.395942)
(0.708273 0.0618991 -0.306451)
(1.06005 0.0882138 -0.395031)
(1.09978 -0.00994665 -0.165898)
(1.3619 0.175633 -0.0898694)
(1.26469 0.141098 -0.122163)
(1.30456 0.119147 0.000690556)
(1.39077 0.138609 -0.111267)
(1.18571 0.171047 -0.183013)
(1.09556 0.140271 -0.240881)
(0.732716 0.0828269 -0.307502)
(1.18779 0.0862959 -0.173316)
(1.06956 0.1896 -0.235159)
(1.48181 0.180308 -0.140468)
(1.77897 0.0381013 -0.126301)
(1.44148 0.198982 -0.121332)
(1.61247 0.0927109 -0.0996618)
(1.67273 0.17362 -0.14051)
(1.44784 0.138982 -0.109469)
(1.36911 0.219814 -0.0961888)
(0.776193 0.254676 -0.371731)
(1.21455 0.309554 -0.209665)
(-0.183711 0.194948 -0.0700608)
(0.689482 -0.408176 -0.0426135)
(-0.462684 -0.0429226 -0.0118833)
(-0.174602 0.182833 0.0277525)
(0.714949 -0.411186 -0.036024)
(-0.0273569 -0.0271434 -0.0369501)
(1.87332 -0.192128 -0.02298)
(1.97909 -0.00980758 -0.0103232)
(-0.0870133 0.0281393 -0.00541121)
(1.85653 -0.234909 -0.00365522)
(-0.00475822 -0.0371043 -0.024883)
(1.85608 -0.20246 -0.0420228)
(1.975 -0.00102422 0.0302158)
(1.85943 -0.221338 0.0357249)
(-0.0294801 -0.0218683 -0.0171811)
(-0.168159 0.18401 0.00989573)
(0.704974 -0.391943 -0.0299725)
(-0.454902 -0.0399424 -0.0416911)
(0.711912 -0.390931 -0.0371992)
(-0.180584 0.19269 -0.0574322)
(1.37541 0.153683 0.0173171)
(1.27689 0.151206 -0.0157429)
(1.27893 0.149816 -0.00462478)
(1.37392 0.154725 -0.0345984)
(1.4157 0.171734 -0.0238115)
(1.55827 0.149068 0.00579897)
(1.41839 0.172595 -0.0108111)
(1.55321 0.147039 -0.0311915)
(1.36576 0.164939 -0.0219792)
(1.26849 0.159726 -0.030326)
(1.36805 0.165062 -0.0143149)
(1.2657 0.161448 -0.00694227)
(1.42342 0.160839 0.0203453)
(1.55535 0.13575 -0.0439508)
(1.55781 0.135418 0.0343083)
(1.4218 0.161695 -0.0361002)
(-0.177379 0.191623 -0.0548508)
(0.704382 -0.397026 -0.0274487)
(-0.444922 -0.0437175 -0.00499876)
(-0.16935 0.184595 0.0252124)
(0.705464 -0.397963 -0.0186724)
(-0.0226392 -0.0277182 -0.0152048)
(1.83519 -0.21272 0.0122839)
(1.94687 0.00215907 -0.0183402)
(-0.0210816 -0.0259043 -0.0103974)
(1.83087 -0.214967 -0.0218493)
(-0.0179087 -0.0282664 -0.0101926)
(1.82735 -0.210745 -0.0253217)
(1.9459 0.00397917 0.022868)
(1.83093 -0.212525 0.0209615)
(-0.0228922 -0.0273861 -0.0161233)
(-0.168855 0.184784 0.0253432)
(0.702536 -0.393917 -0.0213707)
(-0.441275 -0.0435801 -0.0356506)
(0.703272 -0.394297 -0.0240457)
(-0.177237 0.191787 -0.0553752)
(1.36155 0.156706 0.0150355)
(1.26327 0.153431 -0.00839175)
(1.26445 0.153427 -0.0071151)
(1.35991 0.156368 -0.0282591)
(1.40859 0.165602 -0.0270442)
(1.5414 0.143293 0.0270925)
(1.41035 0.165636 0.0137789)
(1.53887 0.143364 -0.0353665)
(1.36123 0.158435 -0.0251399)
(1.26517 0.155152 -0.0105565)
(1.36296 0.158395 0.0105472)
(1.26393 0.155473 -0.00613895)
(1.40851 0.163969 0.0183111)
(1.53546 0.141794 -0.037733)
(1.53823 0.141793 0.0321881)
(1.40669 0.163618 -0.0299772)
(1.0898 -0.454243 -0.12073)
(-0.464652 -0.070603 -0.230112)
(0.472894 -0.201828 -0.0278071)
(0.156843 -0.173107 -0.0455068)
(1.48526 -0.498161 -0.0918083)
(1.12034 -0.189979 -0.0701775)
(-0.118381 0.197691 0.0690309)
(1.17461 -0.315871 -0.105146)
(1.29951 -0.216558 -0.00321749)
(1.52137 -0.531378 -0.125336)
(1.44966 -0.465462 -0.125153)
(1.2 -0.487901 0.0882359)
(1.34274 -0.292348 -0.0822152)
(1.42911 0.0600788 -0.165251)
(1.94805 0.3023 -0.173113)
(1.93215 0.152336 -0.102392)
(1.49064 0.194569 -0.157822)
(1.26563 -0.00958655 -0.319411)
(1.17835 -0.149234 -0.475938)
(1.52783 -0.00802464 -0.621648)
(1.20954 -0.0292417 -0.251146)
(1.13998 -0.147641 -0.505797)
(1.36394 -0.00527462 -0.165762)
(1.48082 -0.373766 -0.0410882)
(0.862714 -0.379559 -0.0863205)
(1.84037 0.0440024 -0.0574797)
(1.1797 -0.212637 -0.181347)
(1.17817 -0.360576 -0.104036)
(1.12725 -0.432154 -0.0472868)
(1.1754 -0.305069 -0.15368)
(-0.0953424 0.216443 -0.0168218)
(1.29713 -0.288697 0.122649)
(1.14557 -0.363273 -0.113051)
(1.36457 -0.301654 0.0413224)
(1.17502 -0.386317 -0.136203)
(1.35568 -0.39544 -0.0459682)
(0.952685 -0.42331 -0.0646126)
(1.31161 -0.313803 0.0498542)
(1.10864 -0.307993 -0.158984)
(1.24168 -0.199552 0.0415114)
(-0.16034 0.189139 -0.0304841)
(0.705579 -0.390233 -0.0265697)
(-0.460293 -0.0344658 -0.0520426)
(-0.18382 0.193752 -0.0532222)
(0.760601 -0.390249 -0.0650543)
(0.0738178 -0.0968253 -0.0509855)
(2.00993 -0.0211758 0.0618987)
(1.87713 -0.177252 -0.0679236)
(-0.0583071 0.00353245 -0.00443714)
(1.88247 -0.255886 0.0861193)
(0.00684684 -0.0606431 -0.0902037)
(1.9301 -0.135163 -0.0233473)
(2.03757 -0.0376748 0.0314219)
(-0.146662 0.104569 -0.0209549)
(1.90347 -0.289187 0.0637626)
(-0.191993 0.206414 -0.112224)
(0.670577 -0.414074 -0.0969155)
(-0.48277 -0.0425438 -0.026263)
(-0.17747 0.179527 0.0303295)
(0.753016 -0.43101 -0.0903325)
(1.25876 0.0189285 -0.0465811)
(1.54119 0.0349895 -0.0466181)
(1.28108 0.0347757 -0.0327371)
(1.52368 0.0575798 -0.072377)
(1.11688 0.0375527 -0.166235)
(1.07113 -0.0779045 -0.392045)
(0.717513 0.0498293 -0.309171)
(1.11163 -0.0131751 -0.164815)
(1.07671 0.0890019 -0.395521)
(1.12898 -0.00556659 -0.164317)
(1.10085 0.0952698 -0.396854)
(0.722132 -0.0663145 -0.311463)
(1.14176 0.0542293 -0.165983)
(1.0892 -0.0759705 -0.389878)
(1.24456 0.0251433 -0.0540074)
(1.51456 -0.0176392 -0.0794471)
(1.23977 0.00953495 -0.0563632)
(1.52426 0.0367805 -0.0733368)
(1.11468 0.05405 -0.181562)
(1.04379 0.0187862 -0.458096)
(0.708921 0.114563 -0.309491)
(1.10876 0.0410538 -0.194603)
(1.06185 0.0996491 -0.41549)
(1.10198 -0.00152448 -0.171372)
(1.06068 0.0948418 -0.398396)
(0.706249 -0.00535259 -0.304362)
(1.10711 0.040753 -0.170512)
(1.04795 -0.0570661 -0.41278)
(1.18091 -0.0942082 0.0800938)
(1.19809 0.0836239 -0.161807)
(1.24174 -0.00862971 0.0472598)
(1.16304 0.0132023 -0.18815)
(1.1622 0.24707 -0.209952)
(1.13163 0.110637 0.109694)
(1.18452 0.298673 -0.201566)
(1.2181 -0.0212021 0.188357)
(1.36058 0.168262 -0.0244095)
(1.25702 0.18232 -0.0681598)
(1.33979 0.197721 -0.0846783)
(1.24802 0.169415 -0.0161484)
(1.43348 0.157211 0.013457)
(1.5748 0.127199 -0.0563839)
(1.43627 0.155496 -0.0513806)
(1.57599 0.130885 0.0266594)
(1.41656 0.172787 -0.0279424)
(1.56105 0.171919 -0.0512498)
(1.39792 0.204535 -0.0811086)
(1.5684 0.143237 -0.0365841)
(1.38373 0.149505 0.0128643)
(1.28473 0.145279 -0.0340895)
(1.38694 0.148837 -0.0504248)
(1.29099 0.14305 -0.00457686)
(1.14153 0.117783 -0.013271)
(1.18191 0.136841 -0.0583258)
(1.14981 0.101699 -0.0566809)
(1.16645 0.144865 -0.0158287)
(1.1941 0.0118458 0.0332913)
(1.21903 0.0801123 -0.045022)
(1.22496 0.0721939 0.0111584)
(1.19227 0.0202119 -0.0601731)
(-0.169313 0.184559 0.0232684)
(0.704654 -0.394073 -0.022235)
(-0.447829 -0.042123 -0.0362483)
(-0.178187 0.19177 -0.0553236)
(0.706154 -0.394206 -0.0263024)
(-0.0163391 -0.0292817 -0.0125438)
(1.9587 0.00362808 0.0243156)
(1.84063 -0.209405 -0.0305746)
(-0.024371 -0.0261655 -0.0155105)
(1.84388 -0.2144 0.0241589)
(-0.0240147 -0.0273371 -0.0190666)
(1.84771 -0.210508 0.00100817)
(1.95912 -0.00142198 -0.0170974)
(-0.0316314 -0.01778 -0.0113519)
(1.84083 -0.220802 -0.0182722)
(-0.179133 0.19227 -0.0579624)
(0.703921 -0.400568 -0.0357367)
(-0.45276 -0.0430062 -0.00593471)
(-0.17012 0.183633 0.0231718)
(0.709462 -0.402683 -0.0220147)
(1.19002 0.0362246 0.0110256)
(1.21317 0.092376 -0.0207391)
(1.21376 0.0905311 0.000806975)
(1.19088 0.0371129 -0.0282121)
(1.16696 0.0741795 0.000854861)
(1.19638 0.114428 -0.0340099)
(1.19371 0.11769 -0.00479099)
(1.16794 0.0721256 -0.0408421)
(1.36434 0.160829 -0.0232924)
(1.26809 0.15654 -0.0160162)
(1.36646 0.160367 0.0037448)
(1.26652 0.157528 -0.00556707)
(1.4149 0.163343 0.0195215)
(1.54464 0.13976 -0.0391717)
(1.41347 0.163565 -0.0307116)
(1.54674 0.139299 0.0329721)
(1.4126 0.167882 -0.0251848)
(1.54872 0.144657 0.0204746)
(1.41475 0.167682 0.00696932)
(1.54563 0.144427 -0.0334149)
(1.36745 0.156189 0.0164367)
(1.26969 0.15308 -0.00933537)
(1.36613 0.156405 -0.0289793)
(1.27084 0.152696 -0.0052567)
(1.17521 0.0607809 -0.00322937)
(1.20054 0.107807 -0.0183047)
(1.17609 0.060032 -0.0227367)
(1.19911 0.109071 -0.00553335)
(1.18583 0.0449581 0.00249339)
(1.20677 0.0982455 -0.0125816)
(1.20716 0.0976556 -0.00263845)
(1.18618 0.0451092 -0.016717)
(1.82387 -0.211723 0.0173321)
(1.93411 0.00342133 -0.0166818)
(-0.0184504 -0.0276526 -0.0112784)
(0.701378 -0.393779 -0.0272717)
(-0.436797 -0.0447663 -0.0107668)
(-0.168059 0.184497 0.0231919)
(1.18293 0.0484277 -0.00372)
(1.20189 0.100835 -0.0111469)
(1.20241 0.10056 -0.0060024)
(1.18306 0.0483894 -0.0136152)
(1.17891 0.0545337 -0.00763771)
(1.20095 0.104654 -0.0114094)
(1.19996 0.105162 -0.00753851)
(1.17949 0.0543113 -0.013109)
(1.26065 0.153795 -0.0105692)
(1.358 0.156981 0.0118794)
(1.25907 0.153839 -0.00956933)
(1.53312 0.143363 0.0303296)
(1.40465 0.164305 0.0154873)
(1.18065 0.0515517 -0.01291)
(1.19945 0.102855 -0.0109069)
(1.18091 0.0514649 -0.0112376)
(1.19848 0.103265 -0.0118207)
(0.625492 -0.152779 -0.205496)
(0.619455 -0.041168 -0.240104)
(0.45668 -0.265738 -0.0381226)
(-0.17303 0.237331 -0.11815)
(0.924545 -0.094191 -0.429984)
(1.16463 -0.00287092 0.00473673)
(1.15977 -0.0437001 0.0148122)
(1.17688 -0.0147005 0.0037124)
(1.14838 0.00776284 -0.00834035)
(1.16669 -0.00241307 -0.00643537)
(1.15396 -0.0248017 -0.00667891)
(1.17314 -0.0122907 -0.00552308)
(1.05911 0.422326 -0.131839)
(1.45594 0.467172 -0.192134)
(1.20265 0.0331188 -0.231915)
(1.19922 -0.0174083 -0.227885)
(1.30943 0.0891329 -0.257028)
(1.29222 0.0580207 -0.254934)
(0.465353 -0.0223377 -0.183535)
(0.321343 -0.311027 -0.0466309)
(0.0337201 -0.0321379 -0.0981183)
(1.76539 0.292553 -0.403236)
(1.59812 0.395751 -0.261333)
(1.35005 -0.302913 -0.171023)
(1.33825 -0.16153 0.0710415)
(1.30173 -0.123319 0.289907)
(1.31921 -0.233942 -0.262168)
(1.28138 -0.29661 -0.184161)
(1.37291 -0.182213 -0.27822)
(1.28509 -0.13911 0.0603804)
(1.10272 -0.0198877 -0.00323997)
(1.03576 0.00439191 -0.100375)
(1.11708 -0.0399723 -0.0407431)
(1.11424 -0.00523341 0.00120016)
(1.11305 -0.0181202 -0.00929052)
(1.04691 -0.0892018 -0.07026)
(1.12422 -0.00586135 0.00201143)
(1.20819 -0.0159707 -0.231457)
(1.1986 0.0332838 -0.22881)
(1.264 0.0330788 -0.247423)
(1.26732 0.0701271 -0.245716)
(-0.00720503 0.241687 -0.137924)
(1.92924 -0.238907 -0.0705738)
(1.87219 -0.272962 -0.0427661)
(1.33655 -0.472342 0.028079)
(1.1882 -0.28689 0.137724)
(1.92416 -0.159485 -0.0832124)
(0.204087 0.106506 0.0272206)
(1.12508 -0.0182315 0.0365813)
(0.685564 0.0284534 -0.201216)
(0.762723 -0.00584185 -0.152593)
(1.1556 -0.031895 -0.155077)
(1.13029 -0.0182584 -0.056637)
(0.490934 -0.1391 -0.0964244)
(1.16702 -0.0581376 -0.170448)
(1.02713 0.0474047 0.125627)
(0.574611 0.00732924 -0.0665957)
(1.27777 0.0489366 0.502761)
(0.61393 0.0623811 -0.273409)
(1.12635 0.123685 0.41441)
(1.21565 -0.0160249 0.191855)
(0.510798 -0.0429756 -0.0689293)
(1.23004 0.106519 -0.24039)
(1.20931 0.0757133 -0.228238)
(1.20613 -0.053991 0.00497714)
(1.26374 0.119697 0.3612)
(0.732976 0.0436568 -0.322212)
(0.621729 -0.0434131 -0.0865031)
(1.27063 -0.130748 0.354324)
(1.1971 0.061718 0.0136481)