/*--------------------------------*- C++ -*----------------------------------*\
| =========                 |                                                 |
| \\      /  F ield         | OpenFOAM: The Open Source CFD Toolbox           |
|  \\    /   O peration     | Version:  2012                                  |
|   \\  /    A nd           | Website:  www.openfoam.com                      |
|    \\/     M anipulation  |                                                 |
\*---------------------------------------------------------------------------*/
FoamFile
{
    version     2.0;
    format      ascii;
    class       volVectorField;
    location    "0.106/fluid";
    object      U_0;
}
// * * * * * * * * * * * * * * * * * * * * * * * * * * * * * * * * * * * * * //

dimensions      [0 1 -1 0 0 0 0];


internalField   nonuniform List<vector> 
16421
(
(1.14831 -0.00647957 -0.018933)
(1.17149 -0.00216166 0.00153804)
(1.18556 -0.000751644 -0.000187415)
(1.19155 -0.000315201 -0.000185972)
(1.19465 -0.000127992 -0.000112067)
(1.19634 -6.23736e-05 -6.87283e-05)
(1.19734 -4.0554e-05 -4.27241e-05)
(1.19797 -3.20079e-05 -2.67344e-05)
(1.1984 -2.8059e-05 -1.72492e-05)
(1.19869 -2.64114e-05 -1.15728e-05)
(1.1989 -2.99353e-05 -7.10817e-06)
(1.19907 -3.68688e-05 -5.02102e-06)
(1.19924 -4.44191e-05 -3.7526e-06)
(1.22384 -0.050075 -0.132081)
(1.17947 -0.0365709 0.0230936)
(1.18276 -0.0131555 0.0017414)
(1.18889 -0.00578425 4.03041e-05)
(1.19299 -0.00292125 -0.000154453)
(1.19553 -0.00160329 -0.000104937)
(1.19709 -0.000923867 -6.78528e-05)
(1.19806 -0.000548871 -4.41596e-05)
(1.19867 -0.000331748 -2.86839e-05)
(1.19906 -0.000203399 -1.90989e-05)
(1.1993 -0.000124324 -1.36523e-05)
(1.19946 -7.0208e-05 -1.07229e-05)
(1.19957 -3.65213e-05 -9.06662e-06)
(1.19964 -1.35424e-05 -8.19755e-06)
(1.21838 -0.0155596 -0.118013)
(1.2 -0.01784 0.0295516)
(1.19251 -0.0121105 0.00256608)
(1.19316 -0.00709422 0.000214167)
(1.19494 -0.00412663 -0.000146065)
(1.19649 -0.00243838 -0.000112868)
(1.19759 -0.00146636 -7.43245e-05)
(1.19831 -0.000894489 -4.89967e-05)
(1.1988 -0.000551859 -3.40429e-05)
(1.19911 -0.000343322 -2.33916e-05)
(1.19931 -0.00021165 -1.71115e-05)
(1.19946 -0.000129598 -1.60057e-05)
(1.19956 -7.56514e-05 -1.48322e-05)
(1.19964 -3.97598e-05 -1.43276e-05)
(1.17405 0.0169223 -0.0568934)
(1.19501 -0.00826272 0.0156473)
(1.19524 -0.00931618 0.00145219)
(1.19587 -0.00651786 -2.65209e-06)
(1.19675 -0.0041977 -0.000183779)
(1.19758 -0.00264045 -0.000126754)
(1.19822 -0.00165369 -8.00589e-05)
(1.19866 -0.00103579 -5.32821e-05)
(1.19898 -0.000651383 -3.85497e-05)
(1.19921 -0.000408369 -2.83995e-05)
(1.19936 -0.000252536 -2.28838e-05)
(1.19948 -0.00015479 -2.17949e-05)
(1.19958 -9.47008e-05 -2.07598e-05)
(1.19966 -5.12534e-05 -2.08459e-05)
(0.992461 -0.228492 -0.0354331)
(1.16243 0.00492099 -0.0163545)
(1.17753 -0.00222067 -0.00670379)
(1.18712 -0.000713354 -0.00324294)
(1.19233 -0.000296106 -0.00182617)
(1.19516 -0.000121555 -0.00109751)
(1.19672 -6.14034e-05 -0.000675656)
(1.19766 -4.06811e-05 -0.000422286)
(1.19825 -3.16507e-05 -0.00026548)
(1.19864 -2.80072e-05 -0.000168293)
(1.19892 -2.74988e-05 -0.000105546)
(1.19912 -3.02126e-05 -6.77569e-05)
(1.19929 -3.69108e-05 -4.20849e-05)
(1.19945 -4.45573e-05 -2.40435e-05)
(1.32918 -0.048578 -0.0386315)
(1.22314 -0.0853391 -0.0467164)
(1.19065 -0.0345056 -0.0160207)
(1.18735 -0.0126499 -0.00590918)
(1.19046 -0.00555958 -0.00297798)
(1.19378 -0.00279815 -0.00169997)
(1.19612 -0.00154912 -0.00103852)
(1.19757 -0.000898547 -0.000647694)
(1.19846 -0.000536265 -0.000407938)
(1.19902 -0.0003262 -0.000258018)
(1.19937 -0.000200596 -0.000163679)
(1.1996 -0.000122226 -0.000103849)
(1.19974 -7.152e-05 -6.55123e-05)
(1.19982 -3.84253e-05 -4.06992e-05)
(1.19987 -1.55017e-05 -2.28853e-05)
(1.24788 0.00182251 -0.0600362)
(1.23788 -0.0161176 -0.0553884)
(1.21122 -0.0169796 -0.014247)
(1.19686 -0.0114089 -0.00465356)
(1.19493 -0.00679675 -0.00243632)
(1.19595 -0.00398424 -0.00144016)
(1.19726 -0.00236573 -0.000906147)
(1.1982 -0.00142749 -0.000578531)
(1.19883 -0.000873712 -0.000370771)
(1.19925 -0.000541998 -0.000237879)
(1.19951 -0.000338375 -0.000152226)
(1.19968 -0.000210142 -9.74642e-05)
(1.19979 -0.000129725 -6.19429e-05)
(1.19986 -7.69985e-05 -3.85172e-05)
(1.19991 -4.14379e-05 -2.14186e-05)
(1.33685 0.107667 -0.0235109)
(1.1915 0.0241129 -0.036709)
(1.20079 -0.0028557 -0.00897532)
(1.19949 -0.00795706 -0.00323275)
(1.19796 -0.00614077 -0.00180737)
(1.19803 -0.00404572 -0.00112933)
(1.19854 -0.00255767 -0.000742587)
(1.19898 -0.00160685 -0.000489942)
(1.19931 -0.00101008 -0.000321465)
(1.19954 -0.000637416 -0.000210851)
(1.1997 -0.00040178 -0.000136877)
(1.19981 -0.000252112 -8.97845e-05)
(1.19987 -0.00015596 -5.74661e-05)
(1.19992 -9.4141e-05 -3.47137e-05)
(1.19995 -5.21583e-05 -1.90167e-05)
(1.00388 -0.221657 -0.018638)
(1.166 0.00588755 -0.0144619)
(1.18059 -0.00190104 -0.00857597)
(1.18928 -0.000616327 -0.00496288)
(1.19364 -0.000255861 -0.00300316)
(1.19591 -0.000109116 -0.00183793)
(1.19717 -5.8279e-05 -0.00113902)
(1.19793 -3.92709e-05 -0.00071367)
(1.19842 -3.0995e-05 -0.000450293)
(1.19875 -2.86081e-05 -0.000284571)
(1.19899 -2.90863e-05 -0.00018036)
(1.19917 -3.01626e-05 -0.000113573)
(1.19933 -3.67911e-05 -7.0511e-05)
(1.19947 -4.47336e-05 -4.07488e-05)
(1.33313 -0.0181128 -0.00960209)
(1.2103 -0.0609477 -0.0203584)
(1.18524 -0.0280113 -0.0144184)
(1.18856 -0.0107179 -0.00809593)
(1.19208 -0.00485982 -0.0045983)
(1.19496 -0.00251796 -0.00279872)
(1.19685 -0.00141416 -0.00174194)
(1.19801 -0.000829601 -0.0010921)
(1.19874 -0.000500337 -0.000689386)
(1.19919 -0.000307246 -0.00043744)
(1.19948 -0.000189903 -0.000277829)
(1.19967 -0.000115836 -0.000176391)
(1.19978 -6.85968e-05 -0.000112102)
(1.19986 -3.74814e-05 -6.97335e-05)
(1.1999 -1.58805e-05 -4.02852e-05)
(1.25677 0.00116378 -0.013896)
(1.2187 -0.0181456 -0.0206499)
(1.20102 -0.0162469 -0.0130126)
(1.19642 -0.0102847 -0.00687313)
(1.19592 -0.00607412 -0.00386116)
(1.19686 -0.00359502 -0.00238248)
(1.19787 -0.00216175 -0.00152623)
(1.19859 -0.00132017 -0.000980264)
(1.19908 -0.00081573 -0.000630507)
(1.19941 -0.00051114 -0.000406193)
(1.19962 -0.000320752 -0.000260086)
(1.19975 -0.000201868 -0.000166706)
(1.19984 -0.000125636 -0.000107934)
(1.1999 -7.49165e-05 -6.76491e-05)
(1.19993 -4.09531e-05 -3.9751e-05)
(1.32114 0.085075 0.00108732)
(1.19103 0.00121645 -0.0143201)
(1.19606 -0.00548783 -0.0090776)
(1.19935 -0.0073962 -0.00500526)
(1.19867 -0.00554023 -0.00293947)
(1.19871 -0.00365575 -0.00189505)
(1.19901 -0.00233894 -0.00125952)
(1.19929 -0.00148579 -0.000836094)
(1.19952 -0.000943435 -0.000553071)
(1.19968 -0.000599773 -0.000362876)
(1.19979 -0.000383045 -0.000235897)
(1.19987 -0.000243182 -0.000156003)
(1.19992 -0.000151397 -0.000101713)
(1.19995 -9.07006e-05 -6.35233e-05)
(1.19997 -5.12499e-05 -3.7817e-05)
(1.23922 -0.202268 0.224531)
(0.756893 -0.368573 -0.0405487)
(1.46882 0.0545617 -0.0382464)
(1.22211 -0.0995976 0.0315027)
(1.11469 -0.00194615 -0.0551618)
(1.22077 -0.177063 -0.0900971)
(1.15579 -0.0642762 0.00296066)
(0.999741 -0.226072 -0.0259911)
(1.14836 0.00740965 -0.0088702)
(1.17548 -0.0854693 0.0288097)
(1.1509 -0.0336466 -0.0032963)
(1.33259 -0.0141512 -0.122399)
(1.25243 -0.0181455 -0.12069)
(1.39892 0.0303122 -0.000804887)
(1.22251 -0.0452683 0.0651921)
(1.33001 0.00846274 0.0379726)
(1.1956 -0.0170745 0.0871449)
(1.24924 -0.0102109 -0.12124)
(1.22281 0.0078397 -0.152734)
(1.32309 0.00232382 0.0403737)
(1.19274 -0.0199269 0.0895264)
(1.32342 -0.0437694 0.0238135)
(1.17762 -0.0140425 0.0543731)
(1.17533 0.0367591 -0.045325)
(1.34799 0.0296082 -0.0443288)
(1.17866 -0.0555078 0.0121877)
(0.735321 -0.37541 -0.0392544)
(1.39916 -0.0564093 -0.0251833)
(1.21991 -0.188964 -0.0629812)
(0.755556 -0.362455 -0.0159306)
(1.40923 0.00132754 -0.00235872)
(1.22674 -0.138176 -0.00319114)
(1.17096 0.0317174 -0.0450533)
(1.32409 0.0682347 -0.0184353)
(1.18804 -0.0138901 -0.0002021)
(0.751325 -0.363338 -0.0198326)
(1.39705 -0.0177417 -0.00798964)
(1.22437 -0.147712 -0.0194559)
(1.18231 0.00246393 -0.0146218)
(1.83419 -0.352774 -0.12481)
(2.02571 0.115875 -0.0406749)
(-0.500443 -0.0346126 -0.10139)
(1.08841 -0.0410094 -0.0209511)
(0.910327 0.0533686 -0.173485)
(0.509352 -0.367158 -0.255652)
(0.973469 -0.174446 0.0243451)
(1.14606 -0.119477 -0.0726027)
(0.93015 -0.172942 -0.100852)
(1.13295 -0.0414121 -0.0167593)
(1.44906 -0.00124896 0.188295)
(0.60095 0.366742 -0.26878)
(1.46414 -0.020008 -0.0715755)
(1.45187 -0.0396635 0.168133)
(1.39629 0.0626179 0.0195578)
(0.731421 -0.0751987 -0.317096)
(1.37788 -0.000458766 0.152322)
(0.713112 0.0564098 -0.30744)
(1.34859 -0.0261293 0.003854)
(1.39112 -0.000919599 0.163536)
(1.34425 0.043064 -0.00408969)
(0.708572 -0.0393358 -0.304973)
(0.710898 0.211074 -0.296335)
(1.35862 0.000133712 -0.0529822)
(1.2088 -0.0277787 -0.193641)
(1.19382 -0.000940404 0.00971824)
(1.16422 -0.0438187 0.0158106)
(1.17231 -0.0228353 0.00250489)
(1.73481 -0.392564 -0.0369815)
(-0.460132 -0.0423818 -0.0696981)
(1.97949 0.0293752 -0.00136265)
(1.72592 -0.411123 -0.0293583)
(1.96544 0.0162008 -0.0306815)
(-0.453994 -0.0410129 -0.0177994)
(1.23598 -0.0136965 -0.0718445)
(1.25908 0.0729387 -0.0529641)
(1.21626 0.0731943 -0.0656444)
(1.26774 0.000989884 0.00956086)
(1.22803 -0.0174063 0.0103753)
(1.27052 0.0134836 0.00642415)
(1.21072 0.0311771 0.00514035)
(1.22493 0.103389 -0.0599352)
(1.33269 0.0543636 -0.0255227)
(1.24624 0.0335713 -0.0312916)
(1.19994 0.00317717 -0.0132952)
(1.18986 -0.0125028 0.000931423)
(1.18864 -0.00968551 -0.00101804)
(1.70412 -0.3963 -0.0226569)
(-0.444159 -0.0436893 -0.0385889)
(1.95066 0.00464433 0.0168103)
(1.70678 -0.403027 0.00343812)
(1.94162 0.00499475 -0.0197231)
(-0.439881 -0.0445627 -0.00761944)
(1.22818 -0.0160884 -0.0210646)
(1.26017 0.0335795 -0.0105517)
(1.21176 0.0431543 -0.017492)
(1.23053 0.0693451 -0.0165843)
(1.31707 0.0757413 -0.0169228)
(1.233 0.0577044 -0.0119923)
(1.19393 -0.0027322 -0.0104021)
(1.67579 -0.402808 -0.178994)
(0.0680665 -0.243671 -0.340443)
(0.789514 -0.238985 -0.00720263)
(1.20283 -0.192852 -0.0964577)
(-0.247607 -0.283531 -0.194676)
(1.49926 -0.16277 -0.192601)
(1.00755 0.368878 -0.445831)
(1.505 0.0403665 -0.0699054)
(1.68613 0.0771252 -0.145513)
(1.47608 -0.0238565 -0.00636613)
(1.3948 -0.179056 -0.186207)
(0.496995 -0.202107 -0.318415)
(1.43456 0.255818 0.27588)
(1.19202 -0.0368045 0.172562)
(1.13003 -0.150779 -0.0694898)
(1.35468 0.0025387 0.138535)
(1.74083 -0.393371 -0.0953212)
(-0.465482 -0.0378144 -0.0438551)
(1.97862 0.0427342 -0.0406392)
(1.98098 0.125079 0.0253906)
(1.75514 -0.38277 -0.0638268)
(-0.458817 -0.0355692 -0.0926859)
(1.41641 -0.00561392 0.17188)
(0.715588 -0.0599133 -0.308236)
(1.35223 0.0501946 -0.00349807)
(1.3796 -0.00496861 0.014674)
(1.39834 -0.000160976 0.157872)
(0.727052 0.0441151 -0.313689)
(1.3718 0.00717157 0.171795)
(0.704928 0.094955 -0.301658)
(1.37367 5.81787e-05 0.0207949)
(1.34578 -0.0224894 0.016071)
(1.35584 -0.0413724 0.122256)
(0.707212 0.077773 -0.307546)
(1.0812 0.160274 0.191115)
(1.11559 -0.0523529 0.0203058)
(1.22285 -0.0686858 0.0228282)
(1.35108 0.135813 -0.0955862)
(1.2585 0.00580418 -0.0798449)
(1.21407 0.178773 -0.106236)
(1.16589 0.0957022 -0.0690061)
(1.22377 -0.0382051 -0.0028587)
(1.13529 0.134793 -0.0951159)
(1.71387 -0.408723 -0.00694366)
(-0.446615 -0.0431028 -0.00808179)
(1.95367 0.00819634 -0.0241096)
(1.9621 0.00852013 0.0101337)
(1.71769 -0.396343 -0.0266786)
(-0.451507 -0.0426421 -0.0476989)
(1.16559 0.0620019 -0.0421883)
(1.15168 0.0453084 -0.0233471)
(1.18889 -0.0272058 0.005324)
(1.20892 -0.00319127 -0.00255204)
(1.18076 0.0171322 -0.00475725)
(1.32794 0.0920769 -0.00534624)
(1.23808 0.0495477 -0.0151953)
(1.22953 0.0791087 -0.0291108)
(1.17835 0.0108681 -0.023648)
(1.19895 0.0120181 -0.00383472)
(1.17647 0.0250561 -0.00509273)
(1.18034 0.0392944 -0.0199032)
(1.16226 0.0370239 -0.0157149)
(1.69794 -0.398082 0.00743286)
(1.93915 0.00369804 0.0211961)
(-0.436715 -0.044805 -0.038443)
(1.18665 0.0298264 -0.0126059)
(1.16765 0.033522 -0.0118733)
(1.18643 -0.00786845 -0.00519595)
(1.19345 0.0187212 -0.00694602)
(1.17371 0.0289123 -0.00750477)
(1.31377 0.082579 0.00310548)
(1.22949 0.0652814 -0.0130695)
(1.18444 -0.00123398 -0.0132555)
(1.18905 0.0253007 -0.0130787)
(1.17112 0.032233 -0.0124089)
(1.12324 -0.127872 0.0417387)
(0.422105 -0.0681395 -0.154203)
(0.0866449 0.146281 0.0337952)
(1.01972 -0.0928827 0.197078)
(1.01274 -0.254016 -0.0609963)
(0.280152 -0.207349 -0.0982329)
(1.17859 -0.129073 -0.0655754)
(1.40279 0.191941 -0.0142979)
(1.62199 0.0853828 -0.264322)
(1.31667 0.111245 -0.128386)
(1.52936 0.244542 0.0230486)
(1.18625 -0.0451253 0.0157941)
(1.22205 -0.025514 -0.116119)
(1.21095 -0.0250952 0.0266686)
(1.1788 -0.0432012 0.0449014)
(1.15602 -0.0315092 -0.00184233)
(1.17195 -0.0206005 0.0612781)
(1.16782 -0.0214609 0.00340207)
(1.23819 0.0132329 -0.0486464)
(1.51866 -0.00685447 -0.0775682)
(1.24314 0.00792967 -0.0484973)
(1.51207 0.0399781 -0.0790477)
(1.20865 -0.0181953 0.0258707)
(1.20223 -0.00336752 -0.134215)
(1.20447 -0.00736807 0.0181536)
(1.16937 -0.0228869 0.0635178)
(1.16692 -0.0216854 0.00478958)
(1.166 -0.0152765 0.0393945)
(1.17549 -0.0216048 0.00115179)
(1.3393 0.144414 -0.0925304)
(1.5499 -0.00936754 -0.0799001)
(1.29143 0.0656791 -0.105407)
(1.64754 0.0341448 -0.0517369)
(1.16309 0.00261987 -0.0206218)
(1.2067 -0.14948 -0.0538437)
(1.18787 -0.049482 -0.0244052)
(1.00494 -0.221552 -0.0131202)
(1.16457 0.00519415 -0.0104114)
(1.2013 -0.107275 -0.00334781)
(1.17503 -0.0343081 -0.00593617)
(1.2435 -0.103603 -0.0584935)
(1.24633 0.000479964 -0.0633908)
(1.24388 -0.0205207 -0.0776632)
(1.34403 -0.00570199 0.00150292)
(1.24239 -0.062318 0.00180102)
(1.26917 0.00387668 0.0110395)
(1.23212 -0.0175137 0.0112891)
(1.16783 0.00421855 -0.0158734)
(1.20285 -0.11588 -0.0199799)
(1.18191 -0.0388522 -0.0164514)
(1.24052 -0.0730871 -0.0200136)
(1.25596 0.00347745 -0.0145031)
(1.23445 -0.0175573 -0.0218316)
(1.14633 -0.457397 -0.0570665)
(0.95371 -0.144104 0.191701)
(1.06059 -0.338729 -0.108256)
(0.409993 -0.195997 0.0752179)
(1.39394 0.0244057 -0.219287)
(1.64195 0.108528 -0.262469)
(1.35911 0.0281831 -0.195058)
(1.572 0.160666 -0.175292)
(1.36198 -0.559071 -0.0723182)
(0.702019 -0.367507 -0.066101)
(-0.207026 -0.260967 -0.0695831)
(1.25237 -0.356998 -0.0341116)
(1.15695 -0.394265 -0.0784482)
(1.4573 -0.503589 -0.0250137)
(-0.225865 -0.276465 -0.0772243)
(1.4638 -0.26243 -0.0300066)
(1.39505 -0.118891 -0.0608757)
(1.67829 0.0519011 -0.0398563)
(1.41581 -0.0308791 -0.0241972)
(1.70139 0.00776326 -0.0201806)
(1.30575 -0.228474 -0.118842)
(1.51967 -0.108755 -0.0323742)
(1.11632 -0.0759824 -0.0196577)
(1.00726 -0.25152 -0.130084)
(1.16634 -0.122809 -0.0788247)
(1.11848 -0.0440603 0.103878)
(1.14785 -0.09861 -0.0264582)
(1.12027 -0.0403661 0.0354822)
(1.04579 -0.15452 -0.0974746)
(1.2787 -0.0119644 0.282534)
(1.17673 0.210444 0.214784)
(1.27119 -0.0577312 -0.114573)
(1.15261 -0.0791487 0.216175)
(1.28914 -0.0254174 0.292827)
(1.14174 -0.0292639 0.217644)
(1.12624 -0.0196242 0.154299)
(1.25404 0.0137315 -0.0478058)
(1.5152 0.047544 -0.0793324)
(1.24358 0.0160407 -0.0494403)
(1.5287 0.00647542 -0.0742056)
(1.26165 -0.0195759 0.271819)
(1.27077 -0.0218108 -0.123502)
(1.10056 -0.00937702 0.153329)
(1.11907 -0.0167057 0.191529)
(1.12656 -0.0323136 0.202534)
(1.25066 -0.0100446 0.255251)
(1.11714 -0.00355836 0.152167)
(1.23352 -0.0105974 0.247222)
(1.09674 0.00482265 0.15378)
(1.23857 -0.00131435 -0.122378)
(1.11382 -0.0173587 0.195964)
(1.24337 -0.0114485 0.262443)
(1.10646 -0.0130922 0.185265)
(1.08687 0.00618829 0.151926)
(1.24336 0.0194799 -0.0674979)
(1.5522 0.0415754 -0.0672382)
(1.2604 0.0612707 -0.0697401)
(1.52291 -0.0214511 -0.0829949)
(1.23076 -0.0068525 0.27499)
(1.23639 0.000566773 -0.129191)
(1.05796 0.11776 0.136746)
(1.0876 -0.0350375 0.168178)
(1.10917 -0.0126817 0.207924)
(1.20948 -0.0545364 0.215201)
(1.08981 0.0229854 0.151981)
(1.41939 -0.501359 -0.0143291)
(-0.203257 -0.279485 -0.06441)
(1.20639 -0.372996 -0.0427563)
(0.755697 -0.364969 -0.0226266)
(1.38644 -0.531127 -0.0403362)
(1.23035 -0.351197 -0.0150807)
(-0.193215 -0.264351 -0.0373811)
(1.4948 -0.143743 -0.00651648)
(1.66957 0.00597705 -0.0218552)
(1.34373 -0.136251 -0.0464344)
(1.42867 0.0159425 -0.00940818)
(1.45342 -0.194384 -0.0396842)
(1.66018 0.0218799 -0.0175728)
(1.37891 -0.0712858 -0.00680831)
(1.39106 -0.518074 -0.0225759)
(0.745719 -0.368962 -0.0260704)
(-0.184073 -0.264921 -0.0242622)
(1.22204 -0.349551 -0.0110209)
(1.21386 -0.361866 -0.0251806)
(1.40221 -0.50168 -0.0110174)
(-0.191276 -0.272059 -0.0408959)
(1.45783 -0.176192 -0.0212338)
(1.40031 -0.028771 -0.0137046)
(1.64757 0.0123308 -0.00826609)
(1.36222 -0.0829241 -0.00333862)
(1.6533 0.00344104 -0.0107886)
(1.35297 -0.10795 -0.0227495)
(1.47445 -0.154793 -0.0049911)
(1.39101 -0.499876 -0.0107366)
(-0.182404 -0.267313 -0.0301447)
(1.21445 -0.353772 -0.0175317)
(0.755566 -0.359438 -0.0157489)
(1.38952 -0.508059 -0.0149995)
(1.21597 -0.347135 -0.0115471)
(-0.176283 -0.263766 -0.0218914)
(1.4609 -0.158203 -0.00550417)
(1.64299 0.00497899 -0.00417399)
(1.35181 -0.0976237 -0.0132743)
(1.39778 -0.00510723 -0.000979254)
(1.45734 -0.167277 -0.0122585)
(1.63652 0.00870781 -0.00367772)
(1.35228 -0.087045 -0.00371894)
(1.38405 -0.500178 -0.0136978)
(0.755028 -0.358106 -0.0196802)
(1.21202 -0.347201 -0.0160181)
(-0.174136 -0.263461 -0.0299377)
(1.45187 -0.161997 -0.00918622)
(1.39087 -0.0127891 -0.00467371)
(1.6324 0.00622574 -0.000218968)
(1.34662 -0.0925007 -0.00941765)
(-0.290003 0.287235 -0.184679)
(-0.53768 -0.0211245 -0.179365)
(0.180549 0.0559003 0.00107686)
(-0.458107 0.41064 -0.305278)
(2.24554 0.397087 -0.188969)
(2.2241 0.12541 -0.173199)
(-0.115703 0.063826 -0.247619)
(1.93428 -0.167974 -0.100908)
(2.01688 0.172814 -0.0858196)
(1.97936 -0.0949283 -0.118377)
(-0.0777957 0.0198477 0.000810639)
(-0.351983 0.57891 -0.199012)
(1.61439 -0.457674 -0.133396)
(0.899807 -0.270847 0.12037)
(2.10708 -0.0114008 -0.192787)
(-0.236036 0.236244 -0.160426)
(0.696695 -0.390761 -0.068221)
(-0.401923 0.00834117 0.003996)
(0.480482 -0.0449401 -0.00408648)
(-0.198529 0.204307 -0.0571267)
(1.04691 -0.117317 -0.0572277)
(0.0360101 0.0633382 -0.0037001)
(1.12561 -0.210691 -0.129256)
(0.682053 -0.352783 -0.224851)
(1.06063 -0.242749 -0.0858869)
(1.10743 -0.181287 -0.0937415)
(0.545785 -0.319722 -0.233884)
(1.2261 0.0986359 -0.160434)
(1.066 0.0220838 -0.33421)
(0.69194 -0.101549 -0.303883)
(1.08843 0.0863601 -0.156304)
(1.1695 -0.110556 -0.377286)
(1.40239 0.163153 0.0406759)
(1.53388 0.0862225 -0.0288251)
(1.48911 0.17609 0.0727903)
(1.29698 0.0409972 -0.0188835)
(1.25966 0.0972919 -0.150493)
(1.13128 -0.0671345 -0.386733)
(0.719194 0.00747709 -0.312409)
(1.17422 0.0810205 -0.392318)
(1.185 0.0223844 -0.15951)
(1.1042 -0.0167065 -0.163303)
(1.06601 0.0895105 -0.39159)
(0.712283 -0.0551685 -0.306652)
(1.10719 0.0346758 -0.16432)
(1.06162 -0.0792815 -0.39043)
(1.23552 0.00265077 -0.0516525)
(1.51439 0.041222 -0.0802644)
(1.51407 -0.0177486 -0.0808001)
(1.23517 0.0195897 -0.0516409)
(1.10103 0.0335286 -0.166128)
(1.05491 -0.0697579 -0.395963)
(0.708708 0.0619157 -0.306559)
(1.05946 0.0883013 -0.39505)
(1.09924 -0.00997891 -0.165546)
(1.36094 0.17552 -0.0897081)
(1.26424 0.140927 -0.122143)
(1.30424 0.118945 0.000896285)
(1.39049 0.138533 -0.111187)
(1.18501 0.171263 -0.182712)
(1.0949 0.140355 -0.240544)
(0.73285 0.0824827 -0.307409)
(1.18735 0.0863784 -0.17282)
(1.06893 0.189597 -0.234922)
(1.48069 0.180395 -0.140205)
(1.77862 0.0381832 -0.126338)
(1.44049 0.198948 -0.121233)
(1.61228 0.0927557 -0.099529)
(1.67218 0.1736 -0.14059)
(1.44758 0.138947 -0.109394)
(1.36791 0.219829 -0.095753)
(0.775944 0.254109 -0.371492)
(1.21369 0.309521 -0.209516)
(-0.183713 0.195306 -0.069932)
(0.690367 -0.409463 -0.0425764)
(-0.461901 -0.0435202 -0.0119572)
(-0.174575 0.183165 0.0276916)
(0.715775 -0.412554 -0.0359112)
(-0.0268428 -0.027582 -0.0368215)
(1.8732 -0.192361 -0.0230433)
(1.97933 -0.0101448 -0.0103194)
(-0.0862103 0.0272266 -0.00537686)
(1.85634 -0.235252 -0.00368466)
(-0.00437353 -0.0374751 -0.0248435)
(1.8559 -0.202839 -0.0420492)
(1.97525 -0.00137014 0.0302643)
(1.85922 -0.221733 0.0357151)
(-0.028891 -0.0223883 -0.0171438)
(-0.168202 0.184397 0.0099215)
(0.705872 -0.393354 -0.0298984)
(-0.454136 -0.0405551 -0.0416507)
(0.712802 -0.392372 -0.0371061)
(-0.180591 0.193053 -0.0573648)
(1.37497 0.153874 0.0173447)
(1.27638 0.151253 -0.0156256)
(1.27841 0.149834 -0.00455615)
(1.37348 0.154962 -0.0344518)
(1.41539 0.171911 -0.0236919)
(1.55822 0.149278 0.00588381)
(1.41807 0.172718 -0.0107016)
(1.55321 0.147318 -0.0310922)
(1.36537 0.165074 -0.0218627)
(1.26803 0.159642 -0.0301875)
(1.36767 0.165145 -0.0142022)
(1.26523 0.161398 -0.00686233)
(1.42306 0.161072 0.0203742)
(1.55539 0.136145 -0.0438604)
(1.55781 0.135757 0.0343502)
(1.42145 0.161974 -0.0359549)
(-0.177375 0.191974 -0.0547498)
(0.705243 -0.398409 -0.027392)
(-0.444143 -0.0443145 -0.0050524)
(-0.169359 0.184958 0.0251634)
(0.706317 -0.399347 -0.0186072)
(-0.0220913 -0.028202 -0.015152)
(1.83504 -0.213058 0.0122877)
(1.94715 0.00186717 -0.0183711)
(-0.0205681 -0.0263828 -0.0103938)
(1.83072 -0.215304 -0.0218758)
(-0.0174069 -0.0287337 -0.0101855)
(1.8272 -0.211099 -0.025333)
(1.94618 0.00367363 0.0228731)
(1.83077 -0.212877 0.0209517)
(-0.0223332 -0.027879 -0.0160665)
(-0.168863 0.185144 0.0252935)
(0.703403 -0.395323 -0.0212936)
(-0.440501 -0.0441758 -0.0355742)
(0.704139 -0.395701 -0.0239888)
(-0.177228 0.192133 -0.0552702)
(1.36125 0.157086 0.014975)
(1.2629 0.153706 -0.00838401)
(1.26404 0.153679 -0.00711048)
(1.35965 0.156761 -0.028244)
(1.40841 0.165982 -0.0270251)
(1.54165 0.143769 0.0270368)
(1.41013 0.166004 0.0137487)
(1.5392 0.143847 -0.0354307)
(1.36092 0.158806 -0.0251088)
(1.26472 0.155348 -0.0105093)
(1.36262 0.158744 0.0105316)
(1.2635 0.155696 -0.00611036)
(1.40835 0.164356 0.018233)
(1.53589 0.14226 -0.0378205)
(1.53859 0.142273 0.0320819)
(1.40658 0.164002 -0.029975)
(1.09058 -0.455359 -0.121963)
(-0.462991 -0.0711851 -0.230648)
(0.475569 -0.202179 -0.0293214)
(0.160098 -0.17364 -0.0450547)
(1.48422 -0.498823 -0.0917476)
(1.12027 -0.189789 -0.0705135)
(-0.118138 0.197494 0.068494)
(1.17221 -0.314808 -0.105378)
(1.30052 -0.215753 -0.00230094)
(1.52166 -0.531 -0.12619)
(1.44775 -0.464303 -0.126388)
(1.20138 -0.486285 0.0874023)
(1.34363 -0.291203 -0.0817369)
(1.42893 0.0593761 -0.166477)
(1.94856 0.303312 -0.172577)
(1.92912 0.150863 -0.101509)
(1.49148 0.194677 -0.157617)
(1.2654 -0.00991688 -0.320216)
(1.17877 -0.148771 -0.474296)
(1.52902 -0.00667509 -0.621839)
(1.20874 -0.0301357 -0.250809)
(1.13941 -0.147152 -0.504837)
(1.36327 -0.00612356 -0.167782)
(1.47746 -0.375294 -0.0410602)
(0.859462 -0.382289 -0.0848142)
(1.83667 0.039949 -0.0569391)
(1.17831 -0.212967 -0.180585)
(1.17893 -0.360655 -0.104332)
(1.12752 -0.432162 -0.0474843)
(1.17569 -0.304297 -0.153628)
(-0.0953764 0.215559 -0.0179055)
(1.29803 -0.28805 0.12233)
(1.14571 -0.362999 -0.113458)
(1.36552 -0.300616 0.0410496)
(1.17533 -0.386801 -0.135689)
(1.35379 -0.394725 -0.047084)
(0.94887 -0.425052 -0.063697)
(1.31275 -0.313281 0.0500298)
(1.10708 -0.308937 -0.156963)
(1.24293 -0.198129 0.041063)
(-0.160462 0.189536 -0.0302861)
(0.706524 -0.391578 -0.0265278)
(-0.459549 -0.0351318 -0.0519846)
(-0.183838 0.194126 -0.0532222)
(0.761397 -0.391622 -0.0648382)
(0.0738417 -0.0968769 -0.0511386)
(2.01006 -0.0216701 0.0622109)
(1.87691 -0.177615 -0.0679805)
(-0.0575471 0.00284419 -0.00445021)
(1.88208 -0.256447 0.086228)
(0.00706524 -0.0608121 -0.090115)
(1.92978 -0.135395 -0.0239459)
(2.03767 -0.0382695 0.0317176)
(-0.146229 0.103349 -0.0209206)
(1.90315 -0.289746 0.0637945)
(-0.191996 0.206736 -0.111906)
(0.67149 -0.415436 -0.09699)
(-0.481979 -0.0431502 -0.0262719)
(-0.177433 0.179871 0.0304142)
(0.753739 -0.432369 -0.0900526)
(1.25812 0.0188065 -0.0460683)
(1.54104 0.0349293 -0.0466659)
(1.2805 0.0346175 -0.0324088)
(1.52344 0.0574863 -0.0724232)
(1.11635 0.0375183 -0.165882)
(1.07053 -0.0780567 -0.392069)
(0.717961 0.0498404 -0.309282)
(1.1111 -0.0132652 -0.164465)
(1.07611 0.0890474 -0.395533)
(1.12846 -0.00572628 -0.163986)
(1.10017 0.0952515 -0.39688)
(0.722575 -0.0663539 -0.311582)
(1.14123 0.0540425 -0.165675)
(1.08857 -0.0761772 -0.389915)
(1.24387 0.025144 -0.0534646)
(1.51423 -0.0175952 -0.079472)
(1.2391 0.00955299 -0.0557749)
(1.52393 0.0367851 -0.0733789)
(1.11414 0.0541264 -0.181187)
(1.04325 0.0187523 -0.458151)
(0.70933 0.114554 -0.309601)
(1.1082 0.0411176 -0.194287)
(1.06129 0.099746 -0.415503)
(1.10144 -0.00152966 -0.171014)
(1.06007 0.0949526 -0.398383)
(0.70668 -0.00541197 -0.304476)
(1.10657 0.0407928 -0.170141)
(1.04736 -0.0571414 -0.412772)
(1.18063 -0.0945345 0.080218)
(1.19751 0.0835132 -0.16181)
(1.24143 -0.00894209 0.0474309)
(1.16264 0.0130672 -0.188029)
(1.16165 0.246938 -0.210078)
(1.13142 0.110034 0.110131)
(1.18371 0.298494 -0.2017)
(1.21778 -0.021672 0.188894)
(1.36023 0.168279 -0.0243049)
(1.25669 0.182127 -0.0679601)
(1.33947 0.197696 -0.0846019)
(1.24761 0.16926 -0.016145)
(1.43311 0.157306 0.0135017)
(1.57471 0.127413 -0.0562369)
(1.43588 0.155641 -0.0512003)
(1.57587 0.131032 0.0267311)
(1.41626 0.172831 -0.0278267)
(1.56095 0.171958 -0.0511689)
(1.39766 0.204532 -0.0810599)
(1.56831 0.143321 -0.0364398)
(1.3833 0.149566 0.0129015)
(1.28424 0.145215 -0.0339541)
(1.38648 0.148944 -0.0502463)
(1.29054 0.142971 -0.00451697)
(1.14129 0.117605 -0.0132344)
(1.18156 0.136564 -0.0581038)
(1.1496 0.101435 -0.0565627)
(1.16602 0.14469 -0.015856)
(1.19368 0.0117152 0.0332874)
(1.21846 0.0799882 -0.0449136)
(1.22439 0.0720648 0.011202)
(1.19185 0.0200827 -0.0600405)
(-0.169331 0.184929 0.0232274)
(0.705531 -0.395478 -0.0221663)
(-0.447057 -0.0427244 -0.0361874)
(-0.178185 0.192124 -0.0552312)
(0.707029 -0.395616 -0.0262445)
(-0.0158604 -0.0297303 -0.0125347)
(1.95897 0.00331093 0.0243212)
(1.84047 -0.209769 -0.030587)
(-0.0238098 -0.0266613 -0.0154635)
(1.8437 -0.214761 0.0241413)
(-0.0234763 -0.02781 -0.0190063)
(1.84757 -0.210825 0.000994012)
(1.95939 -0.00171648 -0.0171303)
(-0.0310854 -0.0182947 -0.011352)
(1.84068 -0.221132 -0.0183073)
(-0.179135 0.192627 -0.0578659)
(0.704781 -0.40193 -0.0356775)
(-0.45198 -0.0436044 -0.00599874)
(-0.170132 0.184001 0.0231254)
(0.710302 -0.404052 -0.0219432)
(1.18956 0.0361466 0.0110516)
(1.21257 0.0923293 -0.0206423)
(1.21316 0.0904696 0.000876441)
(1.19042 0.0370479 -0.0281035)
(1.1666 0.0740462 0.000918588)
(1.19586 0.114296 -0.0338772)
(1.19318 0.117569 -0.00473552)
(1.16758 0.0719826 -0.0407565)
(1.36396 0.16111 -0.023203)
(1.26759 0.156602 -0.0159125)
(1.36606 0.160604 0.00380451)
(1.26603 0.157622 -0.00549473)
(1.41461 0.163687 0.0195088)
(1.54486 0.14025 -0.0391792)
(1.41322 0.163935 -0.0306417)
(1.5469 0.139764 0.0329446)
(1.41232 0.168198 -0.0251004)
(1.5488 0.145046 0.0205093)
(1.41445 0.167957 0.0070228)
(1.54577 0.144865 -0.03339)
(1.36705 0.156499 0.016434)
(1.26921 0.153253 -0.00926719)
(1.36576 0.15675 -0.0289004)
(1.27034 0.15284 -0.00520565)
(1.17477 0.0607244 -0.00316454)
(1.19995 0.107773 -0.0181887)
(1.17565 0.0599639 -0.0226547)
(1.19853 0.109054 -0.0054767)
(1.18534 0.0449528 0.00253247)
(1.20617 0.0983079 -0.0125175)
(1.20656 0.0976929 -0.00256596)
(1.18569 0.0451202 -0.0166273)
(1.82373 -0.212068 0.0173361)
(1.9344 0.00312576 -0.016709)
(-0.0179413 -0.0281275 -0.0112657)
(0.702243 -0.39518 -0.0272013)
(-0.436017 -0.0453611 -0.0108091)
(-0.168063 0.184852 0.0231499)
(1.18244 0.0485211 -0.00369765)
(1.20137 0.101035 -0.011133)
(1.20187 0.100729 -0.00595569)
(1.18256 0.0485041 -0.0135641)
(1.17843 0.0545821 -0.00758481)
(1.20038 0.104746 -0.0113268)
(1.19941 0.10528 -0.00750977)
(1.17901 0.0543389 -0.013051)
(1.26031 0.154086 -0.0105841)
(1.35776 0.157369 0.0118003)
(1.25877 0.154148 -0.00959662)
(1.53358 0.143806 0.030208)
(1.40456 0.164681 0.0153901)
(1.18017 0.0517095 -0.0128991)
(1.19896 0.103088 -0.0108732)
(1.18043 0.0516028 -0.0112238)
(1.19801 0.103527 -0.0118479)
(0.625903 -0.151466 -0.20601)
(0.619033 -0.0405674 -0.240245)
(0.457392 -0.264658 -0.038293)
(-0.173177 0.237476 -0.118403)
(0.923781 -0.0934683 -0.429794)
(1.16464 -0.00286833 0.00469093)
(1.15978 -0.0436388 0.0148094)
(1.17689 -0.0146935 0.00367914)
(1.14835 0.00769201 -0.00836582)
(1.16672 -0.0024153 -0.00643545)
(1.15402 -0.0247891 -0.00670207)
(1.17317 -0.0122863 -0.00552021)
(1.0586 0.421539 -0.132853)
(1.45239 0.46753 -0.190917)
(1.20352 0.0331763 -0.232099)
(1.20008 -0.0174769 -0.228052)
(1.31011 0.0892158 -0.257203)
(1.29294 0.0580972 -0.255083)
(0.465145 -0.0218329 -0.1837)
(0.321933 -0.310831 -0.0463605)
(0.0340527 -0.0321845 -0.0982765)
(1.76725 0.292506 -0.403372)
(1.59544 0.396774 -0.258965)
(1.34946 -0.303429 -0.170562)
(1.33801 -0.160995 0.0705801)
(1.29976 -0.125976 0.289073)
(1.31839 -0.23414 -0.262196)
(1.2809 -0.296318 -0.184433)
(1.37201 -0.18298 -0.278448)
(1.2843 -0.139653 0.0595922)
(1.10278 -0.01998 -0.00333981)
(1.0359 0.00422178 -0.100278)
(1.11723 -0.0398417 -0.0406199)
(1.11412 -0.00531618 0.00113088)
(1.11309 -0.0182059 -0.00939492)
(1.04715 -0.0890806 -0.0702558)
(1.1239 -0.00581846 0.00186178)
(1.20909 -0.0160277 -0.231657)
(1.19945 0.0333504 -0.22897)
(1.26479 0.0330713 -0.247614)
(1.2681 0.0702307 -0.245894)
(-0.00451869 0.239689 -0.136101)
(1.92887 -0.239627 -0.0705942)
(1.8724 -0.272318 -0.0419373)
(1.33859 -0.473747 0.0275885)
(1.19084 -0.288417 0.138435)
(1.92402 -0.158836 -0.0822255)
(0.206181 0.104894 0.0273833)
(1.12503 -0.0177955 0.035613)
(0.685443 0.0283394 -0.201222)
(0.76309 -0.00591563 -0.152489)
(1.15474 -0.0319046 -0.155043)
(1.13046 -0.018333 -0.0571966)
(0.491322 -0.138764 -0.0964371)
(1.16612 -0.0577846 -0.171067)
(1.02761 0.0473166 0.126021)
(0.573643 0.00797215 -0.0662106)
(1.27892 0.0534195 0.504097)
(0.616427 0.0635492 -0.27477)
(1.12801 0.125639 0.415108)
(1.21623 -0.0139658 0.193711)
(0.511819 -0.0429689 -0.0691096)
(1.2318 0.105471 -0.240642)
(1.21056 0.0754465 -0.22854)
(1.20592 -0.0542376 0.00513607)
(1.26372 0.119678 0.361561)
(0.733342 0.0438669 -0.322281)
(0.622095 -0.0434074 -0.0865757)
(1.27055 -0.130939 0.354695)
(1.19705 0.0616345 0.0137813)