/*--------------------------------*- C++ -*----------------------------------*\
| =========                 |                                                 |
| \\      /  F ield         | OpenFOAM: The Open Source CFD Toolbox           |
|  \\    /   O peration     | Version:  2012                                  |
|   \\  /    A nd           | Website:  www.openfoam.com                      |
|    \\/     M anipulation  |                                                 |
\*---------------------------------------------------------------------------*/
FoamFile
{
    version     2.0;
    format      ascii;
    class       surfaceVectorField;
    location    "0.106/fluid";
    object      Uf_0;
}
// * * * * * * * * * * * * * * * * * * * * * * * * * * * * * * * * * * * * * //

dimensions      [0 1 -1 0 0 0 0];


internalField   nonuniform List<vector> 
47532
(
(1.127 -0.00421592 -0.0370603)
(1.1486 -0.0114407 -0.0153615)
(1.13431 -0.00769114 -0.0110864)
(1.14797 -0.00635978 -0.0085254)
(1.16784 -0.00251501 0.00311455)
(1.17288 -0.00466131 0.00172846)
(1.17137 -0.00181204 -0.0016459)
(1.17372 -0.00191991 0.000825656)
(1.18439 -0.000855634 -0.000181307)
(1.18648 -0.000676256 -0.000198942)
(1.18592 -0.00155822 -0.000166908)
(1.18553 -0.000737439 -0.000680271)
(1.19097 -0.000353059 -0.000195806)
(1.19203 -0.000283772 -0.00017527)
(1.19178 -0.00071684 -0.000183829)
(1.19167 -0.000312935 -0.00042065)
(1.19435 -0.000143793 -0.000119672)
(1.19491 -0.000116092 -0.000105468)
(1.19497 -0.000344929 -0.0001114)
(1.19477 -0.000127302 -0.000254925)
(1.19617 -6.75301e-05 -7.30718e-05)
(1.19649 -5.84568e-05 -6.49188e-05)
(1.19681 -0.00018568 -6.85925e-05)
(1.19645 -6.22101e-05 -0.000156916)
(1.19724 -4.22949e-05 -4.52335e-05)
(1.19744 -3.93345e-05 -4.06485e-05)
(1.1979 -0.000112101 -4.28917e-05)
(1.19745 -4.06996e-05 -9.79482e-05)
(1.19791 -3.29374e-05 -2.84216e-05)
(1.19804 -3.11438e-05 -2.55759e-05)
(1.19856 -7.44115e-05 -2.67613e-05)
(1.19808 -3.20199e-05 -6.1466e-05)
(1.19835 -2.84193e-05 -1.86231e-05)
(1.19844 -2.76865e-05 -1.60993e-05)
(1.19897 -5.35097e-05 -1.72294e-05)
(1.1985 -2.80291e-05 -3.87344e-05)
(1.19866 -2.65953e-05 -1.20923e-05)
(1.19872 -2.64464e-05 -1.09367e-05)
(1.19923 -4.05852e-05 -1.18469e-05)
(1.19879 -2.66804e-05 -2.54848e-05)
(1.19888 -2.91857e-05 -7.51082e-06)
(1.19892 -3.07753e-05 -6.81569e-06)
(1.19938 -3.49145e-05 -7.31395e-06)
(1.199 -3.0138e-05 -1.57971e-05)
(1.19906 -3.59916e-05 -5.22347e-06)
(1.1991 -3.78613e-05 -5.00288e-06)
(1.19948 -3.39273e-05 -5.28796e-06)
(1.19918 -3.71342e-05 -1.0428e-05)
(1.19922 -4.36404e-05 -4.0432e-06)
(1.19926 -4.45353e-05 -3.487e-06)
(1.19954 -3.49834e-05 -4.01954e-06)
(1.19934 -4.46854e-05 -6.68835e-06)
(1.22242 -0.11621 -0.111097)
(1.26 -0.0321023 -0.127316)
(1.21242 -0.0552089 -0.106166)
(1.2273 -0.0612851 -0.123103)
(1.18793 -0.0583423 -0.00413904)
(1.18236 -0.0408487 0.0194434)
(1.16963 -0.0403349 0.0189513)
(1.16465 -0.0344065 -0.000503522)
(1.18631 -0.0357141 0.0260782)
(1.17852 -0.0328338 0.0195515)
(1.18136 -0.012352 0.0016947)
(1.18174 -0.0151166 0.00258097)
(1.18092 -0.0124777 -0.000916397)
(1.18367 -0.0117975 0.00140963)
(1.1844 -0.013505 0.00192203)
(1.18836 -0.005358 4.63364e-06)
(1.18822 -0.00638063 0.00015375)
(1.1895 -0.00530618 -2.07244e-05)
(1.18949 -0.00614864 7.80755e-05)
(1.18873 -0.00567373 -0.000573866)
(1.19278 -0.00266477 -0.000160013)
(1.19256 -0.00317695 -0.000155291)
(1.19336 -0.00271017 -0.000149114)
(1.19323 -0.0031492 -0.00014972)
(1.19315 -0.00290659 -0.000376015)
(1.19544 -0.00145071 -0.000105546)
(1.19526 -0.00172784 -0.000111046)
(1.19576 -0.00149762 -9.94432e-05)
(1.19563 -0.00174078 -0.000104945)
(1.19573 -0.00160279 -0.000239682)
(1.19705 -0.000832081 -6.75649e-05)
(1.19693 -0.000990442 -7.17155e-05)
(1.19723 -0.000866735 -6.43643e-05)
(1.19714 -0.00100787 -6.83935e-05)
(1.19729 -0.000925333 -0.000151835)
(1.19804 -0.000493354 -4.38474e-05)
(1.19796 -0.000586646 -4.67521e-05)
(1.19815 -0.000516192 -4.17418e-05)
(1.19809 -0.000600893 -4.46545e-05)
(1.19825 -0.000550208 -9.67407e-05)
(1.19866 -0.00029806 -2.82061e-05)
(1.19861 -0.000353691 -3.00882e-05)
(1.19873 -0.000312801 -2.75468e-05)
(1.19868 -0.000364652 -2.92745e-05)
(1.19885 -0.000333424 -6.20186e-05)
(1.19905 -0.000183249 -1.87022e-05)
(1.19902 -0.00021686 -2.02602e-05)
(1.19909 -0.0001916 -1.81984e-05)
(1.19906 -0.000225031 -1.95613e-05)
(1.19923 -0.00020473 -4.00497e-05)
(1.19931 -0.000113272 -1.33454e-05)
(1.19928 -0.000132751 -1.42319e-05)
(1.19933 -0.00011641 -1.31124e-05)
(1.1993 -0.00013928 -1.39915e-05)
(1.19947 -0.000125318 -2.67224e-05)
(1.19946 -6.64605e-05 -1.00089e-05)
(1.19945 -7.57305e-05 -1.07843e-05)
(1.19948 -6.55392e-05 -1.06329e-05)
(1.19946 -8.25309e-05 -1.13849e-05)
(1.19962 -7.22863e-05 -1.87473e-05)
(1.19957 -3.84262e-05 -8.3412e-06)
(1.19956 -4.02697e-05 -9.296e-06)
(1.19958 -3.31838e-05 -8.93621e-06)
(1.19957 -4.79461e-05 -9.70903e-06)
(1.19971 -3.85808e-05 -1.35751e-05)
(1.19964 -2.01108e-05 -7.33872e-06)
(1.19963 -1.59949e-05 -8.30211e-06)
(1.19964 -1.14395e-05 -8.04313e-06)
(1.19964 -2.40058e-05 -8.79926e-06)
(1.19977 -1.57369e-05 -9.99013e-06)
(1.22441 -0.0128777 -0.119638)
(1.22021 -0.0197056 -0.117067)
(1.21608 -0.0114078 -0.117358)
(1.1785 -0.0184415 -0.00188154)
(1.21826 -0.0166284 -0.0913135)
(1.20397 -0.0180174 0.0277111)
(1.20047 -0.0197419 0.0299443)
(1.20124 -0.0161715 0.0292349)
(1.18267 -0.0189126 0.00284075)
(1.19799 -0.0173451 0.0246398)
(1.19181 -0.0124583 0.00256337)
(1.19274 -0.012912 0.00360662)
(1.19252 -0.0113716 0.002117)
(1.19316 -0.011729 0.00250072)
(1.19047 -0.0122091 -0.000493827)
(1.19271 -0.00707622 0.000213504)
(1.19298 -0.00761086 0.000377854)
(1.19338 -0.00664251 0.000118343)
(1.19355 -0.0070631 0.000200158)
(1.19327 -0.00711878 -0.000435656)
(1.1947 -0.00404139 -0.00014342)
(1.19472 -0.00442331 -0.000137622)
(1.19516 -0.0038693 -0.000145613)
(1.19518 -0.00417638 -0.000150404)
(1.1954 -0.00413971 -0.000334237)
(1.19636 -0.00236555 -0.000110961)
(1.19632 -0.00260754 -0.000118656)
(1.19665 -0.0022911 -0.000107416)
(1.19663 -0.00249041 -0.000115088)
(1.19692 -0.00244587 -0.000227638)
(1.19751 -0.00141502 -7.32876e-05)
(1.19747 -0.00156455 -7.85395e-05)
(1.19769 -0.00138047 -7.05196e-05)
(1.19766 -0.00150605 -7.54499e-05)
(1.19795 -0.00147027 -0.000147237)
(1.19827 -0.000860126 -4.82672e-05)
(1.19824 -0.000952817 -5.13384e-05)
(1.19838 -0.000843051 -4.68005e-05)
(1.19835 -0.000922291 -4.96485e-05)
(1.19864 -0.000896917 -9.59307e-05)
(1.19878 -0.000529526 -3.33372e-05)
(1.19874 -0.000586829 -3.55098e-05)
(1.19884 -0.000521083 -3.23942e-05)
(1.19882 -0.000570165 -3.47714e-05)
(1.19909 -0.000554204 -6.36974e-05)
(1.1991 -0.000328846 -2.27708e-05)
(1.19907 -0.000365252 -2.41963e-05)
(1.19914 -0.000323792 -2.26514e-05)
(1.19912 -0.000355021 -2.39761e-05)
(1.19938 -0.00034524 -4.20571e-05)
(1.19931 -0.000203014 -1.65923e-05)
(1.19929 -0.000225448 -1.77118e-05)
(1.19933 -0.00019933 -1.6968e-05)
(1.19932 -0.00021891 -1.78092e-05)
(1.19956 -0.000213538 -2.82743e-05)
(1.19946 -0.00012381 -1.54044e-05)
(1.19944 -0.000138091 -1.62543e-05)
(1.19947 -0.000121869 -1.57596e-05)
(1.19946 -0.000134225 -1.66306e-05)
(1.19968 -0.000131471 -2.24375e-05)
(1.19956 -7.24048e-05 -1.40628e-05)
(1.19955 -8.14366e-05 -1.48909e-05)
(1.19958 -7.04667e-05 -1.47744e-05)
(1.19957 -7.89768e-05 -1.55901e-05)
(1.19975 -7.79604e-05 -1.78355e-05)
(1.19964 -3.89307e-05 -1.34741e-05)
(1.19963 -4.35449e-05 -1.43751e-05)
(1.19965 -3.63794e-05 -1.41359e-05)
(1.19965 -4.26116e-05 -1.51269e-05)
(1.1998 -4.22475e-05 -1.44944e-05)
(1.17178 0.0268449 -0.0511161)
(1.18811 0.00742657 -0.0955394)
(1.1511 -0.0159543 -0.0167538)
(1.17775 0.0167744 -0.0475406)
(1.19459 -0.00460131 0.0126823)
(1.19662 -0.00939379 0.0199325)
(1.18484 -0.0146382 0.00246045)
(1.19541 -0.00956207 0.0138802)
(1.19509 -0.00961003 0.00160142)
(1.19522 -0.00971478 0.00221816)
(1.19534 -0.00895899 0.00114966)
(1.19548 -0.0100424 -0.000491018)
(1.19557 -0.00662108 3.28975e-05)
(1.19578 -0.00686543 9.46766e-05)
(1.19597 -0.00618966 -5.85559e-05)
(1.19682 -0.00663088 -0.000419293)
(1.19653 -0.00422653 -0.000179577)
(1.19663 -0.00444965 -0.00018487)
(1.19686 -0.00396997 -0.000177804)
(1.19761 -0.00421234 -0.000318379)
(1.19744 -0.00264115 -0.000125828)
(1.19749 -0.00280372 -0.00013403)
(1.19767 -0.002495 -0.000120017)
(1.19826 -0.00264415 -0.000215325)
(1.19814 -0.00164672 -7.97953e-05)
(1.19815 -0.00175649 -8.49569e-05)
(1.19828 -0.00156223 -7.59092e-05)
(1.19876 -0.00165516 -0.000138502)
(1.19861 -0.00102796 -5.28855e-05)
(1.19862 -0.00109996 -5.56429e-05)
(1.19871 -0.000978834 -5.14078e-05)
(1.19913 -0.0010374 -9.17459e-05)
(1.19896 -0.000645405 -3.81756e-05)
(1.19895 -0.000691283 -4.04449e-05)
(1.19902 -0.000615268 -3.68331e-05)
(1.19939 -0.000652837 -6.27817e-05)
(1.19919 -0.000403878 -2.78655e-05)
(1.19918 -0.00043313 -2.94247e-05)
(1.19923 -0.000385765 -2.73025e-05)
(1.19957 -0.000409928 -4.36852e-05)
(1.19935 -0.000250074 -2.21674e-05)
(1.19934 -0.000268647 -2.3166e-05)
(1.19937 -0.000238357 -2.26615e-05)
(1.19968 -0.000254856 -3.20329e-05)
(1.19948 -0.00015287 -2.09704e-05)
(1.19946 -0.000165068 -2.1878e-05)
(1.19949 -0.000145932 -2.15737e-05)
(1.19976 -0.000157239 -2.64353e-05)
(1.19957 -9.3087e-05 -2.00632e-05)
(1.19957 -0.00010118 -2.06899e-05)
(1.19959 -8.86331e-05 -2.08619e-05)
(1.19981 -9.67271e-05 -2.16961e-05)
(1.19966 -5.04673e-05 -2.00728e-05)
(1.19965 -5.59293e-05 -2.09404e-05)
(1.19967 -4.69242e-05 -2.03781e-05)
(1.19984 -5.35412e-05 -1.9023e-05)
(0.996139 -0.227279 -0.0328342)
(0.872886 -0.30193 -0.0373371)
(1.06002 -0.165588 -0.0334575)
(1.06019 -0.208122 -0.0364595)
(0.997729 -0.226064 -0.0247022)
(1.16307 0.00377062 -0.0184875)
(1.15539 0.00630683 -0.0134331)
(1.15904 -0.00226149 -0.0168797)
(1.15973 0.00592892 -0.0117611)
(1.16362 0.00263667 -0.0147099)
(1.17504 -0.00208923 -0.00639936)
(1.17561 -0.00252493 -0.00750606)
(1.17843 -0.0041262 -0.00662537)
(1.17908 -0.00190265 -0.00609563)
(1.17651 -0.00203424 -0.00599305)
(1.18661 -0.000699406 -0.00301059)
(1.18619 -0.000805206 -0.00353151)
(1.1879 -0.00064272 -0.00301048)
(1.18748 -0.00151095 -0.00322435)
(1.18717 -0.000686522 -0.00334074)
(1.19221 -0.000299054 -0.00164888)
(1.19181 -0.000332677 -0.00195674)
(1.19277 -0.000266303 -0.00171462)
(1.19258 -0.000679659 -0.00181537)
(1.19247 -0.000291607 -0.00199832)
(1.1951 -0.000122662 -0.000986641)
(1.19489 -0.000136074 -0.0011703)
(1.1954 -0.000110594 -0.00103397)
(1.19551 -0.000330161 -0.00109427)
(1.19524 -0.000120213 -0.0012068)
(1.19669 -6.15492e-05 -0.000606839)
(1.19657 -6.61368e-05 -0.000718629)
(1.19686 -5.77188e-05 -0.000637956)
(1.19721 -0.00018054 -0.000675404)
(1.19677 -6.11187e-05 -0.000743792)
(1.19763 -4.07089e-05 -0.000379419)
(1.19756 -4.25033e-05 -0.000448373)
(1.19774 -3.91337e-05 -0.000399249)
(1.19822 -0.000110473 -0.000422323)
(1.19768 -4.05417e-05 -0.000465178)
(1.19823 -3.17126e-05 -0.000238688)
(1.19819 -3.24341e-05 -0.000281916)
(1.1983 -3.10831e-05 -0.000251086)
(1.19884 -7.34571e-05 -0.000265658)
(1.19827 -3.17056e-05 -0.000292134)
(1.19863 -2.80732e-05 -0.000151104)
(1.1986 -2.84655e-05 -0.000178561)
(1.19868 -2.78214e-05 -0.000158945)
(1.19922 -5.30554e-05 -0.000168328)
(1.19865 -2.80195e-05 -0.000184874)
(1.19891 -2.72893e-05 -9.53034e-05)
(1.19889 -2.76308e-05 -0.000111826)
(1.19895 -2.7537e-05 -0.000100244)
(1.19946 -4.12241e-05 -0.000106379)
(1.19893 -2.77994e-05 -0.000116637)
(1.19912 -3.02694e-05 -6.07274e-05)
(1.1991 -2.96804e-05 -7.19549e-05)
(1.19915 -3.08713e-05 -6.39938e-05)
(1.19961 -3.52078e-05 -6.7695e-05)
(1.19913 -3.0202e-05 -7.46983e-05)
(1.19929 -3.69885e-05 -3.79945e-05)
(1.19927 -3.59546e-05 -4.48173e-05)
(1.19931 -3.79001e-05 -3.95772e-05)
(1.1997 -3.44303e-05 -4.19505e-05)
(1.1993 -3.6885e-05 -4.65055e-05)
(1.19945 -4.46289e-05 -2.19055e-05)
(1.19943 -4.37259e-05 -2.60311e-05)
(1.19947 -4.47025e-05 -2.2175e-05)
(1.19975 -3.55756e-05 -2.39622e-05)
(1.19945 -4.45684e-05 -2.67707e-05)
(1.36403 -0.00918401 -0.0223166)
(1.36413 -0.0506384 -0.0319182)
(1.31332 -0.0713112 -0.047075)
(1.30638 -0.039369 -0.0450495)
(1.34511 -0.0219736 -0.0162986)
(1.20097 -0.0642648 -0.00144528)
(1.21492 -0.114591 -0.0502764)
(1.23421 -0.0944597 -0.0526015)
(1.21714 -0.0774293 -0.0421005)
(1.2312 -0.0823537 -0.0525043)
(1.21244 -0.0665198 -0.0153924)
(1.17551 -0.0302222 -0.0118804)
(1.18686 -0.0340905 -0.0168279)
(1.19295 -0.0396591 -0.0190652)
(1.1969 -0.0337255 -0.0163459)
(1.1808 -0.029622 -0.00892877)
(1.18986 -0.0304702 -0.0139379)
(1.18354 -0.0118373 -0.00548092)
(1.18589 -0.0120488 -0.006051)
(1.18727 -0.0143127 -0.00659262)
(1.18767 -0.0113992 -0.00539733)
(1.189 -0.0130415 -0.00577469)
(1.18482 -0.0115611 -0.00491615)
(1.1897 -0.00546211 -0.00276521)
(1.18993 -0.00515041 -0.00302726)
(1.19001 -0.00614735 -0.00322911)
(1.1909 -0.00509413 -0.0027718)
(1.19105 -0.00590819 -0.0029185)
(1.19019 -0.00535359 -0.00296537)
(1.19365 -0.00281508 -0.00154272)
(1.19356 -0.00254991 -0.00172268)
(1.1934 -0.00304155 -0.00181936)
(1.19412 -0.00259835 -0.00159879)
(1.19403 -0.00302025 -0.00167222)
(1.19388 -0.00276473 -0.00184624)
(1.19606 -0.00156063 -0.000933603)
(1.19601 -0.00140035 -0.00104987)
(1.19587 -0.00166763 -0.00110498)
(1.19633 -0.00144821 -0.000980117)
(1.19624 -0.00168319 -0.00102466)
(1.19619 -0.00153546 -0.0011422)
(1.19753 -0.000904606 -0.000582197)
(1.19751 -0.000808947 -0.000653523)
(1.19742 -0.000962441 -0.000687836)
(1.1977 -0.000843305 -0.000612157)
(1.19763 -0.000980522 -0.000640572)
(1.19761 -0.000891683 -0.000713322)
(1.19844 -0.000539531 -0.000366791)
(1.19843 -0.000481932 -0.000411002)
(1.19837 -0.000572581 -0.000432804)
(1.19855 -0.000504554 -0.000385809)
(1.1985 -0.000587165 -0.000404156)
(1.19849 -0.0005327 -0.000449633)
(1.19901 -0.000328055 -0.000232073)
(1.199 -0.000293005 -0.000259705)
(1.19896 -0.00034751 -0.000273623)
(1.19907 -0.000307452 -0.000244113)
(1.19905 -0.000358597 -0.000255959)
(1.19904 -0.000324315 -0.000284601)
(1.19937 -0.000201712 -0.000147386)
(1.19936 -0.000180894 -0.000164685)
(1.19934 -0.000213526 -0.00017351)
(1.19941 -0.000189108 -0.0001549)
(1.19939 -0.000221929 -0.000162537)
(1.19939 -0.000199567 -0.000180676)
(1.19959 -0.00012302 -9.36465e-05)
(1.19959 -0.00011171 -0.000104586)
(1.19957 -0.000130505 -0.000110101)
(1.19962 -0.00011476 -9.82689e-05)
(1.19961 -0.000137333 -0.000103216)
(1.1996 -0.000121652 -0.000114887)
(1.19973 -7.21245e-05 -5.93036e-05)
(1.19973 -6.76945e-05 -6.59683e-05)
(1.19972 -7.67991e-05 -6.95633e-05)
(1.19975 -6.67682e-05 -6.19035e-05)
(1.19974 -8.38163e-05 -6.51605e-05)
(1.19974 -7.13174e-05 -7.29444e-05)
(1.19982 -3.89642e-05 -3.74046e-05)
(1.19982 -4.0177e-05 -4.10008e-05)
(1.19982 -4.19869e-05 -4.33637e-05)
(1.19983 -3.51449e-05 -3.82297e-05)
(1.19983 -4.99312e-05 -4.05557e-05)
(1.19983 -3.85193e-05 -4.57594e-05)
(1.19987 -1.6103e-05 -2.15869e-05)
(1.19987 -2.18701e-05 -2.32223e-05)
(1.19987 -1.79104e-05 -2.48733e-05)
(1.19988 -1.3477e-05 -2.10014e-05)
(1.19988 -2.60925e-05 -2.29274e-05)
(1.19988 -1.58081e-05 -2.64142e-05)
(1.28548 0.00207432 -0.012239)
(1.24711 0.00105797 -0.0617135)
(1.24084 -0.000783656 -0.0677587)
(1.24307 0.0160773 -0.0622939)
(1.26592 0.00150517 -0.0166325)
(1.23835 -0.0149103 -0.0636132)
(1.20361 -0.0195027 0.00359872)
(1.24244 -0.0194641 -0.0579035)
(1.24044 -0.00134912 -0.0572576)
(1.22114 -0.0187178 -0.0124779)
(1.23646 -0.016795 -0.048659)
(1.19169 -0.018349 -0.00857882)
(1.21233 -0.0183773 -0.0150412)
(1.21505 -0.0173706 -0.0178227)
(1.2134 -0.0141025 -0.0144799)
(1.20843 -0.0163799 -0.012027)
(1.19759 -0.0177819 -0.00576056)
(1.19235 -0.0116936 -0.00425225)
(1.19626 -0.0117085 -0.00485198)
(1.19775 -0.0121304 -0.00519074)
(1.19634 -0.0107383 -0.00426229)
(1.19773 -0.0109244 -0.0045544)
(1.19334 -0.0113976 -0.00353167)
(1.19403 -0.00686937 -0.00227294)
(1.19443 -0.00678241 -0.00251151)
(1.19494 -0.0072795 -0.00262617)
(1.195 -0.00637136 -0.00227856)
(1.19539 -0.00675706 -0.00236046)
(1.19439 -0.00671856 -0.00235697)
(1.19581 -0.00401886 -0.00131769)
(1.19567 -0.00389988 -0.00147673)
(1.19578 -0.0042672 -0.00153546)
(1.19612 -0.00373821 -0.00135912)
(1.19622 -0.00403296 -0.00140206)
(1.196 -0.00394429 -0.00155211)
(1.19721 -0.00238429 -0.000817434)
(1.1971 -0.00229433 -0.000925051)
(1.19711 -0.00252832 -0.000960595)
(1.19739 -0.00222387 -0.000857787)
(1.19742 -0.00241666 -0.000886284)
(1.19732 -0.00234558 -0.00100002)
(1.19817 -0.00143743 -0.000521828)
(1.19811 -0.00137732 -0.000588529)
(1.1981 -0.00152241 -0.000612666)
(1.19829 -0.00134425 -0.000548046)
(1.1983 -0.00146613 -0.00056793)
(1.19824 -0.00141686 -0.000639624)
(1.19881 -0.000879183 -0.000334476)
(1.19878 -0.000840335 -0.000376201)
(1.19877 -0.000930101 -0.000392548)
(1.19889 -0.000824116 -0.000351293)
(1.19889 -0.00090046 -0.000364946)
(1.19886 -0.000867943 -0.000410305)
(1.19923 -0.000545073 -0.000214954)
(1.19921 -0.000520139 -0.000240815)
(1.1992 -0.000576028 -0.000251831)
(1.19928 -0.000511886 -0.000225369)
(1.19928 -0.000559933 -0.000234757)
(1.19926 -0.000539021 -0.000263714)
(1.1995 -0.000340269 -0.000137788)
(1.19949 -0.000324349 -0.000153915)
(1.19949 -0.000359564 -0.000161251)
(1.19954 -0.000319476 -0.000144136)
(1.19954 -0.000349971 -0.000150395)
(1.19952 -0.000336752 -0.000169086)
(1.19968 -0.000211314 -8.85716e-05)
(1.19967 -0.000201252 -9.83709e-05)
(1.19967 -0.00022348 -0.000103145)
(1.1997 -0.000198302 -9.23477e-05)
(1.1997 -0.000217694 -9.65115e-05)
(1.19969 -0.000209456 -0.00010886)
(1.19979 -0.000130614 -5.71272e-05)
(1.19979 -0.000124103 -6.24652e-05)
(1.19978 -0.000138153 -6.57204e-05)
(1.19981 -0.000122129 -5.8564e-05)
(1.1998 -0.000134393 -6.1395e-05)
(1.1998 -0.000129544 -7.01459e-05)
(1.19986 -7.79015e-05 -3.65913e-05)
(1.19986 -7.38178e-05 -3.88833e-05)
(1.19986 -8.26516e-05 -4.10527e-05)
(1.19987 -7.1866e-05 -3.61514e-05)
(1.19987 -8.01484e-05 -3.81237e-05)
(1.19987 -7.71418e-05 -4.45986e-05)
(1.1999 -4.23946e-05 -2.13541e-05)
(1.1999 -4.0687e-05 -2.17787e-05)
(1.1999 -4.52187e-05 -2.33123e-05)
(1.19991 -3.79236e-05 -1.96348e-05)
(1.19991 -4.43178e-05 -2.11935e-05)
(1.19991 -4.18091e-05 -2.61307e-05)
(1.34242 0.0686389 -0.0341826)
(1.31576 0.0927351 -0.0336182)
(1.32252 0.110063 -0.0285464)
(1.34402 0.0960363 -0.0246202)
(1.33373 0.108707 -0.0173722)
(1.18549 0.0278905 -0.0408798)
(1.17786 -0.00985388 -0.0116366)
(1.20813 0.0332105 -0.0435566)
(1.18188 0.024649 -0.029455)
(1.18764 0.000530366 -0.0132924)
(1.19508 0.021926 -0.0320396)
(1.20055 0.00016094 -0.0111355)
(1.18997 -0.0109579 -0.00555946)
(1.20571 -0.00498249 -0.010658)
(1.1936 -0.00868973 -0.0040256)
(1.20116 -0.0045103 -0.00766362)
(1.19671 -0.00931036 -0.00300524)
(1.19961 -0.00829674 -0.00350076)
(1.1999 -0.00798863 -0.00356406)
(1.19916 -0.00781526 -0.00298709)
(1.19733 -0.00890534 -0.00255094)
(1.19737 -0.0063695 -0.00170629)
(1.19765 -0.00624719 -0.00188836)
(1.19804 -0.00642553 -0.00193339)
(1.19792 -0.00585718 -0.00170127)
(1.19762 -0.00621162 -0.00178594)
(1.19795 -0.00408815 -0.00103895)
(1.19779 -0.00407559 -0.00116831)
(1.19798 -0.00428218 -0.00119517)
(1.19809 -0.00382942 -0.00107224)
(1.19808 -0.00401111 -0.00123376)
(1.1985 -0.00257741 -0.000675148)
(1.19838 -0.00255964 -0.000763331)
(1.19848 -0.00271452 -0.000783168)
(1.1986 -0.00241763 -0.000705999)
(1.19859 -0.00253618 -0.000825783)
(1.19896 -0.00161767 -0.000444491)
(1.19888 -0.00160048 -0.000501328)
(1.19893 -0.001706 -0.000516873)
(1.19903 -0.00151859 -0.000465568)
(1.19901 -0.00159492 -0.000545222)
(1.19929 -0.00101627 -0.000291544)
(1.19925 -0.0010027 -0.000327857)
(1.19927 -0.001072 -0.000339386)
(1.19934 -0.000955055 -0.000305333)
(1.19933 -0.00100352 -0.000358134)
(1.19953 -0.000641069 -0.000191928)
(1.19951 -0.000631525 -0.000214468)
(1.19952 -0.000676215 -0.000222521)
(1.19957 -0.00060279 -0.00020029)
(1.19956 -0.000633807 -0.00023552)
(1.19969 -0.000403943 -0.000125069)
(1.19968 -0.000397664 -0.000138828)
(1.19968 -0.000426401 -0.000144838)
(1.19972 -0.000379849 -0.000129821)
(1.19971 -0.000400099 -0.000153627)
(1.1998 -0.000253351 -8.28512e-05)
(1.19979 -0.000249279 -9.07357e-05)
(1.19979 -0.000267868 -9.46614e-05)
(1.19982 -0.00023801 -8.52891e-05)
(1.19981 -0.000251462 -0.000101652)
(1.19987 -0.000156927 -5.43332e-05)
(1.19986 -0.00015407 -5.80024e-05)
(1.19987 -0.000166058 -6.10341e-05)
(1.19988 -0.000146931 -5.4226e-05)
(1.19988 -0.000155881 -6.64484e-05)
(1.19992 -9.5363e-05 -3.43287e-05)
(1.19991 -9.28738e-05 -3.52798e-05)
(1.19992 -0.000100704 -3.72078e-05)
(1.19992 -8.8172e-05 -3.24206e-05)
(1.19992 -9.41965e-05 -4.18604e-05)
(1.19995 -5.32083e-05 -2.03672e-05)
(1.19994 -5.15041e-05 -1.93488e-05)
(1.19994 -5.67548e-05 -2.0662e-05)
(1.19995 -4.77483e-05 -1.74667e-05)
(1.19995 -5.25586e-05 -2.49525e-05)
(0.885463 -0.292472 -0.0192316)
(1.0044 -0.221608 -0.0168019)
(1.07 -0.198143 -0.0183907)
(1.00482 -0.220417 -0.0154413)
(1.0695 -0.160026 -0.0182206)
(1.16691 0.00505307 -0.0151677)
(1.16413 0.00624411 -0.0128034)
(1.16175 -0.000318218 -0.0145455)
(1.16583 0.00617871 -0.0124809)
(1.1669 0.00347712 -0.0136841)
(1.17949 -0.00185257 -0.00810607)
(1.17871 -0.00214488 -0.00922788)
(1.18202 -0.00162607 -0.00801077)
(1.18136 -0.00345902 -0.00854213)
(1.18079 -0.00182728 -0.00819613)
(1.18891 -0.000623054 -0.00478972)
(1.18846 -0.000692171 -0.00531074)
(1.18996 -0.000556717 -0.00466538)
(1.18961 -0.00130279 -0.00493282)
(1.1896 -0.000602365 -0.00509166)
(1.19345 -0.000261565 -0.0028815)
(1.19322 -0.000287811 -0.00320182)
(1.19399 -0.000230424 -0.0028283)
(1.19391 -0.000601383 -0.00298617)
(1.19384 -0.000249764 -0.00310704)
(1.1958 -0.0001108 -0.00176064)
(1.19568 -0.000121223 -0.00195677)
(1.1961 -9.9971e-05 -0.00173341)
(1.19629 -0.00029934 -0.00183362)
(1.19602 -0.00010739 -0.00190351)
(1.1971 -5.87644e-05 -0.00109044)
(1.19704 -6.23968e-05 -0.00121072)
(1.19728 -5.50409e-05 -0.00107571)
(1.19768 -0.000168122 -0.00113826)
(1.19724 -5.77896e-05 -0.00118015)
(1.19789 -3.94912e-05 -0.000682827)
(1.19785 -4.09195e-05 -0.00075749)
(1.198 -3.77728e-05 -0.000674724)
(1.19851 -0.00010459 -0.000713292)
(1.19797 -3.89059e-05 -0.000739907)
(1.19839 -3.11567e-05 -0.000430884)
(1.19837 -3.17281e-05 -0.000477601)
(1.19846 -3.03967e-05 -0.000425838)
(1.19902 -7.05577e-05 -0.000450013)
(1.19844 -3.07527e-05 -0.000466868)
(1.19874 -2.85953e-05 -0.000272049)
(1.19871 -2.85935e-05 -0.000301642)
(1.19878 -2.86073e-05 -0.000269283)
(1.19934 -5.22453e-05 -0.000284825)
(1.19877 -2.86312e-05 -0.000295247)
(1.19898 -2.892e-05 -0.000172535)
(1.19896 -2.89017e-05 -0.00019124)
(1.19902 -2.91632e-05 -0.000170504)
(1.19953 -4.14982e-05 -0.000180871)
(1.199 -2.91835e-05 -0.000187203)
(1.19916 -3.0086e-05 -0.000108982)
(1.19915 -2.97708e-05 -0.000120542)
(1.19919 -3.09151e-05 -0.000107419)
(1.19965 -3.42703e-05 -0.000114018)
(1.19918 -3.03385e-05 -0.00011766)
(1.19932 -3.67739e-05 -6.76954e-05)
(1.19931 -3.59261e-05 -7.52467e-05)
(1.19934 -3.78022e-05 -6.62865e-05)
(1.19973 -3.3992e-05 -7.06871e-05)
(1.19933 -3.68682e-05 -7.28943e-05)
(1.19947 -4.46827e-05 -3.8902e-05)
(1.19945 -4.3914e-05 -4.41129e-05)
(1.19949 -4.4851e-05 -3.75214e-05)
(1.19977 -3.56159e-05 -4.09542e-05)
(1.19947 -4.4809e-05 -4.215e-05)
(1.36507 -0.0169355 -0.00879717)
(1.33858 -0.0119087 -0.00456724)
(1.32342 -0.0392888 -0.0119133)
(1.33361 -0.0139421 -0.00428506)
(1.31226 -0.0119963 -0.0109061)
(1.20657 -0.0858845 -0.0201685)
(1.22552 -0.0670115 -0.0201861)
(1.20884 -0.0562754 -0.0107352)
(1.20906 -0.0568891 -0.0122938)
(1.20353 -0.0562515 -0.019961)
(1.2159 -0.0607435 -0.0207808)
(1.18145 -0.0263781 -0.0104691)
(1.18245 -0.0272457 -0.0145108)
(1.18562 -0.0318959 -0.0153708)
(1.18347 -0.0262403 -0.0105577)
(1.18586 -0.0248559 -0.0134951)
(1.19011 -0.0274042 -0.0143768)
(1.18686 -0.0104009 -0.0071772)
(1.18738 -0.010175 -0.00818892)
(1.18816 -0.0120594 -0.00874274)
(1.18903 -0.00969611 -0.00754292)
(1.18991 -0.0111093 -0.00797821)
(1.18815 -0.0101906 -0.0071742)
(1.19163 -0.00488601 -0.00440997)
(1.19165 -0.00449325 -0.00466302)
(1.19166 -0.00535227 -0.00493046)
(1.19249 -0.00446862 -0.00431875)
(1.19259 -0.00517952 -0.00451944)
(1.19229 -0.00474283 -0.00461153)
(1.19479 -0.00255699 -0.0026854)
(1.19478 -0.00229358 -0.00283579)
(1.19465 -0.00272841 -0.0029774)
(1.19524 -0.00234278 -0.0026413)
(1.19518 -0.00271748 -0.0027537)
(1.19515 -0.00247507 -0.00289421)
(1.19674 -0.00143399 -0.00166836)
(1.19675 -0.00127804 -0.00176064)
(1.19665 -0.0015197 -0.00185083)
(1.19702 -0.00132394 -0.00164549)
(1.19696 -0.00153661 -0.00171931)
(1.19696 -0.00139272 -0.00180425)
(1.19795 -0.000839803 -0.00104549)
(1.19796 -0.00074686 -0.00110172)
(1.19789 -0.000887339 -0.00115931)
(1.19812 -0.000779557 -0.00103247)
(1.19807 -0.000905417 -0.00108043)
(1.19808 -0.000818551 -0.00113157)
(1.1987 -0.000505654 -0.000659888)
(1.19871 -0.000449678 -0.00069439)
(1.19866 -0.000533475 -0.000731176)
(1.19881 -0.000471328 -0.000652209)
(1.19877 -0.000547871 -0.000683284)
(1.19878 -0.000494564 -0.000714379)
(1.19917 -0.00031002 -0.000418581)
(1.19918 -0.000276013 -0.00044003)
(1.19915 -0.00032695 -0.000463693)
(1.19924 -0.000289852 -0.000414013)
(1.19922 -0.000337905 -0.000434263)
(1.19922 -0.00030426 -0.000453385)
(1.19947 -0.000191481 -0.000265767)
(1.19947 -0.000171461 -0.000279355)
(1.19945 -0.000202097 -0.000294553)
(1.19951 -0.000179016 -0.00026291)
(1.1995 -0.000210444 -0.000276103)
(1.1995 -0.000188232 -0.000288085)
(1.19966 -0.000116806 -0.000168799)
(1.19966 -0.000106299 -0.000177437)
(1.19965 -0.000123589 -0.000186998)
(1.19968 -0.000108901 -0.000166946)
(1.19968 -0.00013082 -0.000175411)
(1.19968 -0.000114781 -0.000182861)
(1.19978 -6.90461e-05 -0.000107265)
(1.19978 -6.52597e-05 -0.000112665)
(1.19977 -7.3541e-05 -0.000118871)
(1.19979 -6.41706e-05 -0.00010599)
(1.19979 -8.10056e-05 -0.000111755)
(1.19979 -6.81379e-05 -0.000116237)
(1.19985 -3.76795e-05 -6.68148e-05)
(1.19985 -3.94412e-05 -7.02173e-05)
(1.19985 -4.08914e-05 -7.42921e-05)
(1.19986 -3.43359e-05 -6.55431e-05)
(1.19986 -4.89443e-05 -6.9783e-05)
(1.19986 -3.72456e-05 -7.21557e-05)
(1.19989 -1.5925e-05 -3.85688e-05)
(1.19989 -2.21728e-05 -4.07215e-05)
(1.19989 -1.81224e-05 -4.34476e-05)
(1.1999 -1.39659e-05 -3.73283e-05)
(1.1999 -2.63877e-05 -4.05967e-05)
(1.1999 -1.58002e-05 -4.17732e-05)
(1.26225 0.00107716 -0.00267299)
(1.25637 0.00208804 -0.0142001)
(1.25295 -0.001832 -0.0157379)
(1.25171 0.00834823 -0.0141534)
(1.25787 0.0011324 -0.00507138)
(1.22351 -0.0171178 -0.0208572)
(1.21621 -0.0189374 -0.0067726)
(1.22238 -0.0190536 -0.0210016)
(1.22092 -0.0069084 -0.0203515)
(1.21721 -0.0183142 -0.0101955)
(1.21538 -0.0184608 -0.0199363)
(1.19624 -0.0167793 -0.00768366)
(1.20222 -0.0166336 -0.0133258)
(1.20231 -0.0168958 -0.0140636)
(1.20013 -0.0154977 -0.0120556)
(1.20372 -0.0137884 -0.0126957)
(1.19841 -0.0161629 -0.00819654)
(1.19439 -0.010479 -0.00565093)
(1.19597 -0.0103844 -0.00706571)
(1.19673 -0.0109805 -0.00745701)
(1.19625 -0.00965689 -0.00638719)
(1.19737 -0.00989423 -0.0066791)
(1.19555 -0.0100946 -0.00562591)
(1.19541 -0.00616991 -0.00364422)
(1.19548 -0.00604184 -0.00396564)
(1.19588 -0.00650413 -0.00414116)
(1.196 -0.00569777 -0.00362731)
(1.19633 -0.00605415 -0.00375119)
(1.19597 -0.00595598 -0.00376067)
(1.19671 -0.00365159 -0.00228659)
(1.19661 -0.00351713 -0.00244045)
(1.19672 -0.00384395 -0.00252599)
(1.197 -0.00337802 -0.00225608)
(1.1971 -0.00364075 -0.00232236)
(1.19701 -0.00353368 -0.00246045)
(1.19778 -0.00219199 -0.00146179)
(1.19773 -0.00209617 -0.00155704)
(1.19775 -0.0023065 -0.00161555)
(1.19797 -0.00203502 -0.00144632)
(1.19801 -0.00220879 -0.00149393)
(1.19796 -0.00212899 -0.00158068)
(1.19853 -0.00133602 -0.000938341)
(1.19851 -0.00127351 -0.000996283)
(1.19851 -0.00140578 -0.00103762)
(1.19866 -0.00124476 -0.000928974)
(1.19868 -0.00135602 -0.00096322)
(1.19865 -0.001303 -0.00101569)
(1.19904 -0.000824211 -0.000603394)
(1.19903 -0.000784554 -0.000639009)
(1.19903 -0.000867401 -0.000667203)
(1.19913 -0.000770202 -0.000597642)
(1.19913 -0.000840714 -0.000621422)
(1.19912 -0.000806647 -0.000653425)
(1.19938 -0.00051573 -0.000388619)
(1.19937 -0.000490489 -0.000410769)
(1.19937 -0.000542437 -0.000429739)
(1.19944 -0.000483257 -0.000385028)
(1.19944 -0.000528015 -0.000401208)
(1.19943 -0.000506178 -0.000420942)
(1.1996 -0.000323432 -0.000248752)
(1.1996 -0.000307493 -0.000262782)
(1.19959 -0.000340704 -0.000275585)
(1.19964 -0.000303096 -0.000246263)
(1.19964 -0.000331822 -0.000257163)
(1.19963 -0.000317818 -0.000269789)
(1.19974 -0.000203123 -0.000159599)
(1.19974 -0.000193069 -0.000168037)
(1.19974 -0.000214238 -0.000176361)
(1.19977 -0.000190746 -0.000158156)
(1.19977 -0.000209354 -0.000165421)
(1.19977 -0.000200509 -0.000172807)
(1.19984 -0.000126287 -0.000103237)
(1.19983 -0.000120219 -0.000108562)
(1.19983 -0.000133673 -0.000114226)
(1.19985 -0.000118382 -0.000102187)
(1.19985 -0.000130172 -0.000107244)
(1.19985 -0.000124971 -0.00011197)
(1.19989 -7.53136e-05 -6.48876e-05)
(1.19989 -7.20598e-05 -6.80664e-05)
(1.19989 -8.04047e-05 -7.2022e-05)
(1.1999 -6.99568e-05 -6.36386e-05)
(1.1999 -7.80108e-05 -6.72226e-05)
(1.1999 -7.44702e-05 -6.99786e-05)
(1.19993 -4.11658e-05 -3.81727e-05)
(1.19992 -4.05815e-05 -4.01421e-05)
(1.19993 -4.45448e-05 -4.27339e-05)
(1.19993 -3.75658e-05 -3.68872e-05)
(1.19993 -4.39393e-05 -3.96869e-05)
(1.19993 -4.07107e-05 -4.11234e-05)
(1.32261 0.0766545 -0.0088092)
(1.30399 0.0644516 -0.00257051)
(1.30846 0.0855678 -0.00141782)
(1.32832 0.0774717 -0.00106932)
(1.32018 0.0854267 -0.00568728)
(1.18988 0.00182278 -0.0144697)
(1.19045 -0.00564295 -0.00739544)
(1.20207 0.0115092 -0.0156917)
(1.18585 0.00932152 -0.0133485)
(1.1913 -0.00328825 -0.00875658)
(1.19325 0.00212717 -0.0137219)
(1.19504 -0.00410979 -0.00973998)
(1.19347 -0.00812444 -0.00589841)
(1.20052 -0.00722974 -0.00978573)
(1.20034 -0.00923754 -0.00854568)
(1.19487 -0.00690863 -0.00624128)
(1.19723 -0.00626027 -0.00845977)
(1.19808 -0.00809084 -0.00420693)
(1.19953 -0.00770355 -0.00527929)
(1.19945 -0.00752688 -0.00540067)
(1.19922 -0.00721131 -0.004675)
(1.19977 -0.00744738 -0.00476387)
(1.19887 -0.00757702 -0.00421446)
(1.19833 -0.00569868 -0.00278622)
(1.19839 -0.00563216 -0.00305826)
(1.19871 -0.00580404 -0.00313385)