/*--------------------------------*- C++ -*----------------------------------*\
| =========                 |                                                 |
| \\      /  F ield         | OpenFOAM: The Open Source CFD Toolbox           |
|  \\    /   O peration     | Version:  2012                                  |
|   \\  /    A nd           | Website:  www.openfoam.com                      |
|    \\/     M anipulation  |                                                 |
\*---------------------------------------------------------------------------*/
FoamFile
{
    version     2.0;
    format      ascii;
    class       volScalarField::Internal;
    location    "0.106/fluid";
    object      V0;
}
// * * * * * * * * * * * * * * * * * * * * * * * * * * * * * * * * * * * * * //

dimensions      [0 3 0 0 0 0 0];


value           nonuniform List<scalar> 
16421
(
4.23653e-05
4.24707e-05
4.24852e-05
4.2489e-05
4.24929e-05
4.2498e-05
4.25033e-05
4.25081e-05
4.25127e-05
4.25145e-05
4.25145e-05
4.25167e-05
4.25151e-05
4.21508e-05
4.24725e-05
4.24825e-05
4.24868e-05
4.24905e-05
4.24949e-05
4.24995e-05
4.25035e-05
4.25066e-05
4.25101e-05
4.25129e-05
4.25127e-05
4.25126e-05
4.25117e-05
4.23846e-05
4.2467e-05
4.2476e-05
4.24838e-05
4.24902e-05
4.24951e-05
4.25006e-05
4.25045e-05
4.25062e-05
4.2509e-05
4.25111e-05
4.25121e-05
4.251e-05
4.25083e-05
4.23589e-05
4.24181e-05
4.24568e-05
4.24795e-05
4.24904e-05
4.24955e-05
4.2501e-05
4.2504e-05
4.25071e-05
4.25109e-05
4.25112e-05
4.25097e-05
4.25088e-05
4.25064e-05
4.25977e-05
4.25188e-05
4.24959e-05
4.24915e-05
4.24911e-05
4.24939e-05
4.24988e-05
4.25033e-05
4.25091e-05
4.25131e-05
4.25144e-05
4.25161e-05
4.25159e-05
4.25154e-05
4.28553e-05
4.2667e-05
4.25332e-05
4.2498e-05
4.24909e-05
4.24916e-05
4.24954e-05
4.25001e-05
4.25039e-05
4.25078e-05
4.25108e-05
4.25128e-05
4.25135e-05
4.25126e-05
4.25116e-05
4.28169e-05
4.26448e-05
4.25112e-05
4.24869e-05
4.24854e-05
4.24898e-05
4.24947e-05
4.25003e-05
4.2506e-05
4.2507e-05
4.25096e-05
4.25119e-05
4.25121e-05
4.25103e-05
4.25082e-05
5.33693e-06
4.24105e-05
4.24368e-05
4.24664e-05
4.24805e-05
4.24888e-05
4.24947e-05
4.24999e-05
4.25048e-05
4.25079e-05
4.25101e-05
4.25112e-05
4.251e-05
4.25094e-05
4.25081e-05
4.24397e-05
4.25283e-05
4.25119e-05
4.24983e-05
4.24939e-05
4.24956e-05
4.25001e-05
4.25053e-05
4.25102e-05
4.25132e-05
4.25152e-05
4.25156e-05
4.25162e-05
4.25161e-05
4.26875e-05
4.26267e-05
4.2549e-05
4.25095e-05
4.24959e-05
4.24937e-05
4.24965e-05
4.2501e-05
4.25059e-05
4.25093e-05
4.25125e-05
4.25139e-05
4.25133e-05
4.25125e-05
4.2513e-05
4.27572e-05
4.26532e-05
4.2527e-05
4.24946e-05
4.24879e-05
4.24897e-05
4.24944e-05
4.25008e-05
4.25063e-05
4.25094e-05
4.2511e-05
4.25128e-05
4.25129e-05
4.2511e-05
4.25096e-05
5.3285e-06
4.23874e-05
4.24468e-05
4.24731e-05
4.2483e-05
4.24909e-05
4.24943e-05
4.25006e-05
4.25067e-05
4.25099e-05
4.25116e-05
4.25119e-05
4.25121e-05
4.25112e-05
4.25095e-05
5.23225e-06
4.27227e-05
4.30792e-05
4.27994e-05
4.22836e-05
4.20455e-05
4.24696e-05
4.27046e-05
4.25094e-05
4.26861e-05
4.25393e-05
4.19895e-05
4.22457e-05
4.29425e-05
4.27075e-05
4.28048e-05
4.26615e-05
4.22775e-05
4.2447e-05
4.2829e-05
4.2682e-05
4.29954e-05
4.27145e-05
4.24503e-05
5.33822e-06
4.25262e-05
4.25323e-05
4.28954e-05
4.27597e-05
4.23787e-05
4.27188e-05
4.26396e-05
4.25099e-05
5.32816e-06
4.24752e-05
4.23645e-05
4.27023e-05
4.26217e-05
4.24705e-05
5.56666e-06
6.80287e-07
6.51222e-07
4.25877e-05
5.23271e-06
5.36305e-06
5.30862e-06
5.32105e-06
4.26793e-05
4.23088e-05
4.30597e-05
6.78116e-07
5.34802e-06
4.29674e-05
5.34044e-06
6.79606e-07
4.31848e-05
6.79721e-07
5.3427e-06
4.31404e-05
5.35053e-06
6.79898e-07
6.81081e-07
5.42994e-06
5.44847e-06
4.24014e-05
4.2413e-05
4.24188e-05
5.32104e-06
6.47503e-07
6.69323e-07
5.33455e-06
6.68665e-07
6.47063e-07
4.27144e-05
4.28748e-05
4.27002e-05
4.27683e-05
4.27134e-05
4.27797e-05
4.26623e-05
5.39318e-06
5.32912e-06
5.38658e-06
4.24246e-05
4.23916e-05
4.24307e-05
5.31791e-06
6.47026e-07
6.68637e-07
5.31924e-06
6.68595e-07
6.46984e-07
4.27051e-05
4.2776e-05
4.26561e-05
5.38549e-06
5.32872e-06
5.38534e-06
4.24309e-05
5.54833e-06
6.69242e-07
5.35018e-06
5.34576e-06
5.3984e-06
5.54725e-06
6.77561e-07
5.35474e-06
5.59871e-06
4.27602e-05
5.51234e-06
5.35667e-06
5.17212e-06
4.2214e-05
5.34992e-06
4.24216e-05
5.471e-06
6.47226e-07
6.69128e-07
6.77706e-07
5.337e-06
6.51988e-07
4.30945e-05
6.79729e-07
5.3424e-06
5.34197e-06
4.31155e-05
6.79592e-07
4.3279e-05
6.80972e-07
5.40966e-06
5.35263e-06
4.35072e-05
6.79872e-07
5.25685e-06
4.25584e-05
4.34091e-05
5.3999e-06
5.39374e-06
5.42721e-06
4.25506e-05
4.32927e-05
4.33762e-05
5.32204e-06
6.46986e-07
6.68605e-07
6.68742e-07
5.31861e-06
6.47132e-07
4.32537e-05
4.19507e-05
4.24978e-05
4.32335e-05
4.19471e-05
5.3297e-06
5.3851e-06
5.38723e-06
4.24845e-05
4.32082e-05
4.19277e-05
4.32167e-05
4.19367e-05
5.31822e-06
6.68607e-07
6.47024e-07
4.32047e-05
4.19235e-05
4.24672e-05
4.32025e-05
4.19189e-05
5.32917e-06
5.38562e-06
4.24682e-05
4.32067e-05
4.19158e-05
5.2598e-06
1.13222e-07
6.93454e-08
6.49664e-07
6.24233e-07
5.29211e-06
5.31586e-06
6.65723e-07
6.67896e-07
6.6387e-07
6.68652e-07
4.24618e-05
4.23589e-05
4.2461e-05
4.26279e-05
4.25339e-05
4.26013e-05
4.25191e-05
6.66489e-07
6.68973e-07
6.66355e-07
6.69061e-07
4.24612e-05
4.24286e-05
4.24261e-05
4.2611e-05
4.25123e-05
4.25505e-05
4.24514e-05
6.85133e-07
6.72988e-07
6.70776e-07
6.97197e-07
4.25372e-05
4.26907e-05
4.25558e-05
4.24563e-05
4.25335e-05
4.26171e-05
4.25622e-05
4.27319e-05
4.27976e-05
4.26991e-05
4.27059e-05
4.2666e-05
4.27827e-05
4.27191e-05
4.25259e-05
4.26017e-05
4.25575e-05
4.26499e-05
4.27711e-05
4.27108e-05
7.06348e-07
6.38728e-07
6.69577e-07
6.77933e-07
6.44953e-07
6.66833e-07
6.6227e-07
6.53611e-07
4.37192e-05
4.32488e-05
5.25784e-06
4.2882e-05
4.33463e-05
4.29767e-05
5.32162e-06
4.35796e-05
4.33586e-05
5.35357e-06
4.30098e-05
5.46459e-06
4.32269e-05
4.28468e-05
4.26416e-05
4.25503e-05
4.24005e-05
4.23174e-05
4.26029e-05
4.24759e-05
4.27012e-05
4.25235e-05
5.18123e-06
4.21562e-05
4.22789e-05
4.244e-05
4.23748e-05
5.2e-06
6.66309e-07
6.68984e-07
6.66369e-07
6.68957e-07
4.25689e-05
4.22112e-05
5.20443e-06
4.24538e-05
4.24214e-05
4.25982e-05
5.20168e-06
4.26793e-05
5.20513e-06
4.23171e-05
4.24861e-05
4.26297e-05
4.25275e-05
5.20896e-06
6.67374e-07
6.72324e-07
6.70583e-07
6.69765e-07
4.27747e-05
4.23732e-05
5.23329e-06
4.26408e-05
4.25836e-05
4.30073e-05
5.21102e-06
4.2684e-05
5.2531e-06
4.26793e-05
4.24461e-05
4.27659e-05
4.2584e-05
5.24671e-06
4.25332e-05
5.34548e-06
4.28405e-05
4.27987e-05
4.26228e-05
5.33521e-06
4.27464e-05
4.26466e-05
4.24027e-05
5.24466e-06
4.25085e-05
4.25354e-05
4.26272e-05
5.24614e-06
4.24918e-05
4.27473e-05
5.33236e-06
4.26648e-05
5.3343e-06
4.26945e-05
4.24703e-05
4.26093e-05
5.24456e-06
4.24925e-05
4.23556e-05
4.26161e-05
4.24825e-05
5.24402e-06
4.24511e-05
5.3322e-06
4.26471e-05
4.26923e-05
4.24583e-05
5.33164e-06
4.26359e-05
4.26053e-05
4.23501e-05
4.24763e-05
5.24401e-06
4.24467e-05
4.26861e-05
5.3316e-06
4.26288e-05
5.40799e-08
7.27234e-07
7.33548e-07
5.72021e-08
7.70713e-07
7.31254e-07
5.57897e-08
6.72365e-07
7.48582e-07
7.31093e-07
5.42545e-08
7.3797e-07
6.83641e-07
7.12759e-07
7.12859e-07
5.28846e-08
6.79224e-07
6.89502e-07
7.31403e-07
5.1497e-08
5.29476e-06
2.66249e-08
5.27165e-06
5.3994e-06
6.16733e-07
5.34685e-06
5.34357e-06
5.40907e-06
5.38832e-06
6.79377e-07
5.39419e-06
5.40714e-06
6.65938e-07
6.68882e-07
6.68834e-07
6.66171e-07
5.41455e-06
5.41855e-06
6.7937e-07
5.41543e-06
5.41662e-06
5.41962e-06
5.42317e-06
6.79798e-07
5.41909e-06
5.42446e-06
6.66434e-07
6.69256e-07
6.69026e-07
6.66738e-07
5.42013e-06
5.42721e-06
6.79773e-07
5.42472e-06
5.42131e-06
6.84821e-07
5.60412e-06
5.64895e-06
6.72212e-07
5.53662e-06
5.48972e-06
6.85658e-07
5.47285e-06
5.57333e-06
6.8867e-07
7.13115e-07
6.81364e-07
6.76039e-07
6.99349e-07
6.67226e-07
6.91959e-07
6.90612e-07
5.74928e-06
5.149e-08
6.70095e-07
6.47096e-07
5.1491e-08
6.69374e-07
5.42416e-08
6.57803e-07
6.68779e-07
5.42428e-08
6.56948e-07
5.42416e-08
6.56777e-07
6.68896e-07
6.57155e-07
5.42409e-08
5.149e-08
6.69269e-07
6.47227e-07
6.69586e-07
5.14894e-08
6.6911e-07
5.56854e-06
5.5689e-06
6.68999e-07
6.64172e-07
6.72814e-07
6.64393e-07
6.72599e-07
6.69043e-07
5.57014e-06
6.69302e-07
5.56928e-06
6.64232e-07
6.72545e-07
6.72654e-07
6.64126e-07
5.14895e-08
6.69245e-07
6.47017e-07
5.14896e-08
6.6918e-07
5.4241e-08
6.56732e-07
6.68594e-07
5.4241e-08
6.56663e-07
5.42406e-08
6.56651e-07
6.68618e-07
6.56692e-07
5.42406e-08
5.14891e-08
6.69178e-07
6.47018e-07
6.69217e-07
5.14891e-08
6.69032e-07
5.56763e-06
5.56778e-06
6.69035e-07
6.64143e-07
6.72581e-07
6.64153e-07
6.72559e-07
6.69042e-07
5.56808e-06
6.69012e-07
5.56797e-06
6.64139e-07
6.72572e-07
6.7255e-07
6.64128e-07
6.8984e-07
7.01001e-07
7.00379e-07
6.78776e-07
7.1397e-07
6.53888e-07
4.45896e-08
6.75851e-07
6.53505e-07
6.97387e-07
6.82806e-07
6.90908e-07
6.80813e-07
6.40049e-07
7.36445e-07
7.15137e-07
6.39495e-07
5.18016e-06
5.33173e-06
6.63575e-07
5.34745e-06
5.16305e-06
6.42478e-07
6.90252e-07
7.7569e-08
7.04975e-07
6.48301e-07
6.58745e-07
5.25682e-06
5.23379e-06
7.73774e-08
6.66685e-07
5.22395e-06
6.86505e-07
6.58215e-07
6.90798e-07
7.97794e-08
6.80486e-07
6.49029e-07
7.64976e-07
5.14931e-08
6.69687e-07
6.48355e-07
5.14895e-08
6.71836e-07
5.42462e-08
6.70756e-07
6.5746e-07
5.42413e-08
6.60025e-07
5.42447e-08
6.70736e-07
6.70555e-07
5.42647e-08
6.59595e-07
5.14918e-08
6.8009e-07
6.47729e-07
5.1507e-08
6.71023e-07
6.6629e-07
6.68941e-07
6.66237e-07
6.68942e-07
5.4185e-06
5.42285e-06
6.79668e-07
5.41882e-06
5.42206e-06
5.41819e-06
5.42045e-06
6.79673e-07
5.41768e-06
5.42134e-06
6.67472e-07
6.69181e-07
6.66641e-07
6.69845e-07
5.4322e-06
5.46054e-06
6.80141e-07
5.44838e-06
5.43921e-06
5.42617e-06
5.42808e-06
6.80162e-07
5.42274e-06
5.43398e-06
5.33403e-06
5.53917e-06
5.55749e-06
5.32013e-06
5.33479e-06
5.47169e-06
5.57137e-06
5.31033e-06
6.69692e-07
5.58614e-06
6.71949e-07
5.57759e-06
6.6488e-07
6.72708e-07
6.64276e-07
6.73326e-07
6.6474e-07
6.75636e-07
6.66945e-07
6.7315e-07
6.69832e-07
5.57111e-06
6.69184e-07
5.57342e-06
5.30976e-06
5.52877e-06
5.31563e-06
5.52242e-06
5.30929e-06
5.51759e-06
5.51941e-06
5.30665e-06
5.14897e-08
6.69202e-07
6.47096e-07
5.14896e-08
6.69291e-07
5.42412e-08
6.68672e-07
6.56676e-07
5.4241e-08
6.56793e-07
5.42412e-08
6.5691e-07
6.68624e-07
5.42417e-08
6.56712e-07
5.14897e-08
6.6939e-07
6.47049e-07
5.14901e-08
6.69219e-07
5.30705e-06
5.5155e-06
5.51624e-06
5.30565e-06
5.30624e-06
5.51709e-06
5.51646e-06
5.30745e-06
6.69004e-07
5.56837e-06
6.69039e-07
5.56803e-06
6.64153e-07
6.72576e-07
6.64149e-07
6.72567e-07
6.64135e-07
6.72575e-07
6.64154e-07
6.72549e-07
6.6902e-07
5.56807e-06
6.69002e-07
5.56799e-06
5.30398e-06
5.51486e-06
5.30551e-06
5.51417e-06
5.30416e-06
5.5143e-06
5.51415e-06
5.30377e-06
6.56674e-07
6.68595e-07
5.42402e-08
6.69197e-07
6.4699e-07
5.14887e-08
5.3032e-06
5.51258e-06
5.5132e-06
5.30261e-06
5.30356e-06
5.51421e-06
5.51385e-06
5.30387e-06
5.56771e-06
6.6899e-07
5.56833e-06
6.72548e-07
6.64086e-07
5.3028e-06
5.51241e-06
5.3022e-06
5.51267e-06
7.0426e-07
1.02755e-07
8.8698e-08
9.79006e-08
8.39735e-08
4.24603e-05
4.24699e-05
4.2478e-05
4.24947e-05
4.24886e-05
4.25194e-05
4.24956e-05
8.18829e-08
8.18569e-08
8.19056e-08
8.19044e-08
8.21023e-08
8.19605e-08
1.05885e-07
8.60033e-08
8.35459e-08
8.19331e-08
8.18582e-08
5.17962e-06
5.21115e-06
5.23852e-06
5.24222e-06
5.2212e-06
5.24078e-06
5.18508e-06
4.24318e-05
4.21125e-05
4.23837e-05
4.23614e-05
4.24294e-05
4.23575e-05
4.22808e-05
8.19036e-08
8.19051e-08
8.19298e-08
8.19823e-08
6.99247e-07
5.49338e-06
5.70755e-06
5.5205e-06
5.75554e-06
5.75514e-06
6.75615e-07
5.28939e-06
6.7664e-07
5.26382e-06
5.2481e-06
5.27355e-06
5.29899e-06
5.26995e-06
7.05973e-07
4.45208e-08
6.51772e-07
6.78958e-07
6.53358e-07
7.05116e-07
4.45215e-08
8.19007e-08
8.19014e-08
7.06693e-07
6.54418e-07
6.79528e-07
4.45231e-08
6.54323e-07
7.06736e-07
4.45243e-08
7.06857e-07
4.45201e-08
6.54623e-07
6.79764e-07
6.54722e-07
7.0683e-07
4.45199e-08
8.1907e-08
8.19111e-08
7.06902e-07
6.54953e-07
6.79824e-07
4.45261e-08
6.54802e-07
7.06978e-07
4.45257e-08
7.10256e-07
4.45302e-08
6.56801e-07
6.82108e-07
7.08437e-07
6.59171e-07
4.45326e-08
6.72585e-07
5.32573e-06
5.27308e-06
5.3285e-06
5.32996e-06
5.27465e-06
6.72548e-07
6.7259e-07
5.32493e-06
5.33455e-06
5.27975e-06
6.72678e-07
5.33103e-06
5.27587e-06
6.72516e-07
5.3186e-06
5.27081e-06
5.32642e-06
5.32659e-06
5.27097e-06
6.72513e-07
6.72523e-07
5.31817e-06
5.32689e-06
5.27125e-06
6.72527e-07
5.3266e-06
5.27096e-06
7.02449e-07
4.45303e-08
6.51063e-07
6.75114e-07
7.04475e-07
6.46299e-07
4.47391e-08
5.17159e-06
5.27488e-06
5.22455e-06
6.4736e-07
5.11463e-06
5.24094e-06
7.18702e-07
6.73144e-07
5.38271e-06
5.38679e-06
5.42715e-06
6.7463e-07
5.37134e-06
5.32119e-06
6.73004e-07
5.3616e-06
5.33873e-06
5.28457e-06
6.72704e-07
5.35021e-06
5.29739e-06
8.19019e-08
8.19021e-08
7.06819e-07
4.452e-08
6.54647e-07
6.79706e-07
6.54626e-07
7.06835e-07
4.45197e-08
7.06759e-07
6.54416e-07
4.45218e-08
6.79652e-07
6.54537e-07
7.0674e-07
4.45136e-08
8.1915e-08
8.19083e-08
7.07598e-07
4.45302e-08
6.56936e-07
6.80461e-07
6.55801e-07
7.08459e-07
4.45279e-08
7.0706e-07
6.54843e-07
4.45255e-08
6.79995e-07
6.55113e-07
7.06938e-07
4.45264e-08
5.35903e-06
5.29817e-06
5.37505e-06
5.31307e-06
5.44499e-06
5.34022e-06
5.31723e-06
6.72535e-07
5.27269e-06
5.31942e-06
5.32817e-06
6.72549e-07
5.32743e-06
5.27189e-06
6.72534e-07
5.32025e-06
5.32693e-06
5.27128e-06
6.72527e-07
5.32735e-06
5.27174e-06
6.72514e-07
5.27081e-06
5.31777e-06
5.32641e-06
6.72515e-07
5.32632e-06
5.2707e-06
6.84966e-07
7.12172e-07
6.86082e-07
6.85125e-07
7.00399e-07
7.60112e-07
6.6678e-07
6.96099e-08
6.78049e-08
6.34749e-07
7.30267e-07
6.35344e-07
6.48618e-07
8.40812e-08
6.68587e-07
8.405e-08
6.68887e-07
8.18863e-08
8.18943e-08
8.40862e-08
6.69133e-07
6.69048e-07
8.40957e-08
8.41061e-08
6.6929e-07
8.41038e-08
6.69293e-07
8.1904e-08
8.19071e-08
8.41035e-08
6.69305e-07
6.69295e-07
8.41075e-08
8.432e-08
6.70367e-07
8.41683e-08
6.7103e-07
8.20769e-08
8.28197e-08
8.42876e-08
6.75308e-07
6.7226e-07
8.49354e-08
4.54726e-08
1.1125e-07
8.21738e-08
8.18273e-08
8.4089e-08
6.68075e-07
8.40486e-08
6.67474e-07
8.43221e-08
6.71412e-07
8.40924e-08
6.67975e-07
5.23752e-06
5.26743e-06
5.19161e-06
5.2851e-06
5.2571e-06
5.26891e-06
5.2381e-06
5.29792e-06
5.19711e-06
5.2943e-06
5.27734e-06
5.24627e-06
5.28174e-06
5.24237e-06
8.19031e-08
8.19036e-08
8.41042e-08
6.69287e-07
8.41056e-08
6.69283e-07
8.41031e-08
6.6928e-07
8.41039e-08
6.6928e-07
5.30359e-06
5.20362e-06
5.30261e-06
5.2878e-06
5.2525e-06
5.2895e-06
5.25119e-06
5.30044e-06
5.20279e-06
5.30159e-06
5.28662e-06
5.24837e-06
5.28459e-06
5.25022e-06
5.30412e-06
5.20615e-06
5.30572e-06
5.29242e-06
5.25322e-06
5.29008e-06
5.25478e-06
5.30931e-06
5.20719e-06
5.30625e-06
5.29292e-06
5.25823e-06
5.29674e-06
5.25577e-06
8.19414e-08
8.19167e-08
8.41332e-08
6.70029e-07
8.41909e-08
6.69778e-07
8.41456e-08
6.69525e-07
8.41181e-08
6.69637e-07
5.28193e-06
5.34365e-06
5.221e-06
5.3233e-06
5.32449e-06
5.30977e-06
5.2709e-06
5.31063e-06
5.2151e-06
5.31761e-06
5.30507e-06
5.26031e-06
5.29798e-06
5.26515e-06
8.49155e-08
7.76481e-07
1.82568e-08
8.67602e-08
1.05796e-07
5.53307e-08
7.05022e-08
8.78773e-08
2.9921e-08
9.45903e-08
7.42725e-07
2.01476e-08
8.49396e-08
8.2078e-08
9.15709e-08
8.22231e-08
7.98302e-08
6.90069e-07
5.43216e-08
6.69886e-07
8.35458e-08
7.79442e-08
7.74485e-08
7.77658e-08
8.09969e-08
8.0025e-08
5.43107e-08
6.5878e-07
6.62383e-07
7.94088e-08
1.01001e-07
7.32859e-07
5.15545e-08
7.16065e-07
1.04275e-07
8.45819e-08
7.12331e-08
8.43608e-08
7.12915e-08
1.01231e-07
5.15438e-08
7.08174e-07
7.10646e-07
1.00884e-07
8.43897e-08
7.14756e-08
8.67071e-08
7.11761e-08
6.65062e-07
6.50881e-07
2.64373e-08
6.29611e-07
6.24331e-07
6.39137e-07
6.75042e-07
7.11229e-07
6.47798e-07
6.48183e-07
7.10547e-07
7.06172e-07
6.79049e-07
6.53997e-07
4.45234e-08
6.53416e-07
7.06467e-07
4.45218e-08
7.11383e-07
6.4846e-07
6.48354e-07
7.11599e-07
8.18984e-08
8.18964e-08
8.41016e-08
6.69254e-07
6.69236e-07
8.41021e-08
8.40992e-08
6.69191e-07
8.40975e-08
6.69219e-07
7.06666e-07
6.79551e-07
6.53994e-07
4.45236e-08
6.54345e-07
7.06538e-07
4.45242e-08
7.11776e-07
6.48591e-07
6.48574e-07
7.11803e-07
7.11748e-07
6.48518e-07
7.11657e-07
6.48555e-07
7.11913e-07
6.48633e-07
6.48637e-07
7.11895e-07
7.06855e-07
6.7975e-07
6.54757e-07
4.45261e-08
6.54698e-07
7.06882e-07
4.45198e-08
7.11911e-07
6.48649e-07
6.48637e-07
7.11933e-07
8.19081e-08
8.19055e-08
8.41071e-08
6.69346e-07
6.69328e-07
8.41112e-08
8.41086e-08
6.69308e-07
8.41049e-08
6.69318e-07
7.06913e-07
6.79837e-07
6.54696e-07
4.4526e-08
6.54846e-07
7.06862e-07
4.4526e-08
7.11948e-07
6.48688e-07
6.48668e-07
7.11999e-07
7.1196e-07
6.48652e-07
7.11922e-07
6.48662e-07
7.14482e-07
6.49723e-07
6.5054e-07
7.13053e-07
7.11279e-07
6.8274e-07
6.66785e-07
4.46348e-08
7.17511e-07
6.60142e-07
4.45323e-08
7.15492e-07
6.57018e-07
6.52071e-07
7.21628e-07
8.37725e-08
8.3132e-08
8.5874e-08
6.82704e-07
8.511e-08
7.05903e-07
7.55683e-07
7.05519e-07
6.76297e-07
4.48265e-08
7.29529e-07
7.0517e-07
4.79129e-08
7.59902e-07
6.6786e-07
7.33468e-07
6.99244e-07
1.00915e-07
5.14905e-08
7.05229e-07
7.05253e-07
1.00908e-07
8.43942e-08
7.12869e-08
8.43941e-08
7.12298e-08
1.00909e-07
5.14898e-08
7.05315e-07
7.05268e-07
1.00916e-07
8.43962e-08
7.12642e-08
8.4391e-08
7.12646e-08
7.92853e-08
5.42419e-08
6.54054e-07
6.54086e-07
7.92763e-08
7.73583e-08
7.73697e-08
7.9278e-08
5.42419e-08
6.5418e-07
6.54115e-07
7.92924e-08
7.73643e-08
7.73566e-08
7.92745e-08
6.54041e-07
5.42414e-08
6.54013e-07
7.92813e-08
7.73593e-08
7.45397e-08
7.73551e-08
7.73551e-08
7.73615e-08
7.92787e-08
5.42414e-08
6.53994e-07
6.54006e-07
7.92749e-08
1.00908e-07
7.05224e-07
5.14898e-08
7.05204e-07
1.00913e-07
8.43939e-08
7.12579e-08
8.43884e-08
7.12417e-08
1.00911e-07
5.14898e-08
7.05187e-07
7.05197e-07
1.00907e-07
8.43908e-08
7.12663e-08
8.43939e-08
7.12649e-08
1.00903e-07
5.14895e-08
7.05151e-07
7.05148e-07
1.00908e-07
8.43836e-08
7.12184e-08
8.43983e-08
7.12839e-08
1.00904e-07
5.14895e-08
7.05161e-07
7.05151e-07
1.00911e-07
8.43784e-08
7.12316e-08
8.43926e-08
7.13259e-08
7.92736e-08
5.4241e-08
6.53943e-07
6.53948e-07
7.92727e-08
7.73542e-08
7.45399e-08
7.73554e-08
7.45398e-08
7.92732e-08
5.4241e-08
6.53953e-07
6.53946e-07
7.92744e-08
7.73546e-08
7.45395e-08
7.73541e-08
7.45398e-08
7.92726e-08
6.53946e-07
5.42409e-08
6.53941e-07
7.92736e-08
7.73544e-08
7.4539e-08
7.45398e-08
7.73539e-08
7.7354e-08
7.45395e-08
7.73542e-08
7.45398e-08
7.92735e-08
5.42409e-08
6.53941e-07
6.53939e-07
7.92725e-08
1.00906e-07
7.05152e-07
5.14895e-08
7.05149e-07
1.00909e-07
8.439e-08
7.12215e-08
8.43949e-08
7.12718e-08
1.00908e-07
5.14895e-08
7.0515e-07
7.05151e-07
1.00908e-07
8.43864e-08
7.12188e-08
8.4396e-08
7.13009e-08
6.6403e-08
8.18407e-08
8.6164e-08
7.46228e-08
8.77497e-08
7.55867e-07
1.43404e-08
6.66845e-07
9.61428e-08
4.13324e-08
4.27747e-08
8.03993e-08
7.7983e-08
8.33792e-08
7.07069e-07
6.47099e-07
6.45656e-07
7.09831e-07
7.00901e-07
6.68839e-07
6.36215e-07
4.59281e-08
6.9211e-07
6.40816e-07
4.49212e-08
7.0356e-07
6.43936e-07
6.43995e-07
6.99429e-07
7.8986e-08
4.29082e-08
8.33692e-08
7.82734e-08
8.40918e-08
6.4484e-07
7.11254e-07
3.25633e-08
8.81919e-08
6.32e-07
4.07991e-08
7.18111e-07
6.55921e-07
6.51866e-07
6.57556e-07
9.23716e-08
6.51625e-07
4.35736e-08
7.03443e-07
7.85712e-08
8.34282e-08
8.01361e-08
7.63938e-08
6.35499e-07
8.09082e-08
1.0091e-07
5.14908e-08
7.05641e-07
7.05481e-07
1.00934e-07
8.44076e-08
7.12682e-08
8.43886e-08
7.12456e-08
1.00926e-07
5.14919e-08
7.0534e-07
1.00907e-07
7.05422e-07
8.43971e-08
7.1281e-08
8.44065e-08
7.12166e-08
7.92889e-08
5.42431e-08
6.54681e-07
7.93331e-08
6.5445e-07
7.73805e-08
7.73609e-08
7.93056e-08
5.42441e-08
6.54229e-07
7.92819e-08
6.54339e-07
7.73663e-08
7.74016e-08
7.93902e-08
5.42522e-08
6.54915e-07
6.554e-07
7.93022e-08
7.73959e-08
7.75578e-08
7.93317e-08
5.42478e-08
6.57163e-07
7.95339e-08
6.55987e-07
7.74462e-08
7.73753e-08
1.00962e-07
5.14978e-08
7.05771e-07
7.06103e-07
1.00903e-07
8.43826e-08
7.13518e-08
8.44489e-08
7.12193e-08
1.00899e-07
5.14934e-08
7.07219e-07
1.01013e-07
7.06437e-07
8.44298e-08
7.1296e-08
8.43819e-08
7.12367e-08
8.19029e-08
8.19035e-08
8.41023e-08
6.69264e-07
8.41028e-08
6.69268e-07
8.41034e-08
6.69278e-07
8.41038e-08
6.69273e-07
7.11886e-07
6.48632e-07
6.48626e-07
7.119e-07
7.06818e-07
6.7971e-07
6.54541e-07
4.45182e-08
6.54636e-07
7.06793e-07
4.45193e-08
7.11893e-07
6.48625e-07
6.48629e-07
7.11881e-07
7.11882e-07
6.48607e-07
7.11833e-07
6.48622e-07
7.06761e-07
6.79645e-07
6.54547e-07
4.45162e-08
6.54528e-07
7.06778e-07
4.45124e-08
7.11892e-07
6.4863e-07
6.48628e-07
7.11889e-07
8.19118e-08
8.19247e-08
8.41162e-08
6.69358e-07
8.41089e-08
6.69383e-07
8.4112e-08
6.69467e-07
8.41268e-08
6.69414e-07
7.12447e-07
6.49408e-07
6.49119e-07
7.13093e-07
7.07576e-07
6.80428e-07
6.55246e-07
4.4527e-08
6.55875e-07
7.07199e-07
4.45282e-08
7.12442e-07
6.48864e-07
6.48989e-07
7.12161e-07
7.12062e-07
6.48698e-07
7.11976e-07
6.4873e-07
7.07041e-07
6.79986e-07
6.55424e-07
4.45261e-08
6.55044e-07
7.07243e-07
4.45265e-08
7.12046e-07
6.48815e-07
6.48754e-07
7.12188e-07
1.00905e-07
5.14888e-08
7.05162e-07
7.0516e-07
1.00904e-07
8.43933e-08
7.1211e-08
8.43998e-08
7.12522e-08
1.00909e-07
5.14896e-08
7.05161e-07
1.00911e-07
7.05161e-07
8.43873e-08
7.12867e-08
8.4383e-08
7.12658e-08
7.92732e-08
5.42403e-08
6.53965e-07
7.92753e-08
6.53956e-07
7.73554e-08
7.45395e-08
7.73541e-08
7.45399e-08
7.92749e-08
5.42411e-08
6.53954e-07
7.92722e-08
6.53955e-07
7.73546e-08
7.45401e-08
7.45391e-08
7.73558e-08
7.92758e-08
5.42404e-08
6.53968e-07
6.5397e-07
7.92733e-08
7.73553e-08
7.45409e-08
7.73577e-08
7.45398e-08
7.9274e-08
5.42412e-08
6.53989e-07
7.9277e-08
6.53976e-07
7.7356e-08
7.45397e-08
7.45398e-08
7.73546e-08
1.00906e-07
5.14889e-08
7.05165e-07
7.05171e-07
1.00905e-07
8.43866e-08
7.12872e-08
8.43884e-08
7.12854e-08
1.00906e-07
5.14897e-08
7.05186e-07
1.00908e-07
7.05175e-07
8.43867e-08
7.12914e-08
8.43838e-08
7.12788e-08
7.92733e-08
5.42409e-08
6.53935e-07
6.53936e-07
7.73537e-08
7.4539e-08
7.73539e-08
7.45398e-08
7.92724e-08
5.42409e-08
6.53942e-07
7.92734e-08
6.53936e-07
7.73542e-08
7.45398e-08
1.00908e-07
5.14895e-08
7.05146e-07
7.05148e-07
8.43851e-08
7.12654e-08
8.43877e-08
7.12877e-08
1.00905e-07
5.14895e-08
7.05147e-07
1.00906e-07
7.05143e-07
8.43932e-08
7.12316e-08
5.32387e-06
5.34929e-06
5.34814e-06
5.33146e-06
5.34428e-06
5.32609e-06
5.34585e-06
5.32116e-06
5.3413e-06
5.34321e-06
5.32818e-06
5.34095e-06
5.32117e-06
5.34315e-06
4.36398e-05
4.27335e-05
4.29115e-05
4.293e-05
4.31286e-05
4.29858e-05
4.30426e-05
4.26672e-05
4.27901e-05
4.26212e-05
4.27653e-05
4.2852e-05
4.26548e-05
4.25924e-05
4.2909e-05
4.30027e-05
4.29257e-05
4.28568e-05
4.29731e-05
4.28923e-05
4.28591e-05
4.28996e-05
4.28673e-05
4.28106e-05
4.28297e-05
4.28635e-05
4.2912e-05
4.28275e-05
4.30085e-05
4.28958e-05
4.28598e-05
4.28855e-05
4.29445e-05
4.2958e-05
4.29253e-05
4.31312e-05
4.32531e-05
4.29552e-05
4.31674e-05
4.30785e-05
4.33568e-05
4.3023e-05
5.33566e-06
5.35123e-06
5.35052e-06
5.3511e-06
5.32897e-06
5.36217e-06
5.35806e-06
5.32128e-06
5.32888e-06
5.34099e-06
5.34327e-06
5.34172e-06
5.32116e-06
5.34336e-06
6.65235e-07
6.73797e-07
6.92786e-07
6.86381e-07
6.91761e-07
6.86651e-07
6.59285e-07
6.74593e-07
6.66147e-07
6.5904e-07
6.39288e-07
6.74897e-07
6.7252e-07
6.40555e-07
5.27106e-06
5.24706e-06
5.30992e-06
5.29846e-06
5.23164e-06
5.30256e-06
5.28132e-06
5.2887e-06
5.32896e-06
5.28616e-06
5.31559e-06
5.24125e-06
5.31538e-06
5.31186e-06
5.32811e-06
5.33989e-06
5.3464e-06
5.34032e-06
5.32105e-06
5.34417e-06
5.34326e-06
5.33221e-06
5.34561e-06
5.34829e-06
5.34277e-06
5.34725e-06
5.3338e-06
5.34634e-06
5.33845e-06
5.35098e-06
5.34953e-06
5.3449e-06
5.3372e-06
5.35206e-06
5.35231e-06
5.33976e-06
5.35833e-06
5.35605e-06
5.34528e-06
5.35332e-06
5.34271e-06
5.35254e-06
5.47085e-06
5.45234e-06
5.42715e-06
5.43986e-06
5.43727e-06
5.52582e-06
5.40674e-06
6.70415e-07
6.38058e-07
6.61076e-07
6.4715e-07
6.60726e-07
6.70458e-07
6.37964e-07
6.52005e-07
6.80153e-07
6.62036e-07
6.68899e-07
6.61591e-07
6.52124e-07
6.80053e-07
6.51847e-07
6.61332e-07
6.68787e-07
6.79891e-07
6.61458e-07
6.79916e-07
6.51817e-07
6.70344e-07
6.60592e-07
6.47165e-07
6.37944e-07
6.60704e-07
6.70309e-07
6.37949e-07
4.28708e-05
4.30681e-05
4.28187e-05
4.29465e-05
4.30188e-05
4.28956e-05
4.28137e-05
4.27917e-05
4.29805e-05
4.29931e-05
4.28673e-05
4.27674e-05
4.27833e-05
4.28516e-05
5.32293e-06
5.33191e-06
5.34203e-06
5.34392e-06
5.34467e-06
5.34494e-06
5.32191e-06
6.70261e-07
6.37866e-07
6.60575e-07
6.47031e-07
6.60539e-07
6.70312e-07
6.37942e-07
6.51754e-07
6.79847e-07
6.61287e-07
6.6859e-07
6.61239e-07
6.51762e-07
6.7984e-07
6.51747e-07
6.61238e-07
6.686e-07
6.79833e-07
6.61246e-07
6.79833e-07
6.51746e-07
6.70291e-07
6.60534e-07
6.47013e-07
6.3784e-07
6.60551e-07
6.70308e-07
6.37879e-07
4.2976e-05
4.27801e-05
4.29777e-05
4.28408e-05
4.27603e-05
4.28437e-05
4.27595e-05
4.27949e-05
4.29875e-05
4.28419e-05
4.27648e-05
5.32129e-06
5.32852e-06
5.34139e-06
5.34357e-06
5.34126e-06
5.34334e-06
5.32145e-06
5.6167e-06
5.48561e-06
5.61677e-06
5.55819e-06
5.67034e-06
5.54903e-06
5.52852e-06
6.41684e-07
6.6903e-07
6.58201e-07
6.76079e-07
6.62562e-07
6.49199e-07
6.70276e-07
5.61633e-06
5.28484e-06
5.37581e-06
5.4377e-06
5.40169e-06
5.47986e-06
5.4955e-06
5.53864e-06
5.40946e-06
5.27674e-06
5.37018e-06
5.36637e-06
5.36366e-06
5.45869e-06
5.61865e-06
5.52453e-06
5.60039e-06
5.47649e-06
5.69503e-06
5.52853e-06
5.57207e-06
5.44928e-06
5.55385e-06
5.45051e-06
5.63398e-06
5.70509e-06
5.43249e-06
5.46501e-06
5.30245e-06
5.33225e-06
5.40714e-06
5.3504e-06
5.30723e-06
5.33484e-06
5.38876e-06
5.46498e-06
5.55838e-06
5.86736e-06
5.50292e-06
5.78678e-06
5.48881e-06
5.48537e-06
5.4056e-06
5.45606e-06
5.4278e-06
5.59633e-06
5.52309e-06
5.42717e-06
5.3989e-06
5.31904e-06
5.39706e-06
5.30765e-06
5.32698e-06
5.36359e-06
5.35927e-06
5.27569e-06
6.70599e-07
6.38028e-07
6.6083e-07
6.47774e-07
6.61413e-07
6.70467e-07
6.38084e-07
6.52376e-07
6.80198e-07
6.69788e-07
6.61842e-07
6.62534e-07
6.52176e-07
6.80371e-07
6.54792e-07
6.71045e-07
6.84104e-07
6.72964e-07
6.66035e-07
6.56714e-07
6.82421e-07
6.71265e-07
6.66351e-07
6.39238e-07
6.48569e-07
6.62644e-07
6.71996e-07
6.38591e-07
5.33601e-06
5.35043e-06
5.3419e-06
5.34925e-06
5.33659e-06
5.34997e-06
5.34819e-06
5.33546e-06
5.34736e-06
5.3492e-06
5.34119e-06
5.33494e-06
5.34953e-06
5.34736e-06
5.36833e-06
5.4073e-06
5.37545e-06
5.41162e-06
5.3977e-06
5.38065e-06
5.38169e-06
5.35482e-06
5.36007e-06
5.35975e-06
5.36503e-06
5.34652e-06
5.36766e-06
5.37253e-06
5.34647e-06
5.36174e-06
5.40416e-06
5.39417e-06
5.36878e-06
5.37168e-06
5.36946e-06
6.70315e-07
6.3783e-07
6.60553e-07
6.47044e-07
6.60589e-07
6.7033e-07
6.37881e-07
6.51767e-07
6.79844e-07
6.68639e-07
6.61258e-07
6.61291e-07
6.51761e-07
6.79851e-07
6.51795e-07
6.61407e-07
6.79894e-07
6.68633e-07
6.61292e-07
6.51817e-07
6.79872e-07
6.70289e-07
6.60658e-07
6.3796e-07
6.47058e-07
6.60575e-07
6.70311e-07
6.37949e-07
5.3213e-06
5.32828e-06
5.34259e-06
5.34361e-06
5.34119e-06
5.3216e-06
5.3433e-06
6.51742e-07
6.6125e-07
6.79835e-07
6.68585e-07
6.61225e-07
6.51746e-07
6.79832e-07
6.70239e-07
6.60538e-07
6.37935e-07
6.47017e-07
6.60523e-07
6.70251e-07
6.37952e-07
5.32296e-06
5.33073e-06
5.3418e-06
5.34403e-06
5.34316e-06
5.32183e-06
5.34522e-06
1.27096e-07
6.86774e-08
9.41242e-08
1.1174e-07
9.0074e-08
1.35537e-07
1.10133e-07
6.61105e-07
6.53956e-07
6.45263e-07
6.54755e-07
6.57458e-07
6.53909e-07
6.54351e-07
6.46509e-07
6.41063e-07
6.12908e-07
6.37253e-07
6.35111e-07
6.27282e-07
6.46973e-07
3.66013e-08
5.67168e-08
3.66004e-08
5.67215e-08
6.46602e-07
6.58897e-07
6.60562e-07
6.68212e-07
6.46087e-07
6.59303e-07
6.6102e-07
6.46907e-07
6.61577e-07
6.59678e-07
6.68588e-07
6.59557e-07
6.47066e-07
6.61451e-07
3.66014e-08
5.67262e-08
5.67249e-08
3.66023e-08
3.66021e-08
5.67279e-08
3.66022e-08
5.67277e-08
6.47385e-07
6.59921e-07
6.62017e-07
6.69007e-07
6.47371e-07
6.59934e-07
6.62047e-07
6.4739e-07
6.62117e-07
6.59957e-07
6.68988e-07
6.59935e-07
6.47415e-07
6.62031e-07
3.66021e-08
5.6728e-08
5.67277e-08
3.66022e-08
3.66047e-08
5.67338e-08
3.66033e-08
5.67433e-08
6.52405e-07
6.62695e-07
6.66046e-07
6.77205e-07
6.50322e-07
6.64873e-07
6.69847e-07
6.56042e-07
6.84693e-07
6.79583e-07
6.81859e-07
6.69017e-07
6.6432e-07
6.73453e-07
3.66331e-08
5.69634e-08
5.67988e-08
3.66901e-08
8.45618e-08
7.21928e-07
6.38345e-07
7.00817e-07
7.5134e-08
7.98029e-08
7.16114e-07
3.95519e-08
4.52784e-08
8.39165e-08
6.49273e-07
6.24722e-07
6.29984e-07
5.95497e-07
6.38339e-07
6.33114e-07
9.96451e-08
7.20087e-07
7.4939e-08
6.34592e-07
9.83683e-08
8.96626e-08
6.83745e-07
6.84242e-07
6.9747e-07
6.20482e-07
6.56941e-07
7.53738e-08
7.01781e-07
5.56009e-08
3.66051e-08
5.67178e-08
3.66014e-08
5.67161e-08
6.436e-07
6.58109e-07
6.59319e-07
6.65459e-07
6.45132e-07
6.5694e-07
6.57521e-07
6.40264e-07
6.45053e-07
6.43106e-07
6.61439e-07
6.54879e-07
6.24528e-07
6.52755e-07
3.75489e-08
5.73554e-08
3.70204e-08
5.81242e-08
5.35121e-06
5.26795e-06
5.36404e-06
5.35561e-06
5.29334e-06
5.33112e-06
5.31411e-06
5.43667e-06
5.40324e-06
5.28544e-06
5.45691e-06
5.38653e-06
5.3852e-06
5.34218e-06
5.37048e-06
5.30353e-06
5.32229e-06
5.36858e-06
5.34372e-06
5.36751e-06
5.34244e-06
5.43045e-06
5.45537e-06
5.40082e-06
5.45438e-06
5.35587e-06
5.39459e-06
5.39474e-06
3.66022e-08
5.6728e-08
3.66022e-08
5.67277e-08
6.47357e-07
6.5992e-07
6.62028e-07
6.6896e-07
6.47371e-07
6.59909e-07
6.61988e-07
6.4735e-07
6.61988e-07
6.59904e-07
6.68956e-07
6.59905e-07
6.4735e-07
6.61982e-07
3.66022e-08
5.6728e-08
3.66022e-08
5.67277e-08
3.66024e-08
5.67383e-08
3.66037e-08
5.67307e-08
6.48638e-07
6.61753e-07
6.65488e-07
6.7063e-07
6.4938e-07
6.61057e-07
6.63762e-07
6.48312e-07
6.62869e-07
6.60471e-07
6.70584e-07
6.6076e-07
6.47995e-07
6.63718e-07
3.66021e-08
5.67288e-08
3.6602e-08
5.67304e-08
5.34568e-06
5.24964e-06
5.34139e-06
5.31539e-06
5.28708e-06
5.32561e-06
5.27885e-06
5.33795e-06
5.24814e-06
5.33977e-06
5.31504e-06
5.27386e-06
5.30995e-06
5.27773e-06
5.29505e-06
5.33993e-06
5.28886e-06
5.32521e-06
5.33732e-06
5.33712e-06
5.3272e-06