/*--------------------------------*- C++ -*----------------------------------*\
| =========                 |                                                 |
| \\      /  F ield         | OpenFOAM: The Open Source CFD Toolbox           |
|  \\    /   O peration     | Version:  2012                                  |
|   \\  /    A nd           | Website:  www.openfoam.com                      |
|    \\/     M anipulation  |                                                 |
\*---------------------------------------------------------------------------*/
FoamFile
{
    version     2.0;
    format      ascii;
    class       volVectorField;
    location    "0.107/solid";
    object      D;
}
// * * * * * * * * * * * * * * * * * * * * * * * * * * * * * * * * * * * * * //

dimensions      [0 1 0 0 0 0 0];


internalField   nonuniform List<vector> 
3125
(
(3.27039e-05 -1.03399e-05 7.75019e-06)
(2.35788e-05 -7.11183e-06 7.2394e-06)
(5.29163e-05 -1.79134e-05 8.1554e-06)
(4.3465e-05 -1.43322e-05 7.97129e-06)
(2.29934e-05 -6.9118e-06 7.19225e-06)
(2.26059e-05 -6.8765e-06 -1.04634e-06)
(1.48461e-05 -4.33128e-06 -9.11085e-07)
(2.29817e-05 -6.91454e-06 6.76131e-06)
(2.29999e-05 -6.92331e-06 7.3443e-06)
(2.26063e-05 -6.87214e-06 -6.4978e-07)
(1.48413e-05 -4.32472e-06 -5.83522e-07)
(2.29908e-05 -6.9308e-06 6.98634e-06)
(3.26978e-05 -1.03431e-05 7.28628e-06)
(2.3783e-05 -7.27764e-06 -1.06146e-06)
(2.35675e-05 -7.11463e-06 6.80563e-06)
(3.23403e-05 -1.02918e-05 -1.13966e-06)
(3.27091e-05 -1.03455e-05 7.92364e-06)
(2.35853e-05 -7.12292e-06 7.39312e-06)
(3.27053e-05 -1.0351e-05 7.54293e-06)
(2.3784e-05 -7.27357e-06 -6.56482e-07)
(2.35766e-05 -7.1303e-06 7.03313e-06)
(3.23446e-05 -1.02895e-05 -6.87983e-07)
(3.33292e-05 -1.05676e-05 7.77236e-06)
(4.2828e-05 -1.40924e-05 7.96597e-06)
(3.33235e-05 -1.05707e-05 7.30719e-06)
(4.24886e-05 -1.40304e-05 -1.17796e-06)
(3.35957e-05 -1.07463e-05 -1.14712e-06)
(4.28259e-05 -1.40952e-05 7.4911e-06)
(3.33344e-05 -1.05728e-05 7.94676e-06)
(4.28316e-05 -1.40939e-05 8.14916e-06)
(3.33309e-05 -1.05781e-05 7.56524e-06)
(4.2495e-05 -1.40295e-05 -7.0009e-07)
(3.36003e-05 -1.07442e-05 -6.90625e-07)
(4.28312e-05 -1.40973e-05 7.76218e-06)
(5.30506e-05 -1.7967e-05 7.73378e-06)
(4.37653e-05 -1.4509e-05 -1.17986e-06)
(4.34631e-05 -1.4335e-05 7.49628e-06)
(5.29236e-05 -1.79156e-05 8.28986e-06)
(4.34686e-05 -1.43335e-05 8.15474e-06)
(5.30558e-05 -1.79679e-05 7.94111e-06)
(4.3772e-05 -1.45083e-05 -7.00493e-07)
(4.34683e-05 -1.43368e-05 7.76776e-06)
(2.83766e-05 -8.78536e-06 7.5555e-06)
(2.77671e-05 -8.56958e-06 7.5217e-06)
(4.85587e-05 -1.62584e-05 7.99196e-06)
(4.79226e-05 -1.60172e-05 7.99101e-06)
(1.84534e-05 -5.396e-06 6.74936e-06)
(1.90055e-05 -5.57681e-06 6.8113e-06)
(1.48734e-05 -4.31816e-06 2.75456e-06)
(1.84385e-05 -5.39796e-06 6.34493e-06)
(1.80796e-05 -5.34336e-06 2.93872e-06)
(1.91676e-05 -5.72654e-06 -9.94733e-07)
(2.26131e-05 -6.86136e-06 2.07467e-06)
(1.91763e-05 -5.71446e-06 1.98047e-06)
(1.48571e-05 -4.32508e-06 1.82314e-06)
(1.80565e-05 -5.36228e-06 -9.75422e-07)
(1.80658e-05 -5.35145e-06 1.94465e-06)
(1.8991e-05 -5.5789e-06 6.40315e-06)
(2.2624e-05 -6.85246e-06 3.13637e-06)
(1.91894e-05 -5.70609e-06 2.99311e-06)
(1.84599e-05 -5.41101e-06 6.88665e-06)
(1.90121e-05 -5.59137e-06 6.95055e-06)
(1.48785e-05 -4.34224e-06 3.10625e-06)
(1.84477e-05 -5.41916e-06 6.54819e-06)
(1.80867e-05 -5.36368e-06 3.32519e-06)
(1.9166e-05 -5.72128e-06 -6.25745e-07)
(2.26198e-05 -6.87212e-06 2.51455e-06)
(1.91815e-05 -5.72764e-06 2.38928e-06)
(1.48595e-05 -4.34172e-06 2.18524e-06)
(1.80542e-05 -5.3567e-06 -6.16333e-07)
(1.80704e-05 -5.36548e-06 2.34231e-06)
(1.90002e-05 -5.59945e-06 6.60932e-06)
(2.26326e-05 -6.86807e-06 3.56412e-06)
(1.91969e-05 -5.72519e-06 3.39049e-06)
(2.83682e-05 -8.78848e-06 7.10291e-06)
(3.23506e-05 -1.02636e-05 3.38848e-06)
(2.86284e-05 -8.93302e-06 3.31412e-06)
(2.37898e-05 -7.26169e-06 2.10186e-06)
(2.7391e-05 -8.52881e-06 -1.10076e-06)
(2.73966e-05 -8.51098e-06 2.17175e-06)
(2.77583e-05 -8.57268e-06 7.07111e-06)
(2.37999e-05 -7.25271e-06 3.17778e-06)
(2.74048e-05 -8.50194e-06 3.28422e-06)
(3.23447e-05 -1.02724e-05 2.2403e-06)
(2.86155e-05 -8.96032e-06 -1.11189e-06)
(2.86209e-05 -8.94201e-06 2.19138e-06)
(2.83825e-05 -8.79333e-06 7.72103e-06)
(2.77731e-05 -8.57792e-06 7.68591e-06)
(2.83766e-05 -8.79974e-06 7.34786e-06)
(3.236e-05 -1.02712e-05 3.87684e-06)
(2.86378e-05 -8.94336e-06 3.78348e-06)
(2.37968e-05 -7.27169e-06 2.55123e-06)
(2.73935e-05 -8.52556e-06 -6.73055e-07)
(2.74045e-05 -8.51878e-06 2.64669e-06)
(2.77669e-05 -8.58446e-06 7.31411e-06)
(2.38088e-05 -7.2672e-06 3.61479e-06)
(2.74142e-05 -8.51328e-06 3.74624e-06)
(3.23531e-05 -1.02776e-05 2.74222e-06)
(2.86186e-05 -8.95733e-06 -6.77497e-07)
(2.86289e-05 -8.94912e-06 2.67385e-06)
(3.77416e-05 -1.21912e-05 7.89252e-06)
(3.83757e-05 -1.24267e-05 7.90509e-06)
(3.36052e-05 -1.0718e-05 3.40853e-06)
(3.77378e-05 -1.21942e-05 7.42084e-06)
(3.73981e-05 -1.2107e-05 3.4561e-06)
(3.86625e-05 -1.26055e-05 -1.16891e-06)
(4.24913e-05 -1.40098e-05 2.31144e-06)
(3.86658e-05 -1.25851e-05 2.29328e-06)
(3.35999e-05 -1.07266e-05 2.25354e-06)
(3.73906e-05 -1.21354e-05 -1.1646e-06)
(3.73941e-05 -1.21152e-05 2.28517e-06)
(3.83721e-05 -1.24297e-05 7.43278e-06)
(4.24939e-05 -1.40022e-05 3.49475e-06)
(3.86694e-05 -1.25771e-05 3.46816e-06)
(3.7746e-05 -1.21944e-05 8.07221e-06)
(3.838e-05 -1.24297e-05 8.08536e-06)
(3.36146e-05 -1.07248e-05 3.90219e-06)
(3.77442e-05 -1.21988e-05 7.68673e-06)
(3.74072e-05 -1.21115e-05 3.96264e-06)
(3.86683e-05 -1.26042e-05 -6.97687e-07)
(4.24998e-05 -1.40112e-05 2.84298e-06)
(3.86743e-05 -1.25877e-05 2.81726e-06)
(3.36083e-05 -1.07313e-05 2.7609e-06)
(3.73961e-05 -1.2134e-05 -6.96391e-07)
(3.74026e-05 -1.21182e-05 2.80574e-06)
(3.83784e-05 -1.24339e-05 7.69952e-06)
(4.25025e-05 -1.40042e-05 4.01196e-06)
(3.86784e-05 -1.25809e-05 3.97804e-06)
(4.8558e-05 -1.62611e-05 7.51733e-06)
(5.30392e-05 -1.79905e-05 3.35562e-06)
(4.8872e-05 -1.64063e-05 3.51486e-06)
(4.37679e-05 -1.44883e-05 2.31571e-06)
(4.75931e-05 -1.59514e-05 -1.183e-06)
(4.75951e-05 -1.59306e-05 2.32422e-06)
(4.79217e-05 -1.60198e-05 7.51622e-06)
(4.37702e-05 -1.44809e-05 3.50083e-06)
(4.75967e-05 -1.59234e-05 3.5126e-06)
(5.3038e-05 -1.79939e-05 2.76054e-06)
(4.88687e-05 -1.64342e-05 -1.18341e-06)
(4.88705e-05 -1.64134e-05 2.3259e-06)
(4.85617e-05 -1.62588e-05 8.17654e-06)
(4.79257e-05 -1.60176e-05 8.17554e-06)
(4.85625e-05 -1.62616e-05 7.79053e-06)
(5.30432e-05 -1.79901e-05 3.6189e-06)
(4.88802e-05 -1.64065e-05 4.03709e-06)
(4.37763e-05 -1.44894e-05 2.84896e-06)
(4.76001e-05 -1.59509e-05 -7.00942e-07)
(4.76035e-05 -1.59309e-05 2.86059e-06)
(4.79262e-05 -1.60204e-05 7.78934e-06)
(4.37787e-05 -1.44825e-05 4.0197e-06)
(4.76049e-05 -1.59239e-05 4.03446e-06)
(5.3042e-05 -1.79935e-05 3.02579e-06)
(4.88759e-05 -1.64338e-05 -7.00994e-07)
(4.88788e-05 -1.64134e-05 2.86267e-06)
(3.08376e-05 -9.66485e-06 7.67545e-06)
(2.53556e-05 -7.72469e-06 7.37043e-06)
(5.11146e-05 -1.72292e-05 8.00122e-06)
(4.53762e-05 -1.50532e-05 7.9831e-06)
(1.62949e-05 -4.69935e-06 6.4821e-06)
(2.12595e-05 -6.32528e-06 7.04006e-06)
(1.62784e-05 -4.70074e-06 6.09362e-06)
(1.623e-05 -4.72182e-06 4.64179e-06)
(2.14435e-05 -6.48401e-06 -1.03018e-06)
(2.26041e-05 -6.87338e-06 -1.15569e-08)
(2.14416e-05 -6.48128e-06 -1.05265e-08)
(1.48434e-05 -4.33167e-06 -5.04368e-09)
(1.58945e-05 -4.66435e-06 -9.33602e-07)
(1.5892e-05 -4.66412e-06 -5.79589e-09)
(2.12466e-05 -6.32778e-06 6.61822e-06)
(2.29485e-05 -6.93606e-06 5.15588e-06)
(2.12096e-05 -6.34948e-06 5.04514e-06)
(1.63013e-05 -4.7162e-06 6.61118e-06)
(2.1266e-05 -6.33807e-06 7.18685e-06)
(1.62873e-05 -4.72455e-06 6.28478e-06)
(1.62358e-05 -4.73955e-06 4.83315e-06)
(2.14433e-05 -6.47936e-06 -6.42441e-07)
(2.26064e-05 -6.87393e-06 4.07847e-07)
(2.14433e-05 -6.48189e-06 3.99502e-07)
(1.48407e-05 -4.33265e-06 3.40987e-07)
(1.58905e-05 -4.65813e-06 -5.95246e-07)
(1.58901e-05 -4.66504e-06 3.51716e-07)
(2.12558e-05 -6.34585e-06 6.8355e-06)
(2.29552e-05 -6.94817e-06 5.38073e-06)
(2.12162e-05 -6.3629e-06 5.26234e-06)
(3.08305e-05 -9.66802e-06 7.21583e-06)
(3.26814e-05 -1.03609e-05 5.56318e-06)
(3.08112e-05 -9.68668e-06 5.50784e-06)
(2.37813e-05 -7.27416e-06 -1.25797e-08)
(2.49736e-05 -7.68702e-06 -1.07557e-06)
(2.49721e-05 -7.68321e-06 -1.35803e-08)
(2.53454e-05 -7.72766e-06 6.92883e-06)
(2.35353e-05 -7.13598e-06 5.18974e-06)
(2.53169e-05 -7.7486e-06 5.28528e-06)
(3.23396e-05 -1.02864e-05 -1.8409e-08)
(3.10912e-05 -9.84227e-06 -1.13131e-06)
(3.10904e-05 -9.83714e-06 -1.77982e-08)
(3.08432e-05 -9.67141e-06 7.84579e-06)
(2.53619e-05 -7.73458e-06 7.5289e-06)
(3.08385e-05 -9.67727e-06 7.46789e-06)
(3.26875e-05 -1.03668e-05 5.81936e-06)
(3.08175e-05 -9.69355e-06 5.75946e-06)
(2.37842e-05 -7.27466e-06 4.15776e-07)
(2.49752e-05 -7.68323e-06 -6.62576e-07)
(2.49754e-05 -7.68365e-06 4.23288e-07)
(2.53543e-05 -7.74162e-06 7.16337e-06)
(2.3542e-05 -7.14762e-06 5.41704e-06)
(2.53236e-05 -7.759e-06 5.51953e-06)
(3.23452e-05 -1.02866e-05 4.59588e-07)
(3.10951e-05 -9.83976e-06 -6.84932e-07)
(3.10956e-05 -9.83732e-06 4.5457e-07)
(3.52136e-05 -1.12574e-05 7.83111e-06)
(4.09177e-05 -1.33754e-05 7.94528e-06)
(3.33077e-05 -1.05881e-05 5.57943e-06)
(3.52087e-05 -1.12605e-05 7.36268e-06)
(3.51957e-05 -1.1277e-05 5.62341e-06)
(4.12121e-05 -1.35533e-05 -1.17554e-06)
(4.24886e-05 -1.40239e-05 -1.96802e-08)
(4.12121e-05 -1.35469e-05 -1.98544e-08)
(3.35951e-05 -1.07408e-05 -1.89248e-08)
(3.48564e-05 -1.12054e-05 -1.15374e-06)
(3.48559e-05 -1.11997e-05 -1.93369e-08)
(4.09151e-05 -1.33783e-05 7.47115e-06)
(4.28208e-05 -1.4108e-05 5.7279e-06)
(4.09081e-05 -1.33918e-05 5.71085e-06)
(3.52185e-05 -1.12618e-05 8.00805e-06)
(4.09216e-05 -1.33775e-05 8.12746e-06)
(3.33138e-05 -1.05936e-05 5.83701e-06)
(3.52157e-05 -1.12667e-05 7.62448e-06)
(3.52016e-05 -1.12816e-05 5.88472e-06)
(4.12184e-05 -1.35524e-05 -6.99506e-07)
(4.24959e-05 -1.40237e-05 4.86263e-07)
(4.12192e-05 -1.35468e-05 4.84121e-07)
(3.3601e-05 -1.07409e-05 4.64207e-07)
(3.48614e-05 -1.12035e-05 -6.92888e-07)
(3.48621e-05 -1.11997e-05 4.68434e-07)
(4.09208e-05 -1.33812e-05 7.74071e-06)
(4.28257e-05 -1.41096e-05 5.99857e-06)
(4.09132e-05 -1.3394e-05 5.97997e-06)
(5.11206e-05 -1.72343e-05 7.52928e-06)
(5.30478e-05 -1.79782e-05 5.76629e-06)
(5.11301e-05 -1.7249e-05 5.75831e-06)
(4.37655e-05 -1.45024e-05 -1.94433e-08)
(4.50419e-05 -1.49889e-05 -1.18129e-06)
(4.50421e-05 -1.49822e-05 -1.91554e-08)
(4.53748e-05 -1.50559e-05 7.50796e-06)
(4.34583e-05 -1.43474e-05 5.73235e-06)
(4.53715e-05 -1.50677e-05 5.7431e-06)
(5.30348e-05 -1.80081e-05 3.95905e-07)
(5.14562e-05 -1.74096e-05 -2.01869e-08)
(5.11175e-05 -1.72294e-05 8.18192e-06)
(4.53795e-05 -1.50541e-05 8.16717e-06)
(5.11249e-05 -1.72345e-05 7.79837e-06)
(5.30521e-05 -1.7978e-05 6.04141e-06)
(5.11344e-05 -1.7249e-05 6.03211e-06)
(4.37728e-05 -1.45022e-05 4.88111e-07)
(4.50487e-05 -1.49883e-05 -7.00747e-07)
(4.50495e-05 -1.4982e-05 4.89673e-07)
(4.53797e-05 -1.50571e-05 7.78038e-06)
(4.34631e-05 -1.43488e-05 6.00344e-06)
(4.53761e-05 -1.50687e-05 6.01518e-06)
(5.30387e-05 -1.80077e-05 6.55867e-07)
(5.1464e-05 -1.7409e-05 4.92668e-07)
(3.02192e-05 -9.44264e-06 7.64769e-06)
(2.59542e-05 -7.93306e-06 7.4107e-06)
(5.0471e-05 -1.69846e-05 7.99583e-06)
(4.60131e-05 -1.5294e-05 7.98581e-06)
(1.68267e-05 -4.86944e-06 6.55187e-06)
(2.06895e-05 -6.13448e-06 6.98568e-06)
(1.4896e-05 -4.3095e-06 3.70785e-06)
(1.59203e-05 -4.64909e-06 2.81952e-06)
(1.59418e-05 -4.63998e-06 3.79519e-06)
(1.68106e-05 -4.87099e-06 6.15923e-06)
(1.83954e-05 -5.41961e-06 4.83509e-06)
(1.67633e-05 -4.89221e-06 4.69173e-06)
(1.69895e-05 -4.99092e-06 2.88088e-06)
(1.80989e-05 -5.33355e-06 3.95557e-06)
(1.70099e-05 -4.98143e-06 3.87774e-06)
(2.0297e-05 -6.10057e-06 -1.01298e-06)
(1.91654e-05 -5.72469e-06 -8.50361e-09)
(2.02949e-05 -6.09826e-06 -9.50351e-09)
(2.26066e-05 -6.86839e-06 1.02594e-06)
(2.14512e-05 -6.46978e-06 2.04542e-06)
(2.14443e-05 -6.4766e-06 1.01187e-06)
(1.91685e-05 -5.72073e-06 9.80508e-07)
(2.03052e-05 -6.08735e-06 2.01404e-06)
(2.02978e-05 -6.09392e-06 9.96739e-07)
(1.48473e-05 -4.32968e-06 9.0384e-07)
(1.59049e-05 -4.65646e-06 1.86604e-06)
(1.58956e-05 -4.66156e-06 9.24841e-07)
(1.6965e-05 -5.00811e-06 -9.55047e-07)
(1.80542e-05 -5.36093e-06 -7.54172e-09)
(1.69626e-05 -5.0073e-06 -6.63395e-09)
(1.69749e-05 -4.99868e-06 1.90653e-06)
(1.80575e-05 -5.35739e-06 9.63139e-07)
(1.69661e-05 -5.00423e-06 9.44595e-07)
(2.06762e-05 -6.13688e-06 6.5671e-06)
(1.8949e-05 -5.60056e-06 4.87944e-06)
(2.06382e-05 -6.15865e-06 5.00615e-06)
(2.2639e-05 -6.84198e-06 4.2217e-06)
(2.14628e-05 -6.46101e-06 3.09186e-06)
(2.14788e-05 -6.45061e-06 4.16174e-06)
(1.92075e-05 -5.69603e-06 4.02878e-06)
(2.03175e-05 -6.07876e-06 3.04413e-06)
(2.03346e-05 -6.0685e-06 4.09747e-06)
(1.68331e-05 -4.88583e-06 6.68305e-06)
(2.0696e-05 -6.1477e-06 7.13064e-06)
(1.49035e-05 -4.33873e-06 4.04339e-06)
(1.59262e-05 -4.67189e-06 3.18312e-06)
(1.59499e-05 -4.66767e-06 4.14217e-06)
(1.68196e-05 -4.89414e-06 6.35348e-06)
(1.84016e-05 -5.43539e-06 5.03841e-06)
(1.67693e-05 -4.90942e-06 4.88617e-06)
(1.6996e-05 -5.01247e-06 3.25609e-06)
(1.8108e-05 -5.35823e-06 4.3245e-06)
(1.70185e-05 -5.0076e-06 4.23585e-06)
(2.02961e-05 -6.09561e-06 -6.34439e-07)
(1.91659e-05 -5.72543e-06 3.81585e-07)
(2.02961e-05 -6.09893e-06 3.90746e-07)
(2.26111e-05 -6.87397e-06 1.46197e-06)
(2.14574e-05 -6.48133e-06 2.47536e-06)
(2.14482e-05 -6.4826e-06 1.4381e-06)
(1.91712e-05 -5.7276e-06 1.3859e-06)
(2.0311e-05 -6.09971e-06 2.43362e-06)
(2.03012e-05 -6.10035e-06 1.41275e-06)
(1.4847e-05 -4.33837e-06 1.26318e-06)
(1.59081e-05 -4.67221e-06 2.24031e-06)
(1.58962e-05 -4.66978e-06 1.29619e-06)
(1.6962e-05 -5.00221e-06 -6.06175e-07)
(1.8054e-05 -5.36172e-06 3.72022e-07)
(1.69616e-05 -5.00815e-06 3.62063e-07)
(1.69789e-05 -5.01357e-06 2.29266e-06)
(1.80596e-05 -5.3647e-06 1.35753e-06)
(1.69675e-05 -5.01199e-06 1.32763e-06)
(2.06854e-05 -6.15556e-06 6.78168e-06)
(1.89554e-05 -5.61584e-06 5.08566e-06)
(2.06447e-05 -6.17256e-06 5.22066e-06)
(2.26493e-05 -6.86095e-06 4.63026e-06)
(2.14711e-05 -6.47776e-06 3.50989e-06)
(2.14889e-05 -6.47097e-06 4.56098e-06)
(1.9217e-05 -5.71924e-06 4.40818e-06)
(2.03255e-05 -6.09667e-06 3.45204e-06)
(2.03444e-05 -6.09027e-06 4.48698e-06)
(3.02118e-05 -9.4458e-06 7.1897e-06)
(2.83449e-05 -8.80826e-06 5.4199e-06)
(3.01917e-05 -9.46482e-06 5.48768e-06)
(3.23586e-05 -1.02539e-05 4.56078e-06)
(3.11023e-05 -9.81435e-06 3.36614e-06)
(3.11111e-05 -9.80438e-06 4.53083e-06)
(2.86388e-05 -8.92274e-06 4.46097e-06)
(2.98613e-05 -9.37064e-06 3.34138e-06)
(2.98708e-05 -9.36051e-06 4.49761e-06)
(2.37837e-05 -7.2689e-06 1.03899e-06)
(2.498e-05 -7.67037e-06 2.12706e-06)
(2.49743e-05 -7.67771e-06 1.05105e-06)
(2.61766e-05 -8.10423e-06 -1.08866e-06)
(2.73897e-05 -8.52441e-06 -1.54593e-08)
(2.61753e-05 -8.10011e-06 -1.45438e-08)
(2.61827e-05 -8.08694e-06 2.15033e-06)
(2.73917e-05 -8.51851e-06 1.07242e-06)
(2.61774e-05 -8.0944e-06 1.06218e-06)
(2.59444e-05 -7.93607e-06 6.96671e-06)
(2.77341e-05 -8.59277e-06 5.39548e-06)
(2.59167e-05 -7.95676e-06 5.31427e-06)
(2.3814e-05 -7.24218e-06 4.27746e-06)
(2.49895e-05 -7.66133e-06 3.21615e-06)
(2.50026e-05 -7.65081e-06 4.32914e-06)
(2.74161e-05 -8.49155e-06 4.42077e-06)
(2.61915e-05 -8.07789e-06 3.2516e-06)
(2.62036e-05 -8.06742e-06 4.37687e-06)
(3.23411e-05 -1.028e-05 1.10521e-06)
(3.10959e-05 -9.82318e-06 2.22558e-06)
(3.1092e-05 -9.83081e-06 1.09815e-06)
(2.98493e-05 -9.3983e-06 -1.12207e-06)
(2.86144e-05 -8.95566e-06 -1.63141e-08)
(2.98483e-05 -9.39339e-06 -1.70973e-08)
(2.98543e-05 -9.37957e-06 2.2093e-06)
(2.86163e-05 -8.9496e-06 1.08179e-06)
(2.985e-05 -9.38719e-06 1.09036e-06)
(3.02248e-05 -9.44954e-06 7.8169e-06)
(2.59604e-05 -7.94255e-06 7.57068e-06)
(3.02199e-05 -9.45555e-06 7.44008e-06)
(2.83514e-05 -8.81661e-06 5.66448e-06)
(3.01981e-05 -9.47208e-06 5.73763e-06)
(3.23688e-05 -1.02631e-05 5.02746e-06)
(3.11117e-05 -9.82282e-06 3.84868e-06)
(3.11214e-05 -9.81472e-06 4.99195e-06)
(2.86493e-05 -8.93535e-06 4.90946e-06)
(2.98707e-05 -9.38003e-06 3.81759e-06)
(2.98812e-05 -9.37196e-06 4.95266e-06)
(2.37886e-05 -7.27408e-06 1.48437e-06)
(2.49873e-05 -7.67961e-06 2.58544e-06)
(2.49797e-05 -7.68249e-06 1.50533e-06)
(2.61787e-05 -8.10071e-06 -6.6809e-07)
(2.7394e-05 -8.52474e-06 4.37054e-07)
(2.61791e-05 -8.10049e-06 4.30381e-07)
(2.61903e-05 -8.09545e-06 2.61724e-06)
(2.73977e-05 -8.52253e-06 1.54304e-06)
(2.61831e-05 -8.09879e-06 1.52488e-06)
(2.59532e-05 -7.94947e-06 7.20345e-06)
(2.77407e-05 -8.60154e-06 5.63811e-06)
(2.59234e-05 -7.96671e-06 5.55073e-06)
(2.38244e-05 -7.25982e-06 4.69491e-06)
(2.49986e-05 -7.67474e-06 3.66198e-06)
(2.50131e-05 -7.66713e-06 4.75505e-06)
(2.74266e-05 -8.50536e-06 4.8622e-06)
(2.62007e-05 -8.09025e-06 3.70577e-06)
(2.62142e-05 -8.08246e-06 4.81078e-06)
(3.23481e-05 -1.02826e-05 1.60246e-06)
(3.11042e-05 -9.82899e-06 2.72154e-06)
(3.10988e-05 -9.83377e-06 1.58951e-06)
(2.98527e-05 -9.39555e-06 -6.81447e-07)
(2.8619e-05 -8.95594e-06 4.43308e-07)
(2.98533e-05 -9.39362e-06 4.49145e-07)
(2.98624e-05 -9.38602e-06 2.69877e-06)
(2.86226e-05 -8.95325e-06 1.55984e-06)
(2.98566e-05 -9.39049e-06 1.57532e-06)
(3.58442e-05 -1.14895e-05 7.84821e-06)
(4.02815e-05 -1.31373e-05 7.93667e-06)
(3.36125e-05 -1.07085e-05 4.5876e-06)
(3.48652e-05 -1.1177e-05 3.4264e-06)
(3.48718e-05 -1.11677e-05 4.61146e-06)
(3.58396e-05 -1.14926e-05 7.37885e-06)
(3.77278e-05 -1.22094e-05 5.66984e-06)
(3.58271e-05 -1.15087e-05 5.63609e-06)
(3.61298e-05 -1.16402e-05 3.44222e-06)
(3.74034e-05 -1.20981e-05 4.65088e-06)
(3.61357e-05 -1.16311e-05 4.63249e-06)
(3.99365e-05 -1.30782e-05 -1.17254e-06)
(3.86623e-05 -1.25993e-05 -1.99477e-08)
(3.99365e-05 -1.3072e-05 -1.99474e-08)
(4.24896e-05 -1.4017e-05 1.14041e-06)
(4.1215e-05 -1.35328e-05 2.30633e-06)
(4.12131e-05 -1.35401e-05 1.13772e-06)
(3.86634e-05 -1.25925e-05 1.13106e-06)
(3.99396e-05 -1.30578e-05 2.3003e-06)
(3.99375e-05 -1.30651e-05 1.13461e-06)
(3.35965e-05 -1.07342e-05 1.11159e-06)
(3.48603e-05 -1.11855e-05 2.26538e-06)
(3.48573e-05 -1.11931e-05 1.11732e-06)
(3.61217e-05 -1.16686e-05 -1.15956e-06)
(3.73903e-05 -1.21294e-05 -1.98483e-08)
(3.61213e-05 -1.16627e-05 -1.96454e-08)
(3.61254e-05 -1.16485e-05 2.27589e-06)
(3.73915e-05 -1.21227e-05 1.12701e-06)
(3.61226e-05 -1.16561e-05 1.12245e-06)
(4.02787e-05 -1.31402e-05 7.46289e-06)
(3.83626e-05 -1.24445e-05 5.67935e-06)
(4.02713e-05 -1.31542e-05 5.70408e-06)
(4.24971e-05 -1.39941e-05 4.70131e-06)
(4.12179e-05 -1.35251e-05 3.48736e-06)
(4.12216e-05 -1.35168e-05 4.69182e-06)
(3.86741e-05 -1.25684e-05 4.66678e-06)
(3.99429e-05 -1.30499e-05 3.47854e-06)
(3.99471e-05 -1.30414e-05 4.68037e-06)
(3.58489e-05 -1.14936e-05 8.0259e-06)
(4.02855e-05 -1.31396e-05 8.11842e-06)
(3.36225e-05 -1.07167e-05 5.05936e-06)
(3.48745e-05 -1.1183e-05 3.92486e-06)
(3.48816e-05 -1.1175e-05 5.08779e-06)
(3.58464e-05 -1.14983e-05 7.64177e-06)
(3.77333e-05 -1.22128e-05 5.93523e-06)
(3.58329e-05 -1.15129e-05 5.89854e-06)
(3.6139e-05 -1.16454e-05 3.94496e-06)
(3.74129e-05 -1.21036e-05 5.13494e-06)
(3.61454e-05 -1.16374e-05 5.11293e-06)
(3.99426e-05 -1.30771e-05 -6.98714e-07)
(3.86691e-05 -1.25992e-05 4.78883e-07)
(3.99434e-05 -1.30719e-05 4.81666e-07)
(4.24975e-05 -1.40176e-05 1.66689e-06)
(4.12235e-05 -1.35345e-05 2.83578e-06)
(4.1221e-05 -1.35409e-05 1.66214e-06)
(3.86711e-05 -1.25938e-05 1.65008e-06)
(3.99481e-05 -1.30599e-05 2.82724e-06)
(3.99453e-05 -1.30662e-05 1.65655e-06)
(3.36037e-05 -1.07366e-05 1.6142e-06)
(3.48688e-05 -1.11896e-05 2.77765e-06)
(3.48646e-05 -1.11951e-05 1.62478e-06)
(3.61269e-05 -1.16669e-05 -6.94801e-07)
(3.73969e-05 -1.21294e-05 4.7576e-07)
(3.61277e-05 -1.16627e-05 4.72282e-07)
(3.61339e-05 -1.16521e-05 2.79256e-06)
(3.73991e-05 -1.21242e-05 1.64267e-06)
(3.61301e-05 -1.16578e-05 1.63425e-06)
(4.02845e-05 -1.31435e-05 7.73184e-06)
(3.83681e-05 -1.24476e-05 5.94562e-06)
(4.02765e-05 -1.31566e-05 5.97257e-06)
(4.25058e-05 -1.39967e-05 5.19551e-06)
(4.12267e-05 -1.35276e-05 4.00254e-06)
(4.12305e-05 -1.352e-05 5.18409e-06)
(3.86834e-05 -1.25731e-05 5.15401e-06)
(3.99517e-05 -1.30531e-05 3.99129e-06)
(3.99561e-05 -1.30453e-05 5.17033e-06)
(5.04734e-05 -1.69883e-05 7.52236e-06)
(4.85569e-05 -1.62723e-05 5.75304e-06)
(5.04792e-05 -1.70017e-05 5.75662e-06)
(5.30449e-05 -1.7981e-05 5.15569e-06)
(5.14589e-05 -1.73883e-05 3.51788e-06)
(5.14623e-05 -1.73818e-05 4.7294e-06)
(4.88735e-05 -1.6399e-05 4.72612e-06)
(5.01537e-05 -1.68924e-05 3.51661e-06)
(5.01556e-05 -1.68854e-05 4.72819e-06)
(4.37663e-05 -1.44955e-05 1.14271e-06)
(4.50443e-05 -1.49682e-05 2.31921e-06)
(4.50429e-05 -1.49753e-05 1.14465e-06)
(4.63179e-05 -1.54697e-05 -1.18232e-06)
(4.75933e-05 -1.59446e-05 -1.85107e-08)
(4.63181e-05 -1.5463e-05 -1.88388e-08)
(4.63201e-05 -1.5449e-05 2.32202e-06)
(4.7594e-05 -1.59377e-05 1.14756e-06)
(4.63188e-05 -1.54561e-05 1.14626e-06)
(4.60118e-05 -1.52967e-05 7.51072e-06)
(4.79201e-05 -1.6031e-05 5.75171e-06)
(4.60086e-05 -1.53082e-05 5.74573e-06)
(4.3773e-05 -1.4473e-05 4.70904e-06)
(4.50463e-05 -1.49608e-05 3.50575e-06)
(4.50487e-05 -1.49531e-05 4.71518e-06)
(4.75985e-05 -1.5916e-05 4.72349e-06)
(4.63218e-05 -1.54417e-05 3.50962e-06)
(4.63239e-05 -1.54342e-05 4.71992e-06)
(5.30353e-05 -1.80045e-05 9.84942e-07)
(5.14556e-05 -1.73946e-05 2.32716e-06)
(5.14548e-05 -1.74018e-05 1.14828e-06)
(5.01512e-05 -1.69207e-05 -1.18388e-06)
(4.8869e-05 -1.64274e-05 -1.82198e-08)
(5.01509e-05 -1.69136e-05 -1.82934e-08)
(5.01517e-05 -1.68993e-05 2.32703e-06)
(4.88695e-05 -1.64204e-05 1.14856e-06)
(5.01508e-05 -1.69063e-05 1.14908e-06)
(5.04739e-05 -1.69848e-05 8.17911e-06)
(4.60163e-05 -1.52947e-05 8.17003e-06)
(5.04777e-05 -1.69886e-05 7.79415e-06)
(4.85613e-05 -1.62726e-05 6.02599e-06)
(5.04835e-05 -1.70018e-05 6.02995e-06)
(5.3049e-05 -1.79807e-05 5.41919e-06)
(5.14671e-05 -1.73879e-05 4.04166e-06)
(5.14702e-05 -1.73817e-05 5.23117e-06)
(4.88815e-05 -1.63994e-05 5.22502e-06)
(5.01618e-05 -1.68924e-05 4.03904e-06)
(5.01635e-05 -1.68855e-05 5.22742e-06)
(4.37743e-05 -1.4496e-05 1.67088e-06)
(4.50527e-05 -1.49689e-05 2.85381e-06)
(4.50509e-05 -1.49756e-05 1.67417e-06)
(4.63248e-05 -1.54692e-05 -7.00882e-07)
(4.7601e-05 -1.59443e-05 4.91974e-07)
(4.63256e-05 -1.54627e-05 4.90967e-07)
(4.63284e-05 -1.54495e-05 2.85766e-06)
(4.76021e-05 -1.59376e-05 1.67882e-06)
(4.63269e-05 -1.54562e-05 1.6768e-06)
(4.60166e-05 -1.52977e-05 7.78336e-06)
(4.79245e-05 -1.60315e-05 6.02454e-06)
(4.60132e-05 -1.5309e-05 6.01805e-06)
(4.37815e-05 -1.44751e-05 5.20479e-06)
(4.50547e-05 -1.4962e-05 4.02592e-06)
(4.50571e-05 -1.49547e-05 5.21216e-06)
(4.76065e-05 -1.59167e-05 5.22203e-06)
(4.63302e-05 -1.54425e-05 4.03079e-06)
(4.63321e-05 -1.54353e-05 5.21783e-06)
(5.30393e-05 -1.80041e-05 1.24797e-06)
(5.14639e-05 -1.73941e-05 2.86484e-06)
(5.14629e-05 -1.74012e-05 1.68107e-06)
(5.01585e-05 -1.69203e-05 -7.01149e-07)
(4.88767e-05 -1.64271e-05 4.92647e-07)
(5.01587e-05 -1.69132e-05 4.9282e-07)
(5.016e-05 -1.6899e-05 2.86396e-06)
(4.88776e-05 -1.64202e-05 1.68023e-06)
(5.01589e-05 -1.6906e-05 1.68093e-06)
(3.20801e-05 -1.01136e-05 7.72667e-06)
(2.41678e-05 -7.31402e-06 7.2848e-06)
(5.23832e-05 -1.77113e-05 8.0562e-06)
(4.41021e-05 -1.45723e-05 7.97588e-06)
(1.5248e-05 -4.36753e-06 6.33651e-06)
(2.24116e-05 -6.714e-06 7.14333e-06)
(1.52029e-05 -4.35768e-06 5.29834e-06)
(1.52307e-05 -4.36858e-06 5.95672e-06)
(1.52206e-05 -4.35398e-06 5.73628e-06)
(1.52124e-05 -4.37664e-06 5.47227e-06)
(2.23779e-05 -6.71232e-06 5.96305e-06)
(2.23995e-05 -6.71667e-06 6.71531e-06)
(2.29726e-05 -6.90581e-06 6.50056e-06)
(2.29699e-05 -6.92264e-06 6.21436e-06)
(2.23903e-05 -6.70756e-06 6.45702e-06)
(2.23872e-05 -6.72482e-06 6.17187e-06)
(2.29607e-05 -6.9106e-06 6.00319e-06)
(1.52543e-05 -4.38533e-06 6.46132e-06)
(2.24181e-05 -6.72593e-06 7.29366e-06)
(1.52237e-05 -4.42051e-06 5.81337e-06)
(1.52394e-05 -4.39373e-06 6.14157e-06)
(1.52197e-05 -4.39896e-06 5.65524e-06)
(1.52407e-05 -4.41324e-06 6.18429e-06)
(2.24008e-05 -6.75437e-06 6.5826e-06)
(2.24087e-05 -6.73352e-06 6.93781e-06)
(2.29779e-05 -6.93704e-06 6.43695e-06)
(2.29941e-05 -6.94409e-06 7.04594e-06)
(2.23953e-05 -6.73974e-06 6.39197e-06)
(2.24118e-05 -6.74724e-06 6.99628e-06)
(2.29835e-05 -6.95117e-06 6.62976e-06)
(3.20601e-05 -1.01173e-05 6.4403e-06)
(3.20737e-05 -1.01167e-05 7.26409e-06)
(3.26911e-05 -1.03395e-05 6.99554e-06)
(3.2692e-05 -1.03496e-05 6.69998e-06)
(3.20668e-05 -1.01128e-05 6.9747e-06)
(3.20675e-05 -1.01233e-05 6.67937e-06)
(3.26847e-05 -1.03439e-05 6.45955e-06)
(2.41368e-05 -7.31371e-06 6.07902e-06)
(2.41568e-05 -7.31689e-06 6.84832e-06)
(2.35586e-05 -7.10627e-06 6.54249e-06)
(2.35561e-05 -7.12267e-06 6.25526e-06)
(2.4148e-05 -7.30889e-06 6.58284e-06)
(2.3547e-05 -7.11108e-06 6.04181e-06)
(2.41459e-05 -7.32486e-06 6.29471e-06)
(3.20854e-05 -1.01195e-05 7.89913e-06)
(2.41742e-05 -7.32471e-06 7.44015e-06)
(3.208e-05 -1.0138e-05 7.15062e-06)
(3.20813e-05 -1.0125e-05 7.51928e-06)
(3.26989e-05 -1.03565e-05 6.95376e-06)
(3.2709e-05 -1.03579e-05 7.61751e-06)
(3.20745e-05 -1.01307e-05 6.93171e-06)
(3.2085e-05 -1.01323e-05 7.59314e-06)
(3.27042e-05 -1.03635e-05 7.17393e-06)
(2.41595e-05 -7.35136e-06 6.71913e-06)
(2.41659e-05 -7.33198e-06 7.07823e-06)
(2.35641e-05 -7.13655e-06 6.48029e-06)
(2.35799e-05 -7.14316e-06 7.09384e-06)
(2.35698e-05 -7.15018e-06 6.67523e-06)
(2.41539e-05 -7.33822e-06 6.5221e-06)
(2.41693e-05 -7.34441e-06 7.14003e-06)
(3.39561e-05 -1.07964e-05 7.79322e-06)
(4.2191e-05 -1.3853e-05 7.9599e-06)
(3.39384e-05 -1.08008e-05 6.49478e-06)
(3.33169e-05 -1.05673e-05 7.01518e-06)
(3.3318e-05 -1.05771e-05 6.71941e-06)
(3.39506e-05 -1.07995e-05 7.32688e-06)
(3.33109e-05 -1.05717e-05 6.47769e-06)
(3.39442e-05 -1.07964e-05 7.03366e-06)
(3.39454e-05 -1.08058e-05 6.73773e-06)
(4.21817e-05 -1.38588e-05 6.6328e-06)
(4.21888e-05 -1.38558e-05 7.48521e-06)
(4.28215e-05 -1.40948e-05 7.18748e-06)
(4.28241e-05 -1.40997e-05 6.89195e-06)
(4.21843e-05 -1.38552e-05 7.18197e-06)
(4.21868e-05 -1.38604e-05 6.88628e-06)
(4.28191e-05 -1.40983e-05 6.63804e-06)
(3.39611e-05 -1.08014e-05 7.96851e-06)
(4.21947e-05 -1.38547e-05 8.14278e-06)
(3.39573e-05 -1.08181e-05 7.21671e-06)
(3.33248e-05 -1.05836e-05 6.97456e-06)
(3.33345e-05 -1.05847e-05 7.64052e-06)
(3.39578e-05 -1.08065e-05 7.58625e-06)
(3.33301e-05 -1.05902e-05 7.19594e-06)
(3.39521e-05 -1.08119e-05 6.99419e-06)
(3.39614e-05 -1.08128e-05 7.66221e-06)
(4.21963e-05 -1.38646e-05 7.38608e-06)
(4.21942e-05 -1.38582e-05 7.75584e-06)
(4.28292e-05 -1.41015e-05 7.16001e-06)
(4.28343e-05 -1.40997e-05 7.84437e-06)
(4.2192e-05 -1.38625e-05 7.15389e-06)
(4.21973e-05 -1.38608e-05 7.83777e-06)
(4.28335e-05 -1.41034e-05 7.39258e-06)
(5.24401e-05 -1.77412e-05 6.69619e-06)
(5.24419e-05 -1.77362e-05 7.60166e-06)
(5.30466e-05 -1.79678e-05 7.35636e-06)
(5.3054e-05 -1.79726e-05 7.02846e-06)
(5.24277e-05 -1.77329e-05 7.26742e-06)
(5.24603e-05 -1.77471e-05 6.98076e-06)
(5.30481e-05 -1.79723e-05 6.73134e-06)
(4.40942e-05 -1.45782e-05 6.64672e-06)
(4.41004e-05 -1.4575e-05 7.50078e-06)
(4.34589e-05 -1.43347e-05 7.19232e-06)
(4.34615e-05 -1.43393e-05 6.89696e-06)
(4.40963e-05 -1.45749e-05 7.19654e-06)
(4.34566e-05 -1.43381e-05 6.64266e-06)
(4.4099e-05 -1.45793e-05 6.90136e-06)
(5.23878e-05 -1.77123e-05 8.21666e-06)
(4.41056e-05 -1.45734e-05 8.15957e-06)
(5.24507e-05 -1.77408e-05 7.45076e-06)
(5.2447e-05 -1.77369e-05 7.84946e-06)
(5.30583e-05 -1.79727e-05 7.27862e-06)
(5.30482e-05 -1.79652e-05 7.93141e-06)
(5.24644e-05 -1.77471e-05 7.2478e-06)
(5.2437e-05 -1.7733e-05 7.89795e-06)
(5.30575e-05 -1.79713e-05 7.47877e-06)
(4.4108e-05 -1.45822e-05 7.40338e-06)
(4.41055e-05 -1.45767e-05 7.77263e-06)
(4.34665e-05 -1.4341e-05 7.16542e-06)
(4.34714e-05 -1.4339e-05 7.85018e-06)
(4.34707e-05 -1.43427e-05 7.39833e-06)
(4.41039e-05 -1.45807e-05 7.17018e-06)
(4.41085e-05 -1.45786e-05 7.85525e-06)
(5.2457e-05 -1.77918e-05 -2.75237e-07)
(5.30382e-05 -1.80151e-05 -5.27268e-07)
(5.24463e-05 -1.77894e-05 -5.27103e-07)
(5.30461e-05 -1.80164e-05 -2.79975e-07)
(2.89885e-05 -9.00283e-06 7.58775e-06)
(2.71601e-05 -8.35556e-06 7.48631e-06)
(4.91949e-05 -1.64999e-05 7.99273e-06)
(4.72863e-05 -1.5776e-05 7.98972e-06)
(1.79061e-05 -5.21781e-06 6.68549e-06)
(1.95623e-05 -5.76019e-06 6.87132e-06)
(1.78653e-05 -5.21155e-06 5.58652e-06)
(1.78908e-05 -5.21964e-06 6.28487e-06)
(1.84287e-05 -5.38603e-06 6.10572e-06)
(1.84231e-05 -5.40626e-06 5.83019e-06)
(1.78809e-05 -5.20727e-06 6.04864e-06)
(1.84135e-05 -5.39039e-06 5.63918e-06)
(1.78749e-05 -5.22792e-06 5.77477e-06)
(1.95243e-05 -5.75581e-06 5.73959e-06)
(1.95483e-05 -5.76239e-06 6.45959e-06)
(1.89813e-05 -5.56738e-06 6.16103e-06)
(1.89761e-05 -5.5872e-06 5.88386e-06)
(1.95386e-05 -5.75129e-06 6.21461e-06)
(1.89665e-05 -5.57183e-06 5.69017e-06)
(1.95338e-05 -5.77069e-06 5.93594e-06)
(1.79126e-05 -5.23328e-06 6.82077e-06)
(1.95689e-05 -5.7743e-06 7.01251e-06)
(1.78876e-05 -5.2661e-06 6.14444e-06)
(1.78999e-05 -5.24148e-06 6.48517e-06)
(1.8431e-05 -5.42506e-06 6.03131e-06)
(1.845e-05 -5.43596e-06 6.59834e-06)
(1.78827e-05 -5.24729e-06 5.97298e-06)
(1.79021e-05 -5.25873e-06 6.5341e-06)
(1.84359e-05 -5.44333e-06 6.20531e-06)
(1.9547e-05 -5.80556e-06 6.32172e-06)
(1.95575e-05 -5.78231e-06 6.66861e-06)
(1.8984e-05 -5.60542e-06 6.08785e-06)
(1.90027e-05 -5.61581e-06 6.66069e-06)
(1.95418e-05 -5.78835e-06 6.14274e-06)
(1.95601e-05 -5.79822e-06 6.7212e-06)
(1.89891e-05 -5.62316e-06 6.26436e-06)
(2.89645e-05 -9.00536e-06 6.32678e-06)
(2.89805e-05 -9.00597e-06 7.13327e-06)
(2.83604e-05 -8.78284e-06 6.82308e-06)
(2.836e-05 -8.79582e-06 6.53002e-06)
(2.89728e-05 -9.00064e-06 6.85166e-06)
(2.83517e-05 -8.78759e-06 6.30042e-06)
(2.89727e-05 -9.01319e-06 6.55813e-06)
(2.71335e-05 -8.35716e-06 6.24388e-06)
(2.71509e-05 -8.35864e-06 7.03782e-06)
(2.77503e-05 -8.56673e-06 6.79312e-06)
(2.77497e-05 -8.58012e-06 6.50061e-06)
(2.71428e-05 -8.35237e-06 6.76174e-06)
(2.77413e-05 -8.5715e-06 6.27281e-06)
(2.7142e-05 -8.36618e-06 6.4698e-06)
(2.89944e-05 -9.01044e-06 7.75455e-06)
(2.71661e-05 -8.36428e-06 7.64916e-06)
(2.89858e-05 -9.03212e-06 7.01388e-06)
(2.89888e-05 -9.01672e-06 7.38009e-06)
(2.83676e-05 -8.80576e-06 6.77224e-06)
(2.83803e-05 -8.80931e-06 7.4167e-06)
(2.89801e-05 -9.02269e-06 6.80221e-06)
(2.89925e-05 -9.0259e-06 7.44984e-06)