/*--------------------------------*- C++ -*----------------------------------*\
| =========                 |                                                 |
| \\      /  F ield         | OpenFOAM: The Open Source CFD Toolbox           |
|  \\    /   O peration     | Version:  2012                                  |
|   \\  /    A nd           | Website:  www.openfoam.com                      |
|    \\/     M anipulation  |                                                 |
\*---------------------------------------------------------------------------*/
FoamFile
{
    version     2.0;
    format      ascii;
    class       volVectorField;
    location    "0.107/solid";
    object      D_0;
}
// * * * * * * * * * * * * * * * * * * * * * * * * * * * * * * * * * * * * * //

dimensions      [0 1 0 0 0 0 0];


internalField   nonuniform List<vector> 
3125
(
(2.88321e-05 -1.07734e-05 6.81589e-06)
(2.07837e-05 -7.16451e-06 6.36941e-06)
(4.66686e-05 -1.94003e-05 7.17817e-06)
(3.83247e-05 -1.53111e-05 7.00864e-06)
(2.02674e-05 -6.9439e-06 6.32815e-06)
(1.99027e-05 -7.46419e-06 -9.72661e-07)
(1.30646e-05 -4.60753e-06 -8.40697e-07)
(2.02494e-05 -6.97464e-06 5.93965e-06)
(2.03054e-05 -6.95406e-06 6.4963e-06)
(1.99809e-05 -7.46034e-06 -5.23523e-07)
(1.31229e-05 -4.60174e-06 -4.77737e-07)
(2.03051e-05 -6.98898e-06 6.18882e-06)
(2.8818e-05 -1.08083e-05 6.39616e-06)
(2.09401e-05 -7.9194e-06 -9.87587e-07)
(2.0766e-05 -7.1956e-06 5.97825e-06)
(2.84837e-05 -1.13654e-05 -1.06528e-06)
(2.88732e-05 -1.07783e-05 7.01211e-06)
(2.0822e-05 -7.17431e-06 6.53972e-06)
(2.88785e-05 -1.08152e-05 6.68669e-06)
(2.10209e-05 -7.91581e-06 -5.27848e-07)
(2.08221e-05 -7.20942e-06 6.23062e-06)
(2.85791e-05 -1.13634e-05 -5.46897e-07)
(2.93837e-05 -1.10305e-05 6.83524e-06)
(3.77627e-05 -1.50373e-05 7.00403e-06)
(2.93698e-05 -1.10655e-05 6.4143e-06)
(3.74323e-05 -1.56682e-05 -1.10334e-06)
(2.95905e-05 -1.18876e-05 -1.07273e-06)
(3.77516e-05 -1.50739e-05 6.57358e-06)
(2.94249e-05 -1.10351e-05 7.03272e-06)
(3.78046e-05 -1.50386e-05 7.21339e-06)
(2.94305e-05 -1.10721e-05 6.70669e-06)
(3.75386e-05 -1.56674e-05 -5.53262e-07)
(2.96876e-05 -1.18858e-05 -5.4836e-07)
(3.78136e-05 -1.50758e-05 6.88349e-06)
(4.67781e-05 -1.9492e-05 6.79514e-06)
(3.85584e-05 -1.62193e-05 -1.10518e-06)
(3.83137e-05 -1.53478e-05 6.57804e-06)
(4.6711e-05 -1.94054e-05 7.34124e-06)
(3.83666e-05 -1.53123e-05 7.21838e-06)
(4.68343e-05 -1.94957e-05 7.04183e-06)
(3.86655e-05 -1.62187e-05 -5.53451e-07)
(3.83757e-05 -1.53495e-05 6.88852e-06)
(2.50153e-05 -9.02558e-06 6.64582e-06)
(2.44776e-05 -8.78427e-06 6.61628e-06)
(4.28182e-05 -1.75144e-05 7.02652e-06)
(4.2257e-05 -1.72381e-05 7.0257e-06)
(1.62636e-05 -5.28855e-06 5.94034e-06)
(1.67505e-05 -5.48427e-06 5.9946e-06)
(1.30844e-05 -4.35795e-06 2.39442e-06)
(1.62435e-05 -5.31604e-06 5.57663e-06)
(1.59093e-05 -5.47676e-06 2.55045e-06)
(1.68725e-05 -6.16586e-06 -9.21989e-07)
(1.99036e-05 -7.23117e-06 1.77797e-06)
(1.6875e-05 -5.95272e-06 1.70084e-06)
(1.30695e-05 -4.42489e-06 1.57068e-06)
(1.58934e-05 -5.757e-06 -9.03132e-07)
(1.58964e-05 -5.55105e-06 1.67134e-06)
(1.67306e-05 -5.51222e-06 5.62743e-06)
(1.9914e-05 -7.14863e-06 2.71685e-06)
(1.68872e-05 -5.8762e-06 2.59636e-06)
(1.62988e-05 -5.30179e-06 6.08948e-06)
(1.67861e-05 -5.49712e-06 6.14626e-06)
(1.31601e-05 -4.37918e-06 2.77601e-06)
(1.62949e-05 -5.33474e-06 5.7978e-06)
(1.5994e-05 -5.49466e-06 2.97568e-06)
(1.69427e-05 -6.16121e-06 -5.07475e-07)
(1.99983e-05 -7.24066e-06 2.27084e-06)
(1.69617e-05 -5.96434e-06 2.1543e-06)
(1.31438e-05 -4.43955e-06 1.96556e-06)
(1.59608e-05 -5.75207e-06 -5.00996e-07)
(1.59802e-05 -5.56341e-06 2.11073e-06)
(1.67827e-05 -5.53035e-06 5.85231e-06)
(2.00088e-05 -7.16239e-06 3.19454e-06)
(1.69746e-05 -5.89304e-06 3.03539e-06)
(2.49995e-05 -9.05899e-06 6.2369e-06)
(2.84883e-05 -1.09969e-05 2.9271e-06)
(2.52067e-05 -9.48739e-06 2.86534e-06)
(2.09407e-05 -7.6803e-06 1.8001e-06)
(2.41205e-05 -9.3452e-06 -1.02653e-06)
(2.41199e-05 -9.08947e-06 1.85671e-06)
(2.44617e-05 -8.81743e-06 6.20925e-06)
(2.09505e-05 -7.59597e-06 2.75154e-06)
(2.41281e-05 -9.00035e-06 2.84045e-06)
(2.84819e-05 -1.10911e-05 1.91185e-06)
(2.52e-05 -9.83867e-06 -1.0376e-06)
(2.5199e-05 -9.57792e-06 1.87254e-06)
(2.50554e-05 -9.03262e-06 6.83159e-06)
(2.45176e-05 -8.79163e-06 6.80031e-06)
(2.50585e-05 -9.06892e-06 6.51201e-06)
(2.85973e-05 -1.10036e-05 3.48272e-06)
(2.53112e-05 -9.49651e-06 3.39647e-06)
(2.10377e-05 -7.68911e-06 2.30506e-06)
(2.4208e-05 -9.34233e-06 -5.38179e-07)
(2.42233e-05 -9.09635e-06 2.39437e-06)
(2.45203e-05 -8.82782e-06 6.48181e-06)
(2.10475e-05 -7.60874e-06 3.2411e-06)
(2.42309e-05 -9.01033e-06 3.36212e-06)
(2.85923e-05 -1.10957e-05 2.48404e-06)
(2.52896e-05 -9.83603e-06 -5.40842e-07)
(2.53044e-05 -9.58419e-06 2.41983e-06)
(3.32758e-05 -1.2871e-05 6.94006e-06)
(3.38352e-05 -1.31388e-05 6.95101e-06)
(2.95945e-05 -1.15141e-05 2.94371e-06)
(3.32634e-05 -1.2907e-05 6.51282e-06)
(3.2939e-05 -1.30993e-05 2.98307e-06)
(3.40582e-05 -1.40271e-05 -1.09444e-06)
(3.74291e-05 -1.53691e-05 1.96891e-06)
(3.40554e-05 -1.37354e-05 1.95428e-06)
(2.95885e-05 -1.16094e-05 1.92246e-06)
(3.29367e-05 -1.34859e-05 -1.09015e-06)
(3.29341e-05 -1.31972e-05 1.94778e-06)
(3.38229e-05 -1.31749e-05 6.52316e-06)
(3.74329e-05 -1.52686e-05 3.01504e-06)
(3.406e-05 -1.36368e-05 2.99305e-06)
(3.33175e-05 -1.28739e-05 7.14464e-06)
(3.38769e-05 -1.31415e-05 7.15637e-06)
(2.97047e-05 -1.15201e-05 3.50618e-06)
(3.33249e-05 -1.29111e-05 6.81566e-06)
(3.30524e-05 -1.31032e-05 3.56214e-06)
(3.41612e-05 -1.4026e-05 -5.52086e-07)
(3.75484e-05 -1.53703e-05 2.5787e-06)
(3.41721e-05 -1.37377e-05 2.55459e-06)
(2.97004e-05 -1.16135e-05 2.5016e-06)
(3.30383e-05 -1.34846e-05 -5.51428e-07)
(3.30497e-05 -1.31999e-05 2.54376e-06)
(3.38846e-05 -1.31787e-05 6.82715e-06)
(3.75494e-05 -1.52705e-05 3.6078e-06)
(3.41744e-05 -1.36401e-05 3.5764e-06)
(4.28081e-05 -1.75516e-05 6.59609e-06)
(4.67624e-05 -1.98667e-05 2.92564e-06)
(4.30586e-05 -1.80258e-05 3.03182e-06)
(3.8555e-05 -1.59183e-05 1.97237e-06)
(4.19344e-05 -1.78794e-05 -1.1081e-06)
(4.19307e-05 -1.75738e-05 1.97938e-06)
(4.22468e-05 -1.72752e-05 6.59515e-06)
(3.85585e-05 -1.58174e-05 3.02009e-06)
(4.19336e-05 -1.74718e-05 3.02989e-06)
(4.67611e-05 -1.99182e-05 2.40037e-06)
(4.30597e-05 -1.84347e-05 -1.10842e-06)
(4.30557e-05 -1.8128e-05 1.98081e-06)
(4.28602e-05 -1.75147e-05 7.23799e-06)
(4.2299e-05 -1.72385e-05 7.23707e-06)
(4.28703e-05 -1.7552e-05 6.90914e-06)
(4.68224e-05 -1.98664e-05 3.22774e-06)
(4.31772e-05 -1.80259e-05 3.63097e-06)
(3.8675e-05 -1.59192e-05 2.58428e-06)
(4.20436e-05 -1.7879e-05 -5.53681e-07)
(4.20522e-05 -1.7574e-05 2.59506e-06)
(4.2309e-05 -1.72757e-05 6.90805e-06)
(3.86756e-05 -1.58188e-05 3.61496e-06)
(4.20519e-05 -1.74722e-05 3.62857e-06)
(4.68216e-05 -1.99179e-05 2.70477e-06)
(4.31694e-05 -1.84343e-05 -5.5376e-07)
(4.31776e-05 -1.8128e-05 2.59695e-06)
(2.71859e-05 -1.00126e-05 6.75062e-06)
(2.23507e-05 -7.84308e-06 6.48402e-06)
(4.50736e-05 -1.86262e-05 7.03541e-06)
(4.00106e-05 -1.61352e-05 7.01888e-06)
(1.43602e-05 -4.53967e-06 5.70611e-06)
(1.87382e-05 -6.29972e-06 6.19493e-06)
(1.43391e-05 -4.56521e-06 5.35724e-06)
(1.42969e-05 -4.68287e-06 4.07562e-06)
(1.88782e-05 -7.01988e-06 -9.56754e-07)
(1.98985e-05 -7.38878e-06 -6.17104e-08)
(1.8874e-05 -6.9467e-06 -5.90228e-08)
(1.30601e-05 -4.54954e-06 -4.24074e-08)
(1.39883e-05 -4.97751e-06 -8.62482e-07)
(1.39838e-05 -4.91676e-06 -4.51254e-08)
(1.87194e-05 -6.32934e-06 5.81498e-06)
(2.02206e-05 -7.10925e-06 4.52271e-06)
(1.86873e-05 -6.46035e-06 4.42653e-06)
(1.43937e-05 -4.55454e-06 5.84481e-06)
(1.87753e-05 -6.31101e-06 6.35628e-06)
(1.43879e-05 -4.58621e-06 5.56302e-06)
(1.43418e-05 -4.6985e-06 4.28321e-06)
(1.89539e-05 -7.01577e-06 -5.18707e-07)
(1.99836e-05 -7.38926e-06 4.11469e-07)
(1.89565e-05 -6.94723e-06 4.02321e-07)
(1.31246e-05 -4.5504e-06 3.38864e-07)
(1.40497e-05 -4.97201e-06 -4.86157e-07)
(1.40516e-05 -4.91757e-06 3.50393e-07)
(1.87737e-05 -6.34527e-06 6.05413e-06)
(2.02731e-05 -7.11991e-06 4.77293e-06)
(1.87382e-05 -6.47217e-06 4.66693e-06)
(2.71712e-05 -1.00469e-05 6.335e-06)
(2.88039e-05 -1.09553e-05 4.87564e-06)
(2.71544e-05 -1.01923e-05 4.82777e-06)
(2.09361e-05 -7.84184e-06 -6.43184e-08)
(2.19896e-05 -8.385e-06 -1.00154e-06)
(2.19856e-05 -8.30538e-06 -6.68284e-08)
(2.23338e-05 -7.87513e-06 6.0855e-06)
(2.07381e-05 -7.33125e-06 4.55209e-06)
(2.23091e-05 -8.01384e-06 4.63498e-06)
(2.84802e-05 -1.12751e-05 -7.89159e-08)
(2.73824e-05 -1.08494e-05 -1.05695e-06)
(2.73789e-05 -1.07607e-05 -7.73205e-08)
(2.72267e-05 -1.00183e-05 6.94273e-06)
(2.23898e-05 -7.8518e-06 6.66054e-06)
(2.72311e-05 -1.0055e-05 6.61946e-06)
(2.88625e-05 -1.09605e-05 5.16648e-06)
(2.72122e-05 -1.01983e-05 5.11266e-06)
(2.10237e-05 -7.84227e-06 4.20179e-07)
(2.20727e-05 -8.38165e-06 -5.31712e-07)
(2.20756e-05 -8.30576e-06 4.28442e-07)
(2.23911e-05 -7.88744e-06 6.347e-06)
(2.07911e-05 -7.3415e-06 4.80547e-06)
(2.23635e-05 -8.02299e-06 4.89732e-06)
(2.85825e-05 -1.12753e-05 4.68339e-07)
(2.7476e-05 -1.08472e-05 -5.45174e-07)
(2.74794e-05 -1.07609e-05 4.62849e-07)
(3.10459e-05 -1.18112e-05 6.88651e-06)
(3.60776e-05 -1.42192e-05 6.98603e-06)
(2.93563e-05 -1.1213e-05 4.88969e-06)
(3.10327e-05 -1.18467e-05 6.46242e-06)
(3.10215e-05 -1.19955e-05 4.92769e-06)
(3.63066e-05 -1.51188e-05 -1.10098e-06)
(3.74295e-05 -1.55687e-05 -8.48986e-08)
(3.63037e-05 -1.50201e-05 -8.47631e-08)
(2.95872e-05 -1.17959e-05 -8.03239e-08)
(3.07021e-05 -1.24156e-05 -1.07934e-06)
(3.06988e-05 -1.23225e-05 -8.15369e-08)
(3.6066e-05 -1.42557e-05 6.55635e-06)
(3.77472e-05 -1.52255e-05 5.01787e-06)
(3.606e-05 -1.44067e-05 5.00318e-06)
(3.10874e-05 -1.1815e-05 7.08738e-06)
(3.61195e-05 -1.42211e-05 7.19397e-06)
(2.94152e-05 -1.12179e-05 5.18235e-06)
(3.10938e-05 -1.18521e-05 6.75981e-06)
(3.10811e-05 -1.19995e-05 5.22525e-06)
(3.64119e-05 -1.51179e-05 -5.52984e-07)
(3.75423e-05 -1.55685e-05 4.96782e-07)
(3.64155e-05 -1.502e-05 4.94598e-07)
(2.96911e-05 -1.1796e-05 4.73373e-07)
(3.08009e-05 -1.24139e-05 -5.49586e-07)
(3.08044e-05 -1.23225e-05 4.77959e-07)
(3.61279e-05 -1.42583e-05 6.86416e-06)
(3.78086e-05 -1.52269e-05 5.32774e-06)
(3.61211e-05 -1.44087e-05 5.31098e-06)
(4.50693e-05 -1.8666e-05 6.60713e-06)
(4.67694e-05 -1.96595e-05 5.05165e-06)
(4.50772e-05 -1.88238e-05 5.04415e-06)
(3.85556e-05 -1.61191e-05 -8.49047e-08)
(3.96843e-05 -1.67718e-05 -1.10654e-06)
(3.96815e-05 -1.66709e-05 -8.48003e-08)
(4e-05 -1.6172e-05 6.58809e-06)
(3.83095e-05 -1.54994e-05 5.02171e-06)
(3.99971e-05 -1.63241e-05 5.03097e-06)
(4.67588e-05 -2.01248e-05 3.14823e-07)
(4.5339e-05 -1.94608e-05 -8.5988e-08)
(4.51153e-05 -1.86266e-05 7.24324e-06)
(4.00526e-05 -1.61359e-05 7.22953e-06)
(4.51312e-05 -1.86664e-05 6.91638e-06)
(4.68314e-05 -1.9659e-05 5.36634e-06)
(4.51394e-05 -1.88238e-05 5.35802e-06)
(3.86692e-05 -1.61189e-05 4.98633e-07)
(3.97922e-05 -1.67712e-05 -5.53569e-07)
(3.97959e-05 -1.66707e-05 5.00167e-07)
(4.00621e-05 -1.61731e-05 6.89991e-06)
(3.8371e-05 -1.55007e-05 5.33214e-06)
(4.00589e-05 -1.63249e-05 5.34272e-06)
(4.68181e-05 -2.01245e-05 6.13369e-07)
(4.5456e-05 -1.94603e-05 5.03112e-07)
(2.66404e-05 -9.76271e-06 6.72638e-06)
(2.28787e-05 -8.07462e-06 6.51925e-06)
(4.45054e-05 -1.83462e-05 7.03015e-06)
(4.05725e-05 -1.64105e-05 7.02123e-06)
(1.48291e-05 -4.72169e-06 5.76727e-06)
(1.82355e-05 -6.09109e-06 6.14732e-06)
(1.31055e-05 -4.2876e-06 3.23791e-06)
(1.40068e-05 -4.7173e-06 2.44956e-06)
(1.40269e-05 -4.64436e-06 3.31287e-06)
(1.48082e-05 -4.74774e-06 5.41453e-06)
(1.6206e-05 -5.44017e-06 4.2439e-06)
(1.47671e-05 -4.86708e-06 4.11911e-06)
(1.49488e-05 -5.09034e-06 2.50154e-06)
(1.59276e-05 -5.39903e-06 3.45022e-06)
(1.4968e-05 -5.01494e-06 3.38361e-06)
(1.78678e-05 -6.58696e-06 -9.39864e-07)
(1.68681e-05 -6.09738e-06 -5.34911e-08)
(1.78635e-05 -6.51608e-06 -5.6276e-08)
(1.98987e-05 -7.31128e-06 8.52394e-07)
(1.88796e-05 -6.79321e-06 1.75409e-06)
(1.88744e-05 -6.87132e-06 8.41861e-07)
(1.68689e-05 -6.02651e-06 8.18147e-07)
(1.78697e-05 -6.36691e-06 1.7284e-06)
(1.7864e-05 -6.44291e-06 8.30459e-07)
(1.30617e-05 -4.48883e-06 7.58965e-07)
(1.39926e-05 -4.7868e-06 1.60632e-06)
(1.39852e-05 -4.85337e-06 7.75331e-07)
(1.49316e-05 -5.36077e-06 -8.83295e-07)
(1.5889e-05 -5.69101e-06 -5.069e-08)
(1.49272e-05 -5.29736e-06 -4.78938e-08)
(1.49353e-05 -5.1623e-06 1.63985e-06)
(1.58899e-05 -5.62254e-06 8.04881e-07)
(1.49283e-05 -5.23138e-06 7.90623e-07)
(1.82165e-05 -6.12031e-06 5.77042e-06)
(1.66941e-05 -5.6378e-06 4.28248e-06)
(1.81835e-05 -6.25007e-06 4.39266e-06)
(1.99289e-05 -7.06279e-06 3.67728e-06)
(1.88906e-05 -6.71257e-06 2.67948e-06)
(1.89063e-05 -6.62858e-06 3.62623e-06)
(1.69046e-05 -5.79626e-06 3.5128e-06)
(1.78813e-05 -6.28828e-06 2.63934e-06)
(1.78978e-05 -6.20625e-06 3.57144e-06)
(1.4863e-05 -4.73616e-06 5.90863e-06)
(1.82723e-05 -6.10276e-06 6.30631e-06)
(1.3181e-05 -4.31337e-06 3.60024e-06)
(1.40856e-05 -4.7374e-06 2.84603e-06)
(1.41053e-05 -4.66877e-06 3.68952e-06)
(1.48578e-05 -4.76816e-06 5.62424e-06)
(1.62537e-05 -5.45408e-06 4.46661e-06)
(1.48128e-05 -4.88224e-06 4.33057e-06)
(1.50306e-05 -5.10934e-06 2.91257e-06)
(1.60114e-05 -5.42078e-06 3.85456e-06)
(1.50492e-05 -5.03801e-06 3.77428e-06)
(1.79408e-05 -6.58258e-06 -5.13368e-07)
(1.69451e-05 -6.09802e-06 3.82749e-07)
(1.79433e-05 -6.51667e-06 3.92743e-07)
(1.99898e-05 -7.3162e-06 1.34261e-06)
(1.89718e-05 -6.8034e-06 2.23432e-06)
(1.89628e-05 -6.8766e-06 1.31966e-06)
(1.69518e-05 -6.03256e-06 1.26963e-06)
(1.79592e-05 -6.37781e-06 2.19548e-06)
(1.79498e-05 -6.44858e-06 1.29534e-06)
(1.3132e-05 -4.4965e-06 1.15285e-06)
(1.40702e-05 -4.80069e-06 2.01638e-06)
(1.40588e-05 -4.86062e-06 1.18414e-06)
(1.49961e-05 -5.35556e-06 -4.939e-07)
(1.5963e-05 -5.69171e-06 3.7235e-07)
(1.49981e-05 -5.29811e-06 3.6156e-07)
(1.5016e-05 -5.17542e-06 2.06476e-06)
(1.59699e-05 -5.62898e-06 1.24253e-06)
(1.50052e-05 -5.23822e-06 1.21403e-06)
(1.82702e-05 -6.13678e-06 6.00609e-06)
(1.67425e-05 -5.65126e-06 4.50886e-06)
(1.82337e-05 -6.26233e-06 4.62962e-06)
(2.00219e-05 -7.07951e-06 4.13214e-06)
(1.89831e-05 -6.72734e-06 3.14477e-06)
(1.89973e-05 -6.64652e-06 4.06915e-06)
(1.69909e-05 -5.81672e-06 3.93043e-06)
(1.79713e-05 -6.30407e-06 3.09174e-06)
(1.79866e-05 -6.22544e-06 4.00194e-06)
(2.66254e-05 -9.79681e-06 6.3123e-06)
(2.49793e-05 -9.20179e-06 4.75165e-06)
(2.66081e-05 -9.94168e-06 4.81033e-06)
(2.84974e-05 -1.09001e-05 3.96459e-06)
(2.73877e-05 -1.04863e-05 2.90857e-06)
(2.73975e-05 -1.03905e-05 3.93932e-06)
(2.52178e-05 -9.39393e-06 3.88029e-06)
(2.62936e-05 -9.98291e-06 2.88802e-06)
(2.6304e-05 -9.88824e-06 3.91126e-06)
(2.09361e-05 -7.76232e-06 8.62101e-07)
(2.19897e-05 -8.14009e-06 1.82056e-06)
(2.19855e-05 -8.22392e-06 8.71025e-07)
(2.305e-05 -8.86045e-06 -1.01451e-06)
(2.41166e-05 -9.26171e-06 -7.14804e-08)
(2.30461e-05 -8.77885e-06 -6.92204e-08)
(2.30498e-05 -8.61e-06 1.83941e-06)
(2.41163e-05 -9.17664e-06 8.86692e-07)
(2.30459e-05 -8.69554e-06 8.79208e-07)
(2.2862e-05 -8.10696e-06 6.11845e-06)
(2.44407e-05 -8.95954e-06 4.7305e-06)
(2.2838e-05 -8.24653e-06 4.66012e-06)
(2.09645e-05 -7.50838e-06 3.7247e-06)
(2.1999e-05 -8.05406e-06 2.78365e-06)
(2.20122e-05 -7.96485e-06 3.76859e-06)
(2.41398e-05 -8.9082e-06 3.84627e-06)
(2.30585e-05 -8.52237e-06 2.81325e-06)
(2.3071e-05 -8.43164e-06 3.80907e-06)
(2.84794e-05 -1.11839e-05 9.10459e-07)
(2.73809e-05 -1.05794e-05 1.90004e-06)
(2.73782e-05 -1.06709e-05 9.05362e-07)
(2.62876e-05 -1.03403e-05 -1.04774e-06)
(2.51962e-05 -9.75337e-06 -7.35922e-08)
(2.62839e-05 -1.02532e-05 -7.55432e-08)
(2.62863e-05 -1.00748e-05 1.88696e-06)
(2.51957e-05 -9.66663e-06 8.93518e-07)
(2.62833e-05 -1.01649e-05 8.99729e-07)
(2.66811e-05 -9.7688e-06 6.91699e-06)
(2.2918e-05 -8.08299e-06 6.69773e-06)
(2.66852e-05 -9.8054e-06 6.59456e-06)
(2.50358e-05 -9.20915e-06 5.02736e-06)
(2.66655e-05 -9.94807e-06 5.09304e-06)
(2.8603e-05 -1.09082e-05 4.49457e-06)
(2.74953e-05 -1.04938e-05 3.45668e-06)
(2.75018e-05 -1.03996e-05 4.46207e-06)
(2.53195e-05 -9.40504e-06 4.38665e-06)
(2.63997e-05 -9.99118e-06 3.42796e-06)
(2.64071e-05 -9.89832e-06 4.42613e-06)
(2.10297e-05 -7.76687e-06 1.36419e-06)
(2.2089e-05 -8.14823e-06 2.33703e-06)
(2.20814e-05 -8.22812e-06 1.38442e-06)
(2.31354e-05 -8.85734e-06 -5.35145e-07)
(2.42111e-05 -9.262e-06 4.43596e-07)
(2.31384e-05 -8.77919e-06 4.3625e-07)
(2.31512e-05 -8.6175e-06 2.36678e-06)
(2.42166e-05 -9.18017e-06 1.42088e-06)
(2.31441e-05 -8.69941e-06 1.40331e-06)
(2.29197e-05 -8.11878e-06 6.38284e-06)
(2.44968e-05 -8.96727e-06 5.00369e-06)
(2.28929e-05 -8.25529e-06 4.92531e-06)
(2.10596e-05 -7.52392e-06 4.19099e-06)
(2.2098e-05 -8.06588e-06 3.2845e-06)
(2.21091e-05 -7.97922e-06 4.24577e-06)
(2.424e-05 -8.92036e-06 4.3435e-06)
(2.31595e-05 -8.53326e-06 3.32482e-06)
(2.31696e-05 -8.44489e-06 4.29657e-06)
(2.85873e-05 -1.11862e-05 1.47851e-06)
(2.74898e-05 -1.05845e-05 2.46461e-06)
(2.74843e-05 -1.06735e-05 1.46594e-06)
(2.63792e-05 -1.03378e-05 -5.43165e-07)
(2.52928e-05 -9.75361e-06 4.50479e-07)
(2.63825e-05 -1.02534e-05 4.56897e-07)
(2.63935e-05 -1.00804e-05 2.44322e-06)
(2.52981e-05 -9.66984e-06 1.43716e-06)
(2.63876e-05 -1.01678e-05 1.45217e-06)
(3.16021e-05 -1.20743e-05 6.90142e-06)
(3.55164e-05 -1.39479e-05 6.97853e-06)
(2.9603e-05 -1.14164e-05 3.98719e-06)
(3.07055e-05 -1.20374e-05 2.95851e-06)
(3.07135e-05 -1.19387e-05 4.00728e-06)
(3.15891e-05 -1.21099e-05 6.47644e-06)
(3.32548e-05 -1.3057e-05 4.96779e-06)
(3.15784e-05 -1.2259e-05 4.93865e-06)
(3.18206e-05 -1.25659e-05 2.9716e-06)
(3.29459e-05 -1.29992e-05 4.04044e-06)
(3.1828e-05 -1.24665e-05 4.02498e-06)
(3.51817e-05 -1.45716e-05 -1.09803e-06)
(3.40551e-05 -1.39304e-05 -8.4019e-08)
(3.51787e-05 -1.44739e-05 -8.44754e-08)
(3.74281e-05 -1.54691e-05 9.36147e-07)
(3.63035e-05 -1.48219e-05 1.96478e-06)
(3.63024e-05 -1.49213e-05 9.34114e-07)
(3.4054e-05 -1.38333e-05 9.29176e-07)
(3.51788e-05 -1.42772e-05 1.95993e-06)
(3.51775e-05 -1.43759e-05 9.31798e-07)
(2.95863e-05 -1.17034e-05 9.15057e-07)
(3.06999e-05 -1.21336e-05 1.93194e-06)
(3.06979e-05 -1.22286e-05 9.19194e-07)
(3.18178e-05 -1.29485e-05 -1.08513e-06)
(3.29335e-05 -1.33903e-05 -8.33815e-08)
(3.18145e-05 -1.28541e-05 -8.25559e-08)
(3.18153e-05 -1.2663e-05 1.94035e-06)
(3.29324e-05 -1.32942e-05 9.26221e-07)
(3.18135e-05 -1.27591e-05 9.22904e-07)
(3.55046e-05 -1.39843e-05 6.54921e-06)
(3.38147e-05 -1.33251e-05 4.976e-06)
(3.54983e-05 -1.41352e-05 4.99735e-06)
(3.74381e-05 -1.51664e-05 4.0828e-06)
(3.63075e-05 -1.4722e-05 3.00893e-06)
(3.63132e-05 -1.46202e-05 4.07483e-06)
(3.40665e-05 -1.3536e-05 4.0538e-06)
(3.51831e-05 -1.41779e-05 3.00163e-06)
(3.51891e-05 -1.40765e-05 4.06521e-06)
(3.16436e-05 -1.20779e-05 7.10331e-06)
(3.55582e-05 -1.39499e-05 7.1859e-06)
(2.97096e-05 -1.14236e-05 4.52378e-06)
(3.08169e-05 -1.20426e-05 3.52715e-06)
(3.08211e-05 -1.19451e-05 4.54983e-06)
(3.16503e-05 -1.2115e-05 6.77532e-06)
(3.33152e-05 -1.306e-05 5.2707e-06)
(3.16382e-05 -1.22627e-05 5.23768e-06)
(3.1933e-05 -1.25705e-05 3.54577e-06)
(3.30552e-05 -1.3004e-05 4.59306e-06)
(3.19365e-05 -1.24721e-05 4.57287e-06)
(3.52859e-05 -1.45706e-05 -5.52597e-07)
(3.41648e-05 -1.39303e-05 4.89139e-07)
(3.52895e-05 -1.44738e-05 4.92056e-07)
(3.75458e-05 -1.54697e-05 1.54077e-06)
(3.64221e-05 -1.48234e-05 2.57196e-06)
(3.64192e-05 -1.4922e-05 1.53623e-06)
(3.41688e-05 -1.38344e-05 1.52465e-06)
(3.52964e-05 -1.42791e-05 2.56396e-06)
(3.52934e-05 -1.43768e-05 1.53088e-06)
(2.96957e-05 -1.17054e-05 1.4899e-06)
(3.08131e-05 -1.21371e-05 2.51735e-06)
(3.08088e-05 -1.22304e-05 1.50017e-06)
(3.1918e-05 -1.2947e-05 -5.50601e-07)
(3.30419e-05 -1.33903e-05 4.85828e-07)
(3.19215e-05 -1.28541e-05 4.82107e-07)
(3.19298e-05 -1.26662e-05 2.53138e-06)
(3.3046e-05 -1.32955e-05 1.51749e-06)
(3.19258e-05 -1.27607e-05 1.50935e-06)
(3.55665e-05 -1.39871e-05 6.85618e-06)
(3.38753e-05 -1.33279e-05 5.28005e-06)
(3.55593e-05 -1.41373e-05 5.30432e-06)
(3.75499e-05 -1.51687e-05 4.64867e-06)
(3.64234e-05 -1.47243e-05 3.59909e-06)
(3.64244e-05 -1.4623e-05 4.63818e-06)
(3.41765e-05 -1.35401e-05 4.61056e-06)
(3.52982e-05 -1.41806e-05 3.58867e-06)
(3.52998e-05 -1.408e-05 4.62554e-06)
(4.4498e-05 -1.83845e-05 6.60067e-06)
(4.28072e-05 -1.77042e-05 5.03952e-06)
(4.4503e-05 -1.85403e-05 5.04265e-06)
(4.67677e-05 -1.97118e-05 4.51409e-06)
(4.53405e-05 -1.91523e-05 3.03428e-06)
(4.53459e-05 -1.9049e-05 4.10621e-06)
(4.30624e-05 -1.7922e-05 4.10364e-06)
(4.41892e-05 -1.85835e-05 3.03333e-06)
(4.41934e-05 -1.84798e-05 4.10542e-06)
(3.85541e-05 -1.60189e-05 9.37913e-07)
(3.96807e-05 -1.6469e-05 1.97523e-06)
(3.968e-05 -1.65701e-05 9.39432e-07)
(4.08097e-05 -1.73252e-05 -1.1075e-06)
(4.19317e-05 -1.77774e-05 -8.43631e-08)
(4.08069e-05 -1.72237e-05 -8.46116e-08)
(4.0806e-05 -1.70209e-05 1.97754e-06)
(4.19302e-05 -1.76757e-05 9.41789e-07)
(4.08054e-05 -1.71224e-05 9.4072e-07)
(4.0562e-05 -1.64475e-05 6.59045e-06)
(4.22454e-05 -1.74277e-05 5.03838e-06)
(4.05592e-05 -1.65995e-05 5.03323e-06)
(3.85634e-05 -1.57147e-05 4.08927e-06)
(3.9684e-05 -1.63677e-05 3.02417e-06)
(3.96887e-05 -1.62647e-05 4.09442e-06)
(4.19377e-05 -1.73683e-05 4.1014e-06)
(4.08091e-05 -1.69192e-05 3.0274e-06)
(4.08134e-05 -1.6816e-05 4.0984e-06)
(4.67589e-05 -2.00731e-05 8.34111e-07)
(4.53359e-05 -1.92542e-05 1.98183e-06)
(4.53357e-05 -1.93571e-05 9.42329e-07)
(4.41909e-05 -1.8994e-05 -1.1088e-06)
(4.3057e-05 -1.83323e-05 -8.40983e-08)
(4.41878e-05 -1.8891e-05 -8.41369e-08)
(4.41858e-05 -1.86857e-05 1.9818e-06)
(4.30553e-05 -1.82302e-05 9.42656e-07)
(4.41855e-05 -1.87882e-05 9.43124e-07)
(4.45473e-05 -1.83464e-05 7.24048e-06)
(4.06145e-05 -1.64112e-05 7.23211e-06)
(4.45601e-05 -1.83848e-05 6.91249e-06)
(4.28692e-05 -1.77045e-05 5.35249e-06)
(4.45651e-05 -1.85404e-05 5.35605e-06)
(4.68274e-05 -1.97115e-05 4.81585e-06)
(4.54597e-05 -1.9152e-05 3.63523e-06)
(4.546e-05 -1.90489e-05 4.68158e-06)
(4.31758e-05 -1.79224e-05 4.67577e-06)
(4.4308e-05 -1.85834e-05 3.63272e-06)
(4.43069e-05 -1.84799e-05 4.67795e-06)
(3.86727e-05 -1.60192e-05 1.54456e-06)
(3.98013e-05 -1.64697e-05 2.5888e-06)
(3.97992e-05 -1.65703e-05 1.54766e-06)
(4.09183e-05 -1.73247e-05 -5.53636e-07)
(4.20473e-05 -1.77772e-05 5.02339e-07)
(4.0922e-05 -1.72235e-05 5.01404e-07)
(4.09271e-05 -1.70213e-05 2.59237e-06)
(4.20505e-05 -1.76757e-05 1.55198e-06)
(4.09252e-05 -1.71225e-05 1.55012e-06)
(4.06241e-05 -1.64484e-05 6.90261e-06)
(4.23074e-05 -1.7428e-05 5.35118e-06)
(4.0621e-05 -1.66001e-05 5.34532e-06)
(3.86756e-05 -1.57165e-05 4.6572e-06)
(3.98016e-05 -1.63687e-05 3.62071e-06)
(3.98012e-05 -1.6266e-05 4.66397e-06)
(4.20508e-05 -1.73689e-05 4.67304e-06)
(4.09271e-05 -1.69199e-05 3.6252e-06)
(4.09263e-05 -1.68169e-05 4.66918e-06)
(4.6819e-05 -2.00728e-05 1.13611e-06)
(4.54584e-05 -1.92538e-05 2.59896e-06)
(4.54571e-05 -1.93566e-05 1.55408e-06)
(4.4301e-05 -1.89936e-05 -5.53933e-07)
(4.3173e-05 -1.8332e-05 5.0293e-07)
(4.43042e-05 -1.88906e-05 5.0306e-07)
(4.4308e-05 -1.86855e-05 2.59809e-06)
(4.3176e-05 -1.823e-05 1.55325e-06)
(4.43065e-05 -1.87879e-05 1.55386e-06)
(2.82818e-05 -1.0518e-05 6.79535e-06)
(2.13031e-05 -7.38796e-06 6.40913e-06)
(4.61957e-05 -1.91755e-05 7.08753e-06)
(3.88867e-05 -1.55854e-05 7.01263e-06)
(1.3437e-05 -4.18625e-06 5.57846e-06)
(1.97543e-05 -6.72619e-06 6.28533e-06)
(1.33561e-05 -4.23506e-06 4.62516e-06)
(1.34154e-05 -4.21072e-06 5.23763e-06)
(1.33784e-05 -4.20439e-06 5.01837e-06)
(1.33997e-05 -4.25074e-06 4.81021e-06)
(1.96755e-05 -6.79301e-06 5.19119e-06)
(1.9736e-05 -6.75657e-06 5.89958e-06)
(2.02076e-05 -6.97465e-06 5.67353e-06)
(2.02394e-05 -7.02135e-06 5.45724e-06)
(1.96945e-05 -6.75618e-06 5.63637e-06)
(1.97256e-05 -6.80291e-06 5.42026e-06)
(2.01888e-05 -7.01184e-06 5.22518e-06)
(1.34695e-05 -4.20196e-06 5.71177e-06)
(1.9792e-05 -6.73672e-06 6.45126e-06)
(1.34837e-05 -4.29046e-06 5.17758e-06)
(1.34627e-05 -4.23291e-06 5.43546e-06)
(1.34449e-05 -4.27041e-06 5.00645e-06)
(1.3492e-05 -4.25666e-06 5.49793e-06)
(1.98259e-05 -6.83007e-06 5.87684e-06)
(1.97913e-05 -6.77143e-06 6.14547e-06)
(2.02932e-05 -7.03404e-06 5.70402e-06)
(2.03417e-05 -7.00841e-06 6.27748e-06)
(1.9779e-05 -6.81607e-06 5.66382e-06)
(1.98274e-05 -6.79117e-06 6.2324e-06)
(2.03406e-05 -7.0476e-06 5.91989e-06)
(2.82081e-05 -1.05989e-05 5.59321e-06)
(2.82675e-05 -1.05527e-05 6.3769e-06)
(2.87738e-05 -1.08136e-05 6.09399e-06)
(2.88133e-05 -1.08588e-05 5.87917e-06)
(2.82234e-05 -1.05577e-05 6.07639e-06)
(2.82625e-05 -1.06031e-05 5.8613e-06)
(2.87587e-05 -1.08549e-05 5.60931e-06)
(2.12251e-05 -7.45805e-06 5.2893e-06)
(2.12856e-05 -7.41938e-06 6.01542e-06)
(2.0724e-05 -7.196e-06 5.70929e-06)
(2.07563e-05 -7.24266e-06 5.49283e-06)
(2.12434e-05 -7.42017e-06 5.74369e-06)
(2.07054e-05 -7.23355e-06 5.25785e-06)
(2.12764e-05 -7.46677e-06 5.52715e-06)
(2.83228e-05 -1.05232e-05 6.99026e-06)
(2.13417e-05 -7.39739e-06 6.58156e-06)
(2.83741e-05 -1.06171e-05 6.39718e-06)
(2.83279e-05 -1.056e-05 6.6655e-06)
(2.88724e-05 -1.08649e-05 6.16666e-06)
(2.892e-05 -1.08299e-05 6.79816e-06)
(2.83215e-05 -1.06095e-05 6.14689e-06)
(2.83691e-05 -1.05749e-05 6.77587e-06)
(2.89253e-05 -1.08721e-05 6.41864e-06)
(2.13794e-05 -7.49123e-06 6.00153e-06)
(2.13422e-05 -7.43269e-06 6.27091e-06)
(2.08106e-05 -7.25488e-06 5.74276e-06)
(2.08591e-05 -7.22854e-06 6.32099e-06)
(2.08585e-05 -7.268e-06 5.96142e-06)
(2.13311e-05 -7.47854e-06 5.78015e-06)
(2.13796e-05 -7.45149e-06 6.36296e-06)
(2.99366e-05 -1.12892e-05 6.85345e-06)
(3.72008e-05 -1.4764e-05 6.99874e-06)
(2.9864e-05 -1.13719e-05 5.63874e-06)
(2.93256e-05 -1.10711e-05 6.11058e-06)
(2.93654e-05 -1.11162e-05 5.89601e-06)
(2.9923e-05 -1.13244e-05 6.43138e-06)
(2.93107e-05 -1.11126e-05 5.62447e-06)
(2.98787e-05 -1.13303e-05 6.12617e-06)
(2.99188e-05 -1.13752e-05 5.91189e-06)
(3.71324e-05 -1.48518e-05 5.75342e-06)
(3.71895e-05 -1.48006e-05 6.5685e-06)
(3.7707e-05 -1.50825e-05 6.25534e-06)
(3.77504e-05 -1.51257e-05 6.04534e-06)
(3.7145e-05 -1.4809e-05 6.25076e-06)
(3.71882e-05 -1.48523e-05 6.04045e-06)
(3.76946e-05 -1.51254e-05 5.75773e-06)
(2.99779e-05 -1.12936e-05 7.05212e-06)
(3.72427e-05 -1.47655e-05 7.20768e-06)
(3.00316e-05 -1.13871e-05 6.45804e-06)
(2.94247e-05 -1.1122e-05 6.18532e-06)
(2.94722e-05 -1.10865e-05 6.81921e-06)
(2.99838e-05 -1.13306e-05 6.72552e-06)
(2.94778e-05 -1.11288e-05 6.43891e-06)
(2.99783e-05 -1.13806e-05 6.20292e-06)
(3.00256e-05 -1.13447e-05 6.83906e-06)
(3.73043e-05 -1.4857e-05 6.61462e-06)
(3.72515e-05 -1.48027e-05 6.87778e-06)
(3.78115e-05 -1.51273e-05 6.35189e-06)
(3.7857e-05 -1.50868e-05 7.00636e-06)
(3.72492e-05 -1.48541e-05 6.34638e-06)
(3.72949e-05 -1.48139e-05 7.00026e-06)
(3.78666e-05 -1.51299e-05 6.62067e-06)
(4.61816e-05 -1.92943e-05 5.80822e-06)
(4.62373e-05 -1.92366e-05 6.67394e-06)
(4.67325e-05 -1.95073e-05 6.41026e-06)
(4.67779e-05 -1.95535e-05 6.16899e-06)
(4.61827e-05 -1.92437e-05 6.32702e-06)
(4.62519e-05 -1.92979e-05 6.12412e-06)
(4.67192e-05 -1.95569e-05 5.84071e-06)
(3.88191e-05 -1.56739e-05 5.76484e-06)
(3.88758e-05 -1.56222e-05 6.58192e-06)
(3.82691e-05 -1.53565e-05 6.25936e-06)
(3.83126e-05 -1.53996e-05 6.04966e-06)
(3.88313e-05 -1.5631e-05 6.26285e-06)
(3.82568e-05 -1.53994e-05 5.76153e-06)
(3.88749e-05 -1.56739e-05 6.05345e-06)
(4.62372e-05 -1.91777e-05 7.27528e-06)
(3.89287e-05 -1.55864e-05 7.22271e-06)
(4.63527e-05 -1.92939e-05 6.67374e-06)
(4.6298e-05 -1.92385e-05 6.96191e-06)
(4.68362e-05 -1.9554e-05 6.45707e-06)
(4.68676e-05 -1.95083e-05 7.08267e-06)
(4.63134e-05 -1.92982e-05 6.43118e-06)
(4.63298e-05 -1.92452e-05 7.05493e-06)
(4.68872e-05 -1.95557e-05 6.69748e-06)
(3.89914e-05 -1.56774e-05 6.63074e-06)
(3.89379e-05 -1.56236e-05 6.8929e-06)
(3.83738e-05 -1.5401e-05 6.35677e-06)
(3.84193e-05 -1.53603e-05 7.01174e-06)
(3.8429e-05 -1.54034e-05 6.62603e-06)
(3.89361e-05 -1.56752e-05 6.36106e-06)
(3.89815e-05 -1.56343e-05 7.01645e-06)
(4.63584e-05 -1.99717e-05 -1.41976e-07)
(4.6817e-05 -2.02282e-05 -4.31226e-07)
(4.62948e-05 -1.9969e-05 -4.31093e-07)
(4.68774e-05 -2.02298e-05 -1.46997e-07)
(2.5555e-05 -9.26914e-06 6.67401e-06)
(2.39422e-05 -8.54529e-06 6.58535e-06)
(4.33794e-05 -1.7791e-05 7.02719e-06)
(4.16957e-05 -1.69621e-05 7.02459e-06)
(1.57809e-05 -5.09617e-06 5.88437e-06)
(1.72415e-05 -5.68331e-06 6.04717e-06)
(1.57005e-05 -5.15266e-06 4.87125e-06)
(1.57606e-05 -5.1232e-06 5.52422e-06)
(1.62041e-05 -5.31261e-06 5.33577e-06)
(1.62303e-05 -5.35935e-06 5.12256e-06)
(1.57216e-05 -5.1193e-06 5.28681e-06)
(1.61833e-05 -5.34645e-06 4.91611e-06)
(1.5747e-05 -5.16601e-06 5.07423e-06)
(1.71616e-05 -5.74394e-06 5.00155e-06)
(1.72219e-05 -5.71169e-06 5.67666e-06)
(1.66909e-05 -5.50924e-06 5.38318e-06)
(1.67179e-05 -5.55602e-06 5.16935e-06)
(1.71819e-05 -5.70917e-06 5.42908e-06)
(1.66704e-05 -5.54356e-06 4.95951e-06)
(1.72096e-05 -5.75596e-06 5.21475e-06)
(1.58157e-05 -5.10982e-06 6.03096e-06)
(1.72775e-05 -5.69576e-06 6.20132e-06)
(1.58381e-05 -5.20075e-06 5.4779e-06)
(1.58114e-05 -5.14247e-06 5.74161e-06)
(1.62797e-05 -5.37592e-06 5.34178e-06)
(1.63277e-05 -5.35665e-06 5.87188e-06)
(1.57958e-05 -5.18309e-06 5.28974e-06)
(1.58437e-05 -5.16469e-06 5.81379e-06)
(1.63227e-05 -5.39311e-06 5.53322e-06)
(1.73044e-05 -5.78779e-06 5.6391e-06)
(1.72746e-05 -5.72927e-06 5.9052e-06)
(1.67679e-05 -5.57208e-06 5.39223e-06)
(1.6816e-05 -5.55196e-06 5.92829e-06)
(1.72603e-05 -5.77153e-06 5.44123e-06)
(1.73085e-05 -5.75056e-06 5.98306e-06)
(1.68115e-05 -5.58881e-06 5.58692e-06)
(2.54796e-05 -9.34649e-06 5.49805e-06)
(2.55395e-05 -9.30279e-06 6.26327e-06)
(2.49561e-05 -9.06226e-06 5.94797e-06)
(2.49927e-05 -9.10829e-06 5.73167e-06)
(2.54959e-05 -9.30638e-06 5.97221e-06)
(2.49395e-05 -9.10214e-06 5.4759e-06)
(2.5533e-05 -9.35231e-06 5.75608e-06)
(2.38658e-05 -8.62016e-06 5.42834e-06)
(2.3926e-05 -8.57819e-06 6.1803e-06)
(2.44184e-05 -8.82037e-06 5.92254e-06)
(2.44545e-05 -8.8665e-06 5.70613e-06)
(2.38829e-05 -8.58079e-06 5.8959e-06)
(2.44015e-05 -8.86e-06 5.45269e-06)
(2.39185e-05 -8.62702e-06 5.67937e-06)
(2.55953e-05 -9.27586e-06 6.86144e-06)
(2.3982e-05 -8.55298e-06 6.76759e-06)
(2.56419e-05 -9.37006e-06 6.27151e-06)
(2.55988e-05 -9.31227e-06 6.54086e-06)
(2.505e-05 -9.11706e-06 6.004e-06)
(2.50982e-05 -9.0856e-06 6.6148e-06)
(2.55907e-05 -9.36067e-06 6.03083e-06)
(2.56388e-05 -9.32864e-06 6.64502e-06)
(2.5101e-05 -9.12684e-06 6.24252e-06)