/*--------------------------------*- C++ -*----------------------------------*\
| =========                 |                                                 |
| \\      /  F ield         | OpenFOAM: The Open Source CFD Toolbox           |
|  \\    /   O peration     | Version:  2012                                  |
|   \\  /    A nd           | Website:  www.openfoam.com                      |
|    \\/     M anipulation  |                                                 |
\*---------------------------------------------------------------------------*/
FoamFile
{
    version     2.0;
    format      ascii;
    class       volVectorField;
    location    "0.107/solid";
    object      D_0_0_0;
}
// * * * * * * * * * * * * * * * * * * * * * * * * * * * * * * * * * * * * * //

dimensions      [0 1 0 0 0 0 0];


internalField   nonuniform List<vector> 
3125
(
(1.2941e-05 -1.19064e-05 2.9953e-06)
(9.32274e-06 -7.62719e-06 2.80575e-06)
(2.09765e-05 -2.2261e-05 3.17587e-06)
(1.72099e-05 -1.73438e-05 3.07582e-06)
(9.09067e-06 -7.36775e-06 2.78813e-06)
(8.87673e-06 -8.79325e-06 -6.06973e-07)
(5.81476e-06 -5.34726e-06 -5.12946e-07)
(9.06548e-06 -7.44472e-06 2.58352e-06)
(9.17993e-06 -7.37233e-06 2.98658e-06)
(9.0833e-06 -8.79148e-06 -6.36311e-08)
(5.98006e-06 -5.34462e-06 -7.79293e-08)
(9.19688e-06 -7.45115e-06 2.87794e-06)
(1.29156e-05 -1.19924e-05 2.77114e-06)
(9.34164e-06 -9.3446e-06 -6.179e-07)
(9.29752e-06 -7.70487e-06 2.59952e-06)
(1.27242e-05 -1.35257e-05 -6.75775e-07)
(1.30395e-05 -1.19086e-05 3.22991e-06)
(9.41275e-06 -7.63161e-06 3.00699e-06)
(1.30609e-05 -1.19955e-05 3.11876e-06)
(9.55338e-06 -9.34295e-06 -6.13274e-08)
(9.43004e-06 -7.71107e-06 2.89804e-06)
(1.29668e-05 -1.35247e-05 -4.67279e-08)
(1.3189e-05 -1.22131e-05 3.00345e-06)
(1.69571e-05 -1.70145e-05 3.07394e-06)
(1.31636e-05 -1.22996e-05 2.7785e-06)
(1.67416e-05 -1.87483e-05 -7.04662e-07)
(1.32208e-05 -1.41598e-05 -6.81412e-07)
(1.6932e-05 -1.71052e-05 2.8423e-06)
(1.32879e-05 -1.22152e-05 3.23969e-06)
(1.70601e-05 -1.70151e-05 3.32599e-06)
(1.33096e-05 -1.23025e-05 3.12851e-06)
(1.70068e-05 -1.8748e-05 -3.75988e-08)
(1.3467e-05 -1.41589e-05 -4.50679e-08)
(1.70842e-05 -1.7106e-05 3.21553e-06)
(2.10065e-05 -2.24136e-05 2.96712e-06)
(1.72475e-05 -1.94168e-05 -7.06037e-07)
(1.71847e-05 -1.74347e-05 2.84403e-06)
(2.10733e-05 -2.22709e-05 3.39549e-06)
(1.7313e-05 -1.73444e-05 3.32842e-06)
(2.11433e-05 -2.24218e-05 3.28801e-06)
(1.75146e-05 -1.94165e-05 -3.71121e-08)
(1.73373e-05 -1.74354e-05 3.21806e-06)
(1.12249e-05 -9.82691e-06 2.92339e-06)
(1.09832e-05 -9.54072e-06 2.91086e-06)
(1.92311e-05 -1.99983e-05 3.08295e-06)
(1.89787e-05 -1.96651e-05 3.08264e-06)
(7.2913e-06 -5.43351e-06 2.62186e-06)
(7.5101e-06 -5.66086e-06 2.64518e-06)
(5.813e-06 -4.70175e-06 9.4143e-07)
(7.26655e-06 -5.50399e-06 2.43211e-06)
(7.07721e-06 -6.0174e-06 9.93614e-07)
(7.51934e-06 -7.22333e-06 -5.70323e-07)
(8.86471e-06 -8.20377e-06 6.17624e-07)
(7.50829e-06 -6.67832e-06 5.9906e-07)
(5.80545e-06 -4.8689e-06 5.6455e-07)
(7.08092e-06 -6.73003e-06 -5.5686e-07)
(7.07026e-06 -6.20091e-06 5.91563e-07)
(7.48528e-06 -5.73222e-06 2.45339e-06)
(8.87099e-06 -8.0012e-06 1.04683e-06)
(7.51506e-06 -6.48976e-06 1.00857e-06)
(7.37373e-06 -5.43948e-06 2.79589e-06)
(7.59347e-06 -5.66665e-06 2.82245e-06)
(6.00764e-06 -4.71121e-06 1.38886e-06)
(7.38772e-06 -5.51238e-06 2.6906e-06)
(7.29093e-06 -6.02537e-06 1.49661e-06)
(7.70929e-06 -7.2212e-06 -7.0372e-08)
(9.10371e-06 -8.20796e-06 1.20744e-06)
(7.73011e-06 -6.68348e-06 1.13895e-06)
(6.00114e-06 -4.87542e-06 1.03005e-06)
(7.26497e-06 -6.72778e-06 -7.24717e-08)
(7.28588e-06 -6.2064e-06 1.11359e-06)
(7.60785e-06 -5.74036e-06 2.71664e-06)
(9.10687e-06 -8.0073e-06 1.61654e-06)
(7.73468e-06 -6.49724e-06 1.52913e-06)
(1.11995e-05 -9.90959e-06 2.70615e-06)
(1.27161e-05 -1.26101e-05 1.10939e-06)
(1.12438e-05 -1.07975e-05 1.09166e-06)
(9.32935e-06 -8.74137e-06 6.22646e-07)
(1.07672e-05 -1.10735e-05 -6.46704e-07)
(1.07543e-05 -1.04323e-05 6.34799e-07)
(1.09578e-05 -9.62284e-06 2.69481e-06)
(9.33548e-06 -8.53452e-06 1.05755e-06)
(1.07601e-05 -1.02137e-05 1.08435e-06)
(1.27108e-05 -1.28415e-05 6.45605e-07)
(1.12513e-05 -1.16723e-05 -6.54966e-07)
(1.12382e-05 -1.10195e-05 6.38006e-07)
(1.13201e-05 -9.83009e-06 3.14448e-06)
(1.10778e-05 -9.54405e-06 3.12972e-06)
(1.13398e-05 -9.91403e-06 3.03388e-06)
(1.29852e-05 -1.26131e-05 1.77788e-06)
(1.15022e-05 -1.08015e-05 1.72913e-06)
(9.57362e-06 -8.74525e-06 1.22775e-06)
(1.09934e-05 -1.10722e-05 -5.45845e-08)
(1.1013e-05 -1.04353e-05 1.28117e-06)
(1.10972e-05 -9.6275e-06 3.01926e-06)
(9.57633e-06 -8.54017e-06 1.64233e-06)
(1.10144e-05 -1.02181e-05 1.70983e-06)
(1.29855e-05 -1.28435e-05 1.33544e-06)
(1.14818e-05 -1.16711e-05 -5.24643e-08)
(1.15012e-05 -1.10223e-05 1.29652e-06)
(1.49392e-05 -1.44142e-05 3.04741e-06)
(1.51907e-05 -1.47351e-05 3.05198e-06)
(1.32126e-05 -1.32322e-05 1.11406e-06)
(1.49139e-05 -1.4503e-05 2.81822e-06)
(1.4714e-05 -1.51409e-05 1.12492e-06)
(1.52262e-05 -1.67571e-05 -6.97905e-07)
(1.67278e-05 -1.80058e-05 6.56074e-07)
(1.52125e-05 -1.60321e-05 6.53337e-07)
(1.32073e-05 -1.34663e-05 6.47569e-07)
(1.47226e-05 -1.61002e-05 -6.94645e-07)
(1.4709e-05 -1.53822e-05 6.52161e-07)
(1.51654e-05 -1.48242e-05 2.82235e-06)
(1.67326e-05 -1.77575e-05 1.13359e-06)
(1.52175e-05 -1.57888e-05 1.12764e-06)
(1.50404e-05 -1.44155e-05 3.29296e-06)
(1.52922e-05 -1.47363e-05 3.29857e-06)
(1.34848e-05 -1.32348e-05 1.79121e-06)
(1.50634e-05 -1.45048e-05 3.1819e-06)
(1.49945e-05 -1.51426e-05 1.82315e-06)
(1.54846e-05 -1.67565e-05 -3.98974e-08)
(1.70237e-05 -1.80063e-05 1.39317e-06)
(1.55021e-05 -1.6033e-05 1.37848e-06)
(1.34854e-05 -1.34681e-05 1.34613e-06)
(1.49783e-05 -1.60995e-05 -4.0962e-08)
(1.49961e-05 -1.53833e-05 1.37186e-06)
(1.53154e-05 -1.48259e-05 3.18756e-06)
(1.7021e-05 -1.77583e-05 1.84937e-06)
(1.55002e-05 -1.57902e-05 1.83132e-06)
(1.92062e-05 -2.00903e-05 2.85082e-06)
(2.09872e-05 -2.3346e-05 1.20327e-06)
(1.92613e-05 -2.10881e-05 1.13834e-06)
(1.72336e-05 -1.86696e-05 6.56768e-07)
(1.87647e-05 -2.14291e-05 -7.08132e-07)
(1.87508e-05 -2.06712e-05 6.58375e-07)
(1.89537e-05 -1.97569e-05 2.85048e-06)
(1.72384e-05 -1.842e-05 1.13496e-06)
(1.87555e-05 -2.04186e-05 1.1377e-06)
(2.09861e-05 -2.3474e-05 9.66024e-07)
(1.92706e-05 -2.2102e-05 -7.0829e-07)
(1.92566e-05 -2.13414e-05 6.58835e-07)
(1.93351e-05 -1.99985e-05 3.33823e-06)
(1.90826e-05 -1.96653e-05 3.33772e-06)
(1.93601e-05 -2.00905e-05 3.22876e-06)
(2.1136e-05 -2.33459e-05 1.56864e-06)
(1.95554e-05 -2.10882e-05 1.86265e-06)
(1.75313e-05 -1.86699e-05 1.39655e-06)
(1.90361e-05 -2.14289e-05 -3.63698e-08)
(1.90523e-05 -2.06713e-05 1.40298e-06)
(1.91075e-05 -1.97571e-05 3.22815e-06)
(1.75283e-05 -1.84205e-05 1.8535e-06)
(1.90488e-05 -2.04188e-05 1.86132e-06)
(2.11361e-05 -2.34738e-05 1.33421e-06)
(1.9543e-05 -2.21018e-05 -3.63732e-08)
(1.95589e-05 -2.13414e-05 1.40403e-06)
(1.22008e-05 -1.09999e-05 2.96775e-06)
(1.00271e-05 -8.4271e-06 2.85463e-06)
(2.02472e-05 -2.134e-05 3.08941e-06)
(1.79682e-05 -1.83357e-05 3.07997e-06)
(6.43609e-06 -4.56795e-06 2.52095e-06)
(8.40338e-06 -6.61221e-06 2.73114e-06)
(6.41166e-06 -4.63466e-06 2.33992e-06)
(6.39424e-06 -4.91226e-06 1.76139e-06)
(8.41773e-06 -8.2555e-06 -5.95393e-07)
(8.86901e-06 -8.5993e-06 -2.05005e-07)
(8.41005e-06 -8.06647e-06 -1.99032e-07)
(5.80754e-06 -5.1912e-06 -1.59096e-07)
(6.22812e-06 -5.79157e-06 -5.28153e-07)
(6.2208e-06 -5.62961e-06 -1.66114e-07)
(8.37833e-06 -6.6869e-06 2.5317e-06)
(9.05381e-06 -7.76282e-06 1.94465e-06)
(8.36521e-06 -6.99598e-06 1.9055e-06)
(6.5145e-06 -4.57466e-06 2.68157e-06)
(8.49027e-06 -6.6173e-06 2.92085e-06)
(6.52683e-06 -4.64409e-06 2.57868e-06)
(6.50438e-06 -4.91921e-06 2.00412e-06)
(8.61894e-06 -8.25362e-06 -6.59236e-08)
(9.09043e-06 -8.59946e-06 3.6522e-07)
(8.62594e-06 -8.06666e-06 3.56323e-07)
(5.98606e-06 -5.19154e-06 2.95212e-07)
(6.39984e-06 -5.78906e-06 -7.62799e-08)
(6.40604e-06 -5.62992e-06 3.06211e-07)
(8.50616e-06 -6.69405e-06 2.81326e-06)
(9.18109e-06 -7.76754e-06 2.24183e-06)
(8.48871e-06 -7.00123e-06 2.19015e-06)
(1.21754e-05 -1.10846e-05 2.74626e-06)
(1.29099e-05 -1.23464e-05 2.08632e-06)
(1.21687e-05 -1.14332e-05 2.0673e-06)
(9.33388e-06 -9.14591e-06 -2.10721e-07)
(9.81199e-06 -9.90889e-06 -6.28169e-07)
(9.8042e-06 -9.70563e-06 -2.16162e-07)
(1.00018e-05 -8.50681e-06 2.64387e-06)
(9.28617e-06 -8.02576e-06 1.95654e-06)
(9.99182e-06 -8.83574e-06 1.99007e-06)
(1.27164e-05 -1.32988e-05 -2.42175e-07)
(1.22302e-05 -1.28992e-05 -6.69495e-07)
(1.22223e-05 -1.26758e-05 -2.38682e-07)
(1.2298e-05 -1.10025e-05 3.19703e-06)
(1.01192e-05 -8.43104e-06 3.06383e-06)
(1.23188e-05 -1.10882e-05 3.08603e-06)
(1.30529e-05 -1.23487e-05 2.43535e-06)
(1.23093e-05 -1.14359e-05 2.40871e-06)
(9.56063e-06 -9.14605e-06 3.73698e-07)
(1.00287e-05 -9.90735e-06 -5.90365e-08)
(1.00361e-05 -9.70576e-06 3.81743e-07)
(1.01375e-05 -8.51233e-06 2.95411e-06)
(9.41473e-06 -8.0303e-06 2.25776e-06)
(1.01238e-05 -8.83979e-06 2.30271e-06)
(1.29746e-05 -1.32988e-05 4.20364e-07)
(1.24689e-05 -1.28982e-05 -4.85216e-08)
(1.24767e-05 -1.26758e-05 4.15102e-07)
(1.39364e-05 -1.31457e-05 3.02499e-06)
(1.61992e-05 -1.60314e-05 3.06652e-06)
(1.31581e-05 -1.26551e-05 2.09187e-06)
(1.39111e-05 -1.32333e-05 2.79796e-06)
(1.39066e-05 -1.35933e-05 2.10688e-06)
(1.62359e-05 -1.80818e-05 -7.02877e-07)
(1.67339e-05 -1.85007e-05 -2.58073e-07)
(1.62282e-05 -1.78361e-05 -2.57154e-07)
(1.3213e-05 -1.39296e-05 -2.45321e-07)
(1.37196e-05 -1.48008e-05 -6.86423e-07)
(1.37119e-05 -1.45675e-05 -2.48118e-07)
(1.6174e-05 -1.61215e-05 2.83554e-06)
(1.69302e-05 -1.74777e-05 2.1421e-06)
(1.61716e-05 -1.64916e-05 2.13641e-06)
(1.40364e-05 -1.31474e-05 3.26567e-06)
(1.63016e-05 -1.60323e-05 3.31661e-06)
(1.33019e-05 -1.26572e-05 2.44322e-06)
(1.40587e-05 -1.32357e-05 3.15448e-06)
(1.40523e-05 -1.35951e-05 2.46453e-06)
(1.64991e-05 -1.80814e-05 -3.82207e-08)
(1.70149e-05 -1.85006e-05 4.46503e-07)
(1.65072e-05 -1.7836e-05 4.44644e-07)
(1.34748e-05 -1.39296e-05 4.25158e-07)
(1.39692e-05 -1.48e-05 -4.35492e-08)
(1.39771e-05 -1.45675e-05 4.29489e-07)
(1.63254e-05 -1.61227e-05 3.20588e-06)
(1.70816e-05 -1.74783e-05 2.51582e-06)
(1.63219e-05 -1.64924e-05 2.50737e-06)
(2.02244e-05 -2.1435e-05 2.85751e-06)
(2.0989e-05 -2.28294e-05 2.15728e-06)
(2.02269e-05 -2.18201e-05 2.15241e-06)
(1.72398e-05 -1.91675e-05 -2.5875e-07)
(1.77534e-05 -2.00867e-05 -7.07044e-07)
(1.77457e-05 -1.98359e-05 -2.59209e-07)
(1.79431e-05 -1.8427e-05 2.84788e-06)
(1.7183e-05 -1.78078e-05 2.14357e-06)
(1.79419e-05 -1.8802e-05 2.14712e-06)
(2.09862e-05 -2.39859e-05 2.97567e-08)
(2.02888e-05 -2.32142e-05 -2.61107e-07)
(2.03506e-05 -2.13406e-05 3.34225e-06)
(1.80717e-05 -1.83361e-05 3.3339e-06)
(2.03778e-05 -2.14357e-05 3.23307e-06)
(2.11427e-05 -2.28287e-05 2.53558e-06)
(2.03812e-05 -2.18199e-05 2.53141e-06)
(1.75227e-05 -1.91674e-05 4.48027e-07)
(1.80221e-05 -2.00864e-05 -3.67488e-08)
(1.80302e-05 -1.98358e-05 4.4924e-07)
(1.80963e-05 -1.84275e-05 3.22386e-06)
(1.73348e-05 -1.78083e-05 2.51805e-06)
(1.80946e-05 -1.88024e-05 2.52343e-06)
(2.11334e-05 -2.39858e-05 3.91118e-07)
(2.05791e-05 -2.3214e-05 4.52012e-07)
(1.19556e-05 -1.07026e-05 2.95751e-06)
(1.02644e-05 -8.70065e-06 2.86962e-06)
(1.99906e-05 -2.10021e-05 3.08538e-06)
(1.82209e-05 -1.86674e-05 3.0809e-06)
(6.64677e-06 -4.77765e-06 2.54733e-06)
(8.17747e-06 -6.36822e-06 2.71074e-06)
(5.82487e-06 -4.52828e-06 1.32919e-06)
(6.22567e-06 -5.12298e-06 9.60094e-07)
(6.23725e-06 -4.94385e-06 1.35697e-06)
(6.62225e-06 -4.84534e-06 2.36404e-06)
(7.25115e-06 -5.79645e-06 1.83076e-06)
(6.60524e-06 -5.12676e-06 1.77933e-06)
(6.64725e-06 -5.56166e-06 9.77472e-07)
(7.08824e-06 -5.8276e-06 1.40727e-06)
(6.65855e-06 -5.37709e-06 1.38298e-06)
(7.96511e-06 -7.732e-06 -5.83173e-07)
(7.51178e-06 -7.04463e-06 -1.86402e-07)
(7.95748e-06 -7.54805e-06 -1.92823e-07)
(8.86444e-06 -8.40317e-06 2.01023e-07)
(8.406e-06 -7.68031e-06 6.12046e-07)
(8.4056e-06 -7.8751e-06 2.01321e-07)
(7.50759e-06 -6.86331e-06 2.01361e-07)
(7.9537e-06 -7.17164e-06 6.05872e-07)
(7.95315e-06 -7.36162e-06 2.01445e-07)
(5.80401e-06 -5.03208e-06 1.98255e-07)
(6.21833e-06 -5.29577e-06 5.74352e-07)
(6.21709e-06 -5.46468e-06 1.99517e-07)
(6.65034e-06 -6.25263e-06 -5.42797e-07)
(7.07343e-06 -6.55675e-06 -1.79793e-07)
(6.64293e-06 -6.08493e-06 -1.73021e-07)
(6.6401e-06 -5.73991e-06 5.83342e-07)
(7.06938e-06 -6.38072e-06 2.01035e-07)
(6.63905e-06 -5.91436e-06 2.00432e-07)
(8.15247e-06 -6.44211e-06 2.51313e-06)
(7.47026e-06 -6.02816e-06 1.84658e-06)
(8.13899e-06 -6.74807e-06 1.8917e-06)
(8.88102e-06 -7.79255e-06 1.48844e-06)
(8.41243e-06 -7.48222e-06 1.03513e-06)
(8.42271e-06 -7.27797e-06 1.47043e-06)
(7.52583e-06 -6.29492e-06 1.42991e-06)
(7.9603e-06 -6.97821e-06 1.02239e-06)
(7.97082e-06 -6.77856e-06 1.45094e-06)
(6.72622e-06 -4.78417e-06 2.71137e-06)
(8.26351e-06 -6.37348e-06 2.89742e-06)
(6.01474e-06 -4.53976e-06 1.75188e-06)
(6.4269e-06 -5.13193e-06 1.42648e-06)
(6.43334e-06 -4.95472e-06 1.79794e-06)
(6.73898e-06 -4.85451e-06 2.60782e-06)
(7.36754e-06 -5.80263e-06 2.09281e-06)
(6.71707e-06 -5.13351e-06 2.02701e-06)
(6.85484e-06 -5.57012e-06 1.46239e-06)
(7.29605e-06 -5.83727e-06 1.88358e-06)
(6.86061e-06 -5.38735e-06 1.84184e-06)
(8.16078e-06 -7.72999e-06 -6.8179e-08)
(7.716e-06 -7.04486e-06 3.37344e-07)
(8.16764e-06 -7.54826e-06 3.47025e-07)
(9.09791e-06 -8.40532e-06 7.89694e-07)
(8.63951e-06 -7.68482e-06 1.18588e-06)
(8.63346e-06 -7.87742e-06 7.74337e-07)
(7.72358e-06 -6.86597e-06 7.41125e-07)
(8.18148e-06 -7.17647e-06 1.16304e-06)
(8.17519e-06 -7.36411e-06 7.58144e-07)
(5.99368e-06 -5.03547e-06 6.65062e-07)
(6.42089e-06 -5.30194e-06 1.05914e-06)
(6.41366e-06 -5.46788e-06 6.85244e-07)
(6.82831e-06 -6.25025e-06 -7.44507e-08)
(7.27152e-06 -6.55701e-06 3.273e-07)
(6.8347e-06 -6.08521e-06 3.16915e-07)
(6.84931e-06 -5.74574e-06 1.08699e-06)
(7.27912e-06 -6.38356e-06 7.23293e-07)
(6.84231e-06 -5.91738e-06 7.04661e-07)
(8.27904e-06 -6.4495e-06 2.79024e-06)
(7.5882e-06 -6.03414e-06 2.11332e-06)
(8.26109e-06 -6.75351e-06 2.17197e-06)
(9.10947e-06 -7.79996e-06 2.02918e-06)
(8.64313e-06 -7.48877e-06 1.58909e-06)
(8.64635e-06 -7.28593e-06 1.99596e-06)
(7.73915e-06 -6.30401e-06 1.92317e-06)
(8.18558e-06 -6.98522e-06 1.55996e-06)
(8.18941e-06 -6.78708e-06 1.96063e-06)
(1.19302e-05 -1.07868e-05 2.737e-06)
(1.11914e-05 -1.02502e-05 2.03692e-06)
(1.19232e-05 -1.11336e-05 2.06037e-06)
(1.27246e-05 -1.23736e-05 1.5865e-06)
(1.22223e-05 -1.19965e-05 1.10414e-06)
(1.22309e-05 -1.17628e-05 1.57815e-06)
(1.12528e-05 -1.05699e-05 1.55839e-06)
(1.17314e-05 -1.1392e-05 1.09824e-06)
(1.17402e-05 -1.11613e-05 1.5688e-06)
(9.3292e-06 -8.9452e-06 2.00582e-07)
(9.79946e-06 -9.29245e-06 6.27156e-07)
(9.79943e-06 -9.50052e-06 2.00028e-07)
(1.02873e-05 -1.04854e-05 -6.3777e-07)
(1.07594e-05 -1.08616e-05 -2.26145e-07)
(1.02795e-05 -1.02778e-05 -2.21308e-07)
(1.02746e-05 -9.85631e-06 6.31194e-07)
(1.07545e-05 -1.06482e-05 1.987e-07)
(1.02747e-05 -1.00684e-05 1.99392e-07)
(1.02391e-05 -8.78099e-06 2.65746e-06)
(1.09494e-05 -9.96133e-06 2.02847e-06)
(1.02294e-05 -9.11237e-06 2.00018e-06)
(9.34529e-06 -8.32168e-06 1.50503e-06)
(9.80546e-06 -9.08151e-06 1.06735e-06)
(9.81505e-06 -8.8647e-06 1.52025e-06)
(1.07693e-05 -9.98957e-06 1.54688e-06)
(1.02805e-05 -9.64149e-06 1.07626e-06)
(1.02899e-05 -9.4209e-06 1.53418e-06)
(1.27112e-05 -1.30711e-05 1.95854e-07)
(1.22168e-05 -1.22249e-05 6.43377e-07)
(1.22172e-05 -1.24514e-05 1.96534e-07)
(1.17391e-05 -1.22811e-05 -6.62562e-07)
(1.12435e-05 -1.14564e-05 -2.3066e-07)
(1.17312e-05 -1.20614e-05 -2.34842e-07)
(1.17258e-05 -1.16173e-05 6.40855e-07)
(1.12385e-05 -1.12392e-05 1.97978e-07)
(1.17262e-05 -1.18405e-05 1.97249e-07)
(1.20523e-05 -1.07053e-05 3.18485e-06)
(1.03572e-05 -8.70443e-06 3.08134e-06)
(1.20728e-05 -1.07907e-05 3.07393e-06)
(1.13285e-05 -1.02534e-05 2.36663e-06)
(1.2063e-05 -1.11364e-05 2.39901e-06)
(1.29835e-05 -1.23772e-05 2.22291e-06)
(1.2488e-05 -1.19997e-05 1.76312e-06)
(1.24867e-05 -1.17668e-05 2.20533e-06)
(1.15019e-05 -1.05748e-05 2.16471e-06)
(1.19936e-05 -1.13956e-05 1.74688e-06)
(1.19928e-05 -1.11657e-05 2.18595e-06)
(9.56806e-06 -8.94719e-06 8.04207e-07)
(1.00488e-05 -9.29604e-06 1.2468e-06)
(1.00434e-05 -9.50235e-06 8.17872e-07)
(1.05089e-05 -1.0484e-05 -5.67817e-08)
(1.10009e-05 -1.08617e-05 3.96483e-07)
(1.05163e-05 -1.02779e-05 3.89342e-07)
(1.05287e-05 -9.85961e-06 1.26461e-06)
(1.10082e-05 -1.06498e-05 8.42646e-07)
(1.05236e-05 -1.00701e-05 8.30684e-07)
(1.03758e-05 -8.78628e-06 2.97141e-06)
(1.10855e-05 -9.96474e-06 2.35496e-06)
(1.03625e-05 -9.11624e-06 2.31645e-06)
(9.57833e-06 -8.32856e-06 2.06033e-06)
(1.0051e-05 -9.08674e-06 1.66646e-06)
(1.00524e-05 -8.87105e-06 2.08942e-06)
(1.10147e-05 -9.99493e-06 2.14158e-06)
(1.05305e-05 -9.6463e-06 1.68895e-06)
(1.05314e-05 -9.42675e-06 2.11649e-06)
(1.29816e-05 -1.30721e-05 8.82101e-07)
(1.24879e-05 -1.22272e-05 1.32362e-06)
(1.24837e-05 -1.24525e-05 8.73475e-07)
(1.19738e-05 -1.228e-05 -5.0438e-08)
(1.14895e-05 -1.14565e-05 4.0316e-07)
(1.19815e-05 -1.20614e-05 4.09368e-07)
(1.1993e-05 -1.16198e-05 1.31066e-06)
(1.14966e-05 -1.12406e-05 8.5376e-07)
(1.19886e-05 -1.18417e-05 8.64033e-07)
(1.41865e-05 -1.34603e-05 3.03125e-06)
(1.59468e-05 -1.57056e-05 3.06342e-06)
(1.32209e-05 -1.29931e-05 1.59392e-06)
(1.37113e-05 -1.38618e-05 1.11817e-06)
(1.37195e-05 -1.36203e-05 1.60046e-06)
(1.41612e-05 -1.35482e-05 2.80361e-06)
(1.49105e-05 -1.48681e-05 2.12262e-06)
(1.41569e-05 -1.39096e-05 2.11118e-06)
(1.42119e-05 -1.44983e-05 1.12178e-06)
(1.4722e-05 -1.48951e-05 1.61114e-06)
(1.42199e-05 -1.42546e-05 1.60618e-06)
(1.57307e-05 -1.74179e-05 -7.00638e-07)
(1.52185e-05 -1.65157e-05 -2.54483e-07)
(1.5723e-05 -1.71742e-05 -2.55964e-07)
(1.67286e-05 -1.82536e-05 1.92985e-07)
(1.62221e-05 -1.73446e-05 6.55278e-07)
(1.62229e-05 -1.75907e-05 1.93047e-07)
(1.52132e-05 -1.62744e-05 1.93426e-07)
(1.57169e-05 -1.66864e-05 6.54371e-07)
(1.57177e-05 -1.69308e-05 1.93193e-07)
(1.32078e-05 -1.36988e-05 1.95222e-07)
(1.37061e-05 -1.40985e-05 6.49299e-07)
(1.37066e-05 -1.43338e-05 1.94654e-07)
(1.42204e-05 -1.54478e-05 -6.90827e-07)
(1.47149e-05 -1.58613e-05 -2.5269e-07)
(1.42126e-05 -1.52117e-05 -2.50572e-07)
(1.42067e-05 -1.47374e-05 6.50822e-07)
(1.47096e-05 -1.56224e-05 1.9375e-07)
(1.42074e-05 -1.49752e-05 1.94161e-07)
(1.59216e-05 -1.57955e-05 2.83272e-06)
(1.51621e-05 -1.51904e-05 2.12583e-06)
(1.5919e-05 -1.61648e-05 2.13415e-06)
(1.67402e-05 -1.75052e-05 1.6245e-06)
(1.6227e-05 -1.70978e-05 1.13194e-06)
(1.62347e-05 -1.68469e-05 1.62202e-06)
(1.52253e-05 -1.55411e-05 1.6154e-06)
(1.57219e-05 -1.64413e-05 1.12996e-06)
(1.57296e-05 -1.61919e-05 1.61901e-06)
(1.42868e-05 -1.34619e-05 3.27325e-06)
(1.6049e-05 -1.57066e-05 3.31272e-06)
(1.34826e-05 -1.29963e-05 2.23875e-06)
(1.39865e-05 -1.38641e-05 1.80316e-06)
(1.39838e-05 -1.36231e-05 2.25293e-06)
(1.43094e-05 -1.35505e-05 3.16208e-06)
(1.50585e-05 -1.48694e-05 2.48719e-06)
(1.43032e-05 -1.39112e-05 2.47072e-06)
(1.44898e-05 -1.45003e-05 1.81379e-06)
(1.49909e-05 -1.48972e-05 2.27654e-06)
(1.44866e-05 -1.4257e-05 2.2655e-06)
(1.59916e-05 -1.74174e-05 -3.89843e-08)
(1.54926e-05 -1.65157e-05 4.39817e-07)
(1.59996e-05 -1.71741e-05 4.42423e-07)
(1.70213e-05 -1.82538e-05 9.2458e-07)
(1.65162e-05 -1.73452e-05 1.38907e-06)
(1.65136e-05 -1.7591e-05 9.21551e-07)
(1.54992e-05 -1.62749e-05 9.13722e-07)
(1.60089e-05 -1.66872e-05 1.38419e-06)
(1.60062e-05 -1.69311e-05 9.17945e-07)
(1.34817e-05 -1.36997e-05 8.89927e-07)
(1.39874e-05 -1.41001e-05 1.35573e-06)
(1.39839e-05 -1.43345e-05 8.96976e-07)
(1.44731e-05 -1.54471e-05 -4.218e-08)
(1.49863e-05 -1.58613e-05 4.36805e-07)
(1.4481e-05 -1.52116e-05 4.33367e-07)
(1.44911e-05 -1.47388e-05 1.3643e-06)
(1.4993e-05 -1.56229e-05 9.08843e-07)
(1.44878e-05 -1.49759e-05 9.03272e-07)
(1.60727e-05 -1.57968e-05 3.20191e-06)
(1.53107e-05 -1.51916e-05 2.49187e-06)
(1.6069e-05 -1.61657e-05 2.50402e-06)
(1.70161e-05 -1.75062e-05 2.30717e-06)
(1.65137e-05 -1.70987e-05 1.84436e-06)
(1.65091e-05 -1.6848e-05 2.30136e-06)
(1.54963e-05 -1.55429e-05 2.28614e-06)
(1.60067e-05 -1.64425e-05 1.83837e-06)
(1.60024e-05 -1.61934e-05 2.29438e-06)
(1.99667e-05 -2.10956e-05 2.85342e-06)
(1.92058e-05 -2.04678e-05 2.15038e-06)
(1.99686e-05 -2.14777e-05 2.15172e-06)
(2.09903e-05 -2.29604e-05 1.91916e-06)
(2.02873e-05 -2.24499e-05 1.13874e-06)
(2.02951e-05 -2.21929e-05 1.6311e-06)
(1.92685e-05 -2.08312e-05 1.63099e-06)
(1.97698e-05 -2.17623e-05 1.1389e-06)
(1.97771e-05 -2.15051e-05 1.63164e-06)
(1.72344e-05 -1.89188e-05 1.92997e-07)
(1.77395e-05 -1.93353e-05 6.57375e-07)
(1.77403e-05 -1.95858e-05 1.93077e-07)
(1.82591e-05 -2.07575e-05 -7.07729e-07)
(1.87571e-05 -2.1176e-05 -2.59585e-07)
(1.82515e-05 -2.05055e-05 -2.5948e-07)
(1.82452e-05 -2.00027e-05 6.57902e-07)
(1.87517e-05 -2.09237e-05 1.93401e-07)
(1.82461e-05 -2.02542e-05 1.93212e-07)
(1.81959e-05 -1.87589e-05 2.84876e-06)
(1.89531e-05 -2.01339e-05 2.14994e-06)
(1.81947e-05 -1.91343e-05 2.14798e-06)
(1.72459e-05 -1.81665e-05 1.62651e-06)
(1.77443e-05 -1.90846e-05 1.13607e-06)
(1.77517e-05 -1.883e-05 1.62809e-06)
(1.87627e-05 -2.01623e-05 1.63023e-06)
(1.825e-05 -1.97509e-05 1.13697e-06)
(1.82573e-05 -1.94954e-05 1.6293e-06)
(2.09856e-05 -2.38579e-05 2.62138e-07)
(2.02819e-05 -2.27036e-05 6.58899e-07)
(2.02828e-05 -2.29585e-05 1.93101e-07)
(1.97792e-05 -2.27795e-05 -7.0847e-07)
(1.9263e-05 -2.18479e-05 -2.59542e-07)
(1.97714e-05 -2.25243e-05 -2.59581e-07)
(1.97648e-05 -2.20159e-05 6.59212e-07)
(1.92575e-05 -2.15947e-05 1.93656e-07)
(1.97657e-05 -2.227e-05 1.93831e-07)
(2.00945e-05 -2.10024e-05 3.34007e-06)
(1.83246e-05 -1.86677e-05 3.33518e-06)
(2.01206e-05 -2.10959e-05 3.23081e-06)
(1.93594e-05 -2.04679e-05 2.52847e-06)
(2.01226e-05 -2.14776e-05 2.53032e-06)
(2.11381e-05 -2.29599e-05 2.2828e-06)
(2.05831e-05 -2.24497e-05 1.86536e-06)
(2.0578e-05 -2.21927e-05 2.32622e-06)
(1.95494e-05 -2.08313e-05 2.32232e-06)
(2.00644e-05 -2.17622e-05 1.86359e-06)
(2.00585e-05 -2.1505e-05 2.32352e-06)
(1.7529e-05 -1.89189e-05 9.2708e-07)
(1.80386e-05 -1.93356e-05 1.39927e-06)
(1.80365e-05 -1.95859e-05 9.2909e-07)
(1.85293e-05 -2.07573e-05 -3.6502e-08)
(1.90442e-05 -2.11759e-05 4.50825e-07)
(1.85374e-05 -2.05054e-05 4.50171e-07)
(1.85457e-05 -2.00028e-05 1.4014e-06)
(1.90504e-05 -2.09237e-05 9.31802e-07)
(1.85436e-05 -2.02542e-05 9.30656e-07)
(1.83492e-05 -1.87593e-05 3.22526e-06)
(1.91066e-05 -2.0134e-05 2.52779e-06)
(1.83476e-05 -1.91346e-05 2.52476e-06)
(1.75232e-05 -1.81672e-05 2.31192e-06)
(1.80355e-05 -1.9085e-05 1.85681e-06)
(1.80301e-05 -1.88305e-05 2.31571e-06)
(1.9043e-05 -2.01625e-05 2.32081e-06)
(1.85424e-05 -1.97512e-05 1.8594e-06)
(1.85367e-05 -1.94958e-05 2.31864e-06)
(2.11344e-05 -2.38578e-05 6.27604e-07)
(2.05858e-05 -2.27033e-05 1.40538e-06)
(2.05841e-05 -2.29582e-05 9.33343e-07)
(2.00525e-05 -2.27793e-05 -3.64232e-08)
(1.95511e-05 -2.18478e-05 4.51185e-07)
(2.00603e-05 -2.25241e-05 4.51281e-07)
(2.00678e-05 -2.20158e-05 1.40464e-06)
(1.95571e-05 -2.15946e-05 9.32524e-07)
(2.00661e-05 -2.22698e-05 9.32851e-07)
(1.26936e-05 -1.16019e-05 2.98664e-06)
(9.55622e-06 -7.89029e-06 2.8227e-06)
(2.07583e-05 -2.1999e-05 3.12481e-06)
(1.74627e-05 -1.76738e-05 3.07745e-06)
(6.02135e-06 -4.16223e-06 2.46582e-06)
(8.86004e-06 -7.11205e-06 2.76983e-06)
(5.89124e-06 -4.31557e-06 1.88802e-06)
(5.9971e-06 -4.22693e-06 2.28947e-06)
(5.91639e-06 -4.23926e-06 2.09138e-06)
(5.99116e-06 -4.31997e-06 2.09736e-06)
(8.71502e-06 -7.29477e-06 2.08694e-06)
(8.83489e-06 -7.18828e-06 2.56689e-06)
(8.97137e-06 -7.46209e-06 2.33393e-06)
(9.06208e-06 -7.55396e-06 2.36709e-06)
(8.74158e-06 -7.20535e-06 2.32054e-06)
(8.83131e-06 -7.29656e-06 2.35182e-06)
(8.94473e-06 -7.55234e-06 2.09844e-06)
(6.0976e-06 -4.16931e-06 2.61951e-06)
(8.94853e-06 -7.1168e-06 2.96542e-06)
(6.19754e-06 -4.34031e-06 2.52765e-06)
(6.10905e-06 -4.23689e-06 2.51802e-06)
(6.09984e-06 -4.32875e-06 2.32457e-06)
(6.18619e-06 -4.2627e-06 2.64553e-06)
(9.07322e-06 -7.31126e-06 2.89731e-06)
(8.96514e-06 -7.19495e-06 2.85711e-06)
(9.1904e-06 -7.55959e-06 2.65906e-06)
(9.28857e-06 -7.4772e-06 3.04766e-06)
(8.95848e-06 -7.3024e-06 2.63966e-06)
(9.05596e-06 -7.22101e-06 3.02411e-06)
(9.30623e-06 -7.56824e-06 2.92042e-06)
(1.25373e-05 -1.18085e-05 2.2181e-06)
(1.26682e-05 -1.16875e-05 2.76332e-06)
(1.28118e-05 -1.20136e-05 2.48076e-06)
(1.29144e-05 -1.21134e-05 2.53952e-06)
(1.25648e-05 -1.17085e-05 2.47484e-06)
(1.26668e-05 -1.18079e-05 2.53231e-06)
(1.27843e-05 -1.21141e-05 2.22307e-06)
(9.40853e-06 -8.07848e-06 2.11995e-06)
(9.53096e-06 -7.96866e-06 2.61491e-06)
(9.20264e-06 -7.72254e-06 2.34676e-06)
(9.29426e-06 -7.81505e-06 2.38176e-06)
(9.43533e-06 -7.98662e-06 2.35905e-06)
(9.17591e-06 -7.81361e-06 2.10943e-06)
(9.52788e-06 -8.07975e-06 2.3959e-06)
(1.27916e-05 -1.16042e-05 3.21955e-06)
(9.64694e-06 -7.89454e-06 3.02666e-06)
(1.29376e-05 -1.18165e-05 3.18027e-06)
(1.28129e-05 -1.16908e-05 3.10843e-06)
(1.30572e-05 -1.21161e-05 2.88375e-06)
(1.31634e-05 -1.20209e-05 3.32333e-06)
(1.2809e-05 -1.18108e-05 2.87407e-06)
(1.29148e-05 -1.17162e-05 3.31135e-06)
(1.31865e-05 -1.21217e-05 3.19216e-06)
(9.77638e-06 -8.09322e-06 2.96438e-06)
(9.66456e-06 -7.97463e-06 2.91744e-06)
(9.42375e-06 -7.82048e-06 2.67777e-06)
(9.52258e-06 -7.7371e-06 3.07043e-06)
(9.54064e-06 -7.82893e-06 2.94276e-06)
(9.65846e-06 -8.08498e-06 2.69583e-06)
(9.75792e-06 -8.00064e-06 3.09243e-06)
(1.34376e-05 -1.2522e-05 3.01111e-06)
(1.67044e-05 -1.66859e-05 3.07177e-06)
(1.328e-05 -1.27318e-05 2.23207e-06)
(1.30594e-05 -1.23209e-05 2.48631e-06)
(1.31625e-05 -1.24211e-05 2.54632e-06)
(1.34122e-05 -1.26088e-05 2.78542e-06)
(1.30318e-05 -1.24219e-05 2.22772e-06)
(1.33076e-05 -1.26304e-05 2.4915e-06)
(1.34113e-05 -1.27309e-05 2.55271e-06)
(1.6543e-05 -1.69051e-05 2.26531e-06)
(1.66792e-05 -1.67764e-05 2.84031e-06)
(1.68234e-05 -1.71284e-05 2.53271e-06)
(1.69322e-05 -1.72321e-05 2.60583e-06)
(1.65709e-05 -1.67996e-05 2.53137e-06)
(1.66794e-05 -1.69031e-05 2.60392e-06)
(1.67956e-05 -1.72341e-05 2.26643e-06)
(1.35369e-05 -1.2524e-05 3.2489e-06)
(1.68072e-05 -1.66866e-05 3.32322e-06)
(1.36858e-05 -1.27385e-05 3.21405e-06)
(1.3306e-05 -1.24236e-05 2.89289e-06)
(1.34125e-05 -1.23278e-05 3.33467e-06)
(1.35588e-05 -1.26116e-05 3.13771e-06)
(1.34359e-05 -1.2429e-05 3.20341e-06)
(1.35554e-05 -1.27332e-05 2.90152e-06)
(1.36622e-05 -1.26368e-05 3.34538e-06)
(1.69653e-05 -1.69073e-05 3.30255e-06)
(1.68312e-05 -1.67774e-05 3.21267e-06)
(1.70825e-05 -1.72328e-05 2.97516e-06)
(1.71921e-05 -1.71303e-05 3.43722e-06)
(1.68294e-05 -1.69039e-05 2.97239e-06)
(1.69389e-05 -1.68017e-05 3.43376e-06)
(1.72187e-05 -1.7236e-05 3.30609e-06)
(2.0613e-05 -2.22592e-05 2.28774e-06)
(2.0755e-05 -2.21176e-05 2.8973e-06)
(2.08952e-05 -2.24521e-05 2.62314e-06)
(2.09996e-05 -2.25639e-05 2.67257e-06)
(2.06394e-05 -2.21414e-05 2.56997e-06)
(2.0758e-05 -2.22592e-05 2.64319e-06)
(2.08574e-05 -2.25732e-05 2.30719e-06)
(1.73008e-05 -1.78943e-05 2.26821e-06)
(1.74375e-05 -1.77649e-05 2.84553e-06)
(1.70761e-05 -1.7458e-05 2.53386e-06)
(1.7185e-05 -1.75618e-05 2.60751e-06)
(1.73287e-05 -1.77882e-05 2.53483e-06)
(1.70482e-05 -1.75639e-05 2.26739e-06)
(1.74379e-05 -1.78922e-05 2.60897e-06)
(2.08578e-05 -2.20032e-05 3.36128e-06)
(1.75659e-05 -1.76743e-05 3.33054e-06)
(2.10393e-05 -2.22588e-05 3.33456e-06)
(2.09036e-05 -2.21214e-05 3.2551e-06)
(2.11436e-05 -2.25651e-05 3.02389e-06)
(2.12446e-05 -2.24586e-05 3.46892e-06)
(2.09106e-05 -2.22599e-05 3.01652e-06)
(2.10057e-05 -2.21452e-05 3.46227e-06)
(2.12781e-05 -2.25718e-05 3.34211e-06)
(1.77254e-05 -1.78958e-05 3.31203e-06)
(1.75903e-05 -1.77655e-05 3.22028e-06)
(1.73356e-05 -1.75624e-05 2.97762e-06)
(1.74454e-05 -1.74597e-05 3.44029e-06)
(1.7472e-05 -1.75656e-05 3.30924e-06)
(1.75887e-05 -1.78927e-05 2.97978e-06)
(1.76986e-05 -1.77897e-05 3.44301e-06)
(2.10417e-05 -2.39316e-05 2.67901e-07)
(2.11314e-05 -2.42422e-05 -8.15867e-08)
(2.08965e-05 -2.39283e-05 -8.15955e-08)
(2.12737e-05 -2.42444e-05 2.62932e-07)
(1.14676e-05 -1.0116e-05 2.93533e-06)
(1.07425e-05 -9.25755e-06 2.89772e-06)
(1.94836e-05 -2.0332e-05 3.08325e-06)
(1.87262e-05 -1.93322e-05 3.08222e-06)
(7.07444e-06 -5.21048e-06 2.59778e-06)
(7.73077e-06 -5.89247e-06 2.66777e-06)
(6.93792e-06 -5.37623e-06 1.97607e-06)
(7.04976e-06 -5.28005e-06 2.41013e-06)
(7.1795e-06 -5.51867e-06 2.21048e-06)
(7.26177e-06 -5.60468e-06 2.2282e-06)
(6.9637e-06 -5.29437e-06 2.19228e-06)
(7.15362e-06 -5.60156e-06 1.99188e-06)
(7.04477e-06 -5.37955e-06 2.20802e-06)
(7.59082e-06 -6.06499e-06 2.02177e-06)
(7.70588e-06 -5.9647e-06 2.47399e-06)
(7.39726e-06 -5.74728e-06 2.22803e-06)
(7.48066e-06 -5.83409e-06 2.2477e-06)
(7.61691e-06 -5.98011e-06 2.24496e-06)
(7.37126e-06 -5.83118e-06 2.0071e-06)
(7.70146e-06 -6.06771e-06 2.2666e-06)
(7.1559e-06 -5.21664e-06 2.76852e-06)
(7.81505e-06 -5.89809e-06 2.84823e-06)
(7.26616e-06 -5.39768e-06 2.6852e-06)
(7.16948e-06 -5.2887e-06 2.66378e-06)
(7.3797e-06 -5.61206e-06 2.48484e-06)
(7.47171e-06 -5.53842e-06 2.83716e-06)
(7.16127e-06 -5.38715e-06 2.45991e-06)
(7.2524e-06 -5.31471e-06 2.80725e-06)
(7.48593e-06 -5.62237e-06 2.71441e-06)
(7.93102e-06 -6.08454e-06 2.77049e-06)
(7.82982e-06 -5.97259e-06 2.74193e-06)
(7.60003e-06 -5.84125e-06 2.50904e-06)
(7.69289e-06 -5.76642e-06 2.86626e-06)
(7.8222e-06 -6.07464e-06 2.53255e-06)
(7.91589e-06 -5.99866e-06 2.89457e-06)
(7.70758e-06 -5.85135e-06 2.74282e-06)
(1.13141e-05 -1.03165e-05 2.18817e-06)
(1.14422e-05 -1.01992e-05 2.71695e-06)
(1.10993e-05 -9.92935e-06 2.43091e-06)
(1.11975e-05 -1.00263e-05 2.47968e-06)
(1.13414e-05 -1.02192e-05 2.43929e-06)
(1.10721e-05 -1.00261e-05 2.18108e-06)
(1.14402e-05 -1.03166e-05 2.48962e-06)
(1.0591e-05 -9.45383e-06 2.16573e-06)
(1.07172e-05 -9.3391e-06 2.68292e-06)
(1.08582e-05 -9.64238e-06 2.42209e-06)
(1.09556e-05 -9.73881e-06 2.46926e-06)
(1.06182e-05 -9.35839e-06 2.4128e-06)
(1.0831e-05 -9.73846e-06 2.17361e-06)
(1.07148e-05 -9.45432e-06 2.45833e-06)
(1.15633e-05 -1.0119e-05 3.15859e-06)
(1.08365e-05 -9.26103e-06 3.11428e-06)
(1.17036e-05 -1.0327e-05 3.11109e-06)
(1.15832e-05 -1.02035e-05 3.04786e-06)
(1.13349e-05 -1.00301e-05 2.80438e-06)
(1.14382e-05 -9.93978e-06 3.22535e-06)
(1.15786e-05 -1.03203e-05 2.81744e-06)
(1.16823e-05 -1.02292e-05 3.24142e-06)