/*--------------------------------*- C++ -*----------------------------------*\
| =========                 |                                                 |
| \\      /  F ield         | OpenFOAM: The Open Source CFD Toolbox           |
|  \\    /   O peration     | Version:  2012                                  |
|   \\  /    A nd           | Website:  www.openfoam.com                      |
|    \\/     M anipulation  |                                                 |
\*---------------------------------------------------------------------------*/
FoamFile
{
    version     2.0;
    format      ascii;
    class       volVectorField;
    location    "0.107/solid";
    object      D_0_0;
}
// * * * * * * * * * * * * * * * * * * * * * * * * * * * * * * * * * * * * * //

dimensions      [0 1 0 0 0 0 0];


internalField   nonuniform List<vector> 
3125
(
(2.2022e-05 -1.12756e-05 5.17789e-06)
(1.58711e-05 -7.31725e-06 4.84201e-06)
(3.56631e-05 -2.08353e-05 5.46268e-06)
(2.92777e-05 -1.6297e-05 5.32223e-06)
(1.54765e-05 -7.07696e-06 4.81092e-06)
(1.51717e-05 -8.09929e-06 -8.20633e-07)
(9.95247e-06 -4.9409e-06 -7.02959e-07)
(1.54539e-05 -7.13318e-06 4.50055e-06)
(1.5543e-05 -7.08474e-06 4.99446e-06)
(1.53208e-05 -8.09633e-06 -3.22252e-07)
(1.00689e-05 -4.93646e-06 -3.04116e-07)
(1.55516e-05 -7.14414e-06 4.77274e-06)
(2.20013e-05 -1.13391e-05 4.84092e-06)
(1.59637e-05 -8.60491e-06 -8.34102e-07)
(1.58486e-05 -7.37404e-06 4.5294e-06)
(2.17242e-05 -1.2443e-05 -9.04737e-07)
(2.20953e-05 -1.12794e-05 5.39454e-06)
(1.59381e-05 -7.32474e-06 5.0281e-06)
(2.21093e-05 -1.13444e-05 5.16184e-06)
(1.61169e-05 -8.60215e-06 -3.23488e-07)
(1.59471e-05 -7.3846e-06 4.80535e-06)
(2.19018e-05 -1.24414e-05 -3.26727e-07)
(2.24436e-05 -1.15591e-05 5.19242e-06)
(2.88481e-05 -1.59931e-05 5.3188e-06)
(2.2423e-05 -1.16229e-05 4.8544e-06)
(2.85604e-05 -1.72452e-05 -9.39564e-07)
(2.25696e-05 -1.30257e-05 -9.11554e-07)
(2.88291e-05 -1.60602e-05 4.97229e-06)
(2.25172e-05 -1.15627e-05 5.41056e-06)
(2.89244e-05 -1.59941e-05 5.55128e-06)
(2.25315e-05 -1.16279e-05 5.17752e-06)
(2.87561e-05 -1.72446e-05 -3.25783e-07)
(2.275e-05 -1.30242e-05 -3.26713e-07)
(2.89418e-05 -1.60616e-05 5.3165e-06)
(3.57367e-05 -2.09611e-05 5.15311e-06)
(2.94208e-05 -1.78602e-05 -9.41224e-07)
(2.92587e-05 -1.63642e-05 4.97557e-06)
(3.57365e-05 -2.08431e-05 5.6546e-06)
(2.93541e-05 -1.62979e-05 5.55519e-06)
(3.58384e-05 -2.09673e-05 5.43822e-06)
(2.9618e-05 -1.78597e-05 -3.25663e-07)
(2.93717e-05 -1.63654e-05 5.32049e-06)
(1.91049e-05 -9.35298e-06 5.0501e-06)
(1.8694e-05 -9.08826e-06 5.02788e-06)
(3.27127e-05 -1.87451e-05 5.33543e-06)
(3.22837e-05 -1.84378e-05 5.33483e-06)
(1.24171e-05 -5.2835e-06 4.51835e-06)
(1.27891e-05 -5.49454e-06 4.55932e-06)
(9.96227e-06 -4.47496e-06 1.77028e-06)
(1.23936e-05 -5.33445e-06 4.22875e-06)
(1.21179e-05 -5.69003e-06 1.88091e-06)
(1.28586e-05 -6.66011e-06 -7.7515e-07)
(1.5166e-05 -7.66895e-06 1.27668e-06)
(1.28543e-05 -6.2642e-06 1.22556e-06)
(9.95041e-06 -4.5967e-06 1.13763e-06)
(1.21113e-05 -6.20803e-06 -7.5832e-07)
(1.21075e-05 -5.82443e-06 1.2058e-06)
(1.27658e-05 -5.54622e-06 4.26683e-06)
(1.51748e-05 -7.51989e-06 1.99763e-06)
(1.28643e-05 -6.1259e-06 1.91325e-06)
(1.24783e-05 -5.29363e-06 4.67962e-06)
(1.28511e-05 -5.50436e-06 4.72353e-06)
(1.01028e-05 -4.49115e-06 2.18355e-06)
(1.24835e-05 -5.34874e-06 4.46815e-06)
(1.22735e-05 -5.70369e-06 2.34486e-06)
(1.29945e-05 -6.65654e-06 -3.16763e-07)
(1.53405e-05 -7.67617e-06 1.81963e-06)
(1.30152e-05 -6.27306e-06 1.7227e-06)
(1.00908e-05 -4.60788e-06 1.56681e-06)
(1.22425e-05 -6.20425e-06 -3.14236e-07)
(1.22636e-05 -5.83385e-06 1.6866e-06)
(1.28567e-05 -5.56008e-06 4.51058e-06)
(1.53477e-05 -7.53037e-06 2.52266e-06)
(1.30244e-05 -6.13874e-06 2.39326e-06)
(1.90834e-05 -9.41377e-06 4.72241e-06)
(2.17225e-05 -1.17685e-05 2.14268e-06)
(1.92162e-05 -1.00977e-05 2.1004e-06)
(1.59577e-05 -8.16393e-06 1.2912e-06)
(1.8392e-05 -1.01912e-05 -8.69403e-07)
(1.8385e-05 -9.72079e-06 1.32796e-06)
(1.86724e-05 -9.14861e-06 4.70181e-06)
(1.59661e-05 -8.0116e-06 2.02177e-06)
(1.83924e-05 -9.55957e-06 2.08328e-06)
(2.17163e-05 -1.19395e-05 1.36324e-06)
(1.92164e-05 -1.07408e-05 -8.79476e-07)
(1.92091e-05 -1.02615e-05 1.33814e-06)
(1.91758e-05 -9.35837e-06 5.25437e-06)
(1.87645e-05 -9.09389e-06 5.2301e-06)
(1.91877e-05 -9.42136e-06 5.02511e-06)
(2.1921e-05 -1.17736e-05 2.75863e-06)
(1.94064e-05 -1.01046e-05 2.68776e-06)
(1.61363e-05 -8.17063e-06 1.84821e-06)
(1.85566e-05 -1.01889e-05 -3.25823e-07)
(1.85748e-05 -9.72602e-06 1.923e-06)
(1.87761e-05 -9.15654e-06 5.0015e-06)
(1.61428e-05 -8.02133e-06 2.56063e-06)
(1.85795e-05 -9.56717e-06 2.65959e-06)
(2.19185e-05 -1.19429e-05 1.99843e-06)
(1.93844e-05 -1.07388e-05 -3.26236e-07)
(1.94023e-05 -1.02663e-05 1.94438e-06)
(2.54185e-05 -1.35926e-05 5.271e-06)
(2.5846e-05 -1.3889e-05 5.2792e-06)
(2.25674e-05 -1.23419e-05 2.15399e-06)
(2.53987e-05 -1.36582e-05 4.92746e-06)
(2.51223e-05 -1.41013e-05 2.18071e-06)
(2.59824e-05 -1.54134e-05 -9.31434e-07)
(2.85514e-05 -1.66965e-05 1.39938e-06)
(2.59738e-05 -1.48783e-05 1.39009e-06)
(2.25615e-05 -1.25149e-05 1.36997e-06)
(2.51256e-05 -1.48093e-05 -9.27511e-07)
(2.51171e-05 -1.42797e-05 1.38598e-06)
(2.58263e-05 -1.39548e-05 4.93511e-06)
(2.8556e-05 -1.65129e-05 2.20233e-06)
(2.59788e-05 -1.46984e-05 2.18746e-06)
(2.54936e-05 -1.35948e-05 5.49763e-06)
(2.59213e-05 -1.3891e-05 5.50677e-06)
(2.27683e-05 -1.23464e-05 2.77794e-06)
(2.55096e-05 -1.36613e-05 5.26305e-06)
(2.53295e-05 -1.41042e-05 2.8241e-06)
(2.61726e-05 -1.54126e-05 -3.26234e-07)
(2.87701e-05 -1.66974e-05 2.0783e-06)
(2.61876e-05 -1.488e-05 2.05796e-06)
(2.27664e-05 -1.2518e-05 2.01324e-06)
(2.53136e-05 -1.48083e-05 -3.26389e-07)
(2.53289e-05 -1.42817e-05 2.04882e-06)
(2.59376e-05 -1.39577e-05 5.27209e-06)
(2.87692e-05 -1.65143e-05 2.86184e-06)
(2.61877e-05 -1.4701e-05 2.83587e-06)
(3.26942e-05 -1.88131e-05 4.98869e-06)
(3.57182e-05 -2.16502e-05 2.18443e-06)
(3.28554e-05 -1.95817e-05 2.21377e-06)
(2.94118e-05 -1.7308e-05 1.40161e-06)
(3.20008e-05 -1.97123e-05 -9.43803e-07)
(3.19915e-05 -1.91518e-05 1.40621e-06)
(3.22651e-05 -1.85057e-05 4.98801e-06)
(2.94162e-05 -1.71234e-05 2.20574e-06)
(3.19955e-05 -1.89649e-05 2.21241e-06)
(3.5717e-05 -2.17448e-05 1.78244e-06)
(3.28608e-05 -2.03317e-05 -9.44044e-07)
(3.28514e-05 -1.97691e-05 1.40722e-06)
(3.27896e-05 -1.87453e-05 5.57069e-06)
(3.23606e-05 -1.84381e-05 5.56995e-06)
(3.28081e-05 -1.88134e-05 5.33698e-06)
(3.58283e-05 -2.16499e-05 2.52092e-06)
(3.30729e-05 -1.95818e-05 2.88097e-06)
(2.96317e-05 -1.73087e-05 2.08299e-06)
(3.22014e-05 -1.9712e-05 -3.25466e-07)
(3.22144e-05 -1.91519e-05 2.09201e-06)
(3.23789e-05 -1.85061e-05 5.33609e-06)
(2.96305e-05 -1.71244e-05 2.86776e-06)
(3.22125e-05 -1.89652e-05 2.87901e-06)
(3.58279e-05 -2.17445e-05 2.12153e-06)
(3.30622e-05 -2.03314e-05 -3.25523e-07)
(3.30749e-05 -1.97691e-05 2.09355e-06)
(2.07639e-05 -1.04376e-05 5.12888e-06)
(1.70686e-05 -8.05782e-06 4.92834e-06)
(3.44376e-05 -1.99817e-05 5.34334e-06)
(3.05665e-05 -1.7212e-05 5.32982e-06)
(1.09628e-05 -4.47919e-06 4.3414e-06)
(1.4308e-05 -6.37689e-06 4.71048e-06)
(1.0939e-05 -4.52708e-06 4.06413e-06)
(1.09075e-05 -4.73249e-06 3.08344e-06)
(1.43896e-05 -7.60624e-06 -8.06314e-07)
(1.51655e-05 -7.9583e-06 -1.27672e-07)
(1.43834e-05 -7.46907e-06 -1.23295e-07)
(9.94637e-06 -4.82937e-06 -9.49004e-08)
(1.06574e-05 -5.34805e-06 -7.22213e-07)
(1.06512e-05 -5.23193e-06 -9.97611e-08)
(1.4285e-05 -6.43127e-06 4.40729e-06)
(1.54326e-05 -7.36961e-06 3.41664e-06)
(1.42611e-05 -6.66085e-06 3.3451e-06)
(1.10209e-05 -4.49057e-06 4.49047e-06)
(1.43726e-05 -6.38553e-06 4.88604e-06)
(1.10242e-05 -4.54313e-06 4.28558e-06)
(1.09881e-05 -4.74441e-06 3.308e-06)
(1.45344e-05 -7.60308e-06 -3.2074e-07)
(1.53259e-05 -7.95864e-06 3.96031e-07)
(1.45394e-05 -7.46946e-06 3.86706e-07)
(1.00729e-05 -4.83001e-06 3.22451e-07)
(1.07789e-05 -5.34383e-06 -3.07944e-07)
(1.07831e-05 -5.23252e-06 3.34056e-07)
(1.438e-05 -6.44345e-06 4.66775e-06)
(1.55265e-05 -7.37773e-06 3.69093e-06)
(1.43522e-05 -6.66986e-06 3.60792e-06)
(2.07428e-05 -1.05e-05 4.79545e-06)
(2.19908e-05 -1.1602e-05 3.67813e-06)
(2.07304e-05 -1.07591e-05 3.64276e-06)
(1.59576e-05 -8.46023e-06 -1.31883e-07)
(1.6765e-05 -9.12252e-06 -8.4672e-07)
(1.67588e-05 -8.97429e-06 -1.35911e-07)
(1.70465e-05 -8.11624e-06 4.6095e-06)
(1.58279e-05 -7.61256e-06 3.43846e-06)
(1.70281e-05 -8.3608e-06 3.5e-06)
(2.17183e-05 -1.22763e-05 -1.55246e-07)
(2.08831e-05 -1.18675e-05 -8.9713e-07)
(2.08771e-05 -1.17035e-05 -1.52662e-07)
(2.08362e-05 -1.04421e-05 5.34064e-06)
(1.71372e-05 -8.06449e-06 5.12172e-06)
(2.08494e-05 -1.05063e-05 5.10919e-06)
(2.20967e-05 -1.1606e-05 4.00003e-06)
(2.08345e-05 -1.07637e-05 3.95767e-06)
(1.61222e-05 -8.46054e-06 4.04916e-07)
(1.69221e-05 -9.11995e-06 -3.24476e-07)
(1.69275e-05 -8.97456e-06 4.13349e-07)
(1.71474e-05 -8.12564e-06 4.89618e-06)
(1.59228e-05 -7.62036e-06 3.71644e-06)
(1.71256e-05 -8.36777e-06 3.78847e-06)
(2.19077e-05 -1.22764e-05 4.53991e-07)
(2.10577e-05 -1.18658e-05 -3.26666e-07)
(2.10635e-05 -1.17036e-05 4.48423e-07)
(2.37141e-05 -1.24209e-05 5.23087e-06)
(2.75601e-05 -1.50858e-05 5.30538e-06)
(2.2413e-05 -1.18869e-05 3.68849e-06)
(2.36938e-05 -1.24855e-05 4.89012e-06)
(2.36855e-05 -1.27528e-05 3.71652e-06)
(2.77002e-05 -1.6632e-05 -9.37414e-07)
(2.85548e-05 -1.70623e-05 -1.66274e-07)
(2.76947e-05 -1.64506e-05 -1.65757e-07)
(2.25637e-05 -1.28564e-05 -1.57555e-07)
(2.34186e-05 -1.36147e-05 -9.17604e-07)
(2.34128e-05 -1.34431e-05 -1.59588e-07)
(2.75407e-05 -1.51524e-05 4.95962e-06)
(2.88258e-05 -1.63361e-05 3.78283e-06)
(2.75363e-05 -1.54266e-05 3.77205e-06)
(2.37884e-05 -1.24238e-05 5.45306e-06)
(2.7636e-05 -1.50872e-05 5.5361e-06)
(2.25194e-05 -1.18906e-05 4.01253e-06)
(2.38035e-05 -1.24896e-05 5.21918e-06)
(2.37934e-05 -1.27558e-05 4.04634e-06)
(2.78943e-05 -1.66313e-05 -3.25924e-07)
(2.87623e-05 -1.70622e-05 4.82254e-07)
(2.79004e-05 -1.64505e-05 4.80163e-07)
(2.2756e-05 -1.28565e-05 4.59081e-07)
(2.36018e-05 -1.36135e-05 -3.26641e-07)
(2.36078e-05 -1.34431e-05 4.637e-07)
(2.7653e-05 -1.51544e-05 5.30124e-06)
(2.89379e-05 -1.63371e-05 4.12732e-06)
(2.76476e-05 -1.54281e-05 4.11405e-06)
(3.44233e-05 -2.00526e-05 4.9979e-06)
(3.57228e-05 -2.12685e-05 3.80857e-06)
(3.44288e-05 -2.03385e-05 3.80215e-06)
(2.94153e-05 -1.76761e-05 -1.66601e-07)
(3.02812e-05 -1.84767e-05 -9.42447e-07)
(3.02757e-05 -1.82914e-05 -1.66761e-07)
(3.05477e-05 -1.72795e-05 4.98291e-06)
(2.92556e-05 -1.66404e-05 3.78564e-06)
(3.05456e-05 -1.75571e-05 3.79241e-06)
(3.57158e-05 -2.21236e-05 1.89016e-07)
(3.45995e-05 -2.14017e-05 -1.68277e-07)
(3.45141e-05 -1.99822e-05 5.57548e-06)
(3.06431e-05 -1.72126e-05 5.56395e-06)
(3.45368e-05 -2.00532e-05 5.34302e-06)
(3.58365e-05 -2.12679e-05 4.158e-06)
(3.45429e-05 -2.03384e-05 4.15145e-06)
(2.96242e-05 -1.76759e-05 4.83999e-07)
(3.04797e-05 -1.84763e-05 -3.25563e-07)
(3.04859e-05 -1.82912e-05 4.85419e-07)
(3.06611e-05 -1.72803e-05 5.32954e-06)
(2.93679e-05 -1.66414e-05 4.13081e-06)
(3.06585e-05 -1.75577e-05 4.13922e-06)
(3.58247e-05 -2.21233e-05 5.21735e-07)
(3.48142e-05 -2.14013e-05 4.88315e-07)
(2.0347e-05 -1.01628e-05 5.11066e-06)
(1.74721e-05 -8.31099e-06 4.95486e-06)
(3.40027e-05 -1.96703e-05 5.33856e-06)
(3.0996e-05 -1.75179e-05 5.33156e-06)
(1.13211e-05 -4.67419e-06 4.38763e-06)
(1.39239e-05 -6.1507e-06 4.67457e-06)
(9.97969e-06 -4.34824e-06 2.41888e-06)
(1.06661e-05 -4.86419e-06 1.80949e-06)
(1.06828e-05 -4.73307e-06 2.47334e-06)
(1.12973e-05 -4.72287e-06 4.10715e-06)
(1.23657e-05 -5.55134e-06 3.20905e-06)
(1.12666e-05 -4.93124e-06 3.11591e-06)
(1.13849e-05 -5.26933e-06 1.84635e-06)
(1.21334e-05 -5.55064e-06 2.57282e-06)
(1.1401e-05 -5.13399e-06 2.52462e-06)
(1.36183e-05 -7.12634e-06 -7.91151e-07)
(1.28524e-05 -6.53098e-06 -1.14138e-07)
(1.36121e-05 -6.99313e-06 -1.18776e-07)
(1.51632e-05 -7.81513e-06 5.68898e-07)
(1.43844e-05 -7.18696e-06 1.26094e-06)
(1.43813e-05 -7.32959e-06 5.63299e-07)
(1.28506e-05 -6.39928e-06 5.50369e-07)
(1.36135e-05 -6.71854e-06 1.24392e-06)
(1.36102e-05 -6.85747e-06 5.57136e-07)
(9.94546e-06 -4.7149e-06 5.16459e-07)
(1.06547e-05 -4.99031e-06 1.16189e-06)
(1.06501e-05 -5.11295e-06 5.26043e-07)
(1.13772e-05 -5.77054e-06 -7.4067e-07)
(1.21051e-05 -6.0831e-06 -1.09406e-07)
(1.13711e-05 -5.64996e-06 -1.04605e-07)
(1.1374e-05 -5.39967e-06 1.1846e-06)
(1.21035e-05 -5.95551e-06 5.42958e-07)
(1.13697e-05 -5.5266e-06 5.34863e-07)
(1.39008e-05 -6.20443e-06 4.37394e-06)
(1.27385e-05 -5.76576e-06 3.23781e-06)
(1.38763e-05 -6.43164e-06 3.3199e-06)
(1.5188e-05 -7.366e-06 2.73624e-06)
(1.43936e-05 -7.04133e-06 1.97154e-06)
(1.44073e-05 -6.89081e-06 2.69962e-06)
(1.28792e-05 -5.98263e-06 2.61799e-06)
(1.36231e-05 -6.5765e-06 1.94344e-06)
(1.36374e-05 -6.42952e-06 2.66023e-06)
(1.138e-05 -4.68525e-06 4.5398e-06)
(1.39879e-05 -6.15963e-06 4.84737e-06)
(1.01175e-05 -4.36789e-06 2.80997e-06)
(1.08118e-05 -4.87952e-06 2.24002e-06)
(1.08256e-05 -4.75168e-06 2.88107e-06)
(1.13837e-05 -4.73848e-06 4.33316e-06)
(1.24512e-05 -5.56194e-06 3.45122e-06)
(1.13485e-05 -4.9428e-06 3.34498e-06)
(1.15356e-05 -5.28381e-06 2.29379e-06)
(1.22853e-05 -5.56722e-06 3.01276e-06)
(1.15485e-05 -5.15158e-06 2.94866e-06)
(1.37587e-05 -7.12298e-06 -3.1892e-07)
(1.29992e-05 -6.53144e-06 3.66799e-07)
(1.37636e-05 -6.99355e-06 3.76957e-07)
(1.5333e-05 -7.81887e-06 1.11017e-06)
(1.45545e-05 -7.19472e-06 1.7892e-06)
(1.45466e-05 -7.33361e-06 1.09017e-06)
(1.30066e-05 -6.40388e-06 1.04671e-06)
(1.37791e-05 -6.72684e-06 1.7569e-06)
(1.37709e-05 -6.86178e-06 1.06902e-06)
(1.00807e-05 -4.72073e-06 9.46073e-07)
(1.08005e-05 -5.00089e-06 1.60866e-06)
(1.07908e-05 -5.11847e-06 9.7293e-07)
(1.15037e-05 -5.76654e-06 -3.11307e-07)
(1.22471e-05 -6.08361e-06 3.5625e-07)
(1.15081e-05 -5.65051e-06 3.4533e-07)
(1.15251e-05 -5.40967e-06 1.64859e-06)
(1.22546e-05 -5.96041e-06 1.02326e-06)
(1.15157e-05 -5.53181e-06 9.98661e-07)
(1.39948e-05 -6.21702e-06 4.63032e-06)
(1.28252e-05 -5.77602e-06 3.48426e-06)
(1.39662e-05 -6.44098e-06 3.57871e-06)
(1.5356e-05 -7.37874e-06 3.23512e-06)
(1.45623e-05 -7.05258e-06 2.48213e-06)
(1.45715e-05 -6.90448e-06 3.18456e-06)
(1.30354e-05 -5.99822e-06 3.07342e-06)
(1.37877e-05 -6.58853e-06 2.43901e-06)
(1.37977e-05 -6.44414e-06 3.13068e-06)
(2.03258e-05 -1.02248e-05 4.77856e-06)
(1.90684e-05 -9.66699e-06 3.58645e-06)
(2.03129e-05 -1.04826e-05 3.62987e-06)
(2.17318e-05 -1.15935e-05 2.94061e-06)
(2.08818e-05 -1.12028e-05 2.13003e-06)
(2.08915e-05 -1.10299e-05 2.92278e-06)
(1.92267e-05 -9.92939e-06 2.88099e-06)
(2.00462e-05 -1.06456e-05 2.11596e-06)
(2.00563e-05 -1.0475e-05 2.90294e-06)
(1.59552e-05 -8.31352e-06 5.73973e-07)
(1.67586e-05 -8.67132e-06 1.30455e-06)
(1.67563e-05 -8.82417e-06 5.78562e-07)
(1.75747e-05 -9.65148e-06 -8.58485e-07)
(1.8386e-05 -1.00362e-05 -1.43333e-07)
(1.75685e-05 -9.49983e-06 -1.39732e-07)
(1.7568e-05 -9.19049e-06 1.31678e-06)
(1.83832e-05 -9.87972e-06 5.86437e-07)
(1.75659e-05 -9.34645e-06 5.82705e-07)
(1.745e-05 -8.36991e-06 4.63409e-06)
(1.86569e-05 -9.40027e-06 3.5708e-06)
(1.74323e-05 -8.61629e-06 3.51863e-06)
(1.59787e-05 -7.85451e-06 2.77017e-06)
(1.67667e-05 -8.51587e-06 2.04404e-06)
(1.67787e-05 -8.35574e-06 2.80152e-06)
(1.84035e-05 -9.39385e-06 2.85683e-06)
(1.75757e-05 -9.03208e-06 2.06452e-06)
(1.75872e-05 -8.86908e-06 2.83038e-06)
(2.17152e-05 -1.21088e-05 5.97959e-07)
(2.08754e-05 -1.13716e-05 1.35573e-06)
(2.08741e-05 -1.15385e-05 5.95524e-07)
(2.00469e-05 -1.12999e-05 -8.88715e-07)
(1.92103e-05 -1.05828e-05 -1.46696e-07)
(2.00409e-05 -1.11388e-05 -1.4981e-07)
(2.00394e-05 -1.0812e-05 1.34738e-06)
(1.92075e-05 -1.04233e-05 5.89795e-07)
(2.0038e-05 -1.09765e-05 5.92813e-07)
(2.0419e-05 -1.01675e-05 5.32066e-06)
(1.75412e-05 -8.3174e-06 5.15055e-06)
(2.04318e-05 -1.02314e-05 5.08969e-06)
(1.91698e-05 -9.67258e-06 3.89059e-06)
(2.04163e-05 -1.04874e-05 3.94223e-06)
(2.1923e-05 -1.15997e-05 3.52739e-06)
(2.10778e-05 -1.12085e-05 2.73721e-06)
(2.10805e-05 -1.10368e-05 3.50107e-06)
(1.94106e-05 -9.93783e-06 3.44008e-06)
(2.02394e-05 -1.06519e-05 2.71361e-06)
(2.02428e-05 -1.04827e-05 3.472e-06)
(1.61292e-05 -8.31698e-06 1.12902e-06)
(1.69411e-05 -8.67752e-06 1.87494e-06)
(1.69344e-05 -8.82736e-06 1.14672e-06)
(1.77356e-05 -9.64909e-06 -3.25245e-07)
(1.85622e-05 -1.00364e-05 4.28816e-07)
(1.7741e-05 -9.50007e-06 4.21319e-07)
(1.77542e-05 -9.19619e-06 1.89986e-06)
(1.85688e-05 -9.8824e-06 1.17871e-06)
(1.77478e-05 -9.34938e-06 1.16328e-06)
(1.75517e-05 -8.37894e-06 4.92417e-06)
(1.87575e-05 -9.40614e-06 3.87199e-06)
(1.75307e-05 -8.62296e-06 3.81044e-06)
(1.61503e-05 -7.86634e-06 3.2824e-06)
(1.6947e-05 -8.52487e-06 2.59608e-06)
(1.69536e-05 -8.36669e-06 3.32648e-06)
(1.85845e-05 -9.40311e-06 3.40525e-06)
(1.77595e-05 -9.04037e-06 2.62905e-06)
(1.77653e-05 -8.87916e-06 3.3674e-06)
(2.19138e-05 -1.21105e-05 1.22943e-06)
(2.10748e-05 -1.13755e-05 1.98205e-06)
(2.10698e-05 -1.15405e-05 1.21836e-06)
(2.02183e-05 -1.1298e-05 -3.26509e-07)
(1.93901e-05 -1.05829e-05 4.35835e-07)
(2.02241e-05 -1.11389e-05 4.42371e-07)
(2.02358e-05 -1.08164e-05 1.96405e-06)
(1.93966e-05 -1.04257e-05 1.19302e-06)
(2.02305e-05 -1.09787e-05 1.20623e-06)
(2.41392e-05 -1.27115e-05 5.24205e-06)
(2.71311e-05 -1.47851e-05 5.29977e-06)
(2.25763e-05 -1.21649e-05 2.95653e-06)
(2.34161e-05 -1.29223e-05 2.16405e-06)
(2.34246e-05 -1.27435e-05 2.97066e-06)
(2.4119e-05 -1.27764e-05 4.90051e-06)
(2.53923e-05 -1.3929e-05 3.74605e-06)
(2.41111e-05 -1.30446e-05 3.72459e-06)
(2.42679e-05 -1.3509e-05 2.17293e-06)
(2.51302e-05 -1.39193e-05 2.99392e-06)
(2.42761e-05 -1.33286e-05 2.98309e-06)
(2.68408e-05 -1.60212e-05 -9.34721e-07)
(2.59767e-05 -1.52355e-05 -1.64053e-07)
(2.68351e-05 -1.58414e-05 -1.65023e-07)
(2.85513e-05 -1.68797e-05 6.10522e-07)
(2.76914e-05 -1.60874e-05 1.39675e-06)
(2.76912e-05 -1.62693e-05 6.09444e-07)
(2.59733e-05 -1.50574e-05 6.0694e-07)
(2.6832e-05 -1.54811e-05 1.39366e-06)
(2.68317e-05 -1.56617e-05 6.08253e-07)
(2.25605e-05 -1.26865e-05 6.00147e-07)
(2.34104e-05 -1.30972e-05 1.37597e-06)
(2.34096e-05 -1.32709e-05 6.02115e-07)
(2.42708e-05 -1.42095e-05 -9.22913e-07)
(2.51199e-05 -1.46333e-05 -1.6283e-07)
(2.42651e-05 -1.40356e-05 -1.61344e-07)
(2.42625e-05 -1.36857e-05 1.38129e-06)
(2.51165e-05 -1.4457e-05 6.05491e-07)
(2.42618e-05 -1.38613e-05 6.03889e-07)
(2.71117e-05 -1.48515e-05 4.95435e-06)
(2.58202e-05 -1.42263e-05 3.75209e-06)
(2.7107e-05 -1.51252e-05 3.76777e-06)
(2.85627e-05 -1.63262e-05 3.02348e-06)
(2.76961e-05 -1.59049e-05 2.1982e-06)
(2.77031e-05 -1.57192e-05 3.01794e-06)
(2.59864e-05 -1.45151e-05 3.00327e-06)
(2.68369e-05 -1.52999e-05 2.19327e-06)
(2.68442e-05 -1.51153e-05 3.01124e-06)
(2.42137e-05 -1.27143e-05 5.46545e-06)
(2.72069e-05 -1.47866e-05 5.5298e-06)
(2.27697e-05 -1.21704e-05 3.55107e-06)
(2.36193e-05 -1.29262e-05 2.79523e-06)
(2.362e-05 -1.27484e-05 3.57221e-06)
(2.42291e-05 -1.27803e-05 5.23135e-06)
(2.55019e-05 -1.39313e-05 4.08221e-06)
(2.42194e-05 -1.30474e-05 4.05615e-06)
(2.44732e-05 -1.35124e-05 2.81059e-06)
(2.53291e-05 -1.3923e-05 3.60735e-06)
(2.44733e-05 -1.33328e-05 3.59093e-06)
(2.7033e-05 -1.60204e-05 -3.26076e-07)
(2.61787e-05 -1.52354e-05 4.74839e-07)
(2.70391e-05 -1.58414e-05 4.77698e-07)
(2.87675e-05 -1.68801e-05 1.28415e-06)
(2.79086e-05 -1.60885e-05 2.07262e-06)
(2.79058e-05 -1.62698e-05 1.28019e-06)
(2.61843e-05 -1.50582e-05 1.27005e-06)
(2.70476e-05 -1.54825e-05 2.06587e-06)
(2.70446e-05 -1.56624e-05 1.27551e-06)
(2.2762e-05 -1.2688e-05 1.23947e-06)
(2.36178e-05 -1.30999e-05 2.02653e-06)
(2.36137e-05 -1.32722e-05 1.24852e-06)
(2.44565e-05 -1.42084e-05 -3.26529e-07)
(2.53197e-05 -1.46333e-05 4.71564e-07)
(2.44626e-05 -1.40356e-05 4.67856e-07)
(2.44722e-05 -1.36881e-05 2.03837e-06)
(2.53254e-05 -1.4458e-05 1.26377e-06)
(2.44683e-05 -1.38625e-05 1.2566e-06)
(2.72237e-05 -1.48537e-05 5.29495e-06)
(2.59302e-05 -1.42284e-05 4.08959e-06)
(2.72179e-05 -1.51268e-05 4.10877e-06)
(2.87668e-05 -1.63279e-05 3.65268e-06)
(2.7908e-05 -1.59066e-05 2.85463e-06)
(2.79061e-05 -1.57213e-05 3.64411e-06)
(2.61868e-05 -1.45182e-05 3.62159e-06)
(2.70474e-05 -1.5302e-05 2.84601e-06)
(2.70459e-05 -1.51179e-05 3.6338e-06)
(3.39862e-05 -1.97397e-05 4.99242e-06)
(3.26935e-05 -1.90924e-05 3.79865e-06)
(3.39898e-05 -2.0023e-05 3.801e-06)
(3.57226e-05 -2.13652e-05 3.39934e-06)
(3.45995e-05 -2.08362e-05 2.21531e-06)
(3.46064e-05 -2.06463e-05 3.03944e-06)
(3.28612e-05 -1.93917e-05 3.03796e-06)
(3.37196e-05 -2.02028e-05 2.21486e-06)
(3.37257e-05 -2.00125e-05 3.03925e-06)
(2.94117e-05 -1.74923e-05 6.11493e-07)
(3.0272e-05 -1.79213e-05 1.40346e-06)
(3.02721e-05 -1.81065e-05 6.12363e-07)
(3.11412e-05 -1.90941e-05 -9.4329e-07)
(3.19954e-05 -1.95251e-05 -1.6669e-07)
(3.11357e-05 -1.89078e-05 -1.66782e-07)
(3.1132e-05 -1.8536e-05 1.40498e-06)
(3.19917e-05 -1.93386e-05 6.13814e-07)
(3.11321e-05 -1.8722e-05 6.13135e-07)
(3.09772e-05 -1.75856e-05 4.98463e-06)
(3.22641e-05 -1.87847e-05 3.79781e-06)
(3.09752e-05 -1.78634e-05 3.79406e-06)
(2.94227e-05 -1.69358e-05 3.02798e-06)
(3.02763e-05 -1.77358e-05 2.2085e-06)
(3.02826e-05 -1.75475e-05 3.03155e-06)
(3.20015e-05 -1.87753e-05 3.03639e-06)
(3.11361e-05 -1.83497e-05 2.2107e-06)
(3.11423e-05 -1.81607e-05 3.03431e-06)
(3.57155e-05 -2.20288e-05 5.85429e-07)
(3.45942e-05 -2.10237e-05 1.40781e-06)
(3.45946e-05 -2.12123e-05 6.13982e-07)
(3.37255e-05 -2.09553e-05 -9.44327e-07)
(3.28554e-05 -2.01438e-05 -1.66518e-07)
(3.37197e-05 -2.07665e-05 -1.66551e-07)
(3.37152e-05 -2.03904e-05 1.40794e-06)
(3.28516e-05 -1.99565e-05 6.14414e-07)
(3.37155e-05 -2.05783e-05 6.14757e-07)
(3.40796e-05 -1.96705e-05 5.57293e-06)
(3.10727e-05 -1.75184e-05 5.56599e-06)
(3.41e-05 -1.974e-05 5.33981e-06)
(3.28072e-05 -1.90926e-05 4.14701e-06)
(3.41038e-05 -2.0023e-05 4.14985e-06)
(3.5832e-05 -2.13648e-05 3.73482e-06)
(3.48182e-05 -2.08359e-05 2.8846e-06)
(3.48157e-05 -2.06461e-05 3.67993e-06)
(3.30689e-05 -1.93919e-05 3.67489e-06)
(3.39375e-05 -2.02027e-05 2.88238e-06)
(3.39338e-05 -2.00126e-05 3.67666e-06)
(2.96293e-05 -1.74925e-05 1.28743e-06)
(3.04931e-05 -1.79218e-05 2.08678e-06)
(3.04909e-05 -1.81067e-05 1.29009e-06)
(3.13409e-05 -1.90938e-05 -3.25494e-07)
(3.22076e-05 -1.95249e-05 4.87358e-07)
(3.13471e-05 -1.89076e-05 4.86537e-07)
(3.13541e-05 -1.85363e-05 2.08977e-06)
(3.22125e-05 -1.93385e-05 1.29377e-06)
(3.1352e-05 -1.87221e-05 1.2922e-06)
(3.10907e-05 -1.75863e-05 5.33171e-06)
(3.23776e-05 -1.8785e-05 4.14596e-06)
(3.10883e-05 -1.78639e-05 4.14128e-06)
(2.96278e-05 -1.69371e-05 3.65966e-06)
(3.04916e-05 -1.77366e-05 2.87252e-06)
(3.04886e-05 -1.75485e-05 3.66521e-06)
(3.22088e-05 -1.87758e-05 3.67266e-06)
(3.13523e-05 -1.83503e-05 2.87623e-06)
(3.13489e-05 -1.81614e-05 3.66949e-06)
(3.58256e-05 -2.20286e-05 9.2195e-07)
(3.4819e-05 -2.10233e-05 2.09529e-06)
(3.48174e-05 -2.12119e-05 1.29563e-06)
(3.39276e-05 -2.0955e-05 -3.25654e-07)
(3.30684e-05 -2.01435e-05 4.87847e-07)
(3.39333e-05 -2.07662e-05 4.87957e-07)
(3.39393e-05 -2.03902e-05 2.09447e-06)
(3.30732e-05 -1.99563e-05 1.2948e-06)
(3.39376e-05 -2.05781e-05 1.29529e-06)
(2.16015e-05 -1.09942e-05 5.16247e-06)
(1.6268e-05 -7.56087e-06 4.87193e-06)
(3.52987e-05 -2.05905e-05 5.38868e-06)
(2.97073e-05 -1.66015e-05 5.32519e-06)
(1.02575e-05 -4.10162e-06 4.24491e-06)
(1.50844e-05 -6.84009e-06 4.77864e-06)
(1.01475e-05 -4.20626e-06 3.451e-06)
(1.02335e-05 -4.14787e-06 3.9743e-06)
(1.01724e-05 -4.15076e-06 3.76325e-06)
(1.0222e-05 -4.21693e-06 3.64761e-06)
(1.49674e-05 -6.9702e-06 3.85679e-06)
(1.50617e-05 -6.89572e-06 4.47058e-06)
(1.5383e-05 -7.14216e-06 4.23889e-06)
(1.54468e-05 -7.21461e-06 4.13201e-06)
(1.49913e-05 -6.90431e-06 4.2121e-06)
(1.50543e-05 -6.97642e-06 4.1044e-06)
(1.53592e-05 -7.20869e-06 3.88092e-06)
(1.03139e-05 -4.11364e-06 4.38768e-06)
(1.51503e-05 -6.84815e-06 4.95958e-06)
(1.03728e-05 -4.24853e-06 4.04436e-06)
(1.03162e-05 -4.16482e-06 4.18647e-06)
(1.03019e-05 -4.23194e-06 3.85839e-06)
(1.03713e-05 -4.19069e-06 4.27765e-06)
(1.52329e-05 -6.99846e-06 4.60579e-06)
(1.51585e-05 -6.90708e-06 4.73895e-06)
(1.5542e-05 -7.22429e-06 4.40184e-06)
(1.56186e-05 -7.16794e-06 4.89873e-06)
(1.51485e-05 -6.98645e-06 4.37046e-06)
(1.52248e-05 -6.93104e-06 4.86266e-06)
(1.56272e-05 -7.23595e-06 4.64055e-06)
(2.14808e-05 -1.11449e-05 4.13974e-06)
(2.15806e-05 -1.10573e-05 4.82661e-06)
(2.19237e-05 -1.1353e-05 4.53956e-06)
(2.19982e-05 -1.14291e-05 4.44613e-06)
(2.15033e-05 -1.10709e-05 4.52709e-06)
(2.15773e-05 -1.11469e-05 4.43286e-06)
(2.19013e-05 -1.14274e-05 4.15093e-06)
(1.615e-05 -7.69571e-06 3.92636e-06)
(1.62456e-05 -7.61822e-06 4.55717e-06)
(1.57771e-05 -7.38339e-06 4.26464e-06)
(1.58418e-05 -7.45618e-06 4.15858e-06)
(1.61736e-05 -7.62794e-06 4.28938e-06)
(1.57534e-05 -7.45056e-06 3.90409e-06)
(1.62391e-05 -7.70104e-06 4.18418e-06)
(2.16744e-05 -1.09981e-05 5.37756e-06)
(1.63356e-05 -7.56809e-06 5.06051e-06)
(2.17779e-05 -1.11588e-05 5.02785e-06)
(2.16882e-05 -1.10629e-05 5.14524e-06)
(2.21042e-05 -1.14337e-05 4.76384e-06)
(2.21848e-05 -1.13654e-05 5.31742e-06)
(2.16828e-05 -1.11518e-05 4.74833e-06)
(2.17633e-05 -1.1084e-05 5.2994e-06)
(2.21998e-05 -1.14404e-05 5.04538e-06)
(1.64228e-05 -7.721e-06 4.70653e-06)
(1.6345e-05 -7.6284e-06 4.83679e-06)
(1.59378e-05 -7.46549e-06 4.43209e-06)
(1.60148e-05 -7.40823e-06 4.93357e-06)
(1.60238e-05 -7.47682e-06 4.6741e-06)
(1.6336e-05 -7.71001e-06 4.4613e-06)
(1.64133e-05 -7.65186e-06 4.9672e-06)
(2.28662e-05 -1.18446e-05 5.20608e-06)
(2.84186e-05 -1.56899e-05 5.31486e-06)
(2.27453e-05 -1.1998e-05 4.17133e-06)
(2.23451e-05 -1.1637e-05 4.55129e-06)
(2.24201e-05 -1.17133e-05 4.45862e-06)
(2.28457e-05 -1.19086e-05 4.86709e-06)
(2.23228e-05 -1.17118e-05 4.16144e-06)
(2.27676e-05 -1.1923e-05 4.56231e-06)
(2.2843e-05 -1.19994e-05 4.47039e-06)
(2.82977e-05 -1.58515e-05 4.24986e-06)
(2.83995e-05 -1.57568e-05 4.96856e-06)
(2.87485e-05 -1.60769e-05 4.65264e-06)
(2.88285e-05 -1.61542e-05 4.56901e-06)
(2.8319e-05 -1.57734e-05 4.6495e-06)
(2.83988e-05 -1.58507e-05 4.56541e-06)
(2.87273e-05 -1.61551e-05 4.25274e-06)
(2.294e-05 -1.18479e-05 5.42564e-06)
(2.84948e-05 -1.56911e-05 5.54681e-06)
(2.30464e-05 -1.20096e-05 5.07759e-06)
(2.25266e-05 -1.17177e-05 4.77849e-06)
(2.26074e-05 -1.16487e-05 5.33445e-06)
(2.29546e-05 -1.19133e-05 5.19228e-06)
(2.26226e-05 -1.17241e-05 5.06194e-06)
(2.29499e-05 -1.20035e-05 4.79231e-06)
(2.30308e-05 -1.1934e-05 5.35052e-06)
(2.86104e-05 -1.58554e-05 5.2064e-06)
(2.85121e-05 -1.57584e-05 5.31199e-06)
(2.89398e-05 -1.61554e-05 4.90957e-06)
(2.90215e-05 -1.60802e-05 5.48681e-06)
(2.85099e-05 -1.58521e-05 4.90521e-06)
(2.85916e-05 -1.57771e-05 5.48177e-06)
(2.90405e-05 -1.61585e-05 5.21143e-06)
(3.52147e-05 -2.07889e-05 4.29042e-06)
(3.53189e-05 -2.06839e-05 5.05344e-06)
(3.5654e-05 -2.09895e-05 4.78032e-06)
(3.57329e-05 -2.10726e-05 4.66854e-06)
(3.52292e-05 -2.07004e-05 4.70949e-06)
(3.53282e-05 -2.07905e-05 4.63002e-06)
(3.5627e-05 -2.10793e-05 4.31747e-06)
(2.95865e-05 -1.67642e-05 4.25747e-06)
(2.96884e-05 -1.66688e-05 4.97841e-06)
(2.9178e-05 -1.6381e-05 4.65538e-06)
(2.92583e-05 -1.64583e-05 4.57218e-06)
(2.96076e-05 -1.66857e-05 4.65775e-06)
(2.91569e-05 -1.64593e-05 4.25527e-06)
(2.96881e-05 -1.67631e-05 4.57495e-06)
(3.5373e-05 -2.05939e-05 5.6021e-06)
(2.97838e-05 -1.66023e-05 5.55859e-06)
(3.55295e-05 -2.07885e-05 5.2544e-06)
(3.54292e-05 -2.06869e-05 5.37854e-06)
(3.58395e-05 -2.10735e-05 4.99071e-06)
(3.59093e-05 -2.09936e-05 5.54417e-06)
(3.5441e-05 -2.07909e-05 4.9729e-06)
(3.54998e-05 -2.07033e-05 5.52567e-06)
(3.59373e-05 -2.1078e-05 5.27109e-06)
(2.99008e-05 -1.67668e-05 5.21986e-06)
(2.98015e-05 -1.66699e-05 5.32397e-06)
(2.93698e-05 -1.64594e-05 4.91343e-06)
(2.94515e-05 -1.63839e-05 5.49125e-06)
(2.94707e-05 -1.64624e-05 5.21591e-06)
(2.97997e-05 -1.6764e-05 4.91684e-06)
(2.98815e-05 -1.66882e-05 5.49516e-06)
(3.55339e-05 -2.20272e-05 4.40199e-08)
(3.5823e-05 -2.23132e-05 -2.78078e-07)
(3.54238e-05 -2.20242e-05 -2.78005e-07)
(3.59299e-05 -2.23151e-05 3.89277e-08)
(1.95174e-05 -9.62037e-06 5.07129e-06)
(1.82849e-05 -8.82629e-06 5.00461e-06)
(3.31417e-05 -1.90526e-05 5.33594e-06)
(3.18546e-05 -1.81309e-05 5.33403e-06)
(1.20483e-05 -5.07639e-06 4.47609e-06)
(1.31643e-05 -5.70946e-06 4.599e-06)
(1.19352e-05 -5.19178e-06 3.62823e-06)
(1.20248e-05 -5.12661e-06 4.18944e-06)
(1.23278e-05 -5.34016e-06 3.9945e-06)
(1.23842e-05 -5.40941e-06 3.88177e-06)
(1.19597e-05 -5.13186e-06 3.95892e-06)
(1.23034e-05 -5.40089e-06 3.66042e-06)
(1.20149e-05 -5.20065e-06 3.84557e-06)
(1.30496e-05 -5.83072e-06 3.7216e-06)
(1.31411e-05 -5.76184e-06 4.30372e-06)
(1.26992e-05 -5.55236e-06 4.02892e-06)
(1.27566e-05 -5.62207e-06 3.9168e-06)
(1.30739e-05 -5.76841e-06 4.06221e-06)
(1.26749e-05 -5.61389e-06 3.69152e-06)
(1.31322e-05 -5.83857e-06 3.95078e-06)
(1.21088e-05 -5.08683e-06 4.63436e-06)
(1.3227e-05 -5.71898e-06 4.76612e-06)
(1.21775e-05 -5.22847e-06 4.28483e-06)
(1.21135e-05 -5.14133e-06 4.42444e-06)
(1.24713e-05 -5.42205e-06 4.11934e-06)
(1.25442e-05 -5.3738e-06 4.57489e-06)
(1.2101e-05 -5.21367e-06 4.07881e-06)
(1.21734e-05 -5.16653e-06 4.52864e-06)
(1.25489e-05 -5.43649e-06 4.32923e-06)
(1.33012e-05 -5.86417e-06 4.4143e-06)
(1.32331e-05 -5.77527e-06 4.55175e-06)
(1.28448e-05 -5.63432e-06 4.15865e-06)
(1.29183e-05 -5.58498e-06 4.61984e-06)
(1.32215e-05 -5.85044e-06 4.19683e-06)
(1.32955e-05 -5.80003e-06 4.6635e-06)
(1.29235e-05 -5.64841e-06 4.37235e-06)
(1.93974e-05 -9.76587e-06 4.07334e-06)
(1.9496e-05 -9.68158e-06 4.74206e-06)
(1.90081e-05 -9.42578e-06 4.43574e-06)
(1.90786e-05 -9.5007e-06 4.33654e-06)
(1.94203e-05 -9.69388e-06 4.45302e-06)
(1.89851e-05 -9.4973e-06 4.05782e-06)
(1.94915e-05 -9.76902e-06 4.3547e-06)
(1.81655e-05 -8.96813e-06 4.02444e-06)
(1.82631e-05 -8.88618e-06 4.68023e-06)
(1.85975e-05 -9.16031e-06 4.41758e-06)
(1.86674e-05 -9.23501e-06 4.31754e-06)
(1.81887e-05 -8.89758e-06 4.39853e-06)
(1.85744e-05 -9.23136e-06 4.04154e-06)
(1.82579e-05 -8.97205e-06 4.29761e-06)
(1.95887e-05 -9.62551e-06 5.27754e-06)
(1.83549e-05 -8.83218e-06 5.20472e-06)
(1.96866e-05 -9.78382e-06 4.92547e-06)
(1.96009e-05 -9.68882e-06 5.04768e-06)
(1.91807e-05 -9.50737e-06 4.63636e-06)
(1.926e-05 -9.44359e-06 5.16949e-06)
(1.95942e-05 -9.77538e-06 4.65738e-06)
(1.96738e-05 -9.71088e-06 5.19383e-06)