/*--------------------------------*- C++ -*----------------------------------*\
| =========                 |                                                 |
| \\      /  F ield         | OpenFOAM: The Open Source CFD Toolbox           |
|  \\    /   O peration     | Version:  2012                                  |
|   \\  /    A nd           | Website:  www.openfoam.com                      |
|    \\/     M anipulation  |                                                 |
\*---------------------------------------------------------------------------*/
FoamFile
{
    version     2.0;
    format      ascii;
    class       volSymmTensorField;
    location    "0.107/solid";
    object      epsilon;
}
// * * * * * * * * * * * * * * * * * * * * * * * * * * * * * * * * * * * * * //

dimensions      [0 0 0 0 0 0 0];


internalField   nonuniform List<symmTensor> 
3125
(
(-1.5063e-06 -3.93932e-08 1.00083e-07 -1.56344e-06 -1.02541e-07 5.05355e-06)
(-3.00865e-06 -7.18397e-08 1.18189e-07 -3.12036e-06 -1.02076e-07 1.02158e-05)
(-1.69899e-08 1.35932e-09 -6.50648e-09 -3.35324e-08 1.0723e-09 3.07611e-08)
(-3.63696e-07 -8.13574e-09 5.61352e-08 -3.71478e-07 -6.40897e-08 1.10834e-06)
(-3.12217e-06 -7.38768e-08 1.18612e-07 -3.23741e-06 -1.0114e-07 1.06045e-05)
(4.59624e-07 2.29168e-08 2.82512e-06 6.35254e-07 5.56403e-08 -1.81634e-06)
(7.05698e-07 3.19233e-08 3.21787e-06 9.00769e-07 8.23201e-08 -2.6675e-06)
(-3.13563e-06 2.53601e-08 3.28393e-07 -2.99093e-06 -1.01075e-07 1.01173e-05)
(-3.28892e-06 -2.95586e-08 1.0378e-07 -3.27444e-06 5.69165e-08 1.09225e-05)
(2.22709e-07 4.78455e-09 2.90172e-06 1.72889e-07 -1.65431e-07 -7.4112e-07)
(4.07789e-07 3.52288e-09 3.32915e-06 3.13784e-07 -1.70439e-07 -1.30545e-06)
(-3.25795e-06 2.2511e-09 3.16047e-07 -3.2176e-06 4.93201e-08 1.0667e-05)
(-1.5183e-06 1.8409e-08 2.59913e-07 -1.4322e-06 -1.03912e-07 4.82449e-06)
(4.25597e-07 2.15125e-08 2.75442e-06 5.9769e-07 5.15345e-08 -1.69784e-06)
(-3.02224e-06 2.49134e-08 3.25118e-07 -2.88138e-06 -1.02164e-07 9.74592e-06)
(2.04054e-07 1.11121e-08 2.1529e-06 3.4758e-07 2.50585e-08 -9.20461e-07)
(-1.60149e-06 -1.91488e-08 6.85631e-08 -1.58502e-06 1.76336e-08 5.23552e-06)
(-3.17124e-06 -2.90916e-08 1.01687e-07 -3.15652e-06 5.38438e-08 1.05262e-05)
(-1.58809e-06 -1.79715e-09 2.29758e-07 -1.5624e-06 1.02855e-08 5.13917e-06)
(1.99674e-07 4.75318e-09 2.82718e-06 1.57139e-07 -1.63937e-07 -6.73233e-07)
(-3.14159e-06 2.05388e-09 3.1099e-07 -3.10259e-06 4.63123e-08 1.02823e-05)
(6.45763e-08 2.67696e-09 2.20368e-06 7.64668e-08 -1.43114e-07 -2.90687e-07)
(-1.42095e-06 -3.71491e-08 9.82983e-08 -1.4746e-06 -1.01422e-07 4.75957e-06)
(-4.10951e-07 -9.45982e-09 5.95759e-08 -4.20816e-07 -6.76426e-08 1.27172e-06)
(-1.43278e-06 1.80049e-08 2.54229e-07 -1.35009e-06 -1.02848e-07 4.54485e-06)
(2.00447e-08 6.68325e-10 1.23751e-06 1.24701e-07 6.83714e-09 -2.49581e-07)
(1.75864e-07 9.64424e-09 2.05153e-06 3.14896e-07 2.19259e-08 -8.20404e-07)
(-4.19781e-07 1.27793e-08 1.4917e-07 -3.79371e-07 -6.8965e-08 1.2341e-06)
(-1.51127e-06 -1.82308e-08 6.6385e-08 -1.49531e-06 1.58303e-08 4.93271e-06)
(-4.38958e-07 -6.58335e-09 3.38514e-08 -4.28083e-07 -4.59495e-10 1.32594e-06)
(-1.49921e-06 -2.07483e-09 2.23605e-07 -1.474e-06 8.6625e-09 4.84425e-06)
(-2.60472e-08 -1.76297e-09 1.26573e-06 3.54241e-08 -8.982e-08 -4.50254e-08)
(4.92445e-08 2.23206e-09 2.09954e-06 6.87894e-08 -1.3832e-07 -2.49064e-07)
(-4.40435e-07 -6.46089e-09 1.24093e-07 -4.19068e-07 -5.36729e-09 1.32833e-06)
(-5.1196e-08 8.72461e-09 1.14121e-09 -1.63895e-08 7.80333e-10 3.53142e-08)
(5.00439e-09 -2.56044e-10 1.10781e-06 1.04858e-07 5.9229e-09 -1.91822e-07)
(-3.72334e-07 1.25087e-08 1.40332e-07 -3.34116e-07 -6.53276e-08 1.07929e-06)
(-1.65061e-08 -4.00437e-09 -7.38575e-09 -3.41269e-08 -2.537e-09 3.06168e-08)
(-3.88344e-07 -5.80004e-09 3.1461e-08 -3.78084e-07 -9.72275e-10 1.15636e-06)
(-5.04472e-08 -8.00194e-09 1.77627e-10 -1.61214e-08 -3.77564e-09 3.5419e-08)
(-3.2069e-08 -2.26267e-09 1.13301e-06 3.31585e-08 -8.06539e-08 -2.82816e-08)
(-3.90647e-07 -6.68607e-09 1.16227e-07 -3.69367e-07 -5.5315e-09 1.16277e-06)
(-2.15807e-06 -5.45638e-08 1.10734e-07 -2.24029e-06 -1.05888e-07 7.29645e-06)
(-2.25875e-06 -5.66474e-08 1.11855e-07 -2.34437e-06 -1.05895e-07 7.64181e-06)
(-9.71972e-08 2.37405e-10 2.31592e-08 -9.25168e-08 -2.98403e-08 1.88153e-07)
(-1.18695e-07 -3.00313e-10 2.78488e-08 -1.14824e-07 -3.44819e-08 2.61686e-07)
(-4.0787e-06 -9.00982e-08 1.21077e-07 -4.22308e-06 -8.95664e-08 1.38783e-05)
(-3.95449e-06 -8.80661e-08 1.21148e-07 -4.0954e-06 -9.12166e-08 1.34542e-05)
(-2.29581e-06 3.39402e-08 2.23327e-06 -2.11424e-06 -7.43579e-08 7.44045e-06)
(-4.09151e-06 2.8627e-08 3.49097e-07 -3.91618e-06 -8.84847e-08 1.32492e-05)
(-1.94314e-06 2.97854e-08 2.13946e-06 -1.7618e-06 -8.17733e-08 6.24556e-06)
(5.63763e-07 2.69729e-08 3.01489e-06 7.48918e-07 6.7807e-08 -2.17781e-06)
(-1.01506e-06 2.30196e-08 2.30043e-06 -8.36091e-07 -5.1925e-08 3.11636e-06)
(-1.22665e-06 2.70643e-08 2.44881e-06 -1.04653e-06 -4.49505e-08 3.83623e-06)
(-1.53637e-06 3.23396e-08 2.60489e-06 -1.35683e-06 -3.45022e-08 4.88859e-06)
(5.99005e-07 2.82698e-08 3.07091e-06 7.86945e-07 7.16593e-08 -2.2997e-06)
(-1.30129e-06 2.84328e-08 2.49222e-06 -1.12104e-06 -4.2405e-08 4.08995e-06)
(-3.96759e-06 2.82435e-08 3.46855e-07 -3.79613e-06 -9.02934e-08 1.28431e-05)
(-1.50969e-06 2.43795e-08 1.97828e-06 -1.33053e-06 -8.94972e-08 4.77537e-06)
(-1.83058e-06 2.84168e-08 2.10311e-06 -1.64959e-06 -8.39734e-08 5.864e-06)
(-4.27468e-06 -3.17169e-08 1.21277e-07 -4.26637e-06 8.25087e-08 1.42518e-05)
(-4.14707e-06 -3.15066e-08 1.19315e-07 -4.13806e-06 7.90932e-08 1.38214e-05)
(-2.6865e-06 -2.53398e-08 2.31346e-06 -2.71965e-06 3.10038e-08 8.90761e-06)
(-4.23531e-06 3.45968e-09 3.52663e-07 -4.1822e-06 7.533e-08 1.38946e-05)
(-2.30258e-06 -2.18791e-08 2.19354e-06 -2.31868e-06 1.86424e-08 7.59519e-06)
(2.97037e-07 4.59785e-09 3.10459e-06 2.26856e-07 -1.68449e-07 -9.64414e-07)
(-1.32159e-06 -8.87292e-09 2.3427e-06 -1.32801e-06 -4.26937e-08 4.29253e-06)
(-1.57271e-06 -1.06762e-08 2.51095e-06 -1.60215e-06 -3.50875e-08 5.1646e-06)
(-1.92493e-06 -1.37614e-08 2.6992e-06 -1.98166e-06 -2.39347e-08 6.38157e-06)
(3.23487e-07 4.44954e-09 3.16554e-06 2.47041e-07 -1.69086e-07 -1.04518e-06)
(-1.65912e-06 -1.12998e-08 2.56179e-06 -1.69577e-06 -3.23364e-08 5.46372e-06)
(-4.10896e-06 3.35843e-09 3.48202e-07 -4.05768e-06 7.19514e-08 1.34776e-05)
(-1.81725e-06 -1.78308e-08 2.00332e-06 -1.80721e-06 2.7658e-09 5.93039e-06)
(-2.17811e-06 -2.07524e-08 2.1493e-06 -2.18803e-06 1.45595e-08 7.16889e-06)
(-2.17118e-06 2.14264e-08 2.94489e-07 -2.06033e-06 -1.068e-07 6.96013e-06)
(-7.96248e-07 1.49228e-08 1.52219e-06 -6.26058e-07 -8.99187e-08 2.34879e-06)
(-1.03752e-06 1.81873e-08 1.7149e-06 -8.63494e-07 -9.27151e-08 3.17064e-06)
(-9.48873e-07 2.17013e-08 2.24475e-06 -7.70549e-07 -5.39164e-08 2.89099e-06)
(3.26445e-07 1.71128e-08 2.51969e-06 4.86996e-07 3.94788e-08 -1.35131e-06)
(-7.64238e-07 1.77126e-08 2.05848e-06 -5.88683e-07 -5.83291e-08 2.26162e-06)
(-2.2718e-06 2.18602e-08 2.98926e-07 -2.15724e-06 -1.06708e-07 7.28941e-06)
(-1.4087e-06 2.31056e-08 1.93124e-06 -1.23037e-06 -9.08335e-08 4.43248e-06)
(-1.12519e-06 1.94007e-08 1.77328e-06 -9.49954e-07 -9.28203e-08 3.46896e-06)
(-5.52414e-07 1.27599e-08 1.7641e-06 -3.81799e-07 -5.98044e-08 1.53812e-06)
(2.94622e-07 1.56283e-08 2.43375e-06 4.51062e-07 3.56908e-08 -1.23967e-06)
(-7.07527e-07 1.64584e-08 1.98987e-06 -5.33028e-07 -5.92243e-08 2.06803e-06)
(-2.28582e-06 -2.44809e-08 8.39533e-08 -2.26889e-06 3.23958e-08 7.54041e-06)
(-2.39087e-06 -2.50826e-08 8.6084e-08 -2.37405e-06 3.48973e-08 7.89438e-06)
(-2.26487e-06 1.63427e-10 2.6943e-07 -2.23446e-06 2.48057e-08 7.38178e-06)
(-9.76314e-07 -1.16176e-08 1.51125e-06 -9.05312e-07 -1.96517e-08 3.02431e-06)
(-1.26748e-06 -1.36814e-08 1.71379e-06 -1.22009e-06 -1.32865e-08 4.03406e-06)
(-1.24096e-06 -8.29795e-09 2.28117e-06 -1.23927e-06 -4.49233e-08 4.01155e-06)
(1.36033e-07 4.17159e-09 2.58218e-06 1.16406e-07 -1.57463e-07 -4.89481e-07)
(-1.00999e-06 -7.06036e-09 2.07999e-06 -9.82845e-07 -5.00991e-08 3.2038e-06)
(-2.36884e-06 4.49909e-10 2.75047e-07 -2.33748e-06 2.71848e-08 7.72595e-06)
(-1.7017e-06 -1.68716e-08 1.95006e-06 -1.68454e-06 -9.11865e-10 5.53279e-06)
(-1.37148e-06 -1.43465e-08 1.77645e-06 -1.33185e-06 -1.05669e-08 4.39372e-06)
(-7.32438e-07 -5.83354e-09 1.77142e-06 -6.70223e-07 -5.27997e-08 2.22694e-06)
(1.16701e-07 3.90989e-09 2.49316e-06 1.04958e-07 -1.54511e-07 -4.34876e-07)
(-9.37085e-07 -6.63124e-09 2.00722e-06 -9.01246e-07 -5.12925e-08 2.94786e-06)
(-8.83443e-07 -2.32183e-08 8.27365e-08 -9.14639e-07 -8.95728e-08 2.9054e-06)
(-8.15666e-07 -2.12243e-08 8.02012e-08 -8.43814e-07 -8.73335e-08 2.67126e-06)
(-7.23338e-07 1.39467e-08 1.45197e-06 -5.54496e-07 -8.80158e-08 2.10021e-06)
(-8.93929e-07 1.52266e-08 2.1044e-07 -8.33069e-07 -9.10906e-08 2.78322e-06)
(-5.28037e-07 1.10834e-08 1.22268e-06 -3.63659e-07 -7.92616e-08 1.43436e-06)
(7.65927e-08 4.16776e-09 1.60799e-06 1.96533e-07 1.17121e-08 -4.62198e-07)
(-2.49719e-07 4.74834e-09 1.00951e-06 -9.57373e-08 -4.27707e-08 5.14216e-07)
(-3.44944e-07 7.28341e-09 1.3193e-06 -1.82834e-07 -5.24992e-08 8.31041e-07)
(-5.0583e-07 1.16246e-08 1.6821e-06 -3.36623e-07 -5.92044e-08 1.37887e-06)
(9.90971e-08 5.47032e-09 1.72454e-06 2.23997e-07 1.38846e-08 -5.44622e-07)
(-3.81398e-07 8.34395e-09 1.4153e-06 -2.17189e-07 -5.4833e-08 9.54505e-07)
(-8.25923e-07 1.48748e-08 2.0341e-07 -7.67948e-07 -8.88414e-08 2.56096e-06)
(-3.23212e-07 8.19605e-09 8.70636e-07 -1.67223e-07 -6.0416e-08 7.41978e-07)
(-4.7086e-07 1.02821e-08 1.13984e-06 -3.08184e-07 -7.53762e-08 1.23991e-06)
(-9.42543e-07 -1.26201e-08 5.14894e-08 -9.28493e-07 6.34881e-09 3.0187e-06)
(-8.70352e-07 -1.17416e-08 4.92696e-08 -8.56895e-07 5.21172e-09 2.77664e-06)
(-8.86834e-07 -1.09541e-08 1.43868e-06 -8.08028e-07 -2.10805e-08 2.71315e-06)
(-9.37291e-07 -4.2443e-09 1.80143e-07 -9.14615e-07 -5.55581e-11 2.97938e-06)
(-6.43552e-07 -9.51493e-09 1.20531e-06 -5.42471e-07 -2.30709e-08 1.86589e-06)
(-1.03196e-09 4.19299e-11 1.64488e-06 4.5804e-08 -1.13871e-07 -1.13795e-07)
(-3.10219e-07 -4.9326e-09 1.00537e-06 -1.91251e-07 -3.89753e-08 7.40783e-07)
(-4.45788e-07 -5.16184e-09 1.31711e-06 -3.4348e-07 -4.73409e-08 1.2138e-06)
(-6.69343e-07 -5.56505e-09 1.68679e-06 -5.98532e-07 -5.2542e-08 2.00405e-06)
(9.80051e-09 6.44277e-10 1.76423e-06 5.05047e-08 -1.20779e-07 -1.42972e-07)
(-4.97189e-07 -5.15144e-09 1.41439e-06 -4.02103e-07 -4.9271e-08 1.39514e-06)
(-8.66266e-07 -4.53365e-09 1.73333e-07 -8.43822e-07 -9.40691e-10 2.74338e-06)
(-3.83094e-07 -7.8375e-09 8.53588e-07 -2.59434e-07 -2.07301e-08 9.62948e-07)
(-5.71375e-07 -9.01522e-09 1.12191e-06 -4.63586e-07 -2.3089e-08 1.61457e-06)
(-1.03965e-07 1.11318e-08 5.78292e-08 -7.80593e-08 -3.05249e-08 2.05078e-07)
(-2.32147e-07 1.66367e-09 2.7678e-08 7.1659e-08 -4.30039e-09 7.18441e-08)
(-1.59834e-07 5.59716e-09 3.51674e-07 -1.3954e-08 -2.6497e-08 1.97173e-07)
(-2.22322e-07 4.13172e-09 8.98977e-07 -7.19342e-08 -3.86346e-08 4.25868e-07)
(-3.22871e-08 -2.15917e-09 7.04348e-07 6.12876e-08 3.84495e-09 -6.20708e-08)
(-1.54876e-07 2.40807e-09 5.48196e-07 -1.34326e-08 -2.46582e-08 2.08881e-07)
(-1.25679e-07 1.12501e-08 6.95497e-08 -9.88503e-08 -3.52482e-08 2.75658e-07)
(-2.81728e-07 7.68749e-09 7.73591e-07 -1.28823e-07 -5.43029e-08 6.04696e-07)
(-1.8165e-07 6.15263e-09 4.61089e-07 -3.78822e-08 -3.37998e-08 2.78041e-07)
(-2.33716e-07 -9.05792e-10 3.26827e-08 7.50257e-08 -4.3296e-09 6.96501e-08)
(-4.53324e-08 -2.65511e-09 5.64136e-07 5.2919e-08 3.21668e-09 -3.29422e-08)
(-1.41496e-07 1.97734e-09 4.26498e-07 3.78335e-09 -1.97041e-08 1.52116e-07)
(-1.02324e-07 -1.98438e-09 9.97167e-09 -9.47866e-08 -4.65528e-09 1.9868e-07)
(-1.25311e-07 -2.3263e-09 1.32188e-08 -1.17613e-07 -3.82077e-09 2.7554e-07)
(-1.07807e-07 -8.53528e-09 4.48135e-08 -8.67292e-08 -6.92825e-09 2.23817e-07)
(-2.34109e-07 -2.66877e-09 2.73425e-08 6.9527e-08 -2.47044e-09 7.26665e-08)
(-1.74002e-07 -6.78618e-09 3.43026e-07 -3.48029e-08 -1.15919e-08 2.45176e-07)
(-2.71293e-07 -4.76731e-09 8.94714e-07 -1.48871e-07 -3.53895e-08 6.07857e-07)
(-4.80222e-08 -2.75132e-09 7.208e-07 3.10878e-08 -5.12245e-08 4.98667e-09)
(-1.76446e-07 -4.65189e-09 5.45261e-07 -4.59246e-08 -2.3193e-08 2.84907e-07)
(-1.30855e-07 -8.27647e-09 5.52474e-08 -1.09917e-07 -6.51572e-09 3.00188e-07)
(-3.30025e-07 -7.39895e-09 7.57621e-07 -2.0298e-07 -1.92372e-08 7.81801e-07)
(-2.02451e-07 -6.7143e-09 4.50454e-07 -6.90398e-08 -1.36787e-08 3.51004e-07)
(-2.36114e-07 -3.21707e-09 3.25595e-08 7.28465e-08 -2.8382e-09 7.0619e-08)
(-5.59668e-08 -2.55372e-09 5.78134e-07 3.2455e-08 -4.14475e-08 1.12084e-08)
(-1.56403e-07 -4.56877e-09 4.24258e-07 -1.82182e-08 -1.90133e-08 2.02614e-07)
(-1.77408e-06 -4.58173e-08 1.05179e-07 -1.84185e-06 -1.04809e-07 5.97616e-06)
(-2.6776e-06 -6.54158e-08 1.15849e-07 -2.77811e-06 -1.04488e-07 9.08037e-06)
(-4.81211e-08 1.84934e-09 2.25843e-09 -4.20969e-08 -9.31156e-09 2.86942e-08)
(-2.39458e-07 -4.30842e-09 4.48874e-08 -2.41529e-07 -5.21763e-08 6.78953e-07)
(-4.58621e-06 -9.75856e-08 1.20783e-07 -4.7447e-06 -8.1806e-08 1.56126e-05)
(-3.47064e-06 -8.01236e-08 1.20178e-07 -3.59713e-06 -9.73706e-08 1.1799e-05)
(-4.5983e-06 3.01466e-08 3.56473e-07 -4.40775e-06 -8.01715e-08 1.49108e-05)
(-3.50786e-06 5.98771e-08 1.32065e-06 -3.5076e-06 -9.2807e-08 1.16408e-05)
(4.94018e-07 2.43051e-08 2.89207e-06 6.73005e-07 5.97461e-08 -1.93596e-06)
(-2.06538e-08 1.83662e-08 2.72469e-06 1.59361e-07 2.56014e-08 -1.75759e-07)
(-1.92223e-08 1.95743e-08 2.7887e-06 1.6297e-07 2.91875e-08 -1.78958e-07)
(-2.10058e-08 2.645e-08 3.09894e-06 1.70274e-07 4.98226e-08 -1.59803e-07)
(6.70002e-07 3.0761e-08 3.17233e-06 8.62882e-07 7.89381e-08 -2.54465e-06)
(-1.94632e-08 2.53768e-08 3.05573e-06 1.708e-07 4.66284e-08 -1.67603e-07)
(-3.48415e-06 2.66322e-08 3.37054e-07 -3.32807e-06 -9.69663e-08 1.12592e-05)
(-2.41278e-06 4.52085e-08 1.1813e-06 -2.38409e-06 -1.08216e-07 7.92819e-06)
(-2.685e-06 4.38899e-08 1.20047e-06 -2.65741e-06 -6.97124e-08 8.81126e-06)
(-4.79441e-06 -3.19021e-08 1.29799e-07 -4.79062e-06 9.61561e-08 1.60094e-05)
(-3.64909e-06 -3.06734e-08 1.10598e-07 -3.63662e-06 6.61667e-08 1.21393e-05)
(-4.7511e-06 3.80833e-09 3.69266e-07 -4.69027e-06 8.92399e-08 1.55964e-05)
(-3.70659e-06 -2.9819e-08 1.33121e-06 -3.65208e-06 3.13983e-08 1.22757e-05)
(2.46635e-07 4.79941e-09 2.97277e-06 1.89759e-07 -1.66656e-07 -8.12309e-07)
(-2.87146e-07 -1.15669e-09 2.795e-06 -3.22391e-07 -1.30788e-07 9.40858e-07)
(-2.97544e-07 -1.36652e-09 2.86382e-06 -3.40589e-07 -1.30965e-07 9.88043e-07)
(-3.57019e-07 -3.79522e-09 3.21006e-06 -4.41406e-07 -1.28947e-07 1.25565e-06)
(3.78849e-07 3.9086e-09 3.27773e-06 2.90541e-07 -1.70075e-07 -1.21576e-06)
(-3.4761e-07 -3.23373e-09 3.15997e-06 -4.25678e-07 -1.29496e-07 1.21321e-06)
(-3.61504e-06 2.7946e-09 3.30208e-07 -3.57046e-06 5.87993e-08 1.18472e-05)
(-2.57072e-06 -1.99061e-08 1.16684e-06 -2.50079e-06 -1.27084e-09 8.43902e-06)
(-2.85313e-06 -1.76862e-08 1.20793e-06 -2.78247e-06 1.79489e-08 9.35681e-06)
(-1.78666e-06 1.97059e-08 2.75641e-07 -1.69025e-06 -1.06021e-07 5.70239e-06)
(-1.21211e-06 2.70309e-08 9.03535e-07 -1.1445e-06 -1.06226e-07 3.84227e-06)
(-1.41867e-06 2.5133e-08 9.54562e-07 -1.35515e-06 -8.86179e-08 4.52006e-06)
(-2.25682e-08 1.71541e-08 2.65707e-06 1.55119e-07 2.20842e-08 -1.70825e-07)
(3.92005e-07 2.00604e-08 2.67999e-06 5.60382e-07 4.74519e-08 -1.58066e-06)
(-2.49426e-08 1.59143e-08 2.58576e-06 1.50243e-07 1.86367e-08 -1.64216e-07)
(-2.69102e-06 2.36219e-08 3.14805e-07 -2.56156e-06 -1.04892e-07 8.66173e-06)
(-2.33922e-06 3.89136e-08 1.1491e-06 -2.30272e-06 -7.70849e-08 7.64107e-06)
(-2.08145e-06 4.04504e-08 1.12209e-06 -2.04305e-06 -1.10634e-07 6.80279e-06)
(-4.65667e-08 8.55729e-09 2.07941e-06 1.11013e-07 1.34041e-09 -9.63859e-08)
(2.33319e-07 1.26116e-08 2.2504e-06 3.81238e-07 2.84171e-08 -1.02392e-06)
(-4.23334e-08 9.7682e-09 2.1733e-06 1.18463e-07 3.7171e-09 -1.10331e-07)
(-1.88331e-06 -2.15506e-08 7.51372e-08 -1.86643e-06 2.34101e-08 6.1849e-06)
(-2.82762e-06 -2.76298e-08 9.49097e-08 -2.81147e-06 4.53238e-08 9.36666e-06)
(-1.86677e-06 -9.14801e-10 2.47057e-07 -1.83939e-06 1.59681e-08 6.06324e-06)
(-1.30144e-06 -1.04073e-08 8.72786e-07 -1.21293e-06 -2.81147e-08 4.1378e-06)
(-1.52253e-06 -9.57234e-09 9.35356e-07 -1.4321e-06 -1.66166e-08 4.85453e-06)
(-2.76663e-07 -9.21673e-10 2.72279e-06 -3.03913e-07 -1.30347e-07 8.93185e-07)
(1.77545e-07 4.61501e-09 2.74911e-06 1.42476e-07 -1.62138e-07 -6.08646e-07)
(-2.66132e-07 -7.94406e-10 2.64726e-06 -2.85204e-07 -1.29639e-07 8.45146e-07)
(-2.80104e-06 1.41598e-09 2.96054e-07 -2.76569e-06 3.76171e-08 9.15649e-06)
(-2.49293e-06 -1.53305e-08 1.14806e-06 -2.41677e-06 7.53611e-09 8.13845e-06)
(-2.22328e-06 -1.70901e-08 1.10154e-06 -2.14848e-06 -1.0278e-08 7.26347e-06)
(-2.03656e-07 -8.06524e-10 2.12041e-06 -1.71552e-07 -1.17659e-07 5.57993e-07)
(8.09578e-08 3.14745e-09 2.30398e-06 8.50207e-08 -1.47383e-07 -3.35502e-07)
(-2.13825e-07 -6.80844e-10 2.21718e-06 -1.90264e-07 -1.20672e-07 6.04834e-07)
(-1.17741e-06 -3.10292e-08 9.21144e-08 -1.22113e-06 -9.71688e-08 3.92026e-06)
(-5.68746e-07 -1.43125e-08 6.91244e-08 -5.86105e-07 -7.71541e-08 1.81839e-06)
(-1.15636e-06 2.11749e-08 8.75455e-07 -1.08391e-06 -8.82129e-08 3.6286e-06)
(-1.1887e-06 1.67859e-08 2.36494e-07 -1.11579e-06 -9.8676e-08 3.74705e-06)
(-9.69226e-07 2.29649e-08 8.16263e-07 -8.92526e-07 -1.00104e-07 3.01305e-06)
(3.69653e-08 1.78962e-09 1.36428e-06 1.46692e-07 8.11073e-09 -3.14199e-07)
(-7.47974e-08 3.74835e-10 1.19319e-06 5.18871e-08 -7.0949e-09 1.45357e-08)
(-7.29546e-08 1.21055e-09 1.31666e-06 5.82862e-08 -7.18648e-09 3.62472e-09)
(-5.09089e-08 7.40633e-09 1.98179e-06 1.03383e-07 -7.43437e-10 -8.18525e-08)
(1.48874e-07 8.18464e-09 1.94634e-06 2.83281e-07 1.90196e-08 -7.24132e-07)
(-5.5259e-08 6.24744e-09 1.88031e-06 9.56103e-08 -2.56776e-09 -6.69085e-08)
(-5.78304e-07 1.35863e-08 1.73779e-07 -5.30949e-07 -7.86011e-08 1.75204e-06)
(-4.04959e-07 1.27816e-08 5.0508e-07 -3.0598e-07 -6.8363e-08 1.08265e-06)
(-5.25949e-07 1.11467e-08 5.90693e-07 -4.30269e-07 -7.15042e-08 1.48272e-06)
(-1.25411e-06 -1.5852e-08 6.00085e-08 -1.23872e-06 1.13339e-08 4.06705e-06)
(-6.07686e-07 -8.77375e-09 4.05268e-08 -5.95584e-07 1.40593e-09 1.89334e-06)
(-1.24294e-06 -8.0666e-09 8.52963e-07 -1.14811e-06 -2.16626e-08 3.9064e-06)
(-1.24494e-06 -2.98278e-09 2.05565e-07 -1.22105e-06 4.37245e-09 4.00101e-06)
(-1.04122e-06 -8.68438e-09 7.85146e-07 -9.48418e-07 -3.0282e-08 3.25287e-06)
(-1.89269e-08 -1.13534e-09 1.39548e-06 3.82829e-08 -9.84381e-08 -6.48402e-08)
(-1.27584e-07 -2.58113e-09 1.21384e-06 -4.15373e-08 -7.53514e-08 2.28919e-07)
(-1.36688e-07 -2.2662e-09 1.33962e-06 -5.50661e-08 -8.2478e-08 2.64363e-07)
(-1.93631e-07 -8.82889e-10 2.01988e-06 -1.53185e-07 -1.14119e-07 5.1205e-07)
(3.49906e-08 1.69826e-09 1.99158e-06 6.19416e-08 -1.32996e-07 -2.10584e-07)
(-1.83775e-07 -1.06419e-09 1.91574e-06 -1.35216e-07 -1.10125e-07 4.67149e-07)
(-6.06911e-07 -5.68776e-09 1.45869e-07 -5.85258e-07 -4.04958e-09 1.88195e-06)
(-4.31408e-07 -4.94183e-09 4.80696e-07 -3.28925e-07 -2.64362e-08 1.1754e-06)
(-5.64031e-07 -5.01045e-09 5.67279e-07 -4.5928e-07 -2.56041e-08 1.60462e-06)
(-5.38715e-08 1.11456e-08 8.60269e-09 -2.87041e-08 -9.73867e-09 4.47267e-08)
(-1.64962e-07 1.14294e-08 4.06518e-09 3.9551e-08 -2.43432e-09 5.72068e-08)
(-1.25764e-07 6.19016e-09 6.74288e-08 -2.99032e-09 -1.29884e-08 1e-07)
(-7.59073e-08 -2.96442e-10 1.06668e-06 4.62097e-08 -6.6502e-09 2.33383e-08)
(-8.34754e-09 -1.07282e-09 9.75604e-07 8.74852e-08 5.2614e-09 -1.41275e-07)
(-7.6433e-08 -8.7117e-10 9.37357e-07 4.14803e-08 -5.96992e-09 2.97857e-08)
(-2.47537e-07 1.19069e-08 1.12166e-07 -2.15057e-07 -5.3207e-08 6.72402e-07)
(-3.735e-07 9.14257e-09 4.76685e-07 -2.72696e-07 -6.04441e-08 9.65414e-07)
(-2.76942e-07 1.03037e-08 3.80159e-07 -1.74604e-07 -5.2642e-08 6.47704e-07)
(-1.8888e-07 -9.00764e-09 4.83095e-08 7.33308e-08 -3.10129e-09 5.03067e-08)
(-1.21076e-07 -2.67541e-09 2.34731e-07 4.95723e-08 -1.20616e-09 3.35323e-08)
(-4.82263e-08 -2.85005e-10 -4.1469e-09 -4.33864e-08 -6.7963e-09 2.96286e-08)
(-2.55428e-07 -4.16663e-09 2.43652e-08 -2.46056e-07 -1.92681e-09 7.1002e-07)
(-5.403e-08 -9.70891e-09 2.03275e-09 -3.02916e-08 -7.73309e-09 4.69342e-08)
(-1.65002e-07 -5.55194e-09 2.5322e-09 3.78993e-08 -1.31341e-09 5.77254e-08)
(-1.2638e-07 -4.80155e-09 6.08081e-08 -5.99263e-09 -8.93978e-09 1.05203e-07)
(-1.18629e-07 -2.77176e-09 1.08491e-06 -2.9001e-08 -6.77398e-08 1.95382e-07)
(-3.72861e-08 -2.66408e-09 9.97729e-07 3.15628e-08 -7.10023e-08 -1.4469e-08)
(-1.10097e-07 -2.94962e-09 9.53375e-07 -1.72978e-08 -5.97212e-08 1.63716e-07)
(-2.59295e-07 -7.36201e-09 9.21086e-08 -2.38328e-07 -5.7793e-09 7.26685e-07)
(-3.98564e-07 -4.00246e-09 4.55961e-07 -2.92433e-07 -2.32484e-08 1.0452e-06)
(-2.92235e-07 -4.01063e-09 3.6076e-07 -1.89178e-07 -2.15041e-08 7.03543e-07)
(-1.9093e-07 -6.20698e-09 4.92282e-08 7.09436e-08 -3.88427e-09 5.12527e-08)
(-1.25601e-07 -4.50639e-09 2.41288e-07 4.30521e-08 -1.78827e-08 4.7261e-08)
(-1.86744e-06 -4.78707e-08 1.06609e-07 -1.93854e-06 -1.0529e-07 6.2969e-06)
(-2.57032e-06 -6.31657e-08 1.15062e-07 -2.66713e-06 -1.05016e-07 8.71242e-06)
(-5.51641e-08 2.06666e-09 7.64504e-09 -4.8588e-08 -1.45264e-08 4.83204e-08)
(-2.04356e-07 -2.98232e-09 4.08973e-08 -2.04474e-07 -4.80414e-08 5.57148e-07)
(-4.45754e-06 -9.56948e-08 1.21306e-07 -4.61263e-06 -8.37635e-08 1.51736e-05)
(-3.58981e-06 -8.20765e-08 1.203e-07 -3.71972e-06 -9.60159e-08 1.22065e-05)
(-3.10483e-06 6.27641e-09 1.72746e-06 -2.94425e-06 -1.21475e-07 1.00994e-05)
(-2.17589e-06 3.25441e-08 2.20445e-06 -1.99423e-06 -7.6949e-08 7.03421e-06)
(-2.94136e-06 6.63071e-09 1.70666e-06 -2.78132e-06 -1.23891e-07 9.55199e-06)
(-4.46997e-06 2.97779e-08 3.54747e-07 -4.28326e-06 -8.23435e-08 1.449e-05)
(-3.12763e-06 5.5019e-08 1.28032e-06 -3.11807e-06 -9.89953e-08 1.03528e-05)
(-3.42522e-06 5.4226e-08 1.28434e-06 -3.41454e-06 -5.19254e-08 1.13127e-05)
(-2.05828e-06 3.11841e-08 2.17324e-06 -1.87669e-06 -7.94177e-08 6.63577e-06)
(-2.62346e-06 7.32353e-09 1.65922e-06 -2.46471e-06 -1.28067e-07 8.48721e-06)
(-2.78081e-06 7.00334e-09 1.68395e-06 -2.62141e-06 -1.261e-07 9.01439e-06)
(5.28749e-07 2.56589e-08 2.95529e-06 7.10915e-07 6.38253e-08 -2.05652e-06)
(-1.77939e-08 2.19411e-08 2.90593e-06 1.68183e-07 3.63674e-08 -1.79966e-07)
(-1.8264e-08 2.07714e-08 2.84907e-06 1.65923e-07 3.27881e-08 -1.80375e-07)
(-5.19846e-07 2.6021e-08 2.5517e-06 -3.37153e-07 -1.17357e-08 1.46486e-06)
(-1.08346e-06 2.43733e-08 2.353e-06 -9.03964e-07 -4.97515e-08 3.34918e-06)
(-5.53172e-07 2.77444e-08 2.61092e-06 -3.69213e-07 -8.83603e-09 1.57892e-06)
(-6.23792e-07 3.12004e-08 2.71917e-06 -4.37741e-07 -2.81841e-09 1.82046e-06)
(-1.15401e-06 2.57345e-08 2.40241e-06 -9.74115e-07 -4.7406e-08 3.58922e-06)
(-5.87833e-07 2.94738e-08 2.66671e-06 -4.02755e-07 -5.84765e-09 1.69748e-06)
(-7.79821e-07 3.80348e-08 2.89656e-06 -5.91654e-07 9.13222e-09 2.354e-06)
(-1.45622e-06 3.10776e-08 2.57017e-06 -1.2763e-06 -3.71629e-08 4.6164e-06)
(-7.39064e-07 3.63637e-08 2.85695e-06 -5.51184e-07 6.21075e-09 2.21466e-06)
(6.34424e-07 2.95348e-08 3.12336e-06 8.24925e-07 7.53838e-08 -2.42201e-06)
(-1.78411e-08 2.31154e-08 2.95929e-06 1.69767e-07 3.988e-08 -1.77707e-07)
(-1.8403e-08 2.42578e-08 3.0092e-06 1.70627e-07 4.3316e-08 -1.7357e-07)
(-1.37783e-06 2.9774e-08 2.53266e-06 -1.19768e-06 -3.97859e-08 4.3501e-06)
(-6.61009e-07 3.29333e-08 2.76834e-06 -4.74172e-07 2.22301e-10 1.94774e-06)
(-6.99437e-07 3.46576e-08 2.81424e-06 -5.12011e-07 3.24828e-09 2.07919e-06)
(-3.60309e-06 2.70482e-08 3.3975e-07 -3.44314e-06 -9.54498e-08 1.1649e-05)
(-3.04761e-06 4.90619e-08 1.24542e-06 -3.02854e-06 -6.12576e-08 1.0037e-05)
(-2.76195e-06 5.00512e-08 1.23394e-06 -2.74304e-06 -1.04152e-07 9.11339e-06)
(-2.02891e-06 8.38901e-09 1.53956e-06 -1.87353e-06 -1.33363e-07 6.49387e-06)
(-1.61374e-06 2.57069e-08 2.0226e-06 -1.43384e-06 -8.7879e-08 5.1285e-06)
(-2.17194e-06 8.13797e-09 1.57268e-06 -2.01568e-06 -1.32475e-07 6.97375e-06)
(-2.46939e-06 7.6266e-09 1.63243e-06 -2.31143e-06 -1.29788e-07 7.97099e-06)
(-1.72074e-06 2.70612e-08 2.06417e-06 -1.54024e-06 -8.60246e-08 5.49151e-06)
(-2.31882e-06 7.8923e-09 1.6036e-06 -2.1617e-06 -1.3127e-07 7.46632e-06)
(-4.66275e-06 -3.18686e-08 1.27934e-07 -4.65797e-06 9.25684e-08 1.55648e-05)
(-3.77183e-06 -3.08897e-08 1.12609e-07 -3.76008e-06 6.94425e-08 1.25537e-05)
(-3.51489e-06 9.59946e-09 1.78958e-06 -3.50129e-06 9.6679e-08 1.15541e-05)
(-2.55691e-06 -2.4113e-08 2.27556e-06 -2.58464e-06 2.68805e-08 8.46501e-06)
(-3.3412e-06 8.87757e-09 1.75901e-06 -3.32449e-06 9.10844e-08 1.09705e-05)
(-4.62062e-06 3.73962e-09 3.65103e-07 -4.56184e-06 8.56909e-08 1.5166e-05)
(-3.3142e-06 -2.62164e-08 1.28156e-06 -3.25439e-06 1.98705e-08 1.09512e-05)
(-3.61819e-06 -2.31815e-08 1.31143e-06 -3.55876e-06 4.01709e-08 1.19411e-05)
(-2.4289e-06 -2.29198e-08 2.2356e-06 -2.45094e-06 2.27562e-08 8.02737e-06)
(-3.00042e-06 7.30195e-09 1.69313e-06 -2.97706e-06 7.98703e-08 9.82501e-06)
(-3.16967e-06 8.12999e-09 1.72683e-06 -3.14969e-06 8.54618e-08 1.03939e-05)
(2.71419e-07 4.76338e-09 3.04035e-06 2.07756e-07 -1.67637e-07 -8.86763e-07)
(-3.18057e-07 -2.002e-09 2.99167e-06 -3.75825e-07 -1.30753e-07 1.08045e-06)
(-3.07853e-07 -1.62442e-09 2.92936e-06 -3.5842e-07 -1.30942e-07 1.03461e-06)
(-8.10991e-07 -9.90818e-09 2.60955e-06 -8.28865e-07 -8.9361e-08 2.62639e-06)
(-1.40385e-06 -9.38638e-09 2.40146e-06 -1.41818e-06 -4.02892e-08 4.57864e-06)
(-8.57384e-07 -1.07174e-08 2.67434e-06 -8.83168e-07 -8.83211e-08 2.79295e-06)
(-9.52179e-07 -1.25422e-08 2.79483e-06 -9.93044e-07 -8.57582e-08 3.13192e-06)
(-1.48759e-06 -9.94859e-09 2.45753e-06 -1.50961e-06 -3.77362e-08 4.86946e-06)
(-9.04468e-07 -1.15833e-08 2.73607e-06 -9.37909e-07 -8.71098e-08 2.96154e-06)
(-1.14801e-06 -1.68686e-08 3.00126e-06 -1.21605e-06 -7.95737e-08 3.82738e-06)
(-1.83535e-06 -1.28593e-08 2.65585e-06 -1.8856e-06 -2.67542e-08 6.07253e-06)
(-1.09845e-06 -1.56655e-08 2.95382e-06 -1.16003e-06 -8.11845e-08 3.65182e-06)
(3.50762e-07 4.22561e-09 3.22321e-06 2.68282e-07 -1.69625e-07 -1.129e-06)
(-3.28099e-07 -2.33174e-09 3.05087e-06 -3.9287e-07 -1.30402e-07 1.12556e-06)
(-3.37959e-07 -2.74156e-09 3.10692e-06 -4.09504e-07 -1.29981e-07 1.16983e-06)
(-1.74671e-06 -1.20273e-08 2.61005e-06 -1.79026e-06 -2.95357e-08 5.76647e-06)
(-1.00045e-06 -1.35071e-08 2.85069e-06 -1.04846e-06 -8.42742e-08 3.3039e-06)
(-1.04925e-06 -1.45483e-08 2.90364e-06 -1.10415e-06 -8.27449e-08 3.47727e-06)
(-3.73672e-06 2.98588e-09 3.34953e-07 -3.6905e-06 6.20175e-08 1.2249e-05)
(-3.22897e-06 -2.02906e-08 1.26229e-06 -3.16372e-06 2.88822e-08 1.06264e-05)
(-2.93512e-06 -2.2928e-08 1.22687e-06 -2.87005e-06 8.95006e-09 9.67031e-06)
(-2.35105e-06 3.9507e-09 1.54173e-06 -2.31205e-06 5.77338e-08 7.63827e-06)
(-1.93528e-06 -1.87443e-08 2.05424e-06 -1.93216e-06 6.58636e-09 6.33599e-06)
(-2.5089e-06 4.82153e-09 1.58205e-06 -2.47408e-06 6.31744e-08 8.1703e-06)
(-2.83379e-06 6.51354e-09 1.65771e-06 -2.80678e-06 7.42814e-08 9.26433e-06)
(-2.05562e-06 -1.97035e-08 2.10289e-06 -2.05915e-06 1.05441e-08 6.74901e-06)
(-2.66989e-06 5.68833e-09 1.62075e-06 -2.63905e-06 6.87154e-08 8.71254e-06)
(-1.88002e-06 2.01368e-08 2.80646e-07 -1.78004e-06 -1.06432e-07 6.00784e-06)
(-1.70442e-06 2.95283e-08 1.02634e-06 -1.64984e-06 -8.66959e-08 5.4898e-06)
(-1.47937e-06 3.12247e-08 9.83395e-07 -1.42148e-06 -1.09757e-07 4.7541e-06)
(-1.041e-06 1.00369e-08 1.19246e-06 -8.939e-07 -1.24663e-07 3.17315e-06)
(-8.72963e-07 1.59882e-08 1.58943e-06 -7.01427e-07 -9.13221e-08 2.61024e-06)
(-1.14783e-06 9.86316e-09 1.24416e-06 -9.99746e-07 -1.27507e-07 3.53312e-06)
(-1.37658e-06 9.49164e-09 1.34022e-06 -1.22633e-06 -1.31521e-07 4.30282e-06)
(-9.53419e-07 1.70948e-08 1.65361e-06 -7.8059e-07 -9.22419e-08 2.88429e-06)
(-1.25973e-06 9.68459e-09 1.29337e-06 -1.11061e-06 -1.29772e-07 3.90985e-06)
(-4.87867e-07 2.43117e-08 2.48906e-06 -3.06605e-07 -1.45155e-08 1.35542e-06)
(-8.84952e-07 2.03702e-08 2.18587e-06 -7.07476e-07 -5.5669e-08 2.67328e-06)
(-4.57262e-07 2.259e-08 2.42292e-06 -2.77591e-07 -1.7145e-08 1.25065e-06)
(3.58935e-07 1.86052e-08 2.60174e-06 5.23463e-07 4.34067e-08 -1.46506e-06)
(-3.08967e-08 1.34336e-08 2.43203e-06 1.38863e-07 1.21366e-08 -1.46447e-07)
(-2.7738e-08 1.46906e-08 2.51078e-06 1.4482e-07 1.53109e-08 -1.56054e-07)
(-8.23389e-07 1.90709e-08 2.12381e-06 -6.46795e-07 -5.71507e-08 2.46342e-06)
(-4.00231e-07 1.91842e-08 2.28012e-06 -2.24074e-07 -2.18008e-08 1.05529e-06)
(-4.2804e-07 2.08884e-08 2.3533e-06 -2.50078e-07 -1.95803e-08 1.1506e-06)
(-2.58373e-06 2.31933e-08 3.10974e-07 -2.45808e-06 -1.0554e-07 8.31051e-06)
(-1.76979e-06 3.57968e-08 1.0562e-06 -1.72155e-06 -1.11139e-07 5.74288e-06)
(-2.01172e-06 3.41089e-08 1.09113e-06 -1.96632e-06 -8.28623e-08 6.53202e-06)
(-1.88983e-06 8.65078e-09 1.50424e-06 -1.73543e-06 -1.33862e-07 6.02719e-06)
(-1.3109e-06 2.18437e-08 1.8814e-06 -1.13351e-06 -9.18598e-08 4.10023e-06)
(-1.75491e-06 8.87573e-09 1.46667e-06 -1.60154e-06 -1.33965e-07 5.57424e-06)
(-1.49812e-06 9.32564e-09 1.38471e-06 -1.34683e-06 -1.32801e-07 4.71154e-06)
(-1.21635e-06 2.06236e-08 1.82877e-06 -1.04e-06 -9.25236e-08 3.77894e-06)
(-1.62428e-06 9.11096e-09 1.42685e-06 -1.47196e-06 -1.33623e-07 5.13552e-06)
(-3.02887e-07 1.27025e-08 1.95148e-06 -1.34996e-07 -2.81141e-08 7.21745e-07)
(-6.01569e-07 1.39711e-08 1.84275e-06 -4.29592e-07 -5.99898e-08 1.70613e-06)
(-3.25144e-07 1.42756e-08 2.03912e-06 -1.55065e-07 -2.69583e-08 7.97996e-07)
(2.63546e-07 1.41198e-08 2.34403e-06 4.15755e-07 3.19891e-08 -1.13044e-06)
(-3.44195e-08 1.22227e-08 2.34955e-06 1.32451e-07 9.1606e-09 -1.35531e-07)
(-3.82582e-08 1.09999e-08 2.26331e-06 1.25626e-07 6.33427e-09 -1.23428e-07)
(-6.53286e-07 1.52133e-08 1.91796e-06 -4.8e-07 -5.97963e-08 1.88282e-06)
(-3.73816e-07 1.75248e-08 2.20337e-06 -1.99586e-07 -2.37798e-08 9.64761e-07)
(-3.4878e-07 1.58845e-08 2.12304e-06 -1.76597e-07 -2.55065e-08 8.78991e-07)
(-1.98113e-06 -2.22237e-08 7.72747e-08 -1.96423e-06 2.56121e-08 6.51446e-06)
(-2.71583e-06 -2.69707e-08 9.27824e-08 -2.69965e-06 4.2509e-08 8.99044e-06)
(-1.96356e-06 -6.02319e-10 2.5294e-07 -1.93544e-06 1.79954e-08 6.38393e-06)