/*--------------------------------*- C++ -*----------------------------------*\
| =========                 |                                                 |
| \\      /  F ield         | OpenFOAM: The Open Source CFD Toolbox           |
|  \\    /   O peration     | Version:  2012                                  |
|   \\  /    A nd           | Website:  www.openfoam.com                      |
|    \\/     M anipulation  |                                                 |
\*---------------------------------------------------------------------------*/
FoamFile
{
    version     2.0;
    format      ascii;
    class       pointVectorField;
    location    "0.107/solid";
    object      pointD;
}
// * * * * * * * * * * * * * * * * * * * * * * * * * * * * * * * * * * * * * //

dimensions      [0 1 0 0 0 0 0];


internalField   nonuniform List<vector> 
4937
(
(3.30171e-05 -1.04578e-05 7.68767e-06)
(5.33215e-05 -1.80661e-05 8.40549e-06)
(2.31933e-05 -7.07161e-06 -1.38776e-06)
(4.31303e-05 -1.42718e-05 -1.53568e-06)
(1.43285e-05 -4.15951e-06 -1.19613e-06)
(2.32848e-05 -7.01884e-06 7.142e-06)
(3.29696e-05 -1.0518e-05 -1.49395e-06)
(4.31479e-05 -1.42141e-05 7.89666e-06)
(1.43502e-05 -4.16839e-06 2.43745e-06)
(1.87267e-05 -5.49507e-06 6.70777e-06)
(2.80716e-05 -8.68293e-06 7.46456e-06)
(3.29785e-05 -1.04966e-05 3.07413e-06)
(3.80597e-05 -1.23117e-05 7.82596e-06)
(4.82422e-05 -1.6139e-05 7.92037e-06)
(5.33149e-05 -1.80964e-05 3.19e-06)
(1.86091e-05 -5.53645e-06 -1.30365e-06)
(2.32079e-05 -7.0606e-06 2.84411e-06)
(2.80037e-05 -8.74141e-06 -1.45041e-06)
(3.80292e-05 -1.23712e-05 -1.52124e-06)
(4.31352e-05 -1.42456e-05 3.17103e-06)
(4.82344e-05 -1.61957e-05 -1.54128e-06)
(1.86271e-05 -5.53387e-06 2.66501e-06)
(2.80151e-05 -8.72433e-06 2.97882e-06)
(3.80358e-05 -1.23468e-05 3.13593e-06)
(4.82381e-05 -1.61683e-05 3.18687e-06)
(1.44004e-05 -4.15816e-06 4.30216e-06)
(1.65572e-05 -4.79386e-06 6.44559e-06)
(3.05285e-05 -9.55846e-06 7.58769e-06)
(3.29947e-05 -1.04794e-05 5.40023e-06)
(3.55297e-05 -1.13768e-05 7.76641e-06)
(5.0795e-05 -1.71082e-05 7.92644e-06)
(5.3319e-05 -1.80824e-05 5.59063e-06)
(2.08683e-05 -6.28561e-06 -1.34852e-06)
(2.31929e-05 -7.06988e-06 7.22654e-07)
(2.55748e-05 -7.89134e-06 -1.42164e-06)
(4.05773e-05 -1.33173e-05 -1.52983e-06)
(4.31314e-05 -1.42594e-05 8.15336e-07)
(4.56835e-05 -1.52319e-05 -1.53932e-06)
(1.43269e-05 -4.16888e-06 6.14193e-07)
(1.64258e-05 -4.82694e-06 -1.25291e-06)
(2.09725e-05 -6.23772e-06 6.93951e-06)
(2.56541e-05 -7.83511e-06 7.31653e-06)
(2.32393e-05 -7.04384e-06 5.00674e-06)
(3.29701e-05 -1.05094e-05 7.85971e-07)
(3.04713e-05 -9.6182e-06 -1.47441e-06)
(3.54912e-05 -1.14369e-05 -1.50943e-06)
(4.06009e-05 -1.32586e-05 7.86857e-06)
(4.56962e-05 -1.51751e-05 7.91292e-06)
(4.31412e-05 -1.42303e-05 5.55888e-06)
(5.33108e-05 -1.81104e-05 8.21217e-07)
(5.08029e-05 -1.71701e-05 -1.54209e-06)
(1.64456e-05 -4.82966e-06 2.55751e-06)
(1.86675e-05 -5.51939e-06 4.69706e-06)
(2.80385e-05 -8.70683e-06 5.23823e-06)
(3.04814e-05 -9.59878e-06 3.03106e-06)
(3.54989e-05 -1.14139e-05 3.10881e-06)
(3.80463e-05 -1.23306e-05 5.50308e-06)
(4.82406e-05 -1.61538e-05 5.58168e-06)
(5.0805e-05 -1.71417e-05 3.18988e-06)
(1.86081e-05 -5.53959e-06 6.74636e-07)
(2.08844e-05 -6.27848e-06 2.76038e-06)
(2.55878e-05 -7.87704e-06 2.91672e-06)
(2.80037e-05 -8.73587e-06 7.59329e-07)
(3.803e-05 -1.23603e-05 8.04094e-07)
(4.05831e-05 -1.32918e-05 3.15636e-06)
(4.56876e-05 -1.5205e-05 3.18089e-06)
(4.82357e-05 -1.61823e-05 8.21155e-07)
(1.64908e-05 -4.81703e-06 4.51065e-06)
(2.08675e-05 -6.28616e-06 7.00135e-07)
(1.64245e-05 -4.833e-06 6.46027e-07)
(2.09203e-05 -6.26263e-06 4.86215e-06)
(3.0501e-05 -9.58133e-06 5.32731e-06)
(2.55746e-05 -7.88759e-06 7.42333e-07)
(2.5615e-05 -7.85974e-06 5.13175e-06)
(3.04716e-05 -9.61107e-06 7.73814e-07)
(3.55121e-05 -1.13971e-05 5.45834e-06)
(4.05783e-05 -1.33055e-05 8.10474e-07)
(3.54919e-05 -1.14271e-05 7.95996e-07)
(4.05911e-05 -1.32761e-05 5.53602e-06)
(5.08073e-05 -1.71274e-05 5.58694e-06)
(4.56846e-05 -1.52189e-05 8.18857e-07)
(4.56919e-05 -1.51903e-05 5.57343e-06)
(5.08031e-05 -1.71558e-05 8.21779e-07)
(1.54496e-05 -4.43193e-06 5.03747e-06)
(2.20177e-05 -6.67977e-06 -7.30485e-07)
(1.53625e-05 -4.49918e-06 -6.39039e-07)
(2.20771e-05 -6.60949e-06 5.61031e-06)
(1.54773e-05 -4.51539e-06 5.76531e-06)
(2.20192e-05 -6.67612e-06 7.57726e-08)
(1.5355e-05 -4.49411e-06 4.50662e-08)
(2.21079e-05 -6.66712e-06 6.47327e-06)
(3.17413e-05 -1.00033e-05 6.06302e-06)
(2.43717e-05 -7.48138e-06 -7.55319e-07)
(2.44231e-05 -7.41225e-06 5.75413e-06)
(3.17104e-05 -1.0065e-05 -8.11857e-07)
(3.17685e-05 -1.00319e-05 7.05509e-06)
(2.43754e-05 -7.47817e-06 8.56704e-08)
(2.44536e-05 -7.46197e-06 6.65543e-06)
(3.17195e-05 -1.00629e-05 1.1171e-07)
(3.42465e-05 -1.09151e-05 6.13021e-06)
(4.18464e-05 -1.37889e-05 -8.47283e-07)
(3.42211e-05 -1.09735e-05 -8.2474e-07)
(4.18591e-05 -1.37399e-05 6.24767e-06)
(3.4272e-05 -1.09377e-05 7.14395e-06)
(4.18598e-05 -1.3788e-05 1.33774e-07)
(3.42315e-05 -1.09718e-05 1.18711e-07)
(4.18795e-05 -1.37482e-05 7.30192e-06)
(5.21002e-05 -1.76146e-05 6.2828e-06)
(4.44e-05 -1.47459e-05 -8.50355e-07)
(4.44095e-05 -1.46994e-05 6.26497e-06)
(5.21075e-05 -1.76627e-05 -8.60202e-07)
(5.21172e-05 -1.76147e-05 7.35341e-06)
(4.4414e-05 -1.47451e-05 1.36845e-07)
(4.44286e-05 -1.47044e-05 7.32558e-06)
(5.21227e-05 -1.76617e-05 1.42782e-07)
(1.53954e-05 -4.46652e-06 3.093e-06)
(1.75805e-05 -5.11635e-06 5.25316e-06)
(1.75324e-05 -5.15102e-06 3.22554e-06)
(1.9725e-05 -5.91361e-06 -7.02752e-07)
(2.20199e-05 -6.66514e-06 1.31999e-06)
(1.97276e-05 -5.89964e-06 1.28379e-06)
(1.53663e-05 -4.48747e-06 1.19331e-06)
(1.75032e-05 -5.18586e-06 -6.7223e-07)
(1.75064e-05 -5.17285e-06 1.24172e-06)
(1.97931e-05 -5.84315e-06 5.44373e-06)
(2.20402e-05 -6.64281e-06 3.44457e-06)
(1.97507e-05 -5.87737e-06 3.34247e-06)
(1.54094e-05 -4.51835e-06 3.7881e-06)
(1.761e-05 -5.19089e-06 6.02904e-06)
(1.75487e-05 -5.19732e-06 3.96589e-06)
(1.97238e-05 -5.90951e-06 6.55661e-08)
(2.20304e-05 -6.68214e-06 2.18731e-06)
(1.9736e-05 -5.91911e-06 2.10987e-06)
(1.53691e-05 -4.51215e-06 1.92781e-06)
(1.74991e-05 -5.18129e-06 5.52601e-08)
(1.75122e-05 -5.19488e-06 2.02341e-06)
(1.98235e-05 -5.90906e-06 6.26477e-06)
(2.20594e-05 -6.67861e-06 4.26698e-06)
(1.97687e-05 -5.91832e-06 4.12537e-06)
(2.92637e-05 -9.11294e-06 5.97901e-06)
(3.17227e-05 -1.00298e-05 3.72257e-06)
(2.92411e-05 -9.14145e-06 3.67071e-06)
(2.43736e-05 -7.46634e-06 1.3508e-06)
(2.67777e-05 -8.31515e-06 -7.77177e-07)
(2.67792e-05 -8.2999e-06 1.37674e-06)
(2.68215e-05 -8.24797e-06 5.87655e-06)
(2.43912e-05 -7.44427e-06 3.53269e-06)
(2.67945e-05 -8.27835e-06 3.60775e-06)
(3.17117e-05 -1.00497e-05 1.41599e-06)
(2.92267e-05 -9.17758e-06 -7.96021e-07)
(2.9228e-05 -9.16226e-06 1.3983e-06)
(2.92924e-05 -9.14811e-06 6.94505e-06)
(3.17427e-05 -1.00476e-05 4.66693e-06)
(2.92613e-05 -9.16332e-06 4.59043e-06)
(2.43857e-05 -7.48098e-06 2.25586e-06)
(2.67834e-05 -8.31235e-06 9.50681e-08)
(2.67926e-05 -8.31231e-06 2.31575e-06)
(2.68513e-05 -8.29018e-06 6.81229e-06)
(2.44112e-05 -7.47516e-06 4.39125e-06)
(2.68147e-05 -8.30459e-06 4.49882e-06)
(3.17268e-05 -1.00581e-05 2.41074e-06)
(2.92342e-05 -9.17516e-06 1.03794e-07)
(2.92424e-05 -9.17258e-06 2.36726e-06)
(3.42316e-05 -1.09394e-05 3.76433e-06)
(3.67721e-05 -1.18443e-05 6.1822e-06)
(3.67604e-05 -1.18665e-05 3.79708e-06)
(3.92953e-05 -1.28391e-05 -8.42219e-07)
(4.18475e-05 -1.37744e-05 1.45727e-06)
(3.92964e-05 -1.28244e-05 1.4505e-06)
(3.42223e-05 -1.09584e-05 1.43027e-06)
(3.67516e-05 -1.18994e-05 -8.34797e-07)
(3.67527e-05 -1.18845e-05 1.44164e-06)
(3.93116e-05 -1.27871e-05 6.22073e-06)
(4.18526e-05 -1.37583e-05 3.83991e-06)
(3.93027e-05 -1.28074e-05 3.8219e-06)
(3.4251e-05 -1.09535e-05 4.72933e-06)
(3.67959e-05 -1.18615e-05 7.21337e-06)
(3.67792e-05 -1.18773e-05 4.77876e-06)
(3.93078e-05 -1.28379e-05 1.2975e-07)
(4.18638e-05 -1.37768e-05 2.51459e-06)
(3.93126e-05 -1.28279e-05 2.49789e-06)
(3.42379e-05 -1.0965e-05 2.44663e-06)
(3.67632e-05 -1.1898e-05 1.24732e-07)
(3.67687e-05 -1.18895e-05 2.47548e-06)
(3.93336e-05 -1.27995e-05 7.26531e-06)
(4.18701e-05 -1.37636e-05 4.8439e-06)
(3.93208e-05 -1.28151e-05 4.81648e-06)
(4.95052e-05 -1.66283e-05 6.27906e-06)
(5.21111e-05 -1.76342e-05 3.86471e-06)
(4.95048e-05 -1.66438e-05 3.86425e-06)
(4.44009e-05 -1.47316e-05 1.46226e-06)
(4.69517e-05 -1.57072e-05 -8.51885e-07)
(4.69526e-05 -1.56931e-05 1.46575e-06)
(4.69588e-05 -1.56627e-05 6.27469e-06)
(4.44051e-05 -1.47163e-05 3.85222e-06)
(4.69559e-05 -1.56784e-05 3.85998e-06)
(5.21012e-05 -1.76458e-05 1.46518e-06)
(4.95012e-05 -1.66722e-05 -8.52453e-07)
(4.95016e-05 -1.6658e-05 1.46786e-06)
(4.95222e-05 -1.66291e-05 7.34502e-06)
(5.2127e-05 -1.76334e-05 4.89016e-06)
(4.95207e-05 -1.66441e-05 4.88032e-06)
(4.44173e-05 -1.47329e-05 2.52633e-06)
(4.69663e-05 -1.57066e-05 1.39034e-07)
(4.6969e-05 -1.56936e-05 2.53393e-06)
(4.69767e-05 -1.56652e-05 7.33896e-06)
(4.44219e-05 -1.47194e-05 4.86256e-06)
(4.69722e-05 -1.568e-05 4.87412e-06)
(5.21176e-05 -1.76446e-05 2.54073e-06)
(4.95162e-05 -1.66714e-05 1.40388e-07)
(4.9518e-05 -1.66577e-05 2.53816e-06)
(1.55043e-05 -4.45965e-06 6.30276e-06)
(3.17693e-05 -1.00054e-05 7.64046e-06)
(3.30054e-05 -1.0469e-05 6.55857e-06)
(3.42708e-05 -1.09151e-05 7.72958e-06)
(5.21034e-05 -1.76054e-05 7.9668e-06)
(5.33206e-05 -1.8075e-05 6.85859e-06)
(2.31924e-05 -7.08011e-06 -1.77567e-06)
(2.31914e-05 -7.06881e-06 -9.89652e-07)
(2.20232e-05 -6.67419e-06 -1.36883e-06)
(2.31913e-05 -7.07178e-06 -3.31064e-07)
(2.43776e-05 -7.47747e-06 -1.40536e-06)
(4.31238e-05 -1.42733e-05 -1.99743e-06)
(4.31362e-05 -1.42713e-05 -1.05927e-06)
(4.18535e-05 -1.37937e-05 -1.53307e-06)
(4.31305e-05 -1.42658e-05 -3.57829e-07)
(4.44071e-05 -1.47514e-05 -1.53775e-06)
(1.43249e-05 -4.16556e-06 -2.90001e-07)
(1.43329e-05 -4.17237e-06 -1.50838e-06)
(1.43194e-05 -4.15422e-06 -8.76588e-07)
(1.53657e-05 -4.48782e-06 -1.22529e-06)
(2.21209e-05 -6.62367e-06 7.04434e-06)
(2.44629e-05 -7.42281e-06 7.23267e-06)
(2.32608e-05 -7.0321e-06 6.0868e-06)
(3.29689e-05 -1.05143e-05 -3.52045e-07)
(3.17171e-05 -1.00654e-05 -1.48471e-06)
(3.29652e-05 -1.05224e-05 -1.93286e-06)
(3.29725e-05 -1.05167e-05 -1.04246e-06)
(3.42279e-05 -1.09752e-05 -1.50218e-06)
(4.1874e-05 -1.37355e-05 7.88427e-06)
(4.44221e-05 -1.46941e-05 7.90609e-06)
(4.31446e-05 -1.42223e-05 6.7442e-06)
(5.33091e-05 -1.81174e-05 -3.58907e-07)
(1.43709e-05 -4.16426e-06 3.3594e-06)
(1.43354e-05 -4.16987e-06 1.52284e-06)
(1.43418e-05 -4.1516e-06 2.08503e-06)
(1.43489e-05 -4.19339e-06 2.78857e-06)
(1.53865e-05 -4.49351e-06 2.49907e-06)
(1.76318e-05 -5.13911e-06 6.58055e-06)
(1.98407e-05 -5.86139e-06 6.82738e-06)
(1.86954e-05 -5.50817e-06 5.71351e-06)
(2.92956e-05 -9.11747e-06 7.52913e-06)
(2.68574e-05 -8.25531e-06 7.39376e-06)
(2.80542e-05 -8.69544e-06 6.36499e-06)
(3.29854e-05 -1.04885e-05 4.22657e-06)
(3.29733e-05 -1.05035e-05 1.92767e-06)
(3.17266e-05 -1.0045e-05 3.05369e-06)
(3.2968e-05 -1.04923e-05 2.57389e-06)
(3.29859e-05 -1.05044e-05 3.5727e-06)
(3.42362e-05 -1.0953e-05 3.09247e-06)
(3.67929e-05 -1.18425e-05 7.79845e-06)
(3.93292e-05 -1.27838e-05 7.84924e-06)
(3.80528e-05 -1.23213e-05 6.68007e-06)
(4.9515e-05 -1.66219e-05 7.92215e-06)
(4.69696e-05 -1.56568e-05 7.91754e-06)
(4.82416e-05 -1.61463e-05 6.76837e-06)
(5.33171e-05 -1.80894e-05 4.38082e-06)
(5.33128e-05 -1.81034e-05 2.00404e-06)
(5.21207e-05 -1.76419e-05 3.1905e-06)
(5.33069e-05 -1.80972e-05 2.6819e-06)
(5.33227e-05 -1.80957e-05 3.70075e-06)
(1.97298e-05 -5.90624e-06 -1.3268e-06)
(1.75073e-05 -5.17658e-06 -1.27902e-06)
(1.86063e-05 -5.53924e-06 -3.13263e-07)
(1.86105e-05 -5.54712e-06 -1.65626e-06)
(1.8604e-05 -5.53252e-06 -9.422e-07)
(2.31984e-05 -7.06619e-06 1.78059e-06)
(2.32209e-05 -7.053e-06 3.91454e-06)
(2.20385e-05 -6.66504e-06 2.80367e-06)
(2.31969e-05 -7.05101e-06 2.40345e-06)
(2.32128e-05 -7.07646e-06 3.28323e-06)
(2.43913e-05 -7.46475e-06 2.88177e-06)
(2.67839e-05 -8.31281e-06 -1.43664e-06)
(2.92331e-05 -9.17669e-06 -1.46299e-06)
(2.80008e-05 -8.74782e-06 -1.86736e-06)
(2.80024e-05 -8.73946e-06 -3.43816e-07)
(2.80044e-05 -8.73949e-06 -1.02202e-06)
(3.93023e-05 -1.2843e-05 -1.52591e-06)
(3.67585e-05 -1.19023e-05 -1.51577e-06)
(3.8029e-05 -1.23661e-05 -3.56417e-07)
(3.80235e-05 -1.23739e-05 -1.97487e-06)
(3.80337e-05 -1.23703e-05 -1.05395e-06)
(4.3133e-05 -1.42526e-05 1.99139e-06)
(4.3138e-05 -1.42381e-05 4.35525e-06)
(4.18588e-05 -1.37678e-05 3.16436e-06)
(4.3126e-05 -1.42446e-05 2.64339e-06)
(4.31431e-05 -1.42477e-05 3.69692e-06)
(4.44116e-05 -1.47247e-05 3.1765e-06)
(4.69592e-05 -1.57134e-05 -1.54048e-06)
(4.95122e-05 -1.668e-05 -1.54181e-06)
(4.82262e-05 -1.61959e-05 -2.00606e-06)
(4.8235e-05 -1.61891e-05 -3.57588e-07)
(4.824e-05 -1.61949e-05 -1.06084e-06)
(1.86169e-05 -5.52089e-06 2.26549e-06)
(1.86294e-05 -5.55421e-06 3.06309e-06)
(1.75262e-05 -5.17654e-06 2.6128e-06)
(1.86438e-05 -5.52753e-06 3.67029e-06)
(1.86151e-05 -5.53784e-06 1.66691e-06)
(1.97469e-05 -5.9013e-06 2.71418e-06)
(2.80042e-05 -8.71765e-06 2.5043e-06)
(2.80216e-05 -8.73598e-06 3.45173e-06)
(2.80249e-05 -8.71621e-06 4.09769e-06)
(2.92439e-05 -9.15839e-06 3.00613e-06)
(2.67961e-05 -8.29706e-06 2.94905e-06)
(2.8008e-05 -8.73085e-06 1.86647e-06)
(3.8026e-05 -1.23445e-05 2.61823e-06)
(3.80436e-05 -1.23514e-05 3.65191e-06)
(3.67657e-05 -1.18786e-05 3.12326e-06)
(3.80404e-05 -1.2339e-05 4.30928e-06)
(3.80323e-05 -1.23539e-05 1.96791e-06)
(3.93085e-05 -1.2818e-05 3.14692e-06)
(4.82282e-05 -1.61678e-05 2.65505e-06)
(4.82448e-05 -1.61683e-05 3.71686e-06)
(4.82396e-05 -1.61612e-05 4.37518e-06)
(4.95156e-05 -1.66524e-05 3.18869e-06)
(4.6963e-05 -1.56862e-05 3.18431e-06)
(4.82367e-05 -1.61753e-05 2.00248e-06)
(1.64762e-05 -4.78916e-06 4.14897e-06)
(2.0862e-05 -6.28608e-06 2.84622e-07)
(1.6421e-05 -4.8324e-06 2.73511e-07)
(2.09052e-05 -6.24108e-06 4.45758e-06)
(1.64969e-05 -4.84984e-06 4.85471e-06)
(2.08666e-05 -6.29299e-06 1.11192e-06)
(1.64199e-05 -4.84133e-06 1.01466e-06)
(2.09286e-05 -6.28854e-06 5.2474e-06)
(3.04877e-05 -9.57046e-06 4.85753e-06)
(2.55678e-05 -7.88784e-06 2.90297e-07)
(2.56005e-05 -7.84389e-06 4.69079e-06)
(3.04641e-05 -9.61148e-06 2.92833e-07)
(3.05106e-05 -9.59501e-06 5.7753e-06)
(2.55765e-05 -7.8929e-06 1.19086e-06)
(2.56244e-05 -7.87923e-06 5.55201e-06)
(3.04756e-05 -9.61488e-06 1.25157e-06)
(3.55004e-05 -1.13904e-05 4.96781e-06)
(4.05703e-05 -1.33059e-05 2.95679e-07)
(3.5484e-05 -1.14275e-05 2.94187e-07)
(4.0581e-05 -1.32727e-05 5.03248e-06)
(3.55213e-05 -1.14058e-05 5.92622e-06)
(4.0585e-05 -1.33068e-05 1.32284e-06)
(3.54975e-05 -1.14295e-05 1.29494e-06)
(4.05997e-05 -1.32807e-05 6.01623e-06)
(5.07919e-05 -1.71247e-05 5.07292e-06)
(4.56764e-05 -1.52192e-05 2.97693e-07)
(4.5683e-05 -1.51891e-05 5.06342e-06)
(5.07852e-05 -1.71526e-05 2.98882e-07)
(5.08075e-05 -1.71249e-05 6.07359e-06)
(4.56919e-05 -1.52192e-05 1.33806e-06)
(4.56998e-05 -1.5192e-05 6.05953e-06)
(5.08011e-05 -1.71517e-05 1.3437e-06)
(1.43864e-05 -4.12694e-06 3.96396e-06)
(1.44049e-05 -4.19455e-06 4.62373e-06)
(1.54342e-05 -4.48201e-06 4.40921e-06)
(1.6522e-05 -4.80647e-06 5.48847e-06)
(3.05141e-05 -9.57037e-06 6.47162e-06)
(3.17445e-05 -1.00277e-05 5.36571e-06)
(3.29822e-05 -1.04707e-05 4.91906e-06)
(3.30042e-05 -1.04905e-05 5.85915e-06)
(3.42509e-05 -1.0936e-05 5.43105e-06)
(3.55206e-05 -1.13872e-05 6.62747e-06)
(5.08034e-05 -1.71185e-05 6.77583e-06)
(5.21257e-05 -1.76285e-05 5.59179e-06)
(5.33107e-05 -1.8083e-05 5.05767e-06)
(5.33263e-05 -1.8082e-05 6.07318e-06)
(2.08659e-05 -6.28702e-06 -3.22822e-07)
(2.08684e-05 -6.29519e-06 -1.7195e-06)
(2.08648e-05 -6.28227e-06 -9.68008e-07)
(2.20226e-05 -6.67357e-06 7.11758e-07)
(2.31866e-05 -7.06999e-06 2.87989e-07)
(2.31934e-05 -7.07595e-06 1.15369e-06)
(2.43773e-05 -7.4747e-06 7.32838e-07)
(2.55728e-05 -7.89878e-06 -1.82491e-06)
(2.55732e-05 -7.8904e-06 -3.38041e-07)
(2.55742e-05 -7.88901e-06 -1.00752e-06)
(4.05773e-05 -1.33117e-05 -3.57423e-07)
(4.05712e-05 -1.33193e-05 -1.98827e-06)
(4.05826e-05 -1.33166e-05 -1.05722e-06)
(4.18545e-05 -1.37816e-05 8.13084e-07)
(4.31233e-05 -1.42597e-05 2.96647e-07)
(4.31384e-05 -1.42601e-05 1.33183e-06)
(4.44082e-05 -1.47386e-05 8.17253e-07)
(4.56766e-05 -1.52329e-05 -2.00308e-06)
(4.56838e-05 -1.52255e-05 -3.5781e-07)
(4.56898e-05 -1.52315e-05 -1.06039e-06)
(1.43247e-05 -4.16795e-06 2.65172e-07)
(1.43201e-05 -4.17794e-06 9.59282e-07)
(1.53643e-05 -4.49549e-06 6.3052e-07)
(1.64226e-05 -4.83126e-06 -3.02337e-07)
(1.64286e-05 -4.8387e-06 -1.5859e-06)
(1.64188e-05 -4.82235e-06 -9.11848e-07)
(2.09449e-05 -6.25103e-06 5.91262e-06)
(2.56335e-05 -7.84809e-06 6.23717e-06)
(2.20721e-05 -6.64869e-06 4.93695e-06)
(2.32244e-05 -7.02522e-06 4.58308e-06)
(2.32483e-05 -7.06647e-06 5.41034e-06)
(2.44207e-05 -7.44767e-06 5.07163e-06)
(3.17175e-05 -1.00576e-05 7.80171e-07)
(3.29624e-05 -1.05099e-05 2.93558e-07)
(3.2975e-05 -1.05125e-05 1.27533e-06)
(3.42285e-05 -1.09661e-05 7.91237e-07)
(3.04676e-05 -9.62361e-06 -1.90324e-06)
(3.04703e-05 -9.61533e-06 -3.48458e-07)
(3.04731e-05 -9.61663e-06 -1.03354e-06)
(3.54908e-05 -1.14325e-05 -3.54665e-07)
(3.54861e-05 -1.14404e-05 -1.95659e-06)
(3.5495e-05 -1.14358e-05 -1.04914e-06)
(4.0596e-05 -1.32675e-05 6.71829e-06)
(4.56942e-05 -1.51826e-05 6.76005e-06)
(4.18658e-05 -1.37523e-05 5.5486e-06)
(4.31318e-05 -1.42282e-05 5.05139e-06)
(4.31494e-05 -1.42334e-05 6.04272e-06)
(4.44167e-05 -1.47098e-05 5.56707e-06)
(5.21183e-05 -1.7656e-05 8.20658e-07)
(5.33031e-05 -1.81112e-05 3.12082e-07)
(5.33185e-05 -1.81097e-05 1.32016e-06)
(5.07883e-05 -1.71677e-05 -2.00752e-06)
(5.08036e-05 -1.71632e-05 -3.57989e-07)
(5.08026e-05 -1.71669e-05 -1.06068e-06)
(1.64362e-05 -4.81483e-06 2.18088e-06)
(1.64643e-05 -4.82429e-06 3.52348e-06)
(1.64322e-05 -4.83251e-06 1.59881e-06)
(1.64463e-05 -4.85232e-06 2.93276e-06)
(1.86525e-05 -5.49475e-06 4.31321e-06)
(1.75691e-05 -5.16293e-06 4.60657e-06)
(1.97851e-05 -5.88608e-06 4.78222e-06)
(1.86749e-05 -5.54869e-06 5.06241e-06)
(2.80245e-05 -8.69356e-06 4.78187e-06)
(2.92654e-05 -9.14089e-06 5.28487e-06)
(2.68213e-05 -8.27962e-06 5.18724e-06)
(2.8048e-05 -8.72332e-06 5.67332e-06)
(3.04706e-05 -9.59337e-06 2.54264e-06)
(3.04897e-05 -9.5906e-06 4.16845e-06)
(3.04753e-05 -9.60557e-06 1.89993e-06)
(3.04884e-05 -9.60847e-06 3.51783e-06)
(3.54887e-05 -1.14106e-05 2.59883e-06)
(3.55046e-05 -1.14059e-05 4.27314e-06)
(3.54946e-05 -1.14209e-05 1.95016e-06)
(3.55066e-05 -1.142e-05 3.6171e-06)
(3.80353e-05 -1.23256e-05 5.00512e-06)
(3.67775e-05 -1.18621e-05 5.48228e-06)
(3.93177e-05 -1.2802e-05 5.52092e-06)
(3.80552e-05 -1.23371e-05 5.97801e-06)
(4.82314e-05 -1.6153e-05 5.07019e-06)
(4.95173e-05 -1.66377e-05 5.58426e-06)
(4.69664e-05 -1.56716e-05 5.57821e-06)
(4.82475e-05 -1.61543e-05 6.06888e-06)
(5.07866e-05 -1.71382e-05 2.65722e-06)
(5.08075e-05 -1.71351e-05 4.3796e-06)
(5.08034e-05 -1.71485e-05 2.00424e-06)
(5.0803e-05 -1.71378e-05 3.72045e-06)
(1.86035e-05 -5.53927e-06 2.79895e-07)
(1.9729e-05 -5.90805e-06 6.87767e-07)
(1.75062e-05 -5.18113e-06 6.60727e-07)
(1.86055e-05 -5.54717e-06 1.06556e-06)
(2.08738e-05 -6.26725e-06 2.33946e-06)
(2.08738e-05 -6.28335e-06 1.7274e-06)
(2.08993e-05 -6.2714e-06 3.80043e-06)
(2.08882e-05 -6.29654e-06 3.17982e-06)
(2.55767e-05 -7.86897e-06 2.45816e-06)
(2.55795e-05 -7.88317e-06 1.82682e-06)
(2.55991e-05 -7.8691e-06 4.01335e-06)
(2.55936e-05 -7.89075e-06 3.37371e-06)
(2.79965e-05 -8.73622e-06 2.91823e-07)
(2.67838e-05 -8.30813e-06 7.51155e-07)
(2.92333e-05 -9.17033e-06 7.66875e-07)
(2.80067e-05 -8.74042e-06 1.22346e-06)
(3.8022e-05 -1.23607e-05 2.94864e-07)
(3.93032e-05 -1.28317e-05 8.07485e-07)
(3.67593e-05 -1.1892e-05 8.00273e-07)
(3.80362e-05 -1.23622e-05 1.31067e-06)
(4.05736e-05 -1.32902e-05 2.63283e-06)
(4.05802e-05 -1.32989e-05 1.98147e-06)
(4.05867e-05 -1.32842e-05 4.33621e-06)
(4.0591e-05 -1.32951e-05 3.67815e-06)
(4.56787e-05 -1.52045e-05 2.65058e-06)
(4.56859e-05 -1.52121e-05 1.99823e-06)
(4.56897e-05 -1.51978e-05 4.36776e-06)
(4.56955e-05 -1.52062e-05 3.70942e-06)
(4.82263e-05 -1.61821e-05 2.98663e-07)
(4.69603e-05 -1.57001e-05 8.20156e-07)
(4.95135e-05 -1.66663e-05 8.21777e-07)
(4.82421e-05 -1.61818e-05 1.34197e-06)
(2.43761e-05 -7.48544e-06 -1.80115e-06)
(3.1713e-05 -1.00704e-05 -1.91882e-06)
(4.44004e-05 -1.47525e-05 -2.00064e-06)
(1.43258e-05 -4.17197e-06 -6.21486e-07)
(1.44445e-05 -4.19441e-06 5.62274e-06)
(1.43164e-05 -4.16665e-06 4.00788e-08)
(1.54671e-05 -4.47189e-06 5.36594e-06)
(1.54198e-05 -4.45248e-06 4.05911e-06)
(1.65042e-05 -4.76868e-06 5.14852e-06)
(2.2021e-05 -6.67496e-06 -3.27104e-07)
(2.20227e-05 -6.68323e-06 -1.74846e-06)
(2.31877e-05 -7.07634e-06 -7.4327e-07)
(2.08631e-05 -6.29206e-06 -7.16974e-07)
(2.20167e-05 -6.67359e-06 2.86457e-07)
(1.53623e-05 -4.49299e-06 -2.96347e-07)
(1.53693e-05 -4.50013e-06 -1.54803e-06)
(1.53614e-05 -4.49473e-06 2.69604e-07)
(1.64221e-05 -4.83724e-06 -6.5596e-07)
(2.20951e-05 -6.63699e-06 6.00276e-06)
(2.3243e-05 -7.00653e-06 5.68499e-06)
(2.09268e-05 -6.22156e-06 5.52994e-06)
(2.20571e-05 -6.62862e-06 4.52263e-06)
(1.54395e-05 -4.5166e-06 4.74216e-06)
(1.65329e-05 -4.84765e-06 5.90072e-06)
(2.20205e-05 -6.67113e-06 -9.79327e-07)
(2.31903e-05 -7.07292e-06 8.07724e-08)
(2.08633e-05 -6.28819e-06 7.06949e-08)
(2.20224e-05 -6.68002e-06 1.13338e-06)
(1.53577e-05 -4.48289e-06 -8.94854e-07)
(1.53586e-05 -4.50418e-06 9.87526e-07)
(1.64163e-05 -4.83242e-06 5.01357e-08)
(2.32737e-05 -7.06016e-06 6.56758e-06)
(2.09574e-05 -6.28329e-06 6.37237e-06)
(2.20808e-05 -6.67294e-06 5.33158e-06)
(3.17563e-05 -1.0017e-05 6.51746e-06)
(3.29909e-05 -1.04568e-05 6.09862e-06)
(3.04986e-05 -9.55519e-06 6.02322e-06)
(3.17315e-05 -1.00179e-05 4.88998e-06)
(2.43758e-05 -7.47707e-06 -3.34707e-07)
(2.43708e-05 -7.47488e-06 2.89258e-07)
(2.55688e-05 -7.89445e-06 -7.66624e-07)
(2.44406e-05 -7.43595e-06 6.16489e-06)
(2.56163e-05 -7.82621e-06 5.81792e-06)
(2.44059e-05 -7.43046e-06 4.63909e-06)
(3.17163e-05 -1.00622e-05 -3.50378e-07)
(3.29629e-05 -1.05168e-05 -8.18662e-07)
(3.17099e-05 -1.0058e-05 2.93223e-07)
(3.04647e-05 -9.61839e-06 -8.04313e-07)
(3.30173e-05 -1.04823e-05 7.10207e-06)
(3.05265e-05 -9.58703e-06 7.00282e-06)
(3.1754e-05 -1.004e-05 5.81941e-06)
(2.43764e-05 -7.47491e-06 -9.99035e-07)
(2.43785e-05 -7.48038e-06 1.17285e-06)
(2.55735e-05 -7.89145e-06 9.04433e-08)
(2.56465e-05 -7.87213e-06 6.73695e-06)
(2.44299e-05 -7.46871e-06 5.48378e-06)
(3.29726e-05 -1.0515e-05 1.1533e-07)
(3.17195e-05 -1.0064e-05 -1.0383e-06)
(3.17219e-05 -1.0061e-05 1.26398e-06)
(3.0473e-05 -9.61616e-06 1.07861e-07)
(3.42605e-05 -1.09259e-05 6.59517e-06)
(3.42388e-05 -1.09284e-05 4.94495e-06)
(3.55072e-05 -1.13777e-05 6.158e-06)
(4.18536e-05 -1.37878e-05 -3.57691e-07)
(4.18472e-05 -1.37954e-05 -1.99334e-06)
(4.31232e-05 -1.42667e-05 -8.49036e-07)
(4.05703e-05 -1.33129e-05 -8.4502e-07)
(4.18465e-05 -1.37819e-05 2.96146e-07)
(3.42274e-05 -1.09712e-05 -3.5347e-07)
(3.42232e-05 -1.09793e-05 -1.94544e-06)
(3.42207e-05 -1.09665e-05 2.93873e-07)
(3.54843e-05 -1.14345e-05 -8.30112e-07)
(4.18699e-05 -1.3744e-05 6.73264e-06)
(4.31342e-05 -1.4219e-05 6.2574e-06)
(4.05846e-05 -1.32624e-05 6.23553e-06)
(4.1856e-05 -1.37496e-05 5.04289e-06)
(3.42602e-05 -1.09459e-05 5.89469e-06)
(3.55319e-05 -1.13976e-05 7.18097e-06)
(4.18592e-05 -1.37931e-05 -1.05838e-06)
(4.31369e-05 -1.42658e-05 1.35425e-07)
(4.05833e-05 -1.33119e-05 1.31885e-07)
(4.18614e-05 -1.37826e-05 1.3277e-06)
(3.42313e-05 -1.09741e-05 -1.04606e-06)
(3.42338e-05 -1.09688e-05 1.28564e-06)
(3.54953e-05 -1.1433e-05 1.21847e-07)
(4.31539e-05 -1.42255e-05 7.31521e-06)
(4.06059e-05 -1.32727e-05 7.28539e-06)
(4.18742e-05 -1.37561e-05 6.03082e-06)
(5.21236e-05 -1.76201e-05 6.80406e-06)
(5.33116e-05 -1.80752e-05 6.32144e-06)
(5.07869e-05 -1.71152e-05 6.28072e-06)
(5.21185e-05 -1.76292e-05 5.06998e-06)
(4.44074e-05 -1.47451e-05 -3.5786e-07)
(4.44001e-05 -1.47389e-05 2.97167e-07)
(4.56763e-05 -1.52261e-05 -8.51279e-07)
(4.44195e-05 -1.47019e-05 6.75323e-06)
(4.56846e-05 -1.51807e-05 6.27064e-06)
(4.44076e-05 -1.47081e-05 5.05816e-06)
(5.2119e-05 -1.76637e-05 -3.59579e-07)
(5.33018e-05 -1.81181e-05 -8.55227e-07)
(5.21032e-05 -1.76539e-05 2.94473e-07)
(5.0787e-05 -1.71603e-05 -8.5313e-07)
(5.3328e-05 -1.80745e-05 7.41725e-06)
(5.08038e-05 -1.71156e-05 7.3473e-06)
(5.21341e-05 -1.76288e-05 6.08141e-06)
(4.44133e-05 -1.47509e-05 -1.05993e-06)
(4.44154e-05 -1.47391e-05 1.33526e-06)
(4.56906e-05 -1.52254e-05 1.38045e-07)
(4.57029e-05 -1.51843e-05 7.33338e-06)
(4.44248e-05 -1.47121e-05 6.0522e-06)
(5.33167e-05 -1.81169e-05 1.26377e-07)
(5.21192e-05 -1.76528e-05 1.34527e-06)
(5.0802e-05 -1.71594e-05 1.40561e-07)
(2.67814e-05 -8.31973e-06 -1.84697e-06)
(2.92299e-05 -9.1826e-06 -1.8861e-06)
(4.69519e-05 -1.5714e-05 -2.00486e-06)
(4.95013e-05 -1.6679e-05 -2.00681e-06)
(1.43606e-05 -4.14072e-06 3.02064e-06)
(1.43299e-05 -4.16105e-06 1.16658e-06)
(1.43733e-05 -4.19538e-06 3.69222e-06)
(1.4331e-05 -4.18709e-06 1.87656e-06)
(1.64531e-05 -4.80338e-06 3.16127e-06)
(1.53776e-05 -4.47771e-06 2.1344e-06)
(1.54061e-05 -4.48873e-06 3.44363e-06)
(1.75542e-05 -5.13669e-06 4.23363e-06)
(1.86772e-05 -5.47462e-06 5.35152e-06)
(1.75985e-05 -5.152e-06 5.60429e-06)
(1.75164e-05 -5.16265e-06 2.22455e-06)
(1.8632e-05 -5.50913e-06 3.28591e-06)
(1.75439e-05 -5.17066e-06 3.59901e-06)
(1.97239e-05 -5.90786e-06 2.82447e-07)
(1.86046e-05 -5.54476e-06 -6.87832e-07)
(1.97273e-05 -5.90832e-06 -3.18211e-07)
(1.97306e-05 -5.91636e-06 -1.68876e-06)
(2.08655e-05 -6.27773e-06 1.3026e-06)
(2.20277e-05 -6.65464e-06 2.37266e-06)
(2.20285e-05 -6.6703e-06 1.75489e-06)
(2.31897e-05 -7.06148e-06 1.33604e-06)
(1.86075e-05 -5.53123e-06 1.26352e-06)
(1.97365e-05 -5.88921e-06 2.30376e-06)
(1.97356e-05 -5.90575e-06 1.69809e-06)
(1.64256e-05 -4.82483e-06 1.21834e-06)
(1.53724e-05 -4.49571e-06 1.56182e-06)
(1.75021e-05 -5.18068e-06 2.76928e-07)
(1.75043e-05 -5.18011e-06 -3.07973e-07)
(1.75094e-05 -5.18779e-06 -1.62197e-06)
(1.75136e-05 -5.17999e-06 1.63383e-06)
(1.97699e-05 -5.863e-06 4.38782e-06)
(1.98112e-05 -5.87463e-06 5.81625e-06)
(2.08871e-05 -6.25539e-06 3.39532e-06)
(2.20525e-05 -6.65767e-06 3.85944e-06)
(2.32086e-05 -7.03924e-06 3.49032e-06)
(1.97627e-05 -5.89456e-06 3.73741e-06)
(1.64684e-05 -4.85243e-06 3.87931e-06)
(1.53862e-05 -4.51734e-06 2.86241e-06)
(1.75758e-05 -5.19397e-06 4.96143e-06)
(1.87072e-05 -5.54481e-06 6.15036e-06)
(1.75278e-05 -5.19804e-06 2.99965e-06)
(1.86493e-05 -5.55273e-06 4.04789e-06)
(1.97272e-05 -5.91526e-06 1.08931e-06)
(1.8602e-05 -5.54042e-06 6.04124e-08)
(1.97255e-05 -5.90262e-06 -9.55649e-07)
(2.0875e-05 -6.29595e-06 2.14971e-06)
(2.20429e-05 -6.682e-06 3.23316e-06)
(2.3201e-05 -7.07729e-06 2.22268e-06)
(1.86147e-05 -5.55197e-06 2.06778e-06)
(1.975e-05 -5.9205e-06 3.12314e-06)
(1.643e-05 -4.84818e-06 1.97675e-06)
(1.75026e-05 -5.18909e-06 1.04068e-06)
(1.75013e-05 -5.17233e-06 -9.27616e-07)
(1.97929e-05 -5.91367e-06 5.1577e-06)
(2.09058e-05 -6.29374e-06 4.19838e-06)
(2.32283e-05 -7.07256e-06 4.33125e-06)
(2.92517e-05 -9.12884e-06 4.82155e-06)
(2.80377e-05 -8.67704e-06 5.93018e-06)
(2.92797e-05 -9.1297e-06 6.42086e-06)
(3.0478e-05 -9.5827e-06 3.69797e-06)
(3.17159e-05 -1.00402e-05 2.5591e-06)
(3.17342e-05 -1.00368e-05 4.19902e-06)
(3.29742e-05 -1.04822e-05 3.74464e-06)
(2.80129e-05 -8.70651e-06 3.64068e-06)
(2.9233e-05 -9.15236e-06 2.5244e-06)
(2.92529e-05 -9.15023e-06 4.13471e-06)
(2.55704e-05 -7.87928e-06 1.36435e-06)
(2.43803e-05 -7.45593e-06 2.43192e-06)
(2.43825e-05 -7.47062e-06 1.80455e-06)
(2.67768e-05 -8.30844e-06 2.91143e-07)
(2.79973e-05 -8.74301e-06 -7.86977e-07)
(2.67824e-05 -8.31134e-06 -3.41074e-07)
(2.6785e-05 -8.28969e-06 2.48226e-06)
(2.79988e-05 -8.72771e-06 1.38804e-06)
(2.67884e-05 -8.3034e-06 1.84744e-06)
(2.6807e-05 -8.26508e-06 4.73833e-06)
(2.68384e-05 -8.26808e-06 6.30381e-06)
(2.55869e-05 -7.85745e-06 3.57179e-06)
(2.44035e-05 -7.45695e-06 3.96581e-06)
(2.68066e-05 -8.28901e-06 4.05728e-06)
(3.0466e-05 -9.60309e-06 1.4076e-06)
(3.1721e-05 -1.00519e-05 1.91449e-06)
(3.29641e-05 -1.05016e-05 1.42353e-06)
(2.9226e-05 -9.17072e-06 2.92383e-07)
(2.9232e-05 -9.17427e-06 -3.46274e-07)
(2.92373e-05 -9.16506e-06 1.88394e-06)
(2.9275e-05 -9.15595e-06 5.72665e-06)
(2.80669e-05 -8.71567e-06 6.8816e-06)
(3.04981e-05 -9.6025e-06 4.63051e-06)
(3.17338e-05 -1.00538e-05 3.54663e-06)
(3.29939e-05 -1.04981e-05 4.69983e-06)
(2.80332e-05 -8.73053e-06 4.54657e-06)
(2.92507e-05 -9.16905e-06 3.48623e-06)
(2.55833e-05 -7.8928e-06 2.28687e-06)
(2.43967e-05 -7.47952e-06 3.33006e-06)
(2.67863e-05 -8.31306e-06 1.20772e-06)
(2.8004e-05 -8.74041e-06 9.95245e-08)
(2.67839e-05 -8.31069e-06 -1.01517e-06)
(2.68022e-05 -8.30972e-06 3.41424e-06)
(2.80127e-05 -8.73906e-06 2.34253e-06)
(2.68308e-05 -8.29759e-06 5.61515e-06)
(2.5607e-05 -7.88598e-06 4.44708e-06)
(3.04808e-05 -9.61242e-06 2.38997e-06)
(3.29795e-05 -1.05091e-05 2.4296e-06)
(2.92368e-05 -9.17451e-06 1.23807e-06)
(2.92344e-05 -9.17496e-06 -1.02813e-06)
(3.54939e-05 -1.1401e-05 3.78177e-06)
(3.42259e-05 -1.09493e-05 2.5871e-06)
(3.42425e-05 -1.0945e-05 4.25123e-06)
(3.67662e-05 -1.18563e-05 4.9878e-06)
(3.80405e-05 -1.23142e-05 6.20303e-06)
(3.6785e-05 -1.18525e-05 6.65569e-06)
(3.67557e-05 -1.18758e-05 2.60918e-06)
(3.80303e-05 -1.23355e-05 3.81042e-06)
(3.67708e-05 -1.18707e-05 4.29244e-06)
(3.92952e-05 -1.28321e-05 2.95251e-07)
(3.80222e-05 -1.23678e-05 -8.38822e-07)
(3.93022e-05 -1.28376e-05 -3.57005e-07)
(3.92964e-05 -1.28454e-05 -1.98215e-06)
(4.05713e-05 -1.32983e-05 1.45412e-06)
(4.18495e-05 -1.37665e-05 2.63857e-06)
(4.18563e-05 -1.37749e-05 1.98685e-06)
(4.31242e-05 -1.42523e-05 1.45997e-06)
(3.80233e-05 -1.23529e-05 1.44635e-06)
(3.92989e-05 -1.28161e-05 2.62608e-06)
(3.93054e-05 -1.28251e-05 1.97518e-06)
(3.54854e-05 -1.14195e-05 1.43629e-06)
(3.42315e-05 -1.096e-05 1.93954e-06)
(3.67514e-05 -1.18924e-05 2.94512e-07)
(3.67582e-05 -1.18976e-05 -3.55642e-07)
(3.67532e-05 -1.19055e-05 -1.96638e-06)
(3.67618e-05 -1.18857e-05 1.95959e-06)
(3.93072e-05 -1.27979e-05 5.01996e-06)
(3.93234e-05 -1.27931e-05 6.70085e-06)
(4.0577e-05 -1.32818e-05 3.83169e-06)
(4.1862e-05 -1.37603e-05 4.34664e-06)
(4.31288e-05 -1.42366e-05 3.84671e-06)
(3.93126e-05 -1.28103e-05 4.32382e-06)
(3.55131e-05 -1.14134e-05 4.75559e-06)
(3.42438e-05 -1.096e-05 3.59615e-06)