/*--------------------------------*- C++ -*----------------------------------*\
| =========                 |                                                 |
| \\      /  F ield         | OpenFOAM: The Open Source CFD Toolbox           |
|  \\    /   O peration     | Version:  2012                                  |
|   \\  /    A nd           | Website:  www.openfoam.com                      |
|    \\/     M anipulation  |                                                 |
\*---------------------------------------------------------------------------*/
FoamFile
{
    version     2.0;
    format      ascii;
    class       volSymmTensorField;
    location    "0.107/solid";
    object      sigma;
}
// * * * * * * * * * * * * * * * * * * * * * * * * * * * * * * * * * * * * * //

dimensions      [1 -1 -2 0 0 0 0];


internalField   nonuniform List<symmTensor> 
3125
(
(-553.559 -1181.8 3002.48 -2267.66 -3076.23 196242)
(1693.02 -2155.19 3545.67 -1658.34 -3062.29 398426)
(-954.323 40.7797 -195.195 -1450.6 32.169 478.207)
(-2514.59 -244.072 1684.06 -2748.06 -1922.69 41646.5)
(1844.73 -2216.3 3558.35 -1612.36 -3034.19 413644)
(-2444.25 687.503 84753.5 2824.66 1669.21 -70723.3)
(-2702.43 957.699 96536.2 3149.7 2469.6 -103898)
(-4276.27 760.803 9851.79 64.881 -3032.26 393313)
(-586.362 -886.758 3113.41 -151.851 1707.5 425757)
(-1092.98 143.536 87051.6 -2587.59 -4962.94 -30007.8)
(-903.498 105.686 99874.4 -3723.66 -5113.16 -52300.6)
(-3431.97 67.5329 9481.4 -2221.39 1479.6 414315)
(-3384.3 552.271 7797.38 -801.318 -3117.35 186899)
(-2409.51 645.374 82632.6 2753.27 1546.03 -66112.6)
(-4215.35 747.403 9753.54 10.2045 -3064.92 378829)
(-2176.98 333.364 64587 2128.8 751.756 -35912.4)
(-1941.77 -574.465 2056.89 -1447.71 529.008 203169)
(-673.154 -872.748 3050.61 -231.453 1615.32 410249)
(-2897.57 -53.9145 6892.75 -2126.81 308.565 198920)
(-1129.24 142.595 84815.4 -2405.3 -4918.11 -27316.4)
(-3391.18 61.6163 9329.69 -2221.06 1389.37 399324)
(-1429.69 80.3089 66110.4 -1072.98 -4293.42 -12087.6)
(-688.198 -1114.47 2948.95 -2297.49 -3042.67 184727)
(-2429.58 -283.795 1787.28 -2725.52 -2029.28 48050.5)
(-3338.97 540.146 7626.87 -858.144 -3085.43 175990)
(-1757.47 20.0497 37125.2 1382.22 205.114 -9846.25)
(-2141.09 289.327 61546 2029.88 657.777 -32029.1)
(-2807.12 383.378 4475.09 -1594.83 -2068.95 46809.2)
(-2000.34 -546.923 1991.55 -1521.42 474.91 191319)
(-2843.43 -197.501 1015.54 -2517.17 -13.7848 50103.7)
(-2877.82 -62.2449 6708.16 -2121.77 259.875 187426)
(-1583.51 -52.8892 37972 260.629 -2694.6 -2152.85)
(-1470.84 66.9617 62986.1 -884.492 -4149.6 -10420.1)
(-2664.38 -193.827 3722.78 -2023.36 -161.019 50398.7)
(-2261.98 261.738 34.2364 -1217.79 23.41 333.324)
(-1693.97 -7.68132 33234.3 1301.64 177.687 -7598.77)
(-2781.04 375.262 4209.97 -1634.48 -1959.83 40767.8)
(-945.549 -120.131 -221.573 -1474.17 -76.1099 468.138)
(-2876.94 -174.001 943.831 -2569.15 -29.1683 43464.1)
(-2214.28 -240.058 5.32882 -1184.51 -113.269 361.703)
(-1573.89 -67.8802 33990.3 382.933 -2419.62 -1460.27)
(-2657.5 -200.582 3486.81 -2019.1 -165.945 43944.9)
(464.825 -1636.91 3322.02 -2001.82 -3176.63 284101)
(608.02 -1699.42 3355.64 -1960.6 -3176.85 297625)
(-2951.04 7.12215 694.776 -2810.63 -895.21 5609.46)
(-2927.05 -9.00939 835.463 -2810.92 -1034.46 8484.38)
(3110.53 -2702.95 3632.31 -1221.05 -2686.99 541820)
(2961.37 -2641.98 3634.44 -1265.72 -2736.5 525221)
(-689.932 1018.2 66998.2 4757.17 -2230.74 291398)
(-4810.75 858.811 10472.9 449.031 -2654.54 515411)
(-1130.27 893.562 64183.8 4310.13 -2453.2 244531)
(-2552.6 809.187 90446.7 3002.02 2034.21 -84799.9)
(-1984.49 690.587 69012.9 3384.5 -1557.75 121958)
(-1630.93 811.929 73464.3 3772.68 -1348.52 150256)
(-1195.16 970.187 78146.6 4191.22 -1035.07 191554)
(-2589.24 848.094 92127.3 3048.98 2149.78 -89550.4)
(-1517.25 852.983 74766.5 3890.27 -1272.15 160220)
(-4742.77 847.304 10405.6 401.075 -2708.8 499577)
(-1750.04 731.385 59348.4 3624.81 -2684.92 186802)
(-1281.17 852.505 63093.3 4148.74 -2519.2 229556)
(251.702 -951.507 3638.31 500.79 2475.26 556046)
(153.864 -945.197 3579.46 424.155 2372.8 539208)
(-1812.17 -760.193 69403.8 -2806.61 930.114 346011)
(-3823.75 103.79 10579.9 -2230.53 2259.9 540075)
(-2164 -656.374 65806.2 -2646.93 559.271 294769)
(-1000.61 137.935 93137.7 -3106.03 -5053.46 -38844.1)
(-2681.88 -266.188 70281 -2874.54 -1280.81 165742)
(-2412.25 -320.287 75328.4 -3295.42 -1052.62 199707)
(-2061.08 -412.843 80976.1 -3762.97 -718.041 247134)
(-975.007 133.486 94966.2 -3268.4 -5072.59 -42034.9)
(-2325.06 -338.995 76853.7 -3424.39 -970.092 211360)
(-3772.04 100.753 10446.1 -2233.86 2158.54 523825)
(-2633.9 -534.923 60099.6 -2332.99 82.974 229795)
(-2281.27 -622.573 64478.9 -2579.1 436.785 278129)
(-3741.52 642.793 8834.68 -415.993 -3204 270198)
(-3041.58 447.685 45665.7 2064.12 -2697.56 91309.5)
(-2559.15 545.618 51446.9 2661.7 -2781.45 123686)
(-2106.01 651.04 67342.5 3243.69 -1617.49 113090)
(-2308.65 513.385 75590.8 2507.9 1184.37 -52641.2)
(-2481.52 531.377 61754.5 2785.15 -1749.87 88294.1)
(-3795.97 655.807 8967.78 -359.142 -3201.23 283040)
(-1909.31 693.167 57937.2 3440.6 -2725.01 173326)
(-2395.01 582.021 53198.3 2862.11 -2784.61 135429)
(-2984.58 382.798 52922.9 2133.87 -1794.13 59731.3)
(-2276.12 468.848 73012.6 2417.07 1070.72 -48305)
(-2607.69 493.753 59696 2627.3 -1776.73 80659)
(-1396.59 -734.428 2518.6 -888.767 971.875 293390)
(-1313.08 -752.477 2582.52 -808.429 1046.92 307244)
(-3091.28 4.90282 8082.91 -2178.85 744.171 286308)
(-3579.02 -348.529 45337.4 -1448.98 -589.55 116440)
(-3228.43 -410.442 51413.8 -1806.6 -398.596 155818)
(-2773.99 -248.938 68435.1 -2723.47 -1347.7 154801)
(-1252.44 125.148 77465.3 -1841.26 -4723.88 -20017.9)
(-3053.25 -211.811 62399.8 -2238.83 -1502.97 123360)
(-3123.69 13.4973 8251.4 -2182.73 815.545 299720)
(-2753.39 -506.148 58501.9 -2238.57 -27.3559 214281)
(-3110.44 -430.396 53293.5 -1921.67 -317.006 169846)
(-3426.84 -175.006 53142.7 -1560.4 -1583.99 85354.5)
(-1296.36 117.297 74794.8 -1648.66 -4635.33 -17843.7)
(-3148.22 -198.937 60216.6 -2073.05 -1538.78 113400)
(-1588.7 -696.549 2482.1 -2524.61 -2687.18 112076)
(-1704.96 -636.728 2406.04 -2549.41 -2620.01 102903)
(-3196.79 418.401 43559 1868.47 -2640.47 81509.6)
(-3052.87 456.798 6313.2 -1227.07 -2732.72 107262)
(-3631.26 332.502 36680.5 1300.06 -2377.85 55240.5)
(-1956.34 125.033 48239.7 1641.88 351.363 -18120)
(-3694.49 142.45 30285.3 924.972 -1283.12 19223.6)
(-3524.89 218.502 39578.9 1338.38 -1574.98 31754.7)
(-3105.51 348.737 50462.9 1970.7 -1776.13 53435.5)
(-2011.48 164.109 51736.3 1735.51 416.538 -21323.1)
(-3433.79 250.319 42459.1 1492.5 -1644.99 36643.3)
(-3018.1 446.243 6102.3 -1278.85 -2665.24 98588.5)
(-4036.63 245.881 26119.1 643.016 -1812.48 27919.1)
(-3756.31 308.464 34195.1 1123.96 -2261.28 47566.8)
(-2453.73 -378.602 1544.68 -2032.25 190.464 116384)
(-2499.22 -352.247 1478.09 -2095.52 156.351 106911)
(-3693.54 -328.623 43160.4 -1329.34 -632.416 104306)
(-2750.6 -127.329 5404.3 -2070.33 -1.66674 114749)
(-4009.58 -285.448 36159.3 -977.158 -692.127 71273.6)
(-1583.97 1.2579 49346.3 -178.894 -3416.14 -4966.86)
(-3921.99 -147.978 30161.2 -352.964 -1169.26 27608.1)
(-3821.59 -154.855 39513.4 -752.337 -1420.23 45966.2)
(-3516.45 -166.952 50603.7 -1392.12 -1576.26 76685.2)
(-1565.99 19.3283 52926.8 -344.865 -3623.38 -6149.17)
(-3759.06 -154.543 42431.6 -906.476 -1478.13 53010.9)
(-2738.84 -136.009 5199.98 -2065.53 -28.2207 105551)
(-4283.38 -235.125 25607.7 -573.593 -621.902 36097.9)
(-4100.13 -270.457 33657.3 -866.46 -692.669 61478.1)
(-2600.21 333.954 1734.88 -1823.05 -915.747 6671.08)
(-8958.92 49.9102 830.341 155.274 -129.012 160.827)
(-4268.85 167.915 10550.2 107.544 -794.911 6441.35)
(-3708.38 123.952 26969.3 803.249 -1159.04 15737.3)
(-1712.7 -64.775 21130.4 1094.55 115.349 -2606.21)
(-3733.37 72.2422 16445.9 509.915 -739.747 7179.33)
(-2619.99 337.504 2086.49 -1815.13 -1057.44 9420.11)
(-4083.57 230.625 23207.7 503.583 -1629.09 22509.2)
(-4133.05 184.579 13832.7 179.979 -1013.99 9657.66)
(-9014.88 -27.1738 980.48 247.371 -129.888 86.102)
(-1930.47 -79.6534 16924.1 1017.07 96.5005 -1558.76)
(-3920.8 59.3201 12794.9 437.575 -591.123 4887.55)
(-3034.39 -59.5314 299.15 -2808.27 -139.658 5995.73)
(-3025.48 -69.789 396.564 -2794.52 -114.623 9000.07)
(-2575.4 -256.058 1344.4 -1943.06 -207.848 7373.32)
(-9091.37 -80.0631 820.276 17.7103 -74.1133 111.896)
(-4401.71 -203.585 10290.8 -225.742 -347.757 8173.61)
(-3915.71 -143.019 26841.4 -243.057 -1061.69 22458.8)
(-1709.49 -82.5395 21624 663.812 -1536.73 -119.223)
(-3886.28 -139.557 16357.8 29.3476 -695.79 9954.3)
(-2588.76 -248.294 1657.42 -1960.62 -195.472 10342.5)
(-4302.85 -221.969 22728.6 -491.511 -577.115 29051.9)
(-4284.46 -201.429 13513.6 -282.141 -410.361 12319.2)
(-9168.03 -96.5121 976.786 100.797 -85.1459 33.9729)
(-1955.83 -76.6117 17344 696.824 -1243.43 59.4264)
(-4062.26 -137.063 12727.7 83.2886 -570.398 6708.25)
(-117.244 -1374.52 3155.37 -2150.45 -3144.26 232390)
(1226.74 -1962.48 3475.47 -1788.63 -3134.63 353966)
(-2827.92 55.4802 67.753 -2647.19 -279.347 -523.456)
(-2729.48 -129.253 1346.62 -2791.62 -1565.29 24822.8)
(3751.82 -2927.57 3623.5 -1002.82 -2454.18 609716)
(2334.03 -2403.71 3605.34 -1460.54 -2921.12 460424)
(-5091.26 904.399 10694.2 624.958 -2405.15 580183)
(-1164.55 1796.31 39619.4 -1156.93 -2784.21 453296)
(-2480.51 729.153 86762.1 2889.08 1792.38 -75379.8)
(-1453.29 550.987 81740.6 3947.16 768.041 -6106.46)
(-1368.9 587.23 83661.1 4096.87 875.626 -6160.97)
(-867.213 793.501 92968.3 4871.17 1494.68 -5031.12)
(-2664.73 922.83 95169.8 3121.68 2368.14 -99104.4)
(-949.878 761.303 91671.8 4758.01 1398.85 -5394.06)
(-4466.73 798.965 10111.6 215.722 -2908.99 437835)
(-1928.77 1356.26 35439 -1068.1 -3246.47 308300)
(-2500.58 1316.7 36014.2 -1672.88 -2091.37 342387)
(714.977 -957.063 3893.97 828.706 2884.68 624828)
(-267.488 -920.203 3317.95 106.532 1985 473383)
(-4044.5 114.25 11078 -2219.46 2677.2 606381)
(-565.038 -894.569 39936.4 1070.24 941.95 478903)
(-1059.04 143.982 89183.1 -2765.33 -4999.67 -32827.4)
(-1159.65 -34.7006 83850 -2216.98 -3923.64 35680.5)
(-1053.32 -40.9957 85914.6 -2344.66 -3928.94 37514.3)
(-423.02 -113.856 96301.7 -2954.64 -3868.4 47957)
(-927.952 117.258 98331.8 -3577.17 -5102.25 -48766.3)
(-529.981 -97.012 94799 -2872 -3884.89 46294.8)
(-3564.19 83.838 9906.25 -2226.86 1763.98 460302)
(-1352.9 -597.182 35005.2 745.002 -38.1252 328939)
(-1866.32 -530.586 36238 253.398 538.467 364432)
(-3526.38 591.177 8269.23 -634.111 -3180.64 221145)
(-2935.77 810.926 27106 -907.61 -3186.79 148696)
(-3269.93 753.99 28636.9 -1364.1 -2658.54 174892)
(-1538.22 514.623 79712.1 3792.4 662.527 -5985.92)
(-2375.97 601.811 80399.6 2675.33 1423.56 -61555.9)
(-1623.89 477.43 77572.7 3631.67 559.101 -5802.11)
(-4024.59 708.657 9444.15 -140.903 -3146.77 336558)
(-2695.87 1167.41 34472.9 -1601.04 -2312.55 296713)
(-2182.19 1213.51 33662.8 -1030.13 -3319.03 264345)
(-2115.64 256.719 62382.3 2611.76 40.2124 -3610.21)
(-2211.19 378.349 67512 2226.36 852.512 -39928.5)
(-2039.55 293.046 65198.9 2784.32 111.513 -4079.49)
(-1708.29 -646.518 2254.12 -1201.9 702.303 240338)
(-958.355 -828.895 2847.29 -474.029 1359.71 364870)
(-2968.59 -27.444 7411.7 -2147.34 479.043 234932)
(-2516.03 -312.22 26183.6 139.433 -843.442 160661)
(-2927.94 -287.17 28060.7 -215.1 -498.498 188384)
(-1266.22 -27.6502 81683.7 -2083.72 -3910.41 33829.2)
(-1167.72 138.45 82473.4 -2219.78 -4864.15 -24753.5)
(-1373.26 -23.8322 79417.9 -1945.42 -3889.16 31965.1)
(-3261.88 42.4795 8881.62 -2201.22 1128.51 355464)
(-2141.03 -459.916 34441.7 143.87 226.083 316800)
(-1635.29 -512.702 33046.1 608.721 -308.341 282967)
(-1997.02 -24.1957 63612.3 -1033.89 -3529.77 20852.5)
(-1385.54 94.4236 69119.4 -1263.65 -4421.48 -13879.3)
(-1898 -20.4253 66515.5 -1191.19 -3620.15 22661.8)
(-1083.81 -930.876 2763.43 -2395.39 -2915.06 151846)
(-2132.68 -429.374 2073.73 -2653.44 -2314.62 69481.5)
(-3453.3 635.248 26263.6 -1279.68 -2646.39 140096)
(-3203.4 503.577 7094.81 -1016.03 -2960.28 144869)
(-3172.68 688.948 24487.9 -871.664 -3003.12 116296)
(-1828.23 53.6887 40928.5 1463.57 243.322 -12363.1)
(-2432.35 11.245 35795.6 1368.19 -212.847 247.644)
(-2437.12 36.3166 39499.8 1500.1 -215.594 -139.743)
(-2188.29 222.19 59453.7 2440.46 -22.3031 -3116.6)
(-2103.27 245.539 58390.3 1928.94 570.587 -28293.4)
(-2255.31 187.423 56409.3 2270.77 -77.0329 -2604.79)
(-2886.35 407.589 5213.38 -1465.71 -2358.03 67024.1)
(-3785.23 383.447 15152.4 -815.875 -2050.89 40843.1)
(-3932.21 334.402 17720.8 -1061.81 -2145.13 56327.9)
(-2203.32 -475.561 1800.26 -1741.44 340.016 157432)
(-2704.06 -263.213 1215.8 -2340.99 42.1779 72326.7)
(-3192.79 -241.998 25588.9 -347.675 -649.879 151288)
(-2810.41 -89.4835 6166.95 -2093.44 131.173 154568)
(-2813.71 -260.531 23554.4 -29.7862 -908.459 126009)
(-1591.2 -34.0601 41864.5 125.092 -2953.14 -2968.6)
(-2482.04 -77.434 36415.3 99.3485 -2260.54 8213.05)
(-2466.95 -67.986 40188.6 -18.2904 -2474.34 9564.57)
(-2091.14 -26.4867 60596.4 -877.771 -3423.58 19079.3)
(-1507.44 50.9478 59747.4 -698.906 -3989.89 -8874.66)
(-2179.67 -31.9257 57472.2 -722.914 -3303.74 17348)
(-2687.24 -170.633 4376.08 -2037.65 -121.487 71978.7)
(-3603.28 -148.255 14420.9 -528.784 -793.086 44600.9)
(-3841.54 -150.314 17018.4 -699.011 -768.122 61217.8)
(-2467.75 334.367 258.081 -1712.72 -292.16 490.199)
(-6483.46 342.883 121.956 -348.067 -73.0297 181.604)
(-4419.9 185.705 2022.86 -736.684 -389.651 2353.03)
(-2420.3 -8.89327 32000.5 1243.21 -199.506 557.065)
(-1648.52 -32.1847 29268.1 1226.46 157.842 -5636.35)
(-2409.25 -26.1351 28120.7 1128.15 -179.098 777.316)
(-2705.4 357.206 3364.99 -1731 -1596.21 24892.8)
(-4022.63 274.277 14300.5 -998.5 -1813.32 36144.8)
(-3894.73 309.111 11404.8 -824.581 -1579.26 23844.7)
(-7134.34 -270.229 1449.28 731.972 -93.0387 41.2494)
(-4486.61 -80.2623 7041.93 632.822 -36.1847 151.624)
(-2841.43 -8.55015 -124.407 -2696.24 -203.889 -505.784)
(-2970.75 -124.999 730.955 -2689.59 -57.8043 25992.7)
(-2462.12 -291.267 60.9825 -1749.97 -231.993 566.81)
(-6511.06 -166.558 75.9659 -424.012 -39.4022 170.769)
(-4402.71 -144.046 1824.24 -791.093 -268.193 2544.78)
(-2484.45 -83.1527 32547.3 204.394 -2032.19 6935.89)
(-1572.91 -79.9224 29931.9 492.558 -2130.07 -888.395)
(-2485.67 -88.4887 28601.2 298.302 -1791.63 5728.73)
(-2624.96 -220.86 2763.26 -1995.96 -173.379 26954.4)
(-3987.42 -120.074 13678.8 -803.487 -697.452 39325.4)
(-3769.12 -120.319 10822.8 -677.426 -645.124 26104.2)
(-7274.43 -186.209 1476.85 581.79 -116.528 -8.93524)
(-4562.02 -135.192 7238.65 497.581 -536.481 623.847)
(22.5664 -1436.12 3198.27 -2110.45 -3158.7 244953)
(1077.06 -1894.97 3451.86 -1827.17 -3150.49 339559)
(-2902.14 61.9999 229.351 -2704.85 -435.792 202.398)
(-2793.51 -89.4697 1226.92 -2797.06 -1441.24 20051.6)
(3600.36 -2870.84 3639.17 -1052.32 -2512.91 592533)
(2486.7 -2462.29 3608.99 -1410.52 -2880.48 476375)
(-2012.41 188.292 51823.8 2804.97 -3644.24 394114)
(-834.504 976.323 66133.6 4615.31 -2308.47 275468)
(-2081.23 198.921 51199.8 2720.08 -3716.73 372719)
(-5021.98 893.337 10642.4 579.309 -2470.31 563777)
(-1418.12 1650.57 38409.5 -1131.34 -2969.86 402996)
(-2115.69 1626.78 38530.2 -1795.26 -1557.76 440022)
(-980.524 935.524 65197.1 4467.33 -2382.53 259841)
(-2225.34 219.706 49776.5 2537.21 -3842 331095)
(-2150.36 210.1 50518.6 2631.73 -3782.99 351706)
(-2516.71 769.766 88658.8 2948.26 1914.76 -80074.7)
(-1199.28 658.234 87178 4380.03 1091.02 -6064.45)
(-1284.03 623.142 85472.2 4241.57 983.643 -6147.35)
(-1918.39 780.629 76550.9 3562.38 -352.072 57622.9)
(-1864.01 731.2 70590 3520.75 -1492.54 131115)
(-1823.05 832.331 78327.7 3695.69 -265.081 62139.8)
(-1637.83 936.011 81575 3943.69 -84.5524 71689.8)
(-1745.49 772.036 72072.4 3651.24 -1422.18 140551)
(-1729.85 884.213 80001.2 3822.49 -175.43 66829.6)
(-1287.86 1141.04 86896.8 4357.15 273.967 92726.8)
(-1299.14 932.327 77105.2 4098.39 -1114.89 180879)
(-1372.65 1090.91 85708.6 4263.76 186.323 87239.1)
(-2627.18 886.043 93700.7 3087.86 2261.52 -94320.3)
(-1115.32 693.462 88778.7 4512.92 1196.4 -5911.31)
(-1032.38 727.733 90276 4638.51 1299.48 -5687.4)
(-1406.75 893.219 75979.7 3997.97 -1193.58 170431)
(-1547.66 987.998 83050.1 4057.47 6.66903 76714.9)
(-1458.93 1039.73 84427.3 4163.85 97.4485 81899.9)
(-4530.6 811.446 10192.5 267.84 -2863.49 453032)
(-2308.53 1471.86 37362.7 -1736.36 -1837.73 390231)
(-1669.43 1501.54 37018.3 -1101.96 -3124.57 354591)
(-2559.9 251.67 46186.9 2101.44 -4000.9 253123)
(-1591.57 771.207 60678 3805.41 -2636.37 200676)
(-2470.17 244.139 47180.5 2217.74 -3974.24 271901)
(-2302.87 228.798 48973 2436.12 -3893.64 310909)
(-1435.33 811.837 61925.1 3979.81 -2580.74 214932)
(-2384.27 236.769 48108.1 2329.25 -3938.11 291170)
(609.699 -956.057 3838.01 752.831 2777.05 607436)
(-165.068 -926.691 3378.26 187.496 2083.28 489600)
(-3342.54 287.984 53687.5 -2934.58 2900.37 448728)
(-1929.58 -723.39 68266.9 -2761.66 806.416 328728)
(-3377.08 266.327 52770.3 -2875.9 2732.53 425975)
(-3988.39 112.189 10953.1 -2224.79 2570.73 589611)
(-818.282 -786.491 38446.7 975.886 596.115 427142)
(-1352.53 -695.444 39342.9 430.436 1205.13 465425)
(-2047.49 -687.595 67067.9 -2708.69 682.687 311641)
(-3443.26 219.059 50793.8 -2742.4 2396.11 381320)
(-3411.91 243.9 51805 -2812.59 2563.85 403497)
(-1028.15 142.901 91210.5 -2938.06 -5029.12 -35773.6)
(-843.814 -60.0599 89750 -2576.88 -3922.58 41111.5)
(-948.095 -48.7325 87880.7 -2465.11 -3928.27 39325.6)
(-2132.61 -297.245 78286.6 -2668.82 -2680.83 100989)
(-2591.59 -281.591 72043.9 -3021.51 -1208.68 176883)
(-2042.62 -321.522 80230.1 -2816.15 -2649.63 107467)
(-1864.68 -376.265 83844.8 -3090.61 -2572.75 120658)
(-2502 -298.458 73725.9 -3162.69 -1132.09 188210)
(-1952.82 -347.499 82082 -2956.04 -2613.29 114028)
(-1515.39 -506.058 90037.9 -3556.5 -2387.21 147746)
(-2149.58 -385.779 79675.4 -3657.13 -802.627 235087)
(-1603.58 -469.965 88614.6 -3450.82 -2435.54 140905)
(-951.108 126.768 96696.4 -3425.5 -5088.76 -45343.9)
(-739.597 -69.9522 91526.2 -2682.73 -3912.07 42870.3)
(-635.557 -82.2467 93207.6 -2781.89 -3899.43 44598.1)
(-2237.36 -360.819 78301.5 -3544 -886.07 223158)
(-1776.42 -405.214 85520.8 -3216.71 -2528.23 127354)
(-1690.29 -436.45 87109.3 -3337.27 -2482.35 134105)
(-3611.84 89.5765 10048.6 -2225.1 1860.52 475959)
(-1611.42 -608.719 37868.6 346.037 866.465 414049)
(-1088.09 -687.839 36806.2 864.162 268.502 377075)
(-3590.37 118.521 46251.9 -2420.36 1732.01 296089)
(-2516.16 -562.329 61627.1 -2422.46 197.591 245622)
(-3552.38 144.646 47461.6 -2507.76 1895.23 316824)
(-3479.35 195.406 49731.3 -2668.97 2228.44 359464)
(-2398.4 -591.106 63086.6 -2504.29 316.324 261740)
(-3515.67 170.65 48622.5 -2590.64 2061.46 337957)
(-3575.51 604.105 8419.37 -576.093 -3192.96 233060)
(-3082.65 885.848 30790.3 -1445.28 -2600.88 212744)
(-2682.9 936.741 29501.8 -946.418 -3292.71 184321)
(-3369.21 301.106 35773.7 1043.67 -3739.89 123055)
(-2882.29 479.646 47682.8 2263.79 -2739.66 101614)
(-3260.36 295.895 37324.9 1182.24 -3825.22 137168)
(-3049.59 284.749 40206.7 1457.89 -3945.64 167332)
(-2721.17 512.844 49608.4 2463.7 -2767.26 112410)
(-3153.14 290.538 38801.1 1320.49 -3893.17 151934)
(-2014.66 729.35 74671.7 3423.19 -435.464 53284)
(-2229.5 611.107 65576.2 3094.78 -1670.07 104517)
(-2112.32 677.701 72687.7 3277.81 -514.35 49125.2)
(-2341.91 558.157 78052.3 2593.94 1302.2 -57061.8)
(-1792.72 403.008 72961 3300.07 364.097 -5259.22)
(-1708.99 440.718 75323.3 3467.76 459.326 -5558.46)
(-2353.93 572.128 63714.4 2943.88 -1714.52 96250.2)
(-2309.67 575.525 68403.6 2975.03 -654.024 41356.1)
(-2210.5 626.651 70599.1 3128.37 -587.41 45148.6)
(-3965.89 695.798 9329.23 -196.423 -3166.21 322861)
(-2434.13 1073.9 31685.9 -987.01 -3334.16 222946)
(-2886.78 1023.27 32733.9 -1524.86 -2485.87 253425)
(-2651.66 259.523 45127.3 1980.4 -4015.86 234859)
(-2070.96 655.312 56442 3250.55 -2755.8 160263)
(-2747.2 266.272 44000.2 1854.08 -4018.94 217127)
(-2945.34 279.769 41541.3 1593.36 -3984.02 183345)
(-2232.48 618.709 54863.2 3058.1 -2775.71 147626)
(-2844.61 273.329 42805.6 1724.96 -4008.69 199949)
(-2699.7 381.075 58544.5 2337.03 -843.423 28039.3)
(-2860.29 419.132 55282.5 2299.04 -1799.69 66370.7)
(-2604.11 428.269 61173.5 2498.25 -808.75 31090.1)
(-2244.32 423.594 70320.9 2321.94 959.672 -44064)
(-1876.33 366.682 70486.5 3129.77 274.818 -4909.66)
(-1959.11 329.996 67899.3 2957.42 190.028 -4514.21)
(-2734.14 456.398 57538.9 2464.43 -1793.89 73349)
(-2408.92 525.743 66101.1 2817.99 -713.394 37748.4)
(-2507.09 476.536 63691.3 2658.41 -765.194 34326.1)
(-1629.42 -666.712 2318.24 -1122.35 768.364 253238)
(-1038.21 -809.121 2783.47 -552.9 1275.27 350150)
(-2995.72 -18.0696 7588.19 -2152.02 539.863 247429)
(-2664.72 -337.022 30357 -88.312 -296.711 228516)
(-2230.35 -373.133 28641.4 299.075 -714.309 198555)
(-3964.93 -80.6643 34701.9 -1629.36 629.262 148117)
(-3463.61 -366.562 47437.3 -1570.82 -536.474 129088)
(-3915.07 -55.7216 36330.3 -1732.71 740.83 164581)
(-3813.01 -7.26351 39426.1 -1937.3 991.756 199413)
(-3346.76 -385.867 49462.5 -1690.09 -472.238 142223)
(-3865.77 -30.664 37906.1 -1836.09 862.772 181690)
(-2223.7 -273.038 76249.5 -2515.69 -2705.63 94601.6)
(-2867.16 -234.588 66507.7 -2565.92 -1407.64 144079)
(-2316.03 -251.894 74120.2 -2357.94 -2722.52 88316.2)
(-1208.87 133.99 80024.2 -2031.46 -4799.75 -22320.9)
(-1587.26 -19.661 74576.1 -1653.79 -3816.16 28219.9)
(-1479.78 -19.6589 77049 -1801.92 -3857.78 30093.5)
(-2960.64 -219.962 64496 -2405.55 -1459.71 133593)
(-2502.03 -215.124 69575.3 -2030.47 -2729.38 76097.2)
(-2408.91 -231.467 71895.9 -2195.14 -2730.77 82144.3)
(-3225.95 35.9563 8721.56 -2198.45 1047.33 341221)
(-1934.72 -438.543 30927.3 457.194 -533.077 239416)
(-2408.47 -394.297 32482 28.8232 -55.377 271408)
(-3633.55 94.4151 44987.5 -2330.5 1572.58 275781)
(-2872.13 -479.584 56836.5 -2138.15 -131.132 199102)
(-3676.07 69.1742 43676.2 -2236.15 1418.24 255929)
(-3768.16 19.2993 40896.9 -2040.09 1127.61 217713)
(-2991.49 -453.21 55100 -2032.63 -228.216 184282)
(-3722.44 45.0066 42311.2 -2139.75 1269.24 236562)
(-2868.59 -158.733 59305.1 -1345.5 -2616.36 53430.9)
(-3335.19 -181.072 55589.6 -1731.37 -1579.69 94377.2)
(-2779.36 -169.669 62022.8 -1517.32 -2661.82 58842.5)
(-1340.17 107.257 72013.6 -1454.81 -4534.93 -15797.1)
(-1692.95 -17.4285 71995.2 -1502.12 -3762.29 26352.8)
(-1796.7 -17.4706 69309.8 -1347.65 -3697.75 24497.6)
(-3242.07 -188.409 57947.5 -1902.42 -1564.86 103733)
(-2594.02 -197.855 67155.9 -1860.3 -2718.06 70190.2)
(-2686.93 -182.403 64639.7 -1688.4 -2695.7 64434.6)
(-1211.07 -865.945 2698.13 -2422.4 -2865.12 141458)
(-2034.34 -475.423 2160.71 -2625.1 -2396.85 77334.4)
(-3475.21 307.152 34148.4 905.881 -3636.65 109612)
(-3349.15 388.836 41359.7 1674.02 -2567.82 72223.8)
(-3582.01 310.927 32446.4 767.501 -3514.21 96857.3)
(-3163.14 492.132 6905.45 -1070.93 -2910.23 135037)
(-3403.18 571.067 21640.4 -842.884 -2751.45 87348.5)
(-3626.39 522.918 23663.8 -1200.13 -2552.05 108575)
(-3493.84 361.621 39068.2 1485.88 -2480.49 63464.2)
(-3788.42 315.148 28810.7 500.13 -3218.38 73487.5)
(-3685.04 314.269 30668.4 632.625 -3375.42 84809.4)
(-1895.59 88.885 44635.4 1549.88 292.576 -15127.8)
(-2401.08 91.4936 46595.9 1790.16 -188.003 -1062.22)
(-2426.64 63.7421 43100.6 1641.27 -207.654 -581.214)
(-3167.88 70.482 33542.5 1161.78 -731.305 9926.42)
(-3657.74 166.298 33494.2 1055.4 -1395.21 23049)
(-3158.95 100.722 37052.7 1287.72 -785.777 11632.2)
(-3087.44 169.937 43748 1563.49 -857.846 15479.6)
(-3599.26 192.91 36590.8 1194.55 -1492.42 27224.9)
(-3131.77 134.414 40454.7 1421.71 -827.876 13478.7)
(-2791.55 336.162 55807.5 2176.62 -867.406 25171.4)
(-3221.86 314.725 47898.8 1806.91 -1745.22 47486.2)
(-2877.98 291.869 52958.7 2017.68 -881.018 22485.8)
(-2060.34 204.161 55120.1 1830.93 489.981 -24719.5)
(-2363.14 123.075 49980.1 1945.17 -160.552 -1567.43)
(-2314.17 154.97 53252.1 2105.78 -123.055 -2085.41)
(-3332.24 282.373 45232.1 1647.77 -1700.96 41887.3)
(-3029.19 208.74 46930.1 1709.66 -876.327 17643.4)
(-2958.16 249.447 50000.5 1861.27 -883.679 19976.8)
(-2915.28 416.621 5446.02 -1418.76 -2441.79 74439.9)
(-3791.49 419.864 20824 -1126.56 -2384.54 80566.4)
(-3602.34 463.25 18541.6 -821.025 -2438.36 62109.3)
(-4115.86 328.615 20513.9 18.887 -2413.02 35879)
(-3963.77 264.881 28920 794.076 -1979.38 33898.7)
(-4050.65 323.758 22731.2 128.916 -2645.27 44088.5)
(-3883.11 317.029 26871.5 371.217 -3045.56 62913)
(-3868.66 285.953 31609.4 954.758 -2128.45 40450.2)
(-3971.43 319.664 24846.4 246.578 -2854.79 53107.1)
(-2255.6 -447.45 1735.19 -1810.83 297.212 146721)
(-2651.64 -282.611 1282.4 -2280.73 69.4505 80457.9)
(-4021.6 -102.47 33015.4 -1529.01 526.511 132334)
(-3803.27 -312.275 40907.5 -1209.68 -662.787 92715.2)
(-4075.3 -126.293 31276.3 -1428.27 435.309 117269)
(-2794.58 -98.1753 5974.13 -2088.03 95.7397 144173)
(-3100.85 -222.078 20735.9 -197.097 -918.736 94906.1)
(-3437.62 -204.979 22938 -473.787 -739.097 117525)
(-3910.25 -295.724 38574.3 -1092.92 -683.306 81694.5)
(-4181.13 -175.082 27616.3 -1236.56 277.488 89433.7)
(-4132.33 -149.044 29476.8 -1331.86 351.209 102956)
(-1591.44 -14.6135 45657.4 -20.5051 -3193.45 -3905.81)
(-2391.53 -52.1284 47428.3 -279.388 -2852.35 12482.9)
(-2436.16 -58.071 43861.4 -144.333 -2672.3 10988.9)
(-3315.62 -107.215 33811.2 -121.748 -1748.62 18233.2)
(-3908.7 -148.941 33379.8 -476.615 -1266.58 33248.3)
(-3309.28 -109.559 37363.8 -247.507 -1907.82 21736.8)
(-3239.48 -118.053 44158.7 -528.9 -2181.35 29561.6)
(-3874.18 -149.263 36497 -610.423 -1350.35 39372.7)
(-3282.47 -111.965 40813.5 -382.294 -2052.41 25516.8)
(-2955.07 -146.548 56483.5 -1174.44 -2556.7 48213.8)
(-3603.3 -161.664 47974.6 -1225.37 -1555.86 68391.3)
(-3038.18 -137.301 53560.6 -1006.44 -2483.8 43203.8)
(-1539.35 36.2199 56394 -517.964 -3814.55 -7451.3)
(-2332.41 -43.0849 50888.8 -422.407 -3018.31 14042.7)
(-2260.48 -36.1602 54235.6 -570.797 -3168.3 15667.3)
(-3684.59 -156.488 45250.5 -1062.55 -1522.57 60493.8)
(-3181.72 -122.63 47399.7 -681.369 -2295.89 33864.8)
(-3113.78 -128.651 50532.3 -840.398 -2396.4 38417.7)
(-2698.2 -161.575 4593.84 -2042.25 -104.06 79872.8)
(-3659.39 -177.778 20089.7 -591.751 -777.306 87397.4)
(-3381.85 -188.831 17707.4 -369.419 -883.76 67653.1)
(-4335.35 -247.695 19471.1 -914.835 56.1947 43949.3)
(-4241.35 -246.079 28385.5 -664.736 -657.471 43865)
(-4313.59 -233.394 21620.9 -985.694 96.9214 53956.5)
(-4233.56 -197.047 25687.4 -1147.44 209.162 76736.6)
(-4178.73 -257.349 31067.8 -762.532 -680.367 52333.3)
(-4279.4 -216.412 23692.7 -1063.97 149.26 64896.4)
(-2526.96 332.195 623.994 -1778.57 -449.932 1316.49)
(-4044.46 180.464 6298.05 -900.176 -913.824 9065.06)
(-4074.13 198.335 2881.28 -698.705 -524.012 3642.62)
(-7518.87 243.269 307.594 -243.176 -99.0152 150.439)
(-5851.65 189.13 3910.75 10.2194 -337.985 1454.35)
(-5202.79 340.925 2416.83 -270.975 -409.48 1743.42)
(-4233.65 316.511 7828.7 -356.667 -1001.09 7379.69)
(-4656.13 155.204 7301.77 94.278 -587.044 3786.09)
(-4450.89 311.184 5117.88 -351.742 -693.732 4190.06)
(-3160.78 45.1171 29932.4 1042.14 -665.704 8344.21)
(-3703.57 105.881 23548.3 689.258 -1023.7 12578.3)
(-3143.16 21.9759 26228.3 933.636 -591.635 6872.61)
(-1644.98 -48.2925 25231.2 1153.11 139.136 -3974.88)
(-2506.05 -49.8964 20154.3 934.676 -135.886 883.465)
(-2426.39 -37.2728 24169.6 1020.72 -155.789 883.259)
(-3699.54 90.9416 20035.2 588.515 -882.493 9726.44)
(-3193.89 -14.7184 18592.6 757.031 -437.424 4187.31)
(-3141.46 3.45022 22443.8 832.373 -513.245 5485.73)
(-2682.2 351.99 3062.4 -1758.77 -1468.79 20383.6)
(-3925.58 237.604 7255.44 -824.769 -1068.83 11409.3)
(-4047.28 221.445 10501 -952.794 -1388.28 20300)
(-4159.93 333.89 18192.1 -84.3179 -2159.85 28490.1)
(-4105.35 214.988 20182.7 376.917 -1431.34 17668.8)
(-4183.91 334.661 15756.4 -180.294 -1885.52 21937.8)
(-4186.75 325.116 10557.6 -325.611 -1302.02 11384)
(-4112.29 200.571 17052.9 264.914 -1224.46 13385.3)
(-4187.65 331.768 13210 -264.152 -1598.7 16232.5)
(-7827.65 -219.666 1358.59 642.78 -107.429 91.4921)
(-5765.62 65.0018 5171.09 286.555 -267.781 1111.87)
(-5316.69 -38.9637 6252.6 481.807 -156.007 641.753)
(-2354.27 -128.312 12616.6 991.066 58.193 -732.3)
(-2754.32 -61.1285 16053.8 840.831 -109.526 739.548)
(-3260.33 -108.286 11891.7 800.42 -97.7072 557.948)
(-4397.31 30.5277 9156.92 420.861 -453.935 2947.2)
(-3422.62 -31.2584 14670.1 673.48 -353.835 2927.92)
(-3945.24 -72.8348 10727.6 643.444 -281.913 1818.16)
(-2911.02 -20.6658 -15.663 -2744.3 -194.669 283.007)
(-2985.77 -104.76 650.042 -2721.87 -71.7824 21040.7)
(-2521.7 -276.942 381.775 -1831.72 -238.228 1492.07)
(-4032.76 -110.492 5944.99 -903.462 -446.473 9869.94)
(-4055.46 -138.816 2641.66 -748.596 -312.708 3986.49)
(-7599.36 -87.1662 272.277 -342.007 -48.2846 125.435)
(-5927.63 -248.551 3751.65 -105.584 -208.624 1925.62)
(-5222.53 -354.979 2132.95 -366.627 -84.0949 2150.19)
(-4312.37 -306.607 7312.25 -623.519 -97.1322 9003.98)
(-4776.24 -198.404 7102.01 -140.586 -264.796 4767.39)
(-4524.73 -314.427 4725.79 -549.003 -112.926 5076.37)
(-3304.56 -102.669 30160.7 -8.16741 -1576.57 15006.4)
(-3891.78 -140.68 23428.1 -141.446 -943.72 17805.9)
(-3284.3 -100.037 26424.6 93.4477 -1393.21 12054.6)
(-1608.06 -83.3843 25807.6 582.547 -1836.7 -445.892)
(-2602.05 -85.2779 20515.7 450.058 -1295.9 3502.08)
(-2512.22 -87.7346 24586.3 375.174 -1547.13 4581.49)
(-3870.95 -136.996 19927.6 -57.5407 -823.671 13636.7)
(-3327.47 -90.8735 18741.1 262.064 -1012.87 6940.81)
(-3278.61 -94.8889 22612.9 180.065 -1206.52 9364.97)
(-2615.33 -227.007 2496.74 -1987.9 -175.031 22127.4)
(-3860.02 -119.307 6843.08 -789.604 -489.961 12523.1)
(-4041.34 -103.273 10003 -877.239 -573.742 22106.4)
(-4346.95 -257.198 17230.7 -852.161 21.9205 34916.2)
(-4297.77 -212.351 19750.5 -416.358 -523.424 22739.5)
(-4336.54 -268.694 14897.6 -793.177 -5.08164 26886.8)
(-4288.76 -292.922 9926.5 -686.656 -67.7204 13928)
(-4282.17 -203.692 16673.5 -349.709 -469.017 17162.9)
(-4314.38 -279.445 12460.7 -740.306 -35.7652 19887.6)
(-7966.41 -159.636 1374.67 491.451 -106.993 42.1258)
(-5851.43 -192.959 5131.04 166.861 -304.812 1620.36)
(-5407.73 -140.333 6338.87 347.909 -428.729 1143.08)
(-2398.03 -46.3925 12969.3 758.515 -913.585 188.401)