/*--------------------------------*- C++ -*----------------------------------*\
| =========                 |                                                 |
| \\      /  F ield         | OpenFOAM: The Open Source CFD Toolbox           |
|  \\    /   O peration     | Version:  2012                                  |
|   \\  /    A nd           | Website:  www.openfoam.com                      |
|    \\/     M anipulation  |                                                 |
\*---------------------------------------------------------------------------*/
FoamFile
{
    version     2.0;
    format      ascii;
    class       volScalarField;
    location    "0.107/solid";
    object      sigmaHyd;
}
// * * * * * * * * * * * * * * * * * * * * * * * * * * * * * * * * * * * * * //

dimensions      [1 -1 -2 0 0 0 0];


internalField   nonuniform List<scalar> 
3125
(
64473.6
132820
-642.238
12128
137959
-23447.6
-34483.7
129701
141673
-11229.5
-18975.9
136221
60904.6
-21922.9
124875
-11986.9
66593
136448
64631.9
-10283.7
131237
-4863.42
60580.6
14298.5
57264.3
-3407.17
-10713.4
14135.8
62599.1
14914.4
60808.8
-1158.58
-4258.47
15237
-1048.82
-2663.7
12117.4
-650.527
12672.7
-1012.36
-883.743
13089.4
94187.9
98757.4
-50.7402
915.467
181236
175639
98488.4
170350
82570.3
-28116.8
41119.3
50799.1
64849.9
-29696.9
54197.7
165078
62892.2
77474.7
185600
179929
113798
178007
96652.7
-14316.9
53395.1
64666.4
80436.7
-15426.1
68537
172606
74942.8
91089.5
88680.2
30110.7
41262.7
38075.8
-17480.7
29532.6
92961.8
58285.8
45298.8
19626.9
-16054.7
26892.9
97034.9
101708
93679.4
37137.2
50261
49767.9
-7703.86
39356.1
98137.9
69763
54937.8
26789.1
-6929.56
36059.6
35987.7
32882.8
26727.1
34327.2
17636.4
-6144.83
5484.69
9856.05
17433.6
-7199.68
11567.3
31430.5
8175.15
14978.2
37299.2
34105.3
33094.4
36642.8
22095.6
-2243.24
7777.7
13797.4
23925.6
-2686.67
16115.1
33582.1
10413.6
18837.2
749.272
-2880.94
760.014
4277.4
-1074.79
1318.62
1661.66
6309.72
1901.53
-2893.8
-824.055
468.108
51.0243
1060.02
951.616
-2987.25
1182.05
6100.01
-388.301
2032.46
1931.04
8085.85
2584.19
-3011.09
-399.86
909.76
76707.4
117801
-1999.52
6433.91
204155
153766
191905
150325
-24990.4
-1204.2
-1144.33
-342.388
-32882.5
-528.642
144528
101768
112738
208791
157741
200039
159803
-12217.2
10767.9
11372.1
14859.8
-17757.1
14297.6
151504
109444
120940
72328.2
48284.1
56752.6
-1243.92
-20418.8
-1264.78
110797
97471.9
87044.2
-1038.03
-13304.4
-1111.57
79142.6
121146
76605.3
52761.5
61746.9
10159.8
-9380.32
9548.81
116667
104934
93980.2
5940.52
-5509.51
6524.19
49455.7
21565.1
45120.9
46883.3
37417.1
-4242.6
-272.172
-358.922
-954.81
-9489.25
-863.11
20890.7
12080.7
17111.3
51162.3
22427.2
49249
49888.1
41055.1
-1478.24
1943.45
2359.78
5370.12
-3693.67
4815.15
22417.9
13489.6
18892.4
-1230.09
-2216.64
-934.519
-206.677
-2019.47
-167.925
6818.79
10374.6
6375.12
-2120.37
-1234.06
-2014.48
6777.45
-1215.09
-2254.77
-883.01
1551.95
-656.248
1180.45
7444.5
11511.5
7219.21
-2233.86
-1146.86
80954.9
112936
-1801.53
4820.35
198360
159150
131636
93083.1
124453
186445
133482
145370
87776
110469
117396
-26547.7
-961.233
-1063.27
19755.6
44257.3
21337.5
24665.2
47485.7
22974.1
31932
61226.2
30043.4
-31286.5
-837.902
-693.755
57674.2
26408.2
28201.6
149590
128729
117273
84221.7
67629.8
90549.4
103681
72492.3
97038.3
202933
163207
147484
108012
139907
194466
142433
154834
102295
125045
132424
-13246.6
12563.6
11970.8
32062.5
57090
34202.9
38567.7
60848.3
36372.9
47558.2
76426.7
45283.4
-16573.5
13149.3
13726.9
72458.9
40787
43025.9
156707
137594
125617
96692.9
80227.8
103588
117772
85612.6
110617
76302.9
69405.3
60230.6
40243.2
33665.1
45030
55246.9
37384.3
50033.9
18230.8
35127.5
16763.5
-18936.6
-1250.62
-1266.56
32280.1
14007.2
15355.5
106233
73174.9
83004.6
78062.6
53814.2
72078.1
60664.2
49483.9
66276.5
9225.53
21936.5
10328.1
-14662.1
-1218.74
-1171.97
24359.7
12719.2
11492.5
83495.5
116186
80760.4
75254.4
65541.4
47507.5
41351.1
52977.7
64554.3
45728.7
58662.7
29954.1
46215.4
27880.7
-8520.41
8326.29
8937.26
42742.2
23854.9
25846.8
111932
79312.7
89676.2
89939
64697.3
83338.9
70634.9
59752.8
76900.1
16405.6
29770.2
18181.9
-6197.35
7719.24
7117.73
32862.7
21912
20019.8
45941.4
24225
35681
23516.2
31347.6
43600.9
27700.8
34582.8
20485.4
23399.7
27252.3
-5157.83
-557.716
-455.527
2640.11
6815.54
3253.64
4651.87
8273.39
3922.89
8185.47
15357.1
7208.5
-8316.3
-661.8
-764.599
13400.9
5441.28
6293.29
23368.6
25216.1
19228.6
10594
10243
13388.9
19800.4
12512.1
16460.7
47551.6
25175.2
42261.3
29234.1
37255
46430.2
30536
37871.3
25563.8
28005.3
32497.3
-1839.25
3270.65
2802.79
4931.96
9620.99
6060.01
8597.73
11629.4
7284
14694.8
21187.6
13053
-3169.54
3762.63
4278.67
18582.2
10000.6
11487.9
25044.1
27715.4
21300.6
12899.7
12986.3
16219.1
23785.2
15797.3
19851
-996.35
1373.47
-376.739
-2537.2
-1462.36
-1243.45
929.793
-258.587
-204.191
2075.19
3187.99
1554.36
-1488.92
-229.302
-174.139
2205.14
583.485
1058.88
5314.22
2219.67
5099.97
8081.95
4646.8
5857.88
2290.55
3179.31
3926.91
-2364.46
-1455.73
-1397.71
-698.501
-391.314
-633.988
-343.081
59.5949
-494.544
-1790.77
5111.01
-953.781
1644.57
-272.523
-2605.31
-1369.2
-1146.32
1356.03
-49.8091
0.878799
3897.89
4590.88
2954.57
-490.469
450.03
814.813
3236.07
1291.8
2088.81
5841.41
2624.51
5729.27
9905.69
6008.47
7252.36
2984.19
4177.01
4944.29
-2477.61
-1354.74
-1305.58
-483.705
28.86
-422.561
-118.105
501.316
-269.746
68474.3
127754
-1554.44
10100.4
215893
143176
179911
202949
194201
189901
118188
134584
123107
121496
127822
126043
113820
220652
146982
206313
211296
197139
216215
139318
141259
127156
140296
131838
145436
134456
56216.3
64631
57217.4
57218.7
60758.6
60690
52959.7
105267
120123
118457
116976
113874
109509
112548
70702.8
131290
68617.3
68539.7
60464.7
67036.8
64091.3
71081
64775
124902
126325
122500
135234
129645
117933
130237
56785.2
16604.5
46679.1
53759.4
53807.9
53719.2
49777.5
50389.6
50501.4
14235
16274.7
13015.5
13502.5
15018.3
15496.8
12402.3
58700.4
17303
57356.3
56894.3
63104.4
57083.6
61015.4
53434.5
59267.6
18198
17510.4
14479.6
15902.7
16588.1
18286.9
15925.1
-1273.98
-1015.74
-930.943
-1425.99
-1294
-1512.59
-1304.35
9035.36
10226.9
11118.7
11609.2
9339.17
10668.5
9840.64
-1603.47
10575.2
-1299.48
-1010.2
-1437.52
-939.541
-1516.73
-1350.24
-1309.27
11778.3
11077.7
12473.4
13671.4
13779.7
10603.2
11580.6
-1154.58
-1533.18
-964.571
-1594.56
89703
103419
-818.676
2057.89
186907
170093
155166
175667
162459
159461
167632
150359
164411
140899
159867
157345
154524
152284
145600
149670
191344
174310
179786
183450
166104
182646
171164
188161
174582
164303
167263
161057
177194
156088
171794
169415
73660.5
84481.2
83705.4
83162.8
79682.1
77370.2
79249.1
85002.1
97315.3
87796.8
87174.1
91969.6
81151.1
91229.2
92451.6
106472
88936.6
89302.7
87506.9
96882.4
83440.1
92406.5
93198.8
101958
102668
91673
101446
95879.5
106096
97546.9
39211.4
29893
32416.5
37323.5
32033.6
32379.7
34862.2
29823
35171.2
24897.6
28642.3
29296.4
29666.6
26658.2
27313.5
27065.4
40624.2
31024.3
40314.2
39805.7
34405
38128
37339
41420.9
37180.2
31233.9
30633.6
31547.1
34964.9
28808.9
31916.3
34149.4
177.144
5.39029
455.262
882.214
-248.214
849.261
146.216
-1995.47
-2865.56
-2354.25
-2772.81
-2213.82
-2004.41
-2752.71
2574.82
2732.03
1308.71
1765.67
2305.55
1646.89
2784.29
-2199.33
-2764.8
-1982.73
-2776.62
-2009.76
-2316.5
-2675.87
-747.927
2247.69
664.703
146.069
1077.69
971.068
288.795
124.75
1522.84
-2001.37
-2956.68
-2284.92
-2935.83
-1941.78
-2239.98
-2887.42
3732.87
3080.19
2022.13
2012.54
3108.59
3228.39
2549.98
-2205.56
-2880.82
-1910.01
-2963.5
-2245.99
-2025.38
-2854.2
72552.4
122753
-1930.96
8200.6
210013
148444
131075
134965
174868
197403
183430
179589
188797
184706
169875
139110
-17231
-11069.2
-17558.2
-10957.5
-30836
-30136.4
-31888.2
-32587
-16843.5
-10635.8
-16492
-10770.5
-20466.9
-11743.7
-11760
-20255.2
-41999.3
-42634.4
-20724.4
-11732
-20907.8
-11739.6
-41018.2
-40377.6
97036
93604.2
122620
139531
137433
135331
132597
130677
127102
86705.3
90033.1
214712
152340
172032
176365
200940
205647
186644
204874
191859
210537
195600
185507
181139
20977
27438.7
21189.2
26840.5
4325.55
4295.27
4126.68
4144.09
20259
25481.9
20020.1
26093.5
25267.2
33150.1
33706
25180.3
1915.21
1794.54
25903.4
34852.5
25958.8
34313.2
2325.55
2433.24
132089
128016
144229
146360
141385
155822
136603
150612
149169
119581
123592
47334
44805.3
59555.3
68441.6
68091.3
67883.2
64382.4
64260.2
62966.9
39799.9
42204.5
-15286.1
-9859.81
-10034.7
-14903.8
-28367.4
-29071.5
-27301.2
-26594.5
-15718.6
-10423.6
-16083.1
-10271.2
73563.7
76679.7
101083
115425
104907
103836
109360
108147
96964.4
83246.1
80023.2
-10464.3
-7474.91
-7250.96
-10890.4
-16786.6
-16112
-17805
-18497.8
-9968.25
-6638.01
-9537.03
-6876.66
74888.9
126197
68883.5
65528.5
72535.5
72537.3
71602.6
79362.4
67824.2
75191.1
76514.8
58688.3
61925.2
18283.8
22712.8
23341.7
18006.9
4398.22
4451.78
19033
24725
19286.1
24107.7
4518.58
4451.12
103179
107036
120195
121463
108934
120379
113390
125289
115544
115235
111300
12623.9
16243.7
15641.6
12957.8
3926.21
3769.14
11874.9
14234.4
11528.2
14836.8
3972.67
4132.45
53080.3
19028.8
30567.9
32720.9
43661.2
50255.9
43913.8
44113.2
47110.5
47255.9
40725.5
37329.5
35053.3
-3505.06
-2647.05
-3835.49
-2455.48
-5071.18
-4633.67
-5770.57
-6268.64
-3117.75
-1936.73
-2809.88
-2121.06
-8111.13
-5404.26
-5653.82
-7693.97
-14454.9
-15113.3
-8614.8
-6267.51
-9034.99
-6026.57
-13481.1
-12846.4
13732.8
12268
16174.5
18528.1
19363.5
19814.1
17134
17609.5
18209.7
9477.4
10801.1
54894.9
19813.8
45841.3
48806
53764.8
53437.8
46735
51825.8
50029.9
55511.3
50258.1
55226.5
52122
4529.56
6014.74
4815.36
5580.98
1672.87
1524.21
1804.57
1979.12
3979.79
4569.75
3704.66
4980.79
9714.95
11528.7
12108.1
9375.13
3527.78
3694.75
10449.1
13454.8
10785.3
12868.3
3437.07
3271.15
21529.3
19391.4
20582.2
19910.5
21155.2
23376.5
18827.4
20784.1
23070.2
15219.4
17162.3
-1118.48
-1468.18
-1229.42
-1265.72
-1410.08
-1238.73
-1451.74
-1446.98
-1056.64
-1506.34
-1848.34
-1915.33
-2168.88
-1545.4
-1738.88
-1818.73
-2069.53
-1747.86
-1887.23
-1118.52
-1256.97
-1669.39
-3603.53
-3992.31
-3055.04
-2715.05
-2198.24
-1654.57
-2459.79
-1496.33
4813.09
5839.39
7517.67
8458.69
6147.96
6645.02
7682.89
8178.93
6111.29
8163.28
6993.74
-1088.53
-880.259
-1244.29
-972.428
-1133.78
-1498.71
-1014.49
-829.709
-1425.88
-2029.87
-1741.09
-1509.51
-1947.84
8612.04
-958.254
-1449.04
-1242.73
-1262.2
-1214
-1415.33
-1440.78
-1477.63
-1010.96
-1516.72
-1849.41
-1934.35
-2237.75
-1547.29
-1718.06
-1813.35
-2099.26
-1794.06
2457.45
2809.44
3157.33
2233.17
1241.01
1385.28
2944.16
4031.28
3187.89
3654.07
1103.01
975.552
8176.35
9698.14
9890.23
9190.95
7211.57
7779.13
8838.09
9617.79
8129.58
13213.6
11472.2
-987.57
-593.573
-1104.74
-739.725
-1635.8
-1864.64
-1400.29
-2259.3
-1645.4
-1917.84
-1579.36
-1199.41
-1597.93
-1506.21
-2190.18
-1883.96
-1598.94
-899.406
-546.908
85296.9
108147
-1407.21
3365.5
192616
164604
106126
114801
118147
103522
86061
77059.9
109996
121883
82865.7
72324.4
80863.8
74032.4
127016
123211
160024
181040
178117
174475
164922
172852
169441
115522
119240
97192.6
111143
99736.5
107873
72773.9
63237.4
64844.2
70864.7
75797.4
69374.6
77753.1
67717.1
93497.8
101109
104297
91020.5
-18232.9
-11218.7
-17927.1
-11317.6
-35351.3
-36027.9
-18579.8
-11504.2
-11429.3
-18860.1
-34314.2
-33633
10999.7
5456.92
5213.84
11459.5
26327.9
30804
31812.4
25564.6
27916.8
34591.5
28734.5
33544.3
10242.4
4409.69
4623.73
9808.74
12768.4
6087.97
6371.89
12279.8
32969.4
40504.9
33877
39373.6
13646.1
7357.87
7043.59
14164.3
31246.4
36399.1
30389
37491.6
18854.6
10375.2
10795.5
18246.5
44364.6
53689.6
45436.8
52407.9
19945.3
12085.1
11636.3
20581
42395
48992.4
50235.7
41362.6
-19743
-11726.5
-19979.1
-11695.9
-37716
-37048.9
-19444.6
-11589.1
-19183.3
-11642.8
-38723.8
-39382.1
16626.8
9572.35
17211.8
9191.38
36608.5
42470.3
43638.8
35660.8
38461.6
46886
45673
39451.2
15648.7
8078.94
15093.5
8427.79
100711
104243
136247
154701
142326
140071
131646
147284
144830
111648
108020
73492.1
84781.9
81848.2
75759.4
54297.6
46711
48092.7
52601.6
56939
52061.2
50624.2
58692.1
70193
75800.8
78640.4
68003.7
81501.8
88088.6
91108.3
79162.5
66073.3
60444
67936.5
58895.7
85007.5
97617.4
87418.7
94509.8
63238.9
54689
56180.5
61430.3
197122
168743
149635
155088
158945
146573
131198
125687
133877
123560
154172
167109
163223
157250
127514
117654
124864
119766
167305
163016
185029
188943
181435
199264
190290
176298
193699
154095
158340
139041
150850
142074
147028
114934
105939
108030
112334
118569
113880
121203
111775
134585
139049
142833
131575
22087
28160.1
21898.5
28760
3628.42
3596.92
22783
30040.6
29455.1
22945
3894.47
3911.86
49677
44971.8
44155.1
50864
64247.3
67615
69378.3
62843.2
66936.4
73829.3
68333.8
72041.9
47954.8
41637.4
42455.3
46781.2
53772.4
46684.7
47479.8
52578.7
75201.1
82856
76603.8
81034.4
55483.5
49994.8
49204
56682.2
72461.4
76519.8
71052.4
78322.4
65381.6
56691.1
57429.1
64182.8
91961.4
101196
93354.6
99327.9
67064.9
59886
59155.3
68262.4
89150.8
94719.9
96584.8
87754
24421.6
32514.3
24535.7
31955.8
3230.84
3287.86
23763
30722.1
23623
31294.5
2884.87
2810.19
61293.5
54967.3
62485.7
54204.1
80775.2
85569.6
87411.4
79372.1
83554.5
91985.4
90139.3
84956.7
59584.3
51713.4
58391.8
52485
136585
140721
159215
161960
146249
161095
154172
151130
166431
149474
145283
109691
119341
115699
112596
90462.5
83137.3
85162.7
88003.9
93972
90795.4
88743
96472.7
105459
108139
111726
102590
119838
123375
127072
116892
106149
102234
108715
100145
124191
134904
127169
131164
102558
94413.7
96484.1
100027
50067.2
52720.4
70020.9
80352.4
71876
71606.7
66458.1
75742.6
75379.8
58350.2
55576.5
34974.3
41333.2
39194.4
36602.7
25037.2
20944.2
21862.1
23838.7
26843.2
24578.5
28103.2
23611.3
32611.6
34843.9
36872.8
31074.8
40797.7
43778.2
46019
39088.2
33356.2
30512.3
34751.4
29433.5
43409.6
50930
48582.4
45203.7
31343.5
26442.9
30013.5
27467.5
8052.2
3038.53
3197.08
7685.18
23315.9
29159
24044.7
28191.6
8709.4
3871.22
3686.91
9100.72
21868.9
25706.2
21192.4
26631
-14059.4
-9591.03
-14458.8
-9410.5
-23750.3
-23041.7
-24815.9
-25528.2
-13600.5
-8908.22
-9109.87
-13188.9
6750.02
2589.33
7090.33
2469.05
17869.3
21099.9
21934.1
17278.7
19173.8
24220.3
19814.4
23345.1
6209.63
1959.76
2058.31
5898.21
70334.8
67334.5
88925.4
101743
100525
99560.2
92908
96213.3
95376.5
61336.5
64224.8
59617.8
64292
66942
57582.3
48422.8
44266.9
50064.2
42949.3
62697.8
72691.4
69944.2
64812.2
45989.6
39333.5
40594.9
44409.8
52660
61394.7
58842.8
54615.4
38329.7
32576.1
36875.5
33720.6
49808.8
53607
47935.5
56054.7
40559.2
37079.3
35876.7
42076.3
3801.53
869.627
849.746
4030.48
11226.4
13380.7
14031.7
10792.1
12248.4
15829.8
15125.9
12722.7
3455.1
587.971
598.38
3252.11
-11807.7
-7824.56
-11389.2
-8054.96
-21280.1
-21981.3
-20230.7
-19534.4
-12298.5
-8595.25
-12713.1
-8382.75
4676.6
1154.06
4430.82
1207.9
15487.1
19778.5
18986.8
16040.3
14328.1
16999.3
17737.1
13811.6
5129.68
1597.46
5403.35
1527.08
87944.6
111300
72615.7
76086.6
84726.2
84992.8
75484.2
83629.3
80584.6
79414
87990.3
83519.2
79943.5
56833.2
62615.5
59600.4
59262.1
46312.3
41981.1
43683.8
44319.5
49266.5
48435.6
51342.1
46665.2
53360.1
53446.2
56353.9
51005.6
65373.1
65973.3
69093.6
62858.3
59680.2
58350.9
61880.1
56475.5
69077.8
75770.8
72557.7
71661.6
56529.8
51499.6
54397.6
53322.4
42190.5
36600
37421
41030.8
58803.6
64966.3
60190
63232.7
43890.8
39937.6
39111.4
45069.4
56185.1
58901.8
54801.3
60607.9
16961.6
21927
17256.6
21309.7
4501.88
4394
16206
19880.5
20507.1
15893.7
4440.81
4539.09
38189.9
34929.7
39333.5
34093.9
48333.2
50463.1
52107.6
46984.9
50866.6
56320.8
52225.1
54639.6
36507.1
31625.1
32450.4
35381.8
99007.8
95236.5
106431
107272
104511
115553
110951
100180
110798
87486.2
91164.3
91525.4
93428.2
96882.7
88752.3
82121.3
79616.4
84532.7
77604.2
95608
104236
100715
98428.6
78697.7
72171.2
74149
76332.6
82038.7
89678.7
86300
84752.3
67363.3
61594
65099.3
63499
78128.2
79336.8
75474.8
82638.7
70653.6
68773.1
66826.6
72974.5
27238.6
25205.1
24395.2
28296.8
33566.7
34680.8
36158.1
32335.8
35852
39977.9
38462.9
37115.9
25670.7
22093.8
22877.7
24640.9
14048.7
17041
13722.4
17668.2
4295.52
4418.13
14816.1
19083.7
15130.8
18461.3
4290.85
4157.45
30987.2
26766.7
29892.9
27573.7
43189.4
47965.6
46364
44512.9
40766.6
42355.2
43927.6
39474.1
32609.8
29998.3
33725.5
29173.9
42530
27009.2
25271.7
26825.5
28636.9
23901.2
21012.6
19290
22147.7
18438.7
27380
32637.1
30716.7
28838.6
19427.1
16080.1
18360.6
16881.4
28368.9
26351.5
35101.4
40416.7
40804
41037.9
37868.4
37786.3
38069
22403.1
24290.2
20636
24868.3
21922.5
23165.2
14500.1
11848.3
12543.9
13568.4
15880.7
14629.7
16875.4
13885.8
18785.7
19752.9
21338.5
17593.4
-4618.77
-2988.55
-4266.87
-3215.51
-8367.32
-8928.92
-5072.93
-3795.68
-3566.48
-5446.52
-7548.18
-7026.22
940.321
-83.5514
-25.004
1019.48
2873.19
3442.27
3783.54
2673.19
3375.99
4696.79
3605.5
4325.02
841.772
-36.5613
-77.4876
763.208
1229.19
-23.8334
-69.2742
1140.18
5033.62
6812.81
5316.63
6363.93
1378.54
-53.1161
-1.88204
1473.01
4409.56
5297.4
4167.23
5709.63
2489.67
234.312
219.797
2335.13
9440.57
12363.8
9842.28
11745.1
2767
381.107
390.023
2939.36
8559.63
10239.8
10808
8194.34
-6791.79
-5024.91
-7202.61
-4789.52
-10381.7
-9789.36
-6314.59
-4166.38
-5913.29
-4405.36
-11282.1
-11907.9
1959.7
87.8314
2106.51
129.476
6296.36
7551.96
8031.23
5987.97
7046.5
9367.52
8832.31
7379.9
1768.66
46.5529
1643.52
5.08727
15355.4
16967.1
22573.4
25953
21692.9
22135.9
20343.6
24126.9
24544.6
20484.7
18735.3
9787.49
12217.6
10980
10719.2
6738.25
5246.16
5731.01
6080.88
7696.8
7194.37
6665.35
8418.83
8478.13
8572.77
9686.49
7642.86
13184
13653.6
15004.8
12160.4
11437.4
10601.3
12303.4
9974.62
14763.3
18046.6
15875.9
16575.9
10273.3
8242.37
8822.95
9478.83
44044
28052.8
42211.1
41883.8
44548
40049.6
39545.5
39116.9
41457.2
37461.7
45410.4
50328.6
47539.3
47665.7
36795.1
33141
34968.8
34720.4
42686.1
39868.6
43540.4
43074.6
43506.1
48259.5
46846.7
40390.6
44798.7
34219.9
36880.7
34947.3
39036.5
36998
36506.5
28118.3
25088.2
26510.2
26474.8
30602.3
30517
32349.7
29008.4
32055.5
31411.5
33805.3
30107.5
5715.26
6638.79
5416.06
7124.25
2404.87
2581.05
6349.19
8281.59
7777.76
6660.84
2272.54
2106.96
9185.38
8786.81
8205.31
9907.3
10181.9
10137.6
11051.2
9389.64
11653.9
13538.4
12506.6
12537.3
8135.51
6666.97
7193.77
7478.01
11814.1
9883.97
10493.8
11036.7
16744.1
19137.3
17722.8
17982.1
13017.6
12331.5
11677
13854.1
15032.6
15154.9
14101.4
16232.7
20658.7
17669.8
18405
19695.3
28936.5
32448.8
30127
31038.5
22121.4
20610.1
19842.7
23124.8
26812.6
27521
28882.7
25665.1
8330.88
10782.2
8667.78
10237.4
2877.63
2700.78
7651.62
8975.98
7318.3
9507.43
2986.61
3170.19
17366.6
16293.3
18276.8
15568.7
20602.2
20981.3
22219.7
19563.7
22534.5
25465.6
24176.5
23632.3
16006.6
13574.9
15136.2
14259.7
23960.6
26283.3
28407.9
27784.6
23607.3
26105.1
25683.3
26148.9
28964.5
31408.3
28912.5
17390
19969.7
18045.5
18955.9
13687.6
11798.3
12857.1
12477.7
15559.5
15902.9
14737.5
16891.8
15229.8
14276.1
16029.7
13795
23016.4
22165.2
24258.6
21318.1
22576.3
22741.1
24116.6
21384.2
25562.6
28876.5
27385.8
26630.2
20371.1
17935.5
19194.7
18935.9
-729.913
-288.963
-359.744
-574.414
-1176.46
-913.004
-770.078
-786.566
-453.075
756.368
196.688
-1530.41
-923.333
-1428.01
-1121.39
-2076.76
-2715.04
-1832.56
-2483.29
-1868.54
-2193.46
-2618.21
-1936.64
-2606.85
-2055.73
-2570.88
-1457.67
-1146.88
-910.465
-1545.5
-1937.73
-2332.25
-1827.67
-2439.14
-275.322
-527.729
-80.724
-679.319
360.344
407.619
731.58
108.132
241.616
919.353
404.598
674.728
-95.1044
-679.219
-451.771
-371.301
510.147
-73.0782
-83.3388
431.179
2025.02
2964.15
2217.4
2647.98
605.506
-77.4138
-42.893
670.241
1610.9
1940.58
1445.95
2229.97
-1246.32
-926.298
-1427.06
-840.07
-1610.88
-1392.48
-1973.15
-2255.93
-1087.12
-636.013
-696.341
-945.889
252.286
-135.631
343.498
-129.063
544.65
679.427
926.126
381.531
892.726
1548.94
1067.04
1290.79
142.425
-255.644
-228.199
44.4511
3817.83
2955.42
3633.6
3951.96
4734.1
5226.54
4812.39
3453.14
3942.57
1413.32
2124.6
4692.63
4520.95
5394.47
4023.3
4635.05
4400.13
5229.34
3975.06
5718.52
7407.58
6412.56
6474.84
3878.5
2827.05
3218.27
3354.3
2552.26
3640.44
2886.94
3133.96
1644.37
923.661
1240.35
1240.25
1795.82
1522.95
1301.26
2149.67
2225.46
2167.27
1817.74
2688.57
-1406.22
-1088.08
-1325.63
-946.793
-2003.54
-2622.78
-1964.16
-2535.69
-1493.54
-950.264
-1484.43
-1148.61
-1803.91
-2232.22
-1772.59
-2431.44
-825.144
-699.243
-833.938
-654.987
-995.616
-1138.78
-880.723
-799.229
-809.724
-591.497
-868.712
-586.951
-463.517
-786.818
-628.367
-656.411
-157.346
342.035
86.346
34.9339
-514.864
-539.197
-276.681
-743.013
-232.301
-388.178
-110.505
-458.867
-1365.56
3606.15
-373.424
286.293
-45.8217
-487.924
-858.573
-1085.71
-612.245
-357.621
-563.966
1944.74
1083.46
-1431.49
-712.609
-1354.9
-917.515
-2067.46
-2795.96
-1800.58
-2580.5
-1877.19
-2150.3
-2738.76
-2002.34
-2744.04
-2119.85
-2687.54
-1341.23
-871.269
-632.125
-1413.98
-1988.01
-2404.82
-1872.65
-2542.46
410.473
-109.256
572.705
-201.618
1510.74
1855.74
2144.71
1257.81
1284.73
2165.4
1344.49
1992.48
666.752
-130.251
101.995
405.78
5044.32
3960.83
4391.93
4507.04
7341.3
8776.56
8053.62
7956.17
5910.56
5732.25
5246.75
6519.86
6140.99
5988.8
5487.49
6720.79
1575.75
2344.4
1787.61
2040.56
545.816
429.998
1160.99
1302.67
1587.18
955.687
700.507
835.312
3229.82
3193.53
3710.4
2786.5
2891.97
2709.46
3286.05
2374.25
3846.15
4902.7
4418.45
4243.66
2508.32
1735.48
2096.9
2073.21
6645.83
5342.25
5056.27
4387.2
5707.03
6108.85
6518.05
4344.92
4597.75
2980.65
4060.1
8823.44
7904.22
9282.26
7693.8
9687.13
10103.1
10772.3
9132.51
10560.9
12464.9
10896.2
11842.6
8165.33
6768.08
7622.63
7199.21
5199.66
6505.98
5320.95
6177.68
3865.32
2850.59
3131.52
3509.72
3906.47
3134.8
3068.4
4136.78
5016.8
5430.71
4674.26
5865.6
-1275.51
-822.591
-1226.64
-642.611
-1894.16
-2741.92
-2008.65
-2488.03
-2001.31
-1744.96
-2724.5
-2077.47
-2781.69
-2032.81
-2688.12
-1371.55
-649.695
-1344.45
-876.687
-1891.88
-2387.92
-1864.03
-2593.23
-79.6642
-127.701
-285.126
164.979
102.387
236.697
344.224
878.519
548.342
591.93
-134.469
-266.93
382.411
-218.509
-24.4041
122.492
1052.86
1849.78
1326.61
1533.78
288.599
65.5454
563.934
-162.706
996.886
1092.11
1416.87
735.866
-1147.76
-1453.43
-1001.12
-1480.51
-1621.12
-1763.28
-1455.88
-2086.17
-1704.98
-1762.67
-1565.2
-1869.63
-2627.57
-2085.57
-2318.74
-1982.3
-1810.75
-2547.41
163610
158963
173058
148479
158983
140166
153913
163655
168262
143774
154402
107117
110746
105011
93860.3
114833
103133
97038.7
111159
104371
123283
109429
119097
115253
101112
194459
179283
168670
199482
182075
175180
189434
166196
163646
172444
177175
170247
184467
131799
117801
112845
114789
122052
127260
118454
136413
126753
130826
117440
126481
141039
123009
50818.5
52370.2
50807.3
43892
55480.8
47871.8
46279
53835.6
51784.2
62003
54130.4
58752.8
56922.2
49288.5
95340.2
106588
89908.1
94306.1
99205.1
102606
86816.1
91527.8
79984.3
94687
90135.6
98559.8
87779.2
82986.7
65319.1
56418.6
55358.7
55954.9
59716.5
61712.6
58836.4
69023.7
65515.9
66635.2
59015.3
63194.9
72776.8
62511.8
118284
113470
110318
101611
122736
109317
106730
113860
98848.4
101042
97201.3
105089
109508
102350
42203.4
49245.8
41030
42716.1
44997.1
46280.8
38759.7
39475.1
33895.6
39714.1
40493.2
43309
36049.6
36824
12992.8
12797.5
13571.2
10815.9
14582.8
11339.7
12182.1
14730.6
15396.1
18483.7
15487.1
16510.3
16556.1
13892.5
54696.7
53089.2
52425.6
46759.4
58157.2
49936.8
49665.1
51303.6
43661.9
43406.7
43763.7
46761.5
46290.5
48006.3
17653.2
14017.1
15003.8
14523.4
15938.8
15513.4
16231.4
19920.2
20360.4
20151.8
17203.9
18027.7
22283.2
18475.5
-1315.54
-929.268
-949.201
-1241.89
-1225.09
-1074.44
-1269.99
8323.25
11070.4
9288.47
9048.75
9783.68
9483.38
8069.98
6950.97
5663.71
6583.36
7553.77
7964.67
5677.12
6730.71
-1303.05
-799.878
-921.156
-1222.81
-1223.09
-966.538
-1208.29
11560.9
12143.7
12506.4
10144.3
13473.7
10431.7
10976.5
9768.08
7854.91
7291.4
8404.38
8781.24
8102.36
9195
140922
145311
124019
136973
127500
136519
149765
145370
135558
158936
141830
149862
132010
154403
127863
140759
119612
125295
132165
116200
136390
123607
108562
127648
120649
119403
111898
131929
169676
153588
146144
148546
158179
152485
164832
174587
161312
167609
151045
179496
162944
157313
155208
148900
133947
143777
144386
159988
139898
150437
131382
135347
129183
145733
139778
135195
66614
75867.6
63553.9
66582.8
60846.8
69976.6
72353.2
63314.2
54944.7
65417.1
62960.6
60085
57546.9
68802.2
76908.4
79550.1
66994.8
76094.6
73409.9
69802.8
83189.4
80469.8
76282.7
90756.8
80001
84090.6
73374.2
86998.4
84475.4
81279.3
72308.9
79600.4
77578
76377.7
88491.2
80503.4
69323.1
70252.5
68368.9
76617.9
73825
72438.5
96719
85159.3
82349.7
83657.2
88981.4
92588.9
86978
100936
94566.6
96923.8
86533.2
105183
92984.1
91152.3
29340.8
29871.3
25005.8
29750.2
26913.8
27000.8
32369.9
31758.2
31341.2
37679.5
32416.4
34250
29307.9
35019.9
22575.1
27391.7
22773.1
23307.9
24744.1
20997.8
25061.7
20482
17291.4
20602.4
21006
18475.1
18931.9
22758.7
38590.5
32398.8
32628.9
32574.2
35068.5
34923.3
35643.7
41646.6
40453.3
40752
35629.3
44775.8
37912.7
37959.5
30004.5
29732.7
25745.5
29723
27235.8
32770.5
27519.3
27327.8
22812
22439.5
23120.5
24760.6
24753.3
24860.8
242.506
1273.86
1149.69
746.095
578.258
875.465
570.543
-285.187
-444.231
-533.823
91.9532
-731.441
-16.3852
-36.8997
2480.49
2110.03
1916.36
3045.69
1618.56
2656.57
3047.33
3441.39
4515.74
5282.91
4105.19
4505.62
3607.83
4119.7
850.371
1516.25
982.134
1920.69
746.448
1177.37
1723.57
119.242
-185.348
-468.859
203.852
-492.984
74.9541
371.693
3869.45
2432.51
3464.85
2947.17
3449.08
2731.86
3895.78
5149.25
6324
5879.16
4696.67
6559.74
4618.99
5176.75
)
;

boundaryField
{
    left
    {
        type            zeroGradient;
    }
    bottom
    {
        type            zeroGradient;
    }
    interface
    {
        type            zeroGradient;
    }
    procBoundary6to2
    {
        type            processor;
        value           nonuniform List<scalar> 
65
(
-36088.4
-20227.6
221818
208524
226632
216972
103988
68542.9
119645
84484.6
78818.6
88107.1
-135.751
15414
162593
162593
172574
172574
172574
138933
33864.8
155143
49847.5
125301
112663
152144
184984
199648
195091
211697
202419
221921
211697
-43590.5
-11680.2
-21142.8
190319
1345.29
35439.7
26576.1
143078
55940.4
47462.7
12968.6
21723.1
129509
137564
171420
161824
103933
96176.5
61604.3
69934
88107.1
78818.6
78818.6
112663
125301
184257
204553
168273
177735
152144
186867
186867
)
;
    }
    procBoundary6to7
    {
        type            processor;
        value           nonuniform List<scalar> 
328
(
-43183.2
-23401.9
-5382.77
-46281.8
-38096.2
-39206.4
-69196.1
-55189.3
-54153.2
-31878.1
-2324.57
-2802.2
-50907.7
-9231.9
-8468.07
-36886.4
-35774.7
-20033.5
-21052.5
-29460.8
-2169.01
-1734.94
-15001.9
592.308
394.872
-6832.04
-5725.28
-6378.58
-20917.7
-18936.5
-17943.5
-4168.54
607.414
562.158
-13301.7
538.496
703.693
-5048.49
-4456.02
-1048.87
-3274.87
484.892
513.903
-1119.9
-34253.4
-31417.2
-2109.07
-1418.82
-55870.7
-46140.1
-45050.3
-59151.5
-47349.9
-48427.2
-39601.9
-5131.77
-4532.06
-42325.8
-5409.36
-6056.06
-28863.2
-29955.6
-27681.4
-26597.8
-22728.1
-372.458
-697.329
-20656.7
-334.51
-48.5232
-12084.3
-11177.5
-10349.2
-14114.5
-12117.7
-12992.2
-7479.08
713.733
796.451
-8785.36
821.648
716.838
-1686.59
-2031.59
-1403.72
-1143.56
-1288.13
161.792
150.832
-898.305
-10.5919
-40.6435
-40143.6
-25985.9
-4113.83
-49432.5
-41526.6
-40425.1
-65817.3
-51902.1
-52956.7
-34372.3
-3507.57
-2984.34
-47983.7
-7382.78
-8105.8
-33457.4
-34566.7
-23223.5
-22179.1
-27130.3
-1214.77
-1606.96
-16792.3
205.227
436.297
-8436.15
-7862.21
-7148.92
-18537.4
-15920.5
-16886.3
-5165.47
632.594
691.228
-11699.6
773.996
639.075
-3355.71
-3863.71
-924.27
-924.27
-924.27
-924.27
-924.27
-924.27
-2493.43
412.215
396.46
-852.997
-852.997
-852.997
-852.997
-852.997
-852.997
-37166.5
-28660.8
-3022.23
-863.893
-52630.2
-42740.3
-43841.1
-62469.2
-50699.1
-49637.2
-36947.5
-3724.62
-4280.97
-45120
-7050.24
-6359.52
-32252.6
-31151.8
-24366.4
-25434.4
-24881.9
-1122.87
-757.024
-18676.9
216.562
-32.6971
-10194.1
-8684.25
-9470.6
-16267.8
-14897.1
-13980.2
-6266.69
746.957
689.781
-10192
690.784
816.14
-2851.19
-2428.51
-810.874
-1010.06
-1831.06
284.391
303.385
-574.029
-285.868
-250.599
-1136.27
-1137.13
-1187.69
-39206.4
-38096.2
-40425.1
-41526.6
-54153.2
-55189.3
-52956.7
-51902.1
-2802.2
-2324.57
-2984.34
-3507.57
-8468.07
-9231.9
-8105.8
-7382.78
-35774.7
-36886.4
-34566.7
-33457.4
-21052.5
-20033.5
-22179.1
-23223.5
-1734.94
-2169.01
-1606.96
-1214.77
394.872
592.308
436.297
205.227
-6378.58
-5725.28
-7148.92
-7862.21
-17943.5
-18936.5
-16886.3
-15920.5
562.158
607.414
691.228
632.594
703.693
538.496
639.075
773.996
-4456.02
-5048.49
-3863.71
-3355.71
-1026.04
-1154.08
-739.687
-815.488
513.903
484.892
396.46
412.215
-1049.92
-1203.71
-602.363
-554.071
-45050.3
-46140.1
-43841.1
-42740.3
-48427.2
-47349.9
-49637.2
-50699.1
-4532.06
-5131.77
-4280.97
-3724.62
-6056.06
-5409.36
-6359.52
-7050.24
-29955.6
-28863.2
-31151.8
-32252.6
-26597.8
-27681.4
-25434.4
-24366.4
-697.329
-372.458
-757.024
-1122.87
-48.5232
-334.51
-32.6971
216.562
-10349.2
-11177.5
-9470.6
-8684.25
-12992.2
-12117.7
-13980.2
-14897.1
796.451
713.733
689.781
746.957
716.838
821.648
816.14
690.784
-2031.59
-1686.59
-2428.51
-2851.19
-1143.56
-1403.72
-1010.06
-810.874
150.832
161.792
303.385
284.391
-40.6435
-10.5919
-250.599
-285.868
-1150.99
-1204.55
-1105.05
)
;
    }
}


// ************************************************************************* //
