/*--------------------------------*- C++ -*----------------------------------*\
| =========                 |                                                 |
| \\      /  F ield         | OpenFOAM: The Open Source CFD Toolbox           |
|  \\    /   O peration     | Version:  2012                                  |
|   \\  /    A nd           | Website:  www.openfoam.com                      |
|    \\/     M anipulation  |                                                 |
\*---------------------------------------------------------------------------*/
FoamFile
{
    version     2.0;
    format      ascii;
    class       volVectorField;
    location    "0.107/solid";
    object      U;
}
// * * * * * * * * * * * * * * * * * * * * * * * * * * * * * * * * * * * * * //

dimensions      [0 1 -1 0 0 0 0];


internalField   nonuniform List<vector> 
3125
(
(0.0120133 0.00199533 0.00291227)
(0.00868193 1.33237e-05 0.00270647)
(0.0193444 0.00756356 0.00304054)
(0.0159353 0.00487711 0.00300381)
(0.00846796 -9.18933e-05 0.00268769)
(0.00844646 0.00282 -0.000172526)
(0.00558053 0.00123851 -0.000183562)
(0.00850361 5.43747e-05 0.00256467)
(0.00830238 -9.60613e-05 0.0026054)
(0.00804002 0.00282156 -0.000443746)
(0.00525324 0.00124088 -0.00035934)
(0.00825923 4.84574e-05 0.00244125)
(0.0120565 0.00216178 0.00278782)
(0.00888011 0.00309945 -0.000170369)
(0.00871816 0.00016111 0.00258322)
(0.0120257 0.005358 -0.000156492)
(0.0118248 0.00199331 0.00279254)
(0.00851461 9.30094e-06 0.00262138)
(0.0117779 0.00215891 0.00260965)
(0.00846352 0.00310092 -0.000453855)
(0.00847117 0.000155415 0.00245571)
(0.0115476 0.00535881 -0.000507715)
(0.0122413 0.00215036 0.00292134)
(0.0157032 0.00469698 0.00300152)
(0.012285 0.00231778 0.00279691)
(0.0157419 0.00834103 -0.000150173)
(0.0124862 0.00571503 -0.000155026)
(0.0157511 0.00487506 0.00287821)
(0.0120518 0.00214846 0.00279986)
(0.0155017 0.00469644 0.00286303)
(0.0120047 0.00231508 0.0026162)
(0.0152172 0.00834132 -0.000532515)
(0.0120008 0.00571577 -0.000512873)
(0.0154529 0.00487428 0.00267276)
(0.0194401 0.0077644 0.00293476)
(0.0162084 0.00872513 -0.000150208)
(0.0159834 0.00505565 0.0028806)
(0.0191584 0.00757928 0.0028981)
(0.0157332 0.00487663 0.0028647)
(0.0191713 0.00777927 0.00273557)
(0.0156798 0.00872538 -0.000533342)
(0.0156844 0.00505497 0.00267428)
(0.0104343 0.000983177 0.00283325)
(0.0102118 0.00085019 0.00281961)
(0.0177901 0.00634325 0.00301311)
(0.0175585 0.00615815 0.00301264)
(0.00680738 -0.000793305 0.00251271)
(0.00700947 -0.000719702 0.00253705)
(0.00561214 5.92239e-06 0.00114067)
(0.00683813 -0.000660505 0.00239252)
(0.00679916 0.000467266 0.00123815)
(0.00717825 0.00205924 -0.000178481)
(0.00847712 0.00167918 0.000972075)
(0.00720821 0.00100825 0.000909066)
(0.00560903 0.00031904 0.000810852)
(0.00676791 0.00183283 -0.000180142)
(0.00679757 0.000813519 0.000885983)
(0.00704088 -0.000585097 0.00241639)
(0.00847674 0.00129316 0.00134837)
(0.00720933 0.000651576 0.00126786)
(0.00665722 -0.000798747 0.00245411)
(0.00685723 -0.000724977 0.00247538)
(0.00524495 -2.86383e-06 0.000995655)
(0.00661666 -0.000668217 0.00230381)
(0.00639387 0.000459848 0.00104426)
(0.00680407 0.00206113 -0.00041025)
(0.00801683 0.00167526 0.000699854)
(0.00678284 0.00100344 0.000683414)
(0.00523528 0.00031297 0.000650727)
(0.00640505 0.00183484 -0.00039813)
(0.00638456 0.000808401 0.000676515)
(0.0068163 -0.000592566 0.00232319)
(0.00802578 0.00128746 0.00109216)
(0.00679202 0.000644598 0.00105791)
(0.0104746 0.0011419 0.00270892)
(0.0120527 0.00357063 0.00149928)
(0.0106863 0.00263219 0.00145344)
(0.00891094 0.0019305 0.000990931)
(0.0102078 0.00400806 -0.000163895)
(0.0102389 0.00276042 0.00104086)
(0.0102516 0.00100767 0.00269536)
(0.00891006 0.00153536 0.00137231)
(0.0102366 0.00234 0.00143534)
(0.0120568 0.00401974 0.00109187)
(0.0106579 0.0043322 -0.00016186)
(0.0106891 0.00306033 0.00105527)
(0.0102545 0.000980286 0.00272778)
(0.0100334 0.000847169 0.00271647)
(0.0102091 0.00113779 0.0025516)
(0.0115299 0.00356785 0.00114565)
(0.0101873 0.0026284 0.00113081)
(0.00843976 0.00192685 0.000704108)
(0.00976273 0.00400923 -0.000480682)
(0.00973758 0.00275758 0.000713994)
(0.00998819 0.00100339 0.00254144)
(0.00844865 0.00153006 0.00110156)
(0.00974634 0.00233586 0.00112463)
(0.0115211 0.00401784 0.000722305)
(0.0102041 0.00433327 -0.000488396)
(0.0101785 0.00305773 0.000716495)
(0.01385 0.00329491 0.00297078)
(0.0140811 0.00346562 0.002976)
(0.0125128 0.00390148 0.00151182)
(0.0138959 0.00346817 0.00284674)
(0.0139021 0.00493688 0.00154178)
(0.0143425 0.00719649 -0.000151088)
(0.0157723 0.00687631 0.0011452)
(0.0143733 0.00577012 0.00113197)
(0.0125173 0.00435684 0.00110191)
(0.0138769 0.00681979 -0.00015177)
(0.0139077 0.00540869 0.00112589)
(0.0141273 0.00363958 0.00285203)
(0.0157655 0.00638793 0.001566)
(0.0143673 0.00529361 0.00154938)
(0.0136539 0.00329373 0.0028393)
(0.0138842 0.00346453 0.00284339)
(0.0119828 0.003899 0.00114953)
(0.0136059 0.00346648 0.00265146)
(0.0133535 0.00493524 0.00115864)
(0.013832 0.00719695 -0.000527373)
(0.0151894 0.0068758 0.000731082)
(0.0138046 0.00576918 0.000728459)
(0.0119741 0.00435515 0.000723802)
(0.013372 0.00682032 -0.000524632)
(0.0133448 0.00540758 0.000727452)
(0.013836 0.00363803 0.00265512)
(0.0151982 0.00638716 0.00116622)
(0.0138134 0.00529221 0.00116096)
(0.0178393 0.00652459 0.00289076)
(0.0194652 0.00961282 0.0013718)
(0.018093 0.00825622 0.00157771)
(0.0162387 0.00725011 0.00114813)
(0.0176056 0.00987774 -0.000151019)
(0.0176357 0.008379 0.00115342)
(0.0176076 0.00633921 0.00289019)
(0.0162316 0.00675854 0.00156973)
(0.017628 0.00788015 0.00157659)
(0.019466 0.00986616 0.00115652)
(0.0180708 0.0102612 -0.000151473)
(0.0181008 0.00875678 0.00115418)
(0.017585 0.00634313 0.00287089)
(0.0173537 0.006158 0.00287065)
(0.0175358 0.00652441 0.00268006)
(0.019171 0.009613 0.00116663)
(0.0175119 0.00825615 0.00117089)
(0.0156519 0.00724972 0.000731847)
(0.0170682 0.00987792 -0.000533919)
(0.01704 0.00837891 0.000733833)
(0.0173045 0.00633899 0.00267981)
(0.0156607 0.00675794 0.0011675)
(0.0170488 0.00787998 0.00117024)
(0.0191694 0.00986633 0.000949578)
(0.0175314 0.0102614 -0.000533659)
(0.0175031 0.00875677 0.000734431)
(0.0113324 0.00154509 0.00288183)
(0.00933111 0.000351039 0.00275882)
(0.0187172 0.00708861 0.00301342)
(0.0166313 0.00542234 0.00300898)
(0.006017 -0.00104641 0.00240817)
(0.00783403 -0.000384641 0.0026273)
(0.00604505 -0.000921164 0.00229017)
(0.00602465 -0.000416171 0.00176578)
(0.00801798 0.00255318 -0.000174629)
(0.00845926 0.00244166 0.000211249)
(0.00803049 0.00218466 0.000203042)
(0.00559096 0.00093449 0.000148996)
(0.00596857 0.00142235 -0.000182728)
(0.00597939 0.00110696 0.000158382)
(0.00786793 -0.000243165 0.00250512)
(0.0084891 0.000647996 0.00198355)
(0.00785197 0.000330249 0.00193599)
(0.00587553 -0.00105252 0.00236194)
(0.00767392 -0.000389276 0.00255363)
(0.00583645 -0.000929825 0.0022196)
(0.00582069 -0.000422674 0.00168655)
(0.00762199 0.00255485 -0.00043309)
(0.00802661 0.00244145 -6.57651e-05)
(0.00760878 0.00218442 -6.01747e-05)
(0.00524163 0.000934117 -2.51095e-05)
(0.00562917 0.0014246 -0.000372637)
(0.00561726 0.00110661 -3.09212e-05)
(0.00763168 -0.000249735 0.00239434)
(0.0082489 0.000643542 0.00185346)
(0.00761996 0.000325319 0.00181803)
(0.0113745 0.00170844 0.00275736)
(0.0120491 0.00284156 0.00216276)
(0.0113658 0.00237486 0.002138)
(0.00889318 0.0027116 0.000219128)
(0.00931849 0.00339102 -0.000168183)
(0.00933181 0.00299394 0.000226654)
(0.00936895 0.000503195 0.00263502)
(0.00870411 0.000761246 0.00199823)
(0.00935632 0.00112184 0.00203974)
(0.0120402 0.00491242 0.000262978)
(0.0115673 0.00500796 -0.000158135)
(0.0115816 0.00456961 0.000258062)
(0.0111474 0.00154272 0.00276776)
(0.00915882 0.000347456 0.00266565)
(0.0111012 0.00170506 0.00258747)
(0.0117731 0.00283939 0.00198048)
(0.0110953 0.00237232 0.00196355)
(0.00844991 0.00271141 -7.11832e-05)
(0.00889207 0.00339238 -0.000463396)
(0.00887829 0.00299377 -7.63842e-05)
(0.00911457 0.000498113 0.00249568)
(0.00846111 0.000756962 0.0018642)
(0.0091058 0.00111801 0.00189439)
(0.011533 0.00491237 -0.0001015)
(0.0110968 0.00500886 -0.000501917)
(0.0110824 0.00456954 -9.81528e-05)
(0.0129285 0.00262901 0.00294543)
(0.0150073 0.00416235 0.00299277)
(0.0122779 0.00300174 0.00217009)
(0.0129732 0.00279913 0.00282114)
(0.0129672 0.00349474 0.00218991)
(0.0152753 0.00795781 -0.000150305)
(0.0157572 0.00785184 0.000285698)
(0.0152905 0.0074726 0.000284331)
(0.0125008 0.00526261 0.000267414)
(0.0129485 0.00607823 -0.000153741)
(0.0129632 0.00561934 0.000271373)
(0.0150546 0.00433884 0.00286915)
(0.0157487 0.00560521 0.00223755)
(0.0150514 0.00506199 0.00222972)
(0.0127359 0.00262743 0.0028192)
(0.0148076 0.00416159 0.00285643)
(0.012 0.00299969 0.00198542)
(0.0126884 0.00279688 0.00263349)
(0.0126846 0.00349304 0.00199877)
(0.0147548 0.00795815 -0.00053127)
(0.0152021 0.00785188 -0.000115217)
(0.0147399 0.00747264 -0.000114665)
(0.0119862 0.00526257 -0.000104477)
(0.0124561 0.00607889 -0.000517404)
(0.0124414 0.00561932 -0.000107082)
(0.0147591 0.00433776 0.00266681)
(0.0154514 0.00560461 0.00203014)
(0.014757 0.00506117 0.00202507)
(0.0187699 0.00727142 0.00289301)
(0.0194717 0.0085871 0.00225213)
(0.0187757 0.00802417 0.00225121)
(0.0162237 0.00823239 0.000286719)
(0.0166746 0.00910958 -0.00015037)
(0.01669 0.00861371 0.000287434)
(0.0166799 0.00560212 0.0028861)
(0.0159812 0.00578783 0.00223961)
(0.0166784 0.00633973 0.00224459)
(0.0194622 0.010879 0.000293602)
(0.0190302 0.0105321 0.000287785)
(0.0185128 0.00708967 0.00287071)
(0.0164279 0.00542202 0.00286834)
(0.0184667 0.00727255 0.00268157)
(0.0191681 0.00858589 0.00204224)
(0.0184708 0.00802394 0.00203931)
(0.0156648 0.00823245 -0.000115503)
(0.0161427 0.0091098 -0.000533817)
(0.0161275 0.00861378 -0.000115571)
(0.0163788 0.00560166 0.0026776)
(0.0156829 0.00578731 0.00203147)
(0.0163779 0.00633938 0.00203464)
(0.0191708 0.0108791 8.96452e-05)
(0.0184553 0.0105323 -0.000115323)
(0.0111068 0.0014003 0.00287056)
(0.00954977 0.000470736 0.00277497)
(0.0184851 0.00690131 0.00301359)
(0.0168632 0.00560547 0.00301021)
(0.00621179 -0.000989361 0.00243539)
(0.00762556 -0.000474427 0.00260579)
(0.00561423 -0.000315873 0.00147695)
(0.0060001 0.00014436 0.00117454)
(0.00600146 -0.000188911 0.00151863)
(0.00624054 -0.00086218 0.00231679)
(0.00681973 -0.000123716 0.00184674)
(0.00622065 -0.000348951 0.00178664)
(0.00639594 0.000298152 0.00120704)
(0.00679908 0.000112013 0.00159657)
(0.00639658 -4.6276e-05 0.0015585)
(0.0075951 0.00229946 -0.000176624)
(0.00719014 0.00171118 0.000185789)
(0.00760731 0.00194103 0.000194545)
(0.00847073 0.00206202 0.000592843)
(0.00804845 0.00144142 0.000952135)
(0.00804187 0.00181469 0.000578657)
(0.00720129 0.00136145 0.000548266)
(0.00762534 0.00121766 0.000931127)
(0.00761858 0.00158104 0.000563789)
(0.00560151 0.000628528 0.000480295)
(0.0059975 0.000468816 0.000836849)
(0.00599011 0.000789656 0.000498101)
(0.00636453 0.00162049 -0.000181576)
(0.00677946 0.00149541 0.000176821)
(0.00637572 0.00129396 0.00016767)
(0.00639385 0.000633659 0.000861901)
(0.00679048 0.00115622 0.000532123)
(0.0063866 0.000965572 0.000515389)
(0.00765886 -0.000334615 0.00248395)
(0.00702297 -4.06419e-05 0.00186551)
(0.00764242 0.000231719 0.00191929)
(0.00847386 0.00089805 0.00173051)
(0.00804856 0.00106486 0.00132298)
(0.00804636 0.000679186 0.00169978)
(0.00720853 0.000285839 0.0016328)
(0.00762594 0.000850873 0.00129614)
(0.00762444 0.000474994 0.00166721)
(0.00606808 -0.000995302 0.00238606)
(0.00746736 -0.000479218 0.00253508)
(0.00526012 -0.000326569 0.00134797)
(0.00561986 0.000136036 0.00101319)
(0.00563489 -0.000199045 0.00137376)
(0.00602861 -0.00087059 0.00224166)
(0.00660283 -0.000129512 0.00175004)
(0.00601321 -0.000355262 0.001703)
(0.00600298 0.000290283 0.00102937)
(0.00640864 0.000102976 0.00142004)
(0.00601788 -5.58567e-05 0.00139777)
(0.00720985 0.00230124 -0.000421917)
(0.00679134 0.0017109 -4.86083e-05)
(0.00719687 0.00194077 -5.44424e-05)
(0.00801774 0.00205998 0.000314098)
(0.0075994 0.0014372 0.000695023)
(0.00760014 0.00181249 0.000314569)
(0.00678321 0.00135894 0.000314741)
(0.00718791 0.00121314 0.00068956)
(0.00718848 0.00157869 0.000314799)
(0.00523474 0.000625351 0.000310568)
(0.00561033 0.000463069 0.000660232)
(0.00561004 0.000786652 0.000312308)
(0.00601326 0.00162261 -0.000385579)
(0.00639257 0.00149511 -4.27155e-05)
(0.00600105 0.00129363 -3.68059e-05)
(0.00599356 0.00062823 0.000668807)
(0.00638473 0.00115355 0.000314341)
(0.00599352 0.000962735 0.000313547)
(0.00742544 -0.000341402 0.0023775)
(0.00680281 -4.625e-05 0.00176446)
(0.00741341 0.00022661 0.00180551)
(0.00804015 0.000891093 0.00149327)
(0.00760841 0.00105874 0.00108179)
(0.00762288 0.000671727 0.00147719)
(0.00680669 0.000277339 0.00144065)
(0.00719701 0.000844328 0.0010704)
(0.00721158 0.000467021 0.00145967)
(0.0111484 0.00156254 0.00274611)
(0.0104642 0.00178854 0.00209893)
(0.0111393 0.00222422 0.00212898)
(0.0120449 0.00311314 0.00191153)
(0.0115947 0.00324827 0.00148539)
(0.0115875 0.00279727 0.00189499)
(0.0106802 0.0021953 0.00185685)
(0.0111392 0.0029352 0.00147012)
(0.0111325 0.00249107 0.00187678)
(0.00890473 0.00232259 0.000606321)
(0.00934945 0.00219486 0.00100869)
(0.00934342 0.00259587 0.000619068)
(0.0097612 0.0036941 -0.000166017)
(0.0102216 0.00359348 0.000240527)
(0.00977475 0.00328811 0.000233795)
(0.00979225 0.00247171 0.00102533)
(0.0102333 0.00317827 0.000642295)
(0.00978641 0.00288131 0.000631065)
(0.00958813 0.000624277 0.00265103)
(0.0102408 0.00164899 0.00208811)
(0.00957593 0.00124884 0.00205245)
(0.00890651 0.00113116 0.0017594)
(0.00934809 0.00179095 0.00139478)
(0.00934387 0.00137802 0.00178647)
(0.0102311 0.00191073 0.00183518)
(0.00979041 0.00205937 0.00141579)
(0.00978555 0.00163808 0.00181172)
(0.012052 0.00446704 0.000679382)
(0.0115984 0.00369075 0.00108077)
(0.0115934 0.00413123 0.000671291)
(0.0111112 0.00466576 -0.000159927)
(0.0106719 0.00390935 0.000246825)
(0.0111254 0.00423498 0.000252677)
(0.0111424 0.00337069 0.00106857)
(0.0106837 0.00348607 0.000652747)
(0.0111371 0.00380398 0.000662414)
(0.010923 0.0013978 0.00275853)
(0.00937589 0.000467298 0.00267921)
(0.0108769 0.001559 0.0025792)
(0.0102019 0.00178545 0.00193641)
(0.0108709 0.00222154 0.00195736)
(0.0115438 0.00310972 0.00157876)
(0.0110794 0.00324517 0.00114127)
(0.0110933 0.00279347 0.00157161)
(0.0102013 0.00219067 0.00155462)
(0.0106317 0.00293176 0.00113634)
(0.0106457 0.00248685 0.00156358)
(0.00844082 0.0023207 0.000313429)
(0.0088678 0.00219149 0.000707847)
(0.008869 0.00259413 0.000312617)
(0.00932527 0.00369536 -0.000472344)
(0.00974864 0.00359335 -8.60187e-05)
(0.00931132 0.00328796 -8.13417e-05)
(0.00930053 0.0024686 0.000711123)
(0.009739 0.00317681 0.000310725)
(0.00930184 0.0028797 0.0003117)
(0.00933137 0.000619405 0.00250791)
(0.00998084 0.00164575 0.00192885)
(0.00932285 0.00124517 0.00190348)
(0.00846295 0.00112469 0.00150798)
(0.00887664 0.00178604 0.00111006)
(0.00889086 0.00137203 0.00152139)
(0.00976044 0.00190566 0.00154464)
(0.00930933 0.00205484 0.00111773)
(0.00932349 0.00163255 0.00153359)
(0.0115229 0.00446607 0.000306924)
(0.0110706 0.00368863 0.000720612)
(0.0110723 0.00413015 0.000307795)
(0.0106489 0.00466674 -0.000495479)
(0.0101898 0.00390924 -9.03961e-05)
(0.0106345 0.00423489 -9.44478e-05)
(0.010623 0.00336833 0.000718688)
(0.01018 0.00348474 0.000309724)
(0.0106246 0.00380277 0.000308737)
(0.0131584 0.00279272 0.00295247)
(0.0147756 0.00398628 0.00298915)
(0.0125044 0.00343788 0.00192645)
(0.0129746 0.00424001 0.00152305)
(0.0129657 0.00377069 0.00193979)
(0.0132034 0.00296367 0.00282823)
(0.0138913 0.00417732 0.00221098)
(0.0131978 0.00366287 0.00219567)
(0.0134378 0.00458542 0.00153302)
(0.0138923 0.00445729 0.00196198)
(0.0134284 0.00411077 0.00195161)
(0.0148087 0.00757607 -0.000150602)
(0.0143576 0.00672055 0.00028045)
(0.0148239 0.00709528 0.000282591)
(0.0157688 0.00736433 0.000717891)
(0.0153058 0.00650463 0.00114156)
(0.0153022 0.00698894 0.000715349)
(0.0143693 0.00624582 0.00070851)
(0.0148394 0.00613568 0.00113718)
(0.0148356 0.00661588 0.000712237)
(0.0125126 0.00481058 0.000686697)
(0.0129795 0.00470123 0.0011109)
(0.012975 0.00516105 0.000693245)
(0.0134121 0.00644677 -0.000152657)
(0.0138919 0.00634913 0.000277878)
(0.013427 0.00598179 0.000274857)
(0.013443 0.00505213 0.00111888)
(0.0139036 0.00587948 0.000704124)
(0.0134388 0.00551763 0.000699045)
(0.0148226 0.00416218 0.00286544)
(0.014123 0.00435177 0.00221533)
(0.0148192 0.0048828 0.00222661)
(0.0157541 0.00589227 0.00199061)
(0.0152992 0.00601983 0.00156141)
(0.0152882 0.00552764 0.0019852)
(0.014357 0.00480946 0.00197098)
(0.0148331 0.00565483 0.0015559)
(0.0148224 0.00516648 0.00197869)
(0.0129648 0.00279125 0.00282481)
(0.0145765 0.00398544 0.00285365)
(0.0119967 0.00343484 0.00158509)
(0.012438 0.00423783 0.00115296)
(0.0124518 0.00376801 0.00159066)
(0.0129172 0.00296158 0.0026385)
(0.0136029 0.00417605 0.00201277)
(0.0129135 0.00366128 0.00200259)
(0.012895 0.00458352 0.00115598)
(0.0133674 0.00445527 0.00159978)
(0.0129088 0.00410842 0.00159554)
(0.0142931 0.00757647 -0.000529572)
(0.0138172 0.00672056 -0.000112668)
(0.0142781 0.00709531 -0.000113825)
(0.0151914 0.00736411 0.000304329)
(0.0147272 0.00650399 0.000730273)
(0.0147292 0.00698864 0.000304194)
(0.0138066 0.00624536 0.000304293)
(0.0142655 0.00613489 0.000729399)
(0.0142675 0.0066155 0.000304178)
(0.0119759 0.00480973 0.000306146)
(0.0124292 0.00469975 0.000725141)
(0.0124311 0.00516031 0.000305482)
(0.0129133 0.00644736 -0.000521316)
(0.0133572 0.00634913 -0.000111168)
(0.0128985 0.00598178 -0.00010931)
(0.0128862 0.00505083 0.000726349)
(0.0133467 0.00587893 0.00030455)
(0.0128881 0.00551698 0.000304947)
(0.014528 0.00416099 0.00266432)
(0.0138332 0.0043506 0.00201562)
(0.0145259 0.00488188 0.00202305)
(0.0152119 0.0058913 0.00161134)
(0.0147359 0.00601887 0.00116473)
(0.0147497 0.00552644 0.00160917)
(0.0138272 0.00480773 0.00160344)
(0.0142743 0.00565366 0.00116298)
(0.0142881 0.00516503 0.00160655)
(0.0185358 0.00708371 0.002892)
(0.0178388 0.00726877 0.00224918)
(0.0185387 0.00783301 0.0022506)
(0.0194658 0.00884781 0.00202508)
(0.0190362 0.00902047 0.00157963)
(0.0190245 0.0085111 0.00200701)
(0.0180803 0.00774883 0.00200446)
(0.0185601 0.00863477 0.00157843)
(0.0185475 0.00812614 0.00200541)
(0.0162354 0.00774145 0.00071991)
(0.0167048 0.00762548 0.00115044)
(0.0167016 0.00811974 0.000721454)
(0.0171403 0.00949391 -0.000150657)
(0.0176211 0.0093768 0.000288076)
(0.0171558 0.0089953 0.00028787)
(0.0171705 0.00800191 0.00115217)
(0.0176327 0.00887796 0.00072331)
(0.0171674 0.00849871 0.00072257)
(0.016912 0.00578561 0.00288744)
(0.0176068 0.00708225 0.00224857)
(0.0169105 0.00652471 0.00224581)
(0.0162199 0.00625978 0.001995)
(0.0166975 0.00713111 0.00157268)
(0.0166855 0.00662964 0.00199849)
(0.0176156 0.00737439 0.00200312)
(0.017163 0.00750512 0.00157494)
(0.0171508 0.00700132 0.00200116)
(0.019464 0.0106258 0.000509527)
(0.0190431 0.00952368 0.00115493)
(0.0190405 0.0100276 0.000723771)
(0.0185384 0.0106463 -0.000151955)
(0.0180863 0.00975834 0.00028804)
(0.0185537 0.0101416 0.000287792)
(0.0185677 0.00913669 0.00115456)
(0.0180978 0.00925756 0.000723691)
(0.0185649 0.00963906 0.000723742)
(0.0182798 0.00690164 0.00287091)
(0.0166594 0.0056052 0.00286916)
(0.0182319 0.00708405 0.00268069)
(0.0175355 0.00726865 0.0020376)
(0.0182343 0.00783288 0.00203876)
(0.0191735 0.0088472 0.00182245)
(0.0184513 0.00902061 0.00117168)
(0.0184652 0.00851094 0.00161783)
(0.0175256 0.00774868 0.00161718)
(0.0179776 0.0086348 0.0011715)
(0.0179914 0.00812606 0.00161782)
(0.015654 0.00774129 0.000304575)
(0.0161146 0.0076252 0.00073256)
(0.0161167 0.00811964 0.000304908)
(0.0166055 0.0094941 -0.000533981)
(0.0170531 0.0093769 -0.000115193)
(0.0165903 0.00899538 -0.000115444)
(0.0165773 0.00800173 0.000733231)
(0.0170421 0.00887797 0.000305759)
(0.0165794 0.00849866 0.000305316)
(0.0166103 0.00578522 0.00267836)
(0.017304 0.0070821 0.0020372)
(0.0166094 0.00652442 0.00203542)
(0.0156745 0.00625903 0.0016131)
(0.0161234 0.00713066 0.00116858)
(0.0161371 0.00662907 0.00161451)
(0.0170625 0.00737413 0.00161649)
(0.0165861 0.00750481 0.00116948)
(0.0165998 0.00700091 0.00161562)
(0.0191694 0.010626 0.0003035)
(0.018442 0.00952388 0.000734905)
(0.0184441 0.0100278 0.000306323)
(0.0179972 0.0106464 -0.000533424)
(0.0175162 0.00975846 -0.000114828)
(0.0179819 0.0101418 -0.000114556)
(0.0179685 0.00913677 0.00073493)
(0.0175052 0.00925762 0.00030624)
(0.0179707 0.00963919 0.000306624)
(0.0117857 0.00184269 0.00290267)
(0.00889716 0.000122255 0.00272458)
(0.0191635 0.00744382 0.00301786)
(0.0161673 0.00505808 0.0030058)
(0.00563339 -0.00114808 0.00235152)
(0.00825528 -0.000193331 0.00266824)
(0.00582985 -0.000847606 0.00211343)
(0.00566004 -0.00102681 0.00223485)
(0.00580144 -0.000987874 0.00224652)
(0.00565116 -0.000859738 0.00205891)
(0.00849853 0.000162138 0.00245292)
(0.00829037 -4.86227e-05 0.00254548)
(0.00867587 9.75187e-05 0.00261616)
(0.00849699 0.00025718 0.00236533)
(0.00846071 -5.71588e-06 0.00259425)
(0.00828362 0.000151954 0.00234746)
(0.00871436 0.000267204 0.00247446)
(0.0054965 -0.00115453 0.00231148)
(0.00809148 -0.000197653 0.00258878)
(0.00527272 -0.00087058 0.00193543)
(0.0054582 -0.00103595 0.00217336)
(0.00545333 -0.000867907 0.00199571)
(0.00531368 -0.00100945 0.00209695)
(0.00782988 0.000146737 0.0021156)
(0.00804862 -5.47462e-05 0.00242621)
(0.00825691 0.000251897 0.0022415)
(0.0080849 8.35753e-05 0.00231654)
(0.00804611 0.000146479 0.00222769)
(0.00787615 -2.01683e-05 0.00230469)
(0.00803827 0.000252344 0.00212568)
(0.0120715 0.00224617 0.0027195)
(0.0118286 0.00200815 0.00277821)
(0.0122538 0.00220759 0.00287551)
(0.0120523 0.00239355 0.00257351)
(0.0120247 0.00205385 0.00286412)
(0.0118243 0.00223849 0.00256451)
(0.0123012 0.00240108 0.00273084)
(0.00914967 0.000488388 0.00251554)
(0.00893393 0.000271541 0.00260113)
(0.00889231 0.000204492 0.00263738)
(0.00871171 0.000366109 0.00238259)
(0.00910993 0.000315142 0.00265792)
(0.00893144 0.00037598 0.00249532)
(0.00892764 0.000478677 0.00239927)
(0.0115983 0.00184056 0.00278475)
(0.00872813 0.000118385 0.00263674)
(0.0113034 0.00223855 0.00222746)
(0.0115517 0.00200512 0.00260268)
(0.0117777 0.00239099 0.00239622)
(0.0115795 0.00220085 0.00244331)
(0.0115514 0.00223578 0.00238979)
(0.0113545 0.00204672 0.00243834)
(0.0115282 0.00239388 0.00223152)
(0.00845917 0.000474588 0.00214443)
(0.00868441 0.000266056 0.0024696)
(0.00846898 0.000361018 0.00225476)
(0.00829502 0.000191052 0.00232786)
(0.00824803 0.000361654 0.00213528)
(0.0086824 0.000473769 0.0022675)
(0.00850648 0.000302199 0.00233866)
(0.0124699 0.00230772 0.00292988)
(0.0154712 0.00451777 0.00299893)
(0.0127618 0.00271784 0.00275174)
(0.0124835 0.0023637 0.00288629)
(0.0122809 0.00255095 0.00258203)
(0.0125139 0.00247608 0.00280549)
(0.0125313 0.00255834 0.00274157)
(0.0127136 0.00252208 0.0028965)
(0.01251 0.00271059 0.00259007)
(0.0157828 0.00494877 0.00283644)
(0.0155189 0.00469535 0.00287552)
(0.0159629 0.00492187 0.00298424)
(0.0157487 0.00512358 0.00265879)
(0.0157301 0.00474212 0.0029809)
(0.0155164 0.00494314 0.0026562)
(0.0160159 0.00512911 0.00283985)
(0.0122793 0.00230593 0.00280674)
(0.0152702 0.00451716 0.00286111)
(0.0119797 0.00271144 0.00223884)
(0.0120047 0.00254854 0.00240226)
(0.0118052 0.00235734 0.00244796)
(0.0122321 0.00247354 0.00262235)
(0.0117536 0.00255154 0.00223531)
(0.0122321 0.00270832 0.00240795)
(0.0120315 0.0025161 0.00245228)
(0.0149559 0.00494659 0.0022654)
(0.0152215 0.00469447 0.00267103)
(0.015454 0.00512289 0.00245507)
(0.0152407 0.00492007 0.00248616)
(0.0152226 0.00494237 0.0024534)
(0.0150099 0.0047401 0.00248512)
(0.0151866 0.00512717 0.00226625)
(0.0195214 0.00791157 0.00286521)
(0.0192383 0.00763393 0.00290667)
(0.019659 0.00784103 0.00302093)
(0.0194578 0.00805867 0.0026949)
(0.019454 0.00768902 0.00300912)
(0.0192537 0.00789964 0.00268956)
(0.0197365 0.00807801 0.00287166)
(0.0164819 0.00549228 0.00284561)
(0.0162156 0.00523707 0.0028827)
(0.0161958 0.0051025 0.00298723)
(0.015981 0.00530486 0.00266109)
(0.0164286 0.00528395 0.00298988)
(0.016249 0.00531029 0.00284289)
(0.0162133 0.00548692 0.00266313)
(0.0189692 0.00745044 0.00287739)
(0.0159648 0.00505766 0.00286613)
(0.0186774 0.00791181 0.00227935)
(0.0189458 0.00764039 0.0026982)
(0.0191734 0.00806076 0.00249578)
(0.0189589 0.00785971 0.00251932)
(0.0189518 0.00790105 0.00247897)
(0.0187289 0.00769678 0.0024995)
(0.0189022 0.00807712 0.00229369)
(0.0156482 0.00549078 0.00226755)
(0.0159158 0.00523647 0.00267558)
(0.0156855 0.00530425 0.00245655)
(0.0154715 0.00510092 0.00248704)
(0.0154173 0.00530859 0.00226697)
(0.0159171 0.00548639 0.00245784)
(0.0157025 0.00528257 0.00248777)
(0.018679 0.0112104 -0.000534472)
(0.0191739 0.0113861 -0.00033745)
(0.0189587 0.0112086 -0.000337353)
(0.018897 0.0113877 -0.000532529)
(0.0106577 0.00111924 0.00284628)
(0.00999014 0.000720401 0.00280536)
(0.0180216 0.00652874 0.00301343)
(0.0173268 0.00597345 0.00301202)
(0.00660704 -0.000862808 0.00248766)
(0.00721323 -0.000641993 0.00256067)
(0.00682273 -0.000539496 0.00225699)
(0.00663714 -0.000731843 0.00236796)
(0.00699376 -0.000619537 0.00242151)
(0.00683023 -0.000476957 0.00220527)
(0.0067905 -0.000691185 0.00239406)
(0.00702674 -0.000465702 0.00228379)
(0.0066291 -0.000550916 0.00218245)
(0.00743972 -0.000305988 0.00233541)
(0.00724528 -0.000505612 0.00243959)
(0.00719873 -0.000543814 0.00244826)
(0.00703315 -0.00039896 0.00222744)
(0.00740532 -0.000464039 0.00247434)
(0.00723244 -0.000387847 0.00230991)
(0.0072377 -0.000316947 0.002249)
(0.00645898 -0.000868412 0.00243214)
(0.00705896 -0.000647103 0.00249596)
(0.00621954 -0.000559445 0.00201635)
(0.00641877 -0.000739778 0.00228376)
(0.00661296 -0.000483841 0.00211541)
(0.00645838 -0.000637718 0.00220598)
(0.00641485 -0.000558007 0.002097)
(0.00626268 -0.000709919 0.00218946)
(0.00641482 -0.000485063 0.00203069)
(0.0068108 -0.000324191 0.00205765)
(0.0070177 -0.000512851 0.00234193)
(0.00681277 -0.000405634 0.00213318)
(0.00665588 -0.000561446 0.00222186)
(0.00701436 -0.00032342 0.00215039)
(0.00685515 -0.000481127 0.00223713)
(0.00661189 -0.000406626 0.00204445)
(0.010932 0.00151003 0.00265377)
(0.0106984 0.00127918 0.0027219)
(0.0106623 0.0011868 0.00278273)
(0.0104694 0.00136256 0.00249974)
(0.0108876 0.00132423 0.0027979)
(0.0107061 0.00137117 0.00263874)
(0.0106934 0.00150158 0.00251187)
(0.0102568 0.00110259 0.00260678)
(0.0100295 0.000876608 0.00268119)
(0.0104378 0.00105242 0.00276691)
(0.0102462 0.00122656 0.00248709)
(0.0102141 0.00092118 0.00275043)
(0.0104811 0.00123532 0.0026231)
(0.010024 0.00109366 0.00247387)
(0.0104765 0.00111649 0.00273855)
(0.00981324 0.000717243 0.00270461)
(0.0101904 0.00150019 0.00220262)
(0.0104309 0.00127527 0.00256127)
(0.010208 0.0013589 0.00234279)
(0.0100199 0.00117714 0.002401)
(0.01043 0.00149808 0.00235168)
(0.0102402 0.00131501 0.00240817)
(0.00997036 0.00136086 0.00219667)
(0.00953313 0.00109132 0.00218371)
(0.00976823 0.00087213 0.00253077)
(0.00998704 0.00122273 0.00233346)
(0.00980048 0.00104231 0.00239342)
(0.00976692 0.00108965 0.00232365)
(0.00958205 0.000910618 0.00238542)
(0.00975126 0.00122454 0.00219037)
(0.0136192 0.00312578 0.00296513)
(0.0143124 0.00363782 0.00298078)
(0.0139199 0.00354536 0.00279424)
(0.0136648 0.0032983 0.00284102)
(0.0141017 0.00351461 0.00294591)
(0.0138927 0.00370972 0.00262886)
(0.0138697 0.00334469 0.00293902)
(0.0141523 0.00371614 0.00280115)
(0.0136615 0.00353881 0.00262347)
(0.0146176 0.00406217 0.00281347)
(0.0143589 0.00381246 0.0028569)
(0.014334 0.00368608 0.00295229)
(0.0141242 0.00388216 0.00263386)
(0.0145664 0.00385901 0.00295818)
(0.0143849 0.00388845 0.00280755)
(0.0143559 0.00405601 0.00263847)
(0.0134238 0.00312451 0.00283484)
(0.0141147 0.00363682 0.00284714)
(0.0131175 0.0035408 0.0022529)
(0.013376 0.00329649 0.00264748)
(0.0136064 0.00370823 0.00243496)
(0.0133994 0.00351067 0.00247233)
(0.0133764 0.00353719 0.00243124)
(0.0131703 0.00334044 0.00246963)
(0.0133464 0.00371192 0.00225508)
(0.013805 0.00405859 0.00225887)
(0.0140665 0.00381104 0.00265848)
(0.0138367 0.00388078 0.00243838)
(0.0136287 0.00368245 0.00247479)
(0.0140672 0.00405474 0.00244152)
(0.0138583 0.00385568 0.00247703)
(0.0135756 0.00388456 0.00225707)
(0.0183419 0.00696866 0.0028573)
(0.0180711 0.00671038 0.0028912)
(0.0180551 0.00657155 0.00300041)
(0.0178375 0.00677776 0.00267123)
(0.0182872 0.00675734 0.00300101)
(0.0181097 0.00678257 0.00285661)
(0.0180695 0.00696399 0.00267172)
(0.0195445 0.00918539 0.00179177)
(0.0194642 0.00935908 0.0015874)
(0.0192508 0.00943652 0.00137315)
(0.019757 0.00961321 0.00157466)
(0.0195514 0.00943805 0.00158108)
(0.0192493 0.00918301 0.00158839)
(0.0197521 0.00935971 0.00178715)
(0.0176453 0.00641159 0.00285472)
(0.0173758 0.00615422 0.00288947)
(0.0178231 0.00638618 0.00299963)
(0.0176057 0.00659199 0.00267061)
(0.017591 0.00620119 0.00299864)
(0.0178776 0.00659689 0.00285577)
(0.0173739 0.00640661 0.00266985)
(0.0195568 0.00994391 0.00115417)
(0.019466 0.0101194 0.000941053)
(0.0192518 0.00968936 0.00115827)
(0.0197603 0.00986677 0.00136113)
(0.0195556 0.00969085 0.00136866)
(0.019252 0.00994252 0.000942778)
(0.0197612 0.0101203 0.00114619)
(0.0178163 0.00652867 0.00287102)
(0.0171223 0.00597327 0.00287029)
(0.017496 0.00696837 0.00226932)
(0.0177672 0.00671027 0.00268024)
(0.0175374 0.00677762 0.0024626)
(0.0173197 0.00657119 0.00248971)
(0.017769 0.00696389 0.0024629)
(0.0175508 0.0067571 0.00248974)
(0.0172648 0.00678218 0.00226927)
(0.0186644 0.00918571 0.00117907)
(0.0191729 0.00935917 0.00138455)
(0.0189524 0.00943666 0.00116512)
(0.0188811 0.00961384 0.000964111)
(0.0189553 0.00918309 0.00138367)
(0.0186556 0.00943854 0.000956942)
(0.0188874 0.00936016 0.00118507)
(0.0168029 0.00641095 0.00226907)
(0.0170731 0.00615395 0.00267945)
(0.0173059 0.00659181 0.00246227)
(0.0170887 0.0063857 0.00248967)
(0.0170745 0.00640638 0.00246185)