/*--------------------------------*- C++ -*----------------------------------*\
| =========                 |                                                 |
| \\      /  F ield         | OpenFOAM: The Open Source CFD Toolbox           |
|  \\    /   O peration     | Version:  2012                                  |
|   \\  /    A nd           | Website:  www.openfoam.com                      |
|    \\/     M anipulation  |                                                 |
\*---------------------------------------------------------------------------*/
FoamFile
{
    version     2.0;
    format      ascii;
    class       volVectorField;
    location    "0.106/solid";
    object      D_0;
}
// * * * * * * * * * * * * * * * * * * * * * * * * * * * * * * * * * * * * * //

dimensions      [0 1 0 0 0 0 0];


internalField   nonuniform List<vector> 
3125
(
(8.86622e-15 -1.42609e-13 1.46907e-11)
(4.4365e-12 -5.17296e-12 1.79925e-11)
(-2.28044e-12 -2.27906e-13 2.90217e-11)
(1.05926e-14 -1.33275e-13 1.4731e-11)
(-2.32226e-12 -1.96008e-13 2.88807e-11)
(3.90196e-12 -9.06191e-12 3.45848e-11)
(4.01099e-12 -3.09132e-12 1.82034e-11)
(6.62051e-12 -1.9205e-11 3.6783e-11)
(-4.76334e-14 1.18006e-13 1.46409e-11)
(-4.48915e-09 -1.18096e-09 1.39273e-08)
(-1.00651e-06 -7.49951e-07 2.71066e-07)
(-4.20699e-06 -3.43528e-06 5.1701e-07)
(-2.40875e-12 1.43087e-13 2.88445e-11)
(-2.36095e-12 1.54858e-13 2.90353e-11)
(-5.27035e-14 1.09046e-13 1.46847e-11)
(1.08346e-09 -1.57711e-08 2.91136e-08)
(-9.28655e-07 -7.64089e-07 4.77327e-07)
(-3.76441e-06 -3.04827e-06 4.94568e-07)
(-1.26756e-06 -9.56483e-07 3.03664e-07)
(-3.60693e-06 -3.05897e-06 9.00858e-07)
(-1.17915e-06 -9.70129e-07 5.36254e-07)
(-4.04052e-06 -3.44558e-06 9.4649e-07)
(-5.63367e-13 -5.23488e-14 1.72944e-13)
(-7.08985e-14 -9.10031e-15 1.44999e-11)
(-6.54673e-13 -2.33177e-14 -5.70859e-14)
(5.08227e-13 2.40072e-12 3.73124e-12)
(-6.75329e-11 -1.34274e-11 2.64581e-11)
(-4.50937e-11 1.26846e-10 6.10441e-12)
(-5.39253e-13 -5.25602e-14 2.16683e-13)
(-2.4156e-12 -3.69868e-14 2.86155e-11)
(-1.07896e-12 -8.00545e-13 3.08855e-11)
(6.12488e-13 -5.43158e-14 1.56762e-11)
(3.18154e-13 1.5147e-12 2.78719e-12)
(-3.46439e-13 2.03373e-13 7.14715e-13)
(-1.69612e-12 -2.95863e-14 -9.01953e-13)
(-1.77356e-12 -3.09586e-14 -1.09649e-12)
(-7.33932e-14 -1.59985e-14 1.44984e-11)
(-7.1158e-13 2.52042e-14 -1.36445e-13)
(-6.54377e-13 -2.56159e-14 -5.29228e-14)
(-1.83689e-12 5.03552e-15 -1.19333e-12)
(-1.77419e-12 -9.50748e-15 -1.09409e-12)
(-1.15281e-06 -1.02808e-06 1.06712e-06)
(-4.41589e-07 -3.56906e-07 5.90199e-07)
(-9.63116e-13 1.48811e-12 2.20741e-12)
(-3.83128e-11 8.28427e-11 4.94736e-12)
(-2.42547e-10 8.85413e-12 -1.43649e-11)
(-2.36784e-07 -1.65652e-07 1.26165e-07)
(-7.73523e-09 -4.55371e-09 2.27713e-08)
(-3.42474e-07 -2.77529e-07 4.69757e-07)
(-5.72822e-11 3.15524e-10 2.0617e-11)
(-1.12711e-06 -9.98564e-07 9.69616e-07)
(-3.86165e-07 -2.75537e-07 1.6449e-07)
(-4.17263e-07 -3.45522e-07 5.35215e-07)
(-1.02066e-08 -6.21019e-09 2.57057e-08)
(-3.66112e-07 -2.86358e-07 5.1839e-07)
(-5.52215e-11 2.11145e-10 1.33322e-11)
(-6.05208e-06 -5.68251e-06 2.3764e-06)
(-4.10866e-06 -3.76703e-06 1.83861e-06)
(-5.64608e-06 -4.72021e-06 5.77743e-07)
(-5.77166e-06 -5.34921e-06 2.12191e-06)
(-4.13427e-06 -3.83791e-06 2.02372e-06)
(-5.79713e-06 -5.43509e-06 2.33564e-06)
(-6.16028e-06 -5.18838e-06 5.9587e-07)
(-6.02664e-06 -5.59459e-06 2.15894e-06)
(-1.66836e-12 -5.34912e-14 -8.45478e-13)
(-2.43132e-12 2.21632e-16 2.86101e-11)
(-1.66687e-12 -1.96432e-13 3.02309e-11)
(4.73978e-13 1.03828e-13 1.55153e-11)
(-6.63698e-13 2.63491e-14 -2.28308e-14)
(-5.17719e-13 1.78917e-13 3.67586e-13)
(-1.135e-12 9.93521e-13 1.30058e-12)
(-1.56793e-12 1.76125e-13 -4.65705e-13)
(-1.79501e-12 2.88875e-14 -1.09252e-12)
(-1.71706e-12 1.35259e-13 -7.99376e-13)
(-1.10559e-06 -1.0563e-06 1.22087e-06)
(-4.17292e-07 -3.88501e-07 6.85732e-07)
(-2.02618e-07 -1.83412e-07 2.23329e-07)
(-8.97027e-09 -1.71817e-08 2.9981e-08)
(-3.26415e-07 -3.00084e-07 5.36074e-07)
(-1.09053e-06 -1.018e-06 1.08892e-06)
(-3.40494e-07 -2.91586e-07 2.89608e-07)
(-3.98595e-07 -3.67495e-07 6.08489e-07)
(-1.19877e-08 -2.28297e-08 3.41965e-08)
(-3.45168e-07 -3.18696e-07 6.05027e-07)
(-1.28065e-06 -1.14837e-06 1.13132e-06)
(-2.35006e-06 -2.15218e-06 1.55286e-06)
(-2.55908e-06 -2.01666e-06 4.20281e-07)
(-3.88968e-06 -3.56101e-06 1.79466e-06)
(-2.50096e-06 -2.26587e-06 1.46217e-06)
(-1.25494e-06 -1.11627e-06 1.02802e-06)
(-2.20078e-06 -1.71715e-06 3.93093e-07)
(-2.32437e-06 -2.10244e-06 1.41109e-06)
(-3.91531e-06 -3.62964e-06 1.97532e-06)
(-2.52664e-06 -2.31806e-06 1.60911e-06)
(-1.23022e-06 -1.17617e-06 1.29299e-06)
(-2.27782e-06 -2.1771e-06 1.76787e-06)
(-2.42995e-06 -2.02859e-06 7.54471e-07)
(-3.8149e-06 -3.57586e-06 2.00777e-06)
(-2.44219e-06 -2.28272e-06 1.63588e-06)
(-1.21582e-06 -1.1354e-06 1.1536e-06)
(-2.08154e-06 -1.72949e-06 7.02451e-07)
(-2.26799e-06 -2.11957e-06 1.57897e-06)
(-3.81988e-06 -3.65125e-06 2.24729e-06)
(-2.45139e-06 -2.34257e-06 1.83147e-06)
(-5.9331e-06 -5.70044e-06 2.70726e-06)
(-4.03169e-06 -3.7816e-06 2.05714e-06)
(-5.45406e-06 -4.72931e-06 1.07403e-06)
(-5.68015e-06 -5.36181e-06 2.37682e-06)
(-4.0361e-06 -3.85911e-06 2.30252e-06)
(-5.68062e-06 -5.45342e-06 2.66024e-06)
(-5.96021e-06 -5.1971e-06 1.11344e-06)
(-5.93316e-06 -5.60692e-06 2.41882e-06)
(-2.87744e-12 -9.62776e-14 1.0133e-11)
(-1.99966e-14 -6.58605e-14 1.46099e-11)
(-2.92983e-12 -5.79804e-14 1.00243e-11)
(-4.45598e-13 2.6815e-12 1.3369e-11)
(6.7648e-12 -1.03009e-11 2.18853e-11)
(1.09668e-12 1.40695e-11 1.56235e-11)
(-2.20658e-12 -2.86243e-13 2.92191e-11)
(9.82014e-14 -2.01892e-13 1.49363e-11)
(-2.87017e-12 -9.19916e-14 1.01683e-11)
(-2.85181e-12 -1.26194e-13 1.03149e-11)
(-2.33612e-12 -1.39192e-13 2.87616e-11)
(1.48749e-12 -4.46116e-12 3.29407e-11)
(1.89975e-12 -1.20117e-12 1.67525e-11)
(-1.01794e-12 1.44651e-12 1.29015e-11)
(-2.12418e-12 4.27884e-13 1.17508e-11)
(-5.87703e-14 3.75568e-14 1.45771e-11)
(-2.98011e-12 7.72788e-14 1.00213e-11)
(-3.00051e-12 2.52936e-14 9.94101e-12)
(-1.241e-06 -1.1711e-06 1.50897e-06)
(-9.01958e-07 -8.18779e-07 1.23478e-06)
(-4.12279e-09 5.21991e-10 1.76442e-09)
(-3.62123e-08 -2.33671e-08 5.16317e-08)
(-7.58785e-09 -1.62611e-09 2.24008e-08)
(-6.72378e-08 -5.33933e-08 1.15853e-07)
(-2.20298e-09 1.61991e-09 6.76517e-10)
(-1.0746e-06 -8.77901e-07 5.60934e-07)
(-7.71939e-07 -5.67456e-07 2.37001e-07)
(-7.27221e-07 -5.87691e-07 4.55601e-07)
(-2.47211e-08 -1.93875e-09 2.27922e-08)
(-2.02027e-07 -9.44652e-08 3.35483e-07)
(-7.14656e-06 -7.08699e-06 3.55975e-06)
(-4.07667e-06 -3.50287e-06 1.05774e-06)
(-4.66866e-06 -3.84322e-06 5.38338e-07)
(-4.76542e-06 -4.12863e-06 1.12951e-06)
(-4.19037e-06 -4.1226e-06 2.8462e-06)
(-4.87053e-06 -4.80004e-06 3.04233e-06)
(-7.23579e-06 -6.18176e-06 6.29094e-07)
(-7.06666e-06 -6.27207e-06 1.31676e-06)
(-2.4068e-12 8.64525e-14 2.87269e-11)
(-2.22218e-12 1.59739e-13 2.93236e-11)
(9.37158e-14 1.98599e-13 1.49658e-11)
(-2.97855e-12 8.07745e-14 1.00523e-11)
(-2.96442e-12 1.57648e-13 1.02378e-11)
(-1.20085e-06 -1.19622e-06 1.62151e-06)
(-8.68477e-07 -8.44893e-07 1.33126e-06)
(-2.6481e-08 -4.36973e-08 8.75364e-08)
(-8.55796e-10 -8.72136e-09 1.95477e-08)
(-6.12846e-08 -7.30363e-08 1.48678e-07)
(-1.02932e-06 -8.9248e-07 6.96249e-07)
(-7.04724e-07 -5.82127e-07 4.1657e-07)
(-6.91109e-07 -6.03038e-07 5.67035e-07)
(-3.26381e-08 -3.36069e-08 5.15704e-08)
(-1.96992e-07 -1.29718e-07 3.85798e-07)
(-1.36695e-06 -1.30037e-06 1.59797e-06)
(-1.78284e-06 -1.72283e-06 1.85753e-06)
(-3.3417e-06 -2.68258e-06 4.70985e-07)
(-3.85649e-06 -3.30465e-06 1.03309e-06)
(-3.22639e-06 -2.74155e-06 9.55046e-07)
(-1.20382e-06 -9.8664e-07 5.9444e-07)
(-1.55419e-06 -1.18674e-06 3.34835e-07)
(-1.62915e-06 -1.34835e-06 6.92567e-07)
(-3.97323e-06 -3.9067e-06 2.77816e-06)
(-3.35193e-06 -3.28938e-06 2.566e-06)
(-1.32464e-06 -1.32515e-06 1.71575e-06)
(-1.73423e-06 -1.74656e-06 1.99074e-06)
(-3.19344e-06 -2.69369e-06 8.53654e-07)
(-3.76359e-06 -3.31573e-06 1.28658e-06)
(-3.14155e-06 -2.75326e-06 1.18762e-06)
(-1.15506e-06 -1.00097e-06 7.37649e-07)
(-1.45534e-06 -1.19993e-06 5.93386e-07)
(-1.57134e-06 -1.36201e-06 8.5888e-07)
(-3.90149e-06 -3.92593e-06 2.96892e-06)
(-3.28568e-06 -3.30975e-06 2.74297e-06)
(-7.05345e-06 -7.10139e-06 3.80526e-06)
(-3.98079e-06 -3.51373e-06 1.31814e-06)
(-4.49344e-06 -3.85312e-06 9.90559e-07)
(-4.66186e-06 -4.13887e-06 1.41005e-06)
(-4.11685e-06 -4.14146e-06 3.04146e-06)
(-4.79179e-06 -4.81776e-06 3.25082e-06)
(-7.02032e-06 -6.1897e-06 1.18763e-06)
(-6.94089e-06 -6.28044e-06 1.65392e-06)
(-5.69524e-12 -9.1516e-14 7.79099e-12)
(-5.87082e-13 -3.75974e-14 7.06173e-14)
(-5.75086e-12 -4.60242e-14 7.67392e-12)
(-2.3291e-14 -9.25987e-14 1.45868e-11)
(-2.94471e-12 -1.89421e-14 9.94686e-12)
(-2.93758e-12 -5.97394e-14 9.99761e-12)
(-5.95223e-13 -3.51684e-14 5.9774e-14)
(-5.75856e-12 -1.31238e-14 7.60529e-12)
(-5.75564e-12 -5.78878e-14 7.64799e-12)
(-4.26139e-12 3.17863e-12 1.08684e-11)
(-2.53768e-12 1.14282e-11 5.03159e-12)
(-4.34429e-12 1.5406e-11 1.30058e-11)
(-1.2143e-12 -1.68132e-11 1.78285e-11)
(-1.77115e-11 1.23398e-10 2.29836e-11)
(1.06361e-12 2.73884e-11 1.68152e-11)
(-4.9443e-12 2.272e-11 6.01184e-12)
(-2.51657e-11 1.30281e-10 2.06051e-11)
(-5.40832e-12 3.05381e-11 1.42731e-11)
(-2.84433e-12 -1.24911e-13 1.03616e-11)
(-5.69072e-12 -7.0281e-14 7.82424e-12)
(-4.71472e-13 -6.0907e-14 3.80234e-13)
(-5.68344e-12 -1.11525e-13 7.9548e-12)
(-4.40924e-13 -6.40694e-14 4.43991e-13)
(-5.67925e-12 -1.00544e-13 7.99687e-12)
(-2.36461e-12 -1.0701e-13 2.86788e-11)
(-6.69586e-14 -2.00895e-12 3.18086e-11)
(1.53773e-12 -5.7639e-13 1.65691e-11)
(-2.71214e-12 2.52944e-13 1.08418e-11)
(-2.32687e-12 3.37093e-13 1.15067e-11)
(-4.54643e-12 1.82788e-12 1.03913e-11)
(7.60192e-14 4.80734e-13 1.67401e-12)
(-5.26137e-12 5.32701e-13 9.24447e-12)
(-5.65369e-12 2.50899e-13 8.39432e-12)
(-1.41656e-13 3.51879e-13 1.20102e-12)
(-5.38698e-12 4.05838e-13 9.01857e-12)
(-1.27565e-12 1.28409e-15 -2.4686e-12)
(-1.72269e-12 -4.11358e-14 -9.78667e-13)
(-1.27764e-12 -7.57742e-15 -2.49253e-12)
(-1.73242e-12 -1.85604e-14 -9.9544e-13)
(-1.31479e-12 -8.16576e-15 -2.52568e-12)
(-1.29501e-12 1.64935e-15 -2.51174e-12)
(-5.23218e-14 6.61002e-14 1.45568e-11)
(-2.95359e-12 -2.12637e-14 9.938e-12)
(-2.99324e-12 2.40633e-14 9.94041e-12)
(-5.81331e-12 6.90796e-14 7.65385e-12)
(-6.58938e-13 -3.11847e-15 -6.51071e-14)
(-5.82418e-12 1.09606e-14 7.57479e-12)
(-5.7674e-12 -3.27322e-14 7.59461e-12)
(-6.8051e-13 -6.60051e-15 -1.21884e-13)
(-5.81666e-12 2.00786e-14 7.5788e-12)
(-1.35822e-12 -5.14057e-15 -2.57897e-12)
(-1.79373e-12 4.46013e-15 -1.11722e-12)
(-1.3474e-12 2.71068e-15 -2.58293e-12)
(-1.33898e-12 2.46946e-15 -2.554e-12)
(-1.81235e-12 -1.97217e-14 -1.16435e-12)
(-1.33046e-12 -6.90468e-15 -2.56145e-12)
(-1.21615e-06 -1.12725e-06 1.38352e-06)
(-8.08418e-07 -7.03224e-07 8.68555e-07)
(-8.75272e-07 -7.82256e-07 1.13017e-06)
(-5.39793e-07 -4.34395e-07 8.52912e-07)
(-8.01928e-07 -7.13389e-07 1.14106e-06)
(-7.06812e-07 -6.07176e-07 8.00397e-07)
(-5.11107e-07 -4.08298e-07 7.76411e-07)
(-7.7467e-07 -6.79388e-07 1.04344e-06)
(-9.76618e-13 6.65097e-14 -1.91949e-12)
(-3.35741e-12 6.53508e-12 3.3527e-12)
(-8.71105e-13 1.29821e-13 -1.57869e-12)
(-5.49021e-12 1.30448e-11 4.0543e-12)
(-2.65809e-12 2.56709e-12 -1.68879e-12)
(-1.14471e-12 2.65163e-13 -1.75232e-12)
(-2.19664e-09 6.63465e-10 7.92825e-10)
(-7.7729e-11 2.57105e-10 2.87636e-11)
(-6.95448e-10 1.16093e-09 2.64877e-10)
(-1.1644e-07 -8.0813e-08 8.57485e-08)
(-2.86419e-07 -2.2717e-07 2.69424e-07)
(-1.09233e-07 -8.67572e-08 1.52036e-07)
(-9.99955e-09 -8.00051e-10 3.13228e-08)
(-1.07874e-07 -7.26733e-08 2.02259e-07)
(-1.5788e-09 6.74493e-09 1.36303e-09)
(-7.50039e-08 -5.86608e-08 1.34527e-07)
(-2.54005e-09 9.52986e-10 3.92662e-10)
(-2.97742e-07 -2.40174e-07 3.16895e-07)
(-1.57219e-07 -1.13208e-07 2.69143e-07)
(-1.1899e-07 -9.38711e-08 1.79283e-07)
(-6.82549e-11 3.03629e-10 3.15319e-11)
(-6.88163e-10 1.56964e-09 -2.68065e-11)
(-5.91186e-10 9.84552e-10 2.58359e-10)
(-1.08517e-06 -9.08163e-07 6.60075e-07)
(-7.82892e-07 -6.81495e-07 7.88833e-07)
(-7.38375e-07 -6.11336e-07 5.36215e-07)
(-5.64863e-07 -4.09251e-07 2.01488e-07)
(-3.6034e-07 -2.86794e-07 3.07493e-07)
(-6.24829e-07 -5.03176e-07 4.19723e-07)
(-6.8143e-07 -5.88051e-07 7.26739e-07)
(-3.71792e-07 -3.01838e-07 3.61965e-07)
(-6.36257e-07 -5.24613e-07 4.93657e-07)
(-4.64302e-07 -3.53999e-07 7.54349e-07)
(-2.64039e-07 -1.50388e-07 4.45352e-07)
(-1.79456e-08 -4.53206e-09 3.07202e-08)
(-1.24309e-07 -7.10261e-08 2.24107e-07)
(-1.2696e-09 6.2259e-09 8.47128e-10)
(-1.76479e-07 -8.39805e-08 2.99881e-07)
(-1.91289e-10 2.10786e-10 -1.89325e-11)
(-4.35343e-07 -3.30673e-07 6.85006e-07)
(-1.76043e-07 -1.14734e-07 2.9734e-07)
(-2.36301e-07 -1.36267e-07 3.99203e-07)
(-4.96498e-12 5.89336e-12 -2.19884e-12)
(-6.5034e-10 1.36578e-09 -3.04642e-11)
(-5.75835e-11 1.33718e-10 -8.91853e-13)
(-6.09396e-06 -6.02489e-06 3.34278e-06)
(-6.87764e-06 -6.81485e-06 3.50743e-06)
(-7.11153e-06 -6.71803e-06 2.53017e-06)
(-7.13965e-06 -6.98427e-06 3.27093e-06)
(-6.08474e-06 -5.92903e-06 3.07159e-06)
(-6.84092e-06 -6.45239e-06 2.49311e-06)
(-6.87016e-06 -6.71381e-06 3.22287e-06)
(-4.08288e-06 -3.5686e-06 1.24876e-06)
(-4.79428e-06 -4.41553e-06 1.96522e-06)
(-4.77105e-06 -4.19995e-06 1.33389e-06)
(-5.14862e-06 -4.27167e-06 5.58574e-07)
(-5.74697e-06 -5.03328e-06 1.21777e-06)
(-5.00434e-06 -4.34734e-06 1.15212e-06)
(-5.03205e-06 -4.64166e-06 2.00568e-06)
(-5.75176e-06 -5.11175e-06 1.43897e-06)
(-5.00968e-06 -4.4205e-06 1.36101e-06)
(-5.84074e-06 -5.7706e-06 3.28531e-06)
(-5.10649e-06 -5.03557e-06 3.10505e-06)
(-4.17633e-06 -4.04171e-06 2.61509e-06)
(-4.81984e-06 -4.493e-06 2.16314e-06)
(-4.85833e-06 -4.71333e-06 2.79543e-06)
(-5.83093e-06 -5.67651e-06 3.01878e-06)
(-5.05759e-06 -4.72127e-06 2.20769e-06)
(-5.09489e-06 -4.94699e-06 2.8531e-06)
(-7.08622e-06 -6.62221e-06 2.29868e-06)
(-7.07035e-06 -6.35898e-06 1.55719e-06)
(-6.69044e-06 -5.67573e-06 6.12979e-07)
(-6.00307e-06 -5.2716e-06 1.23839e-06)
(-6.79493e-06 -6.01505e-06 1.29808e-06)
(-6.81557e-06 -6.35851e-06 2.265e-06)
(-6.00757e-06 -5.35183e-06 1.46374e-06)
(-6.7989e-06 -6.1003e-06 1.53472e-06)
(-1.25792e-12 -8.68421e-15 -2.44975e-12)
(-1.62971e-12 -3.62513e-14 -7.22252e-13)
(-1.22562e-12 7.16642e-16 -2.41837e-12)
(-1.59664e-12 -6.01731e-14 -6.53241e-13)
(-1.21033e-12 -8.49235e-15 -2.40203e-12)
(-2.41429e-12 6.11203e-14 2.8647e-11)
(-2.00756e-12 5.38079e-14 2.97118e-11)
(1.28223e-13 1.45715e-13 1.50707e-11)
(-2.78164e-12 2.45174e-13 1.06998e-11)
(-2.9493e-12 1.71423e-13 1.03106e-11)
(-5.81652e-12 5.61825e-14 7.67694e-12)
(-6.57554e-13 6.58853e-14 1.29497e-15)
(-5.83357e-12 1.36315e-13 7.82961e-12)
(-5.70194e-12 2.45443e-13 8.26483e-12)
(-5.78011e-13 8.40605e-14 1.79315e-13)
(-5.82974e-12 1.43648e-13 7.89002e-12)
(-1.07247e-12 4.9855e-14 -2.07349e-12)
(-1.29354e-12 3.66826e-13 3.31601e-13)
(-1.23579e-12 1.74896e-14 -2.38968e-12)
(-1.45773e-12 2.58204e-13 -8.70822e-14)
(-1.30609e-12 1.79564e-14 -2.50413e-12)
(-1.19436e-12 5.9186e-15 -2.34907e-12)
(-1.3733e-12 5.80142e-15 -2.60011e-12)
(-1.81786e-12 3.72529e-14 -1.09371e-12)
(-1.34343e-12 -5.19142e-15 -2.57407e-12)
(-1.75269e-12 7.24806e-14 -9.37025e-13)
(-1.33111e-12 7.00349e-15 -2.5241e-12)
(-1.37639e-12 4.71207e-15 -2.61187e-12)
(-1.17098e-06 -1.15557e-06 1.51863e-06)
(-7.70935e-07 -7.32737e-07 9.98017e-07)
(-8.3826e-07 -8.11745e-07 1.24542e-06)
(-5.16022e-07 -4.61947e-07 9.2705e-07)
(-7.70764e-07 -7.39835e-07 1.23205e-06)
(-6.72608e-07 -6.37155e-07 9.21557e-07)
(-4.85707e-07 -4.39612e-07 8.63939e-07)
(-7.40463e-07 -7.09285e-07 1.15191e-06)
(-9.70532e-08 -1.00288e-07 1.56786e-07)
(-2.66579e-07 -2.44406e-07 3.39557e-07)
(-1.00072e-07 -1.05947e-07 1.96736e-07)
(-2.53292e-09 -1.0573e-08 2.21332e-08)
(-1.03089e-07 -9.94366e-08 2.39607e-07)
(-6.95922e-08 -8.06143e-08 1.70386e-07)
(-2.7889e-07 -2.59447e-07 3.87384e-07)
(-1.49179e-07 -1.38644e-07 3.14804e-07)
(-1.10142e-07 -1.15516e-07 2.25145e-07)
(-1.04213e-06 -9.24544e-07 7.93239e-07)
(-7.53969e-07 -7.01867e-07 8.8891e-07)
(-7.0435e-07 -6.28571e-07 6.46427e-07)
(-5.08312e-07 -4.24552e-07 3.53974e-07)
(-3.36901e-07 -3.03521e-07 3.86022e-07)
(-5.92212e-07 -5.18821e-07 5.22987e-07)
(-6.55072e-07 -6.08768e-07 8.20248e-07)
(-3.49808e-07 -3.20577e-07 4.40486e-07)
(-6.05319e-07 -5.42167e-07 5.96058e-07)
(-4.43233e-07 -3.82071e-07 8.22743e-07)
(-2.53855e-07 -1.82373e-07 4.99273e-07)
(-2.50144e-08 -3.16112e-08 4.64483e-08)
(-1.17619e-07 -1.09274e-07 2.73225e-07)
(-1.71352e-07 -1.23544e-07 3.53974e-07)
(-4.13078e-07 -3.62662e-07 7.65328e-07)
(-1.65675e-07 -1.50402e-07 3.5778e-07)
(-2.26002e-07 -1.72442e-07 4.60071e-07)
(-1.34274e-06 -1.25415e-06 1.46567e-06)
(-1.70229e-06 -1.54434e-06 1.31795e-06)
(-1.76054e-06 -1.66964e-06 1.70502e-06)
(-2.42294e-06 -2.36489e-06 2.18564e-06)
(-1.93387e-06 -1.87501e-06 1.94151e-06)
(-1.85525e-06 -1.68785e-06 1.37817e-06)
(-2.40322e-06 -2.30274e-06 2.00726e-06)
(-1.91223e-06 -1.81955e-06 1.78241e-06)
(-2.93966e-06 -2.33859e-06 4.46233e-07)
(-2.45986e-06 -2.06647e-06 8.43801e-07)
(-3.02653e-06 -2.56461e-06 9.28295e-07)
(-3.86301e-06 -3.36844e-06 1.21924e-06)
(-3.26282e-06 -2.97405e-06 1.65751e-06)
(-3.2335e-06 -2.79947e-06 1.12679e-06)
(-2.46794e-06 -2.11621e-06 9.94854e-07)
(-3.06423e-06 -2.78894e-06 1.61002e-06)
(-3.03398e-06 -2.62049e-06 1.0948e-06)
(-1.214e-06 -1.01913e-06 6.99911e-07)
(-1.67658e-06 -1.50458e-06 1.19769e-06)
(-1.63863e-06 -1.3874e-06 8.15553e-07)
(-1.86554e-06 -1.4404e-06 3.64627e-07)
(-2.28194e-06 -1.91154e-06 8.1489e-07)
(-1.78352e-06 -1.48054e-06 7.23726e-07)
(-1.82955e-06 -1.64556e-06 1.25241e-06)
(-2.29037e-06 -1.95916e-06 9.60335e-07)
(-1.79263e-06 -1.52178e-06 8.52683e-07)
(-2.59761e-06 -2.53912e-06 2.26438e-06)
(-3.15521e-06 -3.09391e-06 2.4926e-06)
(-3.95858e-06 -3.82778e-06 2.55251e-06)
(-3.28848e-06 -3.03578e-06 1.82426e-06)
(-3.3354e-06 -3.21657e-06 2.35735e-06)
(-2.57854e-06 -2.47479e-06 2.07975e-06)
(-3.08989e-06 -2.84832e-06 1.77195e-06)
(-3.13805e-06 -3.02319e-06 2.28981e-06)
(-1.29492e-06 -1.28207e-06 1.60725e-06)
(-1.64236e-06 -1.57091e-06 1.5029e-06)
(-1.70496e-06 -1.69637e-06 1.86563e-06)
(-2.36627e-06 -2.38715e-06 2.33875e-06)
(-1.88322e-06 -1.89838e-06 2.07976e-06)
(-1.7922e-06 -1.71401e-06 1.57073e-06)
(-2.33764e-06 -2.32784e-06 2.19241e-06)
(-1.8541e-06 -1.84588e-06 1.94923e-06)
(-2.80085e-06 -2.3501e-06 8.04864e-07)
(-2.3866e-06 -2.07902e-06 1.04755e-06)
(-2.94483e-06 -2.57653e-06 1.1537e-06)
(-3.7743e-06 -3.3809e-06 1.46538e-06)
(-3.19475e-06 -2.98976e-06 1.85404e-06)
(-3.15275e-06 -2.81264e-06 1.35292e-06)
(-2.39831e-06 -2.13034e-06 1.19344e-06)
(-2.99845e-06 -2.80493e-06 1.80092e-06)
(-2.95602e-06 -2.63391e-06 1.31412e-06)
(-1.16788e-06 -1.03524e-06 8.40598e-07)
(-1.62995e-06 -1.52285e-06 1.34173e-06)
(-1.58359e-06 -1.40276e-06 9.78395e-07)
(-1.7564e-06 -1.45316e-06 6.48769e-07)
(-2.21195e-06 -1.92432e-06 1.01123e-06)
(-1.72232e-06 -1.49397e-06 8.97683e-07)
(-1.78044e-06 -1.66354e-06 1.40249e-06)
(-2.22366e-06 -1.97354e-06 1.15189e-06)
(-1.73457e-06 -1.53689e-06 1.0228e-06)
(-2.53899e-06 -2.561e-06 2.42235e-06)
(-3.09084e-06 -3.11466e-06 2.66489e-06)
(-3.87427e-06 -3.84953e-06 2.78411e-06)
(-3.20151e-06 -3.05863e-06 2.07536e-06)
(-3.25792e-06 -3.23958e-06 2.57193e-06)
(-2.51053e-06 -2.49947e-06 2.2709e-06)
(-3.00581e-06 -2.87158e-06 2.01596e-06)
(-3.0629e-06 -3.04661e-06 2.49862e-06)
(-6.007e-06 -6.04076e-06 3.57236e-06)
(-6.78603e-06 -6.82961e-06 3.74904e-06)
(-6.98294e-06 -6.73436e-06 2.88521e-06)
(-7.02868e-06 -7.00066e-06 3.57012e-06)
(-5.98146e-06 -5.94705e-06 3.3511e-06)
(-6.71468e-06 -6.46912e-06 2.84223e-06)
(-6.76107e-06 -6.7306e-06 3.51724e-06)
(-3.9915e-06 -3.58083e-06 1.50147e-06)
(-4.71092e-06 -4.42925e-06 2.19968e-06)
(-4.67209e-06 -4.21147e-06 1.60585e-06)
(-4.96488e-06 -4.28117e-06 1.03307e-06)
(-5.63331e-06 -5.04268e-06 1.52422e-06)
(-4.89796e-06 -4.35735e-06 1.43929e-06)
(-4.94661e-06 -4.65511e-06 2.24534e-06)
(-5.64308e-06 -5.12233e-06 1.73568e-06)
(-4.90819e-06 -4.43178e-06 1.63927e-06)
(-5.75538e-06 -5.78683e-06 3.51077e-06)
(-5.02606e-06 -5.05292e-06 3.31786e-06)
(-4.0898e-06 -4.06304e-06 2.85224e-06)
(-4.71361e-06 -4.51296e-06 2.462e-06)
(-4.7653e-06 -4.73341e-06 3.04892e-06)
(-5.72965e-06 -5.69494e-06 3.29321e-06)
(-4.94874e-06 -4.74082e-06 2.5131e-06)
(-4.99976e-06 -4.96665e-06 3.11191e-06)
(-6.98512e-06 -6.63344e-06 2.57778e-06)
(-6.9502e-06 -6.36841e-06 1.88318e-06)
(-6.48255e-06 -5.68405e-06 1.15131e-06)
(-5.88673e-06 -5.28079e-06 1.55117e-06)
(-6.67171e-06 -6.02364e-06 1.62923e-06)
(-6.71634e-06 -6.37002e-06 2.53939e-06)
(-5.8965e-06 -5.36217e-06 1.76646e-06)
(-6.68101e-06 -6.10996e-06 1.855e-06)
(-1.31407e-06 -1.33866e-06 1.83621e-06)
(-1.19618e-06 -1.20939e-06 1.72845e-06)
(-6.70439e-08 -2.0516e-09 7.23238e-08)
(-1.49154e-07 -4.43541e-08 1.97035e-07)
(-4.2344e-06 -4.37699e-06 3.44218e-06)
(-4.45472e-06 -4.60238e-06 3.52248e-06)
(-1.2851e-06 -1.35111e-06 1.88779e-06)
(-1.16812e-06 -1.22201e-06 1.77778e-06)
(-6.65455e-08 -2.75041e-08 8.60294e-08)
(-1.48876e-07 -6.56239e-08 2.2906e-07)
(-1.43837e-06 -1.47367e-06 1.94267e-06)
(-1.56904e-06 -1.61439e-06 2.04777e-06)
(-4.01896e-06 -4.15652e-06 3.36028e-06)
(-3.80847e-06 -3.94102e-06 3.27679e-06)
(-1.40852e-06 -1.48595e-06 1.99648e-06)
(-1.53833e-06 -1.62648e-06 2.1038e-06)
(-3.9775e-06 -4.1658e-06 3.44537e-06)
(-3.76771e-06 -3.9505e-06 3.35992e-06)
(-4.19227e-06 -4.38606e-06 3.5292e-06)
(-4.41191e-06 -4.61124e-06 3.61141e-06)
(-4.15386e-12 -8.06653e-14 -6.9381e-12)
(-5.32122e-13 -5.59061e-14 1.41555e-13)
(-4.19458e-12 -9.36806e-14 -7.15836e-12)
(-5.97269e-13 -2.175e-14 -1.99282e-14)
(-4.24777e-12 -8.66214e-15 -7.18094e-12)
(-4.26083e-12 -3.6378e-15 -7.32755e-12)
(-3.2511e-12 3.34121e-12 -4.31763e-12)
(3.83773e-14 3.80462e-12 3.9412e-12)
(-3.68849e-12 5.40323e-12 -4.07281e-12)
(-1.86365e-11 8.16858e-11 9.00652e-12)
(-4.64004e-11 1.60194e-10 -5.85343e-12)
(-2.3295e-11 1.12744e-10 1.67704e-13)
(-4.14391e-12 -4.3583e-14 -6.92743e-12)
(-4.81375e-13 -5.31535e-14 2.63444e-13)
(-4.15244e-12 -4.28723e-14 -7.05777e-12)
(-3.28604e-12 2.01006e-12 -4.76753e-12)
(3.89578e-13 1.03812e-12 2.53566e-12)
(-3.36725e-12 1.34663e-12 -5.32388e-12)
(-4.0401e-12 2.12848e-13 -6.6766e-12)
(-3.28704e-13 2.41096e-13 6.80919e-13)
(-4.02072e-12 2.58823e-13 -6.72698e-12)
(-2.78747e-12 -1.10181e-14 -3.4971e-12)
(-1.64303e-12 -3.05636e-14 -8.60932e-13)
(-2.72233e-12 -1.45795e-14 -3.40797e-12)
(-1.70142e-12 -2.83524e-14 -1.00554e-12)
(-2.84727e-12 -2.95387e-14 -3.64499e-12)
(-2.77247e-12 -2.35657e-14 -3.52757e-12)
(-4.30861e-12 5.08108e-14 -7.24949e-12)
(-6.41935e-13 2.20997e-14 -8.24871e-14)
(-4.32403e-12 5.15489e-14 -7.41917e-12)
(-4.25165e-12 -4.62849e-14 -7.1846e-12)
(-6.39824e-13 -2.65598e-14 -1.12162e-13)
(-4.29872e-12 -5.22148e-14 -7.40332e-12)
(-2.9037e-12 -7.76379e-15 -3.74065e-12)
(-1.74979e-12 3.59899e-15 -1.07917e-12)
(-2.82509e-12 -4.94629e-15 -3.61693e-12)
(-2.8567e-12 -5.91679e-17 -3.65696e-12)
(-1.74098e-12 -1.0888e-14 -1.08943e-12)
(-2.80121e-12 -3.88396e-15 -3.59108e-12)
(-1.17516e-06 -1.05893e-06 1.16511e-06)
(-1.03146e-06 -9.1375e-07 1.00193e-06)
(-1.17046e-06 -1.00973e-06 9.55526e-07)
(-1.04714e-06 -8.9575e-07 8.96353e-07)
(-1.05402e-06 -9.42323e-07 1.09416e-06)
(-6.23209e-07 -5.56166e-07 1.0581e-06)
(-7.0314e-07 -6.50367e-07 1.17232e-06)
(-4.4604e-07 -3.40763e-07 5.22493e-07)
(-5.23442e-07 -4.33925e-07 6.61208e-07)
(-4.64574e-07 -3.71566e-07 6.4665e-07)
(-5.29626e-07 -4.17525e-07 5.86931e-07)
(-5.46591e-07 -4.50927e-07 7.23803e-07)
(-2.3117e-12 7.20479e-13 -1.36904e-12)
(-1.30207e-12 2.24462e-12 2.46486e-12)
(-2.39785e-12 1.00927e-12 -1.0275e-12)
(-1.7468e-11 4.96007e-11 6.06849e-12)
(-2.59926e-11 4.07528e-11 2.22913e-13)
(-1.31641e-11 2.22709e-11 4.83058e-13)
(-3.05795e-08 -7.23673e-09 6.31649e-08)
(-4.51798e-09 -3.40642e-09 2.19909e-08)
(-3.1947e-08 -2.25347e-08 7.42419e-08)
(-7.82203e-09 1.84373e-09 2.25917e-08)
(-3.61227e-08 -4.53058e-09 6.88676e-08)
(-2.56182e-08 -2.16427e-08 6.70808e-08)
(-7.32633e-09 3.89891e-09 2.22179e-08)
(-2.65889e-07 -1.90468e-07 3.06959e-07)
(-3.50995e-07 -2.61203e-07 4.11527e-07)
(-3.24795e-07 -2.65409e-07 4.18082e-07)
(-2.74311e-07 -2.1607e-07 4.03492e-07)
(-3.35622e-07 -2.50308e-07 3.59759e-07)
(-2.80922e-07 -1.99456e-07 3.5171e-07)
(-2.57177e-07 -2.0606e-07 3.58713e-07)
(-6.56719e-11 4.02697e-10 1.50162e-11)
(-1.66252e-10 4.39398e-10 -1.67192e-12)
(-1.5449e-10 4.78693e-10 -2.33317e-11)
(-1.0154e-06 -8.45597e-07 7.11475e-07)
(-1.11011e-06 -9.68306e-07 8.66266e-07)
(-1.00579e-06 -8.86822e-07 9.1028e-07)
(-1.1527e-06 -9.8333e-07 8.63223e-07)
(-1.02916e-06 -8.71506e-07 8.09638e-07)
(-9.8849e-07 -8.58857e-07 8.13121e-07)
(-1.1394e-06 -9.5525e-07 7.5872e-07)
(-4.9572e-07 -3.88997e-07 4.63725e-07)
(-4.27747e-07 -3.29439e-07 4.70624e-07)
(-4.98616e-07 -4.19986e-07 5.99901e-07)
(-3.99282e-07 -3.31215e-07 4.76847e-07)
(-5.11147e-07 -4.04085e-07 5.29075e-07)
(-4.12279e-07 -3.16449e-07 4.1209e-07)
(-4.80503e-07 -4.0345e-07 5.34851e-07)
(-5.48903e-07 -4.67795e-07 9.42902e-07)
(-4.79635e-07 -3.85142e-07 8.26649e-07)
(-1.29225e-08 -5.34789e-09 2.75186e-08)
(-3.8271e-08 -1.99211e-08 7.92409e-08)
(-9.10849e-09 2.12255e-09 2.1401e-08)
(-4.75106e-08 1.44883e-08 8.06337e-08)
(-4.67385e-08 -1.14803e-08 8.72242e-08)
(-6.47363e-09 2.60705e-09 1.09233e-08)
(-3.68953e-07 -2.70419e-07 4.57398e-07)
(-3.88764e-07 -2.98673e-07 5.68575e-07)
(-2.96886e-07 -2.22448e-07 4.45526e-07)
(-2.98258e-07 -2.06668e-07 3.91413e-07)
(-3.18839e-07 -2.32392e-07 4.89287e-07)
(-4.37929e-11 1.02759e-10 2.91558e-12)
(-1.4342e-10 3.28461e-10 2.58652e-12)
(-1.01908e-10 1.88128e-10 1.16845e-13)
(-6.12478e-06 -6.31318e-06 4.04026e-06)
(-6.38046e-06 -6.57593e-06 4.10796e-06)
(-6.1141e-06 -5.65665e-06 2.13307e-06)
(-6.06835e-06 -5.76418e-06 2.59377e-06)
(-6.3111e-06 -5.93457e-06 2.41623e-06)
(-6.37465e-06 -5.90847e-06 2.16841e-06)
(-6.32713e-06 -6.01798e-06 2.63728e-06)
(-4.39038e-06 -3.89968e-06 1.47558e-06)
(-4.09677e-06 -3.70014e-06 1.64252e-06)
(-4.16965e-06 -3.75316e-06 1.64222e-06)
(-4.33248e-06 -3.97816e-06 1.88169e-06)
(-4.39538e-06 -3.96438e-06 1.68044e-06)
(-4.16423e-06 -3.69032e-06 1.44221e-06)
(-4.32087e-06 -3.90931e-06 1.68093e-06)
(-5.58994e-06 -5.02153e-06 1.63156e-06)
(-5.84546e-06 -5.33596e-06 1.89264e-06)
(-5.52083e-06 -5.10856e-06 2.08402e-06)
(-5.76168e-06 -5.26907e-06 1.89502e-06)
(-5.59287e-06 -5.09522e-06 1.85928e-06)
(-5.84293e-06 -5.26054e-06 1.66061e-06)
(-5.51059e-06 -5.03024e-06 1.86127e-06)
(-5.87318e-06 -6.0549e-06 3.97101e-06)
(-5.62577e-06 -5.80116e-06 3.90019e-06)
(-4.15243e-06 -3.9048e-06 2.20856e-06)
(-4.18334e-06 -3.81414e-06 1.81857e-06)
(-4.35808e-06 -4.05126e-06 2.07116e-06)
(-4.40884e-06 -4.02721e-06 1.86102e-06)
(-4.37601e-06 -4.12008e-06 2.26036e-06)
(-5.8576e-06 -5.40948e-06 2.09686e-06)
(-5.81363e-06 -5.51499e-06 2.54924e-06)
(-5.54633e-06 -5.19237e-06 2.29394e-06)
(-5.60523e-06 -5.16701e-06 2.05977e-06)
(-5.56307e-06 -5.27049e-06 2.50368e-06)
(-6.3612e-06 -5.75276e-06 1.71659e-06)
(-6.10218e-06 -5.58143e-06 1.92519e-06)
(-6.28568e-06 -5.84464e-06 2.19513e-06)
(-6.01693e-06 -5.51265e-06 1.92802e-06)
(-6.36294e-06 -5.83157e-06 1.95697e-06)
(-6.10005e-06 -5.5043e-06 1.68895e-06)
(-6.27623e-06 -5.76093e-06 1.96026e-06)
(-2.76368e-12 -4.18326e-14 -3.44588e-12)
(-1.60334e-12 -5.09444e-14 -7.57884e-13)
(-2.69342e-12 -3.59732e-14 -3.33289e-12)
(-4.28968e-12 1.91691e-14 -7.20891e-12)
(-6.70035e-13 3.11915e-14 -1.14244e-13)
(-4.33383e-12 2.03101e-14 -7.39483e-12)
(-4.13765e-12 2.15143e-13 -6.81459e-12)
(-4.73526e-13 1.60274e-13 3.77025e-13)
(-4.19595e-12 2.05488e-13 -7.055e-12)
(-2.40834e-12 5.09229e-13 -1.93418e-12)
(-1.04302e-12 7.08701e-13 1.12642e-12)
(-2.39404e-12 3.82849e-13 -2.11662e-12)
(-1.54953e-12 1.98642e-13 -4.55781e-13)
(-2.75565e-12 1.14179e-13 -3.28084e-12)
(-2.69649e-12 1.23536e-13 -3.18391e-12)
(-2.88674e-12 2.17762e-14 -3.68925e-12)
(-1.78525e-12 3.23933e-14 -1.12355e-12)
(-2.84605e-12 2.05011e-14 -3.64741e-12)
(-1.64342e-12 1.16102e-13 -7.20735e-13)
(-2.8354e-12 7.54031e-14 -3.48198e-12)
(-2.77968e-12 6.63927e-14 -3.40978e-12)
(-1.12418e-06 -1.09016e-06 1.32983e-06)
(-9.8746e-07 -9.4239e-07 1.14767e-06)
(-1.0762e-06 -1.06794e-06 1.28544e-06)
(-1.00644e-06 -9.74004e-07 1.25052e-06)
(-9.59865e-07 -9.54834e-07 1.20904e-06)
(-6.01493e-07 -5.69676e-07 1.09371e-06)
(-6.80191e-07 -6.63729e-07 1.21022e-06)
(-4.0098e-07 -4.06078e-07 7.2699e-07)
(-4.95832e-07 -4.64935e-07 7.65394e-07)
(-4.37928e-07 -4.06475e-07 7.50496e-07)
(-5.16376e-07 -4.85186e-07 8.36714e-07)
(-4.77524e-07 -4.81588e-07 8.10099e-07)
(-2.5354e-08 -6.0696e-08 1.06007e-07)
(-6.3249e-09 -1.46389e-08 2.73162e-08)
(-3.18955e-08 -3.99244e-08 9.34134e-08)
(-1.1772e-08 -3.5329e-08 4.02683e-08)
(-2.54014e-08 -3.71882e-08 8.35896e-08)
(-3.25425e-08 -6.44109e-08 1.15551e-07)
(-8.34411e-09 -3.18732e-08 3.64898e-08)
(-2.31922e-07 -2.51204e-07 4.70233e-07)
(-3.12625e-07 -3.21639e-07 5.89565e-07)
(-3.09105e-07 -2.8656e-07 4.83585e-07)
(-2.60843e-07 -2.39351e-07 4.62917e-07)
(-2.44121e-07 -2.27966e-07 4.17153e-07)
(-2.94414e-07 -3.0914e-07 5.42925e-07)
(-2.49437e-07 -2.61669e-07 5.10975e-07)
(-9.23183e-07 -8.97067e-07 1.02826e-06)
(-1.07353e-06 -9.86447e-07 9.8598e-07)
(-9.71748e-07 -9.06557e-07 1.02325e-06)
(-1.05912e-06 -1.03558e-06 1.18429e-06)
(-9.54512e-07 -8.77288e-07 9.26324e-07)
(-9.42476e-07 -9.24566e-07 1.1136e-06)
(-1.03987e-06 -1.00591e-06 1.09374e-06)
(-4.40034e-07 -4.4516e-07 6.86224e-07)
(-3.82484e-07 -3.8843e-07 6.67439e-07)
(-4.77389e-07 -4.41487e-07 6.80004e-07)
(-3.8094e-07 -3.51812e-07 5.49384e-07)
(-4.59577e-07 -4.23579e-07 6.14374e-07)
(-4.59023e-07 -4.61851e-07 7.44348e-07)
(-3.63796e-07 -3.73859e-07 6.15006e-07)
(-5.28562e-07 -4.81485e-07 9.76256e-07)
(-4.60899e-07 -3.99142e-07 8.57901e-07)
(-1.64727e-08 -2.66342e-08 3.88632e-08)
(-3.94418e-08 -4.63213e-08 1.05888e-07)
(-1.44859e-08 -4.08195e-08 4.80981e-08)
(-4.83038e-08 -5.23979e-08 1.17792e-07)
(-4.11071e-08 -7.00293e-08 1.29381e-07)
(-3.30956e-07 -3.37229e-07 6.42816e-07)
(-3.65737e-07 -3.34397e-07 6.63108e-07)
(-2.79335e-07 -2.55602e-07 5.23414e-07)
(-2.99561e-07 -2.69054e-07 5.74625e-07)
(-2.67381e-07 -2.75229e-07 5.5777e-07)
(-1.30276e-06 -1.18148e-06 1.235e-06)
(-1.30026e-06 -1.12967e-06 1.01377e-06)