/*--------------------------------*- C++ -*----------------------------------*\
| =========                 |                                                 |
| \\      /  F ield         | OpenFOAM: The Open Source CFD Toolbox           |
|  \\    /   O peration     | Version:  2012                                  |
|   \\  /    A nd           | Website:  www.openfoam.com                      |
|    \\/     M anipulation  |                                                 |
\*---------------------------------------------------------------------------*/
FoamFile
{
    version     2.0;
    format      ascii;
    class       volVectorField;
    location    "0.106/solid";
    object      D_0_0_0;
}
// * * * * * * * * * * * * * * * * * * * * * * * * * * * * * * * * * * * * * //

dimensions      [0 1 0 0 0 0 0];


internalField   nonuniform List<vector> 
3125
(
(2.00593e-13 -1.64558e-13 1.6061e-11)
(1.00862e-11 -1.7069e-12 1.95961e-11)
(-1.98089e-12 -2.62511e-13 3.15128e-11)
(2.04653e-13 -1.57975e-13 1.61107e-11)
(-2.03456e-12 -2.24933e-13 3.13473e-11)
(1.1306e-11 -9.82869e-12 3.69399e-11)
(7.95458e-12 -1.08556e-12 1.98224e-11)
(2.06392e-11 -1.70059e-11 3.86668e-11)
(1.03455e-13 7.54298e-14 1.59382e-11)
(-6.88025e-09 -3.04679e-09 2.64158e-08)
(-1.73544e-06 -9.14146e-07 5.2759e-07)
(-7.30277e-06 -4.17696e-06 1.02769e-06)
(-2.16849e-12 6.55972e-14 3.12325e-11)
(-2.09308e-12 2.03446e-14 3.14228e-11)
(1.06758e-13 5.32528e-14 1.59804e-11)
(1.23329e-10 -2.52173e-08 4.64917e-08)
(-1.65959e-06 -9.39029e-07 7.83055e-07)
(-6.53133e-06 -3.71519e-06 9.8015e-07)
(-2.18803e-06 -1.16891e-06 5.91869e-07)
(-6.40123e-06 -3.73403e-06 1.4673e-06)
(-2.10435e-06 -1.19293e-06 8.79689e-07)
(-7.16711e-06 -4.1951e-06 1.5393e-06)
(-1.56784e-13 -6.66899e-14 1.37041e-12)
(9.24538e-14 -2.49482e-14 1.58262e-11)
(-2.81771e-13 -3.62842e-14 1.06291e-12)
(-4.20841e-13 5.11965e-12 4.56288e-12)
(-1.43789e-11 1.7117e-10 3.08546e-11)
(-1.03512e-10 2.67402e-10 4.93099e-12)
(-1.27426e-13 -6.71628e-14 1.42662e-12)
(-2.16273e-12 -5.68958e-14 3.10304e-11)
(8.89504e-14 -1.73892e-12 3.32937e-11)
(1.12951e-12 -3.88488e-13 1.69483e-11)
(-1.05545e-13 3.01985e-12 3.61154e-12)
(-5.0638e-14 2.05764e-13 1.64053e-12)
(-1.33407e-12 -4.07654e-14 1.06981e-13)
(-1.44255e-12 -4.14515e-14 -1.58107e-13)
(8.76326e-14 -3.14928e-14 1.5821e-11)
(-3.75909e-13 1.05183e-14 8.9884e-13)
(-2.86322e-13 -3.86897e-14 1.0562e-12)
(-1.54211e-12 -6.45885e-15 -3.34519e-13)
(-1.44782e-12 -2.01642e-14 -1.65946e-13)
(-2.00355e-06 -1.18534e-06 1.91604e-06)
(-7.66638e-07 -4.12415e-07 1.06276e-06)
(-1.59468e-12 2.85696e-12 2.86928e-12)
(-8.30952e-11 1.7027e-10 5.57894e-12)
(-1.81778e-10 2.97844e-10 1.10927e-11)
(-4.04427e-07 -1.99311e-07 2.43917e-07)
(-1.32419e-08 -8.39212e-09 4.02969e-08)
(-5.95916e-07 -3.26162e-07 8.42248e-07)
(-1.21905e-10 6.67638e-10 3.51626e-11)
(-1.96275e-06 -1.16159e-06 1.73441e-06)
(-6.62393e-07 -3.31702e-07 3.19293e-07)
(-7.26059e-07 -4.03853e-07 9.59204e-07)
(-1.7523e-08 -1.17695e-08 4.60748e-08)
(-6.35589e-07 -3.32319e-07 9.341e-07)
(-1.1513e-10 4.34705e-10 2.28134e-11)
(-1.05602e-05 -6.56536e-06 4.27228e-06)
(-7.17214e-06 -4.40565e-06 3.29034e-06)
(-9.81299e-06 -5.68927e-06 1.15925e-06)
(-1.00817e-05 -6.22161e-06 3.80117e-06)
(-7.20718e-06 -4.45956e-06 3.63367e-06)
(-1.01143e-05 -6.28549e-06 4.19826e-06)
(-1.07104e-05 -6.23274e-06 1.19948e-06)
(-1.05279e-05 -6.50017e-06 3.86814e-06)
(-1.30148e-12 -6.49519e-14 1.74452e-13)
(-2.1881e-12 -2.25771e-14 3.10149e-11)
(-9.77213e-13 -8.23665e-13 3.2633e-11)
(8.59745e-13 -1.64944e-13 1.68004e-11)
(-3.32427e-13 1.101e-14 1.00136e-12)
(-2.13902e-13 1.69069e-13 1.30782e-12)
(-1.40828e-12 1.74608e-12 1.96325e-12)
(-1.3207e-12 1.72287e-13 2.89595e-13)
(-1.50495e-12 1.6882e-14 -2.44411e-13)
(-1.46141e-12 1.25727e-13 -3.07176e-14)
(-1.95911e-06 -1.23488e-06 2.09543e-06)
(-7.41524e-07 -4.67844e-07 1.1725e-06)
(-3.67305e-07 -2.29871e-07 3.64363e-07)
(-1.60203e-08 -2.93876e-08 5.08003e-08)
(-5.79011e-07 -3.65716e-07 9.18916e-07)
(-1.92836e-06 -1.19571e-06 1.87451e-06)
(-6.13208e-07 -3.60123e-07 4.73635e-07)
(-7.06626e-07 -4.4241e-07 1.04391e-06)
(-2.13137e-08 -3.89539e-08 5.76302e-08)
(-6.13695e-07 -3.8904e-07 1.03359e-06)
(-2.2262e-06 -1.32542e-06 2.03091e-06)
(-4.09098e-06 -2.49945e-06 2.78621e-06)
(-4.43227e-06 -2.46954e-06 8.26076e-07)
(-6.78915e-06 -4.16667e-06 3.21129e-06)
(-4.36138e-06 -2.65265e-06 2.61471e-06)
(-2.1857e-06 -1.29965e-06 1.83865e-06)
(-3.80899e-06 -2.10395e-06 7.70752e-07)
(-4.05285e-06 -2.46044e-06 2.52326e-06)
(-6.82453e-06 -4.21904e-06 3.54631e-06)
(-4.39916e-06 -2.69344e-06 2.88721e-06)
(-2.17929e-06 -1.37422e-06 2.21985e-06)
(-4.02831e-06 -2.54321e-06 3.03807e-06)
(-4.32042e-06 -2.49053e-06 1.23382e-06)
(-6.72814e-06 -4.19276e-06 3.45889e-06)
(-4.31097e-06 -2.68224e-06 2.81905e-06)
(-2.14938e-06 -1.33325e-06 1.98635e-06)
(-3.70375e-06 -2.12567e-06 1.15e-06)
(-4.00409e-06 -2.49052e-06 2.72093e-06)
(-6.74648e-06 -4.25699e-06 3.86102e-06)
(-4.33443e-06 -2.73647e-06 3.14745e-06)
(-1.04677e-05 -6.59685e-06 4.64631e-06)
(-7.10974e-06 -4.43124e-06 3.54364e-06)
(-9.66204e-06 -5.70531e-06 1.73833e-06)
(-1.00103e-05 -6.24375e-06 4.09114e-06)
(-7.12737e-06 -4.49678e-06 3.95556e-06)
(-1.00233e-05 -6.31768e-06 4.56628e-06)
(-1.05549e-05 -6.24808e-06 1.79913e-06)
(-1.04554e-05 -6.52182e-06 4.16289e-06)
(-2.62278e-12 -1.15633e-13 1.12839e-11)
(1.57948e-13 -8.43136e-14 1.59575e-11)
(-2.68664e-12 -7.51092e-14 1.11513e-11)
(4.06373e-13 8.79002e-12 1.46338e-11)
(2.2359e-11 1.38084e-11 2.49835e-11)
(2.21026e-12 4.35086e-11 1.83051e-11)
(-1.89378e-12 -3.2762e-13 3.17423e-11)
(3.07665e-13 -2.31822e-13 1.63447e-11)
(-2.61147e-12 -1.12575e-13 1.13281e-11)
(-2.5818e-12 -1.50613e-13 1.15035e-11)
(-2.06153e-12 -1.62854e-13 3.12062e-11)
(5.3649e-12 -5.91303e-12 3.53644e-11)
(3.48466e-12 -1.47063e-12 1.80364e-11)
(-2.14794e-13 4.88648e-12 1.40248e-11)
(-1.6183e-12 9.70497e-13 1.27427e-11)
(9.11763e-14 1.55615e-14 1.58827e-11)
(-2.77422e-12 5.45951e-14 1.10762e-11)
(-2.78872e-12 8.91002e-15 1.1012e-11)
(-2.16197e-06 -1.32278e-06 2.6809e-06)
(-1.57038e-06 -9.24372e-07 2.19524e-06)
(-3.26436e-09 4.25156e-09 3.07863e-09)
(-6.2992e-08 -3.68758e-08 9.41163e-08)
(-1.19132e-08 -2.44011e-09 4.18815e-08)
(-1.1715e-07 -6.91386e-08 2.08718e-07)
(-3.73748e-09 4.01031e-09 1.47465e-09)
(-1.86713e-06 -1.0501e-06 1.01958e-06)
(-1.32923e-06 -6.89255e-07 4.60799e-07)
(-1.26232e-06 -7.00571e-07 8.28272e-07)
(-4.35039e-08 -3.04178e-09 4.04318e-08)
(-3.51913e-07 -1.13383e-07 6.0018e-07)
(-1.24929e-05 -8.01146e-06 6.32553e-06)
(-7.1071e-06 -4.1942e-06 1.93017e-06)
(-8.10779e-06 -4.6605e-06 1.07337e-06)
(-8.31121e-06 -4.92812e-06 2.06346e-06)
(-7.31807e-06 -4.69391e-06 5.05371e-06)
(-8.50833e-06 -5.46038e-06 5.40276e-06)
(-1.25883e-05 -7.3735e-06 1.27463e-06)
(-1.2336e-05 -7.39337e-06 2.4145e-06)
(-2.17505e-12 4.33403e-14 3.11196e-11)
(-1.89531e-12 -6.97513e-14 3.1712e-11)
(2.90505e-13 8.66947e-14 1.62531e-11)
(-2.77297e-12 5.51109e-14 1.11022e-11)
(-2.75134e-12 1.16305e-13 1.12698e-11)
(-2.1226e-06 -1.36695e-06 2.80861e-06)
(-1.53654e-06 -9.70251e-07 2.30385e-06)
(-5.24017e-08 -6.21644e-08 1.42098e-07)
(-2.14825e-09 -1.48899e-08 3.22867e-08)
(-1.11248e-07 -1.02359e-07 2.4935e-07)
(-1.82417e-06 -1.07572e-06 1.18357e-06)
(-1.26159e-06 -7.15096e-07 6.83101e-07)
(-1.2265e-06 -7.27547e-07 9.62843e-07)
(-5.741e-08 -5.67553e-08 8.79761e-08)
(-3.49185e-07 -1.73346e-07 6.63226e-07)
(-2.38184e-06 -1.46975e-06 2.83857e-06)
(-3.10817e-06 -1.95191e-06 3.29852e-06)
(-5.79483e-06 -3.27608e-06 9.30726e-07)
(-6.72244e-06 -3.9603e-06 1.88447e-06)
(-5.62136e-06 -3.29228e-06 1.74036e-06)
(-2.09206e-06 -1.18147e-06 1.08055e-06)
(-2.68545e-06 -1.45273e-06 6.53746e-07)
(-2.83354e-06 -1.61877e-06 1.25925e-06)
(-6.93814e-06 -4.44867e-06 4.9327e-06)
(-5.85126e-06 -3.74526e-06 4.55561e-06)
(-2.34079e-06 -1.51332e-06 2.97251e-06)
(-3.06247e-06 -1.99366e-06 3.45068e-06)
(-5.67056e-06 -3.29564e-06 1.39242e-06)
(-6.64657e-06 -3.97978e-06 2.18444e-06)
(-5.55071e-06 -3.31285e-06 2.01779e-06)
(-2.04647e-06 -1.20665e-06 1.25419e-06)
(-2.59429e-06 -1.47595e-06 9.73014e-07)
(-2.78136e-06 -1.64277e-06 1.46077e-06)
(-6.87766e-06 -4.48264e-06 5.14918e-06)
(-5.79403e-06 -3.7812e-06 4.75735e-06)
(-1.24209e-05 -8.03703e-06 6.59582e-06)
(-7.02933e-06 -4.21328e-06 2.23742e-06)
(-7.96679e-06 -4.67793e-06 1.60845e-06)
(-8.22866e-06 -4.94612e-06 2.39146e-06)
(-7.25656e-06 -4.72722e-06 5.27491e-06)
(-8.44388e-06 -5.49173e-06 5.63751e-06)
(-1.24241e-05 -7.38748e-06 1.91256e-06)
(-1.22403e-05 -7.4081e-06 2.7972e-06)
(-5.43139e-12 -1.09889e-13 8.88378e-12)
(-1.95421e-13 -5.13881e-14 1.23294e-12)
(-5.49862e-12 -6.27801e-14 8.74187e-12)
(1.52541e-13 -1.0862e-13 1.59291e-11)
(-2.71629e-12 -3.41401e-14 1.10472e-11)
(-2.69793e-12 -7.57556e-14 1.11179e-11)
(-2.0861e-13 -4.85396e-14 1.21036e-12)
(-5.52168e-12 -2.82319e-14 8.64459e-12)
(-5.50732e-12 -7.38177e-14 8.70845e-12)
(-4.31089e-12 8.61639e-12 1.19898e-11)
(-8.87443e-12 2.54786e-11 5.82583e-12)
(-6.68894e-12 4.11126e-11 1.52025e-11)
(2.0028e-11 1.91292e-11 2.25751e-11)
(-1.99268e-11 3.45556e-10 3.66239e-11)
(6.61912e-13 7.97509e-11 2.07447e-11)
(-1.48128e-11 5.02375e-11 7.32769e-12)
(-4.69692e-11 3.22507e-10 3.06896e-11)
(-1.00796e-11 7.8841e-11 1.76771e-11)
(-2.56849e-12 -1.49835e-13 1.1564e-11)
(-5.42291e-12 -8.95452e-14 8.92593e-12)
(-4.53105e-14 -7.7133e-14 1.6256e-12)
(-5.40437e-12 -1.34172e-13 9.08542e-12)
(-8.66194e-15 -8.08786e-14 1.70424e-12)
(-5.39577e-12 -1.23861e-13 9.13904e-12)
(-2.10144e-12 -1.27058e-13 3.11071e-11)
(2.02489e-12 -3.27311e-12 3.42252e-11)
(2.64878e-12 -8.70667e-13 1.78819e-11)
(-2.41922e-12 2.20868e-13 1.18419e-11)
(-1.89032e-12 5.92172e-13 1.24951e-11)
(-4.37543e-12 4.85401e-12 1.13956e-11)
(2.5363e-13 7.43806e-13 2.53944e-12)
(-4.94909e-12 1.05223e-12 1.01531e-11)
(-5.40536e-12 2.41247e-13 9.31894e-12)
(9.20409e-14 4.88379e-13 2.08185e-12)
(-5.08573e-12 6.67865e-13 9.92614e-12)
(-1.07808e-12 2.22263e-16 -2.1702e-12)
(-1.37387e-12 -5.22089e-14 -9.90706e-16)
(-1.08844e-12 -8.65773e-15 -2.20585e-12)
(-1.38839e-12 -2.93595e-14 -2.85493e-14)
(-1.13646e-12 -9.24512e-15 -2.25449e-12)
(-1.10846e-12 5.91449e-16 -2.22883e-12)
(9.93977e-14 4.6633e-14 1.58665e-11)
(-2.72858e-12 -3.62356e-14 1.10327e-11)
(-2.77828e-12 8.46594e-15 1.10175e-11)
(-5.60241e-12 4.91661e-14 8.64171e-12)
(-3.10779e-13 -1.65656e-14 1.00037e-12)
(-5.60532e-12 -4.49222e-15 8.58132e-12)
(-5.53427e-12 -4.78516e-14 8.62719e-12)
(-3.273e-13 -1.99044e-14 9.54928e-13)
(-5.5944e-12 4.92253e-15 8.59182e-12)
(-1.20308e-12 -6.3251e-15 -2.34028e-12)
(-1.48584e-12 -6.31717e-15 -2.29324e-13)
(-1.18328e-12 1.58981e-15 -2.33161e-12)
(-1.16327e-12 1.39766e-15 -2.28653e-12)
(-1.4997e-12 -3.04535e-14 -2.66067e-13)
(-1.16346e-12 -8.02507e-15 -2.30607e-12)
(-2.11612e-06 -1.27897e-06 2.4672e-06)
(-1.40417e-06 -8.08939e-07 1.56088e-06)
(-1.52204e-06 -8.8649e-07 2.01707e-06)
(-9.39156e-07 -4.94481e-07 1.51869e-06)
(-1.39595e-06 -8.05963e-07 2.02923e-06)
(-1.22747e-06 -6.98383e-07 1.43897e-06)
(-8.88222e-07 -4.6592e-07 1.38832e-06)
(-1.34684e-06 -7.70239e-07 1.86298e-06)
(-9.1462e-13 8.60279e-14 -1.77636e-12)
(-7.77797e-12 1.40036e-11 4.02924e-12)
(-9.5153e-13 2.65345e-13 -1.46954e-12)
(-1.27225e-11 2.78697e-11 5.00577e-12)
(-4.72275e-12 5.07921e-12 -1.83323e-12)
(-1.36195e-12 5.34871e-13 -1.66468e-12)
(-1.87565e-09 2.39091e-09 7.15925e-10)
(-1.17984e-10 6.94596e-10 5.27786e-11)
(-8.10001e-10 3.06875e-09 6.69417e-10)
(-1.98359e-07 -9.82107e-08 1.65328e-07)
(-4.96356e-07 -2.71704e-07 4.89967e-07)
(-1.89326e-07 -1.08314e-07 2.7553e-07)
(-1.6188e-08 7.56433e-10 5.78312e-08)
(-1.87688e-07 -9.20041e-08 3.62744e-07)
(-2.60916e-09 1.40512e-08 2.85813e-09)
(-1.3026e-07 -7.54648e-08 2.42142e-07)
(-4.70853e-09 2.11189e-09 7.50865e-10)
(-5.16604e-07 -2.85922e-07 5.73881e-07)
(-2.73788e-07 -1.38732e-07 4.82906e-07)
(-2.06514e-07 -1.16636e-07 3.24076e-07)
(-1.23756e-10 7.53147e-10 5.74861e-11)
(-1.36521e-09 3.20544e-09 -7.10955e-11)
(-9.4053e-10 2.38066e-09 6.10693e-10)
(-1.88652e-06 -1.07815e-06 1.19362e-06)
(-1.3627e-06 -7.91447e-07 1.41185e-06)
(-1.28267e-06 -7.23598e-07 9.70009e-07)
(-9.7104e-07 -4.94969e-07 3.91401e-07)
(-6.24589e-07 -3.41927e-07 5.59307e-07)
(-1.08438e-06 -5.99273e-07 7.63102e-07)
(-1.18595e-06 -6.83059e-07 1.30107e-06)
(-6.45224e-07 -3.57946e-07 6.55423e-07)
(-1.10503e-06 -6.2057e-07 8.93193e-07)
(-8.07736e-07 -4.0515e-07 1.34397e-06)
(-4.59499e-07 -1.77827e-07 7.95526e-07)
(-3.09684e-08 -7.65678e-09 5.51688e-08)
(-2.15929e-07 -8.66123e-08 4.05035e-07)
(-2.18979e-09 1.25844e-08 1.80417e-09)
(-3.07007e-07 -1.00367e-07 5.38989e-07)
(-3.60955e-10 3.9749e-10 -3.62425e-11)
(-7.56522e-07 -3.79216e-07 1.22572e-06)
(-3.0573e-07 -1.37516e-07 5.36911e-07)
(-4.10791e-07 -1.61079e-07 7.1638e-07)
(-9.29308e-12 1.15795e-11 -2.65793e-12)
(-1.28791e-09 2.69425e-09 -6.9358e-11)
(-1.09614e-10 2.55537e-10 -9.49444e-13)
(-1.06499e-05 -6.83386e-06 5.93821e-06)
(-1.2022e-05 -7.71091e-06 6.23208e-06)
(-1.24134e-05 -7.72812e-06 4.55204e-06)
(-1.24719e-05 -7.93138e-06 5.83551e-06)
(-1.06256e-05 -6.75732e-06 5.47761e-06)
(-1.194e-05 -7.43115e-06 4.48453e-06)
(-1.20002e-05 -7.63168e-06 5.74915e-06)
(-7.12005e-06 -4.24677e-06 2.26379e-06)
(-8.3715e-06 -5.15414e-06 3.51834e-06)
(-8.32322e-06 -4.98425e-06 2.4202e-06)
(-8.94498e-06 -5.1649e-06 1.11722e-06)
(-1.00276e-05 -5.97753e-06 2.22828e-06)
(-8.7288e-06 -5.18308e-06 2.10562e-06)
(-8.78749e-06 -5.41378e-06 3.5913e-06)
(-1.00384e-05 -6.03809e-06 2.61411e-06)
(-8.74047e-06 -5.24038e-06 2.47016e-06)
(-1.02066e-05 -6.55006e-06 5.83572e-06)
(-8.92133e-06 -5.72577e-06 5.51446e-06)
(-7.28712e-06 -4.62562e-06 4.66044e-06)
(-8.40549e-06 -5.21249e-06 3.88566e-06)
(-8.47993e-06 -5.38881e-06 4.9829e-06)
(-1.01815e-05 -6.47446e-06 5.38291e-06)
(-8.82114e-06 -5.47355e-06 3.9663e-06)
(-8.89376e-06 -5.65314e-06 5.08609e-06)
(-1.23826e-05 -7.65794e-06 4.12126e-06)
(-1.23452e-05 -7.45896e-06 2.83349e-06)
(-1.1636e-05 -6.79443e-06 1.23794e-06)
(-1.04754e-05 -6.25179e-06 2.26698e-06)
(-1.18607e-05 -7.10154e-06 2.3792e-06)
(-1.19088e-05 -7.36217e-06 4.06018e-06)
(-1.04858e-05 -6.31341e-06 2.65996e-06)
(-1.18703e-05 -7.16615e-06 2.79167e-06)
(-1.05778e-12 -9.76397e-15 -2.14761e-12)
(-1.24933e-12 -4.87352e-14 3.29853e-13)
(-1.01726e-12 -3.54544e-16 -2.10429e-12)
(-1.21096e-12 -7.31353e-14 4.11598e-13)
(-9.99347e-13 -9.60393e-15 -2.084e-12)
(-2.17917e-12 3.25829e-14 3.10435e-11)
(-1.56066e-12 -3.37395e-13 3.2106e-11)
(3.59726e-13 -3.78432e-15 1.63525e-11)
(-2.51527e-12 1.91897e-13 1.17069e-11)
(-2.72855e-12 1.24298e-13 1.13368e-11)
(-5.60737e-12 3.39192e-14 8.65859e-12)
(-3.39246e-13 4.81015e-14 9.90118e-13)
(-5.62388e-12 1.05299e-13 8.79122e-12)
(-5.4661e-12 2.1398e-13 9.19704e-12)
(-2.63163e-13 6.60007e-14 1.15571e-12)
(-5.61663e-12 1.09992e-13 8.84447e-12)
(-9.9438e-13 5.9868e-14 -1.92276e-12)
(-1.144e-12 4.93853e-13 1.03121e-12)
(-1.13172e-12 1.78236e-14 -2.21857e-12)
(-1.26482e-12 3.21736e-13 6.26694e-13)
(-1.18209e-12 1.66306e-14 -2.30873e-12)
(-1.08406e-12 5.35169e-15 -2.17121e-12)
(-1.22109e-12 4.60756e-15 -2.3656e-12)
(-1.54178e-12 2.40569e-14 -2.78501e-13)
(-1.2011e-12 -6.4989e-15 -2.35332e-12)
(-1.48138e-12 5.91776e-14 -1.33712e-13)
(-1.20302e-12 5.61588e-15 -2.32318e-12)
(-1.2375e-12 3.3996e-15 -2.39587e-12)
(-2.07252e-06 -1.32872e-06 2.62174e-06)
(-1.36751e-06 -8.60743e-07 1.7109e-06)
(-1.48514e-06 -9.38285e-07 2.14785e-06)
(-9.14324e-07 -5.42825e-07 1.60136e-06)
(-1.36415e-06 -8.52412e-07 2.13136e-06)
(-1.19357e-06 -7.51003e-07 1.57899e-06)
(-8.61883e-07 -5.20881e-07 1.48667e-06)
(-1.31237e-06 -8.22746e-07 1.98569e-06)
(-1.78838e-07 -1.31851e-07 2.54398e-07)
(-4.75119e-07 -3.01935e-07 5.74165e-07)
(-1.80325e-07 -1.41338e-07 3.30559e-07)
(-4.94046e-09 -1.80462e-08 3.67467e-08)
(-1.8378e-07 -1.38356e-07 4.08367e-07)
(-1.25597e-07 -1.12866e-07 2.87015e-07)
(-4.96411e-07 -3.19717e-07 6.57613e-07)
(-2.65426e-07 -1.82836e-07 5.37732e-07)
(-1.97604e-07 -1.53965e-07 3.80033e-07)
(-1.84587e-06 -1.10693e-06 1.35358e-06)
(-1.33438e-06 -8.27215e-07 1.5286e-06)
(-1.24904e-06 -7.53877e-07 1.1018e-06)
(-9.12118e-07 -5.21906e-07 5.79872e-07)
(-5.99773e-07 -3.71333e-07 6.53478e-07)
(-1.05143e-06 -6.26773e-07 8.87576e-07)
(-1.15976e-06 -7.19432e-07 1.40987e-06)
(-6.2196e-07 -3.90862e-07 7.48577e-07)
(-1.07392e-06 -6.5141e-07 1.01539e-06)
(-7.85622e-07 -4.54356e-07 1.42027e-06)
(-4.50073e-07 -2.32813e-07 8.59523e-07)
(-4.41823e-08 -5.33353e-08 7.88663e-08)
(-2.09799e-07 -1.53112e-07 4.64293e-07)
(-3.04285e-07 -1.68265e-07 6.05899e-07)
(-7.33277e-07 -4.35326e-07 1.316e-06)
(-2.95201e-07 -1.99482e-07 6.09135e-07)
(-4.01367e-07 -2.23555e-07 7.88704e-07)
(-2.33686e-06 -1.42412e-06 2.61317e-06)
(-2.96101e-06 -1.78801e-06 2.36501e-06)
(-3.06583e-06 -1.90119e-06 3.03865e-06)
(-4.22678e-06 -2.68727e-06 3.88035e-06)
(-3.37205e-06 -2.12605e-06 3.44739e-06)
(-3.22774e-06 -1.95596e-06 2.4729e-06)
(-4.18799e-06 -2.63048e-06 3.57642e-06)
(-3.3306e-06 -2.07375e-06 3.17628e-06)
(-5.09468e-06 -2.86056e-06 8.79382e-07)
(-4.28278e-06 -2.48459e-06 1.53583e-06)
(-5.27242e-06 -3.08125e-06 1.69104e-06)
(-6.73576e-06 -4.01162e-06 2.20965e-06)
(-5.69302e-06 -3.48286e-06 2.9649e-06)
(-5.63566e-06 -3.33973e-06 2.04057e-06)
(-4.29851e-06 -2.52652e-06 1.80014e-06)
(-5.34583e-06 -3.26634e-06 2.87969e-06)
(-5.28712e-06 -3.12735e-06 1.98217e-06)
(-2.11096e-06 -1.21117e-06 1.2656e-06)
(-2.9215e-06 -1.75638e-06 2.14165e-06)
(-2.85129e-06 -1.65322e-06 1.47478e-06)
(-3.22625e-06 -1.76471e-06 7.13338e-07)
(-3.97237e-06 -2.29828e-06 1.48281e-06)
(-3.1026e-06 -1.77853e-06 1.31614e-06)
(-3.18857e-06 -1.92244e-06 2.23943e-06)
(-3.98854e-06 -2.33875e-06 1.73739e-06)
(-3.11987e-06 -1.81453e-06 1.54205e-06)
(-4.53215e-06 -2.88691e-06 4.02006e-06)
(-5.50719e-06 -3.52192e-06 4.42523e-06)
(-6.90634e-06 -4.38154e-06 4.54864e-06)
(-5.72943e-06 -3.53044e-06 3.27406e-06)
(-5.81686e-06 -3.68176e-06 4.20028e-06)
(-4.49424e-06 -2.8287e-06 3.70551e-06)
(-5.38259e-06 -3.31227e-06 3.17991e-06)
(-5.47192e-06 -3.4597e-06 4.07983e-06)
(-2.2912e-06 -1.47318e-06 2.77545e-06)
(-2.90705e-06 -1.83465e-06 2.58179e-06)
(-3.01439e-06 -1.94817e-06 3.22352e-06)
(-4.17559e-06 -2.72648e-06 4.05552e-06)
(-3.32491e-06 -2.16718e-06 3.60545e-06)
(-3.17153e-06 -2.00188e-06 2.69868e-06)
(-4.12962e-06 -2.67461e-06 3.78979e-06)
(-3.27735e-06 -2.12003e-06 3.36846e-06)
(-4.97649e-06 -2.88083e-06 1.31461e-06)
(-4.21984e-06 -2.50666e-06 1.78106e-06)
(-5.20383e-06 -3.10221e-06 1.9606e-06)
(-6.66347e-06 -4.03352e-06 2.49949e-06)
(-5.63636e-06 -3.51044e-06 3.19469e-06)
(-5.56854e-06 -3.36288e-06 2.30886e-06)
(-4.23884e-06 -2.55136e-06 2.03768e-06)
(-5.2907e-06 -3.29442e-06 3.1033e-06)
(-5.22185e-06 -3.15092e-06 2.24298e-06)
(-2.06799e-06 -1.23947e-06 1.43474e-06)
(-2.87964e-06 -1.78847e-06 2.31147e-06)
(-2.80181e-06 -1.6802e-06 1.67061e-06)
(-3.1279e-06 -1.78716e-06 1.06309e-06)
(-3.91167e-06 -2.32074e-06 1.71955e-06)
(-3.048e-06 -1.80212e-06 1.52675e-06)
(-3.14493e-06 -1.95402e-06 2.41639e-06)
(-3.93087e-06 -2.36401e-06 1.96686e-06)
(-3.06825e-06 -1.84107e-06 1.74651e-06)
(-4.47968e-06 -2.92547e-06 4.20074e-06)
(-5.45111e-06 -3.55852e-06 4.62185e-06)
(-6.83606e-06 -4.4198e-06 4.81311e-06)
(-5.65684e-06 -3.57057e-06 3.56634e-06)
(-5.75078e-06 -3.72223e-06 4.44652e-06)
(-4.43425e-06 -2.8721e-06 3.9257e-06)
(-5.31191e-06 -3.35312e-06 3.46441e-06)
(-5.40731e-06 -3.5009e-06 4.31975e-06)
(-1.0581e-05 -6.86197e-06 6.19364e-06)
(-1.19508e-05 -7.7371e-06 6.49879e-06)
(-1.23154e-05 -7.75681e-06 4.94873e-06)
(-1.23865e-05 -7.96027e-06 6.16655e-06)
(-1.05444e-05 -6.78905e-06 5.79027e-06)
(-1.18433e-05 -7.46053e-06 4.87576e-06)
(-1.19158e-05 -7.66127e-06 6.07577e-06)
(-7.04606e-06 -4.26825e-06 2.56054e-06)
(-8.30508e-06 -5.17824e-06 3.78805e-06)
(-8.24447e-06 -5.00449e-06 2.7368e-06)
(-8.7989e-06 -5.18164e-06 1.67479e-06)
(-9.93894e-06 -5.99407e-06 2.58199e-06)
(-8.64452e-06 -5.20069e-06 2.44032e-06)
(-8.7198e-06 -5.43739e-06 3.86625e-06)
(-9.9537e-06 -6.05668e-06 2.95523e-06)
(-8.66017e-06 -5.26019e-06 2.7931e-06)
(-1.01386e-05 -6.57881e-06 6.0872e-06)
(-8.85594e-06 -5.75646e-06 5.75354e-06)
(-7.21551e-06 -4.66315e-06 4.93074e-06)
(-8.32066e-06 -5.24754e-06 4.22819e-06)
(-8.40449e-06 -5.42414e-06 5.26997e-06)
(-1.01014e-05 -6.50691e-06 5.69068e-06)
(-8.73471e-06 -5.50789e-06 4.31542e-06)
(-8.81711e-06 -5.68776e-06 5.37852e-06)
(-1.23056e-05 -7.67767e-06 4.43401e-06)
(-1.22538e-05 -7.47553e-06 3.20224e-06)
(-1.1476e-05 -6.8091e-06 1.85719e-06)
(-1.03851e-05 -6.26795e-06 2.6268e-06)
(-1.17665e-05 -7.11664e-06 2.75635e-06)
(-1.18329e-05 -7.38238e-06 4.36859e-06)
(-1.03997e-05 -6.33159e-06 3.00688e-06)
(-1.17802e-05 -7.18312e-06 3.15516e-06)
(-2.29521e-06 -1.50014e-06 3.23725e-06)
(-2.08887e-06 -1.35554e-06 3.04747e-06)
(-1.16435e-07 6.16985e-09 1.29946e-07)
(-2.59186e-07 -4.68304e-08 3.51075e-07)
(-7.41019e-06 -4.91925e-06 6.06756e-06)
(-7.79625e-06 -5.17152e-06 6.20921e-06)
(-2.26464e-06 -1.52243e-06 3.29446e-06)
(-2.05903e-06 -1.37811e-06 3.10208e-06)
(-1.17948e-07 -3.83298e-08 1.47814e-07)
(-2.6352e-07 -8.27508e-08 3.96214e-07)
(-2.5128e-06 -1.65142e-06 3.42475e-06)
(-2.74154e-06 -1.80934e-06 3.60987e-06)
(-7.03268e-06 -4.67212e-06 5.92311e-06)
(-6.66387e-06 -4.43022e-06 5.77586e-06)
(-2.48156e-06 -1.67342e-06 3.48453e-06)
(-2.7097e-06 -1.83104e-06 3.67221e-06)
(-6.99553e-06 -4.68912e-06 6.01762e-06)
(-6.62699e-06 -4.44756e-06 5.86833e-06)
(-7.3728e-06 -4.93591e-06 6.16407e-06)
(-7.75862e-06 -5.18783e-06 6.30768e-06)
(-3.72655e-12 -9.78365e-14 -5.59524e-12)
(-1.30111e-13 -7.01153e-14 1.32738e-12)
(-3.77216e-12 -1.10583e-13 -5.82735e-12)
(-2.19955e-13 -3.46911e-14 1.10971e-12)
(-3.85582e-12 -2.39234e-14 -5.91857e-12)
(-3.86411e-12 -1.88829e-14 -6.05483e-12)
(-4.30347e-12 7.74188e-12 -3.32785e-12)
(-1.87918e-12 8.39925e-12 4.74808e-12)
(-5.86212e-12 1.2699e-11 -3.13526e-12)
(-4.52702e-11 1.76084e-10 1.24057e-11)
(-1.04835e-10 3.47405e-10 -1.12813e-11)
(-5.25009e-11 2.51659e-10 4.78316e-12)
(-3.71103e-12 -6.12804e-14 -5.57101e-12)
(-6.50764e-14 -6.80408e-14 1.48404e-12)
(-3.71484e-12 -6.09537e-14 -5.68984e-12)
(-3.75114e-12 4.44357e-12 -3.80091e-12)
(2.90687e-13 1.90819e-12 3.37503e-12)
(-3.46127e-12 2.76938e-12 -4.33755e-12)
(-3.71125e-12 2.20864e-13 -5.60826e-12)
(-4.43343e-14 2.64822e-13 1.59239e-12)
(-3.70068e-12 3.01536e-13 -5.67279e-12)
(-2.48044e-12 -1.83517e-14 -2.70881e-12)
(-1.28467e-12 -4.17425e-14 1.37999e-13)
(-2.41753e-12 -2.192e-14 -2.62579e-12)
(-1.36623e-12 -3.87701e-14 -5.81991e-14)
(-2.56686e-12 -3.68399e-14 -2.91578e-12)
(-2.48824e-12 -3.08357e-14 -2.79031e-12)
(-3.95392e-12 3.28022e-14 -6.0724e-12)
(-3.02215e-13 8.09029e-15 9.62599e-13)
(-3.9654e-12 3.46746e-14 -6.23175e-12)
(-3.86467e-12 -6.15089e-14 -5.9332e-12)
(-2.76781e-13 -3.97486e-14 9.86132e-13)
(-3.91684e-12 -6.76625e-14 -6.16259e-12)
(-2.65561e-12 -1.57466e-14 -3.08103e-12)
(-1.45069e-12 -7.42864e-15 -2.10919e-13)
(-2.57284e-12 -1.27102e-14 -2.94856e-12)
(-2.58028e-12 -7.42324e-15 -2.93644e-12)
(-1.41915e-12 -2.16471e-14 -1.71182e-13)
(-2.52869e-12 -1.13054e-14 -2.87905e-12)
(-2.04136e-06 -1.21308e-06 2.09186e-06)
(-1.79226e-06 -1.0525e-06 1.79942e-06)
(-2.01466e-06 -1.15695e-06 1.77169e-06)
(-1.80178e-06 -1.02417e-06 1.66317e-06)
(-1.83054e-06 -1.07846e-06 1.96504e-06)
(-1.08625e-06 -6.28958e-07 1.86709e-06)
(-1.22608e-06 -7.33412e-07 2.0682e-06)
(-7.66922e-07 -3.83999e-07 9.77157e-07)
(-9.08794e-07 -5.00072e-07 1.18992e-06)
(-8.06094e-07 -4.26532e-07 1.16487e-06)
(-9.10477e-07 -4.71766e-07 1.09562e-06)
(-9.4846e-07 -5.16325e-07 1.30295e-06)
(-2.58009e-12 1.23226e-12 -8.99899e-13)
(-2.60962e-12 4.59701e-12 3.11663e-12)
(-3.01134e-12 1.90939e-12 -5.71604e-13)
(-3.86324e-11 1.03927e-10 8.33735e-12)
(-5.26671e-11 8.21864e-11 6.15547e-13)
(-2.60979e-11 4.57377e-11 1.40013e-12)
(-5.18676e-08 -6.27453e-09 1.21196e-07)
(-7.94285e-09 -6.20361e-09 3.8742e-08)
(-5.5637e-08 -3.64141e-08 1.30701e-07)
(-1.28051e-08 3.77445e-09 4.28608e-08)
(-6.23076e-08 -1.11402e-09 1.30143e-07)
(-4.50556e-08 -3.52538e-08 1.17375e-07)
(-1.15041e-08 8.49577e-09 4.24856e-08)
(-4.55889e-07 -2.15611e-07 5.84712e-07)
(-6.03128e-07 -2.95932e-07 7.73674e-07)
(-5.65068e-07 -3.13443e-07 7.50901e-07)
(-4.77386e-07 -2.56117e-07 7.23739e-07)
(-5.75321e-07 -2.84682e-07 6.83412e-07)
(-4.8294e-07 -2.25171e-07 6.62831e-07)
(-4.47532e-07 -2.45392e-07 6.44494e-07)
(-1.35846e-10 8.85352e-10 3.58501e-11)
(-3.54511e-10 9.07288e-10 -1.54003e-11)
(-3.26855e-10 1.01492e-09 -5.57907e-11)
(-1.7443e-06 -9.79874e-07 1.33756e-06)
(-1.93282e-06 -1.13393e-06 1.55269e-06)
(-1.75119e-06 -1.0308e-06 1.62853e-06)
(-1.98389e-06 -1.13471e-06 1.60602e-06)
(-1.77059e-06 -1.00362e-06 1.50735e-06)
(-1.72079e-06 -1.00489e-06 1.45763e-06)
(-1.95819e-06 -1.1093e-06 1.42539e-06)
(-8.5001e-07 -4.45148e-07 8.77227e-07)
(-7.34928e-07 -3.74249e-07 8.82937e-07)
(-8.67632e-07 -4.89222e-07 1.07471e-06)
(-6.94659e-07 -3.89147e-07 8.56166e-07)
(-8.78215e-07 -4.60142e-07 9.90788e-07)
(-7.06818e-07 -3.61059e-07 7.81099e-07)
(-8.35974e-07 -4.72568e-07 9.59968e-07)
(-9.5628e-07 -5.3093e-07 1.66425e-06)
(-8.35164e-07 -4.39082e-07 1.45955e-06)
(-2.21125e-08 -9.63488e-09 4.9679e-08)
(-6.65405e-08 -3.19376e-08 1.41927e-07)
(-1.56593e-08 4.59196e-09 4.03873e-08)
(-8.37064e-08 3.66981e-08 1.54417e-07)
(-8.01352e-08 -1.47282e-08 1.58273e-07)
(-1.1199e-08 5.38579e-09 2.03915e-08)
(-6.34624e-07 -3.03708e-07 8.57274e-07)
(-6.74562e-07 -3.44224e-07 1.02506e-06)
(-5.15452e-07 -2.59934e-07 8.03371e-07)
(-5.13406e-07 -2.31061e-07 7.35429e-07)
(-5.53276e-07 -2.69491e-07 8.82893e-07)
(-8.76694e-11 2.07602e-10 6.33937e-12)
(-2.98847e-10 6.60751e-10 -9.54867e-13)
(-2.05234e-10 3.7122e-10 -8.23447e-13)
(-1.07232e-05 -7.07201e-06 7.123e-06)
(-1.11713e-05 -7.36148e-06 7.24254e-06)
(-1.06043e-05 -6.53659e-06 3.9637e-06)
(-1.05855e-05 -6.62783e-06 4.66016e-06)
(-1.10132e-05 -6.84966e-06 4.34466e-06)
(-1.10584e-05 -6.82095e-06 4.03108e-06)
(-1.1038e-05 -6.91318e-06 4.7391e-06)
(-7.5967e-06 -4.57686e-06 2.77703e-06)
(-7.15063e-06 -4.35224e-06 2.94673e-06)
(-7.21907e-06 -4.38343e-06 3.05568e-06)
(-7.56364e-06 -4.64996e-06 3.36786e-06)
(-7.61186e-06 -4.62803e-06 3.12795e-06)
(-7.20337e-06 -4.33349e-06 2.71291e-06)
(-7.54259e-06 -4.59527e-06 3.01613e-06)
(-9.68445e-06 -5.87021e-06 3.07889e-06)
(-1.01371e-05 -6.20139e-06 3.53197e-06)
(-9.64277e-06 -5.94763e-06 3.73272e-06)
(-1.00633e-05 -6.15979e-06 3.40395e-06)
(-9.69701e-06 -5.92712e-06 3.46813e-06)
(-1.0125e-05 -6.1434e-06 3.13554e-06)
(-9.62396e-06 -5.88693e-06 3.34268e-06)
(-1.02822e-05 -6.78682e-06 7.00073e-06)
(-9.84853e-06 -6.50602e-06 6.87572e-06)
(-7.23639e-06 -4.51274e-06 3.96363e-06)
(-7.24227e-06 -4.43053e-06 3.3694e-06)
(-7.59833e-06 -4.70538e-06 3.71935e-06)
(-7.63464e-06 -4.67637e-06 3.44912e-06)
(-7.62705e-06 -4.75981e-06 4.05707e-06)
(-1.01574e-05 -6.25667e-06 3.8948e-06)
(-1.01401e-05 -6.34688e-06 4.57942e-06)
(-9.67571e-06 -6.01016e-06 4.1226e-06)
(-9.7177e-06 -5.9813e-06 3.82438e-06)
(-9.70198e-06 -6.07046e-06 4.4969e-06)
(-1.10278e-05 -6.70346e-06 3.24517e-06)
(-1.05844e-05 -6.48023e-06 3.59443e-06)
(-1.09813e-05 -6.78318e-06 3.93363e-06)
(-1.051e-05 -6.43724e-06 3.46389e-06)
(-1.10389e-05 -6.76353e-06 3.65551e-06)
(-1.05729e-05 -6.42119e-06 3.19096e-06)
(-1.09638e-05 -6.71918e-06 3.5225e-06)
(-2.4522e-12 -4.96901e-14 -2.64783e-12)
(-1.23204e-12 -6.26695e-14 2.72076e-13)
(-2.37772e-12 -4.39853e-14 -2.52561e-12)
(-3.9391e-12 2.43428e-16 -6.04302e-12)
(-3.43389e-13 1.48929e-14 8.9841e-13)
(-3.98748e-12 -3.19631e-16 -6.24018e-12)
(-3.80342e-12 2.03027e-13 -5.73227e-12)
(-1.65221e-13 1.44782e-13 1.32914e-12)
(-3.85973e-12 1.85012e-13 -5.96034e-12)
(-2.48734e-12 7.87139e-13 -1.45504e-12)
(-1.09253e-12 1.13834e-12 1.80095e-12)
(-2.35797e-12 5.37621e-13 -1.62439e-12)
(-1.31353e-12 2.05719e-13 2.86182e-13)
(-2.55165e-12 1.08402e-13 -2.71289e-12)
(-2.50078e-12 1.21709e-13 -2.62762e-12)
(-2.64294e-12 1.35792e-14 -3.03898e-12)
(-1.49984e-12 1.98182e-14 -2.86127e-13)
(-2.60643e-12 1.20493e-14 -3.00639e-12)
(-1.38175e-12 1.04224e-13 5.94261e-14)
(-2.62449e-12 6.77194e-14 -2.90225e-12)
(-2.56314e-12 5.78532e-14 -2.81945e-12)
(-1.99318e-06 -1.2679e-06 2.28265e-06)
(-1.75035e-06 -1.10278e-06 1.96913e-06)
(-1.9274e-06 -1.25913e-06 2.15727e-06)
(-1.78503e-06 -1.13407e-06 2.14575e-06)
(-1.71994e-06 -1.12789e-06 2.0278e-06)
(-1.06279e-06 -6.52974e-07 1.9062e-06)
(-1.20124e-06 -7.57194e-07 2.10983e-06)
(-7.20457e-07 -4.98603e-07 1.21163e-06)
(-8.80647e-07 -5.54495e-07 1.30973e-06)
(-7.78596e-07 -4.87783e-07 1.28319e-06)
(-9.17663e-07 -5.76453e-07 1.43175e-06)
(-8.57714e-07 -5.84203e-07 1.35209e-06)
(-4.61879e-08 -9.8249e-08 1.73486e-07)
(-1.13662e-08 -2.5029e-08 4.6148e-08)
(-5.71254e-08 -6.45837e-08 1.58582e-07)
(-2.07463e-08 -5.89072e-08 6.65298e-08)
(-4.56939e-08 -6.02903e-08 1.41615e-07)
(-5.84658e-08 -1.04593e-07 1.90188e-07)
(-1.49301e-08 -5.28678e-08 5.99668e-08)
(-4.19113e-07 -3.21957e-07 7.75034e-07)
(-5.62589e-07 -4.01936e-07 9.79126e-07)
(-5.48471e-07 -3.50519e-07 8.27294e-07)
(-4.6305e-07 -2.96857e-07 7.92743e-07)
(-4.33557e-07 -2.83707e-07 7.12879e-07)
(-5.31466e-07 -3.8785e-07 8.96522e-07)
(-4.49118e-07 -3.34133e-07 8.47087e-07)
(-1.65727e-06 -1.07025e-06 1.71193e-06)
(-1.89855e-06 -1.16578e-06 1.69433e-06)
(-1.71878e-06 -1.06545e-06 1.76094e-06)
(-1.897e-06 -1.22644e-06 1.98354e-06)
(-1.68852e-06 -1.03726e-06 1.59134e-06)
(-1.68903e-06 -1.09678e-06 1.86405e-06)
(-1.86553e-06 -1.19826e-06 1.82199e-06)
(-7.9286e-07 -5.43752e-07 1.13678e-06)
(-6.87906e-07 -4.7778e-07 1.11025e-06)
(-8.45878e-07 -5.26965e-07 1.16744e-06)
(-6.75482e-07 -4.25294e-07 9.40704e-07)
(-8.1447e-07 -5.07906e-07 1.0528e-06)
(-8.25077e-07 -5.61547e-07 1.23996e-06)
(-6.56071e-07 -4.61837e-07 1.01727e-06)
(-9.34437e-07 -5.55219e-07 1.70097e-06)
(-8.15268e-07 -4.63806e-07 1.49417e-06)
(-2.91953e-08 -4.50443e-08 6.54193e-08)
(-7.06066e-08 -7.54521e-08 1.78883e-07)
(-2.51845e-08 -6.79844e-08 7.97616e-08)
(-8.63604e-08 -8.50116e-08 1.98536e-07)
(-7.28183e-08 -1.13166e-07 2.13554e-07)
(-5.94752e-07 -4.20892e-07 1.06962e-06)
(-6.50544e-07 -4.06892e-07 1.13275e-06)
(-4.96954e-07 -3.17978e-07 8.93273e-07)
(-5.3307e-07 -3.33699e-07 9.80596e-07)
(-4.80498e-07 -3.51155e-07 9.26436e-07)
(-2.26352e-06 -1.3549e-06 2.21682e-06)
(-2.2389e-06 -1.29696e-06 1.87857e-06)
(-2.46009e-06 -1.47262e-06 2.14402e-06)