/*--------------------------------*- C++ -*----------------------------------*\
| =========                 |                                                 |
| \\      /  F ield         | OpenFOAM: The Open Source CFD Toolbox           |
|  \\    /   O peration     | Version:  2012                                  |
|   \\  /    A nd           | Website:  www.openfoam.com                      |
|    \\/     M anipulation  |                                                 |
\*---------------------------------------------------------------------------*/
FoamFile
{
    version     2.0;
    format      ascii;
    class       volScalarField;
    location    "0.106/solid";
    object      epsilonEq;
}
// * * * * * * * * * * * * * * * * * * * * * * * * * * * * * * * * * * * * * //

dimensions      [0 0 0 0 0 0 0];


internalField   nonuniform List<scalar> 
3125
(
3.42958e-09
5.38714e-09
3.71508e-09
3.43948e-09
3.6965e-09
5.32087e-09
4.89744e-09
6.66847e-09
3.43061e-09
8.50326e-07
2.06906e-06
1.80824e-06
3.69911e-09
3.72875e-09
3.4419e-09
3.46246e-06
3.48377e-06
1.83565e-06
2.04363e-06
2.90453e-06
3.40371e-06
2.83404e-06
7.77427e-10
3.38881e-09
8.11438e-10
5.58406e-10
3.85114e-08
3.9657e-09
7.72091e-10
3.66333e-09
4.07248e-09
3.73884e-09
4.77189e-10
6.54923e-10
6.38459e-10
6.69637e-10
3.38927e-09
8.10168e-10
8.13339e-10
6.73752e-10
6.71731e-10
5.45535e-06
5.93121e-06
5.84422e-10
3.8363e-09
7.09651e-08
1.95981e-06
4.07332e-06
5.50377e-06
7.41814e-09
5.02158e-06
2.04069e-06
5.47206e-06
4.45363e-06
5.96743e-06
7.66576e-09
3.41487e-06
3.73509e-06
1.72879e-06
3.22991e-06
4.05082e-06
3.49237e-06
1.70258e-06
3.15977e-06
6.30838e-10
3.66341e-09
3.93306e-09
3.6804e-09
8.01299e-10
6.91196e-10
4.6425e-10
5.28386e-10
6.65218e-10
5.67125e-10
6.69499e-06
7.40574e-06
3.79961e-06
5.69122e-06
6.70426e-06
6.00469e-06
3.73738e-06
6.62915e-06
6.6905e-06
7.50153e-06
5.37507e-06
4.79631e-06
1.92196e-06
3.80902e-06
4.33541e-06
4.94613e-06
1.95233e-06
4.41156e-06
4.13254e-06
4.71281e-06
6.59822e-06
5.94748e-06
3.11275e-06
4.67617e-06
5.24367e-06
5.91667e-06
3.18264e-06
5.32572e-06
5.2265e-06
5.85669e-06
4.42153e-06
4.59569e-06
2.61487e-06
4.03466e-06
5.13687e-06
4.51071e-06
2.53872e-06
3.9549e-06
2.73529e-09
3.41668e-09
2.71116e-09
3.96297e-09
9.22214e-09
5.28484e-09
3.73907e-09
3.48911e-09
2.74424e-09
2.77794e-09
3.6826e-09
4.65689e-09
4.16507e-09
3.72773e-09
3.28518e-09
3.41591e-09
2.72475e-09
2.70249e-09
8.04661e-06
8.35344e-06
9.99176e-07
1.42916e-06
1.67728e-06
3.02466e-06
2.76641e-07
3.03237e-06
2.08438e-06
3.15629e-06
8.20652e-06
9.22488e-06
4.7064e-06
2.29894e-06
1.78146e-06
2.18277e-06
6.08939e-06
5.73792e-06
1.64992e-06
1.8539e-06
3.68148e-09
3.77505e-09
3.52224e-09
2.73682e-09
2.7908e-09
8.16244e-06
8.48845e-06
3.94548e-06
3.96118e-06
4.54041e-06
4.05807e-06
3.56748e-06
4.23647e-06
9.70887e-06
9.64378e-06
7.93984e-06
7.60843e-06
1.86363e-06
2.34005e-06
2.46127e-06
2.98643e-06
2.01416e-06
2.8521e-06
6.20706e-06
6.56092e-06
8.05192e-06
7.71359e-06
2.97425e-06
3.21385e-06
3.36494e-06
4.00071e-06
3.32728e-06
3.83164e-06
6.30378e-06
6.65925e-06
4.78891e-06
3.16461e-06
2.7624e-06
3.01406e-06
6.18547e-06
5.83161e-06
2.38119e-06
2.56305e-06
1.9656e-09
8.01193e-10
1.9401e-09
3.41145e-09
2.69488e-09
2.7058e-09
8.03445e-10
1.92931e-09
1.93602e-09
2.95086e-09
8.79601e-10
3.80006e-09
1.30529e-08
1.21601e-08
6.11788e-09
9.88919e-10
5.70126e-09
4.19387e-09
2.7906e-09
1.97244e-09
7.52193e-10
1.99864e-09
7.4556e-10
2.00854e-09
3.67084e-09
4.29247e-09
4.03481e-09
2.98057e-09
3.18983e-09
2.77162e-09
5.0616e-10
2.40598e-09
2.16059e-09
5.44342e-10
2.33106e-09
2.20572e-09
6.54705e-10
2.22003e-09
6.58575e-10
2.23834e-09
2.23141e-09
3.41034e-09
2.69425e-09
2.69791e-09
1.95149e-09
8.2048e-10
1.93023e-09
1.92848e-09
8.23396e-10
1.9264e-09
2.26148e-09
6.7774e-10
2.26896e-09
2.25456e-09
6.79611e-10
2.2577e-09
7.31821e-06
5.68598e-06
7.60803e-06
8.73492e-06
8.45108e-06
5.75711e-06
7.9642e-06
7.70061e-06
1.6123e-09
9.02382e-10
1.3347e-09
1.00965e-09
1.60666e-09
1.43018e-09
4.89824e-07
1.80056e-08
1.78186e-07
1.75737e-06
3.24781e-06
3.13282e-06
2.61425e-06
5.37039e-06
1.29165e-07
3.5681e-06
1.94483e-07
3.79729e-06
5.45605e-06
3.68361e-06
7.06798e-09
8.84332e-08
1.21778e-07
3.51319e-06
5.24027e-06
3.6632e-06
2.08186e-06
3.25182e-06
3.19293e-06
5.30801e-06
3.79358e-06
3.70772e-06
8.82862e-06
9.11225e-06
6.73667e-06
5.84019e-06
1.71586e-07
8.27489e-06
9.97348e-08
8.04629e-06
5.91362e-06
8.22543e-06
2.4074e-09
9.98171e-08
2.13471e-08
5.15972e-06
4.8188e-06
3.11177e-06
4.24008e-06
4.6534e-06
3.18645e-06
4.34242e-06
2.63479e-06
3.51575e-06
2.49175e-06
1.75493e-06
2.03247e-06
2.1434e-06
3.44356e-06
2.3069e-06
2.44441e-06
5.27445e-06
5.62144e-06
5.50557e-06
3.80832e-06
5.18278e-06
4.75827e-06
3.72849e-06
5.07597e-06
2.88518e-06
2.08681e-06
1.67643e-06
1.99492e-06
1.8895e-06
2.95287e-06
2.26151e-06
2.13004e-06
2.19367e-09
6.1118e-10
2.17486e-09
6.03271e-10
2.16466e-09
3.67014e-09
3.84074e-09
3.55248e-09
2.93033e-09
2.81755e-09
1.96131e-09
7.82196e-10
2.00094e-09
2.12014e-09
7.66348e-10
2.02211e-09
1.75578e-09
4.10401e-10
2.03114e-09
4.38997e-10
2.15627e-09
2.02207e-09
2.26952e-09
6.46603e-10
2.24594e-09
6.3103e-10
2.18582e-09
2.26488e-09
7.84111e-06
6.99426e-06
8.16825e-06
8.93445e-06
8.59652e-06
7.09686e-06
8.62479e-06
8.27888e-06
3.94177e-06
4.49232e-06
4.57326e-06
4.43226e-06
6.83315e-06
5.0721e-06
5.04356e-06
6.85427e-06
5.12611e-06
4.54465e-06
6.27494e-06
4.74726e-06
3.65214e-06
4.45458e-06
4.2945e-06
6.36606e-06
4.99811e-06
4.81392e-06
9.05704e-06
9.50567e-06
8.91355e-06
7.71702e-06
9.18763e-06
8.74558e-06
7.7253e-06
9.11627e-06
7.21798e-06
5.12927e-06
6.90863e-06
7.14866e-06
7.495e-06
5.04637e-06
6.48229e-06
6.80322e-06
1.89243e-06
2.63026e-06
2.50406e-06
2.6839e-06
4.03293e-06
2.83204e-06
3.03571e-06
4.10817e-06
2.8828e-06
3.4596e-06
4.71732e-06
3.29941e-06
1.98322e-06
2.67476e-06
2.80602e-06
4.64081e-06
3.08808e-06
3.24561e-06
7.03177e-06
6.67889e-06
5.6138e-06
4.37981e-06
5.93966e-06
6.37422e-06
4.4628e-06
6.04845e-06
7.73238e-06
6.31486e-06
7.40469e-06
7.24967e-06
7.59877e-06
6.22218e-06
6.96305e-06
7.29477e-06
3.04349e-06
3.56804e-06
3.41459e-06
3.57569e-06
4.91832e-06
3.74949e-06
3.98358e-06
4.99932e-06
3.80725e-06
4.47895e-06
5.65884e-06
4.28653e-06
3.25389e-06
3.61895e-06
3.77811e-06
5.57464e-06
4.04265e-06
4.22481e-06
7.13215e-06
6.77772e-06
6.07216e-06
5.49582e-06
6.40643e-06
6.85197e-06
5.58578e-06
6.51791e-06
5.24793e-06
4.90289e-06
4.06581e-06
4.64313e-06
5.07747e-06
4.15455e-06
4.75113e-06
3.51841e-06
4.35473e-06
3.3454e-06
2.68942e-06
2.81382e-06
2.96476e-06
4.27459e-06
3.11519e-06
3.28819e-06
5.36389e-06
5.71417e-06
5.96089e-06
4.86822e-06
5.62792e-06
5.18697e-06
4.77876e-06
5.5173e-06
3.63715e-06
2.82759e-06
2.46085e-06
2.76431e-06
2.61281e-06
3.71636e-06
3.05794e-06
2.88487e-06
9.51147e-06
9.6249e-06
1.25798e-05
1.16896e-05
7.24209e-06
7.10363e-06
9.23353e-06
9.34494e-06
1.24598e-05
1.12067e-05
9.39346e-06
9.27154e-06
7.3807e-06
7.51941e-06
9.11751e-06
8.99757e-06
7.12921e-06
7.26646e-06
6.99214e-06
6.85522e-06
8.53745e-10
7.94147e-10
8.79645e-10
8.18548e-10
8.91017e-10
9.06121e-10
2.20895e-10
6.64291e-10
3.43968e-10
1.87292e-09
3.11114e-09
1.76477e-09
8.49001e-10
7.7491e-10
8.58965e-10
2.00885e-10
4.58297e-10
2.99552e-10
7.12985e-10
6.34877e-10
6.81038e-10
1.35043e-09
6.33873e-10
1.33318e-09
6.56954e-10
1.38589e-09
1.36038e-09
8.86891e-10
8.23544e-10
9.10555e-10
8.93504e-10
8.27953e-10
9.1523e-10
1.39493e-09
6.6607e-10
1.37506e-09
1.38934e-09
6.66612e-10
1.37225e-09
6.0613e-06
5.53428e-06
4.99098e-06
5.0602e-06
6.14654e-06
1.01909e-05
1.01088e-05
5.35774e-06
5.88254e-06
6.59084e-06
5.33301e-06
6.53133e-06
5.70751e-10
6.9346e-10
4.5955e-10
1.85801e-09
2.96552e-09
1.37012e-09
3.18907e-06
3.82147e-06
4.85161e-06
2.79069e-06
3.70113e-06
4.51204e-06
2.30421e-06
4.15622e-06
4.77556e-06
4.95419e-06
5.51488e-06
4.2e-06
4.74246e-06
4.95691e-06
5.83927e-09
1.84208e-08
1.28882e-08
4.0244e-06
4.53324e-06
5.09614e-06
4.46927e-06
4.53125e-06
4.60113e-06
3.97071e-06
4.21042e-06
4.77734e-06
5.42674e-06
4.93236e-06
4.76304e-06
4.2138e-06
4.89568e-06
1.02698e-05
1.0357e-05
4.91544e-06
5.3399e-06
3.12181e-06
4.30672e-06
5.89495e-06
3.07004e-06
5.36825e-06
6.64043e-06
5.98027e-06
5.34691e-06
6.66933e-06
6.27435e-09
1.89223e-08
1.4949e-08
6.14342e-06
6.00799e-06
3.10138e-06
3.82e-06
3.33805e-06
3.03171e-06
3.73437e-06
2.8952e-06
3.37547e-06
3.30048e-06
3.66158e-06
3.23357e-06
2.95267e-06
3.31008e-06
2.61847e-06
2.84684e-06
3.3006e-06
2.92691e-06
2.90937e-06
2.56544e-06
2.98954e-06
6.27931e-06
6.41572e-06
4.52548e-06
3.68675e-06
3.96953e-06
3.61117e-06
4.4356e-06
3.17194e-06
3.90626e-06
3.57048e-06
3.24326e-06
3.99314e-06
2.46195e-06
2.78513e-06
3.09022e-06
2.86479e-06
2.72435e-06
2.51324e-06
2.80325e-06
1.34019e-09
6.14419e-10
1.31125e-09
8.80189e-10
8.0904e-10
8.90868e-10
7.49282e-10
7.27099e-10
8.01156e-10
7.15593e-10
4.08158e-10
8.16273e-10
4.95305e-10
1.22696e-09
1.17355e-09
1.38595e-09
6.55771e-10
1.36597e-09
5.8241e-10
1.27675e-09
1.28614e-09
7.08141e-06
6.79321e-06
7.0834e-06
7.18442e-06
7.18628e-06
9.9053e-06
9.8222e-06
7.85524e-06
7.3037e-06
7.83221e-06
7.72182e-06
7.73894e-06
6.89211e-06
5.19786e-06
6.40571e-06
7.2828e-06
5.89861e-06
7.44396e-06
6.71778e-06
7.14532e-06
7.54589e-06
6.11815e-06
6.77116e-06
6.17311e-06
7.05753e-06
7.64443e-06
6.3896e-06
5.49048e-06
6.09384e-06
6.72038e-06
5.5724e-06
6.81768e-06
6.29938e-06
6.86966e-06
7.44522e-06
6.54477e-06
6.05501e-06
5.98131e-06
7.33789e-06
6.96729e-06
9.98648e-06
1.00793e-05
7.40366e-06
7.29973e-06
7.96294e-06
7.83873e-06
7.95527e-06
7.96625e-06
7.9386e-06
7.59185e-06
8.04156e-06
8.07734e-06
5.9746e-06
4.91933e-06
5.29381e-06
4.84581e-06
5.88675e-06
8.48534e-06
8.62076e-06
4.38465e-06
4.87979e-06
5.3455e-06
4.46276e-06
5.43673e-06
3.0696e-06
3.44133e-06
3.36803e-06
3.88332e-06
3.01084e-06
3.43615e-06
3.50754e-06
3.37041e-06
3.85315e-06
3.91194e-06
4.25945e-06
3.43154e-06
3.78302e-06
3.8438e-06
3.85664e-06
4.46447e-06
4.40484e-06
4.87014e-06
3.91455e-06
4.33863e-06
4.39532e-06
3.55424e-06
3.92337e-06
4.48788e-06
3.98041e-06
3.99357e-06
3.49287e-06
4.04911e-06
8.34881e-06
8.21156e-06
4.61575e-06
3.76288e-06
4.21462e-06
3.83949e-06
4.70633e-06
4.30641e-06
5.25409e-06
4.62935e-06
4.22812e-06
5.16259e-06
6.97964e-06
6.98283e-06
6.50272e-06
6.87889e-06
6.88429e-06
8.22205e-06
8.35585e-06
6.32006e-06
6.03861e-06
6.28683e-06
6.38461e-06
6.412e-06
5.09846e-06
4.28174e-06
4.75676e-06
5.32959e-06
4.35458e-06
5.41363e-06
5.02152e-06
5.48355e-06
5.91912e-06
4.79525e-06
5.16195e-06
4.72114e-06
5.56113e-06
5.83439e-06
6.12535e-06
5.40962e-06
6.62537e-06
5.82975e-06
6.21133e-06
5.32982e-06
6.53245e-06
5.71772e-06
6.00426e-06
5.40819e-06
4.86973e-06
4.94471e-06
6.08992e-06
5.63916e-06
8.08708e-06
7.95131e-06
5.5095e-06
5.31619e-06
5.59387e-06
5.60635e-06
5.68439e-06
6.22857e-06
6.18925e-06
5.76619e-06
6.09182e-06
6.13747e-06
5.90775e-06
5.7745e-06
4.77449e-06
4.64158e-06
4.33244e-06
4.54579e-06
4.68284e-06
4.86718e-06
4.20904e-06
4.5153e-06
5.24544e-06
4.13641e-06
4.94441e-06
5.16118e-06
4.47778e-06
4.65207e-06
4.11453e-06
3.70217e-06
3.77437e-06
4.73737e-06
4.3992e-06
6.04165e-06
6.17606e-06
5.41272e-06
5.04729e-06
5.5033e-06
5.31599e-06
5.41264e-06
4.86601e-06
4.73755e-06
4.6e-06
4.83367e-06
4.95746e-06
4.24122e-06
4.56658e-06
3.87526e-06
3.63008e-06
3.55804e-06
4.48088e-06
4.32032e-06
3.3578e-09
3.3175e-09
2.74656e-09
2.72484e-09
3.36907e-09
2.73501e-09
3.30888e-09
3.35418e-09
2.72062e-09
2.7161e-09
3.30002e-09
2.72527e-09
3.35117e-09
3.30286e-09
5.65903e-09
4.76619e-09
4.29938e-09
4.26977e-09
5.19409e-09
4.69959e-09
5.16426e-09
6.60172e-09
6.00003e-09
4.70247e-09
6.69282e-09
5.28568e-09
7.49767e-09
5.82801e-09
3.43856e-09
3.44566e-09
3.48413e-09
3.4477e-09
3.39067e-09
3.32815e-09
2.75423e-09
2.75267e-09
3.37661e-09
2.76375e-09
3.33906e-09
3.40382e-09
2.7896e-09
3.36984e-09
2.76491e-09
3.4221e-09
2.77504e-09
3.35493e-09
3.43883e-09
3.41128e-09
3.41133e-09
3.40991e-09
5.0678e-09
6.00003e-09
4.7021e-09
4.4135e-09
4.49919e-09
4.46559e-09
3.97874e-09
3.54878e-09
4.76252e-09
3.73664e-09
4.25795e-09
4.27222e-09
3.38446e-09
3.95913e-09
3.40027e-09
4.10374e-09
3.544e-09
4.08908e-09
9.2205e-09
6.59382e-09
1.07965e-08
1.73184e-08
3.35575e-09
3.31477e-09
2.73656e-09
2.71429e-09
3.36764e-09
2.72156e-09
3.30558e-09
3.35327e-09
2.7083e-09
3.29688e-09
2.7065e-09
3.34769e-09
2.71766e-09
3.29978e-09
8.85966e-06
8.15121e-06
8.9699e-06
9.83604e-06
9.73327e-06
8.25349e-06
9.18026e-06
9.07682e-06
1.65627e-06
5.41302e-06
4.11712e-06
1.71531e-06
1.16955e-06
2.70365e-07
4.20303e-07
3.49126e-07
7.1162e-07
1.15519e-06
4.48288e-07
2.63954e-06
2.69469e-06
2.62452e-06
2.68045e-06
2.6683e-06
2.59772e-06
2.67768e-06
2.61626e-06
1.07648e-05
1.11614e-05
9.96171e-06
8.837e-06
1.0294e-05
1.01336e-05
9.25286e-06
1.02858e-05
5.60527e-06
5.47217e-06
5.23462e-06
4.59462e-06
5.11183e-06
2.51702e-06
2.5479e-06
2.49983e-06
2.58987e-06
2.47535e-06
2.56701e-06
2.52748e-06
2.49094e-06
6.82747e-06
6.96534e-06
6.74511e-06
5.97194e-06
6.61732e-06
6.36246e-06
5.85476e-06
6.48973e-06
2.3381e-06
2.39046e-06
2.41651e-06
2.33173e-06
3.44303e-09
3.40943e-09
3.40882e-09
3.4084e-09
3.45007e-09
3.46292e-09
3.52881e-09
3.47759e-09
3.39441e-09
3.32707e-09
2.74629e-09
2.7484e-09
3.37835e-09
2.76159e-09
3.34177e-09
3.41801e-09
2.80735e-09
3.39477e-09
2.76705e-09
3.45213e-09
2.7767e-09
3.36574e-09
1.06499e-05
6.06336e-06
5.5425e-06
2.86434e-06
2.86402e-06
2.83614e-06
2.84504e-06
3.47493e-06
3.48583e-06
4.04583e-06
3.99651e-06
3.60312e-06
3.66938e-06
3.71959e-06
3.65217e-06
2.77751e-06
2.79905e-06
2.8189e-06
2.79901e-06
2.87548e-06
2.87011e-06
2.86785e-06
2.87723e-06
3.20764e-06
3.2708e-06
3.3251e-06
3.26214e-06
3.62105e-06
3.5557e-06
3.50859e-06
3.57324e-06
8.6026e-06
8.27187e-06
8.71247e-06
9.55235e-06
9.45136e-06
8.38041e-06
8.92426e-06
8.81964e-06
4.56311e-06
4.05204e-06
3.9524e-06
4.79771e-06
4.92779e-06
4.57463e-06
4.44418e-06
5.12175e-06
4.57954e-06
4.06574e-06
4.07961e-06
4.53535e-06
4.62433e-06
4.15069e-06
4.13487e-06
4.67027e-06
1.05159e-05
1.09404e-05
1.06368e-05
9.96841e-06
1.05361e-05
1.00594e-05
9.98161e-06
1.04406e-05
8.74634e-06
7.83107e-06
8.6303e-06
9.01806e-06
9.14617e-06
7.72052e-06
8.39141e-06
8.51187e-06
2.52351e-06
2.61081e-06
2.54223e-06
2.5665e-06
2.56626e-06
2.58323e-06
2.6298e-06
2.54614e-06
2.67806e-06
2.63484e-06
2.64355e-06
2.6988e-06
2.63711e-06
2.69536e-06
2.63592e-06
2.6672e-06
7.79691e-06
7.65818e-06
6.87307e-06
6.32491e-06
7.00117e-06
7.25751e-06
6.44289e-06
7.12934e-06
8.4901e-06
7.94025e-06
8.37516e-06
8.74792e-06
8.87418e-06
7.82744e-06
8.139e-06
8.25804e-06
3.92175e-06
3.54721e-06
3.56206e-06
3.88066e-06
3.96427e-06
3.62882e-06
3.61524e-06
4.00458e-06
4.45022e-06
4.01225e-06
3.99976e-06
4.49263e-06
4.40866e-06
3.9354e-06
3.94718e-06
4.36755e-06
7.54105e-06
7.40376e-06
6.63875e-06
6.42221e-06
6.76535e-06
7.01873e-06
6.54074e-06
6.89204e-06
2.77683e-06
2.75356e-06
2.7271e-06
2.75205e-06
2.54219e-06
2.58519e-06
2.55162e-06
3.21408e-06
3.15064e-06
3.09079e-06
3.15469e-06
2.80868e-06
2.74111e-06
5.37872e-06
5.24825e-06
5.02327e-06
4.67546e-06
4.90269e-06
3.79499e-06
3.49313e-06
3.83701e-06
3.47692e-06
3.74999e-06
3.40386e-06
3.42171e-06
3.7068e-06
6.58236e-06
6.71859e-06
6.51229e-06
6.0673e-06
6.386e-06
6.13428e-06
5.94932e-06
6.25997e-06
3.22137e-06
3.01781e-06
2.9905e-06
3.27172e-06
9.27151e-10
8.77745e-10
2.29174e-09
1.95236e-09
2.27835e-09
9.31129e-10
8.82412e-10
8.06509e-10
8.85465e-10
8.9462e-10
9.23125e-10
2.2653e-09
1.94266e-09
8.80185e-10
2.26727e-09
9.23566e-10
8.84635e-10
3.32951e-09
3.27738e-09
2.70445e-09
2.69574e-09
2.70463e-09
3.32773e-09
3.27928e-09
3.33686e-09
2.71444e-09
3.29395e-09
2.6996e-09
3.34535e-09
2.70907e-09
3.28593e-09
8.18613e-10
8.878e-10
9.06788e-10
9.18632e-10
8.78379e-10
2.25195e-09
1.92666e-09
2.24928e-09
9.18676e-10
8.83665e-10
9.19941e-10
2.2593e-09
8.79992e-10
1.9288e-09
9.21409e-10
2.25334e-09
8.84473e-10
1.86175e-09
1.23255e-09
3.58558e-09
3.17025e-09
3.88939e-09
1.65683e-09
1.36332e-09
7.83191e-10
7.05524e-10
5.18059e-10
2.11078e-09
4.7515e-09
3.45327e-09
1.71661e-09
4.27527e-09
2.42589e-09
1.53145e-09
1.67172e-08
2.04218e-08
1.42067e-08
8.94987e-09
1.02307e-08
2.28096e-08
1.4612e-08
1.18768e-08
7.06787e-09
8.33967e-09
7.36715e-09
9.74166e-09
8.65702e-09
1.0447e-08
1.22661e-09
8.91358e-10
1.15869e-09
3.04027e-09
2.08723e-09
7.60096e-09
5.05984e-09
6.55629e-09
3.04326e-09
2.1097e-09
2.97742e-09
5.2867e-09
1.87456e-09
4.68843e-09
2.64499e-09
6.05408e-09
2.01106e-09
9.34149e-10
8.78412e-10
2.2988e-09
1.97585e-09
2.30379e-09
9.33256e-10
8.83357e-10
7.69256e-10
8.31217e-10
8.54026e-10
9.37918e-10
2.32961e-09
1.98534e-09
8.82023e-10
2.31491e-09
9.44381e-10
8.84877e-10
8.24895e-10
2.33853e-09
8.83292e-10
9.47182e-10
3.39872e-09
3.38594e-09
3.41003e-09
3.38942e-09
3.81524e-09
3.83764e-09
4.07641e-09
4.10213e-09
3.75677e-09
3.60342e-09
3.01243e-09
3.03767e-09
3.08752e-09
3.67545e-09
3.67057e-09
3.8496e-09
3.27342e-09
3.84759e-09
3.1091e-09
3.96828e-09
3.16463e-09
3.75349e-09
1.34138e-09
1.12611e-09
3.34208e-09
2.62237e-09
3.13777e-09
1.50121e-09
1.04006e-09
4.87761e-10
4.87934e-10
4.13404e-10
1.22993e-09
2.84076e-09
2.49738e-09
9.51985e-10
2.97423e-09
1.16274e-09
9.82153e-10
1.03513e-09
9.00092e-10
2.52176e-09
2.20427e-09
2.58507e-09
1.01234e-09
9.06486e-10
5.8663e-10
5.51065e-10
6.23924e-10
1.06617e-09
2.74917e-09
2.26346e-09
9.31361e-10
2.65316e-09
1.12374e-09
9.17557e-10
5.27493e-08
1.01001e-07
3.93607e-08
2.39804e-08
2.12182e-09
2.16109e-09
2.08529e-09
6.42348e-10
1.37224e-09
1.34694e-09
2.17782e-09
2.14207e-09
2.10047e-09
6.56522e-10
1.37756e-09
1.36316e-09
2.15483e-09
2.18701e-09
2.11165e-09
2.14919e-09
2.19396e-09
2.11539e-09
3.32967e-09
3.27765e-09
2.7032e-09
2.69186e-09
3.32866e-09
2.70153e-09
3.27867e-09
3.33506e-09
2.70837e-09
3.29162e-09
2.69331e-09
3.34543e-09
2.69986e-09
3.28414e-09
9.22818e-10
8.82921e-10
2.27913e-09
1.93926e-09
2.26223e-09
9.27675e-10
8.88463e-10
8.32355e-10
9.05753e-10
9.19103e-10
9.22731e-10
2.25122e-09
1.93153e-09
8.84157e-10
2.25906e-09
9.19406e-10
8.8881e-10
9.18321e-10
8.79018e-10
2.2505e-09
1.9219e-09
9.18315e-10
2.24589e-09
8.85019e-10
8.32392e-10
9.07553e-10
9.22486e-10
9.1725e-10
2.25239e-09
1.92093e-09
8.83193e-10
2.24206e-09
9.20445e-10
8.87734e-10
2.16696e-09
2.22149e-09
2.13237e-09
6.73648e-10
1.40233e-09
1.38659e-09
2.22609e-09
2.17691e-09
2.14158e-09
2.16212e-09
2.19972e-09
2.12227e-09
6.68981e-10
1.40395e-09
1.37866e-09
2.21749e-09
2.17502e-09
2.13409e-09
6.7091e-06
7.41673e-06
6.80183e-06
5.61142e-06
5.18818e-06
6.31105e-06
5.12632e-06
6.22999e-06
7.51338e-06
6.98198e-06
6.8929e-06
9.93275e-06
1.00237e-05
9.56564e-06
8.64115e-06
9.47144e-06
9.28013e-06
8.54687e-06
9.3771e-06
5.82313e-06
5.24464e-06
6.38911e-06
5.2934e-06
6.46288e-06
7.30751e-06
7.87917e-06
7.23302e-06
7.0688e-06
7.79099e-06
7.15263e-06
1.38418e-09
1.42082e-09
1.21827e-09
8.21993e-10
4.12098e-10
3.99383e-10
1.38236e-09
1.10874e-09
1.14702e-09
1.22911e-09
4.96888e-10
7.54951e-10
2.12936e-09
1.424e-09
1.40237e-09
1.14204e-09
1.34395e-09
1.13772e-09
6.11436e-08
3.33054e-08
1.73253e-08
3.61648e-08
3.37002e-08
3.5678e-08
6.03893e-08
1.02586e-07
2.11911e-07
2.66302e-07
7.25386e-08
3.01322e-07
6.3503e-08
1.23686e-07
2.2729e-06
2.41947e-06
2.38755e-06
2.31447e-06
2.06643e-06
1.49916e-06
1.72863e-06
2.05963e-06
3.51793e-06
5.26151e-06
4.41805e-06
4.77549e-06
3.76306e-06
4.10691e-06
4.73746e-06
1.63055e-06
8.16691e-08
1.17932e-06
1.65426e-06
2.16417e-07
3.5133e-07
1.01346e-07
1.28348e-06
1.52045e-07
5.87878e-07
4.08325e-06
5.50171e-06
4.55479e-06
4.88312e-06
3.95097e-06
4.68683e-06
4.93039e-06
7.04962e-09
3.79234e-09
7.26996e-09
1.93582e-08
3.6866e-09
2.15277e-08
9.21901e-09
3.09434e-08
6.47432e-08
2.26475e-08
2.2222e-08
1.5161e-07
4.29304e-08
7.26362e-08
4.27471e-08
7.38953e-08
2.16195e-08
4.07473e-06
5.16932e-06
4.6443e-06
4.73177e-06
4.59004e-06
4.12036e-06
4.66765e-06
2.54892e-06
2.44778e-06
2.448e-06
2.55944e-06
2.5647e-06
2.63886e-06
2.63074e-06
2.5476e-06
4.19055e-06
5.37082e-06
4.69277e-06
4.79246e-06
4.73297e-06
4.15983e-06
4.84781e-06
1.05938e-05
1.04488e-05
9.65982e-06
8.92346e-06
9.76157e-06
9.99718e-06
9.02046e-06
9.86732e-06
5.6622e-06
7.61453e-06
4.4213e-06
6.56379e-06
3.72256e-06
5.67441e-06
5.1078e-06
6.6027e-06
4.73518e-06
6.43821e-06
1.60791e-06
1.80705e-07
9.87394e-07
8.17316e-06
7.45978e-06
7.30098e-06
1.33623e-07
1.4494e-07
3.39593e-07
7.37578e-06
8.12013e-06
7.42905e-06
5.97364e-06
5.18623e-06
6.64527e-06
5.31139e-06
6.68279e-06
8.18924e-06
7.46905e-06
7.47122e-06
4.08833e-09
4.10614e-09
8.74371e-09
3.64482e-08
8.25551e-08
3.26148e-08
1.04505e-08
4.87232e-08
2.11302e-08
5.73889e-06
5.87313e-06
5.73128e-06
5.04551e-06
5.60631e-06
5.35796e-06
4.93185e-06
5.48187e-06
3.03781e-06
2.8281e-06
3.48166e-06
2.76207e-06
3.39886e-06
4.13844e-06
3.86941e-06
3.77677e-06
4.24683e-06
4.54913e-06
4.15149e-06
3.2619e-06
2.89502e-06
3.56516e-06
2.96291e-06
3.6494e-06
4.44546e-06
3.96275e-06
4.05679e-06
2.83837e-06
3.58843e-06
3.10165e-06
3.18047e-06
2.78223e-06
3.16724e-06
3.24504e-06
2.42258e-06
2.51453e-06
2.43481e-06
2.48014e-06
2.46346e-06
2.5049e-06
2.44955e-06
2.5419e-06
2.67228e-06
3.37183e-06
3.0368e-06
3.11635e-06
2.7269e-06
2.97266e-06
3.05274e-06
6.68982e-06
6.55254e-06
5.85669e-06
5.38967e-06
5.98255e-06
6.23547e-06
5.50533e-06
6.10881e-06
5.02845e-06
5.39764e-06
4.92922e-06
3.88867e-06
3.46191e-06
4.25712e-06
3.53618e-06
4.34612e-06
5.29003e-06
4.73189e-06
4.83035e-06
4.34277e-06
4.86368e-06
4.43929e-06
3.64918e-06
3.38829e-06
4.16859e-06
3.31536e-06
4.08058e-06
4.96959e-06
4.63387e-06
4.53632e-06
2.26555e-06
2.81813e-06
2.54738e-06
2.622e-06
2.49027e-06
2.31331e-06
2.56282e-06
2.40431e-06
2.45286e-06
2.39396e-06
2.4845e-06
2.3639e-06
2.45191e-06
2.37227e-06
2.42314e-06
2.41153e-06
3.02125e-06
2.6054e-06
2.68181e-06
2.66444e-06
2.36193e-06
2.74224e-06
2.1117e-09
2.13731e-09
2.06386e-09
6.09091e-10
1.32361e-09
1.30761e-09
2.14168e-09
2.09768e-09
2.06333e-09
1.31209e-09
2.08582e-09
3.39662e-09
3.38702e-09
3.40856e-09
3.38635e-09
3.70354e-09
3.64234e-09
3.556e-09
3.58606e-09
3.55664e-09
3.54464e-09
2.96273e-09
2.88671e-09
3.6132e-09
2.90749e-09
3.49683e-09
3.51766e-09
2.82998e-09
3.42534e-09
2.84762e-09
3.48064e-09
2.86929e-09
3.45687e-09
9.33003e-10
8.83948e-10
2.28641e-09
1.96679e-09
2.29764e-09
9.28951e-10
8.88742e-10
8.00115e-10
8.59916e-10
8.85638e-10
9.35309e-10
2.33857e-09
1.98032e-09
8.88359e-10
2.30898e-09
9.46837e-10
8.91457e-10
9.739e-10
8.94854e-10
2.47865e-09
2.08031e-09
9.98073e-10
2.42662e-09
8.95439e-10
7.63601e-10
8.46013e-10
8.38346e-10
9.60647e-10
2.35699e-09
2.04527e-09
8.90556e-10
2.39101e-09
9.50986e-10
8.94236e-10
1.53111e-09
1.86223e-09
1.63524e-09
3.91837e-10
1.02797e-09
9.38566e-10
1.9302e-09
1.85184e-09
1.739e-09
4.5666e-10
1.09305e-09
1.11676e-09
2.02341e-09
2.05778e-09
1.9468e-09
1.89246e-09
2.03154e-09
1.90555e-09
2.16388e-09
2.20452e-09
2.12125e-09
6.45122e-10
1.37258e-09
1.35756e-09
2.21841e-09
2.1502e-09
2.12186e-09
6.1496e-10
1.35646e-09
1.32794e-09
2.0631e-09
2.1848e-09
2.06248e-09
2.14473e-09
2.21188e-09
2.09725e-09
3.28672e-07
1.70978e-07
2.01306e-06
1.44026e-06
2.59046e-06
2.56206e-06
1.87571e-06
2.27529e-06
2.68712e-06
2.72183e-06
2.8044e-06
2.784e-06
3.83034e-06
3.91598e-06
4.12689e-06
4.00707e-06
3.83911e-06
3.76543e-06
3.7031e-06
3.77314e-06
2.85124e-06
2.83483e-06
2.8181e-06
2.83634e-06
2.84906e-06
2.86353e-06
2.87251e-06
2.86032e-06
3.42788e-06
3.36468e-06
3.31436e-06
3.37739e-06
3.41358e-06
3.47712e-06
3.5254e-06
3.46141e-06
7.44107e-06
7.9498e-06
7.54725e-06
6.89294e-06
7.39488e-06
7.39989e-06
7.28884e-06
7.2917e-06
8.05872e-06
7.76281e-06
7.65439e-06
9.64749e-06
9.73742e-06
9.33302e-06
8.81749e-06
9.22848e-06
9.02654e-06
8.70588e-06
9.12767e-06
7.2005e-06
7.50252e-06
7.51072e-06
7.61181e-06
7.6243e-06
8.21428e-06
8.50623e-06
8.09844e-06
7.87278e-06
8.3914e-06
7.98473e-06
4.97858e-06
4.37321e-06
4.40668e-06
4.92019e-06
5.0762e-06
4.61549e-06
5.16628e-06
4.54371e-06
7.22369e-06
6.79983e-06
6.19378e-06
7.77415e-06
6.11663e-06
7.2485e-06
7.76708e-06
7.20729e-06
6.81432e-06
6.23106e-06
7.78754e-06
6.20273e-06
7.26685e-06
7.71683e-06
6.48213e-06
6.18399e-06
5.73831e-06
7.01979e-06
5.65511e-06
6.91745e-06
6.57692e-06
4.81763e-06
4.31484e-06
4.29009e-06
4.87087e-06
4.76552e-06
4.20685e-06
4.71656e-06
4.22633e-06
6.77183e-06
6.45667e-06
5.82119e-06
7.12433e-06
5.90295e-06
7.23103e-06
6.67354e-06
1.0339e-05
1.01791e-05
9.4419e-06
9.19268e-06
9.56722e-06
9.89062e-06
9.33231e-06
9.70228e-06
8.10309e-06
9.22153e-06
8.44288e-06
7.7139e-06
8.21399e-06
8.2481e-06
8.26688e-06
8.27804e-06
9.40628e-06
8.6783e-06
8.80969e-06
8.32921e-06
8.87117e-06
8.44416e-06
7.66033e-06
8.20687e-06
8.25318e-06
8.12474e-06
8.16283e-06
8.98859e-06
8.64638e-06
8.54387e-06
6.61493e-06
7.11619e-06
6.51951e-06
5.21181e-06
4.69485e-06
5.70844e-06
4.77086e-06
5.79797e-06
7.01302e-06
6.32564e-06
6.42304e-06
8.88747e-06
8.75493e-06
7.89484e-06
7.26492e-06
8.02065e-06
8.26919e-06
7.38043e-06
8.14552e-06
4.96317e-06
4.61804e-06
5.61831e-06
4.54062e-06
5.52769e-06
5.92957e-06
6.5899e-06
6.02931e-06
6.22746e-06
6.69692e-06
6.12865e-06
2.61165e-06
2.61139e-06
2.66249e-06
2.58843e-06
2.56791e-06
2.64707e-06
2.58955e-06
2.59826e-06
3.12886e-06
3.95797e-06
3.57381e-06
3.64105e-06
3.18865e-06
3.50475e-06
3.57415e-06
3.30951e-06
4.18369e-06
3.64324e-06
3.70832e-06
3.24887e-06
3.71301e-06
3.7759e-06
3.79742e-06
4.79381e-06
4.20251e-06
4.25651e-06
4.27105e-06
3.7373e-06
4.3259e-06
2.60751e-06
2.67603e-06
2.62257e-06
2.6325e-06
2.65131e-06
2.63107e-06
2.62415e-06
2.68724e-06
3.61552e-06
4.56432e-06
4.13329e-06
4.18719e-06
4.06359e-06
3.67661e-06
4.11808e-06
7.93543e-06
8.07369e-06
7.76822e-06
6.91443e-06
7.64105e-06
7.38556e-06
6.79677e-06
7.51345e-06
5.12802e-06
5.72228e-06
5.22786e-06
4.29706e-06
3.99407e-06
4.88835e-06
3.91657e-06
4.79721e-06
5.83092e-06
5.42819e-06
5.32794e-06
5.82953e-06
6.26582e-06
5.72928e-06
4.546e-06
4.07186e-06
4.97967e-06
4.1499e-06
5.07111e-06
6.15721e-06
5.52854e-06
5.62893e-06
7.33557e-06
7.62347e-06
7.23056e-06
6.40832e-06
6.67971e-06
6.69204e-06
6.77896e-06
6.78745e-06
7.51424e-06
7.0214e-06
7.12588e-06
8.61916e-06
8.48833e-06
7.64855e-06
7.36669e-06
7.77283e-06
8.01829e-06
7.4831e-06
7.89614e-06
6.13014e-06
6.58097e-06
6.59779e-06
6.48263e-06
6.50452e-06
6.60402e-06
7.07391e-06
6.70835e-06
6.91701e-06
7.1845e-06
6.81267e-06
4.12677e-06
3.75757e-06
3.74571e-06
4.16632e-06
4.08593e-06
3.68122e-06
4.04611e-06
3.69387e-06
5.17538e-06
4.83748e-06
4.50061e-06
5.58167e-06
4.42751e-06
5.25226e-06
5.49766e-06
5.40626e-06
5.08052e-06
4.57387e-06
5.66576e-06
4.64739e-06
5.32922e-06
5.74997e-06
6.04114e-06
5.74384e-06
5.17328e-06
6.35178e-06
5.25108e-06
6.44133e-06
5.95854e-06
4.2464e-06
3.80913e-06
3.82062e-06
4.20669e-06
4.28674e-06
3.88358e-06
4.32692e-06
3.87218e-06
5.79704e-06
5.49113e-06
5.09637e-06
6.26349e-06
5.0202e-06
6.17628e-06
5.87722e-06
7.67815e-06
7.81491e-06
7.52347e-06
7.01426e-06
7.3978e-06
7.14531e-06
6.89609e-06
7.2717e-06
5.77004e-06
6.18352e-06
5.87411e-06
5.40596e-06
5.80028e-06
5.86537e-06
5.70328e-06
5.77489e-06
6.29496e-06
6.08248e-06
5.97826e-06
6.49968e-06
6.74071e-06
6.39534e-06
5.6759e-06
5.89736e-06
5.95593e-06
5.99453e-06
6.04661e-06
6.62935e-06
6.18674e-06
6.29102e-06
2.66598e-06
2.69428e-06
2.72457e-06
2.69793e-06
2.66104e-06
2.63093e-06
2.59284e-06
2.62475e-06
2.96149e-06
3.02661e-06
3.09225e-06
3.02784e-06
2.95758e-06
2.8917e-06
2.81826e-06
2.88501e-06
5.50993e-06
5.64183e-06
5.51178e-06
5.13244e-06
5.38874e-06
5.14446e-06
5.01741e-06
5.26628e-06
3.97722e-06
4.25955e-06
4.40722e-06
4.16456e-06
4.31517e-06
4.53554e-06
4.43184e-06
4.33072e-06
4.83943e-06
4.96831e-06
4.73707e-06
4.24344e-06
4.35476e-06
4.49917e-06
4.45017e-06
4.59107e-06
4.85953e-06
4.53328e-06
4.63501e-06
4.78975e-06
4.43498e-06
3.99138e-06
4.99221e-06
4.06388e-06
4.71213e-06
5.07678e-06
3.56786e-06
3.24864e-06
3.27007e-06
3.52199e-06
3.61589e-06
3.34742e-06
3.66034e-06
3.32789e-06
4.55614e-06
4.19452e-06
3.91899e-06
4.90746e-06
3.84664e-06
4.63424e-06
4.82251e-06
6.44648e-06
6.31099e-06
5.63534e-06
5.48027e-06
5.75939e-06
6.00891e-06
5.59703e-06
5.8839e-06
5.66605e-06
5.84974e-06
5.56216e-06
4.95773e-06
5.12278e-06
5.23094e-06
5.21934e-06
5.32186e-06
5.73874e-06
5.35478e-06
5.45839e-06
4.94205e-06
5.2968e-06
5.0449e-06
4.68934e-06
5.02629e-06
5.13991e-06
4.92991e-06
5.04876e-06
5.40691e-06
5.25129e-06
5.14798e-06
3.92226e-06
3.5581e-06
3.34263e-06
4.22276e-06
3.27104e-06
4.13636e-06
4.00239e-06
3.42503e-06
3.18942e-06
3.16612e-06
3.47232e-06
3.37368e-06
3.08006e-06
3.32482e-06
3.10541e-06
4.16185e-06
3.79574e-06
3.41431e-06
4.30897e-06
3.48614e-06
4.39501e-06
4.08226e-06
3.77661e-09
3.57705e-09
3.41808e-09
3.87761e-09
3.79082e-09
3.86993e-09
3.56784e-09
6.63089e-09
5.3261e-09
6.10013e-09
6.70103e-09
6.13738e-09
7.05531e-09
5.85724e-09
3.814e-09
3.44943e-09
3.5885e-09
3.89092e-09
3.79767e-09
3.89917e-09
3.59918e-09
5.18115e-09
4.56623e-09
4.91735e-09
5.72853e-09
5.47609e-09
5.4088e-09
4.65936e-09
3.78194e-09
3.41749e-09
3.88593e-09
3.57818e-09
3.8749e-09
3.79337e-09
3.56809e-09
3.82163e-09
3.4574e-09
3.90017e-09
3.59092e-09
3.80537e-09
3.91567e-09
3.60599e-09
3.74879e-09
3.3884e-09
3.83985e-09
3.53641e-09
3.83964e-09
3.74675e-09
3.53745e-09
2.83601e-08
2.76668e-08
2.20817e-08
2.9698e-08
4.6878e-08
2.8822e-08
2.25679e-08
4.23877e-09
3.8178e-09
4.24712e-09
3.89216e-09
4.33786e-09
4.14772e-09
3.9659e-09
3.74996e-09
3.38875e-09
3.84078e-09
3.53712e-09
3.74964e-09
3.84203e-09
3.53821e-09
6.99519e-08
9.51424e-08
1.51524e-07
5.51083e-08
6.9539e-08
7.49767e-08
8.17261e-08
4.00788e-09
3.62204e-09
4.16589e-09
3.82715e-09
4.0703e-09
4.10447e-09
3.77466e-09
3.77851e-09
3.41455e-09
3.86729e-09
3.56413e-09
3.8641e-09
3.77748e-09
3.56354e-09
8.28339e-09
7.44887e-09
9.60682e-09
8.08927e-09
9.94432e-09
9.01562e-09
6.90739e-09
3.83035e-09
3.46785e-09
3.93594e-09
3.63647e-09
3.91957e-09
3.85459e-09
3.61846e-09
4.86739e-09
4.34122e-09
4.81311e-09
4.30229e-09
5.02194e-09
4.67754e-09
4.45337e-09
3.78033e-09
3.41475e-09
3.86959e-09
3.56375e-09
3.86875e-09
3.77934e-09
3.56386e-09
8.90089e-07
1.13013e-06
2.54545e-06
7.06498e-07
3.54417e-06
8.92671e-07
7.4393e-07
1.66429e-06
2.16544e-06
2.76284e-06
2.94817e-06