/*--------------------------------*- C++ -*----------------------------------*\
| =========                 |                                                 |
| \\      /  F ield         | OpenFOAM: The Open Source CFD Toolbox           |
|  \\    /   O peration     | Version:  2012                                  |
|   \\  /    A nd           | Website:  www.openfoam.com                      |
|    \\/     M anipulation  |                                                 |
\*---------------------------------------------------------------------------*/
FoamFile
{
    version     2.0;
    format      ascii;
    class       volSymmTensorField;
    location    "0.106/solid";
    object      epsilon;
}
// * * * * * * * * * * * * * * * * * * * * * * * * * * * * * * * * * * * * * //

dimensions      [0 0 0 0 0 0 0];


internalField   nonuniform List<symmTensor> 
3125
(
(2.56272e-10 8.40004e-14 3.78456e-10 1.57265e-12 -2.72875e-11 5.22636e-09)
(4.42493e-10 4.63259e-10 1.05809e-09 -9.85623e-10 -1.75006e-09 6.84024e-09)
(2.90708e-10 3.42895e-12 2.43607e-10 2.30828e-12 -4.61211e-12 5.6975e-09)
(2.57647e-10 3.957e-12 3.81284e-10 2.61729e-12 -4.73123e-12 5.24214e-09)
(2.89825e-10 1.49208e-12 2.40472e-10 2.80414e-12 -9.60019e-12 5.66978e-09)
(3.82338e-10 6.19744e-10 6.24286e-10 -8.79691e-10 -6.35901e-10 7.43065e-09)
(3.34448e-10 3.27558e-10 9.22028e-10 -6.38903e-10 -1.11163e-09 6.67977e-09)
(6.04959e-10 1.31813e-09 8.42215e-10 -1.72427e-09 -1.2728e-09 8.59374e-09)
(2.5583e-10 4.86387e-13 3.79623e-10 1.81393e-12 2.66211e-11 5.22761e-09)
(-1.35348e-07 8.10474e-08 -3.80641e-07 6.38565e-08 7.46393e-09 1.03317e-06)
(-5.31947e-07 9.99978e-09 -1.64509e-06 5.54952e-08 -2.11541e-07 8.20075e-07)
(-2.84046e-07 -5.5808e-09 -1.52849e-06 1.83402e-07 -1.84036e-07 2.36846e-07)
(2.89081e-10 2.02086e-12 2.40633e-10 1.09906e-12 9.21897e-12 5.67244e-09)
(2.89469e-10 2.77339e-12 2.46306e-10 -2.10394e-12 2.67064e-12 5.71479e-09)
(2.578e-10 -2.85273e-12 3.82329e-10 3.1026e-12 3.95119e-12 5.2459e-09)
(-2.42899e-07 -1.16313e-07 2.53697e-07 -1.26241e-06 -4.02779e-07 4.29457e-06)
(-9.8715e-07 -6.1352e-08 -1.94047e-07 -1.47454e-06 -9.69582e-08 3.96308e-06)
(-3.04516e-07 -4.51368e-09 -1.54713e-06 1.69857e-07 -1.85042e-07 2.9224e-07)
(-4.97096e-07 6.89473e-09 -1.64345e-06 6.73304e-08 -2.04967e-07 7.48993e-07)
(-8.03858e-07 -6.16134e-08 -2.3484e-07 -1.24645e-06 -7.38955e-08 3.29243e-06)
(-9.68391e-07 -6.27455e-08 -1.90122e-07 -1.43948e-06 -9.07495e-08 3.87105e-06)
(-7.79867e-07 -6.06521e-08 -2.43483e-07 -1.21935e-06 -7.34937e-08 3.21009e-06)
(2.08974e-10 -8.69918e-14 8.95639e-11 9.54801e-13 -5.80755e-12 -1.03664e-09)
(2.56643e-10 2.10573e-12 3.70358e-10 2.80811e-12 1.07443e-11 5.16747e-09)
(2.08149e-10 -7.49491e-13 7.86821e-11 8.8257e-13 5.4895e-14 -1.09159e-09)
(1.71623e-10 7.23622e-11 4.64853e-10 -7.25475e-12 3.49926e-11 1.81904e-10)
(1.0039e-08 -1.2823e-09 -8.17149e-09 -1.32051e-08 -2.90718e-08 1.22389e-08)
(-2.35236e-10 -4.20969e-10 2.86323e-10 3.75882e-09 2.68173e-09 7.28233e-10)
(2.09739e-10 -1.2184e-12 9.26857e-11 6.52845e-13 -3.69283e-12 -1.02736e-09)
(2.88643e-10 1.44775e-12 2.35133e-10 3.23508e-12 2.27901e-12 5.62024e-09)
(2.91124e-10 7.5201e-11 3.29855e-10 -1.06765e-10 -5.8791e-11 6.1621e-09)
(2.51854e-10 2.71425e-11 4.87849e-10 -3.71002e-11 -3.78163e-11 5.64538e-09)
(1.84796e-10 6.05549e-11 3.88513e-10 -8.69567e-12 4.4596e-11 -3.22572e-11)
(2.11409e-10 8.71082e-12 1.44581e-10 1.15258e-12 2.12354e-11 -8.25186e-10)
(-1.2892e-10 1.34417e-12 -4.4957e-10 7.13685e-13 -1.3311e-12 -6.10192e-10)
(-1.29252e-10 -2.26919e-12 -4.59976e-10 7.01001e-13 -4.55633e-12 -6.65486e-10)
(2.5642e-10 -1.80513e-12 3.7048e-10 2.50138e-12 -1.16043e-11 5.16788e-09)
(2.08236e-10 1.78619e-13 7.84206e-11 1.49425e-12 6.77872e-12 -1.08937e-09)
(2.07878e-10 -2.82057e-13 7.76114e-11 9.90726e-13 -3.63869e-12 -1.09482e-09)
(-1.3059e-10 -1.38441e-12 -4.63565e-10 1.15809e-12 1.60137e-12 -6.6776e-10)
(-1.29405e-10 1.26e-12 -4.60883e-10 7.04507e-13 8.75349e-13 -6.68757e-10)
(-2.27364e-06 9.2873e-08 -1.0211e-06 -1.59357e-06 -2.22658e-07 6.0233e-06)
(-2.37857e-06 1.07795e-07 -1.00943e-06 -1.79634e-06 -2.39588e-07 6.6094e-06)
(-1.82532e-10 4.05351e-11 -1.67362e-10 2.64306e-12 6.69486e-11 7.10282e-10)
(-3.96654e-10 -8.85362e-10 -6.93795e-10 3.12858e-09 2.58131e-09 1.27576e-09)
(2.02015e-08 -7.05113e-09 -1.77981e-08 -2.8062e-08 -5.29047e-08 5.44521e-09)
(-5.90436e-07 2.02514e-08 -1.48496e-06 9.10771e-08 -2.21154e-07 9.87377e-07)
(-2.84159e-07 -1.11233e-08 -9.70862e-07 -9.14393e-07 -4.19017e-07 5.20409e-06)
(-1.97292e-06 1.12119e-07 -9.90852e-07 -1.74095e-06 -2.46349e-07 6.20224e-06)
(-3.35486e-10 -9.76893e-10 -6.56152e-10 6.0513e-09 5.22045e-09 1.54638e-10)
(-1.93555e-06 9.97056e-08 -9.92622e-07 -1.50534e-06 -2.18584e-07 5.59179e-06)
(-6.13317e-07 3.21544e-08 -1.55472e-06 4.1526e-08 -2.45562e-07 9.84077e-07)
(-2.0165e-06 1.09578e-07 -9.79115e-07 -1.70353e-06 -2.42765e-07 6.15312e-06)
(-2.44801e-07 -5.80698e-08 -1.33268e-06 -1.13022e-06 -1.93777e-07 5.52453e-06)
(-2.33668e-06 1.13702e-07 -1.02941e-06 -1.83473e-06 -2.42338e-07 6.66301e-06)
(-4.27537e-10 -1.87931e-09 -1.63942e-09 5.37944e-09 5.32267e-09 6.65616e-10)
(-1.45925e-06 7.0964e-08 -9.79672e-07 -9.10175e-07 -1.94141e-07 3.61158e-06)
(-1.42666e-06 8.51302e-08 -9.94444e-07 -1.0722e-06 -1.9263e-07 4.06052e-06)
(-2.29168e-07 -8.67248e-09 -1.46809e-06 2.18312e-07 -1.82213e-07 8.79605e-08)
(-1.23682e-06 7.8763e-08 -9.59932e-07 -8.98316e-07 -1.87551e-07 3.45994e-06)
(-1.70572e-06 7.88536e-08 -1.02512e-06 -1.1254e-06 -2.0152e-07 4.36155e-06)
(-1.48963e-06 7.20168e-08 -9.86088e-07 -9.36225e-07 -1.95026e-07 3.70296e-06)
(-2.12743e-07 -9.68852e-09 -1.44637e-06 2.27669e-07 -1.81848e-07 4.44727e-08)
(-1.21031e-06 7.77396e-08 -9.54172e-07 -8.74285e-07 -1.86925e-07 3.37645e-06)
(-1.28806e-10 -2.79139e-12 -4.46845e-10 5.51126e-13 -8.29466e-12 -5.96679e-10)
(2.88476e-10 -5.01123e-13 2.34554e-10 3.03945e-12 -2.86007e-12 5.62025e-09)
(2.89918e-10 3.87314e-11 2.93734e-10 -4.98229e-11 -1.5492e-11 5.98984e-09)
(2.48882e-10 2.03164e-11 4.612e-10 -2.80263e-11 8.75185e-12 5.56752e-09)
(2.08047e-10 4.15486e-13 8.06919e-11 1.57383e-12 2.84114e-12 -1.07551e-09)
(2.10871e-10 7.1757e-12 1.27074e-10 2.35652e-12 2.44158e-11 -8.89352e-10)
(-1.71143e-10 3.44246e-11 -2.28486e-10 3.72698e-13 6.22884e-11 4.54117e-10)
(-1.36007e-10 7.41253e-12 -4.13133e-10 1.81682e-12 2.63587e-11 -3.82767e-10)
(-1.30906e-10 1.71046e-12 -4.61193e-10 1.25101e-12 6.51963e-12 -6.51622e-10)
(-1.35104e-10 3.92937e-12 -4.28925e-10 2.40133e-12 2.09157e-11 -4.61572e-10)
(-1.90757e-06 3.96062e-08 -2.54583e-07 -2.54434e-06 -1.28834e-07 7.78895e-06)
(-2.04928e-06 3.39689e-08 -2.94827e-07 -2.8455e-06 -1.39795e-07 8.62522e-06)
(-9.08747e-07 -8.78307e-08 -2.20161e-07 -1.68204e-06 -1.77966e-07 4.34121e-06)
(-3.14882e-07 -1.75636e-07 -8.53688e-07 -1.51325e-06 -1.06525e-06 7.21719e-06)
(-1.93211e-06 6.333e-08 -4.83285e-07 -2.58299e-06 -1.72068e-07 7.74303e-06)
(-1.8565e-06 7.51649e-08 -4.146e-07 -2.24957e-06 -1.48596e-07 6.91425e-06)
(-9.76678e-07 -6.46572e-08 -2.22134e-07 -1.62384e-06 -1.40851e-07 4.25796e-06)
(-1.96304e-06 6.95273e-08 -4.53757e-07 -2.52711e-06 -1.70821e-07 7.65033e-06)
(-3.69909e-07 -2.74822e-07 -1.0473e-06 -2.011e-06 -1.03313e-06 8.40002e-06)
(-2.02912e-06 2.78694e-08 -3.33374e-07 -2.90592e-06 -1.36772e-07 8.74166e-06)
(-2.23979e-06 9.19544e-08 -1.02782e-06 -1.5672e-06 -2.2111e-07 5.92754e-06)
(-1.99764e-06 8.63077e-08 -1.04975e-06 -1.37724e-06 -2.11726e-07 5.2414e-06)
(-3.74877e-07 -8.02701e-10 -1.59757e-06 1.257e-07 -1.8993e-07 4.742e-07)
(-1.4545e-06 8.59437e-08 -9.98368e-07 -1.09766e-06 -1.93535e-07 4.14833e-06)
(-1.65641e-06 9.1492e-08 -1.01527e-06 -1.27762e-06 -2.01597e-07 4.77346e-06)
(-1.90501e-06 9.86746e-08 -9.97971e-07 -1.48024e-06 -2.16094e-07 5.50126e-06)
(-4.02032e-07 6.56383e-10 -1.61223e-06 1.10507e-07 -1.92458e-07 5.39869e-07)
(-1.68653e-06 9.23256e-08 -1.01566e-06 -1.30328e-06 -2.03027e-07 4.86396e-06)
(-1.7372e-06 7.97172e-08 -1.02963e-06 -1.15317e-06 -2.02537e-07 4.45794e-06)
(-1.96406e-06 8.54965e-08 -1.04929e-06 -1.34935e-06 -2.10492e-07 5.14275e-06)
(-1.87624e-06 3.90163e-08 -2.60339e-07 -2.5093e-06 -1.26404e-07 7.67641e-06)
(-1.65869e-06 3.59866e-08 -2.98792e-07 -2.27723e-06 -1.12364e-07 6.91976e-06)
(-8.75511e-07 -6.37339e-08 -2.08296e-07 -1.32551e-06 -7.74335e-08 3.53506e-06)
(-1.39759e-06 6.46504e-08 -4.66498e-07 -1.77563e-06 -1.2052e-07 5.36922e-06)
(-1.5915e-06 6.79982e-08 -4.52006e-07 -1.97893e-06 -1.28509e-07 6.02997e-06)
(-1.82696e-06 7.42907e-08 -4.18786e-07 -2.21766e-06 -1.45635e-07 6.812e-06)
(-8.99414e-07 -6.40213e-08 -2.0051e-07 -1.35199e-06 -7.95804e-08 3.61615e-06)
(-1.62006e-06 6.86263e-08 -4.48772e-07 -2.00808e-06 -1.30087e-07 6.12542e-06)
(-1.42114e-06 3.51642e-08 -3.24197e-07 -2.01843e-06 -1.02653e-07 6.08043e-06)
(-1.62841e-06 3.57675e-08 -3.02993e-07 -2.24483e-06 -1.10847e-07 6.81414e-06)
(-1.16439e-06 3.41682e-08 -3.36532e-07 -1.72492e-06 -9.70126e-08 5.14171e-06)
(-1.37053e-06 6.42133e-08 -4.67562e-07 -1.74656e-06 -1.19762e-07 5.27545e-06)
(-7.0657e-07 -5.73168e-08 -2.66139e-07 -1.13357e-06 -7.39749e-08 2.95408e-06)
(-1.18429e-06 6.07307e-08 -4.69591e-07 -1.54227e-06 -1.16289e-07 4.62146e-06)
(-1.39207e-06 3.51099e-08 -3.26251e-07 -1.98602e-06 -1.01826e-07 5.976e-06)
(-1.19231e-06 3.43535e-08 -3.35809e-07 -1.75774e-06 -9.7464e-08 5.24581e-06)
(-6.81617e-07 -5.61507e-08 -2.72364e-07 -1.10321e-06 -7.4585e-08 2.86517e-06)
(-1.15816e-06 6.01407e-08 -4.69168e-07 -1.51299e-06 -1.15981e-07 4.52846e-06)
(-2.34839e-10 -7.13608e-13 -7.89894e-11 2.7553e-15 -1.11916e-11 3.97815e-09)
(2.54517e-10 3.10596e-12 3.77309e-10 -4.44074e-14 3.92318e-12 5.20564e-09)
(-2.35571e-10 5.86127e-13 -8.69402e-11 8.27876e-13 -6.20176e-12 3.94141e-09)
(-3.05408e-10 3.00864e-10 5.34416e-10 -3.24944e-10 -6.06903e-10 5.43834e-09)
(1.26968e-09 1.13378e-09 1.12527e-09 -2.87212e-09 -5.52886e-09 8.09439e-09)
(-3.20361e-10 8.89208e-10 1.20374e-09 -8.34736e-10 -1.8686e-09 6.16404e-09)
(2.90687e-10 2.68803e-12 2.46645e-10 2.71584e-12 -1.29947e-11 5.7334e-09)
(2.53552e-10 1.16758e-12 3.91848e-10 -1.48601e-12 -3.4558e-11 5.31045e-09)
(-2.35106e-10 1.47815e-12 -7.77736e-11 4.58643e-13 -1.03675e-11 3.99173e-09)
(-2.35673e-10 1.08383e-13 -7.37937e-11 1.57556e-13 -1.48546e-11 4.0421e-09)
(2.88402e-10 2.52175e-12 2.37581e-10 2.39583e-12 -9.42334e-13 5.64838e-09)
(3.15777e-10 3.04405e-10 4.81403e-10 -4.35033e-10 -2.99645e-10 6.80547e-09)
(2.55587e-10 1.19178e-10 6.72518e-10 -2.03353e-10 -3.27296e-10 6.1215e-09)
(-2.95953e-10 2.18956e-10 3.92508e-10 -2.13216e-10 -3.94976e-10 5.23966e-09)
(-2.6625e-10 7.29923e-11 1.2078e-10 -7.25131e-11 -9.47664e-11 4.74672e-09)
(2.54068e-10 -2.84588e-12 3.77341e-10 -1.02801e-13 -5.37096e-12 5.20421e-09)
(-2.36982e-10 1.00187e-12 -8.63433e-11 1.30126e-12 1.20629e-11 3.96128e-09)
(-2.36257e-10 -9.55015e-13 -9.23154e-11 1.05534e-12 4.81648e-12 3.92776e-09)
(-3.46586e-06 -4.97119e-08 -5.6099e-07 -2.81526e-06 -1.57909e-07 8.87357e-06)
(-3.59091e-06 -4.98178e-08 -5.32262e-07 -2.92497e-06 -1.59204e-07 9.2216e-06)
(2.35751e-07 1.36836e-08 -5.49397e-07 -3.67628e-07 -5.6684e-07 -3.87261e-07)
(-4.70577e-07 -1.0316e-07 -8.77942e-07 5.97884e-08 2.17998e-07 1.17221e-06)
(-1.34315e-07 -6.76392e-09 -5.37581e-07 -4.0628e-07 -1.97516e-07 2.02975e-06)
(-7.80804e-07 3.47023e-08 -8.36085e-07 -1.00549e-06 -2.45461e-07 3.38061e-06)
(6.41477e-08 -4.08432e-08 -2.09423e-07 -3.49433e-08 -9.6933e-08 2.24384e-08)
(-1.07829e-06 4.53791e-08 -1.23973e-06 -7.63253e-07 -2.52648e-07 3.05497e-06)
(-5.65863e-07 1.45496e-08 -1.63621e-06 4.57747e-08 -2.20551e-07 8.87451e-07)
(-1.1288e-06 4.97438e-08 -1.22797e-06 -8.09547e-07 -2.68663e-07 3.22495e-06)
(-1.07415e-06 -3.50336e-08 -3.3621e-06 -1.81865e-06 5.48059e-07 9.33781e-06)
(-3.22934e-06 5.21821e-08 -1.32246e-06 -3.50867e-06 -1.73602e-07 1.02717e-05)
(-2.16638e-06 -4.16013e-08 -5.54274e-07 -1.65323e-06 -1.36308e-07 5.06572e-06)
(-7.44082e-07 3.59759e-08 -1.19111e-06 -5.0864e-07 -2.16513e-07 2.10296e-06)
(-2.64697e-07 -6.65188e-09 -1.50916e-06 1.96081e-07 -1.83253e-07 1.84261e-07)
(-6.96273e-07 3.45317e-08 -1.17369e-06 -4.6623e-07 -2.1535e-07 1.94957e-06)
(-2.70241e-06 -4.44479e-08 -5.97746e-07 -2.1365e-06 -1.46005e-07 6.63867e-06)
(-2.56861e-06 -4.38047e-08 -5.89087e-07 -2.0141e-06 -1.43586e-07 6.23737e-06)
(-1.82602e-07 -1.14534e-08 -1.40079e-06 2.42383e-07 -1.81322e-07 -3.25705e-08)
(-5.56974e-07 2.98016e-08 -1.1089e-06 -3.46154e-07 -2.11414e-07 1.51671e-06)
(2.8793e-10 -4.63163e-13 2.36658e-10 2.47296e-12 -4.78418e-13 5.64664e-09)
(2.88822e-10 9.70686e-12 2.55181e-10 -8.98587e-12 9.59453e-12 5.77928e-09)
(2.51672e-10 4.02699e-12 4.04831e-10 -5.51021e-12 3.68526e-11 5.35457e-09)
(-2.37597e-10 -9.07988e-13 -8.39602e-11 1.4439e-12 1.18148e-11 3.9793e-09)
(-2.40647e-10 2.1389e-12 -7.55979e-11 9.78409e-13 2.05609e-11 4.05893e-09)
(-2.14053e-06 -3.02727e-08 -1.51787e-07 -2.72764e-06 -9.98844e-08 9.79485e-06)
(-2.24017e-06 -2.95318e-08 -1.16105e-07 -2.83556e-06 -1.0633e-07 1.01813e-05)
(-6.06775e-07 -2.2482e-07 1.04976e-07 -1.96443e-06 2.09087e-08 4.4986e-06)
(-1.87779e-07 -1.24109e-07 -5.96368e-08 -1.05629e-06 -8.18364e-07 5.09399e-06)
(-9.34205e-07 -7.90767e-08 -4.03935e-07 -1.929e-06 -2.82761e-07 5.26871e-06)
(-1.2924e-06 4.24055e-08 -5.06475e-07 -1.47482e-06 -1.83846e-07 4.62901e-06)
(-9.99624e-07 -6.00068e-08 -2.02144e-07 -1.51549e-06 -1.05292e-07 4.05933e-06)
(-1.33882e-06 4.54477e-08 -5.1397e-07 -1.54711e-06 -1.99992e-07 4.83645e-06)
(-7.99236e-07 -2.16005e-07 -2.43378e-06 -3.59678e-06 -5.0418e-07 1.14968e-05)
(-2.25425e-06 -7.55697e-08 -7.12883e-07 -3.41639e-06 -7.27176e-08 1.15412e-05)
(-3.42182e-06 -4.93694e-08 -5.70102e-07 -2.77796e-06 -1.57498e-07 8.75231e-06)
(-3.28709e-06 -4.82183e-08 -5.91394e-07 -2.66301e-06 -1.56045e-07 8.37514e-06)
(-3.26347e-07 -3.37238e-09 -1.56486e-06 1.55599e-07 -1.86317e-07 3.50301e-07)
(-7.62611e-07 3.61792e-08 -1.19697e-06 -5.23638e-07 -2.18109e-07 2.15561e-06)
(-8.13395e-07 3.7511e-08 -1.2116e-06 -5.67367e-07 -2.20318e-07 2.31477e-06)
(-1.05556e-06 4.44036e-08 -1.24056e-06 -7.47423e-07 -2.47519e-07 2.99586e-06)
(-4.63243e-07 4.36094e-09 -1.63616e-06 8.09818e-08 -1.99698e-07 6.77806e-07)
(-9.92534e-07 4.1679e-08 -1.23993e-06 -7.02689e-07 -2.37935e-07 2.82012e-06)
(-2.74701e-06 -4.46722e-08 -6.00151e-07 -2.1774e-06 -1.46836e-07 6.77319e-06)
(-2.8811e-06 -4.54219e-08 -6.05448e-07 -2.30029e-06 -1.49331e-07 7.17798e-06)
(-2.10626e-06 -3.03807e-08 -1.62082e-07 -2.69097e-06 -9.79277e-08 9.66407e-06)
(-2.00055e-06 -3.05766e-08 -1.86454e-07 -2.57799e-06 -9.28618e-08 9.26455e-06)
(-8.27782e-07 -6.24963e-08 -2.25925e-07 -1.27306e-06 -7.46635e-08 3.37379e-06)
(-9.91491e-07 3.21171e-08 -5.28584e-07 -1.17774e-06 -1.50155e-07 3.6382e-06)
(-1.04689e-06 3.33457e-08 -5.25733e-07 -1.23156e-06 -1.51888e-07 3.81547e-06)
(-1.27587e-06 4.13933e-08 -5.07615e-07 -1.45402e-06 -1.78658e-07 4.56086e-06)
(-9.46459e-07 -6.3574e-08 -1.90513e-07 -1.40809e-06 -8.60586e-08 3.78319e-06)
(-1.21523e-06 3.83641e-08 -5.07823e-07 -1.39379e-06 -1.69123e-07 4.3652e-06)
(-1.55492e-06 -3.00041e-08 -2.24591e-07 -2.09865e-06 -8.00409e-08 7.60798e-06)
(-1.66713e-06 -3.02637e-08 -2.19778e-07 -2.22009e-06 -8.24562e-08 8.02536e-06)
(-1.09349e-06 -2.87646e-08 -2.33243e-07 -1.58253e-06 -7.2662e-08 5.82019e-06)
(-9.75608e-07 3.19257e-08 -5.31295e-07 -1.16046e-06 -1.48675e-07 3.57862e-06)
(-7.55686e-07 -5.95817e-08 -2.51625e-07 -1.19157e-06 -7.33943e-08 3.1264e-06)
(-9.213e-07 3.07149e-08 -5.3229e-07 -1.10623e-06 -1.48174e-07 3.40165e-06)
(-1.51778e-06 -2.99203e-08 -2.25838e-07 -2.05823e-06 -7.93148e-08 7.46896e-06)
(-1.40751e-06 -2.96999e-08 -2.28893e-07 -1.93739e-06 -7.73838e-08 7.05273e-06)
(-6.30723e-07 -5.36308e-08 -2.82508e-07 -1.03959e-06 -7.62562e-08 2.68149e-06)
(-7.67164e-07 2.68058e-08 -5.31375e-07 -9.42425e-07 -1.46823e-07 2.86593e-06)
(-2.4854e-10 -1.1818e-12 -4.33381e-10 -1.30838e-12 -1.06635e-11 2.71821e-09)
(2.10732e-10 3.26678e-13 8.72583e-11 1.63223e-12 1.24201e-12 -1.07223e-09)
(-2.48604e-10 1.42466e-12 -4.42329e-10 6.53762e-13 -3.18863e-12 2.67519e-09)
(2.53646e-10 -8.34916e-13 3.75704e-10 -6.61622e-13 -2.18451e-11 5.1972e-09)
(-2.35025e-10 5.23979e-13 -8.83243e-11 7.3574e-13 -9.24077e-13 3.91712e-09)
(-2.35341e-10 -5.05983e-13 -8.77967e-11 5.53383e-13 -6.63002e-12 3.9333e-09)
(2.10151e-10 -1.16734e-12 8.53753e-11 1.79767e-12 -6.84847e-12 -1.07634e-09)
(-2.48627e-10 1.11323e-12 -4.42696e-10 -6.17674e-13 7.43614e-13 2.65764e-09)
(-2.48508e-10 -1.12372e-12 -4.42856e-10 1.9244e-13 -6.939e-12 2.66841e-09)
(-3.59271e-10 2.33924e-10 9.67094e-11 -1.83321e-10 -3.37404e-10 4.09162e-09)
(6.72416e-11 8.35012e-11 6.78274e-10 1.54666e-10 8.30022e-11 6.7072e-10)
(-5.19822e-10 6.56432e-10 6.70401e-10 -3.83277e-10 -9.73838e-10 4.74374e-09)
(2.3141e-09 1.24543e-09 8.84687e-10 -5.38e-09 -9.02807e-09 7.81757e-09)
(1.83253e-09 2.3949e-09 -6.31911e-11 -4.37467e-09 -8.68332e-09 6.49987e-09)
(-1.69959e-10 1.17484e-09 1.40791e-09 -1.29108e-09 -2.74111e-09 6.38586e-09)
(3.89468e-12 6.17255e-11 7.32058e-10 3.50141e-10 2.20051e-10 7.65298e-10)
(4.50898e-10 1.89619e-09 -6.97739e-11 -1.33367e-09 -3.10874e-09 5.12208e-09)
(-5.51643e-10 9.06315e-10 8.81257e-10 -4.50754e-10 -1.30281e-09 4.94679e-09)
(-2.3611e-10 1.04968e-12 -7.2023e-11 5.60932e-13 -1.46082e-11 4.06116e-09)
(-2.4862e-10 2.08323e-12 -4.32533e-10 -6.95878e-13 -6.16989e-12 2.7295e-09)
(2.12474e-10 -1.16097e-12 1.03652e-10 1.59488e-12 -9.35415e-12 -9.91687e-10)
(-2.4885e-10 -3.82296e-13 -4.29721e-10 -1.5511e-13 -1.30966e-11 2.7715e-09)
(2.13047e-10 -4.34878e-14 1.06777e-10 1.68649e-12 -2.07841e-12 -9.80274e-10)
(-2.49127e-10 1.95177e-12 -4.2855e-10 4.17871e-13 -9.86656e-12 2.78753e-09)
(2.87955e-10 2.85284e-13 2.35761e-10 3.36346e-12 -7.90156e-12 5.63121e-09)
(2.94881e-10 1.51577e-10 3.87011e-10 -2.1672e-10 -1.31256e-10 6.41801e-09)
(2.4365e-10 8.26667e-11 6.09317e-10 -1.44194e-10 -1.75374e-10 5.99027e-09)
(-2.47856e-10 1.64542e-11 -1.55326e-11 -1.29025e-11 1.07893e-11 4.33563e-09)
(-2.59285e-10 5.16491e-11 7.28332e-11 -4.84111e-11 -4.87219e-11 4.62416e-09)
(-3.31868e-10 1.71186e-10 -2.67908e-11 -1.29126e-10 -2.16599e-10 3.89535e-09)
(2.05996e-10 2.39294e-11 2.40123e-10 -6.52896e-13 2.57705e-11 -5.03736e-10)
(-2.83703e-10 5.66117e-11 -2.65931e-10 -4.34715e-11 -4.68743e-11 3.40755e-09)
(-2.61296e-10 1.21726e-11 -3.8373e-10 -8.13604e-12 1.40747e-11 3.02953e-09)
(2.09646e-10 1.85766e-11 2.09449e-10 4.74868e-13 3.02322e-11 -6.00982e-10)
(-2.74738e-10 4.08706e-11 -3.05634e-10 -3.03897e-11 -1.7436e-11 3.29638e-09)
(-2.55111e-11 3.29067e-12 -7.71944e-10 3.72633e-13 1.60775e-12 -3.03887e-09)
(-1.30067e-10 -1.4239e-12 -4.55865e-10 1.18218e-12 -3.79053e-12 -6.37179e-10)
(-2.31661e-11 -3.55851e-12 -7.72467e-10 4.38788e-13 -2.74722e-12 -3.06073e-09)
(-1.30239e-10 4.77371e-13 -4.57371e-10 1.34798e-12 -2.20556e-12 -6.43501e-10)
(-2.70546e-11 -4.65637e-12 -7.86675e-10 3.26771e-13 -3.35156e-12 -3.08186e-09)
(-2.4933e-11 2.56752e-12 -7.78829e-10 5.17015e-13 1.31141e-12 -3.07536e-09)
(2.53189e-10 9.10506e-13 3.76262e-10 -4.45081e-13 2.07726e-11 5.19531e-09)
(-2.35066e-10 -1.67978e-12 -8.89617e-11 5.61167e-13 -1.42961e-12 3.91602e-09)
(-2.36112e-10 -8.00886e-14 -9.29327e-11 1.04548e-12 4.69751e-12 3.9209e-09)
(-2.50571e-10 1.12118e-12 -4.43017e-10 3.77304e-14 1.14984e-11 2.69118e-09)
(2.09403e-10 -1.12582e-12 7.87939e-11 2.06829e-12 -3.11017e-12 -1.10413e-09)
(-2.49567e-10 -1.85532e-12 -4.4836e-10 7.17918e-13 2.09319e-12 2.65639e-09)
(-2.48766e-10 -2.20662e-12 -4.43442e-10 -7.2314e-13 -3.45057e-12 2.65585e-09)
(2.09822e-10 3.63394e-13 7.8799e-11 1.9272e-12 4.83596e-12 -1.10835e-09)
(-2.49241e-10 5.49696e-13 -4.48547e-10 8.2465e-13 5.15083e-12 2.65054e-09)
(-2.95186e-11 -3.95524e-12 -7.99067e-10 4.19319e-13 -2.04874e-12 -3.11147e-09)
(-1.31277e-10 5.47263e-13 -4.65179e-10 1.61797e-12 1.12356e-12 -6.73986e-10)
(-2.7793e-11 2.69385e-12 -7.96437e-10 5.67569e-13 1.81073e-12 -3.12486e-09)
(-2.95689e-11 3.43238e-12 -7.9516e-10 4.07035e-13 2.02259e-12 -3.10316e-09)
(-1.30959e-10 -1.37198e-12 -4.65331e-10 1.41545e-12 -5.93304e-13 -6.78337e-10)
(-2.62807e-11 -3.58262e-12 -7.9106e-10 4.61491e-13 -2.39783e-12 -3.10981e-09)
(-3.03981e-06 -3.77836e-08 -7.08368e-07 -2.52542e-06 -1.81849e-07 8.11207e-06)
(-2.36253e-06 9.64567e-08 -1.00064e-06 -1.6735e-06 -2.28127e-07 6.30061e-06)
(-3.15218e-06 -3.77692e-08 -6.81867e-07 -2.63071e-06 -1.84107e-07 8.44566e-06)
(-3.70657e-06 -4.21259e-08 -5.45706e-07 -3.08199e-06 -1.64485e-07 9.65945e-06)
(-3.62814e-06 -4.92017e-08 -5.25294e-07 -2.96161e-06 -1.59824e-07 9.33255e-06)
(-2.38325e-06 9.81902e-08 -9.96173e-07 -1.70132e-06 -2.30295e-07 6.38747e-06)
(-3.2312e-06 -2.94583e-08 -7.04129e-07 -2.79083e-06 -1.90406e-07 8.86205e-06)
(-3.18356e-06 -3.70953e-08 -6.76432e-07 -2.66698e-06 -1.85087e-07 8.55271e-06)
(-4.7012e-12 1.02173e-11 -5.27289e-10 2.45193e-13 2.06473e-11 -2.24125e-09)
(-2.52752e-10 8.77282e-13 -4.86635e-11 1.2723e-10 1.22273e-10 1.23026e-09)
(1.56801e-11 -1.43557e-11 -4.18246e-10 6.57529e-12 1.39772e-11 -1.85492e-09)
(-2.88549e-10 -4.8716e-11 -4.52122e-11 2.69899e-10 2.58632e-10 1.34928e-09)
(2.01611e-10 -2.2886e-10 -5.57642e-10 2.10293e-10 3.32975e-10 -1.88818e-09)
(3.8229e-12 -1.8578e-11 -4.77273e-10 1.68186e-11 3.28461e-11 -1.96816e-09)
(6.1662e-08 -1.29617e-07 -3.09686e-07 -2.44614e-07 -1.90411e-07 5.88466e-08)
(5.20687e-09 1.73212e-09 -4.8584e-09 -6.3209e-09 -1.29456e-08 6.31361e-09)
(4.50907e-08 -3.86631e-08 -1.15373e-07 -4.58039e-08 -8.20542e-08 -2.53653e-08)
(-5.77272e-07 1.06808e-08 -1.2302e-06 -1.9276e-07 -3.97535e-07 9.65283e-07)
(-1.09339e-06 5.26915e-08 -1.15529e-06 -8.90083e-07 -3.08798e-07 3.41327e-06)
(-9.33827e-07 1.23278e-08 -9.86012e-07 -9.53986e-07 -3.21759e-07 3.3983e-06)
(-2.91315e-07 -1.40624e-07 -7.1396e-07 -7.28492e-07 -2.16537e-07 3.16497e-06)
(-1.36899e-06 1.13109e-07 -1.06848e-06 -1.95543e-06 -2.81664e-07 6.14375e-06)
(1.17756e-08 2.93898e-09 -6.51838e-08 1.38047e-08 8.49451e-08 6.86055e-08)
(-9.36438e-07 5.0816e-08 -8.75746e-07 -1.23946e-06 -2.57594e-07 4.01784e-06)
(5.94251e-08 -1.77162e-08 -1.59316e-07 -7.26041e-09 -3.87875e-08 3.90449e-08)
(-1.31447e-06 3.76177e-08 -1.12211e-06 -1.11186e-06 -2.94538e-07 4.11327e-06)
(-1.61013e-06 1.24348e-07 -1.05e-06 -1.89737e-06 -2.73171e-07 6.20485e-06)
(-1.0928e-06 2.42317e-08 -9.95991e-07 -1.18687e-06 -3.02442e-07 4.08237e-06)
(2.99051e-09 1.93558e-09 -3.1787e-09 -7.60324e-10 -3.91647e-09 4.89424e-09)
(7.36367e-09 -1.20174e-08 -2.93157e-08 8.04523e-08 5.31809e-08 -1.84583e-09)
(4.05441e-08 -2.61384e-08 -8.6524e-08 -2.65735e-08 -4.21803e-08 -4.95156e-09)
(-1.29768e-06 3.14886e-08 -1.19135e-06 -9.53987e-07 -2.50607e-07 3.69419e-06)
(-2.01422e-06 1.03092e-07 -9.76369e-07 -1.58271e-06 -2.27435e-07 5.85656e-06)
(-1.3551e-06 3.39661e-08 -1.1789e-06 -1.00976e-06 -2.64749e-07 3.88908e-06)
(-5.93299e-07 1.9076e-08 -1.61236e-06 4.46753e-08 -2.28277e-07 9.46352e-07)
(-1.12437e-06 5.42538e-08 -1.17661e-06 -8.73543e-07 -3.0216e-07 3.39525e-06)
(-1.14084e-06 5.12983e-08 -1.22141e-06 -8.26154e-07 -2.76388e-07 3.27696e-06)
(-2.03139e-06 1.04372e-07 -9.72647e-07 -1.61004e-06 -2.30869e-07 5.94007e-06)
(-1.34823e-06 3.76833e-08 -1.13835e-06 -1.09117e-06 -2.89981e-07 4.08941e-06)
(-1.36773e-06 3.5687e-08 -1.17242e-06 -1.02929e-06 -2.70689e-07 3.94911e-06)
(-3.71044e-06 -3.60293e-08 -5.8445e-07 -3.13109e-06 -1.66745e-07 9.77057e-06)
(-3.49993e-06 1.23634e-08 -9.81016e-07 -3.35999e-06 -1.80348e-07 1.01282e-05)
(-4.69336e-07 -2.32609e-07 -2.81514e-06 -1.51563e-06 3.18984e-07 7.78518e-06)
(-1.68421e-06 1.55849e-07 -1.23176e-06 -2.04926e-06 -2.51109e-07 6.60846e-06)
(-8.53509e-09 -3.14006e-08 -6.53756e-08 5.9806e-08 1.2462e-07 4.48896e-08)
(-2.59162e-06 5.97639e-08 -1.36697e-06 -3.22012e-06 -1.95649e-07 9.26123e-06)
(2.30582e-08 -3.50105e-08 -3.54886e-08 7.5463e-08 5.52218e-08 -1.17087e-08)
(-3.21607e-06 -2.31706e-08 -7.45143e-07 -2.84266e-06 -1.92584e-07 8.96181e-06)
(-1.94761e-06 1.46254e-07 -1.15985e-06 -2.00171e-06 -2.7357e-07 6.64844e-06)
(-2.9034e-06 2.49598e-08 -1.09863e-06 -3.0797e-06 -2.03195e-07 9.19286e-06)
(4.35584e-10 -5.57199e-10 -8.59663e-10 5.65171e-10 8.23173e-10 -2.30072e-09)
(5.44244e-09 -2.06958e-08 -2.761e-08 8.56506e-08 6.11438e-08 -7.41712e-09)
(5.44604e-09 -7.56418e-09 -8.72766e-09 5.75257e-09 1.1979e-08 -8.35031e-09)
(-2.34538e-06 -4.2708e-08 -5.70999e-07 -1.81214e-06 -1.3947e-07 5.57931e-06)
(-2.21114e-06 -4.1862e-08 -5.58614e-07 -1.69267e-06 -1.3709e-07 5.19284e-06)
(-1.33909e-06 6.64646e-08 -9.52379e-07 -8.08948e-07 -1.90695e-07 3.25411e-06)
(-1.85037e-06 -3.4733e-08 -6.85505e-07 -1.45954e-06 -1.56804e-07 4.57798e-06)
(-2.01082e-06 -3.49972e-08 -7.05642e-07 -1.60397e-06 -1.60057e-07 5.04996e-06)
(-1.36896e-06 6.76103e-08 -9.59397e-07 -8.33769e-07 -1.91543e-07 3.34221e-06)
(-1.89038e-06 -3.48203e-08 -6.90722e-07 -1.49535e-06 -1.57588e-07 4.6947e-06)
(-9.1719e-07 2.34946e-08 -1.15549e-06 -6.53551e-07 -2.16795e-07 2.59392e-06)
(-1.34431e-06 8.25627e-08 -9.81008e-07 -9.96602e-07 -1.9025e-07 3.79989e-06)
(-8.60372e-07 2.29434e-08 -1.13863e-06 -6.02513e-07 -2.14587e-07 2.41353e-06)
(-2.46388e-07 -7.71813e-09 -1.48894e-06 2.07762e-07 -1.82664e-07 1.34583e-07)
(-6.3321e-07 3.25621e-08 -1.14703e-06 -4.11164e-07 -2.13578e-07 1.7517e-06)
(-6.78688e-07 3.4255e-08 -1.16693e-06 -4.51783e-07 -2.1406e-07 1.89892e-06)
(-1.3172e-06 8.16485e-08 -9.76077e-07 -9.71736e-07 -1.89538e-07 3.71406e-06)
(-7.85985e-07 2.1339e-08 -1.11312e-06 -5.36593e-07 -2.122e-07 2.18016e-06)
(-8.40472e-07 2.21176e-08 -1.13257e-06 -5.85739e-07 -2.1381e-07 2.35424e-06)
(-2.39006e-06 -4.29391e-08 -5.74921e-07 -1.85226e-06 -1.40306e-07 5.70964e-06)
(-2.524e-06 -4.35839e-08 -5.85775e-07 -1.97347e-06 -1.42784e-07 6.10458e-06)
(-2.33489e-06 -3.51702e-08 -7.38395e-07 -1.90028e-06 -1.66956e-07 6.0271e-06)
(-1.61228e-06 7.60677e-08 -1.00981e-06 -1.04303e-06 -1.98646e-07 4.07554e-06)
(-2.21287e-06 -3.51232e-08 -7.27634e-07 -1.78829e-06 -1.64341e-07 5.65641e-06)
(-2.05112e-06 -3.50373e-08 -7.10376e-07 -1.64053e-06 -1.60908e-07 5.16993e-06)
(-1.58142e-06 7.50765e-08 -1.00421e-06 -1.01598e-06 -1.97736e-07 3.98139e-06)
(-2.17234e-06 -3.51121e-08 -7.23572e-07 -1.75116e-06 -1.63497e-07 5.53389e-06)
(-1.10587e-06 7.34474e-08 -9.29388e-07 -7.80666e-07 -1.84592e-07 3.04929e-06)
(-6.9596e-07 1.85816e-08 -1.07685e-06 -4.58594e-07 -2.09791e-07 1.90145e-06)
(-1.97205e-07 -1.0647e-08 -1.42401e-06 2.35714e-07 -1.81577e-07 4.24766e-09)
(-6.16428e-07 3.21899e-08 -1.13945e-06 -3.97424e-07 -2.12491e-07 1.70322e-06)
(-5.72984e-07 3.02435e-08 -1.11721e-06 -3.59073e-07 -2.12388e-07 1.56279e-06)
(-1.13176e-06 7.45532e-08 -9.35796e-07 -8.03675e-07 -1.85148e-07 3.13001e-06)
(-7.66847e-07 2.04603e-08 -1.10625e-06 -5.2054e-07 -2.11588e-07 2.12309e-06)
(-7.14329e-07 1.94765e-08 -1.08446e-06 -4.73796e-07 -2.10312e-07 1.95604e-06)
(-2.36714e-11 -4.55295e-12 -7.64867e-10 3.0909e-13 -3.55707e-12 -3.02363e-09)
(-1.3011e-10 4.97779e-13 -4.41903e-10 1.219e-12 -4.3362e-12 -5.56014e-10)
(-2.04338e-11 2.55741e-12 -7.51628e-10 4.75588e-13 1.01536e-12 -3.00118e-09)
(-1.30066e-10 -1.72277e-12 -4.39074e-10 1.37027e-12 -6.60637e-12 -5.41214e-10)
(-1.88968e-11 -3.62777e-12 -7.45511e-10 4.94136e-13 -3.07731e-12 -2.98834e-09)
(2.87718e-10 1.03425e-12 2.34648e-10 2.35004e-12 6.74813e-12 5.62964e-09)
(2.88985e-10 1.79522e-11 2.70254e-10 -2.28975e-11 -5.89034e-12 5.86866e-09)
(2.53871e-10 2.88575e-12 4.15053e-10 -5.83393e-12 6.9827e-12 5.39921e-09)
(-2.45457e-10 1.2838e-11 -3.26735e-11 -7.94019e-12 1.82998e-11 4.26345e-09)
(-2.41983e-10 2.83136e-12 -6.93552e-11 3.94885e-13 2.06878e-11 4.09845e-09)
(-2.51186e-10 -1.96977e-12 -4.41626e-10 1.7041e-13 7.73798e-12 2.70689e-09)
(2.11222e-10 2.0858e-12 9.38591e-11 3.25374e-12 1.36717e-11 -1.04045e-09)
(-2.53407e-10 1.71437e-12 -4.36632e-10 1.27509e-12 1.84882e-11 2.76994e-09)
(-2.58796e-10 1.06773e-11 -3.9816e-10 -5.53141e-12 2.12503e-11 2.96433e-09)
(2.10996e-10 8.87629e-13 9.96244e-11 3.47413e-12 6.70664e-12 -1.0149e-09)
(-2.54774e-10 7.51592e-13 -4.32284e-10 1.31151e-12 1.63117e-11 2.80406e-09)
(-1.1939e-11 4.07854e-12 -5.89664e-10 1.07388e-12 1.55502e-11 -2.43282e-09)
(-1.4984e-10 1.51979e-11 -3.44276e-10 3.40643e-12 3.65745e-11 -4.0527e-11)
(-1.92559e-11 2.22338e-12 -6.93883e-10 1.38609e-12 7.54465e-12 -2.80849e-09)
(-1.44972e-10 9.46631e-12 -3.6862e-10 2.92967e-12 2.99555e-11 -1.523e-10)
(-2.38772e-11 5.87018e-12 -7.49842e-10 5.61607e-13 7.59617e-12 -2.97373e-09)
(-1.32622e-11 -3.57437e-12 -6.87104e-10 6.40176e-13 2.36061e-12 -2.79615e-09)
(-3.08142e-11 3.9517e-12 -8.02195e-10 4.44166e-13 3.21407e-12 -3.12288e-09)
(-1.33328e-10 -1.32716e-13 -4.57529e-10 2.57893e-12 8.264e-12 -6.11871e-10)
(-2.58381e-11 -3.81044e-12 -7.86976e-10 5.25426e-13 -1.49508e-12 -3.0934e-09)
(-1.34234e-10 1.66485e-12 -4.52733e-10 3.01689e-12 1.03887e-11 -5.81928e-10)
(-2.68649e-11 -1.38267e-12 -7.67978e-10 6.42889e-13 2.47703e-12 -3.00979e-09)
(-2.94323e-11 1.93414e-12 -7.96905e-10 8.74351e-13 2.70268e-12 -3.11846e-09)
(-2.27651e-06 -5.87787e-08 -1.63903e-07 -2.6362e-06 -1.12481e-07 9.29569e-06)
(-1.99584e-06 4.07505e-08 -2.44681e-07 -2.65705e-06 -1.36044e-07 8.13785e-06)
(-2.38188e-06 -5.89122e-08 -1.32812e-07 -2.74499e-06 -1.1875e-07 9.6806e-06)
(-2.3625e-06 -2.76783e-08 -9.67711e-08 -2.99238e-06 -1.12756e-07 1.07106e-05)
(-2.27224e-06 -2.91355e-08 -1.04564e-07 -2.87183e-06 -1.08471e-07 1.03095e-05)
(-2.02032e-06 4.04941e-08 -2.46977e-07 -2.69859e-06 -1.37954e-07 8.25808e-06)
(-2.49867e-06 -5.99953e-08 -1.37924e-07 -2.91091e-06 -1.21509e-07 1.02231e-05)
(-2.41535e-06 -5.89234e-08 -1.2478e-07 -2.78265e-06 -1.20501e-07 9.81118e-06)
(-7.74408e-07 -1.69657e-07 -1.82814e-07 -1.87749e-06 -2.25926e-07 4.47984e-06)
(-1.28739e-06 3.00151e-08 -5.28868e-07 -1.70642e-06 -2.51602e-07 5.15469e-06)
(-1.07409e-06 -5.84835e-08 -4.72117e-07 -1.85685e-06 -2.77634e-07 5.29384e-06)
(-2.02462e-07 -1.12103e-07 -2.15601e-07 -1.13726e-06 -9.60753e-07 5.70191e-06)
(-1.41248e-06 -2.7225e-08 -6.81767e-07 -2.91669e-06 -1.49133e-07 7.92979e-06)
(-1.04523e-06 -8.73913e-08 -4.56963e-07 -2.15001e-06 -2.78215e-07 5.8915e-06)
(-1.45064e-06 1.43424e-08 -5.26494e-07 -1.92e-06 -2.32008e-07 5.80303e-06)
(-1.62656e-06 1.49734e-08 -6.28357e-07 -2.81285e-06 -1.6465e-07 7.94815e-06)