/*--------------------------------*- C++ -*----------------------------------*\
| =========                 |                                                 |
| \\      /  F ield         | OpenFOAM: The Open Source CFD Toolbox           |
|  \\    /   O peration     | Version:  2012                                  |
|   \\  /    A nd           | Website:  www.openfoam.com                      |
|    \\/     M anipulation  |                                                 |
\*---------------------------------------------------------------------------*/
FoamFile
{
    version     2.0;
    format      ascii;
    class       volVectorField;
    location    "0.106/solid";
    object      sigmaMinDir;
}
// * * * * * * * * * * * * * * * * * * * * * * * * * * * * * * * * * * * * * //

dimensions      [1 -1 -2 0 0 0 0];


internalField   nonuniform List<vector> 
3125
(
(0.0754909 -0.00517797 0.997133)
(0.135719 -0.196513 0.971063)
(0.0449187 -0.00078046 0.99899)
(0.075832 -0.000838479 0.99712)
(0.0445639 -0.00167746 0.999005)
(0.0808877 -0.0692596 0.994314)
(0.129852 -0.138075 0.981873)
(0.0841704 -0.109184 0.990451)
(0.0756952 0.00505851 0.997118)
(-0.285498 -0.0147667 0.958266)
(-0.551727 -0.095923 0.82849)
(-0.63866 -0.100802 0.762858)
(0.0445665 0.0016367 0.999005)
(0.04526 0.000487674 0.998975)
(0.0759823 0.000706193 0.997109)
(0.056986 -0.0727882 0.995718)
(-0.0388766 -0.0173468 0.999093)
(-0.630608 -0.098759 0.769792)
(-0.563176 -0.0939469 0.820979)
(-0.0567973 -0.015432 0.998266)
(-0.0389639 -0.016585 0.999103)
(-0.0604259 -0.015676 0.99805)
(0.997448 -0.00233747 0.0713636)
(0.0747828 0.00209374 0.997198)
(0.99818 -0.00351307 0.0602064)
(0.700882 0.114581 0.704014)
(-0.263962 -0.508952 0.819324)
(-0.0395966 0.864502 0.501068)
(0.997211 -0.00689551 0.0743181)
(0.0439738 0.000415909 0.999033)
(0.0558033 -0.00866768 0.998404)
(0.089328 -0.00615385 0.995983)
(0.787816 0.148818 0.597661)
(0.989403 0.0499256 0.136344)
(0.857801 0.0131517 -0.513814)
(0.867053 0.00225175 -0.498211)
(0.0747976 -0.00225425 0.997196)
(0.998187 0.00277037 0.0601209)
(0.998239 -0.00235099 0.0592694)
(0.866308 -0.0147574 -0.499292)
(0.867468 0.00489971 -0.497469)
(-0.120552 -0.0299613 0.992255)
(-0.110458 -0.0293165 0.993448)
(-0.173621 0.0790186 0.981637)
(-0.197782 0.800549 0.565689)
(-0.367732 -0.506759 0.779724)
(-0.509374 -0.109921 0.853496)
(-0.167954 -0.0650034 0.983649)
(-0.118878 -0.0319468 0.992395)
(-0.121715 0.856846 0.500999)
(-0.128797 -0.0317283 0.991163)
(-0.514619 -0.117341 0.849352)
(-0.1176 -0.0318081 0.992551)
(-0.214251 -0.0254266 0.976448)
(-0.112434 -0.0294011 0.993224)
(-0.242505 0.809316 0.534975)
(-0.183415 -0.043214 0.982085)
(-0.173191 -0.0384401 0.984138)
(-0.660691 -0.107864 0.742868)
(-0.192967 -0.0436919 0.980232)
(-0.162361 -0.0373463 0.986024)
(-0.180599 -0.0423803 0.982643)
(-0.667305 -0.110421 0.736554)
(-0.196014 -0.0445707 0.979588)
(0.855378 0.013518 -0.517828)
(0.0438647 -0.000511646 0.999037)
(0.0513135 -0.00222702 0.99868)
(0.0857611 0.00185652 0.996314)
(0.998041 0.00279987 0.0625029)
(0.992483 0.0443376 0.114067)
(-0.303252 0.0912987 0.948527)
(0.799566 -0.0576487 -0.597805)
(0.863482 -0.0132025 -0.504206)
(0.821432 -0.0544918 -0.567698)
(-0.0262727 -0.0125532 0.999576)
(-0.0276206 -0.0122528 0.999543)
(-0.041288 -0.0288388 0.998731)
(-0.106193 -0.115505 0.987614)
(-0.0498533 -0.0169019 0.998614)
(-0.0472345 -0.0165428 0.998747)
(-0.0419957 -0.0234073 0.998844)
(-0.0471452 -0.0170445 0.998743)
(-0.112441 -0.0932629 0.989272)
(-0.030931 -0.011798 0.999452)
(-0.123145 -0.0302328 0.991928)
(-0.140836 -0.0327165 0.989492)
(-0.604252 -0.0941383 0.791213)
(-0.170541 -0.0378185 0.984625)
(-0.152557 -0.0342846 0.9877)
(-0.131459 -0.0318894 0.990809)
(-0.594679 -0.0932393 0.798538)
(-0.149994 -0.0338887 0.988106)
(-0.159916 -0.0367362 0.986447)
(-0.143236 -0.033145 0.989133)
(-0.0272671 -0.0124981 0.99955)
(-0.0348106 -0.0123296 0.999318)
(-0.0468325 -0.0152632 0.998786)
(-0.0685859 -0.0173633 0.997494)
(-0.0591178 -0.0164581 0.998115)
(-0.0484273 -0.0164645 0.998691)
(-0.0440392 -0.015402 0.998911)
(-0.0577709 -0.0163959 0.998195)
(-0.0431454 -0.0128252 0.998986)
(-0.0358633 -0.0123523 0.99928)
(-0.0531998 -0.0143311 0.998481)
(-0.0699715 -0.0175634 0.997394)
(-0.0718381 -0.0169558 0.997272)
(-0.0802568 -0.0194663 0.996584)
(-0.0441992 -0.0129447 0.998939)
(-0.0520067 -0.0141132 0.998547)
(-0.0758098 -0.0175676 0.996968)
(-0.0818328 -0.0198101 0.996449)
(-0.0187385 -0.00280833 0.99982)
(0.0755532 0.000792208 0.997141)
(-0.0208008 -0.00157584 0.999782)
(0.0855299 -0.0981361 0.991491)
(0.0666044 -0.377909 0.923444)
(0.136286 -0.221537 0.965581)
(0.0451763 -0.00223969 0.998977)
(0.0767942 -0.00643269 0.997026)
(-0.0183914 -0.00260295 0.999827)
(-0.0172426 -0.00367379 0.999845)
(0.0441949 -0.000146728 0.999023)
(0.0716449 -0.0379946 0.996706)
(0.111087 -0.0485717 0.992623)
(0.0672066 -0.0687226 0.99537)
(0.0237793 -0.019276 0.999531)
(0.0755743 -0.00106454 0.99714)
(-0.0205524 0.00303896 0.999784)
(-0.0221537 0.00123104 0.999754)
(-0.0452583 -0.0132706 0.998887)
(-0.0413754 -0.0128993 0.99906)
(0.752884 0.32579 -0.571863)
(-0.393614 0.155505 0.906028)
(-0.22636 -0.0738659 0.971239)
(-0.189453 -0.0542007 0.980393)
(0.714913 0.127697 -0.687454)
(-0.266103 -0.0610758 0.962008)
(-0.539792 -0.0998616 0.835854)
(-0.253255 -0.0621785 0.965399)
(-0.282116 0.0439664 0.958372)
(-0.0966019 -0.0127825 0.995241)
(-0.0758225 -0.0196244 0.996928)
(-0.339809 -0.0703675 0.937858)
(-0.646369 -0.102999 0.756041)
(-0.353104 -0.0740424 0.93265)
(-0.0635017 -0.0162064 0.99785)
(-0.0663416 -0.016923 0.997653)
(-0.679334 -0.115822 0.724631)
(-0.395148 -0.0868363 0.914504)
(0.0440347 -8.81317e-05 0.99903)
(0.0463304 0.00172995 0.998925)
(0.0785962 0.00687176 0.996883)
(-0.019899 0.0029728 0.999798)
(-0.0175713 0.00505492 0.999833)
(-0.0126929 -0.00794309 0.999888)
(-0.00932553 -0.00814562 0.999923)
(0.0204376 0.00252265 0.999788)
(-0.0079899 -0.129514 0.991545)
(-0.0640704 -0.0382757 0.997211)
(-0.0847068 -0.030344 0.995944)
(-0.0396231 -0.0184097 0.999045)
(-0.0824843 -0.0315525 0.996093)
(-0.18661 -0.0292078 0.982)
(-0.0514428 -0.00458383 0.998665)
(-0.0466096 -0.0134105 0.998823)
(-0.0504449 -0.0138569 0.998631)
(-0.622197 -0.0969472 0.776835)
(-0.3353 -0.0695115 0.939543)
(-0.322328 -0.0664814 0.944291)
(-0.270501 -0.0608116 0.960797)
(-0.574163 -0.0929539 0.813447)
(-0.283466 -0.0613325 0.957019)
(-0.0625703 -0.0159872 0.997913)
(-0.0597759 -0.015376 0.998093)
(-0.0137448 -0.00788943 0.999874)
(-0.016522 -0.00779491 0.999833)
(-0.0532941 -0.0152827 0.998462)
(-0.112057 -0.031296 0.993209)
(-0.106336 -0.0302478 0.99387)
(-0.0860929 -0.0299265 0.995838)
(-0.0399516 -0.0160451 0.999073)
(-0.089974 -0.0295726 0.995505)
(-0.0244596 -0.00816248 0.999667)
(-0.0226305 -0.00797453 0.999712)
(-0.0336339 -0.00966772 0.999387)
(-0.1144 -0.0314832 0.992936)
(-0.0641428 -0.0160108 0.997812)
(-0.120463 -0.0329254 0.992172)
(-0.0250763 -0.00823798 0.999652)
(-0.0269927 -0.00850856 0.999599)
(-0.0840252 -0.0190762 0.996281)
(-0.141763 -0.0383094 0.989159)
(-0.141642 -0.00373477 0.989911)
(0.997714 0.0019061 0.0675483)
(-0.146379 -0.00122731 0.989228)
(0.0753488 -0.00417993 0.997148)
(-0.0212576 -0.000238628 0.999774)
(-0.021047 -0.00168197 0.999777)
(0.997793 -0.00755366 0.065967)
(-0.14732 0.000209786 0.989089)
(-0.146864 -0.00245015 0.989154)
(0.0174921 -0.0772183 0.996861)
(0.542607 0.117835 0.831681)
(0.0998298 -0.166018 0.981057)
(0.0225169 -0.451245 0.892116)
(-0.127875 -0.491569 0.861399)
(0.133055 -0.281829 0.950194)
(0.497158 0.234971 0.835238)
(-0.134512 -0.394294 0.909087)
(0.11487 -0.201534 0.972722)
(-0.0167537 -0.00360024 0.999853)
(-0.140878 -0.00229312 0.990024)
(0.996324 -0.00889042 0.0852029)
(-0.138163 -0.00456199 0.990399)
(0.996082 -0.00102838 0.0884277)
(-0.137114 -0.0035275 0.990549)
(0.0439947 -0.00139784 0.999031)
(0.0623489 -0.0182439 0.997888)
(0.103801 -0.0267271 0.994239)
(-0.00337988 0.00246829 0.999991)
(0.0147986 -0.0102585 0.999838)
(-0.0084887 -0.0539414 0.998508)
(0.949971 0.106853 0.293491)
(-0.0716902 -0.0146383 0.99732)
(-0.114291 0.00408555 0.993439)
(0.96661 0.0957739 0.237682)
(-0.0847274 -0.00621433 0.996385)
(0.971961 0.0175891 -0.234485)
(0.861976 0.00507288 -0.506923)
(0.972311 -0.017449 -0.233039)
(0.862878 0.0112027 -0.505289)
(0.971611 -0.0228597 -0.235479)
(0.97218 0.0135214 -0.233845)
(0.0754804 0.00397791 0.997139)
(-0.0214161 -0.000355676 0.999771)
(-0.0223389 0.00119791 0.99975)
(-0.145749 0.00406759 0.989313)
(0.998199 -0.0061749 0.0596785)
(-0.149097 0.000861616 0.988822)
(-0.14763 -0.00113377 0.989042)
(0.998225 0.00305919 0.0594723)
(-0.149451 0.00184389 0.988767)
(0.971334 -0.0203447 -0.236847)
(0.867142 -0.000633289 -0.498061)
(0.971841 0.0133272 -0.235261)
(0.971492 0.017459 -0.23643)
(0.86802 -0.00669944 -0.496484)
(0.97189 -0.0177545 -0.234765)
(-0.0630575 -0.0167594 0.997869)
(-0.113452 -0.0293383 0.99311)
(-0.058415 -0.0163286 0.998159)
(-0.0406766 -0.012739 0.999091)
(-0.0403723 -0.0128025 0.999103)
(-0.111636 -0.0292071 0.99332)
(-0.0578705 -0.0161034 0.998194)
(-0.0572785 -0.0162176 0.998227)
(0.974794 0.0481658 -0.217846)
(-0.0322136 0.10864 0.993559)
(0.964339 -0.165335 -0.206675)
(-0.0323205 0.222459 0.974406)
(0.724012 -0.643391 -0.248708)
(0.945248 -0.241157 -0.219884)
(-0.685937 -0.0790169 0.723358)
(-0.404646 -0.472239 0.783104)
(0.770886 0.120572 -0.625458)
(-0.466033 -0.183282 0.865575)
(-0.233857 -0.0677375 0.969909)
(-0.210673 -0.068951 0.975122)
(-0.192276 -0.0458072 0.980271)
(-0.138362 -0.0356502 0.98974)
(-0.363343 0.486347 0.794637)
(-0.168953 -0.0483687 0.984437)
(0.722264 0.06412 -0.688639)
(-0.19431 -0.0541346 0.979445)
(-0.131174 -0.034779 0.990749)
(-0.182101 -0.0550783 0.981736)
(-0.517092 -0.400377 0.756514)
(-0.227146 0.858735 0.459324)
(0.784109 0.0419466 -0.619203)
(-0.220326 -0.0509158 0.974097)
(-0.121523 -0.0314779 0.992089)
(-0.209222 -0.0514266 0.976515)
(-0.527939 -0.104373 0.842844)
(-0.23695 -0.06679 0.969223)
(-0.249144 -0.0630933 0.966409)
(-0.119622 -0.0314777 0.99232)
(-0.196497 -0.0536972 0.979033)
(-0.205732 -0.0518872 0.977232)
(-0.0431878 -0.0127635 0.998985)
(-0.0714255 -0.0133291 0.997357)
(-0.295103 0.0366485 0.954762)
(-0.144229 -0.0306206 0.98907)
(-0.312659 0.670544 0.672766)
(-0.113137 -0.0159119 0.993452)
(-0.426152 0.794108 0.433344)
(-0.0607944 -0.0160967 0.998021)
(-0.131736 -0.0329385 0.990737)
(-0.0897199 -0.0165324 0.99583)
(-0.647935 0.698908 0.302832)
(-0.254287 0.855414 0.451227)
(-0.592227 0.666005 0.453546)
(-0.0713677 -0.0182979 0.997282)
(-0.0746656 -0.0192721 0.997022)
(-0.195333 -0.0468762 0.979616)
(-0.104646 -0.024905 0.994198)
(-0.0982901 -0.0231589 0.994888)
(-0.192241 -0.0459084 0.980273)
(-0.102994 -0.0244382 0.994382)
(-0.285922 -0.059357 0.956413)
(-0.181369 -0.0405001 0.982581)
(-0.298009 -0.0623792 0.952523)
(-0.65372 -0.105352 0.749367)
(-0.37142 -0.079368 0.925066)
(-0.357744 -0.0750942 0.930795)
(-0.184191 -0.0412501 0.982024)
(-0.314886 -0.0669328 0.946767)
(-0.302232 -0.0633789 0.951125)
(-0.0703239 -0.0180035 0.997362)
(-0.0673095 -0.0171804 0.997584)
(-0.0871544 -0.0204143 0.995986)
(-0.169903 -0.0393391 0.984675)
(-0.0911513 -0.0213467 0.995608)
(-0.0968019 -0.0227681 0.995043)
(-0.172501 -0.0400588 0.984194)
(-0.0925205 -0.0216845 0.995475)
(-0.208874 -0.0484514 0.976742)
(-0.337253 -0.0735186 0.938539)
(-0.673531 -0.113065 0.730461)
(-0.376198 -0.0806025 0.923027)
(-0.39024 -0.0854312 0.916741)
(-0.205544 -0.0474232 0.977498)
(-0.319318 -0.0681019 0.945197)
(-0.332602 -0.0721786 0.940301)
(0.972095 -0.0224909 -0.233509)
(0.846612 0.0186442 -0.531884)
(0.972754 0.0142646 -0.231402)
(0.843673 0.0141508 -0.536671)
(0.972902 -0.017926 -0.230521)
(0.0437994 0.00120387 0.99904)
(0.0482632 -0.00084968 0.998834)
(0.079892 0.00132227 0.996803)
(-0.00723354 0.00426206 0.999965)
(-0.0159689 0.00503495 0.99986)
(-0.144573 0.00286563 0.98949)
(0.997116 0.0144106 0.0745091)
(-0.140119 0.00638216 0.990114)
(-0.120783 0.00656118 0.992657)
(0.996732 0.00660871 0.0805083)
(-0.137288 0.00560781 0.990515)
(0.974421 0.00390421 -0.224696)
(-0.644874 0.0717478 0.760914)
(0.973472 0.00307684 -0.228787)
(0.707303 -0.0659927 -0.703824)
(0.972178 0.025353 -0.232868)
(0.973448 -0.027392 -0.227262)
(0.971336 0.0187006 -0.236976)
(0.854878 -0.0310978 -0.517897)
(0.971838 -0.0204625 -0.234758)
(0.848994 -0.0282381 -0.527648)
(0.971796 -0.0121484 -0.235511)
(0.971746 0.0076111 -0.235908)
(-0.0141099 -0.00935346 0.999857)
(-0.0241691 -0.0126802 0.999627)
(-0.0109604 -0.00950194 0.999895)
(-0.00738356 -0.00821223 0.999939)
(-0.00828999 -0.00820912 0.999932)
(-0.0240518 -0.0126662 0.99963)
(-0.0107949 -0.00919943 0.999899)
(-0.0101568 -0.00951797 0.999903)
(-0.0335493 -0.0345255 0.998841)
(-0.0812784 -0.0366008 0.996019)
(-0.0730232 -0.0378584 0.996611)
(-0.0328071 -0.135804 0.990192)
(-0.072341 -0.0134667 0.997289)
(-0.0649097 -0.0336357 0.997324)
(-0.0719751 -0.0299091 0.996958)
(-0.0652065 -0.015295 0.997755)
(-0.0699823 -0.0311046 0.997063)
(-0.0732091 -0.026345 0.996969)
(-0.0446398 -0.0168346 0.998861)
(-0.0708971 -0.0272087 0.997112)
(-0.0411105 -0.020189 0.998951)
(-0.0814004 -0.0352481 0.996058)
(-0.0818524 -0.0323238 0.99612)
(-0.0443697 -0.0169252 0.998872)
(-0.0712023 -0.0292585 0.997033)
(-0.070533 -0.0276119 0.997127)
(-0.00895574 -0.00801104 0.999928)
(-0.0316608 -0.0064057 0.999478)
(-0.172683 -0.0452474 0.983938)
(-0.0632624 -0.00642393 0.997976)
(-0.055313 -0.00447669 0.998459)
(-0.013219 -0.0087988 0.999874)
(-0.0512994 -0.00938579 0.998639)
(-0.0375927 -0.00646244 0.999272)
(-0.0647244 -0.0169201 0.99776)
(-0.130922 -0.0311795 0.990902)
(-0.0695654 -0.0174449 0.997425)
(-0.0548988 -0.0144946 0.998387)
(-0.0516253 -0.0140124 0.998568)
(-0.133457 -0.0315357 0.990553)
(-0.0753862 -0.0182232 0.996988)
(-0.0710875 -0.0176318 0.997314)
(-0.613424 -0.095375 0.783974)
(-0.305106 -0.0634825 0.9502)
(-0.317908 -0.0658307 0.945833)
(-0.28188 -0.0585329 0.957663)
(-0.162761 -0.0361323 0.986004)
(-0.270238 -0.0560609 0.96116)
(-0.254913 -0.0534947 0.965483)
(-0.160202 -0.0356282 0.986441)
(-0.266317 -0.0554137 0.962291)
(-0.224211 -0.0508771 0.973212)
(-0.139525 -0.03257 0.989683)
(-0.23572 -0.0514476 0.970458)
(-0.58466 -0.0927988 0.805953)
(-0.300716 -0.0630537 0.951627)
(-0.287881 -0.0614827 0.955691)
(-0.142183 -0.0328583 0.989295)
(-0.251035 -0.0530283 0.966524)
(-0.239625 -0.0517022 0.969488)
(-0.0559163 -0.0146603 0.998328)
(-0.0588358 -0.015189 0.998152)
(-0.0858526 -0.0201286 0.996104)
(-0.152724 -0.0350598 0.987647)
(-0.0819817 -0.0193411 0.996446)
(-0.0767447 -0.0184316 0.99688)
(-0.150354 -0.0345474 0.988028)
(-0.0806931 -0.0190997 0.996556)
(-0.0151841 -0.00929899 0.999841)
(-0.0304981 -0.0123609 0.999458)
(-0.0181518 -0.00918594 0.999793)
(-0.019486 -0.00780251 0.99978)
(-0.017327 -0.00778396 0.99982)
(-0.0315889 -0.0123372 0.999425)
(-0.0214716 -0.00916864 0.999727)
(-0.0190416 -0.00916721 0.999777)
(-0.0499419 -0.015222 0.998636)
(-0.0987442 -0.0295261 0.994675)
(-0.104108 -0.0301804 0.994108)
(-0.0989239 -0.0273553 0.994719)
(-0.0644976 -0.0168716 0.997775)
(-0.0934904 -0.0266028 0.995265)
(-0.0864968 -0.0259791 0.995913)
(-0.0631506 -0.0167412 0.997864)
(-0.0916552 -0.0264136 0.99544)
(-0.0743939 -0.0261554 0.996886)
(-0.0523567 -0.0163246 0.998495)
(-0.0784106 -0.0258347 0.996586)
(-0.0416954 -0.0156555 0.999008)
(-0.0966579 -0.0295819 0.994878)
(-0.0918177 -0.0293648 0.995343)
(-0.0537094 -0.0163159 0.998423)
(-0.0847599 -0.0258942 0.996065)
(-0.0799773 -0.0257983 0.996463)
(-0.0201432 -0.00782212 0.999767)
(-0.0220241 -0.00792659 0.999726)
(-0.02713 -0.00954833 0.999586)
(-0.0400207 -0.0125503 0.99912)
(-0.0250562 -0.0093402 0.999642)
(-0.0222196 -0.00918565 0.999711)
(-0.0389864 -0.0124802 0.999162)
(-0.0243642 -0.00928898 0.99966)
(-0.0304917 -0.00907235 0.999494)
(-0.0328214 -0.00950496 0.999416)
(-0.0582136 -0.0153365 0.998186)
(-0.0372357 -0.0113359 0.999242)
(-0.0338265 -0.0106195 0.999371)
(-0.0569266 -0.0150598 0.998265)
(-0.0363568 -0.0111388 0.999277)
(-0.100849 -0.027649 0.994517)
(-0.0742366 -0.0182728 0.997073)
(-0.106585 -0.0287285 0.993888)
(-0.0679555 -0.0164378 0.997553)
(-0.129397 -0.0350694 0.990973)
(-0.122931 -0.0332336 0.991859)
(-0.0757 -0.0185467 0.996958)
(-0.114735 -0.0305366 0.992927)
(-0.10862 -0.0291298 0.993656)
(-0.029758 -0.00894717 0.999517)
(-0.0276549 -0.00861023 0.99958)
(-0.0278251 -0.0096346 0.999566)
(-0.0474395 -0.013372 0.998785)
(-0.029968 -0.00994691 0.999501)
(-0.0330224 -0.0104684 0.9994)
(-0.0485493 -0.0135438 0.998729)
(-0.0307039 -0.0100663 0.999478)
(-0.0884765 -0.0213805 0.995849)
(-0.125829 -0.0334272 0.991489)
(-0.0798659 -0.0182729 0.996638)
(-0.132017 -0.0355019 0.990612)
(-0.138967 -0.0377455 0.989577)
(-0.0867656 -0.0209541 0.996008)
(-0.116909 -0.031047 0.992657)
(-0.123492 -0.0327978 0.991803)
(-0.016612 -0.00283603 0.999858)
(-0.0159036 -0.00277456 0.99987)
(-0.208509 -0.0466791 0.976906)
(-0.134063 0.00715715 0.990947)
(-0.0246546 -0.00370589 0.999689)
(-0.0250273 -0.00374512 0.99968)
(-0.00794786 -0.000753612 0.999968)
(-0.00726769 -0.000812936 0.999973)
(-0.184334 -0.0322028 0.982336)
(-0.0975985 0.0111608 0.995163)
(-0.0172911 -0.00290164 0.999846)
(-0.0179376 -0.00296722 0.999835)
(-0.0242816 -0.00366794 0.999698)
(-0.0239062 -0.00362828 0.999708)
(-0.0085688 -0.000704303 0.999963)
(-0.00913512 -0.000665644 0.999958)
(-0.0142258 -0.000377809 0.999899)
(-0.0139134 -0.000397667 0.999903)
(-0.0145406 -0.000355514 0.999894)
(-0.0148595 -0.000333647 0.99989)
(0.0274434 0.999486 -0.0165779)
(0.997267 -0.00717072 0.0735329)
(0.0337041 0.999174 -0.022713)
(0.997872 -0.000893356 0.0651967)
(-0.0256854 0.999605 0.0114314)
(-0.0245416 0.999622 0.0123588)
(0.40943 0.860681 -0.302646)
(0.641587 0.0941532 0.76125)
(0.0926226 -0.260911 0.960909)
(0.102948 0.781051 0.615922)
(0.0977286 0.898195 0.428596)
(0.20077 0.86274 0.464081)
(-0.0156432 0.999858 0.00619773)
(0.996654 -0.00467538 0.0816042)
(-0.0132447 0.999895 0.00588118)
(0.445536 0.884509 -0.138354)
(0.861184 0.161612 0.481916)
(0.431421 0.897047 -0.0958201)
(0.187667 0.981091 -0.0473368)
(0.984547 0.0651572 0.162546)
(0.232694 0.970904 -0.0565594)
(0.945759 0.0501894 -0.32097)
(0.858535 0.0144639 -0.51255)
(0.945866 0.0480489 -0.320981)
(0.865641 0.00270442 -0.500658)
(0.947642 -0.0320507 -0.317722)
(0.947699 -0.0220335 -0.318403)
(-0.0324777 0.999298 0.0186754)
(0.998027 0.00326469 0.0626987)
(-0.0348664 0.999191 0.0200476)
(0.011223 0.999891 -0.00955252)
(0.998046 -0.00435786 0.0623271)
(0.0149662 0.999806 -0.0128361)
(0.946779 -0.0514323 -0.31775)
(0.86646 -0.0123775 -0.499093)
(0.947171 -0.0428447 -0.317855)
(0.947584 0.0352876 -0.317553)
(0.868038 0.00435791 -0.496479)
(0.947674 0.0332931 -0.3175)
(-0.10753 -0.0270505 0.993834)
(-0.118022 -0.029719 0.992566)
(-0.169766 -0.0341608 0.984892)
(-0.166481 -0.0336112 0.985472)
(-0.105204 -0.026815 0.994089)
(-0.012967 -0.00275724 0.999912)
(-0.0129048 -0.00263595 0.999913)
(-0.154537 -0.0312695 0.987492)
(-0.109863 -0.0291532 0.993519)
(-0.0989247 -0.0262878 0.994748)
(-0.154617 -0.0314734 0.987473)
(-0.0980135 -0.026178 0.994841)
(0.701939 -0.529675 -0.476157)
(-0.100202 0.0653458 0.992819)
(0.662714 -0.501932 -0.555765)
(-0.158067 0.668545 0.726679)
(-0.338683 0.800511 0.494445)
(-0.357241 0.763886 0.537455)
(-0.262856 0.0403841 0.963989)
(-0.141762 -0.0712639 0.987332)
(-0.153663 -0.034117 0.987534)
(-0.24789 0.0725274 0.96607)
(-0.245921 0.0161086 0.969156)
(-0.135214 -0.0388454 0.990055)
(-0.235966 0.0911844 0.967474)
(-0.222187 -0.0451591 0.973958)
(-0.182993 -0.0401627 0.982293)
(-0.137002 -0.0375393 0.989859)
(-0.121521 -0.0324108 0.99206)
(-0.222352 -0.0448541 0.973934)
(-0.184763 -0.0404961 0.981948)
(-0.138036 -0.0378784 0.989703)
(0.0159032 0.899145 0.437363)
(-0.117566 0.886581 0.447383)
(-0.131522 0.889393 0.437816)
(-0.24463 -0.0463131 0.96851)
(-0.151151 -0.0369238 0.987821)
(-0.126209 -0.0316044 0.9915)
(-0.202461 -0.0428491 0.978352)
(-0.19864 -0.0423075 0.979159)
(-0.148282 -0.0368368 0.988259)
(-0.249126 -0.0467923 0.96734)
(-0.225661 -0.0448811 0.973172)
(-0.182754 -0.0401782 0.982337)
(-0.117452 -0.0316293 0.992575)
(-0.13681 -0.037377 0.989892)
(-0.183724 -0.0403129 0.982151)
(-0.22354 -0.0448574 0.973662)
(-0.137474 -0.0371705 0.989808)
(-0.0138058 -0.00286622 0.999901)
(-0.0157914 -0.00330822 0.99987)
(-0.232364 0.00565547 0.972613)
(-0.192873 -0.0152692 0.981105)
(-0.289759 0.111365 0.950598)
(-0.269918 0.0379577 0.962135)
(-0.202195 0.00860389 0.979308)
(-0.306726 0.155768 0.938965)
(-0.155808 -0.0314292 0.987287)
(-0.101405 -0.026332 0.994497)
(-0.116364 -0.03006 0.992752)
(-0.159196 -0.0315393 0.986743)
(-0.106187 -0.0267709 0.993986)
(-0.351031 0.79589 0.493291)
(-0.209666 0.857415 0.469978)
(-0.31732 0.822421 0.472157)
(-0.0277549 -0.00400737 0.999607)
(-0.0281723 -0.00404793 0.999595)
(-0.252607 -0.048882 0.966333)
(-0.162855 -0.038666 0.985892)
(-0.186293 -0.044079 0.981505)
(-0.256402 -0.0496084 0.965296)
(-0.16535 -0.0394105 0.985447)
(-0.329356 -0.0596754 0.942318)
(-0.201099 -0.0440731 0.978579)
(-0.266893 -0.0542119 0.9622)
(-0.175879 -0.0390944 0.983635)
(-0.27081 -0.0550283 0.961059)
(-0.324788 -0.0587687 0.943959)
(-0.204154 -0.0447966 0.977913)
(-0.352939 -0.0646059 0.933413)
(-0.295488 -0.0603897 0.953436)
(-0.189983 -0.0428442 0.980852)
(-0.22354 -0.0498738 0.973418)
(-0.291218 -0.0594334 0.954809)
(-0.357817 -0.0656759 0.931479)
(-0.220168 -0.0489362 0.974234)
(-0.0273465 -0.00397024 0.999618)
(-0.0269474 -0.00393336 0.999629)
(-0.144632 -0.0336098 0.988915)
(-0.224611 -0.0436345 0.973471)
(-0.164839 -0.0379838 0.985589)
(-0.22792 -0.0442426 0.972674)
(-0.146777 -0.034162 0.988579)
(-0.248884 -0.0481765 0.967334)
(-0.160419 -0.0379489 0.986319)
(-0.177849 -0.0415767 0.983179)
(-0.245243 -0.0474747 0.968299)
(-0.158039 -0.0372587 0.98673)
(-0.367702 -0.0678605 0.927464)
(-0.299827 -0.0613616 0.952018)
(-0.199122 -0.0454864 0.978919)
(-0.226979 -0.0508432 0.972572)
(-0.304229 -0.0623602 0.950555)
(-0.362731 -0.0667576 0.9295)
(-0.230476 -0.0518542 0.971695)
(0.946479 -0.0175511 -0.322287)
(0.85203 0.0136215 -0.523315)
(0.946147 -0.00939615 -0.323602)
(0.00543179 0.999982 -0.00261002)
(0.99769 0.00300376 0.0678667)
(0.0139979 0.999883 -0.00610244)
(0.115685 0.993189 -0.013899)
(0.994081 0.0373326 0.102029)
(0.0676711 0.997698 0.00440477)
(0.744213 -0.528508 -0.408443)
(-0.422093 0.0929969 0.90177)
(0.798497 -0.461907 -0.386063)
(0.779259 -0.064287 -0.623396)
(0.938426 -0.0671615 -0.33889)
(0.934939 -0.0864366 -0.344119)
(0.947655 0.00787907 -0.319199)
(0.862469 -0.015895 -0.50586)
(0.947504 0.000939687 -0.319742)
(0.831571 -0.0499171 -0.553171)
(0.936593 -0.11303 -0.331689)
(0.938907 -0.101096 -0.328988)
(-0.0142408 -0.0116741 0.99983)
(-0.0253804 -0.0126079 0.999598)
(0.00499618 -0.00819537 0.999954)
(-0.0133772 -0.0117021 0.999842)
(0.00530593 -0.00821628 0.999952)
(-0.00292092 -0.00142959 0.999995)
(-0.00342582 -0.00131749 0.999993)
(-0.000681852 -0.00714306 0.999974)
(-0.025557 -0.0124625 0.999596)
(-0.0154228 -0.0109777 0.999821)
(-0.0133376 -0.0112863 0.999847)
(0.00194446 -0.0076038 0.999969)
(-0.0348103 -0.011122 0.999332)
(-0.0877491 -0.124373 0.988348)
(-0.0894373 -0.0212901 0.995765)
(-0.0726951 -0.0830937 0.993887)
(-0.0731119 -0.0337561 0.996752)
(-0.0512003 -0.00472226 0.998677)
(-0.0493331 -0.0912062 0.994609)
(-0.0122696 -0.0083049 0.99989)
(-0.00850829 -0.00860604 0.999927)
(-0.0582814 -0.0211034 0.998077)
(-0.0537289 -0.0167158 0.998416)
(-0.0611377 -0.0210445 0.997907)
(-0.00802545 -0.00883146 0.999929)
(-0.0132641 -0.00777305 0.999882)
(0.00418585 -0.00973395 0.999944)
(-0.0569142 -0.0201463 0.998176)
(-0.0461635 -0.0166339 0.998795)
(0.00215959 -0.0103069 0.999945)
(-0.0558464 -0.0202559 0.998234)
(0.00230735 -0.0103006 0.999944)
(0.00427984 -0.00970308 0.999944)
(-0.00168017 -0.00939554 0.999954)
(-0.00488804 -0.00915318 0.999946)
(-0.0454528 -0.0170393 0.998821)
(-0.0562057 -0.0210739 0.998197)
(-0.0548674 -0.0209574 0.998274)
(-0.00215553 -0.00956285 0.999952)
(-0.00451275 -0.00916861 0.999948)
(-0.00296147 -0.00167441 0.999994)
(-0.00381595 -0.00171026 0.999991)
(-0.130087 -0.0734514 0.988778)
(-0.0949612 -0.00448716 0.995471)
(-0.077037 -0.067221 0.99476)
(-0.102749 -0.0018534 0.994706)
(-0.065005 0.0034003 0.997879)
(-0.00442309 -0.00659058 0.999968)
(-0.0189199 -0.0104248 0.999767)
(-0.0357686 -0.0113403 0.999296)
(-0.0242691 -0.00985254 0.999657)
(-0.00955732 -0.00554472 0.999939)
(-0.109908 -0.0273076 0.993567)
(-0.173115 -0.0347181 0.98429)
(-0.125754 -0.0305292 0.991592)
(-0.176479 -0.0352778 0.983672)
(-0.112291 -0.0275854 0.993292)
(-0.021095 -0.00331498 0.999772)
(-0.020641 -0.00326388 0.999782)
(-0.196057 -0.0385729 0.979834)
(-0.13841 -0.0323042 0.989848)
(-0.125827 -0.0295681 0.991611)
(-0.192881 -0.0380298 0.980485)
(-0.123677 -0.0292011 0.991893)
(-0.315771 -0.0570204 0.947121)
(-0.198079 -0.0433888 0.979225)
(-0.263027 -0.0534222 0.963308)
(-0.167924 -0.0372262 0.985097)
(-0.320264 -0.0578881 0.945558)
(-0.259201 -0.0526472 0.964387)
(-0.195099 -0.0427353 0.979852)
(-0.293759 -0.0530785 0.954405)
(-0.236804 -0.0483882 0.970352)
(-0.177645 -0.0395158 0.983301)
(-0.155108 -0.0347068 0.987288)
(-0.289394 -0.0523579 0.955777)
(-0.240509 -0.0490605 0.969406)
(-0.18053 -0.0399749 0.982757)
(-0.258223 -0.0478511 0.964899)
(-0.154095 -0.0370546 0.987361)
(-0.206342 -0.0434119 0.977516)
(-0.134151 -0.0320858 0.990441)
(-0.253671 -0.0473019 0.966133)
(-0.210237 -0.0439952 0.97666)
(-0.157067 -0.037234 0.986886)
(-0.280624 -0.0509633 0.958464)
(-0.23309 -0.0477308 0.971283)
(-0.147415 -0.0335185 0.988507)
(-0.17475 -0.0390905 0.983837)
(-0.229356 -0.0470813 0.972203)
(-0.285019 -0.0516552 0.957129)
(-0.171847 -0.0386938 0.984363)
(-0.0215296 -0.00336569 0.999763)
(-0.0219516 -0.00341286 0.999753)
(-0.142513 -0.0330816 0.98924)
(-0.221347 -0.0430403 0.974245)
(-0.157501 -0.0361517 0.986857)
(-0.218127 -0.0424457 0.974997)
(-0.140416 -0.032575 0.989557)
(-0.19921 -0.0391165 0.979176)
(-0.127947 -0.0299482 0.991329)
(-0.145616 -0.0335928 0.988771)
(-0.202349 -0.0396571 0.97851)
(-0.130041 -0.0303423 0.991044)
(-0.0151774 -0.011639 0.999817)
(0.0045532 -0.0081579 0.999956)
(-0.0283206 -0.0124455 0.999521)
(-0.0161477 -0.0116029 0.999802)
(0.0040197 -0.00810811 0.999959)
(-0.0116849 -0.00051881 0.999932)
(-0.0113322 -0.000537318 0.999936)
(0.000133493 -0.00775991 0.99997)
(-0.0337488 -0.0123198 0.999354)
(-0.0217981 -0.011528 0.999696)
(-0.0209021 -0.0115171 0.999715)
(0.000807844 -0.00781633 0.999969)
(-0.00513268 -0.00904603 0.999946)
(-0.0801572 -0.0212201 0.996556)
(-0.0672154 -0.0171815 0.997591)
(-0.00851169 -0.00980367 0.999916)
(-0.0786074 -0.0210021 0.996684)
(-0.00774123 -0.00981222 0.999922)
(-0.00596117 -0.00903761 0.999941)
(-0.00110668 -0.00917168 0.999957)
(-0.00320013 -0.00997072 0.999945)
(-0.0695333 -0.0201133 0.997377)
(-0.060461 -0.0165372 0.998034)
(-0.0710221 -0.0202139 0.99727)
(-0.00034454 -0.0092174 0.999957)
(-0.00394073 -0.00993417 0.999943)
(0.00389019 -0.00960558 0.999946)
(-0.0581207 -0.0200558 0.998108)
(0.00184214 -0.0102936 0.999945)
(-0.0496969 -0.0164012 0.99863)
(0.00416544 -0.00966217 0.999945)
(-0.0594207 -0.0199872 0.998033)
(0.00139967 -0.0102648 0.999946)
(0.00110842 -0.00931539 0.999956)
(-0.00246975 -0.0100091 0.999947)
(-0.056421 -0.0163512 0.998273)
(-0.0680475 -0.0200325 0.997481)
(-0.0665705 -0.0199715 0.997582)
(-0.00175192 -0.0100516 0.999948)
(0.000396901 -0.00926192 0.999957)
(-0.0120221 -0.00050118 0.999928)
(-0.01235 -0.000485387 0.999924)
(-0.0286643 -0.0119865 0.999517)
(-0.0420999 -0.0127203 0.999032)
(-0.00529439 -0.00739232 0.999959)
(-0.0278121 -0.0118899 0.999542)
(-0.00461488 -0.00742903 0.999962)
(-0.000542154 -0.00770791 0.99997)
(-0.0226794 -0.0115498 0.999676)
(-0.0369088 -0.0123849 0.999242)
(-0.0235496 -0.0115801 0.999656)
(-0.00121981 -0.00765548 0.99997)
(-0.01733 -0.000137646 0.99985)
(-0.0177219 -0.000104074 0.999843)
(-0.0116436 -0.00720101 0.999906)
(-0.0368421 -0.0133669 0.999232)
(-0.0544146 -0.0145616 0.998412)
(-0.037829 -0.0135782 0.999192)
(-0.0123811 -0.00719544 0.999897)
(-0.0076389 -0.00904984 0.99993)
(-0.0817273 -0.0214585 0.996424)
(-0.0713739 -0.0177817 0.997291)
(-0.00928693 -0.00980164 0.999909)
(-0.0833148 -0.0217184 0.996287)
(-0.00679869 -0.00904229 0.999936)
(-0.0100674 -0.00980452 0.999901)
(-0.0119539 -0.00921228 0.999886)
(-0.0149018 -0.00994836 0.999839)
(-0.0787117 -0.019141 0.996714)
(-0.0933849 -0.0237141 0.995348)
(-0.0916357 -0.0233293 0.995519)
(-0.0140781 -0.00990847 0.999852)
(-0.012836 -0.00926256 0.999875)
(-0.0169485 -0.00016933 0.999856)
(-0.0165778 -0.000202792 0.999863)
(-0.0295219 -0.0120959 0.999491)
(-0.0452652 -0.0130758 0.998889)
(-0.00597562 -0.00736116 0.999955)
(-0.0303881 -0.0122164 0.999464)
(-0.00666202 -0.00733174 0.999951)
(-0.010913 -0.00720573 0.999914)
(-0.0358732 -0.013167 0.99927)
(-0.050834 -0.0139099 0.99861)
(-0.0349196 -0.0129821 0.999306)
(-0.0101874 -0.0072213 0.999922)
(-0.0146217 -0.00939858 0.999849)
(-0.0157322 -0.00999493 0.999826)
(-0.0834412 -0.0201727 0.996309)
(-0.0951698 -0.0241199 0.995169)
(-0.0969886 -0.024549 0.994983)
(-0.0165714 -0.0100479 0.999812)
(-0.0137264 -0.00932805 0.999862)
(-0.0189361 -0.00172645 0.999819)
(-0.0149942 -0.00252266 0.999884)
(0.0980292 -0.00207996 0.995181)
(-0.0197454 -0.00286341 0.999801)
(-0.0181838 -0.00186833 0.999833)
(0.0974947 -0.00251337 0.995233)
(-0.0156251 -0.0022586 0.999875)
(-0.0200416 -0.000584919 0.999799)
(0.0970791 -0.000875854 0.995276)
(-0.0205417 -0.00193711 0.999787)
(-0.0168085 -0.00145763 0.999858)
(0.096961 -0.00124193 0.995287)
(-0.0206651 -0.000925587 0.999786)
(-0.0163136 -0.00146173 0.999866)
(0.0442643 -0.0850469 0.995393)
(0.0721798 -0.127501 0.989209)
(0.14565 -0.0390863 0.988564)
(0.105886 -0.130819 0.985736)
(0.0387268 -0.0643199 0.997178)
(0.151923 -0.0526963 0.986987)
(0.0881375 -0.167745 0.981883)
(0.0587641 -0.110361 0.992153)
(0.161253 -0.092794 0.982541)
(0.122843 -0.175252 0.97683)
(0.100907 -0.281229 0.954321)
(0.163543 -0.0696285 0.984076)
(0.0453487 -0.146029 0.98824)