/*--------------------------------*- C++ -*----------------------------------*\
| =========                 |                                                 |
| \\      /  F ield         | OpenFOAM: The Open Source CFD Toolbox           |
|  \\    /   O peration     | Version:  2012                                  |
|   \\  /    A nd           | Website:  www.openfoam.com                      |
|    \\/     M anipulation  |                                                 |
\*---------------------------------------------------------------------------*/
FoamFile
{
    version     2.0;
    format      ascii;
    class       volVectorField;
    location    "0.106/solid";
    object      sigmaMidDir;
}
// * * * * * * * * * * * * * * * * * * * * * * * * * * * * * * * * * * * * * //

dimensions      [1 -1 -2 0 0 0 0];


internalField   nonuniform List<vector> 
3125
(
(0.997105 0.00947647 -0.0754396)
(0.934701 0.350381 -0.0597305)
(0.998906 0.0130897 -0.0449047)
(0.996941 0.0190326 -0.0758023)
(0.998983 0.00694252 -0.0445513)
(0.916027 0.39838 -0.0467696)
(0.926551 0.369488 -0.0705773)
(0.905768 0.422684 -0.0303785)
(0.997111 -0.0067901 -0.0756602)
(0.220389 0.972073 0.0806405)
(-0.107172 0.993283 0.0436321)
(-0.118262 0.992462 0.0321339)
(0.998989 0.00579925 -0.0445753)
(0.99893 0.00944784 -0.0452626)
(0.997013 -0.0139374 -0.0759651)
(0.994025 -0.0888672 -0.0633854)
(0.990635 -0.131631 0.036262)
(-0.116065 0.992717 0.0322793)
(-0.106958 0.993446 0.0403118)
(0.987565 -0.147683 0.0539054)
(0.989726 -0.138292 0.0363026)
(0.987378 -0.147588 0.0574617)
(0.002727 0.999982 -0.00536148)
(0.997183 0.00573366 -0.0747937)
(0.00350121 0.999994 0.000302412)
(-0.0117258 0.988731 -0.149246)
(0.955774 -0.252238 0.151235)
(0.877445 -0.209823 0.431351)
(0.00713435 0.99997 -0.00294886)
(0.999021 0.00489379 -0.0439753)
(0.979486 0.1944 -0.0530583)
(0.988728 0.121182 -0.0879286)
(-0.116432 0.988858 -0.09275)
(-0.0526503 0.998478 0.0164492)
(-0.0115459 0.999913 0.0063183)
(-0.00467285 0.999983 -0.00361273)
(0.99719 -0.00412138 -0.0748064)
(-0.00313601 0.999977 0.00598829)
(0.00254158 0.999992 -0.00314048)
(0.0131573 0.999891 -0.00672466)
(-0.00351188 0.999987 0.00372525)
(0.0770199 0.996249 0.0394393)
(0.11121 0.992923 0.0416661)
(0.236102 0.971046 -0.036407)
(-0.443836 -0.58768 0.676492)
(0.912537 -0.35806 0.197658)
(-0.10933 0.992038 0.0625152)
(0.974775 -0.159732 0.155883)
(0.216524 0.974594 0.0573109)
(0.992101 0.120459 0.035008)
(0.12011 0.991631 0.0473509)
(-0.114823 0.9911 0.067353)
(0.176415 0.98292 0.0524016)
(0.965298 -0.158328 0.207682)
(0.132324 0.990216 0.0442912)
(0.953452 0.300689 -0.0226851)
(0.038353 0.997958 0.0510753)
(0.0874575 0.99469 0.0542433)
(-0.125809 0.991536 0.032079)
(0.0686415 0.995959 0.0579055)
(0.0536669 0.99747 0.0466168)
(0.0404376 0.997907 0.0504706)
(-0.128582 0.991179 0.0321012)
(0.0656149 0.996131 0.0584529)
(-0.0166613 0.99986 -0.00142058)
(0.999037 -0.00136361 -0.0438653)
(0.991601 0.118987 -0.0506845)
(0.993001 0.0813426 -0.0856275)
(-0.00295667 0.999993 0.00241628)
(-0.0469873 0.998682 0.020645)
(0.219408 0.975344 -0.0237333)
(0.0682456 0.997656 -0.00492928)
(0.0149513 0.999888 -0.000576748)
(0.0593788 0.998186 -0.00989498)
(0.998008 0.0570361 0.0269478)
(0.998883 0.0380208 0.0280685)
(0.991952 -0.120927 0.037516)
(0.972676 -0.218291 0.0790564)
(0.994995 0.0858512 0.0511257)
(0.98372 0.172789 0.0493858)
(0.993368 -0.108075 0.0392328)
(0.992686 0.110445 0.0487442)
(0.970662 -0.223259 0.0892777)
(0.999142 0.0271844 0.0312423)
(0.0756635 0.99634 0.0397607)
(0.0670968 0.99684 0.0425095)
(-0.1106 0.993293 0.0337159)
(0.0898106 0.994507 0.0537536)
(0.10444 0.993243 0.0506085)
(0.118181 0.99185 0.047603)
(-0.10921 0.993414 0.0346634)
(0.10631 0.993065 0.0501966)
(0.0553153 0.997404 0.0461116)
(0.0657467 0.996913 0.0429265)
(0.998018 0.056385 0.0279304)
(0.998 0.0523679 0.0354108)
(0.988086 -0.147457 0.0440774)
(0.985309 0.155569 0.070456)
(0.985281 0.15969 0.0609908)
(0.983803 0.171982 0.0505407)
(0.988317 -0.146706 0.0413101)
(0.985172 0.160862 0.0596594)
(0.997672 0.0522989 0.0437601)
(0.997975 0.0521291 0.0364608)
(0.997139 0.0530031 0.053889)
(0.985256 0.155265 0.071854)
(0.986646 -0.147747 0.0685607)
(0.984782 0.153077 0.0822964)
(0.997619 0.0524191 0.0448201)
(0.997204 0.0529967 0.0526858)
(0.9863 -0.148229 0.0723867)
(0.98471 0.152664 0.0839038)
(-0.0039589 0.999988 0.00273461)
(0.997064 0.0123908 -0.0755572)
(0.00188536 0.999997 0.00161541)
(0.723902 0.689878 0.00583637)
(0.974523 0.223293 0.0210916)
(0.812628 0.582474 0.0189414)
(0.99891 0.0118176 -0.0451468)
(0.996912 0.016956 -0.076676)
(0.00538306 0.999982 0.00270237)
(-0.000686613 0.999993 0.00366249)
(0.99898 0.00929452 -0.0441916)
(0.932543 0.357085 -0.0534207)
(0.941638 0.324512 -0.0895021)
(0.646662 0.762723 0.00899802)
(0.323253 0.946254 0.0105582)
(0.997081 -0.0107786 -0.0755813)
(0.00526727 0.999982 -0.00293128)
(-0.00351502 0.999993 -0.00130922)
(-0.0839244 0.996427 0.00943546)
(-0.0818146 0.996602 0.00947927)
(-0.582302 0.734688 -0.348076)
(0.0537182 0.987795 -0.146202)
(0.938975 -0.281695 0.197417)
(0.971184 -0.157386 0.178972)
(-0.413222 0.870279 -0.26807)
(-0.0516854 0.997459 0.0490297)
(-0.108489 0.992911 0.0485634)
(-0.0468344 0.99755 0.051963)
(0.396798 0.91485 0.0748356)
(0.972121 0.213431 0.097099)
(-0.0937669 0.995516 0.0124651)
(-0.081258 0.995665 0.0452629)
(-0.12062 0.992181 0.0320463)
(-0.0882223 0.995057 0.0455956)
(-0.0889517 0.99598 0.0105153)
(-0.0898834 0.995892 0.0109161)
(-0.134434 0.990397 0.0322703)
(-0.110745 0.992764 0.0464158)
(0.999029 -0.00160583 -0.0440348)
(0.998402 0.0322998 -0.0463621)
(0.996891 0.0049572 -0.078631)
(-0.00273533 0.999992 -0.00302782)
(0.0103795 0.999934 -0.00487302)
(0.998488 -0.0535901 0.0122494)
(0.998655 -0.0510818 0.00889757)
(0.986966 -0.159709 -0.0197725)
(0.991396 -0.130585 -0.00906806)
(0.993403 -0.0976772 0.0600767)
(0.980516 0.175254 0.0887343)
(0.99172 -0.122953 0.0370669)
(0.983219 0.160616 0.0865059)
(0.975109 -0.127341 0.181513)
(0.996253 -0.0698482 0.050998)
(-0.0844049 0.996387 0.00943905)
(-0.085614 0.996283 0.00949961)
(-0.114051 0.992941 0.0325686)
(-0.0798307 0.995784 0.0451827)
(-0.0736031 0.996271 0.045017)
(-0.0529134 0.997434 0.0482332)
(-0.107284 0.993509 0.0378043)
(-0.0585477 0.997198 0.0465658)
(-0.0886845 0.996006 0.0103961)
(-0.0880182 0.996068 0.0100734)
(0.998444 -0.0541516 0.0132978)
(0.998325 -0.0555715 0.0160638)
(0.987727 -0.147817 0.0504586)
(0.986982 0.112533 0.1149)
(0.986161 0.124656 0.109305)
(0.980225 0.176215 0.0900387)
(0.989086 -0.142548 0.0372629)
(0.982626 0.160283 0.0935714)
(0.997972 -0.058986 0.0239364)
(0.998057 -0.0582513 0.0221284)
(0.997385 -0.0643291 0.0329442)
(0.986739 0.112249 0.117245)
(0.987176 -0.147482 0.0610926)
(0.987404 0.0992935 0.12318)
(0.997941 -0.0592643 0.024545)
(0.997832 -0.0602738 0.0264319)
(0.985474 -0.149669 0.080248)
(0.988135 0.0541711 0.143715)
(-0.00910902 0.999955 0.0024693)
(-0.00197788 0.999998 0.000995858)
(0.00278312 0.999995 0.00165249)
(0.997152 0.00359923 -0.0753339)
(0.00211621 0.999998 0.000283677)
(-0.00274965 0.999995 0.00162445)
(0.00794832 0.999952 -0.00572228)
(0.00384492 0.999993 0.000360583)
(-0.0070619 0.999974 0.00142844)
(0.591939 0.804309 0.051916)
(-0.0241497 0.991891 -0.124779)
(0.700295 0.712152 0.0492525)
(0.99247 0.117552 0.0344096)
(0.97543 0.0947688 0.198884)
(0.86305 0.504301 0.0287239)
(-0.190414 0.968713 -0.15918)
(0.898844 0.337631 0.279436)
(0.721137 0.690371 0.0578753)
(0.00332314 0.999988 0.00365641)
(0.00349439 0.99999 0.00281344)
(0.00964168 0.999918 -0.00840994)
(-0.00765264 0.999964 0.00353849)
(0.00120865 0.999997 -0.00198515)
(0.0013782 0.999992 0.0037519)
(0.999029 0.00230701 -0.0439914)
(0.957047 0.284745 -0.0545913)
(0.958095 0.271023 -0.0927419)
(0.0696749 0.997567 -0.00222681)
(0.228032 0.973631 0.0066145)
(0.504113 0.862139 0.0508601)
(-0.111122 0.993804 -0.00214247)
(0.192148 0.98096 0.0282104)
(0.0461122 0.998936 0.00119684)
(-0.102113 0.994668 0.0144729)
(0.139869 0.990005 0.0180683)
(-0.0169287 0.999845 0.00482876)
(-0.00660366 0.999977 -0.00122195)
(0.016717 0.999847 -0.00511583)
(-0.0105874 0.999936 0.00408937)
(0.0219031 0.999738 -0.00667766)
(-0.013012 0.999908 0.00372107)
(0.997144 -0.00293036 -0.0754691)
(-0.00720448 0.999974 0.000201421)
(0.000130687 0.999999 -0.00119529)
(0.00931607 0.999953 -0.00273886)
(0.00632705 0.999977 -0.00236085)
(-0.00460725 0.999988 -0.00156604)
(-0.00863906 0.999963 -0.000143223)
(-0.00331008 0.999986 0.00412058)
(0.0043609 0.99999 -0.00120568)
(0.0195558 0.999793 -0.00567987)
(0.00120784 0.999999 0.000831391)
(-0.0127833 0.999911 0.00383684)
(-0.0167647 0.999847 0.00494693)
(0.00518749 0.999977 -0.00442398)
(0.0170325 0.999842 -0.00510291)
(-0.0882905 0.996032 0.0111492)
(0.0830114 0.995789 0.0389006)
(-0.0866295 0.996177 0.0112264)
(-0.0754804 0.997101 0.00964051)
(-0.0807681 0.996688 0.00950787)
(0.0864501 0.995493 0.0389869)
(-0.0844551 0.996365 0.0111775)
(-0.0860774 0.996225 0.0112459)
(-0.0449333 0.998794 0.0197708)
(0.0167298 0.993994 -0.108145)
(0.162824 0.986222 -0.0292223)
(-0.0740291 0.971705 -0.224298)
(0.65159 0.756235 -0.0594888)
(0.237969 0.970395 -0.0412843)
(-0.551319 0.705227 -0.445761)
(0.912589 -0.263477 0.312668)
(-0.441228 0.80927 -0.387814)
(-0.238766 0.968065 0.0764307)
(-0.0604384 0.996654 0.0550329)
(-0.292533 0.956245 0.00441515)
(0.893807 -0.42057 0.155664)
(0.977308 0.156926 0.142277)
(0.788411 0.614943 -0.0158719)
(0.984507 0.0392557 0.170894)
(-0.270258 0.942693 -0.195678)
(-0.0593313 0.997297 0.0433506)
(0.90449 0.404907 0.133967)
(-0.347075 0.937764 -0.0117672)
(0.853586 -0.175857 0.490373)
(0.865337 0.394346 -0.309326)
(-0.363255 0.839976 -0.403095)
(-0.0510808 0.997869 0.0406047)
(0.129006 0.990518 0.0472302)
(-0.0479624 0.997954 0.0422795)
(-0.109733 0.992484 0.0541695)
(-0.0515724 0.997092 0.0561023)
(-0.0463257 0.99751 0.0531808)
(0.134341 0.989792 0.0475919)
(-0.0524606 0.997645 0.0441889)
(-0.0463566 0.997989 0.0432301)
(-0.0716373 0.997384 0.00964606)
(-0.0035965 0.999908 0.0131056)
(0.849225 -0.447883 0.279674)
(0.892917 0.426767 0.14342)
(0.858321 0.502819 -0.102265)
(0.990448 0.0775176 0.114037)
(0.851727 0.513633 -0.103648)
(-0.0837564 0.996426 0.010969)
(0.54745 0.830792 0.100414)
(0.99255 0.0812732 0.0907736)
(0.727215 0.685878 -0.0270044)
(0.905258 0.374722 -0.200225)
(0.776687 0.621696 0.101251)
(-0.0918729 0.995702 0.0116943)
(-0.0931979 0.995572 0.0122647)
(0.0292974 0.998132 0.0536041)
(-0.110979 0.993735 0.0132121)
(-0.106887 0.994192 0.0125828)
(0.031645 0.998096 0.052949)
(-0.109909 0.993856 0.0130413)
(-0.0801866 0.996061 0.0378457)
(0.0798985 0.995242 0.05577)
(-0.0851208 0.995624 0.0385706)
(-0.12315 0.991872 0.0320129)
(-0.0977811 0.994143 0.0460348)
(-0.0899424 0.994898 0.0456972)
(0.0771962 0.995426 0.0562922)
(-0.0936546 0.994833 0.0391823)
(-0.0878633 0.995392 0.038409)
(-0.0914307 0.995745 0.0115276)
(-0.0902235 0.99586 0.0110631)
(-0.0999393 0.994925 0.0116473)
(0.048322 0.997668 0.048196)
(-0.102375 0.994674 0.0119539)
(-0.105937 0.994295 0.0124449)
(0.0464116 0.997732 0.0487445)
(-0.103242 0.994583 0.0120697)
(0.0527615 0.996759 0.0607273)
(-0.106431 0.993532 0.0395815)
(-0.131462 0.9908 0.032145)
(-0.0998084 0.993937 0.0461157)
(-0.108469 0.993018 0.0463664)
(0.0561018 0.996612 0.0601473)
(-0.0966348 0.994555 0.0390118)
(-0.103271 0.993858 0.0397608)
(0.0215394 0.999746 -0.0066243)
(-0.0179585 0.999818 0.00646181)
(-0.0137624 0.999898 0.00378443)
(-0.016184 0.999869 0.00092233)
(0.0171639 0.999839 -0.00531076)
(0.999037 0.00268163 -0.0438025)
(0.997 0.0606203 -0.048123)
(0.99675 0.0102376 -0.0799014)
(0.0543582 0.998514 -0.00386266)
(0.0130649 0.999903 -0.00482651)
(-0.00218698 0.999992 -0.00321558)
(-0.0153251 0.999814 0.0117172)
(0.0143113 0.999888 -0.00441985)
(0.0440042 0.999031 -0.00124905)
(-0.00710584 0.999957 0.00589001)
(0.0101247 0.99994 -0.00425786)
(-0.00239937 0.999973 0.00696988)
(0.106138 0.994344 -0.00380686)
(-0.00239087 0.999992 0.00327542)
(0.0845455 0.996384 -0.00846064)
(-0.0240086 0.999675 0.00860608)
(0.026789 0.999625 -0.0057379)
(-0.0178778 0.999824 0.00562071)
(0.0306672 0.999486 -0.00939399)
(0.0197224 0.99979 -0.00549988)
(0.029897 0.999538 -0.00538757)
(0.01196 0.999926 -0.00222832)
(-0.00717673 0.999971 0.00269987)
(0.986758 -0.161725 0.0124121)
(0.998081 0.0567224 0.0248512)
(0.987143 -0.159566 0.00930431)
(0.998957 -0.0451095 0.00700584)
(0.998723 -0.0499016 0.00787029)
(0.998187 0.0548822 0.0247125)
(0.98951 -0.144164 0.00935634)
(0.98746 -0.157637 0.00852985)
(0.987586 -0.154593 0.0278277)
(0.996314 0.0245178 0.0822034)
(0.992395 -0.102047 0.0688378)
(0.991102 -0.132292 0.0146934)
(0.997067 -0.0260209 0.0719735)
(0.993505 -0.0957784 0.061431)
(0.997401 -0.00547799 0.0718428)
(0.997861 0.00366277 0.0652696)
(0.994125 -0.0849103 0.0671271)
(0.993505 0.0853901 0.0752112)
(0.98495 0.166375 0.0468221)
(0.994341 0.0773639 0.072811)
(0.992863 -0.112845 0.0385794)
(0.994799 0.058516 0.0833682)
(0.985906 0.143699 0.0856761)
(0.986206 0.158859 0.0464988)
(0.997282 0.0169193 0.0717166)
(0.994874 0.0706698 0.0723306)
(0.999017 -0.0434975 0.00859909)
(0.998225 -0.050671 0.0312964)
(0.967896 -0.193026 0.160991)
(0.997351 -0.0363836 0.0629886)
(0.992357 -0.110727 0.0544785)
(0.990497 -0.13702 0.0118892)
(0.99852 -0.0185838 0.0511186)
(0.992655 -0.115314 0.036598)
(-0.0888665 0.995981 0.0111252)
(0.0720526 0.996563 0.0408776)
(-0.0908333 0.995804 0.0110814)
(-0.0868735 0.996172 0.00968551)
(-0.0859386 0.996255 0.00953694)
(0.0708567 0.996632 0.0412758)
(-0.0936039 0.995547 0.0111191)
(-0.0915139 0.995742 0.011081)
(-0.112221 0.993135 0.0330132)
(-0.0665657 0.996757 0.045219)
(-0.0723661 0.996361 0.0450242)
(-0.0776732 0.996253 0.0380291)
(0.0964522 0.99396 0.0523454)
(-0.0733967 0.996598 0.0374918)
(-0.0669166 0.997051 0.037576)
(0.0985411 0.993779 0.0518967)
(-0.0709631 0.996764 0.0377596)
(-0.0535823 0.997769 0.0398165)
(0.113172 0.992385 0.0486139)
(-0.0577814 0.997573 0.0388502)
(-0.108084 0.99349 0.0359852)
(-0.0653974 0.996827 0.0453829)
(-0.0597474 0.997146 0.0461521)
(0.111525 0.992553 0.048995)
(-0.064444 0.997199 0.0379732)
(-0.0603378 0.997444 0.0382796)
(-0.0871195 0.99615 0.00974879)
(-0.0877869 0.996089 0.00998301)
(-0.0991826 0.995002 0.0115579)
(0.0600566 0.997194 0.0446856)
(-0.0970687 0.995213 0.0113309)
(-0.0943016 0.995481 0.011146)
(0.0615271 0.997125 0.0442284)
(-0.0963745 0.995281 0.0112717)
(0.986727 -0.16183 0.0134799)
(0.998043 0.0542268 0.0311256)
(0.986711 -0.161651 0.0164291)
(0.998194 -0.056991 0.0190103)
(0.998292 -0.0559354 0.016865)
(0.998042 0.0536144 0.032207)
(0.98674 -0.161104 0.0197151)
(0.986718 -0.161518 0.0173118)
(0.987891 -0.147812 0.0471514)
(0.985017 0.13912 0.101915)
(0.986349 0.125087 0.107093)
(0.994435 0.0336937 0.0998223)
(0.985417 0.156687 0.0663482)
(0.994768 0.0388462 0.0944821)
(0.994872 0.0503416 0.0877196)
(0.985418 0.157245 0.0650011)
(0.994715 0.044029 0.0927566)
(0.993824 0.080592 0.0762799)
(0.984442 0.167094 0.0543517)
(0.994215 0.0715833 0.0800797)
(0.988631 -0.145217 0.0389866)
(0.985029 0.140508 0.0998789)
(0.98283 0.157985 0.0953243)
(0.984667 0.165321 0.0556711)
(0.994701 0.0561843 0.0861044)
(0.994552 0.064982 0.0815063)
(0.998166 -0.0572581 0.019663)
(0.998085 -0.0579965 0.0215281)
(0.986783 -0.160069 0.0252534)
(0.997822 0.0519683 0.0406215)
(0.986784 -0.160364 0.0232356)
(0.986751 -0.16095 0.0204527)
(0.997867 0.0519121 0.0395843)
(0.986779 -0.160496 0.0225589)
(0.997605 -0.0623845 0.0298678)
(0.997447 -0.0637585 0.0321504)
(0.996869 0.0527008 0.0589465)
(0.986023 -0.162916 0.0348949)
(0.986404 -0.161254 0.0316741)
(0.996938 0.0528255 0.0576478)
(0.98613 -0.16244 0.0340678)
(0.994412 0.0285498 0.101632)
(0.98506 0.154449 0.0761726)
(0.993972 0.0227298 0.107251)
(0.986924 -0.147588 0.0647995)
(0.987855 0.0821326 0.131896)
(0.987193 0.0982962 0.125646)
(0.984993 0.154134 0.0776589)
(0.99332 0.00888712 0.115054)
(0.993881 0.0169766 0.109142)
(0.997655 -0.061925 0.0291482)
(0.997793 -0.0606334 0.0270831)
(0.986771 -0.160031 0.0259264)
(0.997448 0.0527824 0.0480827)
(0.986689 -0.160193 0.0279896)
(0.986476 -0.160967 0.0309093)
(0.99739 0.0528491 0.0492009)
(0.986647 -0.160327 0.028695)
(0.984414 0.150677 0.0906955)
(0.99197 -0.0170626 0.125315)
(0.985905 -0.148909 0.0762756)
(0.987707 0.0796801 0.134485)
(0.988273 0.0585681 0.141018)
(0.984489 0.151232 0.0889437)
(0.993126 0.00207789 0.117029)
(0.992334 -0.00899925 0.12326)
(-0.623323 0.781922 -0.00813825)
(-0.622872 0.782286 -0.00773644)
(0.977998 -0.00314773 0.208592)
(0.990082 -0.0414311 0.134245)
(-0.613063 0.78994 -0.0121912)
(-0.611962 0.79079 -0.0123581)
(0.838625 -0.544674 0.006255)
(0.83788 -0.545825 0.00564588)
(0.886709 -0.4366 0.152077)
(0.905555 -0.413808 0.0934513)
(-0.623596 0.7817 -0.00851578)
(-0.623694 0.781618 -0.00886981)
(-0.614074 0.789157 -0.0120198)
(-0.615075 0.78838 -0.0118471)
(0.83909 -0.54395 0.00680714)
(0.83933 -0.543573 0.00730586)
(0.830611 -0.556732 0.011607)
(0.831599 -0.555261 0.0113507)
(0.829695 -0.558091 0.0118671)
(0.828638 -0.559653 0.0121277)
(0.95561 -0.0310983 -0.29299)
(0.0077675 0.999939 -0.00783305)
(0.957357 -0.0388014 -0.286289)
(0.000812229 0.999999 0.00127083)
(0.957268 0.0278894 -0.287856)
(0.958593 0.0270392 -0.283494)
(0.224133 0.22667 0.947832)
(0.0473409 0.985686 -0.161811)
(0.484078 0.85513 0.185529)
(0.66061 -0.516616 0.544703)
(-0.676505 -0.255904 0.690547)
(0.0920097 -0.488239 0.867846)
(0.955778 0.0167735 -0.293611)
(0.00487853 0.999985 -0.00229025)
(0.957117 0.0143799 -0.289345)
(-0.46381 0.36023 0.809392)
(-0.163917 0.985755 -0.0376564)
(0.792448 -0.427579 -0.434973)
(0.931098 -0.193037 -0.309504)
(-0.069059 0.997442 0.0184646)
(0.920465 -0.238636 -0.30951)
(-0.047171 0.998739 0.0171782)
(-0.0134145 0.999894 0.00574697)
(-0.0453572 0.998845 0.0158626)
(-0.00445462 0.999987 -0.00230041)
(0.0292603 0.99948 -0.0135517)
(0.0200534 0.999754 -0.00949585)
(0.956392 0.0364991 -0.289796)
(-0.00365051 0.999975 0.00603994)
(0.957917 0.0391316 -0.284364)
(0.95758 -0.0134981 -0.28785)
(0.0046198 0.999981 -0.00405925)
(0.959023 -0.0179859 -0.282758)
(0.0483596 0.998676 -0.0175559)
(0.0110179 0.999923 -0.00567021)
(0.0403391 0.999081 -0.0144635)
(-0.0328764 0.999376 0.0129503)
(-0.0032484 0.99999 0.00309808)
(-0.0311172 0.999445 0.0119233)
(0.106371 0.993579 0.0385526)
(0.0785745 0.996138 0.0391689)
(-0.228026 0.973639 -0.00553447)
(-0.228336 0.973568 -0.00536888)
(0.108233 0.993389 0.0382504)
(-0.621869 0.783099 -0.00590507)
(-0.620543 0.78415 -0.00594154)
(-0.23869 0.971073 -0.00660412)
(0.0990238 0.994276 0.0401254)
(0.154175 0.987175 0.0414199)
(-0.234703 0.97205 -0.0057676)
(0.136579 0.989841 0.0395025)
(0.488966 0.844476 -0.218569)
(0.192043 0.980348 -0.0451426)
(0.444849 0.860865 -0.247025)
(-0.199975 0.699007 -0.686585)
(0.860918 0.475678 -0.180418)
(0.733173 0.58584 -0.345324)
(0.757298 -0.610445 0.23207)
(0.935181 -0.336664 0.109974)
(0.988026 0.00870188 0.154041)
(-0.589608 0.779953 -0.209846)
(-0.668075 0.721615 -0.181516)
(0.983515 -0.126349 0.129363)
(-0.635526 0.738682 -0.224625)
(-0.135667 0.990641 0.0149832)
(-0.168631 0.985639 0.00888497)
(0.0754556 0.995983 0.048215)
(0.30665 0.949348 0.0685782)
(-0.135208 0.990707 0.0147582)
(-0.174859 0.984563 0.00770263)
(0.121646 0.991054 0.0548964)
(0.899519 0.178131 -0.398916)
(0.95733 0.220949 -0.186283)
(0.907801 0.285486 -0.307238)
(-0.132989 0.991021 0.0137987)
(0.0257645 0.998815 0.0412771)
(0.122369 0.991363 0.0471765)
(-0.159885 0.987083 0.0101446)
(-0.159729 0.987108 0.0102469)
(0.0276646 0.99876 0.0413791)
(-0.133271 0.990986 0.0136139)
(-0.133653 0.990919 0.0147079)
(-0.16481 0.986278 0.00967812)
(0.154882 0.986679 0.0497688)
(0.0563859 0.997374 0.0454525)
(-0.162541 0.98665 0.0100921)
(-0.134434 0.990812 0.0147833)
(0.0461593 0.99797 0.043888)
(-0.626056 0.779752 -0.00640892)
(-0.635939 0.771703 -0.00749038)
(0.932291 -0.283702 0.22438)
(0.981211 -0.0081916 0.192766)
(-0.625162 0.730034 -0.276086)
(-0.62639 0.751964 -0.205394)
(0.97575 -0.083833 0.202197)
(-0.598197 0.73578 -0.317471)
(-0.245713 0.96931 -0.00792016)
(0.185132 0.981689 0.04487)
(0.172084 0.983815 0.0499601)
(-0.257361 0.966257 -0.0106367)
(0.244413 0.968266 0.0521887)
(0.904714 0.424095 -0.0404437)
(0.94368 0.303267 -0.132277)
(0.919859 0.387993 -0.0576171)
(-0.604403 0.796563 -0.0135884)
(-0.603168 0.797495 -0.01377)
(-0.219731 0.975527 -0.00809237)
(0.0669266 0.996497 0.0501373)
(0.0361799 0.998008 0.0516872)
(-0.219351 0.975612 -0.00812527)
(0.0646165 0.996621 0.0506995)
(-0.140349 0.990008 0.0136411)
(-0.00251805 0.999007 0.0444757)
(-0.165472 0.986167 0.00966411)
(0.0850462 0.994872 0.0547476)
(-0.165833 0.986106 0.00973351)
(-0.139814 0.990085 0.0135345)
(-0.00441222 0.998984 0.0448407)
(-0.143023 0.989614 0.0144165)
(-0.168283 0.985685 0.0102782)
(0.0715839 0.995784 0.0573617)
(-0.0178744 0.998732 0.047066)
(-0.167826 0.985764 0.010173)
(-0.143596 0.989529 0.0146081)
(-0.015462 0.99879 0.0466754)
(-0.605349 0.795848 -0.0133996)
(-0.606485 0.794985 -0.0132211)
(0.0831446 0.995476 0.0459929)
(-0.222902 0.97481 -0.00773589)
(0.0519249 0.997538 0.0471287)
(-0.222546 0.974891 -0.00780428)
(0.0813109 0.995605 0.0464772)
(-0.220067 0.975452 -0.00803999)
(0.0691549 0.996373 0.0495834)
(0.0424815 0.997851 0.0498817)
(-0.220539 0.975345 -0.00803609)
(0.0713175 0.996247 0.0490407)
(-0.144931 0.989329 0.0149275)
(-0.168725 0.985608 0.0103888)
(0.0625568 0.996295 0.0590185)
(-0.020429 0.998665 0.0474396)
(-0.169207 0.985525 0.0104988)
(-0.144206 0.989437 0.0147871)
(-0.0229809 0.998591 0.0478386)
(0.0150286 0.999834 -0.0103136)
(-0.0160269 0.999872 -6.81227e-05)
(0.00760387 0.999948 -0.00680243)
(0.956602 -0.00595656 -0.291337)
(-0.00317229 0.999992 0.00237559)
(0.957527 -0.0151623 -0.287943)
(0.943921 -0.114282 -0.309763)
(-0.0396339 0.999001 0.0206218)
(0.951547 -0.0632122 -0.300936)
(0.492716 0.847241 -0.19853)
(0.184157 0.98278 -0.0151525)
(0.435001 0.886032 -0.160383)
(0.0783882 0.996911 -0.00481842)
(0.0677167 0.997652 -0.0102002)
(0.0862234 0.996148 -0.0159539)
(-0.00627628 0.999962 0.00604958)
(0.0175673 0.999845 -0.00146532)
(0.000255842 0.999993 0.00369702)
(0.0532657 0.99853 -0.0100322)
(0.108955 0.993566 -0.0309197)
(0.0974676 0.994857 -0.0275487)
(0.998963 0.0430793 0.0147314)
(0.998008 0.0574467 0.0260646)
(0.985705 -0.168363 -0.00630485)
(0.998936 0.0439882 0.0138799)
(0.985753 -0.168067 -0.00661154)
(0.829999 -0.557762 0.001627)
(0.830996 -0.556274 0.00211397)
(0.986436 -0.164147 -0.000499921)
(0.998601 0.0459797 0.0261049)
(0.999357 0.0321999 0.0157692)
(0.999157 0.0386864 0.0137651)
(0.986263 -0.165152 -0.00317363)
(0.988706 -0.146233 0.0328127)
(0.978194 -0.198257 0.061899)
(0.989939 -0.111961 0.0865202)
(0.983745 -0.170035 0.0577375)
(0.988868 -0.132323 0.0680523)
(0.986395 -0.156656 0.0498299)
(0.985722 -0.164958 0.0337655)
(0.994287 -0.106135 0.0113193)
(0.987739 -0.155955 0.00706232)
(0.996365 0.0609965 0.0594711)
(0.996765 0.0589561 0.0546271)
(0.997497 0.0342818 0.0618356)
(0.994853 -0.101082 0.00709195)
(0.987884 -0.154737 0.011902)
(0.996086 -0.0882511 -0.00502878)
(0.984941 0.162356 0.0594364)
(0.983817 0.172533 0.0483446)
(0.98692 -0.161166 -0.00379268)
(0.985079 0.161891 0.0583955)
(0.98695 -0.160978 -0.00393562)
(0.996067 -0.0884506 -0.00512154)
(0.995598 -0.0937257 0.000792201)
(0.98755 -0.157268 0.00338787)
(0.99024 0.131098 0.0472988)
(0.994567 0.0865609 0.0578287)
(0.992352 0.109575 0.0568422)
(0.987392 -0.158296 0.000614626)
(0.995281 -0.0969693 0.00360257)
(0.829366 -0.558704 0.00152065)
(0.831396 -0.555676 0.00222223)
(0.970519 -0.213514 0.111824)
(0.990456 -0.100779 0.0940285)
(0.980288 -0.187171 0.0632682)
(0.989002 -0.107144 0.10196)
(0.985793 -0.154986 0.0647458)
(0.986692 -0.162567 0.00329292)
(0.999561 0.0226071 0.0191518)
(0.999261 0.0136731 0.0359225)
(0.999657 0.00957633 0.0243635)
(0.986871 -0.161286 0.00853808)
(0.104888 0.993722 0.0389145)
(-0.227789 0.973694 -0.00571875)
(0.0744243 0.996419 0.0401164)
(-0.227608 0.973735 -0.00591323)
(0.103638 0.993838 0.0393167)
(-0.621363 0.783452 -0.0105129)
(-0.621981 0.782965 -0.010285)
(-0.22624 0.974047 -0.00692378)
(0.0683892 0.99677 0.042093)
(0.096771 0.994423 0.0419314)
(-0.226522 0.973982 -0.00678387)
(0.0979956 0.994322 0.0414914)
(-0.138979 0.990206 0.0132789)
(-0.000594968 0.999025 0.0441458)
(-0.165125 0.986226 0.00960661)
(0.0921068 0.994323 0.0532758)
(-0.139389 0.990147 0.0134063)
(-0.164787 0.986283 0.00955233)
(0.00119984 0.999039 0.043811)
(-0.137002 0.990487 0.012917)
(-0.162788 0.986616 0.00947244)
(0.0112234 0.999047 0.0421763)
(0.102543 0.993419 0.0510324)
(-0.136564 0.990547 0.0129132)
(-0.163126 0.98656 0.00945722)
(0.0096676 0.999053 0.0424137)
(-0.133973 0.990896 0.0132869)
(0.02394 0.998863 0.0412225)
(-0.160112 0.987048 0.0100374)
(0.116461 0.992039 0.0479117)
(-0.133569 0.990948 0.0134467)
(-0.160414 0.987 0.00993007)
(0.0223114 0.9989 0.0412382)
(-0.135837 0.990647 0.0129035)
(-0.162453 0.986671 0.00950136)
(0.108118 0.99289 0.0497907)
(0.0128604 0.999036 0.0419787)
(-0.162108 0.986727 0.00954107)
(-0.136213 0.990596 0.0128992)
(0.0143978 0.999023 0.0417835)
(-0.620586 0.784065 -0.0107246)
(-0.619802 0.784682 -0.0109303)
(0.0848966 0.99535 0.0455164)
(-0.223321 0.974715 -0.00767705)
(0.056939 0.997335 0.0456229)
(-0.223764 0.974613 -0.00763179)
(0.0865908 0.995225 0.0450486)
(-0.225899 0.974125 -0.00704365)
(0.0954879 0.994528 0.0423691)
(0.0643837 0.996983 0.0433536)
(-0.225614 0.97419 -0.0071733)
(0.0941566 0.994637 0.0428072)
(0.998987 0.0421842 0.0156559)
(0.98566 -0.168639 -0.0058639)
(0.99803 0.0556474 0.0289712)
(0.999004 0.0414111 0.0166154)
(0.985612 -0.168939 -0.00533186)
(0.837609 -0.546188 0.00950462)
(0.838191 -0.545299 0.00920617)
(0.985249 -0.17112 -0.00145944)
(0.99802 0.0526777 0.0343532)
(0.998963 0.0397164 0.0222401)
(0.998985 0.0396573 0.0213437)
(0.985322 -0.170694 -0.00213025)
(0.99546 -0.095087 0.00424944)
(0.987957 0.131054 0.082256)
(0.985354 0.155904 0.0690761)
(0.986687 -0.16249 0.00680596)
(0.987926 0.132246 0.0807034)
(0.986708 -0.162392 0.00604538)
(0.995425 -0.095414 0.00507187)
(0.995643 -0.0932447 0.000246661)
(0.986805 -0.161908 0.00154365)
(0.987351 0.141416 0.0716862)
(0.985353 0.158733 0.062323)
(0.987507 0.139563 0.0731556)
(0.995694 -0.0926971 -0.000511391)
(0.986788 -0.161998 0.00227947)
(0.995995 -0.0892828 -0.00473248)
(0.985061 0.16119 0.0605999)
(0.9869 -0.161294 -0.0034785)
(0.983978 0.170606 0.0517698)
(0.996042 -0.0887434 -0.00500669)
(0.985305 0.159211 0.0618514)
(0.986882 -0.161414 -0.00303836)
(0.995774 -0.091814 -0.00195911)
(0.986817 -0.161838 0.000817379)
(0.985034 0.16219 0.0583293)
(0.987141 0.143602 0.070226)
(0.986907 0.145891 0.0687789)
(0.986827 -0.161778 0.000102721)
(0.995731 -0.092293 -0.00125007)
(0.836912 -0.54725 0.00978785)
(0.836098 -0.548488 0.0100604)
(0.998647 0.0430521 0.0291557)
(0.997725 0.052154 0.0427089)
(0.984535 -0.175143 0.00391796)
(0.998695 0.0425227 0.0282943)
(0.984629 -0.174626 0.00324677)
(0.985178 -0.171533 -0.000788064)
(0.998936 0.0398985 0.0231236)
(0.997944 0.0519773 0.0375051)
(0.998903 0.0402035 0.0239976)
(0.985089 -0.172044 -0.000115464)
(0.821977 -0.569345 0.0141686)
(0.821043 -0.570682 0.0144933)
(0.983555 -0.180322 0.0101546)
(0.998188 0.0471127 0.0374339)
(0.997074 0.0529721 0.0551142)
(0.998135 0.0474183 0.0384334)
(0.983441 -0.1809 0.0108756)
(0.995343 -0.0961616 0.00673355)
(0.987987 0.129825 0.0838311)
(0.985188 0.155038 0.073272)
(0.986668 -0.162571 0.00757034)
(0.987987 0.128776 0.085428)
(0.995393 -0.0956989 0.0059024)
(0.986639 -0.16271 0.00833839)
(0.995135 -0.0979042 0.010995)
(0.986443 -0.163583 0.0130744)
(0.98485 0.153477 0.0807221)
(0.988068 0.120772 0.0955793)
(0.988055 0.122254 0.0938135)
(0.986483 -0.163406 0.0122705)
(0.99509 -0.0982584 0.0118644)
(0.822961 -0.567929 0.0138538)
(0.823828 -0.566678 0.0135442)
(0.998598 0.0435883 0.0300231)
(0.997564 0.0525399 0.0458929)
(0.984433 -0.1757 0.00458945)
(0.998548 0.0441325 0.0308997)
(0.98432 -0.176311 0.00526516)
(0.983679 -0.179685 0.00944093)
(0.99824 0.0467762 0.0364525)
(0.997268 0.0529564 0.0515033)
(0.998291 0.0464252 0.0354872)
(0.98378 -0.179166 0.00872901)
(0.994978 -0.0991678 0.0136183)
(0.986404 -0.16375 0.013884)
(0.984631 0.152264 0.0855461)
(0.988087 0.11917 0.0973808)
(0.988087 0.11764 0.099219)
(0.986354 -0.163982 0.0147003)
(0.995044 -0.0986131 0.0127403)
(-0.00826395 0.999965 0.00157019)
(-0.00196028 0.999995 0.00249354)
(-0.00167791 0.999996 0.00225531)
(-0.00904046 0.999956 0.00268531)
(-0.00453587 0.999988 0.00178613)
(-0.00621421 0.999976 0.0031341)
(-0.00646619 0.999977 0.00215778)
(-0.00121392 0.999999 0.000560702)
(0.00413369 0.999991 0.000476803)
(-0.00206616 0.999996 0.00189506)
(-0.00140733 0.999998 0.00143417)
(0.00128808 0.999999 0.00112233)
(-0.000736197 0.999999 0.000910567)
(-0.00398771 0.999991 0.00139685)
(0.831831 0.554932 0.0104228)
(0.832493 0.553933 0.0106528)
(0.746418 0.660171 -0.0838716)
(0.750007 0.661391 0.00721076)
(0.84456 0.535458 0.00173839)
(0.750628 0.655799 -0.0805273)
(0.84055 0.541465 0.0170532)
(0.883243 0.468916 -0.000153986)
(0.786935 0.612907 -0.0712655)
(0.80181 0.597545 0.00637186)
(0.893455 0.44759 0.0374292)
(0.788284 0.608998 -0.0879145)
(0.862282 0.505212 0.0350848)
(0.892464 0.450841 0.0157895)
(0.997538 0.0575368 -0.0400834)
(0.999188 -0.000114226 -0.0402845)
(0.999001 -0.0152951 -0.0419831)
(0.999048 0.0163321 -0.0404537)
(0.00140277 0.999996 0.00241506)
(0.00371143 0.999989 0.00273661)
(0.00592011 0.999982 0.00088478)
(0.00641284 0.999975 0.00309274)
(0.00157577 0.999997 0.00180984)
(0.00647739 0.999978 0.00133471)
(0.00546513 0.99998 0.00321499)
(-0.00369593 0.999989 0.00282503)
(0.000295101 0.999997 0.00259897)
(0.00199638 0.999992 0.00356283)
(-0.000186557 0.999993 0.00366503)
(-0.00282217 0.999993 0.00255814)
(-0.000440546 0.999996 0.00285182)
(0.00332911 0.999988 0.00368056)
(0.997842 -0.0517497 -0.0404229)
(0.999122 0.0144995 -0.0393165)
(0.998081 0.047093 -0.0402112)
(0.998729 -0.0310498 -0.0397018)
(0.771701 0.631392 -0.0763035)
(0.976418 0.199136 -0.0833865)
(0.970871 0.231288 -0.0625761)