/*--------------------------------*- C++ -*----------------------------------*\
| =========                 |                                                 |
| \\      /  F ield         | OpenFOAM: The Open Source CFD Toolbox           |
|  \\    /   O peration     | Version:  2012                                  |
|   \\  /    A nd           | Website:  www.openfoam.com                      |
|    \\/     M anipulation  |                                                 |
\*---------------------------------------------------------------------------*/
FoamFile
{
    version     2.0;
    format      ascii;
    class       volScalarField;
    location    "0.106/solid";
    object      sigmaMid;
}
// * * * * * * * * * * * * * * * * * * * * * * * * * * * * * * * * * * * * * //

dimensions      [1 -1 -2 0 0 0 0];


internalField   nonuniform List<scalar> 
3125
(
-130.224
-158.141
-143.181
-130.666
-142.527
-174.599
-155.29
-203.93
-130.229
-24123.2
-9085.25
-8407.79
-142.51
-143.398
-130.764
-55297.9
-4198.3
-8476.63
-8930.75
-3724.02
-3923.64
-3695.52
18.5714
-128.972
19.8312
-7.38927
-476.668
-95.8515
18.3621
-141.372
-151.441
-138.207
-2.63621
13.7528
16.5933
17.844
-128.962
19.7458
19.9039
17.9029
17.9217
-656.013
-946.253
-12.2335
-74.8287
-519.048
-13227.7
-76996.9
-4072.52
-117.768
-3284.11
-9909.81
-3840.48
-77703.9
-1149.38
-96.9579
-426.94
-2880.77
-8140.39
-2694.36
-517.665
-439.69
-8027.54
-2662.64
16.2927
-141.36
-148.56
-136.562
19.435
15.1371
-6.57332
11.5657
17.5406
13.2983
-17718.1
-22246.5
-12193.6
-110908
-14084
-7260.81
-7940.07
-11776.3
-123339
-24485.4
-640.881
-582.963
-8643.27
-2902.88
-3039.02
-3244.49
-8699.32
-3058.61
-527.069
-577.15
-17604.9
-17114.5
-3757.05
-6788.04
-7085.72
-7201.58
-3757.94
-7107.99
-16413.9
-17042
-15256.3
-6727.7
-3569.14
-6212.25
-16306.3
-15407.9
-3512.72
-6125.04
-84.2238
-129.631
-83.4246
-107.748
-192.684
-123.053
-143.99
-131.86
-84.5475
-85.6513
-141.969
-162.583
-145.891
-105.469
-97.72
-129.574
-83.8642
-83.1141
26046.8
26793.3
14978.2
-17789.5
-26146.7
-7656.89
-1591.19
-3961.39
-9267.59
-4172.32
-91342.3
20992.2
21492.8
-3487.86
-8331.13
-3334.26
23527.3
23122
-7753.14
-3024.77
-141.908
-144.649
-132.609
-84.2631
-85.9604
-46627.5
-47685.5
-26191.5
-81496.6
-25598.1
-1970.99
-4752.73
-2588.51
-123046
-63525.1
25825.9
25247.4
-8536.2
-3467.62
-3612.35
-3987.2
-8837.12
-3822.8
23651.1
24010.3
-46300.7
-45380.1
-3742.08
-1570.8
-1554.37
-1745.28
-3810.16
-1794.46
-42218
-43001.1
-37763.4
-1404.17
-3660
-1379.11
-41944.9
-41072.9
-3383.92
-728.423
-55.4984
19.298
-54.6325
-129.387
-82.8857
-83.2328
19.3939
-54.1705
-54.4579
-78.865
-24.3499
-92.2606
-181.681
-150.618
-127.71
-34.2405
-129.628
-100.351
-86.0916
-55.783
17.4465
-56.7502
17.1739
-57.135
-141.584
-155.701
-143.26
-91.3312
-96.0211
-76.0187
6.81536
-68.2966
-61.8755
8.82415
-66.5552
68.9304
17.2006
69.3659
17.3388
69.9359
69.7304
-129.322
-82.8512
-82.9624
-54.9151
20.0227
-54.1913
-54.1219
20.1152
-54.0723
70.6522
18.0334
70.9058
70.4664
18.135
70.5393
18419.4
-722.047
18972.3
27816.5
27061.6
-760.988
19813.5
19176.9
50.5226
-28.2749
41.1213
-36.3565
33.6089
43.4932
3480.26
-208.257
148.84
2410.3
-4860.51
-5208.58
-37781.4
-18243.7
-2580.59
-8851.03
-2228.31
-4149.03
-9390.87
-4799.48
-183.268
-2305.32
-352.09
-3482.83
-3437.91
-3616.85
-9852.08
-4639.55
-4176.2
-3510.32
-3945.09
-3642.08
28000.3
27335.2
-92291.9
-10460.7
-1589.39
4716.32
-2141.19
19965.9
-2578.26
17835.2
30.9899
-1972.18
-11.6934
22304.6
21710.1
-369.472
15200.9
15775.8
-384.695
15355
-3111.06
-2808.04
-3005.81
-8243.8
-3187.08
-3348.63
-2781.62
-2886.76
-3002.34
22483.5
22973.4
16643
-486.912
16355.9
15903.1
-475.414
16251
-2521.16
-2736.99
-7899.11
-3195.3
-3022.6
-2558.34
-2878.44
-2750.99
68.5503
15.3749
67.9624
15.0312
67.6382
-141.516
-146.343
-133.682
-90.0068
-86.7895
-55.2617
18.4829
-56.6872
-60.5975
17.9045
-57.4259
54.9478
4.05995
63.5508
6.51834
67.419
63.1815
70.9363
16.634
70.1573
15.9554
68.2917
70.7818
-30549.2
-18423.2
-31251.1
-49644.6
-48075.1
-18905.1
-33567.9
-31585.8
-18538.5
-8711.25
-20140.8
-92428.4
-37184.3
-28714.4
-10069.6
-28918.5
-22644.3
-2876.38
-7850.09
-3561.98
-5928.59
-6572.85
-3256.12
-8321.54
-7822.19
-4198.99
-50478
-57909.1
-124303
-47576
-54531.4
-34951
-39269.3
-46550.9
18260.9
-610.481
17851.2
24635.5
25080.5
-602.04
17422.8
17734.9
-8592.06
-3730.41
-3587.35
-3110.37
-2963.55
-3205.95
-3293.16
-2982.49
-3201.69
-3482.98
-3150.3
-3376.67
-8760.51
-3702.86
-3850.04
-3124.31
-3287.32
-3381.02
24500.9
24128.3
16730.6
-551.896
16984.8
17329.3
-558.481
17067.9
-30363
-17377.2
-29859.7
-44276.2
-45092.4
-17313.7
-29248.4
-29702.6
-3752
-1637.93
-1709.99
-2584.97
-6943.49
-2615.92
-2679.6
-6987.09
-2707.37
-2719.41
-7149.68
-2736.19
-3767.49
-1778.96
-1655.02
-7143.42
-2753.42
-2667.71
-44017
-43254.8
-28020.9
-16709.3
-28500.2
-29100.2
-16799
-28652.7
-39383.2
-38194.2
-14590.6
-25188.6
-26232.8
-14766.3
-25466.8
-2479.94
-6526.86
-2406.34
-3616.12
-1153.57
-1206.38
-6453.03
-2189.59
-2293.45
-39747.9
-40760.7
-27851.8
-15953.9
-27306.4
-26466.1
-15826.5
-27109.5
-5747.36
-1823.72
-3450.45
-977.903
-903.707
-5846.32
-2071.73
-1943.66
12519.4
12631.9
-43974.7
-9626.9
11507.7
11464.2
-30108.3
-30360.6
-94012
-67979.5
12408.1
12313.2
11548.5
11584.9
-29872.2
-29640.5
-27094.5
-27266.4
-26915.4
-26735.6
31.0474
19.0097
31.9472
19.9438
32.29
32.8306
10.4937
-11.5339
4.08787
-64.8698
-59.3683
-32.3229
30.912
18.2734
31.2918
17.4371
1.10482
20.4222
27.4635
12.7252
26.9765
44.2744
16.5246
43.7671
17.4683
45.4436
44.6717
32.1859
20.1065
32.9881
32.3543
20.2648
33.1307
45.7214
17.7308
45.1277
45.5572
17.8274
45.0607
10607.7
-673.303
3566.9
3597.92
10700.8
13403
13305
3905.64
-881.247
11280.1
3828.22
11196.2
18.1801
-16.7218
13.6833
-58.2163
-23.8815
-4.89803
-31504.8
-70743.1
-49891.5
-48629.5
-34241.1
-48694.3
-45892.8
3934.3
1087.42
-4100.95
-4362.38
3723.62
1296.09
-4264.7
-144.807
-380.5
-474.817
3247.86
-3551.84
-3327.86
837.315
843.062
-3592.5
3216.04
3530.65
1054.19
-3707.95
-3969.11
968.107
3660.53
-3883.88
13510.4
13447.8
-81991.8
-46453.4
-56062.1
-46661.8
-47116.4
-56473.4
3966.79
11207.6
-1225.28
4050.42
11155.9
-47.6918
-307.47
-167.259
11053
10971.6
3271.32
9299.57
-412.571
3253.02
9232.88
3067.23
-3094.13
1003.61
-2857.55
1014.88
3075.12
-3066.13
3010.77
1054.34
-2724.34
-2883.48
1050.87
2994.24
-2916.95
11121.1
11189.6
9720.6
3377.27
-506.909
3369.7
9677.72
3291.25
9362.69
-450.877
3307.78
9423.07
2958.22
1057.5
-2629.03
-2849.4
1060.6
2977.26
-2812.57
43.9367
15.7386
43.0517
31.9576
19.5389
32.4141
28.3185
16.3857
29.8231
23.4628
-2.83179
26.7766
10.1685
40.1679
38.5286
45.4084
17.2655
44.8195
14.0653
41.8099
42.1359
-27566.6
-17873.5
-29616.6
-27766.7
-29862.3
-32039.8
-31718.7
-34875.6
-20676.1
-31761.1
-30374.1
-33186.8
-78881.9
-103700
-71703
-111357
-67407.4
-81709.4
-106025
-33886.7
-31127.3
-12176.3
-17505.7
-15586.4
-30119.9
-34833.6
-21453.2
-5086.28
-7367.5
-22852.4
-5200.1
-23087.5
-21178.1
-25506.8
-28594
-10139.5
-9866.98
-8173.1
-26722.5
-27496.8
-32402.4
-32999.9
-124844
-81286.5
-108004
-87806.9
-86312.2
-37223.4
-33769.8
-27826.3
-36842
-40676.3
10522.6
3542.66
-628.759
3519.06
10444.3
11889.9
11941.4
3436.82
-587.825
10093.1
3447.06
10141.9
3087.64
-3119.61
992.66
-2923.68
3080.73
982.21
-3145.15
3110.44
909.607
-3287.76
-3019.89
3115.16
922.71
-3263.46
3175.88
-3514.38
837.189
-3209.55
3194.11
841.335
-3478.68
3126.43
898.54
-3078.7
-3310.6
887.031
3120.04
-3335.39
11832.9
11788.5
9761.82
3382.57
-535.211
3389.76
9802.66
3427.34
10047
-570.707
3420.85
10003.6
-27398.9
-29420.3
-17516.7
-27250.7
-29253.1
-28440.9
-28622.8
-28496.4
-17183.4
-26488.5
-26612.9
-28613.1
-19716.3
-4746.49
-6843.7
-21286.7
-4789.48
-21393.3
-19616.7
-20141.7
-21941.8
-4971.21
-7058.52
-4957.32
-20218.7
-21859
-20825.4
-5020.16
-22679.5
-7171.75
-20979.4
-4995.02
-22544.9
-20367.8
-22021.1
-7124.12
-4985.83
-4987.92
-22100.4
-20291.9
-28270.2
-28101.3
-25405
-16516.9
-27481.7
-25554.1
-27620.5
-28379.4
-26362.8
-16965
-26235.4
-28258.7
-25260.5
-25015.4
-25904.3
-23769.1
-15099.2
-23546.7
-25684.3
-19409.9
-4693.41
-6664.61
-21176
-4642.64
-19516.8
-21060.6
-18795.1
-20235.6
-6295.4
-4255.76
-4324
-20390.9
-18651.1
-25492.2
-25721.3
-25251
-16193.7
-27335.9
-25091.4
-27182.9
-26114.5
-23982.6
-15553.2
-24187.8
-26313.2
-18348.4
-20073
-6035.58
-4179.04
-4104.61
-19903.9
-18504.2
-103.871
-104.822
-84.5118
-83.9262
-104.318
-84.069
-104.565
-103.704
-83.6371
-83.6538
-104.12
-83.7385
-103.563
-104.326
-132.447
-127.628
-104.264
-112.735
-120.941
-111.898
-134.3
-121.647
-127.768
-115.125
-145.386
-111.793
-149.251
-132.373
-121.264
-121.038
-122.636
-121.254
-104.962
-105.183
-84.7445
-84.8795
-104.548
-85.0091
-105.565
-105.375
-85.8868
-106.437
-85.2645
-105.94
-85.3786
-106.022
-121.188
-119.956
-119.942
-119.745
-181.358
-110.46
-122.373
-150.858
-118.278
-126.627
-103.657
-102.162
-123.602
-99.3739
-122.868
-118.098
-95.2113
-118.792
-100.006
-114.987
-97.9586
-121.224
-73.8264
-257.198
-406.008
24.6881
-103.61
-104.674
-84.0794
-83.5638
-104.046
-83.5569
-104.389
-103.521
-83.1603
-103.955
-83.3007
-103.283
-83.4483
-104.144
23102.3
26282.7
23319.1
12895.5
12761.8
26531.7
23778.2
23547.1
62567.5
40012.9
20318.8
6865.79
10257.4
209.567
-1489.36
-8086.39
-1258.89
13362.5
-6202.22
4156.43
-4200.7
-2410.89
3788.58
3850.47
-2968.38
-3983.78
4191.15
10477.9
-303.268
-50206.6
-40864.6
-10242.7
16853.9
3783.47
3000.22
10713.1
10605.2
18918.4
21264.3
18715.5
3603.57
-1451.03
3973.79
-3548.31
3939.97
-3453.06
-1402.19
3577.1
11370.1
11411.3
20749.2
23397.7
20632.5
20381.7
23262.4
20507.8
3342.75
-1164.19
-2969.33
3664.59
-121.026
-119.394
-119.721
-119.424
-120.937
-121.064
-123.118
-121.028
-104.781
-105.095
-84.3837
-84.7042
-104.393
-84.7571
-105.614
-105.397
-86.0616
-107.044
-85.2883
-106.295
-85.1562
-106.294
243238
35229.1
26088.3
7396.45
3497.64
3069.83
7885.65
-50678.8
-37604.5
-39607.7
-36743.4
-14095.9
-13745.5
-15057.8
-15196.6
6395.96
3577.57
3604.35
6491.16
3650.48
7149.73
6992.85
3679.32
-12411.3
-11824
-11813.5
-12420.3
-12907.4
-13394.7
-12957.7
-12388.5
-60938.9
-46966.5
-61462
-30885
-30617.5
-47316.7
-62565.5
-62004.5
-46283.5
-62550.9
-43383.8
-67322.2
-48646
-43306.3
-40647
-47704.6
-17279.4
-14666.2
-15550.7
-16589.3
-17865.9
-16916.6
-15836.4
-18841.9
-38157.7
-45382.9
-118573
-88668.2
-84851.9
-68434.4
-76584.1
-73466.7
22895.1
25619.5
22703.1
12144.7
12216.9
25426.3
22351.7
22518.3
4001.08
-3642.59
3623
-1500.3
3642.78
-1550.66
-3734.73
4025.46
3747.55
-2108.86
4126.36
-4223.33
4106.64
-4176.51
-1940.08
3719.9
11664.3
11622.7
20862.1
23772.9
20972.8
21189.8
23891.5
21081.1
-60443.2
-45984.1
-59972.8
-29205.6
-29419.3
-45677.1
-59108
-59527.4
-14882.9
-12534
-13000.5
-14664.7
-14693.5
-13086.9
-12605.7
-14918.3
-15804.9
-14661.4
-13914.4
-16312.3
-15716
-13430.4
-14084.5
-15326.9
-27601.5
-27436.6
-55188
-42484.3
-55498.2
-56100.8
-42744.7
-55801.6
3539.65
6293.04
6183.64
3507.55
3151.76
3226.26
5557.69
-11832
-12396.1
-12370.9
-11829.8
-11584.9
-11983.9
-24218.6
-23926.8
-49841.8
-37316.1
-49287.2
-14627.4
-12917.2
-14851.7
-12456.4
-14806.5
-12374.7
-12825.2
-14583.5
-26349.9
-26546.8
-54870.3
-41664.4
-54543.4
-53846.5
-41373.8
-54201.7
-14052.4
-12176.9
-11748.9
-14312.1
-10.7598
2.79988
-75.2722
-55.1243
-74.7227
-12.1083
3.57495
19.4618
32.118
32.5087
-9.71454
-74.3716
-54.8115
3.85464
-74.3012
-10.9428
4.05933
-102.902
-103.493
-83.1027
-82.9651
-83.072
-102.876
-103.591
-103.123
-83.4202
-103.915
-83.0813
-103.35
-83.2173
-103.747
19.9372
32.1801
32.8966
-9.64637
4.07817
-73.8452
-54.1827
-73.6885
-10.7123
4.4789
-9.50528
-74.1607
3.96074
-54.2672
-10.8048
-73.8242
4.49334
-36.6211
-17.3907
-101.494
-82.9174
-106.915
-32.5795
-20.7891
-17.3421
-7.18267
-1.07679
-42.5462
-119.477
-86.9035
-31.7031
-110.71
-50.7151
-25.9494
-127.678
-158.308
-219.387
-158.615
-192.335
-179.4
-151.024
-186.653
-130.028
-137.636
-138.186
-119.514
-161.744
-163.102
-52.6353
-16.1344
-23.677
-131.242
-126.59
-198.482
-134.973
-190.855
-169.238
-98.4176
-79.7361
-129.402
-43.0595
-108.345
-62.2679
-145.225
-56.5246
-11.2862
2.62345
-75.4985
-56.0164
-75.6033
-12.1766
2.85734
18.0564
30.3301
31.1588
-11.4666
-76.6293
-56.3437
1.96594
-76
-12.9474
2.65517
30.1308
-76.937
1.70282
-13.0961
-119.788
-118.869
-119.991
-119.031
-125.386
-131.084
-138.566
-125.06
-111.776
-112.531
-90.3072
-92.7694
-91.6402
-110.498
-114.02
-112.576
-94.4443
-117.251
-94.3246
-114.458
-92.5587
-115.524
-25.5829
-14.7616
-98.9926
-72.9475
-94.9403
-30.0469
-11.6848
4.88379
23.332
22.6055
-22.2058
-89.0746
-70.4742
-7.35626
-92.1027
-20.9843
-8.99213
-16.6873
-1.8784
-81.6556
-63.2398
-83.2719
-16.3137
-2.73638
10.7224
24.0901
25.6347
-18.0643
-87.4887
-64.8254
-6.03555
-84.9873
-20.7045
-4.21929
-1338.36
1205.31
342.967
-593.255
67.4416
67.5323
66.3114
16.9061
44.9664
44.2409
68.0965
68.0568
66.8003
17.4637
45.1342
44.7775
68.5145
68.356
67.1717
68.2825
68.5931
67.2852
-102.837
-103.474
-83.0841
-82.8317
-102.906
-82.9495
-103.53
-102.952
-83.2068
-103.778
-82.8801
-103.257
-82.8776
-103.651
-9.66215
3.72061
-74.7458
-54.5705
-74.1006
-11.2063
4.41911
20.4115
32.7795
33.3204
-9.36578
-73.8389
-54.312
4.43147
-73.9943
-10.226
4.72098
-9.48112
4.13402
-73.823
-53.9919
-10.6823
-73.5627
4.73077
20.4245
32.8468
33.4091
-8.85533
-73.9055
-53.9664
4.50746
-73.4112
-10.377
4.93515
68.9029
69.439
67.8288
18.0501
45.929
45.519
69.5865
69.171
68.1213
68.7479
68.7339
67.5166
17.9294
46.0005
45.278
69.3421
69.1223
67.887
16871.6
18592.6
17035.8
-695.243
3676.66
10905.2
3634.16
10799.8
18775.6
17404.5
17212
13039.4
13173.5
24476.7
27593
24396.8
24009.7
27330.1
24216.6
-803.365
3721
11008.8
3772.14
11117.5
18287.4
19603.1
18047.4
17608
19393.5
17831.5
43.8961
44.3867
38.5637
-22.3143
6.72374
9.61719
43.1867
33.6353
35.8731
-50.7276
4.22262
-0.88544
15.637
37.5738
24.7033
32.6726
38.6457
27.5323
-118.372
-360.641
-320.817
-192.13
-377.335
-258.825
-308.02
148.753
1173.85
-645.605
-577.47
-1274.19
-628.171
-313.894
4878.5
2848.86
4283.38
-16559.4
-176.123
7238.97
6935.44
20651.7
277.854
-31838.1
560.953
-16652
4317.6
-1681.79
-31147.6
-26661.5
-2164.82
-16790.8
-6884.5
239.173
-8397.01
-1063.66
5906.08
1172.8
-4591.65
3833.73
-5455.63
1971.96
-8292.91
4612.78
1195.21
-4645.35
-234.202
-231.287
-356.633
-51.6776
-248.304
-230.626
-296.881
-429.597
-2345.21
-809.498
-580.942
181.449
-437.481
-750.157
-702.255
-111.793
-520.871
3283.39
-3379.16
869.893
-3685.65
852.676
3330.33
-3636.83
3996.54
-7288.08
4287.56
-1365.37
4280.97
-3343.85
3963.61
-4458.04
3458.02
-3592.61
891.719
-3742.12
930.92
3382.42
-3803.37
12405.3
13281
24488.6
28011.2
24099.1
21016.5
27766
23366.5
-91822.3
-53808.8
-104222
-53531.5
-71012.2
-20618
3335.05
-663.503
1360.88
-11226.1
-32515.4
-2071.87
-20391.2
-7843.26
2180.28
-12113.9
-2594.13
-2744.63
-3445.84
18449.1
20111
18678.6
-1969.34
4045.8
8395.36
4043.85
10226.4
19908.4
14647.7
18389.6
0.807487
19.0169
-46.6954
-339.996
-1083.1
-308.622
-59.473
-299.303
-209.937
10804.2
10888.1
19643.1
22114.9
19473.6
19113.8
21917.4
19298.3
-353.266
3182.92
9009.8
3158.57
8927.5
15038.5
14081.9
13936.7
14588.9
15641.7
14470.7
-398.357
3207.5
9087.85
3231.07
9161.68
15502.3
14218.3
14347.7
3059.34
-2833.18
1031.72
-3009.44
3048.81
1023.58
-3038.59
3852.14
-3262.6
3503.96
-1306.96
3544.35
-1355.08
3900.1
-3358.85
3024.94
-2753.33
1038.55
-2980.11
3037.94
1045.39
-2947.78
11310.5
11251.1
19802.7
22654.9
19958.3
20245.5
22817.5
20105.4
15336.5
16551.1
15258
-496.363
3349.99
9584.24
3358.71
9632.14
16455.9
15092.5
15177.1
14700.3
16024.5
14805.5
-462.526
3336.7
9533.63
3323.21
9480.27
16140.3
15002.1
14906.1
2867.59
-2481.41
1061.52
-2699.12
1060.87
2892.43
-2657.15
3456.96
-1260.51
3796.96
-3166.6
3734.87
-3070.97
3403.74
-1212.37
2938.46
-2594.1
1061.4
-2737.91
1061.46
2915.17
-2776.27
67.1139
66.7981
65.6226
15.5199
43.3546
42.9461
66.9608
66.6126
65.5949
42.9612
66.2189
-119.577
-118.934
-119.667
-118.756
-128.17
-123.84
-122.999
-124.227
-108.541
-111.176
-89.5785
-88.8252
-109.686
-88.3252
-109.986
-107.802
-86.5513
-107.937
-87.7256
-106.914
-87.5054
-108.898
-10.6156
3.46335
-74.9938
-55.5687
-75.2499
-11.2923
3.67208
19.1937
31.4288
32.2874
-10.4624
-76.6799
-56.0439
2.62403
-75.6036
-12.3611
3.44104
-13.6818
-0.883341
-80.667
-59.3754
-15.8785
-79.129
0.589206
17.7235
31.0483
31.0166
-12.2546
-77.1558
-58.2711
2.11973
-78.0537
-12.4669
1.74483
48.5833
58.3003
51.843
1.47399
33.6184
30.7611
60.3393
58.6671
55.1102
8.00272
35.8072
36.6741
64.2466
64.3217
61.849
60.0103
63.5668
60.5103
68.7917
68.8783
67.473
16.8306
44.9221
44.5474
69.3795
68.3053
67.4761
15.4586
44.3553
43.51
65.5328
68.2875
65.5344
68.0992
69.1273
66.6462
4829.02
-6416.97
-55140.7
23363
17962.5
-13893.6
5118.39
46919.1
-1934.58
11589.9
8921.23
1584.01
-23916.2
-26910.4
-35981.8
-30968.5
-20680.7
-19558.4
-16886
-17174.7
3648.89
6681.13
6589.28
3625.49
6772.4
3667.05
3681.01
6874.23
-11842.2
-12475.7
-12439.8
-11812.5
-12551.1
-11919.2
-12083.9
-12696.3
-30452.6
-30752.8
-30660.3
-18096.2
-28348
-30609.7
-28017.2
-30179.5
-30980.9
-31209.3
-30904.7
-31159.3
-31442.3
-64764.4
-49001.9
-64232.1
-63131.1
-48510.4
-63699
-19623.9
-28800.7
-31195.4
-29446.3
-32025.3
-34109.1
-32646
-32940.3
-31607.9
-32031.6
-32159.5
-31960.1
-25327.4
-28814.6
-28413.9
-37379.3
-38872.2
-42975.3
-33243.3
-65518
-52959.7
-34121.9
-54885.4
-49499.7
-53551.5
-67200.8
-38615.7
-22031
-26607
-46591.6
-19848.8
-45512.3
-39580.4
-21825.8
-7550.47
-5731.56
-23866.8
-5405.12
-23409.3
-22352.8
-23226.8
-22658.7
-20538.4
-25449.2
-21350.1
-17638.9
-19882
-19091.5
-24107.1
-9052.25
-6246.88
-24508.2
-7028.13
-25433.6
-23078.1
-35747.8
-33789
-65228
-51855.3
-65798.7
-67607.7
-53824.2
-66254.2
-128479
-84878.8
-90038.4
-63485.7
-55476.5
-60004.4
-70542.6
-72222.8
-68818
-56893.8
-72874.1
-35828
-37217.4
-38524
-32337.4
-47749.9
-52084.2
-41048.5
-45236.7
-40652.4
-48775.1
-42373.6
16724
18113.3
16589.6
-618.832
3482.47
10308
3498.33
10372.8
17977.5
16357.9
16468.5
12068.2
12003.7
21772.4
24775.8
21903.8
22192.5
24923.6
22045.2
-594.243
3468.81
10248.6
3458.42
10193.3
15990.2
17521.2
16072.9
16256.5
17624.3
16161.2
3671.03
-1667.85
-3921.88
4061.37
4045.4
-3829.19
3657.2
-1605.91
3092.31
-2943.72
958.366
-3194.19
3097.44
970.664
-3169.07
3106.52
-3001.07
946.302
-3216.98
3101.22
933.995
-3240.56
3160.74
-3178.24
855.316
-3416.08
846.503
3149.03
-3446.8
4077.22
-4014.28
-1738.45
3684.39
3701.42
-1824.53
4092.13
-4100.41
3132.7
-3100.36
864.561
-3388.06
876.232
3140.2
-3360.2
11702
11741
21644.3
24373
21526.6
21298.6
24249.1
21410.3
15410.5
16817.1
15482.7
-542.719
3401.91
9881.78
3395.83
9842.96
16900.7
15624
15553.3
15911.5
17239.1
15835.8
-564.326
3406.78
9921.43
3412.93
9961.82
17152.7
15693.4
15763.6
-30269.5
-30188
-30101.2
-17443.4
-26985.5
-28976.6
-27114.8
-29108.5
-30021.1
-29788.7
-29942.4
-29003.6
-28810.2
-57643.2
-44541.5
-57982.7
-58712.4
-44813.3
-58338.8
-17249.6
-26860.1
-28852.3
-26736.4
-28731.1
-29195.1
-29397.9
-29342.9
-29638.6
-29548.9
-29490.5
-14782.8
-13301.1
-12783.5
-15030
-14959
-12686
-14730.4
-13180.5
-19807.6
-6896.41
-4870.12
-21591.3
-4835.33
-19897.2
-21493.9
-20064.9
-7025.18
-4906.55
-21683.8
-4931.52
-19981.2
-21773.2
-20706.7
-7156.81
-4986.11
-22342.5
-4982.12
-22436.4
-20605.6
-15148.4
-12919.7
-13464.9
-14878
-15042
-13710.3
-15359.9
-13119.8
-20440.8
-7136.24
-4985.98
-22258.3
-4992.03
-22178.3
-20521.1
-27766.7
-27936.6
-57319.3
-43761.7
-57007.2
-56399.7
-43508.2
-56702.4
-27939.4
-28184.9
-28109.9
-16615.6
-25837.1
-27888.3
-25697.7
-27755.5
-28344.4
-28435.6
-28275
-29047.2
-28952
-28898.2
-16884.3
-25972.9
-28015
-26105.8
-28137.4
-28803.3
-28592.6
-28747
5950.12
3417.62
3466.8
6071.67
3359.3
5826.97
5694.47
3298.1
-12275.5
-11791
-11819.4
-12328.9
-11742.4
-12199.1
-12101.7
-11671.7
-24495.6
-24764.3
-51822.2
-39003.3
-51361.2
-50373.4
-38607.7
-50880.5
-14408.1
-22821.7
-24970.6
-22560.5
-24710
-24897.7
-25023.5
-24728.5
-26089.6
-25988.3
-25839.4
-14936.1
-23073.1
-25219.1
-23314.8
-25456.4
-25733.2
-25306.7
-25578.9
-19299.3
-6597.2
-4525.17
-20811.6
-4582.24
-19180.2
-20939.2
-14673.1
-12173.6
-12611.5
-14440.1
-14519.4
-12725.4
-14751.2
-12279.1
-18929.4
-6376.31
-4459.36
-20678
-4396.04
-19059
-20537.4
-26147.8
-25940.1
-52262.1
-40099.4
-52686.5
-53476
-40436.3
-53091
-27763.9
-27676.8
-27582.2
-16076.8
-24752.2
-26861.3
-24925.6
-27024.7
-27495
-27197.7
-27393.6
-26329.5
-26690
-26560.8
-15692.8
-24571.9
-26687.2
-24384
-26503.4
-26904
-26994
-26781.9
-17656.9
-5646.38
-3857.91
-19350.3
-3774.53
-19150.1
-17840.5
-14333.4
-12484.8
-12048.5
-14578.1
-14455.9
-11909.7
-14209
-12338.7
-18186.9
-5942.52
-3943.49
-19542
-4022.46
-19727.5
-18015.7
-134.904
-116.038
-129.985
-115.295
-135.387
-114.825
-115.792
-184.755
-140.727
-169.237
-109.846
-161.637
-157.328
-152.15
-136.174
-130.862
-116.416
-115.716
-135.637
-115.712
-116.797
-157.946
-151.082
-140.424
-135.656
-167.006
-117.548
-135.202
-134.986
-129.936
-115.167
-116.013
-114.628
-135.319
-115.726
-136.115
-131.09
-115.541
-116.447
-135.678
-115.63
-116.982
-133.942
-128.961
-114.003
-114.729
-113.749
-133.877
-114.821
-82.3496
-170.856
-1084.41
-414.73
374.873
-606.973
-141.076
-146.489
-139.364
-119.522
-123.822
-121.081
-144.289
-125.294
-133.976
-128.949
-113.986
-114.72
-133.977
-113.76
-114.797
-184.697
-1996.15
1802.63
-351.462
49.6483
-4772.71
-738.64
-141.055
-135.6
-120.019
-122.501
-142.632
-118.729
-121.354
-134.932
-129.659
-114.847
-115.389
-114.606
-134.872
-115.561
-161.229
-165.143
-212.696
-176.729
-81.5579
-230.853
-146.049
-136.742
-131.479
-117.169
-117.726
-116.52
-137.509
-117.297
-158.082
-148.29
-119.062
-130.552
-127.156
-153.438
-133.583
-134.94
-129.62
-114.774
-115.308
-114.522
-134.884
-115.486
-4276.61
16132.7
-43567.8
2885.42
-13739.1
4537.77
935.827
-6262.44
1897.94
191.072
-12230.3
-4184.88
-3762.39
3754.55
-256.962
-545.621
-4066.9
3328.67
-1343.47
-557.436
3447.11
-536.377
3483.08
-4047.53
-1333.08
-540.126
3370.15
-283.063
-428.955
-1178.56
3391.74
-3403.21
-114.281
-547.032
3287.74
-98.7611
3271.74
-3420.09
-536.53
-1153.69
3375.67
-410.669
-313.535
3193.11
-2934.72
-1020.49
-485.587
3083.6
-39.6882
-137.037
-131.928
-117.412
-118.474
-116.386
-138.157
-117.697
-60309.4
-71426.2
-54415.6
-88955.3
-46918.1
-65781.8
-84898.7
-51168.7
-43202.7
-24037.7
-39121.8
-28319.7
-43885.9
-54377.2
-14564.1
-3213.92
-1985.11
-14811.5
-296.699
-15070.1
-15188.5
-16048.8
-16246.5
-2350.28
-671.214
-3482.75
-15585
-15839.4
-125.692
-553.458
3299.53
-3551.61
-450.678
-1204.36
3404.26
-468.708
3411.38
-1227.09
-3528.71
-559.171
-140.846
3306.63
-560.074
-1339.23
3418.6
-3889.73
-236.858
-558.532
3307.75
-217.804
3303.54
-3915.61
-563.374
-1332.13
3411.43
-552.217
-12545.9
-3174.28
-1486.21
-13574.4
-522.456
-13323.5
-13674.6
-13432.9
-13769.2
-505.483
-1648.03
-3206.59
-12631
-13676
-14491.9
-230.227
-14618.9
-1830.57
-13814.6
-3151.87
-14393.1
-13375.1
-14162.6
-1669.61
-3168.48
-263.418
-14311.3
-14139
-13211.3
-535.996
-1480.05
-13564.1
-3127.62
-12448.6
-13460.7
-12345.4
-13328.6
-1309.64
-3079.16
-539.715
-13440.4
-13080.5
-12221.2
-12555.1
-774.791
-549.583
-2779.31
-12407.1
-11600.2
-134.284
-129.166
-114.657
-115.177
-134.683
-114.122
-114.996
-366.278
-289.065
15.2884
-154.1
-157.034
-433.805
-240.392
-148.523
-141.522
-123.447
-128.797
-151.803
-119.299
-126.811
-134.323
-129.099
-114.528
-115.116
-134.731
-113.997
-114.948
-1111.85
-4483.99
-18338.1
-2434.2
-157.163
8410.28
-2729.51
-466.332
-1044.68
3318.07
-5151.29
3883.51
-497.091
-2475.95
-2383.48
4870.18
-190.386
-5730.86
3419.16
3100.96
-1165.02
-8524.65
4171.17
-18564.3
-14888.2
-7325.3
4328.87
-22430.7
4027.17
-4317.36
3916.46
-4444.33
4089.27
3817.23
-4507.88
3709.76
4760.59
-5090.27
-7030.7
3197.76
4412.65
-4896.82
3480.14
-3659.39
-3542.06
3553.04
3616.57
-3703.36
3448.34
3508.42
3703.23
-3548.85
-3798.43
3624.55
3553.54
-3744.36
-491.92
-1426.29
3582.43
-4429.98
-367.888
3449.92
-745.767
-365.773
3415.14
-566.68
-4349.83
-499.424
3540.12
-1455.56
3711.85
-4139.02
3996.38
-3817.46
3820.16
3837.24
-4022.7
3664.92
3724.4
-3855.55
-3737.13
3593.38
3827.19
-3926.92
3280.7
-3211.67
3421.73
-3060.06
3383.82
3294.91
-3180.53
3273.13
3363.5
-3058.77
-3124.77
3401.44
3257.46
-3157.34
-72.3766
-517.937
3218.17
-3274.37
3323.93
-371.76
-1103.01
-388.852
3353.77
-1127.37
-3262.46
-86.5676
3247.9
-528.151
3213.01
-3001.4
3302.25
-2942.52
3345.07
3191.52
-3037.64
3227.41
3376.95
-3099.5
-2948.76
3246.52
3334.98
-3064.75
3043.39
3212.06
-2676.71
-2824.97
3157.58
3075.62
-2780.78
-350.251
-1075.53
3288.22
-3106.92
-62.3434
3181.06
-508.936
-48.6524
3136.5
-496.827
-3111.74
-333.97
3244.57
-1048.63
3148.23
-2971.94
3308.1
-2821.3
3173.84
3260.34
-2932.6
3128.84
3213.66
-2859.35
-2810.47
3100.03
3263.04
-2900.38
-140.028
-134.289
-118.08
-119.379
-139.093
-118.383
-120.301
-27681.5
-9741.19
-11412
-24179.5
-9432.37
-27659.9
-25271.2
-32683.9
-37345.7
-17814.1
-14691.5
-37669.8
-16606.4
-31624.5
-75415.6
-97931.2
-60373.9
-95375.2
-70561.7
-64147.9
-101736
-61831.8
-47891.8
-43172.1
-32005.5
-58594.2
-47405.4
-49892.5
-30976.6
-10644.8
-13096.2
-26717.4
-13920.6
-30419
-27250.7
-35535.2
-41074.9
-16788.5
-24638.6
-17958.1
-34765.1
-42141.6
-18320.7
-3478.55
-2946.68
-17011.4
-17382.7
-3588.75
-18027.5
-18713.1
-18472.5
-3258.32
-4155.35
-17809.6
-3819.99
-19279.4
-20534.3
-4492.53
-5086.92
-21665
-6066.29
-21732.2
-19595.5
-18025
-17028.3
-4258.83
-3912.14
-17715.9
-1870.23
-18191
-22572.9
-8371.4
-6193.99
-24107.1
-6677.81
-24616.6
-21973.5
-21127.4
-19287.8
-4708.02
-4962.28
-5503.51
-20044.1
-20479.9
-505.78
-1274.05
3413.84
-3645.57
3308.82
-169.278
-567.044
-153.859
3309.91
-563.006
-3671.62
-488.207
3414.21
-1251.22
3311.45
-3233.08
3401.09
-3160.35
3436.64
3299.74
-3262.32
3315.82
3450.48
-3157.3
-3310.27
3414.59
3326.66
-3281.88
3341.34
-3403.08
3471.59
-3244.85
3435.58
3351.33
-3375.07
3339.09
3425.97
-3250.37
-3329.1
3460.54
3329.09
-3356.56
3411.88
-3626.29
3557.19
-3427.65
3506.65
3432.19
-3587.23
3400.77
3479.05
-3429.72
-3525.68
3521.65
3385.9
-3559.81
-183.432
-567.419
3306.24
-3789.23
-523.939
3411.88
-1296.41
-538.233
3411.06
-1315.25
-3761.09
-200.06
3303.59
-566.479
3364.55
-3422.01
3446.75
-3336.42
3353.99
3482.82
-3450.42
3368.8
3499.35
-3501.97
-3330.8
3380.27
3459.81
-3470.82
-13642.4
-436.923
-1753.95
-13938
-3236.43
-13848.7
-12816.7
-12721.5
-13764.9
-3230.12
-1605.45
-13533.7
-474.726
-13856.5
-16790.4
-3217.69
-2555.71
-15561.7
-15657.5
-3244.05
-16710.8
-16856
-15784.4
-2654.39
-3311.57
-15692.3
-3293.71
-16929.4
-17104.8
-3385.73
-2741.06
-16012
-3389.98
-15924.8
-17167.2
-17053.2
-15812.4
-2657.75
-3352.24
-3359.72
-15899.5
-16987.2
-17668
-3396.22
-16793.1
-2753.29
-16573.1
-17826.9
-3382.69
-17560.2
-16322.4
-2663.49
-3379.95
-16464.2
-3360.1
-17464.9
-12939
-3227.15
-1651.61
-13929.9
-382.819
-13761.1
-14025.5
-13917.3
-14136.4
-322.548
-1787.65
-13107.4
-3199.5
-14026.1
-17276.7
-3404.58
-2680.35
-16036.5
-3388.64
-17215.7
-16126.4
-17328.7
-16265.7
-3373.64
-2747.21
-3397.65
-17398.2
-16159.5
-16548.1
-3160.77
-2501.07
-15518.8
-15414.4
-3127
-16637.6
-16466.2
-15253.4
-2391.69
-3023.91
-15363.9
-3063.74
-16368.5
-12097.8
-2967.46
-1094.83
-13016.9
-545.542
-13143.4
-12785.2
-12943.3
-13299.2
-544.433
-1269.44
-12225.9
-3020.48
-13182.4
-16063.4
-2787.18
-2186.26
-14873.9
-2837.28
-15001.6
-15944.6
-16167.3
-15192.2
-2955.71
-2301.76
-2910.26
-16276.1
-15072.1
-15132.6
-14304.3
-1814.02
-2433.04
-14143.6
-2371.38
-15287.9
-12616.4
-548.453
-1030.79
-12965.9
-2904.01
-11947.3
-12833.7
-11784.5
-12628.4
-2844.24
-854.404
-12423.4
-546.426
-12770.8
-15697.9
-2710.29
-2069.89
-14791.1
-2655.81
-15829.1
-14650.9
-15571.3
-14408.6
-2516.23
-1950.11
-2575.15
-15428
-14557.3
)
;

boundaryField
{
    left
    {
        type            calculated;
        value           nonuniform List<scalar> 
670
(
-128.646
-143.851
-145.465
-166.294
-144.776
-174.147
-129.047
-148.655
-128.593
-20234.9
-145.602
-144.67
-129.126
-42570.9
-127.341
1.03444
-0.319609
-306.749
-133.837
-29.2586
-153.8
-143.481
-0.581671
-21.9241
-6.48115
-136.149
1.0786
0.930046
-127.337
18.9931
19.3942
17.8323
19.0837
-68106.7
-196.29
516.153
-141.751
-74956
-12.0629
-86.1891
-151.191
-143.456
17.4071
12.0853
-3.93849
18.3999
15.1835
-134.842
-3.72945
0.114511
-113926
-100658
-127.962
-80.7832
-81.6062
-164.518
-105.825
-98.6629
-146.44
-161.173
-144.163
-81.8935
-83.0173
-130.268
-97.8533
-93.2978
-141.711
-81.2376
-80.3869
-127.881
-29623.1
-584.027
-371.204
-13608.7
-147.003
-144.073
-130.947
-83.2924
-81.5602
-126774
-72476.5
-80.2551
-80.5785
-127.743
0.20676
-60.198
-59.9008
-61.2433
-60.4088
0.194999
-97.9242
-108.327
-96.689
-57.4528
-90.5576
-124.731
-78.0557
-83.9406
-45.3829
-157.287
-143.784
-1.75021
-62.5628
-61.5226
-62.9129
-2.16917
-83.41
-14.0917
-73.2423
-77.7919
-67.5108
-72.0483
-10.4889
-140.594
-92.4127
-88.2151
0.664931
-59.896
-60.7222
-59.8412
-59.9021
1.17647
-127.645
-80.3513
-80.2087
19.4199
69.6706
70.0365
70.0343
70.3366
18.9132
18.3005
68.4091
68.2821
69.101
68.9754
18.3726
-3485.07
-2254.49
-36525.3
-166.821
259.284
-2303.08
-2240.74
438.204
-115.581
-2119.53
-280.017
27.7334
-92113.4
-1454.96
-2088.85
-25.8973
42.6011
53.2071
30.9802
49.0396
-33.1381
-148.817
-143.637
16.0081
66.7359
67.7619
67.143
16.5477
8.48559
63.1621
67.8623
57.3443
65.3718
4.63011
18.165
69.466
70.7544
68.3209
70.8987
16.6497
-87.1781
-83.9511
-131.944
-1.9746
-63.1703
-66.431
-60.9819
-62.578
-0.490808
-131027
-82389.8
-21594.3
-175458
0.755228
60.4443
59.3462
58.0508
59.5391
-0.212327
-94.7637
25.8867
-34.2443
45.9702
47.879
-31.3629
-0.942102
59.0532
58.0591
-20.3141
47.7475
45.8036
54.886
55.3584
-6.30564
0.682284
60.6115
59.3478
59.2962
60.7989
1.26753
18.8606
51.7089
52.5521
52.9621
51.6111
18.4135
17.3625
50.2715
51.3909
52.4909
51.215
18.3141
-44014.5
-42549.9
-62363.3
-144.605
-468.834
-464.842
-372.902
-222.588
-69.4664
-86526.5
-38696.3
-55219.9
-14.5591
21.3946
25.3432
-30.9822
-4.26029
-46.2313
50.9052
49.6997
16.6785
11.9482
45.9201
47.0611
31.7476
33.6549
-2.52843
18.5929
51.7307
52.2928
49.4239