/*--------------------------------*- C++ -*----------------------------------*\
| =========                 |                                                 |
| \\      /  F ield         | OpenFOAM: The Open Source CFD Toolbox           |
|  \\    /   O peration     | Version:  2012                                  |
|   \\  /    A nd           | Website:  www.openfoam.com                      |
|    \\/     M anipulation  |                                                 |
\*---------------------------------------------------------------------------*/
FoamFile
{
    version     2.0;
    format      ascii;
    class       volScalarField;
    location    "0.106/solid";
    object      sigmaEq;
}
// * * * * * * * * * * * * * * * * * * * * * * * * * * * * * * * * * * * * * //

dimensions      [1 -1 -2 0 0 0 0];


internalField   nonuniform List<scalar> 
3125
(
154.331
242.422
167.179
154.777
166.342
239.439
220.385
300.081
154.378
38264.7
93107.7
81370.8
166.46
167.794
154.886
155811
156770
82604.4
91963.3
130704
153167
127532
34.9842
152.496
36.5147
25.1283
1733.01
178.456
34.7441
164.85
183.261
168.248
21.4735
29.4715
28.7306
30.1337
152.517
36.4576
36.6003
30.3189
30.2279
245491
266905
26.299
172.634
3193.43
88191.3
183299
247669
333.816
225971
91831.1
246242
200413
268534
344.959
153669
168079
77795.3
145346
182287
157156
76616.2
142190
28.3877
164.853
176.988
165.618
36.0584
31.1038
20.8912
23.7774
29.9348
25.5206
301274
333258
170983
256105
301692
270211
168182
298312
301072
337569
241878
215834
86488.3
171406
195093
222576
87854.9
198520
185964
212077
296920
267637
140074
210428
235965
266250
143219
239658
235192
263551
198969
206806
117669
181559
231159
202982
114242
177971
123.088
153.751
122.002
178.334
414.996
237.818
168.258
157.01
123.491
125.007
165.717
209.56
187.428
167.748
147.833
153.716
122.614
121.612
362098
375905
44962.9
64312.2
75477.6
136110
12448.8
136457
93797.1
142033
369293
415119
211788
103452
80165.5
98224.8
274022
258207
74246.3
83425.7
165.667
169.877
158.501
123.157
125.586
367310
381980
177547
178253
204319
182613
160537
190641
436899
433970
357293
342379
83863.3
105302
110757
134389
90637.2
128345
279318
295241
362336
347111
133841
144623
151422
180032
149727
172424
283670
299666
215501
142407
124308
135633
278346
262422
107154
115337
88.4519
36.0537
87.3043
153.515
121.27
121.761
36.155
86.8191
87.1207
132.789
39.5821
171.003
587.381
547.205
275.305
44.5014
256.557
188.724
125.577
88.76
33.8487
89.9386
33.5502
90.3844
165.188
193.161
181.567
134.125
143.542
124.723
22.7772
108.269
97.2264
24.4954
104.898
99.2575
29.4617
99.9013
29.6359
100.726
100.413
153.465
121.241
121.406
87.817
36.9216
86.8602
86.7815
37.0528
86.6879
101.767
30.4983
102.103
101.455
30.5825
101.596
329319
255869
342361
393071
380299
259070
358389
346527
72.5537
40.6072
60.0615
45.4343
72.2999
64.3579
22042.1
810.251
8018.36
79081.7
146151
140977
117641
241667
5812.43
160565
8751.73
170878
245522
165763
318.059
3979.5
5480.03
158093
235812
164844
93683.5
146332
143682
238860
170711
166847
397288
410051
303150
262809
7721.38
372370
4488.07
362083
266113
370144
108.333
4491.77
960.618
232188
216846
140030
190804
209403
143390
195409
118566
158209
112129
78971.8
91461
96452.9
154960
103811
109998
237350
252965
247751
171374
233225
214122
167782
228419
129833
93906.4
75439.2
89771.3
85027.3
132879
101768
95851.6
98.7152
27.5031
97.8685
27.1472
97.4098
165.156
172.833
159.862
131.865
126.79
88.259
35.1988
90.0424
95.4061
34.4857
90.9951
79.0102
18.4681
91.4011
19.7549
97.0323
90.9932
102.128
29.0971
101.067
28.3963
98.3618
101.92
352850
314742
367571
402050
386843
319359
388115
372549
177380
202154
205797
199452
307492
228244
226960
308442
230675
204509
282372
213627
164347
200456
193253
286473
224915
216626
407567
427755
401110
347266
413443
393551
347638
410232
324809
230817
310888
321690
337275
227086
291703
306145
85159.5
118362
112682
120776
181482
127442
136607
184867
129726
155682
212280
148474
89244.9
120364
126271
208836
138964
146052
316430
300550
252621
197091
267285
286840
200826
272180
347957
284169
333211
326235
341945
279998
313337
328265
136957
160562
153657
160906
221324
168727
179261
224969
171326
201553
254648
192894
146425
162853
170015
250859
181919
190116
320947
304998
273247
247312
288289
308339
251360
293306
236157
220630
182962
208941
228486
186955
213801
158328
195963
150543
121024
126622
133414
192357
140184
147969
241375
257138
268240
219070
253256
233414
215044
248279
163672
127242
110738
124394
117576
167236
137607
129819
428016
433120
566090
526032
325894
319663
415509
420522
560692
504300
422706
417219
332132
338373
410288
404891
320815
326991
314646
308485
38.4185
35.7366
39.584
36.8346
40.0958
40.7754
9.94028
29.8931
15.4786
84.2816
140.001
79.4145
38.205
34.871
38.6534
9.03982
20.6234
13.4799
32.0843
28.5695
30.6467
60.7692
28.5243
59.993
29.5629
62.365
61.2172
39.9101
37.0595
40.975
40.2077
37.2579
41.1854
62.772
29.9732
61.8777
62.5205
29.9975
61.7513
272759
249042
224594
227709
276594
458588
454894
241098
264714
296588
239986
293910
25.6838
31.2057
20.6798
83.6106
133.449
61.6556
143508
171966
218322
125581
166551
203042
103690
187030
214900
222938
248169
189000
213411
223061
262.767
828.938
579.971
181098
203996
229326
201117
203906
207051
178682
189469
214980
244203
221956
214337
189621
220306
462140
466066
221195
240295
140482
193802
265273
138152
241571
298820
269112
240611
300120
282.346
851.502
672.706
276454
270359
139562
171900
150212
136427
168047
130284
151896
148521
164771
145510
132870
148954
117831
128108
148527
131711
130921
115445
134529
282569
288707
203647
165904
178629
162503
199602
142737
175782
160671
145947
179691
110788
125331
139060
128915
122596
113096
126146
60.3086
27.6489
59.0064
39.6085
36.4068
40.0891
33.7177
32.7194
36.052
32.2017
18.3671
36.7323
22.2887
55.2134
52.8098
62.3676
29.5097
61.4684
26.2084
57.4538
57.8765
318664
305694
318753
323299
323383
445738
441999
353486
328666
352450
347482
348253
310145
233904
288257
327726
265438
334978
302300
321539
339565
275317
304702
277790
317589
343999
287532
247072
274223
302417
250758
306796
283472
309135
335035
294515
272476
269159
330205
313528
449392
453569
333165
328488
358332
352743
357987
358481
357237
341633
361870
363480
268857
221370
238222
218062
264904
381840
387934
197309
219590
240547
200824
244653
138132
154860
151561
174750
135488
154627
157839
151668
173392
176037
191675
154419
170236
172971
173549
200901
198218
219156
176155
195238
197789
159941
176552
201955
179119
179710
157179
182210
375696
369520
207709
169329
189658
172777
211785
193788
236434
208321
190265
232317
314084
314227
292622
309550
309793
369992
376013
284403
271737
282908
287307
288540
229431
192678
214054
239831
195956
243613
225968
246760
266360
215786
232288
212451
250251
262547
275641
243433
298142
262339
279510
239842
293960
257297
270192
243369
219138
222512
274047
253762
363918
357809
247927
239229
251724
252286
255798
280286
278516
259478
274132
276186
265849
259852
214852
208871
194960
204560
210728
219023
189407
203188
236045
186139
222498
232253
201500
209343
185154
166597
169847
213182
197964
271874
277922
243572
227128
247648
239220
243569
218971
213190
207000
217515
223086
190855
205496
174387
163353
160112
201640
194414
151.101
149.287
123.595
122.618
151.608
123.075
148.9
150.938
122.428
122.225
148.501
122.637
150.802
148.629
254.656
214.479
193.472
192.14
233.734
211.481
232.392
297.078
270.001
211.611
301.177
237.856
337.395
262.26
154.735
155.055
156.786
155.146
152.58
149.767
123.94
123.87
151.947
124.369
150.258
153.172
125.532
151.643
124.421
153.994
124.877
150.972
154.747
153.508
153.51
153.446
228.051
270.001
211.594
198.607
202.464
200.952
179.043
159.695
214.314
168.149
191.608
192.25
152.301
178.161
153.012
184.668
159.48
184.008
414.922
296.722
485.842
779.327
151.009
149.165
123.145
122.143
151.544
122.47
148.751
150.897
121.873
148.36
121.793
150.646
122.295
148.49
398685
366804
403646
442622
437997
371407
413112
408457
74532.3
243586
185270
77189.1
52629.6
12166.4
18913.7
15710.7
32022.9
51983.5
20173
118779
121261
118103
120620
120073
116897
120496
117732
484416
502264
448277
397665
463232
456011
416379
462860
252237
246248
235558
206758
230033
113266
114656
112492
116544
111391
115515
113737
112092
307236
313440
303530
268737
297779
286311
263464
292038
105215
107571
108743
104928
154.936
153.424
153.397
153.378
155.253
155.831
158.796
156.492
152.749
149.718
123.583
123.678
152.026
124.272
150.38
153.811
126.331
152.764
124.517
155.346
124.952
151.458
479247
272851
249412
128895
128881
127626
128027
156372
156863
182062
179843
162140
165122
167382
164348
124988
125957
126851
125955
129397
129155
129053
129475
144344
147186
149629
146796
162947
160006
157887
160796
387117
372234
392061
429856
425311
377119
401592
396884
205340
182342
177858
215897
221751
205858
199988
230479
206079
182958
183583
204091
208095
186781
186069
210162
473218
492320
478656
448578
474124
452671
449172
469828
393585
352398
388364
405812
411578
347423
377613
383034
113558
117486
114400
115492
115482
116245
118341
114576
120513
118568
118960
121446
118670
121291
118616
120024
350861
344618
309288
284621
315053
326588
289930
320820
382054
357311
376882
393656
399338
352235
366255
371612
176479
159625
160293
174630
178392
163297
162686
180206
200260
180551
179989
202168
198390
177093
177623
196540
339347
333169
298744
289000
304441
315843
294333
310142
124957
123910
122720
123842
114399
116333
114823
144633
141779
139085
141961
126391
123350
242042
236171
226047
210396
220621
170775
157191
172666
156461
168750
153174
153977
166806
296206
302336
293053
273028
287370
276043
267720
281699
144962
135801
134573
147227
41.7218
39.4985
103.128
87.8562
102.526
41.9008
39.7085
36.2929
39.8459
40.2579
41.5406
101.939
87.4198
39.6083
102.027
41.5605
39.8086
149.828
147.482
121.7
121.308
121.708
149.748
147.568
150.159
122.15
148.228
121.482
150.541
121.908
147.867
36.8376
39.951
40.8055
41.3385
39.5271
101.338
86.6996
101.218
41.3404
39.7649
41.3973
101.669
39.5996
86.796
41.4634
101.401
39.8013
83.7788
55.4649
161.351
142.661
175.022
74.5575
61.3493
35.2436
31.7486
23.3127
94.9849
213.817
155.397
77.2476
192.387
109.165
68.9152
752.272
918.98
639.302
402.744
460.38
1026.43
657.54
534.454
318.054
375.285
331.522
438.375
389.566
470.116
55.1974
40.1111
52.1409
136.812
93.9254
342.043
227.693
295.033
136.947
94.9364
133.984
237.902
84.3551
210.979
119.024
272.434
90.4979
42.0367
39.5285
103.446
88.9131
103.67
41.9965
39.7511
34.6165
37.4048
38.4312
42.2063
104.832
89.3403
39.691
104.171
42.4972
39.8195
37.1203
105.234
39.7481
42.6232
152.942
152.367
153.451
152.524
171.686
172.694
183.438
184.596
169.055
162.154
135.559
136.695
138.938
165.395
165.176
173.232
147.304
173.141
139.909
178.573
142.408
168.907
60.3619
50.675
150.394
118.007
141.199
67.5545
46.8026
21.9492
21.957
18.6032
55.3468
127.834
112.382
42.8393
133.841
52.3235
44.1969
46.5807
40.5041
113.479
99.192
116.328
45.5554
40.7919
26.3984
24.7979
28.0766
47.9776
123.713
101.856
41.9112
119.392
50.5684
41.2901
2373.72
4545.06
1771.23
1079.12
95.482
97.2491
93.838
28.9057
61.7508
60.6123
98.0018
96.3931
94.521
29.5435
61.9901
61.3424
96.9675
98.4155
95.0243
96.7135
98.7282
95.1926
149.835
147.494
121.644
121.134
149.79
121.569
147.54
150.078
121.877
148.123
121.199
150.544
121.494
147.786
41.5268
39.7315
102.561
87.2667
101.8
41.7454
39.9808
37.456
40.7589
41.3596
41.5229
101.305
86.9187
39.7871
101.658
41.3733
39.9964
41.3244
39.5558
101.273
86.4856
41.3242
101.065
39.8258
37.4577
40.8399
41.5119
41.2763
101.357
86.4417
39.7437
100.893
41.42
39.948
97.5132
99.9671
95.9565
30.3142
63.1049
62.3966
100.174
97.9611
96.3711
97.2955
98.9874
95.5019
30.1041
63.178
62.0399
99.7868
97.8758
96.0339
301910
333753
306083
252514
233468
283997
230685
280349
338102
314189
310180
446974
451067
430454
388852
426215
417606
384609
421970
262041
236009
287510
238203
290830
328838
354563
325486
318096
350594
321868
62.288
63.9367
54.822
36.9897
18.5444
17.9722
62.2064
49.8932
51.6157
55.31
22.36
33.9728
95.8212
64.0802
63.1065
51.3918
60.4778
51.1976
2751.46
1498.74
779.639
1627.42
1516.51
1605.51
2717.52
4616.38
9535.97
11983.6
3264.24
13559.5
2857.63
5565.86
102280
108876
107440
104151
92989.4
67462.1
77788.5
92683.2
158307
236768
198812
214897
169338
184811
213186
73374.9
3675.11
53069.3
74441.5
9738.78
15809.9
4560.59
57756.6
6842.01
26454.5
183746
247577
204965
219740
177793
210907
221868
317.233
170.655
327.148
871.12
165.897
968.747
414.856
1392.45
2913.45
1019.14
999.989
6822.44
1931.87
3268.63
1923.62
3325.29
972.877
183363
232619
208994
212930
206552
185416
210044
114702
110150
110160
115175
115411
118748
118383
114642
188575
241687
211175
215661
212983
187192
218152
476721
470195
434692
401556
439270
449873
405921
444029
254799
342654
198958
295371
167515
255349
229851
297122
213083
289719
72356.1
8131.74
44432.7
367792
335690
328544
6013.06
6522.3
15281.7
331910
365406
334307
268814
233380
299037
239012
300725
368516
336107
336205
183.975
184.776
393.467
1640.17
3714.98
1467.67
470.271
2192.54
950.858
258250
264291
257907
227048
252284
241108
221933
246684
136701
127265
156675
124293
152949
186230
174123
169955
191108
204711
186817
146785
130276
160432
133331
164223
200046
178324
182555
127727
161479
139574
143121
125200
142526
146027
109016
113154
109567
111606
110856
112720
110230
114386
120253
151732
136656
140236
122710
133770
137373
301042
294864
263551
242535
269215
280596
247740
274896
226280
242894
221815
174990
155786
191570
159128
195575
238051
212935
217366
195425
218866
199768
164213
152473
187587
149191
183626
223631
208524
204134
101950
126816
114632
117990
112062
104099
115327
108194
110379
107728
111803
106376
110336
106752
109041
108519
135956
117243
120682
119900
106287
123401
95.0265
96.1789
92.8737
27.4091
59.5626
58.8427
96.3757
94.3956
92.8497
59.0441
93.8618
152.848
152.416
153.385
152.386
166.659
163.905
160.02
161.372
160.049
159.509
133.323
129.902
162.594
130.837
157.358
158.295
127.349
154.14
128.143
156.629
129.118
155.559
41.9852
39.7777
102.888
88.5055
103.394
41.8028
39.9934
36.0052
38.6962
39.8537
42.0889
105.236
89.1142
39.9762
103.904
42.6077
40.1156
43.8255
40.2684
111.539
93.6142
44.9133
109.198
40.2948
34.362
38.0706
37.7256
43.2291
106.065
92.0371
40.075
107.595
42.7943
40.2406
68.9001
83.8002
73.5859
17.6327
46.2586
42.2355
86.8589
83.3328
78.255
20.5497
49.1872
50.2541
91.0537
92.6003
87.6059
85.1609
91.4192
85.7498
97.3747
99.2032
95.4562
29.0305
61.766
61.0901
99.8284
96.7591
95.4835
27.6732
61.0406
59.7572
92.8396
98.3158
92.8118
96.5126
99.5347
94.3764
14790.2
7694.03
90587.8
64811.8
116571
115293
84407.1
102388
120920
122482
126198
125280
172365
176219
185710
180318
172760
169444
166639
169791
128306
127567
126814
127635
128208
128859
129263
128714
154255
151411
149146
151982
153611
156470
158643
155763
334848
357741
339626
310182
332769
332995
327998
328126
362642
349326
344448
434137
438184
419986
396787
415281
406194
391765
410745
324023
337613
337982
342532
343093
369643
382781
364430
354275
377613
359313
224036
196795
198301
221409
228429
207697
232483
204467
325066
305992
278720
349837
275249
326182
349519
324328
306645
280398
350439
279123
327008
347257
291696
278280
258224
315890
254480
311285
295962
216794
194168
193054
219189
214448
189308
212245
190185
304732
290550
261954
320595
265633
325396
300309
465255
458058
424886
413671
430525
445078
419954
436603
364639
414969
379929
347125
369629
371165
372010
372512
423283
390524
396436
374815
399203
379987
344715
369309
371393
365613
367327
404487
389087
384474
297672
320229
293378
234531
211268
256880
214689
260909
315586
284654
289037
399936
393972
355268
326922
360929
372113
332119
366549
223343
207812
252824
204328
248746
266831
296545
271319
280236
301362
275789
117524
117513
119812
116480
115556
119118
116530
116922
140799
178109
160822
163847
143489
157714
160837
148928
188266
163946
166875
146199
167086
169916
170884
215721
189113
191543
192197
168178
194665
117338
120422
118016
118462
119309
118398
118087
120926
162698
205394
185998
188424
182861
165447
185313
357094
363316
349570
311149
343847
332350
305855
338105
230761
257502
235254
193368
179733
219976
176246
215874
262391
244268
239757
262329
281962
257817
204570
183234
224085
186746
228200
277074
248784
253302
330101
343056
325375
288375
300587
301142
305053
305435
338141
315963
320664
387862
381975
344185
331501
349777
360823
336739
355326
275856
296144
296901
291719
292704
297181
318326
301876
311265
323302
306570
185705
169091
168557
187484
183867
165655
182075
166224
232892
217686
202527
251175
199238
236352
247395
243282
228624
205824
254959
209133
239815
258749
271851
258473
232798
285830
236299
289860
268134
191088
171411
171928
189301
192903
174761
194711
174248
260867
247101
229337
281857
225909
277933
264475
345517
351671
338556
315642
332901
321539
310324
327226
259652
278259
264335
243268
261013
263941
256647
259870
283273
273711
269022
292486
303332
287790
255415
265381
268017
269754
272098
298321
278403
283096
119969
121243
122605
121407
119747
118392
116678
118114
133267
136198
139151
136253
133091
130126
126821
129825
247947
253882
248030
230960
242494
231501
225783
236982
178975
191680
198325
187405
194183
204099
199433
194882
217774
223574
213168
190955
195964
202463
200258
206598
218679
203998
208576
215539
199574
179612
224649
182874
212046
228455
160554
146189
147153
158490
162715
150634
164715
149755
205026
188753
176355
220836
173099
208541
217013
290091
283994
253590
246612
259173
270401
251866
264776
254972
263238
250297
223098
230525
235392
234870
239484
258243
240965
245628
222392
238356
227021
211020
226183
231296
221846
227194
243311
236308
231659
176502
160115
150418
190024
147197
186136
180108
154126
143524
142475
156254
151816
138603
149617
139744
187283
170809
153644
193904
156876
197776
183702
169.947
160.967
153.813
174.492
170.587
174.147
160.553
298.39
239.674
274.506
301.546
276.182
317.489
263.576
171.63
155.224
161.483
175.091
170.895
175.463
161.963
233.152
205.48
221.281
257.784
246.424
243.396
209.671
170.187
153.787
174.867
161.018
174.371
170.702
160.564
171.973
155.583
175.508
161.592
171.242
176.205
162.27
168.695
152.478
172.793
159.138
172.784
168.604
159.185
1276.2
1245.01
993.677
1336.41
2109.51
1296.99
1015.55
190.745
171.801
191.12
175.147
195.204
186.647
178.466
168.748
152.494
172.835
159.171
168.734
172.892
159.219
3147.83
4281.41
6818.57
2479.87
3129.26
3373.95
3677.67
180.355
162.992
187.465
172.222
183.164
184.701
169.86
170.033
153.655
174.028
160.386
173.884
169.987
160.359
372.752
335.199
432.307
364.017
447.494
405.703
310.833
172.366
156.053
177.117
163.641
176.381
173.456
162.831
219.033
195.355
216.59
193.603
225.987
210.489
200.402
170.115
153.664
174.132
160.369
174.094
170.071
160.374
40054
50856
114545
31792.4
159487
40170.2
33476.8
74893
97444.7
124328
132667
122524
84982.9
90224.5
113439
122528
138371
120156
123684
114204
121250
115018
122738
140327
126770
125843
122072
113788
98685.4
94025.1
97787.6
101726
98233.2
93397.8
96531
96559.9
94176.3
99913.5
90509.3
91060.8
95388.5
97023.5
89075.9
84698.2
81939.2
77272
77063.8
83686.3
88643.5
173.387
156.733
179.266
165.086
177.55
175.186
163.531
220413
155663
204155
233563
176412
240559
214269
237813
261877
180194
205720
178653
244427
258201
215758
159842
185293
229318
160626
213764
232215
218903
238347
187938
165219
164446
235303
221027
99957.6
96351.8
98975.8
107067
100391
97059
100281
102132
102857
100161
108956
99376.1
101722
101510
112842
120269
119043
132414
112298
119073
117747
110768
115090
130322
115610
116780
116487
111193
179425
127006
146907
187879
127608
177709
190340
182128
195335
131467
149129
130885
183813
192889
208875
156076
226384
177431
210746
155350
223632
205965
218205
174939
151007
151674
220836
204193
173227
123764
140128
185309
123138
174989
182820
170481
177700
137912
119271
119928
180220
168670
144402
153590
113040
100646
99828.7
150854
146527
169.163
152.892
173.693
160.103
169.761
173.166
159.597
661.978
747.126
872.605
498.013
617.703
635.001
621.627
196.115
175.908
207.464
187.716
202.333
200.881
182.753
169.244
152.828
173.829
160.094
169.843
173.247
159.581
6555.82
7549.14
72479.7
18179.3
16251.9
25684.8
7387.87
103429
130554
118421
145574
115798
107421
129670
98539.2
104502
127202
144111
87057.9
112718
129773
132791
121030
158544
186449
113781
143023
186253
160348
196507
139379
170314
136511
162775
196239
156838
126181
168788
192070
133046
150660
194677
158382
180658
160416
137081
138607
183363
156400
160202
141057
162718
188530
139941
161798
186009
112858
129972
120714
146024
109167
122321
130650
112912
123004
128680
144962
114793
122983
129177
164365
195962
141070
169942
163939
142097
194750
163988
141851
190893
168540
163099
142243
192992
115966
134760
106762
116413
105092
118097
132203
113871
101864
114241
127139
103474
111804
129657
93320.7
84932.2
89740.3
93071.2
90863.2
93796.8
85336.2
95392.6
93079.7
88164.4
94803.2
94919.9
91913.9
87687.7
105811
117264
95766.4
105839
97256.6
103881
119696
107773
100306
124634
107926
109774
98754.5
122158
93067.5
88830.6
92016.3
105449
87512.3
94783.3
103165
92213.9
82578.4
88728.6
88201.9
91742.7
87647.5
82242.5
90192.6
85633.7
79620.2
86556
90646.6
86678.4
79890.2
100129
114848
94328.3
99783.7
101988
92896.5
112464
98312.3
90148.2
107763
97788.1
96526.8
91519.2
110098
178.406
161.316
180.957
166.601
176.773
182.485
167.991
237608
176297
203743
254101
175781
257152
235330
241118
262385
179111
204286
244682
177406
259616
286893
219948
228213
257345
264498
249667
279634
302536
283232
227384
252814
280528
254182
304694
300508
251235
228797
275565
253328
278883
296913
303047
283894
229612
255274
254281
281367
305547
269527
225879
207539
247675
250995
229243
265810
273345
257920
210565
236042
254437
232634
277247
229841
173361
198230
251121
173149
232227
247964
226516
241550
168995
195846
224258
169626
244709
289267
248809
222353
272269
245885
293251
268706
285257
261495
239420
219584
242737
281223
265094
105738
106583
108234
116486
106819
105364
105636
103531
104129
102469
114522
103920
105515
103335
122442
137344
108434
122966
110159
120254
139939
124652
113660
125215
145188
111885
126891
142559
133718
155884
120906
134310
119056
136029
153190
131427
115430
131988
147842
117247
129147
150504
152123
177904
135463
153297
133733
154304
175141
149888
130142
150861
169591
131970
147608
172360
107212
108880
109564
122279
107579
110999
109909
109410
113769
113312
124320
109032
112336
112206
140669
158601
122739
141296
138345
124608
161325
142990
128317
166821
143688
145309
126451
164071
190864
139294
158222
205309
138724
202856
192521
188166
197874
134786
155967
186506
135356
200314
216634
176810
163518
200791
203603
179750
213489
219779
209240
166104
185642
206440
182690
222917
232363
197546
176590
220530
194546
217712
235528
229205
212072
173968
188596
191568
214872
226062
258644
222566
244402
198610
241246
262180
219294
255179
235102
195746
212898
238124
216076
251791
196906
142722
165234
207876
143308
195238
210360
199665
215516
147424
167575
201372
146808
212973
241926
200559
184633
223398
203602
238717
226254
245173
232098
209766
187342
206665
248454
229175
207170
173880
155722
197938
195105
170947
210331
203992
189364
153147
165094
192226
168023
200808
161202
111519
128908
167223
112241
169823
159274
164019
175063
116087
131132
165890
115400
172502
191163
153408
142788
177684
156330
180616
187922
194393
186455
162173
145364
159249
197605
183560
168146
162656
124637
138844
159610
135935
171479
154423
108385
122104
164502
107632
156417
161856
151525
156402
103735
119870
149469
104522
159091
181391
150493
135002
174705
147575
184661
171736
178100
165712
141750
132424
144663
174800
168719
)
;

boundaryField
{
    left
    {
        type            calculated;
        value           nonuniform List<scalar> 
670
(
149.935
230.717
180.65
236.994
179.915
293.738
150.292
211.239
149.891
52240.3
181.251
180.052
150.36
143675
148.072
17.2328
16.6729
1992.77
264.507
50.831
193.392
178.519
16.6839
39.6336
17.7334
162.471
17.1683
17.1628
148.1
39.0063
39.6981
37.833
39.0966
165244
603.477
3628.92
579.073
187148
30.7428
247.962
188.81
178.551
37.3495
32.9707
26.7843
38.6469
35.9576
160.497
16.666
16.7144
292619
241714
149.228
126.516
127.395
444.539
218.189
166.409
181.67
212.522
179.235
127.725
129.191
152.52
159.581
146.375
178.573
127.173
126.217
149.16
80091.3
11576.6
64829.1
287958
182.993
179.274
153.822
129.915
127.58
466386
163559
125.818
126.284
149.046
17.1769
130.371
130.014
131.031
130.553
17.2332
550.063
255.472
625.202
79.7838
182.47
244.604
151.117
170.788
70.2544
200.629
178.79
16.689
132.4
131.282
132.744
16.685
129.663
25.7527
143.05
148.752
137.549
141.763
21.5555
174.69
143.806
136.612
17.2626
130.495
131.175
130.02
130.434
17.5527
148.945
126.148
125.8
39.6453
101.905
102.558
102.583
102.919
39.1253
38.3232
99.9511
99.8701
101.122
100.839
38.433
18970.3
11344.9
116397
381.216
3935.76
5179.97
32325
7408.75
858.46
5836.5
820.424
91.0804
300688
3719.92
21151.2
41.7546
62.3107
77.2082
65.0229
73.2733
51.9954
185.413
178.771
36.134
97.3723
99.0416
98.0148
36.701
30.4172
92.0066
99.165
83.5037
95.3477
28.0396
38.7749
101.611
103.646
100.019
103.809
37.2479
135.046
130.795
154.973
16.5885
133.894
136.583
131.466
133.269
16.9195
427086
182400
623304
705969
17.7799
90.6304
89.3629
87.6989
89.4783
17.464
150.51
126.24
237.305
51.4497
46.6019
55.6706
17.3366
88.7945
87.661
36.0258
65.0775
58.0627
82.7994
82.8258
18.7187
17.6452
91.0132
89.5515
89.3309
91.1581
18.0112
38.4622
80.487
81.9288
82.578
80.4723
38.1429
36.8796
78.6128
80.4215
81.822
79.8232
37.828
121803
110171
153750
494.407
879.422
1122.7
1141.74
893.219
413.67
221454
118787
137596
32.3471
44.5475
49.0183
187.759
99.1997
131.062
79.767
77.8917
36.2089
32.5207
73.4842
75.2685
56.2493
58.4841
26.1981
38.5453
80.7178
81.737
78.32
77.0008
34.8053
17.1443
86.866
84.5643
89.056
90.6126
17.621
440891
347027
217779
339486
372373
126.683
149.817
149.7
150.415
149.99
126.993
192.933
242.195
286.983
199.939
216.112
177.221
128.127
151.326
150.778
152.66
151.932
128.619
154.042
183.043
190.064
173.686
178.019
150.055
126.68
149.953
150.391
149.617
149.815
126.509
16645.2
22302.7
20767.7
456631
170063
128.83
152.459
153.738
150.852
151.498
128.156
505443
264675
202830
125.855
148.81
148.73
149.458
149.111
126.053
89.1172
91.1166
17.9823
130.375
122.499
122.179
122.036
122.379
130.198
130.94
122.399
122.048
122.249
122.535
130.797
17.8669
90.7213
89.1468
396.119
657.395
978.108
356.832
480.578
314.421
43.6548
65.8413
94.3683
201.535
113.786
112.205
165.967
123.86
222.625
155.436
116.102
117.418
114.155
114.356
160.84
66.0642
40.0812
36.9567
86.9437
88.957
17.386
132.129
122.73
122.546
122.117
122.526
131.719
122.661
86.8103
73.6806
72.0014
27.9948
144.931
122.429
122.957
119.445
120.952
146.524
138.984
124.1
123.843
123.56
123.845
140.218
21.1854
79.7981
76.5625
140.946
166.886
170.297
161.542
164.119
138.792
90.0191
91.9392
18.1883
130.894
123.124
122.642
122.804
123.049
130.981
130.221
122.573
122.09
122.609
122.767
130.325
18.1162
91.8034
90.2382
125.837
149.072
149.476
148.768
148.829
125.788
82.8798
80.8815
38.4253
99.3634
108.829
111.535
111.203
107.922
97.8086
99.4813
108.632
111.379
111.678
109.247
99.68
39.2073
81.6532
82.4918
81.2503
79.674
37.4847
97.3097
107.3
109.899
109.318
106.237
96.0114
97.315
107.49
110.615
110.372
107.894
98.0079
38.1473
80.3388
81.4923
13366.4
48669.1
58174.8
30241.6
36621.3
10929.8
745.583
513.557
301.274
2947.82
1587.36
2180.26
2809.32
2040.64
3602.72
3774.23
6157.1
12464.9
1550.82
3137.82
1730.05
5089.27
2162.09
2951.69
305.954
976.576
3087.32
203.42
442.725
117.783
73607.6
133082
256342
6805.79
42576.6
27196.5
59031.4
52249.3
14570.8
42.7911
41.5641
39.1843
66.5863
68.1437
65.9048
78.6878
69.6589
65.313
67.4176
80.3921
109.635
70.9076
67.265
63.5721
70.8578
60.9181
47.9403
78.6312
107.369
94.9007
105.377
108.693
108.145
105.523
95.5143
36.0514
77.8566
79.4666
71.0622
70.2993
29.7037
92.1661
99.4418
99.6855
105.517
101.007
92.4129
88.1977
89.1099
85.227
99.0243
93.1239
89.4438
27.3311
64.6691
67.7719
81.9981
80.0902
37.4496
99.9196
108.522
110.634
111.363
108.149
98.2369
99.0036
106.129
107.297
110.722
107.929
100.159
37.4738
79.8924
80.7728
133.329
157.574
159.486
154.858
156.169
132.068
88.1079
89.4061
17.3848
134.896
124.339
123.844
123.95
124.2
135.652
132.07
123.417
122.86
123.7
123.665
132.599
17.4028
90.5023
88.8438
386115
149.309
165.254
165.813
271.302
257.648
232.868
166.17
166.802
150.763
217.698
207.574
194.173
165.855
165.38
149.232
151.027
167.05
166.381
163.929
164.002
148.031
1487.19
941.314
1339.34
165.992
182.074
179.011
148.009
164.035
164.018
5964.12
4577.35
2300.87
176.436
174.193
157.806
165.163
165.216
149.189
370.22
298.561
335.997
151.473
167.537
168.497
186.913
200.407
194.707
149.131
165.256
165.201
64146.7
18891.7
25532.2
169.829
168.284
152.044
140243
230355
257948
148.397
164.407
164.932
887.656
688.37
478.166
190.048
185.673
168.965
164.97
164.44
148.31
18226.5
9316.62
12789.4
156.437
172.568
171.205
288015
313242
201767
)
;
    }
    bottom
    {
        type            calculated;
        value           nonuniform List<scalar> 0();
    }
    interface
    {
        type            calculated;
        value           nonuniform List<scalar> 
2110
(
6.50259
5.08232
54.0389
115.644
6.83038
40.8821
15.2608
16.275
18.0117
4.92544
5.25928
18.5251
17.8001
30.4704
112.158
196.697
219.898
15.6141
6.26612
10.4784
17.0591
7.5114
16.8428
12.5799
355438
369033
228032
407748
206628
268177
252507
376466
391373
452555
443564
350696
335952
273427
289220
371420
355999
291997
308120
223071
286628
270561
5.97198
6.0169
68.6558
73.9389
8.24635
8.83512
27.4536
20.7778
16.829
98.6847
16.898
5.6382
4.91908
17.5655
100.702
18.4517
100.456
324521
337400
385868
373348
353142
341503
43.7156
59.9598
48.2763
68.4963
1584.47
3281.86
390001
402589
3668.2
366740
356761
364442
3683.93
682.24
226766
211617
187083
205494
191639
231870
247317