/*--------------------------------*- C++ -*----------------------------------*\
| =========                 |                                                 |
| \\      /  F ield         | OpenFOAM: The Open Source CFD Toolbox           |
|  \\    /   O peration     | Version:  2012                                  |
|   \\  /    A nd           | Website:  www.openfoam.com                      |
|    \\/     M anipulation  |                                                 |
\*---------------------------------------------------------------------------*/
FoamFile
{
    version     2.0;
    format      ascii;
    class       volVectorField;
    location    "0.106/solid";
    object      U;
}
// * * * * * * * * * * * * * * * * * * * * * * * * * * * * * * * * * * * * * //

dimensions      [0 1 -1 0 0 0 0];


internalField   nonuniform List<vector> 
3125
(
(-7.28242e-10 6.8221e-11 -4.57464e-09)
(-6.80878e-09 -4.10384e-08 -7.65572e-09)
(-1.17507e-09 8.99911e-11 -8.24168e-09)
(-7.43456e-10 7.4602e-11 -4.58963e-09)
(-1.09809e-09 6.67644e-11 -8.1711e-09)
(-1.19699e-08 -3.33426e-08 -7.27933e-09)
(-4.74245e-09 -2.6623e-08 -5.68786e-09)
(-2.29735e-08 -7.86492e-08 -9.01629e-09)
(-4.26489e-10 3.21473e-11 -4.35149e-09)
(1.04215e-05 9.58787e-06 -5.07152e-05)
(0.00293103 0.000368216 -0.00105857)
(0.0123776 0.00166235 -0.00208744)
(-6.84635e-10 3.07524e-11 -8.03272e-09)
(-6.4919e-10 2.45797e-11 -8.03466e-09)
(-4.03389e-10 2.71197e-11 -4.32467e-09)
(7.61799e-07 3.84645e-05 -6.58382e-05)
(0.00287147 0.000410752 -0.00116301)
(0.0110672 0.00149016 -0.00198802)
(0.00369744 0.000472964 -0.001189)
(0.0110142 0.00152236 -0.00217114)
(0.00363718 0.000514039 -0.0013072)
(0.0123266 0.00169335 -0.00227515)
(-1.40411e-09 6.87264e-11 -4.09613e-09)
(-5.6975e-10 3.14425e-11 -4.43906e-09)
(-1.23905e-09 5.7835e-11 -3.74407e-09)
(6.42555e-09 -1.20648e-08 -2.38271e-09)
(-7.66486e-08 -9.11207e-07 -2.54998e-08)
(2.43337e-07 -5.45933e-07 4.97679e-09)
(-1.42948e-09 7.13278e-11 -4.15298e-09)
(-8.9068e-10 2.15423e-11 -8.05649e-09)
(-1.96858e-09 -2.03368e-09 -7.96865e-09)
(-7.38894e-10 -9.18913e-10 -4.2678e-09)
(3.81334e-09 -6.95068e-09 -2.35065e-09)
(-6.5706e-10 -1.35861e-10 -2.83107e-09)
(-1.2516e-09 5.62056e-11 -3.45909e-09)
(-1.09911e-09 4.87446e-11 -3.1322e-09)
(-5.47057e-10 2.96996e-11 -4.42198e-09)
(-1.04702e-09 6.13019e-11 -3.35805e-09)
(-1.21494e-09 5.87201e-11 -3.69429e-09)
(-9.20322e-10 5.3075e-11 -2.76585e-09)
(-1.07734e-09 4.862e-11 -3.08674e-09)
(0.00340193 0.000550338 -0.00338182)
(0.00130155 0.000245745 -0.00187864)
(3.97121e-09 -5.9181e-09 -1.7748e-09)
(1.80905e-07 -3.38347e-07 -1.65924e-09)
(-1.02154e-07 -1.37375e-06 -1.55439e-07)
(0.000679965 9.02203e-05 -0.000484489)
(2.20325e-05 1.64234e-05 -6.951e-05)
(0.00101387 0.000209239 -0.00148041)
(2.71359e-07 -1.36055e-06 -5.60961e-08)
(0.00333758 0.00053856 -0.0030456)
(0.00111642 0.000136924 -0.000637985)
(0.0012351 0.000241702 -0.00168578)
(2.94242e-05 2.29992e-05 -8.06808e-05)
(0.00107915 0.000211224 -0.00165173)
(2.41286e-07 -8.6167e-07 -3.58127e-08)
(0.0179579 0.00245671 -0.00753833)
(0.0122036 0.00175105 -0.00577662)
(0.0166433 0.00219623 -0.00236468)
(0.0171574 0.00235663 -0.00667544)
(0.0122518 0.00176522 -0.00640935)
(0.0171991 0.00236933 -0.00740736)
(0.0181688 0.00237704 -0.00245014)
(0.0179172 0.00244429 -0.00679338)
(-1.27592e-09 5.79593e-11 -3.51346e-09)
(-8.26848e-10 1.07645e-11 -8.0351e-09)
(-1.25682e-09 -7.62206e-10 -7.9963e-09)
(-5.81037e-10 -6.05921e-10 -4.27738e-09)
(-1.0202e-09 6.3975e-11 -3.30424e-09)
(-7.35579e-10 -6.14145e-11 -2.89669e-09)
(2.26715e-09 -3.36874e-09 -1.79443e-09)
(-5.95059e-10 -3.66776e-11 -2.26488e-09)
(-8.95998e-10 5.3439e-11 -2.71649e-09)
(-6.5764e-10 -1.38396e-12 -2.33039e-09)
(0.0033694 0.000634817 -0.00345112)
(0.00127849 0.000340233 -0.00192575)
(0.00064239 0.000140553 -0.000536023)
(2.73154e-05 5.00845e-05 -8.2872e-05)
(0.00099724 0.000276607 -0.00151453)
(0.00331175 0.000596763 -0.0031)
(0.00106723 0.000186015 -0.000699423)
(0.00121636 0.000307435 -0.00172163)
(3.63324e-05 6.57236e-05 -9.35321e-05)
(0.00105861 0.000307888 -0.00169661)
(0.00378024 0.000604477 -0.00358407)
(0.00695048 0.00105364 -0.00491442)
(0.0075031 0.0010049 -0.00166838)
(0.0115516 0.00166695 -0.00563765)
(0.00741878 0.00111214 -0.0045898)
(0.00371677 0.000592142 -0.0032284)
(0.00644551 0.000857275 -0.00155448)
(0.00689367 0.00103929 -0.0044293)
(0.0116008 0.00168125 -0.00625509)
(0.00747463 0.00112659 -0.00509243)
(0.00374711 0.000687714 -0.00365686)
(0.00691614 0.00112824 -0.00500883)
(0.00744543 0.00104078 -0.00183086)
(0.0115265 0.0017114 -0.00572488)
(0.00739194 0.00116258 -0.00466659)
(0.00369052 0.000649459 -0.00328565)
(0.00638665 0.000894401 -0.00170768)
(0.0068667 0.00109058 -0.00450406)
(0.0115688 0.0017459 -0.00636495)
(0.00744042 0.00119995 -0.00518934)
(0.0179311 0.00251031 -0.00765372)
(0.0121789 0.00179465 -0.00586482)
(0.0165987 0.00222363 -0.00256015)
(0.0171358 0.00239433 -0.00676712)
(0.0122203 0.00182863 -0.0065204)
(0.0171716 0.00242414 -0.00752265)
(0.0181265 0.00240326 -0.00264641)
(0.0178961 0.00248116 -0.00688514)
(-9.08119e-10 7.81928e-11 -3.88296e-09)
(-6.55502e-10 4.90245e-11 -4.50491e-09)
(-8.48123e-10 6.418e-11 -3.792e-09)
(4.7322e-09 -3.25792e-08 -5.12794e-09)
(-2.19753e-08 -1.59957e-07 -1.83813e-08)
(1.63276e-08 -1.35374e-07 -1.21273e-08)
(-1.24741e-09 1.18234e-10 -8.31792e-09)
(-8.23757e-10 9.82024e-11 -4.69417e-09)
(-9.28646e-10 8.1895e-11 -3.91518e-09)
(-9.95849e-10 9.67401e-11 -4.03545e-09)
(-1.02624e-09 4.92395e-11 -8.12479e-09)
(-6.33006e-09 -1.35063e-08 -7.43315e-09)
(-1.93464e-09 -6.41272e-09 -4.5878e-09)
(2.71934e-09 -1.99335e-08 -4.33691e-09)
(4.29354e-10 -4.69385e-09 -3.43389e-09)
(-4.71188e-10 3.60599e-11 -4.37787e-09)
(-6.13594e-10 5.2186e-11 -3.50707e-09)
(-6.72327e-10 5.68079e-11 -3.5719e-09)
(0.00367215 0.000648162 -0.00465438)
(0.0026655 0.000493903 -0.00381291)
(-4.90205e-06 -1.66954e-05 -4.77953e-06)
(0.000112903 5.82015e-05 -0.000171834)
(1.83153e-05 5.50787e-06 -7.8198e-05)
(0.000202343 6.71896e-05 -0.000370529)
(6.45572e-06 -9.2531e-06 -3.16066e-06)
(0.00317104 0.000453114 -0.00183988)
(0.00224364 0.000276852 -0.000923472)
(0.00214358 0.000314553 -0.00149448)
(7.43899e-05 5.2042e-06 -6.98333e-05)
(0.000596474 0.000105865 -0.00104621)
(0.0212656 0.00287651 -0.0109706)
(0.0120827 0.00167117 -0.00349105)
(0.0137454 0.00183805 -0.00218334)
(0.014132 0.00193181 -0.00373405)
(0.012452 0.00185937 -0.00876536)
(0.0144792 0.00211074 -0.00937042)
(0.0213612 0.00273845 -0.00261063)
(0.0209819 0.00273281 -0.00437658)
(-7.2189e-10 4.39777e-11 -8.00872e-09)
(-6.83335e-10 -7.31642e-12 -8.04134e-09)
(-3.7982e-10 -2.09057e-11 -4.31e-09)
(-5.92903e-10 5.26103e-11 -3.47917e-09)
(-5.30329e-10 -1.3334e-12 -3.41233e-09)
(0.00364783 0.000723533 -0.00470222)
(0.00264374 0.000572176 -0.00385508)
(9.74616e-05 7.33841e-05 -0.000207384)
(4.05796e-06 2.57756e-05 -4.99291e-05)
(0.000194761 0.000120813 -0.00039466)
(0.00313738 0.000496862 -0.00190546)
(0.00218571 0.000321079 -0.00101346)
(0.00211173 0.00036062 -0.0015479)
(9.82536e-05 9.41095e-05 -0.00014591)
(0.000602269 0.000204654 -0.00110535)
(0.00404639 0.000704115 -0.00492754)
(0.00528282 0.000885519 -0.00572431)
(0.00981631 0.00132247 -0.00188508)
(0.0114283 0.00158591 -0.00340771)
(0.00955468 0.00133685 -0.00314559)
(0.00355299 0.000505727 -0.00195012)
(0.00454028 0.000590143 -0.00131497)
(0.00481339 0.000681231 -0.00227314)
(0.011805 0.00177687 -0.00855563)
(0.00995388 0.00153482 -0.00790214)
(0.00402149 0.000778489 -0.00497733)
(0.00525689 0.000956803 -0.00577982)
(0.00976164 0.00135589 -0.00206249)
(0.0113974 0.00161912 -0.00351735)
(0.00952245 0.00137195 -0.00325032)
(0.00351897 0.000548723 -0.00201966)
(0.00448003 0.000629842 -0.00144598)
(0.00477901 0.0007222 -0.00235368)
(0.0117812 0.00183492 -0.00862694)
(0.00992897 0.00159623 -0.00797085)
(0.0212487 0.0029203 -0.0110437)
(0.0120523 0.00170372 -0.00360201)
(0.0136964 0.00186784 -0.00237459)
(0.0141032 0.00196249 -0.003848)
(0.0124287 0.00191631 -0.00883735)
(0.0144573 0.00216433 -0.0094438)
(0.0213237 0.00276235 -0.00280634)
(0.0209589 0.0027579 -0.00449243)
(-9.34559e-10 7.95742e-11 -3.69771e-09)
(-1.3312e-09 6.26334e-11 -3.93604e-09)
(-8.73632e-10 6.65534e-11 -3.59794e-09)
(-6.31902e-10 4.60843e-11 -4.48348e-09)
(-7.68175e-10 5.48566e-11 -3.68839e-09)
(-8.26621e-10 6.38131e-11 -3.76135e-09)
(-1.30663e-09 6.12065e-11 -3.88357e-09)
(-7.9289e-10 5.97566e-11 -3.47838e-09)
(-8.52769e-10 6.60854e-11 -3.56538e-09)
(6.42088e-09 -2.69306e-08 -4.30616e-09)
(3.092e-08 -5.75255e-08 -2.29691e-09)
(2.48095e-08 -1.13026e-07 -9.5137e-09)
(-2.8008e-08 -2.32014e-07 -3.23573e-08)
(7.60981e-08 -9.10215e-07 -6.03863e-08)
(3.04229e-08 -2.3002e-07 -1.78216e-08)
(4.63535e-08 -1.10213e-07 -4.37605e-09)
(1.3465e-07 -7.69283e-07 -4.37621e-08)
(3.94898e-08 -2.04355e-07 -1.47262e-08)
(-1.01093e-09 1.08521e-10 -4.05869e-09)
(-9.55998e-10 8.33761e-11 -3.73534e-09)
(-1.50877e-09 8.01342e-11 -4.3347e-09)
(-1.02371e-09 9.55954e-11 -3.86391e-09)
(-1.53671e-09 8.5249e-11 -4.40093e-09)
(-1.04688e-09 1.0436e-10 -3.90289e-09)
(-9.54012e-10 3.75648e-11 -8.0825e-09)
(-3.43681e-09 -5.17655e-09 -7.84822e-09)
(-1.39622e-09 -3.97605e-09 -4.46807e-09)
(-3.5012e-10 -6.36506e-10 -3.29931e-09)
(9.69531e-11 -2.84917e-09 -3.33579e-09)
(3.921e-09 -1.60903e-08 -3.67274e-09)
(3.59311e-10 -1.46641e-09 -2.54508e-09)
(7.4025e-10 -3.67052e-09 -3.03317e-09)
(-2.92789e-10 -4.91215e-10 -2.99487e-09)
(-6.89533e-11 -8.37966e-10 -2.61286e-09)
(3.04166e-10 -2.16709e-09 -2.97964e-09)
(-6.8665e-10 5.46381e-12 -1.03393e-09)
(-1.18464e-09 5.15455e-11 -3.3129e-09)
(-6.46085e-10 5.19574e-12 -9.76048e-10)
(-1.1624e-09 5.01718e-11 -3.26506e-09)
(-5.94853e-10 5.19351e-12 -9.03248e-10)
(-6.33348e-10 5.1099e-12 -9.58073e-10)
(-4.83011e-10 3.463e-11 -4.38217e-09)
(-7.47501e-10 5.54195e-11 -3.66082e-09)
(-6.89902e-10 5.82432e-11 -3.58975e-09)
(-6.30489e-10 5.84215e-11 -3.26115e-09)
(-1.12354e-09 5.95181e-11 -3.50199e-09)
(-6.94155e-10 6.5596e-11 -3.34056e-09)
(-7.7278e-10 5.79704e-11 -3.44929e-09)
(-1.147e-09 6.1122e-11 -3.54964e-09)
(-7.14723e-10 6.36442e-11 -3.36654e-09)
(-4.85986e-10 5.71568e-12 -7.5062e-10)
(-9.90128e-10 5.10326e-11 -2.90351e-09)
(-5.27896e-10 5.35918e-12 -8.09635e-10)
(-5.81662e-10 5.16204e-12 -8.84858e-10)
(-1.01297e-09 5.07526e-11 -2.95059e-09)
(-5.41685e-10 5.33353e-12 -8.28819e-10)
(0.00359252 0.000617267 -0.00430694)
(0.00238382 0.000404283 -0.0027564)
(0.00258246 0.000465402 -0.003523)
(0.00159218 0.000316303 -0.00264015)
(0.00236878 0.000446806 -0.00352521)
(0.00208379 0.000360988 -0.00254168)
(0.00150567 0.000293128 -0.00242732)
(0.00228469 0.0004194 -0.00325458)
(-4.32013e-11 -7.96497e-11 -2.85832e-10)
(2.02596e-08 -3.01797e-08 -1.79943e-09)
(5.48147e-10 -5.33056e-10 -1.26313e-10)
(3.19241e-08 -5.88508e-08 -2.86184e-09)
(8.28253e-09 -9.69009e-09 8.9093e-10)
(1.09053e-09 -1.05218e-09 -3.5051e-11)
(-1.71625e-06 -7.31504e-06 1.04077e-06)
(2.43531e-07 -1.75204e-06 -1.02721e-07)
(6.19304e-07 -7.45895e-06 -1.5967e-06)
(0.000335849 5.51346e-05 -0.000326857)
(0.000843615 0.000149595 -0.000882944)
(0.000323919 8.66965e-05 -0.000493514)
(2.58458e-05 -3.77169e-06 -0.000105511)
(0.000319511 9.2152e-05 -0.000636641)
(4.30387e-06 -2.79784e-05 -5.72435e-06)
(0.000222803 7.36925e-05 -0.000428587)
(8.90702e-06 -4.2046e-06 -1.40462e-06)
(0.000878419 0.000164813 -0.00102609)
(0.000466508 0.000120169 -0.000848403)
(0.000352556 9.5514e-05 -0.000577153)
(2.82528e-07 -1.77312e-06 -1.07805e-07)
(2.73026e-06 -6.24798e-06 1.69561e-07)
(1.58231e-06 -5.35667e-06 -1.39919e-06)
(0.00320516 0.000474143 -0.00213468)
(0.00231726 0.000394832 -0.00247996)
(0.00217922 0.000334491 -0.0017349)
(0.00163786 0.000199784 -0.000783305)
(0.00106105 0.000176229 -0.00100865)
(0.00184164 0.000274967 -0.0013767)
(0.00201678 0.000352597 -0.00228565)
(0.00109677 0.000192846 -0.00117225)
(0.00187755 0.000294337 -0.00159754)
(0.00136895 0.000275383 -0.00233716)
(0.000778352 0.000152315 -0.00138542)
(5.19972e-05 1.34446e-05 -9.64296e-05)
(0.000367025 8.06773e-05 -0.000717027)
(3.74919e-06 -2.43995e-05 -3.64163e-06)
(0.000520293 9.26828e-05 -0.000944918)
(6.60417e-07 -7.20854e-07 6.68698e-08)
(0.00128215 0.000253855 -0.00214379)
(0.000519444 0.000114616 -0.00095013)
(0.000695931 0.000136815 -0.00125479)
(1.70395e-08 -2.19008e-08 2.10598e-09)
(2.51276e-06 -5.08337e-06 1.52529e-07)
(2.02102e-07 -4.68815e-07 5.60755e-10)
(0.0181267 0.00253635 -0.0102988)
(0.0204636 0.00279181 -0.0108085)
(0.021112 0.00280534 -0.00803369)
(0.0212203 0.00285518 -0.0101771)
(0.0180769 0.00251233 -0.00955246)
(0.0203062 0.00271847 -0.00791412)
(0.0204172 0.0027698 -0.0100264)
(0.0121073 0.0016903 -0.0040536)
(0.0142456 0.00200785 -0.00617762)
(0.0141551 0.00194997 -0.0043353)
(0.0151681 0.0020163 -0.00227576)
(0.0170532 0.00228658 -0.00403528)
(0.0148425 0.00201996 -0.00381113)
(0.0149539 0.00209457 -0.00630601)
(0.0170743 0.00230325 -0.00468513)
(0.0148652 0.00203776 -0.00442538)
(0.0173717 0.002451 -0.0101211)
(0.0151826 0.00219546 -0.00956407)
(0.0123929 0.00183054 -0.00812716)
(0.014291 0.00202151 -0.00685454)
(0.0144237 0.00208358 -0.00868942)
(0.0173207 0.00242632 -0.00938721)
(0.0149983 0.00210803 -0.0069971)
(0.0151282 0.00216889 -0.00886941)
(0.0210749 0.0027942 -0.00723935)
(0.0210009 0.00274733 -0.00508174)
(0.0197422 0.002558 -0.00253212)
(0.0178152 0.00237589 -0.00410619)
(0.0201732 0.00264377 -0.00431177)
(0.0202683 0.00270699 -0.00713171)
(0.0178359 0.00239214 -0.00476796)
(0.0201925 0.00265874 -0.00500606)
(-6.99858e-10 5.56952e-12 -1.05315e-09)
(-1.34777e-09 6.42294e-11 -3.67647e-09)
(-7.43144e-10 6.41735e-12 -1.11476e-09)
(-1.37512e-09 6.78294e-11 -3.73971e-09)
(-7.60927e-10 6.68465e-12 -1.13907e-09)
(-7.63693e-10 2.1465e-11 -8.02436e-09)
(-8.69455e-10 -2.33409e-10 -8.02299e-09)
(-4.12266e-10 -7.79226e-11 -4.2967e-09)
(-4.01955e-10 -4.00415e-10 -3.31252e-09)
(-5.01286e-10 -4.58947e-11 -3.3841e-09)
(-6.08746e-10 5.37671e-11 -3.23118e-09)
(-9.36863e-10 5.10365e-11 -3.1409e-09)
(-5.37802e-10 1.9326e-11 -3.14343e-09)
(-3.68125e-10 -3.04468e-10 -3.02315e-09)
(-8.96548e-10 3.74515e-11 -3.07991e-09)
(-5.04817e-10 -9.01307e-12 -3.11292e-09)
(-1.16379e-10 -4.14864e-11 -3.24471e-10)
(7.07781e-11 -6.54974e-10 -1.98954e-09)
(-2.40473e-10 -1.65718e-12 -4.26336e-10)
(-2.0371e-10 -3.60117e-10 -2.06005e-09)
(-3.36786e-10 6.08109e-12 -5.43492e-10)
(-2.69854e-10 2.25837e-12 -4.58567e-10)
(-4.7174e-10 5.77655e-12 -7.30485e-10)
(-8.17556e-10 4.99971e-11 -2.55973e-09)
(-4.25452e-10 6.23501e-12 -6.65681e-10)
(-7.84626e-10 4.47555e-11 -2.50394e-09)
(-3.56492e-10 6.39772e-12 -5.70063e-10)
(-4.08818e-10 6.28439e-12 -6.42745e-10)
(0.00356416 0.000702194 -0.00436572)
(0.00235406 0.000492633 -0.00281526)
(0.00255698 0.000553828 -0.00357423)
(0.0015761 0.00039871 -0.0026767)
(0.00234818 0.000526045 -0.00356567)
(0.00205534 0.00045073 -0.00259721)
(0.00148668 0.00038691 -0.00247071)
(0.00226053 0.000509042 -0.00330347)
(0.000316693 0.000111326 -0.000370447)
(0.000820741 0.000201044 -0.000918542)
(0.000314205 0.000141428 -0.000524392)
(8.58801e-06 3.09642e-05 -5.75976e-05)
(0.000317755 0.000169937 -0.00066973)
(0.000219097 0.000134915 -0.000459402)
(0.000856824 0.000222332 -0.00106203)
(0.000458305 0.000194259 -0.000883796)
(0.000343303 0.000157664 -0.000609658)
(0.00317338 0.000523254 -0.00219807)
(0.00229343 0.000455852 -0.00252575)
(0.00214931 0.000386172 -0.00178694)
(0.00158305 0.000245843 -0.000858691)
(0.00103518 0.000226455 -0.00104677)
(0.00181089 0.000321931 -0.00142603)
(0.00199391 0.000414648 -0.00232867)
(0.00107254 0.000249004 -0.00121031)
(0.00184864 0.000346974 -0.00164584)
(0.00135483 0.000359173 -0.00237315)
(0.000776477 0.000243958 -0.00143388)
(7.5816e-05 8.85194e-05 -0.000130013)
(0.000362635 0.000192823 -0.000759171)
(0.000525304 0.000205632 -0.00100385)
(0.00126541 0.000349525 -0.00218613)
(0.000510024 0.000219035 -0.000997612)
(0.00069302 0.000241487 -0.001308)
(0.00396793 0.000672694 -0.00456112)
(0.00502915 0.000782667 -0.0041724)
(0.00520799 0.000853235 -0.00530196)
(0.00718745 0.00115682 -0.0067322)
(0.00573209 0.000950349 -0.0059822)
(0.0054826 0.000847045 -0.00436244)
(0.00711751 0.00112465 -0.00623842)
(0.00565848 0.00091797 -0.00554162)
(0.0086275 0.00116035 -0.00177855)
(0.00727756 0.00102527 -0.00277424)
(0.00896121 0.00125647 -0.00305589)
(0.0114534 0.00160535 -0.00395617)
(0.00968549 0.00142088 -0.00520471)
(0.00958132 0.00135707 -0.00365221)
(0.00730635 0.00104628 -0.00322066)
(0.00909448 0.00134136 -0.00505504)
(0.0089883 0.00127692 -0.0035473)
(0.00358654 0.000526929 -0.00226343)
(0.00496849 0.000769127 -0.00375979)
(0.00484507 0.000702669 -0.00263772)
(0.0054571 0.000718631 -0.00143673)
(0.00674981 0.000951942 -0.00267801)
(0.00527061 0.000745271 -0.00237618)
(0.0054229 0.000833229 -0.00393131)
(0.00677911 0.000973103 -0.00310813)
(0.00530172 0.000766673 -0.00275817)
(0.00770745 0.00122933 -0.00697424)
(0.00936791 0.00145636 -0.00767622)
(0.0117447 0.00174752 -0.00793229)
(0.00973751 0.0014354 -0.00577459)
(0.00989001 0.00150412 -0.00732518)
(0.00763872 0.00119735 -0.00646325)
(0.00914746 0.00135591 -0.00560851)
(0.00930283 0.00142528 -0.00711532)
(0.00393893 0.000756459 -0.00462247)
(0.00499495 0.000862204 -0.0042552)
(0.00517781 0.000933443 -0.00537083)
(0.00716139 0.00122379 -0.00679449)
(0.005706 0.00102057 -0.00603951)
(0.00544825 0.000925353 -0.00444835)
(0.00708712 0.00119998 -0.00631613)
(0.00562811 0.000996977 -0.00561285)
(0.00857122 0.001195 -0.00194909)
(0.00724395 0.00106294 -0.00286999)
(0.00892854 0.00129224 -0.00315862)
(0.0114238 0.00164268 -0.00406107)
(0.0096595 0.0014679 -0.00528828)
(0.00955051 0.00139654 -0.00375248)
(0.00727433 0.00108864 -0.00331245)
(0.00906823 0.00138923 -0.00513711)
(0.00895713 0.00131713 -0.0036457)
(0.0035544 0.000575237 -0.0023305)
(0.00494153 0.000823846 -0.00382517)
(0.00481248 0.000748699 -0.00271515)
(0.00539736 0.000757027 -0.00157943)
(0.00671592 0.000990283 -0.00277105)
(0.00523628 0.000785542 -0.00246012)
(0.00539585 0.000887093 -0.00399922)
(0.00674688 0.0010162 -0.00319736)
(0.00526913 0.000811954 -0.00283879)
(0.00768153 0.0012952 -0.00703801)
(0.00934269 0.00151889 -0.00774385)
(0.0117167 0.00181283 -0.0080218)
(0.00970435 0.00150379 -0.00587991)
(0.0098608 0.0015732 -0.00741126)
(0.00760846 0.00127144 -0.00654289)
(0.00911396 0.00142554 -0.00571198)
(0.00927329 0.00149561 -0.00719998)
(0.0181075 0.00258445 -0.0103728)
(0.0204461 0.00283667 -0.010882)
(0.0210879 0.00285415 -0.00814839)
(0.0211999 0.00290448 -0.0102697)
(0.0180539 0.00256646 -0.00964583)
(0.0202814 0.00276846 -0.00802913)
(0.0203961 0.00282029 -0.0101193)
(0.0120782 0.00172691 -0.00415974)
(0.0142221 0.0020489 -0.00626797)
(0.0141274 0.00198446 -0.00444424)
(0.0151212 0.0020449 -0.00246957)
(0.0170268 0.00231477 -0.00415126)
(0.0148143 0.00204999 -0.00392579)
(0.0149309 0.00213478 -0.00639685)
(0.017049 0.00233492 -0.00479592)
(0.0148381 0.00207153 -0.00453497)
(0.0173519 0.00250019 -0.0101951)
(0.0151612 0.00224794 -0.00963774)
(0.0123654 0.00189459 -0.00821757)
(0.0142611 0.00208121 -0.00696825)
(0.0143977 0.00214388 -0.00878176)
(0.0172971 0.00248168 -0.00948057)
(0.014969 0.0021665 -0.0071114)
(0.0151028 0.00222795 -0.00896216)
(0.021056 0.00282777 -0.00733062)
(0.0209787 0.00277554 -0.00519231)
(0.0197022 0.00258305 -0.00272845)
(0.0177894 0.00240343 -0.00422236)
(0.0201494 0.00266949 -0.00442784)
(0.0202488 0.00274138 -0.00722321)
(0.0178112 0.00242311 -0.00487891)
(0.0201696 0.00268765 -0.00511687)
(0.0039015 0.000750776 -0.00555925)
(0.00354962 0.000694711 -0.00523369)
(0.000196223 -2.81615e-05 -0.000227189)
(0.000437108 2.36053e-05 -0.000608825)
(0.0126232 0.00194729 -0.010413)
(0.0132814 0.00202815 -0.0106558)
(0.00388627 0.000789617 -0.00557915)
(0.00353484 0.000734017 -0.00525304)
(0.000203653 4.75057e-05 -0.000246643)
(0.000454445 8.23227e-05 -0.000665789)
(0.00427257 0.000808558 -0.00588088)
(0.00466266 0.000868072 -0.00619842)
(0.0119796 0.00186708 -0.0101653)
(0.0113508 0.00178764 -0.00991289)
(0.00425698 0.000846913 -0.00590134)
(0.00464683 0.000905922 -0.00621945)
(0.0119663 0.00189708 -0.0101924)
(0.0113372 0.00181821 -0.00993977)
(0.0126104 0.00197671 -0.0104402)
(0.0132689 0.002057 -0.0106832)
(-1.48105e-09 8.10157e-11 -4.59152e-09)
(-1.37889e-09 6.70266e-11 -4.04112e-09)
(-1.45405e-09 7.82916e-11 -4.53546e-09)
(-1.26055e-09 5.823e-11 -3.78827e-09)
(-1.30541e-09 6.62747e-11 -4.23257e-09)
(-1.32855e-09 6.61015e-11 -4.27895e-09)
(8.33549e-09 -1.99583e-08 -2.97555e-09)
(1.11582e-08 -1.97879e-08 -2.28931e-09)
(1.41314e-08 -3.20737e-08 -2.79178e-09)
(1.1608e-07 -3.69076e-07 -1.26596e-08)
(2.55123e-07 -7.30175e-07 2.12465e-08)
(1.34529e-07 -5.46652e-07 -1.77007e-08)
(-1.50742e-09 8.42814e-11 -4.64924e-09)
(-1.45489e-09 7.40774e-11 -4.21037e-09)
(-1.53533e-09 8.78132e-11 -4.7131e-09)
(5.02109e-09 -1.15501e-08 -2.86597e-09)
(2.07495e-09 -4.19527e-09 -2.41819e-09)
(2.84146e-09 -7.07492e-09 -2.94323e-09)
(-6.59505e-10 -2.85121e-10 -3.32438e-09)
(-5.37209e-10 -2.69343e-10 -2.7592e-09)
(-5.12848e-10 -5.10991e-10 -3.25622e-09)
(-1.06538e-09 3.86273e-11 -2.71726e-09)
(-1.22914e-09 5.4339e-11 -3.41061e-09)
(-1.04507e-09 3.75098e-11 -2.67358e-09)
(-1.1198e-09 4.91316e-11 -3.17533e-09)
(-9.32632e-10 3.42695e-11 -2.43319e-09)
(-9.51258e-10 3.42365e-11 -2.47191e-09)
(-1.10154e-09 7.00881e-11 -3.84779e-09)
(-1.07124e-09 6.13186e-11 -3.40454e-09)
(-1.12862e-09 7.05192e-11 -3.89653e-09)
(-1.28044e-09 6.60532e-11 -4.18313e-09)
(-1.19272e-09 5.93189e-11 -3.64657e-09)
(-1.25725e-09 6.55926e-11 -4.13704e-09)
(-7.77485e-10 3.73862e-11 -2.11073e-09)
(-9.43411e-10 5.31072e-11 -2.81207e-09)
(-7.98159e-10 3.65415e-11 -2.15262e-09)
(-9.13894e-10 3.4086e-11 -2.39361e-09)
(-1.05639e-09 4.87685e-11 -3.04153e-09)
(-8.95733e-10 3.44516e-11 -2.35468e-09)
(0.0034641 0.000568425 -0.00368976)
(0.00304298 0.000498918 -0.00317647)
(0.00340214 0.000501695 -0.00327162)
(0.00304259 0.000449672 -0.00307262)
(0.00310602 0.000516449 -0.0034667)
(0.0018401 0.000388586 -0.00320867)
(0.00207842 0.000436759 -0.00355372)
(0.00129704 0.000192294 -0.00181325)
(0.0015428 0.000281899 -0.00210282)
(0.00136714 0.000256894 -0.00205842)
(0.00153894 0.000229277 -0.0020311)
(0.00160865 0.000294584 -0.00230163)
(1.8002e-09 -2.17232e-09 -1.16604e-09)
(7.01142e-09 -9.92196e-09 -1.72163e-09)
(3.30727e-09 -3.73968e-09 -1.09718e-09)
(8.78647e-08 -2.11309e-07 -7.96445e-09)
(1.06068e-07 -1.60036e-07 -7.94379e-10)
(5.24596e-08 -9.10025e-08 -2.81476e-09)
(8.74427e-05 1.3379e-06 -0.000230275)
(1.36836e-05 1.23662e-05 -6.64895e-05)
(9.44983e-05 5.99943e-05 -0.000224215)
(2.07865e-05 -6.42014e-06 -7.99084e-05)
(0.000106717 -7.65455e-06 -0.000242138)
(7.74913e-05 5.84536e-05 -0.000199918)
(1.77533e-05 -1.67304e-05 -8.01017e-05)
(0.000771348 0.000108994 -0.00111084)
(0.00102033 0.000152211 -0.00144548)
(0.000961987 0.00019555 -0.00132408)
(0.000812504 0.000178504 -0.00127221)
(0.000972324 0.000139858 -0.00129637)
(0.000817874 0.000120025 -0.00123996)
(0.000762365 0.000166666 -0.00113645)
(3.08428e-07 -1.8722e-06 -8.19e-08)
(7.62331e-07 -1.79867e-06 5.29697e-08)
(7.26421e-07 -2.05691e-06 1.24974e-07)
(0.00294289 0.000418933 -0.00252229)
(0.00328698 0.000517556 -0.00273617)
(0.0029778 0.000487792 -0.00285994)
(0.00335006 0.000489249 -0.00298301)
(0.00298977 0.000437725 -0.00280097)
(0.00292644 0.000467201 -0.00256883)
(0.00330391 0.00047007 -0.0026867)
(0.00143506 0.000206511 -0.00166029)
(0.00124253 0.000185972 -0.00164787)
(0.0014757 0.000276205 -0.00188851)
(0.00118226 0.000226421 -0.00150969)
(0.00148404 0.000221639 -0.00184735)
(0.00119388 0.00017198 -0.00147999)
(0.00142239 0.000259589 -0.00169256)
(0.00161868 0.000341045 -0.00286069)
(0.00141248 0.000293762 -0.00250948)
(3.6995e-05 1.81259e-05 -8.75382e-05)
(0.000113266 5.26427e-05 -0.000248923)
(2.66999e-05 -8.59406e-06 -7.4626e-05)
(0.000145734 -8.0252e-05 -0.000289433)
(0.000134241 1.94718e-05 -0.000280913)
(1.91014e-05 -1.00515e-05 -3.7081e-05)
(0.00107413 0.000156853 -0.00159252)
(0.00114407 0.000220619 -0.00181209)
(0.00087534 0.00017837 -0.00142098)
(0.000869967 0.000123011 -0.00136785)
(0.000938407 0.000185655 -0.00156141)
(1.73279e-07 -4.0385e-07 -1.24817e-08)
(6.1531e-07 -1.27728e-06 1.41589e-08)
(4.04151e-07 -7.03757e-07 4.28931e-09)
(0.0182709 0.00260461 -0.0122219)
(0.0190348 0.00268743 -0.0124267)
(0.0179623 0.00242394 -0.00731285)
(0.017997 0.00247258 -0.00821402)
(0.0187289 0.00254408 -0.00766645)
(0.0187332 0.002512 -0.00743823)
(0.0187671 0.00255956 -0.00835352)
(0.0128512 0.00178056 -0.00523102)
(0.0121666 0.00173075 -0.00519346)
(0.0122177 0.00171338 -0.00566791)
(0.0128702 0.00183597 -0.00591294)
(0.0128841 0.00179899 -0.00580265)
(0.0121841 0.00169469 -0.00510938)
(0.0128339 0.00181596 -0.00531606)
(0.0163933 0.00221862 -0.00580536)
(0.01717 0.00232375 -0.006558)
(0.0164101 0.00226906 -0.00655491)
(0.0171254 0.00233873 -0.00600186)
(0.016423 0.0022355 -0.0064384)
(0.017141 0.00230722 -0.00591349)
(0.0163774 0.00225077 -0.00589344)
(0.0175192 0.00252175 -0.0120124)
(0.01678 0.00243892 -0.0117982)
(0.0122981 0.00178373 -0.00698458)
(0.0122565 0.00172705 -0.00621051)
(0.0129175 0.00185 -0.00656068)
(0.0129221 0.00181249 -0.006358)
(0.0129628 0.00186825 -0.00714938)
(0.0172035 0.00233587 -0.00718472)
(0.017239 0.00238559 -0.0080714)
(0.0164527 0.00228204 -0.0072735)
(0.0164572 0.00224789 -0.00705384)
(0.0164935 0.00229866 -0.00792564)
(0.0186734 0.00248468 -0.00612298)
(0.0179295 0.0024121 -0.0066751)
(0.0186891 0.00253196 -0.00690873)
(0.0178859 0.0024268 -0.00610795)
(0.0187012 0.00250045 -0.00678971)
(0.0179011 0.00239594 -0.00601935)
(0.0186586 0.00251488 -0.00621172)
(-1.08611e-09 3.93207e-11 -2.76293e-09)
(-1.29898e-09 5.95237e-11 -3.56531e-09)
(-1.10561e-09 4.02581e-11 -2.80673e-09)
(-1.07409e-09 7.16747e-11 -3.79421e-09)
(-9.95679e-10 6.2468e-11 -3.2516e-09)
(-1.05056e-09 6.51318e-11 -3.74383e-09)
(-7.51945e-10 -1.56518e-10 -3.3887e-09)
(-7.97802e-10 -1.60177e-11 -2.95954e-09)
(-8.25956e-10 -7.02438e-11 -3.45421e-09)
(9.3519e-10 -1.21467e-09 -1.22293e-09)
(1.16215e-09 -1.99372e-09 -1.85813e-09)
(3.89416e-10 -6.98941e-10 -1.29084e-09)
(-5.11132e-10 -9.61986e-11 -2.19881e-09)
(-5.28052e-10 1.19484e-11 -1.66946e-09)
(-4.76459e-10 -7.90289e-12 -1.61155e-09)
(-7.56472e-10 3.78729e-11 -2.0672e-09)
(-8.7201e-10 5.25273e-11 -2.66579e-09)
(-7.35531e-10 3.86131e-11 -2.02303e-09)
(-7.05774e-10 2.2618e-11 -2.38925e-09)
(-5.69713e-10 2.48203e-11 -1.72654e-09)
(-6.04178e-10 3.14133e-11 -1.77945e-09)
(0.00342984 0.00066192 -0.00376306)
(0.0030112 0.000584657 -0.00324226)
(0.0033341 0.00067595 -0.00342043)
(0.00307262 0.000611309 -0.00353647)
(0.002976 0.000626564 -0.00321362)
(0.00183061 0.000430247 -0.00322589)
(0.00206772 0.000478058 -0.00357107)
(0.00124765 0.000387689 -0.00191164)
(0.00151768 0.000374711 -0.00215233)
(0.00134333 0.000361337 -0.0021098)
(0.00158258 0.000397144 -0.00235529)
(0.00148537 0.000421031 -0.00213523)
(7.91709e-05 0.000154265 -0.000268537)
(1.92643e-05 4.2786e-05 -7.47837e-05)
(9.86267e-05 0.000103695 -0.000259128)
(3.45461e-05 9.56185e-05 -0.000105121)
(7.89065e-05 9.69207e-05 -0.000230318)
(9.98446e-05 0.000165451 -0.00029816)
(2.48289e-05 8.50718e-05 -9.36417e-05)
(0.000727936 0.000289738 -0.00119857)
(0.000975141 0.00033282 -0.00153505)
(0.000944547 0.000258652 -0.00135767)
(0.000798073 0.000247712 -0.0013056)
(0.000747231 0.000231689 -0.00116881)
(0.000922742 0.000315553 -0.00138824)
(0.000778482 0.00030533 -0.00132657)
(0.00287076 0.000573123 -0.00266848)
(0.00326046 0.000571897 -0.0027915)
(0.0029525 0.000546902 -0.00291146)
(0.00328185 0.000645721 -0.00312953)
(0.00290041 0.000522409 -0.00262111)
(0.00292289 0.00059664 -0.00293955)
(0.00323048 0.000621832 -0.00284157)
(0.00137563 0.000374712 -0.00176455)
(0.00119219 0.000362513 -0.00174251)
(0.00145537 0.000340581 -0.00192646)
(0.00116261 0.000288043 -0.00154497)
(0.00140116 0.000319858 -0.00173023)
(0.00142965 0.000394606 -0.00194807)
(0.00113867 0.000343846 -0.00157719)
(0.00161058 0.000383082 -0.00287798)
(0.00140606 0.000336325 -0.00252741)
(4.98915e-05 7.50658e-05 -0.000106355)
(0.000121933 0.00012189 -0.000290647)
(4.16533e-05 0.000110204 -0.00012728)
(0.000149283 0.000136362 -0.000322324)
(0.000123321 0.00017798 -0.000337585)
(0.00102979 0.000356545 -0.00168592)
(0.0011229 0.000327448 -0.00186143)
(0.000857684 0.000277068 -0.0014653)
(0.000920519 0.0002949 -0.00161039)
(0.000831649 0.000327319 -0.00145877)
(0.0038415 0.000623027 -0.00390953)
(0.003781 0.00055643 -0.00346759)
(0.00417771 0.000661293 -0.00378324)
(0.00417897 0.000613837 -0.00366057)
(0.00423804 0.000680213 -0.00412604)
(0.00738998 0.00126149 -0.00801125)
(0.00689069 0.00119176 -0.00772055)
(0.00695388 0.00100977 -0.0047572)
(0.00644356 0.000982651 -0.00473344)
(0.00700514 0.00107343 -0.00535676)
(0.00644669 0.000938172 -0.00458162)
(0.00649916 0.00100242 -0.00515975)
(0.0108937 0.00152563 -0.00485926)
(0.0115138 0.00164638 -0.0050685)
(0.0115658 0.0016286 -0.00553066)
(0.0109143 0.0015838 -0.00549602)
(0.0115315 0.00160967 -0.00498546)
(0.0109287 0.00154478 -0.00539086)
(0.0108758 0.00156298 -0.00494113)
(0.00793693 0.0011245 -0.00419398)
(0.00743337 0.00106906 -0.00449838)
(0.00737558 0.00109029 -0.00412616)
(0.00796082 0.00118685 -0.00474759)
(0.00739413 0.00104902 -0.00405401)
(0.00797545 0.00114444 -0.00465356)
(0.00791842 0.00116511 -0.00426808)
(0.00408386 0.000580909 -0.00300776)
(0.00366697 0.000570816 -0.00290087)
(0.00372969 0.000543563 -0.00316223)
(0.00411516 0.000648485 -0.00340835)
(0.00368432 0.000524086 -0.0028485)
(0.00412846 0.000600619 -0.00333867)
(0.00406619 0.000626911 -0.00306296)
(0.00635948 0.000903875 -0.00376704)
(0.0069082 0.000995529 -0.00434062)
(0.00638579 0.000968434 -0.00426605)
(0.00684967 0.00101736 -0.00398179)
(0.00640021 0.000924001 -0.00418025)
(0.00686822 0.000975433 -0.00391171)
(0.00634097 0.000946459 -0.00383493)
(0.00790649 0.00133275 -0.00829724)
(0.00843994 0.00140546 -0.00857849)
(0.011648 0.00170001 -0.00681659)
(0.0116053 0.00164243 -0.00606024)
(0.0109645 0.00159821 -0.00609788)
(0.010969 0.00155873 -0.00590717)
(0.0110126 0.00161718 -0.00664538)
(0.00747826 0.00108333 -0.00492994)