/*--------------------------------*- C++ -*----------------------------------*\
| =========                 |                                                 |
| \\      /  F ield         | OpenFOAM: The Open Source CFD Toolbox           |
|  \\    /   O peration     | Version:  2012                                  |
|   \\  /    A nd           | Website:  www.openfoam.com                      |
|    \\/     M anipulation  |                                                 |
\*---------------------------------------------------------------------------*/
FoamFile
{
    version     2.0;
    format      ascii;
    class       volVectorField;
    location    "0.105/fluid";
    object      cellMotionU;
}
// * * * * * * * * * * * * * * * * * * * * * * * * * * * * * * * * * * * * * //

dimensions      [0 1 -1 0 0 0 0];


internalField   nonuniform List<vector> 
16422
(
(5.63585e-07 1.02309e-07 1.6579e-07)
(3.60119e-06 3.6791e-07 2.2114e-07)
(8.59515e-06 6.05359e-07 -7.49632e-07)
(1.35094e-05 1.20178e-06 -2.14106e-06)
(1.65008e-05 2.37028e-06 -3.02837e-06)
(1.7989e-05 3.94412e-06 -3.3652e-06)
(1.86468e-05 5.36104e-06 -3.3157e-06)
(1.85435e-05 6.1795e-06 -3.00635e-06)
(1.79031e-05 6.51419e-06 -2.59519e-06)
(1.66671e-05 6.44973e-06 -2.16654e-06)
(1.46501e-05 5.92018e-06 -1.71894e-06)
(1.19896e-05 5.02612e-06 -1.28905e-06)
(8.6164e-06 3.63871e-06 -8.56572e-07)
(4.25831e-06 1.66917e-06 -3.81906e-07)
(7.22938e-07 6.29753e-09 -3.39759e-07)
(1.15052e-05 1.7694e-06 2.34276e-06)
(4.23353e-05 2.45859e-06 6.85849e-07)
(8.76508e-05 3.56583e-06 -9.99957e-06)
(0.000127416 9.32406e-06 -2.17087e-05)
(0.00015216 2.0402e-05 -2.87386e-05)
(0.00016402 3.44258e-05 -3.10291e-05)
(0.000168322 4.67241e-05 -3.00075e-05)
(0.000167693 5.46523e-05 -2.72037e-05)
(0.000161933 5.81261e-05 -2.35144e-05)
(0.000150294 5.74546e-05 -1.95531e-05)
(0.000132571 5.28119e-05 -1.56267e-05)
(0.000108525 4.44118e-05 -1.17163e-05)
(7.76048e-05 3.17469e-05 -7.70031e-06)
(3.8792e-05 1.48675e-05 -3.50277e-06)
(2.39731e-05 -4.06203e-06 -2.37439e-06)
(4.72618e-05 4.17205e-06 3.14226e-06)
(0.000109763 -5.89329e-06 -5.53264e-06)
(0.000188609 -5.85494e-06 -2.8691e-05)
(0.000249361 8.75402e-06 -4.74342e-05)
(0.00028607 3.18447e-05 -5.71604e-05)
(0.000304134 5.80842e-05 -5.90232e-05)
(0.000312459 8.03261e-05 -5.62431e-05)
(0.000312557 9.53778e-05 -5.08691e-05)
(0.000302858 0.000102697 -4.40339e-05)
(0.000281563 0.000102053 -3.66522e-05)
(0.000247882 9.345e-05 -2.91928e-05)
(0.000202349 7.74957e-05 -2.17433e-05)
(0.000144452 5.46229e-05 -1.42029e-05)
(7.2705e-05 2.59084e-05 -6.56882e-06)
(5.87345e-05 -1.68446e-05 -3.00601e-06)
(6.63627e-05 -1.22639e-05 -4.43985e-06)
(0.000143449 -2.32674e-05 -1.08135e-05)
(0.000251363 -1.9601e-05 -4.1805e-05)
(0.000330574 3.26648e-06 -6.68776e-05)
(0.000380201 3.62555e-05 -7.91708e-05)
(0.000410503 7.08395e-05 -8.15404e-05)
(0.000428473 9.89622e-05 -7.79605e-05)
(0.000434265 0.000118693 -7.09536e-05)
(0.000424496 0.000129264 -6.17071e-05)
(0.000396649 0.000128667 -5.14342e-05)
(0.000349577 0.000116803 -4.0751e-05)
(0.000286072 9.66941e-05 -3.04052e-05)
(0.000205453 6.79788e-05 -2.00369e-05)
(0.000103163 3.14826e-05 -9.16658e-06)
(1.22843e-06 -1.03733e-07 6.62962e-08)
(5.85792e-06 -2.8953e-07 -8.01857e-08)
(1.23076e-05 -4.48015e-07 -1.02561e-06)
(1.82327e-05 -2.85491e-07 -2.29686e-06)
(2.14861e-05 4.70794e-07 -3.11063e-06)
(2.27652e-05 1.67732e-06 -3.39382e-06)
(2.29734e-05 2.91284e-06 -3.31948e-06)
(2.24729e-05 3.85696e-06 -3.03294e-06)
(2.13289e-05 4.39422e-06 -2.62805e-06)
(1.94459e-05 4.4907e-06 -2.17752e-06)
(1.67523e-05 4.19735e-06 -1.71105e-06)
(1.33529e-05 3.59633e-06 -1.24894e-06)
(9.44188e-06 2.65707e-06 -8.14303e-07)
(4.6983e-06 1.26224e-06 -3.69714e-07)
(4.21003e-06 -1.39929e-06 -5.46132e-07)
(2.0964e-05 -2.08794e-06 8.32085e-07)
(6.3752e-05 -4.10531e-06 -1.89367e-06)
(0.00012021 -6.08862e-06 -1.15996e-05)
(0.000167934 -4.31448e-06 -2.24537e-05)
(0.000194665 3.32337e-06 -2.89255e-05)
(0.000205337 1.44978e-05 -3.08722e-05)
(0.000206828 2.54683e-05 -2.98832e-05)
(0.000202157 3.3832e-05 -2.71843e-05)
(0.000191338 3.8739e-05 -2.3496e-05)
(0.000174284 3.974e-05 -1.94613e-05)
(0.00015087 3.73155e-05 -1.53782e-05)
(0.000121899 3.21472e-05 -1.14443e-05)
(8.68248e-05 2.35881e-05 -7.5406e-06)
(4.27056e-05 1.0994e-05 -3.34988e-06)
(2.42143e-05 -8.71693e-06 -3.3764e-06)
(6.92797e-05 -6.51244e-06 1.36299e-06)
(0.000156028 -1.60325e-05 -9.10202e-06)
(0.000253709 -2.12477e-05 -3.04934e-05)
(0.000323847 -1.44261e-05 -4.7342e-05)
(0.000363657 2.44922e-06 -5.64915e-05)
(0.000380941 2.38238e-05 -5.83724e-05)
(0.000383602 4.37936e-05 -5.57392e-05)
(0.000375189 5.91416e-05 -5.04759e-05)
(0.000355342 6.87744e-05 -4.36569e-05)
(0.000324149 7.10061e-05 -3.61972e-05)
(0.000281841 6.63904e-05 -2.86945e-05)
(0.000227619 5.64924e-05 -2.12414e-05)
(0.000161529 4.05111e-05 -1.38213e-05)
(8.02854e-05 1.89273e-05 -6.25019e-06)
(4.7841e-05 -1.14785e-05 -3.60687e-06)
(8.73163e-05 -1.23408e-05 -1.12955e-06)
(0.000207977 -3.01335e-05 -1.57885e-05)
(0.000342528 -3.63619e-05 -4.53644e-05)
(0.000433964 -2.44469e-05 -6.74115e-05)
(0.000487343 -6.97985e-07 -7.81436e-05)
(0.000516534 2.72252e-05 -8.03502e-05)
(0.000525662 5.32456e-05 -7.68548e-05)
(0.000518767 7.37984e-05 -6.99677e-05)
(0.000494646 8.72218e-05 -6.08498e-05)
(0.000453729 9.05667e-05 -5.06367e-05)
(0.000394344 8.41659e-05 -3.98706e-05)
(0.000319879 7.13258e-05 -2.96297e-05)
(0.000227857 5.07226e-05 -1.93438e-05)
(0.000113409 2.3483e-05 -8.77631e-06)
(1.2566e-06 -2.47148e-07 -7.09042e-08)
(3.13577e-06 -4.73256e-07 -8.12806e-08)
(8.10515e-06 -8.8075e-07 -3.45605e-07)
(1.4747e-05 -1.27966e-06 -1.09186e-06)
(2.05419e-05 -1.35158e-06 -1.96361e-06)
(2.4148e-05 -8.87423e-07 -2.53279e-06)
(2.57867e-05 -4.36296e-09 -2.72765e-06)
(2.60123e-05 9.78796e-07 -2.64919e-06)
(2.53189e-05 1.83928e-06 -2.41545e-06)
(2.38477e-05 2.45424e-06 -2.09495e-06)
(2.14871e-05 2.72348e-06 -1.72312e-06)
(1.82449e-05 2.70746e-06 -1.33574e-06)
(1.45236e-05 2.44695e-06 -9.79789e-07)
(1.02625e-05 1.87259e-06 -6.36765e-07)
(5.01397e-06 9.02186e-07 -2.80315e-07)
(1.96019e-05 -3.9908e-06 -1.30278e-06)
(3.95988e-05 -6.26443e-06 -1.2196e-06)
(8.39308e-05 -9.80629e-06 -4.22657e-06)
(0.000139566 -1.30818e-05 -1.13233e-05)
(0.000187601 -1.30641e-05 -1.8761e-05)
(0.000217738 -8.26067e-06 -2.32892e-05)
(0.000231344 -4.09097e-08 -2.46378e-05)
(0.000232944 8.81508e-06 -2.37369e-05)
(0.000226221 1.64173e-05 -2.15074e-05)
(0.000212407 2.18237e-05 -1.85532e-05)
(0.000191418 2.43192e-05 -1.52634e-05)
(0.000164439 2.42392e-05 -1.20219e-05)
(0.000132182 2.19479e-05 -8.91076e-06)
(9.35028e-05 1.66562e-05 -5.80917e-06)
(4.56898e-05 7.91426e-06 -2.54947e-06)
(6.13178e-05 -1.25753e-05 -5.367e-06)
(0.000108664 -1.83206e-05 -4.61858e-06)
(0.000192355 -2.58233e-05 -1.29611e-05)
(0.000285801 -3.08743e-05 -2.7021e-05)
(0.000361641 -2.80046e-05 -3.91366e-05)
(0.00040915 -1.6995e-05 -4.56168e-05)
(0.000431019 -8.99068e-07 -4.68464e-05)
(0.000432741 1.5581e-05 -4.44317e-05)
(0.000419524 2.94011e-05 -3.9937e-05)
(0.000393391 3.93892e-05 -3.43054e-05)
(0.000355491 4.41704e-05 -2.82765e-05)
(0.000307342 4.39851e-05 -2.24469e-05)
(0.000248226 3.95262e-05 -1.66902e-05)
(0.000176069 2.94018e-05 -1.08291e-05)
(8.66469e-05 1.36967e-05 -4.76742e-06)
(8.99706e-05 -1.90649e-05 -9.77849e-06)
(0.000157576 -2.97692e-05 -9.12142e-06)
(0.000275481 -4.10349e-05 -2.20331e-05)
(0.000399727 -4.6242e-05 -4.16528e-05)
(0.000493975 -4.03363e-05 -5.63177e-05)
(0.000555361 -2.46263e-05 -6.36643e-05)
(0.000587762 -2.9455e-06 -6.47623e-05)
(0.000595139 1.89593e-05 -6.14527e-05)
(0.000581371 3.70071e-05 -5.5332e-05)
(0.000548706 5.05969e-05 -4.77776e-05)
(0.000499432 5.70215e-05 -3.96797e-05)
(0.000432535 5.68377e-05 -3.13816e-05)
(0.000349978 5.09349e-05 -2.32831e-05)
(0.000248483 3.73605e-05 -1.50963e-05)
(0.000123213 1.71303e-05 -6.73853e-06)
(4.73251e-06 -8.73148e-07 -1.50099e-07)
(6.63354e-06 -1.05455e-06 -1.88232e-07)
(1.07267e-05 -1.39352e-06 -3.64818e-07)
(1.60041e-05 -1.76645e-06 -7.29554e-07)
(2.12023e-05 -1.87794e-06 -1.13345e-06)
(2.4945e-05 -1.54852e-06 -1.38662e-06)
(2.71425e-05 -8.93857e-07 -1.46746e-06)
(2.74623e-05 -9.27624e-08 -1.39912e-06)
(2.6581e-05 6.56388e-07 -1.25625e-06)
(2.49641e-05 1.24397e-06 -1.08569e-06)
(2.24977e-05 1.61627e-06 -8.90072e-07)
(1.91323e-05 1.78593e-06 -6.85215e-07)
(1.51607e-05 1.73434e-06 -4.9568e-07)
(1.07621e-05 1.38569e-06 -3.22425e-07)
(5.27408e-06 6.83088e-07 -1.39592e-07)
(4.75634e-05 -8.44489e-06 -1.64321e-06)
(6.71564e-05 -1.07089e-05 -2.10203e-06)
(0.000103775 -1.37639e-05 -3.91314e-06)
(0.000150872 -1.67798e-05 -7.33622e-06)
(0.000194925 -1.72454e-05 -1.06896e-05)
(0.000227218 -1.40763e-05 -1.27913e-05)
(0.000243025 -7.75642e-06 -1.32636e-05)
(0.000245317 -4.35475e-07 -1.25761e-05)
(0.000237948 6.17107e-06 -1.12515e-05)
(0.000222791 1.13256e-05 -9.61462e-06)
(0.000200613 1.45788e-05 -7.83994e-06)
(0.000172245 1.5989e-05 -6.09659e-06)
(0.000137833 1.5595e-05 -4.49256e-06)
(9.77063e-05 1.23687e-05 -2.94034e-06)
(4.75628e-05 6.00307e-06 -1.2585e-06)
(0.000114471 -1.90281e-05 -4.84491e-06)
(0.000154671 -2.51426e-05 -6.14301e-06)
(0.000220749 -3.04848e-05 -1.02196e-05)
(0.000301306 -3.44206e-05 -1.65837e-05)
(0.000374189 -3.35705e-05 -2.20593e-05)
(0.000425216 -2.62652e-05 -2.49694e-05)
(0.000450992 -1.37801e-05 -2.52811e-05)
(0.000454613 -4.84255e-08 -2.36244e-05)
(0.000440957 1.18494e-05 -2.09291e-05)
(0.00041277 2.10573e-05 -1.76897e-05)
(0.000372512 2.68991e-05 -1.43978e-05)
(0.000321855 2.96505e-05 -1.14326e-05)
(0.000259809 2.87849e-05 -8.56547e-06)
(0.000184055 2.23791e-05 -5.46566e-06)
(9.02959e-05 1.05561e-05 -2.3498e-06)
(0.000179674 -2.8572e-05 -9.83412e-06)
(0.00023753 -3.99006e-05 -1.17413e-05)
(0.000327046 -4.65451e-05 -1.77383e-05)
(0.000428072 -4.98052e-05 -2.57675e-05)
(0.000517864 -4.68721e-05 -3.20342e-05)
(0.000583763 -3.61189e-05 -3.50608e-05)
(0.000620562 -1.88533e-05 -3.50532e-05)
(0.000629171 -9.89872e-08 -3.26797e-05)
(0.000613741 1.56397e-05 -2.88665e-05)
(0.000578262 2.7604e-05 -2.44428e-05)
(0.000524605 3.54973e-05 -2.0083e-05)
(0.000454508 3.93341e-05 -1.60008e-05)
(0.00036751 3.81894e-05 -1.18811e-05)
(0.000261003 2.92461e-05 -7.58336e-06)
(0.000129216 1.35915e-05 -3.29356e-06)
(1.72183e-07 6.61654e-08 8.59688e-08)
(5.74833e-08 1.38529e-07 -9.14491e-08)
(3.28254e-06 1.1567e-06 1.18475e-06)
(5.6558e-05 -1.68584e-05 -3.11798e-06)
(5.8142e-05 -1.35733e-05 -8.67086e-06)
(2.26369e-07 4.38649e-08 7.75647e-08)
(1.73604e-07 7.2454e-10 -1.02849e-07)
(4.0803e-06 7.3377e-07 1.06482e-06)
(4.53915e-07 -2.86711e-08 4.67178e-08)
(1.08636e-06 -4.33971e-07 -1.63294e-07)
(7.25246e-06 -6.10524e-07 6.18184e-07)
(6.26429e-05 -1.47031e-05 -7.7957e-06)
(5.39164e-05 -1.05677e-05 -3.133e-06)
(6.37951e-05 -7.96623e-06 -1.7801e-06)
(5.66823e-07 -5.98379e-08 3.1306e-08)
(1.80467e-06 -5.74338e-07 -2.02794e-07)
(8.72509e-06 -1.0779e-06 3.67996e-07)
(5.48862e-07 -1.09763e-07 -3.41428e-08)
(1.59346e-06 -2.54757e-07 -3.17897e-08)
(8.33626e-06 -1.79867e-06 -5.8628e-07)
(1.71168e-05 -2.88449e-06 -3.96476e-07)
(2.46819e-05 -2.18085e-06 -2.22179e-06)
(3.57643e-05 6.66757e-06 1.97888e-06)
(5.21818e-05 -1.40701e-05 -3.86505e-06)
(5.42201e-05 -6.2119e-06 -5.67213e-06)
(6.12756e-05 -1.24475e-05 -5.42567e-06)
(0.000103299 -1.90057e-05 -4.81511e-06)
(1.76083e-07 -1.38179e-08 3.67991e-08)
(1.18497e-09 2.69155e-10 1.02406e-09)
(-6.51625e-09 -1.12576e-08 -3.28579e-09)
(1.08137e-07 2.05224e-08 4.73572e-08)
(-7.85527e-10 -1.50202e-08 -4.61707e-09)
(2.51183e-09 -1.49236e-10 7.51282e-10)
(3.8739e-05 4.21843e-06 2.02669e-06)
(5.48904e-05 -1.42529e-05 -3.55679e-06)
(5.85267e-05 -7.81571e-06 -4.86985e-06)
(2.24635e-05 -7.98815e-06 -3.0142e-06)
(4.86928e-05 -2.69283e-06 2.0092e-06)
(4.63692e-05 -1.08332e-05 -3.17167e-06)
(6.36692e-05 -6.21961e-06 -8.6192e-07)
(5.75795e-05 -1.6556e-05 -8.62616e-06)
(6.00014e-05 -1.36941e-05 -2.48961e-06)
(5.50543e-05 -1.137e-05 -5.65481e-06)
(0.00011579 -1.988e-05 -5.29816e-06)
(7.82627e-05 -1.02689e-05 -1.1506e-06)
(0.000156351 -2.32054e-05 -7.87022e-06)
(8.98439e-07 -1.64873e-07 -1.50585e-08)
(5.52363e-09 -6.37521e-10 3.91589e-10)
(2.62418e-08 -2.13588e-08 -8.81427e-09)
(1.23514e-09 3.60387e-10 -2.61113e-09)
(3.95128e-07 -7.36785e-08 1.14885e-08)
(3.01034e-07 -7.30858e-08 -3.44724e-08)
(2.83103e-08 -4.40641e-09 -8.12641e-10)
(6.96288e-05 -1.01273e-05 -1.43949e-06)
(7.05429e-05 -1.71365e-05 -8.31375e-06)
(0.000113804 -2.29304e-05 -5.839e-06)
(1.05414e-09 2.99222e-10 1.012e-09)
(-6.2184e-09 -1.0702e-08 -3.28597e-09)
(9.39622e-08 3.22326e-08 5.13199e-08)
(5.59305e-05 -1.68155e-05 -8.9226e-06)
(5.80504e-05 -1.87017e-05 -1.08756e-05)
(6.27773e-05 -2.24008e-05 -1.13759e-05)
(2.08341e-07 -2.63566e-08 3.23949e-08)
(4.91089e-09 -5.78278e-10 4.25842e-10)
(2.28706e-08 -2.15013e-08 -7.99627e-09)
(2.595e-09 -1.64499e-08 -4.88157e-09)
(3.32436e-07 -5.90472e-08 1.76369e-08)
(2.72697e-09 -2.39215e-10 6.9104e-10)
(6.25341e-05 -1.9175e-05 -1.00794e-05)
(6.78545e-05 -2.294e-05 -1.06617e-05)
(6.36581e-05 -1.21058e-05 -5.97368e-06)
(6.23284e-05 -1.46286e-05 -8.12025e-06)
(6.75949e-05 -1.7496e-05 -8.49289e-06)
(5.88029e-05 -1.18963e-05 -2.50913e-06)
(5.53017e-05 -8.63857e-06 -3.93145e-06)
(6.12987e-05 -1.12246e-05 -3.51698e-06)
(6.00444e-05 -9.34776e-06 -5.74555e-06)
(6.08264e-05 -1.03549e-05 -5.21532e-06)
(6.2538e-05 -9.35429e-06 -3.58571e-06)
(5.73887e-05 -8.22381e-06 -3.1908e-06)
(6.40205e-05 -1.03132e-05 -2.67732e-06)
(5.88252e-05 -9.95812e-06 -5.14773e-06)
(6.26259e-05 -1.22611e-05 -4.78527e-06)
(5.88615e-05 -1.0046e-05 -4.05524e-06)
(4.43274e-07 1.44776e-07 1.77485e-07)
(2.12549e-06 4.45105e-07 3.52957e-07)
(5.7598e-06 1.67627e-06 1.77362e-06)
(1.89546e-05 3.17645e-06 2.191e-06)
(5.75805e-07 3.70825e-07 -3.09014e-07)
(6.11682e-06 1.99489e-06 1.75221e-06)
(1.38285e-05 -3.83392e-07 -1.84163e-06)
(2.65129e-05 6.03897e-06 2.80052e-06)
(2.59287e-06 3.10249e-07 2.97768e-07)
(7.07027e-06 1.12115e-06 1.5977e-06)
(2.26149e-05 2.06653e-06 1.79471e-06)
(1.0275e-06 -4.75895e-08 9.40864e-08)
(3.98401e-06 -1.01397e-07 1.07366e-07)
(1.17291e-05 -6.90884e-07 9.16618e-07)
(3.29816e-05 -1.23466e-06 4.42206e-07)
(7.29523e-06 1.27058e-06 1.57121e-06)
(1.37794e-05 -1.97611e-06 -1.91312e-06)
(2.92676e-05 3.85175e-06 2.66856e-06)
(2.86484e-06 -1.08488e-06 -4.61532e-07)
(1.2151e-05 -1.05192e-06 8.96932e-07)
(1.55746e-05 -5.67884e-06 -2.32089e-06)
(3.86204e-05 -2.56391e-06 1.91024e-06)
(4.42914e-06 -2.41394e-07 2.9e-08)
(1.36559e-05 -1.31736e-06 5.69328e-07)
(3.61882e-05 -2.3162e-06 -1.36541e-07)
(2.3947e-06 -3.4358e-07 -3.79618e-08)
(5.967e-06 -6.37378e-07 -1.77067e-07)
(2.26974e-05 -3.40586e-06 -4.43948e-07)
(4.73971e-05 -5.34429e-06 -1.64407e-06)
(1.43982e-05 -1.81573e-06 5.19384e-07)
(1.83998e-05 -6.45004e-06 -2.60542e-06)
(4.31618e-05 -4.95737e-06 1.0578e-06)
(1.3889e-05 -3.04144e-06 -1.04774e-06)
(2.59585e-05 -4.43559e-06 -6.59294e-07)
(3.89416e-05 -8.91345e-06 -3.65609e-06)
(6.46594e-05 -1.14182e-05 -2.07705e-06)
(2.35705e-06 -3.89308e-07 -6.90446e-08)
(1.28143e-05 -2.59665e-06 -8.03298e-07)
(2.2119e-05 -3.77444e-06 -7.08426e-07)
(3.93407e-06 -7.36452e-07 -1.51516e-07)
(5.08406e-06 -8.54207e-07 -1.66219e-07)
(2.9922e-05 -5.4911e-06 -1.22879e-06)
(3.96156e-05 -6.67733e-06 -1.37715e-06)
(8.91201e-09 4.23226e-09 6.70968e-09)
(6.86501e-07 2.46658e-07 3.04833e-07)
(2.00282e-07 8.07363e-08 1.01933e-07)
(-2.86428e-08 -7.28728e-09 -1.29464e-08)
(6.93607e-07 3.62488e-07 1.93615e-07)
(1.87113e-07 9.03637e-08 7.77736e-08)
(3.42716e-07 1.21828e-08 8.26505e-08)
(1.09093e-08 3.31076e-09 6.31025e-09)
(8.84138e-07 1.6213e-07 2.77804e-07)
(2.91474e-07 2.12572e-08 6.94173e-08)
(2.6521e-07 4.68646e-08 9.05147e-08)
(1.12325e-06 7.12957e-08 2.43865e-07)
(1.83896e-08 8.31538e-10 5.24446e-09)
(3.46351e-07 -2.49936e-08 5.669e-08)
(-2.40935e-08 -1.21618e-08 -1.31163e-08)
(8.94738e-07 1.61001e-07 1.5905e-07)
(3.59528e-07 -1.50457e-07 -1.18565e-07)
(2.59817e-07 3.43959e-08 6.60017e-08)
(1.97663e-09 -3.21883e-08 -1.59579e-08)
(1.20106e-06 -5.03497e-08 1.17929e-07)
(4.44326e-07 -2.41537e-08 6.77208e-08)
(3.64452e-07 -3.44072e-09 5.78749e-08)
(3.36855e-08 -2.59765e-09 3.4413e-09)
(1.70323e-06 -1.23328e-07 1.61717e-07)
(1.38253e-06 -2.38716e-08 1.98606e-07)
(5.72381e-07 -6.11671e-08 5.01646e-08)
(2.12089e-08 -1.62594e-10 4.62345e-09)
(4.89977e-07 -8.3956e-08 3.97794e-08)
(6.8843e-07 -2.95235e-07 -1.37391e-07)
(9.24128e-08 -5.99747e-08 -2.27696e-08)
(2.19444e-06 -4.60039e-07 2.42376e-08)
(2.13572e-08 -3.93135e-08 -1.69998e-08)
(1.65425e-06 -2.56251e-07 7.06921e-08)
(6.82556e-07 -1.42923e-07 1.85646e-08)
(1.09917e-06 -1.78809e-07 5.39397e-09)
(3.91962e-08 -4.00021e-09 2.7237e-09)
(2.09233e-06 -2.31778e-07 1.05982e-07)
(7.25054e-07 -9.83724e-08 1.40097e-08)
(7.54046e-07 -1.06059e-07 2.89837e-08)
(2.65312e-06 -3.62559e-07 4.44754e-08)
(8.80066e-08 -1.41263e-08 -1.21954e-09)
(1.5599e-06 -3.2593e-07 -4.37903e-08)
(1.32544e-07 -6.48782e-08 -2.57665e-08)
(3.06064e-06 -6.77728e-07 -5.59753e-08)
(2.96377e-06 -7.91536e-07 -2.7494e-07)
(9.84906e-07 -2.10031e-07 -8.02914e-09)
(5.4816e-07 -1.34608e-07 -5.70434e-08)
(4.3548e-06 -9.4825e-07 -1.54923e-07)
(1.34507e-06 -2.48197e-07 -3.41989e-08)
(1.78729e-08 -3.24427e-09 -4.50857e-09)
(7.14072e-07 -1.32938e-07 -2.87948e-08)
(1.92343e-06 -3.92877e-07 -1.21434e-07)
(4.70125e-07 -1.05018e-07 -4.34647e-08)
(2.52566e-06 -4.81786e-07 -1.05271e-07)
(7.81519e-08 -1.28303e-08 -2.80342e-09)
(1.60891e-09 -5.1284e-09 5.71427e-11)
(1.98077e-08 4.48146e-09 1.30172e-08)
(1.70231e-09 8.1156e-11 9.20319e-10)
(2.3579e-09 -5.53925e-09 6.75242e-11)
(2.66662e-08 1.67712e-09 1.16242e-08)
(1.90283e-09 -5.68748e-09 5.28785e-11)
(1.37488e-08 -5.35091e-09 5.77925e-09)
(-5.74895e-09 -1.03107e-08 -4.1146e-09)
(2.83655e-09 -6.33768e-09 3.92142e-11)
(2.24852e-08 -1.11904e-08 4.46382e-09)
(1.76269e-09 -5.56748e-09 -2.149e-11)
(3.91515e-08 -2.03909e-08 1.70914e-09)
(-4.92458e-09 -1.00671e-08 -4.00216e-09)
(2.59919e-08 -1.30372e-08 4.00155e-09)
(2.09704e-09 -5.73101e-09 -5.27289e-10)
(1.50318e-09 -5.05629e-09 -1.54232e-12)
(3.77099e-08 -1.77687e-09 9.93521e-09)
(1.92347e-09 -1.81896e-11 8.64437e-10)
(2.92078e-08 3.28254e-10 1.09394e-08)
(1.68915e-09 -5.16341e-09 -4.79076e-10)
(6.51804e-05 -2.2592e-05 -8.22094e-06)
(6.67233e-05 -2.28124e-05 -9.88868e-06)
(6.55413e-05 -2.72081e-05 -1.04998e-05)
(6.63877e-05 -1.53755e-05 -7.19957e-06)
(6.46265e-05 -2.10216e-05 -6.99369e-06)
(5.70352e-05 -1.67803e-05 -2.85465e-06)
(6.03484e-05 -2.11798e-05 -7.20485e-06)
(6.14395e-05 -1.63709e-05 -2.60642e-06)
(6.42606e-05 -2.3258e-05 -8.26564e-06)
(6.08906e-05 -2.95175e-05 -1.10457e-05)
(6.01935e-05 -2.40092e-05 -8.53119e-06)
(6.35105e-05 -2.89635e-05 -1.07998e-05)
(6.57709e-05 -2.06568e-05 -6.81355e-06)
(6.68548e-05 -1.32828e-05 -2.44045e-06)
(6.27467e-05 -1.61737e-05 -2.5733e-06)
(6.72509e-05 -1.53835e-05 -6.17028e-06)
(9.58171e-10 -4.18531e-09 -4.55773e-09)
(7.58794e-08 -1.00793e-08 4.49065e-09)
(6.83156e-09 -1.1336e-09 5.18107e-12)
(1.40249e-09 -5.03746e-09 -2.09796e-09)
(9.98783e-08 -1.58026e-08 3.4048e-10)
(1.30912e-09 -4.58639e-09 -5.1752e-09)
(1.12335e-07 -3.85263e-08 -6.15831e-09)
(5.00389e-08 -2.22398e-08 -1.33027e-08)
(1.82306e-09 -5.64575e-09 -2.41111e-09)
(1.731e-07 -4.64211e-08 -1.15909e-08)
(6.64283e-09 -2.63509e-09 -7.23348e-09)
(7.67849e-10 2.4554e-10 -2.2563e-09)
(1.14746e-08 -3.45983e-09 -7.6424e-09)
(1.217e-09 -4.25847e-09 -5.74191e-09)
(5.35087e-07 -1.0331e-07 -2.94548e-08)
(6.84991e-08 -2.41787e-08 -1.56191e-08)
(1.19544e-08 -3.44626e-09 -8.33931e-09)
(2.07273e-07 -5.21698e-08 -1.42941e-08)
(4.11044e-08 -9.03403e-09 -1.03386e-08)
(8.76071e-10 -3.90555e-09 -5.07703e-09)
(2.68624e-07 -3.7369e-08 -3.69399e-09)
(7.48189e-09 -1.39821e-09 -2.10383e-10)
(7.83038e-10 1.30252e-10 -1.96833e-09)
(1.1518e-07 -1.88562e-08 -1.19482e-09)
(3.01042e-08 -6.33239e-09 -8.21794e-09)
(2.49297e-09 -5.63207e-09 8.69306e-11)
(1.79808e-08 5.42796e-09 1.32394e-08)
(6.26781e-10 5.57375e-10 1.13537e-09)
(2.39292e-09 -5.55894e-09 6.48772e-11)
(1.27254e-08 9.2914e-09 1.52829e-08)
(2.97222e-09 -6.44154e-09 8.43429e-11)
(-5.71349e-09 -9.82908e-09 -3.8217e-09)
(1.28083e-08 -3.01558e-09 6.47561e-09)
(2.87447e-09 -6.36787e-09 3.96414e-11)
(9.09226e-09 2.38636e-09 7.78094e-09)
(2.97987e-09 -6.45535e-09 8.48977e-11)
(9.14555e-09 4.00804e-09 7.2182e-09)
(2.50115e-09 -5.64514e-09 8.741e-11)
(1.26319e-08 1.11427e-08 1.65384e-08)
(5.30391e-05 -2.3023e-05 -8.87835e-06)
(5.44789e-05 -2.04457e-05 -7.35771e-06)
(5.55972e-05 -1.65098e-05 -2.90414e-06)
(5.90177e-05 -2.11055e-05 -7.18752e-06)
(5.08875e-05 -1.55556e-05 -3.04914e-06)
(5.30856e-05 -1.98902e-05 -7.37883e-06)
(4.94894e-05 -1.49511e-05 -3.08622e-06)
(5.43447e-05 -2.32282e-05 -8.78408e-06)
(5.79139e-05 -2.91459e-05 -1.1183e-05)
(5.88662e-05 -2.37934e-05 -8.52319e-06)
(5.50488e-05 -2.86462e-05 -1.13487e-05)
(5.99962e-05 -2.41122e-05 -1.26966e-05)
(6.31521e-05 -2.91767e-05 -1.31731e-05)
(5.98219e-05 -2.83434e-05 -1.33683e-05)
(6.38396e-05 -2.62322e-05 -1.25285e-05)
(1.91622e-09 -5.353e-09 -9.01067e-10)
(6.95787e-08 -8.77025e-09 5.2558e-09)
(3.81873e-09 -4.11776e-10 5.5767e-10)
(1.457e-09 -5.08677e-09 -1.87587e-09)
(5.57708e-08 -6.7705e-09 7.08035e-09)
(2.41329e-09 -6.09635e-09 -1.0183e-09)
(1.50749e-08 -2.06417e-08 -6.19987e-09)
(1.0054e-07 -3.61995e-08 -4.91668e-09)
(1.88954e-09 -5.70633e-09 -2.15389e-09)
(7.44821e-08 -3.11598e-08 -1.59137e-09)
(2.45326e-09 -6.13784e-09 -9.29798e-10)
(4.56824e-08 -2.24009e-08 1.28632e-09)
(1.24093e-08 -1.95346e-08 -5.81798e-09)
(2.20852e-09 -5.8456e-09 -5.69143e-10)
(6.67541e-08 -2.8368e-08 -7.17385e-10)
(1.94585e-09 -5.37874e-09 -8.26305e-10)
(4.10558e-08 -3.20189e-09 9.13937e-09)
(3.43884e-09 -3.83864e-10 5.7261e-10)
(1.7695e-09 -5.23059e-09 -5.18859e-10)
(5.07273e-08 -5.73454e-09 7.44406e-09)
(6.79963e-05 -2.13722e-05 -1.06987e-05)
(6.62259e-05 -1.86055e-05 -1.00037e-05)
(6.96057e-05 -2.54843e-05 -1.19838e-05)
(6.42548e-05 -1.70223e-05 -8.46874e-06)
(6.80474e-05 -2.55201e-05 -1.15933e-05)
(6.62009e-05 -2.96714e-05 -1.30177e-05)
(6.8781e-05 -2.90063e-05 -1.26719e-05)
(6.65073e-05 -2.68815e-05 -1.23591e-05)
(6.45838e-05 -1.09486e-05 -6.22237e-06)
(6.73069e-05 -1.30707e-05 -8.69273e-06)
(7.11443e-05 -1.23405e-05 -7.83112e-06)
(6.23988e-05 -1.09286e-05 -6.54956e-06)
(6.51391e-05 -1.15305e-05 -4.8275e-06)
(6.87576e-05 -1.08882e-05 -2.4666e-06)
(6.81806e-05 -1.3281e-05 -6.0596e-06)
(6.57307e-05 -1.07257e-05 -2.89898e-06)
(5.78416e-05 -1.04943e-05 -4.13954e-06)
(6.24455e-05 -1.2474e-05 -7.78239e-06)
(6.16297e-05 -1.22652e-05 -6.82039e-06)
(5.99569e-05 -1.07319e-05 -5.97965e-06)
(2.01164e-06 -3.47905e-07 -3.31049e-08)
(1.04724e-06 -1.5729e-07 -4.86378e-09)
(1.04756e-06 -1.83238e-07 -2.92339e-08)
(5.34566e-06 -8.65114e-07 -1.09499e-07)
(3.68135e-06 -5.59834e-07 -2.28134e-08)
(3.61286e-06 -6.40764e-07 -1.05368e-07)
(5.01425e-07 -8.3978e-08 -7.79948e-09)
(2.96478e-06 -5.96282e-07 -1.1503e-07)
(5.00607e-06 -1.16908e-06 -3.97762e-07)
(4.34659e-06 -9.13192e-07 -2.87063e-07)
(1.00837e-05 -2.03743e-06 -4.80284e-07)
(1.9874e-06 -4.44632e-07 -1.44652e-07)
(6.58658e-06 -1.37489e-06 -2.95166e-07)
(5.45097e-06 -1.07009e-06 -2.45336e-07)
(3.23735e-09 -7.39014e-09 1.93433e-10)
(1.53569e-07 -3.24509e-09 4.00854e-08)
(6.08217e-08 -1.38619e-08 8.72535e-09)
(5.62307e-08 -4.69001e-09 1.2215e-08)
(4.85454e-08 -1.83238e-09 1.33636e-08)
(5.12666e-08 -8.99298e-09 1.03533e-08)
(3.85887e-09 -7.80612e-09 -4.4212e-10)
(3.48768e-09 -7.5703e-09 3.91514e-10)
(1.33987e-07 8.90539e-09 4.2489e-08)
(3.55377e-08 4.499e-09 1.57759e-08)
(3.57779e-08 2.65782e-10 1.28915e-08)
(4.33185e-09 -8.1542e-09 4.18333e-10)
(4.21708e-08 1.36337e-09 1.42109e-08)
(4.39079e-08 -4.05288e-09 1.13919e-08)
(5.73382e-09 -6.82643e-09 -8.38355e-09)
(6.18373e-07 -1.17157e-07 -5.33023e-09)
(4.64543e-07 -9.13727e-08 -2.02959e-08)
(3.39295e-07 -5.80779e-08 -8.74902e-09)
(1.99263e-07 -3.56692e-08 -4.73389e-09)
(2.71662e-07 -5.82287e-08 -1.22693e-08)
(8.04986e-08 -1.58426e-08 -1.0936e-08)
(3.10904e-09 -4.47615e-10 -4.84892e-09)
(1.06754e-09 3.56172e-10 -2.5295e-09)
(2.56817e-09 -3.54429e-10 -4.71869e-09)
(5.14131e-09 -7.49474e-09 -6.71387e-09)
(4.82884e-07 -8.94743e-08 3.29769e-09)
(1.20689e-07 -2.15268e-08 2.90407e-09)
(1.54202e-07 -3.84986e-08 -2.48221e-09)
(4.72711e-09 -8.39005e-09 -3.37058e-09)
(1.47134e-07 -2.65909e-08 -7.5091e-10)
(1.93746e-07 -4.46547e-08 -6.64874e-09)
(4.37731e-09 -8.08458e-09 5.70582e-10)
(8.18863e-08 4.24688e-08 5.26807e-08)
(3.05692e-08 7.51841e-09 1.66497e-08)
(3.08764e-08 5.20489e-09 1.41799e-08)
(4.39086e-09 -8.20704e-09 4.2712e-10)
(2.64698e-08 1.08436e-08 1.78183e-08)
(2.68479e-08 9.4824e-09 1.51343e-08)
(4.83189e-09 -8.63419e-09 -1.04084e-09)
(7.44566e-08 -1.91537e-08 7.07262e-09)
(2.45414e-07 -3.57279e-08 2.76051e-08)
(6.62667e-08 -8.43745e-09 1.06658e-08)
(4.21843e-09 -8.11472e-09 -5.78052e-10)
(7.674e-08 -1.12985e-08 9.12239e-09)
(8.92073e-08 -2.33182e-08 5.36297e-09)
(4.86391e-09 -8.67578e-09 -1.31102e-09)
(2.86869e-07 -4.81506e-08 2.24417e-08)
(1.01583e-07 -1.74613e-08 5.3408e-09)
(1.25634e-07 -3.27676e-08 6.50287e-10)
(4.7259e-09 -8.5124e-09 -2.66565e-09)
(8.8054e-08 -1.46531e-08 7.21394e-09)
(1.06735e-07 -2.85284e-08 3.11602e-09)
(5.86055e-08 -1.25149e-08 -1.00524e-08)
(2.15864e-08 -3.7445e-09 -4.08466e-09)
(7.92765e-08 -1.55883e-08 -9.28011e-09)
(3.41562e-07 -6.63727e-08 -2.08005e-08)
(9.29384e-08 -1.8601e-08 -8.17419e-09)
(2.89608e-07 -5.97425e-08 -2.34962e-08)
(1.05343e-07 -2.02466e-08 -7.20089e-09)
(6.11813e-07 -1.26195e-07 -3.9677e-08)
(1.56661e-07 -3.39565e-08 -1.90393e-08)
(2.20908e-07 -4.39425e-08 -1.83296e-08)
(6.80797e-07 -1.34013e-07 -4.044e-08)
(1.12062e-06 -2.41956e-07 -8.44903e-08)
(5.70332e-07 -1.19509e-07 -4.56586e-08)
(1.30574e-06 -2.67101e-07 -7.43913e-08)
(2.8686e-07 -4.81703e-08 -8.10715e-09)
(3.62174e-08 -6.21335e-09 -3.52732e-09)
(1.36599e-07 -2.44843e-08 -9.08532e-09)
(4.38967e-07 -8.06348e-08 -1.87456e-08)
(1.87556e-07 -3.36785e-08 -6.1007e-09)
(6.31953e-07 -1.11584e-07 -1.78613e-08)
(1.33704e-07 -2.46458e-08 -6.63209e-09)
(6.18142e-10 -2.99297e-09 1.45494e-10)
(2.02098e-09 -5.36591e-09 1.15012e-10)
(2.73382e-09 -5.95759e-09 5.09202e-10)
(2.9607e-09 -6.09757e-09 5.87069e-10)
(4.57543e-10 -2.93887e-09 8.42816e-11)
(4.00643e-10 -2.72846e-09 1.09829e-10)
(-2.46798e-10 -4.5465e-10 2.69886e-11)
(5.21344e-10 -2.76676e-09 9.50988e-11)
(-2.78697e-10 -4.42284e-10 3.15671e-11)
(6.68578e-10 -3.0095e-09 1.50561e-10)
(2.13037e-09 -5.42755e-09 1.02224e-10)
(3.24256e-09 -6.28059e-09 6.01126e-10)
(3.13946e-09 -6.21561e-09 5.96781e-10)
(8.00507e-10 -3.03867e-09 1.33555e-10)
(3.55364e-10 -2.70914e-09 1.04369e-10)
(-3.19557e-10 -4.14821e-10 1.67341e-11)
(2.04853e-10 -2.64511e-09 4.88724e-11)
(-2.9087e-10 -4.36783e-10 3.05087e-11)
(4.29768e-09 -8.20595e-09 -9.86953e-11)
(2.47605e-09 -6.06744e-09 1.00784e-10)
(3.74575e-09 -6.76941e-09 4.89664e-10)
(4.14403e-09 -6.94384e-09 5.51526e-10)
(3.15106e-09 -7.49796e-09 -1.00794e-10)
(4.82226e-09 -8.75953e-09 -3.11565e-10)
(6.51505e-09 -1.02649e-08 9.60526e-11)
(4.89698e-09 -9.02195e-09 -5.30311e-11)
(5.58583e-09 -1.0432e-08 -1.9857e-10)
(4.36019e-09 -8.2666e-09 -7.88769e-11)
(2.60572e-09 -6.16243e-09 7.42784e-11)
(4.24744e-09 -7.13492e-09 5.26436e-10)
(4.28006e-09 -7.06721e-09 5.11297e-10)
(4.41952e-09 -8.44986e-09 2.28012e-11)
(4.86e-09 -8.62093e-09 -4.11984e-10)
(2.81506e-09 2.10103e-10 -1.21143e-09)
(3.56337e-09 -7.17824e-09 -3.26536e-10)
(5.4754e-09 -9.24517e-09 -7.47203e-10)
(2.98509e-09 -7.39137e-09 -2.72712e-10)
(3.57844e-09 -6.61178e-09 2.98029e-10)
(1.68749e-09 -5.41461e-09 -2.79055e-10)
(3.7784e-09 -6.57819e-09 1.07904e-10)
(2.993e-09 -7.40091e-09 -1.62575e-10)
(3.31279e-09 -7.1239e-09 -2.51081e-10)
(3.84107e-09 -8.61423e-09 -1.27469e-10)
(2.05327e-09 -3.90581e-09 2.17981e-10)
(4.03848e-09 -7.94865e-09 -3.89679e-10)
(3.25784e-09 -6.97443e-09 -2.02159e-10)
(2.17019e-09 1.62963e-09 -3.27463e-10)
(3.38606e-09 -7.04398e-09 -3.02999e-10)
(1.74356e-09 -1.88572e-09 -1.9947e-11)
(3.12439e-09 -7.43295e-09 -3.51512e-10)
(1.75273e-09 -5.44049e-09 -3.57844e-10)
(4.73238e-09 -7.10716e-09 -2.5143e-10)
(4.13099e-09 -6.7478e-09 -9.66782e-11)
(3.94523e-09 -7.90711e-09 -5.31383e-10)
(3.65287e-10 -2.89106e-09 -8.2273e-11)
(2.60688e-09 -5.88445e-09 3.47654e-10)
(1.41447e-09 -4.9713e-09 -2.3286e-10)
(2.64242e-09 -5.91055e-09 1.4074e-10)
(4.15583e-10 -2.92213e-09 4.52197e-11)
(9.53049e-11 -2.59093e-09 -1.47038e-10)
(-3.3061e-10 -3.90692e-10 -4.3016e-11)
(1.35952e-10 -2.61393e-09 -2.3836e-10)
(-3.44759e-10 -3.90491e-10 -2.49508e-11)
(3.75723e-10 -2.88838e-09 -1.26312e-10)
(1.45318e-09 -4.98356e-09 -3.07045e-10)
(3.05373e-09 -6.17104e-09 -1.95199e-10)
(2.802e-09 -6.01712e-09 -4.8775e-11)
(4.48948e-10 -2.91358e-09 -2.32156e-10)
(9.2741e-11 -2.59573e-09 -1.06969e-10)
(-3.30392e-10 -4.07259e-10 7.86904e-12)
(1.56282e-10 -2.62378e-09 1.11939e-11)
(-3.47711e-10 -3.94028e-10 -1.70339e-11)
(2.30557e-10 -2.73941e-09 -1.57284e-09)
(1.18193e-09 -4.72642e-09 -3.26322e-09)
(4.48063e-09 -6.19379e-09 -5.16778e-09)
(4.26422e-09 -6.48448e-09 -4.02529e-09)
(1.08592e-10 -2.53584e-09 -2.31359e-09)
(-2.19954e-10 -2.52154e-09 -1.22576e-09)
(-3.58558e-10 -3.53864e-10 -1.23126e-10)
(-3.31538e-11 -2.5704e-09 -8.94157e-10)
(-4.08087e-10 -3.32123e-10 -1.63308e-10)
(2.58763e-10 -2.77376e-09 -1.40249e-09)
(1.2532e-09 -4.82726e-09 -2.92101e-09)
(3.99067e-09 -6.6819e-09 -2.45785e-09)
(4.11808e-09 -6.62477e-09 -3.15357e-09)
(3.92607e-10 -2.83428e-09 -1.00844e-09)
(-2.94137e-10 -2.49469e-09 -1.37725e-09)
(-5.20966e-10 -2.87049e-10 -2.62018e-10)
(-4.8759e-10 -2.32719e-09 -2.02909e-09)
(-4.32362e-10 -3.23665e-10 -1.82611e-10)
(6.1688e-09 -7.69533e-09 -4.95434e-09)
(1.5597e-09 -5.24721e-09 -3.74041e-09)
(1.07022e-08 -7.32476e-09 -5.79959e-09)
(9.56588e-09 -7.58544e-09 -4.64202e-09)
(6.72051e-09 -6.87786e-09 -6.77817e-09)
(5.01451e-09 -7.70839e-09 -4.68666e-09)
(4.80809e-09 -7.36662e-09 -3.55086e-09)
(4.91241e-09 -8.07656e-09 -3.44913e-09)
(4.14846e-09 -4.55087e-09 -4.70646e-09)
(5.96126e-09 -7.81731e-09 -4.48023e-09)
(1.64104e-09 -5.37682e-09 -3.35411e-09)
(8.02792e-09 -7.8689e-09 -2.97455e-09)
(8.66626e-09 -7.73497e-09 -3.72309e-09)
(5.52935e-09 -8.11204e-09 -3.2695e-09)
(5.10361e-09 -7.55907e-09 -5.19142e-09)
(2.53712e-09 -9.90644e-10 -7.09131e-09)
(5.25524e-09 -6.46795e-09 -7.04204e-09)