/*--------------------------------*- C++ -*----------------------------------*\
| =========                 |                                                 |
| \\      /  F ield         | OpenFOAM: The Open Source CFD Toolbox           |
|  \\    /   O peration     | Version:  2012                                  |
|   \\  /    A nd           | Website:  www.openfoam.com                      |
|    \\/     M anipulation  |                                                 |
\*---------------------------------------------------------------------------*/
FoamFile
{
    version     2.0;
    format      ascii;
    class       surfaceScalarField;
    location    "0.105/fluid";
    object      meshPhi;
}
// * * * * * * * * * * * * * * * * * * * * * * * * * * * * * * * * * * * * * //

dimensions      [0 3 -1 0 0 0 0];
oriented        oriented;


internalField   nonuniform List<scalar> 
47129
(
1.42627e-07
-2.19361e-08
5.01669e-08
2.14453e-08
-2.22433e-07
4.28971e-07
-6.46912e-08
1.23328e-07
6.34988e-08
-4.74026e-07
-7.68676e-08
5.26542e-07
-5.21093e-07
1.44376e-07
7.61873e-08
-6.11956e-08
4.68087e-07
-4.45167e-07
1.39188e-07
6.14446e-08
-3.93145e-08
3.73631e-07
-3.49488e-07
1.61436e-07
3.96257e-08
-2.02463e-08
2.79198e-07
-2.56636e-07
1.89043e-07
2.03274e-08
-6.25052e-09
1.92024e-07
-1.72232e-07
2.04446e-07
6.10652e-09
2.70855e-09
1.19249e-07
-1.03681e-07
2.10473e-07
-2.99489e-09
7.69995e-09
6.16955e-08
-4.90771e-08
2.0718e-07
-8.00811e-09
1.00157e-08
1.51905e-08
-5.47061e-09
1.88588e-07
-1.02827e-08
1.02596e-08
-1.75478e-08
2.28729e-08
1.60021e-07
-1.04878e-08
8.96433e-09
-3.40839e-08
3.57901e-08
1.24439e-07
-9.17753e-09
6.25548e-09
-3.0323e-08
2.60045e-08
9.39918e-08
-6.44143e-09
2.86695e-09
-1.16339e-08
7.29076e-09
5.46943e-08
-2.96219e-09
-2.88786e-07
-1.2415e-07
-3.1194e-06
1.21036e-07
6.53648e-07
-4.45882e-07
4.28042e-06
-5.38798e-07
5.24736e-07
-4.753e-06
7.37046e-07
-8.60276e-07
-6.0891e-07
5.72721e-06
8.43644e-07
-5.84462e-06
8.35778e-07
-8.28806e-07
-6.14081e-07
5.62586e-06
-5.41254e-06
7.93003e-07
8.21004e-07
-6.04276e-07
-5.86475e-07
4.61416e-06
-4.34212e-06
7.57278e-07
6.04483e-07
-3.67384e-07
-6.53855e-07
3.54031e-06
-3.28063e-06
8.26846e-07
3.68998e-07
-1.78535e-07
-7.35972e-07
2.56147e-06
-2.34195e-06
9.14704e-07
1.79181e-07
-4.80666e-08
-7.8858e-07
1.7321e-06
-1.54694e-06
9.72264e-07
4.67172e-08
3.36682e-08
-8.01408e-07
1.04507e-06
-8.9672e-07
9.80016e-07
-3.63355e-08
7.83281e-08
-7.75871e-07
5.01495e-07
-3.85591e-07
9.41686e-07
-8.13915e-08
9.75939e-08
-7.00161e-07
8.24999e-08
1.61996e-09
8.46373e-07
-1.00486e-07
9.73584e-08
-5.987e-07
-1.92679e-07
2.33111e-07
7.2623e-07
-9.97083e-08
8.15494e-08
-4.979e-07
-2.91819e-07
2.91722e-07
6.11955e-07
-8.30938e-08
5.60615e-08
-3.80922e-07
-2.3748e-07
2.06453e-07
4.68703e-07
-5.71863e-08
2.63698e-08
-2.09588e-07
-1.00319e-07
6.62844e-08
2.57113e-07
-2.6988e-08
-1.05854e-06
-3.14388e-06
-2.42071e-05
4.05087e-06
1.02815e-06
2.24072e-05
-3.11249e-06
-2.2371e-06
2.68376e-06
3.02093e-06
-2.14647e-05
-2.85868e-06
-1.76678e-06
1.8095e-05
-1.69291e-05
2.05751e-06
2.79821e-06
-2.04771e-06
-1.4687e-06
1.36355e-05
-1.26404e-05
1.68843e-06
2.02284e-06
-1.29133e-06
-1.3482e-06
9.99533e-06
-9.22316e-06
1.52896e-06
1.28533e-06
-7.14077e-07
-1.36406e-06
7.19795e-06
-6.611e-06
1.52779e-06
7.14408e-07
-3.16684e-07
-1.44043e-06
5.05397e-06
-4.59324e-06
1.59456e-06
3.16054e-07
-5.89528e-08
-1.47874e-06
3.34486e-06
-2.97186e-06
1.62049e-06
5.60151e-08
9.52616e-08
-1.45302e-06
1.96739e-06
-1.67223e-06
1.58358e-06
-9.99303e-08
1.74568e-07
-1.37556e-06
8.949e-07
-6.73306e-07
1.49958e-06
-1.80117e-07
2.02712e-07
-1.2377e-06
1.12243e-07
3.71275e-08
1.35969e-06
-2.08491e-07
1.93516e-07
-1.07955e-06
-3.49285e-07
4.08073e-07
1.19214e-06
-1.97898e-07
1.58958e-07
-9.21553e-07
-4.87161e-07
4.83019e-07
1.01202e-06
-1.6104e-07
1.10372e-07
-7.01361e-07
-3.96999e-07
3.49559e-07
7.65257e-07
-1.11608e-07
5.29918e-08
-3.84784e-07
-1.81648e-07
1.20193e-07
4.17233e-07
-5.38483e-08
-4.46233e-07
-1.39307e-06
-9.7488e-06
1.37368e-06
4.47458e-07
3.58818e-05
-6.59423e-06
-3.02917e-06
2.9362e-06
6.41872e-06
-3.37996e-05
2.72233e-05
-4.61836e-06
-2.5907e-06
2.6837e-06
4.51043e-06
-2.51841e-05
-2.95568e-06
-2.19013e-06
1.98457e-05
-1.83211e-05
2.30403e-06
2.91418e-06
-1.74768e-06
-1.96108e-06
1.43842e-05
-1.32579e-05
2.06578e-06
1.73653e-06
-9.07629e-07
-1.90574e-06
1.0333e-05
-9.48909e-06
1.98913e-06
9.07131e-07
-3.52517e-07
-1.93278e-06
7.25058e-06
-6.58884e-06
3.51929e-07
-5.76774e-09
-1.92647e-06
4.80417e-06
-4.27222e-06
2.26505e-09
1.94305e-07
-1.87498e-06
2.84266e-06
-2.42365e-06
-1.99891e-07
2.90034e-07
-1.80879e-06
1.3303e-06
-1.02336e-06
-2.9663e-07
3.13313e-07
-1.69592e-06
2.62999e-07
-6.60461e-08
-3.19918e-07
2.90288e-07
-1.48616e-06
-3.59067e-07
4.47707e-07
-2.9573e-07
2.39288e-07
-1.23215e-06
-5.95956e-07
6.04823e-07
-2.42781e-07
1.69127e-07
-9.04816e-07
-5.29795e-07
4.75654e-07
-1.70896e-07
8.30442e-08
-4.81047e-07
-2.56677e-07
1.73535e-07
-8.39306e-08
1.63676e-07
-1.85418e-08
4.43014e-08
1.77054e-08
-2.47229e-07
4.50652e-07
-5.49466e-08
9.30094e-08
5.13203e-08
-4.92213e-07
-6.73551e-08
5.36262e-07
-5.29735e-07
1.00008e-07
6.30247e-08
-5.59108e-08
4.71058e-07
-4.44415e-07
8.98453e-08
5.25792e-08
-3.63769e-08
3.5863e-07
-3.30095e-07
8.84724e-08
3.42299e-08
-1.8336e-08
2.49017e-07
-2.23962e-07
9.73274e-08
1.71001e-08
-4.90686e-09
1.55552e-07
-1.35223e-07
1.07459e-07
4.34248e-09
3.70139e-09
8.17464e-08
-6.6426e-08
1.16674e-07
-3.84602e-09
8.37947e-09
2.70589e-08
-1.5916e-08
1.22565e-07
-8.31286e-09
1.03792e-08
-1.26621e-08
2.03724e-08
1.16628e-07
-1.01806e-08
1.03858e-08
-3.69966e-08
4.04756e-08
1.02678e-07
-1.01135e-08
9.34352e-09
-5.03182e-08
5.25432e-08
7.1327e-08
-9.05391e-09
6.71507e-09
-4.42213e-08
3.73994e-08
5.30664e-08
-6.5232e-09
3.02633e-09
-1.68627e-08
1.09766e-08
3.82875e-08
-2.94952e-09
-2.68403e-07
-1.03514e-07
-3.28155e-06
9.75105e-08
5.93165e-07
-3.93204e-07
4.44476e-06
-4.32848e-07
3.95569e-07
-4.91277e-06
6.57688e-07
-7.1559e-07
-4.88807e-07
5.85467e-06
6.58256e-07
-5.95873e-06
6.99501e-07
-7.20576e-07
-4.55418e-07
5.70834e-06
-5.48954e-06
6.14492e-07
6.70182e-07
-5.46045e-07
-3.87706e-07
4.6314e-06
-4.32071e-06
5.11325e-07
5.12e-07
-3.37206e-07
-3.6743e-07
3.40195e-06
-3.11414e-06
4.74963e-07
3.17063e-07
-1.62102e-07
-3.90688e-07
2.32005e-06
-2.08152e-06
4.94393e-07
1.51561e-07
-3.70136e-08
-4.20796e-07
1.43447e-06
-1.24328e-06
5.24194e-07
3.27257e-08
4.19652e-08
-4.41533e-07
7.34718e-07
-5.88254e-07
5.40986e-07
-4.26297e-08
8.45977e-08
-4.45044e-07
2.10972e-07
-1.05829e-07
5.36791e-07
-8.34123e-08
1.0161e-07
-4.14852e-07
-1.57802e-07
2.26337e-07
4.95848e-07
-9.92435e-08
9.89625e-08
-3.71832e-07
-3.6633e-07
3.88881e-07
4.44704e-07
-9.6066e-08
8.13715e-08
-3.28732e-07
-4.0113e-07
3.88756e-07
4.05704e-07
-7.89828e-08
5.61142e-08
-2.638e-07
-3.04996e-07
2.63502e-07
3.29293e-07
-5.44886e-08
2.65698e-08
-1.53798e-07
-1.27461e-07
8.40391e-08
1.90405e-07
-2.57426e-08
-8.28276e-07
-2.79409e-06
-2.38533e-05
3.68592e-06
7.35408e-07
2.23693e-05
-2.38148e-06
-2.12025e-06
2.64425e-06
2.09104e-06
-2.15574e-05
-2.34742e-06
-1.64442e-06
1.84536e-05
-1.73199e-05
1.96787e-06
2.13352e-06
-1.77264e-06
-1.24818e-06
1.39781e-05
-1.29361e-05
1.46489e-06
1.64566e-06
-1.15872e-06
-9.76162e-07
1.01034e-05
-9.2637e-06
1.13405e-06
1.08797e-06
-6.53513e-07
-8.49975e-07
7.03562e-06
-6.38752e-06
9.72405e-07
6.16746e-07
-2.8637e-07
-8.24563e-07
4.67711e-06
-4.17889e-06
9.26894e-07
2.69492e-07
-4.14288e-08
-8.27261e-07
2.8553e-06
-2.469e-06
9.17141e-07
3.59954e-08
1.07015e-07
-8.18378e-07
1.44961e-06
-1.15777e-06
9.01436e-07
-1.06287e-07
1.83267e-07
-7.88729e-07
4.09796e-07
-2.03965e-07
8.69165e-07
-1.79364e-07
2.09081e-07
-7.19176e-07
-3.02115e-07
4.31061e-07
7.9801e-07
-2.03199e-07
1.96713e-07
-6.4752e-07
-6.803e-07
7.15846e-07
7.19216e-07
-1.90872e-07
1.56735e-07
-6.10965e-07
-7.02268e-07
6.6718e-07
6.66091e-07
-1.52731e-07
1.07543e-07
-5.02784e-07
-5.05228e-07
4.37377e-07
5.47223e-07
-1.04297e-07
5.18188e-08
-2.89205e-07
-2.18164e-07
1.46575e-07
3.12151e-07
-5.00332e-08
-1.78767e-06
-5.19873e-06
-4.0848e-05
5.3782e-06
1.49621e-06
-4.73873e-06
3.69778e-05
-3.45225e-06
3.53547e-06
-3.49735e-05
4.04345e-06
-3.75295e-06
-2.62289e-06
2.84435e-05
2.74992e-06
-2.63394e-05
3.40522e-06
-2.55476e-06
-1.97228e-06
2.06642e-05
-1.90087e-05
2.0904e-06
2.37603e-06
-1.56718e-06
-1.52315e-06
1.46861e-05
-1.34425e-05
1.62011e-06
1.47449e-06
-8.30923e-07
-1.27597e-06
1.01918e-05
-9.25362e-06
1.35227e-06
7.85248e-07
-3.19816e-07
-1.17627e-06
6.78587e-06
-6.06776e-06
1.23748e-06
3.00552e-07
1.10055e-08
-1.13421e-06
4.16723e-06
-3.61538e-06
1.18538e-06
-1.52011e-08
2.04722e-07
-1.11598e-06
2.16842e-06
-1.75694e-06
-2.01054e-07
2.96648e-07
-1.10086e-06
7.07414e-07
-4.19396e-07
-2.89359e-07
3.17528e-07
-1.04307e-06
-2.81089e-07
4.55343e-07
-3.08831e-07
2.9133e-07
-9.33715e-07
-8.02187e-07
8.62145e-07
-2.82782e-07
2.36984e-07
-8.07874e-07
-9.1455e-07
8.88212e-07
-2.29912e-07
1.65633e-07
-6.29376e-07
-7.13849e-07
6.33263e-07
-1.60714e-07
8.17118e-08
-3.43417e-07
-3.46887e-07
2.44048e-07
-7.94697e-08
-4.35796e-09
-2.20458e-07
5.32169e-08
5.99065e-09
-1.95197e-08
3.19275e-07
7.10144e-08
-3.66654e-07
2.03022e-08
-4.11796e-08
4.83657e-07
8.63905e-08
-5.06214e-07
3.7943e-08
-4.86316e-08
5.18281e-07
-5.06748e-07
7.35016e-08
4.36272e-08
-4.04713e-08
4.41617e-07
-4.13808e-07
4.86242e-08
3.60467e-08
-2.60888e-08
3.24348e-07
-2.94687e-07
3.12076e-08
2.30866e-08
-1.25449e-08
2.11128e-07
-1.85955e-07
2.72487e-08
1.09399e-08
-2.55591e-09
1.19259e-07
-9.99551e-08
3.28604e-08
2.03516e-09
3.86608e-09
4.88475e-08
-3.39035e-08
4.13351e-08
-3.68869e-09
7.47286e-09
-4.64919e-09
1.51326e-08
4.70357e-08
-6.93743e-09
8.89243e-09
-3.98258e-08
4.57791e-08
4.84764e-08
-8.1911e-09
8.68469e-09
-5.68854e-08
5.84865e-08
4.92937e-08
-7.95673e-09
7.46312e-09
-5.86873e-08
5.66076e-08
4.42454e-08
-6.77217e-09
5.26502e-09
-4.39304e-08
3.7842e-08
3.99315e-08
-4.75376e-09
2.4582e-09
-1.83167e-08
1.20849e-08
2.91755e-08
-2.23089e-09
-9.62722e-08
-3.84169e-07
-4.15915e-06
6.20393e-07
9.77564e-08
-3.09983e-07
-4.12874e-07
4.75599e-06
-5.01237e-06
6.14482e-07
2.87173e-07
-4.89669e-07
-4.23964e-07
5.52965e-06
-5.56883e-06
5.88778e-07
4.37235e-07
-5.03506e-07
-3.40155e-07
5.27585e-06
-5.07087e-06
4.61726e-07
4.4687e-07
-3.89678e-07
-2.26136e-07
4.26767e-06
-3.97115e-06
3.09514e-07
3.45784e-07
-2.41435e-07
-1.51527e-07
3.07589e-06
-2.79223e-06
2.12323e-07
2.13722e-07
-1.12773e-07
-1.31853e-07
2.00631e-06
-1.77238e-06
1.83495e-07
9.90393e-08
-1.98304e-08
-1.44973e-07
1.14477e-06
-9.61136e-07
1.92448e-07
1.6237e-08
4.0046e-08
-1.62331e-07
4.69743e-07
-3.27345e-07
2.04749e-07
-3.74075e-08
7.30338e-08
-1.70468e-07
-3.66965e-08
1.33728e-07
2.08627e-07
-6.71648e-08
8.48169e-08
-1.68362e-07
-3.6039e-07
4.13802e-07
2.02465e-07
-7.75588e-08
8.11053e-08
-1.67329e-07
-5.14195e-07
5.27379e-07
1.98665e-07
-7.39703e-08
6.67284e-08
-1.74013e-07
-5.11628e-07
4.87416e-07
2.12174e-07
-6.08599e-08
4.59121e-08
-1.64605e-07
-3.70624e-07
3.19116e-07
2.02091e-07
-4.18907e-08
2.15896e-08
-1.16072e-07
-1.53778e-07
1.02758e-07
1.40208e-07
-1.97454e-08
-4.7829e-07
-1.9586e-06
-1.75813e-05
2.57311e-06
4.13476e-07
-1.28708e-06
-1.61553e-06
1.70405e-05
2.04814e-06
-1.67314e-05
1.07311e-06
-1.45317e-06
-1.3019e-06
1.52408e-05
-1.45826e-05
1.584e-06
1.24331e-06
-1.20419e-06
-9.53719e-07
1.23311e-05
-1.15427e-05
1.13964e-06
1.05204e-06
-8.25432e-07
-6.51307e-07
9.21138e-06
-8.47553e-06
7.78672e-07
7.28873e-07
-4.74533e-07
-4.64159e-07
6.4394e-06
-5.82736e-06
5.55353e-07
4.20496e-07
-2.05332e-07
-3.85916e-07
4.1801e-06
-3.69512e-06
4.55684e-07
1.81263e-07
-2.03806e-08
-3.61516e-07
2.40268e-06
-2.02524e-06
4.18031e-07
1.60229e-08
9.43892e-08
-3.46503e-07
1.03047e-06
-7.47775e-07
3.95857e-07
-8.70324e-08
1.53346e-07
-3.35558e-07
3.56621e-08
1.53896e-07
3.83038e-07
-1.39939e-07
1.70979e-07
-3.22046e-07
-5.98741e-07
7.06059e-07
3.69204e-07
-1.55447e-07
1.60099e-07
-3.12102e-07
-9.13778e-07
9.4266e-07
3.54946e-07
-1.45694e-07
1.30077e-07
-3.20202e-07
-9.25691e-07
8.85599e-07
3.54257e-07
-1.18795e-07
8.89784e-08
-3.02201e-07
-6.74812e-07
5.82688e-07
3.28926e-07
-8.15906e-08
4.25842e-08
-1.98974e-07
-2.95316e-07
2.03685e-07
2.09763e-07
-3.91612e-08
-8.99003e-07
-3.90278e-06
-3.1216e-05
4.14869e-06
7.59309e-07
-2.35019e-06
-3.00087e-06
2.92149e-05
3.18589e-06
-2.81542e-05
1.93452e-06
-2.32469e-06
-2.23978e-06
2.42671e-05
-2.28637e-05
2.38429e-06
1.98984e-06
-1.75422e-06
-1.59704e-06
1.86768e-05
-1.73473e-05
1.70845e-06
1.53716e-06
-1.12771e-06
-1.10218e-06
1.36469e-05
-1.25242e-05
1.18586e-06
9.98674e-07
-6.06838e-07
-7.87233e-07
9.47959e-06
-8.5752e-06
8.48526e-07
5.38592e-07
-2.26358e-07
-6.38282e-07
6.15634e-06
-5.44848e-06
6.90806e-07
1.98897e-07
2.58851e-08
-5.69558e-07
3.57656e-06
-3.0357e-06
6.1252e-07
-2.73021e-08
1.75016e-07
-5.38239e-07
1.62746e-06
-1.231e-06
5.78479e-07
-1.61071e-07
2.45412e-07
-5.33479e-07
2.31135e-07
4.02876e-08
5.79308e-07
-2.23375e-07
2.59861e-07
-5.18812e-07
-6.86037e-07
8.4369e-07
5.6647e-07
-2.35792e-07
2.38051e-07
-4.88065e-07
-1.15772e-06
1.20575e-06
-2.16677e-07
1.93936e-07
-4.61193e-07
-1.21331e-06
1.1718e-06
-1.76811e-07
1.36237e-07
-3.94235e-07
-9.36428e-07
8.28453e-07
-1.24555e-07
6.81404e-08
-2.2439e-07
-4.74779e-07
3.43712e-07
-6.25259e-08
-7.35955e-09
-5.16635e-07
1.23582e-07
6.46251e-09
-1.76796e-08
5.23594e-07
1.11394e-07
-5.29806e-07
1.4833e-08
-2.60367e-08
5.42824e-07
-5.41476e-07
9.42544e-08
2.08418e-08
-2.7455e-08
5.11278e-07
-4.92941e-07
6.49539e-08
2.14143e-08
-2.19544e-08
4.19447e-07
-3.91027e-07
3.08801e-08
1.69128e-08
-1.37233e-08
3.01847e-07
-2.72436e-07
4.62104e-09
1.04824e-08
-6.239e-09
1.89221e-07
-1.64299e-07
-8.15957e-09
4.71125e-09
-8.69712e-10
9.9091e-08
-8.03961e-08
-8.49375e-09
6.04097e-10
2.56307e-09
3.07952e-08
-1.61374e-08
-3.50629e-09
-2.00955e-09
4.55968e-09
-2.20037e-08
3.22945e-08
2.26095e-10
-3.53192e-09
5.27863e-09
-5.54459e-08
6.05094e-08
6.29367e-09
-4.06326e-09
5.03076e-09
-6.86996e-08
6.92189e-08
1.72699e-08
-3.8513e-09
4.19696e-09
-6.48886e-08
6.17346e-08
2.39592e-08
-3.20344e-09
2.93755e-09
-4.7681e-08
4.1482e-08
2.59809e-08
-2.24209e-09
1.39192e-09
-2.12182e-08
1.45889e-08
1.999e-08
-1.06411e-09
-8.27596e-08
-5.58944e-07
-5.51878e-06
7.55559e-07
6.90617e-08
-2.00996e-07
-4.9482e-07
5.51816e-06
-5.52825e-06
6.57148e-07
1.61878e-07
-2.76054e-07
-4.11758e-07
5.45884e-06
-5.37862e-06
5.40368e-07
2.16464e-07
-2.72225e-07
-2.85931e-07
4.92757e-06
-4.71552e-06
3.77079e-07
2.10403e-07
-2.08132e-07
-1.49254e-07
3.95479e-06
-3.67749e-06
2.05689e-07
1.59756e-07
-1.26995e-07
-4.65023e-08
2.83086e-06
-2.56001e-06
7.90049e-08
9.69108e-08
-5.74845e-08
1.0681e-09
1.80515e-06
-1.57912e-06
2.01617e-08
4.35392e-08
-7.75935e-09
7.28606e-09
9.72345e-07
-7.94973e-07
7.96058e-09
5.5686e-09
2.47791e-08
-1.57343e-12
3.20429e-07
-1.82999e-07
1.00684e-08
-1.92316e-08
4.30898e-08
-6.65426e-09
-1.6791e-07
2.60496e-07
1.46529e-08
-3.32013e-08
4.9098e-08
-2.1654e-08
-4.71083e-07
5.18251e-07
2.89611e-08
-3.76861e-08
4.6394e-08
-4.93598e-08
-6.02736e-07
6.11476e-07
5.64334e-08
-3.54999e-08
3.82443e-08
-7.95706e-08
-5.83404e-07
5.57203e-07
9.30867e-08
-2.92826e-08
2.65045e-08
-9.08693e-08
-4.34665e-07
3.78943e-07
1.07348e-07
-2.03354e-08
1.25834e-08
-7.1181e-08
-1.93892e-07
1.34599e-07
8.29976e-08
-9.6545e-09
-2.39759e-07
-1.56953e-06
-1.42393e-05
1.89951e-06
1.84016e-07
-5.74036e-07
-1.29629e-06
1.37286e-05
-1.35057e-05
1.55727e-06
4.34145e-07
-6.92361e-07
-1.02295e-06
1.25533e-05
-1.21332e-05
1.2147e-06
5.24917e-07
-6.08001e-07
-7.1911e-07
1.05943e-05
-1.00163e-05
8.53106e-07
4.62617e-07
-4.29452e-07
-4.35516e-07
8.197e-06
-7.58881e-06
5.27944e-07
3.27199e-07
-2.48486e-07
-2.35941e-07
5.82289e-06
-5.27225e-06
3.01314e-07
1.88913e-07
-1.05434e-07
-1.35912e-07
3.75525e-06
-3.3011e-06
1.84982e-07
7.96496e-08
-6.04505e-09
-9.38984e-08
2.07937e-06
-1.72135e-06
1.31506e-07
3.90825e-09
5.6344e-08
-7.08564e-08
7.77109e-07
-5.09049e-07
9.96913e-08
-4.35428e-08
8.82378e-08
-6.54924e-08
-1.64704e-07
3.4266e-07
9.07797e-08
-6.77321e-08
9.70416e-08
-7.89905e-08
-7.56698e-07
8.55352e-07
1.03638e-07
-7.43174e-08
9.11862e-08
-1.03454e-07
-1.05098e-06
1.08129e-06
1.27141e-07
-6.97885e-08
7.51729e-08
-1.39166e-07
-1.06925e-06
1.02764e-06
1.61283e-07
-5.77073e-08
5.21833e-08
-1.55732e-07
-8.15245e-07
7.1737e-07
1.74477e-07
-4.01848e-08
2.53066e-08
-1.1693e-07
-3.85362e-07
2.74112e-07
1.25142e-07
-1.95107e-08
-4.12759e-07
-2.80181e-06
-2.41109e-05
3.01942e-06
3.10992e-07
-9.93696e-07
-2.2939e-06
2.29164e-05
-2.23183e-05
2.47398e-06
7.42498e-07
-1.10214e-06
-1.74797e-06
2.00198e-05
-1.91314e-05
1.88246e-06
8.34084e-07
-8.94442e-07
-1.22499e-06
1.62557e-05
-1.52693e-05
1.3233e-06
6.8212e-07
-5.93271e-07
-7.86359e-07
1.23357e-05
-1.13923e-05
8.56664e-07
4.53268e-07
-3.19852e-07
-4.83666e-07
8.7165e-06
-7.8923e-06
5.32456e-07
2.43709e-07
-1.14099e-07
-3.29132e-07
5.63727e-06
-4.96698e-06
3.70461e-07
8.60343e-08
2.31107e-08
-2.51679e-07
3.18035e-06
-2.66235e-06
2.90619e-07
-1.87506e-08
1.03516e-07
-1.97563e-07
1.31389e-06
-9.34966e-07
2.31448e-07
-7.97169e-08
1.39754e-07
-1.80009e-07
-2.01941e-08
2.77761e-07
2.12746e-07
-1.06962e-07
1.46405e-07
-1.84294e-07
-8.91912e-07
1.0428e-06
2.13903e-07
-1.11986e-07
1.35234e-07
-2.05801e-07
-1.34956e-06
1.39791e-06
2.36319e-07
-1.03455e-07
1.1103e-07
-2.50038e-07
-1.39811e-06
1.35269e-06
2.86873e-07
-8.50185e-08
7.84053e-08
-2.48908e-07
-1.1013e-06
9.87464e-07
-6.00435e-08
3.95691e-08
-1.48121e-07
-5.89701e-07
4.37442e-07
-3.02749e-08
1.13956e-08
-1.36008e-07
2.96903e-08
2.00754e-08
5.56569e-09
2.0675e-08
5.40995e-09
4.96184e-08
2.84791e-07
-1.19036e-06
-1.98855e-08
-1.80091e-08
-1.79735e-08
-1.99403e-08
2.23833e-07
-2.24694e-06
3.94499e-07
-2.00734e-07
1.81923e-06
-1.37028e-06
-4.47566e-07
-9.22254e-06
1.35191e-06
6.93656e-06
-3.01294e-06
-3.28952e-05
3.43134e-05
2.72673e-06
2.88234e-08
1.11284e-08
2.16042e-08
5.68987e-09
2.11382e-08
5.81247e-09
-1.26013e-06
4.83253e-08
-1.98979e-08
-1.80264e-08
-1.996e-08
-1.80044e-08
-2.36149e-06
3.92908e-07
-1.97841e-07
1.91737e-06
2.17866e-07
9.67168e-09
-1.56002e-07
-1.01759e-08
2.63127e-08
2.33867e-08
6.51142e-09
2.40203e-08
6.32301e-09
4.21526e-08
2.74877e-07
-4.42811e-08
-1.35337e-06
-1.91566e-08
-1.71544e-08
-1.73009e-08
-1.90079e-08
1.82526e-07
-2.50154e-06
3.63899e-07
-1.96095e-07
-1.81776e-07
2.04311e-06
-3.15685e-06
3.7823e-05
2.85242e-06
6.77861e-06
-5.40097e-06
-4.27654e-05
5.54189e-06
-7.19115e-07
-3.91178e-07
-6.40143e-07
-4.26835e-07
-3.66792e-06
-3.82695e-05
4.69842e-06
-5.55021e-06
4.03033e-05
3.63731e-06
2.66763e-08
9.36987e-09
2.64423e-08
6.78727e-09
2.48835e-08
7.26653e-09
-1.38254e-06
4.10082e-08
-1.94175e-08
-1.72203e-08
-1.90769e-08
-1.76511e-08
-2.519e-06
3.52942e-07
-1.78614e-07
2.06868e-06
1.70113e-07
-1.21484e-07
2.88772e-08
-9.18095e-10
-1.49486e-10
-5.08817e-10
-2.73084e-10
-2.6112e-07
1.43419e-08
-1.22902e-08
2.02532e-07
4.96324e-08
3.32857e-07
5.57944e-08
-4.91063e-08
-1.71784e-07
-2.10671e-06
-2.87876e-06
3.72748e-07
1.5696e-07
-1.58162e-07
-2.18745e-07
2.56133e-06
-3.06623e-06
-2.2564e-05
3.9441e-06
2.89064e-06
-2.34141e-06
-2.10245e-05
2.17002e-05
2.83303e-06
2.13443e-06
1.34402e-06
1.22386e-06
1.20028e-06
-3.42878e-05
-4.9589e-06
5.87012e-06
-3.12399e-05
3.26018e-05
-3.15687e-06
-2.8915e-06
2.79626e-06
-3.12566e-05
5.10716e-06
-2.61899e-06
-2.56811e-05
2.75511e-05
2.68758e-06
2.14397e-09
-3.74456e-08
5.85462e-09
-1.97842e-09
1.89892e-08
-1.95803e-09
-5.16959e-12
-7.49135e-11
2.65521e-11
1.4847e-11
4.81715e-12
-4.94251e-11
3.4483e-10
-1.1487e-10
-1.34049e-09
4.40669e-11
-2.29876e-09
-3.53744e-08
6.04207e-09
2.0471e-09
-2.02989e-09
1.79135e-08
4.56827e-11
3.4114e-10
-1.43998e-09
-4.1586e-11
-1.1485e-10
4.83559e-12
-7.99037e-11
1.40318e-11
-4.59129e-12
2.83299e-11
-2.40717e-06
2.31905e-05
2.92665e-06
2.80147e-06
1.24487e-06
1.41574e-06
1.2699e-06
-3.77886e-05
2.08275e-06
-5.12138e-06
-3.38475e-05
3.55645e-05
5.70334e-06
-3.29397e-06
-2.98328e-06
-9.12022e-07
-2.50192e-05
3.90199e-06
-2.36671e-06
2.17475e-06
-2.32452e-05
-2.43481e-06
2.40208e-05
2.95772e-06
1.53747e-06
-1.76437e-06
-4.00156e-05
-5.08786e-06
4.11908e-06
-3.58952e-05
-4.76992e-06
3.7732e-05
-3.59352e-06
-1.40682e-06
-9.55237e-06
-9.84532e-07
9.63705e-06
9.80303e-07
1.39662e-06
4.14228e-07
-1.45014e-06
-4.3351e-07
-1.09658e-05
1.45556e-06
-1.06281e-05
1.27673e-06
-1.05568e-06
1.06722e-06
-1.34141e-06
1.0759e-05
-2.70532e-06
2.93759e-05
2.78167e-06
4.97669e-06
-3.4132e-06
-5.43656e-06
3.44533e-06
-3.59914e-05
-2.8313e-06
-2.88758e-05
4.05914e-06
-4.43661e-06
3.12062e-05
2.94275e-06
-6.01684e-08
7.8191e-09
2.82267e-09
-2.02919e-09
3.62482e-08
-3.24363e-09
-4.53788e-12
-8.99942e-11
3.19602e-11
1.42735e-11
4.28656e-12
-4.36316e-11
3.36432e-10
-1.1491e-10
-1.57698e-09
3.96402e-11
7.91743e-13
2.98152e-12
-1.06509e-11
-1.55036e-13
-6.01369e-14
-1.51027e-13
-6.14586e-14
-1.96387e-09
-4.15159e-08
5.85284e-09
1.76836e-09
-1.99829e-09
2.12659e-08
8.52895e-10
1.53645e-10
-4.81054e-09
-9.41506e-11
-4.09833e-10
-3.57223e-10
2.05229e-11
5.59857e-11
-9.90872e-12
1.73113e-10
-3.72962e-06
3.87138e-05
3.78555e-06
3.90561e-06
-4.25038e-06
-1.06194e-06
-3.35848e-05
4.49345e-06
-3.41703e-06
-3.12203e-05
2.15729e-06
-2.63642e-06
3.22706e-05
3.60123e-06
-7.41109e-11
2.63018e-11
1.50093e-11
-4.88751e-12
3.45232e-10
-1.151e-10
-4.5059e-11
-1.32483e-09
-3.45622e-08
6.0923e-09
-2.09508e-09
-2.0586e-09
1.75037e-08
-9.06436e-06
-9.69608e-07
9.12958e-06
-1.40261e-06
9.61941e-07
6.87279e-06
6.57548e-07
6.9592e-07
6.87584e-07
6.69631e-07
-3.30372e-06
8.55322e-06
9.20453e-06
8.66913e-06
7.71989e-06
8.51101e-06
9.01148e-06
-3.37065e-05
-3.78949e-08
5.79877e-09
1.92212e-08
1.88252e-09
-1.93586e-09
-8.75917e-11
3.10598e-11
1.40257e-11
-4.25067e-12
3.33516e-10
-1.13771e-10
-3.89713e-11
-1.54451e-09
3.40787e-10
-1.45075e-09
-1.14764e-10
4.06906e-11
-4.00604e-08
5.74837e-09
-1.79217e-09
-1.93217e-09
2.03567e-08
-8.05608e-11
1.39418e-11
2.85719e-11
4.48074e-12
6.73909e-06
6.96845e-07
7.0472e-07
7.19571e-07
6.77183e-07
-3.44599e-06
9.73374e-06
1.00034e-05
1.0237e-05
7.60709e-06
9.97011e-06
9.51767e-06
-3.69583e-05
4.03698e-05
3.07078e-06
6.32789e-06
-3.7971e-05
-3.33246e-06
6.21336e-06
7.21447e-07
7.98226e-07
7.44048e-07
7.73074e-07
-3.649e-06
1.0973e-05
1.03895e-05
1.06875e-05
7.1421e-06
1.03798e-05
1.06489e-05
-3.92829e-05
-1.45267e-06
4.02284e-07
-1.10323e-05
1.46833e-06
-4.0919e-06
4.67886e-06
-4.18568e-05
-4.67109e-06
3.30007e-06
-4.4399e-05
-8.19788e-07
-4.82826e-07
2.0143e-06
-4.30992e-05
1.22146e-06
1.09075e-06
1.2546e-06
1.09228e-06
-4.6613e-06
1.11565e-05
1.09482e-05
1.08637e-05
1.12321e-05
-1.43075e-06
-1.02751e-06
-1.1578e-06
-4.34598e-05
-1.14184e-06
-1.32503e-06
3.70687e-06
4.11543e-05
3.37603e-06
-3.52158e-06
-3.8748e-05
-5.25814e-06
3.96239e-06
-4.05482e-06
4.28067e-06
-6.13731e-06
4.18365e-05
-3.9668e-05
5.08841e-06
8.8773e-07
8.77632e-07
8.32062e-07
9.52619e-07
-3.89616e-06
1.07161e-05
1.07736e-05
-4.01674e-05
-1.55327e-06
-1.4914e-06
4.72316e-06
5.18606e-08
-2.12692e-07
5.57503e-08
-4.13991e-07
3.56618e-07
1.14621e-07
3.05572e-07
4.50511e-07
-2.54819e-07
-2.68851e-06
5.31993e-07
-3.7299e-06
5.98466e-07
-4.03649e-07
3.45498e-06
-2.94148e-06
6.40708e-07
4.242e-07
-4.06494e-06
3.60488e-06
6.94793e-07
7.35027e-07
-1.63615e-05
-2.05585e-06
2.02074e-06
-1.58973e-05
1.61144e-05
-1.71152e-06
3.70722e-07
1.08677e-07
5.46568e-08
-2.49537e-07
2.97842e-07
-2.8182e-06
-3.87669e-06
5.80814e-07
-3.87123e-07
3.60171e-06
5.20785e-07
-1.96042e-08
4.47139e-08
-2.39984e-07
4.71924e-08
-4.48358e-07
-5.01247e-08
3.91074e-07
8.95122e-08
2.49704e-07
4.07101e-07
-2.68483e-07
-2.25019e-07
-2.96861e-06
4.41965e-07
-4.01707e-06
5.02935e-07
-4.7378e-07
-3.27134e-07
3.75218e-06
3.80614e-06
4.12596e-07
6.99774e-07
-1.74748e-05
7.14691e-07
-2.10536e-06
-1.68791e-05
1.71497e-05
1.95961e-06
-1.7504e-06
-1.10212e-07
-3.29375e-06
6.19071e-07
3.39309e-07
-4.48082e-06
-3.68285e-07
3.99808e-06
6.56027e-07
5.78251e-07
-6.35704e-07
-1.79283e-05
-1.98243e-06
1.53085e-06
-1.73805e-05
-1.70998e-06
1.76302e-05
-1.68358e-06
3.95243e-07
8.50406e-08
4.41563e-08
-2.19179e-07
2.31554e-07
-2.97552e-06
-3.99411e-06
4.78814e-07
-3.11138e-07
3.73849e-06
4.08485e-07
-1.8417e-08
6.00317e-08
-3.22352e-07
-4.70201e-07
3.65206e-08
-3.88182e-08
4.30126e-07
8.26233e-08
3.95223e-07
1.98502e-07
-2.06408e-07
-2.42469e-07
-3.20442e-06
-3.93058e-06
4.35118e-07
3.1583e-07
-3.44854e-07
-2.90089e-07
3.75076e-06
3.9738e-06
3.1053e-07
6.30646e-07
-1.70834e-05
-1.85714e-06
5.14486e-07
2.26196e-06
-1.67058e-05
1.68846e-05
-1.60119e-06
1.33712e-06
-9.43128e-08
-3.77626e-06
5.87819e-07
-4.57725e-06
2.52609e-07
-2.67416e-07
4.24778e-06
5.9847e-07
2.12843e-06
3.45376e-07
-3.93854e-07
-1.4766e-06
-1.3915e-05
1.82122e-06
-1.38851e-05
8.34973e-07
-9.80601e-07
-1.32034e-06
1.39039e-05
2.75047e-07
6.42553e-08
1.5908e-08
-2.2551e-07
-2.54925e-06
6.13848e-08
-3.12408e-06
4.00128e-07
-2.49826e-07
2.88174e-06
1.54868e-07
-7.57211e-09
-4.62809e-07
1.11514e-07
-4.8359e-07
1.51252e-08
-1.63877e-08
4.72303e-07
1.0493e-07
5.27372e-07
5.89053e-08
-6.35769e-08
-3.64334e-07
-3.73906e-06
-3.86189e-06
4.89065e-07
1.23005e-07
-1.38812e-07
-3.41758e-07
3.80068e-06
2.06108e-10
2.95212e-10
7.36389e-11
2.93102e-10
6.23301e-10
-2.08635e-10
-3.15417e-09
2.85025e-07
4.49773e-08
8.82791e-08
-4.97841e-07
2.00099e-08
3.35765e-08
1.22172e-08
1.19798e-08
-1.66775e-09
-1.69876e-09
-3.39979e-09
-3.35828e-09
5.11152e-08
1.09257e-09
-3.48189e-10
-4.152e-10
-4.18632e-10
-1.11038e-09
-3.03899e-08
7.88923e-09
-1.10628e-07
9.28186e-08
-1.45452e-06
3.03743e-07
2.99759e-08
-6.14489e-09
-3.59125e-09
-3.64772e-09
3.70363e-08
3.61537e-08
9.48996e-08
9.79627e-08
-5.14014e-07
-1.94971e-08
-3.1054e-07
1.87143e-08
3.68457e-08
1.32384e-08
1.30334e-08
-1.57373e-09
-1.59603e-09
-3.20232e-09
-3.15226e-09
4.90385e-08
2.98504e-10
7.583e-11
3.02549e-10
6.12351e-10
2.0379e-10
-3.22703e-09
2.99602e-07
4.38875e-08
-5.22273e-07
8.63828e-08
2.78116e-08
1.07004e-08
2.19963e-08
6.02116e-09
2.23585e-08
5.92454e-09
-1.47629e-07
3.6212e-08
1.2501e-08
1.27848e-08
-1.64221e-09
-1.61876e-09
-3.25201e-09
-3.3055e-09
5.02388e-08
4.21541e-08
-5.40327e-07
8.38172e-08
1.92927e-10
3.1848e-10
7.93796e-11
3.16356e-10
5.84318e-10
-1.97358e-10
-3.41113e-09
-2.91431e-08
1.09401e-07
2.79283e-08
-5.92742e-09
-3.46996e-09
-3.50516e-09
4.02632e-08
3.96334e-08
1.04868e-07
1.06565e-07
-5.62296e-07
-4.14238e-10
-3.45002e-10
-4.14295e-10
-3.11719e-08
1.07587e-09
7.8736e-09
-1.10612e-07
9.02631e-08
3.06877e-07
-1.53702e-06
-1.30828e-06
4.64903e-08
-1.98448e-08
-1.78338e-08
-1.79578e-08
-1.97038e-08
2.87846e-07
-5.98161e-09
-3.55751e-09
-3.53179e-09
3.79947e-08
3.88631e-08
1.02968e-07
1.00557e-07
-5.42088e-07
1.01749e-09
-4.10412e-10
-3.43215e-10
-4.123e-10
-3.30744e-08
-1.03909e-09
7.78924e-09
8.63966e-08
3.05013e-07
-1.5934e-06
-3.19106e-07
1.77862e-08
3.846e-08
1.34156e-08
1.36196e-08
-1.55375e-09
-1.54005e-09
-3.07006e-09
-3.10625e-09
4.78826e-08
2.68878e-08
2.29901e-08
6.09952e-09
2.264e-08
6.19805e-09
-1.51629e-07
1.79235e-10
3.48496e-10
8.57941e-11
3.4131e-10
5.75406e-10
-1.80954e-10
-3.70224e-09
-4.00116e-08
3.29011e-07
3.78595e-08
7.92095e-08
-5.66743e-07
8.12437e-08
-5.53783e-07
1.69792e-08
3.90342e-08
1.42899e-08
1.38656e-08
-1.55223e-09
-1.53511e-09
-3.04921e-09
-3.06605e-09
4.72376e-08
3.21035e-10
8.13112e-11
3.24284e-10
5.76646e-10
1.88525e-10
-3.46154e-09
1.07511e-07
2.64873e-08
-3.43782e-09
-5.74817e-09
-3.41304e-09
4.079e-08
4.12956e-08
1.09046e-07
1.07848e-07
-5.76616e-07
-1.33658e-06
-1.93495e-08
-1.7705e-08
-1.74983e-08
-1.95786e-08
2.82755e-07
9.58101e-10
-3.33706e-10
-4.06733e-10
-4.05021e-10
-9.60492e-10
-3.51163e-08
7.55478e-09
-8.15882e-08
-1.05566e-07
7.65762e-08
-1.6462e-06
2.91154e-07
-4.09979e-10
-3.40289e-10
-4.09706e-10
-3.35221e-08
9.96972e-10
7.73378e-09
-1.6268e-06
2.99397e-07
2.5207e-08
-5.72473e-09
-3.41733e-09
-3.39713e-09
4.28352e-08
4.18808e-08
1.10168e-07
1.12e-07
-5.90682e-07
-1.68558e-08
-4.00023e-07
1.95256e-08
4.94116e-08
2.59474e-08
1.92833e-08
-2.41608e-09
-1.90122e-09
-3.50931e-09
-4.15365e-09
5.34023e-08
3.57751e-10
9.3746e-11
3.72551e-10
5.94688e-10
1.8043e-10
-3.89017e-09
3.48845e-07
3.64798e-08
-5.88658e-07
7.90972e-08
2.93897e-08
1.00265e-08
2.88085e-08
9.52372e-09
3.36571e-08
8.07365e-09
-1.80297e-07
4.44852e-08
1.50074e-08
1.64364e-08
-1.59799e-09
-1.70692e-09
-3.26704e-09
-3.12043e-09
4.81455e-08
3.76753e-08
-6.35865e-07
8.36475e-08
2.92841e-10
1.05707e-09
2.06406e-10
7.24617e-10
9.22658e-10
-1.95021e-10
-5.93603e-09
-2.49407e-08
1.135e-07
2.81048e-08
-6.61888e-09
-5.36617e-09
-4.20227e-09
6.63617e-08
5.3669e-08
1.29065e-07
1.4702e-07
-6.98758e-07
-4.11306e-10
-3.43816e-10
-4.22098e-10
-3.64673e-08
9.77577e-10
7.65527e-09
-1.05774e-07
7.28961e-08
2.84022e-07
-1.6757e-06
-1.47943e-06
4.2989e-08
-2.03688e-08
-2.09791e-08
-1.86306e-08
-2.27402e-08
2.71685e-07
-6.12391e-09
-3.50407e-09
-3.73728e-09
4.44642e-08
4.76103e-08
1.20103e-07
1.14761e-07
-6.18952e-07
1.53042e-09
-9.0458e-10
-6.04509e-10
-6.95174e-10
-5.46783e-08
-1.1947e-09
1.02215e-08
7.32367e-08
2.85441e-07
-1.76458e-06
-7.8234e-08
1.00456e-08
5.48291e-08
-5.11251e-09
3.52145e-09
-2.47747e-12
-1.09643e-12
-3.94313e-12
3.77668e-10
-1.56704e-09
7.4253e-11
3.17855e-08
-1.50223e-07
-1.24463e-09
-4.8718e-10
-1.62748e-09
-3.85117e-10
7.10277e-09
-4.43589e-07
7.67551e-08
-1.64147e-09
-1.71471e-09
-9.60735e-10
-2.79538e-09
1.44364e-08
5.78449e-09
-3.23774e-08
-2.52872e-09
1.0884e-09
-1.73235e-10
-7.48343e-11
-8.98141e-11
-5.35605e-07
8.31084e-08
-2.1924e-09
-4.88011e-09
-2.92649e-09
-3.59436e-09
2.32143e-08
-4.8808e-09
8.46641e-10
2.97692e-09
3.1384e-10
-5.96336e-11
-1.41868e-11
-4.41227e-11
3.45404e-14
4.638e-13
-2.91101e-14
-1.02912e-12
-9.11938e-11
1.886e-10
-1.27867e-09
-8.62411e-11
5.45508e-10
8.1427e-11
5.02804e-12
-7.72884e-11
-4.75673e-12
1.44781e-11
2.73858e-11
-3.12956e-14
4.61311e-13
2.64605e-14
-1.02167e-12
8.87638e-11
1.85235e-10
-1.3171e-09
5.63624e-10
-8.06603e-11
-8.4412e-11
4.19456e-14
-1.26141e-12
-3.68118e-14
6.85638e-13
-1.66721e-10
-3.21735e-09
6.01992e-10
2.11602e-09
-2.38829e-10
1.50713e-10
4.75994e-11
3.44762e-10
-4.32786e-11
-1.15516e-10
-1.39072e-09
-3.90705e-14
-1.24486e-12