/*--------------------------------*- C++ -*----------------------------------*\
| =========                 |                                                 |
| \\      /  F ield         | OpenFOAM: The Open Source CFD Toolbox           |
|  \\    /   O peration     | Version:  2012                                  |
|   \\  /    A nd           | Website:  www.openfoam.com                      |
|    \\/     M anipulation  |                                                 |
\*---------------------------------------------------------------------------*/
FoamFile
{
    version     2.0;
    format      ascii;
    class       volScalarField;
    location    "0.105/fluid";
    object      p;
}
// * * * * * * * * * * * * * * * * * * * * * * * * * * * * * * * * * * * * * //

dimensions      [0 2 -2 0 0 0 0];


internalField   nonuniform List<scalar> 
16422
(
0.135765
0.0164106
0.00275769
0.000831973
0.000435491
0.00020313
1.64771e-06
-0.000159667
-0.000272097
-0.000337052
-0.000352747
-0.000324483
-0.000254736
-0.00013961
-0.172437
-0.0517225
-0.00559022
0.000718655
0.00104948
0.000705506
0.000338406
5.2956e-05
-0.000148922
-0.000279159
-0.000348756
-0.000365505
-0.000336078
-0.000264083
-0.000143736
-0.0687079
-0.00112492
0.00802494
0.00558431
0.00306406
0.00154347
0.000669804
0.000167356
-0.000125903
-0.000292442
-0.000372897
-0.000388197
-0.000351959
-0.000271502
-0.000145348
0.00590338
0.142161
0.0404092
0.0140928
0.00565569
0.00239311
0.000942115
0.000232872
-0.000136718
-0.000328088
-0.000411096
-0.00041943
-0.000374527
-0.000285199
-0.00014929
0.106423
0.00212068
-0.00423567
-0.00340787
-0.00230829
-0.0015955
-0.00117485
-0.000926188
-0.000769932
-0.000657554
-0.000555791
-0.000446944
-0.000322186
-0.000166604
-0.135691
-0.0460923
-0.0128503
-0.0054629
-0.00312763
-0.00204834
-0.00146392
-0.00112406
-0.000916046
-0.000777076
-0.000669501
-0.000568688
-0.000460888
-0.000334268
-0.00017248
-0.0639193
-0.0218053
-0.00577585
-0.00215681
-0.00150916
-0.00131329
-0.00115361
-0.00100997
-0.000890157
-0.000788361
-0.0006935
-0.000593907
-0.000480531
-0.000345899
-0.000176155
-0.0379126
0.0234425
0.0110824
0.00345134
0.000486616
-0.000567202
-0.000882535
-0.000930672
-0.000890299
-0.000818742
-0.0007312
-0.00062789
-0.000508424
-0.000364738
-0.000184203
-0.153216
-0.0455877
-0.0221092
-0.012656
-0.00785309
-0.00501011
-0.00330392
-0.00226818
-0.00162859
-0.00122306
-0.000945785
-0.000735638
-0.000555771
-0.000382962
-0.000191321
-0.0800675
-0.0466622
-0.0226863
-0.0123719
-0.00746324
-0.00476594
-0.00318305
-0.00222036
-0.00161871
-0.00122827
-0.000957489
-0.000750124
-0.000571653
-0.000396507
-0.000196276
-0.0560095
-0.0334432
-0.0175762
-0.00992941
-0.0062068
-0.00415286
-0.00290668
-0.00211273
-0.00159247
-0.00123859
-0.000981984
-0.000777667
-0.000595249
-0.000412362
-0.00020359
-0.0465977
-0.0211672
-0.0106314
-0.00672917
-0.00478221
-0.00352801
-0.0026483
-0.00202552
-0.00158438
-0.00126441
-0.00101992
-0.000815415
-0.000628056
-0.000435384
-0.000214842
-0.067004
-0.0471259
-0.0284953
-0.0173269
-0.0108033
-0.00686602
-0.00447678
-0.00301361
-0.00210476
-0.00152847
-0.00113917
-0.000853078
-0.000627257
-0.000421375
-0.000206723
-0.0583533
-0.0429671
-0.0269279
-0.0166206
-0.0103901
-0.00664013
-0.00436551
-0.00296799
-0.00209371
-0.00153076
-0.00114907
-0.000869791
-0.000643932
-0.000436545
-0.00021268
-0.0506493
-0.0364402
-0.0234861
-0.0147457
-0.00936691
-0.00611038
-0.00411295
-0.00286426
-0.00206652
-0.00153948
-0.00117282
-0.000897996
-0.000669299
-0.000454549
-0.000220419
-0.0459186
-0.0312045
-0.0198621
-0.0126484
-0.00825632
-0.00555927
-0.00386306
-0.00277122
-0.00205192
-0.00156174
-0.00120951
-0.000937435
-0.00070483
-0.000480146
-0.000234102
0.142183
-0.261249
-0.0564073
-0.000930676
0.213914
0.148638
-0.24949
-0.0487901
0.149763
-0.215602
-0.038386
0.201786
-0.0240506
0.0575774
0.216612
-0.196176
-0.0382413
-0.134875
-0.0736223
-0.0897879
-0.0494828
-0.0770151
-0.0150444
-0.0603331
0.110379
0.151541
0.0563521
-0.231887
-0.382892
-0.705906
-0.255653
-0.672139
-0.335334
-0.0104295
-0.0453983
0.107034
-0.0656566
-0.0259952
-0.0427203
0.029694
0.240092
-0.00568253
0.163528
0.0537658
0.0489711
0.0240285
-0.0818061
-0.171142
-0.603412
-0.556119
-0.15831
-0.364983
-0.100586
0.0227318
-0.0462371
-0.0204574
-0.386983
-0.709855
-0.263166
0.243344
0.274429
0.30607
-0.219105
-0.19322
-0.615
-0.665985
-0.18156
-0.326596
0.264222
0.286199
0.159485
0.207102
0.235953
-0.0197074
0.0309431
-0.00606473
0.0895556
0.0655969
0.105861
0.0540723
0.0830063
0.117274
0.139713
0.0958708
0.132876
0.0273467
-0.0268048
-0.0040042
-0.182523
-0.090892
-0.0980225
-0.0392607
0.0277605
-0.0210618
-0.00174441
0.113089
0.017362
-0.0217124
-0.00807046
-0.0826074
-0.0862081
-0.0312366
-0.148061
-0.0719289
-0.0764941
-0.0368371
0.0123975
-0.0247745
-0.011244
-0.0350953
-0.0187808
-0.0387609
-0.0227307
-0.0672049
-0.0723952
-0.0381369
-0.0824352
-0.0562147
-0.0607669
-0.0412255
-0.0559835
-0.0919611
-0.0569778
-0.0611599
-0.0497924
-0.057515
-0.04609
-0.218982
0.0385862
-0.190833
-0.543564
-0.204344
-0.326772
-0.162665
-0.20881
0.0449762
0.153629
-0.177946
0.0492381
-0.170919
-0.301797
-0.536776
-0.193398
-0.242645
-0.313307
-0.5135
-0.186488
-0.139807
0.165439
-0.0529923
0.0541108
0.0532104
-0.0975167
-0.152947
-0.285467
-0.230027
-0.463007
-0.162423
-0.503736
-0.175164
-0.265423
0.0782583
-0.0138096
0.0456349
-0.002642
-0.0537399
-0.0449849
0.0225574
-0.203471
-0.444604
-0.148217
-0.161909
-0.242287
-0.284408
-0.122824
-0.118617
-0.357739
-0.13573
-0.107433
-0.244475
-0.102802
-0.162672
-0.460783
-0.632079
-0.365699
-0.48401
-0.612182
-0.639697
-0.569465
-0.693022
-0.659874
-0.557329
-0.638514
-0.537126
-0.688167
-0.552324
-0.612016
-0.465318
-0.575069
-0.36015
-0.603128
-0.435562
0.415769
0.406187
0.527435
0.288606
0.371183
0.0500667
0.377081
0.0709976
0.438393
0.606241
0.451503
0.584645
0.351494
0.00688229
0.0637425
0.242125
-0.489433
-0.400664
-0.180226
-0.413352
-0.316523
-0.565264
-0.475126
-0.545242
-0.567674
-0.432538
-0.79855
-0.329644
-0.500499
-0.549471
-0.297072
-0.515418
-0.730251
-0.403199
-0.444877
-0.464044
-0.150019
-0.297879
-0.266416
-0.313648
-0.393821
-0.497193
-0.638717
-0.396994
-0.480081
-0.651944
-0.675415
-0.719967
-0.573807
-0.660697
-0.583074
-0.675875
-0.585581
-0.493606
-0.655953
0.398415
0.333829
0.0399473
0.370787
0.00284173
0.319125
-0.0100792
0.412616
0.604108
0.446892
0.586762
0.425878
0.561733
0.552418
0.427744
-0.413967
-0.434647
-0.271339
-0.403034
-0.502242
-0.580499
-0.639262
-0.484888
-0.561229
-0.504946
-0.580402
-0.530649
-0.646862
-0.610696
-0.512779
-0.408022
-0.562094
-0.286106
-0.440535
-0.521864
0.355411
0.372009
0.476852
0.287569
0.394406
0.557165
0.531283
0.418517
0.1038
0.269109
0.241326
0.133803
0.0562735
-0.00221136
0.182374
-0.0108488
0.139843
0.250478
0.211279
0.144831
-0.0680864
-0.0141379
-0.151662
-0.0494457
-0.0470792
-0.0832308
0.00388601
-0.148487
-0.12927
-0.115639
-0.0819084
-0.179768
-0.108776
-0.109484
-0.627524
-0.240132
-0.401884
-0.632021
-0.646892
-0.411625
-0.606038
-0.633443
-0.249219
-0.672844
-0.428683
-0.649826
-0.661595
-0.4209
-0.559582
-0.0835099
-0.202479
-0.113504
-0.168518
-0.255308
-0.377576
-0.731627
-0.480158
-0.63307
-0.594247
-0.145715
-0.459343
-0.327365
-0.554487
-0.377585
-0.310529
-0.665936
-0.268342
-0.683961
-0.436628
-0.654148
-0.691875
-0.442684
-0.574374
-0.389036
-0.209474
-0.611197
-0.598419
-0.592172
-0.377673
-0.567147
-0.190925
-0.534686
-0.348901
-0.554581
-0.561313
-0.361241
-0.385445
-0.274229
-0.342292
-0.267997
-0.335369
-0.333922
-0.291696
-0.227835
-0.287248
-0.263665
-0.267839
-0.241127
-0.308825
-0.217376
-0.173277
-0.242904
-0.294563
-0.191762
-0.187717
-0.0924989
-0.251077
-0.619055
-0.475508
-0.508332
-0.513309
-0.60783
-0.57575
-0.368407
-0.583128
-0.36271
-0.622842
-0.471306
-0.523801
-0.518764
-0.631693
-0.571841
-0.350569
-0.56089
-0.359798
-0.911987
-0.649535
-0.764404
-0.768704
-0.903511
-1.08109
-1.57529
-1.08979
-1.56529
-0.915
-0.650735
-0.780033
-0.77409
-0.923114
-1.07795
-1.55093
-1.06885
-1.56092
-0.889822
-0.758477
-0.626509
-0.751123
-0.900156
-1.05021
-1.51545
-1.52815
-1.03901
-1.05428
-1.54647
-1.06534
-1.53381
-0.885927
-0.624935
-0.738418
-0.744198
-0.875485
-0.590863
-0.502056
-0.449025
-0.495285
-0.603603
-0.540317
-0.321114
-0.525209
-0.334073
-0.585882
-0.453823
-0.481272
-0.488025
-0.570225
-0.545563
-0.347119
-0.556704
-0.338349
-0.385309
-0.459551
-0.41279
-0.409421
-0.354204
-0.412787
-0.19606
-0.427542
-0.171504
-0.420384
-0.441125
-0.41126
-0.412615
-0.467114
-0.408595
-0.203619
-0.380509
-0.174602
-0.821943
-0.578718
-0.678534
-0.689187
-0.803451
-0.978329
-1.42444
-0.980747
-1.40813
-0.825333
-0.561472
-0.689032
-0.688615
-0.824695
-0.972609
-1.35353
-0.948846
-1.38721
-0.678638
-0.724296
-0.582387
-0.402614
-0.41575
-0.512067
-0.621391
-0.356473
-0.449072
-0.639885
-0.627368
-0.573624
-0.553838
-0.778155
-0.675096
-0.62063
-0.661436
-0.590963
-0.990048
-0.78234
-1.30076
-0.919992
-1.12846
-0.561299
-0.803683
-0.383213
-0.560927
-0.50002
-0.472305
-0.254352
-0.468765
-0.401203
-0.337005
-0.362858
-0.40018
-0.219074
-0.322717
-0.263149
-0.236883
-0.227417
-0.583388
-0.296708
-0.278212
-0.254519
-0.461161
-0.298415
-0.244737
-0.380754
-0.217463
-0.645126
-0.487681
-0.538784
-0.53545
-0.650098
-0.593849
-0.370842
-0.586206
-0.377375
-0.642497
-0.491449
-0.528379
-0.634847
-0.531721
-0.596518
-0.380645
-0.599887
-0.379108
-0.934322
-0.668648
-0.796147
-0.940507
-0.791408
-1.09938
-1.57885
-1.09246
-1.58644
-0.93208
-0.667875
-0.784568
-0.925688
-0.78745
-1.10171
-1.59759
-1.58991
-1.10838
-0.94238
-1.60039
-1.11034
-0.652022
-0.381405
-0.601565
-0.498893
-0.399426
-0.441429
-0.434384
-0.51648
-0.446711
-0.203453
-0.430967
-0.231412
-0.493891
-0.407864
-0.422587
-0.475231
-0.428262
-0.453358
-0.267037
-0.471143
-0.242869
-0.832826
-0.56782
-0.702425
-0.84136
-0.696058
-0.988074
-1.4322
-0.984586
-1.44514
-0.829008
-0.569513
-0.690592
-0.827192
-0.691725
-0.992554
-1.469
-1.45476
-1.00222
-0.855294
-0.594673
-0.709088
-0.714951
-0.845486
-1.02226
-1.51017
-1.03467
-1.49563
-0.859736
-0.595985
-0.73106
-0.871355
-0.722666
-1.01753
-1.47489
-1.48876
-1.0068
-0.541466
-0.426817
-0.449279
-0.456456
-0.52228
-0.503592
-0.315926
-0.519583
-0.301788
-0.547438
-0.421378
-0.473174
-0.564768
-0.464831
-0.496856
-0.275236
-0.477707
-0.294987
0.206852
0.113511
0.0511572
0.0101339
0.110021
0.210272
0.0586628
-0.0301798
-0.0483184
0.00689438
-0.0571408
-0.0375072
-0.0484044
-0.0241036
0.184665
-0.0127253
0.109817
0.0378803
0.0991578
0.201481
0.0199575
0.0610354
-0.0396958
0.022635
-0.648606
-0.417413
-0.575134
-0.380773
-0.571654
-0.65353
-0.413203
-0.860445
-0.936664
-0.691686
-0.701497
-0.687092
-0.864775
-0.932088
-0.831429
-0.657257
-0.677577
-0.895532
-0.662774
-0.902735
-0.824288
-0.604882
-0.515286
-0.348175
-0.368422
-0.530042
-0.593079
-0.380192
0.0657054
-0.042219
0.0442021
0.0117101
-0.0334574
0.0240319
-0.0370108
-0.0418059
-0.00316638
0.0210811
-0.0058557
-0.0470206
-0.0414954
-0.0201879
0.181031
0.00291447
0.0694544
0.0358117
0.0942611
0.05136
0.130623
-0.560499
-0.24824
-0.35216
-0.139642
-0.327818
-0.51014
-0.249469
-0.745344
-0.807554
-0.592634
-0.588874
-0.579873
-0.755695
-0.788843
-0.457205
-0.358988
-0.407231
-0.448619
-0.396964
-0.429472
-0.431455
-0.370452
0.051873
-0.16562
-0.179679
-0.184422
-0.208809
-0.200862
-0.665809
-0.421139
-0.580873
-0.395573
-0.59018
-0.659536
-0.427965
-0.874221
-0.941415
-0.713281
-0.695734
-0.699142
-0.869531
-0.945921
-0.503343
-0.254591
-0.373523
-0.231236
-0.402763
-0.499441
-0.27452
-0.772063
-0.822889
-0.623313
-0.602502
-0.60987
-0.764914
-0.834227
-0.809877
-0.651096
-0.887716
-0.65933
-0.644351
-0.816781
-0.8801
-0.569157
-0.503582
-0.359973
-0.317315
-0.49208
-0.580978
-0.348907
0.0326701
-0.0287821
0.0376524
0.00354144
0.0137807
0.0725221
-0.0226739
-0.453543
-0.228446
-0.461223
-0.00431197
0.108473
0.000162459
0.107449
-0.549107
-0.484304
-0.489323
-0.370272
-0.376938
-0.381261
-0.366207
-0.443493
-0.197916
-0.432169
0.00973145
0.106955
0.00367015
0.112003
-0.401738
-0.186232
-0.418754
0.0139417
0.123206
0.0246956
0.112394
-0.476977
-0.529751
-0.470338
-0.354159
-0.371044
-0.359425
-0.365666
-0.454535
-0.522324
-0.462601
-0.347427
-0.352886
-0.359424
-0.341305
-0.249201
-0.0986716
-0.312582
0.058886
0.188955
0.10003
0.15017
-0.380585
-0.127371
-0.35158
0.0501347
0.125946
0.0319916
0.146361
-0.479812
-0.408211
-0.421636
-0.311991
-0.313872
-0.325376
-0.30188
-0.444209
-0.492251
-0.434427
-0.324268
-0.344539
-0.336269
-0.331797
-0.175338
0.012226
-0.126296
0.120332
0.186161
0.114373
0.156715
-0.201573
-0.169843
-0.368138
-0.0402756
0.085516
0.157305
-0.0504064
-0.393049
-0.408089
-0.365347
-0.265953
-0.298415
-0.286238
-0.275293
-0.265349
-0.364978
-0.332658
-0.23974
-0.205658
-0.246762
-0.20651
-0.178105
-0.162036
-0.235469
-0.203533
-0.122383
-0.15031
-0.16886
-0.539355
-0.470312
-0.450029
-0.458633
-0.537784
-0.780014
-0.720402
-0.717662
-0.629374
-0.713293
-0.711855
-0.787479
-0.640845
-0.375866
-0.553813
-0.399564
-0.565273
-0.632191
-0.408426
-0.55398
-0.475792
-0.472686
-0.4654
-0.555083
-0.771388
-0.696275
-0.622074
-0.696803
-0.705628
-0.704335
-0.763071
-0.736105
-0.644438
-0.652486
-0.655664
-0.732329
-0.855356
-0.697391
-0.921248
-0.678499
-0.682903
-0.849505
-0.926966
-0.749291
-0.656288
-0.670902
-0.668883
-0.752083
-0.726162
-0.649517
-0.633701
-0.646734
-0.729914
-0.837805
-0.682658
-0.915226
-0.673607
-0.667936
-0.843505
-0.909239
-0.709245
-0.618202
-0.625476
-0.629483
-0.704529
-0.531254
-0.453699
-0.455033
-0.444442
-0.533123
-0.730371
-0.652602
-0.587634
-0.658728
-0.665277
-0.669338
-0.71859
-0.61574
-0.355488
-0.545914
-0.394106
-0.539296
-0.623644
-0.387312
-0.742288
-0.687883
-0.597847
-0.686257
-0.676236
-0.679524
-0.752718
-0.512104
-0.447084
-0.424338
-0.43492
-0.509535
0.370581
0.378855
0.279073
0.49127
0.283082
0.498607
0.368026
0.273861
0.135574
0.173593
0.0598502
0.181814
0.262302
0.149398
0.367486
0.38165
0.277015
0.492567
0.283247
0.499446
0.358167
0.280475
0.185145
0.0656757
0.168659
0.185049
0.283576
0.15958
0.323061
0.262199
0.468756
0.326425
0.431469
0.352797
0.242568
0.208136
0.11034
0.0314172
0.0932626
0.127266
0.139974
0.134269
0.257816
0.173483
0.171098
0.0586216
0.277451
0.159084
0.164589
0.262372
0.285029
0.262676
0.171712
0.366486
0.204615
0.160748
-0.467985
-0.481004
-0.462575
-0.458993
-0.473129
-0.546233
-0.44905
-0.530063
-0.364657
-0.4118
-0.508225
-0.57458
-0.593673
-0.14114
-0.294225
-0.282415
-0.290322
-0.597697
-0.280819
-0.443895
-0.413901
-0.402458
-0.400714
-0.447885
-0.496496
-0.440495
-0.323247
-0.375628
-0.368125
-0.467148
-0.488078
-0.710465
-0.590754
-0.535427
-0.563381
-0.714301
-0.730188
-0.571133
-0.726454
-0.539192
-0.564246
-0.708001
-0.763812
-0.670049
-0.561353
-0.57178
-0.569644
-0.668486
-0.710472
-0.506356
-0.533015
-0.481272
-0.712938
-0.598224
-0.461764
-0.663262
-0.510469
-0.456901
-0.659392
-0.585152
-0.389673
-0.448099
-0.4206
-0.429473
-0.4566
-0.35126
-0.144943
-0.247653
-0.224599
-0.271697
-0.211379
-0.33298
-0.457094
-0.208817
-0.37303
-0.316224
-0.331327
-0.579745
-0.223779
-0.453865
-0.430447
-0.179866
-0.426832
-0.333286
-0.332946
-0.474096
-0.569921
-0.490694
-0.485915
-0.480264
-0.57033
-0.800481
-0.72802
-0.723753
-0.646604
-0.734168
-0.794906
-0.729599
-0.670894
-0.398744
-0.594086
-0.431576
-0.594448
-0.672632
-0.430624
-0.559602
-0.487634
-0.469515
-0.476223
-0.558836
-0.806295
-0.73827
-0.651643
-0.743325
-0.73928
-0.734814
-0.810881
-0.766446
-0.672777
-0.686551
-0.685165
-0.768503
-0.878083
-0.716473
-0.953225
-0.70597
-0.702382
-0.949798
-0.881246
-0.756752
-0.664286
-0.673098
-0.675553
-0.753882
-0.688129
-0.769793
-0.708713
-0.482973
-0.573182
-0.742139
-0.747228
0.314672
0.348896
0.230761
0.434095
0.245623
0.296329
0.452361
0.233304
0.121124
0.164327
0.0281549
0.152757
0.248858
0.10481
0.331227
0.360772
0.269181
0.482356
0.258102
0.346056
0.468404
0.216894
0.125613
0.0159081
0.0720151
0.140098
0.088939
0.199019
0.216043
0.414799
0.277188
0.111473
0.0552482
0.180742
-0.468619
-0.402492
-0.401498
-0.390932
-0.471295
-0.613231
-0.483683
-0.552524
-0.462474
-0.515495
-0.597562
-0.568635
-0.514468
-0.252206
-0.440706
-0.307846
-0.422927
-0.525973
-0.290395
-0.453421
-0.408429
-0.390784
-0.396854
-0.450469
-0.629147
-0.597401
-0.486242
-0.564451
-0.542065
-0.584174
-0.643699
-0.669259
-0.573828
-0.590511
-0.587192
-0.673281
-0.779267
-0.631104
-0.853604
-0.624777
-0.617069
-0.844054
-0.786608
-0.66463
-0.567548
-0.572588
-0.575271
-0.664052
-0.679608
-0.587547
-0.594158
-0.598409
-0.674977
-0.802554
-0.653228
-0.863351
-0.632023
-0.638303
-0.872018
-0.794879
-0.697092
-0.604451
-0.621675
-0.618102
-0.701728
-0.479382
-0.419866
-0.396144
-0.407173
-0.476379
-0.690524
-0.637368
-0.647478
-0.553044
-0.622758
-0.704434
-0.636341
-0.55471
-0.305091
-0.457777
-0.321005
-0.477985
-0.540079
-0.337652
-0.50125
-0.428402
-0.428435
-0.417346
-0.504009
-0.675232
-0.61114
-0.538473
-0.587637
-0.606474
-0.623624
-0.660572
0.0496012
0.0311774
0.063393
-0.0134669
0.0816346
-0.00221457
0.0341041
0.0974549
0.127927
0.193232
0.125389
0.1249
0.14621
0.080436
-0.638135
-0.558124
-0.621116
-0.550982
-0.631058
-0.450635
-0.45634
-0.61392
-0.540039
-0.616948
-0.544951
-0.623825
-0.44475
-0.439368
-0.639654
-0.644455
-0.563599
-0.649617
-0.567276
-0.466201
-0.461918
-0.645121
-0.660444
-0.577763
-0.655052
-0.571983
-0.470771
-0.475225
-0.426137
-0.454532
-0.486618
-0.403254
-0.358356
-0.230957
-0.26376
-0.479377
-0.302223
-0.223827
-0.375678
-0.361486
-0.248478
-0.165423
-0.533178
-0.508743
-0.557951
-0.484052
-0.510038
-0.560071
-0.570738
-0.50497
-0.588177
-0.669259
-0.647875
-0.617279
-0.469857
-0.421444
-0.424553
-0.462834
-0.559687
-0.498298
-0.51013
-0.529663
-0.518709
-0.382574
-0.347871
-0.556563
-0.555857
-0.505565
-0.546976
-0.51008
-0.388621
-0.391713
-0.679451
-0.595182
-0.491746
-0.662712
-0.676401
-0.59232
-0.672618
-0.587801
-0.485765
-0.488994
-0.658823
-0.665119
-0.581985
-0.668803
-0.584378
-0.482538
-0.47947
-0.58246
-0.583501
-0.514554
-0.518667
-0.591117
-0.418995
-0.414402
-0.590615
-0.533104
-0.608503
-0.525074
-0.599744
-0.425458
-0.43199
-0.561426
-0.573892
-0.508557
-0.566299
-0.50376
-0.402931
-0.406578
-0.557055
-0.557545
-0.505455
-0.559716
-0.501831
-0.399376
-0.400433
-0.652096
-0.637617
-0.601885
-0.615224
-0.655988
-0.597775
-0.633671
-0.543773
-0.466123
-0.464474
-0.455958
-0.545053
-0.649613
-0.61154
-0.590927
-0.626312
-0.594958
-0.630143
-0.645431
-0.577884
-0.480584
-0.481934
-0.397584
-0.367044
-0.396686
-0.580582
-0.486158
-0.484379
-0.39238
-0.363708
-0.393087
-0.662528
-0.640514
-0.604928
-0.625773
-0.65877
-0.643738
-0.608286
-0.550767
-0.479818
-0.461187
-0.468802
-0.549349
-0.665355
-0.628399
-0.650074
-0.614036
-0.646682
-0.610479
-0.668941
-0.568583
-0.476996
-0.474084
-0.37957
-0.352239
-0.381088
-0.563881
-0.466404
-0.468735
-0.389155
-0.357782
-0.38734
-0.738449
-0.645472
-0.660737
-0.658427
-0.741993
-0.733373
-0.729485
-0.735463
-0.738915
-1.16702
-1.15041
-1.08468
-1.06933
-1.07313
-1.15314
-1.16372
-1.37886
-1.57265
-1.37657
-1.17036
-1.08769
-1.0779
-1.15887
-1.07599
-1.15659
-1.17273
-1.36924
-1.56834
-1.37273
-0.747433
-0.654964
-0.663381
-0.666333
-0.744068
-0.746336
-0.749172
-0.744409
-0.740982
-1.1575
-1.14674
-1.07563
-1.06636
-1.14385
-1.16036
-1.06416
-1.35577
-1.55389
-1.35924
-1.1543
-1.0725
-1.13697
-1.0571
-1.14015
-1.06112
-1.15075
-1.36542
-1.55801
-1.36284
-0.723498
-0.727312
-0.723651
-0.632003
-0.6397
-0.643373
-0.719309
-0.720998
-0.716558
-1.12771
-1.11731
-1.03898
-1.04719
-1.03604
-1.13145
-1.11375
-1.51907
-1.32245
-1.32662
-1.33466
-1.52434
-1.33119
-1.12381
-1.04318
-1.02756
-1.10556
-1.03216
-1.10924
-1.11961
-1.13995
-1.05862
-1.12205
-1.0428
-1.12556
-1.04732
-1.13575
-1.35177
-1.54313
-1.34871
-1.14409
-1.06252
-1.13302
-1.05369
-1.14729
-1.12999
-1.05103
-1.33958
-1.53775
-1.34392
-0.712077
-0.619492
-0.636236
-0.633092
-0.716589
-0.706946
-0.70213
-0.709459
-0.713867
-0.633294
-0.574745
-0.595361
-0.609602
-0.579534
-0.628292
-0.614117
-0.527084
-0.459628
-0.438572
-0.448209
-0.524854
-0.637093
-0.599044
-0.587436
-0.622852
-0.641863
-0.58265
-0.618194
-0.535838
-0.448556
-0.444745
-0.349749
-0.323897
-0.352267
-0.529854
-0.434295
-0.437934
-0.362875
-0.331232
-0.360364
-0.619231
-0.570659
-0.605561
-0.580577
-0.624424
-0.565171
-0.600209
-0.517354
-0.442395
-0.442339
-0.431797
-0.519625
-0.615542
-0.575787
-0.555721
-0.59017
-0.56134
-0.595454
-0.609991
-0.549095
-0.453606
-0.456121
-0.375897
-0.345105
-0.37441
-0.553113
-0.462694
-0.460095
-0.367546
-0.34021
-0.369093
-0.347561
-0.368739
-0.352324
-0.359688
-0.36051
-0.342813
-0.353418
-0.442282
-0.48521
-0.453173
-0.458102
-0.460274
-0.329771
-0.334029
-0.380635
-0.360978
-0.328445
-0.330309
-0.372082
-0.424725
-0.360495
-0.358795
-0.230239
-0.189177
-0.225031
-0.423425
-0.342746
-0.345576
-0.211369
-0.177652
-0.215384
-0.429982
-0.414683
-0.399538
-0.4417
-0.408579
-0.435053
-0.417001
-0.450895
-0.428277
-0.422069
-0.420815
-0.439937
-0.464895
-0.456656
-0.476757
-0.451354
-0.461586
-0.438954
-0.48402
-0.38596
-0.395576
-0.399885
-0.240832
-0.188773
-0.23587
-0.382734
-0.421319
-0.423599
-0.219493
-0.178875
-0.224394
-0.69697
-0.563493
-0.57062
-0.558311
-0.691688
-0.700789
-0.700391
-0.692182
-0.686379
-1.06504
-1.0717
-0.978773
-0.950658
-0.954582
-1.06621
-1.06483
-1.24284
-1.4242
-1.24283
-1.067
-0.982826
-0.961554
-1.06074
-0.960928
-1.06647
-1.06489
-1.22977
-1.41221
-1.23372
-0.676872
-0.570195
-0.566169
-0.570016
-0.680619
-0.6688
-0.66665
-0.674255
-0.678293
-1.05556
-1.06823
-0.969591
-0.942488
-1.07287
-1.05798
-0.935923
-1.17652
-1.34816
-1.1864
-1.04604
-0.958398
-1.06922
-0.905903
-1.06809
-0.921609
-1.03978
-1.21518
-1.37843
-1.20738
-0.641091
-0.507149
-0.554725
-0.60047
-0.751797
-0.72754
-0.705039
-0.774416
-0.721019
-0.663817
-0.690019
-0.682162
-0.69503
-0.663984
-0.616382
-0.730367
-0.391286
-0.452773
-0.433214
-0.409197
-0.320512
-0.290135
-0.290882
-0.32026
-0.345782
-0.336056
-0.36197
-0.317424
-0.353196
-0.385588
-0.387976
-0.351782
-0.498857
-0.446755
-0.54288
-0.404148
-0.53963
-0.52443
-0.538846
-0.508548
-0.605944
-0.624371
-0.643653
-0.603254
-0.441552
-0.331994
-0.35701
-0.4142
-0.683452
-0.694283
-0.685983
-0.533737
-0.501409
-0.457991
-0.670839
-0.657981
-0.642312
-0.633858
-0.550079
-0.934294
-0.609679
-0.49699
-0.886754
-0.681349
-0.650817
-0.67877
-0.672425
-0.6962
-0.633535
-0.665831
-0.66471
-0.670472
-0.647076
-0.854511
-0.726648
-0.66199
-0.58997
-0.974801
-0.837074
-0.979966
-0.716032
-1.01092
-0.780487
-0.936741
-1.13912
-1.27301
-1.10519
-1.00344
-0.885446
-1.06111
-0.871664
-1.02806
-1.04227
-0.833002
-0.979372
-1.20032
-1.04469
-0.575524
-0.533216
-0.592144
-0.475623
-0.56086
-0.741246
-0.60502
-0.62306
-0.607258
-0.7317
-0.645092
-0.530318
-0.318739
-0.377385
-0.318695
-0.477619
-0.386823
-0.448824
-0.430985
-0.489666
-0.384602
-0.449278
-0.394746
-0.447477
-0.382242
-0.432543
-0.379821
-0.420848
-0.461365
-0.404757
-0.258863
-0.218953
-0.371732
-0.230008
-0.286012
-0.245374
-0.263409
-0.263405
-0.241148
-0.26654
-0.302755
-0.282897
-0.291403
-0.240619
-0.282516
-0.217083
-0.2062
-0.229034
-0.346239
-0.236536
-0.384855
-0.588667
-0.391973
-0.330202
-0.335521
-0.378553
-0.431883
-0.524117
-0.401939
-0.453369
-0.599738
-0.356831
-0.301198
-0.379871
-0.306922
-0.386542
-0.278083
-0.375189
-0.284866
-0.242092
-0.273171
-0.37475
-0.416531
-0.378302
-0.223464
-0.231146
-0.273877
-0.683067
-0.662256
-0.626233
-0.646651
-0.680507
-0.62828
-0.664242
-0.567664
-0.494359
-0.477638
-0.483498
-0.566967
-0.684915
-0.648093
-0.631842
-0.668089
-0.6295
-0.665988
-0.687314
-0.591588
-0.49644
-0.494328
-0.400192
-0.371806
-0.401029
-0.587956
-0.488773
-0.490125
-0.407074
-0.376079
-0.405893
-0.675985
-0.660404
-0.639848
-0.624186
-0.678714
-0.657643
-0.62126
-0.563176
-0.48396
-0.480621
-0.47394
-0.563628
-0.674485
-0.637138
-0.652509
-0.616607
-0.671502
-0.655162
-0.619305
-0.597321
-0.498763
-0.498891
-0.410254
-0.380577
-0.410526
-0.598593
-0.500321
-0.499767
-0.409067
-0.379023
-0.408726
-0.765175
-0.671853
-0.681014
-0.683308
-0.762612
-0.763384
-0.765465
-0.761976
-0.759382
-1.18075
-1.16946
-1.09774
-1.08761
-1.08611
-1.16727
-1.18282
-1.38203
-1.5811
-1.38479
-1.17829
-1.09543
-1.0805
-1.16195
-1.08384
-1.1755
-1.16441
-1.38933
-1.58428
-1.38751
-0.758482
-0.664928
-0.679118
-0.677558
-0.76117
-0.753786
-0.750811
-0.755308
-0.757901
-1.18803
-1.17233
-1.08981
-1.10464
-1.17436
-1.18548
-1.09296
-1.59572
-1.39971
-1.39814
-1.3923
-1.59222
-1.39507
-1.1907
-1.10692
-1.17863
-1.09636
-1.17702
-1.09513
-1.1923
-0.766642
-1.40213
-1.181
-1.09827
-1.19445
-0.633382
-0.669413
-0.688843
-0.411192
-0.501419
-0.54686
-0.519172
-0.489654
-0.505185
-0.540008
-0.495674
-0.525797
-0.464745
-0.40959
-0.387916
-0.397455
-0.462293
-0.552918
-0.509601
-0.506662
-0.538433
-0.500226
-0.531448
-0.559583
-0.4414
-0.355337
-0.350591
-0.236539
-0.209906
-0.241583
-0.435407
-0.341639
-0.343548
-0.262397
-0.224265
-0.256247
-0.524992
-0.513384
-0.487785
-0.484342
-0.533083
-0.505574
-0.477987
-0.456314
-0.399331
-0.396086
-0.387717
-0.458629
-0.515611
-0.482698
-0.488641
-0.462818
-0.502758
-0.498346
-0.471768
-0.45899
-0.363614
-0.368604
-0.296265
-0.261314
-0.291566
-0.465174
-0.381574
-0.376518
-0.273979
-0.249319
-0.279347
-0.668147
-0.574285
-0.581048
-0.584016
-0.664565
-0.668057
-0.67196
-0.666922
-0.663164
-1.06734
-1.05807
-0.98768
-0.974258
-0.973047
-1.05895
-1.06878
-1.24913
-1.43314
-1.25023
-1.06467
-0.984042
-0.96698
-1.06015
-0.968824
-1.06488
-1.05669
-1.25912
-1.44208
-1.25704
-0.662405
-0.56359
-0.578883
-0.576777
-0.664629
-0.662797
-0.66254
-0.660832
-0.662721
-1.07699
-1.06307
-0.97872
-0.995474
-1.06413
-1.07375
-0.982449
-1.46604
-1.2796
-1.27696
-1.26671
-1.45858
-1.27047
-1.08098
-1.00018
-1.07015
-0.989877
-1.06858
-0.987381
-1.08364
-0.681815
-0.58805
-0.605868
-0.602248
-0.686662
-0.677901
-0.673311
-0.679812
-0.684476
-1.10747
-1.0268
-1.01079
-1.08922
-1.01559
-1.09273
-1.1029
-1.31769
-1.5064
-1.31412
-1.11202
-1.03145
-1.02329
-1.10106
-1.02009
-1.11573
-1.09774
-1.30374
-1.50009
-1.30848
-0.694333
-0.602768
-0.609825
-0.614045
-0.689321
-0.694975
-0.699668
-0.69229
-0.687152
-1.09435
-1.00629
-1.08401
-1.01464
-1.08091
-1.09815
-1.00331
-1.47829
-1.28494
-1.28871
-1.29776
-1.48458
-1.29413
-1.0905
-1.01027
-1.07398
-0.9947
-1.08684
-1.07652
-0.998954
-0.576763
-0.529515
-0.562746
-0.534716
-0.582978
-0.522962
-0.556072
-0.484614
-0.414414
-0.414729
-0.403107
-0.487622
-0.571955
-0.529302
-0.511871
-0.544029
-0.565543
-0.518372
-0.5504
-0.508887
-0.414802
-0.418936
-0.34433
-0.312687
-0.341752
-0.514536
-0.428915
-0.425084
-0.33081
-0.305263
-0.333801
-0.594151
-0.553766
-0.534547
-0.567967
-0.587967
-0.540757
-0.573884
-0.496317
-0.433509
-0.410305
-0.421512
-0.4933
-0.599089
-0.558563
-0.55113
-0.585394
-0.60516
-0.544952
-0.579199
-0.490979
-0.407639
-0.40254
-0.304486
-0.280136
-0.308722
-0.483846
-0.388776
-0.393898
-0.32363
-0.290476
-0.319684
0.0167354
0.00516256
-0.000951348
0.00127637
0.00384572
0.00198017
0.00173486
0.00186028
0.00170345
0.00117496
0.00175863
0.00134108
0.00104682
0.000716297
0.0012007
0.000812109
0.000618612
0.000356145
0.000696298
0.000393965
0.000279267
7.97181e-05
0.000307665
8.93019e-05
2.39278e-05
-0.000115084
2.89325e-05
-0.000117991
-0.000152376
-0.000238916
-0.000156528
-0.000243567
-0.000259291
-0.000297687
-0.000263762
-0.000300396
-0.000303676
-0.00030129
-0.000305156
-0.000298658
-0.000294287
-0.000256736
-0.000290031
-0.000245962
-0.000238128
-0.000163697
-0.000225585
-0.000149661
-0.000133142
-1.94055e-05
-0.000120247
-1.76567e-05
-0.058564
-0.0145574
-0.0239946
-0.00204815
-0.00770019
0.000263831
0.000939071
0.00406278
0.00124657
0.00196359
0.00419537
0.00361449
0.00189679
0.00147081
0.00326211
0.00221201
0.0013149
0.000880958
0.00191274
0.00118625
0.000752767
0.000422585
0.000993831
0.000534793
0.000329696
9.74619e-05
0.000414071
0.000126875
3.39859e-05
-0.000119418
5.17312e-05
-0.000123859
-0.000159482
-0.000249993
-0.000168295
-0.000265799
-0.000271196
-0.000310519
-0.000287906
-0.000326602
-0.000316108
-0.000312797
-0.000331415
-0.00032435
-0.000305603
-0.000266125
-0.000315403
-0.000268997
-0.000247018
-0.000169977
-0.000247292
-0.000165254
-0.000137321
-2.05671e-05
-0.000132211
-1.98324e-05
-0.0055376
0.00494349
0.0918352
0.0428563
0.0059008
0.00611497
0.0334643
0.0166847
0.00581873
0.00446143
0.0134979
0.00742396
0.00393323
0.00253293
0.00612126
0.00346045
0.00216268
0.00130336
0.00286551
0.00160684
0.00108405
0.000573675
0.00131078
0.000659124
0.000442399
0.000134946
0.000499813
0.000140457
5.56877e-05
-0.000127585
5.10684e-05
-0.000149687
-0.000173428
-0.000273131
-0.000198359
-0.000300979
-0.000295443
-0.000333793
-0.000323029
-0.000358066
-0.000338254
-0.000329961
-0.000360907
-0.00034744
-0.000320642
-0.000274497
-0.000336625
-0.00028569
-0.000253491
-0.000172077
-0.000262871
-0.000175435
-0.000138385
-2.05786e-05
-0.000139767
-2.0484e-05
0.0420718
0.0191244
0.0152064
0.0081103
0.00663525
0.00367293
0.00302226
0.00166635
0.00135228
0.000668598
0.000503207
0.000133143
4.18801e-05
-0.000161544
-0.000210416
-0.00031237
-0.000333857
-0.00036683
-0.000368908
-0.000353448
-0.000341963
-0.000289234
-0.000265853
-0.000176893
-0.000140856
-2.05961e-05
0.0347548
0.133816
0.034698
0.0140682
0.0814721
0.0153413
0.0787086
0.00411304
0.000402492
0.00083944
0.00693349
-0.00149698
-0.00602932
-0.00410186
0.00103747
0.00100303
0.000953493
-0.00216112
-0.00240942
-0.00349836
-0.00241697
0.000504051
0.000902786
0.000672245
-0.00226086
-0.00174934
-0.00215249
-0.00158211
0.000257718
0.00059051
0.000354386
-0.00159541
-0.00122942
-0.00144308
-0.00113419
4.86077e-05
0.000281617
8.73626e-05
-0.00113709
-0.000929399
-0.00105884
-0.000890037
-0.000123929
3.07839e-05
-0.00011384
-0.000878247
-0.000763857
-0.000848567
-0.00075338
-0.000248608
-0.000154069
-0.000251217
-0.000734412
-0.000665129
-0.000728821
-0.000667562
-0.000325806
-0.000276242
-0.000330052
-0.000645693
-0.000594468