/*--------------------------------*- C++ -*----------------------------------*\
| =========                 |                                                 |
| \\      /  F ield         | OpenFOAM: The Open Source CFD Toolbox           |
|  \\    /   O peration     | Version:  2012                                  |
|   \\  /    A nd           | Website:  www.openfoam.com                      |
|    \\/     M anipulation  |                                                 |
\*---------------------------------------------------------------------------*/
FoamFile
{
    version     2.0;
    format      ascii;
    class       surfaceScalarField;
    location    "0.105/fluid";
    object      phi;
}
// * * * * * * * * * * * * * * * * * * * * * * * * * * * * * * * * * * * * * //

dimensions      [0 3 -1 0 0 0 0];
oriented        oriented;


internalField   nonuniform List<scalar> 
47129
(
-0.00113784
2.48498e-05
-0.000224298
-3.07212e-05
0.00136802
-0.00149255
1.85861e-05
7.32004e-07
-2.0505e-05
0.00149363
1.16722e-05
-0.00150897
0.00151289
-3.5803e-06
-1.21944e-05
7.12388e-06
-0.00151986
0.00152132
-1.48607e-06
-7.31498e-06
4.33992e-06
-0.0015243
0.00152498
-8.60463e-07
-4.42908e-06
2.65573e-06
-0.00152646
0.00152682
-6.38509e-07
-2.70633e-06
1.63669e-06
-0.00152766
0.00152788
-5.42582e-07
-1.66803e-06
1.02086e-06
-0.00152841
0.00152856
-4.97543e-07
-1.03825e-06
6.37226e-07
-0.00152893
0.00152902
-4.70312e-07
-6.4912e-07
3.95766e-07
-0.00152925
0.00152931
-4.218e-07
-4.03949e-07
2.47745e-07
-0.00152948
0.00152953
-3.57593e-07
-2.52597e-07
1.5302e-07
-0.00152967
0.00152971
-2.82627e-07
-1.56422e-07
9.41845e-08
-0.00152982
0.00152987
-2.1675e-07
-1.00028e-07
5.5701e-08
-0.00152998
0.00153002
-1.37272e-07
-5.66811e-08
1.70236e-05
2.7892e-06
0.00168162
-2.759e-06
-1.10581e-05
9.3171e-05
-0.00156129
1.75342e-05
-2.01507e-05
0.00153577
-6.4954e-05
1.55745e-05
2.80134e-05
-0.00151776
-1.65349e-05
0.00151891
-2.83399e-05
1.07415e-05
1.0693e-05
-0.00152285
0.00152391
-1.18236e-05
-1.10328e-05
6.85457e-06
5.2993e-06
-0.00152642
0.00152707
-6.21378e-06
-6.99628e-06
4.26753e-06
3.37721e-06
-0.00152852
0.00152888
-4.07482e-06
-4.34431e-06
2.61025e-06
2.59709e-06
-0.00152966
0.00152984
-3.17029e-06
-2.65763e-06
1.57692e-06
2.21899e-06
-0.00153021
0.00153029
-2.72695e-06
-1.60333e-06
9.32303e-07
1.98932e-06
-0.00153051
0.00153057
-2.44939e-06
-9.49381e-07
5.39292e-07
1.80037e-06
-0.00153066
0.00153066
-2.20332e-06
-5.49203e-07
2.95008e-07
1.55735e-06
-0.00153059
0.00153056
-1.90082e-06
-3.01676e-07
1.53279e-07
1.29118e-06
-0.00153048
0.00153046
-1.57461e-06
-1.53264e-07
8.00735e-08
1.03206e-06
-0.00153046
0.00153047
-1.2683e-06
-8.24193e-08
4.92337e-08
7.3708e-07
-0.00153053
0.00153056
-9.04539e-07
-4.99394e-08
3.78498e-08
3.91654e-07
-0.00153062
0.00153062
-4.75032e-07
-3.8468e-08
5.25019e-06
1.37646e-06
0.00161171
1.67989e-06
-5.68039e-06
-0.00157566
1.53726e-05
2.27113e-05
-1.14717e-05
-1.65202e-05
0.00156465
1.30647e-05
1.86903e-05
-0.00154612
0.00154296
-1.61882e-05
-1.34007e-05
9.18516e-06
1.20352e-05
-0.00153748
0.00153641
-1.1801e-05
-9.24349e-06
6.02785e-06
7.86912e-06
-0.00153441
0.00153402
-8.12696e-06
-6.10118e-06
3.80722e-06
5.71113e-06
-0.00153333
0.00153319
-6.09528e-06
-3.8597e-06
2.32968e-06
4.66143e-06
-0.00153288
0.00153278
-5.05e-06
-2.36537e-06
1.35793e-06
4.08331e-06
-0.00153251
0.00153242
-4.45602e-06
-1.38431e-06
7.35611e-07
3.66221e-06
-0.00153206
0.00153195
-4.00303e-06
-7.53207e-07
3.6589e-07
3.27862e-06
-0.00153156
0.00153142
-3.58526e-06
-3.72678e-07
1.44311e-07
2.81638e-06
-0.00153101
0.00153088
-3.09684e-06
-1.46762e-07
2.68358e-08
2.35942e-06
-0.00153064
0.00153061
-2.59708e-06
-3.03754e-08
-8.43434e-09
1.91066e-06
-0.00153057
0.00153057
-2.10101e-06
3.78831e-09
-8.39397e-09
1.35343e-06
-0.00153062
0.00153066
-1.48576e-06
6.72817e-09
1.14184e-08
6.93287e-07
-0.00153071
0.00153072
-7.53565e-07
-1.2161e-08
2.48761e-06
-1.52031e-05
0.000420412
1.9938e-05
-2.09316e-06
-0.00154604
2.06945e-05
-8.72558e-06
1.07683e-05
-2.57489e-05
0.00154803
-0.00154512
1.22395e-05
1.03243e-05
-1.22565e-05
-1.24784e-05
0.00154603
7.62841e-06
1.02143e-05
-0.00154486
0.00154364
-1.00128e-05
-7.628e-06
4.91336e-06
8.28145e-06
-0.00154064
0.00153982
-8.23188e-06
-4.95076e-06
3.06303e-06
6.79694e-06
-0.00153792
0.00153742
-6.8782e-06
-3.10519e-06
1.84098e-06
5.84716e-06
-0.00153623
0.00153588
-1.86917e-06
1.00691e-06
5.25642e-06
-0.00153489
0.00153458
-1.02783e-06
4.62735e-07
4.77769e-06
-0.0015337
0.00153342
-4.79178e-07
1.48369e-07
4.32678e-06
-0.0015326
0.00153236
-1.54714e-07
-2.12515e-08
3.8652e-06
-0.00153173
0.00153156
1.69364e-08
-8.90383e-08
3.22832e-06
-0.00153119
0.0015311
8.62045e-08
-9.34769e-08
2.57299e-06
-0.00153089
0.00153086
9.31368e-08
-7.3146e-08
1.77809e-06
-0.00153082
0.00153083
7.09573e-08
-2.31277e-08
8.98002e-07
-0.00153087
0.00153087
2.20759e-08
-0.00121002
5.78412e-05
-0.000172947
-8.22902e-05
0.00140744
-0.00152009
2.63157e-05
3.46539e-06
-2.27158e-05
0.00151295
1.31782e-05
-0.00151796
0.00152056
-2.62439e-06
-1.32923e-05
7.42609e-06
-0.00152459
0.00152537
-1.10147e-06
-7.26533e-06
4.39383e-06
-0.0015269
0.00152723
-6.46774e-07
-4.26745e-06
2.66417e-06
-0.00152795
0.00152813
-4.88999e-07
-2.57932e-06
1.63609e-06
-0.00152856
0.00152868
-4.29082e-07
-1.58476e-06
1.01798e-06
-0.00152898
0.00152906
-4.02796e-07
-9.8325e-07
6.3637e-07
-0.00152928
0.00152933
-3.82932e-07
-6.15401e-07
4.0018e-07
-0.00152947
0.00152951
-3.49997e-07
-3.87334e-07
2.52129e-07
-0.00152961
0.00152964
-2.98281e-07
-2.4404e-07
1.56602e-07
-0.00152973
0.00152976
-2.34415e-07
-1.53785e-07
9.39054e-08
-0.00152986
0.0015299
-1.822e-07
-9.13453e-08
5.54995e-08
-0.00153001
0.00153005
-1.26996e-07
-5.38861e-08
1.57795e-05
2.67065e-06
0.00163668
-2.41477e-06
-1.00638e-05
6.16029e-05
-0.00155454
3.16374e-05
-3.32339e-05
0.00153865
-4.40052e-05
1.93352e-05
1.93457e-05
-0.00152701
-1.94028e-05
0.00152744
-1.98305e-05
1.14501e-05
7.8141e-06
-0.00152899
0.00152937
-8.7196e-06
-1.12544e-05
6.94945e-06
4.04717e-06
-0.00153015
0.00153032
-4.7702e-06
-6.76051e-06
4.24876e-06
2.62477e-06
-0.00153065
0.00153072
-3.18085e-06
-4.10989e-06
2.58886e-06
2.02938e-06
-0.00153085
0.00153088
-2.49993e-06
-2.50069e-06
1.55976e-06
1.75182e-06
-0.00153089
0.00153088
-2.16508e-06
-1.50581e-06
9.26398e-07
1.58582e-06
-0.00153085
0.00153084
-1.9569e-06
-8.93221e-07
5.36154e-07
1.44456e-06
-0.00153078
0.00153076
-1.77328e-06
-5.19153e-07
3.00185e-07
1.26686e-06
-0.00153065
0.0015306
-1.54666e-06
-2.91061e-07
1.54868e-07
1.06855e-06
-0.0015305
0.00153048
-1.30267e-06
-1.50735e-07
8.35562e-08
8.63897e-07
-0.00153046
0.00153047
-1.05695e-06
-8.1146e-08
4.90115e-08
6.24762e-07
-0.00153055
0.00153058
-7.6977e-07
-4.77578e-08
3.78578e-08
3.39185e-07
-0.00153067
0.00153068
-4.09817e-07
-3.71692e-08
4.61754e-06
3.80434e-06
0.00158833
-3.94883e-06
-3.92622e-06
-0.00157016
1.55766e-05
1.86345e-05
-1.42729e-05
-1.43128e-05
0.00156372
1.30216e-05
1.44706e-05
-0.00154995
0.001547
-1.30867e-05
-1.23834e-05
8.9656e-06
9.37291e-06
-0.00154115
0.00153985
-9.27305e-06
-8.6208e-06
5.88802e-06
6.21562e-06
-0.00153707
0.00153642
-6.48199e-06
-5.66245e-06
3.72638e-06
4.57479e-06
-0.00153499
0.00153465
-4.91698e-06
-3.58372e-06
2.28695e-06
3.74585e-06
-0.0015338
0.00153357
-4.07877e-06
-2.20081e-06
1.34263e-06
3.29393e-06
-0.00153295
0.00153276
-3.60678e-06
-1.29585e-06
7.41162e-07
2.97371e-06
-0.00153222
0.00153204
-3.26186e-06
-7.16154e-07
3.67488e-07
2.66629e-06
-0.00153155
0.00153139
-2.93022e-06
-3.56859e-07
1.5036e-07
2.30158e-06
-0.00153093
0.0015308
-2.53803e-06
-1.49329e-07
4.04875e-08
1.93274e-06
-0.0015305
0.00153046
-2.14005e-06
-4.18371e-08
-1.39687e-10
1.60157e-06
-0.00153046
0.00153049
-1.76441e-06
-1.56226e-10
-2.35765e-09
1.17797e-06
-0.00153062
0.00153067
-1.28831e-06
2.01529e-09
1.43398e-08
5.96834e-07
-0.00153077
0.00153079
-6.50371e-07
-1.44405e-08
1.46431e-05
2.48404e-06
0.00158409
-2.83546e-06
-9.00251e-06
1.65197e-05
-0.00157059
7.16704e-06
-6.9662e-06
0.00156707
-1.40186e-05
1.12518e-05
9.30711e-06
-0.00155684
-9.23377e-06
0.00155427
-9.96308e-06
7.08829e-06
8.36643e-06
-0.00154829
0.00154666
-8.17212e-06
-6.68134e-06
4.66859e-06
6.76409e-06
-0.00154272
0.00154168
-6.73577e-06
-4.45317e-06
2.98481e-06
5.55439e-06
-0.00153919
0.00153853
-5.6425e-06
-2.8608e-06
1.80271e-06
4.79443e-06
-0.00153688
0.00153641
-4.93572e-06
-1.73055e-06
9.99268e-07
4.33007e-06
-0.00153515
0.00153477
-4.48187e-06
-9.63519e-07
4.73266e-07
3.97213e-06
-0.00153371
0.00153339
-4.60474e-07
1.58213e-07
3.59524e-06
-0.00153248
0.00153221
-1.57623e-07
-7.31752e-09
3.1995e-06
-0.00153152
0.00153134
5.38998e-09
-7.43914e-08
2.69825e-06
-0.00153095
0.00153086
7.01812e-08
-8.73996e-08
2.18441e-06
-0.00153069
0.00153067
8.25773e-08
-6.45978e-08
1.51197e-06
-0.00153071
0.00153074
6.25861e-08
-1.91288e-08
7.47456e-07
-0.00153084
0.00153085
1.85916e-08
6.20774e-05
0.00159499
-2.77443e-05
-1.17648e-06
4.32925e-05
-0.00152357
-9.68901e-06
0.00152549
-3.55632e-05
2.38012e-05
-0.00152839
-3.41852e-06
0.00152814
-2.02175e-05
1.11062e-05
-0.0015289
0.00152907
-1.37656e-06
-1.00048e-05
6.1208e-06
-0.00152922
0.00152923
-7.16562e-07
-5.52837e-06
3.56079e-06
-0.00152923
0.00152923
-4.60716e-07
-3.22284e-06
2.14253e-06
-0.00152925
0.00152927
-3.64502e-07
-1.94066e-06
1.31275e-06
-0.00152934
0.00152937
-3.2597e-07
-1.18866e-06
8.13089e-07
-0.00152945
0.00152948
-3.03031e-07
-7.35122e-07
5.09254e-07
-0.00152954
0.00152956
-2.86991e-07
-4.60195e-07
3.16221e-07
-0.00152962
0.00152964
-2.67905e-07
-2.85679e-07
2.03346e-07
-0.00152971
0.00152973
-2.36728e-07
-1.8375e-07
1.24925e-07
-0.00152981
0.00152983
-1.98002e-07
-1.13574e-07
7.60267e-08
-0.00152992
0.00152996
-1.69491e-07
-6.91849e-08
4.49704e-08
-0.00153007
0.0015301
-1.18104e-07
-4.07127e-08
2.25097e-06
1.00634e-05
0.00157563
-6.21974e-06
-3.25474e-06
2.34513e-05
1.71536e-05
-0.00155342
0.00154804
-1.53893e-05
-1.98407e-05
1.58962e-05
8.90716e-06
-0.00153942
0.00153797
-9.43083e-06
-1.40572e-05
9.41136e-06
4.69535e-06
-0.00153527
0.0015347
-5.38084e-06
-8.43579e-06
5.61123e-06
2.81502e-06
-0.00153344
0.00153312
-3.36343e-06
-5.06319e-06
3.38884e-06
1.94812e-06
-0.00153239
0.00153221
-2.39227e-06
-3.05917e-06
2.05689e-06
1.54877e-06
-0.00153177
0.00153166
-1.92399e-06
-1.85633e-06
1.23726e-06
1.34154e-06
-0.00153138
0.0015313
-1.67679e-06
-1.11559e-06
7.36075e-07
1.20709e-06
-0.00153109
0.00153103
-1.50684e-06
-6.64998e-07
4.3106e-07
1.09859e-06
-0.00153085
0.00153079
-1.35666e-06
-3.87079e-07
2.38459e-07
9.74526e-07
-0.00153063
0.00153058
-1.19723e-06
-2.14716e-07
1.24514e-07
8.15084e-07
-0.00153046
0.00153044
-1.00043e-06
-1.12623e-07
6.72897e-08
6.80977e-07
-0.00153041
0.00153042
-8.34876e-07
-6.07881e-08
4.08437e-08
5.28072e-07
-0.00153052
0.00153057
-6.43696e-07
-3.72141e-08
3.23229e-08
2.974e-07
-0.00153068
0.0015307
-3.57713e-07
-2.92223e-08
2.02545e-06
3.12383e-06
0.00156726
-3.34763e-06
-1.78436e-06
9.73669e-06
9.51475e-06
-0.00156053
-8.49467e-06
0.0015577
-8.36243e-06
9.48378e-06
8.69592e-06
-0.00155004
0.00154794
-8.33436e-06
-8.31518e-06
6.91994e-06
6.36898e-06
-0.00154296
0.00154168
-6.4761e-06
-6.17156e-06
4.58374e-06
4.60278e-06
-0.00153867
0.0015379
-4.8756e-06
-4.11244e-06
2.91369e-06
3.54878e-06
-0.00153609
0.00153561
-3.84262e-06
-2.61922e-06
1.79748e-06
2.97219e-06
-0.00153443
0.0015341
-3.25779e-06
-1.62046e-06
1.06219e-06
2.63307e-06
-0.00153325
0.001533
-2.90743e-06
-9.59668e-07
5.90287e-07
2.35758e-06
-0.00153228
0.00153207
-2.61013e-06
-5.3541e-07
3.02986e-07
2.10067e-06
-0.00153148
0.0015313
-2.33014e-06
-2.72861e-07
1.2318e-07
1.84589e-06
-0.00153083
0.0015307
-2.04409e-06
-1.12283e-07
3.57288e-08
1.53082e-06
-0.00153039
0.00153033
-1.70354e-06
-3.23115e-08
-5.0815e-10
1.27308e-06
-0.00153027
0.00153029
-1.40611e-06
1.65965e-10
-2.47421e-09
9.64855e-07
-0.00153047
0.00153055
-1.04972e-06
2.84647e-09
1.25699e-08
5.03752e-07
-0.00153074
0.00153078
-5.42497e-07
-1.06787e-08
2.24086e-06
4.04296e-06
0.00156917
-4.35426e-06
-1.59863e-06
7.01111e-06
6.46533e-06
-0.00156461
-6.34086e-06
0.00156258
-5.63241e-06
6.73579e-06
7.0683e-06
-0.00155621
0.00155419
-6.83475e-06
-5.74306e-06
5.10904e-06
6.33395e-06
-0.00154886
0.00154733
-6.20013e-06
-4.50638e-06
3.51719e-06
5.25111e-06
-0.00154351
0.00154245
-5.24921e-06
-3.1341e-06
2.28919e-06
4.39819e-06
-0.00153984
0.00153912
-4.47921e-06
-2.04724e-06
1.40453e-06
3.8742e-06
-0.00153729
0.00153675
-3.99762e-06
-1.26209e-06
7.93344e-07
3.54206e-06
-0.00153532
0.00153489
-3.6815e-06
-7.14966e-07
3.83255e-07
3.2239e-06
-0.00153368
0.00153332
-3.36386e-06
-3.48035e-07
1.3355e-07
2.92069e-06
-0.00153233
0.00153203
-3.06351e-06
-1.204e-07
1.57715e-09
2.56033e-06
-0.00153128
0.00153109
-2.70637e-06
-2.92939e-09
-5.49245e-08
2.1817e-06
-0.00153064
0.00153056
4.83798e-08
-6.53303e-08
1.7523e-06
-0.00153039
0.00153038
5.81195e-08
-5.3973e-08
1.27097e-06
-0.00153052
0.00153059
4.91137e-08
-1.56335e-08
6.05269e-07
-0.00153075
0.00153079
1.46263e-08
3.83316e-06
0.0015577
-1.89103e-06
-1.76682e-07
1.29235e-05
-0.00154758
-2.01223e-06
0.00154489
-8.34413e-06
9.58803e-06
-0.0015393
0.0015379
-1.18482e-06
-7.12411e-06
5.78977e-06
-0.00153462
0.00153382
-7.52528e-07
-4.34707e-06
3.35199e-06
-0.00153207
0.00153165
-4.89828e-07
-2.54284e-06
1.97324e-06
-0.00153076
0.00153056
-3.63941e-07
-1.50272e-06
1.19294e-06
-0.00153014
0.00153005
-3.00887e-07
-9.07383e-07
7.31716e-07
-0.00152989
0.00152985
-2.62027e-07
-5.54682e-07
4.51779e-07
-0.00152977
0.00152975
-2.38439e-07
-3.39791e-07
2.83484e-07
-0.00152972
0.00152971
-2.20591e-07
-2.12555e-07
1.73913e-07
-0.00152972
0.00152974
-2.13773e-07
-1.31287e-07
1.10568e-07
-0.00152979
0.00152981
-1.92297e-07
-8.37463e-08
7.02425e-08
-0.00152986
0.00152988
-1.65945e-07
-5.32542e-08
4.28606e-08
-0.00152996
0.00152999
-1.50666e-07
-3.22861e-08
2.48329e-08
-0.00153009
0.00153012
-1.07595e-07
-1.84854e-08
1.05455e-06
1.89685e-06
0.00155748
-1.73861e-06
-6.00482e-07
8.00887e-06
4.4779e-06
-0.0015517
0.00154954
-4.69082e-06
-5.75609e-06
7.37113e-06
3.78796e-06
-0.00154404
0.00154252
-4.31149e-06
-5.49856e-06
4.96189e-06
2.80679e-06
-0.00153881
0.00153784
-3.31046e-06
-3.73767e-06
3.06928e-06
2.02599e-06
-0.00153557
0.00153499
-2.45697e-06
-2.3308e-06
1.87041e-06
1.54965e-06
-0.00153362
0.00153327
-1.91069e-06
-1.42366e-06
1.13224e-06
1.27022e-06
-0.00153245
0.00153224
-1.58603e-06
-8.60319e-07
6.83362e-07
1.09851e-06
-0.00153175
0.00153162
-1.38426e-06
-5.16846e-07
4.06155e-07
9.63064e-07
-0.00153128
0.00153118
-1.21529e-06
-3.06464e-07
2.32403e-07
8.64614e-07
-0.00153091
0.00153083
-1.08224e-06
-1.7766e-07
1.28151e-07
7.72876e-07
-0.00153061
0.00153056
-9.59127e-07
-9.91929e-08
7.06935e-08
6.5817e-07
-0.00153042
0.00153039
-8.1346e-07
-5.4201e-08
3.80079e-08
5.57048e-07
-0.00153037
0.00153038
-6.8586e-07
-2.90355e-08
2.24783e-08
4.37687e-07
-0.00153048
0.00153053
-5.32439e-07
-1.67189e-08
1.77565e-08
2.45523e-07
-0.00153065
0.00153067
-2.93275e-07
-1.36825e-08
7.29818e-07
1.8311e-06
0.00155733
-2.03928e-06
-5.45216e-07
4.18059e-06
4.55946e-06
-0.00155454
0.00155317
-4.51543e-06
-3.09179e-06
4.66519e-06
5.00759e-06
-0.00154875
0.00154732
-5.08699e-06
-3.48999e-06
3.64173e-06
4.32967e-06
-0.00154344
0.00154231
-4.53355e-06
-2.74499e-06
2.46781e-06
3.49117e-06
-0.00153946
0.00153868
-3.74182e-06
-1.87579e-06
1.59127e-06
2.87277e-06
-0.00153673
0.00153619
-3.12651e-06
-1.21089e-06
9.86754e-07
2.48398e-06
-0.00153484
0.00153446
-2.73742e-06
-7.52512e-07
5.78744e-07
2.21104e-06
-0.00153345
0.00153315
-2.45664e-06
-4.38024e-07
3.25486e-07
1.96155e-06
-0.00153234
0.0015321
-2.18537e-06
-2.43022e-07
1.63976e-07
1.71883e-06
-0.00153145
0.00153127
-1.91848e-06
-1.23521e-07
6.82752e-08
1.50425e-06
-0.00153078
0.00153065
-1.67677e-06
-5.20153e-08
2.02496e-08
1.25979e-06
-0.0015303
0.00153023
-1.40638e-06
-1.57399e-08
4.76763e-10
1.03516e-06
-0.00153012
0.00153014
-1.14613e-06
-4.96196e-10
-1.64569e-09
7.80058e-07
-0.00153031
0.00153039
-8.52516e-07
1.09666e-09
5.60148e-09
4.19695e-07
-0.00153066
0.00153072
-4.54251e-07
-4.8176e-09
5.80115e-07
2.75324e-06
0.00156012
-2.96865e-06
-3.96626e-07
2.66137e-06
4.42995e-06
-0.00155819
0.00155713
-4.42585e-06
-1.92111e-06
3.11895e-06
5.06228e-06
-0.00155331
0.00155196
-4.97779e-06
-2.32609e-06
2.60941e-06
4.77343e-06
-0.00154803
0.0015468
-4.74412e-06
-1.96397e-06
1.86048e-06
4.16742e-06
-0.00154355
0.00154261
-4.20228e-06
-1.41022e-06
1.23815e-06
3.63476e-06
-0.00154013
0.00153941
-3.70284e-06
-9.39186e-07
7.70083e-07
3.2895e-06
-0.0015375
0.00153693
-3.38954e-06
-5.84598e-07
4.21525e-07
3.03537e-06
-0.00153538
0.00153491
-3.16682e-06
-3.17457e-07
2.03988e-07
2.73037e-06
-0.0015336
0.00153321
-2.86378e-06
-1.55108e-07
7.50374e-08
2.41476e-06
-0.00153217
0.00153187
-2.54092e-06
-5.78692e-08
6.0638e-10
2.09416e-06
-0.00153111
0.00153091
-2.2112e-06
-1.24008e-09
-2.56832e-08
1.78583e-06
-0.00153042
0.00153032
-1.89583e-06
1.92585e-08
-3.2222e-08
1.4668e-06
-0.00153018
0.00153019
-1.57161e-06
2.39422e-08
-2.77969e-08
1.07066e-06
-0.00153033
0.00153042
2.00847e-08
-1.08087e-08
5.20691e-07
-0.00153063
0.0015307
7.85267e-09
-2.89345e-05
0.00113532
-0.000411089
-0.00023701
-0.000122576
-0.000237118
-0.000121915
-2.3028e-06
-1.46458e-05
0.00174195
2.06438e-05
2.90224e-06
2.86197e-06
2.06295e-05
-1.73335e-05
0.00154946
-0.000119151
0.000161801
-0.00159002
-1.5274e-05
2.28805e-06
0.000421663
2.07291e-05
-2.46606e-05
-2.07245e-05
0.00154154
-0.00153915
2.28234e-05
-0.000406535
-3.7722e-05
-0.000237437
-0.000123425
-0.000237275
-0.000124343
0.00173424
-2.02755e-06
2.11427e-05
3.3685e-06
2.1086e-05
3.49302e-06
0.0015481
-0.000118189
0.000160071
-0.00158658
-2.05763e-05
-9.4323e-05
0.00117398
7.82711e-05
-0.000376183
-0.000245307
-0.000146802
-0.000248649
-0.000140941
-3.34413e-06
-1.73604e-05
1.94734e-06
0.00169647
2.08682e-05
4.78023e-06
4.1863e-06
2.0952e-05
-3.89668e-05
0.00154462
-9.63638e-05
3.17357e-05
0.000131532
-0.00157237
-1.99368e-05
-0.00154434
2.48465e-05
-3.20113e-05
-6.52616e-07
0.00159118
-2.76431e-06
7.0618e-06
7.54612e-06
8.08219e-06
6.29121e-06
2.68686e-06
0.00156904
-1.73258e-05
2.59706e-05
-0.00157454
-6.42679e-06
-0.000327714
-0.000125582
-0.000260048
-0.000159822
-0.000258791
-0.000172338
0.00167306
-7.29441e-06
1.95472e-05
4.48995e-06
2.0164e-05
5.29449e-06
0.0015449
-7.97187e-05
0.000108551
-0.00156799
-4.45268e-05
0.00158311
2.0648e-05
1.45423e-05
1.02029e-05
-2.06703e-06
1.71544e-05
0.00156106
-5.74821e-05
6.3507e-05
-0.00156347
-3.62942e-06
6.49274e-06
-2.72529e-06
1.56406e-05
-1.85214e-05
0.00158869
0.00155908
-1.67388e-05
-2.62305e-05
3.91504e-05
1.37783e-05
-0.00156896
1.19548e-06
0.00161592
1.52001e-06
-1.46013e-05
2.14145e-05
0.00157543
-0.0015903
-7.18052e-06
-1.22934e-05
1.5589e-05
1.60957e-05
1.64441e-05
0.00160914
-2.13338e-05
-1.42671e-05
0.0015671
-0.00156802
-1.9936e-05
-8.44496e-06
8.35595e-06
0.00154361
-1.41558e-05
9.97651e-06
0.00154125
-0.00154064
-1.07399e-05
-2.50992e-06
0.000503219
-8.91949e-05
2.27823e-06
-0.000555885
0.000142103
2.42346e-06
-2.75609e-05
2.94312e-05
-1.47728e-06
-2.81648e-06
-4.22427e-07
-1.25108e-06
1.91904e-06
0.000154722
5.56782e-07
2.13593e-06
0.000507922
-9.10167e-05
-2.1258e-06
0.000144917
-0.000561822
1.24844e-06
-1.26717e-06
0.000152789
-1.0583e-06
1.91269e-06
-4.99017e-06
-2.64635e-05
-1.54331e-06
4.44735e-06
2.85497e-05
2.10602e-05
-0.00158888
-7.53275e-06
-1.57795e-05
1.59043e-05
1.33126e-05
1.38701e-05
0.00160854
-1.72899e-05
-2.03143e-05
0.00156944
-0.00157058
-1.57613e-05
-1.80489e-05
3.75849e-06
5.24115e-06
0.00159481
-3.50075e-06
1.92122e-05
-1.47692e-05
0.00157227
1.58283e-05
-0.00158083
-1.25665e-05
-6.25382e-06
1.08196e-05
0.00159011
7.33206e-07
-9.45046e-06
0.00157368
1.11607e-05
-0.00157855
5.15183e-06
6.49525e-06
0.000398798
-1.47467e-05
-0.000404078
2.09525e-05
-7.45002e-06
-4.19307e-06
-3.53356e-06
1.36508e-06
0.000416812
9.90803e-06
0.000401249
-9.89206e-06
-6.98028e-06
1.13041e-05
9.50215e-06
-0.000405211
9.10363e-06
-0.00154512
-9.45137e-06
-1.51023e-05
5.00867e-06
2.29154e-05
-7.7652e-06
0.00156448
8.74307e-06
0.00155474
-1.30791e-05
1.47368e-05
-0.00155725
-9.17763e-06
0.000389717
-4.3396e-05
-2.78434e-05
2.12852e-05
-0.000418061
7.83111e-05
1.20321e-05
-1.89003e-05
2.8258e-05
-8.32254e-06
-1.30672e-05
-3.26335e-06
-2.20679e-06
2.90222e-06
0.000146832
3.6621e-06
-1.99853e-05
7.53466e-06
4.53368e-05
3.84304e-06
2.55119e-06
4.01026e-06
2.60972e-06
3.18339e-06
0.000476737
-8.40378e-05
-5.74637e-06
0.000137729
-0.000527853
-4.83626e-06
-1.90031e-07
0.0001145
-3.52522e-06
9.46422e-06
5.18736e-05
-1.10828e-05
-9.44962e-07
6.05087e-06
-4.58966e-05
5.46096e-06
-0.00157414
-5.08025e-06
-1.46902e-05
4.18631e-06
3.37869e-06
0.00157279
-4.66982e-06
6.09399e-06
0.00156636
-6.49863e-06
8.53102e-06
-0.00156881
-6.14472e-06
-2.79526e-05
2.98053e-05
-1.55717e-06
2.12793e-06
-1.20458e-06
1.89779e-06
-3.25302e-07
0.000154989
0.000509931
-9.12518e-05
1.85417e-06
0.000145356
-0.000563744
0.000399173
-1.49728e-05
-0.0004048
5.50404e-06
2.15656e-05
-2.9037e-05
1.48358e-05
2.68513e-05
2.6765e-05
1.48306e-05
-4.4933e-05
-0.000398461
-0.000386287
-0.000385617
-2.44729e-05
-0.000378781
-0.000379378
0.0015128
0.000499336
-8.83263e-05
-0.000552115
-2.44909e-06
0.000141055
-2.3105e-05
2.89639e-05
-5.13864e-06
1.13119e-05
-1.70374e-06
2.3954e-06
-2.96913e-06
0.000148263
-1.37227e-06
0.000152254
1.98563e-06
1.50372e-06
0.00048696
-8.6064e-05
2.48646e-06
0.000137781
-0.000537968
-2.56325e-05
-1.36756e-06
2.78486e-05
-5.83873e-06
-4.05568e-05
1.44419e-05
2.66135e-05
2.59686e-05
1.4923e-05
-4.19658e-05
-0.000386595
-0.000399695
-0.000388007
-2.69901e-05
-0.000381221
-0.000380289
0.00151986
-0.00155908
1.94784e-05
-3.5685e-05
0.00155481
-1.24121e-05
-4.2615e-05
1.20719e-05
1.43875e-05
2.1985e-05
7.98291e-06
-2.93518e-05
-0.000393311
-0.000399937
-0.000390029
-2.26994e-05
-0.00038341
-0.000387871
0.00153063
-3.41331e-06
-7.3127e-06
0.000407076
9.07106e-06
3.33819e-05
-3.43028e-06
0.0015823
-1.73995e-06
-1.92687e-05
0.00159357
1.32864e-05
1.15328e-05
-2.12564e-05
0.00157856
2.98563e-06
9.21815e-06
9.94979e-06
1.26618e-06
-1.59373e-05
-0.000398597
-0.000404264
-0.000402117
-0.000397094
1.51737e-05
8.44915e-06
1.59262e-05
0.0015766
1.1175e-05
6.82382e-06
-2.50853e-05
-0.0015655
-9.22114e-06
8.50796e-09
0.00156423
3.07032e-05
-3.55741e-06
-5.20913e-07
-1.89964e-05
2.35521e-05
-0.00157247
0.00156781
-1.80739e-05
-1.38243e-06
8.19647e-06
3.55742e-06
-1.08778e-06
-8.25681e-06
-0.000390928
-0.000388864
0.00155316
5.19152e-06
4.24165e-06
-2.2372e-05
-0.000226906
0.00136627
-2.0284e-05
0.0014903
-0.00148823
5.66764e-09
-1.84501e-05
-9.40748e-05
0.000114003
0.00153157
-1.75239e-05
0.00150882
-3.84855e-05
4.34361e-05
-0.00151238
0.00168823
-9.00088e-06
-1.59808e-05
0.00156266
-0.00160524
-7.51012e-05
-1.70757e-06
0.0016144
2.87548e-06
-9.98033e-06
0.00157792
-0.00159093
3.28277e-05
-0.00149024
2.40373e-07
-2.29071e-05
0.000112717
-2.13605e-05
0.00153162
0.00151086
-3.79204e-05
4.27197e-05
-0.00151407
-1.91007e-05
5.24567e-05
-0.000207677
0.00138706
-3.51225e-05
0.00150706
3.01741e-05
-0.00150615
3.98138e-06
-3.47178e-05
-7.49366e-05
3.00548e-05
9.13589e-05
0.00153304
-2.48525e-05
0.00151765
-2.99418e-05
2.31051e-05
3.40841e-05
-0.00152002
-0.0016018
-1.86627e-05
-7.49222e-05
0.00161032
-2.30975e-06
3.71713e-06
0.00157785
-0.00158961
-1.08729e-05
3.30147e-05
2.29894e-06
0.00165238
-1.07018e-05
-3.19198e-05
0.00155576
2.68008e-05
-0.00158681
-6.00838e-05
-1.57764e-06
1.67542e-06
0.00159611
4.42116e-06
-1.21725e-05
0.00157132
1.16408e-05
-0.00158039
2.81544e-05
-0.00152501
7.4749e-06
-3.7725e-05
7.30553e-05
-3.60075e-05
0.00153492
0.00152164
-2.5797e-05
2.87961e-05
-0.00152401
-2.54521e-05
5.3732e-05
-2.4041e-06
0.001553
0.00152792
-2.85313e-05
3.75967e-05
-0.00153328
-3.76991e-06
-1.76774e-05
-2.64229e-05
3.58081e-05
1.69662e-05
0.00155049
0.00153485
-1.29626e-05
-2.06061e-05
2.4368e-05
1.24622e-05
-0.00153813
-0.00158033
-3.44055e-05
-5.1328e-05
0.00158962
4.40764e-06
-1.77315e-06
-1.7792e-05
0.00156876
-0.00157647
2.51004e-05
-1.23683e-05
6.35255e-06
0.00158416
2.299e-06
0.00155851
-2.30751e-05
3.19363e-05
-0.00156823
-1.58566e-05
-2.26332e-06
-1.5057e-06
2.10379e-06
1.36409e-06
0.00157154
-1.00008e-05
0.00156156
-9.59621e-06
1.13526e-05
1.19515e-05
-0.00156564
-0.00152889
-1.53683e-05
-3.68341e-05
1.77909e-05
0.00157964
-4.54599e-06
0.00155039
-1.95716e-05
2.41689e-05
-0.0015581
-2.30914e-05
-1.69569e-08
0.00155974
1.32761e-06
0.00155392
-1.29559e-05
1.73974e-05
-0.00155769
-7.70197e-07
1.30425e-06
-1.3568e-06
1.59345e-06
-2.12246e-06
0.00156023
0.00155412
-3.02473e-06
-8.33134e-06
1.20603e-05
2.13651e-06
-0.00155705
-1.08295e-05
2.29221e-05
2.78383e-05
2.28463e-05
-0.000101084
9.50095e-06
8.54863e-07
-0.00164485
-2.17963e-05
-0.000269252
0.00150682
-1.94231e-05
-0.000510591
-0.000409809
-0.000410373
0.000147118
0.000147337
0.000151185
0.00015091
-0.000397064
4.55542e-07
1.04485e-06
7.08473e-06
6.92436e-06
-3.68309e-07
0.00050799
-3.32994e-06
0.000164052
-9.04684e-06
0.00166529
-8.67858e-05
-1.05043e-05
9.15639e-05
6.94557e-05
6.96879e-05
-0.000485718
-0.000486315
-0.000472551
-0.000471981
0.00176009
2.49117e-05
0.00163228
-3.48011e-05
-0.000504497
-0.000404388
-0.000405551
0.000143142
0.000143669
0.000147419
0.00014671
-0.000385548
2.26025e-05
2.75839e-05
2.2339e-05
-0.000100311
-1.2588e-05
1.98496e-06
-0.00163901
-2.73793e-05
0.00150462
-0.000266441
-0.000398809
-5.27291e-05
-0.000237915
-0.000127256
-0.000238134
-0.000125892
0.00114306
-0.000507028
-0.000408317
-0.000407539
0.000145987
0.000145671
0.000149414
0.000149801
-0.000393469
-3.67799e-05
0.00150293
-0.000259932
-2.18172e-05
2.11311e-05
2.63248e-05
2.11611e-05
-9.79804e-05
1.79456e-05
6.77304e-06
1.22519e-05
-0.000160489
-1.55355e-05
8.97697e-05
6.80367e-05
6.8412e-05
-0.000479134
-0.000480204
-0.000467045
-0.000466025
0.00174089
7.11822e-06
1.0881e-06
6.94132e-06
0.000506102
8.26061e-07
-3.59139e-06
0.000164155
-1.05794e-05
-8.77044e-05
0.00165935
0.00172531
-1.55173e-06
2.07115e-05
3.45166e-06
3.24974e-06
2.07997e-05
-1.59617e-05
9.0623e-05
6.93001e-05
6.90514e-05
-0.000483558
-0.00048275
-0.000469231
-0.000469988
0.00175155
2.31096e-06
7.03898e-06
1.09092e-06
6.86714e-06
0.000501008
-1.71038e-06
-3.78976e-06
-1.31021e-05
-8.46322e-05
0.00165201
0.00162394
-5.24213e-05
-0.000497278
-0.000401542
-0.000399929
0.000140182
0.000139865
0.000142491
0.000143613
-0.000374254
-0.000385933
-0.000239749
-0.000129858
-0.000239071
-0.000132296
0.00115249
-4.85602e-05
1.63912e-05
2.29667e-05
1.70221e-05
-0.000103048
4.25966e-05
2.95278e-05
4.96103e-05
-0.00161408
-8.39199e-05
-0.000232861
0.0015052
-0.000250671
0.00150164
-0.000104012
-0.000490133
-0.000392551
-0.000395242
0.00013978
0.000136724
0.000139011
0.00013877
-0.000351751
2.04532e-05
2.57321e-05
2.01614e-05
-9.61608e-05
-2.74178e-05
9.78377e-06
-0.000157083
-2.14513e-05
6.7513e-05
8.77062e-05
6.72922e-05
-0.000475275
-0.000473867
-0.000461315
-0.000462701
0.00172545
0.00171327
2.09762e-05
3.58657e-06
3.99539e-06
2.07718e-05
-1.67443e-05
5.57228e-06
1.46207e-06
7.40035e-06
7.14571e-06
-4.58856e-06
0.000486978
-5.51781e-06
1.74652e-05
0.000150924
-2.42183e-05
0.00162955
-7.71957e-05
7.11821e-06
1.22316e-06
6.95195e-06
0.000497394
2.98593e-06
-3.98461e-06
0.00164275
-8.21558e-05
-3.55672e-05
8.68918e-05
6.75159e-05
6.72257e-05
-0.000465875
-0.000467866
-0.000456209
-0.000453884
0.00170131
0.000200277
0.00153335
-0.000147397
-0.00043245
-0.000371816
-0.000365884
1.80177e-05
5.47734e-05
6.58627e-05
2.39074e-05
-0.000188774
1.08151e-05
1.8246e-05
5.60124e-06
-0.000125822
-3.28333e-05
5.65339e-05
-0.00158874
-0.000137351
0.00150154
-0.000186955
-0.000164919
-0.000126315
-0.000292248
-0.000286807
-0.000372703
-0.000179829
0.00129728
-0.000470682
-0.000388217
-0.000389566
0.000144576
0.00014027
0.000120403
0.000136604
-0.00030898
-0.000128239
0.00149015
-0.000130709
-5.77192e-05
-0.00010144
-3.60916e-05
-7.44074e-05
2.52724e-05
2.93177e-05
0.000266944
6.60771e-05
-0.000105324
-8.50845e-05
6.00717e-05
4.88274e-05
5.93938e-05
-0.000426324
-0.000435778
-0.000429917
-0.00042623
0.00163103
7.87717e-06
2.22201e-06
7.90555e-06
0.000478089
5.15568e-06
-6.20295e-06
0.000136513
-3.47951e-05
-6.70957e-05
0.00161427
0.00163703
-1.63538e-05
1.97425e-05
7.36196e-06
6.65381e-06
1.6832e-05
-1.57318e-05
7.90901e-05
6.8755e-05
6.838e-05
-0.000456658
-0.000453433
-0.000442991
-0.00044626
0.00166624
-1.81111e-06
7.44349e-06
2.55106e-06
5.25039e-06
0.000436777
-2.6012e-06
-1.08703e-05
-4.26798e-05
-5.14097e-05
0.00159104
0.000395957
-1.85906e-05
-0.000405771
2.77451e-05
-2.71722e-05
3.53666e-06
2.02054e-05
7.85529e-06
-3.76795e-05
0.00046986
-3.25302e-05
1.90711e-05
0.00159663
1.96973e-05
1.43822e-09
2.75829e-05
8.12256e-06
-8.80058e-05
0.00167375
3.58179e-05
6.36831e-06
2.77349e-06
-4.728e-06
1.38386e-05
-3.51924e-05
-3.16703e-06
0.00043322
1.32801e-05
1.86246e-07
2.12683e-06
-3.84243e-06
-2.48541e-06
0.00164739
3.01576e-05
1.21231e-05
2.72573e-05
1.9925e-05
2.22056e-05
-6.62332e-05
0.000432335
-1.99066e-05
-0.000459996
-3.11781e-05
2.57775e-05
1.77127e-05
2.41733e-05
-3.43481e-07
3.83587e-06
3.89038e-07
-3.88143e-06
2.63659e-06
-3.15824e-05
5.40888e-05
2.12008e-05
-4.34654e-05
-2.87791e-06
-3.3524e-06
-2.7348e-05
2.97265e-06
-1.56184e-06
2.92896e-05
2.53225e-07
3.60892e-06
-3.08295e-07
-3.55385e-06
-3.57422e-06
-3.14388e-05
5.4006e-05
-4.32819e-05
3.15151e-06
2.1138e-05
-3.18698e-07
1.26391e-06
3.33314e-07
-1.27852e-06
8.53231e-08
0.00014315
-1.44373e-05
-0.000145809
1.70442e-05
-3.33234e-08
7.46165e-07
-1.24436e-06
-5.98822e-07
1.90603e-06
0.000154064
2.34886e-07
1.38914e-06
-2.75794e-07
-1.34823e-06
6.16601e-08
0.000142635
-1.43309e-05
1.69119e-05
-4.66461e-08
-0.00014523
1.38043e-06
-1.32652e-06
-3.72602e-07
2.6433e-07
0.000141443
-1.41492e-05
-0.000143999
-2.51129e-07
1.66924e-05
-1.27995e-06
9.2372e-07
1.92769e-06
0.000153705
0.000142165
-1.43034e-05
1.68824e-05
1.30955e-07
-0.000144813
-4.41502e-07
1.21976e-06
4.63467e-07
-1.24172e-06
3.57968e-06
-3.50584e-06
-4.17312e-07
-5.0603e-06
-3.09372e-05
5.35699e-05
2.07253e-05
4.47553e-06
-4.27727e-05
-2.6781e-05
-3.90641e-06
-1.43631e-06
2.87714e-05
-3.11653e-05
5.37639e-05
-4.30932e-05
-3.91357e-06