/*--------------------------------*- C++ -*----------------------------------*\
| =========                 |                                                 |
| \\      /  F ield         | OpenFOAM: The Open Source CFD Toolbox           |
|  \\    /   O peration     | Version:  2012                                  |
|   \\  /    A nd           | Website:  www.openfoam.com                      |
|    \\/     M anipulation  |                                                 |
\*---------------------------------------------------------------------------*/
FoamFile
{
    version     2.0;
    format      ascii;
    class       pointVectorField;
    location    "0.105/fluid";
    object      pointMotionU;
}
// * * * * * * * * * * * * * * * * * * * * * * * * * * * * * * * * * * * * * //

dimensions      [0 1 -1 0 0 0 0];


internalField   nonuniform List<vector> 
20459
(
(0 0 0)
(0 0 0)
(0 0 0)
(0 0 0)
(0 0 0)
(0 0 0)
(0 0 0)
(0 0 0)
(0 0 0)
(0 0 0)
(0 0 0)
(0 0 0)
(0 0 0)
(0 0 0)
(0 0 0)
(3.50654e-08 2.16392e-08 -4.28745e-07)
(6.85638e-06 1.53756e-06 1.71505e-06)
(2.94441e-05 2.94656e-06 1.52435e-06)
(6.67496e-05 4.28307e-06 -6.7176e-06)
(0.000102866 9.25912e-06 -1.7382e-05)
(0.000126762 1.88368e-05 -2.42955e-05)
(0.000139292 3.14014e-05 -2.6956e-05)
(0.000144553 4.26949e-05 -2.64077e-05)
(0.000145122 5.00935e-05 -2.41081e-05)
(0.000141362 5.34348e-05 -2.09689e-05)
(0.000132381 5.31153e-05 -1.75381e-05)
(0.000118018 4.92702e-05 -1.4123e-05)
(9.78457e-05 4.19396e-05 -1.0694e-05)
(7.1726e-05 3.08295e-05 -7.2123e-06)
(3.87224e-05 1.58018e-05 -3.56448e-06)
(0 0 0)
(1.63515e-05 -3.79278e-06 -3.03602e-06)
(3.64132e-05 5.1048e-06 2.80013e-06)
(8.65897e-05 -1.7166e-06 -2.32976e-06)
(0.000157701 -2.51238e-06 -2.25983e-05)
(0.00021779 1.02672e-05 -4.166e-05)
(0.000256087 3.16443e-05 -5.21791e-05)
(0.000275868 5.66359e-05 -5.48742e-05)
(0.00028565 7.84295e-05 -5.27533e-05)
(0.000287636 9.34079e-05 -4.79805e-05)
(0.000280794 0.000100829 -4.17399e-05)
(0.000263324 0.000100734 -3.49291e-05)
(0.00023415 9.3128e-05 -2.80191e-05)
(0.0001937 7.83411e-05 -2.11237e-05)
(0.000141756 5.68956e-05 -1.41645e-05)
(7.69393e-05 2.93719e-05 -7.07969e-06)
(0 0 0)
(5.51472e-05 -1.56426e-05 -1.98523e-06)
(6.05221e-05 -1.00654e-05 -5.39429e-06)
(0.00012011 -1.86454e-05 -7.48076e-06)
(0.000220473 -1.72286e-05 -3.58598e-05)
(0.000299074 4.49034e-06 -6.14424e-05)
(0.00035041 3.65333e-05 -7.48802e-05)
(0.00038178 7.09679e-05 -7.80009e-05)
(0.000401245 9.96366e-05 -7.50376e-05)
(0.000409454 0.000119833 -6.86296e-05)
(0.000403509 0.000130837 -6.00172e-05)
(0.000380266 0.000131076 -5.02658e-05)
(0.000338653 0.000120426 -4.01769e-05)
(0.000280454 0.000100858 -3.0246e-05)
(0.000206176 7.29193e-05 -2.04137e-05)
(0.000111891 3.69816e-05 -1.015e-05)
(0 0 0)
(0 0 0)
(0 0 0)
(0 0 0)
(0 0 0)
(0 0 0)
(0 0 0)
(0 0 0)
(0 0 0)
(0 0 0)
(0 0 0)
(0 0 0)
(0 0 0)
(0 0 0)
(0 0 0)
(0 0 0)
(2.12255e-06 -8.94479e-07 -4.99511e-07)
(1.33901e-05 -1.22391e-06 7.44947e-07)
(4.71842e-05 -2.5129e-06 -6.21446e-07)
(9.6145e-05 -4.02436e-06 -8.56953e-06)
(0.000140286 -2.71193e-06 -1.86622e-05)
(0.00016641 3.73466e-06 -2.52205e-05)
(0.000177443 1.37596e-05 -2.75437e-05)
(0.000179824 2.38833e-05 -2.69665e-05)
(0.000176714 3.16876e-05 -2.47183e-05)
(0.000168275 3.63219e-05 -2.14947e-05)
(0.000154378 3.74444e-05 -1.79058e-05)
(0.000134865 3.53204e-05 -1.42608e-05)
(0.000110099 3.07143e-05 -1.07051e-05)
(8.01861e-05 2.31182e-05 -7.21595e-06)
(4.26871e-05 1.18205e-05 -3.49455e-06)
(0 0 0)
(1.7741e-05 -7.83868e-06 -3.7437e-06)
(5.30419e-05 -4.31608e-06 1.62129e-06)
(0.000127904 -1.17624e-05 -5.57594e-06)
(0.000220256 -1.71969e-05 -2.52867e-05)
(0.000291018 -1.19141e-05 -4.27264e-05)
(0.000332112 3.59778e-06 -5.28419e-05)
(0.000350496 2.41758e-05 -5.55648e-05)
(0.000354792 4.38469e-05 -5.35657e-05)
(0.000348818 5.90136e-05 -4.88162e-05)
(0.000332286 6.86138e-05 -4.24429e-05)
(0.000305186 7.12558e-05 -3.5401e-05)
(0.000267683 6.71253e-05 -2.82936e-05)
(0.000218749 5.77374e-05 -2.11893e-05)
(0.00015882 4.25644e-05 -1.41281e-05)
(8.51675e-05 2.17533e-05 -6.92823e-06)
(0 0 0)
(4.57935e-05 -1.20292e-05 -3.4659e-06)
(7.46898e-05 -9.40571e-06 -1.07454e-06)
(0.000178139 -2.51364e-05 -1.13714e-05)
(0.000309545 -3.3371e-05 -4.01188e-05)
(0.000402663 -2.28184e-05 -6.34292e-05)
(0.000456876 4.2229e-07 -7.54818e-05)
(0.000486687 2.84933e-05 -7.85667e-05)
(0.000497614 5.48969e-05 -7.57178e-05)
(0.000493591 7.57074e-05 -6.92987e-05)
(0.000473634 8.94703e-05 -6.0617e-05)
(0.000437198 9.35887e-05 -5.06958e-05)
(0.000383641 8.77702e-05 -4.03297e-05)
(0.000314608 7.50101e-05 -3.02461e-05)
(0.000228989 5.47806e-05 -2.01749e-05)
(0.000123066 2.77343e-05 -9.92263e-06)
(0 0 0)
(0 0 0)
(0 0 0)
(0 0 0)
(0 0 0)
(0 0 0)
(0 0 0)
(0 0 0)
(0 0 0)
(0 0 0)
(0 0 0)
(0 0 0)
(0 0 0)
(0 0 0)
(0 0 0)
(0 0 0)
(0 0 0)
(1.3063e-05 -2.77448e-06 -1.03732e-06)
(2.7561e-05 -4.45779e-06 -7.57679e-07)
(6.45575e-05 -7.42745e-06 -2.84719e-06)
(0.000114717 -1.04469e-05 -9.04058e-06)
(0.000159724 -1.08712e-05 -1.62743e-05)
(0.000188715 -6.95952e-06 -2.10303e-05)
(0.000202292 3.26174e-07 -2.27098e-05)
(0.000204852 8.4659e-06 -2.2147e-05)
(0.000199914 1.55485e-05 -2.02441e-05)
(0.000188771 2.06458e-05 -1.75984e-05)
(0.000171229 2.30467e-05 -1.45767e-05)
(0.000148148 2.29746e-05 -1.15491e-05)
(0.000120294 2.08975e-05 -8.64261e-06)
(8.69495e-05 1.62665e-05 -5.76401e-06)
(4.5965e-05 8.50459e-06 -2.76088e-06)
(0 0 0)
(4.71314e-05 -1.03055e-05 -4.94867e-06)
(8.56464e-05 -1.46146e-05 -3.23782e-06)
(0.000161831 -2.14658e-05 -9.84457e-06)
(0.000252811 -2.71321e-05 -2.35628e-05)
(0.000328902 -2.54795e-05 -3.64498e-05)
(0.000377324 -1.55656e-05 -4.39069e-05)
(0.000400566 -2.89922e-07 -4.59168e-05)
(0.000404354 1.5833e-05 -4.40568e-05)
(0.000393846 2.95571e-05 -3.99327e-05)
(0.000371234 3.95471e-05 -3.45602e-05)
(0.000337314 4.44711e-05 -2.86598e-05)
(0.000293519 4.43536e-05 -2.28537e-05)
(0.000239426 4.01022e-05 -1.7153e-05)
(0.000173971 3.07317e-05 -1.14634e-05)
(9.24855e-05 1.5749e-05 -5.50071e-06)
(0 0 0)
(7.43442e-05 -1.66606e-05 -9.41053e-06)
(0.000133013 -2.53325e-05 -7.10526e-06)
(0.00024404 -3.68612e-05 -1.83249e-05)
(0.000368093 -4.35329e-05 -3.84857e-05)
(0.000464286 -3.87955e-05 -5.47507e-05)
(0.000526729 -2.37462e-05 -6.33486e-05)
(0.000560368 -2.37631e-06 -6.52881e-05)
(0.000569625 1.96899e-05 -6.2477e-05)
(0.000558693 3.81912e-05 -5.66836e-05)
(0.000529606 5.21936e-05 -4.92668e-05)
(0.000484638 5.91544e-05 -4.11867e-05)
(0.000422403 5.90345e-05 -3.27271e-05)
(0.00034519 5.31448e-05 -2.45072e-05)
(0.000250772 4.01776e-05 -1.63053e-05)
(0.000134069 2.02253e-05 -7.87632e-06)
(0 0 0)
(0 0 0)
(0 0 0)
(0 0 0)
(0 0 0)
(0 0 0)
(0 0 0)
(0 0 0)
(0 0 0)
(0 0 0)
(0 0 0)
(0 0 0)
(0 0 0)
(0 0 0)
(0 0 0)
(0 0 0)
(0 0 0)
(3.73484e-05 -6.74873e-06 -1.46311e-06)
(5.26225e-05 -8.59367e-06 -1.73063e-06)
(8.42101e-05 -1.1292e-05 -3.2681e-06)
(0.000126598 -1.41817e-05 -6.54695e-06)
(0.000167547 -1.50295e-05 -1.00956e-05)
(0.000198214 -1.25782e-05 -1.24729e-05)
(0.000214097 -7.10284e-06 -1.32018e-05)
(0.000217472 -4.89591e-07 -1.26877e-05)
(0.00021188 5.6127e-06 -1.14571e-05)
(0.000199378 1.04384e-05 -9.87003e-06)
(0.000180466 1.35206e-05 -8.11604e-06)
(0.000155961 1.48535e-05 -6.37001e-06)
(0.00012605 1.45726e-05 -4.73874e-06)
(9.11649e-05 1.18867e-05 -3.1634e-06)
(4.80826e-05 6.35286e-06 -1.4879e-06)
(0 0 0)
(9.67293e-05 -1.61523e-05 -4.60704e-06)
(0.000131033 -2.17195e-05 -5.40201e-06)
(0.000192525 -2.70381e-05 -9.1966e-06)
(0.000270428 -3.14234e-05 -1.59165e-05)
(0.00034309 -3.14053e-05 -2.22641e-05)
(0.000394726 -2.51137e-05 -2.591e-05)
(0.000421987 -1.3547e-05 -2.67069e-05)
(0.000427658 -3.15711e-07 -2.52829e-05)
(0.000416641 1.14179e-05 -2.26099e-05)
(0.000391798 2.05985e-05 -1.92994e-05)
(0.000355252 2.64805e-05 -1.58202e-05)
(0.000308678 2.92027e-05 -1.26016e-05)
(0.000251622 2.85677e-05 -9.51883e-06)
(0.000182184 2.29182e-05 -6.2542e-06)
(9.65894e-05 1.19209e-05 -2.94076e-06)
(0 0 0)
(0.000159075 -2.51088e-05 -9.84556e-06)
(0.000212387 -3.64589e-05 -1.1108e-05)
(0.000299338 -4.37544e-05 -1.71242e-05)
(0.000400101 -4.78016e-05 -2.61779e-05)
(0.000490636 -4.5717e-05 -3.37354e-05)
(0.000557486 -3.57552e-05 -3.7728e-05)
(0.000595804 -1.91249e-05 -3.82543e-05)
(0.000606453 -4.95139e-07 -3.6016e-05)
(0.000593645 1.55159e-05 -3.20985e-05)
(0.000561393 2.78103e-05 -2.73783e-05)
(0.000511797 3.59048e-05 -2.25964e-05)
(0.000446206 3.98396e-05 -1.80888e-05)
(0.000364658 3.89614e-05 -1.35991e-05)
(0.000264664 3.08567e-05 -8.94468e-06)
(0.000141359 1.5762e-05 -4.23381e-06)
(0 0 0)
(0 0 0)
(0 0 0)
(0 0 0)
(0 0 0)
(0 0 0)
(0 0 0)
(0 0 0)
(0 0 0)
(0 0 0)
(0 0 0)
(0 0 0)
(0 0 0)
(0 0 0)
(0 0 0)
(0 0 0)
(0 0 0)
(5.14444e-05 -9.03908e-06 0)
(6.6703e-05 -1.06424e-05 0)
(9.36158e-05 -1.28283e-05 0)
(0.000129698 -1.52099e-05 0)
(0.000168167 -1.60845e-05 0)
(0.000199103 -1.40062e-05 0)
(0.00021559 -9.1628e-06 0)
(0.000219559 -3.13407e-06 0)
(0.00021411 2.55792e-06 0)
(0.000201468 7.18968e-06 0)
(0.000182447 1.03931e-05 0)
(0.000157682 1.21832e-05 0)
(0.000127913 1.24281e-05 0)
(9.28287e-05 1.03276e-05 0)
(4.90434e-05 5.62882e-06 0)
(0 0 0)
(0.000120592 -1.95699e-05 0)
(0.000152977 -2.42898e-05 0)
(0.000206074 -2.86238e-05 0)
(0.000274899 -3.22472e-05 0)
(0.000343684 -3.25646e-05 0)
(0.000395222 -2.74131e-05 0)
(0.000424043 -1.73248e-05 0)
(0.000431273 -5.27961e-06 0)
(0.000421146 5.66603e-06 0)
(0.000396491 1.44235e-05 0)
(0.000359527 2.05412e-05 0)
(0.000312197 2.39985e-05 0)
(0.000254804 2.44107e-05 0)
(0.000184846 2.01583e-05 0)
(9.75666e-05 1.06576e-05 0)
(0 0 0)
(0.000195922 -2.97701e-05 0)
(0.000245109 -3.92738e-05 0)
(0.000318729 -4.50317e-05 0)
(0.000407495 -4.81881e-05 0)
(0.00049369 -4.67431e-05 0)
(0.000561318 -3.8609e-05 0)
(0.000601716 -2.39994e-05 0)
(0.000613953 -6.89044e-06 0)
(0.000602039 8.11784e-06 0)
(0.000569417 1.98444e-05 0)
(0.000518363 2.82788e-05 0)
(0.000451522 3.31768e-05 0)
(0.000369337 3.37163e-05 0)
(0.00026892 2.74759e-05 0)
(0.00014381 1.43829e-05 0)
(0 0 0)
(4.95999e-07 -2.56338e-08 7.91089e-08)
(2.0119e-06 -3.67953e-07 -3.78363e-08)
(0 0 0)
(-1.66427e-08 -1.18851e-08 -9.17921e-09)
(2.01284e-06 4.71351e-07 6.17138e-07)
(0 0 0)
(2.2122e-06 6.14008e-07 4.56747e-07)
(7.03682e-07 -4.6414e-07 -4.46588e-07)
(9.77336e-06 1.69948e-07 1.27913e-06)
(5.64564e-05 -1.52197e-05 -8.26093e-06)
(5.6726e-05 -1.27908e-05 -1.84299e-06)
(6.70517e-05 -2.18123e-05 -9.23276e-06)
(6.68359e-05 -9.27731e-06 -3.0898e-06)
(0 0 0)
(4.89453e-08 -3.55021e-08 -1.56253e-08)
(0 0 0)
(4.35465e-06 -3.58817e-07 2.73968e-07)
(0 0 0)
(5.41247e-06 -9.49391e-07 7.76295e-08)
(5.53942e-06 -1.4772e-06 -6.65077e-07)
(1.86732e-05 -2.67008e-06 -5.29558e-09)
(5.52097e-05 -8.90072e-06 -2.88003e-06)
(5.6715e-05 -1.1884e-05 -2.78566e-06)
(7.63057e-05 -1.30009e-05 -2.55069e-06)
(0 0 0)
(4.30461e-06 -8.91014e-07 -3.05805e-07)
(1.08651e-05 -1.70035e-06 -2.68254e-07)
(1.76324e-05 -3.3756e-06 -7.67232e-07)
(2.93622e-07 7.86322e-08 1.05569e-07)
(5.41044e-10 -2.35057e-08 -1.13215e-08)
(3.04561e-06 7.21522e-08 4.62783e-07)
(3.40826e-06 -1.71782e-07 2.9928e-07)
(8.64945e-07 -1.35938e-07 3.37655e-08)
(5.71296e-05 -1.06155e-05 -5.34454e-06)
(7.01324e-05 -1.58503e-05 -5.90209e-06)
(6.05247e-05 -1.15605e-05 -4.29846e-06)
(5.57781e-07 -1.33837e-07 -6.05565e-08)
(6.45328e-06 -8.71303e-07 2.29952e-08)
(9.42892e-06 -1.85811e-06 -2.77342e-07)
(6.1636e-06 -1.141e-06 -2.40407e-07)
(0 0 0)
(0 0 0)
(1.71121e-09 -5.35964e-09 2.66416e-11)
(4.48851e-05 -5.15619e-06 -1.84783e-06)
(6.42688e-05 -2.11843e-05 -7.35905e-06)
(9.98703e-05 -1.88239e-05 -3.55632e-06)
(1.0851e-09 -4.24023e-09 -5.14568e-09)
(6.99823e-05 -1.5749e-05 -4.72687e-06)
(2.73693e-09 -6.04417e-09 8.58933e-11)
(5.35538e-05 -2.12059e-05 -7.9758e-06)
(5.76099e-05 -2.00628e-05 -1.14845e-05)
(2.16928e-09 -5.73522e-09 -9.18586e-10)
(6.58752e-05 -1.94876e-05 -9.57208e-06)
(6.11925e-05 -1.05527e-05 -4.74142e-06)
(6.04159e-05 -9.90199e-06 -3.7218e-06)
(2.54713e-05 2.03341e-06 4.72144e-08)
(3.73713e-05 -9.84065e-06 -2.90875e-06)
(1.62895e-05 -6.39972e-06 -3.2548e-06)
(5.20432e-05 5.48803e-07 -6.38711e-07)
(4.41907e-05 3.74289e-07 2.4693e-06)
(4.99143e-05 -1.46919e-05 -2.21452e-06)
(5.60141e-05 -1.63073e-05 -6.06462e-06)
(5.52768e-05 -1.61879e-05 -2.09914e-06)
(5.74827e-05 -1.49224e-05 -1.79979e-06)
(7.94885e-05 -1.23585e-05 -2.47419e-06)
(5.52223e-05 -9.23281e-06 -6.16084e-06)
(5.80076e-05 -1.27854e-05 -7.73338e-06)
(6.40893e-05 -1.69833e-05 -7.78739e-06)
(6.44698e-05 -1.01651e-05 -4.38842e-06)
(0.000125664 -2.37182e-05 -8.45714e-06)
(0.000147684 -2.11999e-05 -9.02885e-06)
(3.14683e-05 -5.12438e-06 -4.78805e-07)
(3.19268e-05 -1.13763e-05 -4.34412e-06)
(6.99836e-05 -6.54579e-06 4.05512e-07)
(4.73845e-05 -1.39205e-05 -6.43895e-06)
(5.13421e-05 -1.17757e-05 -2.44962e-06)
(5.01424e-05 -1.01379e-05 -3.33893e-06)
(5.24881e-05 -1.17697e-05 -3.01876e-06)
(0.000116584 -1.61383e-05 -3.11983e-06)
(9.75057e-05 -1.66953e-05 -3.11078e-06)
(6.93672e-05 -8.48107e-06 -1.72294e-06)
(6.23648e-05 -8.46559e-06 -1.87116e-06)
(7.50534e-05 -1.12321e-05 -1.82127e-06)
(0.000186408 -2.89369e-05 -1.31567e-05)
(9.7253e-05 -2.06064e-05 -7.06368e-06)
(7.97204e-05 -1.77983e-05 -1.09573e-05)
(0.000142542 -2.81164e-05 -8.99671e-06)
(2.25318e-07 1.24892e-07 1.15744e-07)
(3.82744e-07 2.71569e-08 9.31332e-08)
(9.55068e-08 -2.59399e-08 6.90841e-09)
(6.52907e-07 -7.87043e-08 5.83201e-08)
(9.1902e-08 -3.50373e-09 1.87795e-08)
(6.41646e-05 -1.57463e-05 -8.36961e-06)
(6.67275e-05 -1.68615e-05 -8.66951e-06)
(6.33984e-05 -1.28672e-05 -6.68192e-06)
(1.21653e-06 -2.13969e-07 4.24709e-09)
(9.3267e-07 -1.9145e-07 -4.77641e-08)
(5.22589e-07 -8.63776e-08 -8.31178e-09)
(5.09488e-08 1.34301e-08 2.4955e-08)
(0 0 0)
(0 0 0)
(-1.59452e-08 -7.52669e-09 -9.92678e-09)
(4.07586e-08 7.12807e-09 1.42907e-08)
(-1.17983e-08 -1.58948e-08 -9.9438e-09)
(5.21498e-05 -1.47821e-05 -8.85495e-06)
(6.09877e-05 -2.66698e-05 -1.13769e-05)
(5.8471e-05 -1.43955e-05 -7.14891e-06)
(5.70565e-05 -1.18313e-05 -4.43771e-06)
(6.62849e-05 -1.19495e-05 -1.78295e-06)
(6.1341e-05 -2.13521e-05 -9.87107e-06)
(6.97174e-05 -3.06427e-05 -1.3767e-05)
(7.04023e-05 -1.98029e-05 -8.11243e-06)
(6.05372e-05 -9.83328e-06 -4.68577e-06)
(6.82137e-05 -1.29352e-05 -4.70365e-06)
(1.60787e-07 -2.14142e-08 9.49178e-09)
(0 0 0)
(0 0 0)
(2.35232e-08 -3.02782e-08 -1.27233e-08)
(2.16582e-07 -5.91848e-08 -5.67446e-09)
(1.18752e-07 -4.37453e-08 -2.38546e-08)
(4.15504e-08 -9.86352e-09 -1.12827e-08)
(0 0 0)
(5.60616e-05 -8.66326e-06 -3.86638e-06)
(5.80452e-05 -9.93795e-06 -3.6508e-06)
(6.83688e-05 -1.14639e-05 -1.84476e-06)
(5.87155e-05 -1.18041e-05 -4.16739e-06)
(7.0657e-05 -1.31131e-05 -3.57132e-06)
(6.4769e-05 -1.16808e-05 -3.28552e-06)
(4.40315e-05 -3.63884e-06 -2.94187e-06)
(5.14689e-05 -1.57227e-05 -6.38965e-06)
(5.33431e-05 -1.18293e-05 -8.44444e-06)
(8.35942e-05 -1.96299e-05 -4.03362e-06)
(5.86126e-05 -1.63605e-05 -8.54639e-06)
(2.61395e-09 -5.94431e-09 5.21174e-11)
(6.90757e-08 4.88997e-09 2.19086e-08)
(6.23305e-08 -8.66108e-09 1.10422e-08)
(1.94931e-09 -5.50511e-09 -5.28191e-10)
(2.78313e-05 -1.92616e-06 -5.9966e-08)
(3.61015e-05 -1.09626e-05 -3.24515e-06)
(6.05554e-05 -3.07657e-06 1.63042e-07)
(5.82058e-05 -1.54037e-05 -5.37838e-06)
(4.69333e-05 -7.50161e-06 -1.58982e-06)
(6.05669e-05 -1.21714e-05 -6.51874e-06)
(5.35837e-05 -9.75147e-06 -3.66558e-06)
(6.01075e-05 -8.02575e-06 -2.84228e-06)
(9.61208e-05 -1.34704e-05 -2.50417e-06)
(5.93067e-05 -2.20741e-05 -7.70084e-06)
(6.07194e-05 -1.55927e-05 -1.82371e-06)
(6.51961e-05 -2.48906e-05 -1.05874e-05)
(6.64995e-05 -1.42558e-05 -6.355e-06)
(0.000154083 -2.55422e-05 -1.04349e-05)
(0.000120529 -1.98877e-05 -4.60296e-06)
(6.75128e-05 -1.57601e-05 -6.59469e-06)
(6.95522e-05 -1.08883e-05 -2.74475e-06)
(1.63121e-09 -5.37169e-09 -2.13493e-09)
(2.32461e-07 -3.70666e-08 1.70405e-09)
(3.62804e-07 -8.48485e-08 -1.7228e-08)
(9.54417e-08 -1.86914e-08 -1.08129e-08)
(6.67498e-05 -1.40095e-05 -3.88857e-06)
(5.23367e-05 -1.46165e-05 -6.82133e-06)
(0.000102055 -1.92296e-05 -4.46924e-06)
(0.000104388 -2.25142e-05 -8.71965e-06)
(5.525e-05 -1.06854e-05 -3.77953e-06)
(6.32776e-05 -9.93909e-06 -2.62635e-06)
(3.7515e-08 2.2381e-08 2.83554e-08)
(2.93052e-08 2.13959e-08 1.6632e-08)
(4.92218e-05 -1.47205e-05 -2.34009e-06)
(5.51991e-05 -2.55392e-05 -1.1763e-05)
(6.31396e-05 -2.90532e-05 -1.41506e-05)
(6.32745e-05 -2.17787e-05 -1.0925e-05)
(1.20838e-07 -1.22842e-08 1.44254e-08)
(1.45768e-07 -4.25292e-08 1.63705e-09)
(6.15499e-05 -1.07808e-05 -2.05805e-06)
(7.37476e-05 -2.77768e-05 -1.28045e-05)
(6.2935e-05 -1.34365e-05 -6.66775e-06)
(5.95998e-05 -9.98879e-06 -5.23377e-06)
(6.8917e-05 -1.39871e-05 -5.97355e-06)
(6.20694e-05 -1.22329e-05 -4.76678e-06)
(8.44928e-06 2.52262e-07 8.49829e-07)
(1.13018e-05 -5.99748e-07 4.46047e-07)
(1.41255e-05 -1.4622e-06 -4.84485e-08)
(2.3267e-05 -4.7579e-06 -8.62625e-07)
(1.27543e-05 -2.31603e-06 -5.14437e-07)
(2.18801e-07 1.11183e-07 1.25514e-07)
(1.84582e-07 1.78376e-07 3.83346e-08)
(3.75305e-07 4.40758e-08 1.05491e-07)
(3.78811e-07 -2.05548e-08 1.40313e-08)
(5.97211e-07 -3.14683e-08 7.33324e-08)
(8.46802e-07 -2.34051e-07 -2.81413e-08)
(9.74897e-07 -1.28228e-07 2.91139e-08)
(1.92471e-06 -4.75867e-07 -1.05859e-07)
(8.63417e-07 -1.6705e-07 -4.38552e-08)
(9.28878e-10 -2.64521e-09 3.74796e-10)
(4.60805e-09 -8.61725e-09 -1.96161e-10)
(3.75777e-09 -7.65738e-09 -2.99024e-10)
(8.8053e-10 -2.61032e-09 1.0692e-10)
(6.51079e-05 -2.69511e-05 -9.3817e-06)
(6.40366e-05 -1.90879e-05 -5.01954e-06)
(5.96855e-05 -2.86338e-05 -9.67706e-06)
(7.03213e-05 -1.91363e-05 -4.78914e-06)
(1.71993e-09 -2.74473e-09 -1.28535e-09)
(9.86642e-09 -8.98985e-09 -5.11772e-09)
(3.09107e-08 -9.40928e-09 -1.09907e-08)
(5.11152e-09 -1.86307e-09 -3.93115e-09)
(9.76609e-10 -2.64444e-09 3.79874e-10)
(4.67305e-09 -8.75631e-09 1.49945e-10)
(5.7594e-05 -1.80762e-05 -5.25144e-06)
(5.40128e-05 -2.78391e-05 -9.93644e-06)
(6.45278e-05 -3.07841e-05 -1.41544e-05)
(1.58996e-09 -2.76547e-09 -4.4287e-10)
(7.84882e-09 -9.72434e-09 -2.24496e-09)
(6.53323e-09 -9.56108e-09 -9.69468e-10)
(1.30735e-09 -2.74299e-09 -1.38317e-10)
(7.08025e-05 -2.34376e-05 -1.1697e-05)
(7.09067e-05 -3.19337e-05 -1.37711e-05)
(6.92057e-05 -1.34101e-05 -8.16725e-06)
(7.10613e-05 -1.29212e-05 -4.44934e-06)
(6.00324e-05 -1.16001e-05 -6.28416e-06)
(0 0 0)
(0 0 0)
(0 0 0)
(8.10747e-07 1.98027e-07 2.73485e-07)
(0 0 0)
(1.23314e-05 1.59551e-06 9.81872e-07)
(0 0 0)
(3.03359e-06 -5.49204e-07 -1.64194e-06)
(-3.5227e-08 2.43397e-07 -4.17238e-07)
(-8.61825e-08 -3.42178e-09 -1.27624e-07)
(9.11494e-07 2.79775e-07 1.08518e-09)
(2.69335e-07 -2.22603e-07 -4.37667e-07)
(1.58264e-05 2.37159e-06 2.42702e-06)
(1.80672e-05 3.31767e-06 2.77558e-06)
(3.87276e-05 1.48218e-07 4.68008e-07)
(0 0 0)
(0 0 0)
(0 0 0)
(1.82828e-06 -1.41371e-07 1.25443e-07)
(0 0 0)
(2.07377e-05 -9.11448e-07 -8.93616e-08)
(0 0 0)
(7.74292e-06 -3.32082e-06 -1.8274e-06)
(1.28773e-06 -6.86805e-07 -4.64616e-07)
(6.62062e-07 -3.02522e-07 -1.57841e-07)
(3.29742e-06 -8.88183e-07 -2.04857e-07)
(3.45747e-06 -1.12996e-06 -5.60075e-07)
(2.7307e-05 -1.72882e-06 7.7889e-07)
(2.991e-05 -2.74288e-06 1.1842e-06)
(5.5239e-05 -5.0723e-06 -1.86391e-06)
(2.80562e-05 -8.74655e-06 -4.34117e-06)
(6.67748e-05 -9.80944e-06 -7.96461e-07)
(0 0 0)
(0 0 0)
(0 0 0)
(1.86067e-06 -3.79877e-07 -1.27837e-07)
(0 0 0)
(0 0 0)
(2.93599e-05 -3.22365e-06 -1.16355e-06)
(2.77602e-05 -5.96185e-06 -2.53153e-06)
(2.46252e-05 -4.68056e-06 -1.41105e-06)
(4.32431e-05 -5.80078e-06 -1.31092e-06)
(5.25159e-05 -8.6842e-06 -1.70428e-06)
(3.98117e-05 -6.55574e-06 -1.4648e-06)
(6.13859e-05 -1.2162e-05 -3.47794e-06)
(0 0 0)
(1.72111e-05 -3.1918e-06 -6.37429e-07)
(2.4248e-05 -3.94688e-06 -7.46894e-07)
(4.29019e-05 -7.52361e-06 -1.48893e-06)
(1.45406e-06 7.17819e-09 2.39017e-07)
(1.53476e-06 -7.5676e-08 1.83401e-07)
(6.88943e-05 -2.00121e-05 -1.04854e-05)
(3.8622e-06 -6.07699e-07 -1.14575e-08)
(4.95169e-06 -9.46006e-07 -1.19746e-07)
(3.68348e-06 -6.78708e-07 -1.171e-07)
(0 0 0)
(1.30401e-08 3.31857e-09 7.68965e-09)
(0 0 0)
(0 0 0)
(6.45684e-09 -1.02524e-08 2.75277e-11)
(-1.62866e-08 -9.18033e-09 -9.44801e-09)
(-2.1399e-09 -6.03984e-09 -2.17153e-09)
(-1.38166e-08 -1.3948e-08 -9.3928e-09)
(1.59053e-06 6.39934e-07 6.50957e-07)
(9.25596e-07 2.38121e-07 3.15403e-07)
(2.50199e-06 2.77442e-07 5.49387e-07)
(1.25696e-06 3.64705e-08 2.07036e-07)
(0 0 0)
(1.86699e-06 9.44939e-07 4.8921e-07)
(9.36944e-07 2.687e-07 2.62793e-07)
(2.71098e-06 2.26472e-07 3.87824e-07)
(1.38758e-07 -1.56164e-07 -1.35396e-07)
(1.71287e-06 -3.22313e-07 -7.99353e-08)
(5.81928e-05 -1.3866e-05 -2.22925e-06)
(0 0 0)
(4.50004e-08 -5.75689e-09 2.98885e-09)
(0 0 0)
(0 0 0)
(5.50962e-09 -8.50842e-09 -3.20435e-09)
(3.50733e-08 -3.29805e-08 -1.3879e-08)
(8.64426e-08 -3.9048e-08 -1.17856e-08)
(7.42257e-08 -3.78607e-08 -1.86068e-08)
(1.54568e-08 -3.31536e-09 -6.39581e-09)
(0 0 0)
(3.65307e-06 -1.39172e-07 3.74167e-07)
(2.23256e-06 -2.43509e-07 1.34518e-07)
(5.22706e-06 -5.95411e-07 1.51358e-07)
(2.78616e-06 -3.68366e-07 1.67037e-08)
(0 0 0)
(4.27539e-06 -5.61548e-07 2.00837e-07)
(2.56564e-06 -4.30516e-07 6.75105e-08)
(7.04553e-06 -1.36293e-06 -8.49748e-08)
(2.42195e-06 -6.23473e-07 -2.6624e-07)
(6.9123e-06 -1.60371e-06 -4.47637e-07)
(2.70737e-06 -4.9513e-07 -1.01545e-07)
(0 0 0)
(2.00747e-06 -4.39023e-07 -1.65975e-07)
(4.93653e-06 -9.73076e-07 -2.58887e-07)
(6.33954e-05 -3.30872e-05 -1.3122e-05)
(2.28668e-08 -2.23817e-08 -5.29969e-09)
(-6.52095e-09 -1.9031e-08 -1.07657e-08)
(4.35718e-09 -9.49028e-09 -1.15895e-09)
(1.29084e-08 -2.66315e-08 -1.19699e-08)
(7.6281e-05 -1.40828e-05 -1.98622e-06)
(5.88125e-07 -1.30798e-07 -4.68741e-08)
(2.23559e-07 -6.17898e-08 -3.37883e-08)
(1.5455e-07 -3.64206e-08 -2.35829e-08)
(2.49763e-08 -1.15305e-09 5.65805e-09)
(0 0 0)
(0 0 0)
(0 0 0)
(1.78408e-07 -2.85896e-08 -3.58155e-09)
(0 0 0)
(0 0 0)
(2.30956e-09 -5.75192e-09 1.01133e-10)
(1.25754e-08 -4.45956e-09 3.62566e-09)
(1.32261e-08 -6.82328e-09 2.69328e-09)
(1.59361e-09 -5.2139e-09 -2.9332e-10)
(6.20468e-05 -2.20249e-05 -7.54005e-06)
(6.43453e-05 -1.75594e-05 -4.71611e-06)
(6.35006e-05 -2.42968e-05 -9.29106e-06)
(6.69249e-05 -2.45159e-05 -7.72057e-06)
(6.58149e-05 -1.91092e-05 -6.93042e-06)
(1.40744e-09 -5.04607e-09 -3.32147e-09)
(4.53897e-08 -1.18863e-08 -5.03934e-09)
(6.59556e-08 -1.83435e-08 -7.65681e-09)
(6.46859e-10 -2.52227e-09 -7.39493e-09)
(2.69003e-09 -5.9851e-09 7.56555e-11)
(8.35003e-09 -7.50107e-10 5.6862e-09)
(8.76816e-09 -2.05574e-09 4.45045e-09)
(5.64776e-05 -2.17315e-05 -7.77971e-06)
(5.29511e-05 -1.66157e-05 -5.19821e-06)
(5.32937e-05 -2.48849e-05 -1.0204e-05)
(5.42908e-05 -2.30346e-05 -8.22856e-06)
(5.77869e-05 -2.3956e-05 -1.26714e-05)
(6.09141e-05 -2.59323e-05 -1.34216e-05)
(6.08346e-05 -2.18311e-05 -1.15029e-05)
(2.21986e-09 -5.76367e-09 -6.79728e-10)
(1.93446e-09 -5.56896e-09 -1.37024e-09)
(2.25655e-08 -8.12521e-09 1.37265e-09)
(2.82005e-08 -1.27634e-08 4.55193e-11)
(6.71769e-05 -2.33842e-05 -1.11247e-05)
(6.5871e-05 -2.2708e-05 -1.079e-05)
(7.0735e-05 -2.52047e-05 -1.18273e-05)
(6.53585e-05 -1.70515e-05 -8.59231e-06)
(6.49057e-05 -1.13539e-05 -5.56065e-06)
(6.21243e-05 -1.09065e-05 -3.59852e-06)
(6.1228e-05 -1.02294e-05 -5.70889e-06)
(6.63866e-05 -1.24106e-05 -5.6887e-06)
(6.0508e-05 -1.09684e-05 -5.00927e-06)
(5.86463e-05 -1.0044e-05 -4.62277e-06)
(6.02351e-05 -1.0947e-05 -4.28601e-06)
(5.89361e-05 -1.78222e-05 -5.01988e-06)
(5.8022e-05 -1.58788e-05 -1.95821e-06)
(5.22998e-05 -1.54378e-05 -2.20289e-06)
(5.68904e-05 -3.15758e-05 -1.34002e-05)
(6.48328e-08 -1.64074e-08 7.42142e-09)
(1.92026e-08 -9.80989e-09 1.41389e-09)
(1.03125e-07 -3.1542e-08 3.23514e-09)
(6.77864e-08 2.58819e-11 1.76407e-08)
(1.69009e-08 -6.24316e-09 2.55738e-09)
(9.0072e-08 -7.53566e-09 1.41345e-08)
(6.8994e-05 -3.20848e-05 -1.27308e-05)
(6.56366e-05 -2.17547e-05 -9.85681e-06)
(6.55567e-05 -1.61102e-05 -8.05456e-06)
(6.29251e-05 -1.44346e-05 -7.88735e-06)
(6.21751e-05 -1.1292e-05 -6.82177e-06)
(7.60773e-05 -1.88584e-05 -7.74679e-06)
(7.25815e-05 -2.31189e-05 -1.16683e-05)
(6.44387e-05 -1.51135e-05 -7.92553e-06)
(6.22893e-05 -1.33954e-05 -6.33863e-06)
(6.16976e-05 -1.11832e-05 -6.27531e-06)
(6.80142e-05 -1.40587e-05 -7.41091e-06)
(6.09715e-05 -1.23384e-05 -5.84073e-06)
(4.78352e-07 -1.03814e-07 -2.599e-08)
(3.36045e-07 -6.6257e-08 -2.07825e-08)
(2.78172e-07 -4.53297e-08 -2.92355e-09)
(2.29149e-07 -4.01537e-08 -1.03584e-08)
(1.00227e-08 -3.22184e-09 4.34019e-09)
(5.07533e-08 7.23842e-09 2.0055e-08)
(3.6911e-08 1.45526e-08 2.27672e-08)
(9.24291e-09 6.15455e-09 9.06265e-09)
(0 0 0)
(1.83488e-08 9.72559e-10 6.61915e-09)
(0 0 0)
(6.82327e-09 -1.02935e-08 -1.17975e-10)
(-4.41808e-09 2.79604e-12 -2.27521e-09)
(1.02421e-08 -4.87202e-09 3.46674e-09)
(4.23774e-08 -1.79616e-09 1.04027e-08)
(2.72612e-08 1.16078e-08 1.31132e-08)
(1.49561e-09 -4.28859e-09 -2.59089e-10)
(6.87504e-09 -1.25247e-08 -3.44723e-09)
(5.89492e-05 -2.56965e-05 -9.81448e-06)
(6.36106e-05 -2.69626e-05 -1.11548e-05)
(5.81708e-05 -2.67231e-05 -1.16188e-05)
(6.38531e-05 -2.58898e-05 -1.22379e-05)
(5.18585e-05 -1.2426e-05 -2.45404e-06)
(6.06589e-05 -2.42937e-05 -7.96519e-06)
(6.44565e-05 -1.4594e-05 -1.98189e-06)
(6.32661e-05 -1.46528e-05 -1.73319e-06)
(6.71975e-05 -1.33062e-05 -4.23473e-06)
(6.50721e-05 -1.05342e-05 -1.86792e-06)
(6.68324e-05 -3.0722e-05 -1.42523e-05)
(6.73391e-05 -2.80875e-05 -1.29996e-05)
(7.31343e-05 -3.15875e-05 -1.38835e-05)
(2.96468e-08 -9.61244e-09 -6.31845e-10)
(1.61063e-07 -2.45109e-08 4.67491e-09)
(1.18875e-07 -1.47506e-08 1.03486e-08)
(3.30161e-08 -3.49634e-09 4.30238e-09)
(0 0 0)
(6.45358e-08 -1.05333e-08 4.9179e-12)
(0 0 0)
(7.00023e-09 -1.04341e-08 -1.5173e-09)
(5.06594e-08 -3.1389e-08 -7.73292e-09)
(3.92524e-08 -1.49764e-08 -2.54499e-09)
(2.38871e-07 -6.20382e-08 -1.04758e-08)
(1.53353e-07 -4.61914e-08 -2.4372e-09)
(4.22131e-09 -4.18451e-09 -7.36536e-09)
(1.74221e-07 -5.11085e-08 -2.00472e-08)
(5.13357e-08 -1.15244e-08 -1.05093e-08)
(2.60603e-08 -5.06459e-09 -5.43536e-09)
(6.68171e-05 -1.08912e-05 -1.95505e-06)
(6.96388e-05 -1.34576e-05 -4.14951e-06)
(5.95774e-06 1.04709e-06 1.13561e-06)
(6.30149e-07 2.65759e-07 2.87263e-07)
(9.07577e-06 1.61968e-06 6.70482e-07)
(7.64602e-07 5.38004e-07 1.99374e-08)
(1.66436e-05 3.22356e-07 4.48502e-07)
(2.15063e-05 3.19492e-07 1.65273e-06)
(1.10087e-05 -6.09682e-07 3.90143e-07)
(1.02181e-06 1.20192e-07 2.45563e-07)
(1.51981e-06 -5.00768e-08 1.67543e-07)
(4.61005e-06 -2.14426e-06 -1.68791e-06)
(2.35442e-05 2.71525e-07 2.09855e-06)
(1.5632e-05 -2.71112e-06 -1.01345e-07)
(1.20871e-06 -1.88271e-08 -3.45681e-08)
(2.37881e-06 -6.09498e-07 -1.33542e-07)
(6.17764e-05 -1.81025e-05 -4.86635e-06)
(2.46546e-05 -2.09464e-06 -6.87823e-07)
(3.39745e-05 -3.74431e-06 -3.32869e-07)
(1.86675e-05 -2.40844e-06 -5.04169e-07)
(2.21308e-06 -2.43068e-07 7.3473e-08)
(1.52573e-05 -4.34717e-06 -2.11328e-06)
(3.91715e-05 -5.71587e-06 -2.90141e-07)
(4.26214e-05 -8.68685e-06 -1.87884e-06)
(3.63072e-05 -7.02914e-06 -1.81036e-06)
(4.71667e-06 -1.19505e-06 -3.06742e-07)
(1.04645e-05 -2.01713e-06 -5.55322e-07)
(1.73805e-05 -2.81597e-06 -5.92671e-07)
(2.97853e-05 -5.41058e-06 -1.29528e-06)
(1.96644e-05 -3.47634e-06 -6.41968e-07)
(2.14055e-06 -4.15585e-07 -1.08007e-07)
(-1.06638e-07 6.52574e-08 -1.257e-07)
(7.2449e-07 3.36703e-07 3.35407e-07)
(2.89511e-07 7.90077e-08 1.17092e-07)
(1.10291e-08 4.34194e-09 7.98163e-09)
(7.53232e-07 4.1597e-07 2.83972e-07)
(2.58135e-07 8.77832e-08 3.0119e-08)
(-3.39791e-09 -2.46744e-09 -1.83719e-09)
(5.59579e-05 -1.76553e-05 -5.07862e-06)
(3.47027e-09 -7.74608e-08 -1.31548e-07)
(3.55736e-07 -2.29086e-07 -1.43324e-07)
(1.16794e-06 1.25323e-07 2.813e-07)
(4.76062e-07 6.69738e-09 9.00367e-08)
(1.5702e-08 2.04927e-09 7.06373e-09)
(2.14569e-08 -1.88696e-10 6.0729e-09)
(1.19153e-06 9.86771e-08 2.26879e-07)
(5.80863e-07 -1.26356e-07 -4.47234e-09)
(2.32847e-09 -9.13167e-09 -2.70687e-09)
(1.38073e-08 -1.67454e-08 -4.13505e-09)
(1.80054e-06 -1.14491e-07 1.91097e-07)
(7.49857e-07 -7.42917e-08 5.32863e-08)
(3.85719e-08 -4.61529e-09 3.71936e-09)
(2.85672e-08 -2.52571e-09 4.80416e-09)
(1.97449e-06 -2.5012e-07 1.32116e-07)
(1.25306e-06 -3.37987e-07 -5.87957e-08)
(6.61032e-08 -3.52297e-08 -9.47187e-09)
(3.69942e-08 -2.65543e-08 -6.22912e-09)
(1.24419e-06 -4.00149e-07 -1.8915e-07)
(6.73203e-07 -1.41656e-07 -5.5278e-08)
(2.83655e-06 -3.94689e-07 6.62023e-08)
(1.44708e-06 -2.18641e-07 1.15505e-09)
(5.21202e-08 -7.92833e-09 1.5945e-09)
(9.51927e-08 -1.53535e-08 -1.86179e-09)
(3.45462e-06 -6.41604e-07 -1.50767e-08)
(3.23754e-06 -7.20909e-07 -1.84184e-07)
(1.18739e-07 -4.28448e-08 -1.49137e-08)
(2.96788e-07 -7.22863e-08 -2.89136e-08)
(1.40269e-06 -2.52086e-07 -4.20023e-08)
(2.50008e-06 -5.0592e-07 -1.30659e-07)
(1.68748e-08 -3.45763e-09 -5.88557e-09)
(1.99565e-07 -4.30765e-08 -2.10017e-08)
(6.99518e-08 -1.18113e-08 -4.96831e-09)
(1.57241e-08 -8.03401e-09 2.09863e-09)
(1.44434e-08 -5.23708e-09 3.09417e-09)
(1.1399e-08 -3.88561e-09 4.03128e-09)
(8.30402e-10 -2.62298e-09 2.57869e-10)
(9.95894e-10 -2.67195e-09 3.58494e-10)
(1.19204e-08 -5.90152e-09 3.13133e-09)
(3.65489e-09 -7.48133e-09 -2.50734e-10)
(4.6483e-09 -8.77362e-09 3.92344e-11)
(5.25659e-09 -1.01605e-08 2.95748e-10)
(1.39183e-09 -6.10809e-09 -9.03412e-10)
(5.06052e-09 -8.65174e-09 -5.79731e-10)
(1.05808e-09 -2.68309e-09 -5.34999e-11)
(6.24373e-05 -2.82794e-05 -9.51462e-06)
(6.48595e-05 -2.15979e-05 -8.76108e-06)
(7.00242e-05 -2.40022e-05 -7.59363e-06)
(7.05825e-05 -2.86191e-05 -1.21944e-05)
(7.16753e-05 -2.20886e-05 -9.58226e-06)
(6.14905e-05 -2.54702e-05 -9.57241e-06)
(6.38389e-05 -2.46903e-05 -7.83469e-06)
(6.72197e-05 -1.93843e-05 -4.90956e-06)
(6.08195e-05 -1.87726e-05 -5.15202e-06)
(6.13306e-05 -1.42959e-05 -2.09732e-06)
(6.6307e-05 -1.65833e-05 -4.47295e-06)
(5.67927e-05 -2.83721e-05 -9.77648e-06)
(6.64617e-05 -3.32245e-05 -1.29734e-05)
(6.76574e-05 -1.47358e-05 -1.88568e-06)
(7.5132e-05 -1.68045e-05 -4.84141e-06)
(1.17511e-07 -2.58221e-08 -1.19575e-08)
(7.74904e-08 -1.53803e-08 -7.9447e-09)
(3.53148e-08 -1.06303e-08 -2.43475e-09)
(1.97477e-09 -2.57906e-09 -2.24567e-09)
(1.6067e-09 -2.76636e-09 -7.77131e-10)
(4.89613e-08 -1.62402e-08 -4.61657e-09)
(1.27115e-08 -8.07501e-09 -7.61549e-09)
(8.35318e-09 -9.32117e-09 -3.43452e-09)
(4.93103e-09 -6.46178e-09 -4.86663e-09)
(9.88565e-09 -4.27716e-09 -1.03649e-08)