/*--------------------------------*- C++ -*----------------------------------*\
| =========                 |                                                 |
| \\      /  F ield         | OpenFOAM: The Open Source CFD Toolbox           |
|  \\    /   O peration     | Version:  2012                                  |
|   \\  /    A nd           | Website:  www.openfoam.com                      |
|    \\/     M anipulation  |                                                 |
\*---------------------------------------------------------------------------*/
FoamFile
{
    version     2.0;
    format      ascii;
    class       volVectorField;
    location    "0.105/fluid";
    object      U_0;
}
// * * * * * * * * * * * * * * * * * * * * * * * * * * * * * * * * * * * * * //

dimensions      [0 1 -1 0 0 0 0];


internalField   nonuniform List<vector> 
16422
(
(1.01262 -0.209828 -0.0230851)
(1.17025 0.00623667 -0.0163789)
(1.18482 -0.00157454 -0.0098997)
(1.1922 -0.000499467 -0.00596413)
(1.19537 -0.000203065 -0.00362082)
(1.19692 -9.40502e-05 -0.0022203)
(1.19779 -5.36569e-05 -0.00137731)
(1.19831 -3.69387e-05 -0.000862899)
(1.19865 -2.89686e-05 -0.000545545)
(1.19889 -2.83232e-05 -0.000345628)
(1.19908 -2.91477e-05 -0.000219375)
(1.19923 -3.13789e-05 -0.000137539)
(1.19937 -3.73512e-05 -8.45778e-05)
(1.1995 -4.56018e-05 -4.91259e-05)
(1.31995 -0.0132612 -0.00335164)
(1.20634 -0.0512815 -0.0167618)
(1.18653 -0.0228853 -0.0135007)
(1.19123 -0.00862053 -0.00863386)
(1.19452 -0.00402229 -0.00540399)
(1.19658 -0.00213112 -0.00336921)
(1.19785 -0.00122019 -0.00210332)
(1.19863 -0.000730076 -0.00132063)
(1.19913 -0.000448101 -0.000834429)
(1.19944 -0.000279594 -0.000529545)
(1.19964 -0.00017477 -0.000336856)
(1.19977 -0.000106787 -0.000214435)
(1.19985 -6.45667e-05 -0.000136304)
(1.1999 -3.53347e-05 -8.36979e-05)
(1.19993 -1.49924e-05 -4.92862e-05)
(1.24823 0.000913451 -0.00595519)
(1.21606 -0.016303 -0.0137685)
(1.20059 -0.0139052 -0.0105643)
(1.19769 -0.00854051 -0.00679093)
(1.19759 -0.00506051 -0.00440125)
(1.19814 -0.00304618 -0.00286001)
(1.1987 -0.00186853 -0.00184224)
(1.19913 -0.00116467 -0.00118479)
(1.19943 -0.000733501 -0.000762433)
(1.19963 -0.000466067 -0.000490542)
(1.19976 -0.000294714 -0.000315909)
(1.19985 -0.000189391 -0.000203557)
(1.19991 -0.000119465 -0.000130899)
(1.19994 -7.07031e-05 -8.14063e-05)
(1.19996 -3.82144e-05 -4.77473e-05)
(1.30429 0.0801079 0.00199765)
(1.19416 -0.001161 -0.0156604)
(1.19784 -0.00621456 -0.00860584)
(1.20045 -0.00636228 -0.0050971)
(1.19986 -0.00464088 -0.00338283)
(1.19965 -0.00310588 -0.00227897)
(1.19966 -0.00202781 -0.00152198)
(1.19974 -0.00131224 -0.00100957)
(1.19981 -0.000848528 -0.000668737)
(1.19987 -0.000546605 -0.000439556)
(1.19992 -0.000353733 -0.000287505)
(1.19996 -0.000229166 -0.000189266)
(1.19998 -0.000142513 -0.000123443)
(1.19999 -8.58078e-05 -7.72177e-05)
(1.2 -4.83208e-05 -4.48241e-05)
(1.05437 -0.182326 -0.0380223)
(1.18857 0.00724816 -0.0213957)
(1.19139 -0.0011471 -0.0109778)
(1.19565 -0.000352343 -0.00609971)
(1.19727 -0.000148379 -0.00359081)
(1.19802 -7.70067e-05 -0.00217856)
(1.19845 -4.95354e-05 -0.00134548)
(1.19872 -3.55859e-05 -0.000842496)
(1.19891 -2.75944e-05 -0.000530765)
(1.19905 -2.74518e-05 -0.000336181)
(1.19917 -2.83901e-05 -0.000213222)
(1.19929 -3.18835e-05 -0.000135359)
(1.1994 -3.90168e-05 -8.31249e-05)
(1.19953 -4.69686e-05 -4.78925e-05)
(1.28531 -0.0117443 -0.00279514)
(1.20701 -0.033969 -0.0274601)
(1.19396 -0.0157464 -0.0158796)
(1.19596 -0.00627517 -0.00911589)
(1.19743 -0.00308078 -0.00544107)
(1.19835 -0.00170489 -0.00332308)
(1.19893 -0.00101317 -0.0020603)
(1.19931 -0.000626091 -0.00128982)
(1.19955 -0.000394008 -0.000814049)
(1.1997 -0.000249702 -0.000516065)
(1.19981 -0.000158554 -0.000328478)
(1.19988 -9.93047e-05 -0.000209575)
(1.19992 -6.02295e-05 -0.000132972)
(1.19995 -3.28304e-05 -8.19662e-05)
(1.19996 -1.44788e-05 -4.81263e-05)
(1.23195 -0.00136548 -0.00343452)
(1.21559 -0.0122222 -0.0117042)
(1.20409 -0.0101595 -0.0096441)
(1.20059 -0.00642014 -0.00655565)
(1.19966 -0.00394943 -0.00431313)
(1.19952 -0.00246185 -0.00279343)
(1.1996 -0.00156097 -0.00179734)
(1.1997 -0.00100042 -0.00115554)
(1.19979 -0.000644966 -0.00074395)
(1.19986 -0.000418302 -0.000477272)
(1.19992 -0.000270135 -0.000307891)
(1.19995 -0.000175593 -0.000199393)
(1.19997 -0.00011204 -0.00012722)
(1.19999 -6.72976e-05 -7.94794e-05)
(1.2 -3.56767e-05 -4.72791e-05)
(1.22632 0.00435102 -0.00988952)
(1.21111 -0.00197898 -0.0123666)
(1.20504 -0.0054461 -0.00742598)
(1.20265 -0.00496451 -0.00475007)
(1.20132 -0.00366081 -0.0032549)
(1.20066 -0.00252878 -0.00221168)
(1.20034 -0.00170282 -0.00148152)
(1.20019 -0.00113128 -0.000985174)
(1.20012 -0.000749545 -0.000650226)
(1.20008 -0.000493151 -0.000426755)
(1.20006 -0.000323187 -0.000281387)
(1.20005 -0.000212825 -0.000183016)
(1.20004 -0.000134286 -0.000119998)
(1.20004 -8.23321e-05 -7.64327e-05)
(1.20004 -4.52967e-05 -4.50574e-05)
(1.26522 -0.0133978 0.0368469)
(1.19467 -0.00476408 -0.0264682)
(1.19821 -0.00139719 -0.0175631)
(1.19878 -0.000497797 -0.00874566)
(1.19896 -0.000208258 -0.00482164)
(1.19898 -0.000102656 -0.00281406)
(1.19899 -6.46087e-05 -0.00169989)
(1.19902 -4.59692e-05 -0.001048)
(1.19907 -3.34902e-05 -0.000654026)
(1.19912 -2.72724e-05 -0.000410772)
(1.19919 -2.74147e-05 -0.000260401)
(1.19926 -2.84626e-05 -0.00016605)
(1.19934 -3.19702e-05 -0.000105867)
(1.19944 -4.04015e-05 -6.4495e-05)
(1.19956 -4.7462e-05 -3.73134e-05)
(1.23542 -0.00585652 -0.00135636)
(1.213 -0.0122359 -0.0171648)
(1.20345 -0.00704083 -0.0121229)
(1.20088 -0.0037341 -0.00717555)
(1.20017 -0.00213453 -0.00427426)
(1.19995 -0.00130074 -0.0025981)
(1.1999 -0.0008243 -0.00160635)
(1.1999 -0.000532509 -0.0010037)
(1.19992 -0.000347263 -0.000631885)
(1.19994 -0.000224876 -0.000400984)
(1.19995 -0.000144746 -0.000254691)
(1.19997 -9.23845e-05 -0.000162641)
(1.19998 -5.56692e-05 -0.00010292)
(1.19999 -3.07707e-05 -6.40687e-05)
(1.19999 -1.39114e-05 -3.73366e-05)
(1.22002 -0.000948997 -0.00145331)
(1.21361 -0.00593917 -0.00704835)
(1.20672 -0.00581613 -0.00684892)
(1.20312 -0.00424724 -0.00498568)
(1.20149 -0.00287849 -0.00333122)
(1.20075 -0.00192397 -0.00216649)
(1.20039 -0.00128431 -0.00139775)
(1.20022 -0.000856026 -0.000898011)
(1.20012 -0.000569223 -0.000578176)
(1.20008 -0.000376724 -0.000372714)
(1.20005 -0.000247597 -0.000238897)
(1.20004 -0.000163003 -0.000153855)
(1.20003 -0.00010629 -9.86287e-05)
(1.20003 -6.45504e-05 -6.18878e-05)
(1.20003 -3.48357e-05 -3.57397e-05)
(1.21525 -0.000182585 -0.0015207)
(1.21136 -0.00286202 -0.00475126)
(1.2071 -0.00391568 -0.00446858)
(1.20425 -0.00356291 -0.00344191)
(1.20253 -0.0027735 -0.00246832)
(1.20154 -0.00201496 -0.00170124)
(1.20095 -0.00141445 -0.00114824)
(1.20061 -0.000974907 -0.000766416)
(1.20039 -0.000662217 -0.000507591)
(1.20026 -0.000444883 -0.000333428)
(1.20018 -0.000297371 -0.00021694)
(1.20013 -0.000197853 -0.000142138)
(1.2001 -0.000127658 -9.36099e-05)
(1.20008 -7.94535e-05 -5.91421e-05)
(1.20007 -4.42207e-05 -3.45386e-05)
(1.22113 -0.0010444 0.00303131)
(1.2116 -0.000890241 -0.00648216)
(1.20604 -0.000410423 -0.00656898)
(1.20275 -0.000228042 -0.00409681)
(1.201 -0.000126681 -0.0023945)
(1.2001 -7.99145e-05 -0.00142219)
(1.19964 -5.8425e-05 -0.000863043)
(1.19941 -4.3189e-05 -0.000532466)
(1.19931 -3.22261e-05 -0.000330809)
(1.19927 -2.72212e-05 -0.00020848)
(1.19928 -2.77061e-05 -0.000130293)
(1.19933 -2.88519e-05 -8.39134e-05)
(1.19938 -3.12522e-05 -5.35764e-05)
(1.19946 -4.11001e-05 -3.2183e-05)
(1.19958 -4.8129e-05 -1.76104e-05)
(1.21829 -0.000934644 0.000142388)
(1.21263 -0.00324187 -0.00510102)
(1.20712 -0.00289748 -0.00509917)
(1.20371 -0.00215138 -0.00345078)
(1.20193 -0.00149543 -0.00214259)
(1.20101 -0.00102399 -0.00131799)
(1.20054 -0.000697433 -0.00081539)
(1.20029 -0.000471371 -0.000508589)
(1.20016 -0.000315719 -0.000318335)
(1.20009 -0.000210244 -0.000201308)
(1.20005 -0.000137097 -0.000126714)
(1.20003 -8.81179e-05 -8.11864e-05)
(1.20002 -5.34333e-05 -5.07088e-05)
(1.20002 -3.05396e-05 -2.96024e-05)
(1.20001 -1.43355e-05 -1.63629e-05)
(1.21435 -0.000347344 -0.000459908)
(1.21166 -0.00263255 -0.00286686)
(1.20763 -0.00320684 -0.00315842)
(1.20455 -0.00280398 -0.00245064)
(1.20265 -0.00214982 -0.00167422)
(1.20155 -0.00156165 -0.00109418)
(1.20092 -0.00110222 -0.000705915)
(1.20056 -0.000762603 -0.000451349)
(1.20034 -0.000520637 -0.000286383)
(1.20022 -0.000351076 -0.000183923)
(1.20014 -0.000233332 -0.000116771)
(1.2001 -0.00015552 -7.39774e-05)
(1.20008 -0.000103796 -4.62187e-05)
(1.20006 -6.42712e-05 -2.7175e-05)
(1.20005 -3.59433e-05 -1.44475e-05)
(1.21193 -0.000245281 -0.000402379)
(1.21026 -0.001888 -0.00174746)
(1.20751 -0.00265236 -0.00199749)
(1.20506 -0.00260602 -0.00167153)
(1.20329 -0.00218114 -0.00122596)
(1.20212 -0.0016746 -0.000849079)
(1.20136 -0.00122476 -0.000575103)
(1.20088 -0.000873037 -0.000380998)
(1.20058 -0.000606854 -0.000247182)
(1.20038 -0.000413777 -0.000161107)
(1.20026 -0.000280765 -0.000102788)
(1.20019 -0.000190351 -6.63384e-05)
(1.20014 -0.0001246 -4.15277e-05)
(1.20011 -7.87814e-05 -2.49543e-05)
(1.20009 -4.48802e-05 -1.21236e-05)
(0.762702 -0.352008 -0.0211723)
(1.38755 -0.00877264 -0.000978673)
(1.21998 -0.136333 -0.0115141)
(1.3113 0.080358 -0.0170822)
(1.18569 -0.00274984 -0.0126414)
(0.764788 -0.34819 -0.0274603)
(1.38087 -0.0113477 -0.00257751)
(1.21824 -0.134971 -0.0166768)
(0.803991 -0.332407 -0.0871585)
(1.34932 -0.0126751 -0.00207602)
(1.21245 -0.111822 -0.0288775)
(1.18755 0.000343107 -0.0196917)
(1.23758 0.00727634 -0.0151668)
(1.2106 0.000587972 -0.0135021)
(0.823057 -0.328239 -0.062397)
(1.32991 -0.0113415 -0.00394975)
(1.21238 -0.0911009 -0.036297)
(1.22876 0.00464641 -0.141984)
(1.22972 -0.00716276 -0.0657608)
(1.24781 0.00758422 -0.00374586)
(1.22541 -0.016362 -0.0247683)
(1.25245 0.000850039 -0.00124473)
(1.22555 -0.015089 -0.00711858)
(1.2569 0.0210209 -0.00306497)
(1.20969 0.0344762 -0.00540076)
(1.19234 -0.00437434 -0.0109101)
(1.19378 -0.00567135 -0.00764575)
(1.66362 -0.385347 -0.0233239)
(-0.421474 -0.0490191 -0.0493274)
(1.92429 0.00143721 0.0261596)
(1.68104 -0.393543 0.00785248)
(1.90036 0.000909267 -0.00387393)
(-0.408521 -0.0508628 -0.0532619)
(1.22467 -0.0145797 -0.0133332)
(1.25119 0.0202862 -0.0145258)
(1.21007 0.0309718 -0.0112316)
(1.23592 -0.00131449 -0.00387128)
(1.2216 -0.0122829 -0.0118491)
(1.23141 0.00515078 -0.00782829)
(1.21543 -0.00128867 -0.00650556)
(1.22522 0.062761 -0.0195506)
(1.2856 0.0215327 -0.0108797)
(1.22975 0.028941 -0.0348124)
(1.19624 -0.00503809 -0.0102142)
(1.20839 -0.00114749 -0.0124908)
(1.20392 -0.00471672 -0.00990033)
(1.26187 -0.175823 -0.0869161)
(-0.360553 -0.114378 -0.184417)
(1.82525 -0.015256 0.0631246)
(0.575056 0.0651715 -0.253181)
(1.57584 -0.365124 0.0031991)
(1.47014 -0.0704806 0.0138871)
(0.585172 -0.0425655 -0.0897585)
(1.21298 0.000226115 -0.0137917)
(1.2171 4.94741e-05 -0.00209854)
(1.21296 -0.00214421 -0.00528524)
(-0.426684 -0.0489602 -0.018498)
(1.92755 0.00225628 -0.0148603)
(1.68717 -0.39461 -0.0221146)
(1.22895 0.0628919 -0.0174911)
(1.18988 0.0243899 -0.0147656)
(1.17063 0.0313652 -0.0125534)
(1.65153 -0.382366 0.00671533)
(-0.386163 -0.0829707 -0.152784)
(1.84351 -0.00619029 0.0237718)
(1.89382 -0.00116194 0.0371909)
(1.60721 -0.371375 -0.02398)
(-0.398185 -0.0505849 -0.0860951)
(1.19065 0.0239547 -0.0246088)
(1.17445 0.0319838 -0.0195395)
(1.19591 -0.00326248 -0.0275857)
(1.20014 0.015814 -0.0367325)
(1.17924 0.0317267 -0.0155808)
(1.26004 0.0225842 -0.0174668)
(1.22583 0.00746096 -0.0201843)
(1.2413 0.000237865 -0.0276338)
(1.22373 0.0161099 -0.0395087)
(1.22445 -0.00107404 -0.0321825)
(1.20301 -0.00666712 -0.0269669)
(1.21586 0.00383748 -0.017484)
(1.2085 -0.0075542 -0.0181544)
(1.20594 -0.00280483 -0.0343908)
(1.19814 -0.0085372 -0.0162287)
(1.2119 -0.00491289 -0.0268234)
(1.01088 -0.212369 -0.0184201)
(1.16934 0.00528431 -0.0155943)
(1.20024 -0.105032 -0.0124726)
(1.18117 -0.0330959 -0.0124854)
(1.32542 -0.0116413 -0.000867727)
(1.23581 -0.0627955 -0.00993752)
(1.25361 0.00269232 0.00187731)
(1.22973 -0.0167487 -0.0035413)
(1.17111 0.0053873 -0.0181309)
(1.19993 -0.103809 -0.0174539)
(1.1827 -0.0325757 -0.015582)
(1.03429 -0.198627 -0.0561727)
(1.1834 0.00752332 -0.0277724)
(1.2008 -0.0847571 -0.0270694)
(1.18809 -0.0256976 -0.0199885)
(1.23397 -0.0625502 -0.0155923)
(1.24949 0.00241029 -0.00361556)
(1.22902 -0.0168604 -0.0101158)
(1.29717 -0.012644 -0.0017735)
(1.22679 -0.049188 -0.0241411)
(1.24004 0.000271932 -0.00083806)
(1.22409 -0.0161052 -0.00902935)
(1.19578 0.0109768 -0.0301991)
(1.20263 -0.0680976 -0.0303061)
(1.19149 -0.0218517 -0.0209235)
(1.21886 -0.00262647 -0.0448097)
(1.19989 -0.00104072 -0.0267774)
(1.21713 -0.0167213 -0.0246746)
(1.20259 -0.0104296 -0.0183223)
(1.22455 -0.0418532 -0.0285068)
(1.23605 -0.00018479 -0.00137678)
(1.22256 -0.0147465 -0.00984932)
(1.24136 0.00380478 -0.0023155)
(1.22384 -0.0112522 -0.0215132)
(1.22473 0.000267634 -0.00119518)
(1.21843 -0.0074179 -0.00819102)
(1.19336 -0.00747426 -0.0220531)
(1.24154 -0.0104216 -0.000545488)
(1.21686 -0.0186635 -0.0185784)
(1.22027 0.000431327 -0.00983082)
(1.21953 -0.000562548 -0.016158)
(1.22064 0.00176837 -0.00288911)
(1.21747 -0.00201166 -0.00901154)
(-0.157099 -0.261023 -0.0310472)
(1.2072 -0.33954 -0.0157609)
(1.3773 -0.493894 -0.014131)
(1.62278 0.00614584 -0.000296771)
(1.34272 -0.0886505 -0.00562413)
(1.44715 -0.158468 -0.00737023)
(1.36184 -0.481113 -0.0241089)
(-0.152824 -0.258657 -0.0429816)
(1.20434 -0.336016 -0.0206057)
(0.769169 -0.342237 -0.0372097)
(1.37053 -0.48939 -0.0184788)
(1.20152 -0.329471 -0.0256894)
(-0.13723 -0.251479 -0.0635346)
(1.42938 -0.154563 -0.0113462)
(1.6171 0.00554235 0.00338174)
(1.33718 -0.0895026 -0.00902186)
(1.37367 -0.0104249 -0.00110271)
(1.43903 -0.15791 -0.00992785)
(1.60044 0.00514327 0.00514396)
(1.33043 -0.086767 -0.00925362)
(1.349 -0.468561 -0.0355195)
(0.777115 -0.332908 -0.0500134)
(-0.0635887 -0.275164 -0.150032)
(1.19853 -0.301188 -0.0468691)
(1.19873 -0.319075 -0.0360022)
(1.3262 -0.444813 -0.0512673)
(-0.127211 -0.246085 -0.0860982)
(1.41493 -0.15122 -0.0151556)
(1.36333 -0.0114714 -0.00142701)
(1.55349 -0.001726 0.0158678)
(1.30928 -0.0797852 -0.0168857)
(1.58931 0.00420614 0.0100383)
(1.32158 -0.0844534 -0.0125216)
(1.39237 -0.146115 -0.0214186)
(1.17708 -0.275116 -0.193693)
(0.040931 -0.367695 -0.182044)
(1.19102 -0.234337 -0.0905227)
(0.974527 -0.110354 -0.164982)
(1.29095 -0.394104 -0.127721)
(1.19046 -0.171932 -0.148574)
(0.843224 0.0903411 -0.2701)
(1.31956 -0.106154 -0.0713338)
(1.52453 -0.00631985 0.0197966)
(1.29419 -0.0693724 -0.0244754)
(1.30171 -0.0129391 -0.00774379)
(1.36052 -0.135226 -0.0398431)
(1.39767 -0.0339377 0.0039757)
(1.27134 -0.0531866 -0.032052)
(1.2618 -0.0792481 -0.102702)
(1.41324 -0.114223 -0.252388)
(1.23646 0.00110271 -0.16582)
(1.31348 0.0313479 -0.0765371)
(1.40591 0.00299045 -0.0215351)
(1.30767 0.0296465 -0.108807)
(1.44828 -0.087221 -0.275451)
(-0.179089 0.197057 -0.0665248)
(0.70011 -0.396099 -0.0383642)
(-0.419264 -0.0498104 -0.031112)
(-0.164864 0.185192 0.0123534)
(0.697882 -0.394289 -0.0428483)
(-0.0218042 -0.0295744 -0.0309878)
(1.80714 -0.21139 0.0199798)
(1.91614 0.00155468 -0.0106084)
(-0.0143094 -0.0303618 -0.0173769)
(1.80007 -0.209694 -0.0200047)
(-0.0139294 -0.0297245 -0.0238419)
(1.78469 -0.206927 -0.0168204)
(1.91173 0.000613638 0.0304824)
(1.79465 -0.209508 0.0217097)
(-0.0236753 -0.0289285 -0.0427865)
(-0.162224 0.184021 0.0019664)
(0.689701 -0.387393 -0.0617954)
(-0.411931 -0.0497487 -0.0626443)
(0.69396 -0.39031 -0.0513134)
(-0.180886 0.199732 -0.0761027)
(1.34295 0.147717 -0.0117253)
(1.26426 0.098641 -0.0681585)
(1.2576 0.136363 -0.0334391)
(1.29865 0.0503486 -0.0461857)
(1.38789 0.159781 -0.0402308)
(1.52516 0.150261 0.0287421)
(1.39589 0.170192 0.00698181)
(1.50439 0.139103 -0.0303759)
(1.34564 0.156159 -0.04217)
(1.25175 0.159303 -0.0200413)
(1.34937 0.163976 0.00207343)
(1.25201 0.155365 -0.0258408)
(1.38299 0.150531 -0.00395602)
(1.41604 -0.0023818 0.00779959)
(1.49655 0.135735 0.0331512)
(1.32229 0.0447666 -0.0366922)
(0.147837 -0.11508 -0.34916)
(0.668763 -0.437308 -0.192331)
(-0.244912 -0.34404 0.137734)
(-0.139579 0.181203 -0.026847)
(0.727013 -0.611873 -0.517281)
(0.176827 -0.189992 -0.186524)
(1.69927 -0.211856 0.0310236)
(1.77643 -0.0124556 0.0420452)
(0.0178089 -0.052892 -0.0623236)
(1.65607 -0.212423 -0.0156187)
(0.65785 -0.0435563 0.272278)
(0.511517 0.0759679 -0.217931)
(0.850551 -0.121216 -0.0051467)
(0.222623 -0.208224 -0.183593)
(1.37084 -0.147267 -0.0938091)
(1.7157 -0.040356 0.0708314)
(1.25427 -0.262137 0.265997)
(1.58225 -0.215709 -0.00501542)
(1.34836 -0.37476 -0.086659)
(0.178361 -0.170985 -0.323816)
(1.27665 -0.246144 -0.35711)
(-0.166006 -0.286952 0.255081)
(0.536332 0.0637528 -0.217471)
(0.644705 -0.454149 -0.593788)
(1.03663 -0.211734 -0.0780067)
(-0.166754 0.186076 0.0192466)
(0.702706 -0.398593 -0.0310435)
(-0.428007 -0.0483832 -0.0415518)
(-0.177877 0.195344 -0.0601574)
(0.704005 -0.399669 -0.0300683)
(-0.0145187 -0.0308374 -0.0132055)
(1.93374 0.00175577 0.0243735)
(1.8112 -0.211295 -0.0222102)
(-0.02031 -0.0302105 -0.023072)
(1.81637 -0.212878 0.0202619)
(-0.0193816 -0.0306601 -0.0181585)
(1.81866 -0.213566 -0.0223153)
(-0.177189 0.194318 -0.0563999)
(0.70616 -0.402169 -0.0236032)
(1.35583 0.165656 -0.0281831)
(1.40277 0.172138 0.0150306)
(1.52988 0.14922 -0.0391345)
(1.39916 0.170767 -0.0354127)
(1.5364 0.150671 0.0315316)
(1.40427 0.172279 -0.0297672)
(1.53844 0.150132 -0.0369479)
(1.35463 0.165385 0.0110729)
(1.25242 0.161681 -0.0139552)
(1.3519 0.164537 -0.0343561)
(1.25394 0.161417 -0.0118839)
(1.17604 0.0523867 -0.0108088)
(1.19207 0.107108 -0.0162342)
(1.19257 0.10663 -0.0113833)
(1.17662 0.0522129 -0.0168104)
(-0.154757 0.18264 -0.0238448)
(0.663344 -0.411382 -0.154007)
(-0.379937 -0.0543157 -0.128179)
(-0.176036 0.207031 -0.0812241)
(0.671315 -0.3847 -0.10301)
(-0.00657086 -0.0333119 -0.044322)
(1.86769 -0.00620841 0.0482106)
(1.72467 -0.205846 -0.00337387)
(-0.00437133 -0.0477158 -0.0789934)
(1.74722 -0.207306 0.0282191)
(-0.021671 -0.0317533 -0.0575868)
(1.77618 -0.207352 0.0241059)
(1.87779 -0.00204992 0.00730969)
(-0.0128488 -0.0293698 -0.0331749)
(1.76128 -0.205359 -0.0109257)
(-0.182094 0.203334 -0.0847449)
(0.683975 -0.382545 -0.0715391)
(-0.394381 -0.0537055 -0.0929143)
(-0.158935 0.182935 -0.0120358)
(0.677762 -0.384117 -0.0907186)
(1.18803 0.0433198 -0.0202979)
(1.22582 0.0536249 -0.048765)
(1.20559 0.0869672 -0.0223369)
(1.20498 0.0276624 -0.0391729)
(1.18008 0.049832 -0.0217783)
(1.19275 0.105965 -0.017874)
(1.19472 0.10279 -0.0231804)
(1.17809 0.0522205 -0.0168404)
(1.22924 0.0216784 -0.0374542)
(1.19434 0.0573223 -0.0653989)
(1.2121 0.069129 -0.0781922)
(1.21747 0.0118039 -0.0270586)
(1.24399 0.0323593 -0.0488098)
(1.29855 0.000864618 -0.0452769)
(1.23403 0.0287675 -0.0705458)
(1.2584 0.0358287 -0.0386373)
(1.20214 -0.00438972 -0.0114565)
(1.19055 0.0397394 -0.039976)
(1.19432 0.0173323 -0.0267402)
(1.20787 -0.00108084 -0.0117553)
(1.22148 -0.0531067 -0.0643859)
(1.21758 0.00545392 -0.0413931)
(1.24679 -0.00746684 -0.110066)
(1.24602 0.00172037 -0.0661913)
(1.20172 -0.0210591 -0.061307)
(1.27877 0.011454 -0.0935947)
(1.26199 -0.0397073 -0.0706565)
(1.28566 -0.0431415 -0.0679595)
(1.27075 -0.0148277 -0.0198098)
(1.26675 0.02617 -0.00813554)
(1.24466 -0.00313272 -0.0164329)
(1.32218 -0.0290783 -0.0259775)
(1.25484 -0.0400484 -0.0399383)
(1.26187 0.0173963 -0.0361195)
(0.263948 0.0512587 -0.0416017)
(1.66933 -0.38858 0.00749209)
(1.81475 -0.255919 -0.00259545)
(1.29439 -0.509715 -0.0250447)
(1.30017 -0.513751 -0.0294798)
(1.82199 -0.257935 -0.000221616)
(0.261035 0.0516152 -0.0523065)
(0.263594 0.0522331 -0.0378453)
(1.67715 -0.39136 -0.022545)
(1.31001 -0.51953 -0.0238826)
(1.83453 -0.260679 -0.00157422)
(0.265989 0.0516219 -0.0308665)
(1.30616 -0.516875 -0.0172337)
(1.82952 -0.259342 -0.00396775)
(0.659778 -0.382874 -0.395667)
(1.44401 -0.257221 -0.0556344)
(1.37821 -0.202312 -0.0757482)
(1.16415 -0.370081 -0.268577)
(1.12229 -0.530136 -0.359867)
(1.59931 -0.244693 -0.0424208)
(1.42073 -0.414366 -0.169519)
(0.64311 0.111077 0.0688861)
(0.544212 0.085909 -0.246942)
(0.744897 0.172713 0.00409433)
(0.609159 -0.315933 -0.251223)
(1.55145 -0.339016 -0.0442155)
(1.23111 -0.503253 -0.0912002)
(1.72349 -0.271292 0.00722181)
(0.320389 -0.0348176 -0.104794)
(1.22849 -0.535414 -0.214059)
(1.69408 -0.269939 -0.0116774)
(0.267384 0.0520081 -0.024008)
(1.69003 -0.396233 0.00938083)
(1.31433 -0.521199 -0.0122324)
(1.8404 -0.261131 -0.00476065)
(0.265554 0.0525156 -0.0281703)
(1.3171 -0.523019 -0.0196989)
(1.84412 -0.262287 -0.00133602)
(0.263836 0.0438785 -0.0703894)
(1.8032 -0.25519 0.00193098)
(1.64241 -0.378622 -0.0240895)
(1.28588 -0.505929 -0.0377558)
(0.262263 0.0494207 -0.0570324)
(1.2777 -0.500998 -0.0362283)
(1.79224 -0.253909 0.000400227)
(0.269739 0.0360129 -0.0753392)
(1.62113 -0.376613 0.0059157)
(1.24921 -0.495073 -0.0606895)
(1.75632 -0.258283 0.00455094)
(0.29368 0.000198455 -0.0967715)
(1.26442 -0.499441 -0.0501098)
(1.77339 -0.256729 0.00632533)
(1.65701 -0.132598 -0.110201)
(1.46145 -0.110943 -0.318286)
(1.66402 -0.125225 -0.206328)
(1.62551 -0.0714797 0.0288836)
(1.15857 -0.106839 0.0299745)
(1.67014 -0.0616766 0.0893286)
(1.15325 -0.115519 0.0175432)
(1.37617 -0.0318585 -0.0891243)
(1.56639 -0.0752651 -0.118566)
(1.52576 -0.105093 -0.225161)
(1.3709 -0.130592 0.0276279)
(1.38377 -0.0557958 0.0277795)
(1.41474 -0.106182 0.0693841)
(1.34766 -0.0872099 -0.0152808)
(1.60039 -0.0669335 -0.256932)
(1.45458 -0.101748 -0.312664)
(1.64938 -0.106759 -0.242199)
(1.56369 -0.0890018 0.00624072)
(1.17524 -0.165347 0.103164)
(1.47224 -0.0972535 -0.0461485)
(1.13466 -0.139758 0.0750086)
(-0.244427 0.661166 -0.0420919)
(-0.163058 0.184408 0.00708341)
(-0.00594298 0.343969 -0.0559173)
(-0.00455369 0.341905 -0.0516022)
(-0.256665 0.678503 -0.0913593)
(-0.263104 0.553989 -0.0677214)
(-0.0505181 0.09453 -0.00460518)
(-0.256759 0.544944 -0.0262579)
(-0.0512152 0.0967792 -0.0272404)
(-0.256431 0.680183 -0.0813902)
(-0.177647 0.195698 -0.0627366)
(-0.00568255 0.34558 -0.045168)
(-0.00470524 0.343501 -0.0484504)
(-0.248664 0.66907 -0.0313351)
(-0.252304 0.539006 -0.0352978)
(-0.0510964 0.0961783 -0.0307553)
(-0.262199 0.552586 -0.0764678)
(-0.050113 0.0937848 -0.00730419)
(1.32171 -0.239164 -0.0476523)
(-0.0159155 -0.0295154 -0.0197725)
(1.14129 -0.256292 -0.0150119)
(1.1432 -0.257753 -0.0118671)
(1.321 -0.23821 0.0302157)
(1.28418 -0.206316 0.0335869)
(1.23402 0.0823546 -0.0363392)
(1.28529 -0.205752 -0.0486167)
(1.23171 0.0811191 0.0270291)
(1.3254 -0.240012 0.0315032)
(-0.0219766 -0.0297451 -0.0274844)
(1.14727 -0.258469 -0.010331)
(1.14537 -0.258136 -0.0132083)
(1.32671 -0.239432 -0.0470057)
(1.28055 -0.205637 -0.0492026)
(1.22825 0.0812297 0.0269035)
(1.28 -0.204846 0.032561)
(1.22931 0.0815022 -0.0364086)
(1.3165 -0.237555 0.0299415)
(1.14021 -0.255935 -0.0131474)
(-0.0239077 -0.0288698 -0.0372852)
(1.13766 -0.255229 -0.0160847)
(1.31831 -0.237142 -0.0476131)
(1.27083 -0.203425 -0.0494811)
(1.21892 0.0804484 0.0265949)
(1.22115 0.0812414 -0.0360429)
(1.27006 -0.20307 0.0311326)
(1.27572 -0.204379 0.031991)
(1.22707 0.0821707 -0.0362115)
(1.27729 -0.203899 -0.0491022)
(1.2239 0.0806397 0.0263355)
(1.31139 -0.236381 -0.0479947)
(-0.015939 -0.0284407 -0.0277154)
(1.13206 -0.253217 -0.0182213)
(1.13418 -0.254595 -0.014867)
(1.31052 -0.235893 0.0286914)
(-0.253027 0.671215 -0.104248)
(-0.00481024 0.34075 -0.0612257)
(-0.179242 0.197899 -0.0707247)
(-0.0040989 0.338719 -0.0661626)
(-0.242752 0.656301 -0.053373)
(-0.244429 0.52764 -0.058676)
(-0.0508587 0.0949253 -0.0398683)
(-0.256392 0.54528 -0.101504)
(-0.0496648 0.0916264 -0.0156335)
(-0.238116 0.646867 -0.0696529)
(-0.16021 0.18324 -0.00511431)
(-0.00512936 0.338141 -0.0771038)
(-0.00401168 0.336723 -0.0710083)
(-0.252545 0.667959 -0.119735)
(-0.258247 0.547538 -0.0875618)
(-0.0501328 0.0927807 -0.0109938)
(-0.249684 0.534934 -0.044676)
(-0.0509723 0.0956286 -0.0342346)
(-0.100729 0.443002 0.0753505)
(-0.0847346 0.164277 -0.0477674)
(0.36768 -0.287433 -0.36748)
(0.232513 -0.0671612 -0.242352)
(0.0324375 0.157388 0.20066)
(-0.205919 0.479166 0.0124897)
(-0.0584165 0.0994143 -0.0314244)
(-0.233902 0.517981 -0.0410673)
(-0.0812222 0.101453 -0.021146)
(-0.132178 0.496367 -0.0284791)
(-0.158858 0.20813 -0.0741657)
(0.0574008 0.221276 -0.124422)
(0.11153 0.133827 -0.157753)
(-0.19888 0.587346 -0.051464)
(-0.190422 0.46965 0.103421)
(-0.110005 0.0994151 0.142094)
(-0.0724276 0.252232 0.173429)
(-0.0892878 0.121165 0.0250252)
(1.33047 -0.27273 -0.0563498)
(0.0563906 -0.0902097 -0.0741028)
(1.22164 -0.330842 -0.113544)
(1.18115 -0.304761 -0.0501225)
(1.37269 -0.305624 -0.0705333)
(1.29888 -0.228158 0.0103138)
(1.2174 0.0809909 -0.0324929)
(1.27135 -0.21552 -0.0464019)
(1.23093 0.0780589 0.0164378)
(1.34254 -0.26864 0.00846796)
(0.0277416 -0.0766842 -0.0865933)
(1.14841 -0.274528 -0.0258569)
(1.16782 -0.287042 -0.0338306)
(1.31358 -0.252502 -0.0445307)
(1.2847 -0.230173 -0.059571)
(1.22716 0.0720404 -0.0114271)
(1.32139 -0.25477 -0.0583982)
(1.21995 0.0802881 -0.0418133)
(0.496652 -0.152125 -0.0457313)
(0.646505 -0.00146602 0.183802)
(0.575774 -0.0955687 -0.120035)
(0.520979 0.0924297 -0.231429)
(0.994192 0.157982 -0.1063)
(0.863788 0.178924 -0.0317421)
(0.710119 -0.0905149 0.14415)
(0.834438 -0.0411041 -0.195522)
(0.687278 -0.0875621 -0.156822)
(1.53807 -0.327676 -0.260338)
(1.29369 -0.370196 -0.204978)
(0.193922 -0.188944 -0.0459403)
(1.32247 -0.3665 -0.3189)
(1.40934 -0.323389 -0.133786)
(1.5771 -0.215664 -0.247088)
(1.69932 -0.155019 0.101096)
(1.20868 -0.275266 0.1516)
(1.66084 -0.213103 0.0257586)
(1.58801 0.123134 -0.127279)
(1.50206 -0.26979 -0.235769)
(1.26101 0.0852004 -0.0653676)
(1.35282 -0.266906 -0.124651)
(1.33922 0.0912159 -0.0631267)
(1.57826 -0.280431 -0.254754)
(0.20188 -0.0285892 -0.2613)
(1.54165 -0.319102 -0.0886313)
(1.31621 -0.37476 0.0570988)
(1.6313 -0.297755 -0.00890516)
(1.26048 -0.320949 -0.254839)
(-0.141456 0.513815 0.145129)
(0.293562 -0.255769 -0.421308)
(0.0217685 0.0368801 0.230243)
(0.133919 0.0876296 -0.213203)
(0.01474 0.2048 0.290867)
(0.24203 0.0504966 -0.0782398)
(0.57699 0.0431061 -0.208146)
(1.17267 0.113854 -0.17781)
(1.3251 0.0788268 -0.239137)
(0.162996 0.0135679 -0.055086)
(0.110004 0.26357 -0.19438)
(0.119502 0.297364 -0.0991517)
(1.16592 -0.24339 -0.221376)
(1.03375 -0.0674603 -0.259507)
(1.19898 -0.0624802 -0.294708)
(0.661584 0.167306 -0.315835)
(-0.0747886 0.425412 0.26343)
(-0.0954007 0.120185 0.191896)
(-0.107066 0.318311 0.296781)
(-0.0247089 0.0432469 -0.000901377)
(-0.258995 0.686861 -0.0676582)
(-0.176665 0.194322 -0.0576614)
(-0.00657469 0.349316 -0.0349907)
(-0.00545843 0.347283 -0.0369736)
(-0.253052 0.678261 -0.0179337)
(-0.25803 0.547215 -0.0209218)
(-0.0513279 0.0971325 -0.0254796)
(-0.26658 0.55837 -0.0613359)
(-0.0504125 0.0950797 -0.00238282)
(-0.24929 0.671783 -0.0247742)
(-0.165252 0.185429 0.0155849)
(-0.00672032 0.348267 -0.0415355)
(-0.259875 0.686464 -0.0736954)
(-0.00528314 0.345974 -0.0387912)
(-0.26658 0.558829 -0.0559985)
(-0.0508069 0.0957797 -0.000786929)
(-0.261825 0.552014 -0.0151902)
(-0.0513267 0.097382 -0.0231965)
(1.33269 -0.241895 0.033062)
(-0.0206724 -0.0303485 -0.0210381)
(1.15293 -0.26028 -0.0082379)
(1.33358 -0.241216 -0.046301)
(1.15149 -0.260177 -0.010914)
(1.28794 -0.207274 -0.048509)
(1.23552 0.0817869 0.0276106)
(1.28771 -0.206423 0.03413)
(1.23588 0.0817901 -0.0362309)
(1.32946 -0.24117 -0.0468755)
(-0.01601 -0.0301851 -0.0144633)
(1.14817 -0.258606 -0.0123566)
(1.32906 -0.240198 0.0318331)
(1.14965 -0.259813 -0.00932809)
(1.29117 -0.207844 0.0351426)
(1.24 0.0826147 -0.0361857)
(1.23834 0.0816045 0.0278353)
(1.29189 -0.207223 -0.0479709)
(1.3356 -0.241902 0.0330592)
(1.24159 0.0822615 0.0282844)
(1.29401 -0.20778 0.0353802)
(-0.262323 0.692379 -0.0634674)
(-0.0514861 0.097768 -0.022445)
(-0.269824 0.562727 -0.052641)
(-0.244908 0.650005 -0.155597)
(-0.180229 0.204775 -0.0833098)
(0.00370414 0.314413 -0.103941)
(0.00966672 0.303115 -0.105572)
(-0.229206 0.624213 -0.120654)
(-0.238297 0.514434 -0.107803)
(-0.0615977 0.0985989 -0.0510158)
(-0.258266 0.541047 -0.0989809)
(-0.053268 0.0905275 -0.0463039)
(-0.22413 0.615566 -0.115159)
(-0.150218 0.182089 -0.0248256)
(0.0325666 0.263994 -0.11187)
(-0.229641 0.627306 -0.111794)
(0.0187204 0.285238 -0.107427)
(-0.255003 0.54224 -0.143041)
(-0.0502922 0.0888251 -0.0382015)
(-0.234123 0.51254 -0.107191)
(-0.0544811 0.0957363 -0.0638393)
(1.30666 -0.239855 0.0283416)
(-0.0182565 -0.0359354 -0.0672511)
(1.12852 -0.254666 -0.0186642)
(1.30259 -0.23641 -0.0454378)
(1.12904 -0.255607 -0.020983)
(1.2561 -0.205483 -0.0457239)
(1.2081 0.0768926 0.0266091)
(1.2649 -0.212854 0.0266486)
(1.2092 0.0805231 -0.0323819)
(1.29563 -0.239098 -0.0435149)
(-0.00440674 -0.035948 -0.0516057)
(1.12849 -0.262977 -0.0249893)
(1.30519 -0.248082 0.0236918)
(1.1232 -0.25784 -0.0192421)
(1.26649 -0.206293 0.0299767)
(1.21455 0.0817568 -0.0329864)
(1.21349 0.0794701 0.0267622)
(1.26232 -0.20326 -0.0468292)
(1.30141 -0.234891 -0.0469397)
(-0.0141403 -0.0287211 -0.0382136)
(1.12507 -0.252569 -0.0207087)
(1.12562 -0.252696 -0.01743)
(1.30281 -0.236631 0.0281138)
(1.26737 -0.203154 0.0308815)
(1.21913 0.0819579 -0.0353998)
(1.26783 -0.202073 -0.0489527)
(1.21607 0.0800917 0.0263254)
(1.30761 -0.235931 0.0288727)
(-0.0250363 -0.0289875 -0.0507716)
(1.1318 -0.253284 -0.0163834)
(1.30831 -0.234869 -0.0476107)
(1.12953 -0.252667 -0.0190431)
(1.26153 -0.202272 -0.0484855)
(1.21116 0.0793538 0.0273263)
(1.21375 0.0809731 -0.0346835)
(1.26277 -0.2038 0.0306442)
(-0.231475 0.630402 -0.106926)
(-0.156819 0.182501 -0.0189025)
(-0.000871955 0.324936 -0.0995544)
(-0.00177896 0.326865 -0.0942394)
(-0.248581 0.657055 -0.152905)
(-0.252774 0.540721 -0.118397)
(-0.0497432 0.0904296 -0.0217715)
(-0.240679 0.521967 -0.0736082)
(-0.051014 0.0944993 -0.0462637)
(-0.249131 0.660275 -0.137727)
(-0.181151 0.201174 -0.080742)
(-0.00363519 0.333656 -0.0837748)
(-0.235651 0.639866 -0.0868148)
(-0.00269469 0.330776 -0.0893238)
(-0.236044 0.515166 -0.0924469)