/*--------------------------------*- C++ -*----------------------------------*\
| =========                 |                                                 |
| \\      /  F ield         | OpenFOAM: The Open Source CFD Toolbox           |
|  \\    /   O peration     | Version:  2012                                  |
|   \\  /    A nd           | Website:  www.openfoam.com                      |
|    \\/     M anipulation  |                                                 |
\*---------------------------------------------------------------------------*/
FoamFile
{
    version     2.0;
    format      ascii;
    class       surfaceVectorField;
    location    "0.105/fluid";
    object      Uf;
}
// * * * * * * * * * * * * * * * * * * * * * * * * * * * * * * * * * * * * * //

dimensions      [0 1 -1 0 0 0 0];


internalField   nonuniform List<vector> 
47129
(
(0.895395 -0.279571 -0.0253022)
(1.01103 -0.211769 -0.0211063)
(1.07267 -0.187003 -0.0218315)
(1.01368 -0.208622 -0.0260398)
(1.07485 -0.150891 -0.0220514)
(1.17077 0.00582752 -0.0172624)
(1.16937 0.00627246 -0.0155971)
(1.16616 0.000979745 -0.0162337)
(1.17149 0.00636841 -0.0172114)
(1.17136 0.00388726 -0.015479)
(1.18416 -0.00161246 -0.00967263)
(1.18305 -0.00177381 -0.0105851)
(1.18609 -0.00134424 -0.00930856)
(1.18545 -0.00280516 -0.00979372)
(1.18552 -0.00153536 -0.0101195)
(1.1918 -0.000515744 -0.0058691)
(1.19155 -0.000562862 -0.00636489)
(1.19271 -0.000449795 -0.00561292)
(1.19251 -0.0010696 -0.00591699)
(1.1926 -0.000483155 -0.00603545)
(1.19514 -0.000209988 -0.00357119)
(1.19507 -0.000228329 -0.00385962)
(1.19561 -0.000183989 -0.0034107)
(1.19569 -0.000496312 -0.00360181)
(1.1956 -0.000196624 -0.00364994)
(1.19679 -9.61077e-05 -0.00219084)
(1.19677 -0.000102998 -0.00236303)
(1.19705 -8.71976e-05 -0.00209403)
(1.19737 -0.000258071 -0.00221503)
(1.19706 -9.20516e-05 -0.00223537)
(1.1977 -5.42744e-05 -0.00135934)
(1.1977 -5.71717e-05 -0.00146348)
(1.19786 -5.08927e-05 -0.00130053)
(1.19834 -0.000150228 -0.00137618)
(1.19787 -5.31382e-05 -0.00138586)
(1.19826 -3.70963e-05 -0.000851572)
(1.19825 -3.85179e-05 -0.000915781)
(1.19836 -3.56101e-05 -0.000815705)
(1.19892 -9.55096e-05 -0.00086281)
(1.19836 -3.67984e-05 -0.000868118)
(1.19862 -2.92435e-05 -0.000538514)
(1.19861 -2.96558e-05 -0.000578444)
(1.19868 -2.84764e-05 -0.000516008)
(1.19927 -6.49532e-05 -0.000545104)
(1.19868 -2.88084e-05 -0.00054865)
(1.19887 -2.83774e-05 -0.00034095)
(1.19886 -2.81303e-05 -0.000366454)
(1.19892 -2.85595e-05 -0.000326724)
(1.19949 -4.95743e-05 -0.000345393)
(1.19891 -2.81428e-05 -0.000347806)
(1.19907 -2.92952e-05 -0.000216398)
(1.19906 -2.90824e-05 -0.00023237)
(1.1991 -2.93752e-05 -0.000207418)
(1.19963 -3.99379e-05 -0.000219032)
(1.19909 -2.90277e-05 -0.00022056)
(1.19922 -3.12359e-05 -0.000135591)
(1.19921 -3.10908e-05 -0.000146071)
(1.19925 -3.1856e-05 -0.000129853)
(1.19972 -3.481e-05 -0.00013804)
(1.19924 -3.15463e-05 -0.000138604)
(1.19936 -3.72145e-05 -8.35598e-05)
(1.19935 -3.63722e-05 -9.02172e-05)
(1.19938 -3.84638e-05 -7.94829e-05)
(1.19977 -3.38658e-05 -8.51241e-05)
(1.19937 -3.75595e-05 -8.50528e-05)
(1.19949 -4.54582e-05 -4.85271e-05)
(1.19948 -4.47426e-05 -5.29858e-05)
(1.19952 -4.5842e-05 -4.54329e-05)
(1.1998 -3.60415e-05 -4.96912e-05)
(1.1995 -4.58126e-05 -4.9438e-05)
(1.35038 -0.0114492 -0.00296448)
(1.32268 -0.0123934 -0.00228203)
(1.31137 -0.0329559 -0.00592174)
(1.31717 -0.0127188 -0.00226213)
(1.30084 -0.00753346 -0.00329765)
(1.20312 -0.0753514 -0.0171224)
(1.22039 -0.0569705 -0.0161897)
(1.2065 -0.0514735 -0.0144446)
(1.20591 -0.0496216 -0.0166461)
(1.20058 -0.0472476 -0.0167489)
(1.2115 -0.0519139 -0.0152665)
(1.18559 -0.0231349 -0.0125086)
(1.18398 -0.0223551 -0.0138864)
(1.18646 -0.0262752 -0.014165)
(1.18702 -0.0221214 -0.0133411)
(1.18738 -0.0202468 -0.0128406)
(1.19055 -0.0224954 -0.0128721)
(1.19065 -0.00882001 -0.00842943)
(1.19028 -0.00820282 -0.00884348)
(1.19074 -0.0097033 -0.00917083)
(1.19172 -0.00782875 -0.00815871)
(1.1923 -0.00897988 -0.00838954)
(1.19174 -0.00836648 -0.00870068)
(1.19417 -0.00413222 -0.00532539)
(1.19417 -0.00372366 -0.00550194)
(1.19417 -0.00441691 -0.00574059)
(1.19482 -0.00371621 -0.00510341)
(1.19492 -0.00429328 -0.00528705)
(1.19486 -0.00391765 -0.00545637)
(1.19637 -0.00218397 -0.00332399)
(1.19643 -0.00194264 -0.00341488)
(1.19637 -0.00230686 -0.00358023)
(1.19677 -0.00198973 -0.00318099)
(1.19676 -0.00230228 -0.00331301)
(1.1968 -0.00208226 -0.00339391)
(1.19771 -0.00124659 -0.0020757)
(1.19777 -0.00110368 -0.00212576)
(1.19772 -0.00130934 -0.00223379)
(1.19796 -0.00114639 -0.00198676)
(1.19794 -0.00132766 -0.00207515)
(1.19798 -0.00119605 -0.00211697)
(1.19855 -0.00074353 -0.00130333)
(1.19859 -0.000657842 -0.00133187)
(1.19855 -0.000779744 -0.00140124)
(1.19871 -0.000688186 -0.00124829)
(1.19868 -0.000797912 -0.00130618)
(1.19872 -0.00071787 -0.0013287)
(1.19907 -0.000455137 -0.000823425)
(1.1991 -0.000403057 -0.000840185)
(1.19907 -0.000477096 -0.000884574)
(1.19917 -0.000423336 -0.000789223)
(1.19916 -0.000491393 -0.00082676)
(1.19918 -0.000441719 -0.000839385)
(1.19941 -0.000283374 -0.000522634)
(1.19942 -0.000251353 -0.000532625)
(1.19941 -0.000297169 -0.000561141)
(1.19947 -0.000264349 -0.000500968)
(1.19946 -0.000307842 -0.000525326)
(1.19947 -0.000276078 -0.000532541)
(1.19962 -0.000176808 -0.000332439)
(1.19963 -0.000158044 -0.000338543)
(1.19962 -0.000185869 -0.000356833)
(1.19966 -0.000164925 -0.000318724)
(1.19965 -0.000194169 -0.000334557)
(1.19966 -0.000172825 -0.000338811)
(1.19975 -0.000107877 -0.000211468)
(1.19976 -9.83795e-05 -0.000215319)
(1.19975 -0.000113916 -0.00022713)
(1.19978 -0.000100575 -0.000202923)
(1.19977 -0.000121242 -0.000213258)
(1.19978 -0.000105817 -0.000215832)
(1.19984 -6.50569e-05 -0.000134442)
(1.19984 -6.18223e-05 -0.000136856)
(1.19984 -6.90235e-05 -0.000144509)
(1.19986 -6.04694e-05 -0.000128721)
(1.19985 -7.68186e-05 -0.000135848)
(1.19986 -6.40498e-05 -0.000137165)
(1.19989 -3.5592e-05 -8.26578e-05)
(1.19989 -3.79481e-05 -8.44058e-05)
(1.1999 -3.85605e-05 -8.92787e-05)
(1.19991 -3.23302e-05 -7.87155e-05)
(1.1999 -4.66435e-05 -8.38369e-05)
(1.19991 -3.50236e-05 -8.41769e-05)
(1.19992 -1.50936e-05 -4.85806e-05)
(1.19992 -2.1483e-05 -4.97395e-05)
(1.19993 -1.70498e-05 -5.30397e-05)
(1.19993 -1.32083e-05 -4.56491e-05)
(1.19993 -2.52885e-05 -4.95463e-05)
(1.19993 -1.49004e-05 -4.96585e-05)
(1.25023 0.00087648 -0.00385674)
(1.24877 0.00146672 -0.00478875)
(1.2453 -0.00187566 -0.00768085)
(1.24424 0.00463345 -0.00553789)
(1.24635 0.000134584 -0.00433154)
(1.22031 -0.0155291 -0.013543)
(1.21591 -0.0167148 -0.0112095)
(1.21843 -0.0174424 -0.0124194)
(1.21728 -0.00842211 -0.0116984)
(1.21587 -0.0160434 -0.0123216)
(1.21294 -0.016578 -0.0135988)
(1.19961 -0.0142832 -0.00937325)
(1.20117 -0.0142423 -0.0104642)
(1.20159 -0.0146046 -0.0111006)
(1.19998 -0.013233 -0.0100368)
(1.20264 -0.012149 -0.00969537)
(1.20077 -0.0135283 -0.00974029)
(1.19716 -0.00877747 -0.00656065)
(1.19727 -0.00862594 -0.00697909)
(1.19786 -0.00915855 -0.00719706)
(1.19763 -0.00802995 -0.00643259)
(1.19845 -0.00828496 -0.00650939)
(1.198 -0.00830941 -0.00665372)
(1.19734 -0.00519739 -0.00434476)
(1.19724 -0.00503648 -0.00453052)
(1.19756 -0.0054194 -0.00464633)
(1.19766 -0.00476287 -0.00417727)
(1.19793 -0.00505739 -0.00426731)
(1.19785 -0.0049347 -0.00442586)
(1.19797 -0.00312041 -0.00282308)
(1.19794 -0.00298336 -0.00292912)
(1.19807 -0.00325365 -0.00302336)
(1.19822 -0.00287228 -0.00271068)
(1.19834 -0.00308958 -0.00278666)
(1.19832 -0.00297813 -0.00287713)
(1.19859 -0.00190805 -0.00181824)
(1.19858 -0.00181334 -0.00187841)
(1.19864 -0.0019903 -0.00194889)
(1.19876 -0.00176537 -0.00174526)
(1.19883 -0.00191205 -0.00180263)
(1.19882 -0.0018323 -0.001853)
(1.19906 -0.00118584 -0.00116929)
(1.19906 -0.00112437 -0.00120396)
(1.19908 -0.00123829 -0.00125343)
(1.19917 -0.0011016 -0.00112223)
(1.19921 -0.00119759 -0.00116325)
(1.1992 -0.00114514 -0.0011917)
(1.19938 -0.000744699 -0.000752627)
(1.19938 -0.00070571 -0.000772538)
(1.1994 -0.000778672 -0.000806224)
(1.19946 -0.000694569 -0.000722482)
(1.19947 -0.000756876 -0.000750943)
(1.19947 -0.000723115 -0.000766563)
(1.1996 -0.000472137 -0.000484328)
(1.1996 -0.000447491 -0.000495959)
(1.19961 -0.000494357 -0.00051903)
(1.19965 -0.000441285 -0.000464595)
(1.19966 -0.00048171 -0.000484263)
(1.19966 -0.000460447 -0.000493046)
(1.19974 -0.000298064 -0.000311724)
(1.19974 -0.000282835 -0.0003188)
(1.19974 -0.000312835 -0.000334002)
(1.19977 -0.000279038 -0.000299354)
(1.19978 -0.000305069 -0.000312461)
(1.19978 -0.000291728 -0.000317721)
(1.19983 -0.000191051 -0.000200554)
(1.19983 -0.00018074 -0.000205034)
(1.19984 -0.000200321 -0.000215266)
(1.19986 -0.000179559 -0.000192903)
(1.19986 -0.000196859 -0.000201756)
(1.19986 -0.000187773 -0.000204991)
(1.1999 -0.000120269 -0.000129263)
(1.1999 -0.000114305 -0.000131656)
(1.1999 -0.000127134 -0.000138613)
(1.19991 -0.000112516 -0.000123718)
(1.19992 -0.000123778 -0.000130003)
(1.19992 -0.000118617 -0.000131552)
(1.19993 -7.12124e-05 -8.03503e-05)
(1.19993 -6.83255e-05 -8.18981e-05)
(1.19994 -7.59795e-05 -8.66365e-05)
(1.19994 -6.59256e-05 -7.66336e-05)
(1.19995 -7.37909e-05 -8.09134e-05)
(1.19995 -7.0228e-05 -8.18762e-05)
(1.19996 -3.86063e-05 -4.69865e-05)
(1.19996 -3.87893e-05 -4.82892e-05)
(1.19996 -4.16107e-05 -5.14716e-05)
(1.19996 -3.51091e-05 -4.4197e-05)
(1.19997 -4.11662e-05 -4.75378e-05)
(1.19997 -3.78548e-05 -4.82471e-05)
(1.30664 0.0795458 -0.00734255)
(1.28877 0.056273 -0.0026613)
(1.29221 0.0789487 -0.00207833)
(1.30845 0.0681478 -0.00443915)
(1.30076 0.0744992 -0.00599463)
(1.19364 -0.000767656 -0.0175876)
(1.19349 -0.00306198 -0.0136311)
(1.20253 0.0065999 -0.0128534)
(1.19093 0.0082282 -0.0160125)
(1.19655 -0.00261126 -0.0181727)
(1.1964 -0.00123278 -0.0145238)
(1.19713 -0.00565645 -0.00939487)
(1.19689 -0.00658458 -0.00790208)
(1.20121 -0.007217 -0.00814533)
(1.20193 -0.00872372 -0.00779228)
(1.19855 -0.00634882 -0.00822425)
(1.19884 -0.00650769 -0.00796497)
(1.20009 -0.00659553 -0.00496454)
(1.20053 -0.0066082 -0.00523175)
(1.20057 -0.00654282 -0.0053943)
(1.20037 -0.00617556 -0.00483136)
(1.20084 -0.00634131 -0.00484674)
(1.20072 -0.00620799 -0.00501662)
(1.19968 -0.00476685 -0.00334038)
(1.19963 -0.00472544 -0.00350137)
(1.19992 -0.00487087 -0.00355401)
(1.19982 -0.0044325 -0.0032221)
(1.20009 -0.00456589 -0.00325875)
(1.20005 -0.00452449 -0.00339492)
(1.19953 -0.00317967 -0.00224895)
(1.19948 -0.00313159 -0.00234953)
(1.19967 -0.0032789 -0.00239648)
(1.19965 -0.00295361 -0.00216853)
(1.19982 -0.00307172 -0.00220638)
(1.19978 -0.00303669 -0.00229065)
(1.19958 -0.0020696 -0.00150176)
(1.19955 -0.00203035 -0.00156155)
(1.19966 -0.00214499 -0.00160205)
(1.19967 -0.0019254 -0.00144722)
(1.19975 -0.00198877 -0.00153032)
(1.19968 -0.00133548 -0.000996588)
(1.19966 -0.00130798 -0.00103136)
(1.19973 -0.001389 -0.00106371)
(1.19975 -0.0012454 -0.000959383)
(1.19979 -0.00129065 -0.00101479)
(1.19977 -0.000861219 -0.000660455)
(1.19976 -0.000843123 -0.000680461)
(1.1998 -0.000898057 -0.000704462)
(1.19982 -0.00080511 -0.000635461)
(1.19985 -0.000836748 -0.000671698)
(1.19984 -0.000553645 -0.000433807)
(1.19984 -0.000542069 -0.000445918)
(1.19986 -0.00057889 -0.000463977)
(1.19988 -0.000518318 -0.000416894)
(1.1999 -0.00054019 -0.000441725)
(1.1999 -0.000357676 -0.00028329)
(1.1999 -0.000349486 -0.000291116)
(1.19991 -0.000373819 -0.000303128)
(1.19993 -0.000336103 -0.000273048)
(1.19994 -0.000350032 -0.00028944)
(1.19995 -0.000231045 -0.000186806)
(1.19994 -0.000226777 -0.000190987)
(1.19995 -0.000242873 -0.000199455)
(1.19996 -0.000216758 -0.000179896)
(1.19997 -0.00022731 -0.000190244)
(1.19997 -0.000143658 -0.000121981)
(1.19997 -0.000141064 -0.000124419)
(1.19997 -0.000151761 -0.00013072)
(1.19998 -0.000134309 -0.00011657)
(1.19998 -0.000141468 -0.000123921)
(1.19999 -8.63766e-05 -7.59886e-05)
(1.19998 -8.46067e-05 -7.77197e-05)
(1.19999 -9.1847e-05 -8.19473e-05)
(1.19999 -8.04394e-05 -7.27824e-05)
(1.2 -8.53282e-05 -7.7895e-05)
(1.2 -4.87071e-05 -4.42578e-05)
(1.2 -4.77268e-05 -4.52339e-05)
(1.2 -5.24625e-05 -4.8421e-05)
(1.2 -4.43078e-05 -4.15257e-05)
(1.20001 -4.79523e-05 -4.51571e-05)
(0.951488 -0.255719 -0.0501718)
(1.04376 -0.191129 -0.0490166)
(1.1012 -0.144393 -0.046371)
(1.06635 -0.136602 -0.0696851)
(1.10556 -0.126335 -0.0408144)
(1.19246 0.00915625 -0.0258236)
(1.18477 0.00714127 -0.0220118)
(1.18374 0.00317117 -0.0217188)
(1.1864 0.00410817 -0.0189211)
(1.18661 0.00432329 -0.0192405)
(1.19046 -0.00122174 -0.010939)
(1.19018 -0.00134952 -0.0118782)
(1.19218 -0.00096937 -0.010197)
(1.19189 -0.00205438 -0.0108159)
(1.19237 -0.00105272 -0.0110207)
(1.1952 -0.000372244 -0.00614011)
(1.1953 -0.000398369 -0.00655778)
(1.19591 -0.000317105 -0.00571067)
(1.19595 -0.000788992 -0.00604117)
(1.19609 -0.000332931 -0.00600604)
(1.19702 -0.000155415 -0.00362797)
(1.19712 -0.000165293 -0.00383732)
(1.19738 -0.000135724 -0.00337603)
(1.19766 -0.000382663 -0.00357177)
(1.19749 -0.000141982 -0.00352736)
(1.19788 -7.91445e-05 -0.00220408)
(1.19794 -8.27792e-05 -0.00232045)
(1.19808 -7.25708e-05 -0.00205319)
(1.19854 -0.000213373 -0.00217347)
(1.19815 -7.5183e-05 -0.00213764)
(1.19836 -4.9989e-05 -0.00136199)
(1.1984 -5.21773e-05 -0.00143025)
(1.19848 -4.73725e-05 -0.00126987)
(1.19904 -0.000132077 -0.00134478)
(1.19852 -4.91522e-05 -0.00131945)
(1.19866 -3.588e-05 -0.000852996)
(1.19869 -3.70606e-05 -0.000893881)
(1.19874 -3.43845e-05 -0.00079619)
(1.19935 -8.68502e-05 -0.000842095)
(1.19877 -3.53926e-05 -0.000825702)
(1.19888 -2.77044e-05 -0.00053772)
(1.19889 -2.8414e-05 -0.000563007)
(1.19893 -2.71746e-05 -0.000501811)
(1.19954 -5.95989e-05 -0.000530702)
(1.19894 -2.75368e-05 -0.000520031)
(1.19903 -2.7454e-05 -0.000340331)
(1.19903 -2.73352e-05 -0.000356349)
(1.19907 -2.75075e-05 -0.000318023)
(1.19966 -4.65481e-05 -0.000336149)
(1.19907 -2.73636e-05 -0.000329399)
(1.19916 -2.84507e-05 -0.000216074)
(1.19916 -2.81451e-05 -0.000225951)
(1.19919 -2.88285e-05 -0.000201888)
(1.19974 -3.8072e-05 -0.00021333)
(1.19918 -2.84859e-05 -0.000209057)
(1.19928 -3.18525e-05 -0.000137058)
(1.19927 -3.14743e-05 -0.000143676)
(1.1993 -3.24352e-05 -0.000127678)
(1.19979 -3.44365e-05 -0.000135542)
(1.19929 -3.19508e-05 -0.000132611)
(1.1994 -3.88743e-05 -8.38451e-05)
(1.19939 -3.79615e-05 -8.87196e-05)
(1.19942 -4.01068e-05 -7.80094e-05)
(1.19982 -3.45974e-05 -8.35483e-05)
(1.19941 -3.91367e-05 -8.15295e-05)
(1.19952 -4.68481e-05 -4.8474e-05)
(1.19951 -4.61533e-05 -5.16387e-05)
(1.19954 -4.71888e-05 -4.41706e-05)
(1.19984 -3.7071e-05 -4.82992e-05)
(1.19953 -4.70951e-05 -4.70702e-05)
(1.30758 -0.0109388 -0.00334862)
(1.29124 -0.0121632 -0.00218068)
(1.27858 -0.0255916 -0.00924277)
(1.27725 -0.0114151 -0.00191685)
(1.27203 -0.00705393 -0.00252854)
(1.2048 -0.0496997 -0.0289016)
(1.21618 -0.0379385 -0.0279976)
(1.20641 -0.0369249 -0.0262219)
(1.20867 -0.030701 -0.0274711)
(1.20364 -0.0313571 -0.0260329)
(1.21057 -0.0350042 -0.0225473)
(1.19267 -0.0168586 -0.0157422)
(1.19212 -0.0153535 -0.0168656)
(1.19408 -0.0179609 -0.0171898)
(1.19523 -0.0146544 -0.0157997)
(1.19436 -0.0140009 -0.0148025)
(1.19644 -0.0155991 -0.0146791)
(1.1953 -0.00660722 -0.00913553)
(1.1953 -0.00596238 -0.00941567)
(1.19574 -0.00700403 -0.00976884)
(1.19618 -0.00573423 -0.00855222)
(1.19667 -0.00655885 -0.0087619)
(1.19661 -0.00595372 -0.00900083)
(1.19705 -0.00320906 -0.00548645)
(1.19717 -0.00284361 -0.00555327)
(1.19727 -0.00336133 -0.00580696)
(1.19756 -0.00286133 -0.00512014)
(1.19771 -0.00329304 -0.00530496)
(1.19779 -0.00296088 -0.00535126)
(1.19813 -0.00176151 -0.00335945)
(1.19824 -0.0015517 -0.00337142)
(1.19826 -0.00183527 -0.00353696)
(1.19844 -0.00159915 -0.00313338)
(1.19849 -0.00184293 -0.00326332)
(1.19857 -0.0016535 -0.00326224)
(1.1988 -0.00104028 -0.00208468)
(1.19887 -0.000915905 -0.00208291)
(1.19887 -0.00108217 -0.00218916)
(1.19899 -0.00095562 -0.00194511)
(1.199 -0.00110287 -0.00203158)
(1.19906 -0.000988994 -0.00202105)
(1.19922 -0.000639651 -0.00130555)
(1.19927 -0.000563941 -0.00130093)
(1.19927 -0.00066595 -0.00136885)
(1.19934 -0.000592159 -0.00121885)
(1.19935 -0.000684779 -0.00127536)
(1.19938 -0.000614098 -0.00126471)
(1.19949 -0.000400982 -0.000824062)
(1.19952 -0.000354525 -0.000819631)
(1.19952 -0.000418357 -0.000863016)
(1.19957 -0.000372988 -0.000769821)
(1.19957 -0.000432249 -0.000806605)
(1.1996 -0.000387962 -0.000798033)
(1.19967 -0.000253536 -0.000522352)
(1.19969 -0.000224684 -0.000519054)
(1.19969 -0.000264877 -0.000546885)
(1.19972 -0.000236486 -0.000488204)
(1.19972 -0.000275217 -0.000511903)
(1.19974 -0.000246386 -0.000506006)
(1.19979 -0.000160615 -0.000332535)
(1.1998 -0.000143619 -0.000330052)
(1.1998 -0.000168208 -0.000347908)
(1.19982 -0.000150004 -0.000310838)
(1.19982 -0.000176517 -0.000326157)
(1.19983 -0.00015672 -0.000321948)
(1.19986 -0.00010022 -0.000212197)
(1.19987 -9.16423e-05 -0.000210354)
(1.19987 -0.000105591 -0.000221893)
(1.19988 -9.37029e-05 -0.00019837)
(1.19988 -0.000113066 -0.000208551)
(1.19989 -9.84179e-05 -0.00020535)
(1.19991 -6.07928e-05 -0.000134692)
(1.19991 -5.82362e-05 -0.000133657)
(1.19992 -6.44797e-05 -0.000141086)
(1.19992 -5.62767e-05 -0.000125518)
(1.19992 -7.21923e-05 -0.00013248)
(1.19993 -5.96162e-05 -0.00013029)
(1.19994 -3.31336e-05 -8.28555e-05)
(1.19994 -3.60224e-05 -8.25113e-05)
(1.19995 -3.57415e-05 -8.73453e-05)
(1.19995 -3.01374e-05 -7.70901e-05)
(1.19995 -4.43213e-05 -8.18874e-05)
(1.19995 -3.25095e-05 -8.05124e-05)
(1.19996 -1.4515e-05 -4.86465e-05)
(1.19996 -2.14626e-05 -4.83041e-05)
(1.19996 -1.63999e-05 -5.17665e-05)
(1.19996 -1.26676e-05 -4.46436e-05)
(1.19997 -2.4305e-05 -4.81986e-05)
(1.19997 -1.44094e-05 -4.73175e-05)
(1.23388 -0.00134801 -0.00368213)
(1.23395 -0.000760528 -0.00239548)
(1.23074 -0.00347623 -0.00513792)
(1.22963 -0.000190184 -0.00235041)
(1.23012 -0.0013018 -0.00312449)
(1.2179 -0.0118154 -0.01138)
(1.21569 -0.0128266 -0.0120535)
(1.21627 -0.0136854 -0.0112521)
(1.21576 -0.00995176 -0.00971784)
(1.21542 -0.0113113 -0.0111297)
(1.21356 -0.0122904 -0.0116467)
(1.2036 -0.0107002 -0.0097792)
(1.20387 -0.0106377 -0.00987329)
(1.20501 -0.0106623 -0.0100362)
(1.20343 -0.00967666 -0.00921684)
(1.20492 -0.00935043 -0.00876945)
(1.2045 -0.00960205 -0.00937068)
(1.20021 -0.00671426 -0.00662733)
(1.20018 -0.00652981 -0.00681938)
(1.20085 -0.00684748 -0.00689744)
(1.20041 -0.00606347 -0.00623054)
(1.20101 -0.00626964 -0.00625132)
(1.20094 -0.00614698 -0.00641918)
(1.19941 -0.00409841 -0.00436256)
(1.1994 -0.00392389 -0.00445381)
(1.19973 -0.0042096 -0.00455241)
(1.19963 -0.00373211 -0.00409026)
(1.1999 -0.00395322 -0.00416871)
(1.19991 -0.00381364 -0.00422741)
(1.19935 -0.00253842 -0.00282682)
(1.19937 -0.00240761 -0.00286386)
(1.19952 -0.00261731 -0.00295317)
(1.19953 -0.00233064 -0.00264655)
(1.19967 -0.00250029 -0.00271829)
(1.19969 -0.00239299 -0.00273823)
(1.19949 -0.00160093 -0.00181914)
(1.19951 -0.00151362 -0.00183335)
(1.19959 -0.00165568 -0.00190135)
(1.19961 -0.0014801 -0.00170224)
(1.19969 -0.00159844 -0.00175768)
(1.19971 -0.00152533 -0.00176195)
(1.19963 -0.00102154 -0.00116977)
(1.19965 -0.000965825 -0.00117423)
(1.19969 -0.00106015 -0.00122211)
(1.19971 -0.000948856 -0.00109482)
(1.19976 -0.00102891 -0.00113443)
(1.19977 -0.000981767 -0.00113255)
(1.19975 -0.000656431 -0.000752632)
(1.19976 -0.000620438 -0.000753869)
(1.19978 -0.000682535 -0.000787019)
(1.1998 -0.000612372 -0.000704456)
(1.19983 -0.000665787 -0.000732431)
(1.19984 -0.000635001 -0.000729589)
(1.19984 -0.000424503 -0.000482975)
(1.19984 -0.000401353 -0.000482676)
(1.19986 -0.000442599 -0.000504872)
(1.19987 -0.000396923 -0.00045214)
(1.19989 -0.000432695 -0.000470997)
(1.19989 -0.00041283 -0.000468124)
(1.19989 -0.000273261 -0.000311713)
(1.1999 -0.000258973 -0.000310636)
(1.19991 -0.000285861 -0.000325425)
(1.19992 -0.000256345 -0.000291879)
(1.19993 -0.000279736 -0.000304638)
(1.19993 -0.000267266 -0.000301718)
(1.19994 -0.000177391 -0.000201896)
(1.19994 -0.000167698 -0.000200899)
(1.19995 -0.000185567 -0.000210735)
(1.19995 -0.000166649 -0.000188917)
(1.19996 -0.000182379 -0.000197437)
(1.19996 -0.000173929 -0.000195254)
(1.19997 -0.000112979 -0.000128796)
(1.19997 -0.000107058 -0.000128032)
(1.19997 -0.000119041 -0.00013488)
(1.19998 -0.000105647 -0.000120199)
(1.19998 -0.000116318 -0.000126253)
(1.19998 -0.0001112 -0.0001247)
(1.19998 -6.76636e-05 -8.04131e-05)
(1.19998 -6.51821e-05 -7.98761e-05)
(1.19999 -7.21409e-05 -8.44697e-05)
(1.19999 -6.28033e-05 -7.49145e-05)
(1.19999 -7.04729e-05 -7.91326e-05)
(1.19999 -6.69203e-05 -7.80293e-05)
(1.19999 -3.59358e-05 -4.78948e-05)
(1.19999 -3.64066e-05 -4.74664e-05)
(1.19999 -3.90222e-05 -5.0806e-05)
(1.2 -3.26877e-05 -4.38466e-05)
(1.2 -3.85875e-05 -4.69913e-05)
(1.2 -3.54607e-05 -4.63301e-05)
(1.23174 0.00573308 -0.0122259)
(1.22558 0.0024906 -0.00658544)
(1.22286 0.00420343 -0.0120243)
(1.22633 0.00235547 -0.00878222)
(1.22459 0.00267259 -0.00756033)
(1.20979 -0.00162091 -0.0122067)
(1.21228 -0.00091636 -0.012962)
(1.21231 -0.00396097 -0.00992766)
(1.21024 -0.00371937 -0.0108808)
(1.21041 -0.00280622 -0.0116711)
(1.21108 -0.00231466 -0.0104544)
(1.20425 -0.00547572 -0.00779225)
(1.20564 -0.00593841 -0.00705612)
(1.2056 -0.0053285 -0.00796486)
(1.20546 -0.00581107 -0.00682579)
(1.20468 -0.00548794 -0.00694711)
(1.20536 -0.00523858 -0.00693518)
(1.20238 -0.00515374 -0.00483254)
(1.20256 -0.00512827 -0.00489028)
(1.2029 -0.00510697 -0.00498194)
(1.20245 -0.00481445 -0.00452388)
(1.20286 -0.00488141 -0.00452132)
(1.20289 -0.00478591 -0.00460516)
(1.20115 -0.00378708 -0.00329904)
(1.20115 -0.00372816 -0.00337279)
(1.20145 -0.00382785 -0.00341057)
(1.20122 -0.00350927 -0.00310239)
(1.20149 -0.00359546 -0.00313104)
(1.20149 -0.00354559 -0.00317888)
(1.20054 -0.00260262 -0.00223943)
(1.20053 -0.00254807 -0.00228072)
(1.20072 -0.00265847 -0.00232268)
(1.20061 -0.00241386 -0.00210532)
(1.20078 -0.00250214 -0.00213968)
(1.20078 -0.00246171 -0.00216456)
(1.20026 -0.00174431 -0.00149997)
(1.20025 -0.00170404 -0.00151996)
(1.20037 -0.00179429 -0.00155909)
(1.20032 -0.00162211 -0.00140852)
(1.20043 -0.00169445 -0.00144087)
(1.20042 -0.00166527 -0.00145084)
(1.20013 -0.00115444 -0.000996659)
(1.20013 -0.0011269 -0.00100623)
(1.2002 -0.00119347 -0.00103726)
(1.20018 -0.00107683 -0.000936402)
(1.20025 -0.0011306 -0.00096253)
(1.20024 -0.00111077 -0.000965421)
(1.20008 -0.000762291 -0.000657626)
(1.20008 -0.000744344 -0.000661861)
(1.20013 -0.000790904 -0.000685747)
(1.20011 -0.000712949 -0.000617173)
(1.20015 -0.000738088 -0.000637961)
(1.20005 -0.000499981 -0.00043195)
(1.20005 -0.000488911 -0.000432955)
(1.20008 -0.000520762 -0.000449868)
(1.20008 -0.000468735 -0.000405532)
(1.20011 -0.000486986 -0.000418483)
(1.20004 -0.000327048 -0.000284876)
(1.20004 -0.000319602 -0.000284752)
(1.20006 -0.00034129 -0.00029688)
(1.20006 -0.000307325 -0.000266916)
(1.20008 -0.000319781 -0.000275526)
(1.20004 -0.000215014 -0.000185527)
(1.20004 -0.000210401 -0.000185062)
(1.20005 -0.000224834 -0.000193246)
(1.20005 -0.000201784 -0.000173668)
(1.20006 -0.000210749 -0.000179213)
(1.20003 -0.000135274 -0.00012141)
(1.20003 -0.000133016 -0.000120834)
(1.20004 -0.000142806 -0.00012657)
(1.20004 -0.00012672 -0.000113862)
(1.20005 -0.000133386 -0.000117637)
(1.20003 -8.27325e-05 -7.72248e-05)
(1.20003 -8.10135e-05 -7.68083e-05)
(1.20004 -8.79136e-05 -8.1269e-05)
(1.20004 -7.70983e-05 -7.19398e-05)
(1.20004 -8.1936e-05 -7.50495e-05)
(1.20003 -4.56513e-05 -4.53464e-05)
(1.20003 -4.45962e-05 -4.53495e-05)
(1.20004 -4.9216e-05 -4.85198e-05)
(1.20004 -4.17368e-05 -4.16463e-05)
(1.20004 -4.50611e-05 -4.44258e-05)
(1.24708 -0.00443964 -0.0483285)
(1.24538 -0.0137956 0.0321664)
(1.26955 -0.0232808 0.0265969)
(1.24447 -0.00497622 0.00056278)
(1.20669 -0.00371968 -0.0349285)
(1.19518 -0.00613113 -0.0242255)
(1.19812 -0.00803509 -0.0261296)
(1.19666 -0.00401775 -0.0262592)
(1.20737 -0.00304648 -0.0284806)
(1.1974 -0.00133612 -0.0195996)
(1.19854 -0.00160664 -0.0192462)
(1.19885 -0.00272732 -0.0172247)
(1.19825 -0.0012315 -0.0160901)
(1.20069 -0.00107794 -0.0165587)
(1.19798 -0.000549375 -0.0091515)
(1.19871 -0.000562799 -0.00952457)
(1.19882 -0.000448999 -0.00811374)
(1.19907 -0.00104905 -0.00860404)
(1.19948 -0.000452726 -0.00822399)
(1.19858 -0.000224835 -0.00504787)
(1.19894 -0.000233091 -0.00519073)
(1.19896 -0.000189701 -0.00450866)
(1.1993 -0.000508532 -0.00477791)
(1.19928 -0.000194659 -0.0045566)
(1.19878 -0.000107451 -0.00294358)
(1.19897 -0.000111276 -0.00301013)
(1.19898 -9.6261e-05 -0.00264367)
(1.19946 -0.000280527 -0.00280229)
(1.19915 -9.8874e-05 -0.00266341)
(1.19888 -6.58717e-05 -0.00177797)
(1.19898 -6.8055e-05 -0.00181126)
(1.19899 -6.17899e-05 -0.00160151)
(1.19958 -0.000175272 -0.00169727)
(1.19909 -6.36454e-05 -0.00160934)
(1.19896 -4.64548e-05 -0.0010961)
(1.19902 -4.7928e-05 -0.00111422)
(1.19903 -4.41955e-05 -0.000988878)
(1.19967 -0.000116058 -0.00104707)
(1.19908 -4.55465e-05 -0.000992097)
(1.19903 -3.38083e-05 -0.000684366)
(1.19906 -3.47971e-05 -0.00069439)
(1.19908 -3.24073e-05 -0.000617708)
(1.19973 -7.83049e-05 -0.000653487)
(1.19911 -3.32786e-05 -0.000618661)
(1.1991 -2.72209e-05 -0.000430019)
(1.19912 -2.77703e-05 -0.000435814)
(1.19913 -2.7021e-05 -0.000388223)
(1.19978 -5.6579e-05 -0.000411036)
(1.19915 -2.73034e-05 -0.000388515)
(1.19917 -2.7399e-05 -0.000272342)
(1.19918 -2.73269e-05 -0.000275908)
(1.1992 -2.74457e-05 -0.000246297)
(1.19981 -4.51256e-05 -0.000260471)
(1.1992 -2.7395e-05 -0.000246281)
(1.19925 -2.85519e-05 -0.000173859)
(1.19925 -2.81476e-05 -0.000175672)
(1.19927 -2.89218e-05 -0.000157086)
(1.19984 -3.69363e-05 -0.000166028)
(1.19927 -2.85103e-05 -0.000156945)
(1.19933 -3.20669e-05 -0.000110472)
(1.19933 -3.14506e-05 -0.000112291)
(1.19935 -3.27939e-05 -9.97426e-05)
(1.19985 -3.34937e-05 -0.000105608)
(1.19935 -3.18758e-05 -0.00010037)
(1.19944 -4.02297e-05 -6.73442e-05)
(1.19942 -3.91993e-05 -6.85754e-05)
(1.19945 -4.14767e-05 -6.07102e-05)
(1.19986 -3.5441e-05 -6.50015e-05)
(1.19944 -4.05534e-05 -6.12873e-05)
(1.19955 -4.74687e-05 -3.90895e-05)
(1.19954 -4.67864e-05 -4.03148e-05)
(1.19957 -4.7617e-05 -3.45523e-05)
(1.19987 -3.76617e-05 -3.74373e-05)
(1.19956 -4.75337e-05 -3.53302e-05)
(1.23838 -0.0010282 -0.0015998)
(1.23848 -0.00801048 -0.000946639)
(1.23313 -0.00849533 -0.00477078)
(1.23218 -0.00461299 -0.00150268)
(1.23111 -0.00158706 -0.00249226)
(1.21446 -0.0122793 -0.0189631)
(1.21227 -0.0137006 -0.0181977)
(1.21555 -0.012818 -0.0167956)
(1.21119 -0.0115859 -0.0168593)
(1.21359 -0.0120372 -0.0148708)
(1.21442 -0.00895244 -0.0159563)
(1.20267 -0.00789036 -0.0128517)
(1.20287 -0.00690215 -0.0129173)
(1.20414 -0.0076622 -0.0129189)
(1.20298 -0.00651683 -0.0113858)
(1.20411 -0.00718744 -0.0112571)
(1.20431 -0.00623038 -0.0113237)
(1.20033 -0.00403076 -0.00753983)
(1.20058 -0.00349851 -0.00742837)
(1.20107 -0.00404671 -0.00768039)
(1.20074 -0.00348362 -0.00673283)
(1.2012 -0.00394037 -0.00688047)
(1.20135 -0.00348278 -0.00675109)
(1.19985 -0.0022471 -0.00447405)
(1.20002 -0.00195673 -0.00436882)
(1.20022 -0.00228953 -0.00456407)
(1.20012 -0.00200829 -0.00401947)
(1.20033 -0.00229109 -0.00416018)
(1.20044 -0.00203842 -0.00404052)
(1.19977 -0.00134903 -0.00271745)
(1.19987 -0.0011801 -0.00263801)
(1.19997 -0.00138488 -0.00276666)
(1.19994 -0.00123064 -0.00244853)
(1.20004 -0.00140964 -0.00254888)
(1.20011 -0.0012599 -0.00245899)
(1.19979 -0.000846773 -0.00168006)
(1.19985 -0.000744347 -0.0016245)
(1.1999 -0.000873977 -0.00170713)
(1.19989 -0.000782074 -0.00151614)
(1.19995 -0.000898547 -0.00158333)
(1.19999 -0.00080562 -0.00152061)
(1.19983 -0.000543628 -0.00104976)
(1.19987 -0.000479662 -0.00101241)
(1.1999 -0.000563477 -0.00106547)
(1.1999 -0.000505861 -0.000948145)
(1.19993 -0.000582989 -0.000992241)
(1.19996 -0.000523462 -0.000950172)
(1.19987 -0.000352812 -0.000661188)
(1.1999 -0.000312539 -0.000636204)
(1.19991 -0.000367153 -0.000670046)
(1.19992 -0.000329755 -0.000597466)
(1.19994 -0.000381322 -0.000626055)
(1.19995 -0.000342667 -0.00059785)
(1.19991 -0.000227717 -0.000419604)
(1.19992 -0.000202674 -0.000403089)
(1.19993 -0.000237964 -0.00042478)
(1.19994 -0.00021337 -0.000379378)
(1.19995 -0.000247832 -0.000397975)
(1.19996 -0.000222604 -0.00037929)
(1.19994 -0.000146326 -0.000266517)
(1.19994 -0.000131342 -0.000255852)
(1.19995 -0.000153298 -0.000269903)
(1.19995 -0.00013718 -0.000240947)
(1.19996 -0.000161414 -0.000253004)
(1.19997 -0.000143477 -0.000240948)
(1.19996 -9.3209e-05 -0.000170064)
(1.19996 -8.54925e-05 -0.000163327)
(1.19997 -9.79721e-05 -0.000172142)
(1.19997 -8.7265e-05 -0.000153948)
(1.19998 -0.000105578 -0.000161729)
(1.19998 -9.16106e-05 -0.00015405)
(1.19997 -5.61683e-05 -0.000107729)
(1.19997 -5.43317e-05 -0.000103497)
(1.19998 -5.97098e-05 -0.000109233)
(1.19998 -5.19847e-05 -9.72157e-05)
(1.19999 -6.75504e-05 -0.000102503)
(1.19999 -5.51741e-05 -9.74383e-05)
(1.19999 -3.09666e-05 -6.71252e-05)
(1.19998 -3.4197e-05 -6.4496e-05)
(1.19999 -3.33615e-05 -6.8199e-05)
(1.19999 -2.83273e-05 -6.02404e-05)
(1.19999 -4.22503e-05 -6.40252e-05)
(1.19999 -3.04953e-05 -6.0598e-05)
(1.19999 -1.3986e-05 -3.9295e-05)
(1.19999 -2.08404e-05 -3.71968e-05)
(1.19999 -1.57271e-05 -4.02599e-05)
(1.19999 -1.22646e-05 -3.44928e-05)
(1.2 -2.41898e-05 -3.68563e-05)
(1.19999 -1.36451e-05 -3.54897e-05)
(1.22114 -0.000709791 -0.00154793)
(1.22101 -0.000997138 -0.001318)
(1.21955 -0.00185574 -0.00243617)
(1.21907 -0.00071778 -0.00115584)
(1.21898 -0.000545622 -0.00135366)
(1.21395 -0.00650338 -0.00758285)
(1.21388 -0.00649491 -0.00753777)
(1.21459 -0.00563513 -0.00666905)
(1.21341 -0.00539361 -0.00628907)
(1.21255 -0.00609745 -0.00720178)
(1.21338 -0.00525511 -0.00650425)
(1.20648 -0.00631354 -0.0072715)
(1.20653 -0.00605175 -0.0072947)
(1.20741 -0.00597111 -0.00701302)
(1.20613 -0.00564547 -0.00662499)
(1.20689 -0.00556695 -0.00637566)
(1.2069 -0.00539458 -0.00638393)
(1.20285 -0.00450565 -0.005239)
(1.20289 -0.0042839 -0.00522865)
(1.20345 -0.00445423 -0.00521795)
(1.20285 -0.00406377 -0.0047527)
(1.20331 -0.00419339 -0.00475094)
(1.20335 -0.00402798 -0.00469149)
(1.20129 -0.00300624 -0.00348925)