/*--------------------------------*- C++ -*----------------------------------*\
| =========                 |                                                 |
| \\      /  F ield         | OpenFOAM: The Open Source CFD Toolbox           |
|  \\    /   O peration     | Version:  2012                                  |
|   \\  /    A nd           | Website:  www.openfoam.com                      |
|    \\/     M anipulation  |                                                 |
\*---------------------------------------------------------------------------*/
FoamFile
{
    version     2.0;
    format      ascii;
    class       surfaceVectorField;
    location    "0.105/fluid";
    object      Uf_0;
}
// * * * * * * * * * * * * * * * * * * * * * * * * * * * * * * * * * * * * * //

dimensions      [0 1 -1 0 0 0 0];


internalField   nonuniform List<vector> 
47129
(
(0.896304 -0.278983 -0.0252706)
(1.01174 -0.2111 -0.0210884)
(1.07285 -0.186444 -0.0218134)
(1.01438 -0.20796 -0.0260206)
(1.07523 -0.150283 -0.0220389)
(1.17068 0.00581199 -0.017255)
(1.16931 0.00621178 -0.015592)
(1.16618 0.000912348 -0.0162252)
(1.17143 0.0063086 -0.0172067)
(1.17133 0.003833 -0.0154727)
(1.18417 -0.00160947 -0.00967016)
(1.18307 -0.00177278 -0.0105821)
(1.1861 -0.00134162 -0.00930651)
(1.18546 -0.00280104 -0.00979129)
(1.18553 -0.0015324 -0.0101175)
(1.19181 -0.000515105 -0.00586853)
(1.19156 -0.000562195 -0.00636425)
(1.19271 -0.000449191 -0.00561255)
(1.19251 -0.0010682 -0.00591655)
(1.19261 -0.000482548 -0.00603507)
(1.19514 -0.000209673 -0.00357128)
(1.19507 -0.000227982 -0.00385972)
(1.19561 -0.000183722 -0.00341089)
(1.19569 -0.000495558 -0.00360199)
(1.1956 -0.000196334 -0.00365014)
(1.19679 -9.60123e-05 -0.00219115)
(1.19677 -0.00010289 -0.00236335)
(1.19705 -8.71181e-05 -0.00209437)
(1.19737 -0.00025773 -0.00221537)
(1.19706 -9.19639e-05 -0.00223574)
(1.1977 -5.42499e-05 -0.00135966)
(1.1977 -5.71417e-05 -0.00146382)
(1.19786 -5.08727e-05 -0.00130086)
(1.19834 -0.000150072 -0.00137651)
(1.19787 -5.31142e-05 -0.00138621)
(1.19826 -3.70898e-05 -0.000851834)
(1.19826 -3.85106e-05 -0.000916058)
(1.19836 -3.56043e-05 -0.000815963)
(1.19892 -9.54422e-05 -0.000863077)
(1.19836 -3.67925e-05 -0.000868394)
(1.19862 -2.92434e-05 -0.000538703)
(1.19862 -2.96557e-05 -0.000578646)
(1.19869 -2.84781e-05 -0.000516193)
(1.19927 -6.49379e-05 -0.000545298)
(1.19868 -2.88095e-05 -0.00054885)
(1.19887 -2.8378e-05 -0.000341081)
(1.19887 -2.8132e-05 -0.000366594)
(1.19892 -2.85589e-05 -0.00032685)
(1.19949 -4.95741e-05 -0.000345526)
(1.19891 -2.81437e-05 -0.000347944)
(1.19907 -2.92861e-05 -0.000216483)
(1.19906 -2.90737e-05 -0.000232462)
(1.1991 -2.93647e-05 -0.000207499)
(1.19963 -3.99401e-05 -0.000219116)
(1.19909 -2.90176e-05 -0.000220647)
(1.19922 -3.12169e-05 -0.000135635)
(1.19921 -3.1073e-05 -0.00014612)
(1.19925 -3.18366e-05 -0.000129895)
(1.19972 -3.4817e-05 -0.000138085)
(1.19924 -3.15272e-05 -0.00013865)
(1.19936 -3.71921e-05 -8.35728e-05)
(1.19935 -3.63499e-05 -9.02341e-05)
(1.19938 -3.84403e-05 -7.94929e-05)
(1.19977 -3.38735e-05 -8.51361e-05)
(1.19937 -3.75364e-05 -8.50666e-05)
(1.1995 -4.54289e-05 -4.85126e-05)
(1.19948 -4.47135e-05 -5.2975e-05)
(1.19952 -4.58105e-05 -4.54138e-05)
(1.19981 -3.60472e-05 -4.96729e-05)
(1.1995 -4.5781e-05 -4.94234e-05)
(1.35039 -0.0115324 -0.0029661)
(1.32269 -0.0124513 -0.00228386)
(1.31136 -0.0329968 -0.00592072)
(1.31718 -0.0127733 -0.0022669)
(1.30086 -0.00757163 -0.00329592)
(1.20313 -0.0752331 -0.017108)
(1.22036 -0.0569106 -0.0161768)
(1.20648 -0.051425 -0.0144375)
(1.20589 -0.0495761 -0.0166375)
(1.20059 -0.0472081 -0.0167341)
(1.2115 -0.0518434 -0.0152552)
(1.18563 -0.0231009 -0.0125043)
(1.184 -0.0223251 -0.0138774)
(1.1865 -0.0262395 -0.0141541)
(1.18705 -0.0220885 -0.0133369)
(1.1874 -0.0202143 -0.0128319)
(1.19056 -0.0224555 -0.0128643)
(1.19066 -0.00880694 -0.00842805)
(1.19029 -0.00819108 -0.00884121)
(1.19075 -0.00968798 -0.00916782)
(1.19173 -0.0078166 -0.00815699)
(1.1923 -0.00896477 -0.0083876)
(1.19175 -0.00835374 -0.00870034)
(1.19418 -0.00412607 -0.00532545)
(1.19417 -0.00371811 -0.00550201)
(1.19417 -0.00441024 -0.00574066)
(1.19483 -0.00371069 -0.00510366)
(1.19492 -0.00428661 -0.0052874)
(1.19487 -0.00391179 -0.00545673)
(1.19637 -0.00218098 -0.0033244)
(1.19643 -0.00193995 -0.0034153)
(1.19637 -0.00230365 -0.00358069)
(1.19677 -0.00198704 -0.00318147)
(1.19676 -0.00229908 -0.00331355)
(1.1968 -0.0020794 -0.00339446)
(1.19772 -0.00124509 -0.00207615)
(1.19777 -0.00110234 -0.00212622)
(1.19772 -0.00130773 -0.00223427)
(1.19796 -0.00114503 -0.00198723)
(1.19794 -0.00132606 -0.00207566)
(1.19798 -0.00119461 -0.00211749)
(1.19855 -0.000742752 -0.00130372)
(1.19859 -0.000657149 -0.00133225)
(1.19855 -0.000778913 -0.00140165)
(1.19871 -0.00068748 -0.00124867)
(1.19869 -0.000797083 -0.00130659)
(1.19872 -0.000717122 -0.00132912)
(1.19908 -0.000454735 -0.000823719)
(1.1991 -0.0004027 -0.00084048)
(1.19908 -0.000476666 -0.000884887)
(1.19917 -0.000422972 -0.000789513)
(1.19916 -0.000490964 -0.000827069)
(1.19918 -0.000441332 -0.000839696)
(1.19941 -0.000283172 -0.000522842)
(1.19942 -0.000251174 -0.000532833)
(1.19941 -0.000296952 -0.000561363)
(1.19947 -0.000264168 -0.000501169)
(1.19946 -0.000307624 -0.000525542)
(1.19947 -0.000275884 -0.000532758)
(1.19962 -0.000176714 -0.000332579)
(1.19963 -0.00015796 -0.000338684)
(1.19962 -0.000185767 -0.000356984)
(1.19966 -0.000164841 -0.000318859)
(1.19965 -0.000194064 -0.000334702)
(1.19966 -0.000172735 -0.000338958)
(1.19975 -0.000107844 -0.000211557)
(1.19976 -9.83478e-05 -0.000215408)
(1.19975 -0.000113878 -0.000227227)
(1.19978 -0.00010055 -0.000203008)
(1.19977 -0.000121201 -0.000213351)
(1.19978 -0.000105788 -0.000215925)
(1.19984 -6.50601e-05 -0.000134491)
(1.19984 -6.18204e-05 -0.000136904)
(1.19984 -6.90251e-05 -0.000144564)
(1.19986 -6.04756e-05 -0.000128766)
(1.19985 -7.68122e-05 -0.000135899)
(1.19986 -6.40553e-05 -0.000137215)
(1.19989 -3.56043e-05 -8.26728e-05)
(1.19989 -3.79533e-05 -8.44203e-05)
(1.1999 -3.85732e-05 -8.92975e-05)
(1.19991 -3.23435e-05 -7.87279e-05)
(1.1999 -4.66447e-05 -8.38532e-05)
(1.19991 -3.50377e-05 -8.41932e-05)
(1.19992 -1.51005e-05 -4.85645e-05)
(1.19992 -2.14807e-05 -4.97222e-05)
(1.19993 -1.70597e-05 -5.30291e-05)
(1.19993 -1.32161e-05 -4.56305e-05)
(1.19993 -2.52909e-05 -4.95307e-05)
(1.19993 -1.49089e-05 -4.96444e-05)
(1.25034 0.00088201 -0.00386382)
(1.24886 0.00148462 -0.00478628)
(1.2454 -0.00185105 -0.00769001)
(1.24437 0.00469421 -0.00553234)
(1.24646 0.000143338 -0.00434601)
(1.2203 -0.0154416 -0.013551)
(1.2159 -0.0166249 -0.0112191)
(1.21843 -0.017359 -0.0124214)
(1.21727 -0.00832438 -0.0117076)
(1.21586 -0.0159606 -0.0123389)
(1.21292 -0.0164968 -0.0136025)
(1.1996 -0.014238 -0.00937683)
(1.20116 -0.0141995 -0.0104624)
(1.20158 -0.0145562 -0.0110989)
(1.19997 -0.0131932 -0.010035)
(1.20262 -0.0121055 -0.0096969)
(1.20077 -0.0134864 -0.00974638)
(1.19716 -0.00875802 -0.00656253)
(1.19726 -0.00860772 -0.00697908)
(1.19786 -0.00913721 -0.00719681)
(1.19763 -0.00801274 -0.00643304)
(1.19845 -0.00826634 -0.00651052)
(1.19799 -0.00829109 -0.00665723)
(1.19733 -0.00518894 -0.00434616)
(1.19724 -0.00502826 -0.00453195)
(1.19756 -0.00541023 -0.00464793)
(1.19765 -0.00475532 -0.00417884)
(1.19793 -0.00504915 -0.00426916)
(1.19785 -0.00492666 -0.00442788)
(1.19797 -0.00311632 -0.00282412)
(1.19794 -0.00297938 -0.00293017)
(1.19807 -0.00324927 -0.00302456)
(1.19822 -0.0028686 -0.00271177)
(1.19834 -0.0030856 -0.00278789)
(1.19832 -0.00297423 -0.00287837)
(1.19859 -0.00190595 -0.00181898)
(1.19858 -0.0018113 -0.00187915)
(1.19864 -0.00198806 -0.00194971)
(1.19876 -0.00176346 -0.00174601)
(1.19883 -0.00190998 -0.00180345)
(1.19882 -0.00183029 -0.00185383)
(1.19906 -0.00118472 -0.00116981)
(1.19906 -0.00112329 -0.00120448)
(1.19908 -0.00123709 -0.001254)
(1.19917 -0.00110058 -0.00112274)
(1.19921 -0.00119647 -0.00116381)
(1.1992 -0.00114406 -0.00119227)
(1.19938 -0.000744093 -0.000752996)
(1.19938 -0.00070513 -0.000772904)
(1.1994 -0.000778027 -0.000806619)
(1.19946 -0.000694018 -0.000722841)
(1.19947 -0.000756272 -0.000751332)
(1.19947 -0.000722532 -0.000766951)
(1.1996 -0.000471815 -0.000484572)
(1.1996 -0.000447185 -0.000496202)
(1.19961 -0.000494014 -0.000519292)
(1.19965 -0.000440991 -0.000464832)
(1.19966 -0.000481385 -0.000484517)
(1.19966 -0.000460136 -0.000493301)
(1.19974 -0.000297901 -0.000311888)
(1.19974 -0.000282681 -0.000318964)
(1.19974 -0.000312659 -0.000334178)
(1.19977 -0.000278895 -0.000299512)
(1.19978 -0.000304907 -0.000312632)
(1.19978 -0.000291573 -0.000317892)
(1.19983 -0.000190985 -0.00020066)
(1.19983 -0.00018068 -0.000205139)
(1.19984 -0.000200249 -0.000215379)
(1.19986 -0.000179501 -0.000193004)
(1.19986 -0.000196792 -0.000201865)
(1.19986 -0.000187712 -0.0002051)
(1.1999 -0.00012024 -0.000129323)
(1.1999 -0.00011428 -0.000131715)
(1.1999 -0.000127102 -0.00013868)
(1.19991 -0.000112491 -0.000123773)
(1.19992 -0.000123746 -0.000130065)
(1.19992 -0.00011859 -0.000131613)
(1.19993 -7.12054e-05 -8.03743e-05)
(1.19993 -6.83182e-05 -8.19213e-05)
(1.19994 -7.5972e-05 -8.6665e-05)
(1.19994 -6.59212e-05 -7.66545e-05)
(1.19995 -7.37816e-05 -8.09397e-05)
(1.19995 -7.02242e-05 -8.19024e-05)
(1.19996 -3.85947e-05 -4.69724e-05)
(1.19996 -3.87886e-05 -4.8276e-05)
(1.19996 -4.16024e-05 -5.14659e-05)
(1.19996 -3.5095e-05 -4.41811e-05)
(1.19997 -4.11513e-05 -4.75274e-05)
(1.19997 -3.78459e-05 -4.82412e-05)
(1.3078 0.0802348 -0.00732356)
(1.28973 0.0568071 -0.00267562)
(1.29318 0.0797341 -0.00215225)
(1.30974 0.0690605 -0.00446143)
(1.30188 0.0752044 -0.00605837)
(1.19338 -0.000422973 -0.017673)
(1.19325 -0.00276772 -0.0136802)
(1.20236 0.00680814 -0.0129125)
(1.1906 0.00842725 -0.0160947)
(1.19633 -0.00235003 -0.0182791)
(1.19619 -0.00102231 -0.0145853)
(1.19707 -0.00562621 -0.00941014)
(1.19684 -0.00655662 -0.00791489)
(1.20116 -0.00718098 -0.008158)
(1.20186 -0.00870751 -0.00780752)
(1.19851 -0.00632355 -0.00824319)
(1.1988 -0.00648518 -0.00797558)
(1.20007 -0.00658447 -0.00497006)
(1.20051 -0.00659577 -0.00523671)
(1.20055 -0.00653164 -0.00540005)
(1.20035 -0.00616638 -0.00483623)
(1.20082 -0.006332 -0.00485278)
(1.2007 -0.00619808 -0.0050247)
(1.19967 -0.00476125 -0.00334323)
(1.19963 -0.00471946 -0.00350441)
(1.19991 -0.004865 -0.00355743)
(1.19982 -0.00442744 -0.00322508)
(1.20009 -0.00456095 -0.0032621)
(1.20004 -0.0045192 -0.00339855)
(1.19952 -0.00317658 -0.00225063)
(1.19948 -0.00312835 -0.00235127)
(1.19966 -0.00327565 -0.00239842)
(1.19965 -0.00295078 -0.00217023)
(1.19981 -0.00306892 -0.00220825)
(1.19978 -0.00303374 -0.0022926)
(1.19958 -0.00206781 -0.00150282)
(1.19955 -0.00202852 -0.00156262)
(1.19966 -0.00214311 -0.00160323)
(1.19967 -0.00192376 -0.00144827)
(1.19975 -0.00198705 -0.00153149)
(1.19968 -0.00133444 -0.000997276)
(1.19966 -0.00130692 -0.00103205)
(1.19973 -0.0013879 -0.00106446)
(1.19975 -0.00124445 -0.000960057)
(1.19979 -0.00128965 -0.00101552)
(1.19977 -0.000860618 -0.000660911)
(1.19976 -0.000842524 -0.000680917)
(1.1998 -0.000897423 -0.000704955)
(1.19982 -0.000804558 -0.000635903)
(1.19985 -0.000836168 -0.000672176)
(1.19984 -0.000553305 -0.000434093)
(1.19984 -0.000541732 -0.000446205)
(1.19986 -0.00057853 -0.000464288)
(1.19988 -0.00051801 -0.000417173)
(1.1999 -0.000539863 -0.000442027)
(1.1999 -0.000357508 -0.000283486)
(1.1999 -0.000349321 -0.000291311)
(1.19991 -0.000373638 -0.000303337)
(1.19993 -0.000335952 -0.000273237)
(1.19994 -0.000349871 -0.000289642)
(1.19995 -0.000230952 -0.000186936)
(1.19994 -0.00022669 -0.000191115)
(1.19995 -0.000242776 -0.000199592)
(1.19996 -0.000216675 -0.00018002)
(1.19997 -0.000227224 -0.000190375)
(1.19997 -0.000143617 -0.000122053)
(1.19997 -0.000141024 -0.00012449)
(1.19997 -0.000151716 -0.000130799)
(1.19998 -0.000134273 -0.000116637)
(1.19998 -0.000141431 -0.000123995)
(1.19999 -8.63589e-05 -7.60262e-05)
(1.19998 -8.45923e-05 -7.77566e-05)
(1.19999 -9.18293e-05 -8.19901e-05)
(1.19999 -8.04247e-05 -7.28156e-05)
(1.2 -8.53138e-05 -7.79347e-05)
(1.2 -4.86827e-05 -4.42539e-05)
(1.2 -4.77051e-05 -4.52282e-05)
(1.2 -5.24423e-05 -4.84207e-05)
(1.2 -4.4281e-05 -4.15174e-05)
(1.20001 -4.79307e-05 -4.51525e-05)
(0.952133 -0.255254 -0.050216)
(1.04431 -0.190481 -0.0491067)
(1.10131 -0.14396 -0.0464399)
(1.06681 -0.136255 -0.0698837)
(1.1059 -0.125755 -0.0410205)
(1.19235 0.00911257 -0.0257976)
(1.1847 0.00707221 -0.021999)
(1.18372 0.00310084 -0.0217047)
(1.18636 0.00406962 -0.018897)
(1.18656 0.00426374 -0.0192349)
(1.19047 -0.00121878 -0.0109383)
(1.1902 -0.00134718 -0.0118787)
(1.19219 -0.000967015 -0.0101964)
(1.19191 -0.0020504 -0.0108155)
(1.19238 -0.00105059 -0.0110194)
(1.1952 -0.000371753 -0.00614021)
(1.19531 -0.000397859 -0.00655784)
(1.19592 -0.00031666 -0.00571089)
(1.19596 -0.000787893 -0.0060414)
(1.1961 -0.000332476 -0.00600632)
(1.19703 -0.000155204 -0.00362844)
(1.19712 -0.000165063 -0.00383779)
(1.19738 -0.00013555 -0.00337653)
(1.19766 -0.000382091 -0.00357229)
(1.1975 -0.000141796 -0.00352788)
(1.19788 -7.90814e-05 -0.00220457)
(1.19794 -8.27095e-05 -0.00232095)
(1.19808 -7.252e-05 -0.00205368)
(1.19854 -0.00021311 -0.00217398)
(1.19815 -7.51282e-05 -0.00213815)
(1.19837 -4.99719e-05 -0.0013624)
(1.1984 -5.21585e-05 -0.00143067)
(1.19848 -4.7359e-05 -0.00127026)
(1.19905 -0.000131967 -0.00134519)
(1.19852 -4.9137e-05 -0.00131986)
(1.19867 -3.58756e-05 -0.000853303)
(1.19869 -3.7055e-05 -0.0008942)
(1.19875 -3.43797e-05 -0.000796483)
(1.19935 -8.68074e-05 -0.000842399)
(1.19877 -3.53871e-05 -0.00082601)
(1.19888 -2.77037e-05 -0.000537936)
(1.19889 -2.84121e-05 -0.000563231)
(1.19893 -2.71745e-05 -0.000502016)
(1.19955 -5.95869e-05 -0.000530914)
(1.19894 -2.75354e-05 -0.000520245)
(1.19903 -2.74518e-05 -0.000340477)
(1.19903 -2.73343e-05 -0.000356501)
(1.19907 -2.75029e-05 -0.000318159)
(1.19966 -4.65452e-05 -0.000336291)
(1.19907 -2.73604e-05 -0.000329542)
(1.19916 -2.84398e-05 -0.000216164)
(1.19916 -2.81346e-05 -0.000226046)
(1.19919 -2.88169e-05 -0.000201972)
(1.19974 -3.80724e-05 -0.000213418)
(1.19919 -2.84746e-05 -0.000209146)
(1.19928 -3.18346e-05 -0.000137104)
(1.19927 -3.14574e-05 -0.000143726)
(1.1993 -3.24166e-05 -0.000127718)
(1.19979 -3.44424e-05 -0.000135587)
(1.1993 -3.19332e-05 -0.000132656)
(1.1994 -3.88481e-05 -8.3858e-05)
(1.19939 -3.79368e-05 -8.87358e-05)
(1.19942 -4.00784e-05 -7.80179e-05)
(1.19982 -3.45987e-05 -8.35601e-05)
(1.19941 -3.91102e-05 -8.15414e-05)
(1.19952 -4.68121e-05 -4.84564e-05)
(1.19951 -4.6118e-05 -5.16253e-05)
(1.19955 -4.71508e-05 -4.415e-05)
(1.19984 -3.70645e-05 -4.82804e-05)
(1.19953 -4.70581e-05 -4.70533e-05)
(1.30758 -0.010979 -0.00337704)
(1.29125 -0.012194 -0.00220029)
(1.27857 -0.0256073 -0.00926285)
(1.27726 -0.0114337 -0.00193648)
(1.27204 -0.00707052 -0.0025438)
(1.20482 -0.0496347 -0.0288846)
(1.21617 -0.0379084 -0.0279827)
(1.20641 -0.036898 -0.0262032)
(1.20867 -0.0306823 -0.0274544)
(1.20366 -0.0313388 -0.0260136)
(1.21057 -0.0349638 -0.0225392)
(1.1927 -0.016835 -0.0157374)
(1.19214 -0.015336 -0.016862)
(1.1941 -0.0179402 -0.0171834)
(1.19526 -0.0146341 -0.0157958)
(1.19438 -0.013981 -0.0147995)
(1.19645 -0.0155741 -0.0146786)
(1.19531 -0.00659758 -0.00913618)
(1.19531 -0.0059542 -0.00941612)
(1.19575 -0.00699387 -0.00976943)
(1.19618 -0.00572585 -0.00855307)
(1.19668 -0.00654857 -0.00876332)
(1.19662 -0.00594504 -0.00900175)
(1.19705 -0.00320431 -0.00548746)
(1.19718 -0.00283941 -0.00555416)
(1.19727 -0.00335634 -0.00580802)
(1.19757 -0.00285713 -0.00512118)
(1.19772 -0.00328801 -0.00530624)
(1.19779 -0.00295651 -0.00535238)
(1.19813 -0.00175911 -0.00336031)
(1.19824 -0.00154957 -0.00337224)
(1.19826 -0.00183274 -0.00353787)
(1.19844 -0.00159701 -0.00313424)
(1.19849 -0.0018404 -0.0032643)
(1.19857 -0.00165126 -0.00326316)
(1.1988 -0.00103905 -0.00208534)
(1.19887 -0.000914809 -0.00208355)
(1.19887 -0.00108087 -0.00218985)
(1.19899 -0.000954507 -0.00194575)
(1.19901 -0.00110156 -0.00203228)
(1.19906 -0.000987827 -0.00202174)
(1.19922 -0.000638999 -0.00130603)
(1.19927 -0.000563365 -0.0013014)
(1.19927 -0.000665261 -0.00136935)
(1.19934 -0.000591571 -0.00121931)
(1.19935 -0.000684088 -0.00127586)
(1.19939 -0.000613479 -0.0012652)
(1.19949 -0.00040064 -0.000824402)
(1.19953 -0.000354223 -0.000819962)
(1.19952 -0.000417992 -0.00086337)
(1.19957 -0.000372679 -0.000770143)
(1.19957 -0.000431883 -0.000806951)
(1.1996 -0.000387635 -0.000798372)
(1.19967 -0.000253365 -0.000522583)
(1.19969 -0.000224533 -0.000519279)
(1.19969 -0.000264694 -0.000547126)
(1.19972 -0.000236334 -0.000488422)
(1.19972 -0.000275033 -0.000512136)
(1.19974 -0.000246223 -0.000506235)
(1.19979 -0.00016054 -0.000332688)
(1.1998 -0.000143554 -0.0003302)
(1.1998 -0.000168127 -0.000348068)
(1.19982 -0.00014994 -0.000310981)
(1.19982 -0.000176434 -0.000326311)
(1.19983 -0.000156651 -0.000322098)
(1.19986 -0.000100201 -0.000212293)
(1.19987 -9.16232e-05 -0.000210447)
(1.19987 -0.000105568 -0.000221994)
(1.19988 -9.36908e-05 -0.000198458)
(1.19988 -0.00011304 -0.000208648)
(1.19989 -9.84024e-05 -0.000205444)
(1.19991 -6.08031e-05 -0.000134742)
(1.19991 -5.82404e-05 -0.000133706)
(1.19992 -6.44885e-05 -0.000141141)
(1.19992 -5.62897e-05 -0.000125563)
(1.19992 -7.21939e-05 -0.000132531)
(1.19993 -5.96281e-05 -0.00013034)
(1.19994 -3.31547e-05 -8.28734e-05)
(1.19994 -3.60358e-05 -8.2527e-05)
(1.19995 -3.57635e-05 -8.73663e-05)
(1.19995 -3.01598e-05 -7.71041e-05)
(1.19995 -4.43325e-05 -8.19059e-05)
(1.19995 -3.25335e-05 -8.05301e-05)
(1.19996 -1.45238e-05 -4.86277e-05)
(1.19996 -2.14732e-05 -4.82887e-05)
(1.19996 -1.64102e-05 -5.17518e-05)
(1.19996 -1.26711e-05 -4.46237e-05)
(1.19997 -2.43272e-05 -4.81824e-05)
(1.19997 -1.44173e-05 -4.73021e-05)
(1.23394 -0.00134007 -0.00370113)
(1.234 -0.000753526 -0.00240593)
(1.23079 -0.00346351 -0.00515791)
(1.2297 -0.000176914 -0.0023633)
(1.23017 -0.00129612 -0.00313838)
(1.21791 -0.0117762 -0.0114052)
(1.2157 -0.0127806 -0.0120791)
(1.21628 -0.013644 -0.0112722)
(1.21577 -0.00990735 -0.00974912)
(1.21543 -0.0112764 -0.0111523)
(1.21356 -0.0122514 -0.0116684)
(1.2036 -0.0106716 -0.00979094)
(1.20387 -0.0106116 -0.00988438)
(1.20501 -0.0106338 -0.0100489)
(1.20342 -0.00965218 -0.00922746)
(1.20492 -0.00932386 -0.00878512)
(1.2045 -0.00957792 -0.00938254)
(1.20021 -0.00670055 -0.00663317)
(1.20018 -0.00651726 -0.00682483)
(1.20085 -0.00683324 -0.00690391)
(1.20041 -0.0060517 -0.00623605)
(1.20101 -0.00625685 -0.00625841)
(1.20094 -0.00613491 -0.0064253)
(1.1994 -0.00409195 -0.00436561)
(1.1994 -0.0039177 -0.00445665)
(1.19973 -0.00420282 -0.00455579)
(1.19963 -0.00372642 -0.00409314)
(1.1999 -0.00394708 -0.0041721)
(1.19991 -0.00380774 -0.0042306)
(1.19935 -0.00253515 -0.0028285)
(1.19937 -0.00240446 -0.00286546)
(1.19953 -0.00261388 -0.00295501)
(1.19953 -0.00232772 -0.00264815)
(1.19967 -0.00249714 -0.00272011)
(1.19969 -0.00238994 -0.00273998)
(1.19949 -0.0015992 -0.00182015)
(1.19951 -0.00151195 -0.00183432)
(1.19959 -0.00165385 -0.00190244)
(1.19961 -0.00147853 -0.0017032)
(1.19969 -0.00159675 -0.00175875)
(1.19971 -0.00152369 -0.00176298)
(1.19963 -0.00102059 -0.00117042)
(1.19965 -0.000964912 -0.00117486)
(1.19969 -0.00105915 -0.00122279)
(1.19971 -0.00094799 -0.00109543)
(1.19976 -0.00102797 -0.0011351)
(1.19977 -0.000980859 -0.0011332)
(1.19975 -0.000655918 -0.000753046)
(1.19976 -0.000619946 -0.00075427)
(1.19978 -0.000681989 -0.000787454)
(1.1998 -0.000611906 -0.000704845)
(1.19983 -0.000665276 -0.000732852)
(1.19984 -0.000634508 -0.00073)
(1.19984 -0.000424228 -0.000483247)
(1.19984 -0.000401094 -0.000482939)
(1.19986 -0.000442307 -0.000505156)
(1.19987 -0.000396675 -0.000452396)
(1.19989 -0.000432419 -0.000471273)
(1.19989 -0.000412568 -0.000468392)
(1.1999 -0.000273129 -0.000311892)
(1.1999 -0.000258849 -0.000310809)
(1.19991 -0.000285718 -0.000325611)
(1.19992 -0.00025623 -0.000292046)
(1.19993 -0.000279604 -0.000304818)
(1.19993 -0.000267141 -0.000301892)
(1.19994 -0.000177342 -0.000202007)
(1.19994 -0.000167653 -0.000201007)
(1.19995 -0.000185512 -0.000210852)
(1.19995 -0.000166608 -0.00018902)
(1.19996 -0.00018233 -0.000197549)
(1.19996 -0.000173884 -0.000195363)
(1.19997 -0.000112965 -0.000128858)
(1.19997 -0.000107049 -0.000128091)
(1.19997 -0.000119025 -0.000134946)
(1.19998 -0.000105638 -0.000120256)
(1.19998 -0.000116303 -0.000126316)
(1.19998 -0.000111191 -0.000124761)
(1.19998 -6.76691e-05 -8.04424e-05)
(1.19998 -6.51867e-05 -7.99036e-05)
(1.19999 -7.21465e-05 -8.45025e-05)
(1.19999 -6.28098e-05 -7.49388e-05)
(1.19999 -7.04753e-05 -7.91623e-05)
(1.19999 -6.69281e-05 -7.80578e-05)
(1.19999 -3.59323e-05 -4.78873e-05)
(1.19999 -3.63995e-05 -4.74567e-05)
(1.19999 -3.90189e-05 -5.08009e-05)
(1.2 -3.2682e-05 -4.38332e-05)
(1.2 -3.85777e-05 -4.69826e-05)
(1.2 -3.54582e-05 -4.63207e-05)
(1.23195 0.00581479 -0.0123474)
(1.22572 0.00252686 -0.00665813)
(1.22299 0.00424909 -0.0121532)
(1.2265 0.00238465 -0.00890944)
(1.22472 0.00270418 -0.00762358)
(1.20975 -0.00156316 -0.0123333)
(1.21227 -0.000877117 -0.0130787)
(1.2123 -0.00391259 -0.0100192)
(1.21023 -0.00369254 -0.0109947)
(1.21039 -0.00277498 -0.0117598)
(1.21107 -0.00228387 -0.0105408)
(1.20422 -0.00546023 -0.00782144)
(1.20562 -0.0059194 -0.00708554)
(1.20558 -0.00531188 -0.00799917)
(1.20544 -0.00579749 -0.0068578)
(1.20466 -0.00547457 -0.00697325)
(1.20534 -0.0052255 -0.00696414)
(1.20237 -0.005146 -0.00484399)
(1.20255 -0.00511971 -0.00490152)
(1.20289 -0.00509906 -0.00499482)
(1.20244 -0.00480761 -0.00453419)
(1.20285 -0.00487484 -0.00453338)
(1.20289 -0.00477899 -0.00461668)
(1.20114 -0.00378276 -0.00330403)
(1.20115 -0.0037236 -0.00337765)
(1.20145 -0.00382339 -0.00341614)
(1.20122 -0.00350539 -0.003107)
(1.20148 -0.00359173 -0.00313623)
(1.20149 -0.00354161 -0.00318398)
(1.20053 -0.00260011 -0.00224191)
(1.20053 -0.00254548 -0.00228313)
(1.20072 -0.00265588 -0.0023254)
(1.20061 -0.00241158 -0.00210764)
(1.20078 -0.00249988 -0.00214225)
(1.20078 -0.00245936 -0.00216709)
(1.20026 -0.00174282 -0.00150133)
(1.20025 -0.00170253 -0.00152129)
(1.20037 -0.00179273 -0.00156056)
(1.20032 -0.00162075 -0.0014098)
(1.20043 -0.00169306 -0.00144227)
(1.20042 -0.00166386 -0.00145222)
(1.20013 -0.00115356 -0.000997478)
(1.20013 -0.00112601 -0.00100703)
(1.2002 -0.00119254 -0.00103813)
(1.20018 -0.00107602 -0.000937173)
(1.20025 -0.00112976 -0.000963367)
(1.20024 -0.00110992 -0.000966243)
(1.20008 -0.000761775 -0.000658129)
(1.20008 -0.000743834 -0.000662347)
(1.20013 -0.000790363 -0.000686275)
(1.20011 -0.000712476 -0.000617643)
(1.20015 -0.000737594 -0.000638456)
(1.20005 -0.000499693 -0.000432275)
(1.20005 -0.000488627 -0.000433271)
(1.20008 -0.000520457 -0.000450207)
(1.20008 -0.000468474 -0.000405839)
(1.20011 -0.00048671 -0.000418803)
(1.20004 -0.000326905 -0.00028508)
(1.20004 -0.000319462 -0.000284951)
(1.20006 -0.000341134 -0.000297094)
(1.20006 -0.000307198 -0.000267106)
(1.20008 -0.000319644 -0.000275726)
(1.20004 -0.000214948 -0.000185659)
(1.20004 -0.000210341 -0.000185189)
(1.20005 -0.000224765 -0.000193383)
(1.20005 -0.000201726 -0.000173792)
(1.20006 -0.000210689 -0.000179342)
(1.20003 -0.000135249 -0.000121492)
(1.20003 -0.000132993 -0.000120915)
(1.20004 -0.000142778 -0.000126658)
(1.20004 -0.000126702 -0.000113939)
(1.20005 -0.000133366 -0.000117719)
(1.20003 -8.27278e-05 -7.72632e-05)
(1.20003 -8.10122e-05 -7.68435e-05)
(1.20004 -8.79107e-05 -8.1311e-05)
(1.20004 -7.70944e-05 -7.19718e-05)
(1.20004 -8.1935e-05 -7.50854e-05)
(1.20003 -4.56374e-05 -4.53428e-05)
(1.20003 -4.45833e-05 -4.53462e-05)
(1.20004 -4.92044e-05 -4.85226e-05)
(1.20004 -4.17202e-05 -4.16379e-05)
(1.20004 -4.50481e-05 -4.44238e-05)
(1.24708 -0.00441957 -0.0482739)
(1.24532 -0.01378 0.0322312)
(1.26947 -0.0232652 0.0266358)
(1.24446 -0.00496828 0.000626799)
(1.20677 -0.00369506 -0.034915)
(1.19525 -0.00611819 -0.0242582)
(1.19819 -0.00801775 -0.0261571)
(1.19673 -0.00400983 -0.0262788)
(1.20742 -0.00303678 -0.028481)
(1.19741 -0.00133645 -0.0195935)
(1.19856 -0.00160464 -0.0192425)
(1.19887 -0.00272432 -0.0172184)
(1.19827 -0.00122972 -0.0160858)
(1.2007 -0.00107714 -0.0165534)
(1.19799 -0.000548721 -0.00915151)
(1.19872 -0.000562055 -0.00952346)
(1.19883 -0.000448405 -0.00811323)
(1.19908 -0.00104769 -0.0086034)
(1.19949 -0.000452136 -0.00822311)
(1.19859 -0.000224499 -0.00504821)
(1.19895 -0.000232742 -0.00519099)
(1.19897 -0.000189428 -0.00450905)
(1.1993 -0.000507758 -0.00477833)
(1.19929 -0.000194376 -0.00455696)
(1.19879 -0.000107335 -0.00294415)
(1.19898 -0.000111153 -0.00301067)
(1.19898 -9.61681e-05 -0.00264422)
(1.19946 -0.00028014 -0.00280287)
(1.19915 -9.87757e-05 -0.00266396)
(1.19888 -6.58367e-05 -0.00177848)
(1.19899 -6.80168e-05 -0.00181176)
(1.19899 -6.17601e-05 -0.00160199)
(1.19958 -0.000175099 -0.00169776)
(1.19909 -6.36133e-05 -0.00160982)
(1.19896 -4.64407e-05 -0.00109649)
(1.19902 -4.79126e-05 -0.0011146)
(1.19903 -4.41826e-05 -0.000989233)
(1.19967 -0.000115976 -0.00104744)
(1.19908 -4.55325e-05 -0.000992456)
(1.19903 -3.38023e-05 -0.000684641)
(1.19907 -3.47902e-05 -0.000694666)
(1.19908 -3.24019e-05 -0.00061796)
(1.19973 -7.82729e-05 -0.000653749)
(1.19911 -3.32726e-05 -0.000618915)
(1.1991 -2.72178e-05 -0.00043021)
(1.19912 -2.77667e-05 -0.000436006)
(1.19913 -2.70173e-05 -0.000388397)
(1.19978 -5.65673e-05 -0.000411217)
(1.19915 -2.72994e-05 -0.000388691)
(1.19917 -2.73914e-05 -0.000272468)
(1.19918 -2.73198e-05 -0.000276036)
(1.1992 -2.74361e-05 -0.00024641)
(1.19982 -4.51192e-05 -0.000260589)
(1.1992 -2.73861e-05 -0.000246396)
(1.19925 -2.85402e-05 -0.000173936)
(1.19925 -2.81357e-05 -0.00017575)
(1.19927 -2.89093e-05 -0.000157154)
(1.19984 -3.69368e-05 -0.000166101)
(1.19927 -2.84979e-05 -0.000157016)
(1.19934 -3.20495e-05 -0.000110511)
(1.19933 -3.14337e-05 -0.000112331)
(1.19935 -3.27763e-05 -9.97751e-05)
(1.19985 -3.34988e-05 -0.000105646)
(1.19935 -3.18591e-05 -0.000100404)
(1.19944 -4.02035e-05 -6.7356e-05)
(1.19942 -3.91749e-05 -6.85895e-05)
(1.19945 -4.14482e-05 -6.07193e-05)
(1.19986 -3.54432e-05 -6.5013e-05)
(1.19944 -4.05268e-05 -6.12989e-05)
(1.19955 -4.74302e-05 -3.90772e-05)
(1.19954 -4.67486e-05 -4.03054e-05)
(1.19957 -4.75763e-05 -3.45385e-05)
(1.19987 -3.7652e-05 -3.74247e-05)
(1.19956 -4.74945e-05 -3.53195e-05)
(1.23839 -0.00102538 -0.0016072)
(1.23848 -0.00800251 -0.000950855)
(1.23313 -0.00848129 -0.0047722)
(1.23219 -0.00460568 -0.0015057)
(1.23111 -0.00158301 -0.00249521)
(1.21447 -0.0122709 -0.0189546)
(1.21229 -0.0136755 -0.0181968)
(1.21556 -0.012795 -0.0167892)
(1.21121 -0.0115664 -0.0168517)
(1.21361 -0.0120149 -0.0148692)
(1.21443 -0.00894339 -0.0159499)
(1.20268 -0.00787983 -0.0128503)
(1.20288 -0.00689193 -0.0129151)
(1.20415 -0.0076507 -0.012916)
(1.20299 -0.00650706 -0.0113845)
(1.20412 -0.00717549 -0.0112571)
(1.20432 -0.00622206 -0.0113213)
(1.20034 -0.00402486 -0.00754087)
(1.20059 -0.00349344 -0.00742902)
(1.20108 -0.00404077 -0.00768123)
(1.20075 -0.00347851 -0.00673386)
(1.20121 -0.00393433 -0.00688193)
(1.20135 -0.00347769 -0.00675202)
(1.19986 -0.00224388 -0.00447523)
(1.20002 -0.00195393 -0.00436982)
(1.20022 -0.00228624 -0.00456523)
(1.20013 -0.00200546 -0.00402059)
(1.20033 -0.00228776 -0.00416151)
(1.20044 -0.00203553 -0.00404164)
(1.19977 -0.00134727 -0.00271838)
(1.19988 -0.00117856 -0.00263884)
(1.19997 -0.00138306 -0.00276759)
(1.19994 -0.00122908 -0.00244939)
(1.20004 -0.00140781 -0.00254985)
(1.20012 -0.00125829 -0.00245986)
(1.19979 -0.00084581 -0.00168071)
(1.19985 -0.0007435 -0.0016251)
(1.1999 -0.000872971 -0.00170779)
(1.1999 -0.000781207 -0.00151674)
(1.19995 -0.000897536 -0.001584)
(1.2 -0.000804718 -0.00152122)
(1.19983 -0.000543102 -0.00105021)
(1.19987 -0.000479197 -0.00101283)
(1.1999 -0.000562923 -0.00106592)
(1.1999 -0.000505386 -0.000948554)
(1.19993 -0.000582431 -0.000992683)
(1.19996 -0.000522962 -0.000950586)
(1.19988 -0.00035253 -0.000661492)
(1.1999 -0.000312291 -0.000636488)
(1.19991 -0.000366855 -0.000670351)
(1.19992 -0.000329499 -0.000597743)
(1.19994 -0.000381019 -0.000626353)
(1.19995 -0.000342398 -0.000598129)
(1.19991 -0.000227574 -0.000419807)
(1.19992 -0.000202549 -0.000403279)
(1.19993 -0.000237811 -0.000424984)
(1.19994 -0.000213243 -0.000379561)
(1.19995 -0.000247677 -0.000398172)
(1.19996 -0.000222468 -0.000379476)
(1.19994 -0.000146269 -0.000266646)
(1.19994 -0.000131289 -0.000255973)
(1.19995 -0.000153234 -0.000270033)
(1.19996 -0.000137133 -0.000241064)
(1.19996 -0.000161348 -0.000253128)
(1.19997 -0.000143423 -0.000241066)
(1.19996 -9.32024e-05 -0.000170146)
(1.19996 -8.54838e-05 -0.000163404)
(1.19997 -9.79623e-05 -0.000172226)
(1.19997 -8.72632e-05 -0.000154022)
(1.19998 -0.000105564 -0.000161808)
(1.19998 -9.16064e-05 -0.000154126)
(1.19998 -5.61855e-05 -0.000107772)
(1.19998 -5.43429e-05 -0.000103537)
(1.19998 -5.97252e-05 -0.000109278)
(1.19998 -5.20056e-05 -9.72536e-05)
(1.19999 -6.75604e-05 -0.000102546)
(1.19999 -5.51935e-05 -9.74772e-05)
(1.19999 -3.09974e-05 -6.71408e-05)
(1.19998 -3.42178e-05 -6.45103e-05)
(1.19999 -3.33927e-05 -6.82179e-05)
(1.19999 -2.83571e-05 -6.02524e-05)
(1.19999 -4.22709e-05 -6.40407e-05)
(1.2 -3.05273e-05 -6.06126e-05)
(1.19999 -1.39984e-05 -3.92841e-05)
(1.19999 -2.08461e-05 -3.7185e-05)
(1.19999 -1.57412e-05 -4.02526e-05)
(1.19999 -1.22746e-05 -3.44802e-05)
(1.2 -2.41939e-05 -3.68463e-05)
(1.19999 -1.36593e-05 -3.54802e-05)
(1.22116 -0.000706133 -0.00155343)
(1.22103 -0.000992289 -0.00132182)
(1.21957 -0.00184918 -0.00244202)
(1.21909 -0.000713049 -0.00116034)
(1.219 -0.000542593 -0.00135722)
(1.21396 -0.00648829 -0.00759562)
(1.21389 -0.00647959 -0.00754757)
(1.2146 -0.00562113 -0.00667971)
(1.21343 -0.00537929 -0.00630248)
(1.21257 -0.00608306 -0.00721244)
(1.21339 -0.00524361 -0.00651332)
(1.20649 -0.00630047 -0.0072806)
(1.20653 -0.00604007 -0.00730224)
(1.20742 -0.00595879 -0.00702182)
(1.20613 -0.0056343 -0.00663294)
(1.2069 -0.00555531 -0.00638574)
(1.2069 -0.00538405 -0.0063916)
(1.20285 -0.00449787 -0.00524439)
(1.20289 -0.0042767 -0.00523323)
(1.20345 -0.00444653 -0.00522343)
(1.20285 -0.00405705 -0.00475745)
(1.20331 -0.00418627 -0.00475662)
(1.20335 -0.00402131 -0.00469631)
(1.20129 -0.00300191 -0.00349221)
(1.20134 -0.00283729 -0.00345092)