/*--------------------------------*- C++ -*----------------------------------*\
| =========                 |                                                 |
| \\      /  F ield         | OpenFOAM: The Open Source CFD Toolbox           |
|  \\    /   O peration     | Version:  2012                                  |
|   \\  /    A nd           | Website:  www.openfoam.com                      |
|    \\/     M anipulation  |                                                 |
\*---------------------------------------------------------------------------*/
FoamFile
{
    version     2.0;
    format      ascii;
    class       volScalarField::Internal;
    location    "0.105/fluid";
    object      V0;
}
// * * * * * * * * * * * * * * * * * * * * * * * * * * * * * * * * * * * * * //

dimensions      [0 3 0 0 0 0 0];


value           nonuniform List<scalar> 
16422
(
4.24155e-05
4.25107e-05
4.25097e-05
4.25003e-05
4.24963e-05
4.24977e-05
4.2502e-05
4.25068e-05
4.25112e-05
4.25138e-05
4.25152e-05
4.25166e-05
4.25174e-05
4.25167e-05
4.26543e-05
4.25896e-05
4.25335e-05
4.25086e-05
4.24992e-05
4.24968e-05
4.2499e-05
4.25025e-05
4.25078e-05
4.25114e-05
4.2513e-05
4.25143e-05
4.25143e-05
4.25146e-05
4.25139e-05
4.27135e-05
4.26135e-05
4.25151e-05
4.24939e-05
4.24886e-05
4.24922e-05
4.2496e-05
4.25016e-05
4.25084e-05
4.25119e-05
4.25123e-05
4.25133e-05
4.25132e-05
4.25119e-05
4.25108e-05
5.34462e-06
4.23893e-05
4.24488e-05
4.24764e-05
4.24868e-05
4.24943e-05
4.2499e-05
4.25022e-05
4.25095e-05
4.25112e-05
4.2512e-05
4.25135e-05
4.25118e-05
4.25108e-05
4.25102e-05
4.2411e-05
4.24961e-05
4.25045e-05
4.25007e-05
4.24988e-05
4.25005e-05
4.25045e-05
4.25087e-05
4.2512e-05
4.25148e-05
4.25161e-05
4.25166e-05
4.25161e-05
4.25167e-05
4.25972e-05
4.25417e-05
4.25156e-05
4.25039e-05
4.24994e-05
4.24986e-05
4.25014e-05
4.25053e-05
4.25089e-05
4.25112e-05
4.25137e-05
4.2515e-05
4.25144e-05
4.25141e-05
4.25145e-05
4.25857e-05
4.25478e-05
4.25027e-05
4.24912e-05
4.24925e-05
4.24971e-05
4.25006e-05
4.25053e-05
4.251e-05
4.25122e-05
4.2513e-05
4.25128e-05
4.25129e-05
4.25124e-05
4.25122e-05
4.25732e-05
4.24511e-05
4.24667e-05
4.24825e-05
4.24921e-05
4.24975e-05
4.25032e-05
4.25074e-05
4.2512e-05
4.25117e-05
4.25134e-05
4.25133e-05
4.25125e-05
4.2511e-05
4.25103e-05
4.28229e-05
4.24809e-05
4.25013e-05
4.25044e-05
4.25015e-05
4.25006e-05
4.25027e-05
4.25067e-05
4.25098e-05
4.25134e-05
4.25149e-05
4.25169e-05
4.2517e-05
4.25175e-05
4.25171e-05
4.25282e-05
4.25153e-05
4.25091e-05
4.2504e-05
4.25002e-05
4.25001e-05
4.25032e-05
4.25072e-05
4.25096e-05
4.25132e-05
4.2515e-05
4.25158e-05
4.25145e-05
4.25154e-05
4.25145e-05
4.25236e-05
4.25172e-05
4.2501e-05
4.24948e-05
4.24974e-05
4.25014e-05
4.25038e-05
4.2508e-05
4.25103e-05
4.25129e-05
4.25146e-05
4.25134e-05
4.25126e-05
4.2514e-05
4.25128e-05
4.25104e-05
4.2499e-05
4.24906e-05
4.24947e-05
4.24993e-05
4.25021e-05
4.25066e-05
4.25106e-05
4.2513e-05
4.25146e-05
4.25142e-05
4.25127e-05
4.25117e-05
4.25134e-05
4.25114e-05
4.25719e-05
4.25355e-05
4.25157e-05
4.25075e-05
4.25028e-05
4.2502e-05
4.25044e-05
4.25081e-05
4.25108e-05
4.25131e-05
4.25153e-05
4.25176e-05
4.25172e-05
4.25181e-05
4.25172e-05
4.25386e-05
4.25272e-05
4.25137e-05
4.25071e-05
4.25026e-05
4.25019e-05
4.25039e-05
4.25075e-05
4.25109e-05
4.25139e-05
4.25159e-05
4.25169e-05
4.25149e-05
4.25154e-05
4.25144e-05
4.25159e-05
4.25116e-05
4.25038e-05
4.25015e-05
4.25022e-05
4.25035e-05
4.25053e-05
4.25085e-05
4.25111e-05
4.25138e-05
4.25162e-05
4.25157e-05
4.2513e-05
4.2513e-05
4.25137e-05
4.24984e-05
4.25001e-05
4.2498e-05
4.24999e-05
4.25036e-05
4.25052e-05
4.25076e-05
4.25106e-05
4.25121e-05
4.25144e-05
4.2515e-05
4.25153e-05
4.25124e-05
4.25119e-05
4.25125e-05
4.23473e-05
4.26825e-05
4.25935e-05
5.33763e-06
4.24745e-05
4.23471e-05
4.26817e-05
4.25883e-05
4.23721e-05
4.26946e-05
4.2566e-05
4.24792e-05
4.25288e-05
4.24281e-05
4.23763e-05
4.26628e-05
4.25419e-05
4.32154e-05
4.24182e-05
4.24996e-05
4.24953e-05
4.27296e-05
4.2674e-05
4.28286e-05
4.26504e-05
4.23869e-05
4.24312e-05
5.31839e-06
6.4702e-07
6.68605e-07
5.31799e-06
6.68644e-07
6.47019e-07
4.26573e-05
4.28794e-05
4.26403e-05
4.26165e-05
4.2586e-05
4.25765e-05
4.25208e-05
5.39528e-06
5.35881e-06
5.39923e-06
4.24319e-05
4.24188e-05
4.24509e-05
5.27751e-06
6.47966e-07
6.69582e-07
6.7102e-07
5.3286e-06
6.54335e-07
6.43033e-07
4.24701e-05
4.25173e-05
4.25035e-05
6.47e-07
6.68597e-07
5.31774e-06
5.39118e-06
4.32241e-05
4.19208e-05
5.31911e-06
6.47594e-07
6.69212e-07
6.68665e-07
5.32404e-06
6.47034e-07
4.32409e-05
4.194e-05
4.24489e-05
4.31278e-05
4.19888e-05
5.32823e-06
4.2757e-05
4.27678e-05
4.30591e-05
4.29643e-05
4.23964e-05
4.25601e-05
4.22762e-05
4.27325e-05
4.20456e-05
4.23956e-05
4.24176e-05
4.25078e-05
4.25736e-05
4.25407e-05
4.26597e-05
4.26186e-05
4.27348e-05
4.26765e-05
4.25032e-05
4.25673e-05
4.25354e-05
4.24174e-05
4.24904e-05
4.25426e-05
4.25187e-05
4.26106e-05
4.27168e-05
4.26603e-05
4.26286e-05
4.25766e-05
4.2628e-05
4.25951e-05
4.24866e-05
4.25257e-05
4.25131e-05
4.24391e-05
4.24905e-05
4.24991e-05
4.2506e-05
4.25553e-05
4.25951e-05
4.25725e-05
4.25178e-05
4.25133e-05
4.25348e-05
4.25296e-05
4.24893e-05
4.25316e-05
4.25095e-05
4.259e-05
4.25436e-05
4.25484e-05
4.25331e-05
5.24385e-06
4.24727e-05
4.26034e-05
5.3315e-06
4.26241e-05
4.24445e-05
4.26084e-05
5.24395e-06
4.24719e-05
4.23503e-05
4.26039e-05
4.24739e-05
5.2444e-06
4.24499e-05
5.33159e-06
4.2622e-05
4.26845e-05
4.2445e-05
5.33241e-06
4.26227e-05
4.26203e-05
4.23585e-05
5.25168e-06
4.24845e-05
4.24792e-05
4.26452e-05
5.24497e-06
4.24626e-05
4.26909e-05
5.34121e-06
4.26239e-05
5.33318e-06
4.26254e-05
4.24884e-05
4.2441e-05
5.26017e-06
4.24691e-05
4.22999e-05
4.26576e-05
4.24001e-05
5.20469e-06
4.2355e-05
5.3482e-06
4.25943e-05
4.25572e-05
4.25022e-05
5.27452e-06
4.25169e-05
5.26787e-06
5.50288e-06
4.27504e-05
4.27018e-05
5.21283e-06
4.25216e-05
5.22899e-06
5.14895e-08
6.69184e-07
6.4702e-07
5.14895e-08
6.69177e-07
5.4241e-08
6.56659e-07
6.68609e-07
5.4241e-08
6.56661e-07
5.4241e-08
6.56703e-07
6.6862e-07
6.56675e-07
5.42411e-08
5.14895e-08
6.69218e-07
6.47006e-07
6.69197e-07
5.14897e-08
6.75772e-07
5.67173e-06
5.62042e-06
6.7991e-07
6.68252e-07
6.73179e-07
6.64844e-07
6.76491e-07
6.73074e-07
5.5763e-06
6.69736e-07
5.58811e-06
6.7097e-07
6.87283e-07
6.79416e-07
6.75103e-07
5.1497e-08
6.70271e-07
6.54463e-07
5.14934e-08
6.72433e-07
5.42508e-08
6.57717e-07
6.72256e-07
5.42457e-08
6.59066e-07
7.10814e-07
7.02226e-07
6.97383e-07
5.42153e-08
6.52559e-07
6.73601e-07
7.13082e-07
6.59271e-07
6.12437e-07
5.14801e-08
6.56135e-07
6.61996e-07
7.30151e-07
6.72802e-07
6.19414e-07
5.14895e-08
6.69169e-07
6.47003e-07
5.14895e-08
6.69188e-07
5.4241e-08
6.68604e-07
6.56647e-07
5.4241e-08
6.5666e-07
5.42398e-08
6.56644e-07
5.14883e-08
6.69166e-07
6.69101e-07
6.64176e-07
6.73068e-07
6.64699e-07
6.72628e-07
6.64184e-07
6.72643e-07
6.69094e-07
5.57135e-06
6.69591e-07
5.56921e-06
5.30298e-06
5.51485e-06
5.51326e-06
5.30435e-06
5.14902e-08
6.69897e-07
6.47153e-07
5.14922e-08
6.6941e-07
5.42418e-08
6.68825e-07
6.57367e-07
5.42448e-08
6.56938e-07
5.42417e-08
6.56735e-07
6.68749e-07
5.42412e-08
6.56839e-07
5.14901e-08
6.69241e-07
6.4711e-07
5.14897e-08
6.69333e-07
5.30984e-06
5.44662e-06
5.51096e-06
5.29854e-06
5.3086e-06
5.51749e-06
5.52037e-06
5.30519e-06
5.3921e-06
5.50139e-06
5.38018e-06
5.40484e-06
5.30057e-06
6.62479e-07
6.63794e-07
5.27764e-06
5.27992e-06
5.3544e-06
5.28183e-06
5.33224e-06
4.2284e-05
4.2292e-05
4.24514e-05
4.24417e-05
4.23762e-05
4.24455e-05
4.20831e-05
4.2281e-05
4.24677e-05
4.24921e-05
4.24932e-05
4.22028e-05
4.2464e-05
4.24611e-05
6.72519e-07
5.31825e-06
5.27123e-06
5.32676e-06
5.32655e-06
5.27097e-06
6.72527e-07
6.72521e-07
5.31789e-06
5.32636e-06
5.27071e-06
6.72518e-07
5.3264e-06
5.27079e-06
6.78987e-07
5.31553e-06
5.23853e-06
5.26597e-06
5.34251e-06
5.2919e-06
6.22852e-07
6.76742e-07
6.73988e-07
6.81679e-07
6.75507e-07
5.32914e-06
5.34022e-06
5.28458e-06
6.72999e-07
5.35102e-06
5.2949e-06
6.72518e-07
5.31803e-06
5.32631e-06
5.27066e-06
6.72516e-07
5.32637e-06
5.2707e-06
6.7257e-07
5.27172e-06
5.31985e-06
5.32723e-06
6.72531e-07
5.32802e-06
5.27256e-06
6.72595e-07
5.32169e-06
5.3331e-06
5.2777e-06
6.72805e-07
5.32972e-06
5.2743e-06
5.57324e-06
5.57251e-06
5.53938e-06
5.40919e-06
5.45524e-06
5.43983e-06
5.45052e-06
5.20383e-06
5.32059e-06
5.23842e-06
5.3188e-06
5.2955e-06
5.34737e-06
5.28547e-06
5.22331e-06
5.47007e-06
5.29119e-06
5.34015e-06
5.30834e-06
5.29251e-06
5.3931e-06
1.00904e-07
5.14895e-08
7.05148e-07
7.0514e-07
1.00907e-07
8.43823e-08
7.12558e-08
8.43885e-08
7.12936e-08
1.00903e-07
5.14895e-08
7.05145e-07
7.0514e-07
1.00906e-07
8.43823e-08
7.12662e-08
8.43884e-08
7.12872e-08
7.92731e-08
5.4241e-08
6.53944e-07
6.53938e-07
7.92738e-08
7.73539e-08
7.45398e-08
7.73544e-08
7.45398e-08
7.92727e-08
5.4241e-08
6.53942e-07
6.53934e-07
7.92735e-08
7.73538e-08
7.454e-08
7.73545e-08
7.45399e-08
7.92733e-08
6.53945e-07
5.42406e-08
6.53947e-07
7.92738e-08
7.73544e-08
7.45403e-08
7.45393e-08
7.7355e-08
7.73539e-08
7.454e-08
7.73547e-08
7.45392e-08
7.92743e-08
5.42402e-08
6.53961e-07
6.53949e-07
7.9274e-08
1.00909e-07
7.05153e-07
5.14895e-08
7.05154e-07
1.00908e-07
8.43935e-08
7.12402e-08
8.43926e-08
7.12306e-08
1.00908e-07
5.14884e-08
7.0516e-07
7.05157e-07
1.00909e-07
8.43947e-08
7.12497e-08
8.43926e-08
7.12432e-08
1.00965e-07
5.15002e-08
7.08654e-07
7.06921e-07
1.01296e-07
8.44268e-08
7.12669e-08
8.44007e-08
7.12596e-08
1.00957e-07
5.14978e-08
7.05687e-07
7.06092e-07
1.00923e-07
8.44303e-08
7.17244e-08
8.48259e-08
7.12951e-08
7.93618e-08
5.42545e-08
6.57455e-07
6.55853e-07
7.94725e-08
7.74079e-08
7.45498e-08
7.73814e-08
7.45607e-08
7.93369e-08
5.42511e-08
6.54582e-07
6.5502e-07
7.93052e-08
7.74287e-08
7.46908e-08
7.75369e-08
7.45707e-08
6.87977e-07
7.22363e-07
6.97053e-07
6.82038e-07
7.19852e-07
6.94751e-07
7.27701e-07
7.33797e-07
7.14478e-07
8.0412e-08
6.60795e-07
5.4137e-08
6.64998e-07
7.95847e-08
7.80511e-08
6.06853e-07
7.12276e-07
5.96959e-07
8.12416e-08
7.86412e-08
7.48153e-08
7.76599e-08
7.61825e-08
7.9924e-08
5.43042e-08
6.27703e-07
6.59886e-07
6.11015e-07
6.45343e-07
1.02468e-07
7.12488e-07
5.23793e-08
7.17032e-07
1.01544e-07
7.99826e-08
6.88466e-07
7.40006e-07
6.45784e-07
3.50004e-08
1.03238e-07
5.35595e-08
6.33424e-07
6.92295e-07
6.13685e-07
7.01804e-07
8.43082e-08
7.2269e-08
8.51726e-08
1.10195e-07
1.00911e-07
5.14895e-08
7.05147e-07
7.05146e-07
1.00906e-07
8.43988e-08
7.12898e-08
8.43864e-08
7.12137e-08
1.00911e-07
5.14895e-08
7.05145e-07
1.00906e-07
7.05147e-07
8.43997e-08
7.13007e-08
8.43862e-08
7.12089e-08
7.92724e-08
5.4241e-08
6.5394e-07
7.92734e-08
6.53935e-07
7.73542e-08
7.45398e-08
7.73543e-08
7.45398e-08
7.92733e-08
5.4241e-08
6.53939e-07
7.92734e-08
6.53935e-07
7.73537e-08
7.45398e-08
7.45398e-08
7.73543e-08
7.92734e-08
7.45386e-08
7.73538e-08
1.00906e-07
7.12726e-08
8.43875e-08
1.00912e-07
5.14907e-08
7.05233e-07
7.05272e-07
1.0091e-07
8.43902e-08
7.12402e-08
8.44024e-08
7.12846e-08
1.00912e-07
5.1491e-08
7.05468e-07
1.00923e-07
7.05344e-07
8.43924e-08
7.12425e-08
8.43931e-08
7.12546e-08
7.92826e-08
5.42425e-08
6.54053e-07
7.92796e-08
6.54106e-07
7.73655e-08
7.45475e-08
7.73742e-08
7.45444e-08
7.92865e-08
5.42428e-08
6.54336e-07
7.9297e-08
6.54191e-07
7.73623e-08
7.45419e-08
7.45431e-08
7.73593e-08
7.9277e-08
5.42413e-08
6.54022e-07
6.53991e-07
7.92774e-08
7.73556e-08
7.45403e-08
7.73556e-08
7.45399e-08
7.92757e-08
5.42405e-08
6.53967e-07
7.92751e-08
6.53976e-07
7.73572e-08
7.45412e-08
7.45408e-08
7.73578e-08
1.00908e-07
5.14897e-08
7.05203e-07
7.05187e-07
1.00909e-07
8.43893e-08
7.12658e-08
8.43912e-08
7.1265e-08
1.00907e-07
5.14885e-08
7.05168e-07
1.00908e-07
7.05172e-07
8.43907e-08
7.12697e-08
8.43912e-08
7.12691e-08
5.3565e-06
5.35601e-06
5.36157e-06
5.35597e-06
5.36614e-06
5.33884e-06
5.38041e-06
4.25646e-05
4.25612e-05
4.25137e-05
4.25317e-05
4.25266e-05
4.25182e-05
4.25087e-05
5.32519e-06
5.33278e-06
5.34955e-06
5.35231e-06
5.34508e-06
5.32991e-06
5.34753e-06
4.30106e-05
4.27744e-05
4.28449e-05
6.70245e-07
6.37916e-07
6.60532e-07
6.47022e-07
6.60528e-07
6.70263e-07
6.37942e-07
6.51743e-07
6.79836e-07
6.61243e-07
6.6859e-07
6.61229e-07
6.51747e-07
6.79832e-07
6.51768e-07
6.61284e-07
6.68624e-07
6.79865e-07
6.61261e-07
6.79854e-07
6.51779e-07
6.703e-07
6.60561e-07
6.47014e-07
6.37897e-07
6.60559e-07
6.70298e-07
6.37879e-07
4.30383e-05
4.28607e-05
4.3013e-05
4.28025e-05
4.27794e-05
4.28397e-05
4.27496e-05
4.26498e-05
4.26735e-05
4.28299e-05
4.2718e-05
4.26014e-05
4.26661e-05
4.26384e-05
5.38423e-06
5.36749e-06
5.36935e-06
5.40786e-06
5.3767e-06
5.41141e-06
5.38196e-06
6.71524e-07
6.38446e-07
6.61531e-07
6.48874e-07
6.62365e-07
6.7094e-07
6.3899e-07
6.53216e-07
6.80619e-07
6.62242e-07
6.70044e-07
6.62687e-07
6.52633e-07
6.81162e-07
6.45508e-07
6.52231e-07
6.6194e-07
6.40215e-07
6.57867e-07
6.35662e-07
6.58972e-07
6.19346e-07
6.46059e-07
6.32844e-07
6.3538e-07
6.4614e-07
6.32865e-07
5.65996e-07
6.70301e-07
6.3791e-07
6.60526e-07
6.46992e-07
6.60543e-07
6.70262e-07
6.37844e-07
6.51741e-07
6.79835e-07
6.68593e-07
6.61233e-07
6.61233e-07
6.51744e-07
6.7983e-07
6.70491e-07
6.38212e-07
6.61152e-07
6.47351e-07
6.60899e-07
6.70663e-07
6.3811e-07
6.52108e-07
6.80319e-07
6.69038e-07
6.61875e-07
6.61694e-07
6.52296e-07
6.80151e-07
6.51806e-07
6.61305e-07
6.79872e-07
6.68669e-07
6.6131e-07
6.51788e-07
6.79887e-07
6.70305e-07
6.60574e-07
6.37903e-07
6.47054e-07
6.60588e-07
6.70306e-07
6.37914e-07
5.31582e-06
5.3102e-06
5.34374e-06
5.30088e-06
5.3228e-06
5.31169e-06
5.29175e-06
5.33473e-06
5.24386e-06
5.33479e-06
5.30565e-06
5.26962e-06
5.30531e-06
5.26985e-06
5.33151e-06
5.27964e-06
5.27968e-06
5.3139e-06
5.3169e-06
5.31706e-06
5.31359e-06
5.3348e-06
5.244e-06
5.33484e-06
5.30545e-06
5.26985e-06
5.30562e-06
5.26976e-06
5.33535e-06
5.24414e-06
5.33507e-06
5.30588e-06
5.27023e-06
5.30596e-06
5.27009e-06
5.27973e-06
5.33171e-06
5.27983e-06
5.31373e-06
5.31706e-06
5.31383e-06
5.31706e-06
5.28053e-06
5.33198e-06
5.28012e-06
5.31409e-06
5.31761e-06
5.31735e-06
5.31426e-06
5.34224e-06
5.24786e-06
5.33881e-06
5.30928e-06
5.27625e-06
5.31085e-06
5.27371e-06
5.33594e-06
5.24591e-06
5.33687e-06
5.30736e-06
5.27097e-06
5.30677e-06
5.27172e-06
5.33695e-06
5.2888e-06
5.28492e-06
5.31688e-06
5.32204e-06
5.32045e-06
5.3179e-06
5.2813e-06
5.33452e-06
5.28258e-06
5.31556e-06
5.31822e-06
5.319e-06
5.31491e-06
5.34866e-06
5.2778e-06
5.35557e-06
5.3132e-06
5.28165e-06
5.31454e-06
5.28608e-06
5.27235e-06
5.28876e-06
5.33891e-06
5.30587e-06
5.26058e-06
5.28297e-06
5.28615e-06
5.29472e-06
5.35483e-06
5.29903e-06
5.31608e-06
5.32398e-06
5.31902e-06
5.32244e-06
5.24987e-06
5.33867e-06
5.28635e-06
5.30794e-06
5.30154e-06
5.31352e-06
5.29978e-06
5.23995e-06
5.24692e-06
5.20183e-06
5.29256e-06
5.29061e-06
5.28677e-06
5.28688e-06
5.42907e-08
5.14894e-08
9.12175e-08
9.12165e-08
5.42909e-08
6.77754e-07
6.68242e-07
6.72908e-07
6.69154e-07
6.6823e-07
6.72902e-07
6.77762e-07
6.70235e-07
6.47038e-07
6.60527e-07
6.37933e-07
6.60532e-07
6.70254e-07
6.37959e-07
5.42907e-08
5.14894e-08
9.12173e-08
9.12165e-08
5.42908e-08
6.77758e-07
6.72912e-07
6.69172e-07
6.68237e-07
6.6824e-07
6.7291e-07
6.77764e-07
7.0999e-08
5.42408e-08
1.01113e-07
1.01113e-07
7.09993e-08
6.51747e-07
6.68601e-07
6.79843e-07
6.61245e-07
6.61237e-07
6.51753e-07
6.79834e-07
7.0999e-08
5.42408e-08
1.01113e-07
1.01112e-07
7.09991e-08
7.09991e-08
1.01113e-07
5.42408e-08
1.01112e-07
7.09993e-08
6.51758e-07
6.68612e-07
6.79845e-07
6.61258e-07
6.61248e-07
6.51755e-07
6.79844e-07
7.09993e-08
5.42409e-08
1.01114e-07
1.01113e-07
7.09995e-08
5.42909e-08
9.12175e-08
5.14894e-08
9.12163e-08
5.4291e-08
6.7779e-07
6.68269e-07
6.69202e-07
6.72938e-07
6.68267e-07
6.72933e-07
6.77792e-07
6.70307e-07
6.46996e-07
6.60549e-07
6.37871e-07
6.6055e-07
6.70298e-07
6.37852e-07
6.77785e-07
6.72924e-07
6.6918e-07
6.68258e-07
6.68252e-07
6.72924e-07
6.77782e-07
5.42908e-08
5.14895e-08
9.12181e-08
9.12171e-08
5.42909e-08
6.38897e-07
6.66269e-07
6.60957e-07
6.70395e-07
6.58995e-07
6.68781e-07
6.404e-07
6.52957e-07
6.90281e-07
6.65142e-07
6.73842e-07
6.65834e-07
6.52606e-07
6.90604e-07
6.38221e-07
6.65551e-07
6.57629e-07
6.67632e-07
6.5832e-07
6.68044e-07
6.37832e-07
6.5358e-07
6.68521e-07
6.74483e-07
6.92503e-07
6.665e-07
6.55007e-07
6.91171e-07
6.50806e-07
6.63667e-07
6.73847e-07
6.75545e-07
6.81283e-07
6.43641e-07
6.6852e-07
6.80683e-07
7.31067e-07
6.91574e-07
6.79694e-07
6.82518e-07
7.21624e-07
6.87455e-07
6.66044e-07
6.71364e-07
6.95692e-07
6.85333e-07
6.58198e-07
6.76839e-07
7.04253e-07
6.61563e-07
6.79363e-07
6.86656e-07
6.69532e-07
6.91754e-07
6.72833e-07
6.58795e-07
5.43077e-08
5.15006e-08
9.13789e-08
9.13279e-08
5.4304e-08
6.79228e-07
6.6924e-07
6.73765e-07
6.70808e-07
6.69955e-07
6.7435e-07
6.78583e-07
6.72866e-07
6.50665e-07
6.66712e-07
6.44665e-07
6.6388e-07
6.76695e-07
6.40426e-07
5.42955e-08
5.14939e-08
9.12388e-08
9.12445e-08
5.42949e-08
6.80534e-07
6.77223e-07
6.71688e-07
6.72867e-07
6.71126e-07
6.75428e-07
6.83302e-07
7.10256e-08
5.4258e-08
1.01286e-07
1.01248e-07
7.10116e-08
6.54351e-07
6.71012e-07
6.84708e-07
6.64657e-07
6.63581e-07
6.56567e-07
6.8229e-07
7.10078e-08
5.4246e-08
1.01139e-07
1.01145e-07
7.10065e-08
7.10036e-08
1.01341e-07
5.42238e-08
1.01564e-07
7.09779e-08
6.63442e-07
6.70598e-07
6.8943e-07
6.65894e-07
6.64049e-07
6.60727e-07
6.90835e-07
5.43181e-08
9.14155e-08
5.15455e-08
9.16755e-08
5.42808e-08
6.58488e-07
6.52599e-07
6.61924e-07
6.51444e-07
6.58717e-07
6.44607e-07
6.62736e-07
6.87111e-07
6.67962e-07
6.70673e-07
6.58734e-07
6.67098e-07
6.86048e-07
7.02016e-07
6.85628e-07
6.79352e-07
6.68721e-07
6.74409e-07
6.70078e-07
6.76994e-07
6.87797e-07
5.42907e-08
5.14893e-08
9.12172e-08
9.12163e-08
5.42908e-08
6.77775e-07
6.68233e-07
6.72912e-07
6.69167e-07
6.68246e-07
6.77766e-07
6.72912e-07
6.70312e-07
6.46974e-07
6.60538e-07
6.37902e-07
6.60533e-07
6.70269e-07
6.37829e-07
5.42895e-08
5.14882e-08
9.12173e-08
9.12149e-08
5.42908e-08
6.77779e-07
6.72912e-07
6.69161e-07
6.68248e-07
6.68239e-07
6.72911e-07
6.7777e-07
7.0999e-08
5.42408e-08
1.01113e-07
1.01112e-07
7.09991e-08
6.5174e-07
6.6858e-07
6.79834e-07
6.61244e-07
6.61219e-07
6.79828e-07
6.51744e-07
7.09979e-08
5.42396e-08
1.01113e-07
1.01111e-07
7.09991e-08
1.01112e-07
7.0998e-08
6.61235e-07
9.12157e-08
5.42896e-08
6.72912e-07
6.68233e-07
6.37429e-07
6.64314e-07
6.57011e-07
6.67129e-07
6.57152e-07
6.3737e-07
6.6719e-07
6.52304e-07
6.90141e-07
6.65011e-07
6.7279e-07
6.64704e-07
6.52437e-07
6.9003e-07
6.37511e-07
6.6437e-07
6.57498e-07
6.67444e-07
6.57195e-07
6.37651e-07
6.67284e-07
6.52238e-07
6.64525e-07
6.72764e-07
6.89932e-07
6.64669e-07
6.89977e-07
6.52192e-07
6.57019e-07
6.67108e-07
6.37348e-07
6.64532e-07
6.89915e-07
6.52167e-07
5.42911e-08
5.14898e-08
9.12208e-08
9.12199e-08
5.42915e-08
6.78061e-07
6.68876e-07
6.73433e-07
6.69636e-07
6.68625e-07
6.78255e-07
6.73234e-07
6.70418e-07
6.47247e-07
6.60693e-07
6.37978e-07
6.60784e-07
6.70374e-07
6.38033e-07
5.42931e-08
5.14917e-08
9.12333e-08
9.1229e-08
5.42937e-08
6.77958e-07
6.73056e-07
6.69487e-07
6.68416e-07
6.68501e-07
6.73124e-07
6.77898e-07
7.10003e-08
5.42414e-08
1.01117e-07
1.01117e-07
7.10001e-08
6.51986e-07
6.68879e-07
6.79984e-07
6.61475e-07
6.61529e-07
6.80043e-07
6.51917e-07
7.10033e-08
5.42433e-08
1.01133e-07
1.01128e-07
7.10054e-08
7.1e-08
5.42414e-08
1.01117e-07
1.01116e-07
7.10004e-08
6.51832e-07
6.6871e-07
6.79937e-07
6.61393e-07
6.6135e-07
6.7991e-07
6.51862e-07
7.09994e-08
5.42411e-08
1.01115e-07
1.01113e-07
7.09995e-08
5.42911e-08
5.14898e-08
9.12199e-08
9.12189e-08
5.42914e-08
6.77807e-07
6.68284e-07
6.72949e-07
6.69242e-07
6.68295e-07
6.778e-07
6.72959e-07
6.7032e-07
6.47078e-07
6.60649e-07
6.37955e-07
6.60612e-07
6.70343e-07
6.37937e-07
5.42909e-08
5.14896e-08
9.12181e-08
9.12169e-08
5.4291e-08
6.77829e-07
6.73007e-07
6.69279e-07
6.68359e-07
6.68323e-07
6.72982e-07
6.77852e-07
6.45419e-07
6.47645e-07
6.60857e-07
6.56735e-07
6.34005e-07
6.49794e-07
6.56827e-07
6.449e-07
6.60232e-07
6.4926e-07
6.58184e-07
6.2885e-07
6.55054e-07
6.56187e-07
6.59858e-07
6.62269e-07
6.72517e-07
6.62267e-07
6.59848e-07
6.62887e-07
6.62934e-07
6.7252e-07
6.62288e-07
6.59867e-07
6.62274e-07
6.59857e-07
6.62908e-07
6.62946e-07
6.72513e-07
6.5986e-07
6.62268e-07
6.59848e-07
6.62256e-07
6.62886e-07
6.62921e-07
6.72514e-07
6.59855e-07
6.62262e-07
6.59843e-07
6.6225e-07
6.62875e-07
6.62921e-07
6.66507e-07
6.68795e-07
6.85087e-07
6.69643e-07
6.67065e-07
6.64803e-07
6.67083e-07
6.75126e-07
6.44239e-07
6.4342e-07
6.57481e-07
6.54234e-07
6.58649e-07
6.51879e-07
7.28085e-08
7.34499e-08
7.30182e-08
7.30681e-08
7.30924e-08
7.41709e-08
7.30693e-08
7.41735e-08
7.27236e-08
7.27601e-08
7.26802e-08
7.2845e-08
7.31296e-08
7.43038e-08
7.32977e-08
7.41869e-08
6.74056e-07
6.63656e-07
6.66031e-07
6.61951e-07
6.64368e-07
6.65073e-07
6.66058e-07
6.73353e-07
6.60562e-07
6.62995e-07
6.61037e-07
6.63468e-07
6.64301e-07
6.63869e-07
6.5985e-07
6.62259e-07
6.62906e-07
6.72513e-07
6.59857e-07
6.62263e-07
6.59844e-07
6.6225e-07
6.62872e-07
6.62926e-07
6.72514e-07
6.59855e-07
6.62262e-07
6.59847e-07
6.62252e-07
6.62881e-07
6.62913e-07
6.72549e-07
6.59934e-07
6.62357e-07
6.62319e-07
6.59899e-07
6.62978e-07
6.63058e-07
6.72537e-07
6.62295e-07
6.59875e-07
6.62304e-07
6.59883e-07
6.62945e-07
6.62969e-07
6.72633e-07
6.59978e-07
6.62397e-07
6.60028e-07
6.6245e-07
6.63164e-07
6.63128e-07
6.72699e-07
6.60287e-07
6.62715e-07
6.60125e-07
6.6255e-07
6.63306e-07
6.63541e-07
7.23967e-08
4.27322e-08
8.21319e-08
1.00902e-07
7.23975e-08
8.21312e-08
4.27311e-08
5.42894e-08
5.14882e-08
9.12172e-08
9.12149e-08
5.42907e-08
7.23981e-08
1.00904e-07
8.21337e-08
4.27334e-08
8.21323e-08
4.27325e-08
7.23988e-08
8.43836e-08
7.42222e-08
7.42227e-08
7.13892e-08
7.12632e-08
7.13864e-08
8.43871e-08
7.42325e-08
7.42313e-08
7.13678e-08
7.12997e-08
7.13618e-08
7.23981e-08
4.27323e-08
8.21322e-08
1.00904e-07
7.23981e-08
4.27325e-08
8.21321e-08
5.42906e-08
5.14894e-08
9.12167e-08
9.12164e-08
5.42907e-08
7.23983e-08
1.00905e-07
4.27333e-08
8.21336e-08
4.2733e-08
8.21319e-08
7.23985e-08
8.43794e-08
7.42227e-08
7.42162e-08
7.13803e-08
7.12942e-08
7.13671e-08
8.43834e-08
7.42306e-08
7.42232e-08
7.13745e-08
7.13142e-08
7.13521e-08
7.09974e-08
5.42396e-08
1.01113e-07
1.01111e-07
7.09991e-08
4.25154e-08
4.25155e-08
4.25145e-08
4.25154e-08
3.60313e-08
5.87648e-08
7.73534e-08
9.63913e-08
9.63906e-08
5.87648e-08
3.60313e-08
8.15297e-08
7.45386e-08
8.1529e-08
3.60313e-08
7.73534e-08
9.63912e-08
5.87649e-08
9.63906e-08
5.87648e-08
3.60313e-08
8.15297e-08
7.45386e-08
8.1529e-08
7.0999e-08
5.42408e-08
1.01113e-07
1.01112e-07
7.09991e-08
4.25154e-08
4.25154e-08
4.25154e-08
4.25154e-08
3.60305e-08
5.87649e-08
7.73526e-08
9.63903e-08
5.87635e-08
3.60313e-08
9.63896e-08
8.15298e-08
7.45387e-08
8.15291e-08
3.60313e-08
7.73535e-08
5.8765e-08
9.63914e-08
5.87648e-08
9.63907e-08
3.60314e-08
8.15292e-08
7.4537e-08
8.15277e-08
4.25155e-08
4.25155e-08
7.09991e-08
5.42408e-08
1.01112e-07
1.01113e-07
7.09988e-08
4.25155e-08
4.25155e-08
3.60314e-08
5.87642e-08
9.63905e-08
7.73541e-08
9.63911e-08
3.60306e-08
5.8765e-08
7.4539e-08
8.15301e-08
8.15294e-08
8.1529e-08
7.4539e-08
8.15293e-08
3.60314e-08
7.73543e-08
9.6392e-08
5.87653e-08
9.63911e-08
5.87651e-08
3.60315e-08
3.60313e-08
7.73538e-08
5.87647e-08
9.63906e-08
5.87649e-08
9.63909e-08
3.60314e-08
8.15298e-08
7.45388e-08
8.15292e-08
3.60313e-08
7.73534e-08
5.8765e-08
9.63915e-08
3.60314e-08
5.87649e-08
9.63909e-08
8.15289e-08
7.45388e-08
8.15292e-08
7.09992e-08
5.42409e-08
1.01113e-07
1.01113e-07
7.09981e-08
4.25156e-08
4.25157e-08
4.25155e-08
4.25146e-08
7.23994e-08
8.21348e-08
1.00909e-07
4.27348e-08
8.21348e-08
7.23991e-08
4.27348e-08
5.42909e-08
5.14894e-08
9.1217e-08
9.12172e-08
5.4291e-08
7.23993e-08
1.00909e-07
8.21354e-08
4.27342e-08
7.23992e-08
8.21342e-08
4.27347e-08
8.43918e-08
7.42392e-08
7.42342e-08
7.13955e-08
7.1266e-08
7.13767e-08
8.43911e-08
7.42375e-08
7.42334e-08
7.13966e-08
7.12639e-08
7.13769e-08
7.23992e-08
8.21351e-08
4.27338e-08
1.00908e-07
7.23983e-08
8.21345e-08
4.27344e-08
5.42908e-08
5.14894e-08
9.1216e-08
9.1217e-08
5.42897e-08
7.23992e-08
1.00908e-07
8.21351e-08
4.27342e-08
8.21345e-08
4.27341e-08
7.23993e-08
8.43949e-08
7.42387e-08
7.42397e-08
7.13861e-08
7.12289e-08
7.14004e-08
8.43951e-08
7.42367e-08
7.42424e-08
7.13863e-08
7.12441e-08
7.13875e-08
7.24376e-08
4.27438e-08
8.22384e-08
1.01025e-07
7.24241e-08
8.23071e-08
4.27511e-08
5.43053e-08
5.15012e-08
9.12818e-08
9.13066e-08
5.4303e-08
7.24532e-08
1.01089e-07
8.25232e-08
4.28044e-08
8.23615e-08
4.27675e-08
7.24786e-08
8.44094e-08
7.42638e-08
7.4249e-08
7.13819e-08
7.12743e-08
7.13872e-08
8.44065e-08
7.42388e-08
7.4244e-08
7.14217e-08
7.12451e-08
7.14054e-08
7.24121e-08
4.27417e-08
8.22205e-08
1.00935e-07
7.2418e-08
4.27396e-08
8.21872e-08
5.42975e-08
5.14957e-08
9.12678e-08
9.12516e-08
5.42999e-08
7.24088e-08
1.00932e-07
4.27373e-08
8.21652e-08
4.27376e-08
8.21807e-08
7.24066e-08
8.44882e-08
7.42625e-08
7.43176e-08
7.19915e-08
7.14781e-08
7.15638e-08
8.45704e-08
7.47816e-08
7.44268e-08
7.14136e-08
7.13996e-08
7.14533e-08
7.10248e-08
5.42571e-08
1.01192e-07
1.01213e-07
7.10205e-08
4.25236e-08
4.25169e-08
4.25256e-08
4.25254e-08
3.60363e-08
5.87796e-08
7.7397e-08
9.64279e-08
9.64211e-08
5.87767e-08
3.6037e-08
8.15411e-08
7.45498e-08
8.15414e-08
3.60344e-08
7.73849e-08
9.64103e-08
5.87722e-08
9.64114e-08
5.8773e-08
3.60344e-08
8.15534e-08
7.45548e-08
8.15483e-08
7.10115e-08
5.42486e-08
1.01171e-07
1.01157e-07
7.10155e-08
4.25198e-08
4.25195e-08
4.25219e-08
4.25232e-08
3.6037e-08
5.87836e-08
7.74463e-08
9.64423e-08
5.87859e-08
3.60374e-08
9.64545e-08
8.1666e-08
7.46245e-08
8.16173e-08
3.60357e-08
7.74835e-08
5.87753e-08
9.65445e-08
5.87845e-08
9.64878e-08
3.60372e-08
8.15654e-08
7.45872e-08
8.15821e-08
7.47823e-08
7.42104e-08
7.3554e-08
7.57124e-08
7.57572e-08
7.69513e-08
7.84235e-08
7.5055e-08
7.67592e-08
8.16227e-08
7.80523e-08
8.01057e-08
7.4188e-08
7.30465e-08
7.322e-08
7.38333e-08
7.43683e-08
7.40738e-08
7.34689e-08
7.52701e-08
7.51785e-08
7.69699e-08
7.72303e-08
7.54025e-08
7.57674e-08
7.99681e-08
7.70813e-08
7.82238e-08
7.4161e-08
7.44126e-08
7.35317e-08
7.47952e-08
7.88627e-08
7.5128e-08
7.70039e-08
7.66774e-08
8.63894e-08
7.72552e-08
9.51455e-08
1.00257e-07
8.18953e-08
8.47978e-08
7.98315e-08
8.49135e-08
8.19757e-08
8.20979e-08
7.89075e-08
8.62608e-08
4.25851e-08
4.25134e-08
7.12739e-08
5.4297e-08
1.03008e-07
1.02135e-07
7.16187e-08
4.28987e-08
4.36305e-08
6.884e-08
7.3581e-08
6.79324e-08
1.0072e-07
9.63894e-08
4.20396e-08
8.20996e-08
9.53838e-08
7.88181e-08
8.29288e-08
7.77484e-08
1.04806e-07
8.58724e-08
8.59245e-08
8.78353e-08
5.48371e-08
8.22988e-08
9.51985e-08
9.37785e-08
6.81126e-08
3.6645e-08
7.84657e-08
6.10397e-08
9.89337e-08
5.94301e-08
9.79272e-08
3.78843e-08
8.17541e-08
7.50755e-08
8.19536e-08
3.61867e-08
7.79461e-08
5.87701e-08
9.66947e-08
3.6059e-08
5.88769e-08
9.70777e-08
8.20568e-08
7.55819e-08
8.23623e-08
8.22694e-08
7.60776e-08
1.06277e-07
9.88303e-08
6.65523e-08
7.18772e-08
7.45252e-08
1.01069e-07
9.28911e-08
4.87544e-08
6.65489e-08
7.28506e-08
8.3065e-08
1.02514e-07
4.35798e-08
8.32871e-08
7.30872e-08
4.32512e-08
5.44565e-08
5.18119e-08
9.37312e-08
9.22925e-08
5.43846e-08
7.25847e-08
1.02034e-07
8.26739e-08
4.28679e-08
7.24915e-08
8.29997e-08
4.2999e-08
8.96346e-08
9.31203e-08
6.97198e-08
9.28873e-08
6.62478e-08
8.64635e-08
7.97942e-08
8.05941e-08
8.59418e-08
8.55997e-08
8.48843e-08
8.17831e-08
1.00226e-07
1.06524e-07
4.66303e-08
1.04234e-07
9.07187e-08
1.01896e-07
8.48262e-08
9.9013e-08
8.28704e-08
4.74486e-08
7.38085e-08
7.72807e-08
7.50736e-08
7.75657e-08
7.67118e-08
9.77105e-08
9.27328e-08
7.77125e-08
5.4627e-08
6.80752e-08
8.56827e-08
9.5456e-08
9.50419e-08
8.61311e-08
7.83264e-08
7.84012e-08
7.28817e-08
7.41606e-08
7.5039e-08
8.57612e-08
7.54196e-08
7.66591e-08
9.19048e-08
7.91674e-08
8.00001e-08
7.23993e-08
4.27355e-08
8.21352e-08
1.00909e-07
7.23997e-08
8.21348e-08
4.27348e-08
5.42908e-08
5.14893e-08
9.12166e-08
9.12164e-08
5.42909e-08
7.23988e-08
1.00907e-07
8.21339e-08
4.27333e-08
8.21329e-08
4.27338e-08
7.23986e-08
8.43927e-08
7.42468e-08
7.42381e-08
7.1364e-08
7.12892e-08
7.13621e-08
8.43859e-08
7.42251e-08
7.42252e-08
7.14048e-08
7.12432e-08
7.13898e-08
7.23986e-08
4.27354e-08
1.00907e-07
8.21355e-08
7.23995e-08
4.27344e-08
8.2133e-08
5.42907e-08
5.14893e-08
9.12176e-08
9.12159e-08
5.42909e-08
7.23975e-08
1.00905e-07
4.27331e-08
8.21336e-08
7.23986e-08
4.27325e-08
8.21326e-08
8.43958e-08
7.42485e-08
7.42437e-08
7.1355e-08
7.12732e-08
7.13734e-08
8.43894e-08
7.42227e-08
7.42305e-08
7.14066e-08
7.12251e-08
7.14015e-08
7.0999e-08
5.42408e-08
1.01112e-07
1.01112e-07
7.09991e-08
4.25154e-08
4.25154e-08
4.25154e-08
4.25154e-08
3.60313e-08
5.87649e-08
7.73524e-08
9.63912e-08
9.63894e-08
5.87644e-08
3.60313e-08
8.15296e-08
7.45373e-08
8.15277e-08
3.60305e-08
7.73529e-08
9.63912e-08
5.87649e-08
9.63894e-08
3.60313e-08
5.87638e-08
8.15296e-08
7.45382e-08
8.15285e-08
7.09985e-08
5.42408e-08
1.01113e-07
1.01112e-07
7.09991e-08
4.25145e-08
4.25154e-08
4.25154e-08
4.25154e-08
3.60313e-08
5.87649e-08
9.63912e-08
7.73532e-08
5.87648e-08
3.60313e-08
9.63904e-08
7.45386e-08
8.15297e-08
8.1529e-08
8.15296e-08
7.45386e-08
8.1529e-08
3.60313e-08
7.73533e-08
5.87649e-08
9.63911e-08
5.87648e-08
9.63904e-08
3.60313e-08
4.25145e-08
8.15283e-08
5.87639e-08
9.639e-08
3.60305e-08
8.21338e-08
4.27326e-08
7.23977e-08
7.13716e-08
7.4228e-08
7.2399e-08
4.27345e-08
8.21439e-08
1.00909e-07
7.2401e-08
8.21403e-08
4.27334e-08
5.42909e-08
5.14895e-08
9.12236e-08
9.12211e-08
5.42921e-08
7.24004e-08
1.0091e-07
8.214e-08
4.27344e-08
8.21394e-08
4.27343e-08
7.24002e-08
8.43918e-08
7.42285e-08
7.42293e-08
7.1404e-08
7.12563e-08
7.13916e-08
8.43955e-08
7.42452e-08
7.4238e-08
7.13705e-08
7.12945e-08
7.13668e-08
7.24021e-08
4.27344e-08
1.00914e-07
8.21454e-08
7.24013e-08
4.27347e-08
8.2149e-08
5.42926e-08
5.14913e-08
9.12257e-08
9.12266e-08
5.42923e-08
7.24032e-08
1.00916e-07
4.27367e-08
8.21622e-08
7.24051e-08
4.27357e-08
8.21515e-08
8.43902e-08
7.42352e-08
7.42317e-08
7.13967e-08
7.12699e-08
7.13779e-08
8.43916e-08
7.42377e-08
7.42333e-08
7.13923e-08
7.12721e-08
7.13764e-08
7.10002e-08
5.42412e-08
1.01121e-07
1.01118e-07
7.10017e-08