/*--------------------------------*- C++ -*----------------------------------*\
| =========                 |                                                 |
| \\      /  F ield         | OpenFOAM: The Open Source CFD Toolbox           |
|  \\    /   O peration     | Version:  2012                                  |
|   \\  /    A nd           | Website:  www.openfoam.com                      |
|    \\/     M anipulation  |                                                 |
\*---------------------------------------------------------------------------*/
FoamFile
{
    version     2.0;
    format      ascii;
    class       volScalarField;
    location    "0.107/fluid";
    object      p;
}
// * * * * * * * * * * * * * * * * * * * * * * * * * * * * * * * * * * * * * //

dimensions      [0 2 -2 0 0 0 0];


internalField   nonuniform List<scalar> 
16421
(
0.0497297
0.0146033
0.00415492
0.000899237
5.56161e-05
-3.52188e-05
8.66234e-05
0.000229735
0.000330474
0.000361717
0.000331044
0.000247161
0.000124548
-0.0457485
0.0106922
0.00486685
0.000987518
-0.000310706
-0.000451839
-0.000253188
-3.66883e-06
0.000193893
0.000316852
0.000360777
0.000333695
0.000253511
0.000128872
-0.0237125
-0.00820677
-0.00530623
-0.00357633
-0.00233063
-0.00134641
-0.000644802
-0.000174926
0.000125825
0.000290023
0.000352333
0.000336185
0.000259901
0.000133942
-0.00191986
-0.0111003
-0.00981062
-0.00633616
-0.00373862
-0.00202483
-0.000964426
-0.000322903
6.13552e-05
0.00026147
0.000336466
0.000326072
0.000254033
0.000132582
0.176813
0.0457165
0.0143401
0.00386021
0.000798921
0.000114155
5.03317e-05
0.000163679
0.000289984
0.000370744
0.000390695
0.000350953
0.000260636
0.000129538
-0.119092
-0.0213314
0.00904742
0.00522025
0.000981904
-0.000374343
-0.000384719
-0.000161879
7.41944e-05
0.000254765
0.000359693
0.000389611
0.000354523
0.000265331
0.000133805
0.00296079
-0.00788702
-0.00841713
-0.00510318
-0.0035198
-0.00235354
-0.00126225
-0.000542099
-8.75588e-05
0.000189348
0.000335854
0.000383168
0.000356031
0.000272251
0.000139804
-0.125958
-0.02613
-0.0179139
-0.011121
-0.00657518
-0.00376451
-0.00191819
-0.000847859
-0.000227405
0.000126615
0.000307167
0.000368302
0.000347105
0.000266975
0.000137881
0.176266
0.0379319
0.0107824
0.00299465
0.000923121
0.00037358
0.000300204
0.000363627
0.000438925
0.000474841
0.000462302
0.000397941
0.00028963
0.00014372
-0.107672
-0.0289121
0.00190831
0.00209793
9.87484e-05
-0.000239022
-9.57474e-05
0.000105702
0.000284217
0.000408094
0.00046712
0.000462837
0.000402901
0.000294767
0.000148869
-0.015589
-0.036722
-0.0201003
-0.00892811
-0.00443514
-0.00219059
-0.000918118
-0.000240935
0.000139945
0.000351227
0.000447806
0.000459345
0.000406928
0.000303653
0.000154809
-0.171916
-0.10467
-0.0378953
-0.0159712
-0.00745599
-0.0034993
-0.00151133
-0.000508996
2.06114e-05
0.000299127
0.000424746
0.000447981
0.000400132
0.000299602
0.000153238
-0.0330886
0.106296
-0.316847
-0.0763363
0.0829611
-0.0548059
0.0249817
0.136849
0.0354293
-0.0243438
-0.00372701
-0.185047
-0.05208
-0.225778
-0.0821773
-0.144327
-0.0551093
-0.0633626
-0.0235804
-0.125904
-0.0471646
-0.195771
-0.0642273
0.00574713
-0.136403
-0.0749759
0.173213
-0.208672
-0.0206106
0.153751
-0.214018
-0.0419526
-0.0121523
-0.164196
-0.137315
0.179094
-0.188875
-0.0186417
-0.134734
-0.520982
-0.754614
-0.523307
0.0445134
0.244151
0.179653
0.167757
-0.00728243
0.190751
0.10085
-0.374361
0.709793
-0.305444
-0.367554
-0.221439
0.78484
-0.289463
0.789626
-0.173617
-0.296723
-0.175144
0.784525
0.760834
-0.192621
-0.0267172
-0.00985273
-0.0456883
-0.0343106
-0.271231
-0.447442
-0.72334
-0.276802
-0.689668
-0.412434
0.00235476
-0.0983249
-0.0284671
-0.0415819
-0.0631552
-0.16707
-0.125301
-0.0682306
-0.135734
-0.121693
-0.0197888
-0.106714
-0.0558581
-0.225225
-0.381567
-0.658147
-0.235692
-0.639543
-0.360026
-0.0384741
-0.155124
-0.116866
-0.187093
-0.206495
-0.24125
-0.048241
-0.385484
0.0606222
0.212793
-0.0515655
-0.327238
-0.351669
0.954219
-0.341483
-0.628827
-0.449399
-0.304395
-0.138827
0.163321
-0.0477724
-0.0991551
-0.321595
-0.378705
-0.454903
-0.739625
-0.739453
-0.313625
-0.526967
-0.32897
0.789557
-0.177713
-0.205991
-0.308296
0.789286
-0.261328
0.78209
-0.225003
-0.170964
-0.28591
0.782263
-0.0336743
0.0543058
-0.240509
-0.146958
-0.0888239
-0.0387131
0.0404947
-0.159135
0.0858778
-0.253826
-0.384462
-0.661576
-0.683718
-0.245774
-0.408437
-0.020065
-0.0119259
-0.104723
-0.151444
-0.105161
-0.137229
-0.17767
-0.120256
-0.0744425
-0.188879
-0.154083
-0.10848
-0.0890395
-0.217762
-0.636385
-0.357135
-0.193049
-0.163088
-0.174276
-0.245293
-0.206411
-0.214931
-0.25152
-0.178301
-0.259926
-0.219383
0.229271
0.298474
0.0274781
0.138506
0.0815636
0.207996
0.372538
0.0163937
-0.361884
-0.0687509
-0.295635
0.00868044
-0.0162051
-0.00487297
-0.0460467
-0.0144192
-0.038341
-0.0264338
0.112827
-0.175379
0.111972
-0.172678
-0.00992438
0.00393266
-0.00954596
-0.0347773
-0.029882
-0.0479458
-0.0342021
-0.0568551
-0.252638
0.0257647
-0.351886
0.0618423
0.00889969
0.0221781
0.158109
0.0397236
-0.015028
-0.000635496
-0.0413904
-0.00428025
0.00336251
-0.130434
-0.078925
-0.0564008
-0.0627924
0.0526781
0.00680275
0.014688
-0.0532503
-0.0226386
-0.0333561
-0.114204
0.148063
0.0733617
0.128162
-0.228784
-0.363509
-0.11885
-0.449437
-0.23951
0.158825
-0.28429
-0.0116631
0.0556444
-0.292765
-0.335781
-0.305327
-0.21653
-0.579465
-0.268475
-0.575998
-0.126754
-0.41732
-0.0111825
0.0662924
0.0114762
0.0576965
-0.0615506
-0.00600843
0.0723922
-0.23506
-0.128927
-0.0458606
0.0772958
-0.248959
0.118378
0.0177959
0.106297
-0.177009
0.110365
-0.185337
-0.217628
-0.0868675
0.0435762
0.14544
0.136401
-0.206015
0.030555
-0.193585
0.0465333
-0.0440688
0.149696
-0.195231
0.146851
0.0523623
0.0877537
-0.239025
0.0564214
-0.20021
-0.179396
-0.0588632
0.0760159
0.134546
0.13936
-0.18066
0.0446057
-0.229512
-0.263105
0.0651577
0.130973
-0.195015
0.0266564
-0.243292
-0.354412
-0.541937
-0.161302
-0.246276
-0.264401
-0.527574
-0.202352
-0.181353
0.177397
-0.215103
0.049424
0.0685504
-0.194707
-0.230381
-0.269523
-0.199313
-0.496511
-0.172883
-0.508634
-0.156868
-0.30945
-0.170202
-0.207009
0.0723368
0.171156
-0.169073
0.0657473
-0.191591
-0.280728
-0.48644
-0.148393
-0.193853
-0.268653
-0.474877
-0.153872
-0.154442
0.183339
0.0782506
-0.185029
-0.260046
-0.178319
-0.467853
-0.138586
-0.8451
-0.495894
-0.859374
-1.07363
-0.793017
-0.657402
-1.00531
-0.677989
-0.719768
-0.681497
-0.835625
-0.991352
-0.429421
-0.940944
-0.599975
-0.730857
-0.847866
-0.588386
-0.871881
-0.629691
0.183034
0.0331347
0.101986
0.141975
0.069773
0.160311
0.151761
0.192263
0.418673
0.709165
0.174902
0.405827
0.0450795
-0.210656
-0.258117
0.0859878
0.272516
0.484505
0.747732
0.471447
0.313679
0.326745
0.517399
0.78736
0.326995
0.518063
0.112622
-0.176534
-0.172832
0.10904
0.325944
0.517846
0.787099
0.515627
0.325073
-0.128448
0.0446838
-0.0783887
-0.114261
0.19001
0.356879
0.774832
0.208036
0.362004
-0.13193
-0.393869
-0.186916
-0.302644
-0.359005
-0.167996
-0.0462674
0.791951
0.329553
-0.509297
-0.733474
-0.428827
-0.552479
-0.718832
-0.695355
-0.593604
-0.705662
-0.729204
-0.579787
-0.694135
-0.570887
-0.704857
-0.584921
-0.674794
-0.507646
-0.696814
-0.426284
-0.714397
-0.489701
-0.19991
-0.149235
-0.125267
-0.233488
-0.218565
-0.256734
-0.196484
-0.262625
-0.187089
-0.0673551
-0.161981
-0.086539
-0.228904
-0.280683
-0.266345
-0.259606
-0.449803
-0.654947
-0.371908
-0.464438
-0.64392
-0.630452
-0.536285
-0.649935
-0.64285
-0.528368
-0.629982
-0.519567
-0.647764
-0.527399
-0.617884
-0.452415
-0.628919
-0.369625
-0.640034
-0.43833
-0.431188
-0.411381
-0.376708
-0.482261
-0.431438
-0.354891
-0.382404
-0.388817
-0.414163
-0.30405
-0.363366
-0.339391
-0.447745
-0.435832
-0.399966
-0.497492
-0.211324
-0.392502
-0.712772
0.0454934
-0.131918
0.0193569
-0.331752
0.0578578
-0.274033
-0.22607
-0.410423
-0.714596
-0.329356
-0.33503
-0.657629
-0.499174
-0.487366
-0.0101962
0.343648
0.868637
0.0360734
0.216268
-0.29946
-0.357694
0.0214031
-0.42739
-0.18475
-0.238471
-0.0832907
0.00577174
-0.342949
-0.29143
-0.0266003
-0.103804
-0.287827
-0.363709
-0.0413101
-0.334314
-0.219708
-0.0273421
-0.541296
-0.744668
-0.486875
-0.53729
-0.77965
-0.756685
-0.773356
-0.614851
-0.734115
-0.643954
-0.760223
-0.649885
-0.763423
-0.835074
-0.633158
-0.557495
-0.823607
-0.487092
-0.659557
-0.789482
0.102045
-0.203177
0.0971656
-0.188913
0.326338
0.516303
0.791147
0.325541
0.516904
0.317886
0.507738
0.789412
0.322952
0.506404
0.0962876
-0.178382
0.106379
-0.193441
0.294946
0.510472
0.775896
0.296054
0.493375
0.314642
0.506453
0.78021
0.312678
0.521245
0.00422252
0.0748238
-0.0232727
0.0672732
0.118333
0.0544731
0.144912
0.0414597
-0.123826
-0.00856673
-0.121159
0.00944234
-0.177582
-0.257914
-0.191757
-0.261397
-0.167971
-0.284577
-0.167697
-0.26329
-0.139769
-0.0558205
-0.156709
-0.0523697
0.0584689
0.0397998
0.0341434
0.0707196
-0.0120509
-0.0118095
-0.00877787
-0.0153697
-0.47615
-0.66033
-0.394407
-0.461793
-0.672145
-0.656393
-0.671004
-0.542202
-0.643429
-0.551147
-0.65696
-0.559941
-0.673034
-0.673613
-0.550037
-0.474012
-0.689235
-0.396623
-0.494299
-0.675973
-0.0681081
-0.095295
-0.0727897
-0.0877217
-0.0259625
-0.0129118
-0.0286943
-0.0126615
-0.284968
-0.171422
-0.24432
-0.201354
-0.322745
-0.345166
-0.36765
-0.31632
-0.308169
-0.2859
-0.270019
-0.308002
-0.301051
-0.2725
-0.348188
-0.239299
-0.113875
-0.107517
-0.093171
-0.133161
-0.145274
-0.197995
-0.16934
-0.168689
-0.515361
-0.627394
-0.617332
-0.62382
-0.346094
-0.441055
-0.229904
-0.308457
-0.280555
-0.250816
-0.20477
-0.220096
-0.249114
-0.182616
-0.442751
-0.49762
-0.472103
-0.446504
-0.512587
-0.279206
-0.330316
-0.264328
-0.352321
0.0723639
0.145215
-0.0393235
0.0766772
0.228774
0.0211539
0.0201733
0.0106852
0.0241828
0.0103128
0.000380788
0.00138474
-0.31765
-0.315619
-0.151096
-0.153046
-0.278771
-0.238535
0.140873
0.0285298
0.0710146
-0.361834
-0.311605
-0.212524
-0.151075
-0.0310152
0.0649095
-0.108159
0.0341153
-0.133621
0.0349275
0.17592
0.0647821
0.0419992
0.0307774
0.110073
0.0575823
-0.157186
-0.153714
-0.201413
-0.229908
-0.884986
-0.650583
-0.540597
-0.866192
-1.02198
-0.674014
-0.815621
0.212859
0.246436
0.0932354
0.238912
0.208562
0.194935
0.282726
-0.192992
0.0678799
-0.25839
0.628008
-0.204489
-0.268055
0.107527
-0.190305
-0.182508
-0.128108
-0.192251
0.779639
0.159273
-0.190639
-0.132953
0.142977
-0.0812856
0.186513
-0.15281
0.790807
-0.147731
-0.0934809
0.187031
-0.151484
-0.155118
-0.078724
-0.153853
0.787351
0.18519
-0.144754
-0.0925356
0.188131
-0.241998
0.123395
-0.213744
0.766436
-0.235147
-0.199362
0.0944576
-0.682338
-0.28512
-0.445556
-0.740702
-0.743861
-0.459495
-0.668359
-0.692255
-0.276903
-0.786622
-0.455591
-0.723074
-0.751336
-0.448751
-0.621961
-0.230311
-0.3928
-0.669628
-0.676011
-0.398322
-0.612244
-0.624908
-0.232572
-0.689054
-0.404343
-0.634892
-0.681012
-0.399921
-0.484454
-0.0606373
-0.465318
1.34686
-0.362749
-0.54085
-0.117256
-0.075546
-0.0777944
-0.0143256
0.0786796
0.117111
-0.0305054
0.00119721
-0.760623
-0.564943
-0.324028
-0.918311
-0.832062
-0.792501
-0.49633
-0.730669
-0.353087
-0.7954
-0.488833
-0.722044
-0.754593
-0.522268
-0.173299
-0.180522
-0.0856674
0.185352
-0.157465
0.792319
-0.151441
-0.0966864
0.183766
-0.105923
-0.183767
0.163456
0.792127
-0.176128
-0.121979
0.170784
-0.162389
-0.156007
-0.122395
0.135877
-0.213385
0.779401
-0.188482
-0.152879
0.16007
-0.0844677
-0.152353
0.186083
0.782775
-0.150894
-0.0920108
0.181127
0.141894
-0.0666138
0.175617
0.000735168
0.193797
0.113922
-0.0216455
-0.651911
-0.425207
-0.251943
-0.723845
-0.665894
-0.71023
-0.42042
-0.64785
-0.252778
-0.700955
-0.415987
-0.637667
-0.70677
-0.423215
-0.59811
-0.384712
-0.213288
-0.660011
-0.609155
-0.651994
-0.379296
0.0707432
0.109839
0.197926
0.0315743
0.281881
0.183225
0.0934275
0.0643701
0.00106303
0.101872
-0.00323494
0.101585
0.125013
-0.269696
-0.18256
-0.258433
-0.17845
-0.319986
-0.275788
-0.271061
-0.183761
-0.190881
-0.228352
-0.0975217
-0.0470077
-0.0998409
-0.0442644
-0.15045
-0.150156
-0.0969633
-0.044664
-0.0442093
-0.0971327
-0.22233
-0.144351
-0.183556
-0.17152
-0.291336
-0.34934
-0.233175
-0.215212
-0.189036
-0.28666
0.0795282
0.129074
-0.384636
-0.464825
-0.308291
-0.196558
-0.256091
-0.262161
-0.329865
-0.340413
-0.409455
-0.290629
-0.127427
-0.00376559
0.00747648
-0.00429091
-0.0206945
-0.0586705
-0.105778
0.0659562
0.0122136
0.0582521
-0.00572543
-0.0863076
0.00244199
-0.0915683
-0.158508
-0.163387
-0.10334
-0.048036
-0.100484
-0.0497225
-0.104527
-0.0556025
-0.10969
-0.0513446
0.0981743
0.0434835
0.097882
0.0236582
-0.0702257
0.0249431
-0.0713969
0.0841979
0.0294192
0.0823001
0.00704931
-0.0841674
0.0084588
-0.0857555
0.0999923
0.0474253
0.102539
0.0282892
-0.0675464
0.0264439
-0.0661669
0.107209
0.0498315
0.102029
0.0307145
-0.0596272
0.0342542
-0.0626294
-0.196582
-0.178313
-0.14555
-0.118459
-0.174425
-0.0962179
-0.141227
-0.0727734
-0.123831
-0.0849279
-0.0383389
0.132027
0.0345268
0.110215
0.0520119
0.0480532
-0.063289
0.0948042
0.0597879
0.114648
0.0406925
-0.0645069
0.026099
-0.0525081
-0.883204
-0.835512
-1.02748
-1.02199
-0.810748
-0.771234
-0.462654
-0.720778
-0.421229
-1.08622
-1.22236
-1.04036
-1.0056
-1.06592
-1.10287
-1.07864
-1.06056
-1.02155
-0.843599
-0.962141
-1.00741
-1.15809
-1.14556
-1.16315
-1.10346
-1.04508
-0.868469
-0.965886
-0.979755
-1.01966
-0.807667
-0.724649
-0.656222
-0.660604
-0.812131
-0.737632
-0.493571
-0.748341
-0.489728
-0.81422
-0.64432
-0.67389
-0.654324
-0.817637
-0.736975
-0.520308
-0.750073
-0.500094
0.14766
0.0426994
-0.0292642
0.0372413
0.024127
-0.150475
0.119319
-0.106356
-0.1465
-0.125534
-0.149317
-0.176252
0.660305
-0.197862
0.111876
-0.19352
-0.178864
0.102383
-0.126279
-0.148997
-0.150783
-0.124944
-0.196939
-0.250891
-0.137512
-0.0834874
-0.094828
-0.129221
-0.145367
-0.152895
-0.205642
-0.11827
-0.136129
0.768513
-0.214417
0.115517
-0.198454
-0.159754
0.139829
-0.0490572
-0.054459
-0.0634502
-0.0460392
-0.0675087
-0.116651
-0.0974146
-0.0850908
0.00337263
-0.0156692
-0.0111261
-0.00583866
-0.0794646
0.790571
-0.151852
0.187324
-0.145114
-0.0922622
0.188071
0.00443891
-0.0137251
-0.0106844
-0.00428673
-0.15164
-0.150079
-0.0978323
-0.0479257
-0.0456557
-0.101835
-0.097995
-0.0445276
-0.0969481
-0.0443341
-0.0798021
0.788002
-0.149764
0.188918
-0.145945
-0.0899564
0.187194
0.00405986
-0.0160249
-0.0115536
-0.00566932
0.00398977
-0.0131438
-0.00309193
-0.0108686
-0.140708
-0.127279
-0.15233
-0.120822
-0.249367
0.771034
-0.206809
0.0814243
-0.257052
-0.201009
0.106723
-0.146592
-0.17685
-0.162673
-0.152703
-0.426858
-0.376368
-0.383885
-0.232186
-0.311873
-0.275423
-0.154075
0.696429
-0.186884
0.096188
-0.205788
-0.117512
0.0612157
-0.0944278
-0.146512
-0.0854949
-0.177402
-0.718708
-0.53441
-0.566968
-0.578227
-0.705863
-0.662637
-0.42822
-0.668468
-0.420484
-0.723309
-0.539034
-0.592152
-0.588159
-0.730695
-0.658286
-0.408767
-0.646236
-0.417215
-0.942109
-0.719154
-0.810224
-0.823905
-0.941104
-1.10097
-1.12195
-0.9395
-0.71819
-0.844281
-0.838112
-0.957945
-1.10306
-1.10786
-0.937052
-0.802946
-0.680437
-0.794328
-0.94304
-1.10142
-1.57383
-1.08771
-1.10527
-1.11027
-0.932976
-0.678244
-0.790206
-0.790388
-0.921742
-0.691127
-0.556716
-0.492083
-0.549149
-0.70077
-0.63066
-0.392006
-0.623701
-0.399719
-0.687935
-0.498015
-0.544109
-0.545657
-0.681611
-0.634056
-0.406747
-0.64182
-0.402288
-0.637528
-0.458683
-0.502709
-0.505375
-0.632065
-0.586115
-0.363204
-0.58947
-0.360377
-0.639864
-0.456407
-0.511919
-0.508708
-0.644713
-0.583783
-0.353117
-0.577745
-0.358704
-0.882745
-0.636279
-0.745047
-0.747238
-0.878582
-1.04884
-1.53651
-1.05454
-1.53045
-0.88418
-0.636745
-0.754754
-0.750685
-0.88953
-1.04737
-1.52547
-1.04323
-1.52847
-0.87225
-0.742189
-0.623977
-0.737853
-0.877212
-1.0348
-1.50883
-1.51452
-1.02954
-1.03656
-1.52328
-1.04183
-1.51746
-0.870527
-0.623305
-0.732934
-0.734734
-0.865665
-0.624764
-0.499507
-0.444336
-0.496285
-0.62974
-0.56963
-0.341493
-0.563393
-0.347377
-0.622435
-0.447191
-0.4905
-0.493096
-0.616702
-0.571988
-0.351586
-0.575573
-0.34904
-0.116562
0.00556777
-0.0957905
-0.0589966
-0.151498
-0.321156
-0.317652
-0.515705
-0.144322
-0.124526
-0.0845158
-0.528574
-0.382132
-0.464594
-0.290759
-0.181093
-0.265891
-0.196707
-0.482136
0.938139
-0.374901
-0.214346
-0.350491
-0.545674
-0.21832
-0.296378
-0.274963
-0.271781
-0.237709
-0.165555
-0.138564
-0.203771
-0.347735
-0.22381
-0.479031
-0.347811
-0.419365
-0.385117
-0.529656
-0.46128
-0.355575
-0.425119
-0.178272
-0.136345
-0.396868
-0.13788
-0.0858343
-0.515846
-0.187781
-0.112029
-0.20094
-0.184353
-0.0445615
-0.219658
-0.736495
-0.51277
-0.590103
-0.57284
-0.754819
-0.675971
-0.432562
-0.67045
-0.445608
-0.734225
-0.538164
-0.589932
-0.73232
-0.580526
-0.680569
-0.461933
-0.69705
-0.451455
-1.02408
-0.737189
-0.871234
-1.03702
-0.856053
-1.18652
-1.13505
-1.0097
-0.722307
-0.850531
-0.969442
-0.846071
-1.19984
-1.21196
-1.00347
-0.816087
-0.887339
-0.926999
-1.02831
-1.13697
-1.13468
-1.00205
-0.823132
-0.968337
-1.00802
-0.978534
-1.14506
-1.20026
-0.798533
-0.622516
-0.618579
-0.654564
-0.766375
-0.739523
-0.498808
-0.750402
-0.485405
-0.80522
-0.637115
-0.68034
-0.814296
-0.677389
-0.731372
-0.463569
-0.705501
-0.475845
-0.171458
-0.164933
-0.119049
-0.0739309
-0.126697
-0.0669297
-0.117219
-0.05903
-0.111224
-0.0629866
-0.0013487
-0.0172171
-0.0163023
-0.00809016
-0.0886901
0.792612
-0.163433
0.179809
-0.157036
-0.102363
0.182816
-0.00362134
-0.0240394
-0.017923
-0.0143723
-0.0201819
-0.0430502
-0.0342886
-0.0336042
-0.100607
0.791448
-0.17029
0.177604
-0.165874
-0.109083
0.172585
-0.0152664
-0.0281566
-0.0297632
-0.0193106
-0.16403
-0.175306
-0.108346
-0.0503309
-0.102604
-0.0529485
-0.109756
-0.065551
-0.121163
-0.05706
-0.0438885
-0.085883
-0.0604067
-0.0722311
-0.117013
0.776319
-0.173793
0.171524
-0.180139
-0.113372
0.157104
-0.0344782
-0.0401712
-0.0506878
-0.0278001
-0.00156225
-0.0172758
-0.00568742
-0.0178802
-0.082865
0.784263
-0.168506
0.173864
-0.152575
-0.10307
0.183351
-0.00326772
-0.0316948
-0.0207622
-0.0191382
-0.654792
-0.466897
-0.524367
-0.520463
-0.660504
-0.59758
-0.365065
-0.591573
-0.371065
-0.652349
-0.47013
-0.514959
-0.646906
-0.517263
-0.600075
-0.375535
-0.604334
-0.372831
-0.899161
-0.64918
-0.767891
-0.904155
-0.762776
-1.06298
-1.5398
-1.05663
-1.54753
-0.897146
-0.648268
-0.758427
-0.891556
-0.759638
-1.06498
-1.55716
-1.55156
-1.07012
-0.908902
-0.666177
-0.771274
-0.775511
-0.905094
-1.075
-1.56724
-1.08363
-1.55881
-0.909959
-0.666353
-0.785264
-0.917915
-0.780739
-1.07385
-1.55874
-1.55789
-1.07097
-0.670427
-0.485933
-0.528731
-0.532979
-0.663456
-0.617193
-0.389423
-0.621361
-0.38537
-0.673374
-0.484656
-0.541405
-0.67924
-0.537678
-0.614304
-0.377082
-0.606986
-0.383304
-0.856291
-0.610056
-0.718862
-0.72131
-1.02166
-1.50604
-1.02765
-1.49932
-0.858186
-0.610754
-0.729491
-0.863814
-0.724974
-1.01971
-1.49653
-0.606093
-0.435101
-0.476819
-0.479899
-0.556927
-0.339658
-0.561127
-0.336385
-0.608695
-0.432165
-0.48712
-0.614318
-0.483571
-0.554288
-0.334488
-0.175856
-0.124902
-0.187895
-0.124916
-0.128368
-0.168861
-0.189771
-0.320072
-0.206895
-0.268992
-0.183278
-0.22263
-0.297698
-0.285854
-0.241549
-0.0144139
-0.11353
-0.176709
-0.0810675
-0.0624261
-0.28311
0.0708996
0.185836
0.0890066
0.0225658
0.0808926
0.0154097
0.132427
0.0314248
-0.126791
-0.215576
-0.184526
-0.0367526
-0.0339286
-0.174578
0.0518011
0.012857
-0.154298
-0.13876
-0.00921602
0.0745327
-0.147436
0.0682311
0.0175499
-0.120487
-0.14451
0.0766105
0.00583679
-0.137237
0.0522463
-0.079659
-0.112577
-0.163683
-0.0102616
-0.00528985
-0.106486
-0.17021
-0.143891
-0.131242
-0.196578
-0.171251
-0.137902
-0.199781
-0.258949
-0.155253
-0.195411
-0.255201
-0.182432
-0.278661
-0.240603
-0.961111
-0.736212
-0.750386
-1.06994
-1.07264
-0.730042
-0.962562
-0.807108
-0.779953
-0.51753
-0.550579
-0.753534
-0.823585
-0.547235
0.0948708
0.185015
0.0879558
0.167146
0.109186
0.10438
0.137042
0.0665135
0.0379768
0.0235823
0.0326376
0.0577851
0.048716
0.0611253
-0.286645
-0.320218
-0.311131
-0.271827
-0.304424
-0.296369
-0.279954
-0.236949
-0.237194
-0.221366
-0.247753
-0.237139
-0.22453
-0.259367
-0.168844
-0.172801
-0.185326
-0.172972
-0.170231
-0.171092
-0.185371
-0.166448
-0.18455
-0.173099
-0.171154
-0.170002
-0.168549
-0.182933
-0.242033
-0.237938
-0.135591
-0.247836
-0.216116
-0.287005
-0.168569
-0.742895
-0.484236
-0.6724
-0.443859
-0.671106
-0.745222
-0.478945
-0.885628
-0.975366
-0.712349
-0.715133
-0.70382
-0.894883
-0.966243
-0.870955
-0.682569
-0.695264
-0.933543
-0.688262
-0.939603
-0.862997
-0.706869
-0.631138
-0.421527
-0.446897
-0.640219
-0.701566
-0.454239
-0.0195398
-0.0739193
-0.165556
-0.0118975
-0.151667
-0.078469
-0.0663121
-0.124058
-0.171295
-0.11975
-0.043101
-0.0580061
-0.0324877
-0.0798077
-0.195216
-0.134043
-0.149204
-0.208432
-0.144149
-0.20179
-0.207867
-0.663911
-0.416206
-0.593573
-0.382507
-0.594402
-0.665213
-0.414629
-0.824569
-0.896282
-0.649476
-0.6552
-0.646121
-0.827373
-0.893324
-0.810449
-0.630896
-0.642209
-0.874866
-0.633608
-0.878342
-0.806668
-0.644289
-0.56708
-0.368058
-0.393811
-0.575578
-0.639077
-0.399917
-0.165654
-0.183734
-0.199823
-0.0911843
-0.0472511
-0.0694427
-0.0628503
-0.181467
-0.200961
-0.0880403
-0.0593894
-0.344504
-0.19538
-0.253262
-0.322381
-0.23853
-0.304896
-0.367071
-0.29709
-0.224837
-0.406926
-0.589154
-0.768165
-0.227521
-0.219695
-0.364148
-0.0614433
0.0864488
-0.0538449
-0.0126833
-0.0945439
-0.107273
0.086415
0.279254
0.0766178
0.202434
0.13562
0.0265378
0.240783
-0.0314013
-0.113589
-0.00846083
0.00728774
0.0492877
-0.0638231
-0.049264
-0.219011
-0.621792
-0.456374
0.0265527
-0.84011
-0.159322
-0.0195794
-0.34292
-0.419339
-0.327008
-0.401356
-0.476828
-0.323504
-0.381024
-0.386301
-0.344534
-0.408213
-0.343309
-0.335612
-0.407278
-0.402275
-0.412053
-0.546133
-0.613728
-0.461088
-0.583063
-0.46758
-0.41883
-0.21709
-0.235074
-0.270996
-0.31188
-0.1911
-0.297325
-0.199467
-0.107428
-0.160443
-0.133231
-0.0711196
-0.0864713
-0.121876
-0.0655771
-0.754838
-0.489304
-0.680242
-0.46817
-0.691335
-0.748712
-0.500079
-0.937508
-0.992423
-0.756242
-0.728191
-0.744006
-0.914473
-1.00437
-0.939063
-0.729212
-1.05182
-0.744538
-0.734213
-0.941037
-1.04091
-0.819381
-0.770754
-0.55931
-0.507878
-0.74652
-0.825232
-0.545953
-0.180426
-0.176882
-0.184251
-0.191837
-0.175511
-0.182814
-0.197046
-0.192908
-0.218251
-0.203673
-0.192609
-0.20191
-0.19333
-0.20652
-0.189656
-0.225708
-0.188853
-0.204181
-0.204905
-0.199653
-0.187793
-0.177387
-0.174949
-0.175454
-0.187813
-0.166375
-0.188104
-0.18794
-0.146745
-0.138621
-0.123389
-0.205916
-0.160515
-0.116236
-0.19287
-0.673437
-0.418608
-0.59714
-0.392565
-0.605381
-0.668557
-0.424756
-0.836247
-0.900702
-0.664734
-0.653589
-0.656832
-0.831873
-0.90445
-0.850638
-0.675031
-0.926484
-0.679726
-0.670268
-0.854982
-0.922137
-0.696785
-0.626684
-0.443823
-0.40838
-0.627195
-0.698233
-0.441355
-0.233975
-0.144011
-0.15435
-0.213435
-0.165792
-0.218205
-0.224248
-0.800035
-0.627452
-0.87104
-0.633234
-0.62407
-0.802861
-0.868004
-0.632873
-0.56317
-0.391214
-0.357633
-0.563025
-0.635071
-0.389211
-0.405204
-0.223466
-0.264724
-0.337862
-0.276047
-0.386907
-0.352309
0.264522
0.271366
0.354838
0.247093
0.287234
0.374335
0.244276
0.182467
0.178817
0.120946
0.167164
0.10108
0.142728
0.267525
0.135989
0.0589977
0.0983772
0.102848
0.0755684
0.0771452
0.102928
0.0742575
-0.13859
0.0474132
-0.136736
-0.370247
-0.408028
-0.290345
-0.358919
-0.364598
-0.40578
-0.286011
-0.358109
-0.220927
-0.347506
-0.345846
-0.394181
-0.30968
-0.273111
0.0774485
-0.150557
-0.110389
0.0485623
0.2383
0.00725282
0.232595
0.0074929
-0.181489
-0.227331
-0.0943947
-0.172741
-0.182934
-0.225843
-0.0922027
-0.180982
-0.0921384
-0.224239
-0.172393
-0.225241
-0.179907
-0.0918032
0.239946
0.00972536
0.00912507
0.235075
0.168384
-0.090855
0.172142
-0.0939257
-0.306755
-0.323094
-0.169297
-0.281872
-0.278171
-0.353564
-0.198534
-0.335917
-0.260442
-0.420871
-0.304496
-0.383494
-0.37253
-0.221467
0.147924
-0.17333
-0.163804
0.115395
0.152987
0.00768899
0.0303061
-0.0116828
0.0350567
0.0603245
0.0613468
0.102395
0.109154
0.20032
0.186364
0.114194
0.157325
0.163012
0.108006
0.293572
0.175644
0.0745235
0.0573853
0.098957
0.152404
0.00608911
0.0997576
0.228744
0.0500636
0.229203
0.163882
0.0846399
0.0916117
0.197148
-0.0145923
-0.165506
0.0253781
-0.217453
-0.386434
-0.422587
-0.298705
-0.384036
-0.376886
-0.434453
-0.322541
-0.406039
-0.394269
-0.495821
-0.408784
-0.455371
-0.440616
-0.35099
-0.00844904
-0.377909
-0.12646
-0.388908
-0.563828
-0.309761
-0.591745
-0.0689067
0.0470149
-0.0464307
0.0282974
-0.614846
0.0172575
-0.292701
-0.104538
-0.56794
-0.057439
0.0504665
-0.595645
-0.530255
-0.539932
-0.409794
-0.405256
-0.411367
-0.406676
-0.512454
-0.408586
-0.576468
-0.384169
-0.501278
-0.365901
-0.395624
0.237304
0.00658595
0.232963
0.00550944
-0.187534
-0.228882
-0.0961333
-0.178835
-0.184363
-0.231987
-0.0978195
-0.189933
-0.103572
-0.238433
-0.181178
-0.234573
-0.193645
-0.100115
0.232681
-0.00147023
0.226089
-0.000755498
0.190601
-0.0684122
0.17828
-0.0645491
-0.239346
-0.304948
-0.153913
-0.22209
-0.258374
-0.285483
-0.137974
-0.224977
-0.117326
-0.25761
-0.21092
-0.270412
-0.21248
-0.128038
0.21846
-0.0202691
0.216223
-0.019125
-0.527196
-0.250889
-0.515701
-0.0203859
0.0652011
-0.0273436
0.0768125
-0.511167
-0.252474
-0.521952
-0.0291364
0.0765766
-0.01944
0.0682596
-0.481325
-0.527073
-0.466404
-0.337437
-0.366815
-0.355825
-0.348774
-0.479278
-0.535372
-0.484903
-0.359139
-0.352782
-0.358577
-0.355543
-0.475931
-0.221157
-0.482993
-0.00393916
0.0975678
0.00187124
0.0920896
-0.492238
-0.222725
-0.483875
-0.000249617
0.0884387
-0.00555739
0.095505
-0.501926
-0.447294
-0.45155
-0.328256
-0.322508
-0.326946
-0.324792
-0.45378
-0.50027
-0.445203
-0.320473
-0.335283
-0.326693
-0.329336
-0.464739
-0.200949
-0.457955
0.0148776
0.104435
0.0103706
0.109915
-0.447022
-0.197322
-0.453654
0.0150598
0.114964
0.0198919
0.109962
-0.434198
-0.481057
-0.428668
-0.306727
-0.315256
-0.311794
-0.310564
-0.424786
-0.479558
-0.428914
-0.307858
-0.305058
-0.308828
-0.30439
-0.438298
-0.178335
-0.430608
0.0305763
0.119421
0.0255182
0.125291
-0.416598
-0.46274
-0.411435
-0.29214
-0.299517
-0.295277
-0.296534
-0.938823
-0.756105
-0.894697
-0.809734
-0.877149
-0.696151
-0.438238
-0.662138
-0.494124
-0.704343
-0.65553
-0.429938
-0.85046
-1.00446
-0.900754
-0.865078
-1.05475
-0.933714
-0.734713
-1.05883
-1.07005
-1.0644
-1.13817
-0.978136
-1.24805
-0.74041
-1.13751
-0.7443
-1.01344
-1.12269
-0.700388
-1.16268
-0.924396
-0.727025
-0.761927
-1.02059
-1.11514
-0.750399
-0.996459
-1.05105
-0.894548
-0.91445
-1.1028
-0.978377
-0.745333
-1.08354
-0.69947
-0.984913
-1.07917
-0.730668
-0.906074
-0.835237
-0.857235
-0.843761
-0.909353
-1.07156
-0.89301
-1.08412
-1.03182
-1.04054
-1.07829
-1.06947
-0.898389
-0.341113
-0.651642
-0.459955
-0.757529
-0.622858
-0.446911
-1.02459
-1.07514
-0.912721
-0.911718
-1.03106
-1.08085
-0.733718
-0.980782
-0.908746
-0.516882
-0.674717
-0.826334
-1.10727
-0.521575
-0.794088
-0.677721
-0.695217
-0.6439
-0.825454
-1.02061
-0.987513
-0.860683
-0.921893
-0.92572
-1.0129
-1.0153
-0.756122
-0.517343
-0.7764
-0.588609
-0.754326
-0.737646
-0.537578
-0.984898
-0.930172
-0.871951
-0.969523
-0.930119
-0.96706
-0.990224
-0.729914
-0.644987
-0.612764
-0.625084
-0.731998
6.12189e-05
0.0359632
0.0489347
0.0347657
0.041041
0.00545501
0.0155235
0.109704
0.0527075
0.0998932
0.0639694
0.0713661
0.0623511
0.0295448
-0.00709451
-0.0918052
-0.092333
-0.00230177
0.00446504
-0.101272
-0.072801
-0.00603065
-0.21974
-0.262859
-0.217481
-0.126803
-0.132765
-0.271953
-0.21437
0.223353
-0.0254018
-0.0297762
0.221427
-0.230183
-0.178018
-0.312015
-0.230828
-0.264875
-0.147371
-0.284748
0.158931
-0.0938083
0.141582
-0.113378
0.0848627
0.00508366
0.00047297
0.0895087
0.0278454
-0.0588931
0.0277846
-0.0711752
0.11735
0.0391241
0.0379446
0.120193
0.118932
0.0412579
0.0394859
0.121828
-0.182702
-0.228832
-0.17429
-0.0956172
-0.0936198
-0.227055
-0.184385
0.237521
0.00647612
0.00545816
0.232002
-0.181173
-0.0920821
-0.224654
-0.172878
-0.180301
-0.0924426
-0.22551
0.240065
0.00895414
0.234495
0.00972658
0.116107
0.0383556
0.0360263
0.11918
0.119291
0.040486
0.121409
0.0400267
0.024108
-0.0594096
-0.0642097
0.0334257
-0.0145349
-0.12576
-0.123596
-0.0188734
-0.359053
-0.2301
-0.19192
-0.132398
-0.287031
-0.315254
-0.215489
-0.423426
-0.322318
-0.450363
-0.442609
-0.428516
-0.377438
-0.448312
0.0353491
-0.200676
0.0923597
-0.197981
-0.295304
-0.263579
-0.206496
-0.195146
-0.206898
-0.305493
-0.262635
-0.304473
-0.33541
-0.319715
-0.267391
-0.28347
-0.346141
-0.29834
-0.319665
-0.316686
-0.381865
-0.348003
-0.337114
-0.308771
-0.364751
-0.282698
-0.174483
-0.192835
-0.224486
-0.196195
-0.236894
-0.276309
-0.0381394
-0.137593
-0.0207899
-0.135251
-0.606087
-0.519383
-0.49954
-0.509126
-0.602576
-0.908877
-0.852191
-0.817933
-0.733276
-0.843255
-0.814422
-0.915767
-0.736716
-0.439299
-0.653686
-0.465509
-0.66596
-0.727762
-0.474353
-0.636213
-0.543358
-0.53806
-0.530582
-0.634466
-0.901671
-0.802442
-0.726005
-0.83265
-0.837515
-0.808786
-0.895325
-0.786132
-0.705972
-0.706496
-0.715031
-0.781262
-0.879883
-0.707536
-0.949569
-0.695862
-0.697465
-0.879101
-0.95509
-0.797542
-0.726433
-0.749266
-0.746205
-0.807122
-0.776267
-0.700553
-0.686472
-0.695221
-0.780161
-0.876484
-0.700512
-0.947327
-0.696622
-0.693195
-0.879757
-0.942119
-0.761344
-0.676554
-0.687066
-0.687759
-0.758017
-0.590919
-0.498087
-0.498786
-0.489853
-0.593373
-0.872101
-0.80931
-0.705863
-0.775792
-0.816245
-0.781887
-0.867204
-0.713416
-0.425977
-0.649008
-0.461653
-0.645638
-0.718897
-0.458289
-0.879185
-0.795392
-0.712025
-0.827932
-0.822487
-0.788839
-0.886527
-0.579715
-0.496192
-0.479728
-0.485383
-0.580384
-0.301579
-0.20999
-0.248947
-0.257094
-0.24201
-0.245784
-0.311054
-0.289038
-0.292385
-0.248066
-0.258285
-0.252174
-0.284464
-0.294642
-0.294363
-0.203815
-0.231261
-0.228604
-0.237371
-0.2369
-0.287772
-0.294507
-0.260556
-0.259119
-0.302036
-0.255092
-0.301692
-0.29791
-0.331207