/*--------------------------------*- C++ -*----------------------------------*\
| =========                 |                                                 |
| \\      /  F ield         | OpenFOAM: The Open Source CFD Toolbox           |
|  \\    /   O peration     | Version:  2012                                  |
|   \\  /    A nd           | Website:  www.openfoam.com                      |
|    \\/     M anipulation  |                                                 |
\*---------------------------------------------------------------------------*/
FoamFile
{
    version     2.0;
    format      ascii;
    class       surfaceScalarField;
    location    "0.107/fluid";
    object      phi;
}
// * * * * * * * * * * * * * * * * * * * * * * * * * * * * * * * * * * * * * //

dimensions      [0 3 -1 0 0 0 0];
oriented        oriented;


internalField   nonuniform List<scalar> 
47532
(
-0.00143381
-1.43421e-05
-1.42381e-05
0.0014623
-0.00148858
-5.77055e-06
-2.04687e-06
0.00149619
-0.00151004
0.00151273
-2.13764e-06
-8.42369e-07
-0.00151849
0.00151985
-1.19615e-06
-5.11936e-07
-0.00152283
0.00152356
-7.89588e-07
-3.07288e-07
-0.00152524
0.00152567
-5.83101e-07
-1.87781e-07
-0.00152671
0.00152699
-4.51335e-07
-1.16687e-07
-0.00152769
0.00152788
-3.61018e-07
-7.26484e-08
-0.00152836
0.0015285
-2.90777e-07
-4.59499e-08
-0.00152882
0.00152892
-2.26695e-07
-3.00375e-08
-0.00152914
0.00152921
-1.77527e-07
-1.85348e-08
-0.0015294
0.00152945
-1.34967e-07
-1.22297e-08
-0.0015296
0.00152965
-9.1124e-08
-7.8888e-09
0.00013109
-0.00159522
0.00154046
-7.06468e-05
-5.83548e-06
-0.00150645
4.87951e-05
-1.05461e-06
-4.31805e-05
0.00150157
1.5579e-05
-0.00150529
-1.15447e-06
0.00150769
-1.71805e-05
7.48e-06
-0.00151326
0.00151483
-8.68178e-06
-6.76099e-07
4.43068e-06
-0.00151863
0.00151964
-5.25957e-06
-4.26647e-07
3.04343e-06
-0.00152212
0.0015228
-3.60503e-06
-2.64915e-07
2.23886e-06
-0.00152449
0.00152496
-2.64902e-06
-1.63641e-07
1.69873e-06
-0.0015262
0.00152655
-2.01154e-06
-1.02625e-07
1.30805e-06
-0.00152747
0.00152773
-1.54988e-06
-6.55126e-08
1.00392e-06
-0.00152842
0.00152862
-1.18423e-06
-4.246e-08
7.45123e-07
-0.00152911
0.00152924
-8.78639e-07
-2.92737e-08
5.49492e-07
-0.00152955
0.00152963
-6.49492e-07
-2.01285e-08
3.89809e-07
-0.00152981
0.00152985
-4.61733e-07
-1.41915e-08
2.16364e-07
-0.00152997
0.00153
-2.58195e-07
-1.06555e-08
-0.00155651
2.36119e-05
-1.38828e-05
-3.24967e-06
0.00154967
-0.00153305
2.44266e-05
-2.0325e-05
3.33984e-06
0.00152513
1.66504e-05
-0.00151762
0.00151717
-1.60569e-05
-5.38217e-07
1.05555e-05
-0.00151743
0.00151789
-1.08001e-05
-4.51851e-07
6.97753e-06
-0.00151963
0.00152023
-7.32489e-06
-3.40651e-07
4.84819e-06
-0.00152198
0.00152252
-5.12579e-06
-2.30982e-07
3.52771e-06
-0.001524
0.00152444
-3.70729e-06
-1.47877e-07
2.63433e-06
-0.00152564
0.001526
-2.74614e-06
-9.41232e-08
2.03292e-06
-0.00152696
0.00152724
-2.09807e-06
-6.48496e-08
1.5284e-06
-0.00152802
0.00152826
-1.5836e-06
-4.29243e-08
1.1343e-06
-0.00152884
0.00152899
-1.16378e-06
-2.89694e-08
8.33724e-07
-0.00152936
0.00152946
-8.52503e-07
-2.41298e-08
6.19195e-07
-0.00152965
0.00152969
-6.31066e-07
-1.86822e-08
3.69803e-07
-0.00152983
0.00152989
-3.78603e-07
-1.50915e-08
-0.00149041
-8.95965e-06
-2.06499e-05
0.00149753
-0.00151872
1.28397e-05
3.21063e-06
0.0015196
1.43606e-05
-0.00151865
0.00151867
-4.22366e-07
1.09664e-05
-0.0015191
0.00151939
-3.81789e-07
7.85046e-06
-0.00152053
0.00152097
-2.92016e-07
5.53723e-06
-0.00152233
0.00152278
-1.96724e-07
3.916e-06
-0.00152408
0.0015245
-1.31525e-07
2.77512e-06
-0.00152565
0.00152601
-8.88897e-08
2.05003e-06
-0.00152698
0.00152727
-6.66198e-08
1.55203e-06
-0.00152805
0.00152828
-4.76551e-08
1.13717e-06
-0.00152886
0.00152902
-3.6078e-08
8.08334e-07
-0.00152939
0.00152948
-3.03701e-08
5.95855e-07
-0.00152966
0.00152969
-2.32932e-08
3.67403e-07
-0.00152984
0.00152991
-2.04935e-08
3.9555e-05
-0.00110578
0.00134936
-0.000254397
-2.88005e-05
-0.00148391
1.7112e-05
-2.61332e-06
-1.4849e-05
0.00148409
7.99199e-06
-0.00149889
-5.23613e-06
0.00150333
-7.47234e-06
3.70955e-06
-0.00151239
0.00151457
-2.1562e-06
-4.09729e-06
2.00465e-06
-0.00151954
0.00152077
-1.21966e-06
-2.42576e-06
1.18949e-06
-0.00152349
0.00152416
-8.28258e-07
-1.45439e-06
7.28694e-07
-0.00152573
0.00152613
-6.20164e-07
-8.90677e-07
4.55441e-07
-0.00152712
0.00152738
-4.78135e-07
-5.5462e-07
2.85254e-07
-0.00152804
0.00152822
-3.81143e-07
-3.48342e-07
1.82127e-07
-0.00152869
0.00152881
-3.0975e-07
-2.17636e-07
1.12125e-07
-0.00152912
0.00152921
-2.4352e-07
-1.37151e-07
7.1475e-08
-0.00152943
0.0015295
-1.83853e-07
-8.79174e-08
4.46925e-08
-0.00152967
0.00152973
-1.44233e-07
-5.47361e-08
2.58252e-08
-0.00152988
0.00152992
-9.582e-08
-3.1595e-08
2.76053e-05
6.30749e-05
0.00168874
-4.83996e-05
-1.96538e-05
2.99873e-06
0.000140444
-0.0015779
0.00155431
-0.000100954
-1.92076e-05
1.49024e-05
4.19238e-05
-0.00152072
-4.16608e-05
-1.11927e-05
0.00151634
6.67596e-06
1.55675e-05
-0.0015122
0.00151254
-1.70551e-05
-5.9349e-06
3.26008e-06
7.52614e-06
-0.0015152
0.00151627
-8.7562e-06
-3.45961e-06
1.75797e-06
4.55353e-06
-0.00151936
0.00152029
-5.42404e-06
-2.09742e-06
1.03671e-06
3.21465e-06
-0.00152261
0.00152326
-3.82804e-06
-1.2697e-06
6.37094e-07
2.39957e-06
-0.00152488
0.00152533
-2.85836e-06
-7.77163e-07
3.92281e-07
1.81339e-06
-0.00152652
0.00152687
-2.16213e-06
-4.83652e-07
2.47518e-07
1.39119e-06
-0.00152777
0.00152803
-1.65819e-06
-3.06245e-07
1.57593e-07
1.05821e-06
-0.0015287
0.00152889
-1.2542e-06
-1.93464e-07
1.02409e-07
7.97458e-07
-0.00152936
0.00152948
-9.4063e-07
-1.22362e-07
6.24052e-08
6.09766e-07
-0.00152979
0.00152987
-7.26555e-07
-7.66041e-08
3.77526e-08
4.3882e-07
-0.00153006
0.0015301
-5.22483e-07
-4.67409e-08
2.19687e-08
2.39029e-07
-0.00153024
0.00153028
-2.86658e-07
-2.72459e-08
1.63872e-05
-5.919e-07
0.00158981
1.84073e-05
-2.06546e-05
-0.00158043
-3.42671e-06
2.42201e-05
-2.03903e-06
-1.53871e-05
0.00157662
1.01582e-05
2.37439e-05
-0.0015468
-1.88192e-05
0.00153782
-6.5726e-06
4.77209e-06
1.64146e-05
-0.00152319
0.00152123
-1.58102e-05
-3.76886e-06
2.43617e-06
1.07143e-05
-0.00151923
0.00151928
-1.09687e-05
-2.44786e-06
1.3527e-06
7.25434e-06
-0.00152037
0.00152089
-7.62359e-06
-1.57382e-06
8.22706e-07
5.17743e-06
-0.00152249
0.00152299
-5.46274e-06
-1.00391e-06
5.21062e-07
3.8381e-06
-0.00152437
0.00152479
-4.0294e-06
-6.36363e-07
3.28281e-07
2.88072e-06
-0.00152595
0.0015263
-3.00215e-06
-4.03894e-07
2.17468e-07
2.1912e-06
-0.00152726
0.00152755
-2.26737e-06
-2.66729e-07
1.44875e-07
1.6478e-06
-0.00152833
0.00152856
-1.69862e-06
-1.76743e-07
9.19518e-08
1.21377e-06
-0.00152913
0.00152929
-1.24222e-06
-1.16648e-07
5.8415e-08
9.26874e-07
-0.00152965
0.00152974
-9.50382e-07
-7.19507e-08
3.48493e-08
6.89772e-07
-0.00152994
0.00152998
-7.01233e-07
-4.27648e-08
1.87615e-08
3.96022e-07
-0.00153012
0.00153018
-4.02225e-07
-2.39272e-08
1.03601e-05
-2.72989e-05
0.000422101
2.9447e-05
-5.13104e-06
-0.00150505
1.22201e-05
-4.11176e-05
3.00165e-05
-1.35376e-05
0.00151744
-0.00152463
5.55542e-06
8.67088e-06
-3.42727e-06
0.00152529
2.87846e-06
1.35638e-05
-0.00152351
0.00152253
-2.12391e-06
1.54929e-06
1.10632e-05
-0.0015212
0.00152113
-1.51325e-06
9.04064e-07
8.10551e-06
-0.0015216
0.00152191
-1.0534e-06
5.82556e-07
5.83315e-06
-0.00152303
0.00152342
-7.19892e-07
4.06715e-07
4.19404e-06
-0.0015246
0.00152498
-5.0209e-07
2.77251e-07
2.99457e-06
-0.00152608
0.00152643
-3.42503e-07
2.01847e-07
2.18214e-06
-0.0015274
0.00152769
-2.48007e-07
1.39831e-07
1.62513e-06
-0.00152848
0.00152871
-1.74433e-07
9.62584e-08
1.22184e-06
-0.00152929
0.00152945
-1.21278e-07
6.41324e-08
9.12476e-07
-0.00152979
0.00152987
-7.85057e-08
3.3027e-08
6.65532e-07
-0.00153
0.00153003
-4.17945e-08
1.74145e-08
3.86825e-07
-0.00153016
0.00153023
-2.19931e-08
-0.00111826
1.95067e-05
-0.000241833
-1.7987e-05
0.00135845
-0.00148846
1.54346e-05
-5.06022e-07
-1.49274e-05
0.00148814
9.8814e-06
-0.00150281
0.00150703
-4.6409e-06
-9.92761e-06
5.82512e-06
-0.00151519
0.00151709
-2.07737e-06
-6.1651e-06
3.48245e-06
-0.00152124
0.00152223
-1.255e-06
-3.74811e-06
2.11684e-06
-0.00152444
0.00152499
-8.80273e-07
-2.2864e-06
1.30527e-06
-0.00152628
0.00152662
-6.80134e-07
-1.41382e-06
8.14333e-07
-0.00152745
0.00152768
-5.29787e-07
-8.81858e-07
5.12442e-07
-0.00152825
0.0015284
-4.23228e-07
-5.54968e-07
3.2475e-07
-0.0015288
0.00152891
-3.44503e-07
-3.4777e-07
2.0277e-07
-0.0015292
0.00152928
-2.78436e-07
-2.2004e-07
1.28502e-07
-0.00152949
0.00152954
-2.07143e-07
-1.38688e-07
7.99315e-08
-0.00152971
0.00152976
-1.60073e-07
-8.61462e-08
4.59777e-08
-0.0015299
0.00152995
-1.02587e-07
-4.98097e-08
2.30308e-05
5.39873e-06
0.00169543
-5.0366e-06
-1.61224e-05
0.000106951
-0.0015645
1.26108e-05
-1.44441e-05
0.00153503
-7.63842e-05
1.24377e-05
3.46782e-05
-0.00150992
-1.24441e-05
0.00150986
-3.53186e-05
8.43343e-06
1.41339e-05
-0.00151211
0.00151309
-1.57541e-05
-8.36007e-06
5.08506e-06
7.43645e-06
-0.00151626
0.00151731
-8.76334e-06
-5.28223e-06
3.03127e-06
4.84036e-06
-0.00152014
0.00152094
-5.82461e-06
-3.25796e-06
1.84836e-06
3.55146e-06
-0.00152294
0.00152349
-4.29927e-06
-1.99571e-06
1.13885e-06
2.70706e-06
-0.00152492
0.00152533
-3.27251e-06
-1.23188e-06
7.14269e-07
2.04585e-06
-0.00152644
0.00152676
-2.46823e-06
-7.72885e-07
4.52247e-07
1.56875e-06
-0.00152762
0.00152787
-1.88061e-06
-4.87948e-07
2.8493e-07
1.21128e-06
-0.00152852
0.00152871
-1.44362e-06
-3.12814e-07
1.78367e-07
9.41164e-07
-0.00152917
0.0015293
-1.12132e-06
-1.92208e-07
1.1124e-07
7.18106e-07
-0.0015296
0.0015297
-8.76715e-07
-1.19767e-07
7.02164e-08
5.09868e-07
-0.00152993
0.00153
-6.13452e-07
-7.58227e-08
4.04944e-08
2.61818e-07
-0.00153018
0.00153025
-3.16813e-07
-4.38186e-08
2.96722e-06
3.24631e-07
0.00159806
6.47455e-06
-5.77582e-06
-0.00155698
7.01676e-06
2.61077e-05
-1.14261e-05
-1.10073e-05
0.0015454
8.17809e-06
2.3742e-05
-0.00152668
0.00152365
-2.07515e-05
-8.68938e-06
5.96367e-06
1.64141e-05
-0.00151918
0.00151864
-1.62635e-05
-5.85121e-06
3.76481e-06
1.11078e-05
-0.00151849
0.00151878
-1.14327e-05
-3.84679e-06
2.30993e-06
7.92147e-06
-0.00152008
0.00152058
-8.29884e-06
-2.479e-06
1.46213e-06
5.93525e-06
-0.00152206
0.00152252
-6.24177e-06
-1.5772e-06
9.28362e-07
4.51378e-06
-0.00152384
0.00152425
-4.73567e-06
-1.00218e-06
5.97823e-07
3.39432e-06
-0.00152542
0.00152578
-3.5509e-06
-6.41542e-07
3.94999e-07
2.55884e-06
-0.0015268
0.00152712
-2.66104e-06
-4.27209e-07
2.61061e-07
1.91015e-06
-0.00152796
0.0015282
-1.97507e-06
-2.84799e-07
1.6666e-07
1.46422e-06
-0.00152879
0.00152894
-1.50489e-06
-1.77359e-07
1.0447e-07
1.1788e-06
-0.00152933
0.00152943
-1.20613e-06
-1.10991e-07
6.2952e-08
8.19237e-07
-0.0015297
0.00152979
-8.53142e-07
-6.72553e-08
3.67189e-08
4.45241e-07
-0.00153003
0.00153012
-4.63694e-07
-4.13824e-08
2.34003e-06
-1.82412e-05
0.000415411
2.32743e-05
-1.35627e-06
-0.00150292
5.57721e-06
-1.09304e-05
7.10877e-06
-7.15312e-06
0.00150817
-0.00151246
4.91375e-06
1.42102e-05
-1.70403e-05
-5.20218e-06
0.00151568
3.62968e-06
1.46372e-05
-0.00151975
0.00151979
-1.45545e-05
-3.53276e-06
2.40373e-06
1.15151e-05
-0.00152005
0.00152023
-2.45894e-06
1.55549e-06
8.67066e-06
-0.00152101
0.00152133
-1.67754e-06
1.07155e-06
6.49684e-06
-0.00152239
0.00152277
-1.16288e-06
7.46073e-07
4.80692e-06
-0.00152391
0.00152429
-8.04886e-07
5.07877e-07
3.51293e-06
-0.00152541
0.00152578
-5.50165e-07
3.67859e-07
2.56029e-06
-0.00152685
0.00152719
-3.98899e-07
2.64522e-07
1.88381e-06
-0.00152809
0.00152835
-2.87219e-07
1.84872e-07
1.40263e-06
-0.00152897
0.00152914
-1.99691e-07
1.17394e-07
1.11043e-06
-0.00152951
0.00152959
-1.30103e-07
6.30232e-08
8.25651e-07
-0.00152978
0.00152983
-6.76661e-08
3.39488e-08
4.80823e-07
-0.00153005
0.00153015
-3.52324e-08
0.000394151
-3.63893e-05
5.48939e-05
-0.000406506
-6.15802e-06
0.00112325
-4.87818e-05
5.81549e-05
-0.000434854
-0.00024039
-0.000110086
-0.000237874
-0.000109443
4.80923e-05
-4.07252e-05
5.28588e-05
0.0018563
5.02516e-06
-1.6623e-05
-1.38795e-05
2.14628e-06
0.00153702
-8.67653e-05
-2.22074e-05
7.3561e-05
0.000121353
-0.00162311
-0.0013772
-2.53382e-05
-3.13421e-05
0.000234936
0.00150782
6.19001e-06
-0.000408419
-0.000413384
-0.000402021
-6.52341e-05
0.00147485
7.49343e-05
-0.00147426
-1.05306e-05
5.60923e-05
0.00135346
-0.000246798
-2.06653e-05
0.00146445
1.8e-05
-0.00146464
2.74813e-06
-7.58242e-05
-1.80689e-05
4.46986e-05
8.80646e-05
0.00149797
-3.92928e-05
-1.9201e-05
0.00146912
1.62766e-05
4.16034e-05
-0.00146879
-4.64925e-05
4.62616e-05
2.14825e-05
4.17246e-05
3.35756e-05
-0.00043886
-0.000431573
-0.000430814
-0.000427023
-1.59701e-05
0.001562
2.54172e-05
3.46375e-05
-0.000405812
-0.000397622
-0.000404512
-0.000398393
5.25817e-05
0.00178376
3.64695e-05
0.00153829
1.98281e-06
2.95118e-05
-0.00160812
-4.86258e-05
5.61592e-06
-2.02634e-05
5.03392e-05
-1.54444e-05
0.00168918
-2.3338e-05
0.00151429
2.94449e-06
3.49621e-05
2.57062e-05
-0.00155487
-8.00293e-06
3.6512e-05
-0.00040343
-0.000397165
-0.000404089
-0.000396606
2.90527e-05
0.00153333
-4.085e-06
4.79184e-06
-0.000383886
-0.000394463
-0.000395654
-0.000389462
4.78674e-05
0.00168092
-6.12991e-06
7.67509e-06
0.00151097
3.08118e-05
-0.00155081
-2.23006e-05
8.70536e-07
-2.03138e-05
4.99916e-05
2.52445e-05
0.00166291
-7.37465e-07
9.92375e-07
-1.17319e-06
-3.85139e-05
-6.96544e-06
0.00149695
4.9006e-05
2.13833e-05
-0.0015219
-1.84462e-05
-0.000379652
-0.000375443
-0.000383018
-0.000363545
5.8887e-06
0.000425863
1.25286e-05
-2.0364e-05
0.00149355
2.97535e-05
-0.00151575
-0.00045019
-3.27073e-05
-0.000229337
-0.000106195
-0.000229239
-0.000106933
0.00175805
-1.8058e-05
3.21438e-05
1.04951e-05
2.97313e-05
1.26263e-05
0.00155518
-0.000175112
0.000221759
-0.00159126
-3.2979e-05
-2.21767e-05
0.00112046
2.26591e-05
-0.000426638
-0.000233981
-0.00011339
-0.000233989
-0.000113021
-6.70183e-06
-4.93894e-06
8.37897e-06
0.00176922
1.82848e-05
3.34048e-07
5.27427e-07
1.79529e-05
-1.42615e-05
0.00155322
-0.000120678
1.89855e-05
0.000165315
-0.001603
-6.43351e-05
-0.00149445
5.18491e-05
-1.84677e-05
-1.29574e-05
1.1502e-06
0.000416559
1.99882e-05
-6.33605e-06
-9.80644e-06
0.00150704
9.34427e-06
-0.00150918
8.75913e-06
-0.000429323
-1.98347e-05
-0.000232926
-0.000112583
-0.000232885
-0.000112976
0.00175427
-4.70955e-06
2.25184e-05
4.21574e-06
2.23378e-05
4.40374e-06
0.00155192
-0.000132809
0.000176982
-0.00159622
-1.46345e-05
-2.522e-05
-0.00149934
2.23664e-05
-7.33476e-06
0.000584961
-8.41518e-05
-2.68272e-05
-0.000626172
1.4344e-05
0.000137845
7.15752e-06
-2.74819e-07
0.000165884
1.63234e-06
-7.39848e-06
-3.5233e-05
-7.52377e-06
-1.78466e-07
8.97377e-06
3.39615e-05
7.49248e-05
5.32064e-05
-7.15446e-05
0.00138875
-5.90107e-05
-0.000336586
-0.000354741
-0.000345319
-0.000349746
0.000305666
8.78129e-06
-4.80495e-05
-7.3785e-05
-6.30596e-05
-6.4683e-05
-6.48716e-05
-1.75701e-05
-8.71936e-05
-5.61947e-05
0.000199069
1.65285e-05
2.14979e-05
1.7061e-06
2.71215e-05
-1.21271e-05
-5.02843e-05
-4.25554e-05
-0.000281811
-6.2668e-06
2.57151e-05
-6.21011e-05
0.000324463
-0.00037701
-3.02309e-05
-2.58431e-05
0.000357721
2.29659e-05
5.23939e-05
-0.000197697
-0.000322698
-0.000239384
-0.000337816
-0.00021096
0.00126459
2.53967e-05
2.16551e-05
2.23042e-05
4.94704e-05
0.00143619
-4.26384e-06
3.01451e-05
1.13041e-05
3.38193e-05
-5.51239e-05
-0.000330595
-0.000353725
-0.000353625
-0.00036095
2.41253e-05
-4.62518e-06
0.00172792
7.91337e-06
5.45833e-05
5.54541e-05
9.97796e-06
-8.49831e-06
-0.000474128
-0.000460486
-0.000467765
-0.000464516
-2.75016e-05
6.8339e-05
9.86944e-06
1.52063e-05
-1.44509e-05
-1.8719e-05
-1.63296e-05
-1.64137e-05
-2.967e-06
-2.57463e-05
3.29919e-05
0.000467018
1.13942e-06
4.44244e-05
0.00174166
1.20783e-05
4.68998e-05
1.20246e-05
5.4957e-05
-1.42175e-06
-0.000475643
-0.000472448
-0.000471779
-0.00046666
8.74982e-06
-8.86182e-06
0.000446488
1.42999e-05
-1.05083e-05
-1.20483e-06
7.44264e-05
1.27591e-06
1.22152e-06
-1.74196e-05
-2.05868e-05
-1.73164e-05
-2.03965e-05
1.17227e-06
2.65473e-06
0.00166402
1.48112e-05
5.99211e-05
5.97194e-05
1.47022e-05
-4.60483e-05
-0.000445315
-0.000440466
-0.00044542
-0.000439839
1.34859e-07
7.2505e-05
1.65422e-06
-3.53993e-07
-1.70589e-05
-2.00265e-05
-1.68232e-05
-2.00318e-05
-3.57816e-06
-1.39713e-05
2.01307e-05
0.000430994
2.69584e-06
7.73833e-07
0.00167542
1.33158e-05
5.80067e-05
1.34914e-05
5.78146e-05
-3.46009e-05
-0.000448138
-0.000443287
-0.000448678
-0.000443027
2.86564e-06
-1.63429e-05
0.000429451
2.18155e-05
-1.86329e-06
1.45989e-06
7.19679e-05
1.57374e-06
-1.37601e-06
-1.70954e-05
-1.97927e-05
-1.66309e-05
-2.01072e-05
-1.19415e-05
7.22407e-05
4.80453e-06
1.07697e-05
-1.72503e-05
-2.10307e-05
-1.78258e-05
-1.97676e-05
3.65791e-07
-2.38529e-05
4.10684e-05
0.000430243
3.7316e-06
1.07804e-05
0.000402605
-4.38943e-05
5.61166e-06
1.6506e-05
-0.00039157
5.87411e-06
-0.00151442
3.2203e-06
3.51206e-05
1.79949e-05
0.00148527
-6.01605e-06
2.85491e-05
0.00149321
3.19878e-06
-0.00148522
-6.37391e-06
0.000526602
-8.88256e-05
2.5851e-06
-0.000579078
0.000145083
4.18589e-06
-3.14255e-05
3.21776e-05
-1.15121e-06
-3.78677e-06
1.57972e-06
2.39654e-08
8.16522e-08
0.000159311
-1.12395e-06
1.30201e-05
0.000521824
-9.84986e-05
-6.26123e-06
0.000149118
-0.000579207
-7.81265e-07
-1.79282e-07
0.000158085
5.14276e-07
1.01703e-06
-2.37513e-06
-3.07705e-05
-7.33577e-07
2.17021e-06
3.1709e-05
2.08998e-05
-0.0015793
6.629e-06
-2.13669e-05
2.91755e-05
2.76536e-05
2.94114e-05
-6.68442e-05
0.00158302
-2.10915e-05
0.00155542
-5.76738e-05
-0.00154481
-2.42878e-05
-3.44079e-07
9.3397e-06
0.00161248
6.505e-07
-6.37488e-06
2.39795e-05
0.00155504
1.35401e-05
-0.00157589
-1.10723e-05
-1.81365e-06
1.30063e-05
1.35397e-05
1.35662e-05
7.78857e-06
0.00158983
-1.58937e-05
-5.41927e-06
0.0015346
1.18771e-05
-0.00153805
-1.30681e-05
2.09593e-05
0.000385847
-3.0591e-05
-0.000399332
3.17089e-05
-8.56786e-06
-4.51097e-06
-9.07075e-06
2.12412e-06
0.000420059
1.76522e-05
0.000398152
-8.64241e-06
-6.96672e-06
1.67155e-05
2.69826e-06
-0.000401944
2.91148e-06
-0.00152392
-5.23711e-06
-4.5855e-06
1.63243e-06
8.37025e-06
-5.01027e-06
0.00150753
-5.09783e-06
1.87853e-05
0.0015071
4.98929e-06
-0.00150517
-2.06087e-05
-2.26381e-06
0.00051614
-9.10709e-05
1.72458e-06
-0.000569495
0.00014495
1.68256e-06
-2.99674e-05
3.10684e-05
-9.59211e-07
-1.82434e-06
2.80839e-07
-1.04575e-06
1.63623e-06
0.000156792
-1.24852e-07
3.42587e-06
0.000516506
-9.342e-05
-2.43753e-06
0.000146803
-0.000570889
5.18489e-08
-9.34288e-07
0.000156062
-2.10933e-08
1.63012e-06
-1.65652e-06
-2.95672e-05
-1.00797e-06
1.4342e-06
3.07975e-05
2.35224e-05
-0.00157122
-5.75191e-06
-1.08571e-05
1.90701e-05
1.82415e-05
1.90571e-05
0.00157654
-2.96524e-06
-3.34076e-05
0.00153635
-0.00153454
-7.23754e-06
-2.55904e-05
4.09571e-06
0.000389221
-1.78395e-05
-0.000396568
2.33492e-05
-2.2751e-06
-1.73755e-06
-1.45071e-05
1.11227e-06
0.000413531
2.0744e-05
0.000390213
-3.03245e-06
-1.33751e-05
2.02943e-05
1.74836e-06
-0.00039589
1.19132e-05
-0.0015102
-1.35368e-05
-5.69985e-06
-9.25311e-05
-3.72594e-05
0.000517165
3.0696e-05
0.00016689
-1.52272e-05
2.0663e-05
-2.58555e-05
2.84941e-06
-1.22193e-05
2.82478e-05
-8.74314e-05
-0.000210409
-4.89622e-05
-3.36988e-05
-0.000403813
3.05765e-05
7.88842e-05
-4.09337e-05
3.15372e-05
3.62768e-05
3.41901e-05
-0.000112235
3.87887e-05
-2.28573e-05
0.000480981
-3.82426e-05
-0.000509093
-3.02688e-05
1.24702e-05
9.96572e-05
4.7782e-08
-2.65432e-05
-2.55771e-05
-2.39438e-05
-2.15726e-05
-2.95699e-05
-2.14241e-05
3.2599e-05
-1.1409e-05
0.000481706
-2.34703e-05
8.40734e-07
-4.66449e-06
3.44647e-06
0.000552972
3.36189e-05
2.08197e-05
0.00179064
-8.8363e-05
5.49446e-05
8.88563e-05
4.40022e-05
9.23198e-05
-5.74325e-06
6.82996e-06
-3.03227e-06
-2.69628e-07
-0.000475163
-0.000485224
-0.000476577
-0.000498812
-3.90308e-05
0.000435673
-4.02845e-05
3.20911e-05
0.000221827
-9.41179e-05
-7.0052e-05
-4.52179e-05
-5.20642e-06
-4.84569e-05
-1.23994e-06
1.20642e-05
8.59198e-06
6.57856e-06
7.24851e-05
-0.000113199
-0.000116673
-0.000119409
0.00045928
-1.68246e-05
-1.08916e-05
-2.55407e-05
-2.17506e-05
-7.82039e-06
-0.00158748
0.00146318
-7.0403e-05
2.43219e-05
3.31121e-05
2.10652e-05
3.80532e-05
3.09464e-06
7.65831e-06
2.77068e-05
2.7867e-05
1.17586e-05
0.000365882
-2.09285e-05
-0.000368323
1.62288e-05
-4.18255e-05
-2.08776e-05
4.06503e-05
5.85023e-05
8.43013e-05
3.39393e-05
-3.23205e-05
5.62006e-06
1.43292e-05
-5.66664e-07
1.95381e-05
0.000535978
-0.000105281
-0.00059654
-9.69189e-06
0.000148707
-3.17728e-05
3.23753e-05
-4.74921e-07
4.05828e-06
2.0571e-06
-6.0061e-07
6.51752e-07
0.000159291
5.69535e-06
0.000161647
-7.61958e-06
5.06142e-07
0.000537029
-8.4118e-05
2.17945e-06
0.000144627
-0.000586701
-3.23672e-05
-5.25256e-07
3.14745e-05
-6.10583e-06
-3.2775e-06
0.00170129
1.25869e-05
5.80635e-05
1.2799e-05
5.68308e-05
-2.54991e-05
-0.000455737
-0.000452876
-0.000458504
-0.000450359
7.27618e-05
1.60283e-06
-1.02774e-07
-1.70977e-05
-2.00853e-05
-1.68747e-05
-2.00697e-05
-1.57758e-05
2.14806e-05
-4.26703e-06
0.000432269
-1.09133e-05
0.000440877
1.71596e-05
7.21084e-06
0.00168455
1.4206e-05
5.85635e-05
1.39749e-05
5.9178e-05
-4.05838e-05
-0.00045146
-0.000444796
-0.000450227
-0.000445981
7.39197e-05
1.33379e-06
-1.14195e-06
-1.74446e-05
-2.03124e-05
-1.71094e-05
-2.04503e-05
-1.93957e-05
0.00166527
1.40543e-05
5.88382e-05
1.39518e-05
6.14589e-05
-2.0972e-05
-0.000445565
-0.0004392
-0.000444359
-0.000441494
7.11324e-05
7.78978e-07
-8.93238e-06
-1.76191e-05
-1.96973e-05
-1.67063e-05
-2.0899e-05
-9.30959e-06
2.02525e-05
2.6023e-06
0.000439118
-1.14151e-05
0.00042967
1.97829e-05
1.62042e-06
0.00164669
2.03075e-05
7.416e-05
2.28338e-05
6.65631e-05
-5.14332e-05
-0.000446778
-0.00044276
-0.000448719
-0.000440299
1.65002e-06
-1.21518e-05
1.38444e-06
7.19676e-05
1.5871e-06
1.4439e-06
-1.67931e-05
-2.01314e-05
-1.68591e-05
-1.97559e-05
-4.26121e-05
-9.10575e-05
-7.33537e-05
-9.15157e-05
0.000355452
-1.96896e-05
3.49965e-05
-0.00145856
-3.05221e-05
4.79557e-05
0.0014526
-5.49237e-05
6.51315e-05
-2.50813e-05
1.23177e-05
-5.48242e-06
-1.63729e-06
3.98994e-05
5.168e-05
4.71131e-05
4.63508e-05
-0.000401116
-0.000419728
-0.000410325
-3.89575e-05
-1.53321e-05
0.00043037
4.09787e-05
0.000405399
3.57521e-06
-0.000406226
7.40891e-06
1.08271e-05
0.00037817
-5.39096e-05
5.22018e-05
-0.000401498
-1.88215e-05
-0.00148404
-0.00012992
0.00150957
5.07964e-05
-2.9531e-05
1.28493e-06
1.54275e-05
1.41707e-05
2.62325e-06
2.95209e-05
-0.000406383
-0.0003946
-0.000393554
4.13326e-05
4.77796e-05
3.88881e-05
4.69459e-05
-0.000176465
-0.000371083
-0.000372097
-0.000365146
0.000518393
-9.55952e-05
-0.000573811
-3.82462e-06
0.000148455
-3.01355e-05
3.12388e-05
-9.03786e-07
1.48298e-06
-7.16121e-07
1.46355e-06
2.12866e-07
0.000157062
-9.10925e-07
0.000157749
1.36789e-06
-5.14083e-07
0.000520506
-9.06788e-05
2.05392e-06
0.000145327
-0.000573794
-3.06091e-05
-9.57454e-07
3.15646e-05
-2.37319e-06
-2.05895e-05
2.43406e-05
3.33404e-05
3.38856e-05
2.40297e-05
-9.93202e-05
-0.000375485
-0.000384085
-0.000374215
-1.10912e-05
-0.000366493
-0.000366897
0.00146989
-0.00151681
-1.68287e-06
-9.39806e-06
0.00150714
2.25177e-06
-1.22995e-05
8.89001e-06
2.1375e-05
2.11784e-05
8.89722e-06
-1.8017e-05
-0.00038565
-0.000398204
-0.000385469
-9.79964e-06
-0.000377654
-0.000377701
0.0014854
-2.1299e-05
-2.15737e-06
0.000418352
2.54604e-05
0.000393398
-1.15893e-05
-0.000398609
1.45913e-06
1.9428e-05
0.000388954
-2.18649e-05
2.60847e-05
-0.000398148
-3.66005e-06
-0.00149983
3.23298e-05
-3.74563e-05
0.00150481
8.99263e-06
-7.21382e-06
1.17276e-05
2.37383e-05
2.3833e-05
1.15697e-05
-3.36443e-05
-0.000393556
-0.000380664
-0.000380837
7.03536e-06
-7.0098e-06
-0.000374082
-0.000374018
0.00148073
1.83652e-05
2.91055e-05
1.82583e-05
2.92413e-05
-6.76816e-05
-0.000377175
-0.000388042
-0.000376405
-0.000368977
-0.0003696
0.00147296
0.000513979
-9.1874e-05
-0.000567715
-1.95737e-06
0.000145288
-1.05032e-06
0.000155855
1.68413e-06
1.66571e-07
-2.93382e-05
-9.90933e-07
3.05701e-05
-1.8975e-06
-6.95208e-06
1.51525e-05
2.68636e-05
2.67836e-05
1.52635e-05
-5.29195e-05
-0.000376907
-0.000388694
-0.000376343
-6.59925e-06
-0.00036954
-0.000370038
0.00147289
-0.00150152
1.17111e-05
-8.28109e-06
0.00150334
-1.29512e-05
-9.10639e-06
1.24828e-05
2.43157e-05
2.44963e-05
1.22766e-05
-3.79742e-05
-0.000377296
-0.000390432
-0.000377616
-8.53887e-06
-0.000371365
-0.000371131
0.00147555
-1.64651e-05
-1.51249e-06
0.000412343
2.18251e-05
0.000388293
-1.5548e-05
2.16088e-05
-0.000394583
-2.85501e-06
-0.00149636
1.61806e-05
-1.75557e-05
0.00150049
1.3315e-05
2.52918e-05
1.34617e-05
2.5155e-05
-4.36527e-05
-0.000375582
-0.000388016
-0.000375187
-0.000369165
-0.000369503
0.00147196
1.42366e-05
3.9982e-05
-4.33085e-05
0.000355432
-6.99969e-06
-0.000101664
-7.89371e-05
-9.80763e-05
-8.06672e-05
1.157e-05
-6.15593e-06
4.75528e-07
-5.88963e-06
1.3606e-06
-3.23008e-06
1.18092e-06
6.88556e-07
-7.58038e-05
2.75143e-06
2.4318e-06
-8.58925e-06
7.92098e-05
-8.17562e-05
-1.5894e-05
-8.70668e-06
7.92042e-05
9.37249e-06
1.77802e-05
-7.92415e-05
0.000118321
1.008e-05
-6.84657e-06
3.85894e-06
4.2556e-06
-1.36202e-05
-4.3732e-06
-2.36648e-05
5.46654e-06
0.00037187
1.12066e-05
1.71398e-05
8.2782e-06
2.55975e-05
-2.5163e-05
-0.000105943
-8.14171e-05
-8.24144e-05
-9.91731e-05
0.000105868
1.4179e-05
-6.87201e-07
-1.64127e-05
-0.000113033
1.00861e-05
-6.64163e-06
-1.88187e-05
2.47434e-05
0.000125596
7.82096e-06
-5.08872e-06
9.78468e-05
-8.58154e-06
1.07862e-05
1.60934e-05
-0.000111056
1.46866e-05
-2.85897e-06
0.000119174
8.09848e-06
-1.54271e-05
-0.00151331
-4.54147e-06
-5.41218e-05
3.47602e-05
-3.86996e-06
0.00155441
-2.59461e-05
0.00153559
3.42035e-05
-0.0015463
2.00196e-06
1.53342e-05
0.00149925
-4.93559e-05
0.00147603
-1.65119e-05
1.04833e-05
-0.00147278
-3.68692e-05
-2.71222e-05
-1.22791e-06
1.61351e-05
3.05202e-05
0.00149561
-2.67291e-05
0.00148948
-1.36504e-05
5.81846e-06
2.97965e-05
-0.0014852
9.37309e-05
5.89532e-07
-3.47022e-06
-5.80174e-07
-0.000103509
1.32385e-05
-1.55243e-06
-8.90077e-06
1.69271e-05
0.000117088
1.48663e-06
-9.09829e-07
9.40529e-05
-3.47282e-06
1.01447e-06
1.3242e-05
-0.000103927
8.43967e-07
-8.96806e-06
0.000116591
1.70008e-05
-9.28422e-07
-0.00154253
-1.97246e-05
2.78349e-06
5.83619e-06
-1.78492e-05
0.00153601
0.00152821
-0.00153442
1.43154e-06
1.01947e-05
1.23071e-05
-2.44054e-05
0.00149213
0.00148831
-1.10253e-05
3.94612e-06
-0.0014828
-2.56327e-05
-6.42003e-06
2.58952e-05
2.29624e-05
0.00148951
0.00149715
-1.05672e-05
5.64355e-06
-0.00149072
2.67564e-05
0.000104768
1.19057e-05
-8.50608e-06
-8.91613e-06
-0.000115402
1.61535e-05
-1.19424e-06
-1.07039e-05
1.81858e-05
0.0001202
1.94796e-06
-4.67558e-06
9.97464e-05
-9.36022e-06
5.63545e-06
1.66252e-05
-0.00010797
3.47798e-06
-8.59458e-06
0.000131979
1.71453e-05
-2.05467e-06
-0.00148145
-5.41467e-06
-1.78515e-05
0.000163149
0.00154221
-2.80434e-05
0.00151227
-5.66395e-05
6.15601e-05
-0.00152061
-1.61132e-05
2.02091e-05
-0.000239589
0.00135924
-1.66117e-05
0.00148411
1.60775e-05
-0.00148414
3.20891e-07
-1.47539e-05
-9.61555e-05
1.86491e-05
0.000116112
0.00152889
-1.42993e-05
0.00149658
-4.03746e-05
1.46598e-05
4.5104e-05
-0.0015022
-0.0016107
-0.000117036
-2.3571e-05
1.27917e-05
0.00159011
-2.23634e-05
0.00159152
4.42101e-05
-0.00158723
-2.50602e-05
8.86795e-06
0.00171078
-1.85912e-06
-1.17052e-05
0.00156447
1.65632e-05
-0.00161579
-7.48015e-05
-2.62653e-06
9.88034e-06
0.00161748
-4.99039e-07
-6.76508e-06
0.00156256
1.52036e-05
-0.0015817
3.37104e-05
-0.00148739
-2.00185e-06
-1.59569e-05
0.000126857
-1.53886e-05
0.00153209
0.001505
-4.59619e-05
5.05591e-05
-0.00151022
-1.42873e-05
-0.00160942
-1.35903e-05
-8.67052e-05
0.00160181
-4.81935e-06
4.91268e-06
0.00156758
-0.00157963
-1.0404e-05
3.80294e-05
-9.26543e-05
-3.8069e-05
-6.1083e-06
9.60891e-05
8.85582e-06
3.18867e-05
2.19349e-06
2.43762e-06
-1.28231e-05
-6.76118e-05
-2.19907e-05
-1.24775e-05
-9.18085e-05
2.44877e-05
5.32712e-06
5.04799e-06
4.12396e-06
5.53359e-06
-2.12722e-05
-8.97415e-08
-1.60846e-05
-3.41098e-06
4.08575e-05
-2.53914e-06
0.000103692
-1.38392e-05
2.55403e-06
-0.000110576
2.07085e-05
-1.83709e-05
2.75356e-05
0.000126846
-8.02128e-06
0.00010309
-1.23083e-05
-2.44854e-06
2.00508e-05
-0.000113473
-1.1979e-05
-1.38012e-05
0.000119427
2.10506e-05
1.07878e-05
0.00164584
-4.40438e-05
-0.000531111
-0.000399388
-0.000423516
-0.000532881
4.62115e-05
2.12816e-05
4.24273e-05
0.000164557
0.000172597
0.000164719
0.000172
-0.000466795
0.00107652
2.96835e-05
1.76673e-05
3.47207e-05
-9.47193e-05
-0.000225075
-0.000224873
-0.000101212
-2.04498e-05
2.82125e-05
3.14805e-05
2.85182e-05
-9.88484e-05
1.69548e-05
-1.76413e-05
6.19628e-05
-0.00173573
-4.7519e-05
-0.000268538
0.00155492
-0.000383334
0.00146744
4.0653e-05
3.82422e-05
4.42774e-05
-3.71608e-05
-0.000541134
-0.000428227
-0.00044868
-0.00039037
0.000146453
0.000148159
0.000155143
0.000153029
2.84698e-05
3.25264e-05
2.8409e-05
-0.000108684
-2.95124e-05
-2.45105e-05
-0.000315292
-2.72428e-05
7.36703e-05
0.000120131
9.3878e-05
0.00181255
3.70767e-05
4.51542e-05
4.11896e-05
-0.000518503
-0.000496145
-0.000514662
-0.000495356
0.00174113
-0.000124818
2.72005e-05
2.81116e-05
3.89022e-05
2.80268e-05
4.65417e-05
5.1269e-05
3.05665e-05
-9.19187e-06
-1.20422e-06
4.16468e-06
5.06232e-06
5.04367e-06
0.000528271
1.25201e-05
7.68931e-05
0.000102919
-4.53558e-05
0.00175208
-3.03237e-05
2.04773e-06
-4.21957e-06
3.12532e-06
0.000546546
-1.32948e-05
1.56777e-06
0.00163867
-0.000224348
-4.42245e-05
9.09113e-05
6.05646e-05
7.25392e-05
0.00183872
-0.000510634
-0.000516416
-0.000504267
-0.000495686
-0.00144466
-7.037e-05
7.0107e-05
0.00141715
-4.38768e-05
-9.22098e-05
0.00132733
5.73066e-05
9.45905e-05
6.00117e-05
-0.000355776
-0.000367534
-0.000354221
-2.65125e-05
0.000162344
-0.000109124
0.00148096
8.41218e-05
0.00144419
-5.83573e-05
-7.06902e-07
2.57636e-05
2.09552e-05
1.49742e-05
-0.000375983
-0.000375044
-0.000376687
-5.11571e-05
-5.04234e-05
0.00141927
-2.16987e-05
0.00136199
2.34014e-05
0.00150732
-1.94991e-05
5.58131e-05
5.64463e-05
3.93585e-05
3.97436e-05
2.5249e-05
-9.52166e-05
-6.84959e-05
-8.73261e-05
0.000397868
-3.09217e-05
2.49133e-05
5.35634e-05
-4.36335e-05
-0.000414488
-0.000404696
-0.000411059
-0.000406217