/*--------------------------------*- C++ -*----------------------------------*\
| =========                 |                                                 |
| \\      /  F ield         | OpenFOAM: The Open Source CFD Toolbox           |
|  \\    /   O peration     | Version:  2012                                  |
|   \\  /    A nd           | Website:  www.openfoam.com                      |
|    \\/     M anipulation  |                                                 |
\*---------------------------------------------------------------------------*/
FoamFile
{
    version     2.0;
    format      ascii;
    class       surfaceVectorField;
    location    "0.107/fluid";
    object      Uf;
}
// * * * * * * * * * * * * * * * * * * * * * * * * * * * * * * * * * * * * * //

dimensions      [0 1 -1 0 0 0 0];


internalField   nonuniform List<vector> 
47532
(
(1.12681 -0.00386473 -0.0381755)
(1.14856 -0.0115394 -0.0162765)
(1.13431 -0.0075055 -0.0114745)
(1.14824 -0.00629603 -0.00923114)
(1.1678 -0.002525 0.00333972)
(1.17284 -0.00465914 0.00191241)
(1.17126 -0.0018068 -0.0016089)
(1.17365 -0.00192642 0.000947431)
(1.18436 -0.000859646 -0.000168178)
(1.18645 -0.000679228 -0.000189244)
(1.18589 -0.00156054 -0.000154885)
(1.18548 -0.000740602 -0.000677253)
(1.19094 -0.000354724 -0.000194985)
(1.192 -0.000285108 -0.00017527)
(1.19176 -0.000718961 -0.000183558)
(1.19165 -0.00031439 -0.000420688)
(1.19433 -0.000143986 -0.000120046)
(1.19489 -0.000116046 -0.000105821)
(1.19496 -0.000344936 -0.000111756)
(1.19475 -0.00012734 -0.000255592)
(1.19615 -6.72501e-05 -7.33367e-05)
(1.19647 -5.81761e-05 -6.51581e-05)
(1.1968 -0.000185527 -6.88433e-05)
(1.19644 -6.19253e-05 -0.000157416)
(1.19722 -4.20927e-05 -4.54102e-05)
(1.19742 -3.91769e-05 -4.08018e-05)
(1.19789 -0.000112121 -4.3059e-05)
(1.19743 -4.05224e-05 -9.82919e-05)
(1.19789 -3.29149e-05 -2.85441e-05)
(1.19802 -3.1161e-05 -2.56786e-05)
(1.19855 -7.46029e-05 -2.68712e-05)
(1.19807 -3.20146e-05 -6.17019e-05)
(1.19834 -2.85132e-05 -1.87091e-05)
(1.19842 -2.78163e-05 -1.61828e-05)
(1.19897 -5.38384e-05 -1.73209e-05)
(1.19849 -2.81432e-05 -3.89099e-05)
(1.19864 -2.67999e-05 -1.2136e-05)
(1.19871 -2.66716e-05 -1.09857e-05)
(1.19922 -4.10478e-05 -1.18922e-05)
(1.19878 -2.68962e-05 -2.55894e-05)
(1.19887 -2.94524e-05 -7.54845e-06)
(1.19892 -3.10594e-05 -6.84511e-06)
(1.19938 -3.54241e-05 -7.34717e-06)
(1.19899 -3.04138e-05 -1.58679e-05)
(1.19905 -3.63235e-05 -5.24928e-06)
(1.19909 -3.82104e-05 -5.02694e-06)
(1.19947 -3.44673e-05 -5.31238e-06)
(1.19917 -3.74734e-05 -1.04818e-05)
(1.19921 -4.40453e-05 -4.07249e-06)
(1.19925 -4.49656e-05 -3.51664e-06)
(1.19954 -3.56235e-05 -4.05081e-06)
(1.19934 -4.51043e-05 -6.7453e-06)
(1.22361 -0.116553 -0.11161)
(1.26195 -0.0300015 -0.127753)
(1.21261 -0.054554 -0.107948)
(1.22804 -0.060891 -0.124361)
(1.18899 -0.0578643 -0.00299843)
(1.18261 -0.0409319 0.0191224)
(1.16975 -0.0405449 0.019074)
(1.16444 -0.034513 -0.000497186)
(1.18662 -0.0358601 0.0263792)
(1.1787 -0.0329257 0.0199595)
(1.18135 -0.0123784 0.00178241)
(1.18171 -0.0151813 0.00270785)
(1.18086 -0.0125128 -0.00091069)
(1.18365 -0.0118362 0.00147103)
(1.18439 -0.0135486 0.001998)
(1.18834 -0.00537145 2.28701e-05)
(1.1882 -0.00639492 0.000178288)
(1.18947 -0.00531872 -5.46502e-06)
(1.18947 -0.00616379 9.80878e-05)
(1.1887 -0.00568517 -0.000571451)
(1.19276 -0.00267154 -0.000158964)
(1.19254 -0.0031848 -0.000153134)
(1.19334 -0.002717 -0.000148343)
(1.19321 -0.0031573 -0.000148291)
(1.19312 -0.00291333 -0.000375775)
(1.19542 -0.00145485 -0.000105827)
(1.19525 -0.00173263 -0.000111289)
(1.19574 -0.00150193 -9.97103e-05)
(1.19562 -0.00174573 -0.000105204)
(1.19571 -0.00160729 -0.000240233)
(1.19704 -0.000834791 -6.77931e-05)
(1.19692 -0.000993614 -7.19502e-05)
(1.19722 -0.000869597 -6.45853e-05)
(1.19713 -0.00101113 -6.86249e-05)
(1.19728 -0.000928352 -0.000152307)
(1.19804 -0.000495168 -4.40191e-05)
(1.19796 -0.000588771 -4.69287e-05)
(1.19815 -0.000518116 -4.19074e-05)
(1.19808 -0.000603088 -4.48267e-05)
(1.19825 -0.000552234 -9.70864e-05)
(1.19866 -0.000299284 -2.83069e-05)
(1.1986 -0.000355111 -3.01987e-05)
(1.19872 -0.000314083 -2.76447e-05)
(1.19868 -0.000366125 -2.93779e-05)
(1.19885 -0.000334778 -6.22389e-05)
(1.19905 -0.000184108 -1.87911e-05)
(1.19901 -0.000217836 -2.0352e-05)
(1.19909 -0.000192494 -1.82768e-05)
(1.19906 -0.00022607 -1.96459e-05)
(1.19923 -0.000205662 -4.02155e-05)
(1.1993 -0.00011389 -1.33948e-05)
(1.19928 -0.00013343 -1.4281e-05)
(1.19933 -0.000117048 -1.31616e-05)
(1.1993 -0.000140026 -1.40417e-05)
(1.19947 -0.000125977 -2.68179e-05)
(1.19946 -6.6916e-05 -1.00368e-05)
(1.19944 -7.62149e-05 -1.08167e-05)
(1.19948 -6.59742e-05 -1.06613e-05)
(1.19946 -8.30679e-05 -1.14168e-05)
(1.19962 -7.27492e-05 -1.88063e-05)
(1.19957 -3.87798e-05 -8.3786e-06)
(1.19956 -4.06235e-05 -9.33597e-06)
(1.19958 -3.35106e-05 -8.97168e-06)
(1.19957 -4.83701e-05 -9.74765e-06)
(1.19971 -3.89255e-05 -1.36339e-05)
(1.19964 -2.03611e-05 -7.36737e-06)
(1.19963 -1.62133e-05 -8.33228e-06)
(1.19964 -1.16085e-05 -8.07318e-06)
(1.19964 -2.42814e-05 -8.83203e-06)
(1.19977 -1.59405e-05 -1.00341e-05)
(1.22476 -0.0127607 -0.120674)
(1.22019 -0.0196397 -0.118531)
(1.21601 -0.0113983 -0.118817)
(1.179 -0.0183719 -0.00112339)
(1.21795 -0.0165875 -0.0933111)
(1.20423 -0.0179943 0.0274752)
(1.20075 -0.0197503 0.0302932)
(1.2015 -0.0161443 0.0295692)
(1.18246 -0.01893 0.00291056)
(1.19815 -0.0173364 0.0251227)
(1.19182 -0.0124783 0.00264126)
(1.19274 -0.0129334 0.00373725)
(1.19252 -0.0113923 0.00218011)
(1.19317 -0.0117496 0.00257483)
(1.19044 -0.0122358 -0.000492901)
(1.1927 -0.00709176 0.000235798)
(1.19297 -0.007627 0.000405592)
(1.19336 -0.00665729 0.000136231)
(1.19354 -0.00707827 0.000221755)
(1.19324 -0.00713529 -0.000432902)
(1.19468 -0.00405163 -0.000141456)
(1.1947 -0.0044344 -0.000134514)
(1.19514 -0.00387933 -0.000144361)
(1.19516 -0.00418704 -0.000148586)
(1.19538 -0.00415049 -0.000333867)
(1.19635 -0.00237235 -0.000111275)
(1.19631 -0.00261499 -0.00011896)
(1.19664 -0.00229784 -0.000107758)
(1.19662 -0.00249768 -0.000115453)
(1.19691 -0.00245305 -0.000228185)
(1.19751 -0.00141959 -7.35786e-05)
(1.19746 -0.00156955 -7.88536e-05)
(1.19768 -0.001385 -7.08139e-05)
(1.19765 -0.00151094 -7.577e-05)
(1.19795 -0.00147507 -0.000147732)
(1.19827 -0.00086321 -4.84575e-05)
(1.19823 -0.000956186 -5.15465e-05)
(1.19838 -0.0008461 -4.69832e-05)
(1.19835 -0.00092558 -4.98465e-05)
(1.19863 -0.000900136 -9.62591e-05)
(1.19877 -0.000531591 -3.34651e-05)
(1.19874 -0.000589085 -3.56511e-05)
(1.19884 -0.000523127 -3.25255e-05)
(1.19881 -0.00057237 -3.49112e-05)
(1.19908 -0.000556368 -6.39192e-05)
(1.1991 -0.000330292 -2.28563e-05)
(1.19907 -0.000366812 -2.42947e-05)
(1.19913 -0.000325225 -2.2735e-05)
(1.19912 -0.000356557 -2.40665e-05)
(1.19937 -0.000346744 -4.22017e-05)
(1.19931 -0.000204034 -1.66557e-05)
(1.19929 -0.000226544 -1.77858e-05)
(1.19933 -0.000200337 -1.70257e-05)
(1.19932 -0.000219992 -1.78785e-05)
(1.19956 -0.000214597 -2.83774e-05)
(1.19946 -0.000124529 -1.54602e-05)
(1.19944 -0.000138861 -1.63103e-05)
(1.19947 -0.000122585 -1.58204e-05)
(1.19946 -0.000134984 -1.66935e-05)
(1.19968 -0.000132221 -2.25192e-05)
(1.19956 -7.29474e-05 -1.41121e-05)
(1.19955 -8.20081e-05 -1.49437e-05)
(1.19957 -7.09801e-05 -1.48279e-05)
(1.19956 -7.95414e-05 -1.56455e-05)
(1.19975 -7.85115e-05 -1.78997e-05)
(1.19964 -3.92907e-05 -1.35243e-05)
(1.19963 -4.39115e-05 -1.44291e-05)
(1.19965 -3.66988e-05 -1.41894e-05)
(1.19964 -4.29871e-05 -1.51835e-05)
(1.1998 -4.25997e-05 -1.4557e-05)
(1.17194 0.0265446 -0.0510909)
(1.18817 0.00703487 -0.0964254)
(1.15116 -0.0162239 -0.0169853)
(1.17761 0.0164696 -0.0480346)
(1.19452 -0.00429676 0.0124321)
(1.19671 -0.00922651 0.0200774)
(1.18453 -0.0146857 0.00252767)
(1.1954 -0.00942214 0.0140607)
(1.19508 -0.00962466 0.00165829)
(1.19521 -0.00973512 0.00231808)
(1.19533 -0.00897136 0.00119544)
(1.19546 -0.0100711 -0.000488295)
(1.19555 -0.00663598 4.84611e-05)
(1.19576 -0.00688033 0.000112302)
(1.19596 -0.00620449 -4.72282e-05)
(1.1968 -0.00665005 -0.000417715)
(1.19651 -0.00423821 -0.000178926)
(1.19662 -0.00446198 -0.000183693)
(1.19684 -0.00398143 -0.00017774)
(1.1976 -0.00422497 -0.000318267)
(1.19743 -0.00264931 -0.000126395)
(1.19748 -0.00281243 -0.000134631)
(1.19766 -0.00250288 -0.000120604)
(1.19825 -0.00265254 -0.000216034)
(1.19813 -0.00165221 -8.02134e-05)
(1.19814 -0.00176235 -8.54118e-05)
(1.19827 -0.00156753 -7.63154e-05)
(1.19876 -0.00166077 -0.000139071)
(1.19861 -0.00103163 -5.31288e-05)
(1.19861 -0.00110387 -5.59116e-05)
(1.1987 -0.000982361 -5.16411e-05)
(1.19913 -0.00104113 -9.21259e-05)
(1.19895 -0.000647872 -3.83621e-05)
(1.19895 -0.000693905 -4.064e-05)
(1.19901 -0.000617656 -3.702e-05)
(1.19939 -0.00065535 -6.30568e-05)
(1.19919 -0.000405554 -2.79868e-05)
(1.19918 -0.00043491 -2.95583e-05)
(1.19922 -0.000387376 -2.74296e-05)
(1.19957 -0.000411637 -4.38585e-05)
(1.19935 -0.000251252 -2.22446e-05)
(1.19934 -0.000269887 -2.32537e-05)
(1.19937 -0.000239467 -2.27409e-05)
(1.19968 -0.000256043 -3.21343e-05)
(1.19947 -0.000153677 -2.10506e-05)
(1.19946 -0.000165913 -2.19597e-05)
(1.19949 -0.000146695 -2.1659e-05)
(1.19976 -0.000158054 -2.65338e-05)
(1.19957 -9.36718e-05 -2.0134e-05)
(1.19956 -0.000101776 -2.07658e-05)
(1.19959 -8.92012e-05 -2.09346e-05)
(1.19981 -9.73136e-05 -2.17737e-05)
(1.19966 -5.08849e-05 -2.01517e-05)
(1.19965 -5.6372e-05 -2.10206e-05)
(1.19967 -4.73169e-05 -2.04627e-05)
(1.19984 -5.39697e-05 -1.91064e-05)
(0.991616 -0.231404 -0.0330834)
(0.867152 -0.305664 -0.0376111)
(1.05746 -0.169369 -0.0336343)
(1.05889 -0.211653 -0.0367403)
(0.99321 -0.230143 -0.0248041)
(1.16381 0.00381043 -0.0186325)
(1.1558 0.00669711 -0.0134223)
(1.15909 -0.00187879 -0.0170078)
(1.1602 0.0063037 -0.0117666)
(1.16402 0.00297047 -0.0148046)
(1.17498 -0.00210658 -0.00642538)
(1.17562 -0.00253255 -0.00754029)
(1.17845 -0.00414792 -0.00665337)
(1.17909 -0.00192059 -0.00612139)
(1.17646 -0.0020503 -0.00599466)
(1.18658 -0.000701482 -0.00302191)
(1.18617 -0.000808838 -0.00354383)
(1.18789 -0.000645795 -0.00302061)
(1.18747 -0.00151576 -0.00323542)
(1.18713 -0.00068852 -0.00334179)
(1.19219 -0.000300468 -0.00165364)
(1.19179 -0.000334356 -0.0019618)
(1.19275 -0.000267549 -0.00171906)
(1.19255 -0.000681684 -0.00181999)
(1.19244 -0.000292995 -0.00200287)
(1.19508 -0.000122644 -0.00098957)
(1.19487 -0.000136171 -0.0011737)
(1.19538 -0.000110494 -0.00103707)
(1.19549 -0.000330071 -0.00109748)
(1.19522 -0.000120171 -0.00121046)
(1.19667 -6.12708e-05 -0.000608859)
(1.19655 -6.58592e-05 -0.000720973)
(1.19685 -5.74508e-05 -0.000640089)
(1.1972 -0.000180401 -0.000677652)
(1.19675 -6.08455e-05 -0.000746302)
(1.19762 -4.0554e-05 -0.000380791)
(1.19755 -4.23296e-05 -0.000449966)
(1.19773 -3.90043e-05 -0.000400694)
(1.19822 -0.000110517 -0.000423859)
(1.19767 -4.03957e-05 -0.000466874)
(1.19822 -3.17143e-05 -0.000239613)
(1.19817 -3.24174e-05 -0.000282992)
(1.19829 -3.11014e-05 -0.000252061)
(1.19884 -7.36438e-05 -0.00026669)
(1.19825 -3.17096e-05 -0.000293278)
(1.19862 -2.81948e-05 -0.000151729)
(1.19859 -2.85708e-05 -0.000179285)
(1.19867 -2.79546e-05 -0.000159609)
(1.19922 -5.33993e-05 -0.00016902)
(1.19864 -2.81382e-05 -0.000185652)
(1.1989 -2.7503e-05 -9.5721e-05)
(1.19888 -2.78312e-05 -0.000112314)
(1.19894 -2.77638e-05 -0.00010068)
(1.19946 -4.16732e-05 -0.000106843)
(1.19892 -2.80151e-05 -0.00011716)
(1.19911 -3.0551e-05 -6.10356e-05)
(1.19909 -2.99503e-05 -7.23117e-05)
(1.19914 -3.11582e-05 -6.43244e-05)
(1.19961 -3.57016e-05 -6.80334e-05)
(1.19912 -3.04771e-05 -7.50808e-05)
(1.19929 -3.73207e-05 -3.82125e-05)
(1.19927 -3.62778e-05 -4.50634e-05)
(1.19931 -3.82384e-05 -3.98078e-05)
(1.1997 -3.49539e-05 -4.21853e-05)
(1.19929 -3.7215e-05 -4.67724e-05)
(1.19944 -4.50392e-05 -2.207e-05)
(1.19943 -4.41198e-05 -2.6218e-05)
(1.19947 -4.51231e-05 -2.23452e-05)
(1.19975 -3.618e-05 -2.41352e-05)
(1.19945 -4.49746e-05 -2.69732e-05)
(1.3645 -0.00864784 -0.0226279)
(1.36462 -0.0499404 -0.0318193)
(1.31367 -0.0711062 -0.0471264)
(1.30663 -0.0391217 -0.0450622)
(1.34554 -0.021502 -0.016281)
(1.20123 -0.0645638 -0.000997261)
(1.21477 -0.11567 -0.0506246)
(1.23436 -0.0951728 -0.0529103)
(1.21723 -0.0779207 -0.0423987)
(1.23125 -0.0829496 -0.0528885)
(1.2127 -0.0668692 -0.0153611)
(1.17536 -0.030346 -0.0118715)
(1.18702 -0.0342836 -0.0169896)
(1.19304 -0.0398761 -0.0192364)
(1.19712 -0.0339243 -0.0165128)
(1.18071 -0.0297434 -0.00891806)
(1.18996 -0.0306418 -0.0140414)
(1.18349 -0.011866 -0.00549781)
(1.18593 -0.0120897 -0.00607076)
(1.18731 -0.0143685 -0.00661353)
(1.1877 -0.0114389 -0.00541239)
(1.18906 -0.0130894 -0.00579153)
(1.18477 -0.0115868 -0.00491039)
(1.18967 -0.00547374 -0.00277453)
(1.18993 -0.00516693 -0.00303633)
(1.19001 -0.0061663 -0.00323816)
(1.1909 -0.00510947 -0.00277995)
(1.19106 -0.00592619 -0.00292657)
(1.19016 -0.00536423 -0.00296595)
(1.19363 -0.00282163 -0.00154797)
(1.19355 -0.00255667 -0.0017273)
(1.19338 -0.00304971 -0.0018245)
(1.1941 -0.00260504 -0.00160309)
(1.19402 -0.00302834 -0.00167683)
(1.19387 -0.00277125 -0.00184938)
(1.19604 -0.00156502 -0.000936356)
(1.196 -0.00140431 -0.00105295)
(1.19586 -0.00167223 -0.00110816)
(1.19632 -0.00145237 -0.000983051)
(1.19623 -0.00168797 -0.00102767)
(1.19618 -0.00153978 -0.00114563)
(1.19752 -0.00090757 -0.00058416)
(1.1975 -0.00081159 -0.000655712)
(1.19741 -0.000965538 -0.000690109)
(1.19769 -0.000846109 -0.000614234)
(1.19763 -0.000983716 -0.000642723)
(1.1976 -0.00089461 -0.000715766)
(1.19844 -0.000541526 -0.000368149)
(1.19843 -0.000483714 -0.000412506)
(1.19837 -0.000574666 -0.000434373)
(1.19854 -0.000506442 -0.000387236)
(1.1985 -0.000589321 -0.00040564)
(1.19849 -0.000534675 -0.00045131)
(1.19901 -0.000329399 -0.000232994)
(1.199 -0.000294214 -0.000260723)
(1.19896 -0.000348914 -0.000274689)
(1.19907 -0.000308726 -0.000245079)
(1.19904 -0.000360057 -0.000256967)
(1.19904 -0.00032565 -0.000285739)
(1.19937 -0.00020263 -0.000148006)
(1.19936 -0.000181731 -0.000165366)
(1.19934 -0.000214484 -0.000174224)
(1.19941 -0.000189982 -0.000155546)
(1.19939 -0.000222943 -0.000163212)
(1.19939 -0.000200481 -0.000181438)
(1.19959 -0.000123679 -9.40669e-05)
(1.19959 -0.000112328 -0.000105047)
(1.19957 -0.000131185 -0.000110583)
(1.19962 -0.000115388 -9.87074e-05)
(1.19961 -0.000138075 -0.000103673)
(1.1996 -0.000122306 -0.000115403)
(1.19973 -7.25831e-05 -5.9598e-05)
(1.19973 -6.81436e-05 -6.62929e-05)
(1.19972 -7.72735e-05 -6.99007e-05)
(1.19975 -6.72044e-05 -6.22096e-05)
(1.19974 -8.43572e-05 -6.54819e-05)
(1.19974 -7.17728e-05 -7.33097e-05)
(1.19982 -3.93073e-05 -3.76156e-05)
(1.19982 -4.05347e-05 -4.12289e-05)
(1.19982 -4.23379e-05 -4.35976e-05)
(1.19983 -3.5471e-05 -3.84488e-05)
(1.19983 -5.03521e-05 -4.07831e-05)
(1.19983 -3.88618e-05 -4.60189e-05)
(1.19987 -1.63141e-05 -2.17464e-05)
(1.19987 -2.2124e-05 -2.33948e-05)
(1.19987 -1.81397e-05 -2.50492e-05)
(1.19988 -1.36551e-05 -2.11624e-05)
(1.19988 -2.63768e-05 -2.30995e-05)
(1.19988 -1.60188e-05 -2.66083e-05)
(1.28585 0.00230322 -0.0124828)
(1.24724 0.00110678 -0.0618104)
(1.24095 -0.000530244 -0.0679372)
(1.2433 0.0160217 -0.0623694)
(1.26626 0.00176039 -0.0167061)
(1.23841 -0.0147931 -0.0640298)
(1.20382 -0.0194276 0.00400718)
(1.24252 -0.0194562 -0.0583711)
(1.24048 -0.00112232 -0.0577165)
(1.22139 -0.0186288 -0.0124234)
(1.23665 -0.0167079 -0.0490846)
(1.19163 -0.0183656 -0.00856206)
(1.21265 -0.0183831 -0.0152195)
(1.21535 -0.017339 -0.0180447)
(1.2137 -0.0140515 -0.0146489)
(1.20868 -0.0163674 -0.012145)
(1.19763 -0.0177885 -0.0057405)
(1.19232 -0.0117179 -0.00425883)
(1.19634 -0.0117228 -0.00485997)
(1.19783 -0.0121444 -0.00519744)
(1.1964 -0.0107537 -0.00426603)
(1.19781 -0.010933 -0.00456044)
(1.19331 -0.0114199 -0.00351565)
(1.19401 -0.006885 -0.00227932)
(1.19444 -0.00679697 -0.00251661)
(1.19496 -0.00729402 -0.00263049)
(1.19501 -0.00638514 -0.00228329)
(1.1954 -0.00677044 -0.00236475)
(1.19437 -0.00673338 -0.00235548)
(1.1958 -0.00402932 -0.00132225)
(1.19566 -0.00390997 -0.00148082)
(1.19577 -0.00427805 -0.00153971)
(1.19611 -0.00374805 -0.00136278)
(1.19622 -0.00404335 -0.00140587)
(1.19599 -0.00395446 -0.00155397)
(1.1972 -0.00239134 -0.000819893)
(1.19709 -0.00230103 -0.000927774)
(1.1971 -0.00253566 -0.000963355)
(1.19738 -0.00223052 -0.000860368)
(1.19741 -0.00242382 -0.000888897)
(1.19731 -0.00235252 -0.00100304)
(1.19817 -0.00144217 -0.000523639)
(1.19811 -0.00138183 -0.000590529)
(1.1981 -0.00152735 -0.000614721)
(1.19829 -0.00134873 -0.000549939)
(1.19829 -0.00147096 -0.000569872)
(1.19824 -0.00142154 -0.000641879)
(1.19881 -0.00088236 -0.000335755)
(1.19878 -0.000843369 -0.000377605)
(1.19876 -0.000933422 -0.000394003)
(1.19889 -0.00082712 -0.00035262)
(1.19889 -0.000903707 -0.000366319)
(1.19886 -0.00087109 -0.000411885)
(1.19923 -0.00054722 -0.000215836)
(1.19921 -0.000522195 -0.000241779)
(1.1992 -0.000578267 -0.000252833)
(1.19928 -0.000513922 -0.000226282)
(1.19928 -0.000562125 -0.000235701)
(1.19926 -0.000541149 -0.0002648)
(1.1995 -0.000341765 -0.000138395)
(1.19949 -0.000325782 -0.000154575)
(1.19948 -0.000361119 -0.00016194)
(1.19954 -0.000320902 -0.000144763)
(1.19953 -0.000351503 -0.000151049)
(1.19952 -0.000338242 -0.000169838)
(1.19968 -0.000212366 -8.89823e-05)
(1.19967 -0.000202267 -9.88119e-05)
(1.19967 -0.000224575 -0.000103605)
(1.1997 -0.000199302 -9.27709e-05)
(1.1997 -0.000218767 -9.69483e-05)
(1.19969 -0.000210504 -0.000109364)
(1.19979 -0.000131374 -5.74244e-05)
(1.19979 -0.000124836 -6.27812e-05)
(1.19978 -0.000138936 -6.60511e-05)
(1.19981 -0.000122858 -5.88657e-05)
(1.1998 -0.000135166 -6.17095e-05)
(1.1998 -0.000130303 -7.0512e-05)
(1.19986 -7.84581e-05 -3.68109e-05)
(1.19986 -7.43682e-05 -3.91128e-05)
(1.19986 -8.32286e-05 -4.12895e-05)
(1.19987 -7.23901e-05 -3.63732e-05)
(1.19987 -8.07234e-05 -3.83524e-05)
(1.19987 -7.76977e-05 -4.48682e-05)
(1.19991 -4.27518e-05 -2.15222e-05)
(1.1999 -4.10557e-05 -2.19491e-05)
(1.1999 -4.55924e-05 -2.34898e-05)
(1.19991 -3.82516e-05 -1.97942e-05)
(1.19991 -4.4701e-05 -2.13628e-05)
(1.19991 -4.21652e-05 -2.63291e-05)
(1.34327 0.0694099 -0.0343559)
(1.31676 0.0929753 -0.0335304)
(1.32353 0.111126 -0.0282955)
(1.3455 0.0961664 -0.0245782)
(1.33471 0.109514 -0.0174441)
(1.185 0.0278338 -0.0410827)
(1.17757 -0.0104599 -0.0117029)
(1.20782 0.0337166 -0.0438697)
(1.18165 0.0247281 -0.0295538)
(1.18731 -2.10994e-06 -0.0132568)
(1.1949 0.0217884 -0.0323104)
(1.20058 0.000439788 -0.0112374)
(1.18977 -0.0109332 -0.0055102)
(1.20582 -0.00484348 -0.010754)
(1.19346 -0.00861378 -0.00397524)
(1.20117 -0.00433938 -0.00770371)
(1.19669 -0.00932924 -0.00300341)
(1.19966 -0.0082857 -0.00349984)
(1.19994 -0.00796602 -0.00355862)
(1.1992 -0.0078037 -0.00298296)
(1.19731 -0.00892165 -0.00253242)
(1.19735 -0.0063869 -0.00170991)
(1.19766 -0.00625675 -0.00189073)
(1.19805 -0.00643381 -0.00193477)
(1.19792 -0.00586757 -0.00170363)
(1.1976 -0.00622855 -0.00178359)
(1.19794 -0.0041005 -0.00104258)
(1.19778 -0.0040868 -0.00117114)
(1.19798 -0.00429373 -0.00119798)
(1.19808 -0.00384057 -0.00107483)
(1.19807 -0.00402317 -0.00123518)
(1.1985 -0.00258572 -0.000677281)
(1.19837 -0.00256776 -0.000765624)
(1.19847 -0.00272318 -0.00078546)
(1.19859 -0.00242548 -0.000708187)
(1.19858 -0.0025444 -0.000828409)
(1.19895 -0.00162324 -0.000446146)
(1.19888 -0.00160594 -0.00050311)
(1.19893 -0.00171182 -0.000518691)
(1.19902 -0.00152386 -0.000467264)
(1.19901 -0.00160044 -0.000547276)
(1.19929 -0.00101997 -0.000292731)
(1.19925 -0.00100635 -0.00032914)
(1.19927 -0.00107587 -0.000340714)
(1.19934 -0.000958553 -0.000306549)
(1.19933 -0.00100719 -0.000359605)
(1.19953 -0.000643559 -0.000192749)
(1.1995 -0.000633974 -0.000215352)
(1.19952 -0.000678815 -0.000223437)
(1.19957 -0.000605154 -0.000201131)
(1.19956 -0.000636278 -0.000236536)
(1.19969 -0.000405649 -0.000125664)
(1.19968 -0.000399351 -0.000139462)
(1.19968 -0.000428183 -0.000145499)
(1.19972 -0.000381466 -0.000130417)
(1.19971 -0.000401796 -0.000154357)
(1.1998 -0.000254534 -8.32439e-05)
(1.19979 -0.00025045 -9.1153e-05)
(1.19979 -0.000269096 -9.50914e-05)
(1.19982 -0.000239132 -8.56917e-05)
(1.19981 -0.000252638 -0.000102139)
(1.19987 -0.000157753 -5.46455e-05)
(1.19986 -0.000154894 -5.83235e-05)
(1.19987 -0.000166917 -6.13692e-05)
(1.19988 -0.000147719 -5.45366e-05)
(1.19988 -0.000156711 -6.68283e-05)
(1.19992 -9.59597e-05 -3.45612e-05)
(1.19991 -9.34687e-05 -3.55149e-05)
(1.19992 -0.00010132 -3.74536e-05)
(1.19992 -8.87424e-05 -3.26472e-05)
(1.19992 -9.4796e-05 -4.21427e-05)
(1.19995 -5.36286e-05 -2.05237e-05)
(1.19994 -5.19164e-05 -1.95027e-05)
(1.19995 -5.71868e-05 -2.08211e-05)
(1.19995 -4.81374e-05 -1.76075e-05)
(1.19995 -5.29708e-05 -2.51374e-05)
(0.879888 -0.296064 -0.0193893)
(1 -0.225638 -0.0168666)
(1.06888 -0.201561 -0.0185212)
(1.00045 -0.224434 -0.015496)
(1.06712 -0.163755 -0.0183373)
(1.16763 0.00511566 -0.0152626)
(1.1646 0.00662104 -0.0128348)
(1.16175 6.47301e-05 -0.0146437)
(1.16631 0.00655206 -0.012494)
(1.16725 0.00382138 -0.0137732)
(1.17943 -0.00186697 -0.00813096)
(1.17868 -0.00214886 -0.00928534)
(1.182 -0.0016413 -0.00805689)
(1.18134 -0.00347625 -0.0085941)
(1.18074 -0.00184188 -0.00821244)
(1.18887 -0.000624594 -0.00480579)
(1.18843 -0.00069455 -0.00533082)
(1.18993 -0.000558763 -0.00468071)
(1.18958 -0.00130545 -0.00495025)
(1.18957 -0.000604105 -0.00510435)
(1.19343 -0.000262725 -0.00289021)
(1.1932 -0.000289122 -0.00321159)
(1.19397 -0.000231343 -0.00283714)
(1.19389 -0.000602895 -0.00299531)
(1.19382 -0.00025083 -0.00311682)
(1.19578 -0.000110701 -0.00176646)
(1.19567 -0.000121198 -0.00196327)
(1.19608 -9.98215e-05 -0.00173927)
(1.19628 -0.00029921 -0.00183977)
(1.19601 -0.000107277 -0.00190998)
(1.19709 -5.85234e-05 -0.00109431)
(1.19702 -6.21575e-05 -0.00121502)
(1.19727 -5.48159e-05 -0.00107959)
(1.19767 -0.000168044 -0.00114237)
(1.19722 -5.75621e-05 -0.00118441)
(1.19788 -3.93731e-05 -0.000685408)
(1.19784 -4.07855e-05 -0.000760343)
(1.19799 -3.76777e-05 -0.0006773)
(1.19851 -0.00010465 -0.000716021)
(1.19796 -3.8797e-05 -0.000742732)
(1.19838 -3.11721e-05 -0.000432611)
(1.19835 -3.17286e-05 -0.000479514)
(1.19845 -3.0424e-05 -0.000427568)
(1.19902 -7.07424e-05 -0.000451832)
(1.19843 -3.07654e-05 -0.000468759)
(1.19873 -2.8701e-05 -0.000273214)
(1.1987 -2.86843e-05 -0.000302925)
(1.19877 -2.87227e-05 -0.000270441)
(1.19934 -5.2558e-05 -0.000286038)
(1.19876 -2.87323e-05 -0.000296515)
(1.19898 -2.91168e-05 -0.000173332)
(1.19896 -2.90853e-05 -0.000192114)
(1.19901 -2.93701e-05 -0.000171298)
(1.19953 -4.19006e-05 -0.000181696)
(1.19899 -2.93748e-05 -0.000188067)
(1.19916 -3.03569e-05 -0.000109531)
(1.19914 -3.00365e-05 -0.000121148)
(1.19919 -3.11882e-05 -0.00010797)
(1.19965 -3.47211e-05 -0.00011459)
(1.19917 -3.06055e-05 -0.000118256)
(1.19932 -3.71076e-05 -6.80784e-05)
(1.1993 -3.62516e-05 -7.56681e-05)
(1.19934 -3.8142e-05 -6.66743e-05)
(1.19973 -3.45079e-05 -7.10913e-05)
(1.19933 -3.7201e-05 -7.33187e-05)
(1.19947 -4.50791e-05 -3.91918e-05)
(1.19945 -4.42942e-05 -4.44229e-05)
(1.19949 -4.52609e-05 -3.78143e-05)
(1.19977 -3.61968e-05 -4.12497e-05)
(1.19947 -4.52e-05 -4.24611e-05)
(1.36542 -0.0164235 -0.00877404)
(1.33897 -0.0115039 -0.00455499)
(1.32387 -0.03901 -0.011919)
(1.33396 -0.0135531 -0.00425497)
(1.31254 -0.0117322 -0.0108999)
(1.20667 -0.0865638 -0.0202947)
(1.22596 -0.0673195 -0.0202999)
(1.20918 -0.0564519 -0.010713)
(1.20937 -0.0570678 -0.0123187)
(1.20367 -0.0564131 -0.0200904)
(1.2161 -0.0610495 -0.0209103)
(1.18129 -0.0264651 -0.0104724)
(1.18243 -0.0273534 -0.0146225)
(1.1855 -0.0320131 -0.0154876)
(1.18332 -0.026329 -0.0105815)
(1.18577 -0.0249654 -0.0135977)
(1.1901 -0.0275312 -0.0144909)
(1.18681 -0.0104192 -0.00719383)
(1.18737 -0.0102025 -0.00824281)
(1.18815 -0.0120983 -0.00880273)
(1.18903 -0.00972472 -0.00759157)
(1.18991 -0.0111435 -0.00803227)
(1.18811 -0.010209 -0.00718846)
(1.1916 -0.00489426 -0.00442439)
(1.19163 -0.00450519 -0.0046831)
(1.19164 -0.00536643 -0.00495417)
(1.19247 -0.00447966 -0.00433678)
(1.19257 -0.00519323 -0.00454023)
(1.19227 -0.0047518 -0.00462126)
(1.19477 -0.00256274 -0.00269369)
(1.19476 -0.00229891 -0.00284457)
(1.19463 -0.00273454 -0.00298675)
(1.19523 -0.00234827 -0.00264959)
(1.19517 -0.00272394 -0.00276233)
(1.19513 -0.00248067 -0.00290317)
(1.19673 -0.00143804 -0.00167392)
(1.19674 -0.00128166 -0.00176659)
(1.19664 -0.00152388 -0.00185702)
(1.19701 -0.00132777 -0.00165113)
(1.19695 -0.00154099 -0.00172515)
(1.19695 -0.00139667 -0.00181047)
(1.19794 -0.000842602 -0.00104929)
(1.19796 -0.000749352 -0.00110574)
(1.19789 -0.000890253 -0.00116351)
(1.19812 -0.000782205 -0.00103628)
(1.19807 -0.000908433 -0.0010844)
(1.19808 -0.0008213 -0.00113576)
(1.1987 -0.000507561 -0.000662433)
(1.19871 -0.000451385 -0.000697076)
(1.19866 -0.000535465 -0.00073399)
(1.1988 -0.000473136 -0.000654755)
(1.19877 -0.000549935 -0.000685941)
(1.19878 -0.000496444 -0.000717169)
(1.19917 -0.000311324 -0.000420287)
(1.19918 -0.000277188 -0.000441822)
(1.19915 -0.000328311 -0.000465572)
(1.19924 -0.000291092 -0.000415714)
(1.19922 -0.000339322 -0.00043604)
(1.19922 -0.00030555 -0.000455242)
(1.19947 -0.000192392 -0.000266917)
(1.19947 -0.000172292 -0.00028056)
(1.19945 -0.000203048 -0.000295819)
(1.19951 -0.000179889 -0.000264058)
(1.1995 -0.000211456 -0.000277307)
(1.1995 -0.000189142 -0.000289337)
(1.19966 -0.000117451 -0.000169577)
(1.19966 -0.00010691 -0.000178256)
(1.19965 -0.000124262 -0.000187856)
(1.19969 -0.00010952 -0.000167723)
(1.19968 -0.000131553 -0.000176227)
(1.19968 -0.000115425 -0.000183712)
(1.19978 -6.95041e-05 -0.000107806)
(1.19978 -6.57178e-05 -0.000113232)
(1.19977 -7.40194e-05 -0.00011946)
(1.1998 -6.46111e-05 -0.000106533)
(1.19979 -8.15538e-05 -0.000112322)
(1.19979 -6.85956e-05 -0.000116823)
(1.19985 -3.80309e-05 -6.72047e-05)
(1.19985 -3.98137e-05 -7.06237e-05)
(1.19985 -4.12561e-05 -7.47156e-05)
(1.19986 -3.46764e-05 -6.59366e-05)
(1.19986 -4.93832e-05 -7.0193e-05)
(1.19986 -3.76006e-05 -7.25801e-05)
(1.1999 -1.61473e-05 -3.88469e-05)
(1.1999 -2.24348e-05 -4.10061e-05)
(1.1999 -1.83643e-05 -4.37534e-05)
(1.1999 -1.41664e-05 -3.76095e-05)
(1.1999 -2.66822e-05 -4.08863e-05)
(1.1999 -1.60275e-05 -4.20774e-05)
(1.26267 0.00142222 -0.00259411)
(1.25669 0.00222773 -0.014185)
(1.25334 -0.00142257 -0.0157132)
(1.25218 0.00841814 -0.0141082)
(1.25826 0.00150834 -0.00498385)
(1.22377 -0.0168906 -0.0209315)
(1.21647 -0.0187827 -0.00666701)
(1.22252 -0.018986 -0.0211086)
(1.22097 -0.00665855 -0.0204331)
(1.21744 -0.0181327 -0.0101648)
(1.21554 -0.0183118 -0.0200361)
(1.19618 -0.0167751 -0.00765918)
(1.20226 -0.0166299 -0.0134329)
(1.20232 -0.0168643 -0.0141717)
(1.20013 -0.0154873 -0.0121504)
(1.20374 -0.0137456 -0.0127935)
(1.19837 -0.0161494 -0.00820396)
(1.19434 -0.0104983 -0.00565734)
(1.19599 -0.010396 -0.00711576)
(1.19673 -0.010995 -0.00751091)
(1.19625 -0.00967247 -0.006431)
(1.19738 -0.00990363 -0.00672611)
(1.19551 -0.0101109 -0.00563436)
(1.19538 -0.00618319 -0.00365506)
(1.19547 -0.00605455 -0.00398616)
(1.19587 -0.00651774 -0.00416397)
(1.19599 -0.00571045 -0.00364523)
(1.19632 -0.00606708 -0.00377087)
(1.19595 -0.00596845 -0.00376813)
(1.1967 -0.00366096 -0.00229412)
(1.1966 -0.00352601 -0.00244845)
(1.19671 -0.00385366 -0.00253461)
(1.19699 -0.00338689 -0.0022635)
(1.19709 -0.00365025 -0.00233007)
(1.197 -0.00354277 -0.00246803)
(1.19777 -0.00219855 -0.00146679)
(1.19772 -0.00210236 -0.00156243)
(1.19775 -0.00231329 -0.0016211)
(1.19796 -0.00204121 -0.00145142)
(1.198 -0.00221546 -0.00149916)
(1.19796 -0.00213538 -0.00158629)
(1.19853 -0.00134051 -0.000941867)
(1.1985 -0.00127778 -0.00100004)
(1.19851 -0.00141045 -0.00104152)
(1.19866 -0.00124901 -0.000932526)
(1.19867 -0.00136062 -0.000966897)
(1.19865 -0.00130741 -0.00101959)
(1.19904 -0.000827272 -0.000605808)
(1.19903 -0.000787481 -0.00064156)
(1.19903 -0.000870601 -0.000669864)
(1.19913 -0.000773103 -0.000600059)
(1.19913 -0.000843848 -0.000623936)
(1.19912 -0.000809672 -0.000656067)
(1.19938 -0.000517806 -0.000390256)
(1.19937 -0.000492483 -0.000412493)
(1.19937 -0.000544603 -0.00043154)
(1.19944 -0.000485243 -0.000386669)
(1.19944 -0.000530145 -0.000402915)
(1.19943 -0.000508238 -0.000422731)
(1.1996 -0.000324911 -0.000249897)
(1.1996 -0.00030892 -0.00026398)
(1.19959 -0.000342251 -0.000276841)
(1.19964 -0.000304505 -0.000247404)
(1.19964 -0.000333337 -0.000258356)
(1.19963 -0.000319293 -0.000271032)
(1.19974 -0.000204161 -0.000160361)
(1.19974 -0.000194073 -0.000168839)
(1.19974 -0.000215314 -0.000177201)
(1.19977 -0.000191743 -0.000158916)
(1.19977 -0.000210416 -0.000166213)
(1.19977 -0.000201538 -0.000173636)
(1.19984 -0.000127052 -0.000103787)
(1.19984 -0.000120963 -0.000109135)
(1.19983 -0.000134469 -0.000114821)
(1.19985 -0.000119124 -0.000102743)
(1.19985 -0.000130961 -0.000107822)
(1.19985 -0.00012574 -0.000112568)
(1.19989 -7.58777e-05 -6.52932e-05)
(1.19989 -7.26294e-05 -6.84871e-05)
(1.19989 -8.09962e-05 -7.24603e-05)
(1.1999 -7.04929e-05 -6.40428e-05)
(1.1999 -7.86012e-05 -6.76442e-05)
(1.1999 -7.50353e-05 -7.04155e-05)
(1.19993 -4.15213e-05 -3.84496e-05)
(1.19993 -4.09525e-05 -4.04274e-05)
(1.19993 -4.49223e-05 -4.3034e-05)
(1.19993 -3.78953e-05 -3.71545e-05)
(1.19993 -4.4324e-05 -3.99698e-05)
(1.19993 -4.10638e-05 -4.14179e-05)
(1.3245 0.0781893 -0.00821156)
(1.30594 0.0654554 -0.0018463)
(1.31042 0.0876787 -0.000344687)
(1.33121 0.0785919 -0.000117692)
(1.32219 0.0872594 -0.00496632)
(1.18903 0.00169315 -0.0142919)
(1.18987 -0.00619225 -0.00717522)
(1.2015 0.0118497 -0.0156195)
(1.18526 0.00925529 -0.0132287)
(1.1906 -0.00377697 -0.00857133)
(1.19282 0.00178723 -0.0136622)
(1.19487 -0.00399201 -0.00977891)
(1.19325 -0.00808245 -0.00585627)
(1.20041 -0.00717742 -0.00983941)
(1.20024 -0.00916336 -0.00858333)
(1.19465 -0.00685447 -0.0062249)
(1.19707 -0.00618483 -0.0085028)
(1.19804 -0.00810863 -0.00420798)
(1.19953 -0.00770517 -0.00531279)
(1.19943 -0.00752166 -0.00543366)
(1.19921 -0.0072111 -0.00470311)
(1.19976 -0.00745556 -0.00479235)
(1.19883 -0.00758971 -0.00421777)
(1.19831 -0.00571537 -0.00279431)
(1.19838 -0.00564358 -0.00307374)
(1.1987 -0.00581534 -0.00315012)