/*--------------------------------*- C++ -*----------------------------------*\
| =========                 |                                                 |
| \\      /  F ield         | OpenFOAM: The Open Source CFD Toolbox           |
|  \\    /   O peration     | Version:  2012                                  |
|   \\  /    A nd           | Website:  www.openfoam.com                      |
|    \\/     M anipulation  |                                                 |
\*---------------------------------------------------------------------------*/
FoamFile
{
    version     2.0;
    format      ascii;
    class       surfaceVectorField;
    location    "0.107/fluid";
    object      Uf_0;
}
// * * * * * * * * * * * * * * * * * * * * * * * * * * * * * * * * * * * * * //

dimensions      [0 1 -1 0 0 0 0];


internalField   nonuniform List<vector> 
47532
(
(1.12684 -0.00392475 -0.0379891)
(1.14857 -0.0115229 -0.0161226)
(1.13431 -0.00753781 -0.0114081)
(1.1482 -0.00630737 -0.00911147)
(1.16781 -0.00252345 0.00330201)
(1.17285 -0.0046601 0.00188136)
(1.17128 -0.00180781 -0.00161484)
(1.17366 -0.00192548 0.000926856)
(1.18436 -0.000859074 -0.000170309)
(1.18645 -0.000678816 -0.000190813)
(1.1859 -0.00156042 -0.000156836)
(1.18549 -0.000740165 -0.000677504)
(1.19095 -0.000354491 -0.000195073)
(1.19201 -0.000284911 -0.000175221)
(1.19176 -0.000718719 -0.000183554)
(1.19165 -0.000314185 -0.000420517)
(1.19433 -0.00014394 -0.000119942)
(1.19489 -0.000116042 -0.000105724)
(1.19496 -0.000344882 -0.000111657)
(1.19475 -0.000127321 -0.000255361)
(1.19616 -6.72878e-05 -7.3263e-05)
(1.19648 -5.82145e-05 -6.50912e-05)
(1.1968 -0.000185517 -6.87734e-05)
(1.19644 -6.19642e-05 -0.000157248)
(1.19723 -4.212e-05 -4.53603e-05)
(1.19742 -3.91978e-05 -4.07577e-05)
(1.19789 -0.000112097 -4.30117e-05)
(1.19744 -4.0546e-05 -9.81765e-05)
(1.1979 -3.29168e-05 -2.85098e-05)
(1.19802 -3.11581e-05 -2.56489e-05)
(1.19855 -7.45681e-05 -2.68397e-05)
(1.19807 -3.20146e-05 -6.1623e-05)
(1.19834 -2.85015e-05 -1.86854e-05)
(1.19843 -2.78e-05 -1.61605e-05)
(1.19897 -5.37995e-05 -1.72968e-05)
(1.19849 -2.81289e-05 -3.88542e-05)
(1.19865 -2.67741e-05 -1.21226e-05)
(1.19871 -2.66435e-05 -1.09721e-05)
(1.19922 -4.10037e-05 -1.18789e-05)
(1.19878 -2.68691e-05 -2.55548e-05)
(1.19887 -2.94196e-05 -7.5383e-06)
(1.19892 -3.10243e-05 -6.83683e-06)
(1.19938 -3.53867e-05 -7.33798e-06)
(1.199 -3.03799e-05 -1.58454e-05)
(1.19905 -3.62815e-05 -5.24268e-06)
(1.19909 -3.81661e-05 -5.02101e-06)
(1.19948 -3.44312e-05 -5.30618e-06)
(1.19917 -3.74305e-05 -1.04665e-05)
(1.19922 -4.39948e-05 -4.06649e-06)
(1.19925 -4.49123e-05 -3.5108e-06)
(1.19954 -3.55881e-05 -4.04418e-06)
(1.19934 -4.50519e-05 -6.73281e-06)
(1.22341 -0.116492 -0.111528)
(1.26162 -0.0303451 -0.127683)
(1.21257 -0.0546612 -0.107653)
(1.2279 -0.0609512 -0.124154)
(1.1888 -0.0579394 -0.00318731)
(1.18257 -0.0409191 0.0191797)
(1.16973 -0.0405111 0.0190562)
(1.16448 -0.034497 -0.000496933)
(1.18657 -0.0358374 0.0263318)
(1.17867 -0.032912 0.0198929)
(1.18135 -0.0123757 0.00176766)
(1.18171 -0.0151724 0.00268637)
(1.18087 -0.0125088 -0.000911408)
(1.18365 -0.0118314 0.00146076)
(1.1844 -0.0135434 0.0019852)
(1.18835 -0.00537018 1.98477e-05)
(1.18821 -0.0063937 0.000174206)
(1.18948 -0.0053176 -7.99246e-06)
(1.18948 -0.0061624 9.47564e-05)
(1.1887 -0.00568434 -0.000571673)
(1.19276 -0.00267086 -0.000159097)
(1.19254 -0.00318403 -0.000153456)
(1.19335 -0.00271629 -0.000148431)
(1.19321 -0.00315646 -0.000148491)
(1.19313 -0.00291269 -0.000375668)
(1.19543 -0.00145434 -0.000105742)
(1.19525 -0.00173205 -0.00011121)
(1.19575 -0.00150138 -9.96294e-05)
(1.19562 -0.00174511 -0.000105124)
(1.19572 -0.00160673 -0.000240028)
(1.19704 -0.000834402 -6.77275e-05)
(1.19692 -0.00099316 -7.18824e-05)
(1.19723 -0.000869175 -6.45221e-05)
(1.19713 -0.00101065 -6.85589e-05)
(1.19728 -0.000927912 -0.000152146)
(1.19804 -0.000494883 -4.39712e-05)
(1.19796 -0.000588437 -4.68791e-05)
(1.19815 -0.000517809 -4.18614e-05)
(1.19808 -0.000602737 -4.47788e-05)
(1.19825 -0.000551913 -9.69712e-05)
(1.19866 -0.000299084 -2.82769e-05)
(1.1986 -0.000354879 -3.01664e-05)
(1.19872 -0.000313872 -2.76159e-05)
(1.19868 -0.000365882 -2.93474e-05)
(1.19885 -0.000334556 -6.21628e-05)
(1.19905 -0.000183968 -1.87673e-05)
(1.19902 -0.000217677 -2.03273e-05)
(1.19909 -0.000192349 -1.82551e-05)
(1.19906 -0.000225901 -1.96226e-05)
(1.19923 -0.000205511 -4.01609e-05)
(1.1993 -0.000113794 -1.33806e-05)
(1.19928 -0.000133324 -1.42663e-05)
(1.19933 -0.00011695 -1.31477e-05)
(1.1993 -0.000139909 -1.40273e-05)
(1.19947 -0.000125875 -2.67837e-05)
(1.19946 -6.68503e-05 -1.00286e-05)
(1.19944 -7.61448e-05 -1.08075e-05)
(1.19948 -6.59131e-05 -1.06533e-05)
(1.19946 -8.29908e-05 -1.1408e-05)
(1.19962 -7.26834e-05 -1.87859e-05)
(1.19957 -3.87322e-05 -8.37043e-06)
(1.19956 -4.05765e-05 -9.3273e-06)
(1.19958 -3.34676e-05 -8.96415e-06)
(1.19957 -4.83129e-05 -9.73946e-06)
(1.19971 -3.88802e-05 -1.36187e-05)
(1.19964 -2.03227e-05 -7.36088e-06)
(1.19963 -1.61809e-05 -8.32674e-06)
(1.19964 -1.15808e-05 -8.06758e-06)
(1.19964 -2.424e-05 -8.82596e-06)
(1.19977 -1.59101e-05 -1.00253e-05)
(1.22468 -0.0127868 -0.120503)
(1.22017 -0.0196558 -0.11829)
(1.216 -0.0114089 -0.118578)
(1.1789 -0.0183915 -0.00125516)
(1.21799 -0.0166015 -0.0929808)
(1.20418 -0.018004 0.027518)
(1.2007 -0.019754 0.0302373)
(1.20146 -0.0161547 0.0295155)
(1.18249 -0.0189328 0.00289837)
(1.19812 -0.017343 0.025043)
(1.19182 -0.0124777 0.002628)
(1.19275 -0.0129328 0.00371487)
(1.19253 -0.0113913 0.0021694)
(1.19317 -0.0117489 0.00256215)
(1.19045 -0.0122341 -0.00049339)
(1.1927 -0.00709039 0.000232048)
(1.19298 -0.00762561 0.000400917)
(1.19337 -0.00665585 0.000133222)
(1.19355 -0.00707681 0.000218108)
(1.19325 -0.0071337 -0.000433331)
(1.19469 -0.00405039 -0.000141757)
(1.19471 -0.00443303 -0.000135013)
(1.19515 -0.00387802 -0.000144542)
(1.19517 -0.00418563 -0.000148867)
(1.19539 -0.00414912 -0.000333823)
(1.19635 -0.00237136 -0.000111188)
(1.19631 -0.00261389 -0.000118875)
(1.19664 -0.00229681 -0.000107668)
(1.19662 -0.00249656 -0.000115359)
(1.19691 -0.00245197 -0.000227993)
(1.19751 -0.00141885 -7.35035e-05)
(1.19746 -0.00156874 -7.87737e-05)
(1.19769 -0.00138425 -7.07392e-05)
(1.19766 -0.00151013 -7.56898e-05)
(1.19795 -0.00147428 -0.00014757)
(1.19827 -0.000862689 -4.84064e-05)
(1.19823 -0.000955611 -5.14914e-05)
(1.19838 -0.000845577 -4.69341e-05)
(1.19835 -0.000925009 -4.97942e-05)
(1.19864 -0.000899585 -9.61459e-05)
(1.19877 -0.000531238 -3.34299e-05)
(1.19874 -0.000588696 -3.56132e-05)
(1.19884 -0.000522775 -3.24905e-05)
(1.19881 -0.000571987 -3.48744e-05)
(1.19909 -0.000555996 -6.3841e-05)
(1.1991 -0.000330051 -2.28331e-05)
(1.19907 -0.000366549 -2.42689e-05)
(1.19914 -0.000324987 -2.27127e-05)
(1.19912 -0.000356299 -2.40427e-05)
(1.19937 -0.000346493 -4.21512e-05)
(1.19931 -0.000203873 -1.66397e-05)
(1.19929 -0.00022637 -1.77677e-05)
(1.19933 -0.00020018 -1.70112e-05)
(1.19932 -0.000219822 -1.78618e-05)
(1.19956 -0.000214431 -2.83442e-05)
(1.19946 -0.000124426 -1.5448e-05)
(1.19944 -0.000138749 -1.6298e-05)
(1.19947 -0.000122484 -1.58077e-05)
(1.19946 -0.000134875 -1.66804e-05)
(1.19968 -0.000132113 -2.24972e-05)
(1.19956 -7.28751e-05 -1.41028e-05)
(1.19955 -8.19316e-05 -1.49338e-05)
(1.19957 -7.09126e-05 -1.48182e-05)
(1.19956 -7.94664e-05 -1.56355e-05)
(1.19975 -7.84386e-05 -1.7886e-05)
(1.19964 -3.92418e-05 -1.3516e-05)
(1.19963 -4.38629e-05 -1.44202e-05)
(1.19965 -3.66553e-05 -1.41807e-05)
(1.19964 -4.29363e-05 -1.51744e-05)
(1.1998 -4.25525e-05 -1.45472e-05)
(1.1719 0.0265826 -0.0511008)
(1.18816 0.00708803 -0.096284)
(1.15115 -0.0161907 -0.01696)
(1.17763 0.0165131 -0.0479578)
(1.19454 -0.00435032 0.0124744)
(1.1967 -0.00925816 0.0200542)
(1.18459 -0.0146798 0.00251317)
(1.19541 -0.00944755 0.0140305)
(1.19509 -0.00962286 0.00164831)
(1.19522 -0.00973193 0.00230062)
(1.19534 -0.00896932 0.0011874)
(1.19547 -0.0100665 -0.000489851)
(1.19556 -0.0066335 4.57823e-05)
(1.19577 -0.00687762 0.000109255)
(1.19596 -0.00620175 -4.91846e-05)
(1.19681 -0.00664661 -0.000418137)
(1.19652 -0.0042361 -0.000179022)
(1.19662 -0.00445964 -0.000183884)
(1.19685 -0.00397924 -0.000177734)
(1.19761 -0.00422259 -0.000318227)
(1.19744 -0.00264778 -0.000126271)
(1.19748 -0.00281074 -0.000134502)
(1.19767 -0.00250136 -0.000120478)
(1.19825 -0.00265093 -0.000215829)
(1.19813 -0.00165117 -8.01194e-05)
(1.19814 -0.00176122 -8.53117e-05)
(1.19828 -0.00156651 -7.6225e-05)
(1.19876 -0.00165969 -0.000138907)
(1.19861 -0.00103094 -5.30717e-05)
(1.19861 -0.00110312 -5.58498e-05)
(1.1987 -0.000981692 -5.15871e-05)
(1.19913 -0.00104042 -9.20155e-05)
(1.19895 -0.000647423 -3.83196e-05)
(1.19895 -0.000693422 -4.0596e-05)
(1.19901 -0.000617221 -3.69784e-05)
(1.19939 -0.000654891 -6.29782e-05)
(1.19919 -0.000405266 -2.79588e-05)
(1.19918 -0.000434601 -2.95282e-05)
(1.19922 -0.000387101 -2.74013e-05)
(1.19957 -0.000411343 -4.38071e-05)
(1.19935 -0.000251065 -2.22276e-05)
(1.19934 -0.000269688 -2.32347e-05)
(1.19937 -0.000239293 -2.27241e-05)
(1.19968 -0.000255855 -3.21053e-05)
(1.19947 -0.000153562 -2.10354e-05)
(1.19946 -0.000165791 -2.19441e-05)
(1.19949 -0.000146588 -2.16433e-05)
(1.19976 -0.000157937 -2.6512e-05)
(1.19957 -9.35947e-05 -2.01222e-05)
(1.19956 -0.000101697 -2.0753e-05)
(1.19959 -8.91261e-05 -2.09228e-05)
(1.19981 -9.72364e-05 -2.17609e-05)
(1.19966 -5.08273e-05 -2.01395e-05)
(1.19965 -5.63113e-05 -2.10083e-05)
(1.19967 -4.72615e-05 -2.04496e-05)
(1.19984 -5.39103e-05 -1.90957e-05)
(0.992378 -0.23072 -0.0330273)
(0.868112 -0.305046 -0.0375484)
(1.05789 -0.16874 -0.0335927)
(1.05911 -0.211066 -0.0366792)
(0.993967 -0.229467 -0.024773)
(1.16368 0.00380551 -0.0186032)
(1.15573 0.00663232 -0.01342)
(1.15908 -0.00194311 -0.0169821)
(1.16012 0.00624143 -0.011761)
(1.16395 0.0029144 -0.0147849)
(1.17499 -0.00210388 -0.00641933)
(1.17562 -0.00253161 -0.00753252)
(1.17845 -0.00414491 -0.00664684)
(1.17909 -0.00191778 -0.00611534)
(1.17647 -0.00204784 -0.00599231)
(1.18658 -0.000701246 -0.00301903)
(1.18618 -0.000808356 -0.00354059)
(1.18789 -0.000645385 -0.00301786)
(1.18747 -0.00151529 -0.00323247)
(1.18714 -0.000688305 -0.00334037)
(1.19219 -0.000300273 -0.00165216)
(1.19179 -0.000334125 -0.00196016)
(1.19275 -0.000267371 -0.00171759)
(1.19256 -0.00068147 -0.00181846)
(1.19245 -0.000292806 -0.00200128)
(1.19509 -0.000122639 -0.000988603)
(1.19487 -0.000136148 -0.00117257)
(1.19539 -0.000110504 -0.00103604)
(1.1955 -0.000330052 -0.00109641)
(1.19522 -0.000120173 -0.00120926)
(1.19668 -6.13101e-05 -0.000608189)
(1.19655 -6.58987e-05 -0.000720192)
(1.19685 -5.74887e-05 -0.000639377)
(1.1972 -0.000180395 -0.000676906)
(1.19676 -6.08846e-05 -0.000745471)
(1.19762 -4.05741e-05 -0.000380335)
(1.19755 -4.23524e-05 -0.000449433)
(1.19773 -3.90206e-05 -0.000400211)
(1.19822 -0.00011049 -0.000423349)
(1.19767 -4.04142e-05 -0.00046631)
(1.19822 -3.17132e-05 -0.000239305)
(1.19817 -3.24184e-05 -0.000282632)
(1.19829 -3.10983e-05 -0.000251735)
(1.19884 -7.36099e-05 -0.000266347)
(1.19825 -3.17079e-05 -0.000292898)
(1.19862 -2.81792e-05 -0.000151522)
(1.19859 -2.85572e-05 -0.000179044)
(1.19867 -2.79376e-05 -0.00015939)
(1.19922 -5.33576e-05 -0.00016879)
(1.19864 -2.81229e-05 -0.000185396)
(1.1989 -2.74757e-05 -9.55846e-05)
(1.19888 -2.78054e-05 -0.000112153)
(1.19894 -2.77346e-05 -0.000100537)
(1.19946 -4.16284e-05 -0.00010669)
(1.19892 -2.7987e-05 -0.000116991)
(1.19911 -3.05153e-05 -6.09424e-05)
(1.19909 -2.99161e-05 -7.22024e-05)
(1.19914 -3.11218e-05 -6.42254e-05)
(1.19961 -3.56629e-05 -6.79297e-05)
(1.19912 -3.04421e-05 -7.49656e-05)
(1.19929 -3.72782e-05 -3.81521e-05)
(1.19927 -3.62364e-05 -4.49932e-05)
(1.19931 -3.8195e-05 -3.97446e-05)
(1.1997 -3.49175e-05 -4.21186e-05)
(1.19929 -3.71725e-05 -4.66982e-05)
(1.19944 -4.49875e-05 -2.20326e-05)
(1.19943 -4.40699e-05 -2.61738e-05)
(1.19947 -4.50702e-05 -2.23071e-05)
(1.19975 -3.61459e-05 -2.40945e-05)
(1.19945 -4.49232e-05 -2.69269e-05)
(1.36439 -0.00870191 -0.0225518)
(1.36451 -0.0500252 -0.0318026)
(1.31359 -0.0711194 -0.0470962)
(1.30655 -0.0391406 -0.0450416)
(1.34544 -0.0215596 -0.0162622)
(1.20118 -0.0645108 -0.0010649)
(1.21479 -0.115488 -0.0505579)
(1.23433 -0.0950505 -0.05285)
(1.21721 -0.0778385 -0.0423428)
(1.23123 -0.0828507 -0.0528188)
(1.21265 -0.0668107 -0.0153591)
(1.17538 -0.0303288 -0.0118711)
(1.18699 -0.0342545 -0.0169598)
(1.19303 -0.0398438 -0.0192052)
(1.19708 -0.0338958 -0.016483)
(1.18072 -0.0297276 -0.00891742)
(1.18994 -0.030617 -0.014022)
(1.1835 -0.0118638 -0.00549394)
(1.18592 -0.0120853 -0.00606615)
(1.18731 -0.0143621 -0.00660881)
(1.1877 -0.0114348 -0.00540875)
(1.18905 -0.0130844 -0.00578772)
(1.18478 -0.0115854 -0.00491)
(1.18968 -0.00547307 -0.00277219)
(1.18993 -0.00516538 -0.00303388)
(1.19001 -0.0061646 -0.00323573)
(1.1909 -0.0051081 -0.00277773)
(1.19106 -0.00592461 -0.00292439)
(1.19017 -0.00536382 -0.00296484)
(1.19363 -0.00282108 -0.00154647)
(1.19355 -0.00255605 -0.00172582)
(1.19339 -0.00304897 -0.00182292)
(1.19411 -0.00260442 -0.0016017)
(1.19402 -0.00302757 -0.00167537)
(1.19387 -0.00277073 -0.00184809)
(1.19605 -0.0015645 -0.00093544)
(1.19601 -0.00140385 -0.00105192)
(1.19586 -0.0016717 -0.00110709)
(1.19632 -0.00145187 -0.000982068)
(1.19623 -0.00168739 -0.00102666)
(1.19618 -0.00153928 -0.00114449)
(1.19752 -0.000907145 -0.000583507)
(1.19751 -0.000811218 -0.000654981)
(1.19741 -0.000965104 -0.000689348)
(1.19769 -0.000845703 -0.000613539)
(1.19763 -0.000983256 -0.000642001)
(1.19761 -0.000894194 -0.000714955)
(1.19844 -0.000541212 -0.000367697)
(1.19843 -0.000483437 -0.000412003)
(1.19837 -0.000574342 -0.000433847)
(1.19854 -0.000506144 -0.000386758)
(1.1985 -0.000588981 -0.000405141)
(1.19849 -0.000534366 -0.000450752)
(1.19901 -0.00032918 -0.000232687)
(1.199 -0.000294018 -0.000260383)
(1.19896 -0.000348686 -0.000274332)
(1.19907 -0.000308518 -0.000244756)
(1.19904 -0.000359818 -0.000256629)
(1.19904 -0.000325433 -0.000285361)
(1.19937 -0.000202481 -0.0001478)
(1.19936 -0.000181596 -0.000165138)
(1.19934 -0.000214328 -0.000173985)
(1.19941 -0.000189841 -0.00015533)
(1.19939 -0.000222779 -0.000162986)
(1.19939 -0.000200333 -0.000181185)
(1.19959 -0.000123577 -9.39298e-05)
(1.19959 -0.000112232 -0.000104895)
(1.19957 -0.000131079 -0.000110423)
(1.19962 -0.000115292 -9.85635e-05)
(1.19961 -0.000137961 -0.000103522)
(1.1996 -0.000122206 -0.000115235)
(1.19973 -7.25186e-05 -5.95065e-05)
(1.19973 -6.80799e-05 -6.61914e-05)
(1.19972 -7.72062e-05 -6.97942e-05)
(1.19975 -6.71442e-05 -6.21141e-05)
(1.19974 -8.42806e-05 -6.53813e-05)
(1.19974 -7.17092e-05 -7.31968e-05)
(1.19982 -3.9263e-05 -3.75557e-05)
(1.19982 -4.04874e-05 -4.11632e-05)
(1.19982 -4.22925e-05 -4.35288e-05)
(1.19983 -3.54292e-05 -3.83867e-05)
(1.19983 -5.02967e-05 -4.07178e-05)
(1.19983 -3.88178e-05 -4.59452e-05)
(1.19987 -1.62827e-05 -2.17077e-05)
(1.19987 -2.20849e-05 -2.33537e-05)
(1.19987 -1.81069e-05 -2.50049e-05)
(1.19988 -1.3629e-05 -2.11228e-05)
(1.19988 -2.63373e-05 -2.30581e-05)
(1.19988 -1.59871e-05 -2.65608e-05)
(1.28573 0.00225764 -0.0124454)
(1.24716 0.00109372 -0.0617959)
(1.24088 -0.000587207 -0.067913)
(1.2432 0.016015 -0.0623634)
(1.26614 0.00170564 -0.0166968)
(1.23839 -0.0148366 -0.0639698)
(1.20377 -0.0194595 0.00393227)
(1.24249 -0.0194759 -0.0582995)
(1.24046 -0.00118392 -0.0576523)
(1.22133 -0.018669 -0.0124413)
(1.23661 -0.0167433 -0.0490218)
(1.19164 -0.0183724 -0.0085682)
(1.2126 -0.0183919 -0.015192)
(1.2153 -0.017356 -0.0180115)
(1.21366 -0.0140711 -0.0146249)
(1.20864 -0.016379 -0.012128)
(1.19762 -0.0177989 -0.0057471)
(1.19233 -0.0117177 -0.00425831)
(1.19633 -0.0117246 -0.00485894)
(1.19782 -0.0121467 -0.00519712)
(1.1964 -0.0107548 -0.00426579)
(1.1978 -0.0109356 -0.00456026)
(1.19332 -0.0114206 -0.00351875)
(1.19401 -0.00688384 -0.00227794)
(1.19444 -0.00679615 -0.0025153)
(1.19496 -0.00729334 -0.00262944)
(1.19501 -0.00638419 -0.00228207)
(1.1954 -0.00676966 -0.00236371)
(1.19438 -0.0067325 -0.00235523)
(1.1958 -0.00402807 -0.00132101)
(1.19566 -0.00390886 -0.00147956)
(1.19577 -0.00427685 -0.00153845)
(1.19611 -0.00374686 -0.00136162)
(1.19622 -0.00404209 -0.0014047)
(1.19599 -0.00395331 -0.00155303)
(1.1972 -0.00239031 -0.000819068)
(1.19709 -0.00230009 -0.000926843)
(1.1971 -0.00253462 -0.000962411)
(1.19739 -0.00222954 -0.000859482)
(1.19741 -0.00242275 -0.000887998)
(1.19731 -0.00235152 -0.00100201)
(1.19817 -0.0014414 -0.000523026)
(1.19811 -0.00138112 -0.000589844)
(1.1981 -0.00152656 -0.000614014)
(1.19829 -0.001348 -0.000549288)
(1.19829 -0.00147017 -0.000569202)
(1.19824 -0.00142079 -0.000641116)
(1.19881 -0.00088182 -0.000335323)
(1.19878 -0.000842861 -0.000377125)
(1.19876 -0.000932861 -0.000393504)
(1.19889 -0.000826609 -0.000352165)
(1.19889 -0.00090315 -0.000365847)
(1.19886 -0.000870557 -0.000411351)
(1.19923 -0.000546853 -0.00021554)
(1.19921 -0.000521847 -0.000241451)
(1.1992 -0.000577885 -0.000252491)
(1.19928 -0.000513575 -0.000225972)
(1.19928 -0.000561748 -0.000235379)
(1.19926 -0.000540786 -0.000264436)
(1.1995 -0.000341517 -0.000138195)
(1.19949 -0.000325545 -0.000154354)
(1.19948 -0.00036086 -0.000161708)
(1.19954 -0.000320668 -0.000144553)
(1.19953 -0.000351249 -0.00015083)
(1.19952 -0.000337996 -0.000169591)
(1.19968 -0.000212202 -8.88489e-05)
(1.19967 -0.00020211 -9.86657e-05)
(1.19967 -0.000224404 -0.000103452)
(1.1997 -0.000199148 -9.26318e-05)
(1.1997 -0.0002186 -9.68036e-05)
(1.19969 -0.000210342 -0.0001092)
(1.19979 -0.000131266 -5.73341e-05)
(1.19979 -0.000124733 -6.26828e-05)
(1.19978 -0.000138824 -6.59476e-05)
(1.19981 -0.000122756 -5.87727e-05)
(1.1998 -0.000135057 -6.16119e-05)
(1.1998 -0.000130196 -7.04009e-05)
(1.19986 -7.83855e-05 -3.6751e-05)
(1.19986 -7.42963e-05 -3.90483e-05)
(1.19986 -8.31531e-05 -4.12218e-05)
(1.19987 -7.23225e-05 -3.63122e-05)
(1.19987 -8.06485e-05 -3.82885e-05)
(1.19987 -7.76257e-05 -4.47946e-05)
(1.19991 -4.27046e-05 -2.14839e-05)
(1.1999 -4.10067e-05 -2.19092e-05)
(1.1999 -4.55439e-05 -2.34471e-05)
(1.19991 -3.82077e-05 -1.97578e-05)
(1.19991 -4.46502e-05 -2.13233e-05)
(1.19991 -4.21184e-05 -2.62835e-05)
(1.34296 0.0691608 -0.034374)
(1.31643 0.0928299 -0.0335861)
(1.3232 0.110805 -0.0283961)
(1.34505 0.0959947 -0.0246475)
(1.33435 0.109236 -0.0174815)
(1.18512 0.0277927 -0.0411055)
(1.17764 -0.0103899 -0.0117341)
(1.2079 0.033591 -0.0438584)
(1.18173 0.0246862 -0.0295902)
(1.18741 4.39803e-05 -0.0133124)
(1.19496 0.0217838 -0.0323056)
(1.20059 0.000385688 -0.0112343)
(1.18982 -0.0109424 -0.00552933)
(1.20582 -0.00487476 -0.0107485)
(1.1935 -0.00863325 -0.0039954)
(1.20118 -0.00437297 -0.00770676)
(1.1967 -0.00932689 -0.00300608)
(1.19966 -0.00828928 -0.00350227)
(1.19994 -0.00797109 -0.00356265)
(1.1992 -0.00780643 -0.00298567)
(1.19732 -0.00892006 -0.00253792)
(1.19736 -0.00638393 -0.00170946)
(1.19766 -0.00625543 -0.00189038)
(1.19805 -0.00643249 -0.0019348)
(1.19792 -0.00586579 -0.00170323)
(1.19761 -0.00622574 -0.001784)
(1.19794 -0.00409822 -0.00104163)
(1.19779 -0.00408485 -0.00117025)
(1.19798 -0.00429161 -0.00119713)
(1.19809 -0.0038385 -0.00107398)
(1.19808 -0.00402097 -0.00123447)
(1.1985 -0.00258414 -0.000676558)
(1.19838 -0.00256627 -0.000764817)
(1.19847 -0.00272154 -0.000784652)
(1.1986 -0.00242399 -0.000707413)
(1.19858 -0.00254284 -0.000827501)
(1.19895 -0.00162218 -0.000445579)
(1.19888 -0.00160492 -0.000502482)
(1.19893 -0.00171071 -0.000518047)
(1.19902 -0.00152285 -0.000466665)
(1.19901 -0.00159939 -0.000546569)
(1.19929 -0.00101927 -0.000292325)
(1.19925 -0.00100567 -0.000328691)
(1.19927 -0.00107514 -0.000340248)
(1.19934 -0.000957898 -0.000306123)
(1.19933 -0.0010065 -0.000359101)
(1.19953 -0.000643108 -0.000192469)
(1.1995 -0.000633535 -0.000215044)
(1.19952 -0.000678342 -0.000223117)
(1.19957 -0.000604729 -0.000200839)
(1.19956 -0.000635832 -0.000236191)
(1.19969 -0.000405359 -0.00012547)
(1.19968 -0.000399065 -0.00013925)
(1.19968 -0.000427878 -0.000145277)
(1.19972 -0.000381194 -0.000130217)
(1.19971 -0.000401509 -0.000154119)
(1.1998 -0.000254349 -8.31169e-05)
(1.19979 -0.000250268 -9.10143e-05)
(1.19979 -0.000268902 -9.49471e-05)
(1.19982 -0.000238959 -8.55598e-05)
(1.19981 -0.000252456 -0.000101982)
(1.19987 -0.000157637 -5.45555e-05)
(1.19986 -0.000154778 -5.82271e-05)
(1.19987 -0.000166795 -6.12681e-05)
(1.19988 -0.00014761 -5.4445e-05)
(1.19988 -0.000156595 -6.67182e-05)
(1.19992 -9.58824e-05 -3.45014e-05)
(1.19991 -9.33922e-05 -3.54517e-05)
(1.19992 -0.00010124 -3.7387e-05)
(1.19992 -8.86691e-05 -3.25876e-05)
(1.19992 -9.47189e-05 -4.20695e-05)
(1.19995 -5.35714e-05 -2.04885e-05)
(1.19994 -5.1861e-05 -1.94667e-05)
(1.19995 -5.71294e-05 -2.07829e-05)
(1.19995 -4.80837e-05 -1.75753e-05)
(1.19995 -5.29153e-05 -2.50955e-05)
(0.880808 -0.29547 -0.0193525)
(1.00073 -0.22497 -0.0168456)
(1.06906 -0.200994 -0.0184899)
(1.00117 -0.223769 -0.0154778)
(1.06751 -0.163135 -0.0183089)
(1.1675 0.00510644 -0.0152413)
(1.16452 0.00655803 -0.0128243)
(1.16175 7.75342e-07 -0.0146222)
(1.16622 0.00648961 -0.0124868)
(1.16718 0.00376314 -0.0137535)
(1.17944 -0.00186486 -0.00812381)
(1.17868 -0.00214863 -0.00927238)
(1.182 -0.00163902 -0.00804618)
(1.18134 -0.00347425 -0.00858227)
(1.18075 -0.00183975 -0.00820644)
(1.18888 -0.000624478 -0.00480114)
(1.18844 -0.000694307 -0.00532526)
(1.18993 -0.000558548 -0.00467616)
(1.18959 -0.00130542 -0.00494525)
(1.18957 -0.000603959 -0.00510007)
(1.19343 -0.000262579 -0.00288743)
(1.1932 -0.000288962 -0.00320849)
(1.19397 -0.000231226 -0.00283432)
(1.19389 -0.000602786 -0.00299238)
(1.19382 -0.0002507 -0.00311371)
(1.19578 -0.000110721 -0.00176457)
(1.19567 -0.000121207 -0.00196117)
(1.19608 -9.98504e-05 -0.00173737)
(1.19628 -0.000299232 -0.00183778)
(1.19601 -0.000107302 -0.00190788)
(1.19709 -5.85606e-05 -0.00109303)
(1.19703 -6.2196e-05 -0.00121361)
(1.19727 -5.48502e-05 -0.00107832)
(1.19767 -0.000168043 -0.00114102)
(1.19723 -5.75983e-05 -0.00118301)
(1.19788 -3.93872e-05 -0.000684555)
(1.19784 -4.08022e-05 -0.000759402)
(1.19799 -3.76883e-05 -0.000676449)
(1.19851 -0.000104621 -0.000715124)
(1.19796 -3.88095e-05 -0.000741799)
(1.19838 -3.11677e-05 -0.000432041)
(1.19836 -3.17258e-05 -0.000478885)
(1.19846 -3.04181e-05 -0.000427)
(1.19902 -7.07053e-05 -0.000451234)
(1.19843 -3.0761e-05 -0.000468137)
(1.19873 -2.86867e-05 -0.000272834)
(1.1987 -2.86716e-05 -0.000302506)
(1.19877 -2.87071e-05 -0.000270064)
(1.19934 -5.25171e-05 -0.000285641)
(1.19876 -2.87182e-05 -0.000296102)
(1.19898 -2.90907e-05 -0.000173078)
(1.19896 -2.90607e-05 -0.000191835)
(1.19901 -2.93426e-05 -0.000171047)
(1.19954 -4.18583e-05 -0.000181432)
(1.19899 -2.93492e-05 -0.000187791)
(1.19916 -3.03207e-05 -0.000109365)
(1.19915 -3.00005e-05 -0.000120964)
(1.19919 -3.11516e-05 -0.000107804)
(1.19965 -3.46806e-05 -0.000114415)
(1.19917 -3.05688e-05 -0.000118076)
(1.19932 -3.70635e-05 -6.797e-05)
(1.1993 -3.62085e-05 -7.55477e-05)
(1.19934 -3.80969e-05 -6.65665e-05)
(1.19973 -3.44686e-05 -7.09771e-05)
(1.19933 -3.71569e-05 -7.31995e-05)
(1.19947 -4.50277e-05 -3.91227e-05)
(1.19945 -4.42447e-05 -4.43468e-05)
(1.19949 -4.52062e-05 -3.77467e-05)
(1.19977 -3.61592e-05 -4.11782e-05)
(1.19947 -4.5149e-05 -4.2387e-05)
(1.36533 -0.0165066 -0.0087675)
(1.33887 -0.0115686 -0.0045472)
(1.32376 -0.0390571 -0.0119093)
(1.33387 -0.0136178 -0.00425206)
(1.31246 -0.0117762 -0.0108931)
(1.20664 -0.0864568 -0.020267)
(1.22587 -0.0672755 -0.0202745)
(1.20911 -0.0564295 -0.0107104)
(1.2093 -0.0570465 -0.0123085)
(1.20363 -0.0563947 -0.0200631)
(1.21605 -0.0610093 -0.0208835)
(1.18131 -0.0264578 -0.0104683)
(1.18243 -0.0273417 -0.0145997)
(1.18551 -0.0320016 -0.0154641)
(1.18334 -0.026322 -0.0105734)
(1.18578 -0.0249541 -0.0135769)
(1.1901 -0.0275187 -0.0144684)
(1.18682 -0.0104199 -0.00718859)
(1.18737 -0.0102014 -0.00823101)
(1.18815 -0.0120961 -0.0087899)
(1.18903 -0.00972347 -0.00758085)
(1.18991 -0.011142 -0.00802066)
(1.18812 -0.0102099 -0.00718317)
(1.19161 -0.00489452 -0.00442019)
(1.19163 -0.00450472 -0.00467776)
(1.19165 -0.00536594 -0.00494818)
(1.19247 -0.00447931 -0.0043319)
(1.19258 -0.00519276 -0.00453484)
(1.19227 -0.00475201 -0.00461757)
(1.19477 -0.00256243 -0.00269102)
(1.19477 -0.00229864 -0.00284173)
(1.19464 -0.00273427 -0.00298375)
(1.19523 -0.00234795 -0.0026469)
(1.19517 -0.00272357 -0.00275953)
(1.19514 -0.00248041 -0.00290022)
(1.19673 -0.0014376 -0.00167209)
(1.19675 -0.00128129 -0.00176465)
(1.19664 -0.00152346 -0.00185499)
(1.19701 -0.00132735 -0.00164928)
(1.19695 -0.00154052 -0.00172322)
(1.19695 -0.00139626 -0.00180843)
(1.19794 -0.000842217 -0.00104804)
(1.19796 -0.000749016 -0.00110442)
(1.19789 -0.000889863 -0.00116213)
(1.19812 -0.000781836 -0.00103502)
(1.19807 -0.000908016 -0.00108309)
(1.19808 -0.000820925 -0.00113438)
(1.1987 -0.000507268 -0.00066159)
(1.19871 -0.000451126 -0.000696188)
(1.19866 -0.000535163 -0.000733058)
(1.1988 -0.000472857 -0.000653912)
(1.19877 -0.000549617 -0.00068506)
(1.19878 -0.000496158 -0.000716244)
(1.19917 -0.000311115 -0.000419722)
(1.19918 -0.000277002 -0.00044123)
(1.19915 -0.000328095 -0.00046495)
(1.19924 -0.000290894 -0.000415151)
(1.19922 -0.000339095 -0.000435452)
(1.19922 -0.000305345 -0.000454627)
(1.19947 -0.000192247 -0.00026654)
(1.19947 -0.000172161 -0.000280165)
(1.19945 -0.000202897 -0.000295404)
(1.19951 -0.000179751 -0.000263682)
(1.1995 -0.000211295 -0.000276913)
(1.1995 -0.000188999 -0.000288926)
(1.19966 -0.000117354 -0.000169327)
(1.19966 -0.000106818 -0.000177993)
(1.19965 -0.00012416 -0.00018758)
(1.19969 -0.000109428 -0.000167474)
(1.19968 -0.000131443 -0.000175966)
(1.19968 -0.000115328 -0.000183439)
(1.19978 -6.94414e-05 -0.000107639)
(1.19978 -6.56544e-05 -0.000113058)
(1.19977 -7.39533e-05 -0.000119277)
(1.1998 -6.45518e-05 -0.000106367)
(1.19979 -8.14779e-05 -0.000112149)
(1.19979 -6.85335e-05 -0.000116642)
(1.19985 -3.79864e-05 -6.7095e-05)
(1.19985 -3.97651e-05 -7.05093e-05)
(1.19985 -4.12098e-05 -7.45947e-05)
(1.19986 -3.46332e-05 -6.58278e-05)
(1.19986 -4.93264e-05 -7.00782e-05)
(1.19986 -3.75558e-05 -7.24608e-05)
(1.1999 -1.6116e-05 -3.87807e-05)
(1.1999 -2.23945e-05 -4.09386e-05)
(1.1999 -1.83306e-05 -4.36785e-05)
(1.1999 -1.41419e-05 -3.75459e-05)
(1.1999 -2.66464e-05 -4.08171e-05)
(1.1999 -1.59946e-05 -4.20049e-05)
(1.26252 0.00134092 -0.00260705)
(1.25657 0.00218568 -0.0141861)
(1.2532 -0.00152568 -0.0157188)
(1.25201 0.00837108 -0.0141177)
(1.25811 0.00141858 -0.00499771)
(1.22371 -0.0169769 -0.0209234)
(1.21641 -0.0188511 -0.00668967)
(1.22248 -0.0190348 -0.0210931)
(1.22096 -0.00675263 -0.0204264)
(1.21739 -0.0182101 -0.0101723)
(1.21551 -0.0183779 -0.0200232)
(1.1962 -0.0167931 -0.00766419)
(1.20226 -0.0166474 -0.0134145)
(1.20232 -0.0168902 -0.0141541)
(1.20014 -0.015505 -0.0121343)
(1.20375 -0.0137719 -0.012778)
(1.19838 -0.0161702 -0.00820171)
(1.19435 -0.010501 -0.00565514)
(1.19599 -0.0104002 -0.00710567)
(1.19674 -0.0109997 -0.00750044)
(1.19625 -0.00967526 -0.00642208)
(1.19739 -0.00990819 -0.00671688)
(1.19552 -0.0101144 -0.00563095)
(1.19539 -0.00618298 -0.00365184)
(1.19548 -0.00605456 -0.00398106)
(1.19588 -0.00651785 -0.00415851)
(1.196 -0.00571014 -0.00364065)
(1.19633 -0.00606691 -0.00376601)
(1.19595 -0.00596846 -0.00376508)
(1.1967 -0.00366006 -0.00229169)
(1.1966 -0.00352525 -0.00244583)
(1.19671 -0.00385283 -0.00253185)
(1.19699 -0.00338601 -0.00226103)
(1.1971 -0.00364929 -0.00232753)
(1.197 -0.00354194 -0.0024654)
(1.19777 -0.00219765 -0.00146509)
(1.19772 -0.00210156 -0.00156061)
(1.19775 -0.0023124 -0.00161921)
(1.19796 -0.00204036 -0.00144969)
(1.19801 -0.00221453 -0.00149738)
(1.19796 -0.00213452 -0.00158438)
(1.19853 -0.00133981 -0.000940675)
(1.19851 -0.00127713 -0.000998778)
(1.19851 -0.00140973 -0.0010402)
(1.19866 -0.00124834 -0.000931327)
(1.19867 -0.00135988 -0.00096565)
(1.19865 -0.00130673 -0.00101827)
(1.19904 -0.000826763 -0.000604995)
(1.19903 -0.000787002 -0.000640703)
(1.19903 -0.000870073 -0.000668968)
(1.19913 -0.000772621 -0.000599247)
(1.19913 -0.000843322 -0.000623088)
(1.19912 -0.000809172 -0.000655177)
(1.19938 -0.000517458 -0.00038971)
(1.19937 -0.000492152 -0.000411918)
(1.19937 -0.000544242 -0.000430939)
(1.19944 -0.000484912 -0.000386124)
(1.19944 -0.000529787 -0.000402346)
(1.19943 -0.000507896 -0.000422135)
(1.1996 -0.000324672 -0.000249526)
(1.1996 -0.00030869 -0.000263591)
(1.19959 -0.000342 -0.000276433)
(1.19964 -0.000304279 -0.000247036)
(1.19964 -0.000333092 -0.00025797)
(1.19963 -0.000319056 -0.000270629)
(1.19974 -0.000204004 -0.000160117)
(1.19974 -0.000193921 -0.000168582)
(1.19974 -0.00021515 -0.000176932)
(1.19977 -0.000191594 -0.000158674)
(1.19977 -0.000210256 -0.000165959)
(1.19977 -0.000201384 -0.000173371)
(1.19984 -0.000126946 -0.000103622)
(1.19984 -0.000120861 -0.000108962)
(1.19983 -0.000134358 -0.00011464)
(1.19985 -0.000119024 -0.000102578)
(1.19985 -0.000130853 -0.00010765)
(1.19985 -0.000125635 -0.000112389)
(1.19989 -7.58062e-05 -6.51832e-05)
(1.19989 -7.25568e-05 -6.83723e-05)
(1.19989 -8.09209e-05 -7.23392e-05)
(1.1999 -7.04258e-05 -6.39344e-05)
(1.1999 -7.85265e-05 -6.75299e-05)
(1.1999 -7.49644e-05 -7.02964e-05)
(1.19993 -4.14757e-05 -3.83848e-05)
(1.19993 -4.09042e-05 -4.03602e-05)
(1.19993 -4.48748e-05 -4.29615e-05)
(1.19993 -3.78521e-05 -3.70931e-05)
(1.19993 -4.42746e-05 -3.99034e-05)
(1.19993 -4.10189e-05 -4.13483e-05)
(1.32378 0.0776375 -0.008345)
(1.30523 0.0650438 -0.00199612)
(1.30972 0.0869843 -0.000576539)
(1.33024 0.0780541 -0.000324494)
(1.32141 0.0866369 -0.00511915)
(1.1893 0.00158304 -0.0143747)
(1.19007 -0.00618572 -0.00725819)
(1.20168 0.0116934 -0.0156673)
(1.1855 0.00918474 -0.0132979)
(1.19084 -0.00379382 -0.00863911)
(1.19299 0.00177213 -0.0137076)
(1.19494 -0.00402793 -0.00978111)
(1.19332 -0.00810135 -0.00587158)
(1.20046 -0.00720213 -0.00983618)
(1.20029 -0.00918528 -0.00858413)
(1.19472 -0.00687679 -0.00623208)
(1.19713 -0.00620791 -0.00850071)
(1.19806 -0.00810781 -0.00420826)
(1.19955 -0.0077082 -0.00530685)
(1.19945 -0.00752546 -0.00542835)
(1.19922 -0.00721308 -0.00469797)
(1.19978 -0.0074555 -0.00478751)
(1.19885 -0.00759002 -0.00421636)
(1.19832 -0.00571289 -0.00279198)
(1.19839 -0.00564237 -0.00306987)
(1.19871 -0.00581394 -0.0031462)