/*--------------------------------*- C++ -*----------------------------------*\
| =========                 |                                                 |
| \\      /  F ield         | OpenFOAM: The Open Source CFD Toolbox           |
|  \\    /   O peration     | Version:  2012                                  |
|   \\  /    A nd           | Website:  www.openfoam.com                      |
|    \\/     M anipulation  |                                                 |
\*---------------------------------------------------------------------------*/
FoamFile
{
    version     2.0;
    format      ascii;
    class       volVectorField;
    location    "0.105/solid";
    object      D_0;
}
// * * * * * * * * * * * * * * * * * * * * * * * * * * * * * * * * * * * * * //

dimensions      [0 1 0 0 0 0 0];


internalField   nonuniform List<vector> 
3125
(
(5.83377e-11 2.24581e-10 -3.45167e-12)
(5.07032e-11 2.13659e-10 -4.49424e-12)
(3.21907e-11 1.89386e-10 3.51871e-11)
(5.92882e-11 2.25741e-10 -3.49274e-12)
(5.23572e-11 2.15563e-10 -4.46551e-12)
(3.11732e-11 1.95121e-10 2.28311e-11)
(6.42453e-11 2.30525e-10 -3.78819e-12)
(5.59725e-11 2.21292e-10 -3.60147e-12)
(4.34251e-11 2.06537e-10 -1.74905e-12)
(6.28155e-11 2.28975e-10 -3.66013e-12)
(5.5347e-11 2.20049e-10 -3.74447e-12)
(4.01444e-11 2.03808e-10 1.22547e-12)
(3.32678e-10 3.89802e-10 -3.40334e-12)
(4.29747e-11 1.49872e-10 -2.76623e-12)
(1.96942e-10 8.89344e-10 -7.34219e-12)
(5.74705e-11 2.235e-10 -3.42631e-12)
(3.3955e-10 3.94773e-10 -3.05886e-12)
(1.93866e-10 8.83782e-10 -5.89095e-12)
(4.1811e-11 1.48974e-10 -2.80847e-12)
(2.91763e-10 3.61435e-10 2.2471e-12)
(3.34478e-11 1.41251e-10 -3.38808e-12)
(1.78031e-10 8.51724e-10 -7.64662e-12)
(4.86972e-11 2.11516e-10 -4.22835e-12)
(3.07256e-10 3.71018e-10 -1.40093e-12)
(1.70875e-10 8.39725e-10 -3.99374e-12)
(3.07455e-11 1.39535e-10 -3.10494e-12)
(2.54723e-10 3.13604e-10 1.33353e-10)
(1.04567e-12 1.25673e-10 2.27346e-11)
(1.32104e-10 7.58961e-10 1.26388e-10)
(4.17543e-11 1.74312e-10 4.97832e-11)
(2.12784e-10 3.3452e-10 7.54191e-11)
(1.68676e-10 6.631e-10 2.28068e-10)
(1.11013e-11 1.1908e-10 3.11583e-11)
(2.14597e-10 9.61568e-10 -6.44415e-12)
(2.18129e-10 9.67783e-10 -7.31204e-12)
(3.47717e-10 3.9996e-10 -2.62049e-12)
(6.03588e-11 2.26839e-10 -3.40045e-12)
(4.41763e-11 1.50791e-10 -2.81869e-12)
(1.98083e-10 8.91391e-10 -6.1247e-12)
(3.39987e-10 3.94928e-10 -3.20119e-12)
(2.01892e-10 8.97442e-10 -7.01378e-12)
(4.55491e-11 1.51711e-10 -2.74403e-12)
(2.13586e-10 9.59422e-10 -7.57583e-12)
(2.10889e-10 9.53561e-10 -6.20068e-12)
(1.98541e-10 9.23667e-10 -7.17864e-12)
(2.0285e-10 9.33172e-10 -8.3674e-12)
(3.18668e-10 3.78675e-10 -3.0153e-12)
(5.36749e-11 2.17239e-10 -4.24058e-12)
(3.5636e-11 1.42774e-10 -3.47433e-12)
(1.8005e-10 8.54862e-10 -6.71865e-12)
(3.08234e-10 3.7137e-10 -1.89591e-12)
(1.84875e-10 8.64074e-10 -8.06219e-12)
(3.73537e-11 1.44109e-10 -3.28743e-12)
(1.96854e-10 9.20394e-10 -8.01987e-12)
(1.90512e-10 9.08127e-10 -4.53691e-12)
(1.6225e-10 8.24708e-10 1.13793e-10)
(1.65711e-10 8.56258e-10 4.94209e-11)
(2.33944e-10 3.37411e-10 3.69664e-11)
(3.33033e-11 1.98342e-10 1.31835e-11)
(1.48206e-12 1.28014e-10 1.55565e-11)
(1.3113e-10 7.70313e-10 1.02309e-10)
(2.12102e-10 3.33381e-10 6.9463e-11)
(1.38283e-10 7.93115e-10 4.59532e-11)
(6.55711e-12 1.29588e-10 9.77898e-12)
(1.64268e-10 8.08121e-10 1.43091e-10)
(1.98675e-10 6.84482e-10 2.72686e-10)
(2.09568e-10 9.07267e-10 -6.46325e-12)
(5.04437e-11 1.54749e-10 -2.81909e-12)
(3.58643e-10 4.06159e-10 -2.02054e-12)
(2.42537e-10 1.17164e-09 -5.84247e-12)
(3.05622e-11 4.4063e-11 -1.08043e-12)
(2.61964e-11 4.28385e-11 -7.1995e-13)
(2.48406e-11 4.2426e-11 -1.29451e-12)
(2.28965e-10 1.14893e-09 -5.89662e-12)
(2.25629e-10 1.14239e-09 -5.54122e-12)
(3.3231e-10 3.89665e-10 -3.25788e-12)
(5.6675e-11 2.2244e-10 -3.46165e-12)
(1.90113e-10 8.75913e-10 -6.27838e-12)
(3.99526e-11 1.47195e-10 -2.84387e-12)
(1.92874e-10 8.82236e-10 -7.21907e-12)
(3.26245e-10 3.84721e-10 -3.5446e-12)
(4.07834e-11 1.48096e-10 -2.76327e-12)
(2.21501e-10 1.13235e-09 -5.79372e-12)
(2.24562e-10 1.14036e-09 -5.78834e-12)
(2.37743e-11 4.19056e-11 -1.28946e-12)
(2.46508e-11 4.22945e-11 -7.5345e-13)
(2.05169e-11 4.04948e-11 -7.99195e-13)
(1.73644e-11 3.98124e-11 -9.45434e-13)
(2.08171e-10 1.10118e-09 -4.81494e-12)
(2.00167e-10 1.08589e-09 -1.2344e-12)
(2.90179e-10 3.60956e-10 3.27174e-12)
(4.62845e-11 2.0914e-10 -3.40634e-12)
(1.57754e-10 8.20805e-10 6.33354e-12)
(2.33218e-11 1.35549e-10 -9.63618e-13)
(1.67968e-10 8.35729e-10 -3.62204e-12)
(2.67947e-10 3.49142e-10 1.23506e-11)
(2.74232e-11 1.37629e-10 -2.32079e-12)
(1.85692e-10 1.06119e-09 1.14291e-11)
(1.97036e-10 1.08049e-09 6.57305e-13)
(1.16786e-11 3.88106e-11 3.07961e-13)
(1.65348e-11 3.95848e-11 -2.16943e-13)
(-8.80194e-12 3.58523e-11 6.56457e-12)
(2.86328e-12 3.20426e-11 8.78238e-12)
(1.49112e-10 9.79844e-10 1.58341e-10)
(1.83656e-10 8.68021e-10 2.73498e-10)
(2.65743e-10 3.00305e-10 1.46545e-10)
(3.74034e-11 7.78744e-11 4.04561e-11)
(2.01165e-10 6.01662e-10 2.71234e-10)
(8.48584e-12 4.86131e-11 1.26229e-11)
(2.19775e-10 7.96431e-10 3.13513e-10)
(1.53728e-11 3.04362e-11 9.88483e-12)
(2.24839e-10 9.78232e-10 -6.81769e-12)
(2.22998e-10 9.74781e-10 -7.9437e-12)
(2.192e-10 9.68833e-10 -6.06788e-12)
(3.48423e-10 4.00133e-10 -2.7105e-12)
(6.15433e-11 2.27809e-10 -3.42642e-12)
(2.07723e-10 9.03814e-10 -7.60938e-12)
(4.89168e-11 1.53659e-10 -2.76261e-12)
(3.58119e-10 4.06076e-10 -1.98065e-12)
(2.03266e-10 8.98392e-10 -5.60193e-12)
(4.72043e-11 1.52641e-10 -2.79487e-12)
(2.64697e-11 4.29683e-11 -1.25963e-12)
(2.80345e-11 4.33816e-11 -6.6032e-13)
(2.30188e-10 1.15186e-09 -5.8089e-12)
(2.34344e-10 1.15995e-09 -5.57585e-12)
(2.40472e-10 1.16624e-09 -5.80065e-12)
(2.35784e-10 1.1609e-09 -5.14007e-12)
(3.01756e-11 4.3948e-11 -5.56218e-13)
(2.83566e-11 4.35122e-11 -1.2173e-12)
(2.07494e-10 9.45442e-10 -6.61343e-12)
(2.10058e-10 9.51963e-10 -7.41967e-12)
(2.06704e-10 9.43269e-10 -7.88956e-12)
(2.03941e-10 9.3562e-10 -7.10928e-12)
(3.19167e-10 3.78896e-10 -3.28252e-12)
(5.46491e-11 2.18714e-10 -3.98458e-12)
(1.89203e-10 8.73826e-10 -7.63205e-12)
(3.92939e-11 1.46262e-10 -2.86207e-12)
(3.25972e-10 3.84551e-10 -3.36912e-12)
(1.86163e-10 8.66451e-10 -6.71683e-12)
(3.85459e-11 1.45259e-10 -3.09443e-12)
(2.10354e-11 4.06955e-11 -1.37657e-12)
(2.31148e-11 4.1271e-11 -8.69231e-13)
(2.10357e-10 1.10549e-09 -5.19609e-12)
(2.15683e-10 1.11713e-09 -6.03747e-12)
(2.20506e-10 1.12948e-09 -6.00148e-12)
(2.1709e-10 1.12036e-09 -5.8789e-12)
(2.38082e-11 4.17956e-11 -7.49043e-13)
(2.33109e-11 4.14224e-11 -1.36346e-12)
(1.69189e-10 1.17265e-09 -1.909e-12)
(1.8017e-10 8.87728e-10 6.19095e-12)
(1.88216e-10 9.0402e-10 -4.00215e-12)
(1.5875e-10 1.14864e-09 1.10617e-11)
(1.66765e-10 1.16814e-09 -1.15523e-13)
(1.77296e-10 8.82273e-10 1.01508e-11)
(1.68351e-10 8.63033e-10 3.71223e-11)
(1.351e-10 1.06106e-09 1.40788e-10)
(1.41517e-10 1.10277e-09 6.37833e-11)
(1.55563e-10 1.14084e-09 1.70962e-11)
(1.45203e-10 1.11408e-09 4.78161e-11)
(2.36782e-10 3.37316e-10 3.32188e-11)
(3.66175e-11 2.01062e-10 6.02663e-12)
(1.53921e-10 8.15875e-10 9.88583e-12)
(1.83597e-11 1.33396e-10 1.39315e-12)
(2.65518e-10 3.48621e-10 1.44218e-11)
(1.42113e-10 7.98583e-10 3.5061e-11)
(1.26072e-11 1.31343e-10 4.91542e-12)
(-8.58113e-12 3.65697e-11 5.67307e-12)
(3.35313e-13 3.75954e-11 4.18399e-12)
(1.49817e-10 9.94156e-10 1.26819e-10)
(1.61839e-10 1.02396e-09 5.95108e-11)
(1.81296e-10 1.05437e-09 1.69828e-11)
(1.66962e-10 1.03166e-09 4.5211e-11)
(1.0235e-11 3.85748e-11 1.33655e-12)
(2.65533e-12 3.78121e-11 2.86783e-12)
(1.35583e-10 1.03897e-09 1.78576e-10)
(1.67513e-10 8.87897e-10 3.23603e-10)
(6.20192e-11 7.59245e-11 5.5047e-11)
(2.3146e-10 6.11145e-10 3.28741e-10)
(2.018e-10 7.98457e-10 3.75208e-10)
(1.36108e-10 1.86255e-10 1.67012e-10)
(3.63434e-11 1.19497e-11 5.97905e-11)
(2.05542e-10 1.94428e-10 2.68624e-10)
(1.95507e-11 1.72372e-11 3.24161e-11)
(4.33681e-11 7.55196e-12 7.29246e-11)
(2.3697e-10 1.82916e-10 3.1022e-10)
(1.41463e-10 4.41266e-10 -5.36254e-12)
(3.35868e-10 3.92194e-10 -3.15787e-12)
(2.28576e-10 5.8525e-10 -4.72088e-12)
(1.79029e-10 3.06372e-10 -4.43464e-12)
(1.80589e-10 3.07555e-10 -4.03305e-12)
(2.30029e-10 5.86788e-10 -5.50501e-12)
(1.40244e-10 4.39921e-10 -5.0771e-12)
(1.42585e-10 4.42075e-10 -5.07748e-12)
(3.36312e-10 3.92359e-10 -3.30482e-12)
(1.83475e-10 3.09483e-10 -3.95946e-12)
(2.32931e-10 5.89764e-10 -5.51693e-12)
(1.43824e-10 4.4353e-10 -5.36611e-12)
(1.81885e-10 3.08238e-10 -4.39012e-12)
(2.31471e-10 5.88092e-10 -4.70506e-12)
(1.18599e-10 4.17002e-10 -5.03332e-12)
(2.99515e-10 3.66272e-10 3.8399e-13)
(1.97287e-10 5.50579e-10 -1.53477e-12)
(1.49059e-10 2.85804e-10 -2.42562e-12)
(1.53017e-10 2.88213e-10 -2.87158e-12)
(2.00987e-10 5.5407e-10 -3.48334e-12)
(1.15435e-10 4.14053e-10 -3.94484e-12)
(1.21173e-10 4.18697e-10 -5.25968e-12)
(3.00783e-10 3.66715e-10 -3.23676e-13)
(1.59234e-10 2.9168e-10 -3.8648e-12)
(2.0731e-10 5.60031e-10 -4.96318e-12)
(1.23743e-10 4.21337e-10 -5.8842e-12)
(1.55994e-10 2.89494e-10 -3.8361e-12)
(2.04277e-10 5.56912e-10 -3.5866e-12)
(7.40631e-11 3.74893e-10 9.46462e-11)
(2.26997e-10 3.32428e-10 1.03257e-10)
(1.72052e-10 4.74164e-10 1.60884e-10)
(1.02319e-10 2.4868e-10 8.86189e-11)
(8.37415e-11 2.6002e-10 7.38307e-11)
(1.51469e-10 4.96007e-10 1.35189e-10)
(9.36153e-11 3.55095e-10 1.15953e-10)
(6.53735e-11 3.8104e-10 8.03814e-11)
(2.1934e-10 3.3215e-10 9.52823e-11)
(7.77292e-11 2.6651e-10 5.31669e-11)
(1.33368e-10 5.10659e-10 9.45645e-11)
(6.17488e-11 3.86571e-10 6.56258e-11)
(7.7407e-11 2.62985e-10 6.27526e-11)
(1.38761e-10 5.0544e-10 1.14648e-10)
(1.47628e-10 4.46864e-10 -5.00122e-12)
(3.43787e-10 3.97393e-10 -2.9992e-12)
(2.39383e-10 5.96097e-10 -5.26707e-12)
(1.89923e-10 3.13284e-10 -3.82853e-12)
(1.49232e-10 4.48215e-10 -5.26035e-12)
(1.87935e-10 3.1201e-10 -4.22465e-12)
(2.37519e-10 5.94553e-10 -4.58234e-12)
(1.46322e-10 4.45973e-10 -5.32866e-12)
(3.43293e-10 3.97256e-10 -2.89313e-12)
(1.84791e-10 3.10154e-10 -4.32062e-12)
(2.34369e-10 5.91264e-10 -4.70419e-12)
(1.44977e-10 4.44441e-10 -5.07259e-12)
(1.8647e-10 3.11347e-10 -3.88236e-12)
(2.35897e-10 5.9307e-10 -5.47646e-12)
(1.29621e-10 4.26443e-10 -5.86547e-12)
(3.14321e-10 3.75404e-10 -2.79932e-12)
(2.16595e-10 5.69752e-10 -5.8607e-12)
(1.68306e-10 2.97369e-10 -4.3676e-12)
(1.31229e-10 4.28486e-10 -6.03383e-12)
(1.6625e-10 2.95685e-10 -4.78537e-12)
(2.14641e-10 5.67366e-10 -5.0396e-12)
(1.27945e-10 4.25131e-10 -6.1442e-12)
(3.13584e-10 3.75104e-10 -2.44453e-12)
(1.61657e-10 2.92804e-10 -4.55799e-12)
(2.09995e-10 5.62486e-10 -4.61406e-12)
(1.25842e-10 4.22818e-10 -5.80611e-12)
(1.64324e-10 2.94695e-10 -4.31944e-12)
(2.12477e-10 5.65198e-10 -5.65777e-12)
(6.90461e-11 3.89822e-10 3.56148e-11)
(2.21525e-10 3.34118e-10 4.91808e-11)
(1.47462e-10 5.18394e-10 3.92643e-11)
(9.84098e-11 2.68775e-10 2.45483e-11)
(7.43364e-11 3.91942e-10 2.65403e-11)
(9.14103e-11 2.67485e-10 3.08472e-11)
(1.41381e-10 5.15709e-10 5.09769e-11)
(6.50646e-11 3.89094e-10 4.3694e-11)
(2.19525e-10 3.34906e-10 5.39509e-11)
(8.0564e-11 2.66514e-10 4.50612e-11)
(1.33218e-10 5.12183e-10 7.85632e-11)
(6.21258e-11 3.87265e-10 5.52268e-11)
(8.58663e-11 2.6747e-10 3.75977e-11)
(1.36396e-10 5.14031e-10 6.28772e-11)
(1.61501e-10 4.57644e-10 -4.48493e-12)
(3.63615e-10 4.08674e-10 -9.83575e-13)
(2.54249e-10 6.09312e-10 -3.40056e-12)
(2.04067e-10 3.20451e-10 -3.31882e-12)
(1.594e-10 4.56349e-10 -4.97491e-12)
(3.62801e-10 4.08564e-10 -1.16357e-12)
(2.49644e-10 6.04217e-10 -4.182e-12)
(1.99728e-10 3.18347e-10 -3.61009e-12)
(2.51667e-10 6.07052e-10 -4.75034e-12)
(2.01823e-10 3.19662e-10 -3.05143e-12)
(1.57564e-10 4.54104e-10 -4.8357e-12)
(3.68863e-10 7.62912e-10 -2.91055e-12)
(2.44941e-10 1.17793e-09 -5.77772e-12)
(3.14303e-10 8.80047e-10 -4.61854e-12)
(3.1828e-10 8.87861e-10 -3.95073e-12)
(2.47512e-10 1.18301e-09 -4.62469e-12)
(3.19732e-10 8.89943e-10 -3.85485e-12)
(3.6311e-10 7.5475e-10 -3.62645e-12)
(3.67281e-10 7.61171e-10 -2.77596e-12)
(2.36345e-10 2.36818e-10 -1.73919e-12)
(1.54725e-10 1.60595e-10 -2.07549e-12)
(3.1506e-11 4.41951e-11 -5.20168e-13)
(1.57325e-10 1.61234e-10 -1.82396e-12)
(2.31762e-10 2.35517e-10 -2.21739e-12)
(2.35373e-10 2.36645e-10 -2.24476e-12)
(3.20049e-11 4.43199e-11 -9.68814e-13)
(1.58767e-10 1.61489e-10 -1.79263e-12)
(2.08605e-10 2.25465e-10 -3.12531e-12)
(2.1133e-10 2.26813e-10 -3.42579e-12)
(1.40618e-10 1.55345e-10 -2.4373e-12)
(2.57679e-11 4.27176e-11 -1.24415e-12)
(1.39129e-10 1.54608e-10 -2.6485e-12)
(2.14559e-10 2.28412e-10 -3.34056e-12)
(2.11901e-10 2.27051e-10 -3.07252e-12)
(1.36168e-10 1.53453e-10 -2.72479e-12)
(2.55114e-11 4.25858e-11 -7.9298e-13)
(1.38265e-10 1.54205e-10 -2.54721e-12)
(3.40396e-10 7.32444e-10 -4.63341e-12)
(3.42737e-10 7.3517e-10 -4.22075e-12)
(2.98703e-10 8.63063e-10 -4.93302e-12)
(2.27842e-10 1.14626e-09 -5.63236e-12)
(2.96536e-10 8.59794e-10 -5.09243e-12)
(3.45931e-10 7.38796e-10 -4.18527e-12)
(3.43506e-10 7.35721e-10 -4.57972e-12)
(2.93744e-10 8.56431e-10 -5.12294e-12)
(2.26748e-10 1.14425e-09 -5.67283e-12)
(2.95847e-10 8.59113e-10 -4.87835e-12)
(1.38172e-10 4.37682e-10 -5.13379e-12)
(2.27246e-10 5.83955e-10 -5.55569e-12)
(3.29365e-10 3.87301e-10 -3.49517e-12)
(1.77864e-10 3.05716e-10 -4.03056e-12)
(1.39221e-10 4.39116e-10 -5.36907e-12)
(2.25953e-10 5.82298e-10 -4.81604e-12)
(1.76517e-10 3.04499e-10 -4.45678e-12)
(1.37277e-10 4.36767e-10 -5.45915e-12)
(3.29066e-10 3.87147e-10 -3.34324e-12)
(2.23546e-10 5.78995e-10 -4.90775e-12)
(1.743e-10 3.02572e-10 -4.52608e-12)
(2.24752e-10 5.80813e-10 -5.65638e-12)
(1.75515e-10 3.03815e-10 -4.09123e-12)
(1.36329e-10 4.35201e-10 -5.25057e-12)
(3.39666e-10 7.31824e-10 -4.27169e-12)
(3.37456e-10 7.28798e-10 -4.69521e-12)
(2.22529e-10 1.13513e-09 -5.9046e-12)
(2.88553e-10 8.47884e-10 -5.27404e-12)
(2.90484e-10 8.5154e-10 -5.02782e-12)
(2.93084e-10 8.55691e-10 -4.9285e-12)
(2.23545e-10 1.13782e-09 -5.73824e-12)
(2.91115e-10 8.5249e-10 -5.223e-12)
(3.34594e-10 7.24631e-10 -4.71395e-12)
(3.36757e-10 7.28024e-10 -4.3284e-12)
(2.08111e-10 2.25238e-10 -3.45836e-12)
(2.05884e-10 2.23951e-10 -3.1762e-12)
(1.32136e-10 1.51305e-10 -2.75695e-12)
(2.42287e-11 4.20502e-11 -8.06929e-13)
(1.33689e-10 1.51989e-10 -2.59372e-12)
(2.03376e-10 2.22416e-10 -3.2254e-12)
(2.05476e-10 2.23714e-10 -3.51477e-12)
(1.35463e-10 1.53062e-10 -2.52096e-12)
(2.4348e-11 4.21794e-11 -1.25672e-12)
(1.3425e-10 1.52377e-10 -2.70653e-12)
(1.74159e-10 2.08834e-10 -5.87942e-13)
(1.80938e-10 2.11473e-10 -2.02233e-12)
(1.20005e-10 1.45374e-10 -2.35841e-12)
(1.95003e-11 4.02832e-11 -1.19811e-12)
(1.16574e-10 1.44074e-10 -2.30572e-12)
(1.87752e-10 2.14226e-10 -2.97953e-12)
(1.82277e-10 2.11873e-10 -2.03726e-12)
(1.09807e-10 1.41958e-10 -1.46571e-12)
(1.88342e-11 4.0067e-11 -6.33391e-13)
(1.14503e-10 1.43438e-10 -1.7433e-12)
(3.03849e-10 6.88679e-10 1.08062e-12)
(3.10007e-10 6.95269e-10 -8.31741e-13)
(2.72731e-10 8.23737e-10 -3.79046e-12)
(2.05775e-10 1.0962e-09 -3.90257e-12)
(2.68153e-10 8.17485e-10 -2.78393e-12)
(3.16917e-10 7.0262e-10 -2.69188e-12)
(3.11828e-10 6.96767e-10 -1.76714e-12)
(2.6095e-10 8.0871e-10 -6.59654e-15)
(2.03186e-10 1.09106e-09 -2.91268e-12)
(2.66527e-10 8.15699e-10 -2.03337e-12)
(1.08483e-10 4.08955e-10 -1.43883e-12)
(1.93302e-10 5.47427e-10 -7.65574e-13)
(2.80897e-10 3.55522e-10 6.2872e-12)
(1.4542e-10 2.8439e-10 -1.00001e-12)
(1.1231e-10 4.12195e-10 -3.23925e-12)
(1.88834e-10 5.43551e-10 2.01054e-12)
(1.40643e-10 2.81714e-10 5.5049e-14)
(1.04691e-10 4.06933e-10 -4.02347e-15)
(2.7889e-10 3.54965e-10 7.75602e-12)
(1.78687e-10 5.35948e-10 7.87893e-12)
(1.30418e-10 2.7738e-10 4.05866e-12)
(1.84016e-10 5.40059e-10 3.81072e-12)
(1.36187e-10 2.80168e-10 2.09852e-12)
(1.00073e-10 4.03528e-10 2.909e-12)
(3.01666e-10 6.87024e-10 2.3973e-12)
(2.94268e-10 6.79624e-10 5.73534e-12)
(1.89705e-10 1.06769e-09 6.76232e-12)
(2.42075e-10 7.88125e-10 1.23285e-11)
(2.4996e-10 7.96604e-10 6.42408e-12)
(2.58993e-10 8.06728e-10 1.13978e-12)
(1.93501e-10 1.07418e-09 3.43018e-12)
(2.52311e-10 7.98837e-10 4.66758e-12)
(2.82899e-10 6.69857e-10 1.31621e-11)
(2.91639e-10 6.77757e-10 7.62627e-12)
(1.72508e-10 2.08405e-10 -3.45657e-13)
(1.64427e-10 2.0548e-10 1.79502e-12)
(9.19909e-11 1.37077e-10 2.28279e-12)
(1.38451e-11 3.90939e-11 3.64021e-13)
(9.87894e-11 1.3891e-10 1.28694e-12)
(1.52461e-10 2.01891e-10 5.46238e-12)
(1.62355e-10 2.05026e-10 2.33593e-12)
(1.07285e-10 1.41276e-10 -5.40597e-13)
(1.49654e-11 3.93336e-11 -4.31772e-13)
(1.02101e-10 1.39615e-10 2.46475e-14)
(1.0456e-10 1.68922e-10 6.59285e-11)
(8.07551e-11 1.79874e-10 5.03016e-11)
(3.70764e-11 1.25082e-10 2.23457e-11)
(-9.07943e-12 3.46388e-11 6.55998e-12)
(3.32968e-11 1.18349e-10 2.43832e-11)
(9.00545e-11 1.90541e-10 3.85253e-11)
(8.0512e-11 1.82856e-10 4.6644e-11)
(5.20574e-11 1.04284e-10 3.37188e-11)
(-4.28882e-12 3.30126e-11 7.67269e-12)
(3.83231e-11 1.10266e-10 2.78627e-11)
(2.70199e-10 5.81025e-10 2.08472e-10)
(2.40914e-10 6.20304e-10 1.63625e-10)
(1.95267e-10 7.44128e-10 1.22118e-10)
(1.52569e-10 9.57286e-10 1.94008e-10)
(2.01467e-10 7.27844e-10 1.62696e-10)
(2.30223e-10 6.36052e-10 1.1296e-10)
(2.3568e-10 6.26059e-10 1.49535e-10)
(2.37959e-10 6.68466e-10 2.26237e-10)
(1.63028e-10 9.2193e-10 2.33032e-10)
(2.06681e-10 7.18713e-10 1.78096e-10)
(1.51524e-10 2.90701e-10 1.6712e-10)
(2.00558e-10 4.36426e-10 1.91046e-10)
(3.23859e-10 2.51623e-10 1.94935e-10)
(1.27475e-10 2.37243e-10 1.05914e-10)
(1.17241e-10 3.24079e-10 1.37272e-10)
(2.43756e-10 3.9532e-10 2.37387e-10)
(1.62264e-10 2.13737e-10 1.29655e-10)
(1.74884e-10 2.5697e-10 1.98117e-10)
(3.13221e-10 5.47035e-10 3.93814e-10)
(3.00256e-10 4.69608e-10 3.12953e-10)
(2.44667e-10 2.7835e-10 3.05782e-10)
(1.23669e-10 1.73922e-10 1.46548e-10)
(1.12947e-11 1.3873e-11 1.71366e-11)
(1.26393e-10 1.15003e-10 9.14776e-11)
(1.57589e-11 1.74731e-11 2.78406e-11)
(1.64715e-10 2.35625e-10 1.73271e-10)
(3.67152e-10 2.51853e-10 2.07192e-10)
(3.09266e-10 4.17197e-10 2.94873e-10)
(1.75907e-10 1.48496e-10 1.13315e-10)
(2.83998e-10 5.60117e-10 2.25965e-10)
(3.49757e-10 4.78864e-10 2.91139e-10)
(3.19291e-10 6.3043e-10 3.87083e-10)
(3.47839e-10 5.36783e-10 3.29798e-10)
(2.53595e-10 6.45075e-10 2.44688e-10)
(2.76498e-10 7.08309e-10 3.50484e-10)
(3.2491e-10 5.55984e-10 3.09087e-10)
(3.76393e-10 4.62445e-10 3.11472e-10)
(1.19607e-10 1.63424e-10 7.11113e-11)
(1.72859e-10 1.31037e-10 9.34228e-11)
(1.18939e-11 1.15143e-11 1.71736e-11)
(1.39965e-10 9.13526e-11 8.03853e-11)
(1.97576e-10 1.1497e-10 9.90621e-11)
(7.5356e-11 9.99239e-11 3.94407e-11)
(2.28767e-11 2.51806e-11 1.54245e-11)
(9.59728e-11 8.4997e-11 4.78425e-11)
(1.52703e-10 4.50145e-10 -5.27324e-12)
(3.53086e-10 4.03108e-10 -2.32522e-12)
(2.41418e-10 5.97173e-10 -4.34953e-12)
(1.91746e-10 3.1403e-10 -4.21114e-12)
(1.50809e-10 4.48901e-10 -4.9611e-12)
(2.43661e-10 5.98523e-10 -5.09277e-12)
(1.9412e-10 3.1541e-10 -3.80354e-12)
(1.54356e-10 4.50959e-10 -4.96086e-12)
(3.5387e-10 4.03325e-10 -2.42907e-12)
(2.47805e-10 6.01887e-10 -5.08851e-12)
(1.98135e-10 3.17658e-10 -3.44668e-12)
(1.56061e-10 4.52749e-10 -5.21981e-12)
(2.4581e-10 5.99793e-10 -4.26004e-12)
(1.96044e-10 3.16241e-10 -4.03665e-12)
(2.21973e-10 2.3158e-10 -3.12926e-12)
(2.18727e-10 2.3014e-10 -2.84418e-12)
(1.41433e-10 1.5572e-10 -2.61784e-12)
(2.72166e-11 4.31224e-11 -7.36582e-13)
(1.43663e-10 1.56453e-10 -2.41587e-12)
(2.15135e-10 2.28634e-10 -2.98151e-12)
(2.18083e-10 2.29933e-10 -3.22848e-12)
(1.46546e-10 1.57618e-10 -2.29413e-12)
(2.7535e-11 4.32548e-11 -1.18542e-12)
(1.44666e-10 1.56807e-10 -2.48765e-12)
(3.53223e-10 7.46698e-10 -3.90908e-12)
(3.5031e-10 7.43981e-10 -4.46853e-12)
(2.99443e-10 8.6406e-10 -5.15038e-12)
(2.31539e-10 1.15497e-09 -5.97257e-12)
(3.01861e-10 8.68029e-10 -4.90288e-12)
(3.46751e-10 7.39583e-10 -4.547e-12)
(3.49393e-10 7.4312e-10 -4.11951e-12)
(3.05334e-10 8.71807e-10 -4.58723e-12)
(2.32945e-10 1.15786e-09 -5.71303e-12)
(3.02697e-10 8.69089e-10 -5.07747e-12)
(3.54221e-10 7.47053e-10 -4.22455e-12)
(3.5741e-10 7.49017e-10 -3.61903e-12)
(3.13172e-10 8.78147e-10 -4.43867e-12)
(2.38748e-10 1.16267e-09 -5.26457e-12)
(3.10045e-10 8.73769e-10 -4.52542e-12)
(3.61885e-10 7.53276e-10 -3.35255e-12)
(3.58452e-10 7.49214e-10 -3.90875e-12)
(3.06246e-10 8.7219e-10 -4.73194e-12)
(2.3726e-10 1.16146e-09 -5.18181e-12)
(3.09091e-10 8.73475e-10 -4.32952e-12)
(2.22772e-10 2.31839e-10 -2.75304e-12)
(2.2675e-10 2.3356e-10 -3.03461e-12)
(1.53815e-10 1.60352e-10 -2.0081e-12)
(2.95858e-11 4.38248e-11 -1.1465e-12)
(1.51888e-10 1.5954e-10 -2.31861e-12)
(2.31068e-10 2.3535e-10 -2.68597e-12)
(2.27616e-10 2.33862e-10 -2.61371e-12)
(1.47742e-10 1.58066e-10 -2.47787e-12)
(2.92017e-11 4.36858e-11 -6.88711e-13)
(1.50571e-10 1.59035e-10 -2.27415e-12)
(1.33675e-10 4.3145e-10 -5.79282e-12)
(3.22661e-10 3.81743e-10 -3.28373e-12)
(2.18274e-10 5.71629e-10 -5.08198e-12)
(1.6972e-10 2.98231e-10 -4.74174e-12)
(1.3248e-10 4.2964e-10 -5.66553e-12)
(2.19806e-10 5.73732e-10 -5.82949e-12)
(1.71233e-10 2.99681e-10 -4.25933e-12)
(1.34597e-10 4.32519e-10 -5.41548e-12)
(3.23002e-10 3.81937e-10 -3.49214e-12)
(2.22384e-10 5.77399e-10 -5.74035e-12)
(1.73404e-10 3.01838e-10 -4.13334e-12)
(1.35513e-10 4.34206e-10 -5.58355e-12)
(2.21135e-10 5.75449e-10 -5.00645e-12)
(1.72237e-10 3.00474e-10 -4.58983e-12)
(1.97781e-10 2.18757e-10 -3.609e-12)
(1.94313e-10 2.16979e-10 -3.22279e-12)
(1.21613e-10 1.45965e-10 -2.79951e-12)
(2.20996e-11 4.09125e-11 -9.27445e-13)
(1.24952e-10 1.47107e-10 -2.71161e-12)
(1.88827e-10 2.14586e-10 -2.85248e-12)
(1.93461e-10 2.16654e-10 -3.46543e-12)
(1.28383e-10 1.48612e-10 -2.70625e-12)
(2.25138e-11 4.11e-11 -1.38082e-12)
(1.26278e-10 1.47644e-10 -2.92857e-12)
(3.27165e-10 7.14511e-10 -4.15556e-12)
(3.23802e-10 7.10082e-10 -4.22899e-12)
(2.74073e-10 8.25259e-10 -4.27952e-12)
(2.12361e-10 1.10955e-09 -5.71011e-12)
(2.7784e-10 8.30647e-10 -4.68428e-12)
(3.18407e-10 7.03894e-10 -3.37452e-12)
(3.22587e-10 7.08953e-10 -3.70252e-12)
(2.81938e-10 8.36743e-10 -5.02164e-12)
(2.14128e-10 1.11338e-09 -5.82208e-12)
(2.78933e-10 8.32002e-10 -5.01754e-12)
(3.28129e-10 7.15473e-10 -4.58558e-12)
(3.30838e-10 7.1936e-10 -4.31849e-12)
(2.87936e-10 8.46885e-10 -5.07467e-12)
(2.19492e-10 1.12636e-09 -5.89051e-12)
(2.85927e-10 8.43029e-10 -5.30371e-12)
(3.339e-10 7.23814e-10 -4.34315e-12)
(3.31625e-10 7.20221e-10 -4.70375e-12)
(2.82804e-10 8.37895e-10 -5.26211e-12)
(2.18373e-10 1.1234e-09 -6.01345e-12)
(2.8523e-10 8.41991e-10 -5.09542e-12)
(1.98368e-10 2.19049e-10 -3.30602e-12)
(2.00921e-10 2.20546e-10 -3.58331e-12)
(1.31898e-10 1.50921e-10 -2.53549e-12)
(2.37533e-11 4.16958e-11 -1.24649e-12)
(1.31209e-10 1.50259e-10 -2.73539e-12)
(2.03059e-10 2.22157e-10 -3.54155e-12)
(2.01268e-10 2.20818e-10 -3.25081e-12)
(1.29163e-10 1.49077e-10 -2.90707e-12)
(2.38086e-11 4.15744e-11 -8.25986e-13)
(1.30941e-10 1.49856e-10 -2.63623e-12)
(1.61673e-10 1.15419e-09 6.14732e-12)
(1.64332e-10 1.16104e-09 2.7471e-12)
(1.36152e-10 1.07696e-09 1.09125e-10)
(1.38319e-10 1.09032e-09 8.38994e-11)
(1.52218e-10 1.13138e-09 2.48789e-11)
(1.48831e-10 1.12302e-09 3.47153e-11)
(8.52106e-11 3.96195e-10 1.39711e-11)
(2.50183e-10 3.42371e-10 2.39507e-11)
(1.5392e-10 5.21097e-10 3.09893e-11)
(1.04852e-10 2.69566e-10 1.90583e-11)
(7.94346e-11 3.93303e-10 2.05978e-11)
(1.60525e-10 5.24701e-10 2.25049e-11)
(1.12186e-10 2.71748e-10 1.43328e-11)
(9.02535e-11 3.98098e-10 9.9365e-12)
(2.5299e-10 3.42729e-10 2.1113e-11)
(1.73023e-10 5.3234e-10 1.11689e-11)
(1.25054e-10 2.75825e-10 7.02311e-12)
(9.55922e-11 4.01477e-10 5.43395e-12)
(1.66889e-10 5.28192e-10 1.70603e-11)
(1.18348e-10 2.73101e-10 1.02173e-11)
(1.19296e-10 1.95332e-10 1.99488e-11)
(1.0666e-10 1.9358e-10 2.68395e-11)
(3.8505e-11 1.27726e-10 2.00407e-11)
(-5.56395e-12 3.70227e-11 5.62335e-12)
(4.63539e-11 1.30033e-10 1.81143e-11)
(9.22497e-11 1.91262e-10 3.61834e-11)
(1.03637e-10 1.9366e-10 2.90943e-11)
(6.04752e-11 1.31851e-10 1.29387e-11)
(-3.13074e-12 3.73374e-11 4.4297e-12)
(5.14429e-11 1.30335e-10 1.5187e-11)
(2.51606e-10 6.48833e-10 4.7371e-11)
(2.40868e-10 6.42797e-10 6.67499e-11)
(1.95897e-10 7.46896e-10 1.10123e-10)
(1.52756e-10 1.00537e-09 9.96502e-11)
(2.01677e-10 7.54113e-10 7.91101e-11)
(2.30991e-10 6.3729e-10 1.02179e-10)
(2.37734e-10 6.41407e-10 7.46582e-11)
(2.14049e-10 7.64042e-10 4.88803e-11)
(1.56996e-10 1.01514e-09 7.75721e-11)
(2.0444e-10 7.5637e-10 7.04232e-11)
(2.55249e-10 6.50405e-10 4.17495e-11)
(2.66238e-10 6.57769e-10 2.85015e-11)
(2.3933e-10 7.85843e-10 1.50076e-11)
(1.76639e-10 1.04687e-09 2.42889e-11)
(2.30242e-10 7.76945e-10 2.43301e-11)
(2.79826e-10 6.67958e-10 1.58902e-11)
(2.69729e-10 6.59749e-10 2.45579e-11)
(2.17284e-10 7.66188e-10 4.28874e-11)
(1.71893e-10 1.03926e-09 3.33785e-11)
(2.2716e-10 7.74504e-10 2.83773e-11)
(1.22575e-10 1.95435e-10 1.80115e-11)
(1.35393e-10 1.98051e-10 1.22474e-11)
(8.79066e-11 1.36394e-10 4.13014e-12)
(7.74902e-12 3.83093e-11 1.43985e-12)
(8.02227e-11 1.34495e-10 5.6293e-12)
(1.49914e-10 2.01465e-10 6.41993e-12)
(1.38418e-10 1.98366e-10 1.08064e-11)
(6.6034e-11 1.32167e-10 1.00349e-11)
(5.82535e-12 3.80811e-11 2.60291e-12)
(7.51341e-11 1.33956e-10 8.01254e-12)
(1.39284e-10 1.00583e-09 2.2222e-10)
(1.48591e-10 9.58446e-10 2.71316e-10)
(3.29467e-10 5.4524e-10 4.30798e-10)
(2.7778e-10 2.68632e-10 3.51653e-10)
(3.23049e-10 6.28548e-10 4.20338e-10)
(2.56733e-10 6.9854e-10 4.24417e-10)
(2.35617e-10 4.30561e-10 -4.36758e-12)
(3.33955e-10 3.90854e-10 -3.13735e-12)
(3.12515e-10 4.80872e-10 -3.93774e-12)
(2.62683e-10 3.41497e-10 -3.93509e-12)
(2.63834e-10 3.42514e-10 -3.29079e-12)
(3.13742e-10 4.81819e-10 -3.90126e-12)
(2.34857e-10 4.299e-10 -4.33857e-12)
(1.31417e-10 5.35414e-10 -5.42155e-12)
(1.64336e-10 6.42902e-10 -7.34547e-12)
(2.0787e-10 7.65691e-10 -6.18233e-12)
(1.95908e-10 8.87153e-10 -5.97896e-12)
(1.32504e-10 5.37097e-10 -6.34853e-12)
(1.63364e-10 6.41e-10 -5.42163e-12)
(2.06637e-10 7.6373e-10 -5.94381e-12)
(2.39588e-10 4.33724e-10 -4.32846e-12)
(3.38138e-10 3.93744e-10 -3.26903e-12)
(2.69113e-10 3.45982e-10 -3.21554e-12)
(3.19011e-10 4.86134e-10 -3.81109e-12)
(2.4041e-10 4.34299e-10 -4.33367e-12)
(2.67974e-10 3.45066e-10 -3.85415e-12)
(3.17662e-10 4.85082e-10 -3.82929e-12)
(1.3051e-10 5.34559e-10 -6.28234e-12)
(2.04224e-10 7.60616e-10 -5.89841e-12)
(1.94871e-10 8.85565e-10 -7.14626e-12)
(1.61669e-10 6.38426e-10 -5.36915e-12)
(1.62567e-10 6.40066e-10 -7.24171e-12)
(2.05424e-10 7.62271e-10 -6.04059e-12)
(1.29477e-10 5.33071e-10 -5.38891e-12)
(2.02642e-10 4.03141e-10 -1.28638e-12)
(2.94937e-10 3.63556e-10 1.75793e-12)
(2.73933e-10 4.48599e-10 1.22411e-12)
(2.24953e-10 3.16757e-10 5.85024e-13)
(2.27839e-10 3.18774e-10 5.20785e-13)
(2.76992e-10 4.50635e-10 5.31174e-13)
(2.00522e-10 4.01745e-10 -5.98253e-13)
(1.1312e-10 5.09023e-10 -6.04529e-12)
(1.48755e-10 6.1526e-10 -8.49687e-12)
(1.85844e-10 7.31095e-10 -6.16145e-12)
(1.75862e-10 8.4776e-10 -5.92944e-12)
(1.15342e-10 5.12089e-10 -7.23303e-12)
(1.46802e-10 6.11855e-10 -6.37989e-12)
(1.83258e-10 7.27475e-10 -5.48019e-12)
(2.11653e-10 4.09432e-10 -3.42552e-12)
(3.0471e-10 3.69272e-10 -1.1927e-12)
(2.39441e-10 3.25269e-10 -2.13541e-12)
(2.8862e-10 4.5913e-10 -2.47494e-12)
(2.13267e-10 4.10508e-10 -3.71588e-12)
(2.37258e-10 3.23673e-10 -2.42356e-12)
(2.86183e-10 4.5737e-10 -2.12324e-12)
(1.59151e-10 3.57359e-10 1.21388e-10)
(2.45036e-10 3.2395e-10 1.2219e-10)
(2.41721e-10 3.88543e-10 1.51573e-10)
(1.90864e-10 2.77311e-10 1.14603e-10)
(1.78501e-10 2.86811e-10 1.06629e-10)
(2.32249e-10 4.00066e-10 1.39447e-10)
(1.7104e-10 3.47219e-10 1.31245e-10)
(1.30032e-10 3.74493e-10 8.02955e-11)
(2.12565e-10 3.33351e-10 8.15975e-11)
(1.48126e-10 2.95386e-10 6.65039e-11)
(1.98983e-10 4.16747e-10 8.38835e-11)
(1.29378e-10 3.74759e-10 7.33379e-11)
(1.47979e-10 2.94489e-10 7.1586e-11)
(1.98872e-10 4.15641e-10 9.16268e-11)
(2.0941e-10 6.76485e-10 -5.24471e-12)
(2.15787e-10 9.63997e-10 -7.55731e-12)
(2.1049e-10 6.78511e-10 -7.79615e-12)
(2.1254e-10 6.81184e-10 -7.70253e-12)
(2.16955e-10 9.65928e-10 -6.31604e-12)
(2.1144e-10 6.79574e-10 -5.14908e-12)
(2.46412e-10 4.38819e-10 -4.10868e-12)
(3.45983e-10 3.98824e-10 -2.86682e-12)
(3.26733e-10 4.91987e-10 -3.50051e-12)
(2.76827e-10 3.50505e-10 -2.87236e-12)
(2.47517e-10 4.39392e-10 -4.10525e-12)
(2.7535e-10 3.49487e-10 -3.53835e-12)
(3.25075e-10 4.90883e-10 -3.52372e-12)
(1.34656e-10 5.3997e-10 -6.3253e-12)
(1.65224e-10 6.44058e-10 -5.49079e-12)
(2.09151e-10 7.67558e-10 -6.07565e-12)
(1.99293e-10 8.93787e-10 -7.35896e-12)
(1.3347e-10 5.38139e-10 -5.46525e-12)
(1.66325e-10 6.46087e-10 -7.32558e-12)
(2.10524e-10 7.69765e-10 -6.20348e-12)
(2.41947e-10 4.35546e-10 -4.22485e-12)
(3.41312e-10 3.95976e-10 -2.91924e-12)
(2.69599e-10 3.46e-10 -3.75386e-12)
(3.19388e-10 4.86502e-10 -3.77448e-12)
(2.41146e-10 4.34853e-10 -4.22011e-12)
(2.70784e-10 3.4701e-10 -3.08909e-12)
(3.20664e-10 4.87475e-10 -3.71414e-12)
(2.08542e-10 6.75294e-10 -7.81483e-12)
(2.12627e-10 9.57083e-10 -6.3309e-12)
(2.07601e-10 6.73325e-10 -5.18895e-12)
(2.11781e-10 9.55391e-10 -7.3605e-12)
(2.06052e-10 6.70673e-10 -5.14171e-12)
(2.06867e-10 6.72348e-10 -7.72536e-12)
(2.21995e-10 4.17357e-10 -4.55451e-12)
(3.16898e-10 3.77338e-10 -3.07791e-12)
(2.99356e-10 4.67848e-10 -3.86123e-12)
(2.5006e-10 3.31891e-10 -3.35319e-12)
(2.23014e-10 4.18156e-10 -4.61133e-12)
(2.48617e-10 3.3068e-10 -3.8838e-12)
(2.97673e-10 4.66493e-10 -3.7748e-12)
(1.18876e-10 5.16417e-10 -7.39432e-12)
(1.50276e-10 6.17034e-10 -6.77755e-12)
(1.88176e-10 7.33997e-10 -6.3657e-12)
(1.81843e-10 8.58263e-10 -8.08366e-12)
(1.17069e-10 5.13735e-10 -6.49893e-12)
(1.51883e-10 6.2001e-10 -8.5869e-12)
(1.90295e-10 7.37137e-10 -6.69855e-12)
(2.16061e-10 4.12521e-10 -4.06565e-12)
(3.10471e-10 3.7303e-10 -1.91181e-12)
(2.40428e-10 3.25358e-10 -2.94784e-12)
(2.89484e-10 4.59808e-10 -2.7669e-12)
(2.14638e-10 4.1142e-10 -3.83786e-12)
(2.42449e-10 3.26948e-10 -2.55745e-12)
(2.91637e-10 4.61379e-10 -2.97196e-12)
(1.20252e-10 5.1786e-10 -6.47795e-12)
(1.9384e-10 7.42484e-10 -6.7532e-12)
(1.5439e-10 6.24222e-10 -8.35001e-12)
(1.83475e-10 8.61018e-10 -6.9099e-12)
(1.53114e-10 6.21577e-10 -6.68865e-12)
(1.21663e-10 5.2023e-10 -7.20944e-12)
(1.92176e-10 7.397e-10 -6.64293e-12)
(1.45343e-10 3.77265e-10 3.65492e-11)
(2.28806e-10 3.35489e-10 4.07116e-11)
(2.19169e-10 4.2101e-10 3.83078e-11)