/*--------------------------------*- C++ -*----------------------------------*\
| =========                 |                                                 |
| \\      /  F ield         | OpenFOAM: The Open Source CFD Toolbox           |
|  \\    /   O peration     | Version:  2012                                  |
|   \\  /    A nd           | Website:  www.openfoam.com                      |
|    \\/     M anipulation  |                                                 |
\*---------------------------------------------------------------------------*/
FoamFile
{
    version     2.0;
    format      ascii;
    class       volVectorField;
    location    "0.105/solid";
    object      D_0_0_0;
}
// * * * * * * * * * * * * * * * * * * * * * * * * * * * * * * * * * * * * * //

dimensions      [0 1 0 0 0 0 0];


internalField   nonuniform List<vector> 
3125
(
(6.08961e-11 2.21645e-10 -3.51313e-12)
(5.29691e-11 2.10494e-10 -4.68965e-12)
(3.39633e-11 1.85783e-10 3.31281e-11)
(6.1662e-11 2.22827e-10 -3.6156e-12)
(5.4714e-11 2.12426e-10 -4.66721e-12)
(3.30147e-11 1.91599e-10 2.13694e-11)
(6.61449e-11 2.27825e-10 -4.22012e-12)
(5.92047e-11 2.18325e-10 -3.71844e-12)
(4.55388e-11 2.03264e-10 -2.10787e-12)
(6.48477e-11 2.26198e-10 -4.00675e-12)
(5.84467e-11 2.17044e-10 -3.96677e-12)
(4.22071e-11 2.00494e-10 7.4857e-13)
(3.35206e-10 3.81917e-10 -3.67951e-12)
(4.37499e-11 1.47188e-10 -2.80092e-12)
(2.04461e-10 8.80722e-10 -7.53004e-12)
(6.02799e-11 2.20551e-10 -3.44753e-12)
(3.40977e-10 3.86807e-10 -3.44407e-12)
(2.02051e-10 8.74993e-10 -6.00664e-12)
(4.29833e-11 1.46316e-10 -2.7586e-12)
(2.92016e-10 3.5271e-10 1.87376e-12)
(3.37782e-11 1.38335e-10 -3.53517e-12)
(1.85072e-10 8.42465e-10 -8.10136e-12)
(5.09021e-11 2.0832e-10 -4.4479e-12)
(3.07875e-10 3.62423e-10 -1.61216e-12)
(1.77585e-10 8.30357e-10 -4.54116e-12)
(3.10234e-11 1.36591e-10 -3.27753e-12)
(2.54607e-10 3.05403e-10 1.23931e-10)
(1.06495e-12 1.22348e-10 2.08458e-11)
(1.37724e-10 7.48675e-10 1.21041e-10)
(4.34746e-11 1.70778e-10 4.68367e-11)
(2.12414e-10 3.25158e-10 7.09936e-11)
(1.74033e-10 6.53511e-10 2.1871e-10)
(1.10926e-11 1.15831e-10 2.83839e-11)
(2.24123e-10 9.5241e-10 -6.66002e-12)
(2.27157e-10 9.58804e-10 -7.70882e-12)
(3.48461e-10 3.92131e-10 -3.18915e-12)
(6.26018e-11 2.23957e-10 -3.59301e-12)
(4.47026e-11 1.4811e-10 -2.94276e-12)
(2.05407e-10 8.82819e-10 -6.37497e-12)
(3.41298e-10 3.8697e-10 -3.60199e-12)
(2.08726e-10 8.89042e-10 -7.45807e-12)
(4.59347e-11 1.49055e-10 -2.94892e-12)
(2.23297e-10 9.50212e-10 -7.73974e-12)
(2.21193e-10 9.44184e-10 -6.3142e-12)
(2.08004e-10 9.13859e-10 -7.6654e-12)
(2.12789e-10 9.2347e-10 -8.84958e-12)
(3.20241e-10 3.70337e-10 -3.16758e-12)
(5.61913e-11 2.14136e-10 -4.4691e-12)
(3.60645e-11 1.39886e-10 -3.63459e-12)
(1.8721e-10 8.45621e-10 -7.17745e-12)
(3.08923e-10 3.62793e-10 -2.09205e-12)
(1.92569e-10 8.54952e-10 -8.53482e-12)
(3.80019e-11 1.41266e-10 -3.51367e-12)
(2.06202e-10 9.10601e-10 -8.51531e-12)
(1.99674e-10 8.98074e-10 -5.06662e-12)
(1.70219e-10 8.13718e-10 1.0936e-10)
(1.74206e-10 8.45577e-10 4.69562e-11)
(2.33661e-10 3.28314e-10 3.50628e-11)
(3.5218e-11 1.94923e-10 1.21961e-11)
(1.51711e-12 1.24763e-10 1.42315e-11)
(1.36725e-10 7.60226e-10 9.78688e-11)
(2.11717e-10 3.2403e-10 6.54845e-11)
(1.44172e-10 7.83397e-10 4.35565e-11)
(6.62493e-12 1.26428e-10 8.87777e-12)
(1.71998e-10 7.97322e-10 1.37739e-10)
(2.05959e-10 6.74379e-10 2.63323e-10)
(2.15621e-10 8.99314e-10 -7.34266e-12)
(5.05667e-11 1.52262e-10 -3.25685e-12)
(3.58862e-10 3.98665e-10 -2.94972e-12)
(2.4879e-10 1.16232e-09 -6.71134e-12)
(2.97463e-11 4.2907e-11 -1.29944e-12)
(2.56578e-11 4.15609e-11 -7.82682e-13)
(2.48949e-11 4.11832e-11 -1.26875e-12)
(2.36779e-10 1.13879e-09 -6.0909e-12)
(2.34117e-10 1.13205e-09 -5.66068e-12)
(3.34996e-10 3.81792e-10 -3.52248e-12)
(5.97601e-11 2.19485e-10 -3.49383e-12)
(1.98744e-10 8.66932e-10 -6.58443e-12)
(4.19018e-11 1.44617e-10 -2.93572e-12)
(2.01259e-10 8.73397e-10 -7.34013e-12)
(3.29424e-10 3.76878e-10 -3.73185e-12)
(4.24447e-11 1.4549e-10 -2.70676e-12)
(2.3042e-10 1.12179e-09 -6.08606e-12)
(2.33248e-10 1.12997e-09 -5.9215e-12)
(2.47318e-11 4.07548e-11 -1.35683e-12)
(2.49815e-11 4.10801e-11 -7.12878e-13)
(1.97114e-11 3.91391e-11 -8.39638e-13)
(1.65387e-11 3.84524e-11 -1.01043e-12)
(2.15467e-10 1.09028e-09 -5.29158e-12)
(2.07189e-10 1.07493e-09 -1.79056e-12)
(2.90397e-10 3.52214e-10 2.86085e-12)
(4.84417e-11 2.05901e-10 -3.68175e-12)
(1.64384e-10 8.111e-10 5.33938e-12)
(2.35342e-11 1.32542e-10 -1.27096e-12)
(1.74613e-10 8.26283e-10 -4.2633e-12)
(2.67957e-10 3.40247e-10 1.15706e-11)
(2.76657e-11 1.34654e-10 -2.54978e-12)
(1.9241e-10 1.04977e-09 1.03625e-11)
(2.03921e-10 1.06933e-09 -2.48065e-14)
(1.0828e-11 3.74308e-11 1.71389e-13)
(1.5706e-11 3.82216e-11 -2.99586e-13)
(-9.69176e-12 3.43222e-11 5.78368e-12)
(1.82447e-12 3.05133e-11 7.38682e-12)
(1.54957e-10 9.67791e-10 1.52232e-10)
(1.89272e-10 8.56695e-10 2.62741e-10)
(2.65755e-10 2.92727e-10 1.36087e-10)
(3.84726e-11 7.61491e-11 3.83666e-11)
(2.06392e-10 5.9314e-10 2.60077e-10)
(8.18648e-12 4.7092e-11 1.07105e-11)
(2.25415e-10 7.86306e-10 3.00809e-10)
(1.41522e-11 2.90307e-11 8.05578e-12)
(2.33003e-10 9.69716e-10 -7.6188e-12)
(2.3137e-10 9.66154e-10 -8.65425e-12)
(2.28075e-10 9.59914e-10 -6.54106e-12)
(3.49107e-10 3.92329e-10 -3.30768e-12)
(6.36815e-11 2.24972e-10 -3.69273e-12)
(2.13959e-10 8.95756e-10 -8.38945e-12)
(4.91361e-11 1.511e-10 -3.11767e-12)
(3.58408e-10 3.98541e-10 -2.86136e-12)
(2.0996e-10 8.90049e-10 -6.13023e-12)
(4.75023e-11 1.50027e-10 -3.07211e-12)
(2.58443e-11 4.16946e-11 -1.33703e-12)
(2.72868e-11 4.21365e-11 -7.909e-13)
(2.37796e-10 1.14179e-09 -6.05631e-12)
(2.41433e-10 1.15007e-09 -6.01867e-12)
(2.46923e-10 1.15676e-09 -6.57557e-12)
(2.4272e-10 1.15109e-09 -5.65917e-12)
(2.93841e-11 4.27691e-11 -7.55679e-13)
(2.75903e-11 4.22826e-11 -1.35956e-12)
(2.18174e-10 9.35879e-10 -6.91455e-12)
(2.20532e-10 9.42537e-10 -7.54672e-12)
(2.17319e-10 9.33677e-10 -8.24912e-12)
(2.14068e-10 9.25937e-10 -7.59181e-12)
(3.20917e-10 3.70594e-10 -3.43076e-12)
(5.74352e-11 2.15658e-10 -4.23973e-12)
(1.97744e-10 8.64816e-10 -7.99822e-12)
(4.0986e-11 1.43621e-10 -3.15043e-12)
(3.29064e-10 3.7668e-10 -3.54533e-12)
(1.94086e-10 8.5735e-10 -7.20158e-12)
(3.96438e-11 1.425e-10 -3.41081e-12)
(2.02403e-11 3.93392e-11 -1.40963e-12)
(2.25308e-11 3.99295e-11 -9.51384e-13)
(2.17787e-10 1.09462e-09 -5.65624e-12)
(2.23674e-10 1.10638e-09 -6.50293e-12)
(2.29337e-10 1.11888e-09 -6.35683e-12)
(2.25313e-10 1.10964e-09 -6.34272e-12)
(2.45962e-11 4.06196e-11 -8.75735e-13)
(2.2916e-11 4.01041e-11 -1.47708e-12)
(1.78975e-10 1.16119e-09 -2.53858e-12)
(1.888e-10 8.77752e-10 5.18992e-12)
(1.97249e-10 8.93838e-10 -4.65628e-12)
(1.67637e-10 1.13491e-09 1.00387e-11)
(1.76379e-10 1.15544e-09 -7.60473e-13)
(1.85854e-10 8.7239e-10 8.94789e-12)
(1.76803e-10 8.52473e-10 3.50886e-11)
(1.43723e-10 1.04814e-09 1.35927e-10)
(1.50811e-10 1.09134e-09 6.09013e-11)
(1.64343e-10 1.12753e-09 1.56947e-11)
(1.54238e-10 1.10114e-09 4.54337e-11)
(2.36526e-10 3.28228e-10 3.15038e-11)
(3.86152e-11 1.97705e-10 5.35804e-12)
(1.60484e-10 8.06166e-10 8.73143e-12)
(1.85316e-11 1.3035e-10 9.69412e-13)
(2.65499e-10 3.39715e-10 1.35645e-11)
(1.48213e-10 7.889e-10 3.30741e-11)
(1.27283e-11 1.28248e-10 4.30694e-12)
(-9.47254e-12 3.50678e-11 5.03144e-12)
(-5.48643e-13 3.61596e-11 3.82204e-12)
(1.55693e-10 9.82169e-10 1.218e-10)
(1.68101e-10 1.01249e-09 5.68784e-11)
(1.87971e-10 1.04294e-09 1.5696e-11)
(1.73272e-10 1.02016e-09 4.30428e-11)
(9.3793e-12 3.71876e-11 1.16873e-12)
(1.77146e-12 3.63917e-11 2.57604e-12)
(1.43736e-10 1.02602e-09 1.72536e-10)
(1.75087e-10 8.74927e-10 3.12692e-10)
(6.34814e-11 7.41299e-11 5.29994e-11)
(2.38763e-10 6.01975e-10 3.17602e-10)
(2.09527e-10 7.87825e-10 3.62431e-10)
(1.37929e-10 1.84522e-10 1.56347e-10)
(3.69278e-11 1.20307e-11 5.67474e-11)
(2.09164e-10 1.92264e-10 2.57881e-10)
(1.98249e-11 1.7365e-11 2.94167e-11)
(4.40443e-11 7.61789e-12 6.98984e-11)
(2.41163e-10 1.80624e-10 2.9955e-10)
(1.4485e-10 4.35167e-10 -5.42114e-12)
(3.37873e-10 3.84243e-10 -3.4779e-12)
(2.32987e-10 5.77336e-10 -4.85237e-12)
(1.81121e-10 3.00535e-10 -4.47283e-12)
(1.82243e-10 3.01701e-10 -4.12868e-12)
(2.34129e-10 5.789e-10 -5.65746e-12)
(1.43976e-10 4.33797e-10 -5.10206e-12)
(1.45689e-10 4.36007e-10 -5.18284e-12)
(3.38162e-10 3.84406e-10 -3.63761e-12)
(1.8448e-10 3.0364e-10 -4.17673e-12)
(2.36477e-10 5.81946e-10 -5.76861e-12)
(1.46658e-10 4.37493e-10 -5.53929e-12)
(1.832e-10 3.0239e-10 -4.53296e-12)
(2.35278e-10 5.80239e-10 -4.9069e-12)
(1.20662e-10 4.10402e-10 -5.39114e-12)
(2.99896e-10 3.57599e-10 9.6542e-14)
(1.99811e-10 5.41988e-10 -1.99622e-12)
(1.49119e-10 2.79406e-10 -2.76032e-12)
(1.53138e-10 2.81853e-10 -3.16454e-12)
(2.03588e-10 5.45526e-10 -3.88279e-12)
(1.17435e-10 4.07413e-10 -4.34762e-12)
(1.233e-10 4.1212e-10 -5.59199e-12)
(3.01212e-10 3.58053e-10 -5.86185e-13)
(1.59508e-10 2.85378e-10 -4.10794e-12)
(2.10122e-10 5.51563e-10 -5.30504e-12)
(1.25962e-10 4.14804e-10 -6.20144e-12)
(1.56173e-10 2.83155e-10 -4.09424e-12)
(2.06972e-10 5.48401e-10 -3.95506e-12)
(7.54292e-11 3.6756e-10 8.88063e-11)
(2.26684e-10 3.23244e-10 9.64485e-11)
(1.73873e-10 4.65532e-10 1.51807e-10)
(1.02018e-10 2.42277e-10 8.17875e-11)
(8.33265e-11 2.53075e-10 6.82995e-11)
(1.53243e-10 4.86754e-10 1.27733e-10)
(9.5021e-11 3.48301e-10 1.08782e-10)
(6.6736e-11 3.73581e-10 7.55363e-11)
(2.19018e-10 3.22883e-10 8.91771e-11)
(7.72924e-11 2.5945e-10 4.9469e-11)
(1.35154e-10 5.01215e-10 8.95412e-11)
(6.31325e-11 3.79151e-10 6.16833e-11)
(7.6967e-11 2.5592e-10 5.81893e-11)
(1.40535e-10 4.95972e-10 1.08508e-10)
(1.49955e-10 4.40917e-10 -5.36782e-12)
(3.44728e-10 3.89489e-10 -3.48515e-12)
(2.42221e-10 5.88451e-10 -5.78157e-12)
(1.90272e-10 3.07562e-10 -4.29035e-12)
(1.51433e-10 4.4232e-10 -5.70191e-12)
(1.88397e-10 3.0624e-10 -4.61591e-12)
(2.40492e-10 5.8685e-10 -5.02983e-12)
(1.48777e-10 4.4e-10 -5.63484e-12)
(3.44311e-10 3.89335e-10 -3.35818e-12)
(1.85575e-10 3.04328e-10 -4.58995e-12)
(2.37692e-10 5.83481e-10 -5.01997e-12)
(1.47612e-10 4.38429e-10 -5.30464e-12)
(1.87064e-10 3.05551e-10 -4.22377e-12)
(2.39028e-10 5.85329e-10 -5.85251e-12)
(1.32282e-10 4.20008e-10 -6.23545e-12)
(3.15418e-10 3.66932e-10 -2.95956e-12)
(2.20217e-10 5.61474e-10 -6.23874e-12)
(1.69375e-10 2.9123e-10 -4.69541e-12)
(1.34163e-10 4.22102e-10 -6.44861e-12)
(1.6699e-10 2.89479e-10 -5.0584e-12)
(2.17983e-10 5.59031e-10 -5.40102e-12)
(1.30421e-10 4.18671e-10 -6.48362e-12)
(3.14565e-10 3.6661e-10 -2.61388e-12)
(1.62031e-10 2.86524e-10 -4.79145e-12)
(2.12943e-10 5.5406e-10 -4.95466e-12)
(1.28162e-10 4.16311e-10 -6.12585e-12)
(1.64863e-10 2.88462e-10 -4.57081e-12)
(2.15599e-10 5.56822e-10 -5.99775e-12)
(7.05329e-11 3.82744e-10 3.33607e-11)
(2.21163e-10 3.24916e-10 4.6577e-11)
(1.49403e-10 5.09421e-10 3.70479e-11)
(9.80658e-11 2.62025e-10 2.28844e-11)
(7.58782e-11 3.84948e-10 2.47214e-11)
(9.10177e-11 2.60647e-10 2.87819e-11)
(1.43251e-10 5.06664e-10 4.8238e-11)
(6.65079e-11 3.81941e-10 4.10089e-11)
(2.19156e-10 3.25663e-10 5.10547e-11)
(8.01255e-11 2.59494e-10 4.19922e-11)
(1.35012e-10 5.02856e-10 7.44376e-11)
(6.35356e-11 3.79943e-10 5.19193e-11)
(8.54574e-11 2.6057e-10 3.51156e-11)
(1.38219e-10 5.04876e-10 5.95274e-11)
(1.6288e-10 4.52216e-10 -5.48289e-12)
(3.63509e-10 4.01402e-10 -2.1464e-12)
(2.56058e-10 6.02274e-10 -4.57306e-12)
(2.03693e-10 3.15188e-10 -4.32011e-12)
(1.60934e-10 4.50858e-10 -5.88894e-12)
(3.62791e-10 4.01242e-10 -2.26509e-12)
(2.51834e-10 5.96957e-10 -5.1335e-12)
(1.9962e-10 3.12908e-10 -4.42508e-12)
(2.53681e-10 5.99913e-10 -5.80565e-12)
(2.01592e-10 3.14332e-10 -3.96917e-12)
(1.5925e-10 4.48499e-10 -5.65083e-12)
(3.71362e-10 7.54661e-10 -4.07546e-12)
(2.5096e-10 1.16876e-09 -6.7422e-12)
(3.18222e-10 8.7146e-10 -5.53932e-12)
(3.21892e-10 8.79487e-10 -5.03704e-12)
(2.53256e-10 1.174e-09 -5.69107e-12)
(3.23221e-10 8.81625e-10 -4.99643e-12)
(3.66011e-10 7.46252e-10 -4.56197e-12)
(3.69892e-10 7.52869e-10 -3.88447e-12)
(2.34589e-10 2.32019e-10 -2.65078e-12)
(1.5266e-10 1.56949e-10 -2.65434e-12)
(3.06786e-11 4.30606e-11 -7.651e-13)
(1.55216e-10 1.57653e-10 -2.46177e-12)
(2.30218e-10 2.30551e-10 -2.95519e-12)
(2.33688e-10 2.31812e-10 -3.10558e-12)
(3.11418e-11 4.32132e-11 -1.23844e-12)
(1.56555e-10 1.57976e-10 -2.50417e-12)
(2.09543e-10 2.20256e-10 -3.21089e-12)
(2.1145e-10 2.21502e-10 -3.57909e-12)
(1.39327e-10 1.51395e-10 -2.60712e-12)
(2.53725e-11 4.14434e-11 -1.27642e-12)
(1.38216e-10 1.50698e-10 -2.75679e-12)
(2.1397e-10 2.23084e-10 -3.59513e-12)
(2.11838e-10 2.21754e-10 -3.25343e-12)
(1.36305e-10 1.4964e-10 -2.72277e-12)
(2.52861e-11 4.13212e-11 -8.02698e-13)
(1.37714e-10 1.50294e-10 -2.60744e-12)
(3.45502e-10 7.23204e-10 -4.80991e-12)
(3.47445e-10 7.25978e-10 -4.43546e-12)
(3.03973e-10 8.53821e-10 -5.2034e-12)
(2.35877e-10 1.13605e-09 -5.78578e-12)
(3.02159e-10 8.50477e-10 -5.29096e-12)
(3.50144e-10 7.29689e-10 -4.48742e-12)
(3.4808e-10 7.26555e-10 -4.80932e-12)
(2.99873e-10 8.47022e-10 -5.27662e-12)
(2.35011e-10 1.13398e-09 -5.79834e-12)
(3.01595e-10 8.49771e-10 -5.06198e-12)
(1.42527e-10 4.31489e-10 -5.20562e-12)
(2.31951e-10 5.76003e-10 -5.67722e-12)
(3.32472e-10 3.79494e-10 -3.72418e-12)
(1.80365e-10 2.99878e-10 -4.06198e-12)
(1.43272e-10 4.32952e-10 -5.3952e-12)
(2.30901e-10 5.74316e-10 -4.97123e-12)
(1.79427e-10 2.98681e-10 -4.5021e-12)
(1.41804e-10 4.30539e-10 -5.6064e-12)
(3.3225e-10 3.79342e-10 -3.55939e-12)
(2.28634e-10 5.70936e-10 -5.18202e-12)
(1.77473e-10 2.96721e-10 -4.75285e-12)
(2.29839e-10 5.72794e-10 -5.85286e-12)
(1.78662e-10 2.9799e-10 -4.21892e-12)
(1.4087e-10 4.28937e-10 -5.51752e-12)
(3.44897e-10 7.22558e-10 -4.4489e-12)
(3.42971e-10 7.19472e-10 -4.88615e-12)
(2.31448e-10 1.12462e-09 -6.13031e-12)
(2.95109e-10 8.38286e-10 -5.55829e-12)
(2.97049e-10 8.42012e-10 -5.23926e-12)
(2.9933e-10 8.46257e-10 -5.08595e-12)
(2.32381e-10 1.12736e-09 -5.91052e-12)
(2.97627e-10 8.42983e-10 -5.41086e-12)
(3.40151e-10 7.15214e-10 -4.97592e-12)
(3.42325e-10 7.18675e-10 -4.53734e-12)
(2.09296e-10 2.20021e-10 -3.5308e-12)
(2.07918e-10 2.18865e-10 -3.24891e-12)
(1.34218e-10 1.47699e-10 -2.9278e-12)
(2.5133e-11 4.08954e-11 -8.01296e-13)
(1.35657e-10 1.48376e-10 -2.62214e-12)
(2.05663e-10 2.17322e-10 -3.42564e-12)
(2.07681e-10 2.18626e-10 -3.61436e-12)
(1.36167e-10 1.49283e-10 -2.48778e-12)
(2.50256e-11 4.09992e-11 -1.21675e-12)
(1.35761e-10 1.48723e-10 -2.68924e-12)
(1.7264e-10 2.03059e-10 -8.68621e-13)
(1.79501e-10 2.05733e-10 -2.23626e-12)
(1.18047e-10 1.41173e-10 -2.47592e-12)
(1.86836e-11 3.89265e-11 -1.24225e-12)
(1.14563e-10 1.39857e-10 -2.44231e-12)
(1.86458e-10 2.08526e-10 -3.14333e-12)
(1.8086e-10 2.06138e-10 -2.23969e-12)
(1.07741e-10 1.37717e-10 -1.65809e-12)
(1.80138e-11 3.87092e-11 -6.89569e-13)
(1.1247e-10 1.39215e-10 -1.8999e-12)
(3.07043e-10 6.78655e-10 5.88791e-13)
(3.13329e-10 6.85324e-10 -1.2346e-12)
(2.77419e-10 8.13731e-10 -4.17758e-12)
(2.12962e-10 1.08534e-09 -4.40032e-12)
(2.72658e-10 8.07419e-10 -3.20385e-12)
(3.20475e-10 6.92751e-10 -3.0341e-12)
(3.15199e-10 6.86837e-10 -2.14584e-12)
(2.65282e-10 7.98545e-10 -5.35367e-13)
(2.1022e-10 1.08027e-09 -3.41385e-12)
(2.7098e-10 8.05626e-10 -2.476e-12)
(1.10391e-10 4.02208e-10 -1.96819e-12)
(1.95764e-10 5.38789e-10 -1.29384e-12)
(2.8102e-10 3.46717e-10 5.74707e-12)
(1.45437e-10 2.77969e-10 -1.39032e-12)
(1.14263e-10 4.05515e-10 -3.69133e-12)
(1.91244e-10 5.34835e-10 1.38093e-12)
(1.40608e-10 2.75244e-10 -4.05264e-13)
(1.06561e-10 4.00135e-10 -6.12101e-13)
(2.78985e-10 3.46144e-10 7.16362e-12)
(1.80996e-10 5.27093e-10 7.00948e-12)
(1.30293e-10 2.70831e-10 3.40938e-12)
(1.86378e-10 5.31274e-10 3.08138e-12)
(1.36113e-10 2.73674e-10 1.55538e-12)
(1.01894e-10 3.96664e-10 2.17649e-12)
(3.04824e-10 6.76979e-10 1.86199e-12)
(2.97328e-10 6.69454e-10 5.053e-12)
(1.96567e-10 1.05648e-09 5.86851e-12)
(2.46145e-10 7.77652e-10 1.13112e-11)
(2.54137e-10 7.8624e-10 5.64077e-12)
(2.63284e-10 7.96555e-10 5.68312e-13)
(2.00392e-10 1.063e-09 2.63047e-12)
(2.56515e-10 7.88516e-10 3.94136e-12)
(2.8583e-10 6.59503e-10 1.21973e-11)
(2.94669e-10 6.67539e-10 6.88188e-12)
(1.70974e-10 2.02623e-10 -6.46966e-13)
(1.6282e-10 1.99656e-10 1.39689e-12)
(8.98193e-11 1.32762e-10 1.89002e-12)
(1.30038e-11 3.77208e-11 2.46658e-13)
(9.66551e-11 1.34623e-10 9.63228e-13)
(1.50771e-10 1.96009e-10 4.89331e-12)
(1.60737e-10 1.99196e-10 1.90558e-12)
(1.05202e-10 1.37025e-10 -7.66994e-13)
(1.41256e-11 3.79658e-11 -5.27234e-13)
(9.9978e-11 1.35343e-10 -2.50967e-13)
(1.02836e-10 1.63265e-10 5.95621e-11)
(7.88439e-11 1.73589e-10 4.57154e-11)
(3.46606e-11 1.20349e-10 2.00904e-11)
(-1.00088e-11 3.30872e-11 5.62907e-12)
(3.07772e-11 1.13582e-10 2.16264e-11)
(8.80919e-11 1.84203e-10 3.54875e-11)
(7.85624e-11 1.76512e-10 4.251e-11)
(4.95422e-11 9.98099e-11 2.94479e-11)
(-5.26585e-12 3.1448e-11 6.536e-12)
(3.578e-11 1.05552e-10 2.44768e-11)
(2.72452e-10 5.71203e-10 1.97736e-10)
(2.43149e-10 6.09503e-10 1.55615e-10)
(1.98657e-10 7.33055e-10 1.16674e-10)
(1.58364e-10 9.45198e-10 1.86617e-10)
(2.04778e-10 7.167e-10 1.55323e-10)
(2.32536e-10 6.25182e-10 1.07659e-10)
(2.37928e-10 6.15128e-10 1.42298e-10)
(2.41223e-10 6.58372e-10 2.15411e-10)
(1.6865e-10 9.0999e-10 2.24088e-10)
(2.09958e-10 7.0768e-10 1.69961e-10)
(1.53015e-10 2.86344e-10 1.56124e-10)
(2.02509e-10 4.28899e-10 1.80137e-10)
(3.2396e-10 2.46565e-10 1.81112e-10)
(1.27366e-10 2.31796e-10 9.74981e-11)
(1.18683e-10 3.18179e-10 1.28492e-10)
(2.45754e-10 3.89354e-10 2.2428e-10)
(1.62276e-10 2.09826e-10 1.19001e-10)
(1.77168e-10 2.54264e-10 1.86043e-10)
(3.18937e-10 5.40584e-10 3.78528e-10)
(3.03413e-10 4.63987e-10 2.97822e-10)
(2.49063e-10 2.75097e-10 2.93653e-10)
(1.24881e-10 1.72344e-10 1.35946e-10)
(1.09861e-11 1.402e-11 1.43036e-11)
(1.2546e-10 1.1386e-10 8.15729e-11)
(1.59219e-11 1.76116e-11 2.48618e-11)
(1.66291e-10 2.33117e-10 1.61274e-10)
(3.67325e-10 2.47799e-10 1.92341e-10)
(3.11585e-10 4.11891e-10 2.79779e-10)
(1.75191e-10 1.46586e-10 1.01993e-10)
(2.86273e-10 5.5087e-10 2.1419e-10)
(3.52004e-10 4.71899e-10 2.76118e-10)
(3.25197e-10 6.2293e-10 3.71143e-10)
(3.51044e-10 5.30191e-10 3.13919e-10)
(2.56868e-10 6.35531e-10 2.32848e-10)
(2.82037e-10 6.99519e-10 3.35635e-10)
(3.28128e-10 5.48678e-10 2.94079e-10)
(3.78614e-10 4.5623e-10 2.95514e-10)
(1.1802e-10 1.58226e-10 6.40171e-11)
(1.71416e-10 1.28177e-10 8.32982e-11)
(1.13577e-11 1.16805e-11 1.43356e-11)
(1.38215e-10 9.03233e-11 7.07991e-11)
(1.96029e-10 1.13209e-10 8.80304e-11)
(7.32274e-11 9.61437e-11 3.39532e-11)
(2.15664e-11 2.43004e-11 1.24197e-11)
(9.39425e-11 8.23241e-11 4.07316e-11)
(1.54707e-10 4.44351e-10 -5.85537e-12)
(3.53607e-10 3.95405e-10 -3.03016e-12)
(2.44132e-10 5.89578e-10 -4.94177e-12)
(1.92004e-10 3.08341e-10 -4.72436e-12)
(1.52917e-10 4.43037e-10 -5.46345e-12)
(2.46254e-10 5.91003e-10 -5.76172e-12)
(1.9429e-10 3.09787e-10 -4.39354e-12)
(1.56269e-10 4.45207e-10 -5.61088e-12)
(3.54331e-10 3.95653e-10 -3.17201e-12)
(2.50143e-10 5.94538e-10 -5.93755e-12)
(1.98127e-10 3.12163e-10 -4.18799e-12)
(1.57856e-10 4.47089e-10 -5.95974e-12)
(2.4828e-10 5.92342e-10 -5.01922e-12)
(1.96129e-10 3.1066e-10 -4.68776e-12)
(2.2077e-10 2.26366e-10 -3.57472e-12)
(2.17674e-10 2.24868e-10 -3.22128e-12)
(1.39947e-10 1.51791e-10 -2.82758e-12)
(2.65253e-11 4.18545e-11 -8.35892e-13)
(1.41994e-10 1.52526e-10 -2.67195e-12)
(2.14435e-10 2.23321e-10 -3.26366e-12)
(2.17091e-10 2.24645e-10 -3.57801e-12)
(1.44716e-10 1.53749e-10 -2.6284e-12)
(2.68037e-11 4.1998e-11 -1.29792e-12)
(1.42898e-10 1.52912e-10 -2.78334e-12)
(3.56747e-10 7.37791e-10 -4.45675e-12)
(3.5405e-10 7.34983e-10 -4.91114e-12)
(3.04606e-10 8.54843e-10 -5.44571e-12)
(2.38958e-10 1.14496e-09 -6.27897e-12)
(3.06741e-10 8.58888e-10 -5.29151e-12)
(3.50854e-10 7.305e-10 -4.87149e-12)
(3.53213e-10 7.34101e-10 -4.53463e-12)
(3.09908e-10 8.62784e-10 -5.11462e-12)
(2.40192e-10 1.14791e-09 -6.08663e-12)
(3.07493e-10 8.5997e-10 -5.49686e-12)
(3.57678e-10 7.38174e-10 -4.80428e-12)
(3.60674e-10 7.40258e-10 -4.32196e-12)
(3.17177e-10 8.69505e-10 -5.31244e-12)
(2.45374e-10 1.15306e-09 -5.94936e-12)
(3.14278e-10 8.64943e-10 -5.25354e-12)
(3.64867e-10 7.44728e-10 -4.2415e-12)
(3.61649e-10 7.40496e-10 -4.65066e-12)
(3.10752e-10 8.63194e-10 -5.29412e-12)
(2.44044e-10 1.15174e-09 -5.78054e-12)
(3.13392e-10 8.64607e-10 -5.0171e-12)
(2.21525e-10 2.26643e-10 -3.22853e-12)
(2.25399e-10 2.28443e-10 -3.59054e-12)
(1.51819e-10 1.56651e-10 -2.52537e-12)
(2.87954e-11 4.26279e-11 -1.32357e-12)
(1.4991e-10 1.55788e-10 -2.78592e-12)
(2.29573e-10 2.30357e-10 -3.38016e-12)
(2.26222e-10 2.28766e-10 -3.20603e-12)
(1.45855e-10 1.54233e-10 -2.85302e-12)
(2.84289e-11 4.24703e-11 -8.49351e-13)
(1.48649e-10 1.5524e-10 -2.68953e-12)
(1.37339e-10 4.25129e-10 -6.2592e-12)
(3.25053e-10 3.73641e-10 -3.43749e-12)
(2.22222e-10 5.63388e-10 -5.48472e-12)
(1.71176e-10 2.92127e-10 -5.1122e-12)
(1.35732e-10 4.23267e-10 -6.11521e-12)
(2.24117e-10 5.6555e-10 -6.22979e-12)
(1.73232e-10 2.93675e-10 -4.67571e-12)
(1.38641e-10 4.26198e-10 -5.85878e-12)
(3.25589e-10 3.73883e-10 -3.64949e-12)
(2.27321e-10 5.69307e-10 -6.07121e-12)
(1.76363e-10 2.9596e-10 -4.47198e-12)
(1.3989e-10 4.2793e-10 -5.94647e-12)
(2.25793e-10 5.673e-10 -5.39486e-12)
(1.74732e-10 2.94508e-10 -4.98653e-12)
(1.97396e-10 2.13218e-10 -3.82658e-12)
(1.93379e-10 2.11335e-10 -3.39388e-12)
(1.19697e-10 1.41765e-10 -2.90926e-12)
(2.13334e-11 3.95571e-11 -9.6778e-13)
(1.23152e-10 1.42935e-10 -2.83044e-12)
(1.8757e-10 2.0889e-10 -3.01454e-12)
(1.92442e-10 2.11008e-10 -3.62426e-12)
(1.27082e-10 1.44515e-10 -2.90504e-12)
(2.1795e-11 3.97474e-11 -1.42834e-12)
(1.24599e-10 1.43474e-10 -3.06519e-12)
(3.3156e-10 7.04868e-10 -4.49344e-12)
(3.27806e-10 7.00345e-10 -4.55316e-12)
(2.78828e-10 8.15273e-10 -4.659e-12)
(2.1995e-10 1.09872e-09 -6.1673e-12)
(2.82855e-10 8.20745e-10 -5.06255e-12)
(3.22036e-10 6.94046e-10 -3.7057e-12)
(3.26483e-10 6.99197e-10 -4.02844e-12)
(2.87424e-10 8.26941e-10 -5.41474e-12)
(2.21902e-10 1.1026e-09 -6.28501e-12)
(2.84048e-10 8.22118e-10 -5.39697e-12)
(3.32672e-10 7.05845e-10 -4.92308e-12)
(3.35843e-10 7.09824e-10 -4.65573e-12)
(2.94433e-10 8.3727e-10 -5.38834e-12)
(2.28161e-10 1.11572e-09 -6.30072e-12)
(2.92114e-10 8.33333e-10 -5.67419e-12)
(3.39392e-10 7.14381e-10 -4.62877e-12)
(3.36777e-10 7.10697e-10 -5.03009e-12)
(2.88428e-10 8.28107e-10 -5.65528e-12)
(2.26831e-10 1.11272e-09 -6.458e-12)
(2.91281e-10 8.32282e-10 -5.48034e-12)
(1.98184e-10 2.13511e-10 -3.54946e-12)
(2.01793e-10 2.15225e-10 -3.88215e-12)
(1.33644e-10 1.47274e-10 -2.78903e-12)
(2.41345e-11 4.04721e-11 -1.41115e-12)
(1.32022e-10 1.46445e-10 -3.06906e-12)
(2.05211e-10 2.17055e-10 -3.78393e-12)
(2.02456e-10 2.15507e-10 -3.55026e-12)
(1.28264e-10 1.45009e-10 -3.1592e-12)
(2.38005e-11 4.02984e-11 -9.86434e-13)
(1.30971e-10 1.45957e-10 -2.95968e-12)
(1.70805e-10 1.142e-09 5.33443e-12)
(1.73699e-10 1.14884e-09 1.93199e-12)
(1.45307e-10 1.06535e-09 1.05168e-10)
(1.47769e-10 1.07957e-09 8.05624e-11)
(1.61063e-10 1.11919e-09 2.32641e-11)
(1.5772e-10 1.11034e-09 3.28532e-11)
(8.68768e-11 3.8925e-10 1.2735e-11)
(2.50033e-10 3.3337e-10 2.26882e-11)
(1.55939e-10 5.12136e-10 2.91666e-11)
(1.0454e-10 2.62852e-10 1.76768e-11)
(8.10338e-11 3.86329e-10 1.90713e-11)
(1.62631e-10 5.15757e-10 2.10203e-11)
(1.1193e-10 2.65092e-10 1.32109e-11)
(9.19747e-11 3.91162e-10 8.89037e-12)
(2.52871e-10 3.3375e-10 1.99694e-11)
(1.75275e-10 5.23445e-10 1.01406e-11)
(1.24892e-10 2.69253e-10 6.25271e-12)
(9.73686e-11 3.94584e-10 4.57781e-12)
(1.69071e-10 5.19253e-10 1.58189e-11)
(1.1813e-10 2.66474e-10 9.28139e-12)
(1.17424e-10 1.89266e-10 1.85951e-11)
(1.04719e-10 1.87397e-10 2.49946e-11)
(3.61006e-11 1.2304e-10 1.81775e-11)
(-6.44463e-12 3.55453e-11 5.08838e-12)
(4.4011e-11 1.25426e-10 1.65922e-11)
(9.0271e-11 1.84934e-10 3.34292e-11)
(1.01702e-10 1.87453e-10 2.70618e-11)
(5.81701e-11 1.27369e-10 1.19196e-11)
(-4.02375e-12 3.58825e-11 3.99432e-12)
(4.90874e-11 1.25784e-10 1.39322e-11)
(2.54193e-10 6.38456e-10 4.50731e-11)
(2.43339e-10 6.32361e-10 6.3609e-11)
(1.99318e-10 7.3589e-10 1.05204e-10)
(1.58766e-10 9.93628e-10 9.56006e-11)
(2.05209e-10 7.43429e-10 7.55132e-11)
(2.33326e-10 6.26478e-10 9.73996e-11)
(2.40166e-10 6.30939e-10 7.11701e-11)
(2.17755e-10 7.5352e-10 4.6497e-11)
(1.6313e-10 1.00371e-09 7.42764e-11)
(2.08011e-10 7.45777e-10 6.71759e-11)
(2.57872e-10 6.40027e-10 3.96739e-11)
(2.68992e-10 6.47361e-10 2.69606e-11)
(2.43373e-10 7.75323e-10 1.3893e-11)
(1.83284e-10 1.03547e-09 2.27992e-11)
(2.34175e-10 7.66393e-10 2.28729e-11)
(2.82727e-10 6.57564e-10 1.48303e-11)
(2.72521e-10 6.49329e-10 2.3157e-11)
(2.21026e-10 7.55654e-10 4.07347e-11)
(1.78374e-10 1.0278e-09 3.15979e-11)
(2.3105e-10 7.63955e-10 2.67781e-11)
(1.20707e-10 1.89382e-10 1.6782e-11)
(1.33605e-10 1.92083e-10 1.13404e-11)
(8.57183e-11 1.32061e-10 3.66404e-12)
(6.87967e-12 3.6913e-11 1.24204e-12)
(7.79866e-11 1.30126e-10 5.06129e-12)
(1.48213e-10 1.95573e-10 5.80142e-12)
(1.36639e-10 1.92412e-10 9.97863e-12)
(6.37367e-11 1.27721e-10 9.19606e-12)
(4.95188e-12 3.66735e-11 2.35892e-12)
(7.28826e-11 1.29559e-10 7.32933e-12)
(1.47081e-10 9.93024e-10 2.14891e-10)
(1.56134e-10 9.44526e-10 2.62382e-10)
(3.36391e-10 5.38292e-10 4.15569e-10)
(2.82881e-10 2.6511e-10 3.39618e-10)
(3.30125e-10 6.20573e-10 4.0455e-10)
(2.64492e-10 6.8857e-10 4.09795e-10)
(2.38535e-10 4.2333e-10 -4.51699e-12)
(3.36303e-10 3.82942e-10 -3.43075e-12)
(3.1581e-10 4.72752e-10 -4.1486e-12)
(2.64995e-10 3.34396e-10 -4.14904e-12)
(2.65942e-10 3.35382e-10 -3.52159e-12)
(3.16862e-10 4.7369e-10 -4.12682e-12)
(2.37961e-10 4.22673e-10 -4.4767e-12)
(1.36068e-10 5.29114e-10 -5.52848e-12)
(1.70703e-10 6.36131e-10 -7.51032e-12)
(2.1335e-10 7.57575e-10 -6.40061e-12)
(2.03642e-10 8.78474e-10 -6.13165e-12)
(1.36921e-10 5.30834e-10 -6.52071e-12)
(1.69931e-10 6.34181e-10 -5.53466e-12)
(2.12354e-10 7.55566e-10 -6.11391e-12)
(2.41686e-10 4.26522e-10 -4.59145e-12)
(3.39696e-10 3.8578e-10 -3.63523e-12)
(2.70203e-10 3.38811e-10 -3.5609e-12)
(3.2125e-10 4.78031e-10 -4.15414e-12)
(2.42373e-10 4.27107e-10 -4.62517e-12)
(2.69203e-10 3.37896e-10 -4.17601e-12)
(3.20031e-10 4.76974e-10 -4.1465e-12)
(1.35391e-10 5.28235e-10 -6.3612e-12)
(2.10459e-10 7.52359e-10 -6.01397e-12)
(2.02829e-10 8.76833e-10 -7.26104e-12)
(1.6864e-10 6.31531e-10 -5.44603e-12)
(1.69321e-10 6.33216e-10 -7.33276e-12)
(2.11397e-10 7.5406e-10 -6.16961e-12)
(1.3463e-10 5.26715e-10 -5.4418e-12)
(2.03611e-10 3.95257e-10 -1.66513e-12)
(2.9523e-10 3.54849e-10 1.41679e-12)
(2.75057e-10 4.39692e-10 8.08225e-13)
(2.24929e-10 3.08904e-10 2.19744e-13)
(2.27856e-10 3.10938e-10 1.84669e-13)
(2.78156e-10 4.41751e-10 1.46893e-13)
(2.01453e-10 3.93837e-10 -1.00736e-12)
(1.16934e-10 5.02214e-10 -6.41726e-12)
(1.54726e-10 6.07979e-10 -8.89102e-12)
(1.90716e-10 7.22325e-10 -6.56812e-12)
(1.82809e-10 8.38449e-10 -6.41217e-12)
(1.19254e-10 5.05327e-10 -7.6018e-12)
(1.52677e-10 6.04515e-10 -6.78831e-12)
(1.88025e-10 7.18653e-10 -5.90789e-12)
(2.12847e-10 4.01635e-10 -3.70916e-12)
(3.05258e-10 3.60653e-10 -1.41599e-12)
(2.39756e-10 3.1754e-10 -2.35406e-12)
(2.90107e-10 4.50366e-10 -2.73765e-12)
(2.14521e-10 4.02733e-10 -3.98994e-12)
(2.37504e-10 3.15918e-10 -2.6532e-12)
(2.87601e-10 4.48581e-10 -2.39529e-12)
(1.59598e-10 3.49343e-10 1.13436e-10)
(2.44821e-10 3.15292e-10 1.13722e-10)
(2.42323e-10 3.80067e-10 1.41904e-10)
(1.90553e-10 2.69858e-10 1.05959e-10)
(1.7808e-10 2.78922e-10 9.88322e-11)
(2.32777e-10 3.91137e-10 1.3071e-10)
(1.71566e-10 3.39653e-10 1.22466e-10)
(1.30375e-10 3.65842e-10 7.55036e-11)
(2.1221e-10 3.23992e-10 7.66754e-11)
(1.47562e-10 2.86898e-10 6.23723e-11)
(1.99435e-10 4.07102e-10 7.92156e-11)
(1.29717e-10 3.66129e-10 6.90176e-11)
(1.47426e-10 2.85991e-10 6.69913e-11)
(1.99326e-10 4.05992e-10 8.64444e-11)
(2.17359e-10 6.6937e-10 -5.43847e-12)
(2.25137e-10 9.54898e-10 -7.82417e-12)
(2.1828e-10 6.7145e-10 -8.05462e-12)
(2.20065e-10 6.74217e-10 -8.07935e-12)
(2.2614e-10 9.56881e-10 -6.65026e-12)
(2.19105e-10 6.72543e-10 -5.45004e-12)
(2.47763e-10 4.31751e-10 -4.60922e-12)
(3.46787e-10 3.90968e-10 -3.40375e-12)
(3.28291e-10 4.84041e-10 -4.06403e-12)
(2.77239e-10 3.43472e-10 -3.41877e-12)
(2.48806e-10 4.32351e-10 -4.6388e-12)
(2.75817e-10 3.42425e-10 -4.05286e-12)
(3.26693e-10 4.82912e-10 -4.05275e-12)
(1.38727e-10 5.33774e-10 -6.62163e-12)
(1.71433e-10 6.37317e-10 -5.69714e-12)
(2.14423e-10 7.59488e-10 -6.3556e-12)
(2.06437e-10 8.85273e-10 -7.66335e-12)
(1.37711e-10 5.319e-10 -5.68301e-12)
(1.72372e-10 6.39397e-10 -7.60132e-12)
(2.15611e-10 7.61744e-10 -6.54648e-12)
(2.4369e-10 4.2838e-10 -4.57327e-12)
(3.42515e-10 3.88026e-10 -3.34173e-12)
(2.70572e-10 3.38838e-10 -4.11916e-12)
(3.21516e-10 4.78415e-10 -4.13837e-12)
(2.42995e-10 4.27675e-10 -4.53965e-12)
(2.71646e-10 3.39857e-10 -3.47899e-12)
(3.22685e-10 4.79397e-10 -4.10553e-12)
(2.16636e-10 6.68149e-10 -7.97745e-12)
(2.22537e-10 9.47814e-10 -6.46523e-12)
(2.15878e-10 6.6613e-10 -5.30647e-12)
(2.21891e-10 9.4607e-10 -7.46854e-12)
(2.14672e-10 6.63399e-10 -5.23764e-12)
(2.15304e-10 6.65122e-10 -7.83186e-12)
(2.23986e-10 4.09749e-10 -4.85381e-12)
(3.18292e-10 3.68948e-10 -3.22696e-12)
(3.01766e-10 4.59322e-10 -4.11093e-12)
(2.51338e-10 3.2439e-10 -3.555e-12)
(2.25179e-10 4.10584e-10 -4.92308e-12)
(2.49699e-10 3.23124e-10 -4.07922e-12)
(2.99906e-10 4.57924e-10 -4.01471e-12)
(1.23033e-10 5.09713e-10 -7.78107e-12)
(1.56341e-10 6.09776e-10 -7.17274e-12)
(1.93179e-10 7.25265e-10 -6.77568e-12)
(1.89151e-10 8.49073e-10 -8.53683e-12)
(1.21078e-10 5.06985e-10 -6.8625e-12)
(1.58082e-10 6.12795e-10 -8.99835e-12)
(1.95459e-10 7.28453e-10 -7.11193e-12)
(2.17461e-10 4.04787e-10 -4.33189e-12)
(3.11248e-10 3.6448e-10 -2.09707e-12)
(2.40801e-10 3.17638e-10 -3.15508e-12)
(2.91039e-10 4.51064e-10 -3.01775e-12)
(2.15956e-10 4.03662e-10 -4.10641e-12)
(2.4291e-10 3.19255e-10 -2.75832e-12)
(2.93279e-10 4.52664e-10 -3.21743e-12)
(1.24572e-10 5.11179e-10 -6.87885e-12)
(1.99445e-10 7.3388e-10 -7.19909e-12)
(1.60922e-10 6.17067e-10 -8.79345e-12)
(1.9096e-10 8.51857e-10 -7.38283e-12)
(1.59452e-10 6.1438e-10 -7.11043e-12)
(1.26218e-10 5.13598e-10 -7.64817e-12)
(1.97539e-10 7.31049e-10 -7.07529e-12)
(1.45755e-10 3.68962e-10 3.44357e-11)
(2.28496e-10 3.26358e-10 3.86022e-11)
(2.19746e-10 4.11708e-10 3.62855e-11)