/*--------------------------------*- C++ -*----------------------------------*\
| =========                 |                                                 |
| \\      /  F ield         | OpenFOAM: The Open Source CFD Toolbox           |
|  \\    /   O peration     | Version:  2012                                  |
|   \\  /    A nd           | Website:  www.openfoam.com                      |
|    \\/     M anipulation  |                                                 |
\*---------------------------------------------------------------------------*/
FoamFile
{
    version     2.0;
    format      ascii;
    class       volScalarField;
    location    "0.105/solid";
    object      epsilonEq;
}
// * * * * * * * * * * * * * * * * * * * * * * * * * * * * * * * * * * * * * //

dimensions      [0 0 0 0 0 0 0];


internalField   nonuniform List<scalar> 
3125
(
1.77514e-08
1.69777e-08
1.52765e-08
1.78361e-08
1.71144e-08
1.56825e-08
1.8183e-08
1.75258e-08
1.64575e-08
1.80513e-08
1.74359e-08
1.62571e-08
5.18299e-09
1.00418e-08
1.90133e-08
1.76776e-08
5.28433e-09
1.89417e-08
9.97896e-09
4.56879e-09
9.43597e-09
1.83907e-08
1.68221e-08
4.83144e-09
1.81764e-08
9.3134e-09
2.67711e-09
8.6931e-09
1.59135e-08
1.41279e-08
3.50902e-09
1.3469e-08
8.31197e-09
2.1276e-08
2.13971e-08
5.38182e-09
1.79134e-08
1.01073e-08
1.90587e-08
5.27419e-09
1.91707e-08
1.0173e-08
2.12258e-08
2.11404e-08
2.06087e-08
2.07803e-08
4.99482e-09
1.72342e-08
9.54272e-09
1.84525e-08
4.82654e-09
1.86138e-08
9.63442e-09
2.05432e-08
2.03069e-08
1.80837e-08
1.90224e-08
3.69733e-09
1.58814e-08
8.74806e-09
1.63012e-08
3.48904e-09
1.70482e-08
8.72818e-09
1.76081e-08
1.49514e-08
1.93036e-08
1.04058e-08
5.49863e-09
1.31284e-08
7.27915e-09
6.80204e-09
6.65837e-09
1.28494e-08
1.27815e-08
5.19372e-09
1.76066e-08
1.88165e-08
9.85478e-09
1.89211e-08
5.09312e-09
9.91826e-09
1.26678e-08
1.27573e-08
6.48789e-09
6.61775e-09
6.09129e-09
5.8147e-09
1.22637e-08
1.2013e-08
4.56524e-09
1.66485e-08
1.77805e-08
9.02833e-09
1.80961e-08
4.17431e-09
9.17622e-09
1.14881e-08
1.19061e-08
5.3504e-09
5.72064e-09
4.56868e-09
4.25633e-09
8.57406e-09
6.94374e-09
2.27126e-09
1.40183e-08
1.23946e-08
6.98294e-09
6.56819e-09
4.3596e-09
2.15653e-08
2.1459e-08
2.1396e-08
5.3716e-09
1.7971e-08
1.91982e-08
1.03213e-08
5.5121e-09
1.91635e-08
1.02423e-08
6.84389e-09
6.99821e-09
1.28865e-08
1.29861e-08
1.30533e-08
1.29988e-08
7.23409e-09
7.05166e-09
2.10022e-08
2.11165e-08
2.0958e-08
2.08271e-08
4.98466e-09
1.73396e-08
1.87765e-08
9.78658e-09
5.10342e-09
1.8657e-08
9.71389e-09
6.15825e-09
6.32393e-09
1.23316e-08
1.2486e-08
1.26324e-08
1.25288e-08
6.45358e-09
6.3536e-09
1.38025e-08
1.98728e-08
2.02194e-08
1.32554e-08
1.36599e-08
1.97381e-08
1.92309e-08
1.04132e-08
1.19286e-08
1.30999e-08
1.22932e-08
3.70333e-09
1.60617e-08
1.76568e-08
8.8842e-09
4.15911e-09
1.72215e-08
8.77224e-09
4.62501e-09
4.7941e-09
9.06508e-09
1.02769e-08
1.13066e-08
1.05993e-08
5.23675e-09
4.8608e-09
9.76389e-09
7.94825e-09
1.58129e-08
1.39677e-08
7.67895e-09
1.13002e-08
1.31755e-08
1.61018e-08
8.7491e-09
1.48691e-08
1.71933e-08
1.13758e-08
5.23862e-09
9.3288e-09
6.79662e-09
6.81136e-09
9.34135e-09
1.13639e-08
1.13969e-08
5.2289e-09
6.84806e-09
9.3794e-09
1.14133e-08
6.83541e-09
9.36064e-09
1.08887e-08
4.71289e-09
8.74381e-09
6.31344e-09
6.36279e-09
8.80671e-09
1.08417e-08
1.09436e-08
4.71247e-09
6.4589e-09
8.92677e-09
1.09836e-08
6.42171e-09
8.87523e-09
9.46637e-09
3.38458e-09
6.0643e-09
5.10168e-09
5.55575e-09
6.68469e-09
8.65112e-09
9.90615e-09
3.4115e-09
5.7757e-09
7.35883e-09
1.01188e-08
5.76651e-09
7.12768e-09
1.14917e-08
5.31789e-09
9.48786e-09
6.92893e-09
1.15009e-08
6.91776e-09
9.47406e-09
1.14658e-08
5.32881e-09
6.87444e-09
9.41105e-09
1.14427e-08
6.89224e-09
9.44101e-09
1.11075e-08
4.91526e-09
9.09791e-09
6.59969e-09
1.11357e-08
6.57945e-09
9.06612e-09
1.10656e-08
4.92276e-09
6.50735e-09
8.98101e-09
1.10313e-08
6.53931e-09
9.02144e-09
1.02609e-08
3.54323e-09
7.81989e-09
5.72482e-09
1.03118e-08
5.69243e-09
7.71087e-09
1.02485e-08
3.55883e-09
5.73108e-09
7.50441e-09
1.01941e-08
5.7155e-09
7.59919e-09
1.17089e-08
5.55524e-09
9.75672e-09
7.1226e-09
1.16669e-08
5.56752e-09
9.59853e-09
7.05638e-09
9.68144e-09
7.08472e-09
1.16109e-08
8.83413e-09
1.32189e-08
1.03079e-08
1.04602e-08
1.32963e-08
1.04958e-08
8.70464e-09
8.80901e-09
6.10651e-09
6.17556e-09
7.3473e-09
6.1699e-09
6.04552e-09
6.0768e-09
7.41183e-09
6.26444e-09
5.65192e-09
5.6851e-09
5.84544e-09
6.7638e-09
5.84403e-09
5.74368e-09
5.70887e-09
5.79615e-09
6.719e-09
5.7841e-09
8.40511e-09
8.42143e-09
1.00907e-08
1.28226e-08
1.0056e-08
8.46886e-09
8.44679e-09
1.00222e-08
1.27982e-08
1.00421e-08
1.13283e-08
9.30903e-09
5.13921e-09
6.77436e-09
1.13437e-08
9.29105e-09
6.76281e-09
1.13012e-08
5.14954e-09
9.23978e-09
6.71954e-09
9.26311e-09
6.7371e-09
1.12802e-08
8.38311e-09
8.35816e-09
1.26979e-08
9.91688e-09
9.95649e-09
1.0009e-08
1.27307e-08
9.9736e-09
8.3054e-09
8.33371e-09
5.62924e-09
5.59894e-09
5.68939e-09
6.54188e-09
5.67916e-09
5.54365e-09
5.57692e-09
5.73667e-09
6.58196e-09
5.73688e-09
5.00946e-09
5.10601e-09
5.33336e-09
6.01127e-09
5.32521e-09
5.23205e-09
5.15473e-09
5.19883e-09
5.9281e-09
5.20211e-09
7.7216e-09
7.82936e-09
9.57574e-09
1.21918e-08
9.47527e-09
7.96494e-09
7.88237e-09
9.31155e-09
1.2105e-08
9.4356e-09
1.07263e-08
8.66332e-09
4.38988e-09
6.24606e-09
1.07814e-08
8.58468e-09
6.1885e-09
1.06593e-08
4.37933e-09
8.39125e-09
6.04051e-09
8.48448e-09
6.11108e-09
1.05967e-08
7.66093e-09
7.51674e-09
1.16513e-08
8.83226e-09
9.0411e-09
9.26437e-09
1.17936e-08
9.10019e-09
7.26172e-09
7.4463e-09
4.95102e-09
4.83432e-09
4.85345e-09
5.49538e-09
4.87008e-09
4.62879e-09
4.76744e-09
5.0527e-09
5.60486e-09
5.03492e-09
3.64463e-09
4.14492e-09
4.09399e-09
4.38018e-09
3.99438e-09
4.10347e-09
4.08896e-09
3.56723e-09
4.20653e-09
3.7673e-09
4.31414e-09
5.13243e-09
7.04856e-09
8.05373e-09
6.42616e-09
5.76011e-09
5.26025e-09
5.42554e-09
7.46827e-09
6.29395e-09
7.66374e-09
5.23943e-09
1.38436e-09
4.24596e-09
8.26858e-09
4.70631e-09
3.81219e-09
1.09946e-08
1.27509e-08
7.58331e-09
1.6351e-08
9.72039e-09
5.50128e-09
4.75276e-09
7.90754e-09
9.21097e-09
3.57601e-09
5.16319e-09
3.73171e-09
4.07666e-09
3.47367e-09
9.91176e-09
5.12566e-09
5.1935e-09
6.67379e-09
5.04295e-09
3.17803e-09
3.3423e-09
2.60936e-09
4.92627e-09
4.26816e-09
3.26767e-09
3.20442e-09
4.16357e-09
3.05569e-09
1.15074e-08
5.44931e-09
9.49433e-09
6.95052e-09
1.15084e-08
9.48806e-09
6.96655e-09
1.15241e-08
5.44014e-09
9.5267e-09
7.01607e-09
1.15527e-08
9.49599e-09
6.99635e-09
5.8601e-09
5.82406e-09
5.9079e-09
6.90542e-09
5.89824e-09
5.76733e-09
5.80053e-09
5.96194e-09
6.95273e-09
5.96245e-09
8.57815e-09
8.55253e-09
1.01089e-08
1.29235e-08
1.01626e-08
8.49425e-09
8.53065e-09
1.02143e-08
1.29608e-08
1.01809e-08
8.60045e-09
8.59703e-09
1.02736e-08
1.30163e-08
1.0224e-08
8.66611e-09
8.63494e-09
1.02239e-08
1.29987e-08
1.02109e-08
5.88878e-09
5.93809e-09
6.09557e-09
7.18735e-09
6.09185e-09
6.01854e-09
5.97192e-09
6.03193e-09
7.129e-09
6.01951e-09
1.11952e-08
5.05222e-09
9.13206e-09
6.63065e-09
1.11711e-08
9.15714e-09
6.64903e-09
1.12276e-08
5.04207e-09
9.21067e-09
6.69222e-09
1.12495e-08
9.18754e-09
6.67783e-09
5.40757e-09
5.36558e-09
5.43655e-09
6.23766e-09
5.43193e-09
5.27235e-09
5.33378e-09
5.51485e-09
6.28854e-09
5.51211e-09
8.15447e-09
8.10783e-09
9.60813e-09
1.23849e-08
9.68262e-09
8.00839e-09
8.07069e-09
9.77086e-09
1.24405e-08
9.71011e-09
8.18612e-09
8.21988e-09
9.89849e-09
1.25992e-08
9.85567e-09
8.27887e-09
8.2494e-09
9.79284e-09
1.2562e-08
9.83594e-09
5.4325e-09
5.4659e-09
5.63063e-09
6.42655e-09
5.62951e-09
5.52088e-09
5.48813e-09
5.5808e-09
6.39647e-09
5.57189e-09
1.3386e-08
1.35266e-08
1.10155e-08
1.15229e-08
1.28967e-08
1.26311e-08
1.04064e-08
3.91731e-09
7.93672e-09
5.75656e-09
1.03468e-08
8.04687e-09
5.82053e-09
1.04648e-08
3.93416e-09
8.27916e-09
5.96126e-09
1.05291e-08
8.17148e-09
5.88832e-09
4.16448e-09
4.1116e-09
4.24005e-09
4.6915e-09
4.22245e-09
4.09776e-09
4.09183e-09
4.31209e-09
4.71581e-09
4.31917e-09
6.5158e-09
6.17444e-09
7.09226e-09
9.5141e-09
7.55279e-09
5.77504e-09
6.14395e-09
8.02436e-09
9.91963e-09
7.61235e-09
6.58338e-09
6.86943e-09
8.76659e-09
1.11118e-08
8.49804e-09
7.18332e-09
6.94832e-09
8.09381e-09
1.08741e-08
8.42553e-09
4.21737e-09
4.33976e-09
4.67017e-09
5.09719e-09
4.64503e-09
4.55496e-09
4.41017e-09
4.4578e-09
4.99068e-09
4.4683e-09
9.1266e-09
8.45835e-09
1.34623e-08
1.74866e-08
1.01661e-08
7.79015e-09
7.65461e-09
5.20956e-09
6.24355e-09
5.90536e-09
5.88847e-09
6.23028e-09
7.65269e-09
1.57324e-08
1.96854e-08
1.46158e-08
1.8978e-08
1.57605e-08
1.96561e-08
1.45921e-08
7.68792e-09
5.2365e-09
5.96008e-09
6.30408e-09
7.71916e-09
5.95754e-09
6.295e-09
1.57094e-08
1.4565e-08
1.89565e-08
1.96031e-08
1.96206e-08
1.45733e-08
1.56904e-08
7.16017e-09
4.64259e-09
5.60941e-09
5.29128e-09
5.28786e-09
5.61923e-09
7.11886e-09
1.51508e-08
1.90138e-08
1.40984e-08
1.83203e-08
1.52074e-08
1.8958e-08
1.40434e-08
7.27403e-09
4.75605e-09
5.47645e-09
5.82232e-09
7.32415e-09
5.46875e-09
5.80148e-09
5.13425e-09
3.06768e-09
3.00055e-09
3.23493e-09
3.57408e-09
3.38203e-09
4.55357e-09
6.02534e-09
3.4452e-09
4.14194e-09
4.21675e-09
6.22556e-09
4.10115e-09
4.12979e-09
2.2185e-08
2.13246e-08
2.22274e-08
2.22955e-08
2.13703e-08
2.22731e-08
7.77833e-09
5.3279e-09
6.40446e-09
6.06117e-09
7.80521e-09
6.0584e-09
6.39559e-09
1.58283e-08
1.97333e-08
1.46571e-08
1.91069e-08
1.57937e-08
1.97685e-08
1.46971e-08
7.73388e-09
5.30102e-09
6.00108e-09
6.3355e-09
7.72684e-09
5.98485e-09
6.32334e-09
2.21326e-08
2.11835e-08
2.20954e-08
2.11567e-08
2.2033e-08
2.2056e-08
7.43251e-09
4.93689e-09
5.99985e-09
5.6518e-09
7.46698e-09
5.6499e-09
5.98772e-09
1.53085e-08
1.90872e-08
1.41581e-08
1.85078e-08
1.52601e-08
1.91356e-08
1.4202e-08
7.35956e-09
4.87708e-09
5.54577e-09
5.87619e-09
7.33701e-09
5.53448e-09
5.87336e-09
1.53552e-08
1.42915e-08
1.9243e-08
1.85625e-08
1.91999e-08
1.53982e-08
1.42533e-08
6.35156e-09
3.59374e-09
4.57483e-09
4.34672e-09
6.4687e-09
4.31577e-09
4.51092e-09
6.28971e-09
3.52645e-09
4.1896e-09
4.25985e-09
6.19533e-09
4.17958e-09
4.29469e-09
7.92146e-09
5.53443e-09
6.56311e-09
6.23927e-09
6.55621e-09
6.22103e-09
7.89602e-09
6.81824e-09
6.84321e-09
5.07029e-09
5.09451e-09
4.74558e-09
4.76246e-09
4.83611e-09
4.79758e-09
6.47689e-09
6.49674e-09
6.57466e-09
6.53622e-09
7.61996e-09
6.21331e-09
5.14655e-09
5.86527e-09
7.64771e-09
6.2044e-09
5.86411e-09
1.56134e-08
1.94699e-08
1.88535e-08
1.44616e-08
1.44898e-08
1.95019e-08
1.55814e-08
1.56432e-08
1.45453e-08
1.95698e-08
1.889e-08
1.56685e-08
1.45236e-08
1.95448e-08
7.57746e-09
5.12141e-09
6.14934e-09
5.81088e-09
6.13727e-09
5.79452e-09
7.57152e-09
6.47658e-09
6.43912e-09
6.37642e-09
6.39671e-09
4.7427e-09
4.70498e-09
4.65459e-09
4.67338e-09
4.14825e-09
4.20896e-09
4.38519e-09
4.3227e-09
5.78317e-09
5.84972e-09
6.06286e-09
5.99848e-09
7.03096e-09
5.53476e-09
4.4657e-09
5.19692e-09
7.10307e-09
5.49971e-09
5.17908e-09
6.87021e-09
4.27369e-09
5.19338e-09
4.90344e-09
5.22299e-09
4.91261e-09
6.80523e-09
5.76109e-09
5.66903e-09
5.32432e-09
5.42523e-09
4.12683e-09
4.04199e-09
3.7792e-09
3.86213e-09
2.8928e-09
3.20957e-09
3.29294e-09
3.22419e-09
3.08842e-09
3.48091e-09
4.2159e-09
4.07656e-09
3.43398e-09
2.59696e-09
1.64493e-09
2.73329e-09
4.19556e-09
2.03462e-09
2.47848e-09
1.16347e-08
1.32866e-08
1.47011e-08
1.18836e-08
1.22403e-08
1.41256e-08
1.10084e-08
1.11406e-08
9.25392e-09
1.39913e-08
1.20223e-08
1.12314e-08
8.76303e-09
1.40321e-08
8.67549e-09
6.21262e-09
9.7933e-09
6.60969e-09
9.40025e-09
5.64866e-09
8.803e-09
2.82607e-09
2.3963e-09
2.57388e-09
1.81718e-09
2.24162e-08
2.1396e-08
2.23591e-08
2.2316e-08
2.13831e-08
2.23212e-08
7.80375e-09
5.40736e-09
6.43989e-09
6.10664e-09
7.8056e-09
6.42536e-09
6.09098e-09
7.83244e-09
5.45421e-09
6.52094e-09
6.1857e-09
7.87744e-09
6.50995e-09
6.18345e-09
4.93538e-09
4.89219e-09
4.83973e-09
4.85706e-09
6.68307e-09
6.63805e-09
6.57465e-09
6.59353e-09
6.68136e-09
6.71237e-09
6.81412e-09
6.76603e-09
4.94191e-09
4.96427e-09
5.06883e-09
5.02252e-09
2.188e-08
2.10402e-08
2.19181e-08
2.19964e-08
2.10804e-08
2.19645e-08
2.18278e-08
2.09099e-08
2.17846e-08
7.48463e-09
5.01963e-09
6.0386e-09
5.70198e-09
7.47622e-09
6.02824e-09
5.68567e-09
1.55117e-08
1.94213e-08
1.44255e-08
1.87344e-08
1.5547e-08
1.93854e-08
1.43958e-08
7.53317e-09
5.05346e-09
6.11666e-09
5.76802e-09
7.56358e-09
6.10703e-09
5.76658e-09
1.54753e-08
1.43317e-08
1.92984e-08
1.86948e-08
1.54384e-08
1.93344e-08
1.43597e-08
4.54507e-09
4.49912e-09
4.39634e-09
4.43574e-09
6.24954e-09
6.20263e-09
6.07445e-09
6.11622e-09
6.25424e-09
6.28088e-09
6.37483e-09
6.3352e-09
4.54898e-09
4.57298e-09
4.65151e-09
4.61208e-09
6.52649e-09
3.79822e-09
4.65597e-09
4.43822e-09
6.45023e-09
4.69806e-09
4.44758e-09
6.69202e-09
4.03622e-09
5.09879e-09
4.78797e-09
6.79343e-09
5.0426e-09
4.75472e-09
3.37338e-09
3.28968e-09
3.26303e-09
3.29495e-09
4.68254e-09
4.53903e-09
4.20562e-09
4.31039e-09
4.70799e-09
4.83303e-09
5.29039e-09
5.16204e-09
3.38008e-09
3.45132e-09
3.74886e-09
3.6431e-09
1.59729e-08
1.63068e-08
1.62153e-08
1.57974e-08
1.39096e-08
1.62508e-08
1.31842e-08
1.08999e-08
1.25827e-08
1.37911e-08
1.12224e-08
1.22997e-08
1.45365e-08
1.53005e-08
1.37578e-08
9.81087e-09
1.005e-08
1.11905e-08
1.4976e-08
1.62965e-08
7.65301e-09
5.19021e-09
5.91245e-09
6.25758e-09
7.68131e-09
5.90931e-09
6.2496e-09
7.68885e-09
5.25589e-09
5.95292e-09
6.2892e-09
7.68608e-09
5.93591e-09
6.27539e-09
7.16315e-09
4.62598e-09
5.352e-09
5.6944e-09
7.2244e-09
5.33895e-09
5.66728e-09
7.27147e-09
4.774e-09
5.4335e-09
5.75849e-09
7.23947e-09
5.42556e-09
5.76194e-09
5.23958e-09
3.19699e-09
3.92996e-09
3.8324e-09
5.69297e-09
3.77041e-09
3.60097e-09
6.03577e-09
3.47384e-09
4.06573e-09
3.98655e-09
5.79283e-09
4.08314e-09
4.09489e-09
7.7817e-09
5.34717e-09
6.05271e-09
6.38657e-09
7.77719e-09
6.03522e-09
6.37499e-09
7.73553e-09
5.27982e-09
6.00944e-09
6.35399e-09
7.76964e-09
6.00685e-09
6.34373e-09
7.43099e-09
4.95694e-09
5.6344e-09
5.96782e-09
7.41618e-09
5.61963e-09
5.96087e-09
7.36197e-09
4.85681e-09
5.57527e-09
5.92195e-09
7.40469e-09
5.57012e-09
5.90623e-09
6.38862e-09
3.60967e-09
4.27117e-09
4.42007e-09
6.31059e-09
4.267e-09
4.45888e-09
6.23066e-09
3.48996e-09
4.21289e-09
4.36767e-09
6.34981e-09
4.19616e-09
4.31354e-09
8.0219e-09
5.60502e-09
6.65353e-09
6.31815e-09
8.00542e-09
6.6515e-09
6.30362e-09
7.93376e-09
5.50513e-09
6.60587e-09
6.25479e-09
7.98914e-09
6.58595e-09
6.25283e-09
6.90148e-09
6.9459e-09
8.26485e-09
8.85969e-09
7.76698e-09
7.7817e-09
8.29301e-09
1.23648e-08
1.39954e-08
1.40424e-08
1.23307e-08
1.23821e-08
1.41207e-08
1.24297e-08
1.40496e-08
1.2474e-08
1.41168e-08
1.24416e-08
1.41647e-08
6.89127e-09
6.84067e-09
7.66844e-09
8.72899e-09
8.15252e-09
7.67626e-09
8.18203e-09
8.23219e-09
7.73567e-09
8.75803e-09
7.70219e-09
8.20573e-09
5.1293e-09
5.16529e-09
6.32795e-09
6.43982e-09
5.89115e-09
6.05045e-09
5.84454e-09
6.31635e-09
6.4462e-09
5.5496e-09
6.33717e-09
6.32579e-09
5.56497e-09
4.68599e-09
4.88502e-09
4.63518e-09
4.93532e-09
5.56607e-09
6.29761e-09
6.33149e-09
5.51414e-09
4.69656e-09
5.00563e-09
4.70567e-09
4.97819e-09
5.12827e-09
5.07686e-09
6.24071e-09
5.80517e-09
5.98459e-09
6.34973e-09
5.76184e-09
6.35527e-09
6.23808e-09
6.24017e-09
6.39129e-09
5.82352e-09
5.97837e-09
5.77709e-09
6.28915e-09
6.35244e-09
5.65082e-09
6.39171e-09
6.4262e-09
5.60211e-09
5.03508e-09
4.72715e-09
4.78864e-09
4.7508e-09
5.8364e-09
5.45077e-09
5.59667e-09
5.95156e-09
5.41079e-09
5.9533e-09
5.83914e-09
5.83356e-09
5.97312e-09
5.46188e-09
5.59296e-09
5.41748e-09
5.86651e-09
5.94577e-09
5.22737e-09
5.94406e-09
5.97368e-09
5.19274e-09
4.38622e-09
4.47591e-09
4.37086e-09
4.47464e-09
5.22596e-09
5.97574e-09
5.97563e-09
5.21686e-09
4.37996e-09
4.43248e-09
4.35161e-09
4.45687e-09
4.79326e-09
4.81119e-09
5.8935e-09
5.5132e-09
5.6524e-09
6.03731e-09
5.46965e-09
6.00749e-09
5.93219e-09
5.89064e-09
6.00311e-09
5.50095e-09
5.65213e-09
5.46003e-09
5.8893e-09
6.00661e-09
5.15983e-09
5.90942e-09
5.91054e-09
5.16779e-09
4.32086e-09
4.33119e-09
4.27719e-09
4.36626e-09
5.17517e-09
5.89172e-09
5.92022e-09
5.12655e-09
4.3319e-09
4.41187e-09
4.33508e-09
4.39801e-09
6.52638e-09
6.48695e-09
7.33529e-09
8.40205e-09
7.82461e-09
7.33038e-09
7.84269e-09
7.86452e-09
7.3557e-09
8.41681e-09
7.3469e-09
7.84577e-09
1.20369e-08
1.37225e-08
1.20572e-08
1.36956e-08
1.07994e-08
1.28115e-08
1.00724e-08
1.04832e-08
1.27768e-08
1.04696e-08
1.08146e-08
1.07887e-08
1.04444e-08
1.00624e-08
1.27606e-08
1.27727e-08
1.04597e-08
1.07765e-08
1.2026e-08
1.3675e-08
1.20144e-08
1.36898e-08
6.52508e-09
6.54615e-09
7.40564e-09
8.45864e-09
7.91116e-09
7.39444e-09
7.8932e-09
7.87098e-09
7.38387e-09
8.44241e-09
7.37735e-09
7.88949e-09
1.07458e-08
1.27357e-08
1.00267e-08
1.04064e-08
1.27418e-08
1.04211e-08
1.0735e-08
1.19705e-08
1.36216e-08
1.19615e-08
1.36316e-08
1.07548e-08
1.04357e-08
1.00335e-08
1.27572e-08
1.27398e-08
1.04265e-08
1.07631e-08
1.19833e-08
1.36598e-08
1.19975e-08
1.36432e-08
7.62089e-09
5.16575e-09
6.19834e-09
5.86037e-09
7.61671e-09
6.18605e-09
5.84288e-09
7.57845e-09
5.10127e-09
6.16689e-09
5.81893e-09
7.60938e-09
6.15758e-09
5.8168e-09
7.31011e-09
7.81622e-09
8.37306e-09
7.29804e-09
7.79973e-09
6.4277e-09
6.44727e-09
7.77678e-09
8.35931e-09
7.28593e-09
7.28318e-09
7.79409e-09
1.18526e-08
1.34933e-08
1.35078e-08
1.18382e-08
1.06344e-08
1.26174e-08
9.92775e-09
1.02907e-08
1.26355e-08
1.03106e-08
1.06185e-08
1.06481e-08
1.03378e-08
1.26712e-08
9.93909e-09
1.26396e-08
1.06633e-08
1.03227e-08
1.18661e-08
1.35458e-08
1.18859e-08
1.35229e-08
1.0708e-08
1.27308e-08
1.03942e-08
9.99465e-09
1.07209e-08
1.27046e-08
1.03831e-08
1.19278e-08
1.3608e-08
1.19459e-08
1.35856e-08
1.06969e-08
1.03546e-08
9.98539e-09
1.26813e-08
1.27007e-08
1.03726e-08
1.06805e-08
1.19158e-08
1.35598e-08
1.19011e-08
1.35774e-08
6.42668e-09
6.38861e-09
7.23347e-09
8.30541e-09
7.72234e-09
7.23024e-09
7.74212e-09
7.76659e-09
7.25964e-09
8.32329e-09
7.24794e-09
7.74779e-09
4.7016e-09
4.71991e-09
5.78081e-09
5.41129e-09
5.92141e-09
5.54216e-09
5.81766e-09
5.3712e-09
5.89435e-09
5.78079e-09
5.89136e-09
5.40304e-09
5.54287e-09
5.36127e-09
5.77856e-09
5.89433e-09
5.0477e-09
5.79356e-09
5.79495e-09
5.05343e-09
4.21848e-09
4.19075e-09
4.17689e-09
4.22198e-09
5.06199e-09
5.77502e-09
5.80385e-09
5.01609e-09
4.22762e-09
4.26105e-09
4.2292e-09
4.25083e-09
4.69906e-09
4.66129e-09
5.72783e-09
5.3514e-09
5.49134e-09
5.83863e-09
5.3131e-09
5.84232e-09
5.72815e-09
5.7254e-09
5.86204e-09
5.36293e-09
5.48841e-09
5.32142e-09
5.7582e-09
5.83604e-09
5.11186e-09
5.8271e-09
5.85606e-09
5.07801e-09
4.2786e-09
4.31312e-09
4.26221e-09
4.3156e-09
5.1105e-09
5.8564e-09
5.10096e-09
5.85734e-09
4.27231e-09
4.27883e-09
4.24474e-09
4.30003e-09
4.27081e-09
4.19758e-09
5.1936e-09
4.83974e-09
4.99161e-09
5.28058e-09
4.81668e-09
5.31409e-09
5.15353e-09
5.1972e-09
5.36052e-09
4.89451e-09
4.99571e-09
4.84817e-09
5.25848e-09
5.31633e-09
4.72703e-09
5.36437e-09
5.4189e-09
4.66714e-09
3.96082e-09
3.91677e-09
3.9588e-09
3.90061e-09
4.72203e-09
5.43292e-09
5.41924e-09
4.73196e-09
3.94351e-09
3.82416e-09
3.8994e-09
3.86847e-09
4.28697e-09
4.33717e-09
5.33921e-09
5.02115e-09
5.13082e-09
5.49849e-09
4.97844e-09
5.45911e-09
5.39482e-09
5.3347e-09
5.42775e-09
4.98108e-09
5.12641e-09
4.95187e-09
5.30288e-09
5.45374e-09
4.58538e-09
5.29421e-09
5.27372e-09
4.61755e-09
3.82681e-09
3.6476e-09
3.76637e-09
3.70912e-09
4.60241e-09
5.21849e-09
5.28214e-09
4.52262e-09
3.85046e-09
3.79084e-09
3.86823e-09
3.75577e-09
5.92955e-09
5.8518e-09
6.63385e-09
7.75235e-09
7.09433e-09
6.65864e-09
7.15317e-09
7.23596e-09
6.74063e-09
7.7959e-09
6.70594e-09
7.18444e-09
1.13819e-08
1.30663e-08
1.14285e-08
1.30183e-08
1.01985e-08
1.22634e-08
9.53863e-09
9.91576e-09
1.22055e-08
9.88083e-09
1.02345e-08
1.1349e-08
1.29464e-08
1.13019e-08
1.2984e-08
5.94565e-09
5.99929e-09
6.88057e-09
7.93747e-09
7.37963e-09
6.8526e-09
7.33923e-09
7.27007e-09
6.79886e-09
7.90339e-09
6.81592e-09
7.31569e-09
1.11504e-08
1.27312e-08
1.10875e-08
1.2793e-08
1.11979e-08
1.28998e-08
1.1256e-08
1.28471e-08
7.02829e-09
4.47772e-09
5.42215e-09
5.11596e-09
6.97462e-09
5.4425e-09
5.11851e-09
6.87053e-09
4.26642e-09
5.33534e-09
5.00826e-09
6.95814e-09
5.2899e-09
4.98222e-09
6.56381e-09
7.05039e-09
7.61426e-09
6.51876e-09
6.98764e-09
5.57773e-09
5.66122e-09
6.87133e-09
7.56491e-09
6.42377e-09
6.46131e-09
6.94348e-09
1.05723e-08
1.20807e-08
1.21936e-08
1.04673e-08
1.06453e-08
1.2391e-08
1.07391e-08
1.22911e-08
1.09628e-08
1.26752e-08
1.10323e-08
1.26016e-08
1.09013e-08
1.24774e-08
1.08144e-08
1.25452e-08
5.5482e-09
5.43699e-09
6.16232e-09
7.32361e-09
6.58579e-09
6.21145e-09
6.67572e-09
6.81222e-09
6.34031e-09
7.38439e-09
6.28219e-09
6.73258e-09
3.98003e-09
4.05326e-09
5.02524e-09
4.73726e-09
5.19843e-09
4.83396e-09
5.09886e-09
4.68996e-09
5.14736e-09
5.01588e-09
5.09304e-09
4.66712e-09
4.82478e-09
4.64878e-09
4.96145e-09
5.13604e-09
4.24543e-09
4.93436e-09
4.89833e-09
4.29714e-09
3.54982e-09
3.27743e-09
3.47978e-09
3.35095e-09
4.26649e-09
4.82091e-09
4.90623e-09
4.16254e-09
3.57711e-09
3.44391e-09
3.60377e-09
3.39615e-09
3.95269e-09
3.85519e-09
4.80848e-09
4.46012e-09
4.62962e-09
4.88065e-09
4.4482e-09
4.93141e-09
4.74513e-09
4.81836e-09
4.99757e-09
4.54851e-09
4.63905e-09
4.49733e-09
4.89922e-09
4.94193e-09
4.44373e-09
5.03052e-09
5.10483e-09
4.36029e-09
3.72381e-09
3.61255e-09
3.73249e-09
3.58111e-09
4.43501e-09
5.1339e-09
4.46399e-09
5.105e-09
3.69884e-09
3.48057e-09
3.64199e-09
3.54222e-09
3.36333e-09
3.2339e-09
3.19415e-09
3.04533e-09
3.66867e-09
2.93537e-09
3.32417e-09
3.05702e-09
3.02275e-09
3.29469e-09
3.46887e-09
3.57869e-09
3.73136e-09
3.42749e-09
3.44448e-09
3.22108e-09
3.70342e-09
3.73191e-09
3.90903e-09
3.70114e-09
3.1095e-09
3.11855e-09
3.12419e-09
3.0861e-09
3.63025e-09
3.96477e-09
3.89319e-09
3.6135e-09
3.12186e-09
2.88133e-09
3.08218e-09
3.02886e-09
3.26495e-09
3.30479e-09
3.74435e-09
3.71523e-09
3.94231e-09
3.99346e-09
3.67005e-09
3.89481e-09
3.86077e-09
3.6625e-09
3.6427e-09
3.6406e-09
4.00846e-09
3.6407e-09
3.54959e-09
3.82183e-09
3.60787e-09
3.53059e-09
3.3177e-09
3.59959e-09
3.15483e-09
2.31316e-09
3.22785e-09
2.34115e-09
3.51966e-09
2.9882e-09
3.14781e-09
3.43643e-09
3.11088e-09
2.70173e-09
3.05737e-09
2.50075e-09
3.87048e-09
3.56081e-09
3.40745e-09
4.60904e-09
3.59273e-09
3.72196e-09
3.90096e-09
4.31984e-09
4.2381e-09
4.81815e-09
4.01684e-09
4.10916e-09
6.96703e-09
8.33616e-09
7.21879e-09
7.94516e-09
6.71036e-09
7.28564e-09
6.47433e-09
7.66176e-09
3.92977e-09
4.10098e-09
4.74338e-09
5.5317e-09
4.82664e-09
4.63091e-09
4.72222e-09
4.4808e-09
4.43055e-09
5.52485e-09
4.56613e-09
4.61841e-09
5.91814e-09
6.42937e-09
5.78504e-09
6.69943e-09
6.05635e-09
7.06018e-09
6.24731e-09
6.73514e-09
3.17558e-09
1.49303e-09
2.43964e-09
2.53423e-09
3.20057e-09
1.67438e-09
1.81842e-09
1.05939e-08
1.31272e-08
1.27381e-08
1.14077e-08
1.49408e-08
1.34009e-08
9.71709e-09
9.7454e-09
1.18469e-08
1.46233e-08
1.58905e-08
1.4274e-08
7.74048e-09
9.58404e-09
7.86137e-09
5.48927e-09
6.29188e-09
6.60591e-09
6.24313e-09
5.29777e-09
6.64725e-09
8.78224e-09
6.95772e-09
7.4702e-09
8.67317e-09
7.06413e-09
6.68556e-09
3.51596e-09
3.25903e-09
4.17972e-09
7.72589e-09
3.60627e-09
5.61155e-09
5.44392e-09
3.39374e-09
5.01346e-09
3.08028e-09
3.26177e-09
3.79973e-09
2.61977e-09
2.88988e-09
2.31856e-09
2.08313e-09
2.09026e-09
3.69442e-09
2.66826e-09
2.51612e-09
2.48458e-09
8.21756e-09
6.4445e-09
5.30902e-09
5.06759e-09
6.96339e-09
5.37156e-09
7.52733e-09
4.50457e-09
5.77075e-09
6.57897e-09
5.7619e-09
6.5009e-09
6.00881e-09
6.95336e-09
5.62227e-09
7.04922e-09
4.06492e-09
1.78923e-09
2.90089e-09
1.35579e-09
1.90633e-09
2.49805e-09
2.54488e-09
2.70493e-09
2.95224e-09
2.93613e-09
2.63826e-09
2.81814e-09
3.17081e-09
2.88359e-09
2.73696e-09
2.78053e-09
1.81295e-09
2.13835e-09
2.58272e-09
4.57306e-09
3.01845e-09
4.87373e-09
4.03529e-09
3.47092e-09
4.1551e-09
4.67976e-09
3.75214e-09
3.84466e-09
2.80965e-09
3.21918e-09
4.51784e-09
3.0959e-09
3.1829e-09
2.41211e-09
2.41666e-09
2.97329e-09
2.28384e-09
2.53019e-09
2.41335e-09
2.81369e-09
2.58906e-09
2.75554e-09
2.77483e-09
3.02052e-09
2.70802e-09
2.03112e-09
3.36972e-09
1.94112e-09
2.74436e-09
1.45793e-08
1.46212e-08
1.47095e-08
1.46466e-08
1.47319e-08
1.4325e-08
1.43419e-08
1.43852e-08
1.43578e-08
1.44486e-08
1.4429e-08
1.44002e-08
1.44198e-08
1.45604e-08
1.45178e-08
1.44969e-08
1.45148e-08
1.44627e-08
1.44682e-08
1.44848e-08
1.44743e-08
7.79659e-09
5.38894e-09
6.45651e-09
6.12226e-09
7.82411e-09
6.45066e-09
6.11645e-09
7.83131e-09
5.47776e-09
6.49796e-09
6.17133e-09
7.82605e-09
6.48143e-09
6.15505e-09
4.8866e-09
4.90651e-09
6.01393e-09
5.62105e-09
5.76432e-09
6.16157e-09
5.57595e-09
6.12957e-09
6.05537e-09
6.01252e-09
6.12776e-09
5.60971e-09
5.76461e-09
5.56576e-09
6.01069e-09
6.13001e-09
5.27626e-09
6.03447e-09
6.03332e-09
5.28495e-09
4.42997e-09
4.49695e-09
4.38481e-09
4.5361e-09
5.29103e-09
6.01212e-09
5.24221e-09
6.04162e-09
4.44112e-09
4.58646e-09
4.4448e-09
4.57036e-09
4.88404e-09
4.84496e-09
5.95417e-09
5.55316e-09
5.71111e-09
6.06891e-09
5.51355e-09
5.95623e-09
6.07187e-09
5.95295e-09
6.09517e-09
5.56622e-09
5.70728e-09
5.52141e-09
5.98846e-09
6.06586e-09
5.34903e-09
6.07205e-09
6.10151e-09
5.31186e-09
4.50135e-09
4.65235e-09
4.4861e-09
4.65192e-09
5.34682e-09
6.10523e-09
6.10275e-09
5.34189e-09
4.4923e-09
4.60816e-09
4.46245e-09
4.63373e-09
6.62483e-09
6.64732e-09
7.5119e-09
8.57019e-09
8.01692e-09
7.5002e-09
7.9992e-09
7.97666e-09
7.48484e-09
8.5573e-09
7.48384e-09
7.99353e-09
1.2088e-08
1.37358e-08
1.20735e-08
1.37541e-08
1.08506e-08
1.28223e-08
1.01242e-08
1.05e-08
1.28482e-08
1.08322e-08
1.05214e-08
1.0866e-08
1.05572e-08
1.01373e-08
1.28997e-08
1.28561e-08
1.0539e-08
1.08867e-08
1.21002e-08
1.37948e-08
1.37647e-08
1.21222e-08
6.62381e-09
6.58512e-09
7.43215e-09
8.49654e-09
7.92106e-09
7.42859e-09
7.93978e-09
7.96418e-09
7.4598e-09
8.51442e-09
7.44606e-09
7.94658e-09
1.21635e-08
1.38535e-08
1.3832e-08
1.21787e-08
1.21502e-08
1.38026e-08
1.38243e-08
1.21352e-08
6.75102e-09
6.69811e-09
7.54131e-09
8.5889e-09
8.02273e-09
7.53356e-09
8.04505e-09
8.06966e-09
7.55942e-09
8.60685e-09
7.55669e-09
8.04212e-09
1.22756e-08
1.39817e-08
1.23072e-08
1.39379e-08
1.22607e-08
1.39178e-08
1.39336e-08
1.22494e-08
6.74587e-09
6.77878e-09
7.63206e-09
8.13128e-09
8.64883e-09
7.61749e-09
8.10212e-09
8.0695e-09
7.60146e-09
8.61999e-09
7.58864e-09
8.09913e-09
1.21987e-08
1.38662e-08
1.38718e-08
1.21952e-08
1.22151e-08
1.38939e-08
1.38852e-08
1.22234e-08
5.00092e-09
4.9546e-09
6.08028e-09
5.66646e-09
5.83389e-09
6.19682e-09
5.62654e-09
6.08218e-09
6.19991e-09
6.08038e-09
6.22552e-09
5.68585e-09
5.83267e-09
5.63385e-09
6.11845e-09
6.19145e-09
5.49261e-09
6.21054e-09
6.24355e-09
5.45202e-09
4.63365e-09
4.8579e-09
4.62148e-09
4.84954e-09
5.48931e-09
6.25163e-09
5.48363e-09
6.24629e-09
4.62709e-09
4.79339e-09
4.59336e-09
4.82621e-09
5.01218e-09
5.03672e-09
6.16227e-09
5.75298e-09
6.30874e-09
5.91888e-09
6.20867e-09
5.7051e-09
6.27161e-09
6.15488e-09
6.26226e-09
5.73188e-09
5.91648e-09
5.69248e-09
6.15149e-09
6.26914e-09
5.40834e-09
6.16921e-09
6.1668e-09
5.42336e-09
4.5521e-09
4.67224e-09
4.505e-09
4.71275e-09
5.42656e-09
6.14707e-09
5.37193e-09
6.17735e-09
4.56651e-09
4.76884e-09
4.57319e-09
4.75019e-09
1.43111e-08
1.42851e-08
1.42648e-08
1.42795e-08
1.42155e-08
1.42243e-08
1.42514e-08
1.42356e-08
1.40841e-08
1.40973e-08
1.41353e-08
1.41147e-08
1.41993e-08
1.41788e-08
1.41524e-08
1.41687e-08
1.36991e-08
1.37277e-08
1.37949e-08
1.37617e-08
1.39023e-08
1.38741e-08
1.38266e-08
1.38522e-08
1.40653e-08
1.40409e-08
1.40101e-08
1.40279e-08
1.39294e-08
1.39452e-08
1.39885e-08
1.39664e-08
7.48601e-09
4.99876e-09
6.06201e-09
5.71385e-09
7.51778e-09
6.05201e-09
5.71176e-09
7.5325e-09
5.07306e-09
6.0975e-09
5.75955e-09
7.52627e-09
6.08592e-09
5.74247e-09
4.48299e-09
4.51436e-09
5.53966e-09
5.19791e-09
5.32064e-09
5.68673e-09
5.1593e-09
5.65781e-09
5.58105e-09
5.53784e-09
5.64428e-09
5.18032e-09
5.319e-09
5.14298e-09
5.52438e-09
5.65574e-09
4.8203e-09
5.53513e-09
5.52942e-09
4.83515e-09
4.03415e-09
3.94488e-09
3.9833e-09
3.9909e-09
4.83589e-09
5.49209e-09
4.77449e-09
5.5382e-09
4.04934e-09
4.04719e-09
4.05681e-09
4.02885e-09
4.4758e-09
4.42274e-09
5.45155e-09
5.09254e-09
5.2373e-09
5.55372e-09
5.06102e-09
5.43232e-09
5.57207e-09
5.4513e-09
5.6019e-09
5.12184e-09
5.2376e-09
5.07983e-09
5.49528e-09
5.56929e-09
4.90718e-09
5.58095e-09
5.61852e-09
4.86805e-09
4.11172e-09
4.09405e-09
4.09372e-09
4.10324e-09
4.90503e-09
5.62002e-09
5.62039e-09
4.89395e-09
4.10664e-09
4.06795e-09
4.07636e-09
4.09005e-09
6.17451e-09
6.20791e-09
7.0764e-09
8.13917e-09
7.58022e-09
7.05888e-09
7.55457e-09
7.51304e-09
7.03028e-09
8.11648e-09
7.03507e-09
7.54205e-09
1.14968e-08
1.31044e-08
1.14632e-08
1.3139e-08
1.03025e-08
1.22808e-08
9.63362e-09
9.94856e-09
1.23185e-08
1.02707e-08
9.98496e-09
1.03291e-08
1.00368e-08
9.65459e-09
1.23736e-08
1.23272e-08
1.00085e-08
1.03569e-08
1.15237e-08
1.32059e-08
1.31693e-08
1.15591e-08
6.167e-09
6.11219e-09
6.92896e-09
8.02162e-09
7.40578e-09
6.93824e-09
7.44324e-09
7.49293e-09
6.98986e-09
8.05134e-09
6.96897e-09
7.45989e-09
1.04337e-08
1.24702e-08
9.74825e-09
1.01332e-08
1.24312e-08
1.01122e-08
1.04558e-08
1.16349e-08
1.33131e-08
1.32824e-08
1.16642e-08
1.04133e-08
1.00638e-08
9.73153e-09
1.23892e-08
1.24225e-08
1.00932e-08
1.03863e-08
1.16148e-08
1.32351e-08
1.3263e-08
1.15866e-08
6.31683e-09
6.27379e-09
7.11032e-09
8.18875e-09
7.59556e-09
7.11048e-09
7.62063e-09
7.65195e-09
7.14517e-09
8.20975e-09
7.13173e-09
7.62885e-09
1.17981e-08
1.34755e-08
1.18206e-08
1.34499e-08
1.05838e-08
1.26073e-08
1.02744e-08
9.88048e-09
1.06001e-08
1.25739e-08
1.02592e-08
1.17842e-08
1.3419e-08
1.34375e-08
1.17663e-08
1.05698e-08
1.02259e-08
9.86816e-09
1.25467e-08
1.25677e-08
1.02465e-08
1.05518e-08
6.31923e-09
6.34284e-09
7.20556e-09
7.71149e-09
8.26777e-09
7.19243e-09
7.69196e-09
7.6639e-09
7.17622e-09
8.25004e-09
7.17436e-09
7.68501e-09
1.04988e-08
1.24817e-08
9.8059e-09
1.0154e-08
1.25017e-08
1.04794e-08
1.0178e-08
1.17064e-08
1.33378e-08
1.33553e-08
1.16875e-08
1.17238e-08
1.33986e-08
1.33748e-08
1.17468e-08
1.05153e-08
1.02088e-08
9.81898e-09
1.25364e-08
1.25058e-08
1.01916e-08
1.0532e-08
4.60184e-09
4.56054e-09
5.60915e-09
5.24498e-09
5.38112e-09