/*--------------------------------*- C++ -*----------------------------------*\
| =========                 |                                                 |
| \\      /  F ield         | OpenFOAM: The Open Source CFD Toolbox           |
|  \\    /   O peration     | Version:  2012                                  |
|   \\  /    A nd           | Website:  www.openfoam.com                      |
|    \\/     M anipulation  |                                                 |
\*---------------------------------------------------------------------------*/
FoamFile
{
    version     2.0;
    format      ascii;
    class       pointVectorField;
    location    "0.105/solid";
    object      pointD;
}
// * * * * * * * * * * * * * * * * * * * * * * * * * * * * * * * * * * * * * //

dimensions      [0 1 0 0 0 0 0];


internalField   nonuniform List<vector> 
5097
(
(1.92706e-11 1.04809e-11 -1.57563e-12)
(1.80406e-11 9.71058e-12 -2.45556e-12)
(1.20714e-11 1.18816e-11 -5.82163e-12)
(2.00001e-11 1.08567e-11 -1.97551e-12)
(1.86452e-11 1.01059e-11 -1.68269e-12)
(1.62696e-11 9.29226e-12 -3.24952e-12)
(1.96695e-11 1.071e-11 -1.5269e-12)
(-3.1603e-11 -2.22297e-12 -5.92503e-13)
(1.92243e-10 1.10191e-09 -7.47181e-12)
(1.89666e-11 1.02997e-11 -1.51177e-12)
(1.84394e-11 9.92198e-12 -1.94222e-12)
(-3.01478e-11 -2.86159e-12 -9.01357e-13)
(1.74042e-10 1.058e-09 -7.14143e-12)
(1.73323e-11 9.47565e-12 -2.97835e-12)
(1.47871e-11 9.45122e-12 -3.16231e-12)
(-3.1824e-11 -5.44573e-12 -3.02651e-12)
(1.30392e-10 9.45497e-10 1.36695e-10)
(3.03018e-12 5.76872e-12 -1.12044e-11)
(2.0249e-10 1.12014e-09 -8.41684e-12)
(-3.20539e-11 -1.71968e-12 -6.70842e-13)
(1.84086e-10 1.08352e-09 -7.4308e-12)
(-3.11718e-11 -2.60042e-12 -5.68214e-13)
(1.52439e-10 1.01619e-09 1.02057e-11)
(-2.94066e-11 -3.85164e-12 -1.45619e-12)
(1.8811e-10 1.09325e-09 -7.03408e-12)
(1.64981e-10 1.03999e-09 -3.22705e-12)
(1.8623e-10 7.75781e-10 2.91958e-10)
(1.97169e-10 1.11141e-09 -6.86613e-12)
(1.79991e-10 1.07219e-09 -7.57616e-12)
(1.37908e-10 9.87947e-10 4.76299e-11)
(-3.14305e-11 -2.43256e-12 -5.78574e-13)
(-2.97414e-11 -3.23523e-12 -1.17074e-12)
(-2.10314e-11 2.31059e-13 -4.38089e-12)
(-3.18419e-11 -1.9795e-12 -6.32695e-13)
(-3.06415e-11 -2.68489e-12 -5.86042e-13)
(-2.98807e-11 -4.83203e-12 -1.78397e-12)
(9.63706e-11 3.93258e-10 -5.47578e-12)
(7.90592e-11 3.72485e-10 -5.88996e-12)
(4.1418e-11 3.35368e-10 7.47773e-11)
(1.00398e-10 3.97573e-10 -5.54109e-12)
(8.56061e-11 3.79382e-10 -6.21665e-12)
(3.81258e-11 3.47471e-10 3.29368e-11)
(1.10861e-10 4.07307e-10 -5.85238e-12)
(9.26284e-11 3.89351e-10 -5.55053e-12)
(6.87883e-11 3.63902e-10 -2.45955e-12)
(1.35464e-10 2.31381e-10 1.64648e-10)
(1.05484e-10 4.01181e-10 -5.74682e-12)
(8.93765e-11 3.84754e-10 -5.80072e-12)
(5.40807e-11 3.54494e-10 8.43837e-12)
(1.94922e-11 1.06332e-11 -1.54897e-12)
(-4.30156e-11 3.90982e-12 -1.59596e-12)
(1.6568e-10 5.31482e-10 -6.26184e-12)
(1.90927e-11 1.03623e-11 -1.52791e-12)
(1.82737e-11 9.82031e-12 -2.17316e-12)
(-4.214e-11 3.08909e-12 -2.45069e-12)
(1.52355e-10 5.08905e-10 -7.35963e-12)
(1.77135e-11 9.58892e-12 -2.72964e-12)
(1.38049e-11 9.98028e-12 -3.65536e-12)
(-4.36874e-11 4.41673e-12 -4.95766e-12)
(1.22827e-10 4.57372e-10 7.03369e-11)
(8.07668e-12 1.69774e-11 -1.55881e-11)
(2.04499e-11 1.11672e-11 -1.95028e-12)
(1.97341e-11 1.07005e-11 -1.71027e-12)
(1.73377e-10 5.41293e-10 -6.94036e-12)
(-4.29935e-11 4.38295e-12 -2.00232e-12)
(1.87927e-11 1.02115e-11 -1.5807e-12)
(1.85255e-11 1.00029e-11 -1.78737e-12)
(1.59596e-10 5.2187e-10 -6.48513e-12)
(-4.28629e-11 3.4948e-12 -1.62403e-12)
(1.68406e-11 9.3704e-12 -3.16204e-12)
(1.55719e-11 9.28405e-12 -3.20087e-12)
(1.37062e-10 4.8834e-10 1.54954e-12)
(-4.22937e-11 2.31223e-12 -3.47455e-12)
(8.15372e-13 5.38882e-12 7.89722e-12)
(2.6243e-10 7.62607e-10 -5.47115e-12)
(1.63592e-10 2.24315e-10 -3.76442e-12)
(2.29252e-10 7.18548e-10 -2.47912e-13)
(1.33103e-10 2.07701e-10 -1.73025e-12)
(2.20166e-10 5.91845e-10 2.16067e-10)
(8.20349e-11 1.68422e-10 6.52715e-11)
(2.75208e-10 7.77577e-10 -5.30044e-12)
(1.76348e-10 2.30807e-10 -3.734e-12)
(2.5084e-10 7.45413e-10 -5.47914e-12)
(1.53508e-10 2.17663e-10 -3.80036e-12)
(1.84924e-10 6.81035e-10 4.25806e-11)
(8.58681e-11 1.94612e-10 1.60544e-11)
(1.69269e-10 5.36201e-10 -6.26262e-12)
(-4.30095e-11 4.17248e-12 -1.60254e-12)
(1.69632e-10 2.27536e-10 -3.71659e-12)
(-3.14336e-11 -2.32395e-12 -5.91252e-13)
(-3.16174e-11 -2.10425e-12 -6.05562e-13)
(2.68453e-10 7.69712e-10 -5.58962e-12)
(1.90209e-10 1.09692e-09 -7.09787e-12)
(1.94716e-10 1.10749e-09 -7.45124e-12)
(1.62563e-10 5.26827e-10 -6.1364e-12)
(-4.29881e-11 3.7032e-12 -1.53021e-12)
(1.56619e-10 5.16056e-10 -6.97698e-12)
(-4.24562e-11 3.32717e-12 -1.84223e-12)
(1.46043e-10 2.13373e-10 -3.63724e-12)
(-2.9881e-11 -3.02262e-12 -1.04146e-12)
(-3.02659e-11 -2.74007e-12 -7.3985e-13)
(2.42411e-10 7.33771e-10 -4.49775e-12)
(1.70035e-10 1.04913e-09 -5.928e-12)
(1.77412e-10 1.06542e-09 -7.59275e-12)
(1.45869e-10 4.99632e-10 -5.82873e-12)
(-4.20652e-11 2.74167e-12 -3.0661e-12)
(1.27326e-10 4.75611e-10 2.28561e-11)
(-4.32163e-11 2.01652e-12 -3.41296e-12)
(5.91891e-11 1.90386e-10 3.37271e-11)
(-3.26706e-11 -4.66281e-12 -4.59441e-12)
(-3.08059e-11 -5.34874e-12 -2.19564e-12)
(1.66259e-10 6.66816e-10 1.07377e-10)
(1.41922e-10 8.93285e-10 2.06909e-10)
(1.3198e-10 9.70418e-10 8.34755e-11)
(1.52941e-10 3.67606e-10 1.80494e-10)
(-1.91652e-11 3.53818e-12 -8.74112e-12)
(2.06725e-10 1.13042e-09 -7.76589e-12)
(2.83203e-10 7.848e-10 -5.62586e-12)
(1.99588e-10 1.1134e-09 -7.11564e-12)
(1.84217e-10 2.34681e-10 -3.48457e-12)
(-3.21502e-11 -1.59439e-12 -7.67671e-13)
(-3.18531e-11 -1.83051e-12 -6.71548e-13)
(1.86117e-10 1.08865e-09 -7.28501e-12)
(2.56772e-10 7.54638e-10 -5.60236e-12)
(1.82214e-10 1.07783e-09 -7.50601e-12)
(1.58181e-10 2.21123e-10 -3.8332e-12)
(-3.1226e-11 -2.51922e-12 -5.80493e-13)
(-3.08724e-11 -2.64648e-12 -5.50486e-13)
(1.59227e-10 1.02888e-09 1.5715e-12)
(2.1004e-10 6.99805e-10 1.21354e-11)
(1.45358e-10 1.00241e-09 2.44728e-11)
(1.1336e-10 2.00843e-10 3.90189e-12)
(-2.94725e-11 -3.49942e-12 -1.31622e-12)
(-2.9416e-11 -4.29529e-12 -1.60485e-12)
(3.0146e-10 6.07157e-10 3.94013e-10)
(-5.83635e-12 2.56847e-12 1.50424e-12)
(9.83197e-11 3.95343e-10 -5.53343e-12)
(1.64058e-10 5.2898e-10 -6.16684e-12)
(1.66769e-10 2.25915e-10 -3.7587e-12)
(2.65459e-10 7.65879e-10 -5.46482e-12)
(9.44282e-11 3.91372e-10 -5.46073e-12)
(8.27463e-11 3.76165e-10 -6.27241e-12)
(1.49403e-10 5.04521e-10 -6.99797e-12)
(1.40415e-10 2.10694e-10 -3.00499e-12)
(2.36521e-10 7.26598e-10 -3.02378e-12)
(7.44312e-11 3.68394e-10 -4.75974e-12)
(3.45782e-11 3.44584e-10 5.1307e-11)
(1.29597e-10 4.31926e-10 1.10633e-10)
(5.20219e-11 1.81423e-10 4.51041e-11)
(1.76998e-10 6.50144e-10 1.56449e-10)
(7.14632e-11 3.03938e-10 1.11583e-10)
(1.6746e-10 5.34103e-10 -6.25273e-12)
(1.0279e-10 3.9948e-10 -5.56243e-12)
(1.72901e-10 2.2908e-10 -3.68634e-12)
(2.71612e-10 7.74245e-10 -5.59435e-12)
(1.54724e-10 5.12688e-10 -7.25703e-12)
(8.77016e-11 3.82226e-10 -5.98692e-12)
(1.50599e-10 2.15687e-10 -3.82959e-12)
(2.47118e-10 7.39973e-10 -5.22013e-12)
(1.23638e-10 4.68318e-10 4.24036e-11)
(4.56333e-11 3.5051e-10 1.86901e-11)
(7.1424e-11 1.92892e-10 2.46506e-11)
(1.72664e-10 6.73449e-10 6.94724e-11)
(2.87741e-10 7.93391e-10 -5.16528e-12)
(1.88093e-10 2.36148e-10 -3.33827e-12)
(1.76175e-10 5.4528e-10 -6.74855e-12)
(1.08017e-10 4.03847e-10 -5.93964e-12)
(2.59559e-10 7.5887e-10 -5.57392e-12)
(1.60947e-10 2.22743e-10 -3.80514e-12)
(1.61053e-10 5.24484e-10 -6.27245e-12)
(9.09448e-11 3.87131e-10 -5.67241e-12)
(2.20464e-10 7.09481e-10 4.42664e-12)
(1.24337e-10 2.04378e-10 4.44544e-13)
(1.4173e-10 4.9425e-10 -3.24304e-12)
(6.19488e-11 3.59158e-10 1.67376e-12)
(3.15386e-10 4.85764e-10 3.06171e-10)
(1.47488e-10 1.28169e-10 9.43682e-11)
(2.23862e-10 2.5418e-10 2.95772e-10)
(1.71076e-10 5.38049e-10 -6.57246e-12)
(2.79247e-10 7.79635e-10 -5.22825e-12)
(1.80672e-10 2.32852e-10 -3.74814e-12)
(1.58155e-10 5.19028e-10 -6.71114e-12)
(2.53966e-10 7.50175e-10 -5.5808e-12)
(1.55974e-10 2.19418e-10 -3.81182e-12)
(1.32103e-10 4.82096e-10 9.74567e-12)
(1.97959e-10 6.89925e-10 2.41839e-11)
(1.00498e-10 1.97403e-10 9.03166e-12)
(-4.29677e-11 3.78926e-12 -1.54611e-12)
(-4.20609e-11 2.92412e-12 -2.77037e-12)
(-4.30487e-11 8.66249e-12 -1.14094e-11)
(-4.30233e-11 4.06177e-12 -1.60562e-12)
(-4.22296e-11 3.22387e-12 -2.11847e-12)
(-4.38445e-11 2.38225e-12 -3.66699e-12)
(-4.3126e-11 4.67828e-12 -2.10423e-12)
(-4.29306e-11 3.60018e-12 -1.57077e-12)
(-4.21028e-11 2.53331e-12 -3.31919e-12)
(-3.057e-12 2.40813e-12 1.39578e-12)
(-4.28996e-11 4.22018e-12 -1.74587e-12)
(-4.26717e-11 3.40178e-12 -1.68962e-12)
(-4.26366e-11 2.10401e-12 -3.48228e-12)
(1.92517e-10 4.40464e-10 -5.14085e-12)
(1.95589e-10 4.42917e-10 -5.13539e-12)
(1.6302e-10 4.13821e-10 -2.951e-12)
(1.69469e-10 4.18602e-10 -4.38761e-12)
(1.1793e-10 3.71184e-10 1.15126e-10)
(9.58475e-11 3.8486e-10 8.18411e-11)
(2.0189e-10 4.4809e-10 -5.11026e-12)
(1.98581e-10 4.45506e-10 -5.13212e-12)
(1.78529e-10 4.2647e-10 -5.24934e-12)
(1.74587e-10 4.22785e-10 -5.05341e-12)
(1.07772e-10 3.88004e-10 3.64384e-11)
(9.73257e-11 3.86437e-10 5.62746e-11)
(2.18708e-10 4.60402e-10 -4.55746e-12)
(2.13712e-10 4.56774e-10 -4.8556e-12)
(4.46139e-10 1.16813e-09 -2.29915e-12)
(4.52311e-10 1.17893e-09 -3.14301e-12)
(1.09993e-10 7.11722e-11 -1.24205e-12)
(1.13349e-10 7.14769e-11 -9.96009e-13)
(9.7676e-11 6.92701e-11 -1.49459e-12)
(9.55148e-11 6.88693e-11 -1.57314e-12)
(4.26969e-10 1.1386e-09 -4.06944e-12)
(4.24014e-10 1.13418e-09 -4.26744e-12)
(1.89578e-10 4.38056e-10 -5.1629e-12)
(1.86843e-10 4.35462e-10 -5.23978e-12)
(4.18021e-10 1.12407e-09 -3.96962e-12)
(4.21102e-10 1.12973e-09 -4.10797e-12)
(9.15449e-11 6.80248e-11 -1.6522e-12)
(9.34886e-11 6.8455e-11 -1.55828e-12)
(8.15488e-11 6.58539e-11 -1.07884e-12)
(7.69042e-11 6.52976e-11 -5.24004e-13)
(3.97977e-10 1.08739e-09 -5.22726e-13)
(3.91171e-10 1.07669e-09 2.26009e-12)
(1.55088e-10 4.0853e-10 -3.22397e-13)
(1.45428e-10 4.02749e-10 4.07498e-12)
(3.73193e-10 1.05099e-09 1.44605e-11)
(3.83036e-10 1.06463e-09 6.96322e-12)
(6.39235e-11 6.42211e-11 1.91951e-12)
(7.11995e-11 6.47506e-11 4.82952e-13)
(1.53245e-11 6.04684e-11 1.3227e-11)
(3.10577e-11 5.29612e-11 1.37975e-11)
(3.05865e-10 9.62937e-10 1.81637e-10)
(3.10188e-10 9.01965e-10 2.67376e-10)
(1.72769e-10 3.20945e-10 1.67954e-10)
(3.57825e-10 7.7406e-10 3.52254e-10)
(6.4641e-11 4.00085e-11 1.87766e-11)
(2.06025e-10 4.5054e-10 -5.14199e-12)
(2.10288e-10 4.53306e-10 -5.06948e-12)
(9.97848e-11 6.96372e-11 -1.50794e-12)
(1.02191e-10 7.00331e-11 -1.40544e-12)
(4.30428e-10 1.14483e-09 -3.95284e-12)
(4.34119e-10 1.15097e-09 -4.2884e-12)
(4.40573e-10 1.15645e-09 -3.40512e-12)
(4.37212e-10 1.15335e-09 -4.53612e-12)
(1.07506e-10 7.09247e-11 -1.33185e-12)
(1.04746e-10 7.04611e-11 -1.43581e-12)
(1.8156e-10 4.29707e-10 -5.28094e-12)
(1.84225e-10 4.32688e-10 -5.27341e-12)
(8.51011e-11 6.63809e-11 -1.44708e-12)
(8.75823e-11 6.68631e-11 -1.52838e-12)
(4.03499e-10 1.09665e-09 -2.20669e-12)
(4.08037e-10 1.10481e-09 -3.10469e-12)
(4.14934e-10 1.11801e-09 -3.82438e-12)
(4.11716e-10 1.11172e-09 -3.64245e-12)
(9.00415e-11 6.76389e-11 -1.61523e-12)
(8.8784e-11 6.72208e-11 -1.6316e-12)
(6.03799e-11 1.30151e-09 4.04497e-13)
(5.25708e-11 1.27248e-09 1.33245e-11)
(5.69264e-11 1.28775e-09 5.14398e-12)
(3.32159e-11 1.17293e-09 1.44614e-10)
(3.77787e-11 1.20977e-09 8.50732e-11)
(4.79162e-11 1.25603e-09 2.6499e-11)
(4.26363e-11 1.23453e-09 4.89127e-11)
(1.20962e-10 3.91648e-10 2.15515e-11)
(1.33947e-10 3.9691e-10 1.10559e-11)
(1.89699e-11 6.28795e-11 1.20367e-11)
(3.13155e-11 6.33267e-11 9.6406e-12)
(3.17311e-10 9.87694e-10 1.17107e-10)
(3.33394e-10 1.00562e-09 7.34001e-11)
(3.61782e-10 1.03653e-09 2.63329e-11)
(3.48208e-10 1.02097e-09 4.47676e-11)
(5.49799e-11 6.37865e-11 4.04043e-12)
(4.38797e-11 6.34724e-11 6.69585e-12)
(3.32347e-11 1.11493e-09 2.38182e-10)
(4.94102e-11 9.97854e-10 3.70741e-10)
(1.22046e-10 8.03603e-10 5.00476e-10)
(3.3681e-10 5.524e-10 -4.22173e-12)
(2.49894e-10 2.94745e-10 -3.654e-12)
(2.97343e-10 5.16016e-10 1.99679e-12)
(2.11692e-10 2.72914e-10 9.21739e-13)
(2.69737e-10 4.37396e-10 1.80559e-10)
(1.7559e-10 2.3386e-10 1.03252e-10)
(3.51868e-10 5.65297e-10 -4.00765e-12)
(2.65225e-10 3.03116e-10 -3.39078e-12)
(3.22941e-10 5.38156e-10 -3.95057e-12)
(2.36721e-10 2.86062e-10 -3.57011e-12)
(2.44868e-10 4.85577e-10 3.96877e-11)
(1.58136e-10 2.55622e-10 2.75079e-11)
(-2.7823e-12 2.86873e-12 -7.7596e-14)
(5.37626e-11 1.2351e-10 -2.55567e-12)
(-3.4394e-11 3.41375e-12 -5.43809e-13)
(-3.45462e-11 3.54453e-12 -6.1965e-13)
(2.35195e-10 1.31971e-09 -5.61013e-12)
(2.13548e-10 9.64907e-10 -6.65779e-12)
(1.912e-10 1.09923e-09 -7.31915e-12)
(1.93435e-10 1.10475e-09 -7.51777e-12)
(1.99767e-10 1.12151e-09 -7.37086e-12)
(-2.99884e-12 2.43867e-12 -1.07102e-13)
(4.22577e-11 1.15505e-10 -2.85531e-12)
(-3.23874e-11 2.45313e-12 -9.00397e-13)
(-3.26944e-11 2.64769e-12 -8.19722e-13)
(2.15894e-10 1.26742e-09 -3.90388e-12)
(1.91989e-10 9.23898e-10 -5.96552e-12)
(1.72131e-10 1.05375e-09 -6.70011e-12)
(1.75822e-10 1.06182e-09 -7.39692e-12)
(1.84085e-10 1.07769e-09 -7.03047e-12)
(-7.17339e-12 4.0237e-13 -4.25389e-13)
(-1.04937e-11 1.00246e-10 1.34017e-11)
(-3.18986e-11 -9.94705e-13 -2.29153e-12)
(-3.1726e-11 -8.51541e-13 -1.85906e-12)
(1.57679e-10 1.12613e-09 1.61433e-10)
(1.32176e-10 8.33322e-10 1.23131e-10)
(1.33605e-10 9.25009e-10 1.69811e-10)
(1.30387e-10 9.59211e-10 1.07767e-10)
(1.55189e-10 9.48341e-10 1.53161e-10)
(2.46046e-10 1.34098e-09 -5.45102e-12)
(2.04496e-10 1.12541e-09 -8.5039e-12)
(2.25778e-10 9.81725e-10 -7.25692e-12)
(2.08569e-10 1.14043e-09 -8.10759e-12)
(2.00885e-10 1.11591e-09 -7.81512e-12)
(-2.47935e-12 3.15426e-12 -8.10765e-14)
(6.16049e-11 1.27653e-10 -2.51828e-12)
(-3.53246e-11 4.17632e-12 -7.17068e-13)
(-3.51618e-11 4.03687e-12 -6.15775e-13)
(2.26563e-10 1.29794e-09 -5.47146e-12)
(1.85088e-10 1.08616e-09 -7.3384e-12)
(2.0388e-10 9.47798e-10 -6.62499e-12)
(1.92707e-10 1.103e-09 -7.33962e-12)
(1.83158e-10 1.08072e-09 -7.50848e-12)
(-3.02768e-12 2.62982e-12 -7.31445e-14)
(4.76467e-11 1.19817e-10 -2.59321e-12)
(-3.38781e-11 3.03652e-12 -5.92689e-13)
(-3.36578e-11 2.94361e-12 -5.06284e-13)
(1.927e-10 1.2162e-09 1.68768e-11)
(1.55969e-10 1.02271e-09 5.31752e-12)
(1.65419e-10 8.84893e-10 1.11441e-11)
(1.66778e-10 1.03521e-09 1.10078e-11)
(1.48899e-10 1.00947e-09 1.6508e-11)
(-3.83639e-12 1.75193e-12 -1.28006e-13)
(2.36617e-11 1.08299e-10 4.14546e-13)
(-3.12195e-11 1.51551e-12 -1.29005e-12)
(-3.08421e-11 1.04501e-12 -1.33717e-12)
(2.08753e-10 1.1333e-09 -6.1254e-12)
(3.61315e-10 5.72482e-10 -3.55326e-12)
(2.75093e-10 3.08228e-10 -3.04733e-12)
(2.57219e-10 2.98926e-10 -3.57203e-12)
(3.4396e-10 5.58692e-10 -4.17106e-12)
(2.08587e-10 9.569e-10 -6.35857e-12)
(1.96257e-10 1.11262e-09 -6.99428e-12)
(1.89169e-10 1.09509e-09 -6.97003e-12)
(2.30795e-10 1.30962e-09 -5.50488e-12)
(1.87107e-10 1.09113e-09 -7.18698e-12)
(3.30065e-10 5.45776e-10 -4.25469e-12)
(2.43257e-10 2.9061e-10 -3.75842e-12)
(2.2717e-10 2.8041e-10 -2.54763e-12)
(3.12897e-10 5.28611e-10 -2.55157e-12)
(1.81093e-10 9.06561e-10 -1.9028e-12)
(1.76587e-10 1.05936e-09 -3.00126e-12)
(1.67648e-10 1.04464e-09 -4.76735e-12)
(2.06323e-10 1.24554e-09 1.3667e-12)
(1.62168e-10 1.03475e-09 -1.17508e-12)
(2.74623e-10 5.00455e-10 1.37095e-11)
(1.88656e-10 2.63779e-10 9.6481e-12)
(1.32861e-10 2.53363e-10 5.61235e-11)
(2.22168e-10 4.79376e-10 8.99453e-11)
(1.89357e-10 7.12409e-10 2.52037e-10)
(2.06861e-10 7.4518e-10 3.55999e-10)
(1.57974e-10 8.44618e-10 2.47825e-10)
(1.94009e-10 9.35639e-10 3.47024e-10)
(2.30454e-10 6.88296e-10 3.38835e-10)
(2.04165e-10 1.13085e-09 -7.02786e-12)
(2.19262e-10 9.73822e-10 -6.15588e-12)
(1.95956e-10 1.1099e-09 -7.19623e-12)
(1.98391e-10 1.11234e-09 -6.76099e-12)
(2.40343e-10 1.33138e-09 -5.6274e-12)
(1.89191e-10 1.09168e-09 -7.50189e-12)
(1.99e-10 9.37233e-10 -6.64649e-12)
(1.7877e-10 1.06897e-09 -7.65362e-12)
(1.81152e-10 1.07508e-09 -7.49748e-12)
(2.22171e-10 1.28448e-09 -5.23827e-12)
(1.57195e-10 1.0035e-09 5.11739e-11)
(1.45561e-10 8.61202e-10 4.55053e-11)
(1.34582e-10 9.79878e-10 6.36868e-11)
(1.41653e-10 9.95279e-10 3.47215e-11)
(1.74858e-10 1.18062e-09 5.84268e-11)
(-3.56038e-11 4.38115e-12 -8.04157e-13)
(5.04771e-11 1.21648e-10 -2.57535e-12)
(-3.42455e-11 3.27853e-12 -6.06599e-13)
(-2.93053e-12 2.74022e-12 -7.43335e-14)
(-3.40614e-11 3.15077e-12 -5.31886e-13)
(3.50984e-11 1.12273e-10 -2.15866e-12)
(-3.20411e-11 2.20352e-12 -1.07172e-12)
(-3.2983e-12 2.17158e-12 -1.20541e-13)
(-3.16318e-11 1.89805e-12 -1.13486e-12)
(1.91549e-11 8.6675e-11 2.60364e-11)
(-3.02795e-11 1.62648e-13 -2.72898e-12)
(-3.06927e-12 1.77e-12 -8.83559e-13)
(-1.49404e-11 5.04852e-12 -4.75772e-12)
(5.7418e-11 1.25428e-10 -2.61665e-12)
(-3.4734e-11 3.69215e-12 -5.71934e-13)
(-3.49767e-11 3.86423e-12 -6.77789e-13)
(-2.64849e-12 2.99983e-12 -7.20658e-14)
(4.58767e-11 1.17911e-10 -2.58939e-12)
(-3.29953e-11 2.7852e-12 -5.95425e-13)
(-3.33617e-11 2.86685e-12 -5.63608e-13)
(-2.93865e-12 2.56842e-12 -5.82362e-14)
(6.18717e-12 1.04368e-10 6.17009e-12)
(-3.08932e-11 -1.98494e-13 -1.51731e-12)
(-3.06788e-11 4.67354e-13 -1.43697e-12)
(-5.05996e-12 1.06892e-12 -1.54675e-13)
(9.5743e-11 3.98066e-10 -5.57687e-12)
(1.13806e-10 3.03437e-10 -4.87917e-12)
(1.62565e-10 5.90685e-10 -6.17327e-12)
(9.37803e-11 3.96103e-10 -5.53759e-12)
(7.93698e-11 3.78007e-10 -6.25659e-12)
(9.2965e-11 2.85813e-10 -4.87373e-12)
(1.39054e-10 5.60312e-10 -5.56697e-12)
(7.52072e-11 3.74087e-10 -5.54967e-12)
(3.42837e-11 3.45295e-10 6.26607e-11)
(3.37188e-11 2.61596e-10 6.04156e-11)
(9.30243e-11 5.04203e-10 1.17831e-10)
(5.17574e-11 3.28327e-10 9.10297e-11)
(9.77347e-11 4.00277e-10 -5.62851e-12)
(9.99609e-11 4.0243e-10 -5.61493e-12)
(1.18667e-10 3.07046e-10 -4.88383e-12)
(1.67774e-10 5.97e-10 -6.28298e-12)
(8.26411e-11 3.81474e-10 -6.38621e-12)
(8.51062e-11 3.84532e-10 -6.19421e-12)
(1.00937e-10 2.91582e-10 -5.32413e-12)
(1.47779e-10 5.70496e-10 -6.65554e-12)
(3.37152e-11 3.49754e-10 4.1849e-11)
(3.98067e-11 3.52526e-10 2.54259e-11)
(3.98025e-11 2.66636e-10 2.83773e-11)
(8.60151e-11 5.22088e-10 5.19444e-11)
(1.1129e-10 4.12549e-10 -5.81743e-12)
(1.8139e-10 6.11285e-10 -6.36515e-12)
(1.31016e-10 3.15238e-10 -4.94578e-12)
(1.07765e-10 4.09477e-10 -6.03955e-12)
(4.93246e-10 9.3604e-10 -1.98991e-12)
(2.93408e-10 1.48225e-10 -9.27447e-13)
(2.65294e-10 1.42187e-10 -2.01122e-12)
(4.6618e-10 9.02688e-10 -3.92321e-12)
(9.18957e-11 3.94168e-10 -5.56764e-12)
(1.57598e-10 5.85104e-10 -6.28265e-12)
(1.09231e-10 2.99977e-10 -4.91675e-12)
(9.01495e-11 3.92016e-10 -5.69431e-12)
(4.59519e-10 8.9449e-10 -3.80183e-12)
(2.57544e-10 1.4012e-10 -2.17695e-12)
(2.29754e-10 1.33215e-10 1.25349e-13)
(4.31139e-10 8.55978e-10 8.87506e-13)
(7.00724e-11 3.69776e-10 -3.8955e-12)
(1.25569e-10 5.47488e-10 -1.40307e-13)
(8.03015e-11 2.78639e-10 -1.55687e-12)
(6.38114e-11 3.65101e-10 -7.53951e-13)
(4.12382e-10 8.35134e-10 1.00257e-11)
(2.08678e-10 1.29464e-10 4.51512e-12)
(1.0453e-10 1.07314e-10 3.493e-11)
(3.38457e-10 7.5959e-10 1.86591e-10)
(9.4699e-11 2.79741e-10 1.34625e-10)
(2.16292e-10 3.6413e-10 2.56754e-10)
(1.27554e-10 1.86667e-10 1.23665e-10)
(1.69188e-10 2.56806e-10 2.20661e-10)
(6.27794e-11 1.04299e-10 8.57776e-11)
(4.40189e-10 5.7842e-10 3.41509e-10)
(2.08222e-10 4.92082e-11 5.13911e-11)
(1.02557e-10 4.04135e-10 -5.72492e-12)
(1.05218e-10 4.06173e-10 -5.94197e-12)
(1.74527e-10 6.0185e-10 -6.26972e-12)
(1.2492e-10 3.10679e-10 -5.08067e-12)
(2.73451e-10 1.44178e-10 -1.84986e-12)
(4.73894e-10 9.12775e-10 -3.72928e-12)
(4.80983e-10 9.18623e-10 -3.72984e-12)
(2.83532e-10 1.46487e-10 -1.56266e-12)
(8.69412e-11 3.87225e-10 -5.97348e-12)
(8.85339e-11 3.89697e-10 -5.80907e-12)
(1.53126e-10 5.78382e-10 -6.48587e-12)
(1.05328e-10 2.96092e-10 -5.03899e-12)
(2.43355e-10 1.36253e-10 -1.71278e-12)
(4.43902e-10 8.7205e-10 -2.49861e-12)
(4.52446e-10 8.84174e-10 -3.55717e-12)
(2.50726e-10 1.38139e-10 -2.29205e-12)
(4.80822e-11 3.55967e-10 1.31117e-11)
(5.63876e-11 3.60354e-10 4.63205e-12)
(1.06522e-10 5.33198e-10 1.56769e-11)
(6.16527e-11 2.71009e-10 8.12921e-12)
(1.40729e-10 1.21706e-10 2.58608e-11)
(3.54078e-10 7.88486e-10 8.21282e-11)
(3.86256e-10 8.10712e-10 3.21398e-11)
(1.77903e-10 1.25247e-10 1.33669e-11)
(2.94382e-10 2.16422e-10 3.89272e-10)
(1.28861e-10 1.04722e-10 1.77189e-10)
(-1.17238e-12 3.45308e-12 3.31673e-12)
(3.15693e-12 8.1385e-12 1.50689e-11)
(2.90707e-10 7.9608e-10 -4.15848e-12)
(3.66303e-10 5.77588e-10 -2.96198e-12)
(2.7907e-10 3.09931e-10 -2.4965e-12)
(1.91251e-10 2.37518e-10 -3.44761e-12)
(2.53561e-10 2.9683e-10 -3.61984e-12)
(3.40383e-10 5.55468e-10 -4.19778e-12)
(2.63954e-10 7.64255e-10 -5.44613e-12)
(1.59994e-10 5.88025e-10 -6.1603e-12)
(4.62918e-10 8.98911e-10 -3.92935e-12)
(2.60999e-10 7.60836e-10 -5.5227e-12)
(3.33401e-10 5.49206e-10 -4.25802e-12)
(2.46502e-10 2.92708e-10 -3.71834e-12)
(1.65414e-10 2.25242e-10 -3.80376e-12)
(1.11403e-10 3.01746e-10 -4.86773e-12)
(2.61114e-10 1.41014e-10 -2.08982e-12)
(1.62494e-10 2.2366e-10 -3.7824e-12)
(2.20256e-10 2.76879e-10 -1.26391e-12)
(3.05909e-10 5.22697e-10 -8.67215e-13)
(2.33078e-10 7.22662e-10 -1.81809e-12)
(1.3297e-10 5.54236e-10 -3.65593e-12)
(4.22638e-10 8.46236e-10 4.38437e-12)
(2.25078e-10 7.14156e-10 1.79546e-12)
(2.86963e-10 5.08496e-10 6.58672e-12)
(2.01254e-10 2.68504e-10 4.38876e-12)
(1.3703e-10 2.09287e-10 -2.5139e-12)
(8.72757e-11 2.82404e-10 -3.73285e-12)
(2.20151e-10 1.31328e-10 1.86005e-12)
(1.28994e-10 2.06118e-10 -8.05618e-13)
(1.3539e-10 2.50374e-10 7.54161e-11)
(2.31837e-10 4.73998e-10 1.28398e-10)
(1.94089e-10 6.29109e-10 1.84875e-10)
(1.33036e-10 4.55531e-10 1.68435e-10)
(3.65797e-10 6.97597e-10 2.63905e-10)
(2.58164e-10 5.38114e-10 2.5588e-10)
(3.62606e-10 3.62422e-10 2.60294e-10)
(2.56382e-10 1.77128e-10 1.58749e-10)
(5.79887e-11 1.75063e-10 5.46842e-11)
(6.48681e-11 2.40876e-10 8.81946e-11)
(1.30901e-10 9.24403e-11 3.92036e-11)
(1.10209e-10 1.55946e-10 7.72786e-11)
(3.5668e-10 5.68439e-10 -3.84431e-12)
(2.70561e-10 3.05865e-10 -3.31151e-12)
(2.60843e-10 3.00878e-10 -3.48434e-12)
(3.47652e-10 5.62092e-10 -4.11852e-12)
(1.70919e-10 5.99668e-10 -6.13397e-12)
(2.73368e-10 7.76196e-10 -5.45492e-12)
(2.7723e-10 7.78592e-10 -5.20104e-12)
(4.77703e-10 9.16697e-10 -4.0333e-12)
(1.21551e-10 3.08842e-10 -4.9891e-12)
(1.74871e-10 2.30064e-10 -3.70776e-12)
(1.78817e-10 2.31976e-10 -3.81439e-12)
(2.7796e-10 1.4511e-10 -1.663e-12)
(3.26665e-10 5.42102e-10 -4.17522e-12)
(2.40074e-10 2.88378e-10 -3.72256e-12)
(2.32617e-10 2.83455e-10 -3.24374e-12)
(3.18491e-10 5.33702e-10 -3.48445e-12)
(1.50716e-10 5.74686e-10 -6.58557e-12)
(2.49104e-10 7.42801e-10 -5.38741e-12)
(2.52472e-10 7.47842e-10 -5.53522e-12)
(4.48555e-10 8.78528e-10 -3.20718e-12)
(1.03382e-10 2.93973e-10 -5.14666e-12)
(1.52402e-10 2.16797e-10 -3.82568e-12)
(1.54961e-10 2.1865e-10 -3.83465e-12)
(2.47352e-10 1.37171e-10 -2.16529e-12)
(2.6032e-10 4.92387e-10 2.43379e-11)
(1.74031e-10 2.59209e-10 1.72227e-11)
(1.43318e-10 2.53981e-10 4.05599e-11)
(2.30343e-10 4.81047e-10 6.10689e-11)
(9.56518e-11 5.26974e-10 3.05841e-11)
(1.78513e-10 6.77118e-10 5.47939e-11)
(1.91507e-10 6.85254e-10 3.24852e-11)
(3.70607e-10 7.99122e-10 5.21818e-11)
(5.04968e-11 2.68136e-10 1.68301e-11)
(7.81228e-11 1.93693e-10 2.01681e-11)
(9.30683e-11 1.95941e-10 1.22508e-11)
(1.59239e-10 1.23267e-10 1.94622e-11)
(1.16167e-10 3.05238e-10 -4.87372e-12)
(1.6849e-10 2.2688e-10 -3.74154e-12)
(1.71529e-10 2.28465e-10 -3.73689e-12)
(2.69135e-10 1.43081e-10 -1.98309e-12)
(5.24877e-11 1.22592e-10 -2.58228e-12)
(-2.78235e-12 2.82195e-12 -7.88365e-14)
(5.58164e-11 1.24431e-10 -2.56397e-12)
(-2.61443e-12 2.95416e-12 -7.51574e-14)
(1.65109e-10 5.93699e-10 -6.28673e-12)
(2.66977e-10 7.67668e-10 -5.52418e-12)
(2.70009e-10 7.7196e-10 -5.62075e-12)
(4.69752e-10 9.07185e-10 -3.73037e-12)
(2.11079e-10 9.60405e-10 -6.37561e-12)
(1.98031e-10 1.11633e-09 -7.08694e-12)
(2.32999e-10 1.31375e-09 -5.51474e-12)
(2.02054e-10 1.1268e-09 -7.35137e-12)
(2.16295e-10 9.70178e-10 -6.66469e-12)
(2.37759e-10 1.32665e-09 -5.71921e-12)
(9.74564e-11 2.88901e-10 -5.31741e-12)
(1.43533e-10 2.12137e-10 -3.40435e-12)
(1.48645e-10 2.14643e-10 -3.82424e-12)
(2.37255e-10 1.34745e-10 -1.00503e-12)
(3.93804e-11 1.13993e-10 -2.68087e-12)
(-3.06751e-12 2.33687e-12 -1.16849e-13)
(4.48894e-11 1.16819e-10 -2.7777e-12)
(-2.83928e-12 2.55018e-12 -8.80031e-14)
(1.43936e-10 5.65759e-10 -6.4156e-12)
(2.39653e-10 7.30324e-10 -3.88594e-12)
(2.44914e-10 7.36959e-10 -4.9222e-12)
(4.38171e-10 8.64604e-10 -1.26306e-12)
(1.87107e-10 9.15668e-10 -4.62505e-12)
(1.80761e-10 1.06874e-09 -5.79145e-12)
(2.11635e-10 1.25678e-09 -2.05505e-12)
(1.86976e-10 1.08491e-09 -7.49802e-12)
(1.9592e-10 9.30949e-10 -6.53942e-12)
(2.19427e-10 1.27632e-09 -4.84762e-12)
(3.22464e-11 2.66091e-10 4.23371e-11)
(5.36966e-11 1.86992e-10 3.84879e-11)
(6.42247e-11 1.92055e-10 2.91014e-11)
(1.23596e-10 1.18747e-10 3.1257e-11)
(-7.67486e-12 9.24543e-11 1.75869e-11)
(-7.15995e-12 7.6205e-13 -6.19966e-13)
(-3.7144e-12 1.02849e-10 9.94988e-12)
(-6.14688e-12 6.54955e-13 -2.56075e-13)
(8.19309e-11 5.1756e-10 8.08107e-11)
(1.68443e-10 6.61112e-10 1.30571e-10)
(1.68238e-10 6.7009e-10 8.70048e-11)
(3.4048e-10 7.79098e-10 1.25406e-10)
(1.43533e-10 7.99049e-10 1.82222e-10)
(1.6629e-10 8.82213e-10 2.41379e-10)
(1.59792e-10 1.06508e-09 2.48265e-10)
(1.54414e-10 9.81503e-10 9.10475e-11)
(1.36219e-10 8.48876e-10 7.72818e-11)
(1.65286e-10 1.15805e-09 9.9016e-11)
(2.30152e-10 9.91846e-10 -6.71284e-12)
(2.50268e-10 1.35463e-09 -5.22256e-12)
(2.12701e-10 1.14929e-09 -7.50109e-12)
(2.85324e-10 7.89067e-10 -5.58884e-12)
(1.77821e-10 6.05809e-10 -6.67283e-12)
(4.8591e-10 9.24733e-10 -2.45508e-12)
(2.81239e-10 7.81536e-10 -5.42867e-12)
(2.06011e-10 1.13351e-09 -7.31887e-12)
(2.4296e-10 1.33297e-09 -5.4398e-12)
(2.22388e-10 9.75602e-10 -6.22945e-12)
(1.86394e-10 2.35592e-10 -3.40751e-12)
(1.27882e-10 3.12854e-10 -4.9389e-12)
(2.88269e-10 1.47388e-10 -1.55053e-12)
(1.8292e-10 2.34046e-10 -3.63706e-12)
(6.39154e-11 1.28528e-10 -2.58402e-12)
(-2.25941e-12 3.25446e-12 -7.89057e-14)
(6.00124e-11 1.26615e-10 -2.64891e-12)
(-2.51519e-12 3.10229e-12 -8.46091e-14)
(2.06207e-10 9.5263e-10 -6.54419e-12)
(2.2869e-10 1.30409e-09 -5.51693e-12)
(1.94517e-10 1.10798e-09 -7.18749e-12)
(2.58175e-10 7.56781e-10 -5.59118e-12)
(1.55333e-10 5.81861e-10 -6.39352e-12)
(4.56001e-10 8.89431e-10 -3.71121e-12)
(2.55411e-10 7.52441e-10 -5.59982e-12)
(1.91112e-10 1.09721e-09 -7.4394e-12)
(2.2453e-10 1.29112e-09 -5.40362e-12)
(2.01596e-10 9.42589e-10 -6.64748e-12)
(1.59753e-10 2.22064e-10 -3.86513e-12)
(1.07175e-10 2.98116e-10 -4.98311e-12)
(2.53809e-10 1.38973e-10 -2.27455e-12)
(1.57269e-10 2.2039e-10 -3.82648e-12)
(4.93183e-11 1.20756e-10 -2.59855e-12)
(-2.90283e-12 2.69879e-12 -7.62702e-14)
(4.69818e-11 1.1888e-10 -2.55998e-12)
(-2.94283e-12 2.61379e-12 -6.17589e-14)
(1.7386e-10 8.96122e-10 2.8931e-12)
(1.99983e-10 1.23225e-09 7.12223e-12)
(1.72072e-10 1.04778e-09 1.97754e-12)
(2.15477e-10 7.04661e-10 7.84547e-12)
(1.16705e-10 5.40326e-10 5.92913e-12)
(4.00346e-10 8.2319e-10 1.87515e-11)
(2.04207e-10 6.94867e-10 1.75144e-11)
(1.61999e-10 1.02008e-09 2.60836e-11)
(1.84199e-10 1.19951e-09 3.27936e-11)
(1.55704e-10 8.72975e-10 2.4468e-11)
(1.19063e-10 2.02654e-10 1.92875e-12)
(7.17364e-11 2.74741e-10 2.18815e-12)
(1.9446e-10 1.27289e-10 8.28318e-12)
(1.07064e-10 1.99115e-10 6.20021e-12)
(3.02873e-11 1.10365e-10 -1.20037e-12)
(-3.46223e-12 2.00347e-12 -1.26846e-13)
(1.58805e-11 1.06232e-10 2.84849e-12)
(-4.27336e-12 1.45957e-12 -1.36935e-13)
(2.95992e-10 5.77962e-10 3.38108e-10)
(2.83459e-10 4.26706e-10 3.78008e-10)
(3.03633e-10 7.46931e-10 4.29234e-10)
(3.24447e-10 5.69293e-10 4.85916e-10)
(5.4422e-11 6.61711e-11 4.56672e-11)
(-8.756e-13 -1.40277e-12 5.4842e-12)
(-4.36183e-12 2.04523e-12 9.63097e-13)
(8.98406e-11 1.11023e-10 1.2267e-10)
(1.75777e-10 8.21399e-11 2.48511e-10)
(1.94424e-10 4.40993e-10 -5.11909e-12)
(1.6073e-10 5.899e-10 -6.1778e-12)
(1.11068e-10 3.04467e-10 -4.9496e-12)
(2.51859e-10 2.96357e-10 -3.60922e-12)
(3.38527e-10 5.53877e-10 -4.18788e-12)
(1.91372e-10 4.38604e-10 -5.11804e-12)
(1.13475e-10 3.06215e-10 -4.9295e-12)
(5.14994e-11 1.24898e-10 -2.53296e-12)
(1.63308e-10 5.92679e-10 -6.26069e-12)
(2.12308e-10 9.62486e-10 -6.52383e-12)
(1.97435e-10 4.4353e-10 -5.11701e-12)
(2.55583e-10 2.98493e-10 -3.56636e-12)
(3.42129e-10 5.57003e-10 -4.1644e-12)
(2.09842e-10 9.58674e-10 -6.30724e-12)
(4.98117e-11 1.23942e-10 -2.63572e-12)
(1.66807e-10 4.15645e-10 -3.76658e-12)
(1.35594e-10 5.57845e-10 -4.80743e-12)
(8.87372e-11 2.85933e-10 -4.51352e-12)
(2.16307e-10 2.75484e-10 -2.46211e-13)
(3.01773e-10 5.19375e-10 4.27069e-13)
(1.59642e-10 4.10628e-10 -1.78135e-12)
(9.38197e-11 2.89199e-10 -5.24566e-12)
(3.92794e-11 1.16426e-10 -2.77069e-12)
(1.41076e-10 5.63631e-10 -6.13619e-12)
(1.89692e-10 9.19935e-10 -5.43659e-12)
(1.72558e-10 4.20137e-10 -4.76475e-12)
(2.24037e-10 2.79261e-10 -1.94205e-12)
(3.09552e-10 5.25729e-10 -1.79223e-12)
(1.8425e-10 9.11243e-10 -3.45154e-12)
(3.56637e-11 1.14779e-10 -2.50235e-12)
(1.0312e-10 3.80551e-10 9.73116e-11)
(1.08306e-10 4.87484e-10 1.40363e-10)
(4.32274e-11 2.57012e-10 7.31394e-11)
(1.49192e-10 2.46106e-10 8.79869e-11)
(2.47959e-10 4.63257e-10 1.52418e-10)
(1.41817e-10 3.49576e-10 1.3638e-10)
(2.94729e-11 2.66782e-10 5.07801e-11)
(-1.2199e-11 9.80787e-11 1.53013e-11)
(8.40672e-11 5.13406e-10 9.82352e-11)
(1.3497e-10 8.20392e-10 1.51206e-10)
(9.52789e-11 3.8562e-10 6.81921e-11)
(1.31314e-10 2.52817e-10 6.52241e-11)
(2.2362e-10 4.77857e-10 1.07886e-10)
(1.6054e-10 7.64299e-10 2.15939e-10)
(5.55539e-13 8.8651e-11 2.23243e-11)
(2.00842e-10 1.12423e-09 -7.36633e-12)
(2.0314e-10 1.12917e-09 -7.22608e-12)
(2.00499e-10 4.46132e-10 -5.09751e-12)
(1.6875e-10 5.99022e-10 -6.23538e-12)
(1.18534e-10 3.09849e-10 -4.98474e-12)
(2.04196e-10 4.4863e-10 -5.09267e-12)
(2.63073e-10 3.02541e-10 -3.40086e-12)
(3.49638e-10 5.6371e-10 -4.04672e-12)
(1.15877e-10 3.08032e-10 -4.94699e-12)
(5.31195e-11 1.25833e-10 -2.61255e-12)
(1.65876e-10 5.95905e-10 -6.34169e-12)
(2.14888e-10 9.67559e-10 -6.71699e-12)
(2.59181e-10 3.00509e-10 -3.50669e-12)
(3.45712e-10 5.60322e-10 -4.13027e-12)
(2.17764e-10 9.72412e-10 -6.43271e-12)