/*--------------------------------*- C++ -*----------------------------------*\
| =========                 |                                                 |
| \\      /  F ield         | OpenFOAM: The Open Source CFD Toolbox           |
|  \\    /   O peration     | Version:  2012                                  |
|   \\  /    A nd           | Website:  www.openfoam.com                      |
|    \\/     M anipulation  |                                                 |
\*---------------------------------------------------------------------------*/
FoamFile
{
    version     2.0;
    format      ascii;
    class       volSymmTensorField;
    location    "0.105/solid";
    object      sigma;
}
// * * * * * * * * * * * * * * * * * * * * * * * * * * * * * * * * * * * * * //

dimensions      [1 -1 -2 0 0 0 0];


internalField   nonuniform List<symmTensor> 
3125
(
(464.418 45.8867 -0.512709 1288.03 -4.65963 525.55)
(434.137 36.1704 -1.06718 1225.5 -5.3898 498.183)
(367.67 24.9846 -10.2385 1095.95 56.5548 480.796)
(467.763 47.0458 -0.573034 1294.84 -4.71374 528.506)
(439.444 38.0553 -0.743713 1236.25 -5.45277 502.409)
(377.407 17.5267 -8.21755 1125.21 38.1729 480.9)
(482.577 53.0455 -0.900594 1323.35 -5.33223 541.284)
(454.7 42.6568 -0.379882 1268.98 -4.77235 516.631)
(412.909 27.5845 -2.56764 1185.37 -0.84637 485.067)
(478.415 51.396 -0.723987 1313.8 -5.12361 537.726)
(451.338 41.6963 -0.308885 1261.78 -4.9446 513.451)
(404.102 23.8604 -3.42131 1170.16 3.80618 481.732)
(548.678 -6.84328 -0.26506 595.672 -0.393427 342.826)
(488.792 56.8588 -0.133456 886.753 -3.49217 412.667)
(646.907 -119.725 -0.946055 1471.34 -3.03324 635.748)
(461.159 44.7704 -0.488522 1281.76 -4.52257 522.623)
(561.436 -5.06632 -0.148161 608.362 0.0813819 350.767)
(640.332 -119.621 -1.12345 1462.22 -2.23954 630.601)
(484.824 55.1265 -0.210926 881.224 -3.44283 409.808)
(496.137 -9.26109 -2.89848 541.646 2.02315 317.84)
(454.222 42.7302 -0.619135 834.912 -3.49577 387.483)
(605.924 -120.049 -2.00258 1406.75 -3.40613 605.561)
(427.943 33.8127 -1.44174 1213.34 -4.82971 493.699)
(518.403 -6.32592 -1.28869 564.046 1.00022 327.733)
(592.992 -120.532 -3.3142 1387.24 -2.82436 599.921)
(446.696 39.1108 -1.09965 824.755 -2.76887 383.069)
(481.121 4.66669 -27.5302 524.603 25.1326 408.729)
(354.85 -2.29548 -9.43657 737.061 38.7154 349.27)
(518.38 -100.214 -24.8306 1268.4 31.1645 656.707)
(345.526 50.4832 -11.2402 1014.69 83.6742 481.803)
(449.107 -12.9785 -27.2032 496.255 29.2455 338.607)
(506.665 -43.632 -28.636 1175.84 -3.71834 688.603)
(329.993 9.48175 1.20185 698.639 53.5577 343.726)
(603.106 -51.8513 -1.58373 1581.36 -3.64004 655.424)
(609.454 -51.2647 -1.61675 1592.6 -2.05657 660.268)
(571.685 -4.78695 -0.465285 618.92 0.242497 356.746)
(471.169 48.3667 -0.654093 1301.32 -4.55819 531.482)
(492.812 58.5577 -0.204923 892.438 -3.45388 415.554)
(649.33 -119.748 -1.25243 1475.52 -3.39111 637.521)
(559.095 -6.38723 -0.253859 606.173 -0.372774 349.087)
(656.493 -119.489 -1.20671 1486.84 -1.66344 642.414)
(496.935 60.4853 -0.316057 898.125 -3.43952 418.533)
(600.873 -51.9024 -1.5974 1577.08 -3.46374 653.687)
(594.65 -51.981 -1.27285 1567.5 -2.44881 648.577)
(565.912 -53.5896 -2.21928 1517.14 -3.75045 625.883)
(574.725 -52.9303 -1.72598 1532.6 -3.54944 631.949)
(531.376 -6.04175 -0.318663 577.497 0.241026 333.496)
(443.939 39.5314 -0.47466 1245.71 -5.31204 506.355)
(460.596 45.5652 -0.310035 843.848 -3.742 391.509)
(609.613 -119.933 -1.90299 1412.56 -3.38133 607.656)
(515.037 -8.26566 -1.19144 560.882 0.453987 324.917)
(619.047 -119.756 -0.995696 1427.96 -3.16262 613.88)
(465.662 47.6621 0.102039 851.513 -3.77754 395.062)
(562.5 -53.8166 -2.65751 1511.35 -3.94901 623.882)
(550.376 -54.5076 -3.42246 1491.42 -3.3377 618.53)
(477.133 -43.4608 -19.8068 1366.14 25.6309 675.383)
(495.432 -53.2419 -10.0488 1407.85 11.1095 636.685)
(450.969 -10.6461 -15.7827 496.213 15.1605 317.482)
(385.815 17.3783 -6.17678 1140.96 22.7481 479.675)
(376.385 1.2927 -9.17886 756.45 29.1183 357.057)
(520.228 -108.192 -21.6992 1280.25 28.8929 643.644)
(438.331 -16.2849 -26.2086 484.927 27.3772 327.771)
(536.321 -118.763 -12.5246 1310.02 12.9932 612.837)
(390.729 7.47957 -7.47855 766.062 19.2222 361.216)
(473.77 -36.727 -25.4945 1347.34 26.6442 692.894)
(460.537 7.26311 -44.0554 1223.19 -16.0278 743.371)
(669.35 -119.547 -2.10706 1504.03 -5.9126 651.877)
(510.573 67.2025 -0.211635 917.226 -3.4201 428.14)
(582.406 -5.31261 -0.48151 629.739 0.139744 362.228)
(1096.77 -52.8607 -1.64087 1431.28 -2.89779 757.395)
(418.331 133.436 2.33578 561.728 -2.77744 294.02)
(399.504 119.19 -2.26214 543.286 -2.29217 282.882)
(394.46 114.998 2.28882 537.563 -3.16471 279.738)
(1068.7 -52.5681 -0.897591 1399.53 -0.987588 740.188)
(1060.88 -52.4174 -1.02302 1391.01 -0.537112 735.204)
(551.052 -5.53162 -0.14188 597.901 0.0786706 344.507)
(457.953 43.6773 -0.452247 1275.63 -4.60904 519.667)
(631.503 -119.733 -0.948829 1448.48 -3.0361 623.637)
(477.071 51.9512 -0.0139219 870.143 -3.57367 404.076)
(638.215 -119.695 -0.908594 1459.31 -2.41343 628.871)
(538.93 -7.13936 -0.156001 585.666 -0.454489 337.05)
(480.928 53.4594 -0.067735 875.768 -3.50266 406.928)
(1049.39 -52.4024 -0.84273 1377.57 -1.00399 727.751)
(1058.38 -52.4534 -0.883355 1388.17 -0.613908 733.643)
(387.326 110.075 2.36831 529.852 -3.28118 275.277)
(392.123 113.775 -2.19327 535.481 -2.40667 278.317)
(369.396 98.8495 -2.31157 510.659 -1.9678 264.45)
(359.937 89.7823 1.58199 501.381 -1.11944 259.58)
(1015.31 -52.397 -2.00088 1337.12 -0.875603 708.638)
(998.232 -52.7574 -3.30627 1317.33 -0.522562 702.284)
(500.246 -6.83897 -3.17907 545.492 2.69996 321.683)
(420.892 30.9507 -1.91965 1199.94 -3.4942 489.231)
(570.546 -121.099 -5.65657 1355.11 -0.297474 596.158)
(427.925 29.0683 -2.62202 801.137 1.0269 373.627)
(588.173 -120.858 -3.5982 1380.22 -2.52338 598.523)
(471.535 -10.8319 -6.53555 516.764 5.45208 311.991)
(437.972 34.6056 -1.66542 813.442 -1.40557 378.38)
(969.818 -52.7304 -6.08739 1285.27 0.655297 698.405)
(991.974 -53.0305 -3.80753 1309.94 -0.23079 700.682)
(341.809 72.082 0.562934 486.651 3.45078 251.102)
(354.787 86.2604 -2.74253 497.55 0.206515 256.94)
(276.463 15.2878 -4.25413 440.115 22.2468 217.077)
(263.513 43.2998 9.54377 392.998 28.1383 202.408)
(905.955 -43.9236 -37.7321 1201.18 16.1522 784.012)
(873.967 -20.2283 -35.9703 1133.26 -5.7624 798.673)
(461.265 5.51687 -29.9827 505.029 19.3275 411.726)
(308.713 128.906 -17.5573 891.883 148.167 438.326)
(486.278 -11.425 -22.5728 1113.9 -27.2823 692.807)
(271.534 39.2181 6.05124 564.371 57.7303 277.58)
(829.704 -6.09159 -19.0866 1078.06 -28.9736 760.545)
(242.844 60.1541 5.38 373.04 31.2719 198.865)
(621.626 -51.2693 -2.88551 1611 -5.96887 669.574)
(618.635 -51.7171 -2.46772 1603.6 -5.00018 667.558)
(611.447 -51.3021 -1.24675 1594.38 -1.44709 661.892)
(569.356 -6.16158 -0.663913 616.671 -0.2647 355.032)
(474.677 49.8636 -0.694843 1306.95 -4.55391 534.496)
(665.927 -119.798 -1.51792 1496.29 -4.53904 649.71)
(505.991 65.3246 -0.19884 910.335 -3.56928 424.859)
(586.013 -3.50244 -0.380521 632.897 0.497089 364.834)
(658.627 -119.427 -1.36969 1488.4 -1.04424 644.003)
(501.369 62.9307 -0.520635 903.972 -3.47381 421.691)
(401.875 120.453 2.30283 545.334 -3.0947 284.284)
(407.137 125.07 -2.34266 550.981 -2.14434 287.492)
(1072.18 -52.6054 -1.0593 1403.79 -1.29347 742.51)
(1081.95 -52.5961 -1.18888 1415.35 -0.128438 748.833)
(1090.78 -52.9963 -1.34343 1423.2 -1.81788 753.283)
(1083.67 -52.6165 -1.34473 1416.73 0.317262 749.547)
(415.74 132.021 -2.38427 559.817 -1.95339 292.62)
(409.801 126.701 2.26993 553.326 -3.0407 289.098)
(586.541 -52.4594 -1.25749 1553.59 -3.26696 641.656)
(592.712 -52.0763 -1.49613 1564.56 -2.72542 646.86)
(584.323 -52.5088 -1.38611 1549.52 -3.41105 639.786)
(577.264 -52.7927 -1.38094 1537.07 -3.29677 634)
(528.422 -7.62115 -0.331336 574.735 -0.253285 331.28)
(447.813 40.6999 -0.31872 1254.1 -5.09005 510.041)
(629.136 -119.717 -0.695429 1444.51 -3.03128 621.758)
(473.288 50.5602 0.187576 864.264 -3.6712 401.208)
(541.449 -5.75658 -0.0637718 588.022 0.00206444 338.871)
(621.732 -119.683 -1.04411 1432.38 -3.05411 615.954)
(469.645 49.2126 0.207412 858.159 -3.69722 398.262)
(373.153 101.026 2.06831 513.772 -2.86962 266.517)
(379.15 105.842 -1.89016 520.611 -2.47464 270.05)
(1020.14 -52.3844 -1.80663 1342.9 -0.955209 710.817)
(1032.74 -52.3863 -1.02084 1357.7 -0.891303 717.458)
(1046.14 -52.3902 -0.707849 1373.63 -0.92453 725.661)
(1036.3 -52.3407 -0.993946 1362.04 -0.907016 719.528)
(385.164 109.142 -2.00913 527.805 -2.55326 273.971)
(381.252 106.611 2.54074 522.59 -3.2273 271.325)
(1027.05 -63.2349 -3.30893 1451.88 -1.44272 751.218)
(529.332 -55.5352 -5.04202 1458.44 -1.12063 615.781)
(545.787 -54.739 -3.92883 1484.28 -3.24703 617.246)
(998.105 -62.7757 -5.15213 1417.74 -0.454938 747.664)
(1018.97 -62.5556 -3.73312 1441.27 -1.50976 748.138)
(523.134 -55.6925 -5.6603 1449.22 0.0465216 616.998)
(502.197 -54.3354 -8.32399 1418.39 7.61616 628.478)
(927.156 -55.2642 -24.5758 1328.39 8.12968 831.683)
(953.328 -60.724 -11.8807 1367.06 3.90419 775.186)
(990.791 -63.0074 -6.03378 1410.87 0.0136413 750.124)
(963.38 -61.7394 -9.53401 1378.89 2.40332 765.168)
(444.948 -13.537 -14.4019 490.389 13.3126 311.08)
(394.888 20.159 -4.59732 1155.23 11.4186 479.862)
(564.03 -121.084 -6.37256 1346.24 1.22359 596.911)
(416.517 22.4427 -3.87249 788.395 4.95715 369.043)
(476.331 -7.99146 -7.21983 521.297 6.49315 317.051)
(542.788 -119.856 -10.6496 1318.65 9.02098 606.025)
(403.991 14.9725 -5.59446 776.32 10.9579 364.923)
(288.016 17.0835 -1.47142 451.635 21.5439 225.038)
(309.317 37.894 -5.75777 466.511 15.033 236.508)
(909.032 -46.9798 -31.8933 1211.46 14.7385 764.467)
(928.827 -51.0717 -16.8132 1239.97 7.01527 720.468)
(962.078 -52.3657 -7.3988 1276.75 1.50782 699.641)
(936.705 -51.8214 -13.4814 1249.43 5.13663 711.657)
(334.987 66.5451 -3.80752 482.249 5.56761 247.848)
(317.678 45.4173 -1.34631 470.879 12.307 240.674)
(918.497 -50.6868 -32.1874 1310.49 8.16258 856.052)
(877.731 -26.3562 -57.184 1220.38 -21.2245 885.874)
(289.778 198.121 -26.1776 871.897 197.703 457.849)
(442.025 32.0108 -44.1553 1151.88 -45.1905 751.139)
(834.037 -14.7416 -52.9752 1159.27 -44.9196 838.696)
(251.442 90.5611 -6.62804 807.061 13.0228 486.813)
(198.892 255.418 -13.3817 498.646 166.01 420.936)
(209.656 174.855 -19.7977 964.691 12.1762 651.328)
(214.252 133.318 -3.87321 528.655 93.5586 336.179)
(187.822 290.606 -16.3996 449.587 206.988 435.424)
(207.829 209.247 -26.2929 985.051 17.6835 702.233)
(549.161 -77.9711 -3.12054 993.905 1.27438 462.612)
(556.296 -5.27496 -0.202569 603.165 0.0633016 347.693)
(689.776 -80.8166 -0.717492 946.882 -1.26675 491.143)
(616.212 -36.9058 0.630242 754.73 -2.55598 411.527)
(618.229 -36.9117 -1.07794 756.255 -0.344242 412.343)
(692.114 -80.7221 -0.238534 949.163 -0.605183 492.617)
(547.258 -78.3808 1.79304 991.965 -6.26132 461.998)
(552.08 -77.7381 1.81026 997.647 -6.39991 465.243)
(554.104 -6.54603 -0.301437 601.057 -0.422386 346.1)
(623.836 -36.2631 -0.905413 761.653 -0.388364 415.669)
(697.282 -80.5904 -0.054738 954.668 -0.853924 495.864)
(553.987 -77.4563 -2.97166 999.766 1.0486 465.881)
(622.052 -36.193 0.658825 760.306 -2.62779 414.907)
(694.775 -80.5108 -0.66455 952.086 -1.36309 494.304)
(504.315 -82.1308 -4.7464 934.048 1.39134 434.085)
(509.891 -6.5911 -2.08377 555.259 1.66913 324.531)
(636.477 -81.5742 -2.95019 884.39 0.00549052 462.55)
(561.567 -42.007 -1.2513 699.465 -0.498281 383.222)
(565.607 -42.0962 -2.61884 702.489 0.992538 383.868)
(641.511 -81.6143 -1.96542 889.821 0.148069 464.306)
(500.319 -82.8455 -0.204325 929.687 -5.29983 433.786)
(509.518 -81.8013 0.653753 941.023 -6.13994 437.726)
(506.291 -8.7349 -1.91547 551.914 1.05631 321.339)
(575.851 -41.0531 -1.83152 712.387 0.205039 388.327)
(651.067 -81.4484 -1.1271 900.848 -0.398561 468.276)
(512.859 -81.252 -3.94009 944.849 0.877776 438.204)
(572.635 -40.9186 -0.378592 709.934 -1.54227 387.634)
(646.662 -81.3803 -1.99165 896.03 -0.80012 466.406)
(392.71 -58.2054 -16.4035 818.877 50.9059 442.987)
(478.833 -4.21347 -26.6305 527.019 33.4033 376.721)
(548.141 -42.8265 -17.072 792.626 23.5685 523.421)
(416.236 -18.8109 -4.36687 612.508 38.1633 379.003)
(423.218 -34.5701 -16.858 620.357 45.1402 370.771)
(556.276 -58.5583 -20.743 804.759 36.562 511.428)
(386.784 -38.302 -6.49235 793.658 37.2842 453.486)
(402.847 -72.4651 -14.9993 840.198 44.0399 439.829)
(459.207 -11.6591 -27.0936 507.035 33.0749 356.787)
(448.935 -50.6075 -23.7933 624.907 39.5844 363.012)
(558.573 -77.6966 -27.013 809.305 36.8217 488.639)
(410.186 -81.9453 -22.9942 845.399 46.5081 435.281)
(436.947 -43.7946 -20.4333 628.96 41.1302 366.81)
(557.576 -70.0935 -26.1792 809.656 38.864 499.515)
(561.51 -77.1237 1.54074 1009.86 -6.40089 471.547)
(563.349 -6.56651 -0.37861 610.624 -0.307675 351.485)
(708.164 -80.7034 -0.66987 967.476 -0.329604 502.683)
(635.133 -35.3188 -1.32375 772.684 -0.172889 422.337)
(563.647 -76.5281 -3.54591 1011.89 1.52852 472.26)
(633.21 -35.4572 0.474599 771.256 -2.53341 421.478)
(705.531 -80.8887 -0.873771 964.972 -1.38844 501.125)
(558.637 -77.2757 -3.05232 1005.97 1.03663 468.955)
(565.949 -5.14737 -0.195153 612.967 0.181331 353.313)
(627.524 -35.7495 0.679628 765.671 -2.59616 418.158)
(700.054 -80.6615 -0.54048 958.152 -1.60522 497.649)
(556.822 -77.424 1.87453 1003.72 -6.59713 468.451)
(629.418 -36.0334 -0.972421 767.148 -0.284219 418.877)
(702.621 -80.9367 -0.113388 961.278 -0.952473 499.292)
(523.757 -80.4509 1.89658 959.62 -6.64813 445.389)
(522.361 -7.94977 -0.687344 568.373 0.00232673 328.239)
(665.837 -81.2672 -0.0334201 918.35 -0.875311 475.904)
(591.274 -39.5683 -0.715062 728.114 -0.52147 396.147)
(525.871 -80.1126 -2.78442 962.443 0.67728 446.026)
(589.44 -39.4411 0.801214 726.485 -2.51236 395.5)
(662.774 -81.2269 -0.728925 914.831 -1.45265 474.171)
(520.054 -80.6192 -3.31252 954.287 0.703653 442.207)
(525.474 -6.20857 -0.728295 571.25 0.527514 330.685)
(581.801 -40.0823 0.200613 718.805 -2.09408 391.77)
(655.433 -81.292 -1.28787 906.145 -1.15291 470.374)
(517.339 -81.0282 1.30933 951.009 -6.46009 441.699)
(584.608 -40.2552 -1.28717 721.02 -0.236705 392.485)
(659.072 -81.3848 -0.522607 910.195 -0.716571 472.164)
(433.872 -90.2401 -12.8579 863.789 20.1241 428.738)
(436.8 -15.2649 -20.3361 482.457 19.9159 315.65)
(575.445 -83.8535 -16.3672 821.298 16.5189 462.191)
(488.122 -51.3478 -14.6557 639.247 19.9209 364.957)
(440.783 -89.9865 -16.3305 867.837 21.7231 426.202)
(481.224 -51.4346 -14.8788 636.66 21.9807 365.429)
(569.64 -83.6523 -20.0418 816.374 20.2943 466.492)
(426.496 -89.1852 -20.6439 857.603 33.5297 430.418)
(444.748 -12.319 -21.9257 490.229 22.094 323.495)
(463.126 -51.3016 -19.4162 630.768 32.418 364.589)
(561.256 -81.1253 -26.2057 810.713 31.6855 479.701)
(419.648 -86.9192 -16.598 854.959 33.5618 433.726)
(470.76 -52.2346 -19.4656 630.738 29.4936 363.602)
(564.511 -83.1197 -22.7385 811.903 26.282 472.136)
(583.444 -74.5919 0.197193 1038.13 -6.21403 485.577)
(583.912 -6.74688 -1.13558 632.342 0.436125 361.971)
(730.735 -80.6425 -2.09126 995.73 -1.04172 515.994)
(658.974 -33.1117 -0.582514 796.841 -1.98742 436.063)
(579.949 -74.7967 -3.20913 1033.03 0.586174 482.663)
(588.034 -4.6607 -0.665815 635.767 0.954049 364.936)
(723.14 -79.6649 -0.299488 983.227 -2.35732 511.458)
(653.01 -32.461 0.843304 790.161 -2.38872 432.55)
(726.533 -80.6141 -0.223325 989.322 -1.5633 513.679)
(654.411 -33.6166 -0.922869 791.589 0.213459 432.939)
(578.318 -74.4487 1.99326 1029.66 -7.40351 482.412)
(795.27 -45.7483 4.46489 978.078 -2.25201 530.841)
(1103.7 -52.5415 -1.85842 1440.9 -2.77366 762.151)
(904.238 -69.3622 5.393 1123.27 -3.71568 608.023)
(911.141 -69.9067 -7.75848 1134.94 -1.00155 611.752)
(1109.68 -52.3436 -2.12059 1448.56 -1.12612 765.66)
(913.899 -69.7596 4.47853 1138.94 -3.19154 613.621)
(786.168 -44.8531 5.10395 964.949 -2.35198 524.37)
(792.219 -45.546 -8.42636 973.717 1.03653 528.016)
(659.204 42.021 -2.08134 657.189 -1.31091 393.257)
(631.481 65.5845 1.64488 631.835 -2.97983 378.104)
(419.996 135.52 -2.73959 563.382 -1.71457 294.796)
(631.447 65.1971 -1.51749 632.744 1.40232 378.48)
(652.534 41.8794 -1.37993 652.321 -1.70728 390.255)
(656.13 41.2862 1.44889 654.79 0.920938 391.539)
(423.166 137.596 2.40601 565.748 -2.52865 296.564)
(639.022 67.1863 1.29222 638.018 -2.58216 381.81)
(613.362 35.0801 -1.1783 618.677 -2.28067 369.13)
(617.175 35.0802 1.36771 621.835 -0.328162 371.041)
(602.335 59.5462 -1.16448 606.832 0.343815 362.642)
(398.567 118.11 2.53252 541.781 -3.10342 282.129)
(601.876 59.5906 1.91268 605.813 -3.45494 362.085)
(622.994 36.3114 1.44875 627.067 -0.283121 374.372)
(619.628 35.7577 -1.28564 623.968 -2.32574 372.547)
(597.021 58.843 1.70984 600.972 -3.46105 359.024)
(396.15 116.769 -2.52341 539.618 -2.40775 280.695)
(596.769 58.4321 -1.43302 602.022 0.273264 359.65)
(752.451 -45.4887 5.66583 929.576 -1.82346 504.541)
(755.666 -45.244 -7.09975 931.747 1.783 505.981)
(878.244 -69.4959 -6.7652 1095.98 0.734673 592.14)
(1065.61 -52.4393 -0.956091 1396.13 -0.830347 738.166)
(874.472 -69.2564 5.47047 1092.41 -1.7956 590.17)
(760.882 -45.26 -7.11993 937.331 1.58335 509.135)
(757.532 -45.2583 5.67356 934.808 -1.77055 507.556)
(869.367 -69.4244 5.44023 1087.39 -1.82019 586.981)
(1063.04 -52.4202 -0.94589 1393.28 -0.342964 736.59)
(872.706 -69.3356 -6.88111 1090.09 1.26716 588.717)
(542.646 -78.9119 2.00152 986.238 -6.45279 458.709)
(687.172 -81.036 -0.104328 943.901 -0.709423 489.426)
(543.781 -7.04992 -0.203982 590.615 -0.436839 339.847)
(612.546 -37.5708 -0.91098 750.781 -0.397927 408.97)
(544.444 -78.6086 -2.99746 988.295 1.17202 459.362)
(684.779 -81.0167 -0.520382 941.346 -1.48239 487.891)
(610.907 -37.4753 0.846857 749.5 -2.65747 408.226)
(539.883 -79.0112 -2.83366 982.379 0.963255 456.136)
(546.226 -5.70316 -0.0856891 592.877 0.0295887 341.586)
(679.634 -80.9605 -0.377866 935.218 -1.56149 484.599)
(605.43 -37.8417 0.946578 743.978 -2.71561 405.046)
(682.068 -81.0948 0.0572441 937.99 -0.901327 486.143)
(607.29 -38.0355 -0.838057 745.477 -0.486188 405.741)
(538.123 -79.2127 2.17598 980.177 -6.56975 455.606)
(750.68 -45.4855 -7.08105 926.735 1.72607 503.003)
(747.314 -45.5453 5.72733 923.966 -1.93024 501.384)
(1052.4 -52.4085 -0.82231 1381.18 -0.835531 729.775)
(858.357 -69.2947 5.67422 1075 -2.16956 580.114)
(862.195 -69.4284 -6.69627 1079.01 0.770224 582.162)
(867.702 -69.5155 -6.83824 1085.18 1.11226 585.608)
(1055.49 -52.412 -0.898883 1384.92 -1.00656 731.784)
(864.04 -69.3915 5.59488 1081.54 -2.15149 583.688)
(741.917 -45.4847 5.77114 917.853 -1.95167 497.995)
(745.4 -45.487 -7.03651 920.861 1.54486 499.686)
(610.979 34.4129 1.41705 616.634 -0.351335 367.665)
(607.842 33.9872 -1.06678 613.679 -2.34908 365.875)
(586.874 57.0542 1.86287 591.514 -3.57188 353.149)
(388.881 111.596 -2.39761 531.86 -2.5415 276.163)
(586.685 56.6479 -1.3058 592.592 0.113241 353.728)
(601.95 33.4698 -0.914265 608.629 -2.412 362.765)
(605.517 33.3744 1.47243 611.706 -0.411795 364.472)
(591.96 57.6786 -1.13472 597.25 0.223824 356.622)
(391.224 112.774 2.54765 533.981 -3.17898 277.564)
(591.589 57.7347 1.98169 596.26 -3.50118 356.056)
(555.326 25.9328 -2.63582 568.066 0.6184 341.116)
(562.914 26.3838 -0.0466589 573.967 1.27032 343.474)
(557.062 50.9083 -1.65557 565.707 1.04432 338.319)
(367.398 96.3739 2.0378 508.121 -2.21274 263.315)
(556.666 51.0785 1.27538 564.135 -1.81771 337.822)
(573.573 28.3063 0.585898 582.902 0.417142 348.101)
(567.476 27.632 -1.98278 577.753 -0.653715 345.846)
(546.944 49.1148 0.608044 555.411 -0.555241 333.373)
(362.905 93.4954 -2.70807 504.577 -1.2155 260.942)
(546.791 48.6461 -2.29045 557.078 1.96723 333.773)
(695.69 -45.7108 2.53903 866.577 -0.315459 476.919)
(702.874 -45.5539 -9.14204 872.68 2.52107 477.923)
(827.688 -69.274 -7.79992 1039.42 1.14649 562.776)
(1009.91 -52.3602 -2.4166 1331.03 -0.970741 706.338)
(820.916 -69.0443 3.68566 1032.56 -1.53091 560.862)
(712.737 -45.5528 -8.2724 883.723 2.1456 481.853)
(706.439 -45.652 3.63369 878.348 -0.969719 480.372)
(809.744 -69.0241 2.63104 1020.3 -0.914473 557.238)
(1004.16 -52.4966 -2.767 1324.25 -0.550087 704.214)
(817.412 -69.2148 -8.61658 1027.86 1.42746 558.67)
(489.575 -84.228 -1.3886 916.95 -3.89054 430.019)
(630.613 -81.8731 -3.09055 877.528 1.09981 460.617)
(484.558 -9.97725 -4.37707 529.83 3.34676 314.588)
(553.45 -43.4079 -3.60142 691.115 2.25745 379.216)
(494.35 -83.3012 -5.77806 921.94 2.43208 430.077)
(624.724 -81.8933 -4.33811 871.281 1.12428 459.102)
(548.874 -43.4202 -2.45287 687.8 1.04451 378.755)
(482.832 -84.8175 -7.32767 908.527 4.34009 426.662)
(488.927 -7.33693 -4.81421 533.895 4.16286 318.961)
(611.385 -82.3181 -6.44331 856.841 3.24915 456.777)
(533.9 -45.2268 -4.35735 674.568 3.60985 374.42)
(617.983 -82.252 -4.79674 863.547 2.65444 457.64)
(539.539 -45.0623 -5.20037 678.508 4.31189 374.692)
(477.207 -85.9066 -3.16211 903.076 -1.27623 427.099)
(691.805 -45.6166 -10.2878 860.416 3.25076 474.56)
(683.402 -45.814 0.923629 853.12 0.536483 474.131)
(977.541 -53.2412 -5.07593 1294.05 0.29066 698.549)
(782.596 -68.9594 -1.17782 991.005 1.48935 553.461)
(792.467 -69.2616 -11.2882 1000.35 2.92351 552.434)
(805.82 -69.2167 -9.70223 1015.07 2.07384 555.062)
(985.121 -53.2321 -4.47379 1302.53 -0.370861 699.384)
(796.917 -69.0556 1.12823 1006.2 -0.197038 554.376)
(669.737 -45.9617 -1.44464 838.528 2.16095 472.96)
(678.994 -45.7187 -12.0117 846.279 4.21335 471.886)
(549.96 24.4118 -0.937932 563.684 2.56533 338.45)
(541.407 23.3736 -3.6945 557.117 2.49407 336.091)
(521.778 43.2406 -1.29572 534.459 4.23243 323.394)
(345.81 77.6739 -3.37076 490.258 2.3288 252.642)
(521.652 42.8218 -3.94501 536.266 5.65279 323.473)
(524.79 20.6995 -5.26799 544.827 5.36472 330.772)
(535.241 21.6636 -2.29034 552.143 4.56827 333.158)
(535.301 46.1304 -2.7585 547.285 3.43274 328.813)
(351.854 82.1978 1.32172 494.489 0.724575 255.603)
(535.002 46.315 -0.0244477 545.537 1.37695 328.585)
(369.593 -0.43902 1.59386 469.198 40.3315 298.69)
(374.364 -15.309 -23.9286 481.28 36.3532 286.998)
(426.087 19.6174 -12.7677 470.39 29.7618 280.406)
(271.185 17.4999 1.7192 424.847 22.6265 211.345)
(416.674 16.8448 -10.2843 461.005 27.4929 273.313)
(427.374 -1.11865 -21.086 493.101 32.2471 297.755)
(390.209 -11.4351 -22.9087 486.094 33.4217 291.033)
(382.566 12.8065 4.24522 430.127 31.4715 262.978)
(260.871 27.3043 1.64877 403.052 23.4502 202.439)
(390.304 10.4465 -9.25808 440.759 30.9199 262.633)
(646.454 -23.0494 -18.8395 796.249 10.9122 587.769)
(649.146 -37.3342 -41.2293 796.099 30.3528 564.19)
(736.668 -62.8463 -40.4127 939.588 28.4687 613.308)
(902.433 -39.0973 -42.1605 1188.17 13.8577 801.138)
(738.708 -54.6906 -30.1246 936.503 25.7592 636.124)
(635.397 -45.4849 -42.0129 792.809 29.0226 528.161)
(645.526 -41.0575 -31.2181 799.287 27.5486 554.947)
(720.428 -30.2176 -14.0076 913.986 4.41501 649.505)
(892.878 -31.6613 -42.8379 1165.01 6.80103 808.142)
(737.911 -49.4994 -38.5115 932.566 26.8655 640.727)
(372.396 17.6809 5.82161 751.313 41.7086 491.198)
(528.642 -23.2736 -8.24166 767.145 11.5842 544.473)
(429.006 12.7147 6.32249 473.718 17.754 422.537)
(406.382 -9.938 -4.63234 572.886 39.6849 386.536)
(379.742 -13.5112 -6.74734 779.097 46.1522 470.975)
(520.88 -1.93859 14.2934 754.386 5.39671 580.649)
(401.221 14.5691 8.20797 556.338 41.5532 405.541)
(291.038 60.3039 -5.95372 847.415 16.8219 541.796)
(407.47 11.3299 2.10915 1060.31 -48.9493 689.165)
(532.796 -29.1587 17.5875 913.378 -21.4479 668.677)
(235.067 137.648 -20.416 1032.55 11.2263 710.882)
(259.02 80.0414 -1.04296 730.993 6.31539 424.847)
(197.984 82.6092 1.09784 399.672 50.2685 246.682)
(333.024 79.7638 11.3327 490.499 11.0556 326.294)
(214.076 114.683 -2.05898 513.598 76.7265 316.866)
(306.122 54.7996 -5.20641 767.058 20.4095 490.559)
(576.091 66.5684 21.8439 629.744 17.8964 513.196)
(566.611 -9.54104 15.3984 822.784 -5.19265 633.872)
(387.443 54.6925 15.074 504.343 21.9236 363.111)
(628.004 -16.7539 -21.7843 778.24 6.63168 583.422)
(596.845 -0.363983 21.0646 752.976 -3.88855 605.81)
(534.808 -9.55175 8.1867 1039.03 -38.7863 729.668)
(629.585 -23.6014 24.8325 865.7 -11.4555 661.19)
(699.108 -24.7777 -14.3261 891.81 -2.8213 639.616)
(748.965 3.91914 15.5789 1021.02 -45.4957 718.568)
(640.792 -16.2571 39.0966 855.736 -29.4989 654.143)
(617.53 -4.02141 5.09536 764.708 4.80698 627.791)
(381.099 5.09074 -5.93186 462.711 39.2808 308.708)
(396.143 37.7805 5.4557 419.402 22.1283 320.93)
(183.424 88.3424 1.69606 338.834 44.8599 221.51)
(365.277 92.3452 17.8411 413.326 7.05209 297.263)
(419.332 56.9222 16.4595 428.998 24.1112 327.858)
(370.948 23.9511 4.12737 413.924 30.5254 270.614)
(219.737 77.262 5.98492 325.368 37.1944 204.954)
(367.455 52.4919 10.4505 388.811 13.3212 280.975)
(569.687 -74.804 -3.72873 1017.54 1.65708 475.987)
(579.908 -3.77284 -0.650328 626.894 0.240791 361.673)
(711.068 -80.0263 -1.47234 970.033 -0.71555 504.365)
(639.608 -34.1133 -0.0428305 777.161 -2.42107 425.316)
(567.082 -75.8121 0.995861 1015.64 -5.9249 475.214)
(713.741 -79.3892 -0.938367 971.601 -0.00502245 505.747)
(642.348 -33.5347 -1.61355 779.099 -0.149666 426.344)
(573.341 -74.2252 1.39057 1021.78 -6.46777 479.054)
(577.665 -5.16871 -0.720886 624.599 -0.208429 359.893)
(719.71 -79.0515 -0.00502886 977.494 -1.20471 509.2)
(649.263 -32.4561 -0.794082 785.566 -0.184034 430.038)
(575.485 -73.9908 -2.86842 1024.52 0.636624 479.698)
(716.765 -78.8353 -1.04007 974.158 -1.12752 507.436)
(647.245 -32.2712 0.266417 783.989 -2.52532 429.342)
(635.26 38.1922 1.24507 637.44 -0.121792 381.094)
(631.666 37.514 -1.4126 634.153 -2.16238 379.057)
(607.597 60.7414 1.70199 610.627 -3.41513 365.063)
(403.546 122.264 -2.57545 547.273 -2.2594 285.178)
(607.464 60.3486 -1.43524 611.665 0.475039 365.634)
(625.407 36.9764 -1.26523 629.102 -2.24524 375.811)
(629.185 36.8682 1.45698 632.087 -0.108052 377.569)
(613.169 61.6136 -1.31383 616.601 0.58903 368.767)
(406.062 123.727 2.52642 549.389 -2.99639 286.646)
(612.865 61.629 1.8046 615.616 -3.33429 368.178)
(772.142 -45.4412 -7.42515 950.118 2.08287 516.341)
(768.574 -45.6443 5.5171 947.418 -1.97951 514.808)
(880.218 -69.495 5.57152 1098.71 -2.35896 593.823)
(1075.72 -52.5838 -1.07992 1408.21 -1.16226 744.979)
(884.401 -69.7579 -6.96915 1103.7 0.495609 596.146)
(762.861 -45.3839 5.64655 940.585 -1.98827 510.941)
(766.568 -45.5524 -7.3337 944.301 1.47477 512.975)
(890.091 -69.739 -7.36856 1109.68 1.7721 599.452)
(1079.2 -52.5694 -1.18625 1412.46 -1.03658 747.262)
(886.303 -69.7209 5.38684 1106.31 -2.32096 597.674)
(774.006 -45.3188 5.35241 952.921 -1.47979 517.743)
(777.122 -44.5692 -7.3596 953.169 2.35534 518.327)
(901.194 -69.3765 -6.96974 1118.64 -0.291251 605.331)
(1086.81 -52.8375 -1.30676 1418.72 -0.563286 750.694)
(896.597 -69.0501 5.05603 1114.04 -1.00254 603.037)
(783.247 -44.5457 -7.603 959.911 1.23335 521.519)
(779.373 -44.4541 5.32895 957.069 -1.2909 519.957)
(891.606 -69.581 4.94441 1111.43 -1.02528 600.485)
(1084.76 -52.7373 -1.25618 1416.95 0.590116 749.81)
(894.645 -69.1687 -7.35089 1111.63 2.33647 601.53)
(638.159 39.0629 -1.69921 639.977 -2.18396 382.906)
(642.969 39.6007 1.14541 644.098 -0.151069 385.282)
(625.019 64.0879 -1.20512 627.523 0.852899 375.457)
(414.65 130.676 2.54792 558.252 -2.95814 291.856)
(624.538 64.1458 1.74262 626.478 -3.28917 374.987)
(649.996 41.2391 1.61526 650.359 0.282963 388.948)
(646.126 40.5665 -1.75375 646.888 -2.23049 387.166)
(618.935 63.091 1.45458 620.878 -3.31936 371.523)
(411.793 128.942 -2.69664 555.74 -2.18277 290.219)
(618.604 62.7148 -1.66336 622.044 0.612047 372.217)
(530.731 -79.6553 -2.62532 969.546 0.756723 449.6)
(536.457 -5.92886 -0.133753 582.802 0.0581793 336.087)
(668.899 -81.1001 -0.407354 922.282 -1.51266 477.813)
(595.069 -38.8441 1.10003 732.717 -2.68281 398.811)
(528.955 -79.9548 2.25168 967.089 -6.62665 449.004)
(671.502 -81.1161 0.141828 925.318 -0.929943 479.437)
(596.76 -38.9625 -0.618444 734.266 -0.604818 399.455)
(533.571 -79.5309 2.30959 973.79 -6.6544 452.349)
(533.793 -7.37786 -0.19915 580.304 -0.430406 334.127)
(676.881 -81.0213 0.178147 931.788 -0.952179 482.831)
(601.836 -38.4266 -0.644358 739.868 -0.612305 402.581)
(535.322 -79.2836 -2.66398 976.119 0.813546 452.966)
(674.34 -80.9598 -0.315157 928.929 -1.59772 481.245)
(600.302 -38.304 1.13599 738.531 -2.79847 401.943)
(589.181 30.8826 1.57878 596.615 -0.41932 355.613)
(585.833 30.3339 -1.0949 593.127 -1.97207 353.931)
(565.394 52.8932 1.47043 571.673 -2.63039 341.815)
(375.289 103.385 -2.38584 516.384 -2.40654 267.626)
(565.278 52.4499 -1.52948 573.089 0.458209 342.373)
(577.429 29.3752 -1.50837 586.101 -1.43582 350.179)
(582.74 29.4894 1.11859 590.544 -0.0922452 352.225)
(572.093 53.9322 -0.949759 578.897 0.135509 345.66)
(378.27 104.917 2.54207 518.988 -3.09262 269.302)
(571.771 53.9722 1.99328 577.838 -3.14489 345.2)
(728.098 -45.5241 -7.20287 901.215 1.68707 489.396)
(723.604 -45.6083 5.09302 897.327 -1.65977 487.734)
(830.696 -69.1638 4.47163 1043.5 -1.78588 564.87)
(1024.41 -52.379 -1.47467 1347.84 -0.866142 712.937)
(836.344 -69.2783 -7.22747 1049.27 0.896783 566.924)
(715.712 -45.651 4.47038 888.502 -1.35647 484.047)
(720.976 -45.5512 -7.6718 893.079 1.80631 485.664)
(843.862 -69.3374 -6.81049 1057.98 0.885731 570.952)
(1028.71 -52.3552 -1.26429 1353.05 -1.13391 715.198)
(838.961 -69.1896 5.06731 1052.86 -2.03783 568.861)
(730.324 -45.5733 5.52061 904.897 -1.82216 491.25)
(734.199 -45.4103 -7.00259 908.15 1.58017 492.866)
(856.39 -69.3435 -6.57292 1072.29 0.802924 578.472)
(1042.78 -52.3036 -0.785352 1369.77 -1.06796 723.529)
(852.348 -69.1479 5.63773 1068.17 -2.11005 576.453)
(739.951 -45.4191 -6.93637 914.62 1.57664 496.272)
(736.304 -45.4559 5.73047 911.627 -1.9021 494.656)
(846.102 -69.2415 5.44197 1061.08 -2.0429 572.737)
(1039.46 -52.3149 -0.822494 1365.77 -0.755577 721.492)
(850.264 -69.2388 -6.63529 1065.31 0.848428 574.762)
(591.582 31.6198 -0.736295 598.676 -2.26849 356.995)
(594.614 31.6958 1.64683 601.752 -0.532704 358.521)
(582.009 55.9628 -0.958737 587.948 0.0207963 350.936)
(384.482 108.503 2.6964 526.363 -3.23791 273.313)
(581.662 55.9981 2.17298 586.976 -3.58093 350.452)