/*--------------------------------*- C++ -*----------------------------------*\
| =========                 |                                                 |
| \\      /  F ield         | OpenFOAM: The Open Source CFD Toolbox           |
|  \\    /   O peration     | Version:  2012                                  |
|   \\  /    A nd           | Website:  www.openfoam.com                      |
|    \\/     M anipulation  |                                                 |
\*---------------------------------------------------------------------------*/
FoamFile
{
    version     2.0;
    format      ascii;
    class       volScalarField;
    location    "0.105/solid";
    object      sigmaDiff;
}
// * * * * * * * * * * * * * * * * * * * * * * * * * * * * * * * * * * * * * //

dimensions      [1 -1 -2 0 0 0 0];


internalField   nonuniform List<scalar> 
3125
(
-828.735
-794.714
-736.403
-832.439
-800.479
-751.665
-847.477
-818.767
-774.521
-841.721
-814.75
-767.727
-253.823
-482.102
-858.813
-825.505
-258.136
-856.277
-478.99
-225.709
-452.222
-836.399
-788.362
-237.192
-830.573
-445.737
-135.323
-401.078
-780.967
-691.476
-178.846
-679.24
-377.042
-983.807
-988.541
-262.656
-835.797
-485.338
-860.736
-257.939
-864.663
-488.562
-981.776
-978.428
-957.355
-963.783
-244.78
-805.695
-457.744
-838.375
-237.42
-843.809
-462.317
-955.078
-947.526
-895.975
-919.39
-185.857
-757.191
-407.056
-793.953
-178.479
-810.786
-408.703
-880.485
-770.017
-871.578
-499.952
-268.101
-682.077
-347.759
-327.779
-321.976
-667.498
-663.937
-254.038
-822.361
-851.554
-472.873
-855.485
-249.684
-476.003
-657.992
-662.67
-314.716
-320.03
-297.146
-285.436
-636.819
-623.585
-224.95
-781.57
-821.813
-429.903
-828.65
-207.844
-438.278
-595.591
-617.919
-265.405
-281.316
-229.282
-212.234
-435.412
-351.086
-114.824
-692.373
-632.301
-315.728
-327.819
-208.752
-994.914
-990.554
-988.31
-262.431
-838.255
-866.077
-495.82
-268.326
-864.221
-491.938
-329.78
-335.916
-669.431
-674.626
-678.177
-675.303
-345.628
-338.35
-972.77
-977.468
-970.947
-965.645
-244.678
-810.419
-849.938
-469.551
-249.852
-845.445
-466.097
-300.231
-307.197
-640.388
-648.488
-656.146
-650.724
-312.963
-308.788
-709.924
-936.016
-945.089
-679.372
-702.268
-933.089
-923.174
-510.444
-601.44
-670.148
-623.183
-186.862
-761.881
-819.565
-421.179
-206.418
-813.222
-413.472
-232.505
-241.367
-461.724
-529.206
-585.817
-547.042
-260.625
-244.064
-475.167
-401.639
-798.356
-723.873
-386.899
-585.107
-684.57
-833.258
-448.301
-772.07
-884.693
-544.69
-256.058
-479.043
-352.462
-353.17
-479.795
-543.538
-545.745
-255.855
-354.949
-481.958
-547.069
-354.342
-480.908
-515.496
-231.718
-446.331
-328.043
-330.578
-449.962
-511.463
-518.434
-232.222
-335.473
-456.793
-521.662
-333.585
-453.862
-450.556
-171.777
-287.664
-247.525
-273.86
-320.467
-418.249
-467.121
-174.429
-291.339
-357.671
-475.954
-287.678
-344.754
-551.366
-260.035
-487.861
-358.894
-552.484
-358.389
-487.013
-550.104
-260.212
-356.256
-483.651
-548.48
-357.134
-485.229
-528.793
-241.472
-466.343
-342.59
-530.763
-341.567
-464.582
-526.725
-241.397
-337.926
-459.839
-524.121
-339.538
-462.105
-471.871
-180.135
-388.473
-294.424
-475.327
-291.758
-381.096
-476.827
-180.19
-291.037
-366.981
-474.873
-291.739
-373.31
-564.621
-271.301
-502.375
-368.341
-562.507
-271.291
-494.255
-364.941
-498.412
-366.449
-559.424
-458.149
-686.782
-535.522
-543.45
-690.815
-545.301
-451.332
-456.778
-307.011
-319.201
-350.305
-318.839
-304.083
-305.232
-353.129
-323.942
-282.115
-283.632
-301.539
-326.457
-301.47
-287.039
-285.123
-298.933
-324.321
-298.25
-436.188
-436.94
-524.308
-666.094
-522.512
-439.353
-438.289
-520.764
-664.816
-521.79
-541.325
-477.916
-251.808
-351.368
-542.561
-476.908
-350.803
-540.034
-251.979
-474.118
-348.642
-475.383
-349.518
-538.526
-435.017
-433.792
-659.564
-515.296
-517.352
-520.077
-661.277
-518.242
-431.084
-432.49
-280.682
-279.044
-293.239
-316.826
-292.646
-276.207
-277.67
-295.73
-318.792
-295.742
-247.325
-251.933
-274.179
-293.922
-273.822
-258.828
-254.905
-267.105
-290.198
-267.133
-401.149
-406.631
-497.548
-633.032
-492.292
-413.587
-409.414
-483.707
-628.45
-490.23
-503.082
-441.658
-217.581
-324.555
-508.122
-437.03
-321.545
-499.263
-216.419
-425.441
-313.643
-431.091
-317.44
-492.987
-397.977
-390.571
-604.312
-458.311
-469.483
-481.253
-611.912
-472.565
-377.308
-386.903
-243.776
-237.934
-248.56
-271.731
-249.225
-227.355
-233.947
-259.116
-276.418
-258.312
-188.659
-215.181
-206.418
-220.203
-201.11
-209.096
-212.411
-181.798
-211.04
-190.802
-218.427
-264.781
-360.8
-408.505
-326.422
-297.434
-269.776
-271.918
-378.86
-321.47
-387.268
-246.191
-66.4754
-203.433
-407.393
-236.966
-176.263
-570.358
-659.598
-388.929
-844.803
-498.521
-275.943
-226.645
-402.947
-475.446
-172.887
-260.322
-174.31
-205.955
-173.32
-509.692
-253.964
-258.879
-321.792
-254.521
-149.754
-173.612
-134.652
-249.533
-201.126
-164.338
-165.75
-200.542
-154.483
-553.875
-265.524
-488.416
-359.873
-553.02
-488.34
-360.548
-554.852
-265.271
-490.611
-362.865
-556.789
-488.961
-361.916
-293.473
-291.432
-304.891
-332.14
-304.329
-288.511
-289.976
-307.767
-334.353
-307.787
-444.956
-443.731
-525.255
-671.358
-528.041
-440.715
-442.555
-530.714
-673.303
-528.995
-446.131
-445.73
-533.73
-676.242
-531.172
-449.229
-447.736
-531.212
-675.315
-530.491
-295.288
-297.863
-314.926
-344.005
-314.749
-302.485
-299.963
-311.555
-341.312
-310.863
-534.053
-247.462
-468.215
-344.16
-532.417
-469.594
-345.088
-535.568
-247.321
-472.533
-347.268
-537.075
-471.26
-346.546
-268.404
-266.138
-279.758
-303.46
-279.421
-261.313
-264.171
-283.88
-305.924
-283.742
-423.305
-420.97
-499.23
-643.188
-503.116
-415.875
-419.009
-507.707
-646.102
-504.544
-424.98
-426.653
-514.34
-654.409
-512.116
-429.674
-428.217
-508.849
-652.465
-511.091
-269.992
-271.574
-290.09
-312.051
-290.028
-274.776
-272.976
-287.438
-310.429
-286.934
-687.022
-694.925
-545.883
-576.597
-658.217
-642.742
-479.803
-195.505
-396.481
-297.032
-472.612
-403.773
-301.023
-481.837
-197.057
-418.541
-309.252
-489.243
-411.776
-305.128
-204.98
-204.455
-214.052
-236.316
-212.925
-207.503
-204.057
-218.174
-237.43
-218.756
-337.918
-319.021
-362.037
-486.52
-388.318
-297.17
-317.902
-414.444
-509.23
-391.161
-341.277
-356.765
-454.871
-575.193
-440.297
-373.244
-360.817
-418.076
-562.172
-436.476
-207.52
-212.369
-238.329
-254.448
-237.193
-223.048
-216.24
-226.761
-250.061
-227.103
-446.669
-421.418
-698.676
-899.958
-526.59
-374.598
-394.691
-254.735
-312.554
-290.66
-289.494
-312.261
-394.564
-711.548
-930.945
-693.193
-857.543
-713.165
-929.982
-691.801
-396.644
-256.15
-292.826
-315.701
-398.345
-292.763
-314.875
-711.353
-689.998
-856.708
-927.836
-928.316
-690.653
-710.203
-366.852
-228.5
-282.421
-262.357
-261.695
-283.5
-364.484
-691.099
-903.217
-663.361
-834.359
-693.189
-901.634
-659.877
-373.456
-234.142
-270.388
-293.041
-376.258
-270.147
-291.479
-253.063
-155.4
-155.355
-166.791
-183.806
-175.255
-221.575
-293.748
-176.471
-211.848
-218.077
-305.827
-210.153
-213.263
-1075.48
-985.808
-1077.21
-1080.2
-987.599
-1079.41
-401.559
-260.431
-320.476
-297.463
-403.097
-297.432
-319.668
-715.839
-933.132
-695.399
-862.554
-713.703
-934.335
-697.569
-399.122
-258.889
-295.025
-316.818
-398.768
-293.875
-316.61
-1073
-980.109
-1071.5
-979.067
-1068.75
-1069.61
-382.38
-242.42
-301.395
-278.544
-384.27
-278.499
-300.345
-696.33
-906.366
-666.893
-840.148
-694.399
-907.906
-669.554
-378.264
-239.285
-273.967
-295.035
-377.013
-273.008
-295.405
-697.625
-674.691
-912.298
-842.049
-910.798
-699.444
-672.478
-314.87
-182.036
-234.73
-219.501
-322.707
-218.275
-231.037
-309.729
-179.164
-214.02
-219.632
-303.197
-212.842
-221.685
-409.584
-269.511
-327.251
-305.926
-327.52
-304.637
-408.385
-332.383
-333.858
-234.871
-235.557
-221.576
-221.824
-224.973
-223.478
-316.329
-317.56
-321.205
-319.086
-392.738
-311.505
-252.101
-288.521
-394.273
-310.697
-288.502
-707.821
-922.233
-852.966
-684.094
-685.663
-923.382
-706.317
-708.58
-688.812
-926.233
-854.409
-709.92
-687.522
-925.406
-390.38
-250.665
-308.084
-286.285
-307.877
-285.154
-390.066
-316.6
-314.542
-311.544
-312.778
-221.157
-219.738
-217.771
-218.087
-196.553
-198.199
-205.793
-203.588
-283.302
-286.873
-296.89
-293.471
-359.367
-279.587
-220.949
-257.578
-363.506
-277.23
-256.917
-349.549
-211.62
-262.879
-244.737
-264.962
-244.6
-345.598
-282.729
-277.916
-261.654
-266.914
-194.909
-191.969
-181.407
-183.748
-148.184
-164.781
-165.693
-162.915
-158.31
-176.355
-208.752
-202.513
-162.335
-134.893
-85.4281
-139.353
-204.163
-105.582
-128.761
-598.98
-673.777
-755.082
-568.692
-613.186
-733.912
-545.341
-576.478
-459.673
-724.21
-622.388
-570.684
-449.883
-728.979
-433.999
-283.561
-455.854
-312.798
-452.832
-267.013
-424.45
-146.262
-124.101
-129.408
-93.8879
-1085.28
-988.005
-1082.94
-1081.21
-987.598
-1081.16
-403.199
-263.718
-321.673
-299.902
-403.183
-321.314
-298.707
-405.092
-265.849
-325.629
-302.968
-407.446
-324.552
-302.996
-229.145
-227.524
-225.428
-225.741
-326.438
-323.941
-320.913
-322.075
-325.934
-327.823
-332.413
-329.722
-229.654
-230.109
-234.381
-232.503
-1061.79
-974.366
-1063.35
-1066.94
-976.012
-1065.62
-1059.27
-969.005
-1057.46
-385.243
-245.93
-302.794
-281.191
-384.797
-302.715
-280.061
-703.656
-919.945
-682.148
-848.374
-705.211
-918.628
-680.478
-387.954
-247.808
-306.928
-284.013
-389.62
-306.056
-283.978
-702.399
-676.903
-914.904
-846.831
-700.795
-916.214
-678.506
-212.649
-210.98
-206.831
-207.787
-305.747
-303.197
-297.06
-299.395
-305.672
-307.251
-311.752
-309.586
-213.265
-213.728
-217.288
-215.813
-327.144
-190.215
-237.82
-223.893
-321.909
-240.418
-223.73
-338.544
-201.529
-259.207
-239.023
-344.707
-255.785
-237.681
-165.327
-162.79
-164.218
-164.591
-231.509
-224.188
-208.096
-212.979
-232.351
-238.769
-260.586
-253.984
-166.042
-167.666
-179.306
-175.701
-823.475
-846.58
-836.072
-820.486
-722.753
-836.029
-684.898
-565.086
-653.81
-712.634
-582
-638.464
-755.05
-790.3
-714.441
-508.699
-519.798
-581.396
-768.231
-836.354
-394.632
-254.072
-290.659
-313.553
-396.216
-290.578
-312.796
-396.678
-256.794
-292.815
-314.652
-396.509
-291.631
-314.332
-367.09
-228.22
-264.654
-287.051
-370.553
-264.202
-285.123
-373.263
-234.531
-268.821
-289.467
-371.458
-267.998
-290.188
-256.382
-162.254
-201.977
-198.374
-280.711
-194.424
-185.927
-296.318
-177.059
-209.133
-205.875
-283.256
-209.296
-211.858
-401.703
-261.072
-297.424
-319.299
-401.446
-296.219
-319.118
-399.204
-258.173
-295.09
-318.136
-401.037
-295.025
-317.207
-382.269
-242.982
-278.021
-299.402
-381.461
-276.954
-299.53
-378.432
-238.732
-274.939
-297.723
-380.8
-274.79
-296.445
-317.037
-182.13
-216.764
-226.9
-311.476
-215.979
-229.258
-305.735
-177.987
-214.033
-225.07
-313.865
-213.506
-221.947
-414.73
-273.202
-332.066
-309.854
-413.801
-332.487
-308.692
-410.152
-268.586
-330.216
-306.367
-412.978
-328.565
-306.345
-336.74
-339.261
-403.165
-459.4
-384.878
-385.569
-404.583
-591.098
-688.149
-690.559
-589.41
-591.94
-694.48
-594.288
-690.826
-596.521
-694.05
-594.919
-696.44
-336.35
-333.577
-379.476
-452.576
-396.744
-379.946
-398.483
-401.405
-383.145
-454.196
-381.479
-399.821
-238.04
-238.919
-309.207
-312.77
-285.346
-303.876
-282.558
-308.275
-313.235
-288.34
-326.371
-325.752
-289.144
-243.205
-230.2
-240.591
-232.351
-289.188
-324.352
-326.029
-286.503
-243.812
-234.436
-244.323
-233.942
-237.284
-235.21
-305.029
-280.879
-300.448
-308.444
-278.313
-308.757
-304.751
-304.915
-310.369
-281.438
-299.992
-279.229
-307.371
-308.485
-293.598
-329.216
-330.953
-291.073
-235.77
-245.449
-223.001
-221.545
-284.136
-262.665
-278.637
-288.161
-260.399
-288.303
-284.093
-283.999
-289.189
-263.004
-278.408
-260.833
-285.636
-287.847
-271.543
-305.972
-307.451
-269.756
-227.308
-214.339
-226.554
-214.964
-271.48
-307.651
-307.572
-271.024
-226.956
-213.039
-225.523
-214.039
-223.441
-223.747
-287.103
-265.621
-281.798
-292.492
-263.496
-290.989
-289.09
-286.936
-290.709
-265.226
-281.691
-262.887
-286.635
-290.983
-268.038
-304.172
-304.21
-268.464
-223.764
-209.036
-221.527
-210.555
-268.818
-303.33
-304.705
-266.309
-224.435
-211.879
-224.662
-211.896
-318.986
-316.785
-364.01
-435.994
-382.107
-363.742
-383.023
-383.976
-364.835
-436.779
-364.537
-383.006
-575.997
-675.409
-576.942
-674.141
-550.987
-660.441
-523.362
-538.224
-658.57
-537.525
-551.757
-550.47
-536.279
-522.841
-657.709
-658.355
-537.037
-549.86
-575.463
-673.232
-574.913
-673.912
-318.569
-319.876
-367.157
-438.893
-386.068
-366.725
-385.102
-384.096
-366.249
-438.024
-365.885
-385.05
-548.454
-656.279
-520.995
-534.533
-656.623
-535.257
-547.919
-573.001
-670.72
-572.598
-671.162
-548.857
-535.914
-521.347
-657.528
-656.529
-535.474
-549.241
-573.546
-672.473
-574.157
-671.739
-392.771
-252.72
-310.431
-288.567
-392.544
-310.199
-287.398
-390.444
-250.001
-309.318
-286.361
-392.135
-308.462
-286.302
-362.737
-381.838
-434.559
-362.261
-380.972
-313.99
-315.191
-379.912
-433.824
-361.689
-361.536
-380.809
-567.559
-664.66
-665.315
-566.888
-542.925
-649.949
-515.86
-528.744
-650.894
-529.759
-542.11
-543.586
-531.127
-652.83
-516.449
-651.115
-544.359
-530.353
-568.157
-667.161
-569.064
-666.095
-546.599
-656.024
-533.957
-519.334
-547.243
-654.579
-533.402
-571.068
-670.058
-571.898
-669.029
-546.06
-531.968
-518.853
-653.352
-654.371
-532.881
-545.211
-570.493
-667.862
-569.773
-668.677
-314.214
-312.11
-359.162
-431.057
-377.312
-358.987
-378.354
-379.526
-360.342
-432.012
-359.873
-378.52
-219.732
-220.019
-281.262
-260.406
-286.63
-275.596
-283.177
-258.483
-285.271
-281.274
-285.077
-260.229
-275.558
-257.852
-280.91
-285.309
-262.187
-298.207
-298.257
-262.5
-218.278
-203.451
-216.159
-204.812
-262.914
-297.311
-298.71
-260.549
-218.851
-205.957
-218.996
-206.076
-219.291
-217.848
-278.59
-257.619
-272.803
-282.502
-255.441
-282.739
-278.428
-278.443
-283.599
-257.947
-272.593
-255.957
-280.081
-282.339
-265.517
-299.945
-301.388
-263.771
-221.551
-207.979
-220.755
-208.727
-265.459
-301.496
-264.985
-301.471
-221.19
-207.015
-219.799
-207.9
-200.918
-198.348
-251.528
-232.169
-245.231
-254.242
-230.73
-256.068
-249.054
-251.613
-258.265
-234.491
-245.39
-232.519
-254.9
-256.036
-245.396
-275.9
-278.654
-242.318
-204.586
-192.1
-204.543
-191.788
-245.185
-279.462
-278.689
-245.724
-203.538
-188.505
-201.302
-190.618
-202.248
-203.561
-258.85
-240.875
-252.801
-265.259
-239.013
-263.255
-261.843
-258.694
-261.643
-239.266
-252.514
-237.479
-256.67
-263.082
-238.068
-272.263
-271.186
-239.749
-197.146
-181.364
-194.082
-184.359
-238.875
-268.421
-271.612
-234.785
-198.668
-187.177
-199.666
-185.918
-290.631
-286.511
-330.792
-402.692
-348.104
-331.851
-351.013
-354.846
-335.641
-404.972
-334.156
-352.264
-545.868
-644.282
-548.035
-642.119
-521.371
-630.889
-495.605
-510.112
-627.694
-508.366
-523.153
-544.342
-638.986
-542.129
-640.439
-290.967
-293.901
-342.251
-412.238
-361.49
-341.065
-359.455
-356.246
-338.555
-410.447
-339.278
-358.522
-535.262
-629.261
-532.385
-631.952
-537.378
-636.811
-540.041
-634.618
-359.104
-220.944
-273.605
-254.363
-355.955
-275.235
-253.964
-349.731
-211.902
-270.248
-248.965
-354.881
-267.346
-247.954
-327.301
-346.273
-395.613
-325.354
-343.183
-273.61
-278.018
-337.787
-393.039
-320.918
-322.551
-341.318
-508.922
-598.809
-604.117
-504.141
-512.208
-614.041
-516.455
-609.471
-526.806
-626.466
-529.92
-623.287
-523.943
-618.209
-519.878
-620.846
-272.703
-266.917
-308.661
-380.546
-324.674
-310.8
-329.006
-335.258
-316.772
-383.703
-314.231
-331.399
-189.576
-191.632
-242.778
-226.567
-250.089
-236.553
-246.818
-224.605
-247.453
-242.4
-244.637
-223.451
-236.031
-222.298
-239.06
-247.008
-220.343
-253.671
-251.785
-223.021
-182.034
-166.284
-178.597
-170.001
-221.274
-247.857
-252.167
-215.993
-183.911
-173.416
-185.34
-171.378
-187.611
-184.244
-231.696
-212.934
-225.44
-233.735
-212.292
-236.564
-227.795
-232.09
-239.809
-217.07
-225.846
-214.974
-236.554
-236.933
-230.573
-258.671
-262.435
-226.305
-191.802
-180.081
-192.315
-178.891
-230.225
-264.028
-231.745
-262.47
-190.207
-174.639
-187.354
-177.699
-170.939
-165.66
-164.083
-154.482
-190.186
-138.648
-168.248
-146.16
-153.855
-168.381
-165.78
-177.281
-193.598
-171.68
-173.07
-155.94
-192.401
-181.648
-193.659
-192.084
-161.51
-155.626
-162.327
-153.411
-188.633
-200.005
-194.903
-187.755
-161.979
-143.238
-159.587
-150.589
-165.668
-166.522
-175.605
-177.822
-199.622
-181.084
-175.558
-178.948
-177.381
-175.218
-171.89
-176.564
-205.008
-175.593
-174.284
-176.7
-186.003
-166.365
-151.177
-186.822
-163.723
-119.076
-167.633
-119.806
-181.548
-140.169
-144.442
-176.204
-161.181
-135.076
-158.604
-126.922
-193.388
-179.332
-175.259
-237.447
-183.981
-189.749
-199.083
-220.13
-215.588
-246.598
-205.108
-209.479
-342.6
-419.445
-353.435
-400.268
-329.13
-366.171
-319.004
-385.065
-196.32
-203.703
-240.643
-284.144
-244.298
-235.625
-239.582
-228.121
-225.798
-285.091
-231.929
-234.676
-289.847
-318.613
-284.85
-332.343
-298.239
-353.056
-306.438
-336.217
-155.8
-77.5649
-116.589
-122.1
-159.294
-84.0295
-94.4837
-549.109
-682.088
-661.788
-589.286
-775.651
-696.326
-503.187
-500.361
-614.91
-759.167
-824.052
-741.59
-391.172
-494.458
-401.887
-277.131
-316.365
-333.03
-306.095
-265.891
-336.266
-452.135
-350.521
-382.252
-446.42
-359.733
-336.596
-164.544
-148.485
-204.264
-395.8
-173.808
-280.596
-268.743
-165.313
-243.215
-159.578
-168.487
-178.446
-135.518
-150.076
-118.779
-106.373
-108.56
-168.715
-133.233
-127.236
-128.973
-413.554
-304.86
-268.632
-260.578
-343.751
-277.295
-390.484
-222.746
-281.437
-325.212
-280.706
-323.259
-290.726
-354.347
-274.988
-354.561
-202.436
-91.2356
-143.449
-70.1359
-98.3226
-123.125
-125.839
-127.595
-153.227
-146.967
-131.142
-140.711
-164.557
-149.49
-142.156
-144.239
-89.2034
-108.168
-131.438
-221.36
-149.81
-242.075
-209.327
-176.186
-195.481
-231.711
-182.069
-194.901
-145.51
-155.445
-230.446
-158.43
-165.237
-123.319
-124.707
-153.95
-113.344
-131.17
-119.823
-146.203
-122.737
-142.976
-137.307
-155.526
-139.359
-100.878
-174.358
-100.73
-139.565
-742.8
-745.017
-749.748
-746.42
-750.992
-730.502
-731.358
-733.575
-732.173
-736.792
-735.823
-734.363
-735.389
-741.811
-739.595
-738.625
-739.52
-737.423
-737.636
-738.182
-737.759
-402.898
-263.044
-322.652
-300.127
-404.518
-322
-300.045
-405.025
-266.673
-324.067
-302.755
-404.699
-323.678
-301.48
-227.468
-227.82
-293.258
-271.152
-288.033
-298.764
-268.948
-297.126
-295.419
-293.157
-296.966
-270.823
-287.935
-268.3
-292.805
-297.177
-274.1
-310.636
-310.555
-274.562
-229.582
-215.523
-227.269
-217.199
-274.854
-309.546
-272.335
-310.977
-230.244
-218.66
-230.492
-218.624
-227.006
-225.47
-290.204
-267.897
-285.046
-294.09
-265.634
-290.147
-294.29
-290.141
-295.327
-268.327
-284.794
-266.135
-291.902
-293.9
-277.879
-312.588
-314.056
-275.957
-233.445
-221.053
-232.704
-221.803
-277.778
-314.342
-314.144
-277.539
-232.935
-219.868
-231.413
-220.887
-323.337
-324.704
-372.28
-444.632
-391.161
-371.868
-390.278
-389.275
-371.166
-443.946
-371.098
-390.148
-578.402
-676.08
-577.708
-676.966
-553.591
-660.989
-526.051
-539.066
-662.335
-552.629
-540.173
-554.366
-542.051
-526.73
-665.079
-662.735
-541.095
-555.449
-578.961
-678.967
-677.49
-579.999
-323.543
-321.397
-368.535
-440.808
-386.436
-368.36
-387.46
-388.721
-369.86
-441.778
-369.271
-387.738
-581.99
-681.651
-680.665
-582.663
-581.367
-679.306
-680.362
-580.625
-329.639
-326.636
-373.693
-445.455
-391.207
-373.201
-392.253
-393.071
-374.099
-446.385
-374.22
-391.733
-586.79
-687.518
-588.291
-685.363
-586.055
-684.554
-685.259
-585.548
-328.769
-330.804
-377.451
-395.748
-448.435
-376.855
-394.109
-392.628
-376.144
-446.873
-375.384
-394.14
-583.483
-682.23
-682.428
-583.378
-584.152
-683.347
-683.056
-584.42
-231.622
-229.837
-296.733
-273.764
-292.032
-300.567
-271.451
-296.625
-300.818
-296.816
-302.063
-274.508
-292.016
-271.91
-298.726
-300.334
-285.376
-319.765
-321.423
-283.274
-240.498
-228.778
-239.891
-229.186
-285.21
-321.948
-284.923
-321.595
-240.136
-226.759
-238.411
-228.053
-232.217
-232.879
-301.156
-277.905
-306.39
-296.975
-303.524
-275.552
-304.519
-300.724
-303.957
-277.12
-296.754
-274.788
-300.326
-304.435
-280.996
-317.606
-317.471
-281.786
-236.126
-222.187
-233.692
-223.85
-281.928
-316.524
-279.1
-317.993
-236.96
-225.413
-237.356
-225.342
-729.807
-728.486
-727.494
-728.237
-725.202
-725.608
-726.863
-726.12
-718.641
-719.272
-721.15
-720.143
-724.395
-723.368
-722.026
-722.866
-699.63
-700.953
-704.238
-702.651
-709.599
-708.225
-705.853
-707.109
-717.684
-716.475
-714.932
-715.818
-710.981
-711.713
-713.83
-712.776
-385.336
-245.28
-304.349
-281.461
-387.08
-303.429
-281.408
-387.899
-248.413
-305.621
-283.882
-387.566
-305.451
-282.729
-210.416
-211.107
-269.037
-249.751
-263.19
-274.768
-247.989
-273.295
-271.21
-269.004
-272.554
-249.216
-263.029
-247.043
-268.023
-273.236
-250.308
-284.696
-284.378
-251.097
-208.4
-193.363
-205.808
-195.5
-251.08
-282.531
-247.924
-284.821
-209.358
-197.294
-209.815
-196.951
-209.607
-207.702
-264.65
-244.849
-258.63
-268.042
-242.973
-263.377
-269.05
-264.567
-270.417
-245.954
-258.586
-244.066
-266.86
-268.797
-254.814
-287.08
-288.976
-252.799
-212.654
-199.137
-211.775
-200.094
-254.724
-289.173
-289.105
-254.179
-212.347
-198.386
-210.826
-199.385
-301.829
-303.748
-351.574
-422.577
-370.822
-350.847
-369.491
-367.554
-349.497
-421.376
-349.676
-369.026
-551.157
-646.23
-549.613
-647.823
-526.486
-631.811
-500.563
-511.712
-633.863
-524.906
-513.539
-527.766
-516.109
-501.653
-636.881
-634.334
-514.682
-529.145
-552.35
-651.012
-649.363
-553.973
-301.807
-298.841
-344.689
-416.511
-362.548
-345.067
-364.438
-366.75
-347.451
-418.079
-346.578
-365.059
-532.952
-642.074
-506.529
-520.926
-639.951
-519.863
-534.061
-557.509
-656.023
-654.655
-558.864
-531.957
-517.438
-505.661
-637.705
-639.483
-518.922
-530.586
-556.573
-652.493
-653.723
-555.233
-308.998
-306.622
-353.3
-425.08
-371.41
-353.276
-372.698
-374.163
-354.868
-426.194
-354.328
-372.949
-565.033
-663.739
-566.079
-662.575
-540.386
-649.426
-527.941
-513.405
-541.211
-647.622
-527.17
-564.364
-661.158
-661.985
-563.505
-539.703
-525.5
-512.765
-646.19
-647.289
-526.543
-538.786
-308.808
-310.229
-357.735
-376.919
-429.16
-357.209
-375.89
-374.584
-356.446
-428.218
-356.321
-375.676
-536.196
-642.68
-509.529
-521.943
-643.746
-535.212
-523.15
-560.798
-657.283
-658.05
-559.924
-561.569
-660.115
-659.051
-562.609
-536.985
-524.676
-510.209
-645.645
-643.969
-523.801
-537.817
-215.101
-213.56
-272.598
-252.38
-266.632
-276.484
-250.219
-272.21
-276.857
-272.452
-277.809
-252.733
-266.487
-250.834
-274.165
-276.517
-259.97
-293.964
-295.407
-258.398
-216.419
-202.498
-215.561
-203.39
-259.902
-295.535
-259.308
-295.524
-216.253
-202.141
-215.032
-202.71
-215.626
-216.013
-275.555
-255.344
-280.99
-269.681
-277.481
-253.485
-279.618
-275.506
-279.274
-255.076
-269.571
-252.789
-275.036
-279.608
-257.069
-292.235
-292.33
-257.166
-214.173
-199.871
-212.313
-200.844
-257.777
-291.196
-255.612
-292.695
-214.504
-201.331
-214.435
-201.827
-697.558
-695.522
-692.132
-693.767
-679.611
-682.876
-688.804
-686.19
-649.501
-653.491
-659.62
-655.556
-677.06
-673.618
-665.469
-668.933
-473.345
-492.798
-525.195
-506.795
-581.897
-569.783
-541.774
-556.416
-645.558
-639.95
-624.476
-631.139
-590.006
-600.213
-616.066
-607.079
-326.272
-190.739
-246.808
-228.553
-333.473
-243.007
-227.042
-338.631
-200.958
-250.533
-234.061
-333.878
-253.116
-234.099
-163.27
-163.774
-194.55
-184.981
-194.992
-203.181
-183.675
-200.795
-199.355
-194.197
-198.11
-182.13
-196.69
-182.122
-190.074
-200.471
-187.507
-209.775
-208.879
-188.822
-165.457
-156.373
-162.791
-158.358
-191.783
-206.651
-188.439
-211.315
-164.468
-156.603
-164.36
-156.868
-164.1
-162.465
-182.408
-178.592
-198.316
-186.744
-178.864
-179.523
-190.741
-183.164
-192.862
-179.766
-194.955
-179.214
-187.994
-191.012
-193.633
-214.253
-218.003
-189.06
-165.513
-155.424
-165.134
-155.157
-191.007
-218.257
-216.604
-193.032
-165.878
-155.177
-164.028
-156.59
-218.154
-224.134
-271.932
-329.848
-284.575
-267.622
-279.011
-268.552
-259.693
-328.075
-263.5
-273.92
-378.886
-435.232
-366.85
-454.713
-390.98
-485.359
-468.125
-403.068
-217.931
-211.609
-244.832
-308.104
-249.241
-248.26
-253.654
-263.081
-255.402
-307.363
-251.157
-258.292
-435.904
-533.046
-520.929
-445.517
-425.953
-496.675
-510.47
-414.711
-246.4
-239.056
-277.094
-347.527
-289.493
-280.367
-294.988
-304.463
-288.669
-350.757
-284.815
-299.131
-494.44
-592.653
-499.905
-587.544
-489.157
-576.64
-582.453
-482.524
-247.599
-253.659
-303.896
-321.5
-368.848
-300.717
-316.892
-308.585
-293.804
-365.527
-296.699
-313.545
-462.391
-543.19
-553.873
-453.879
-468.648
-570.26
-561.383
-476.265
-171.127
-167.718
-206.295
-189.972
-202.785
-208.932
-190.017
-201.997
-211.814
-206.732
-215.21
-194.598
-202.397
-192.655
-211.825
-212.269
-210.66
-235.364
-239.963
-205.22
-175.864
-165.315
-176.71
-163.511
-209.853
-242.124
-212.449
-239.81
-174.276
-159.412
-171.274
-162.809
-172.917
-175.206
-219.754
-206.066
-228.122
-213.917
-224.854
-203.932
-224.948
-219.104
-221.097
-201.242
-213.485
-200.96
-214.676
-224.194
-199.014
-229.525
-227.332
-202.156
-168.097
-154.697
-165.606
-157.36
-200.76
-223.825
-195.231
-228.232
-168.978
-159
-169.832
-157.323
-458.04
-438.283
-401.862
-421.086
-369.641
-377.65
-388.824
-372.221
-827.384
-879.729
-294.757
-338.75
-383.001
-375.317
-354.886
-406.082
-689.894
-651.278
-832.333
-896.749
-898.279
-655.434
-687.821
-653.965
-844.087
-575.712
-758.169
-668.18
-821.355
-559.745
-624.165
-497.863
-723.012
-743.634
-784.614
-530.893
-595.9
-715.815
-700.887
-936.459
-864.234
-936.219
-717.558
-699.884
-1042.82
-959.354
-1045.01
-1050.28
-961.581
-1048.21
-1039.3
-952.41
-1036.9
-949.725
-1030.77
-1033.1
-974.841
-906.549
-983.712
-996.471
-914.049
-992.044
-679.119
-858.229
-584.809
-801.896
-676.502
-865.474
-588.882
-679.993
-594.533
-873.61
-807.229
-870.897
-680.281
-592.377
-956.302
-854.766
-932.476
-816.468
-847.513
-888.34
-727.087
-943.765
-877.488
-707.434
-713.598
-946.468
-720.596
-727.546
-882.105
-719.054
-948.766
-683.594
-886.238
-824.122
-626.915
-633.532
-887.691
-681.894
-684.596
-645.917
-893.173
-826.522
-686.673
-640.45
-891.42
-1089.59
-999.517
-1093.05
-1002.28
-1095.76
-716.096
-939.875
-702.299
-863.425
-720.033
-938.235
-700.15
-717.549
-700.986
-937.228
-863.053
-716.012
-936.73
-700.058
-1053.11
-967.217
-1054.83
-1016.26
-939.023
-1018.97
-1026.61
-942.164
-1023.51
-1011.8
-929.939
-1008.68
-1001.34
-926.566
-1004.05
-680.292
-882.748
-618.981
-817.451
-681.376
-881.205
-611.365
-680.349
-597.936
-876.709
-815.303
-679.937
-877.945
-603.179
-565.965
-671.56
-538.089
-549.58
-675.673
-552.041
-563.5
-567.89
-557.499
-683.141
-539.738
-677.316
-571.031
-554.983
-560.94
-685.239
-562.705
-573.058
-519.751
-504.564
-494.243
-624.047
-626.975
-506.813
-517.605
-510.912
-614.729
-486.111
-495.48
-618.257
-498.319
-508.153
-513.079
-502.506
-487.83
-622.884
-619.085
-500.246
-515.367
-485.292
-586.654
-462.709
-469.167
-592.883
-473.531
-480.934
-488.8
-480.518
-600.605
-465.325
-594.299
-492.53
-476.881
-502.456
-613.367
-492.928
-478.115
-505.324
-608.498
-490.117
-499.653
-483.912
-475.968
-602.405
-607.351
-487.483
-496.063
-347.496
-474.724
-345.516
-363.002
-453.687
-356.753
-356.24
-338.454
-340.712
-344.792
-431.059
-456.659
-348.636
-329.013
-302.718
-370.686
-294.525
-302.673
-401.572
-311.423
-296.966
-310.102
-329.831
-299.703
-430.949
-400.795
-320.871
-318.577
-289.627
-365.966
-293.22
-234.563
-290.88
-340.721
-284.665
-290.057
-265.427
-227.253
-342.953
-336.875
-275.944
-276.528
-557.858
-668.228
-530.203
-544.995
-667.174
-544.651
-558.33
-557.397
-543.261
-529.805
-665.796
-667.081
-544.214
-556.399
-560.257
-670.181
-547.546
-531.969
-561.782
-666.911
-546.055
-559.469
-544.521
-531.104
-666.289
-666.538
-545.324
-559.057
-558.87
-668.161
-530.823
-545.218
-667.536
-558.773
-545.552
-558.908
-545
-530.936
-666.655
-666.886
-544.961
-558.651
-375.485
-472.868
-374.812
-370.984
-490.812
-365.93
-377.657
-384.476
-392.366
-375.835
-507.83
-489.95
-385.475
-394.284
-420.637
-539.121
-404.903
-421.559
-525.682
-415.16
-428.647
-412.758
-400.798
-402.027
-509.184
-524.341
-407.986
-403.383
-471.828
-584.662
-465.06
-449.45
-476.568
-576.768
-460.61
-467.148
-450.884
-446.407
-566.622
-575.059
-456.188
-461.373
-443.1
-541.087
-425.809
-428.042
-551.805
-435.885
-434.232
-449.114
-445.42
-429.116
-564.214
-553.649
-439.833
-455.594
)
;

boundaryField
{
    left
    {
        type            calculated;
        value           nonuniform List<scalar> 0();
    }
    bottom
    {
        type            calculated;
        value           nonuniform List<scalar> 
214
(
-799.497
-764.641
-707.117
-803.303
-770.474
-722.006
-819.155
-788.936
-744.459
-813.642
-784.849
-737.864
-489.476
-486.526
-796.043
-461.521
-455.709
-758.271
-417.176
-396.44
-665.855
-806.852
-495.576
-492.541
-775.736
-470.784
-466.556
-727.787
-423.79
-421.656
-308.394
-506.215
-289.104
-293.655
-283.782
-287.891
-792.665
-483.684
-480.699
-264.224
-271.744
-254.184
-262.173
-751.441
-449.138
-441.883
-218.614
-255.139
-200.122
-674.202
-317.575
-797.381
-502.309
-498.693
-809.814
-301.151
-306.898
-294.964
-299.755
-477.542
-474.295
-780.482
-279.465
-282.654
-273.567
-278.564
-434.447
-427.957
-732.252
-250.031
-252.802
-258.259
-251.999
-795.784
-460.799
-939.948
-310.959
-312.704
-291.099
-292.445
-285.584
-286.814
-267.37
-269.429
-257.319
-259.313
-230.625
-248.015
-244.146
-167.15
-406.896
-259.846
-303.671
-305.322
-297.081
-298.442
-280.85
-281.812
-276.058
-277.521
-250.553
-250.685
-256.793
-253.813
-546.834
-519.313
-658.399
-293.103
-403.576
-448.136
-839.95
-649.813
-558.192
-316.42
-318.45
-307.811
-309.638
-321.392
-263.547
-264.593
-257.713
-258.274
-270.002
-270.399
-266.873
-267.046
-250.352
-250.928
-245.347
-245.256
-255.555