/*--------------------------------*- C++ -*----------------------------------*\
| =========                 |                                                 |
| \\      /  F ield         | OpenFOAM: The Open Source CFD Toolbox           |
|  \\    /   O peration     | Version:  2012                                  |
|   \\  /    A nd           | Website:  www.openfoam.com                      |
|    \\/     M anipulation  |                                                 |
\*---------------------------------------------------------------------------*/
FoamFile
{
    version     2.0;
    format      ascii;
    class       volVectorField;
    location    "0.105/solid";
    object      U;
}
// * * * * * * * * * * * * * * * * * * * * * * * * * * * * * * * * * * * * * //

dimensions      [0 1 -1 0 0 0 0];


internalField   nonuniform List<vector> 
3125
(
(4.42729e-10 1.19833e-09 -9.27984e-10)
(-1.06609e-09 7.36963e-10 2.42238e-10)
(-4.35293e-10 1.67319e-09 1.49478e-09)
(4.87103e-10 1.38241e-09 -1.08229e-09)
(-1.66907e-09 6.9373e-10 2.98647e-10)
(-5.97781e-10 1.3998e-09 1.0436e-09)
(-6.15948e-10 2.80511e-09 -2.44726e-09)
(-9.06511e-10 8.02424e-10 -8.12634e-10)
(-4.41552e-10 7.23478e-10 2.12914e-10)
(-1.1169e-10 2.33222e-09 -2.043e-09)
(-2.02716e-09 6.58698e-10 -7.2346e-10)
(-3.90544e-10 8.32106e-10 5.40746e-10)
(3.42943e-09 3.731e-09 -9.17794e-10)
(2.57727e-09 1.53093e-09 -7.81867e-10)
(-7.60502e-10 1.74511e-09 -2.13436e-09)
(2.63092e-10 1.04262e-09 -8.37037e-10)
(4.77448e-09 4.46984e-09 -1.57745e-09)
(-1.48957e-09 1.05229e-09 -1.80483e-09)
(2.34478e-09 1.39176e-09 -7.02317e-10)
(9.89052e-10 3.41357e-09 7.31944e-11)
(5.15674e-10 1.00411e-09 3.19096e-10)
(-4.34036e-09 7.6616e-10 4.57702e-10)
(-7.22636e-10 7.61019e-10 2.19202e-10)
(-7.33858e-10 2.7794e-09 -5.93e-11)
(-3.73908e-09 9.24098e-10 6.066e-10)
(1.06722e-09 1.09281e-09 1.76083e-10)
(5.31875e-10 3.89336e-09 6.72148e-09)
(1.13792e-09 1.73265e-09 1.5432e-09)
(-2.02388e-09 2.68599e-09 3.3259e-09)
(-6.3623e-10 2.01038e-09 2.59168e-09)
(1.57433e-09 4.23837e-09 3.1503e-09)
(-2.96065e-09 6.19098e-09 6.75446e-09)
(7.84944e-10 1.84094e-09 2.22698e-09)
(-2.72451e-09 2.45882e-09 -2.29007e-09)
(-3.11596e-09 3.49536e-09 -2.96618e-09)
(5.05967e-09 5.49974e-09 -2.72141e-09)
(4.13832e-10 1.6116e-09 -1.33565e-09)
(2.65586e-09 1.68645e-09 -9.53301e-10)
(-6.76303e-10 1.9922e-09 -2.29714e-09)
(4.87884e-09 4.56439e-09 -1.70587e-09)
(-9.6598e-10 3.05755e-09 -3.05656e-09)
(2.61822e-09 1.87978e-09 -1.20833e-09)
(-2.7259e-09 2.23792e-09 -2.14971e-09)
(-3.35386e-09 1.50647e-09 -1.84847e-09)
(-6.26859e-09 8.46784e-10 4.34697e-10)
(-7.22473e-09 1.21407e-09 -1.86029e-10)
(-4.26975e-09 1.73607e-09 -2.59498e-10)
(-2.48699e-09 6.04526e-10 1.95421e-10)
(-5.36836e-10 8.33009e-10 5.35105e-10)
(-4.82382e-09 7.96974e-10 4.50965e-10)
(-1.09255e-09 2.71191e-09 -9.54576e-11)
(-6.16142e-09 7.71017e-10 -1.1225e-10)
(-2.15259e-09 5.57381e-10 5.39871e-10)
(-5.86825e-09 1.07756e-09 2.97614e-10)
(-4.18176e-09 7.95224e-10 1.05812e-09)
(-3.0559e-09 8.2362e-10 2.27577e-09)
(-3.19674e-09 1.56971e-09 1.54656e-09)
(1.41306e-09 3.9539e-09 1.49252e-09)
(-6.08959e-10 1.34977e-09 1.02904e-09)
(9.63592e-10 1.54793e-09 1.05546e-09)
(-3.89132e-09 3.48841e-09 2.24255e-09)
(1.48307e-09 4.26617e-09 2.7938e-09)
(-3.3391e-09 2.42549e-09 2.11826e-09)
(1.06568e-09 1.46806e-09 8.54696e-10)
(-4.42048e-09 5.5052e-09 3.24719e-09)
(-3.83758e-09 7.15563e-09 5.99122e-09)
(-3.23441e-09 6.18977e-09 -4.98634e-09)
(1.90764e-09 2.91262e-09 -2.35557e-09)
(4.11695e-09 7.7535e-09 -4.69869e-09)
(-3.38872e-09 6.76727e-09 -4.86696e-09)
(2.25958e-09 1.2857e-09 -1.115e-09)
(2.4991e-09 7.46189e-10 -3.22812e-10)
(2.29085e-09 6.95427e-10 -2.20976e-10)
(-8.0821e-10 1.3673e-09 -2.12409e-09)
(-1.60839e-09 5.36324e-10 -1.78766e-09)
(3.15721e-09 3.67159e-09 -8.37637e-10)
(-1.42283e-10 9.18557e-10 -8.03479e-10)
(-4.02751e-09 7.76789e-10 -1.53831e-09)
(5.73845e-10 1.03533e-09 -9.70253e-10)
(-1.94101e-09 9.61371e-10 -1.7422e-09)
(-6.99563e-10 2.68191e-09 -4.83921e-10)
(1.78219e-09 1.24665e-09 -7.52491e-10)
(-4.22214e-09 1.90513e-10 -1.52253e-09)
(-2.10484e-09 4.08555e-10 -1.72779e-09)
(5.66358e-10 5.35856e-10 -4.38123e-10)
(2.17394e-09 6.81999e-10 -1.97668e-10)
(8.47504e-10 5.80899e-10 1.11028e-10)
(1.38461e-09 6.28449e-10 2.81409e-11)
(-4.59959e-09 -1.96863e-10 3.51612e-10)
(-3.41843e-09 1.41855e-09 6.12208e-10)
(1.14511e-09 3.52193e-09 1.07209e-10)
(-5.77359e-10 6.76946e-10 1.95363e-10)
(-1.06002e-09 -7.15052e-10 3.79806e-10)
(1.46742e-09 1.20892e-09 2.01987e-10)
(-3.28749e-09 6.36217e-10 4.06098e-10)
(1.88788e-09 3.58927e-09 4.77305e-10)
(1.29678e-09 1.15694e-09 1.35983e-10)
(-2.48053e-09 -4.99384e-10 3.76057e-11)
(-3.84221e-09 2.18165e-10 4.23654e-10)
(1.5224e-09 6.58177e-10 9.83945e-11)
(1.44798e-09 6.39209e-10 4.42826e-11)
(1.18226e-09 8.60723e-10 7.16075e-10)
(1.16657e-09 9.13021e-10 1.16826e-09)
(-2.11549e-09 2.32932e-09 3.05492e-09)
(-4.44917e-09 1.34429e-08 8.6623e-09)
(1.71205e-10 3.52852e-09 7.39793e-09)
(-6.58173e-10 1.09039e-09 1.7342e-09)
(-2.92431e-09 7.58066e-09 6.62237e-09)
(3.04489e-10 8.88296e-10 1.53941e-09)
(-2.36732e-09 1.07331e-08 6.63979e-09)
(1.10298e-09 8.26054e-10 1.55255e-09)
(-5.79666e-09 6.82324e-09 -4.69891e-09)
(-4.99925e-09 6.08597e-09 -4.30428e-09)
(-3.41808e-09 3.94618e-09 -3.25337e-09)
(5.03475e-09 5.65582e-09 -2.90242e-09)
(2.25017e-10 1.92673e-09 -1.67309e-09)
(-2.54443e-09 5.53623e-09 -4.55094e-09)
(2.24817e-09 2.49972e-09 -1.92445e-09)
(4.36612e-09 7.51941e-09 -4.42947e-09)
(-1.19693e-09 3.50944e-09 -3.3705e-09)
(2.48515e-09 2.14844e-09 -1.54864e-09)
(2.5112e-09 7.69836e-10 -3.86803e-10)
(2.52268e-09 8.83736e-10 -5.92905e-10)
(-7.31043e-10 1.68081e-09 -2.2814e-09)
(-9.91307e-10 2.89785e-09 -2.98361e-09)
(-2.65241e-09 5.89504e-09 -4.40963e-09)
(-1.24406e-09 3.49625e-09 -3.27706e-09)
(2.38218e-09 1.17801e-09 -9.88052e-10)
(2.47085e-09 9.42575e-10 -6.92492e-10)
(-5.50716e-09 1.25156e-09 -1.53089e-09)
(-3.74995e-09 1.43191e-09 -1.77667e-09)
(-6.14876e-09 1.2259e-09 -1.36779e-09)
(-7.25749e-09 1.16164e-09 -4.79073e-10)
(-4.42706e-09 1.67045e-09 -2.71477e-10)
(-2.81308e-09 5.63903e-10 -2.70059e-10)
(-4.80797e-09 7.70557e-10 -1.3912e-09)
(-1.45203e-09 6.75744e-10 -1.05009e-09)
(-1.34878e-09 2.55599e-09 -4.38151e-10)
(-6.24606e-09 7.72137e-10 -4.40065e-10)
(-3.02209e-09 3.85544e-10 -2.84946e-10)
(4.59542e-10 5.38385e-10 1.64064e-10)
(-2.92619e-09 1.23412e-10 3.82386e-10)
(-5.04342e-09 -1.8736e-10 4.17849e-10)
(-6.34802e-09 1.78193e-10 -1.9615e-10)
(-4.99767e-09 1.78021e-10 -1.36458e-09)
(-6.40443e-09 1.65852e-10 -4.77003e-10)
(-5.41601e-10 3.88694e-10 -5.49517e-10)
(-3.93851e-09 -1.76787e-11 1.27414e-10)
(-3.31452e-09 1.07508e-08 8.33423e-10)
(-6.10565e-09 4.79748e-09 6.07754e-10)
(-4.99511e-09 1.16121e-09 5.39539e-10)
(-9.17875e-09 -7.16225e-09 8.80563e-10)
(-4.93012e-09 9.33171e-10 1.76025e-09)
(-6.22761e-09 5.73704e-09 9.5375e-10)
(-4.04796e-09 6.91267e-10 9.41526e-10)
(-1.24274e-09 3.72267e-09 4.01396e-09)
(-1.61111e-09 1.12489e-08 3.49399e-10)
(-1.0007e-08 -5.74204e-09 -4.58138e-10)
(-3.32802e-09 6.18925e-10 3.14561e-10)
(1.51614e-09 3.84961e-09 1.37514e-09)
(-4.78626e-10 1.0466e-09 8.72992e-10)
(-7.68838e-10 -8.3463e-10 9.96936e-10)
(1.46731e-09 1.23746e-09 4.30225e-10)
(1.91895e-09 3.71592e-09 6.00673e-10)
(-3.10211e-09 2.31336e-09 1.47174e-09)
(1.27775e-09 1.31552e-09 6.75299e-10)
(1.1436e-09 7.91967e-10 5.55345e-10)
(1.23313e-09 7.26179e-10 3.2842e-10)
(-3.23033e-09 2.06267e-09 1.73876e-09)
(-2.09414e-09 2.30062e-09 2.02251e-09)
(-2.05288e-09 -8.17132e-10 1.01846e-09)
(-3.34561e-09 1.02879e-09 8.27614e-10)
(1.50343e-09 6.67838e-10 1.50302e-10)
(1.33809e-09 6.99352e-10 2.78109e-10)
(-5.48138e-09 6.26159e-09 3.5565e-09)
(-3.99056e-09 8.00387e-09 7.32702e-09)
(-9.15831e-10 1.11714e-09 1.63063e-09)
(-3.81524e-09 8.94673e-09 6.34564e-09)
(-3.80655e-09 1.6519e-08 6.04116e-09)
(-1.88478e-09 1.80437e-09 7.45034e-09)
(-4.65852e-10 -1.30861e-11 2.03575e-09)
(-2.70948e-09 2.49551e-09 7.29662e-09)
(-3.66361e-10 -9.33572e-11 2.16831e-09)
(-4.64642e-10 4.30364e-11 2.03181e-09)
(-3.02216e-09 2.53645e-09 6.80061e-09)
(3.10937e-09 1.88666e-09 -1.45829e-09)
(4.19509e-09 4.05675e-09 -1.15944e-09)
(2.12755e-09 1.95467e-09 -1.46957e-09)
(4.65628e-09 2.59022e-09 -1.10613e-09)
(5.11291e-09 2.77887e-09 -1.19568e-09)
(2.59919e-09 2.16992e-09 -1.56698e-09)
(2.80044e-09 1.72199e-09 -1.39324e-09)
(3.35498e-09 2.01651e-09 -1.53218e-09)
(4.38437e-09 4.14558e-09 -1.26084e-09)
(5.52474e-09 3.08194e-09 -1.47335e-09)
(3.08419e-09 2.62775e-09 -1.87463e-09)
(3.58927e-09 2.30073e-09 -1.68676e-09)
(5.36609e-09 2.89362e-09 -1.29487e-09)
(2.91609e-09 2.37754e-09 -1.70551e-09)
(3.4832e-10 1.2318e-09 3.96522e-10)
(4.38014e-10 3.13206e-09 2.81891e-11)
(-2.58041e-10 1.44616e-09 3.15606e-10)
(2.26112e-09 2.2421e-09 2.33731e-10)
(1.93069e-09 2.15311e-09 2.59734e-10)
(-5.6971e-10 1.41318e-09 3.25984e-10)
(7.34801e-10 1.32004e-09 3.74353e-10)
(-2.95176e-11 1.23583e-09 4.58557e-10)
(2.48505e-10 3.06488e-09 9.19042e-12)
(7.58665e-10 1.97564e-09 4.03971e-10)
(-1.51751e-09 1.32616e-09 3.81711e-10)
(-5.72663e-10 1.25035e-09 5.29583e-10)
(1.49854e-09 2.08414e-09 3.18673e-10)
(-9.42552e-10 1.39221e-09 3.48832e-10)
(5.85277e-10 2.8053e-09 4.36026e-09)
(1.379e-09 4.13746e-09 5.01878e-09)
(-6.32432e-10 4.34546e-09 6.36221e-09)
(1.15875e-09 3.12737e-09 4.96988e-09)
(2.11734e-09 3.1616e-09 4.10319e-09)
(3.39811e-11 3.31491e-09 5.47206e-09)
(-1.84653e-10 3.35822e-09 5.1277e-09)
(9.31401e-10 2.47427e-09 3.7084e-09)
(1.53592e-09 4.13704e-09 4.5005e-09)
(2.51678e-09 3.14554e-09 2.9054e-09)
(4.77051e-10 2.9349e-09 3.45476e-09)
(1.03331e-09 2.57639e-09 3.08039e-09)
(2.59163e-09 3.22482e-09 3.5325e-09)
(5.16406e-10 2.8167e-09 4.41789e-09)
(3.58752e-09 2.80564e-09 -2.29086e-09)
(5.04346e-09 5.00401e-09 -2.24383e-09)
(3.18128e-09 3.78994e-09 -2.92408e-09)
(5.62441e-09 3.87805e-09 -2.421e-09)
(3.57326e-09 3.17961e-09 -2.60846e-09)
(5.69445e-09 3.56354e-09 -2.09868e-09)
(3.28896e-09 3.39759e-09 -2.59838e-09)
(3.62861e-09 2.63618e-09 -2.08085e-09)
(5.06404e-09 4.90725e-09 -2.09808e-09)
(5.63017e-09 3.20574e-09 -1.62332e-09)
(3.22763e-09 2.8486e-09 -2.0704e-09)
(3.66046e-09 2.41968e-09 -1.85242e-09)
(5.71831e-09 3.42279e-09 -1.87954e-09)
(3.30927e-09 3.1351e-09 -2.31938e-09)
(-3.30278e-09 1.20386e-09 5.13668e-10)
(-3.04002e-09 2.19433e-09 -1.82771e-10)
(-4.57198e-09 1.19539e-09 4.06625e-12)
(-4.10867e-09 1.46308e-09 3.48527e-10)
(-4.16921e-09 1.20205e-09 2.21442e-10)
(-2.68509e-09 1.67612e-09 5.58513e-10)
(-3.87561e-09 1.26599e-09 2.36905e-10)
(-2.31157e-09 1.16408e-09 5.89831e-10)
(-2.55273e-09 2.29443e-09 -1.60638e-10)
(-9.87721e-11 1.92541e-09 4.86947e-10)
(-2.22504e-09 1.31762e-09 3.98478e-10)
(-1.30114e-09 1.2495e-09 5.80069e-10)
(-1.36019e-09 1.73879e-09 5.66198e-10)
(-3.04262e-09 1.26801e-09 3.60577e-10)
(9.12432e-10 2.98066e-09 1.72846e-09)
(1.24843e-09 4.16554e-09 1.95103e-09)
(1.51063e-10 3.01314e-09 1.75749e-09)
(2.54408e-09 2.84608e-09 1.33975e-09)
(1.02186e-09 2.50542e-09 1.43028e-09)
(2.50579e-09 3.1425e-09 1.55844e-09)
(1.38642e-11 3.57538e-09 2.05461e-09)
(8.8363e-10 3.09599e-09 2.06268e-09)
(1.26641e-09 4.11093e-09 2.10041e-09)
(2.47438e-09 3.17578e-09 2.40024e-09)
(2.10805e-10 3.34531e-09 2.72798e-09)
(9.70522e-10 2.85336e-09 2.56383e-09)
(2.45055e-09 3.15598e-09 1.89371e-09)
(-2.14158e-11 3.61366e-09 2.3423e-09)
(1.08533e-09 6.27464e-09 -5.36212e-09)
(3.10817e-09 9.0265e-09 -5.86469e-09)
(3.61928e-10 7.89919e-09 -6.19334e-09)
(3.72335e-09 6.71285e-09 -5.23662e-09)
(1.60166e-09 5.89839e-09 -4.93676e-09)
(3.46582e-09 8.76022e-09 -5.5566e-09)
(1.65349e-09 6.53627e-09 -5.07288e-09)
(4.54664e-09 5.71167e-09 -4.25531e-09)
(1.09231e-09 7.29162e-09 -5.6283e-09)
(4.18594e-09 6.33797e-09 -4.76867e-09)
(2.23401e-09 5.27269e-09 -4.43632e-09)
(-7.41435e-10 8.60745e-09 -6.13414e-09)
(-4.2853e-09 7.75621e-09 -5.37363e-09)
(-4.99366e-10 6.59205e-09 -4.97288e-09)
(-1.58373e-09 7.92729e-09 -5.81691e-09)
(-5.36472e-09 8.68447e-09 -5.88247e-09)
(-1.98516e-09 8.28125e-09 -6.10769e-09)
(6.3611e-10 7.02125e-09 -4.94992e-09)
(-3.27659e-10 8.33048e-09 -5.82563e-09)
(6.09165e-09 6.41203e-09 -4.61817e-09)
(6.43228e-09 4.47964e-09 -2.91477e-09)
(2.27616e-09 1.38953e-09 -1.23122e-09)
(6.41865e-09 4.81668e-09 -3.25094e-09)
(6.7683e-09 5.55692e-09 -3.73256e-09)
(6.37978e-09 6.25685e-09 -4.40369e-09)
(2.18264e-09 1.53069e-09 -1.38027e-09)
(6.10914e-09 5.14995e-09 -3.59815e-09)
(6.38791e-09 3.02091e-09 -7.90342e-10)
(7.04768e-09 3.23531e-09 -9.55916e-10)
(7.09606e-09 2.9054e-09 -8.92823e-10)
(2.45881e-09 7.26096e-10 -2.84824e-10)
(6.96308e-09 2.80899e-09 -7.81178e-10)
(7.45427e-09 3.47071e-09 -1.25187e-09)
(7.17849e-09 3.26589e-09 -9.98407e-10)
(6.45868e-09 2.65566e-09 -6.09391e-10)
(2.42489e-09 7.07239e-10 -2.37968e-10)
(6.90641e-09 2.7885e-09 -6.79851e-10)
(7.32241e-10 1.75562e-09 -1.39291e-09)
(1.41389e-09 2.15282e-09 -1.57115e-09)
(1.14962e-09 2.06509e-09 -2.03611e-09)
(-9.75696e-10 1.051e-09 -1.99047e-09)
(8.27403e-10 1.61177e-09 -1.78136e-09)
(1.94165e-09 2.7202e-09 -1.92797e-09)
(1.59385e-09 2.26798e-09 -1.64682e-09)
(5.05363e-11 1.14427e-09 -1.55107e-09)
(-1.23073e-09 7.70196e-10 -1.87942e-09)
(7.0885e-10 1.53764e-09 -1.71609e-09)
(1.49258e-09 1.44188e-09 -1.41545e-09)
(1.56367e-09 1.81766e-09 -1.39975e-09)
(1.79918e-09 3.3029e-09 -6.65548e-10)
(4.14861e-09 2.51785e-09 -1.08952e-09)
(2.3039e-09 1.60995e-09 -1.3766e-09)
(7.92827e-10 1.65217e-09 -1.3713e-09)
(3.29611e-09 2.31373e-09 -1.1051e-09)
(6.19505e-10 1.41914e-09 -1.47818e-09)
(1.32497e-09 3.2225e-09 -6.08539e-10)
(-1.34105e-09 1.41901e-09 -1.32434e-09)
(6.40272e-10 1.97749e-09 -1.28355e-09)
(-1.50573e-10 1.56933e-09 -1.3571e-09)
(2.27423e-09 2.23834e-09 -1.19257e-09)
(-5.66777e-10 1.31525e-09 -1.51811e-09)
(4.58574e-10 1.70887e-09 -1.34921e-09)
(-6.59389e-10 1.43504e-09 -1.25607e-09)
(-3.44291e-09 2.759e-10 -1.61992e-09)
(-3.10089e-09 6.51256e-10 -1.29016e-09)
(-1.7084e-09 8.31569e-10 -1.40329e-09)
(-2.16422e-10 1.08562e-09 -1.5137e-09)
(-2.72407e-09 3.51268e-10 -1.67634e-09)
(-1.26138e-09 8.85315e-10 -1.43087e-09)
(-2.58164e-09 1.20201e-09 -1.1268e-09)
(-1.08314e-09 1.461e-09 -1.23472e-09)
(6.21115e-09 3.03994e-09 -7.81426e-10)
(4.80456e-09 2.75988e-09 -7.39405e-10)
(2.06113e-09 2.01243e-09 -9.4766e-10)
(1.48902e-09 6.23878e-10 -2.84549e-10)
(4.42841e-09 2.44148e-09 -6.96987e-10)
(1.41384e-09 2.23116e-09 -9.01479e-10)
(4.36262e-09 2.77544e-09 -7.86966e-10)
(6.18028e-09 2.65386e-09 -5.75861e-10)
(1.88785e-09 6.61707e-10 -2.37608e-10)
(5.31653e-09 2.46588e-09 -6.28452e-10)
(3.83102e-09 2.75645e-09 1.32013e-10)
(3.34292e-09 2.58902e-09 1.18957e-10)
(2.56043e-09 2.08598e-09 2.49772e-10)
(1.15577e-09 6.06352e-10 5.13932e-11)
(3.43101e-09 2.26086e-09 1.1886e-10)
(1.94517e-09 2.33662e-09 2.09212e-10)
(3.16085e-09 2.5809e-09 1.37772e-10)
(4.02068e-09 2.36143e-09 1.1231e-10)
(1.29653e-09 6.11185e-10 4.39517e-11)
(3.80503e-09 2.32304e-09 1.18189e-10)
(-1.51905e-09 1.25225e-09 2.97138e-10)
(-1.95779e-09 1.24105e-09 2.97982e-10)
(-3.2768e-09 5.30341e-10 3.34814e-10)
(-4.22784e-09 6.90082e-10 4.60526e-10)
(-2.67316e-09 5.87395e-10 4.07253e-10)
(-2.75125e-09 1.12958e-09 2.46581e-10)
(-2.08025e-09 1.1737e-09 2.9486e-10)
(-2.05746e-09 5.34508e-10 4.08425e-10)
(-4.73668e-09 2.42132e-09 7.57597e-10)
(-2.55642e-09 6.71349e-10 4.06075e-10)
(1.19791e-09 1.12277e-09 3.99033e-10)
(5.4491e-11 1.43461e-09 3.14498e-10)
(1.49742e-09 3.67158e-09 1.7552e-10)
(2.46472e-09 2.33397e-09 2.3813e-10)
(9.29067e-10 1.16334e-09 3.62865e-10)
(3.50794e-10 1.19416e-09 3.06659e-10)
(2.63612e-09 2.31217e-09 2.82373e-10)
(1.3982e-09 8.66832e-10 4.36621e-10)
(1.63458e-09 3.80465e-09 2.48931e-10)
(8.4081e-10 8.30039e-10 5.41107e-10)
(2.78076e-09 2.30811e-09 4.59065e-10)
(6.39773e-10 9.884e-10 3.69756e-10)
(2.72011e-09 2.38926e-09 3.29549e-10)
(1.52622e-09 8.17727e-10 5.00104e-10)
(-1.40746e-09 1.23711e-09 3.04953e-10)
(-1.14338e-09 8.47906e-10 3.11578e-10)
(-2.47898e-09 1.36771e-09 3.81358e-10)
(-1.14195e-09 -2.68407e-10 5.45884e-10)
(-1.55143e-09 2.0316e-11 4.1951e-10)
(-2.00724e-09 7.12749e-10 4.20269e-10)
(-3.12499e-09 9.35472e-10 5.04233e-10)
(-1.63426e-09 1.20673e-10 3.48642e-10)
(-6.47428e-10 1.99721e-10 5.8262e-10)
(-9.69706e-10 5.58893e-10 3.81884e-10)
(3.93576e-09 2.81797e-09 1.28601e-10)
(4.10934e-09 2.94958e-09 2.21156e-10)
(4.26333e-09 2.43042e-09 2.61913e-10)
(1.52552e-09 6.56771e-10 7.38016e-11)
(4.2805e-09 2.4348e-09 1.93114e-10)
(4.24152e-09 2.99029e-09 3.94732e-10)
(4.17302e-09 2.97304e-09 2.22951e-10)
(4.14371e-09 2.3891e-09 1.15793e-10)
(1.48717e-09 6.52516e-10 5.04782e-11)
(4.22879e-09 2.44105e-09 1.56546e-10)
(2.34857e-09 2.82097e-09 4.88617e-09)
(4.23634e-09 3.56156e-09 3.54222e-09)
(4.07562e-09 2.95377e-09 1.96064e-09)
(1.36289e-09 9.38073e-10 8.28374e-10)
(5.1843e-09 3.36079e-09 2.35541e-09)
(3.98974e-09 3.41236e-09 2.42958e-09)
(4.69725e-09 3.70746e-09 3.27384e-09)
(3.45116e-09 2.69675e-09 3.43305e-09)
(1.32717e-09 9.73131e-10 9.48737e-10)
(4.51719e-09 3.16471e-09 2.6982e-09)
(-7.0169e-10 5.58887e-09 6.765e-09)
(-5.09019e-10 2.72327e-09 5.3114e-09)
(-1.08803e-09 2.63818e-09 3.32723e-09)
(-1.94189e-09 1.6236e-09 4.89288e-09)
(-9.42472e-10 2.22685e-09 4.93902e-09)
(-5.30339e-10 3.06302e-09 3.36649e-09)
(-3.8294e-10 2.55041e-09 4.79077e-09)
(-1.67332e-09 6.80526e-09 6.79784e-09)
(-2.82681e-09 5.15172e-10 6.42519e-09)
(-1.04199e-09 2.52177e-09 5.45214e-09)
(-1.71752e-09 2.86579e-09 7.37521e-09)
(-1.31789e-09 4.75083e-09 7.03207e-09)
(-9.14185e-10 1.70232e-09 9.44986e-09)
(1.75647e-11 2.53076e-09 5.92019e-09)
(-9.50936e-10 3.45981e-09 5.99233e-09)
(-1.98637e-09 4.24085e-09 7.6593e-09)
(-9.23066e-10 1.59444e-09 7.63682e-09)
(-2.32003e-09 2.67753e-09 8.07023e-09)
(-4.53907e-09 6.68548e-09 8.23301e-09)
(-2.54186e-09 5.49441e-09 8.05734e-09)
(-3.23059e-09 3.28025e-09 7.91974e-09)
(-1.6142e-09 1.38809e-09 7.48023e-09)
(7.68488e-11 -2.75967e-10 2.35086e-09)
(-3.54993e-10 -1.38031e-10 7.67932e-09)
(-3.14424e-10 -1.28102e-10 2.23715e-09)
(-2.00664e-09 2.19647e-09 8.13099e-09)
(-1.70067e-09 8.17845e-10 1.02795e-08)
(-2.19691e-09 4.922e-09 7.97979e-09)
(-8.98835e-10 7.66587e-11 8.52462e-09)
(-7.31693e-10 6.13519e-09 7.23095e-09)
(-1.16241e-09 6.10504e-09 8.25691e-09)
(-4.7621e-09 7.09704e-09 7.80789e-09)
(-2.02968e-09 6.39536e-09 8.4084e-09)
(-1.5537e-09 6.89041e-09 7.28724e-09)
(-2.80821e-09 8.72952e-09 8.32686e-09)
(-1.89425e-09 7.02175e-09 8.21632e-09)
(-1.4622e-09 5.87444e-09 8.53236e-09)
(1.69557e-09 2.39796e-09 5.37413e-09)
(7.21278e-12 4.99315e-10 7.9342e-09)
(2.97547e-10 -3.22139e-10 2.45005e-09)
(2.77358e-10 -5.11272e-10 7.79661e-09)
(-3.26368e-10 -3.05024e-10 8.65033e-09)
(1.99742e-09 1.90243e-09 4.46382e-09)
(9.59741e-10 4.1394e-10 2.65194e-09)
(1.19639e-09 9.72082e-10 5.99427e-09)
(3.13865e-09 3.92047e-09 -3.2784e-09)
(4.83833e-09 6.38895e-09 -3.48877e-09)
(3.05675e-09 4.18922e-09 -3.27763e-09)
(5.52952e-09 4.09501e-09 -2.70623e-09)
(3.43821e-09 3.42587e-09 -2.89652e-09)
(2.85071e-09 4.74531e-09 -3.68144e-09)
(5.40181e-09 4.53842e-09 -3.09814e-09)
(2.92153e-09 4.24514e-09 -3.60482e-09)
(4.74143e-09 6.61207e-09 -3.70812e-09)
(2.16195e-09 5.95723e-09 -4.58124e-09)
(4.91441e-09 5.39061e-09 -3.87547e-09)
(2.60335e-09 4.89775e-09 -4.04426e-09)
(2.56804e-09 5.27366e-09 -4.10155e-09)
(5.19632e-09 4.83501e-09 -3.42756e-09)
(7.55821e-09 4.11153e-09 -2.18654e-09)
(7.57656e-09 3.78583e-09 -1.75699e-09)
(7.14298e-09 2.98073e-09 -1.02137e-09)
(2.55007e-09 8.00622e-10 -4.39963e-10)
(7.26181e-09 3.08703e-09 -1.19171e-09)
(7.50722e-09 3.51975e-09 -1.31973e-09)
(7.65052e-09 3.73296e-09 -1.66233e-09)
(7.21745e-09 3.33812e-09 -1.6e-09)
(2.53473e-09 8.37563e-10 -5.19317e-10)
(7.25015e-09 3.19754e-09 -1.36745e-09)
(2.02685e-09 4.1072e-09 -2.99633e-09)
(2.1168e-09 3.42486e-09 -2.53749e-09)
(1.22068e-09 2.19597e-09 -2.13692e-09)
(-7.42793e-10 2.02875e-09 -2.48353e-09)
(1.28208e-09 2.67696e-09 -2.48783e-09)
(2.0236e-09 2.83347e-09 -2.03573e-09)
(2.13813e-09 3.30867e-09 -2.40779e-09)
(1.14472e-09 3.53486e-09 -3.06918e-09)
(-8.22438e-10 2.4096e-09 -2.71437e-09)
(1.29976e-09 2.83963e-09 -2.62148e-09)
(1.97192e-09 4.29982e-09 -3.16466e-09)
(1.63768e-09 5.28531e-09 -3.73991e-09)
(-1.97089e-10 6.29655e-09 -4.72087e-09)
(-2.07557e-09 5.01788e-09 -3.98715e-09)
(4.72906e-10 5.0564e-09 -4.0088e-09)
(9.10816e-10 6.75916e-09 -4.68526e-09)
(1.50217e-09 5.55695e-09 -3.95184e-09)
(1.06592e-09 3.75444e-09 -3.23556e-09)
(-1.60272e-09 4.23517e-09 -3.61578e-09)
(6.81317e-10 4.79419e-09 -3.80114e-09)
(7.51655e-09 4.19894e-09 -2.31188e-09)
(7.36713e-09 4.69581e-09 -2.82648e-09)
(6.80152e-09 4.23297e-09 -2.62968e-09)
(2.3907e-09 1.09483e-09 -8.91621e-10)
(6.85751e-09 3.94569e-09 -2.33728e-09)
(7.00065e-09 5.43742e-09 -3.55596e-09)
(7.27984e-09 4.81064e-09 -2.9744e-09)
(7.0924e-09 3.50025e-09 -1.80746e-09)
(2.48509e-09 1.00736e-09 -7.8195e-10)
(7.13808e-09 3.74014e-09 -2.08792e-09)
(-4.39445e-09 1.2316e-09 -8.04575e-10)
(-3.96457e-09 1.78234e-09 -3.32445e-10)
(-4.83271e-09 1.19156e-09 -3.15089e-10)
(-4.76352e-09 1.41625e-09 -1.14351e-10)
(-4.63395e-09 1.2264e-09 -2.13292e-10)
(-4.54019e-09 1.21425e-09 -7.18463e-10)
(-4.37126e-09 1.47711e-09 -7.2612e-10)
(-3.40163e-09 1.21015e-09 -1.19537e-09)
(-3.46859e-09 1.88629e-09 -3.45364e-10)
(-2.55153e-09 1.37548e-09 -1.24656e-09)
(-1.05007e-09 1.87061e-09 -1.33203e-09)
(-1.90031e-09 1.34552e-09 -1.46249e-09)
(-3.70422e-09 1.24829e-09 -1.03578e-09)
(-3.04519e-09 1.56021e-09 -1.16007e-09)
(-4.97187e-09 1.19174e-09 2.39084e-10)
(-1.76376e-09 1.87986e-09 4.07552e-10)
(1.72902e-09 2.05745e-09 3.28484e-10)
(-3.69264e-10 4.52026e-10 3.04071e-10)
(-3.0913e-10 1.68078e-09 5.64285e-10)
(1.52586e-09 2.37436e-09 2.5009e-10)
(-8.97414e-10 1.89576e-09 3.76913e-10)
(-5.7346e-09 8.75237e-10 5.5353e-10)
(-1.36407e-09 3.07687e-10 3.98582e-10)
(-2.27451e-09 1.47359e-09 6.80085e-10)
(-5.16938e-09 9.76394e-10 -2.00569e-10)
(-4.44838e-09 1.06029e-09 6.20011e-11)
(-3.55445e-09 5.90418e-10 3.07069e-10)
(-5.5772e-09 1.66069e-10 2.78594e-10)
(-4.54078e-09 5.55854e-10 1.82358e-10)
(-3.0525e-09 1.22342e-09 2.2757e-10)
(-4.09181e-09 1.06912e-09 1.15392e-10)
(-5.47588e-09 5.07627e-10 -2.12777e-10)
(-6.01453e-09 2.12413e-10 4.04536e-11)
(-4.81471e-09 5.85158e-10 1.03328e-10)
(-5.24536e-09 9.45787e-10 -3.27578e-10)
(-4.87652e-09 1.01302e-09 -7.10103e-10)
(-3.57618e-09 6.81129e-10 -1.22796e-09)
(-5.69824e-09 1.6776e-10 -1.12295e-09)
(-4.87821e-09 5.19504e-10 -9.31177e-10)
(-3.09831e-09 1.23615e-09 -1.07549e-09)
(-4.51061e-09 9.84514e-10 -8.30596e-10)
(-5.53633e-09 4.82218e-10 -3.59378e-10)
(-6.18199e-09 1.56645e-10 -8.20083e-10)
(-5.17032e-09 5.28717e-10 -8.00684e-10)
(-5.55602e-09 1.13342e-09 3.91408e-11)
(-4.84817e-09 1.28403e-09 -6.42017e-10)
(-1.84223e-10 1.79872e-09 -1.09534e-09)
(-2.3724e-09 1.80081e-10 -5.72112e-10)
(-4.38385e-09 1.06038e-09 -1.0429e-09)
(4.32662e-10 2.21747e-09 -9.47892e-10)
(-3.83626e-09 1.34076e-09 -8.21952e-10)
(-7.64758e-09 6.35299e-10 1.7034e-10)
(-3.70481e-09 4.06751e-12 -3.41928e-10)
(-7.01421e-09 7.64692e-10 -6.84349e-10)
(-6.09958e-09 1.08571e-08 1.25726e-09)
(-5.58266e-09 9.16777e-09 4.50435e-10)
(3.3255e-09 1.28246e-08 3.54495e-09)
(2.40274e-09 1.79293e-08 1.85972e-09)
(-6.06206e-09 8.0659e-09 3.7533e-10)
(-3.53182e-09 3.91752e-09 1.22142e-09)
(1.24999e-09 1.51991e-09 1.00448e-09)
(1.73564e-09 3.75525e-09 1.06119e-09)
(3.57426e-10 2.46402e-09 1.47494e-09)
(2.67123e-09 2.7749e-09 1.17055e-09)
(1.12236e-09 2.1329e-09 1.21168e-09)
(5.68129e-10 1.75001e-09 1.29076e-09)
(2.76116e-09 2.49855e-09 9.36005e-10)
(1.419e-09 1.10955e-09 8.49079e-10)
(1.83022e-09 3.77777e-09 9.43118e-10)
(9.4357e-10 8.67051e-10 7.725e-10)
(2.83756e-09 2.3722e-09 5.77256e-10)
(1.51874e-09 8.82267e-10 6.54022e-10)
(8.09827e-10 1.1928e-09 1.05664e-09)
(2.82874e-09 2.44163e-09 7.82227e-10)
(3.98895e-09 3.165e-09 1.13546e-09)
(3.91124e-09 3.28712e-09 1.44048e-09)
(3.8039e-09 2.81515e-09 1.55454e-09)
(1.134e-09 7.66714e-10 4.36643e-10)
(3.70419e-09 2.75582e-09 1.21296e-09)
(3.9399e-09 3.39653e-09 2.18026e-09)
(3.88502e-09 3.31142e-09 1.56941e-09)
(3.9157e-09 2.68176e-09 8.93969e-10)
(1.20317e-09 7.45924e-10 3.6729e-10)
(3.85887e-09 2.75553e-09 1.03896e-09)
(-8.03559e-10 3.15976e-09 1.62565e-09)
(-8.6164e-10 4.33082e-09 2.13686e-09)
(-1.23e-09 3.00526e-09 2.96615e-09)
(-3.26148e-09 2.96378e-09 2.61449e-09)
(-1.507e-09 3.86746e-09 2.42734e-09)
(-6.68087e-10 3.34489e-09 3.01961e-09)
(-9.22867e-10 4.51652e-09 2.30394e-09)
(-1.30929e-09 2.61611e-09 1.64048e-09)
(-2.43667e-09 4.03748e-09 2.90671e-09)
(-1.39486e-09 4.05725e-09 2.26263e-09)
(-8.35642e-10 2.73116e-09 1.47697e-09)
(-7.90677e-10 1.21212e-09 1.20571e-09)
(-1.02154e-09 -4.62961e-10 7.14388e-10)
(-2.41416e-09 5.72497e-10 2.10097e-09)
(-1.2838e-09 3.47295e-10 1.19589e-09)
(-5.7294e-10 -8.49233e-12 7.14535e-10)
(-6.51105e-10 7.25878e-10 1.08102e-09)
(-1.43045e-09 2.11986e-09 1.50113e-09)
(-3.62377e-09 9.24792e-10 1.30669e-09)
(-1.36451e-09 6.51927e-10 1.3003e-09)
(4.08857e-09 3.13012e-09 1.05429e-09)
(4.2142e-09 3.02416e-09 7.65277e-10)
(4.34812e-09 2.49984e-09 3.60797e-10)
(1.47997e-09 6.80084e-10 1.82241e-10)
(4.34302e-09 2.52523e-09 4.77161e-10)
(4.29182e-09 2.97825e-09 4.44597e-10)
(4.27957e-09 3.04248e-09 6.91135e-10)
(4.11651e-09 2.61127e-09 7.7127e-10)
(1.3899e-09 6.81376e-10 2.37826e-10)
(4.25108e-09 2.59617e-09 6.08914e-10)
(-5.67745e-09 9.00199e-09 4.75996e-09)
(-5.52738e-09 -4.7839e-09 6.43877e-09)
(-3.60846e-09 5.7956e-09 7.49947e-09)
(-3.55024e-09 3.33636e-09 7.41826e-09)
(-3.51996e-09 6.57775e-09 8.39058e-09)
(-1.55186e-09 1.15248e-08 9.6793e-09)
(3.84618e-09 2.70052e-09 -1.25981e-09)
(3.76084e-09 3.84321e-09 -9.85237e-10)
(2.80751e-09 3.02899e-09 -1.13012e-09)
(4.3812e-09 3.34727e-09 -9.6685e-10)
(4.69398e-09 3.46808e-09 -1.03682e-09)
(3.14329e-09 3.15378e-09 -1.18237e-09)
(3.64081e-09 2.62182e-09 -1.21225e-09)
(1.49553e-09 1.75808e-09 -1.69469e-09)
(-5.43594e-10 1.89141e-09 -1.88971e-09)
(1.22101e-09 1.90466e-09 -2.05662e-09)
(-8.82951e-10 1.48185e-09 -1.99835e-09)
(1.66167e-09 2.01722e-09 -1.81411e-09)
(-6.58015e-10 1.62341e-09 -1.77718e-09)
(1.04415e-09 1.62082e-09 -1.9015e-09)
(4.64762e-09 3.19102e-09 -1.60671e-09)
(4.67963e-09 4.35899e-09 -1.45924e-09)
(5.64736e-09 4.02519e-09 -1.56604e-09)
(4.11116e-09 3.85115e-09 -1.72191e-09)
(4.82367e-09 3.33957e-09 -1.7054e-09)
(5.55665e-09 3.93216e-09 -1.45516e-09)
(4.01141e-09 3.71541e-09 -1.61482e-09)
(1.30301e-09 1.64256e-09 -1.58698e-09)
(3.68849e-10 1.19604e-09 -1.68464e-09)
(-1.11716e-09 1.27754e-09 -1.89155e-09)
(-1.16174e-09 1.29212e-09 -1.61941e-09)
(-8.39913e-10 1.50252e-09 -1.67675e-09)
(7.72982e-10 1.41727e-09 -1.78386e-09)
(9.46252e-10 1.4228e-09 -1.53976e-09)
(1.07987e-09 2.2581e-09 2.2688e-10)
(8.44513e-10 3.36066e-09 5.62481e-11)
(4.71221e-10 2.75816e-09 1.63791e-10)
(1.8905e-09 3.09263e-09 1.26439e-10)
(1.73198e-09 3.03487e-09 1.08656e-10)
(3.43627e-10 2.67483e-09 1.61752e-10)
(1.29614e-09 2.38694e-09 2.25418e-10)
(-1.55482e-09 9.65473e-10 4.77988e-10)
(-3.574e-09 8.85895e-10 5.8918e-10)
(-2.84784e-09 7.04876e-10 4.96015e-10)
(-3.78202e-09 5.75283e-10 4.71841e-10)
(-1.9314e-09 9.8878e-10 5.16548e-10)
(-3.26575e-09 5.68754e-10 5.24197e-10)
(-2.32685e-09 5.60028e-10 5.09735e-10)
(-9.61891e-11 2.00579e-09 2.84429e-10)
(-3.33108e-10 2.86916e-09 -5.01278e-11)
(4.83334e-11 2.51447e-09 6.91717e-11)
(-1.19714e-09 2.23912e-09 1.20412e-10)
(-4.20563e-10 1.95832e-09 2.85556e-10)
(4.79841e-10 2.609e-09 7.98364e-11)
(-8.01527e-10 2.32255e-09 1.0961e-10)
(6.02685e-10 3.70172e-09 5.69549e-09)
(8.96796e-10 4.07934e-09 6.13478e-09)
(3.82676e-11 4.13824e-09 6.62576e-09)
(6.53153e-10 3.51804e-09 6.27605e-09)
(1.24014e-09 3.71725e-09 5.78993e-09)
(3.57391e-10 4.12075e-09 6.10343e-09)
(1.47728e-10 3.71072e-09 6.14445e-09)
(1.70999e-09 3.34954e-09 3.47976e-09)
(1.65061e-09 4.27103e-09 3.54827e-09)
(2.20927e-09 3.89937e-09 3.02515e-09)
(1.09798e-09 3.8415e-09 3.2574e-09)
(1.6769e-09 3.44294e-09 3.11441e-09)
(2.34111e-09 3.98347e-09 3.40763e-09)
(1.17823e-09 3.77803e-09 3.64532e-09)
(-2.28747e-09 2.28173e-09 -2.03315e-09)
(-2.76333e-09 2.77426e-09 -2.47628e-09)
(-2.32849e-09 2.57771e-09 -2.20883e-09)
(-2.62257e-09 3.16412e-09 -2.68397e-09)
(-2.89248e-09 3.05062e-09 -2.69476e-09)
(-2.42481e-09 2.74764e-09 -2.41543e-09)
(4.90747e-09 4.15319e-09 -2.62603e-09)
(5.09621e-09 5.30833e-09 -2.54714e-09)
(4.32255e-09 4.95074e-09 -2.85064e-09)
(5.86613e-09 4.9516e-09 -2.67825e-09)
(4.95438e-09 4.33484e-09 -2.79857e-09)
(5.90112e-09 4.76923e-09 -2.5016e-09)
(4.35217e-09 4.7407e-09 -2.68168e-09)
(1.71153e-09 2.42572e-09 -2.17828e-09)
(-4.93354e-10 2.03673e-09 -2.04256e-09)
(1.31549e-09 2.11986e-09 -2.2347e-09)
(-6.93041e-10 2.31815e-09 -2.51337e-09)
(1.71027e-09 2.14827e-09 -1.97415e-09)
(-5.16389e-10 2.32529e-09 -2.23532e-09)
(1.33226e-09 2.41891e-09 -2.46561e-09)
(4.86271e-09 3.4933e-09 -1.93062e-09)
(4.95128e-09 4.66801e-09 -1.82858e-09)
(5.72958e-09 4.10032e-09 -1.67388e-09)
(4.1862e-09 3.94066e-09 -1.84464e-09)
(4.86658e-09 3.41333e-09 -1.82501e-09)
(5.78332e-09 4.20391e-09 -1.8002e-09)
(4.27184e-09 4.0556e-09 -1.95996e-09)
(-2.29646e-09 2.14676e-09 -1.89053e-09)
(-2.85035e-09 1.93067e-09 -2.02815e-09)
(-2.41259e-09 1.86041e-09 -1.78649e-09)
(-3.04679e-09 1.70868e-09 -1.93095e-09)
(-2.82566e-09 1.53132e-09 -1.62397e-09)
(-2.56817e-09 1.73853e-09 -1.68962e-09)
(-3.95336e-09 1.58386e-09 1.08848e-10)
(-3.91146e-09 1.87875e-09 -2.42276e-10)
(-4.42036e-09 1.69514e-09 -1.70161e-10)
(-4.2613e-09 1.58079e-09 -1.16222e-10)
(-4.27321e-09 1.53082e-09 -2.1117e-11)
(-3.78962e-09 1.74981e-09 -6.43026e-11)
(-4.08437e-09 1.75597e-09 -8.48176e-11)
(-3.23275e-09 9.10069e-10 4.93526e-10)
(-4.0024e-09 9.48765e-10 4.63979e-10)
(-3.43298e-09 7.31781e-10 4.27785e-10)
(-5.31923e-09 7.27523e-10 3.36994e-10)
(-2.51054e-09 9.6166e-10 5.18427e-10)
(-4.53716e-09 9.56839e-10 3.7986e-10)
(-4.11655e-09 6.97918e-10 3.69024e-10)
(-1.36121e-09 1.8684e-09 3.08512e-10)
(-1.56545e-09 2.57124e-09 -1.22981e-10)
(-3.35416e-10 2.49345e-09 5.94712e-11)
(-1.52099e-09 2.22214e-09 1.00548e-10)
(-8.25333e-10 1.93845e-09 2.88441e-10)
(-8.8244e-10 2.33415e-09 5.32878e-11)
(-1.96813e-09 2.11505e-09 9.50661e-11)
(-3.88235e-09 9.07245e-10 3.58873e-10)
(-5.23822e-09 7.40596e-10 -4.32592e-11)
(-5.3358e-09 9.71109e-10 -2.87251e-11)