/*--------------------------------*- C++ -*----------------------------------*\
| =========                 |                                                 |
| \\      /  F ield         | OpenFOAM: The Open Source CFD Toolbox           |
|  \\    /   O peration     | Version:  2012                                  |
|   \\  /    A nd           | Website:  www.openfoam.com                      |
|    \\/     M anipulation  |                                                 |
\*---------------------------------------------------------------------------*/
FoamFile
{
    version     2.0;
    format      ascii;
    class       volVectorField;
    location    "0.108/solid";
    object      D_0_0;
}
// * * * * * * * * * * * * * * * * * * * * * * * * * * * * * * * * * * * * * //

dimensions      [0 1 0 0 0 0 0];


internalField   nonuniform List<vector> 
3125
(
(2.46882e-05 -8.61463e-06 5.85318e-06)
(1.7814e-05 -6.66683e-06 5.46205e-06)
(3.98882e-05 -1.25697e-05 6.15639e-06)
(3.27897e-05 -1.07446e-05 6.02377e-06)
(1.73727e-05 -6.53515e-06 5.42604e-06)
(1.71347e-05 -5.19354e-06 -7.51881e-07)
(1.12715e-05 -3.59572e-06 -6.7233e-07)
(1.73815e-05 -6.47233e-06 5.10561e-06)
(1.73036e-05 -6.5438e-06 5.52521e-06)
(1.69536e-05 -5.19025e-06 -5.20028e-07)
(1.11237e-05 -3.59078e-06 -4.48686e-07)
(1.72793e-05 -6.48453e-06 5.25161e-06)
(2.4704e-05 -8.54226e-06 5.51237e-06)
(1.80234e-05 -5.42495e-06 -7.60265e-07)
(1.78233e-05 -6.60331e-06 5.13982e-06)
(2.44796e-05 -7.0512e-06 -8.01892e-07)
(2.46073e-05 -8.61882e-06 5.94986e-06)
(1.7744e-05 -6.67516e-06 5.56113e-06)
(2.45841e-05 -8.54815e-06 5.65497e-06)
(1.78379e-05 -5.42188e-06 -5.27962e-07)
(1.77197e-05 -6.61507e-06 5.2857e-06)
(2.42677e-05 -7.04947e-06 -5.6821e-07)
(2.51592e-05 -8.74228e-06 5.87022e-06)
(3.23102e-05 -1.06216e-05 6.01962e-06)
(2.51753e-05 -8.66943e-06 5.52867e-06)
(3.21274e-05 -8.91924e-06 -8.21382e-07)
(2.54262e-05 -7.28406e-06 -8.05719e-07)
(3.23304e-05 -1.05434e-05 5.67297e-06)
(2.50776e-05 -8.74623e-06 5.96671e-06)
(3.22219e-05 -1.06227e-05 6.11331e-06)
(2.50545e-05 -8.67499e-06 5.671e-06)
(3.18958e-05 -8.91857e-06 -5.86148e-07)
(2.52111e-05 -7.28249e-06 -5.7191e-07)
(3.21998e-05 -1.0545e-05 5.81142e-06)
(4.00103e-05 -1.25242e-05 5.84981e-06)
(3.3089e-05 -9.15388e-06 -8.22372e-07)
(3.28101e-05 -1.06661e-05 5.67711e-06)
(3.98091e-05 -1.25644e-05 6.21459e-06)
(3.27011e-05 -1.07456e-05 6.11729e-06)
(3.98928e-05 -1.25183e-05 5.94416e-06)
(3.28558e-05 -9.15331e-06 -5.86852e-07)
(3.26791e-05 -1.06675e-05 5.81532e-06)
(2.1429e-05 -7.71294e-06 5.70385e-06)
(2.09698e-05 -7.58301e-06 5.67796e-06)
(3.66232e-05 -1.17193e-05 6.04027e-06)
(3.61445e-05 -1.15983e-05 6.03946e-06)
(1.39499e-05 -5.47819e-06 5.08828e-06)
(1.43663e-05 -5.61041e-06 5.13546e-06)
(1.13005e-05 -4.13074e-06 2.07958e-06)
(1.39545e-05 -5.42143e-06 4.78514e-06)
(1.3725e-05 -4.8671e-06 2.22878e-06)
(1.45378e-05 -4.50259e-06 -7.22478e-07)
(1.71522e-05 -5.69283e-06 1.59505e-06)
(1.45557e-05 -4.96198e-06 1.51342e-06)
(1.12898e-05 -3.9978e-06 1.38054e-06)
(1.36983e-05 -4.2739e-06 -7.11168e-07)
(1.37163e-05 -4.71935e-06 1.48281e-06)
(1.43715e-05 -5.55285e-06 4.82987e-06)
(1.71582e-05 -5.8588e-06 2.39165e-06)
(1.45637e-05 -5.11446e-06 2.2733e-06)
(1.38884e-05 -5.48947e-06 5.18754e-06)
(1.43038e-05 -5.62135e-06 5.23478e-06)
(1.11433e-05 -4.1488e-06 2.34088e-06)
(1.38634e-05 -5.43735e-06 4.93113e-06)
(1.35509e-05 -4.88232e-06 2.49441e-06)
(1.43704e-05 -4.49862e-06 -4.92832e-07)
(1.69518e-05 -5.70087e-06 1.86598e-06)
(1.43709e-05 -4.97184e-06 1.78287e-06)
(1.11275e-05 -4.01026e-06 1.6443e-06)
(1.35357e-05 -4.26969e-06 -4.82635e-07)
(1.35369e-05 -4.72984e-06 1.75131e-06)
(1.42789e-05 -5.56829e-06 4.97596e-06)
(1.69636e-05 -5.87048e-06 2.65919e-06)
(1.43843e-05 -5.12876e-06 2.53975e-06)
(2.1442e-05 -7.6443e-06 5.36984e-06)
(2.44975e-05 -7.83519e-06 2.60465e-06)
(2.16902e-05 -7.09732e-06 2.54109e-06)
(1.80408e-05 -5.93684e-06 1.61895e-06)
(2.07465e-05 -6.12095e-06 -7.81548e-07)
(2.07634e-05 -6.66826e-06 1.68111e-06)
(2.09823e-05 -7.51496e-06 5.34518e-06)
(1.80462e-05 -6.10706e-06 2.42618e-06)
(2.0767e-05 -6.85034e-06 2.51573e-06)
(2.4496e-05 -7.63946e-06 1.74327e-06)
(2.16704e-05 -6.35333e-06 -7.87441e-07)
(2.16871e-05 -6.91158e-06 1.69879e-06)
(2.13527e-05 -7.71893e-06 5.80182e-06)
(2.08942e-05 -7.58928e-06 5.7761e-06)
(2.1329e-05 -7.65274e-06 5.51422e-06)
(2.42694e-05 -7.84083e-06 2.86959e-06)
(2.14733e-05 -7.10503e-06 2.80749e-06)
(1.78355e-05 -5.9443e-06 1.89001e-06)
(2.05487e-05 -6.11849e-06 -5.48417e-07)
(2.05444e-05 -6.67407e-06 1.95186e-06)
(2.08705e-05 -7.5238e-06 5.48979e-06)
(1.78467e-05 -6.11789e-06 2.69372e-06)
(2.05542e-05 -6.8588e-06 2.78254e-06)
(2.42613e-05 -7.64332e-06 2.01271e-06)
(2.14688e-05 -6.35106e-06 -5.54145e-07)
(2.14639e-05 -6.91688e-06 1.96927e-06)
(2.84814e-05 -9.62746e-06 5.96271e-06)
(2.89588e-05 -9.75273e-06 5.97241e-06)
(2.54434e-05 -8.08004e-06 2.62192e-06)
(2.84997e-05 -9.5517e-06 5.61753e-06)
(2.83022e-05 -8.81126e-06 2.66313e-06)
(2.9245e-05 -8.21708e-06 -8.16778e-07)
(3.21427e-05 -9.56435e-06 1.80899e-06)
(2.92607e-05 -8.84503e-06 1.79212e-06)
(2.54424e-05 -7.88132e-06 1.75541e-06)
(2.82866e-05 -7.98353e-06 -8.14597e-07)
(2.83024e-05 -8.60464e-06 1.7846e-06)
(2.89774e-05 -9.67661e-06 5.6269e-06)
(3.21411e-05 -9.77893e-06 2.69697e-06)
(2.92601e-05 -9.05392e-06 2.67366e-06)
(2.83962e-05 -9.62992e-06 6.05786e-06)
(2.88731e-05 -9.75499e-06 6.06737e-06)
(2.52119e-05 -8.08505e-06 2.88632e-06)
(2.83736e-05 -9.55515e-06 5.75798e-06)
(2.80618e-05 -8.81455e-06 2.92598e-06)
(2.90193e-05 -8.21608e-06 -5.82289e-07)
(3.18862e-05 -9.56534e-06 2.07578e-06)
(2.90108e-05 -8.84691e-06 2.05977e-06)
(2.52042e-05 -7.88474e-06 2.02448e-06)
(2.80633e-05 -7.98241e-06 -5.8031e-07)
(2.80551e-05 -8.60687e-06 2.05258e-06)
(2.88506e-05 -9.67979e-06 5.7671e-06)
(3.18918e-05 -9.78044e-06 2.95798e-06)
(2.90172e-05 -9.05671e-06 2.93601e-06)
(3.66449e-05 -1.16396e-05 5.69434e-06)
(4.00147e-05 -1.17086e-05 2.56198e-06)
(3.69436e-05 -1.09795e-05 2.71478e-06)
(3.31041e-05 -9.80359e-06 1.81295e-06)
(3.59712e-05 -9.85996e-06 -8.24116e-07)
(3.5986e-05 -1.05201e-05 1.82078e-06)
(3.6166e-05 -1.15187e-05 5.69338e-06)
(3.31023e-05 -1.00197e-05 2.70235e-06)
(3.59835e-05 -1.07397e-05 2.71279e-06)
(4.00143e-05 -1.1597e-05 2.11449e-06)
(3.69316e-05 -1.00964e-05 -8.24394e-07)
(3.69462e-05 -1.07591e-05 1.82228e-06)
(3.6533e-05 -1.17196e-05 6.13257e-06)
(3.60544e-05 -1.15986e-05 6.13191e-06)
(3.65114e-05 -1.164e-05 5.83088e-06)
(3.98851e-05 -1.17083e-05 2.6924e-06)
(3.66878e-05 -1.09796e-05 2.9741e-06)
(3.28459e-05 -9.80433e-06 2.0795e-06)
(3.57343e-05 -9.85958e-06 -5.87724e-07)
(3.57237e-05 -1.05203e-05 2.08679e-06)
(3.60327e-05 -1.15191e-05 5.83011e-06)
(3.28513e-05 -1.00208e-05 2.96296e-06)
(3.57286e-05 -1.074e-05 2.97241e-06)
(3.98837e-05 -1.15966e-05 2.24576e-06)
(3.66939e-05 -1.00961e-05 -5.87773e-07)
(3.6683e-05 -1.0759e-05 2.08812e-06)
(2.32827e-05 -8.22992e-06 5.7958e-06)
(1.91529e-05 -7.06079e-06 5.5622e-06)
(3.85452e-05 -1.2205e-05 6.04677e-06)
(3.42281e-05 -1.1112e-05 6.03307e-06)
(1.23219e-05 -4.95032e-06 4.88488e-06)
(1.60657e-05 -6.13928e-06 5.30986e-06)
(1.23243e-05 -4.89686e-06 4.59241e-06)
(1.22869e-05 -4.69015e-06 3.50083e-06)
(1.6257e-05 -4.96258e-06 -7.42807e-07)
(1.71393e-05 -5.36061e-06 2.68863e-08)
(1.62613e-05 -5.12535e-06 2.43712e-08)
(1.12743e-05 -3.73063e-06 8.12615e-09)
(1.20642e-05 -3.8202e-06 -6.86121e-07)
(1.20673e-05 -3.95996e-06 1.09101e-08)
(1.6073e-05 -6.07864e-06 4.99531e-06)
(1.73556e-05 -6.22327e-06 3.89837e-06)
(1.60442e-05 -5.8394e-06 3.81243e-06)
(1.22645e-05 -4.96299e-06 4.9836e-06)
(1.59993e-05 -6.14889e-06 5.40921e-06)
(1.22392e-05 -4.91475e-06 4.73754e-06)
(1.22015e-05 -4.70346e-06 3.64185e-06)
(1.60803e-05 -4.95908e-06 -5.11529e-07)
(1.69479e-05 -5.36099e-06 2.76817e-07)
(1.60746e-05 -5.12578e-06 2.73801e-07)
(1.11185e-05 -3.73135e-06 2.49962e-07)
(1.19113e-05 -3.8155e-06 -4.60557e-07)
(1.19061e-05 -3.96062e-06 2.54718e-07)
(1.59747e-05 -6.0922e-06 5.14152e-06)
(1.72534e-05 -6.23234e-06 4.04097e-06)
(1.59459e-05 -5.84946e-06 3.95506e-06)
(2.32973e-05 -8.15905e-06 5.45754e-06)
(2.4691e-05 -8.24944e-06 4.21644e-06)
(2.32821e-05 -7.87315e-06 4.17301e-06)
(1.80282e-05 -5.5962e-06 2.93181e-08)
(1.89222e-05 -5.65671e-06 -7.67986e-07)
(1.89271e-05 -5.83202e-06 3.16585e-08)
(1.91636e-05 -6.99525e-06 5.23502e-06)
(1.77982e-05 -6.35099e-06 3.9247e-06)
(1.91413e-05 -6.73379e-06 3.99906e-06)
(2.44857e-05 -7.24791e-06 4.34775e-08)
(2.35377e-05 -6.81846e-06 -7.97588e-07)
(2.35435e-05 -7.01199e-06 4.17887e-08)
(2.32036e-05 -8.23484e-06 5.89306e-06)
(1.90804e-05 -7.06821e-06 5.66094e-06)
(2.31803e-05 -8.16599e-06 5.60093e-06)
(2.45714e-05 -8.25381e-06 4.35673e-06)
(2.31652e-05 -7.87828e-06 4.31389e-06)
(1.78322e-05 -5.59655e-06 2.79607e-07)
(1.87325e-05 -5.65385e-06 -5.35334e-07)
(1.87267e-05 -5.83232e-06 2.82192e-07)
(1.90564e-05 -7.00572e-06 5.38044e-06)
(1.76946e-05 -6.35971e-06 4.06726e-06)
(1.90342e-05 -6.74157e-06 4.14135e-06)
(2.42617e-05 -7.24798e-06 2.9419e-07)
(2.33291e-05 -6.81656e-06 -5.64027e-07)
(2.33231e-05 -7.0121e-06 2.92541e-07)
(2.65781e-05 -9.12343e-06 5.91539e-06)
(3.08723e-05 -1.02509e-05 6.00352e-06)
(2.51628e-05 -8.37435e-06 4.22921e-06)
(2.65952e-05 -9.04924e-06 5.57198e-06)
(2.65849e-05 -8.74804e-06 4.26382e-06)
(3.11659e-05 -8.6849e-06 -8.20142e-07)
(3.21343e-05 -9.13497e-06 5.30346e-08)
(3.11727e-05 -8.89891e-06 5.22009e-08)
(2.54323e-05 -7.48378e-06 4.50508e-08)
(2.63766e-05 -7.51705e-06 -8.09094e-07)
(2.63829e-05 -7.71961e-06 4.65119e-08)
(3.0892e-05 -1.01735e-05 5.65714e-06)
(3.23263e-05 -1.02235e-05 4.34658e-06)
(3.08864e-05 -9.85736e-06 4.33299e-06)
(2.64949e-05 -9.12671e-06 6.0113e-06)
(3.07851e-05 -1.02525e-05 6.09774e-06)
(2.50423e-05 -8.37845e-06 4.36931e-06)
(2.6472e-05 -9.05385e-06 5.7135e-06)
(2.64619e-05 -8.75145e-06 4.40332e-06)
(3.09361e-05 -8.68414e-06 -5.85177e-07)
(3.18895e-05 -9.13482e-06 3.03898e-07)
(3.09299e-05 -8.89878e-06 3.02972e-07)
(2.52051e-05 -7.48381e-06 2.95725e-07)
(2.61586e-05 -7.51564e-06 -5.75145e-07)
(2.61525e-05 -7.71961e-06 2.97154e-07)
(3.07628e-05 -1.01757e-05 5.79631e-06)
(3.21959e-05 -1.02247e-05 4.48385e-06)
(3.07574e-05 -9.85898e-06 4.47079e-06)
(3.85724e-05 -1.21267e-05 5.70313e-06)
(4.00227e-05 -1.21619e-05 4.3767e-06)
(3.85805e-05 -1.17988e-05 4.37109e-06)
(3.3096e-05 -9.37115e-06 5.37696e-08)
(3.40503e-05 -9.38886e-06 -8.23137e-07)
(3.40574e-05 -9.60747e-06 5.4408e-08)
(3.42491e-05 -1.10329e-05 5.68653e-06)
(3.28062e-05 -1.03452e-05 4.35015e-06)
(3.42463e-05 -1.07091e-05 4.3588e-06)
(4.00107e-05 -1.11509e-05 3.34625e-07)
(3.88867e-05 -1.08007e-05 5.44772e-08)
(3.84552e-05 -1.22047e-05 6.136e-06)
(3.41388e-05 -1.11126e-05 6.1261e-06)
(3.84388e-05 -1.21263e-05 5.83628e-06)
(3.98891e-05 -1.21623e-05 4.51411e-06)
(3.84463e-05 -1.17989e-05 4.50723e-06)
(3.28495e-05 -9.37098e-06 3.04747e-07)
(3.38157e-05 -9.38837e-06 -5.87321e-07)
(3.38094e-05 -9.60728e-06 3.05515e-07)
(3.41169e-05 -1.10339e-05 5.82406e-06)
(3.26753e-05 -1.03462e-05 4.48726e-06)
(3.41143e-05 -1.07098e-05 4.49544e-06)
(3.98823e-05 -1.11506e-05 4.62762e-07)
(3.86334e-05 -1.08003e-05 3.06978e-07)
(2.28169e-05 -8.10109e-06 5.77452e-06)
(1.9604e-05 -7.1917e-06 5.59301e-06)
(3.80618e-05 -1.20825e-05 6.04314e-06)
(3.47075e-05 -1.12339e-05 6.03524e-06)
(1.27231e-05 -5.08206e-06 4.93795e-06)
(1.5636e-05 -6.00712e-06 5.26838e-06)
(1.13146e-05 -4.26585e-06 2.79542e-06)
(1.20924e-05 -4.37495e-06 2.13195e-06)
(1.21055e-05 -4.51519e-06 2.86451e-06)
(1.2726e-05 -5.02776e-06 4.64268e-06)
(1.39211e-05 -5.19981e-06 3.64988e-06)
(1.26895e-05 -4.81718e-06 3.53931e-06)
(1.29009e-05 -4.6205e-06 2.18168e-06)
(1.37361e-05 -5.01729e-06 2.99204e-06)
(1.2913e-05 -4.76577e-06 2.93003e-06)
(1.5391e-05 -4.73222e-06 -7.33015e-07)
(1.45417e-05 -4.65643e-06 1.91296e-08)
(1.53951e-05 -4.89057e-06 2.17823e-08)
(1.71457e-05 -5.5268e-06 8.07215e-07)
(1.62746e-05 -5.44891e-06 1.56952e-06)
(1.62677e-05 -5.28723e-06 7.93173e-07)
(1.45482e-05 -4.80934e-06 7.62482e-07)
(1.54088e-05 -5.20523e-06 1.54231e-06)
(1.54016e-05 -5.04802e-06 7.78265e-07)
(1.1281e-05 -3.86449e-06 6.90547e-07)
(1.20824e-05 -4.23697e-06 1.41639e-06)
(1.20739e-05 -4.0987e-06 7.09854e-07)
(1.28734e-05 -4.04635e-06 -6.99058e-07)
(1.37019e-05 -4.42312e-06 1.6425e-08)
(1.28768e-05 -4.19088e-06 1.36808e-08)
(1.28915e-05 -4.47759e-06 1.45048e-06)
(1.37085e-05 -4.5714e-06 7.45821e-07)
(1.28834e-05 -4.33444e-06 7.28279e-07)
(1.56428e-05 -5.94724e-06 4.95595e-06)
(1.43389e-05 -5.32754e-06 3.68417e-06)
(1.56132e-05 -5.71148e-06 3.7822e-06)
(1.71657e-05 -6.02749e-06 3.20591e-06)
(1.62812e-05 -5.61051e-06 2.35469e-06)
(1.62896e-05 -5.77477e-06 3.15746e-06)
(1.45739e-05 -5.26946e-06 3.05058e-06)
(1.54161e-05 -5.36233e-06 2.31525e-06)
(1.54254e-05 -5.52203e-06 3.1057e-06)
(1.26646e-05 -5.09438e-06 5.03685e-06)
(1.55706e-05 -6.01706e-06 5.36776e-06)
(1.1165e-05 -4.28778e-06 3.04928e-06)
(1.19295e-05 -4.39204e-06 2.39504e-06)
(1.19504e-05 -4.53596e-06 3.11999e-06)
(1.26394e-05 -5.04515e-06 4.78809e-06)
(1.38298e-05 -5.21165e-06 3.79198e-06)
(1.26025e-05 -4.83009e-06 3.68067e-06)
(1.27323e-05 -4.63665e-06 2.4462e-06)
(1.35703e-05 -5.03579e-06 3.24976e-06)
(1.27525e-05 -4.7854e-06 3.18678e-06)
(1.52189e-05 -4.72848e-06 -5.02464e-07)
(1.43649e-05 -4.65695e-06 2.67027e-07)
(1.52133e-05 -4.89104e-06 2.70545e-07)
(1.69469e-05 -5.53095e-06 1.0715e-06)
(1.60792e-05 -5.45754e-06 1.84015e-06)
(1.60739e-05 -5.2917e-06 1.05705e-06)
(1.43647e-05 -4.81447e-06 1.02497e-06)
(1.52186e-05 -5.21447e-06 1.81247e-06)
(1.52129e-05 -5.05281e-06 1.04155e-06)
(1.11195e-05 -3.87099e-06 9.47047e-07)
(1.19143e-05 -4.24877e-06 1.68207e-06)
(1.19068e-05 -4.10485e-06 9.68338e-07)
(1.27156e-05 -4.0419e-06 -4.71875e-07)
(1.35302e-05 -4.4237e-06 2.6323e-07)
(1.27103e-05 -4.1915e-06 2.59134e-07)
(1.27178e-05 -4.48873e-06 1.71773e-06)
(1.35303e-05 -4.57686e-06 1.00726e-06)
(1.27107e-05 -4.34024e-06 9.88398e-07)
(1.55459e-05 -5.96126e-06 5.10218e-06)
(1.42461e-05 -5.339e-06 3.82645e-06)
(1.55163e-05 -5.7219e-06 3.92478e-06)
(1.698e-05 -6.04169e-06 3.465e-06)
(1.60915e-05 -5.62304e-06 2.62206e-06)
(1.61086e-05 -5.79001e-06 3.41651e-06)
(1.44029e-05 -5.28686e-06 3.30898e-06)
(1.52315e-05 -5.37574e-06 2.58228e-06)
(1.52493e-05 -5.53834e-06 3.36453e-06)
(2.28311e-05 -8.03077e-06 5.43722e-06)
(2.14236e-05 -7.3686e-06 4.10415e-06)
(2.28153e-05 -7.74738e-06 4.15719e-06)
(2.44987e-05 -8.03385e-06 3.48357e-06)
(2.35562e-05 -7.58977e-06 2.58548e-06)
(2.3558e-05 -7.78526e-06 3.45874e-06)
(2.16935e-05 -7.28595e-06 3.40109e-06)
(2.26202e-05 -7.34381e-06 2.56432e-06)
(2.26227e-05 -7.53595e-06 3.43128e-06)
(1.80346e-05 -5.76659e-06 8.20398e-07)
(1.89394e-05 -6.18082e-06 1.64123e-06)
(1.89335e-05 -6.00647e-06 8.32734e-07)
(1.98302e-05 -5.88873e-06 -7.75072e-07)
(2.07518e-05 -6.30399e-06 3.60392e-08)
(1.98353e-05 -6.06797e-06 3.39013e-08)
(1.98472e-05 -6.42465e-06 1.66194e-06)
(2.07581e-05 -6.48616e-06 8.54921e-07)
(1.98416e-05 -6.24635e-06 8.44237e-07)
(1.96152e-05 -7.12551e-06 5.26432e-06)
(2.09633e-05 -7.24204e-06 4.08505e-06)
(1.95935e-05 -6.86102e-06 4.02167e-06)
(1.80528e-05 -6.28003e-06 3.25112e-06)
(1.89442e-05 -6.35513e-06 2.45834e-06)
(1.89499e-05 -6.53225e-06 3.29316e-06)
(2.07711e-05 -7.03529e-06 3.36807e-06)
(1.98514e-05 -6.60292e-06 2.48817e-06)
(1.98563e-05 -6.78403e-06 3.33212e-06)
(2.44917e-05 -7.44371e-06 8.89857e-07)
(2.35542e-05 -7.39721e-06 1.72982e-06)
(2.35497e-05 -7.20462e-06 8.82248e-07)
(2.2601e-05 -6.58584e-06 -7.92779e-07)
(2.16759e-05 -6.54002e-06 3.80683e-08)
(2.26067e-05 -6.77603e-06 3.99851e-08)
(2.26176e-05 -7.15458e-06 1.71501e-06)
(2.16821e-05 -6.72583e-06 8.64804e-07)
(2.26129e-05 -6.96533e-06 8.73906e-07)
(2.27385e-05 -8.10628e-06 5.87196e-06)
(1.95307e-05 -7.19883e-06 5.69161e-06)
(2.27151e-05 -8.03807e-06 5.58087e-06)
(2.13108e-05 -7.37485e-06 4.24574e-06)
(2.26994e-05 -7.75281e-06 4.29825e-06)
(2.42808e-05 -8.04076e-06 3.73912e-06)
(2.33316e-05 -7.59608e-06 2.85093e-06)
(2.33436e-05 -7.79297e-06 3.71493e-06)
(2.14864e-05 -7.29536e-06 3.65847e-06)
(2.23993e-05 -7.3508e-06 2.83026e-06)
(2.24119e-05 -7.54449e-06 3.68808e-06)
(1.78309e-05 -5.77043e-06 1.08494e-06)
(1.87294e-05 -6.18771e-06 1.91229e-06)
(1.87252e-05 -6.01002e-06 1.0974e-06)
(1.96363e-05 -5.88607e-06 -5.4215e-07)
(2.05428e-05 -6.30421e-06 2.86803e-07)
(1.96305e-05 -6.06823e-06 2.84585e-07)
(1.96326e-05 -6.43099e-06 1.93289e-06)
(2.05409e-05 -6.48913e-06 1.11956e-06)
(1.96288e-05 -6.24961e-06 1.10893e-06)
(1.95067e-05 -7.13556e-06 5.40956e-06)
(2.08516e-05 -7.24861e-06 4.2268e-06)
(1.94852e-05 -6.86847e-06 4.16386e-06)
(1.78625e-05 -6.29322e-06 3.51009e-06)
(1.87401e-05 -6.36515e-06 2.72573e-06)
(1.87552e-05 -6.54445e-06 3.55188e-06)
(2.0568e-05 -7.0456e-06 3.62597e-06)
(1.96429e-05 -6.61215e-06 2.75531e-06)
(1.96573e-05 -6.79528e-06 3.59047e-06)
(2.4259e-05 -7.44564e-06 1.15382e-06)
(2.33231e-05 -7.40153e-06 1.99963e-06)
(2.33206e-05 -7.2068e-06 1.14642e-06)
(2.23959e-05 -6.58376e-06 -5.59344e-07)
(2.14629e-05 -6.5402e-06 2.88859e-07)
(2.23899e-05 -6.77617e-06 2.90768e-07)
(2.23904e-05 -7.15937e-06 1.98517e-06)
(2.14608e-05 -6.72853e-06 1.12932e-06)
(2.23876e-05 -6.96776e-06 1.13826e-06)
(2.70529e-05 -9.24989e-06 5.92855e-06)
(3.03935e-05 -1.01268e-05 5.99684e-06)
(2.54439e-05 -8.28171e-06 3.50588e-06)
(2.63933e-05 -8.32433e-06 2.63736e-06)
(2.63931e-05 -8.52882e-06 3.52577e-06)
(2.70703e-05 -9.17528e-06 5.58463e-06)
(2.84918e-05 -9.24319e-06 4.30047e-06)
(2.70604e-05 -8.87209e-06 4.27383e-06)
(2.73464e-05 -8.56807e-06 2.65107e-06)
(2.83009e-05 -9.02084e-06 3.5588e-06)
(2.73457e-05 -8.7752e-06 3.54337e-06)
(3.02049e-05 -8.45086e-06 -8.18617e-07)
(2.92517e-05 -8.42706e-06 5.02365e-08)
(3.02117e-05 -8.66295e-06 5.12689e-08)
(3.21401e-05 -9.34968e-06 9.27869e-07)
(3.11813e-05 -9.32486e-06 1.80425e-06)
(3.11785e-05 -9.11191e-06 9.25031e-07)
(2.92576e-05 -8.63607e-06 9.17888e-07)
(3.02205e-05 -9.0851e-06 1.79865e-06)
(3.02175e-05 -8.87404e-06 9.21716e-07)
(2.54384e-05 -7.68257e-06 8.96758e-07)
(2.63926e-05 -8.1228e-06 1.76631e-06)
(2.63889e-05 -7.92122e-06 9.0298e-07)
(2.73303e-05 -7.7502e-06 -8.12045e-07)
(2.82932e-05 -8.19123e-06 4.91019e-08)
(2.73367e-05 -7.95542e-06 4.78613e-08)
(2.73462e-05 -8.3639e-06 1.77602e-06)
(2.82991e-05 -8.39795e-06 9.13511e-07)
(2.73427e-05 -8.15968e-06 9.08553e-07)
(3.04128e-05 -1.00497e-05 5.65061e-06)
(2.89698e-05 -9.36639e-06 4.30801e-06)
(3.0407e-05 -9.73498e-06 4.32761e-06)
(3.21379e-05 -9.99648e-06 3.60151e-06)
(3.118e-05 -9.53773e-06 2.69047e-06)
(3.11773e-05 -9.75358e-06 3.59341e-06)
(2.92583e-05 -9.26578e-06 3.5722e-06)
(3.02195e-05 -9.29607e-06 2.68274e-06)
(3.02172e-05 -9.51002e-06 3.58369e-06)
(2.69691e-05 -9.25295e-06 6.02427e-06)
(3.03066e-05 -1.01285e-05 6.09124e-06)
(2.52229e-05 -8.28784e-06 3.76078e-06)
(2.61586e-05 -8.32874e-06 2.90124e-06)
(2.61691e-05 -8.53423e-06 3.78001e-06)
(2.69463e-05 -9.17958e-06 5.72588e-06)
(2.83659e-05 -9.24575e-06 4.43918e-06)
(2.69366e-05 -8.87526e-06 4.41314e-06)
(2.71088e-05 -8.5719e-06 2.91442e-06)
(2.80714e-05 -9.02491e-06 3.81176e-06)
(2.71188e-05 -8.77991e-06 3.79697e-06)
(2.99771e-05 -8.44998e-06 -5.839e-07)
(2.90132e-05 -8.42698e-06 3.0089e-07)
(2.99709e-05 -8.66284e-06 3.01969e-07)
(3.18857e-05 -9.35009e-06 1.19057e-06)
(3.09268e-05 -9.32613e-06 2.07129e-06)
(3.09262e-05 -9.11246e-06 1.18782e-06)
(2.90097e-05 -8.63695e-06 1.18092e-06)
(2.99682e-05 -9.08666e-06 2.06598e-06)
(2.99673e-05 -8.87476e-06 1.18461e-06)
(2.52022e-05 -7.68427e-06 1.16051e-06)
(2.61512e-05 -8.1258e-06 2.035e-06)
(2.61495e-05 -7.9227e-06 1.16653e-06)
(2.71095e-05 -7.74893e-06 -5.77938e-07)
(2.80572e-05 -8.19118e-06 2.99731e-07)
(2.71035e-05 -7.95539e-06 2.98488e-07)
(2.71018e-05 -8.3665e-06 2.04435e-06)
(2.80539e-05 -8.39903e-06 1.1767e-06)
(2.71003e-05 -8.16095e-06 1.17191e-06)
(3.02843e-05 -1.00521e-05 5.79004e-06)
(2.88432e-05 -9.36873e-06 4.44654e-06)
(3.02786e-05 -9.73678e-06 4.46558e-06)
(3.18999e-05 -9.99838e-06 3.85209e-06)
(3.09327e-05 -9.53963e-06 2.95191e-06)
(3.09411e-05 -9.75595e-06 3.84455e-06)
(2.90264e-05 -9.26923e-06 3.82453e-06)
(2.99743e-05 -9.2984e-06 2.94462e-06)
(2.99831e-05 -9.51291e-06 3.83541e-06)
(3.8086e-05 -1.20032e-05 5.69821e-06)
(3.6644e-05 -1.13125e-05 4.36689e-06)
(3.80906e-05 -1.16757e-05 4.36978e-06)
(4.00183e-05 -1.20464e-05 3.91613e-06)
(3.88911e-05 -1.14663e-05 2.71751e-06)
(3.88878e-05 -1.16911e-05 3.62608e-06)
(3.69388e-05 -1.12028e-05 3.623e-06)
(3.79083e-05 -1.12205e-05 2.71628e-06)
(3.79038e-05 -1.14446e-05 3.62479e-06)
(3.31017e-05 -9.58739e-06 9.30262e-07)
(3.40654e-05 -1.00426e-05 1.81618e-06)
(3.40631e-05 -9.82506e-06 9.32245e-07)
(3.50111e-05 -9.6242e-06 -8.23709e-07)
(3.59784e-05 -1.00807e-05 5.53924e-08)
(3.50182e-05 -9.84398e-06 5.49501e-08)
(3.5026e-05 -1.02814e-05 1.81877e-06)
(3.5984e-05 -1.03005e-05 9.35105e-07)
(3.50239e-05 -1.00627e-05 9.3385e-07)
(3.47286e-05 -1.11547e-05 5.68878e-06)
(3.61646e-05 -1.1192e-05 4.3658e-06)
(3.4726e-05 -1.083e-05 4.36092e-06)
(3.30987e-05 -1.02388e-05 3.60814e-06)
(3.40633e-05 -1.026e-05 2.7067e-06)
(3.40594e-05 -1.04804e-05 3.61344e-06)
(3.5979e-05 -1.09622e-05 3.62069e-06)
(3.50237e-05 -1.05e-05 2.71015e-06)
(3.50195e-05 -1.07216e-05 3.61757e-06)
(4.00118e-05 -1.12624e-05 7.78204e-07)
(3.88922e-05 -1.12441e-05 1.82352e-06)
(3.88905e-05 -1.10222e-05 9.36051e-07)
(3.78971e-05 -1.03348e-05 -8.2476e-07)
(3.69388e-05 -1.0318e-05 5.5713e-08)
(3.79038e-05 -1.0557e-05 5.56984e-08)
(3.79106e-05 -1.09993e-05 1.82326e-06)
(3.69442e-05 -1.05386e-05 9.36032e-07)
(3.79088e-05 -1.07781e-05 9.36507e-07)
(3.79714e-05 -1.20825e-05 6.13418e-06)
(3.46179e-05 -1.12345e-05 6.12811e-06)
(3.79521e-05 -1.20032e-05 5.83327e-06)
(3.65105e-05 -1.13127e-05 4.5029e-06)
(3.79566e-05 -1.16758e-05 4.50567e-06)
(3.98897e-05 -1.20465e-05 4.04736e-06)
(3.86335e-05 -1.1466e-05 2.97709e-06)
(3.86416e-05 -1.16911e-05 3.87529e-06)
(3.66947e-05 -1.1203e-05 3.8713e-06)
(3.76519e-05 -1.12204e-05 2.97538e-06)
(3.76591e-05 -1.14446e-05 3.87288e-06)
(3.28456e-05 -9.58767e-06 1.19291e-06)
(3.38056e-05 -1.00431e-05 2.08253e-06)
(3.38054e-05 -9.82522e-06 1.19485e-06)
(3.47753e-05 -9.62377e-06 -5.87597e-07)
(3.57281e-05 -1.00805e-05 3.06773e-07)
(3.4769e-05 -9.84376e-06 3.06198e-07)
(3.47649e-05 -1.02817e-05 2.08494e-06)
(3.57239e-05 -1.03004e-05 1.19769e-06)
(3.47649e-05 -1.00628e-05 1.19644e-06)
(3.4596e-05 -1.11555e-05 5.8261e-06)
(3.60314e-05 -1.11923e-05 4.50191e-06)
(3.45935e-05 -1.08306e-05 4.49743e-06)
(3.28591e-05 -1.02402e-05 3.85819e-06)
(3.38107e-05 -1.02609e-05 2.96695e-06)
(3.38183e-05 -1.04815e-05 3.863e-06)
(3.57357e-05 -1.09627e-05 3.86938e-06)
(3.47699e-05 -1.05006e-05 2.97006e-06)
(3.47772e-05 -1.07223e-05 3.86667e-06)
(3.9882e-05 -1.12621e-05 9.08003e-07)
(3.86274e-05 -1.12437e-05 2.08946e-06)
(3.86278e-05 -1.10218e-05 1.19899e-06)
(3.76586e-05 -1.03345e-05 -5.87867e-07)
(3.66876e-05 -1.03177e-05 3.0719e-07)
(3.76519e-05 -1.05566e-05 3.07286e-07)
(3.76467e-05 -1.09991e-05 2.08895e-06)
(3.66832e-05 -1.05384e-05 1.19858e-06)
(3.7647e-05 -1.07778e-05 1.19902e-06)
(2.42185e-05 -8.48669e-06 5.83511e-06)
(1.82578e-05 -6.79834e-06 5.49674e-06)
(3.94929e-05 -1.24526e-05 6.08472e-06)
(3.32692e-05 -1.08673e-05 6.02738e-06)
(1.15321e-05 -4.68752e-06 4.7742e-06)
(1.69342e-05 -6.40331e-06 5.38868e-06)
(1.15903e-05 -4.55212e-06 3.98865e-06)
(1.15333e-05 -4.63579e-06 4.4876e-06)
(1.15884e-05 -4.61047e-06 4.31798e-06)
(1.15187e-05 -4.56844e-06 4.12323e-06)
(1.70215e-05 -6.24601e-06 4.5241e-06)
(1.69425e-05 -6.34121e-06 5.07013e-06)
(1.7452e-05 -6.44826e-06 4.92609e-06)
(1.73716e-05 -6.38776e-06 4.69407e-06)
(1.7012e-05 -6.31705e-06 4.89104e-06)
(1.69323e-05 -6.25776e-06 4.66124e-06)
(1.7462e-05 -6.37635e-06 4.55694e-06)
(1.14768e-05 -4.70091e-06 4.87246e-06)
(1.6866e-05 -6.41228e-06 5.48792e-06)
(1.13617e-05 -4.5993e-06 4.38769e-06)
(1.14514e-05 -4.65468e-06 4.63202e-06)
(1.14375e-05 -4.58519e-06 4.265e-06)
(1.13897e-05 -4.65499e-06 4.66775e-06)
(1.67405e-05 -6.27753e-06 4.92831e-06)
(1.68415e-05 -6.35386e-06 5.21622e-06)
(1.72705e-05 -6.39856e-06 4.83762e-06)
(1.72043e-05 -6.47698e-06 5.27966e-06)
(1.68325e-05 -6.26894e-06 4.80487e-06)
(1.67674e-05 -6.34682e-06 5.24484e-06)
(1.71774e-05 -6.40676e-06 4.96093e-06)
(2.43342e-05 -8.30911e-06 4.91975e-06)
(2.42338e-05 -8.4148e-06 5.49509e-06)
(2.4788e-05 -8.51972e-06 5.32964e-06)
(2.46987e-05 -8.4427e-06 5.07107e-06)
(2.43172e-05 -8.39217e-06 5.31241e-06)
(2.42283e-05 -8.31602e-06 5.05498e-06)
(2.48054e-05 -8.43606e-06 4.93602e-06)
(1.83511e-05 -6.63665e-06 4.61916e-06)
(1.82676e-05 -6.73414e-06 5.17279e-06)
(1.78948e-05 -6.57934e-06 4.9599e-06)
(1.78137e-05 -6.51765e-06 4.72569e-06)
(1.83401e-05 -6.71026e-06 4.9925e-06)
(1.79053e-05 -6.50657e-06 4.5886e-06)
(1.82584e-05 -6.6474e-06 4.75621e-06)
(2.41381e-05 -8.49112e-06 5.93199e-06)
(1.8187e-05 -6.80637e-06 5.59572e-06)
(2.40033e-05 -8.32457e-06 5.31577e-06)
(2.41149e-05 -8.42104e-06 5.63796e-06)
(2.45802e-05 -8.44788e-06 5.21155e-06)
(2.44977e-05 -8.53354e-06 5.67501e-06)
(2.41107e-05 -8.3215e-06 5.19571e-06)
(2.40291e-05 -8.4068e-06 5.65841e-06)
(2.4472e-05 -8.45066e-06 5.33135e-06)
(1.80594e-05 -6.66485e-06 5.02255e-06)
(1.81628e-05 -6.74546e-06 5.31854e-06)
(1.77113e-05 -6.52805e-06 4.86915e-06)
(1.76439e-05 -6.60701e-06 5.31319e-06)
(1.76171e-05 -6.53586e-06 4.99232e-06)
(1.81547e-05 -6.65742e-06 4.89955e-06)
(1.80862e-05 -6.7369e-06 5.34547e-06)
(2.56312e-05 -8.86963e-06 5.88625e-06)
(3.18308e-05 -1.04983e-05 6.01488e-06)
(2.57512e-05 -8.68915e-06 4.9659e-06)
(2.526e-05 -8.64698e-06 5.34592e-06)
(2.51702e-05 -8.56913e-06 5.08624e-06)
(2.56476e-05 -8.79632e-06 5.54403e-06)
(2.52778e-05 -8.56273e-06 4.95139e-06)
(2.5733e-05 -8.77396e-06 5.36127e-06)
(2.56428e-05 -8.69529e-06 5.10056e-06)
(3.19649e-05 -1.03085e-05 5.08518e-06)
(3.18508e-05 -1.04203e-05 5.66829e-06)
(3.24228e-05 -1.05221e-05 5.4912e-06)
(3.23283e-05 -1.04346e-05 5.22187e-06)
(3.19429e-05 -1.0399e-05 5.48639e-06)
(3.18485e-05 -1.0312e-05 5.21735e-06)
(3.24451e-05 -1.04313e-05 5.08987e-06)
(2.5549e-05 -8.87335e-06 5.98255e-06)
(3.17428e-05 -1.04996e-05 6.10875e-06)
(2.54129e-05 -8.70209e-06 5.35983e-06)
(2.50509e-05 -8.574e-06 5.22648e-06)
(2.49676e-05 -8.66001e-06 5.69064e-06)
(2.55261e-05 -8.80155e-06 5.68609e-06)
(2.49419e-05 -8.57649e-06 5.34602e-06)
(2.55226e-05 -8.69987e-06 5.24055e-06)
(2.54385e-05 -8.78622e-06 5.70533e-06)
(3.16028e-05 -1.03128e-05 5.47038e-06)
(3.17207e-05 -1.04221e-05 5.80697e-06)
(3.21992e-05 -1.04359e-05 5.35853e-06)
(3.21064e-05 -1.05258e-05 5.82655e-06)
(3.17198e-05 -1.03135e-05 5.35423e-06)
(3.16276e-05 -1.04031e-05 5.82232e-06)
(3.20817e-05 -1.04351e-05 5.47446e-06)
(3.96869e-05 -1.22666e-05 5.13813e-06)
(3.9561e-05 -1.23878e-05 5.75485e-06)
(4.0106e-05 -1.24903e-05 5.61599e-06)
(4.00202e-05 -1.2396e-05 5.32281e-06)
(3.96494e-05 -1.23601e-05 5.55365e-06)
(3.95788e-05 -1.2277e-05 5.28959e-06)
(4.01416e-05 -1.2387e-05 5.16319e-06)
(3.34056e-05 -1.06761e-05 5.09775e-06)
(3.32898e-05 -1.07887e-05 5.68072e-06)
(3.29029e-05 -1.06449e-05 5.49547e-06)
(3.28081e-05 -1.0557e-05 5.22587e-06)
(3.33829e-05 -1.07675e-05 5.49921e-06)
(3.29254e-05 -1.05538e-05 5.09405e-06)
(3.32879e-05 -1.06792e-05 5.2294e-06)
(3.94085e-05 -1.24505e-05 6.16082e-06)
(3.31804e-05 -1.08682e-05 6.12073e-06)
(3.93146e-05 -1.22661e-05 5.51276e-06)
(3.94329e-05 -1.23855e-05 5.87427e-06)
(3.98952e-05 -1.23951e-05 5.4459e-06)
(3.9793e-05 -1.24796e-05 5.88907e-06)
(3.94458e-05 -1.22763e-05 5.42144e-06)
(3.93297e-05 -1.23566e-05 5.86217e-06)
(3.97731e-05 -1.23866e-05 5.53476e-06)
(3.30397e-05 -1.0679e-05 5.48114e-06)
(3.31584e-05 -1.07899e-05 5.8187e-06)
(3.26785e-05 -1.05582e-05 5.36232e-06)
(3.25854e-05 -1.06482e-05 5.83025e-06)
(3.25607e-05 -1.05572e-05 5.47803e-06)
(3.3158e-05 -1.06802e-05 5.36563e-06)
(3.30644e-05 -1.07703e-05 5.83344e-06)
(3.93189e-05 -1.08179e-05 -3.02707e-07)
(3.98834e-05 -1.09276e-05 -4.26877e-07)
(3.9438e-05 -1.08167e-05 -4.26757e-07)
(3.97638e-05 -1.0928e-05 -3.05412e-07)
(2.189e-05 -7.8426e-06 5.72856e-06)
(2.05125e-05 -7.45282e-06 5.65087e-06)
(3.7102e-05 -1.18402e-05 6.04092e-06)
(3.56657e-05 -1.14771e-05 6.03839e-06)
(1.35372e-05 -5.34604e-06 5.03964e-06)
(1.47862e-05 -5.74266e-06 5.1812e-06)
(1.36071e-05 -5.20169e-06 4.21904e-06)
(1.35412e-05 -5.29009e-06 4.73904e-06)
(1.40166e-05 -5.39663e-06 4.61017e-06)
(1.3942e-05 -5.34629e-06 4.39792e-06)
(1.36022e-05 -5.2652e-06 4.56483e-06)
(1.40221e-05 -5.33213e-06 4.26142e-06)
(1.35284e-05 -5.21621e-06 4.35532e-06)
(1.48628e-05 -5.59325e-06 4.34246e-06)
(1.47919e-05 -5.68431e-06 4.87324e-06)
(1.44346e-05 -5.52814e-06 4.65418e-06)
(1.43593e-05 -5.47647e-06 4.43921e-06)
(1.48561e-05 -5.65969e-06 4.69688e-06)
(1.44407e-05 -5.46266e-06 4.30252e-06)
(1.478e-05 -5.60671e-06 4.4793e-06)
(1.34766e-05 -5.35766e-06 5.13881e-06)
(1.47227e-05 -5.75326e-06 5.28056e-06)
(1.33573e-05 -5.24263e-06 4.62219e-06)
(1.34516e-05 -5.30649e-06 4.88487e-06)
(1.38518e-05 -5.3604e-06 4.54132e-06)
(1.37957e-05 -5.43412e-06 4.9637e-06)
(1.34396e-05 -5.23074e-06 4.49856e-06)
(1.33849e-05 -5.30384e-06 4.918e-06)
(1.37682e-05 -5.37186e-06 4.66502e-06)
(1.46009e-05 -5.63057e-06 4.74667e-06)
(1.46978e-05 -5.69927e-06 5.01941e-06)
(1.42676e-05 -5.49014e-06 4.58274e-06)
(1.42102e-05 -5.5645e-06 5.00798e-06)
(1.4687e-05 -5.61996e-06 4.62292e-06)
(1.46282e-05 -5.69492e-06 5.05087e-06)
(1.41828e-05 -5.50118e-06 4.70648e-06)
(2.19978e-05 -7.67051e-06 4.82442e-06)
(2.19034e-05 -7.77338e-06 5.39339e-06)
(2.15207e-05 -7.62109e-06 5.18778e-06)
(2.14348e-05 -7.55063e-06 4.93869e-06)
(2.19829e-05 -7.75027e-06 5.21118e-06)
(2.15351e-05 -7.54204e-06 4.80242e-06)
(2.18965e-05 -7.6788e-06 4.96054e-06)
(2.06151e-05 -7.28439e-06 4.75536e-06)
(2.05246e-05 -7.38538e-06 5.31938e-06)
(2.10602e-05 -7.49166e-06 5.1633e-06)
(2.09749e-05 -7.42222e-06 4.91584e-06)
(2.06016e-05 -7.36198e-06 5.1377e-06)
(2.10742e-05 -7.41333e-06 4.77942e-06)
(2.05169e-05 -7.29358e-06 4.89191e-06)
(2.18129e-05 -7.84832e-06 5.82636e-06)
(2.04377e-05 -7.45937e-06 5.74917e-06)
(2.16806e-05 -7.69053e-06 5.22375e-06)
(2.17894e-05 -7.78144e-06 5.53754e-06)
(2.13232e-05 -7.55807e-06 5.08081e-06)
(2.12471e-05 -7.64094e-06 5.53745e-06)
(2.17838e-05 -7.68591e-06 5.10244e-06)
(2.17067e-05 -7.76921e-06 5.56027e-06)
(2.12208e-05 -7.56303e-06 5.20236e-06)