/*--------------------------------*- C++ -*----------------------------------*\
| =========                 |                                                 |
| \\      /  F ield         | OpenFOAM: The Open Source CFD Toolbox           |
|  \\    /   O peration     | Version:  2012                                  |
|   \\  /    A nd           | Website:  www.openfoam.com                      |
|    \\/     M anipulation  |                                                 |
\*---------------------------------------------------------------------------*/
FoamFile
{
    version     2.0;
    format      ascii;
    class       volVectorField;
    location    "0.108/solid";
    object      D_0_0_0;
}
// * * * * * * * * * * * * * * * * * * * * * * * * * * * * * * * * * * * * * //

dimensions      [0 1 0 0 0 0 0];


internalField   nonuniform List<vector> 
3125
(
(3.05011e-05 -9.34499e-06 7.2364e-06)
(2.20013e-05 -6.95853e-06 6.75563e-06)
(4.93082e-05 -1.4543e-05 7.60995e-06)
(4.05209e-05 -1.21122e-05 7.4452e-06)
(2.14558e-05 -6.80323e-06 6.71131e-06)
(2.11363e-05 -5.76554e-06 -9.31394e-07)
(1.38951e-05 -3.85521e-06 -8.23666e-07)
(2.14585e-05 -6.75576e-06 6.31611e-06)
(2.14048e-05 -6.81394e-06 6.82864e-06)
(2.09971e-05 -5.76149e-06 -6.45014e-07)
(1.37789e-05 -3.84911e-06 -5.65661e-07)
(2.13829e-05 -6.77087e-06 6.48921e-06)
(3.0511e-05 -9.29079e-06 6.81394e-06)
(2.22342e-05 -6.05308e-06 -9.43088e-07)
(2.20045e-05 -6.91057e-06 6.35806e-06)
(3.02124e-05 -8.14095e-06 -1.00247e-06)
(3.04411e-05 -9.35017e-06 7.35923e-06)
(2.19497e-05 -6.96885e-06 6.87345e-06)
(3.04221e-05 -9.29809e-06 6.99536e-06)
(2.2092e-05 -6.0493e-06 -6.53563e-07)
(2.19279e-05 -6.92514e-06 6.53189e-06)
(3.00519e-05 -8.13882e-06 -6.95822e-07)
(3.10835e-05 -9.5068e-06 7.2573e-06)
(3.99278e-05 -1.19492e-05 7.44015e-06)
(3.10937e-05 -9.45225e-06 6.83383e-06)
(3.96672e-05 -1.06395e-05 -1.03124e-06)
(3.13824e-05 -8.44801e-06 -1.00806e-06)
(3.99425e-05 -1.18907e-05 7.00927e-06)
(3.1023e-05 -9.51168e-06 7.38033e-06)
(3.9862e-05 -1.19506e-05 7.56449e-06)
(3.10041e-05 -9.45914e-06 7.01556e-06)
(3.94932e-05 -1.06387e-05 -7.13609e-07)
(3.12197e-05 -8.44608e-06 -6.99583e-07)
(3.9845e-05 -1.18927e-05 7.19312e-06)
(4.94493e-05 -1.45242e-05 7.22842e-06)
(4.08563e-05 -1.0957e-05 -1.03271e-06)
(4.05358e-05 -1.20536e-05 7.01425e-06)
(4.92508e-05 -1.45396e-05 7.69118e-06)
(4.04548e-05 -1.21135e-05 7.56953e-06)
(4.93618e-05 -1.452e-05 7.35837e-06)
(4.06812e-05 -1.09564e-05 -7.14249e-07)
(4.04379e-05 -1.20553e-05 7.1981e-06)
(2.64708e-05 -8.22012e-06 7.053e-06)
(2.59031e-05 -8.0608e-06 7.02118e-06)
(4.52627e-05 -1.34137e-05 7.46502e-06)
(4.46706e-05 -1.32514e-05 7.46409e-06)
(1.72249e-05 -5.58587e-06 6.29534e-06)
(1.77396e-05 -5.73531e-06 6.35347e-06)
(1.39273e-05 -4.26581e-06 2.58481e-06)
(1.72234e-05 -5.54252e-06 5.92268e-06)
(1.69206e-05 -5.10168e-06 2.76513e-06)
(1.79286e-05 -4.92307e-06 -8.90949e-07)
(2.11524e-05 -6.14443e-06 1.97451e-06)
(1.79455e-05 -5.27346e-06 1.87814e-06)
(1.39133e-05 -4.16488e-06 1.71965e-06)
(1.68918e-05 -4.64968e-06 -8.75602e-07)
(1.6909e-05 -4.99014e-06 1.84181e-06)
(1.77385e-05 -5.69142e-06 5.97763e-06)
(2.11609e-05 -6.26914e-06 2.96059e-06)
(1.79563e-05 -5.3884e-06 2.8187e-06)
(1.71795e-05 -5.59983e-06 6.40794e-06)
(1.76934e-05 -5.74885e-06 6.46675e-06)
(1.38068e-05 -4.28819e-06 2.87747e-06)
(1.71558e-05 -5.56223e-06 6.08868e-06)
(1.67883e-05 -5.12055e-06 3.07197e-06)
(1.77989e-05 -4.91817e-06 -6.15265e-07)
(2.10004e-05 -6.15442e-06 2.30224e-06)
(1.78046e-05 -5.2857e-06 2.19462e-06)
(1.3788e-05 -4.18034e-06 2.01708e-06)
(1.67654e-05 -4.64449e-06 -6.03946e-07)
(1.67719e-05 -5.00317e-06 2.15398e-06)
(1.767e-05 -5.71054e-06 6.14465e-06)
(2.1014e-05 -6.28363e-06 3.28226e-06)
(1.78203e-05 -5.40615e-06 3.12965e-06)
(2.64778e-05 -8.16858e-06 6.63977e-06)
(3.02297e-05 -8.73027e-06 3.21347e-06)
(2.67602e-05 -7.79208e-06 3.13841e-06)
(2.225e-05 -6.441e-06 2.00256e-06)
(2.55987e-05 -6.93315e-06 -9.73147e-07)
(2.56137e-05 -7.34647e-06 2.07516e-06)
(2.59096e-05 -8.00968e-06 6.6096e-06)
(2.22578e-05 -6.56879e-06 3.00182e-06)
(2.56194e-05 -7.48294e-06 3.10835e-06)
(3.02265e-05 -8.58373e-06 2.14712e-06)
(2.67404e-05 -7.23173e-06 -9.81577e-07)
(2.67552e-05 -7.65292e-06 2.09569e-06)
(2.64144e-05 -8.22753e-06 7.174e-06)
(2.58472e-05 -8.06855e-06 7.14185e-06)
(2.63942e-05 -8.17904e-06 6.81839e-06)
(3.00586e-05 -8.73729e-06 3.55393e-06)
(2.65973e-05 -7.80167e-06 3.47329e-06)
(2.20946e-05 -6.45027e-06 2.33354e-06)
(2.54481e-05 -6.93012e-06 -6.75299e-07)
(2.54486e-05 -7.3537e-06 2.41455e-06)
(2.58268e-05 -8.02062e-06 6.78772e-06)
(2.21074e-05 -6.58225e-06 3.32657e-06)
(2.54595e-05 -7.49345e-06 3.44101e-06)
(3.005e-05 -8.58854e-06 2.49497e-06)
(2.65871e-05 -7.22894e-06 -6.81297e-07)
(2.6587e-05 -7.65951e-06 2.43748e-06)
(3.51922e-05 -1.06444e-05 7.37066e-06)
(3.57826e-05 -1.08074e-05 7.38253e-06)
(3.13989e-05 -9.04604e-06 3.23378e-06)
(3.52048e-05 -1.05877e-05 6.94208e-06)
(3.4933e-05 -1.00003e-05 3.28209e-06)
(3.61033e-05 -9.69255e-06 -1.02438e-06)
(3.96798e-05 -1.11232e-05 2.22232e-06)
(3.61164e-05 -1.01639e-05 2.20314e-06)
(3.13962e-05 -8.89728e-06 2.1611e-06)
(3.49184e-05 -9.37923e-06 -1.02114e-06)
(3.49317e-05 -9.84569e-06 2.19455e-06)
(3.57955e-05 -1.07504e-05 6.95347e-06)
(3.96795e-05 -1.12839e-05 3.32147e-06)
(3.61172e-05 -1.03203e-05 3.29437e-06)
(3.51288e-05 -1.06474e-05 7.49467e-06)
(3.57188e-05 -1.08102e-05 7.50662e-06)
(3.12254e-05 -9.05228e-06 3.57576e-06)
(3.5111e-05 -1.0592e-05 7.12533e-06)
(3.47529e-05 -1.00045e-05 3.62767e-06)
(3.59334e-05 -9.69133e-06 -7.09925e-07)
(3.94876e-05 -1.11245e-05 2.57931e-06)
(3.5929e-05 -1.01663e-05 2.55778e-06)
(3.12173e-05 -8.90155e-06 2.51062e-06)
(3.47501e-05 -9.37785e-06 -7.07987e-07)
(3.47462e-05 -9.84849e-06 2.54814e-06)
(3.57011e-05 -1.07544e-05 7.13685e-06)
(3.94929e-05 -1.12858e-05 3.66987e-06)
(3.59353e-05 -1.03238e-05 3.64086e-06)
(4.5279e-05 -1.33541e-05 7.03473e-06)
(4.94485e-05 -1.3913e-05 3.15992e-06)
(4.56188e-05 -1.28962e-05 3.34197e-06)
(4.08687e-05 -1.14441e-05 2.22681e-06)
(4.44207e-05 -1.19142e-05 -1.03527e-06)
(4.44327e-05 -1.24088e-05 2.23567e-06)
(4.46866e-05 -1.31918e-05 7.03363e-06)
(4.08681e-05 -1.16059e-05 3.32769e-06)
(4.44313e-05 -1.25731e-05 3.33969e-06)
(4.94478e-05 -1.38294e-05 2.60629e-06)
(4.56085e-05 -1.22349e-05 -1.03565e-06)
(4.56202e-05 -1.27312e-05 2.23737e-06)
(4.51953e-05 -1.3414e-05 7.58899e-06)
(4.46032e-05 -1.32518e-05 7.58813e-06)
(4.51791e-05 -1.33545e-05 7.21817e-06)
(4.93515e-05 -1.39126e-05 3.33588e-06)
(4.54272e-05 -1.28964e-05 3.69135e-06)
(4.06752e-05 -1.14451e-05 2.58434e-06)
(4.42431e-05 -1.19137e-05 -7.14968e-07)
(4.42363e-05 -1.2409e-05 2.59418e-06)
(4.45869e-05 -1.31923e-05 7.21715e-06)
(4.06802e-05 -1.16073e-05 3.67648e-06)
(4.42405e-05 -1.25736e-05 3.68908e-06)
(4.935e-05 -1.3829e-05 2.78349e-06)
(4.54303e-05 -1.22345e-05 -7.14994e-07)
(4.54231e-05 -1.27312e-05 2.59597e-06)
(2.8763e-05 -8.86106e-06 7.16596e-06)
(2.36566e-05 -7.4279e-06 6.87884e-06)
(4.76408e-05 -1.40661e-05 7.47304e-06)
(4.23001e-05 -1.2601e-05 7.45645e-06)
(1.5213e-05 -4.99731e-06 6.0446e-06)
(1.98401e-05 -6.34119e-06 6.56829e-06)
(1.52091e-05 -4.95618e-06 5.6857e-06)
(1.51632e-05 -4.80261e-06 4.33492e-06)
(2.0052e-05 -5.48122e-06 -9.18821e-07)
(2.11392e-05 -5.89295e-06 3.28973e-08)
(2.00547e-05 -5.60558e-06 3.12205e-08)
(1.38964e-05 -3.95986e-06 1.95755e-08)
(1.48738e-05 -4.11549e-06 -8.41982e-07)
(1.48754e-05 -4.22356e-06 2.16913e-08)
(1.98413e-05 -6.29521e-06 6.18079e-06)
(2.14269e-05 -6.57129e-06 4.82226e-06)
(1.98061e-05 -6.11798e-06 4.71708e-06)
(1.51704e-05 -5.01298e-06 6.15421e-06)
(1.97911e-05 -6.35308e-06 6.68403e-06)
(1.51459e-05 -4.97832e-06 5.84724e-06)
(1.50988e-05 -4.8191e-06 4.49352e-06)
(1.99159e-05 -5.47689e-06 -6.35789e-07)
(2.09928e-05 -5.89345e-06 3.39231e-07)
(1.99115e-05 -5.60614e-06 3.34084e-07)
(1.37747e-05 -3.96077e-06 2.96259e-07)
(1.47542e-05 -4.1097e-06 -5.7915e-07)
(1.47499e-05 -4.22441e-06 3.03449e-07)
(1.97686e-05 -6.312e-06 6.35149e-06)
(2.13505e-05 -6.58254e-06 4.99284e-06)
(1.97325e-05 -6.13045e-06 4.88516e-06)
(2.87717e-05 -8.80794e-06 6.74698e-06)
(3.04953e-05 -9.07327e-06 5.21045e-06)
(2.87532e-05 -8.59572e-06 5.15758e-06)
(2.22373e-05 -6.18346e-06 3.44943e-08)
(2.33446e-05 -6.34365e-06 -9.53929e-07)
(2.33479e-05 -6.47692e-06 3.60118e-08)
(2.36613e-05 -7.37853e-06 6.47472e-06)
(2.19739e-05 -6.72367e-06 4.85446e-06)
(2.36341e-05 -7.18483e-06 4.94536e-06)
(3.02167e-05 -8.28941e-06 4.35157e-08)
(2.90482e-05 -7.83578e-06 -9.9621e-07)
(2.90524e-05 -7.98198e-06 4.24437e-08)
(2.87045e-05 -8.86716e-06 7.28811e-06)
(2.36031e-05 -7.43708e-06 6.99801e-06)
(2.86849e-05 -8.81654e-06 6.92735e-06)
(3.0406e-05 -9.0787e-06 5.39006e-06)
(2.86659e-05 -8.6021e-06 5.336e-06)
(2.20877e-05 -6.18391e-06 3.44078e-07)
(2.31995e-05 -6.34013e-06 -6.6145e-07)
(2.31951e-05 -6.47731e-06 3.48636e-07)
(2.3582e-05 -7.3915e-06 6.65057e-06)
(2.18965e-05 -6.73449e-06 5.02583e-06)
(2.35541e-05 -7.19448e-06 5.11885e-06)
(3.00475e-05 -8.28952e-06 3.70508e-07)
(2.889e-05 -7.83344e-06 -6.91536e-07)
(2.88856e-05 -7.98214e-06 3.67465e-07)
(3.28383e-05 -9.99344e-06 7.3127e-06)
(3.81494e-05 -1.14598e-05 7.42054e-06)
(3.10787e-05 -9.23297e-06 5.22599e-06)
(3.28496e-05 -9.93792e-06 6.88664e-06)
(3.28371e-05 -9.71389e-06 5.26806e-06)
(3.84783e-05 -1.03228e-05 -1.02939e-06)
(3.96725e-05 -1.08014e-05 5.00883e-08)
(3.84835e-05 -1.04835e-05 4.94369e-08)
(3.13868e-05 -8.5986e-06 4.45227e-08)
(3.25572e-05 -8.75683e-06 -1.01301e-06)
(3.25618e-05 -8.90944e-06 4.54715e-08)
(3.81633e-05 -1.14019e-05 6.99014e-06)
(3.99375e-05 -1.16519e-05 5.36828e-06)
(3.81567e-05 -1.11661e-05 5.35189e-06)
(3.27765e-05 -9.99748e-06 7.43623e-06)
(3.80844e-05 -1.14618e-05 7.54485e-06)
(3.09887e-05 -9.23807e-06 5.40596e-06)
(3.27581e-05 -9.94362e-06 7.06914e-06)
(3.27453e-05 -9.71814e-06 5.44894e-06)
(3.83055e-05 -1.03219e-05 -7.127e-07)
(3.94888e-05 -1.08012e-05 3.87672e-07)
(3.83011e-05 -1.04834e-05 3.86158e-07)
(3.12153e-05 -8.59867e-06 3.73332e-07)
(3.23925e-05 -8.7551e-06 -7.02845e-07)
(3.23882e-05 -8.90947e-06 3.75947e-07)
(3.80671e-05 -1.14047e-05 7.17389e-06)
(3.984e-05 -1.16534e-05 5.55113e-06)
(3.80603e-05 -1.11681e-05 5.53449e-06)
(4.76637e-05 -1.40083e-05 7.0455e-06)
(4.94577e-05 -1.42529e-05 5.40461e-06)
(4.76733e-05 -1.37641e-05 5.39761e-06)
(4.08617e-05 -1.112e-05 5.06878e-08)
(4.20452e-05 -1.12754e-05 -1.03384e-06)
(4.20506e-05 -1.14393e-05 5.12338e-08)
(4.23155e-05 -1.25419e-05 7.02553e-06)
(4.05311e-05 -1.18139e-05 5.37257e-06)
(4.23123e-05 -1.22999e-05 5.38295e-06)
(4.94439e-05 -1.34955e-05 4.0463e-07)
(4.80231e-05 -1.30546e-05 5.08237e-08)
(4.75735e-05 -1.40659e-05 7.59342e-06)
(4.22334e-05 -1.26018e-05 7.5807e-06)
(4.75637e-05 -1.4008e-05 7.22503e-06)
(4.93577e-05 -1.42531e-05 5.58955e-06)
(4.75728e-05 -1.37642e-05 5.58101e-06)
(4.06768e-05 -1.11199e-05 3.89024e-07)
(4.18691e-05 -1.12748e-05 -7.14659e-07)
(4.18646e-05 -1.14391e-05 3.9021e-07)
(4.22168e-05 -1.2543e-05 7.2093e-06)
(4.04332e-05 -1.18152e-05 5.55548e-06)
(4.22135e-05 -1.23007e-05 5.56594e-06)
(4.93478e-05 -1.34952e-05 5.77925e-07)
(4.78334e-05 -1.30541e-05 3.92487e-07)
(2.8187e-05 -8.70032e-06 7.13982e-06)
(2.42143e-05 -7.58542e-06 6.91673e-06)
(4.70425e-05 -1.39016e-05 7.46848e-06)
(4.2893e-05 -1.27638e-05 7.45905e-06)
(1.57087e-05 -5.14299e-06 6.11004e-06)
(1.9309e-05 -6.18857e-06 6.51721e-06)
(1.39462e-05 -4.36795e-06 3.47034e-06)
(1.49049e-05 -4.5401e-06 2.64824e-06)
(1.49226e-05 -4.6459e-06 3.55449e-06)
(1.57054e-05 -5.1013e-06 5.74753e-06)
(1.71824e-05 -5.37818e-06 4.51787e-06)
(1.56606e-05 -4.94493e-06 4.38217e-06)
(1.59031e-05 -4.81882e-06 2.70833e-06)
(1.6936e-05 -5.2146e-06 3.70948e-06)
(1.59196e-05 -4.92821e-06 3.63418e-06)
(1.89824e-05 -5.20033e-06 -9.05347e-07)
(1.79308e-05 -5.0411e-06 2.76312e-08)
(1.89848e-05 -5.32155e-06 2.94647e-08)
(2.11451e-05 -6.01908e-06 9.99096e-07)
(2.00684e-05 -5.85084e-06 1.94446e-06)
(2.00606e-05 -5.72863e-06 9.83229e-07)
(1.7937e-05 -5.15775e-06 9.48292e-07)
(1.8999e-05 -5.56044e-06 1.91235e-06)
(1.89909e-05 -5.44144e-06 9.66301e-07)
(1.3903e-05 -4.06297e-06 8.65101e-07)
(1.48917e-05 -4.43557e-06 1.76259e-06)
(1.48819e-05 -4.33014e-06 8.87602e-07)
(1.58731e-05 -4.3804e-06 -8.59288e-07)
(1.68938e-05 -4.76445e-06 2.57226e-08)
(1.58749e-05 -4.49185e-06 2.37415e-08)
(1.58907e-05 -4.71076e-06 1.8033e-06)
(1.69001e-05 -4.8778e-06 9.29182e-07)
(1.58813e-05 -4.60184e-06 9.08957e-07)
(1.93096e-05 -6.14311e-06 6.13247e-06)
(1.76987e-05 -5.52438e-06 4.55991e-06)
(1.92734e-05 -5.96844e-06 4.68006e-06)
(2.11719e-05 -6.39544e-06 3.96827e-06)
(2.00776e-05 -5.97237e-06 2.91637e-06)
(2.00897e-05 -6.09545e-06 3.90978e-06)
(1.79706e-05 -5.50479e-06 3.78047e-06)
(1.9009e-05 -5.67871e-06 2.8691e-06)
(1.90222e-05 -5.79849e-06 3.8472e-06)
(1.56654e-05 -5.15824e-06 6.22044e-06)
(1.92606e-05 -6.20087e-06 6.63237e-06)
(1.38323e-05 -4.39514e-06 3.75291e-06)
(1.47804e-05 -4.56129e-06 2.94594e-06)
(1.48048e-05 -4.67164e-06 3.84183e-06)
(1.56411e-05 -5.12283e-06 5.91025e-06)
(1.71138e-05 -5.39286e-06 4.68106e-06)
(1.55951e-05 -4.96093e-06 4.542e-06)
(1.57746e-05 -4.83885e-06 3.01075e-06)
(1.68107e-05 -5.23754e-06 4.00544e-06)
(1.5798e-05 -4.95255e-06 3.92598e-06)
(1.88495e-05 -5.19572e-06 -6.25876e-07)
(1.77946e-05 -5.04177e-06 3.22845e-07)
(1.88451e-05 -5.32217e-06 3.28625e-07)
(2.09936e-05 -6.02426e-06 1.32083e-06)
(1.992e-05 -5.86156e-06 2.26869e-06)
(1.99127e-05 -5.73419e-06 1.30143e-06)
(1.77963e-05 -5.16412e-06 1.25866e-06)
(1.88543e-05 -5.57192e-06 2.23284e-06)
(1.88465e-05 -5.4474e-06 1.28072e-06)
(1.37776e-05 -4.07105e-06 1.15639e-06)
(1.47624e-05 -4.45021e-06 2.06526e-06)
(1.47525e-05 -4.33778e-06 1.18413e-06)
(1.57501e-05 -4.37491e-06 -5.91909e-07)
(1.67611e-05 -4.76518e-06 3.1673e-07)
(1.57458e-05 -4.49264e-06 3.10269e-07)
(1.57574e-05 -4.72459e-06 2.11088e-06)
(1.67631e-05 -4.88459e-06 1.23523e-06)
(1.57481e-05 -4.60905e-06 1.2104e-06)
(1.92379e-05 -6.16047e-06 6.30231e-06)
(1.7629e-05 -5.53859e-06 4.72417e-06)
(1.92008e-05 -5.98137e-06 4.84722e-06)
(2.10324e-05 -6.41307e-06 4.27811e-06)
(1.99342e-05 -5.98792e-06 3.23473e-06)
(1.99536e-05 -6.11437e-06 4.21653e-06)
(1.78416e-05 -5.52636e-06 4.08029e-06)
(1.88693e-05 -5.69535e-06 3.18388e-06)
(1.88896e-05 -5.81872e-06 4.15062e-06)
(2.81953e-05 -8.64759e-06 6.72216e-06)
(2.64555e-05 -7.96414e-06 5.07365e-06)
(2.8176e-05 -8.43731e-06 5.13832e-06)
(3.02335e-05 -8.87868e-06 4.30149e-06)
(2.90663e-05 -8.41591e-06 3.19087e-06)
(2.90708e-05 -8.56195e-06 4.27187e-06)
(2.67665e-05 -7.93302e-06 4.20292e-06)
(2.79095e-05 -8.10312e-06 3.16588e-06)
(2.79148e-05 -8.24668e-06 4.23905e-06)
(2.22431e-05 -6.3126e-06 1.01392e-06)
(2.33601e-05 -6.74032e-06 2.02865e-06)
(2.33536e-05 -6.60896e-06 1.02774e-06)
(2.44665e-05 -6.63706e-06 -9.6394e-07)
(2.56024e-05 -7.0719e-06 3.8811e-08)
(2.447e-05 -6.77312e-06 3.74508e-08)
(2.44817e-05 -7.04221e-06 2.05283e-06)
(2.56079e-05 -7.20948e-06 1.05242e-06)
(2.44755e-05 -6.90799e-06 1.04056e-06)
(2.42194e-05 -7.5356e-06 6.51061e-06)
(2.58865e-05 -7.80736e-06 5.05035e-06)
(2.41931e-05 -7.33961e-06 4.97298e-06)
(2.22678e-05 -6.69822e-06 4.02277e-06)
(2.33672e-05 -6.87111e-06 3.04014e-06)
(2.33762e-05 -7.00357e-06 4.07338e-06)
(2.56266e-05 -7.62117e-06 4.16334e-06)
(2.44881e-05 -7.17589e-06 3.07563e-06)
(2.44962e-05 -7.31128e-06 4.1202e-06)
(3.02219e-05 -8.43679e-06 1.09086e-06)
(2.90625e-05 -8.27171e-06 2.13161e-06)
(2.90576e-05 -8.12709e-06 1.08253e-06)
(2.78905e-05 -7.53266e-06 -9.89255e-07)
(2.67443e-05 -7.37308e-06 4.00947e-08)
(2.78946e-05 -7.67649e-06 4.13043e-08)
(2.79051e-05 -7.96139e-06 2.11449e-06)
(2.67497e-05 -7.51328e-06 1.06335e-06)
(2.78999e-05 -7.8192e-06 1.07337e-06)
(2.8129e-05 -8.70674e-06 7.26171e-06)
(2.41602e-05 -7.59424e-06 7.0363e-06)
(2.81093e-05 -8.65664e-06 6.90213e-06)
(2.63713e-05 -7.9719e-06 5.25014e-06)
(2.80896e-05 -8.44405e-06 5.31628e-06)
(3.00705e-05 -8.88728e-06 4.62858e-06)
(2.88978e-05 -8.42375e-06 3.52965e-06)
(2.89104e-05 -8.57154e-06 4.59745e-06)
(2.66114e-05 -7.94472e-06 4.52497e-06)
(2.77437e-05 -8.11183e-06 3.50281e-06)
(2.77571e-05 -8.2573e-06 4.56296e-06)
(2.20882e-05 -6.31739e-06 1.33896e-06)
(2.32014e-05 -6.74889e-06 2.36265e-06)
(2.31955e-05 -6.61338e-06 1.35585e-06)
(2.43185e-05 -6.63379e-06 -6.6869e-07)
(2.54437e-05 -7.07219e-06 3.5693e-07)
(2.43142e-05 -6.77347e-06 3.52917e-07)
(2.43197e-05 -7.0501e-06 2.38963e-06)
(2.54435e-05 -7.21319e-06 1.38606e-06)
(2.43142e-05 -6.91205e-06 1.37154e-06)
(2.41392e-05 -7.54805e-06 6.68707e-06)
(2.58031e-05 -7.81551e-06 5.22629e-06)
(2.41122e-05 -7.34886e-06 5.14713e-06)
(2.2125e-05 -6.7146e-06 4.33548e-06)
(2.32135e-05 -6.88355e-06 3.36774e-06)
(2.32302e-05 -7.01872e-06 4.38873e-06)
(2.54744e-05 -7.63398e-06 4.48336e-06)
(2.43312e-05 -7.18735e-06 3.40586e-06)
(2.4347e-05 -7.32525e-06 4.43798e-06)
(3.00465e-05 -8.43922e-06 1.43331e-06)
(2.88886e-05 -8.27709e-06 2.47761e-06)
(2.88848e-05 -8.12982e-06 1.42304e-06)
(2.77348e-05 -7.5301e-06 -6.86703e-07)
(2.65828e-05 -7.37332e-06 3.60685e-07)
(2.77304e-05 -7.67669e-06 3.64194e-07)
(2.7734e-05 -7.96736e-06 2.45847e-06)
(2.65824e-05 -7.51665e-06 1.39946e-06)
(2.77298e-05 -7.82224e-06 1.41178e-06)
(3.34254e-05 -1.0156e-05 7.32883e-06)
(3.7557e-05 -1.12967e-05 7.41239e-06)
(3.14019e-05 -9.1967e-06 4.32806e-06)
(3.25731e-05 -9.36307e-06 3.25191e-06)
(3.25753e-05 -9.51585e-06 4.35172e-06)
(3.34371e-05 -1.01002e-05 6.90204e-06)
(3.51952e-05 -1.0358e-05 5.31253e-06)
(3.34252e-05 -9.87457e-06 5.28021e-06)
(3.37513e-05 -9.68122e-06 3.26798e-06)
(3.49339e-05 -1.0157e-05 4.3909e-06)
(3.37529e-05 -9.83599e-06 4.37262e-06)
(3.72902e-05 -1.00071e-05 -1.02711e-06)
(3.61083e-05 -9.85042e-06 4.79945e-08)
(3.72953e-05 -1.01665e-05 4.87386e-08)
(3.96772e-05 -1.09624e-05 1.13212e-06)
(3.84911e-05 -1.08028e-05 2.21694e-06)
(3.84883e-05 -1.06433e-05 1.12905e-06)
(3.61132e-05 -1.00073e-05 1.12132e-06)
(3.73031e-05 -1.0483e-05 2.21057e-06)
(3.73001e-05 -1.03249e-05 1.12546e-06)
(3.1392e-05 -8.74815e-06 1.09839e-06)
(3.25708e-05 -9.21222e-06 2.17361e-06)
(3.25669e-05 -9.06102e-06 1.10516e-06)
(3.37361e-05 -9.06729e-06 -1.01736e-06)
(3.49233e-05 -9.53548e-06 4.72036e-08)
(3.37409e-05 -9.22178e-06 4.63637e-08)
(3.37496e-05 -9.5284e-06 2.18474e-06)
(3.49283e-05 -9.69074e-06 1.11658e-06)
(3.37459e-05 -9.37526e-06 1.11121e-06)
(3.75708e-05 -1.1239e-05 6.98224e-06)
(3.57864e-05 -1.05193e-05 5.32166e-06)
(3.75637e-05 -1.10043e-05 5.34539e-06)
(3.96783e-05 -1.14466e-05 4.44125e-06)
(3.84911e-05 -1.09622e-05 3.31394e-06)
(3.84904e-05 -1.11236e-05 4.43174e-06)
(3.61175e-05 -1.04786e-05 4.40674e-06)
(3.73035e-05 -1.06409e-05 3.30495e-06)
(3.73033e-05 -1.08009e-05 4.4203e-06)
(3.33632e-05 -1.01598e-05 7.4525e-06)
(3.74923e-05 -1.12988e-05 7.53666e-06)
(3.12366e-05 -9.20434e-06 4.65649e-06)
(3.23972e-05 -9.36856e-06 3.59525e-06)
(3.24077e-05 -9.52259e-06 4.68133e-06)
(3.33449e-05 -1.01055e-05 7.08476e-06)
(3.51012e-05 -1.03611e-05 5.49436e-06)
(3.33327e-05 -9.87852e-06 5.46137e-06)
(3.35733e-05 -9.686e-06 3.61251e-06)
(3.47622e-05 -1.01621e-05 4.72244e-06)
(3.35832e-05 -9.84188e-06 4.70327e-06)
(3.71187e-05 -1.0006e-05 -7.11484e-07)
(3.5929e-05 -9.85034e-06 3.82616e-07)
(3.71143e-05 -1.01664e-05 3.84473e-07)
(3.94864e-05 -1.09629e-05 1.4846e-06)
(3.83003e-05 -1.08044e-05 2.57328e-06)
(3.82989e-05 -1.0644e-05 1.48076e-06)
(3.59271e-05 -1.00084e-05 1.4711e-06)
(3.71139e-05 -1.0485e-05 2.56613e-06)
(3.71123e-05 -1.03258e-05 1.47627e-06)
(3.12141e-05 -8.75028e-06 1.44261e-06)
(3.23896e-05 -9.21597e-06 2.52465e-06)
(3.23868e-05 -9.06288e-06 1.451e-06)
(3.35696e-05 -9.06574e-06 -7.05637e-07)
(3.47457e-05 -9.53544e-06 3.80581e-07)
(3.35652e-05 -9.22177e-06 3.78361e-07)
(3.35661e-05 -9.53166e-06 2.53713e-06)
(3.4744e-05 -9.6921e-06 1.46519e-06)
(3.35636e-05 -9.37687e-06 1.45851e-06)
(3.7475e-05 -1.1242e-05 7.16592e-06)
(3.56918e-05 -1.05222e-05 5.50368e-06)
(3.74678e-05 -1.10066e-05 5.52787e-06)
(3.95002e-05 -1.14489e-05 4.77502e-06)
(3.83059e-05 -1.09646e-05 3.66183e-06)
(3.83137e-05 -1.11265e-05 4.76514e-06)
(3.59441e-05 -1.0483e-05 4.73903e-06)
(3.71199e-05 -1.06439e-05 3.6522e-06)
(3.71281e-05 -1.08045e-05 4.7532e-06)
(4.70617e-05 -1.38426e-05 7.03938e-06)
(4.52779e-05 -1.31094e-05 5.39258e-06)
(4.70674e-05 -1.35983e-05 5.39602e-06)
(4.94533e-05 -1.41662e-05 4.83511e-06)
(4.80274e-05 -1.35529e-05 3.34511e-06)
(4.80261e-05 -1.37214e-05 4.46973e-06)
(4.56157e-05 -1.30633e-05 4.46622e-06)
(4.6812e-05 -1.32213e-05 3.3437e-06)
(4.68093e-05 -1.3389e-05 4.46828e-06)
(4.08663e-05 -1.12822e-05 1.13471e-06)
(4.20574e-05 -1.17654e-05 2.23047e-06)
(4.20552e-05 -1.16024e-05 1.13687e-06)
(4.32333e-05 -1.15945e-05 -1.03468e-06)
(4.44263e-05 -1.20796e-05 5.21388e-08)
(4.32388e-05 -1.17592e-05 5.17203e-08)
(4.32454e-05 -1.20869e-05 2.2334e-06)
(4.44308e-05 -1.22443e-05 1.14e-06)
(4.32434e-05 -1.19231e-05 1.13862e-06)
(4.29086e-05 -1.27045e-05 7.02822e-06)
(4.4685e-05 -1.29475e-05 5.39129e-06)
(4.29055e-05 -1.24618e-05 5.38548e-06)
(4.08664e-05 -1.17697e-05 4.449e-06)
(4.20565e-05 -1.19281e-05 3.3327e-06)
(4.20544e-05 -1.2093e-05 4.45518e-06)
(4.44285e-05 -1.27397e-05 4.46356e-06)
(4.32443e-05 -1.22506e-05 3.33666e-06)
(4.32418e-05 -1.24163e-05 4.45996e-06)
(4.9445e-05 -1.35789e-05 9.53288e-07)
(4.8027e-05 -1.33863e-05 2.23874e-06)
(4.80255e-05 -1.32203e-05 1.14092e-06)
(4.68026e-05 -1.25582e-05 -1.03612e-06)
(4.56141e-05 -1.24009e-05 5.24545e-08)
(4.68076e-05 -1.27245e-05 5.23921e-08)
(4.6813e-05 -1.30556e-05 2.23849e-06)
(4.56184e-05 -1.25661e-05 1.14103e-06)
(4.68113e-05 -1.289e-05 1.14155e-06)
(4.69748e-05 -1.39017e-05 7.5911e-06)
(4.28261e-05 -1.27645e-05 7.58326e-06)
(4.69615e-05 -1.38427e-05 7.22127e-06)
(4.5178e-05 -1.31097e-05 5.57554e-06)
(4.6967e-05 -1.35984e-05 5.57906e-06)
(4.9357e-05 -1.41662e-05 5.01187e-06)
(4.78346e-05 -1.35525e-05 3.69526e-06)
(4.78418e-05 -1.37213e-05 4.80561e-06)
(4.54329e-05 -1.30637e-05 4.80041e-06)
(4.662e-05 -1.32212e-05 3.69305e-06)
(4.6626e-05 -1.33891e-05 4.80249e-06)
(4.06743e-05 -1.12825e-05 1.48785e-06)
(4.18628e-05 -1.1766e-05 2.58843e-06)
(4.1862e-05 -1.16026e-05 1.49055e-06)
(4.30564e-05 -1.15939e-05 -7.14881e-07)
(4.42387e-05 -1.20794e-05 3.92064e-07)
(4.30519e-05 -1.1759e-05 3.91231e-07)
(4.30498e-05 -1.20874e-05 2.59168e-06)
(4.42359e-05 -1.22442e-05 1.49446e-06)
(4.30493e-05 -1.19232e-05 1.49275e-06)
(4.28096e-05 -1.27055e-05 7.21193e-06)
(4.45853e-05 -1.29479e-05 5.57425e-06)
(4.28065e-05 -1.24625e-05 5.5685e-06)
(4.06872e-05 -1.17716e-05 4.78303e-06)
(4.18675e-05 -1.19292e-05 3.68179e-06)
(4.1874e-05 -1.20944e-05 4.78937e-06)
(4.42464e-05 -1.27403e-05 4.79784e-06)
(4.30542e-05 -1.22513e-05 3.68595e-06)
(4.30605e-05 -1.24173e-05 4.79424e-06)
(4.93478e-05 -1.35785e-05 1.12873e-06)
(4.78288e-05 -1.33858e-05 2.59779e-06)
(4.78287e-05 -1.32197e-05 1.4963e-06)
(4.66239e-05 -1.25578e-05 -7.15102e-07)
(4.54258e-05 -1.24006e-05 3.92655e-07)
(4.66189e-05 -1.27241e-05 3.92815e-07)
(4.66154e-05 -1.30554e-05 2.5971e-06)
(4.54228e-05 -1.25659e-05 1.49567e-06)
(4.66153e-05 -1.28897e-05 1.49629e-06)
(2.99202e-05 -9.18342e-06 7.21422e-06)
(2.255e-05 -7.11443e-06 6.79832e-06)
(4.88165e-05 -1.4395e-05 7.52068e-06)
(4.1114e-05 -1.22752e-05 7.44957e-06)
(1.42369e-05 -4.70907e-06 5.90811e-06)
(2.09137e-05 -6.64856e-06 6.66532e-06)
(1.42668e-05 -4.60002e-06 4.9564e-06)
(1.42319e-05 -4.66909e-06 5.55673e-06)
(1.42714e-05 -4.64427e-06 5.36084e-06)
(1.42142e-05 -4.61933e-06 5.10582e-06)
(2.09693e-05 -6.52656e-06 5.6041e-06)
(2.09159e-05 -6.60157e-06 6.27259e-06)
(2.15097e-05 -6.73412e-06 6.09934e-06)
(2.14467e-05 -6.69339e-06 5.80689e-06)
(2.09663e-05 -6.57972e-06 6.05698e-06)
(2.09037e-05 -6.54003e-06 5.76665e-06)
(2.15132e-05 -6.68034e-06 5.64356e-06)
(1.41959e-05 -4.72563e-06 6.01604e-06)
(2.08634e-05 -6.65965e-06 6.78215e-06)
(1.40958e-05 -4.65846e-06 5.3971e-06)
(1.4171e-05 -4.69248e-06 5.71578e-06)
(1.41534e-05 -4.64008e-06 5.26239e-06)
(1.41234e-05 -4.69939e-06 5.74612e-06)
(2.07605e-05 -6.56564e-06 6.08208e-06)
(2.08412e-05 -6.61724e-06 6.44492e-06)
(2.13716e-05 -6.70677e-06 5.97749e-06)
(2.13262e-05 -6.76969e-06 6.51866e-06)
(2.08295e-05 -6.55391e-06 5.93648e-06)
(2.07851e-05 -6.6166e-06 6.47445e-06)
(2.13018e-05 -6.71804e-06 6.12371e-06)
(3.00016e-05 -9.04895e-06 6.07687e-06)
(2.99296e-05 -9.12957e-06 6.79285e-06)
(3.05728e-05 -9.27227e-06 6.58428e-06)
(3.05049e-05 -9.21699e-06 6.26798e-06)
(2.99909e-05 -9.11088e-06 6.56371e-06)
(2.99232e-05 -9.05637e-06 6.24836e-06)
(3.05839e-05 -9.20989e-06 6.09614e-06)
(2.2611e-05 -6.98978e-06 5.71825e-06)
(2.25537e-05 -7.066e-06 6.39847e-06)
(2.20565e-05 -6.88915e-06 6.14017e-06)
(2.19931e-05 -6.84739e-06 5.84564e-06)
(2.26064e-05 -7.04478e-06 6.1795e-06)
(2.20605e-05 -6.83475e-06 5.68159e-06)
(2.25427e-05 -7.002e-06 5.88302e-06)
(2.98606e-05 -9.1889e-06 7.33685e-06)
(2.24977e-05 -7.12437e-06 6.91661e-06)
(2.97556e-05 -9.06814e-06 6.57975e-06)
(2.98414e-05 -9.13729e-06 6.97394e-06)
(3.04168e-05 -9.22342e-06 6.44699e-06)
(3.03573e-05 -9.2894e-06 7.02379e-06)
(2.98358e-05 -9.06318e-06 6.42703e-06)
(2.97771e-05 -9.12901e-06 7.00242e-06)
(3.0336e-05 -9.22803e-06 6.59996e-06)
(2.23944e-05 -7.02476e-06 6.20245e-06)
(2.24762e-05 -7.08002e-06 6.573e-06)
(2.19171e-05 -6.86028e-06 6.01698e-06)
(2.18707e-05 -6.92343e-06 6.56126e-06)
(2.18465e-05 -6.87108e-06 6.1638e-06)
(2.24658e-05 -7.01442e-06 6.05506e-06)
(2.24184e-05 -7.07779e-06 6.6023e-06)
(3.16672e-05 -9.66882e-06 7.27696e-06)
(3.93348e-05 -1.17861e-05 7.43439e-06)
(3.17526e-05 -9.53251e-06 6.13146e-06)
(3.11561e-05 -9.4339e-06 6.60369e-06)
(3.10879e-05 -9.37787e-06 6.28648e-06)
(3.16778e-05 -9.61394e-06 6.85257e-06)
(3.11676e-05 -9.37108e-06 6.11432e-06)
(3.17408e-05 -9.59576e-06 6.62197e-06)
(3.16723e-05 -9.53899e-06 6.30393e-06)
(3.94336e-05 -1.16438e-05 6.27116e-06)
(3.93493e-05 -1.17278e-05 7.00362e-06)
(4.00112e-05 -1.18744e-05 6.77542e-06)
(3.99402e-05 -1.18096e-05 6.45126e-06)
(3.94177e-05 -1.17114e-05 6.76984e-06)
(3.93468e-05 -1.1647e-05 6.44581e-06)
(4.00273e-05 -1.18065e-05 6.27655e-06)
(3.16063e-05 -9.67342e-06 7.40018e-06)
(3.92692e-05 -1.17877e-05 7.55872e-06)
(3.1501e-05 -9.54859e-06 6.63699e-06)
(3.09991e-05 -9.38393e-06 6.4658e-06)
(3.09389e-05 -9.45005e-06 7.04393e-06)
(3.15875e-05 -9.62042e-06 7.03457e-06)
(3.09178e-05 -9.38818e-06 6.61902e-06)
(3.15829e-05 -9.54469e-06 6.48355e-06)
(3.1522e-05 -9.61095e-06 7.0629e-06)
(3.91632e-05 -1.16491e-05 6.78224e-06)
(3.92522e-05 -1.173e-05 7.18745e-06)
(3.98438e-05 -1.18112e-05 6.63287e-06)
(3.97751e-05 -1.18789e-05 7.22083e-06)
(3.92508e-05 -1.16489e-05 6.6274e-06)
(3.91825e-05 -1.17165e-05 7.21521e-06)
(3.97559e-05 -1.18113e-05 6.78771e-06)
(4.89843e-05 -1.42628e-05 6.33325e-06)
(4.88893e-05 -1.43532e-05 7.11001e-06)
(4.95206e-05 -1.44987e-05 6.9284e-06)
(4.9458e-05 -1.44287e-05 6.57572e-06)
(4.89514e-05 -1.43313e-05 6.85032e-06)
(4.89094e-05 -1.42724e-05 6.53407e-06)
(4.95482e-05 -1.44218e-05 6.36453e-06)
(4.12149e-05 -1.2132e-05 6.28555e-06)
(4.11291e-05 -1.22164e-05 7.01859e-06)
(4.06048e-05 -1.20374e-05 6.78036e-06)
(4.05337e-05 -1.19721e-05 6.45608e-06)
(4.11984e-05 -1.22003e-05 6.78467e-06)
(4.06211e-05 -1.19693e-05 6.28133e-06)
(4.11271e-05 -1.21347e-05 6.46031e-06)
(4.8754e-05 -1.43937e-05 7.6244e-06)
(4.10477e-05 -1.22763e-05 7.57388e-06)
(4.87053e-05 -1.42623e-05 6.83816e-06)
(4.87937e-05 -1.43517e-05 7.27213e-06)
(4.93645e-05 -1.44281e-05 6.74198e-06)
(4.92833e-05 -1.44899e-05 7.30049e-06)
(4.88099e-05 -1.42719e-05 6.712e-06)
(4.87118e-05 -1.43287e-05 7.2676e-06)
(4.92714e-05 -1.44212e-05 6.86517e-06)
(4.09416e-05 -1.21356e-05 6.79675e-06)
(4.10309e-05 -1.22179e-05 7.20243e-06)
(4.04369e-05 -1.19736e-05 6.63771e-06)
(4.03678e-05 -1.20414e-05 7.22576e-06)
(4.03487e-05 -1.19735e-05 6.79253e-06)
(4.103e-05 -1.2136e-05 6.64195e-06)
(4.09606e-05 -1.22038e-05 7.23005e-06)
(4.87108e-05 -1.31797e-05 -3.5459e-07)
(4.93484e-05 -1.33283e-05 -5.22659e-07)
(4.87975e-05 -1.31781e-05 -5.22502e-07)
(4.92604e-05 -1.3329e-05 -3.58143e-07)
(2.70408e-05 -8.37983e-06 7.08336e-06)
(2.53376e-05 -7.90189e-06 6.98788e-06)
(4.58549e-05 -1.3576e-05 7.46577e-06)
(4.40783e-05 -1.3089e-05 7.46282e-06)
(1.67148e-05 -5.43731e-06 6.2354e-06)
(1.82585e-05 -5.8856e-06 6.40982e-06)
(1.6755e-05 -5.32304e-06 5.23596e-06)
(1.67127e-05 -5.39451e-06 5.86601e-06)
(1.72681e-05 -5.5191e-06 5.71657e-06)
(1.72083e-05 -5.48711e-06 5.44351e-06)
(1.67566e-05 -5.37086e-06 5.66147e-06)
(1.72671e-05 -5.47058e-06 5.28724e-06)
(1.66972e-05 -5.34002e-06 5.39117e-06)
(1.83046e-05 -5.76832e-06 5.3852e-06)
(1.82581e-05 -5.84118e-06 6.03091e-06)
(1.77841e-05 -5.66823e-06 5.77002e-06)
(1.77239e-05 -5.63511e-06 5.49421e-06)
(1.83045e-05 -5.81821e-06 5.82184e-06)
(1.77837e-05 -5.61902e-06 5.33695e-06)
(1.82438e-05 -5.78396e-06 5.54344e-06)
(1.66701e-05 -5.4517e-06 6.34729e-06)
(1.82116e-05 -5.89872e-06 6.52375e-06)
(1.65688e-05 -5.37376e-06 5.6932e-06)
(1.66462e-05 -5.41482e-06 6.03096e-06)
(1.71411e-05 -5.50459e-06 5.60701e-06)
(1.71042e-05 -5.56554e-06 6.11871e-06)
(1.6631e-05 -5.35803e-06 5.55363e-06)
(1.65952e-05 -5.41871e-06 6.06105e-06)
(1.7078e-05 -5.51981e-06 5.74744e-06)
(1.81097e-05 -5.81458e-06 5.85099e-06)
(1.81884e-05 -5.8597e-06 6.19891e-06)
(1.76556e-05 -5.65205e-06 5.65873e-06)
(1.76176e-05 -5.71326e-06 6.17461e-06)
(1.81746e-05 -5.80038e-06 5.70893e-06)
(1.81355e-05 -5.86184e-06 6.2288e-06)
(1.75917e-05 -5.66675e-06 5.8e-06)
(2.7115e-05 -8.24879e-06 5.96362e-06)
(2.70482e-05 -8.32788e-06 6.66858e-06)
(2.65354e-05 -8.14878e-06 6.4145e-06)
(2.64694e-05 -8.09933e-06 6.10633e-06)
(2.71065e-05 -8.30828e-06 6.44256e-06)
(2.65434e-05 -8.08982e-06 5.9374e-06)
(2.70402e-05 -8.25793e-06 6.13304e-06)
(2.5407e-05 -7.77312e-06 5.88127e-06)
(2.53437e-05 -7.8512e-06 6.57803e-06)
(2.59666e-05 -7.98969e-06 6.38511e-06)
(2.59009e-05 -7.94114e-06 6.07839e-06)
(2.54e-05 -7.83101e-06 6.35435e-06)
(2.59741e-05 -7.93126e-06 5.90998e-06)
(2.53346e-05 -7.78338e-06 6.04913e-06)
(2.69838e-05 -8.3869e-06 7.20468e-06)
(2.52823e-05 -7.91e-06 7.1082e-06)
(2.68794e-05 -8.27364e-06 6.46078e-06)
(2.69638e-05 -8.33786e-06 6.84767e-06)
(2.63865e-05 -8.10857e-06 6.28249e-06)
(2.63326e-05 -8.17337e-06 6.84722e-06)
(2.69565e-05 -8.26675e-06 6.30968e-06)
(2.69018e-05 -8.33174e-06 6.87644e-06)
(2.631e-05 -8.11587e-06 6.43321e-06)
(2.51782e-05 -7.80162e-06 6.37415e-06)