/*--------------------------------*- C++ -*----------------------------------*\
| =========                 |                                                 |
| \\      /  F ield         | OpenFOAM: The Open Source CFD Toolbox           |
|  \\    /   O peration     | Version:  2012                                  |
|   \\  /    A nd           | Website:  www.openfoam.com                      |
|    \\/     M anipulation  |                                                 |
\*---------------------------------------------------------------------------*/
FoamFile
{
    version     2.0;
    format      ascii;
    class       volVectorField;
    location    "0.108/solid";
    object      sigmaMaxDir;
}
// * * * * * * * * * * * * * * * * * * * * * * * * * * * * * * * * * * * * * //

dimensions      [1 -1 -2 0 0 0 0];


internalField   nonuniform List<vector> 
3125
(
(0.667497 -0.645994 0.370322)
(0.841496 -0.515779 0.160799)
(0.878001 -0.224064 0.422977)
(-0.485252 0.653378 -0.581057)
(0.855024 -0.498048 0.144507)
(0.335614 0.818004 0.467154)
(0.233559 0.364474 0.901448)
(0.0259724 0.989625 -0.141305)
(0.546526 0.800943 -0.24454)
(-0.69024 0.206018 0.693633)
(0.893632 -0.3649 -0.261286)
(0.759736 0.598394 -0.254411)
(-0.262569 0.891553 -0.369041)
(0.321211 0.859176 0.398297)
(-0.0184409 0.986768 -0.161086)
(0.264583 0.95407 0.140518)
(0.311846 0.743457 -0.591628)
(0.473936 0.834763 -0.280278)
(-0.43114 -0.627837 0.648027)
(-0.65154 0.177378 0.737586)
(0.733885 0.611964 -0.294811)
(-0.505875 0.0334673 0.861957)
(0.656981 -0.649404 0.38295)
(-0.493789 0.657543 -0.569043)
(-0.268991 0.884758 -0.380587)
(0.385365 0.920822 0.0598349)
(0.266296 0.956065 0.122581)
(-0.328139 0.757987 -0.56372)
(0.314702 0.73496 -0.600664)
(-0.398336 -0.64326 0.653869)
(-0.423427 -0.625722 0.655119)
(-0.519177 -0.0788506 0.851021)
(-0.500087 0.0188442 0.86577)
(-0.377241 -0.634107 0.67498)
(0.9365 -0.162783 0.310596)
(0.433293 0.898851 0.0657633)
(-0.329311 0.747507 -0.576877)
(0.919898 0.224822 0.321315)
(-0.40872 -0.638077 0.652538)
(0.860101 0.495088 0.122935)
(-0.528426 -0.0955056 0.84359)
(-0.378804 -0.63647 0.671873)
(0.747143 -0.603682 0.278111)
(0.758984 -0.595082 0.264235)
(0.458572 -0.591297 0.663385)
(0.449999 -0.60406 0.657733)
(0.976935 0.213155 0.0127959)
(0.995028 -0.0970621 0.022325)
(0.161714 0.432973 0.886782)
(0.794055 0.606224 0.0443718)
(0.356564 0.730108 0.582928)
(0.339506 0.627082 0.701073)
(0.372441 0.880923 0.291997)
(0.382303 0.737296 0.556991)
(0.191273 0.396251 0.897998)
(0.320691 0.552908 0.769058)
(0.351967 0.655194 0.668461)
(0.720754 0.692485 0.0312768)
(0.360918 0.908943 0.208711)
(0.385428 0.801955 0.456413)
(0.857269 0.514848 -0.00466628)
(0.856471 0.515584 -0.0250871)
(0.587688 0.800579 0.117029)
(0.728984 0.684529 0.00156708)
(0.968602 -0.101213 -0.227081)
(0.809615 -0.28842 -0.511211)
(0.767596 -0.124653 -0.628696)
(0.898251 -0.211036 -0.385498)
(0.984213 -0.131785 -0.118141)
(0.841368 -0.310345 -0.442478)
(0.925669 -0.220683 -0.307304)
(0.771554 0.635665 -0.0251816)
(0.80947 -0.0646235 -0.583594)
(0.94215 -0.126831 -0.31027)
(-0.195765 0.938693 -0.283781)
(0.118291 0.990966 -0.0631947)
(0.229385 0.973087 0.0220255)
(0.355407 0.904745 0.234783)
(0.282102 0.926602 0.24865)
(0.305154 0.944791 0.119381)
(-0.184007 0.944841 -0.270956)
(0.338001 0.927684 0.158612)
(0.25863 0.964635 0.0508801)
(0.249227 0.968105 0.0256668)
(0.273553 0.937692 0.21425)
(0.28989 0.952628 0.0920023)
(0.308564 0.812836 -0.49405)
(0.315314 0.822124 -0.474015)
(0.525282 0.645685 -0.55423)
(-0.539993 -0.132665 0.831149)
(-0.587664 -0.0808253 0.805058)
(0.717402 -0.089209 -0.690924)
(-0.562476 0.10381 0.820271)
(-0.601031 0.00279687 0.799221)
(0.545049 0.648099 -0.531873)
(0.752114 -0.0283985 -0.65842)
(-0.616022 -0.0595345 0.785476)
(-0.534067 -0.0728805 0.842295)
(-0.542491 0.0835451 0.835897)
(-0.576339 -0.0196808 0.816973)
(-0.576988 0.667299 -0.470954)
(-0.566943 0.667193 -0.483145)
(0.0645719 0.993249 -0.0963665)
(-0.306229 0.831724 -0.463098)
(-0.201384 0.951057 -0.234383)
(0.303973 0.949904 0.0726856)
(-0.54139 0.74413 -0.391366)
(0.129325 0.986975 -0.0956802)
(0.235054 0.971966 0.00566612)
(0.289317 0.953688 0.0823159)
(0.17127 0.983218 -0.0628348)
(-0.309672 0.823706 -0.474986)
(-0.616708 0.649606 -0.444615)
(-0.330979 0.896491 -0.294544)
(0.340036 0.686822 -0.64238)
(0.345695 0.680936 -0.645617)
(-0.533158 -0.147811 0.833003)
(-0.386909 -0.62181 0.680922)
(-0.530427 -0.191003 0.825933)
(-0.500228 -0.0351099 0.865182)
(-0.55347 -0.193707 0.81003)
(-0.531072 -0.146419 0.83458)
(-0.528191 -0.0882972 0.844522)
(-0.497116 -0.0217605 0.867411)
(-0.526971 -0.132014 0.839567)
(-0.384691 -0.622127 0.681888)
(-0.555893 -0.254264 0.791412)
(-0.534168 -0.206307 0.819818)
(0.354992 -0.641986 0.679584)
(0.750602 0.66065 0.0117625)
(0.735129 -0.298082 0.608878)
(0.735707 -0.500552 0.45627)
(0.746154 0.628643 0.219232)
(0.804448 -0.246216 0.540593)
(0.347217 -0.656851 0.669318)
(0.659158 -0.57634 0.483055)
(0.716569 -0.379351 0.585339)
(0.745543 0.666458 2.28196e-05)
(0.849355 0.412524 0.329273)
(0.80957 -0.175087 0.560305)
(-0.572733 -0.574591 0.584655)
(-0.540082 -0.586166 0.603922)
(0.426318 0.666066 -0.612053)
(0.723851 0.683572 -0.0936427)
(-0.613746 -0.316978 0.723077)
(-0.563605 -0.211065 0.798624)
(-0.562468 -0.153466 0.812452)
(-0.597265 -0.25549 0.760262)
(0.411618 0.662586 -0.62574)
(-0.565671 -0.271904 0.778514)
(-0.599835 -0.316865 0.734707)
(0.712598 0.694057 -0.102419)
(-0.575131 -0.179748 0.798069)
(-0.608856 -0.261957 0.748781)
(0.701501 -0.630781 0.331681)
(0.804621 -0.556584 0.20688)
(0.673157 -0.490383 0.553519)
(-0.461228 0.638113 -0.616506)
(0.543403 0.834913 0.0873709)
(0.898369 -0.429086 0.093902)
(0.980969 0.193513 0.015895)
(0.13071 0.893865 0.42886)
(0.345802 0.764578 0.543913)
(0.357628 0.8349 0.418382)
(0.370903 0.784132 0.497562)
(0.233168 0.365964 0.900945)
(0.264214 0.419623 0.868393)
(0.270683 0.424863 0.863841)
(0.254662 0.964573 -0.0688868)
(0.568478 0.820458 0.0606836)
(0.548609 0.825619 0.13184)
(0.842836 0.534374 0.0638172)
(0.772803 0.620713 -0.132252)
(0.412157 0.906078 0.0956549)
(0.491118 0.845849 0.208188)
(0.731392 -0.234872 -0.640235)
(0.714421 -0.180685 -0.675985)
(0.757609 -0.210253 -0.617918)
(0.919912 -0.319883 -0.226796)
(0.883143 -0.347127 -0.315532)
(0.90928 -0.307988 -0.279916)
(0.810016 0.568608 -0.143385)
(0.846877 0.476414 -0.236281)
(0.778497 0.624109 -0.0665603)
(-0.237545 0.912328 -0.333512)
(0.0165973 0.951749 -0.306428)
(-0.0809983 0.961298 -0.263336)
(0.339892 0.87296 0.349878)
(0.306355 0.889411 0.339257)
(0.321429 0.900632 0.292481)
(-0.110896 0.970739 -0.212997)
(0.66644 0.742459 0.0679212)
(0.577385 0.816458 -0.00470453)
(0.260721 0.959952 0.102549)
(0.264921 0.950695 0.161234)
(0.26406 0.956675 0.122663)
(0.306439 0.771261 -0.557899)
(0.354622 0.85675 -0.374463)
(0.462709 0.634866 -0.618746)
(-0.531349 -0.539478 0.653171)
(-0.561386 -0.553964 0.614793)
(-0.673303 0.150913 0.723801)
(-0.616929 0.150585 0.772478)
(-0.636347 0.123103 0.761517)
(0.648049 0.641128 -0.411081)
(0.810982 0.526919 -0.254292)
(0.76244 0.506189 -0.403062)
(-0.519032 0.00305719 0.854749)
(-0.51461 0.0487548 0.856037)
(-0.528122 0.0186316 0.848964)
(-0.622045 0.660169 -0.420995)
(-0.523752 0.664944 -0.532479)
(-0.348021 0.867754 -0.354803)
(-0.287592 0.862842 -0.415686)
(-0.121063 0.915174 -0.384447)
(0.349684 0.93492 0.0603861)
(0.375605 0.926432 0.0253731)
(0.331639 0.943154 0.0217987)
(0.259415 0.962029 0.0848736)
(0.270867 0.95664 0.107098)
(0.260524 0.962981 0.0692462)
(-0.321371 0.788259 -0.524755)
(-0.224981 0.800442 -0.555586)
(-0.334035 0.781907 -0.526348)
(0.323147 0.712629 -0.622685)
(0.370377 0.659757 -0.653867)
(-0.510507 -0.556667 0.655366)
(-0.403659 -0.622406 0.670575)
(-0.497891 -0.542769 0.676392)
(-0.51134 -0.0636618 0.857017)
(-0.532888 -0.112094 0.838729)
(-0.525025 -0.0965582 0.845592)
(-0.513142 -0.0118358 0.858222)
(-0.496841 0.00503838 0.867827)
(-0.509799 -0.0259329 0.859903)
(-0.378013 -0.627276 0.680904)
(-0.467485 -0.5585 0.685227)
(-0.449762 -0.572331 0.685676)
(0.494949 -0.57461 0.651804)
(0.791984 0.607682 0.0590183)
(0.521917 -0.454496 0.721828)
(0.450309 0.891698 0.0457883)
(0.502148 0.860656 0.0843732)
(0.592501 0.797907 0.110846)
(-0.33446 0.711987 -0.617422)
(-0.31435 0.750411 -0.581436)
(-0.23496 0.757985 -0.608484)
(0.73346 0.679464 -0.0190802)
(0.858096 0.340722 0.384161)
(0.822254 0.466589 -0.325872)
(-0.449752 -0.620173 0.642735)
(0.582053 0.675811 -0.45221)
(0.794618 0.599023 -0.0987638)
(0.62998 0.488894 -0.603413)
(-0.542129 -0.12878 0.830369)
(-0.538807 -0.113181 0.834792)
(-0.552123 -0.146101 0.820862)
(-0.385509 -0.646433 0.658412)
(-0.447382 -0.580402 0.680429)
(-0.476728 -0.563824 0.674413)
(0.686538 0.717782 -0.115996)
(-0.590439 -0.354401 0.725108)
(0.713525 -0.624163 0.31828)
(0.793694 -0.566575 0.221454)
(0.560695 -0.533266 0.633441)
(-0.456539 0.63051 -0.627718)
(0.602974 0.79523 0.0634953)
(0.918218 -0.388774 0.0757031)
(0.0829766 0.482179 0.872134)
(0.227745 0.527647 0.818365)
(0.170062 0.61384 0.770895)
(0.930097 0.364159 0.0480431)
(0.306473 0.912837 0.269819)
(0.196781 0.904947 0.37729)
(0.299518 0.63353 0.713392)
(0.352166 0.826481 0.439212)
(0.274243 0.745036 0.608039)
(0.347923 0.699667 0.624031)
(0.365098 0.64633 0.670046)
(0.374572 0.72041 0.583699)
(0.367528 0.856886 0.361482)
(0.386216 0.847677 0.363704)
(0.380661 0.813887 0.438959)
(0.374106 0.684832 0.62534)
(0.391777 0.801178 0.452354)
(0.384577 0.756718 0.528657)
(0.214739 0.376779 0.901069)
(0.245144 0.47348 0.846003)
(0.259376 0.442924 0.85822)
(0.294276 0.48269 0.824871)
(0.341735 0.568164 0.748603)
(0.30839 0.492769 0.813679)
(0.302544 0.562885 0.769173)
(0.346505 0.602927 0.718619)
(0.305586 0.519621 0.797879)
(0.365493 0.929913 -0.0409385)
(0.371972 0.897744 0.235992)
(0.474075 0.868634 0.14397)
(0.385963 0.914292 0.122891)
(0.379466 0.884476 0.271492)
(0.398797 0.901432 0.168469)
(0.390191 0.865687 0.313586)
(0.389923 0.850804 0.352268)
(0.402002 0.886671 0.228492)
(0.847462 0.528613 0.0487524)
(0.81393 0.572227 -0.100365)
(0.592206 0.796347 0.122978)
(0.887687 0.460342 0.0098208)
(0.695364 0.712591 0.0931861)
(0.494069 0.866072 0.0762609)
(0.657666 0.74485 0.11258)
(0.464445 0.865135 0.189293)
(0.990163 0.024209 -0.137805)
(0.959411 0.270386 -0.0801336)
(0.84856 0.528491 0.0253558)
(0.772244 -0.262672 -0.578483)
(0.837201 -0.262461 -0.4798)
(0.799651 -0.238053 -0.551262)
(0.736819 -0.160069 -0.656868)
(0.817803 -0.158776 -0.553163)
(0.783063 -0.192672 -0.591346)
(0.863459 -0.24752 -0.439513)
(0.862655 -0.188224 -0.469465)
(0.8265 -0.222544 -0.517081)
(0.936107 -0.297876 -0.187015)
(0.964321 -0.196811 -0.177058)
(0.927889 -0.287722 -0.237146)
(0.865978 -0.329348 -0.376313)
(0.868415 -0.281506 -0.408179)
(0.892309 -0.296083 -0.340764)
(0.946528 -0.217662 -0.238133)
(0.892475 -0.265755 -0.364503)
(0.913535 -0.278457 -0.296505)
(0.814295 0.569801 -0.110684)
(0.556765 0.823135 0.111633)
(0.838546 0.541453 -0.0605729)
(0.854731 0.0612 -0.515451)
(0.863574 -0.097219 -0.49476)
(0.914232 0.0438772 -0.402808)
(0.976269 0.113251 -0.184587)
(0.908305 -0.12061 -0.400543)
(0.955699 0.0533339 -0.289474)
(-0.229691 0.91861 -0.321555)
(0.710534 0.703419 -0.0185235)
(0.25899 0.94549 -0.197418)
(-0.0989762 0.980003 -0.172622)
(0.160678 0.986431 -0.0337148)
(0.0234921 0.99217 -0.122665)
(0.199521 0.979014 -0.0414987)
(0.196512 0.980483 -0.00597339)
(0.122092 0.989348 -0.0792686)
(0.350751 0.887971 0.29746)
(0.337849 0.922084 0.188729)
(0.333643 0.910246 0.245224)
(0.292935 0.911175 0.289739)
(0.290723 0.934354 0.206064)
(0.30469 0.920368 0.245125)
(0.320974 0.934969 0.151023)
(0.304645 0.937611 0.167562)
(0.318008 0.926176 0.202652)
(-0.131478 0.964696 -0.2282)
(0.487474 0.869134 -0.0835171)
(0.722145 0.691228 0.0266587)
(0.365179 0.927004 0.085484)
(0.313001 0.942468 0.117407)
(0.337827 0.939716 0.0529692)
(0.257807 0.96616 -0.00834055)
(0.286491 0.954554 0.0821596)
(0.302354 0.952934 0.0223292)
(0.272183 0.959516 0.0724294)
(0.262944 0.963699 0.0463007)
(0.277136 0.956468 0.0914571)
(0.267917 0.945403 0.185563)
(0.278974 0.944519 0.173372)
(0.269921 0.951757 0.145948)
(0.276159 0.958701 0.0680403)
(0.293243 0.946012 0.138091)
(0.283894 0.952169 0.113039)
(0.308413 0.780308 -0.54406)
(0.339027 0.850479 -0.402177)
(0.475142 0.638235 -0.60572)
(0.636401 0.54914 -0.541699)
(-0.581849 -0.537737 0.610157)
(-0.533671 -0.21436 0.818074)
(-0.550794 -0.117205 0.826371)
(-0.544907 -0.202191 0.813754)
(-0.585308 -0.174668 0.791774)
(-0.566323 -0.100328 0.818054)
(-0.561472 -0.189252 0.805564)
(-0.691948 0.12726 0.710643)
(-0.671523 0.0566733 0.738813)
(-0.651435 0.0967901 0.752506)
(-0.587253 0.125812 0.799566)
(-0.578384 0.0748496 0.812324)
(-0.604704 0.097537 0.790455)
(-0.632601 0.0275058 0.773989)
(-0.588497 0.0449912 0.807246)
(-0.616839 0.069263 0.784036)
(0.619959 0.64554 -0.446014)
(0.660606 0.529787 -0.531907)
(0.731027 0.537379 -0.420504)
(0.784823 0.0893674 -0.613243)
(-0.698494 -0.00511478 0.715597)
(0.717817 0.116416 -0.68643)
(-0.617687 -0.158591 0.770268)
(-0.652762 -0.0346994 0.756768)
(-0.66145 -0.139536 0.736895)
(-0.52649 -0.0297038 0.849662)
(-0.543703 -0.0568835 0.837348)
(-0.53565 -0.0136179 0.84433)
(-0.526697 0.0653217 0.84754)
(-0.557261 0.0540771 0.828574)
(-0.540627 0.0355182 0.840512)
(-0.55753 -0.0394318 0.82922)
(-0.566037 0.0232082 0.824053)
(-0.548578 0.00390411 0.83609)
(-0.61148 0.661986 -0.433435)
(-0.533985 0.666513 -0.520212)
(-0.232768 0.946128 -0.225079)
(-0.0024191 0.99092 -0.134434)
(-0.357525 0.892706 -0.274321)
(-0.291891 0.855692 -0.427308)
(-0.183598 0.875912 -0.446172)
(-0.362331 0.835047 -0.414021)
(-0.0915271 0.979285 -0.18062)
(-0.526996 0.772891 -0.353434)
(-0.456153 0.831623 -0.316744)
(0.323587 0.943952 0.0651668)
(0.285399 0.957828 0.0333671)
(0.303187 0.952594 0.0253576)
(0.375495 0.926814 -0.00432547)
(-0.158787 0.956289 -0.245555)
(0.319625 0.947442 -0.0138926)
(0.280046 0.959986 0.000424101)
(0.0449645 0.988089 -0.147166)
(0.292924 0.956087 -0.00961924)
(0.268831 0.961598 0.0553027)
(0.219392 0.975527 -0.0146539)
(0.267437 0.962755 0.0397406)
(0.278417 0.955875 0.0937371)
(0.273057 0.961009 0.043606)
(0.264501 0.962795 0.055359)
(0.199206 0.979262 -0.0369188)
(0.272529 0.962068 0.0123632)
(0.26796 0.9631 0.0252021)
(-0.319811 0.797094 -0.512213)
(-0.350426 0.809666 -0.47079)
(-0.213163 0.838267 -0.501867)
(0.634994 -0.602536 0.48346)
(-0.55048 0.731646 -0.402077)
(-0.624152 0.638549 -0.450209)
(-0.572967 0.722843 -0.386272)
(-0.453775 0.818591 -0.352132)
(-0.604216 0.678264 -0.418188)
(0.32716 0.70567 -0.628487)
(0.36491 0.664302 -0.652337)
(-0.526702 -0.22662 0.819286)
(-0.529626 -0.162286 0.832562)
(-0.523129 -0.238748 0.818129)
(-0.399254 -0.621446 0.674093)
(-0.478192 -0.546898 0.687194)
(-0.478371 -0.560199 0.676268)
(-0.528866 -0.176879 0.830069)
(-0.524445 -0.263551 0.809629)
(-0.522565 -0.251055 0.814799)
(-0.505098 -0.0492648 0.861655)
(-0.513579 -0.0672725 0.855401)
(-0.518514 -0.0817542 0.851152)
(-0.544256 -0.149325 0.825522)
(-0.544491 -0.177589 0.819751)
(-0.535704 -0.133157 0.833841)
(-0.522975 -0.102656 0.846143)
(-0.536969 -0.162013 0.827899)
(-0.528532 -0.117705 0.840713)
(-0.52075 -0.0450034 0.852522)
(-0.525213 -0.103051 0.844708)
(-0.517749 -0.0595844 0.853455)
(-0.495984 -0.00858107 0.868289)
(-0.510229 -0.0534965 0.858373)
(-0.508995 -0.0398473 0.859847)
(-0.524981 -0.117618 0.842948)
(-0.51917 -0.0882186 0.850106)
(-0.517359 -0.0739573 0.852567)
(-0.378306 -0.626118 0.681807)
(-0.458915 -0.565679 0.685131)
(-0.466737 -0.553185 0.690031)
(-0.551602 -0.319954 0.770302)
(-0.547118 -0.237845 0.802553)
(-0.542263 -0.305046 0.782878)
(-0.528468 -0.27685 0.802543)
(-0.539811 -0.221802 0.812039)
(-0.53435 -0.290841 0.793651)
(0.425729 -0.592108 0.684225)
(0.33353 -0.650584 0.682274)
(0.415694 -0.575257 0.70447)
(0.775042 0.630456 0.0428268)
(0.827766 0.113768 0.549419)
(0.76628 -0.0373029 0.641423)
(0.650697 -0.381309 0.656655)
(0.766515 -0.180129 0.616448)
(0.679922 -0.288391 0.674193)
(0.568133 0.818604 0.0843351)
(0.785616 -0.38129 0.487264)
(0.908063 0.179499 0.37842)
(0.605275 0.785543 0.128699)
(0.894585 0.216161 0.391142)
(0.816058 0.511827 0.268484)
(0.800278 -0.307464 0.514801)
(0.875666 -0.0502067 0.480301)
(0.894283 -0.0193143 0.447085)
(-0.335452 0.699628 -0.630866)
(-0.267044 0.703088 -0.659056)
(-0.304121 0.710426 -0.63467)
(0.638969 -0.568336 0.518375)
(0.684919 -0.511013 0.519376)
(0.639623 -0.531958 0.55489)
(0.640051 -0.443692 0.627274)
(0.702132 -0.447143 0.554142)
(0.638301 -0.49214 0.591921)
(0.737324 0.675415 -0.0129937)
(0.847758 0.214396 0.485119)
(0.85593 0.289747 0.428289)
(0.866339 0.312916 0.389283)
(0.889103 0.110424 0.444188)
(0.876361 0.131248 0.463427)
(0.822429 -0.0668974 0.56492)
(0.863103 -0.0309833 0.504076)
(0.858215 0.0439713 0.511404)
(0.735952 0.510704 -0.444473)
(-0.467154 -0.613497 0.636701)
(0.511516 0.677374 -0.528692)
(-0.490934 -0.579896 0.650158)
(-0.597589 -0.502391 0.624892)
(0.76579 0.637294 -0.0861541)
(-0.644947 -0.331498 0.688587)
(0.678472 0.325702 -0.658478)
(-0.620575 -0.376747 0.687713)
(-0.628818 -0.309575 0.713268)
(-0.642468 -0.361798 0.675528)
(-0.554114 -0.166441 0.815632)
(-0.574303 -0.228229 0.786185)
(-0.564641 -0.18383 0.804603)
(-0.550285 -0.133122 0.824296)
(-0.573966 -0.181451 0.798523)
(-0.562956 -0.16422 0.810007)
(-0.585583 -0.244538 0.772848)
(-0.586898 -0.215599 0.780428)
(-0.575656 -0.20093 0.79262)
(-0.390647 -0.649526 0.652312)
(-0.502846 -0.561059 0.65754)
(-0.456563 -0.586626 0.668894)
(-0.562297 -0.335779 0.755695)
(-0.576394 -0.28929 0.764252)
(-0.574214 -0.351724 0.739303)
(-0.602147 -0.377256 0.703632)
(-0.587709 -0.305587 0.749142)
(-0.587485 -0.366345 0.721562)
(0.694116 0.711341 -0.110441)
(-0.625734 -0.332926 0.70542)
(-0.607441 -0.34526 0.71541)
(-0.586304 -0.224689 0.778307)
(-0.58478 -0.200327 0.786067)
(-0.593031 -0.230956 0.771345)
(-0.61961 -0.266564 0.73826)
(-0.597872 -0.228178 0.768429)
(-0.606878 -0.246335 0.755658)
(0.679528 -0.640572 0.357644)
(0.829303 -0.530235 0.176374)
(0.894212 -0.373135 0.247293)
(-0.475634 0.649445 -0.593291)
(0.466471 0.873539 0.139046)
(0.868535 -0.478704 0.128409)
(-0.114411 0.36641 0.923393)
(-0.5492 0.78009 0.29973)
(-0.284107 0.653212 0.701853)
(0.115001 0.906365 0.406543)
(0.147443 0.987535 -0.0551003)
(0.0830315 0.989356 -0.119498)
(-0.330358 0.930662 -0.157262)
(0.398676 0.915838 -0.0479383)
(-0.26339 0.95461 -0.139088)
(0.442451 0.896401 -0.0265183)
(-0.068382 0.99188 -0.107228)
(0.832868 0.546066 0.0902344)
(0.629715 0.748907 -0.206391)
(0.882831 0.46522 0.0646503)
(0.283571 0.950845 0.124427)
(0.405661 0.900819 0.154803)
(0.801401 0.593331 0.0755964)
(0.774882 0.376175 -0.507986)
(0.78002 0.58757 -0.215245)
(0.785186 0.56631 -0.250549)
(0.652339 0.609422 -0.45062)
(0.801452 0.560873 -0.207596)
(0.66681 0.63758 -0.38582)
(0.73109 0.364205 -0.576942)
(0.768517 -0.549438 0.327873)
(-0.255871 0.898212 -0.357414)
(-0.646602 0.688078 -0.329324)
(-0.235083 0.907665 -0.347678)
(-0.649351 0.689712 -0.320375)
(-0.220734 0.916319 -0.334119)
(0.766491 -0.547066 0.336467)
(-0.636767 0.739755 -0.217461)
(-0.0561709 0.982102 -0.17978)
(-0.398748 0.900267 -0.174698)
(0.356357 0.931791 -0.0691032)
(-0.461341 0.866391 -0.191131)
(-0.454335 0.871583 -0.184179)
(0.294183 0.951198 -0.0931593)
(0.309935 0.752254 -0.581424)
(0.418369 0.852289 -0.313959)
(-0.472336 -0.293609 0.831079)
(-0.439765 -0.630465 0.639625)
(-0.455281 -0.588924 0.667748)
(-0.472489 -0.401631 0.784504)
(-0.46419 -0.591025 0.659711)
(-0.474464 -0.402677 0.782774)
(-0.471374 -0.294881 0.831175)
(-0.649391 -0.339938 0.680245)
(0.70546 0.624525 -0.335105)
(0.762024 0.576687 -0.294535)
(0.635426 0.579087 -0.510776)
(0.688479 0.351102 -0.634605)
(0.736792 0.58538 -0.338331)
(0.616747 0.549658 -0.563471)
(-0.644787 0.653887 -0.39583)
(-0.503829 0.660068 -0.557195)
(0.759378 -0.545599 0.354496)
(-0.64664 0.6835 -0.33865)
(-0.24389 0.900286 -0.360558)
(-0.275298 0.877655 -0.392344)
(0.763114 -0.546285 0.345296)
(-0.648008 0.677166 -0.348616)
(-0.256226 0.891373 -0.373901)
(0.683241 -0.512118 0.520496)
(-0.326801 0.768021 -0.550768)
(-0.583775 0.618618 -0.52585)
(-0.307808 0.76711 -0.562847)
(-0.593324 0.622736 -0.510065)
(-0.308133 0.777339 -0.548451)
(0.673857 -0.506319 0.538105)
(0.316881 0.727238 -0.608861)
(-0.38764 -0.64916 0.654466)
(-0.472282 -0.298838 0.829244)
(-0.447703 -0.587206 0.674352)
(-0.471683 -0.400872 0.785377)
(-0.416026 -0.624376 0.661118)
(-0.471322 -0.296423 0.830656)
(-0.440726 -0.586166 0.67983)
(-0.471971 -0.400668 0.785308)
(-0.53041 -0.353354 0.770588)
(-0.376236 -0.632103 0.677416)
(-0.404255 -0.602982 0.687742)
(-0.51648 -0.453454 0.72638)
(-0.403266 -0.600618 0.690388)
(-0.511248 -0.446437 0.734384)
(-0.538079 -0.359491 0.762389)
(0.554364 -0.310273 0.772277)
(0.795706 -0.453305 0.401704)
(-0.206544 0.945836 -0.250466)
(0.869016 0.490919 0.0617294)
(-0.357716 0.816268 -0.453592)
(0.865278 0.317692 0.38777)
(0.760104 0.480345 0.43762)
(0.652223 -0.493416 0.575453)
(-0.330554 0.736288 -0.590436)
(-0.575883 0.611645 -0.542448)
(-0.30645 0.756818 -0.577334)
(-0.567627 0.603365 -0.560134)
(0.663619 -0.500105 0.556332)
(-0.306407 0.745374 -0.592057)
(0.922401 0.381232 0.0619593)
(-0.420768 -0.632428 0.650376)
(0.729066 0.442114 -0.522492)
(0.826259 0.562902 0.0208895)
(0.842953 0.533077 -0.0725196)
(0.581288 0.809675 0.0808121)
(0.782021 0.573701 -0.243537)
(0.537132 0.835558 -0.115468)
(0.83952 0.473559 -0.266361)
(-0.555658 -0.372666 0.743213)
(-0.380229 -0.639682 0.668007)
(-0.40647 -0.605272 0.684418)
(-0.522488 -0.460544 0.717569)
(-0.546521 -0.365588 0.753433)
(-0.408469 -0.608356 0.680482)
(-0.529603 -0.467819 0.707577)
(-0.558069 -0.470594 0.683447)
(0.680327 0.7214 -0.129373)
(0.636794 0.669014 -0.383292)
(0.59877 0.743776 -0.297106)
(0.736277 -0.61073 0.291384)
(0.769997 -0.586787 0.250571)
(0.471066 -0.578229 0.666144)
(0.450015 -0.613603 0.648828)
(0.8316 0.554939 0.0219994)
(0.966921 -0.252107 0.0388032)
(0.343874 0.929837 0.130976)
(0.847095 0.528861 0.0523061)
(0.0930911 0.995657 0.00146059)
(0.479793 0.869033 0.120751)
(0.0966291 0.994863 0.0301659)
(0.362181 0.927726 0.0902735)
(0.447601 0.881226 0.151968)
(0.366192 0.929528 0.0433827)
(0.616613 0.787174 0.0120551)
(0.078262 0.996723 -0.0204717)
(0.503146 0.85906 0.0941262)
(0.0514119 0.997863 -0.0403259)
(0.368447 0.927494 0.0632611)
(0.511644 0.85625 0.0711135)
(0.854856 0.518653 0.0148388)
(0.849203 0.525893 -0.0478584)
(0.892944 0.449231 -0.0290244)
(0.662773 0.748288 0.028218)
(0.676073 0.735756 0.0398546)
(0.690519 0.722607 -0.031987)
(0.618208 0.78305 0.0682022)
(0.7073 0.706892 -0.00551868)
(0.895589 0.440544 -0.0619859)
(0.895927 0.417827 -0.150784)
(0.797408 0.601161 -0.0523999)
(0.728088 0.685429 0.00872045)
(0.680867 0.729646 -0.0635371)
(0.771914 0.63526 -0.0243482)
(0.679097 0.727026 -0.101296)
(0.898445 0.427054 -0.102082)
(0.776457 -0.560374 0.288263)
(-0.207791 0.932135 -0.29656)
(-0.62217 0.736225 -0.266229)
(-0.0738897 0.967386 -0.242292)
(-0.634657 0.722 -0.275548)
(0.776085 -0.564574 0.280979)
(-0.111707 0.959235 -0.259597)
(0.770606 -0.579013 0.26629)
(-0.168064 0.951627 -0.257215)
(-0.614275 0.745889 -0.257519)
(-0.0409172 0.973459 -0.225175)
(-0.60572 0.755936 -0.248322)
(0.776027 -0.56816 0.273819)
(0.00872777 0.978698 -0.205121)
(0.309697 0.800914 -0.512469)
(0.31601 0.83422 -0.4519)
(-0.493081 -0.293521 0.818973)
(0.507053 0.643173 -0.573782)
(0.552138 0.604358 -0.574366)
(-0.505401 -0.430362 0.747902)
(0.534027 0.6012 -0.594453)
(-0.497814 -0.421791 0.757808)
(-0.501321 -0.29525 0.813329)
(-0.525598 -0.301684 0.795445)
(0.567342 0.649308 -0.50648)
(0.573025 0.606595 -0.551076)
(-0.51526 -0.440269 0.735303)
(0.596767 0.607649 -0.524053)
(-0.527708 -0.451375 0.719573)
(-0.512136 -0.298083 0.805521)
(-0.588981 0.665404 -0.458627)
(-0.555045 0.668091 -0.49556)
(0.737797 -0.53858 0.406924)
(-0.30249 0.839589 -0.451209)
(-0.629963 0.657546 -0.413256)
(-0.294951 0.841637 -0.452383)
(-0.635766 0.659102 -0.40173)
(0.733138 -0.535742 0.418915)
(-0.290437 0.8501 -0.43929)
(0.721097 -0.531606 0.444313)
(-0.313038 0.815268 -0.48718)
(-0.626294 0.653381 -0.425263)
(-0.296709 0.833938 -0.465307)
(-0.623351 0.647648 -0.438162)
(0.727454 -0.533673 0.431283)
(-0.300767 0.824911 -0.478604)
(0.33479 0.693168 -0.638305)
(0.351102 0.675464 -0.648441)
(-0.484455 -0.31409 0.816487)
(-0.389723 -0.621858 0.679271)
(-0.411844 -0.587469 0.696609)
(-0.480951 -0.412717 0.773531)
(-0.414682 -0.586902 0.695403)
(-0.478439 -0.409471 0.776807)
(-0.48842 -0.317941 0.812625)
(-0.498428 -0.326537 0.803083)
(-0.382238 -0.623185 0.682301)
(-0.410122 -0.588067 0.697121)
(-0.484215 -0.416033 0.769709)
(-0.408262 -0.58936 0.69712)
(-0.488396 -0.419501 0.765172)
(-0.49306 -0.321846 0.808274)
(0.539775 -0.397651 0.741968)
(0.366882 -0.626482 0.687691)
(0.481964 -0.543006 0.687644)
(0.321648 -0.642223 0.695767)
(0.469166 -0.535239 0.702426)
(0.553528 -0.413592 0.722875)
(0.334964 -0.621661 0.708052)
(0.832353 0.321394 0.451547)
(0.757203 0.652966 0.0166785)
(0.767442 0.637071 0.0719213)
(0.806019 0.572393 0.150664)
(0.827556 0.362826 0.42838)
(0.764974 0.639529 0.0762681)
(0.807642 0.566861 0.162432)
(0.584048 -0.442687 0.680379)
(-0.341686 0.671847 -0.65717)
(0.495872 -0.550887 0.671293)
(0.314596 -0.66012 0.682108)
(0.511168 -0.558712 0.653106)
(0.568605 -0.428309 0.70231)
(-0.309926 0.677195 -0.667347)
(0.834262 0.403058 0.376234)
(0.742071 0.67031 -0.00390076)
(0.749845 0.66032 0.0413399)
(0.8062 0.575701 0.136415)
(0.838336 0.380063 0.390827)
(0.757087 0.652119 0.039496)
(0.80638 0.577262 0.128534)
(0.616019 0.558122 -0.555896)
(-0.508629 -0.598401 0.619042)
(0.642355 0.431274 -0.633548)
(0.445666 0.669829 -0.593895)
(0.449003 0.632469 -0.631172)
(-0.574148 -0.553181 0.60361)
(0.465919 0.633712 -0.617518)
(0.58111 0.5709 -0.579986)
(-0.629311 -0.42524 0.650491)
(0.656132 0.413884 -0.631024)
(0.735515 0.670943 -0.0940934)
(0.707356 0.636634 -0.307156)
(0.673411 0.684241 -0.279877)
(0.722857 0.602142 -0.338974)
(0.654508 0.439908 -0.614898)
(0.690009 0.663318 -0.289649)
(-0.60644 -0.409899 0.681332)
(0.401736 0.658499 -0.636387)
(-0.436173 -0.630299 0.642243)
(-0.567956 -0.536719 0.623987)
(-0.428726 -0.626333 0.651076)
(-0.562462 -0.521118 0.641929)
(-0.61733 -0.418045 0.66644)
(-0.62461 -0.459983 0.631093)
(0.705128 0.70143 -0.103876)
(0.691356 0.630456 -0.352919)
(0.654847 0.701079 -0.282248)
(0.682086 0.660436 -0.31398)
(-0.624666 -0.43856 0.64611)
(0.642342 0.71362 -0.27954)
(0.69107 -0.635448 0.344424)
(0.817832 -0.542495 0.19196)
(0.802879 -0.412077 0.430788)
(-0.469546 0.64301 -0.605033)
(0.502079 0.85742 0.112902)
(0.884341 -0.453503 0.110796)
(0.101298 0.0421446 0.993963)
(0.0624382 0.0695161 0.995625)
(-0.0664907 0.512629 0.856032)
(0.820405 -0.541732 -0.182925)
(-0.0462451 0.966808 0.251285)
(0.266086 0.920395 0.286482)
(-0.186576 0.86421 0.467258)
(0.190367 0.919291 0.344478)
(0.0745374 0.761118 0.644317)
(0.0106481 0.0378139 0.999228)
(0.659621 0.344723 0.667881)
(0.618729 0.426291 0.659887)
(0.641669 0.309744 0.701654)
(0.669632 0.364719 0.646972)
(0.557663 0.598495 0.575166)
(0.594389 0.567163 0.570113)
(0.629151 0.376786 0.679854)
(0.583758 0.424899 0.691873)
(0.665247 0.426485 0.612826)
(0.645473 0.539878 0.540275)
(0.60441 0.586418 0.539261)
(0.593189 0.599474 0.537362)
(0.290083 0.0998074 0.951783)
(0.307604 0.0853488 0.947679)
(0.271899 0.108593 0.956179)
(0.320448 0.0825761 0.94366)
(0.26821 0.08048 0.959993)
(0.239745 0.100372 0.965633)
(0.261179 0.0667063 0.962983)
(0.215741 0.0901435 0.972281)
(0.236055 0.0846044 0.96805)
(0.245716 0.0676929 0.966975)
(0.291108 0.12003 0.949131)
(0.323648 0.0989885 0.940985)
(0.326174 0.94418 0.0462033)
(0.096074 0.994826 -0.0330386)
(0.271709 0.962162 -0.0204568)
(0.153357 0.983508 -0.0958805)
(-0.104836 0.989685 -0.0976389)
(0.497185 0.867559 0.0121886)
(-0.181982 0.976145 -0.118419)
(0.469534 0.882884 -0.00739097)
(0.323594 0.946195 -0.000982996)
(-0.0240767 0.99682 -0.0759577)
(0.268412 0.963212 0.0132961)
(0.837883 0.540265 0.0778843)
(0.712259 0.681438 -0.168313)
(0.952128 0.304161 -0.0306395)
(0.944503 0.328305 -0.0114465)
(0.883931 0.464667 0.0524411)
(0.341958 0.933064 0.111606)
(0.468067 0.874071 0.130051)
(0.76176 0.645821 0.0513489)
(0.435242 0.888785 0.143616)
(0.782775 0.618941 0.0646214)
(0.885154 0.463776 0.0375984)
(0.940427 0.339447 0.0193175)
(0.945871 0.324471 0.00683493)
(0.751394 -0.0773686 -0.655303)
(0.782298 -0.073002 -0.618612)
(0.780922 -0.0631062 -0.621432)
(0.750073 -0.0930456 -0.654777)
(0.720024 -0.0880733 -0.688337)
(-0.691049 0.104902 0.715155)
(0.745314 -0.114542 -0.656801)
(0.775449 -0.0970427 -0.623909)
(0.723346 -0.0568757 -0.688139)
(-0.690824 0.0836797 0.718165)
(-0.695048 0.0707811 0.71547)
(0.721748 -0.0642884 -0.689164)
(0.967653 -0.0621046 -0.244521)
(0.958855 -0.121951 -0.25637)
(0.969964 -0.0943148 -0.224221)
(0.958266 -0.0801794 -0.274405)
(0.962021 -0.14396 -0.231928)
(0.971913 -0.117386 -0.203977)
(0.973417 -0.0747414 -0.216502)
(0.980366 -0.096736 -0.171828)
(0.97983 -0.057094 -0.191504)
(0.972195 -0.123288 -0.199091)
(0.959259 -0.116532 -0.257377)
(0.946542 -0.143106 -0.289102)
(0.826361 0.212889 -0.52135)
(0.786515 0.167 -0.594563)
(0.815206 0.386268 -0.43155)
(0.797517 0.576299 -0.178454)
(0.818355 0.56 -0.129213)
(0.676392 0.69061 -0.256033)
(0.815446 0.553972 -0.167816)
(0.674335 0.665549 -0.31987)
(0.849242 0.392952 -0.352672)
(-0.69137 -0.149684 0.706825)
(0.728919 0.187725 -0.658358)
(0.889715 -0.317969 0.327571)
(0.829218 -0.454177 0.325762)
(0.771456 -0.550239 0.31952)
(-0.246825 0.905366 -0.345529)
(-0.642539 0.704277 -0.30189)
(-0.184591 0.934038 -0.305775)
(-0.647656 0.695511 -0.311136)
(-0.205066 0.924915 -0.320126)
(0.773435 -0.55211 0.311406)
(0.837385 -0.429026 0.338708)
(0.88843 -0.310833 0.33775)
(0.513877 0.77211 0.373868)
(0.398208 0.869679 0.291701)
(0.414662 0.858329 0.302202)
(0.155808 0.975098 0.157825)
(0.439441 0.801272 0.406023)
(0.454747 0.780529 0.428929)
(0.341566 0.888754 0.305694)
(0.274884 0.924446 0.264269)
(0.34695 0.886057 0.307456)