/*--------------------------------*- C++ -*----------------------------------*\
| =========                 |                                                 |
| \\      /  F ield         | OpenFOAM: The Open Source CFD Toolbox           |
|  \\    /   O peration     | Version:  2012                                  |
|   \\  /    A nd           | Website:  www.openfoam.com                      |
|    \\/     M anipulation  |                                                 |
\*---------------------------------------------------------------------------*/
FoamFile
{
    version     2.0;
    format      ascii;
    class       volScalarField;
    location    "0.108/solid";
    object      sigmaMid;
}
// * * * * * * * * * * * * * * * * * * * * * * * * * * * * * * * * * * * * * //

dimensions      [1 -1 -2 0 0 0 0];


internalField   nonuniform List<scalar> 
3125
(
-2.34411e+07
-2.04848e+07
-2.71065e+07
-2.47821e+07
-2.01329e+07
-1.1604e+07
-4.92166e+06
-1.74205e+07
-1.94112e+07
-8.64176e+06
974232
-1.98828e+07
-2.13321e+07
-1.25066e+07
-1.77091e+07
-1.61332e+07
-2.24561e+07
-1.95532e+07
-2.2575e+07
-9.76239e+06
-2.01235e+07
-1.62039e+07
-2.35223e+07
-2.47015e+07
-2.15225e+07
-1.74634e+07
-1.63843e+07
-2.39429e+07
-2.26015e+07
-2.46843e+07
-2.27341e+07
-1.96754e+07
-1.6894e+07
-2.44907e+07
-2.47051e+07
-1.75696e+07
-2.40699e+07
-2.61979e+07
-2.47675e+07
-2.52408e+07
-1.98147e+07
-2.45975e+07
-2.24691e+07
-2.22383e+07
-2.5275e+07
-2.51687e+07
-1.65062e+07
-1.69405e+07
-1.42412e+07
-1.5087e+07
-1.4566e+07
-8.52539e+06
-1.40527e+07
-1.31966e+07
-1.19188e+07
-7.52371e+06
-1.28773e+07
-1.54026e+07
-1.49523e+07
-1.46514e+07
-1.88151e+07
-1.88667e+07
-4.20332e+06
-1.68772e+07
-9.00137e+06
-4.87649e+06
-1.40605e+07
-9.13948e+06
-1.19528e+06
-3.48381e+06
-7.27254e+06
-1.73455e+07
-1.58335e+07
-1.08653e+07
-1.97957e+07
-1.61631e+07
-1.5639e+07
-1.42978e+07
-1.45761e+07
-1.49444e+07
-1.95712e+07
-1.50719e+07
-1.54826e+07
-1.57211e+07
-1.50707e+07
-1.51512e+07
-2.11982e+07
-2.10168e+07
-2.15244e+07
-2.26462e+07
-2.12338e+07
-1.54593e+07
-1.28325e+07
-1.89275e+07
-2.13593e+07
-1.72191e+07
-2.0463e+07
-2.16795e+07
-1.37462e+07
-1.98129e+07
-2.41652e+07
-2.42152e+07
-1.63702e+07
-2.27774e+07
-1.71475e+07
-1.70965e+07
-1.75098e+07
-1.66576e+07
-1.59106e+07
-1.69475e+07
-1.64671e+07
-2.29324e+07
-1.89248e+07
-1.75151e+07
-2.36682e+07
-2.37905e+07
-2.29063e+07
-2.36306e+07
-2.33405e+07
-1.89415e+07
-2.2754e+07
-2.27025e+07
-2.20449e+07
-1.85471e+07
-2.26301e+07
-2.37648e+07
-2.34823e+07
-2.34029e+07
-2.49383e+07
-2.33263e+07
-2.15556e+07
-1.80993e+07
-1.79721e+07
-1.99659e+07
-2.48501e+07
-1.94618e+07
-2.10572e+07
-2.2953e+07
-1.83251e+07
-2.05825e+07
-2.56536e+07
-2.55492e+07
-2.52297e+07
-2.33882e+07
-2.34024e+07
-2.27365e+07
-2.01179e+07
-2.26294e+07
-2.51548e+07
-2.34813e+07
-2.34258e+07
-2.31485e+07
-2.02007e+07
-2.25984e+07
-2.30885e+07
-2.13699e+07
-2.5821e+07
-2.497e+07
-1.59817e+07
-1.89544e+07
-1.31019e+07
-1.35406e+07
-1.06038e+07
-1.20535e+07
-1.1356e+07
-7.59697e+06
-5.73337e+06
-8.06775e+06
-1.65378e+07
-1.88711e+07
-1.7021e+07
-1.85072e+07
-1.90571e+07
-1.52084e+07
-1.19544e+07
-7.44564e+06
-1.0847e+07
-9.44259e+06
840020
-547385
-1.05799e+06
-1.90085e+07
-1.62684e+07
-1.51923e+07
-2.06959e+07
-2.08533e+07
-1.90847e+07
-1.26925e+07
-1.33076e+07
-1.32611e+07
-1.85363e+07
-1.80973e+07
-1.96421e+07
-1.54765e+07
-1.58325e+07
-1.52074e+07
-2.19324e+07
-2.01999e+07
-2.21462e+07
-2.06891e+07
-2.04294e+07
-1.21511e+07
-1.08371e+07
-1.33673e+07
-2.06941e+07
-1.67794e+07
-1.77188e+07
-1.8802e+07
-1.54357e+07
-1.81201e+07
-2.3833e+07
-2.45362e+07
-1.98848e+07
-2.20845e+07
-2.14319e+07
-1.73456e+07
-1.70033e+07
-1.68411e+07
-1.57177e+07
-1.65996e+07
-1.59401e+07
-2.35243e+07
-2.28942e+07
-2.18206e+07
-2.30852e+07
-2.43059e+07
-2.13763e+07
-2.31265e+07
-2.14835e+07
-1.94859e+07
-2.10008e+07
-2.09464e+07
-1.93792e+07
-1.7526e+07
-1.98603e+07
-2.42028e+07
-2.34676e+07
-2.34773e+07
-2.54608e+07
-2.47378e+07
-2.36136e+07
-1.71731e+07
-1.76779e+07
-1.73653e+07
-2.44222e+07
-2.23578e+07
-2.32436e+07
-2.15267e+07
-2.01405e+07
-2.66048e+07
-2.5112e+07
-2.56112e+07
-2.47283e+07
-2.53163e+07
-2.1033e+07
-1.99315e+07
-2.10501e+07
-2.48463e+07
-2.40691e+07
-2.40374e+07
-2.18611e+07
-2.1362e+07
-2.28992e+07
-2.16047e+07
-2.55005e+07
-2.50075e+07
-1.60474e+07
-1.84548e+07
-1.35856e+07
-1.43953e+07
-1.48346e+07
-1.37433e+07
-1.56916e+07
-1.38595e+07
-1.4491e+07
-1.55321e+07
-1.5339e+07
-9.56798e+06
-9.90212e+06
-1.06282e+07
-1.30797e+07
-1.37849e+07
-1.25905e+07
-1.15165e+07
-1.35021e+07
-1.20653e+07
-9.59217e+06
-1.22335e+07
-9.99951e+06
-6.5972e+06
-9.21768e+06
-8.60282e+06
-1.25549e+07
-1.09696e+07
-1.04562e+07
-1.62522e+07
-1.55711e+07
-1.75676e+07
-1.58282e+07
-1.4842e+07
-1.57744e+07
-1.56409e+07
-1.47443e+07
-1.57152e+07
-1.85896e+07
-1.90234e+07
-8.11591e+06
-5.32859e+06
-9.20535e+06
-1.55814e+07
-1.30926e+07
-1.27186e+07
-7.06177e+06
-1.16264e+07
-1.03251e+07
-6.18129e+06
-6.35917e+06
-7.94218e+06
-1.23763e+07
-1.25258e+07
-1.09058e+07
-7.66931e+06
-1.08779e+07
-9.33439e+06
-114439
-3.2792e+06
-2.10675e+06
-2.03295e+06
-4.66976e+06
-2.90102e+06
-5.30937e+06
-5.89413e+06
-4.03755e+06
-1.86377e+07
-1.38861e+07
-1.46492e+07
-1.7375e+07
-1.43029e+07
-1.60599e+07
-1.31283e+07
-1.26397e+07
-1.46311e+07
-2.04922e+07
-1.88742e+07
-2.03918e+07
-1.68355e+07
-1.59748e+07
-1.65886e+07
-1.6251e+07
-1.58083e+07
-1.63986e+07
-1.35177e+07
-1.45242e+07
-1.39072e+07
-1.39905e+07
-1.41929e+07
-1.37566e+07
-1.47378e+07
-1.45705e+07
-1.42543e+07
-1.88016e+07
-2.00633e+07
-1.86911e+07
-1.58916e+07
-1.52026e+07
-1.59602e+07
-1.61343e+07
-1.53386e+07
-1.60439e+07
-1.55779e+07
-1.55311e+07
-1.53491e+07
-1.54853e+07
-1.45773e+07
-1.49112e+07
-1.53434e+07
-1.48542e+07
-1.51073e+07
-2.17621e+07
-2.03976e+07
-2.19841e+07
-1.93821e+07
-1.98961e+07
-2.28822e+07
-2.22963e+07
-2.25864e+07
-2.17368e+07
-2.18277e+07
-2.22173e+07
-1.37321e+07
-1.67382e+07
-1.49872e+07
-1.18466e+07
-1.55323e+07
-1.44874e+07
-1.78871e+07
-1.71823e+07
-1.61336e+07
-2.08829e+07
-1.89153e+07
-1.82179e+07
-1.85608e+07
-1.84594e+07
-1.95845e+07
-2.1171e+07
-1.95439e+07
-2.04575e+07
-2.02593e+07
-2.11852e+07
-1.96584e+07
-1.46061e+07
-1.64809e+07
-1.73423e+07
-2.05613e+07
-1.81127e+07
-1.89393e+07
-2.38988e+07
-2.44176e+07
-1.71628e+07
-1.65962e+07
-1.75575e+07
-2.22595e+07
-2.19836e+07
-2.06165e+07
-1.68563e+07
-1.85068e+07
-1.8014e+07
-1.72309e+07
-1.65062e+07
-1.66788e+07
-1.70936e+07
-1.71109e+07
-1.69116e+07
-1.65579e+07
-1.68658e+07
-1.67375e+07
-1.57903e+07
-1.60927e+07
-1.59914e+07
-1.67871e+07
-1.63274e+07
-1.61387e+07
-1.62807e+07
-1.63713e+07
-1.61816e+07
-2.33941e+07
-2.12571e+07
-2.24971e+07
-2.05632e+07
-1.8412e+07
-2.006e+07
-1.90224e+07
-1.79395e+07
-1.95436e+07
-2.32241e+07
-2.4195e+07
-2.3146e+07
-2.31029e+07
-2.33475e+07
-2.32766e+07
-2.21916e+07
-2.21901e+07
-2.32444e+07
-2.36365e+07
-2.35235e+07
-1.92341e+07
-2.07211e+07
-2.08542e+07
-2.18751e+07
-2.27584e+07
-2.18537e+07
-2.17258e+07
-2.27437e+07
-2.18065e+07
-2.07403e+07
-2.2312e+07
-2.11165e+07
-1.80678e+07
-2.05177e+07
-2.02347e+07
-2.24985e+07
-2.159e+07
-2.13918e+07
-2.40887e+07
-2.28931e+07
-2.29186e+07
-2.39473e+07
-2.34785e+07
-2.39052e+07
-2.37595e+07
-2.34544e+07
-2.38477e+07
-2.5242e+07
-2.32547e+07
-2.37947e+07
-2.439e+07
-2.24257e+07
-2.35334e+07
-2.28494e+07
-2.20434e+07
-2.32268e+07
-1.72926e+07
-1.87283e+07
-1.77263e+07
-1.7793e+07
-1.8193e+07
-1.76773e+07
-1.93636e+07
-1.90242e+07
-1.83782e+07
-2.45314e+07
-2.35548e+07
-2.28337e+07
-2.10549e+07
-1.99939e+07
-2.15305e+07
-2.24258e+07
-2.05317e+07
-2.19884e+07
-2.18735e+07
-2.16763e+07
-2.09146e+07
-1.88471e+07
-1.88076e+07
-1.94198e+07
-2.11362e+07
-1.96608e+07
-2.02538e+07
-2.61875e+07
-2.52078e+07
-2.54364e+07
-2.4877e+07
-2.51269e+07
-2.43847e+07
-2.35924e+07
-2.42601e+07
-2.40851e+07
-2.34288e+07
-2.41763e+07
-2.18766e+07
-2.27053e+07
-2.18661e+07
-2.00247e+07
-2.10614e+07
-2.10554e+07
-2.26702e+07
-2.18253e+07
-2.18473e+07
-2.49397e+07
-2.45813e+07
-2.4548e+07
-2.4001e+07
-2.34734e+07
-2.40323e+07
-2.4088e+07
-2.34566e+07
-2.40669e+07
-2.21062e+07
-2.27911e+07
-2.20242e+07
-2.03019e+07
-2.10769e+07
-2.11346e+07
-2.26199e+07
-2.18074e+07
-2.184e+07
-2.33063e+07
-2.0771e+07
-2.80636e+07
-2.48096e+07
-1.57208e+07
-1.97601e+07
-7.94233e+06
-1.19818e+07
-9.72108e+06
-1.37774e+07
-1.66794e+07
-1.71275e+07
-1.798e+07
-1.73606e+07
-1.76273e+07
-1.72242e+07
-1.68773e+07
-1.83399e+07
-1.92437e+07
-1.79492e+07
-1.45519e+07
-1.2881e+07
-1.79839e+07
-1.87239e+07
-1.96346e+07
-1.97387e+07
-1.92513e+07
-1.93857e+07
-1.90641e+07
-1.88634e+07
-2.19549e+07
-2.11258e+07
-2.2504e+07
-2.0187e+07
-2.2311e+07
-1.99287e+07
-2.2142e+07
-1.76015e+07
-1.79962e+07
-1.83291e+07
-1.74542e+07
-1.86533e+07
-1.72005e+07
-1.75773e+07
-2.22828e+07
-1.97728e+07
-2.13496e+07
-2.24484e+07
-2.32478e+07
-2.17543e+07
-2.31479e+07
-2.14931e+07
-2.15624e+07
-1.91328e+07
-2.03213e+07
-2.01127e+07
-1.93302e+07
-1.89654e+07
-2.04024e+07
-1.94061e+07
-2.36066e+07
-2.46381e+07
-2.25719e+07
-2.27029e+07
-2.03588e+07
-2.17224e+07
-2.23806e+07
-2.28731e+07
-2.05995e+07
-2.43089e+07
-2.38112e+07
-2.44757e+07
-2.33176e+07
-2.44149e+07
-2.31115e+07
-2.43602e+07
-2.27681e+07
-2.45507e+07
-2.19537e+07
-2.34188e+07
-2.19028e+07
-2.28614e+07
-2.17288e+07
-2.34988e+07
-2.20431e+07
-2.44129e+07
-2.44101e+07
-2.46806e+07
-2.45801e+07
-2.46526e+07
-2.4343e+07
-2.46015e+07
-2.53045e+07
-2.57493e+07
-2.50974e+07
-2.57172e+07
-2.55368e+07
-2.51816e+07
-2.52791e+07
-2.45379e+07
-2.41966e+07
-2.45528e+07
-2.34515e+07
-2.46159e+07
-2.44599e+07
-2.36323e+07
-2.87938e+07
-2.48979e+07
-2.61572e+07
-2.59062e+07
-2.55834e+07
-2.53645e+07
-2.59397e+07
-2.61477e+07
-2.57082e+07
-2.49357e+07
-2.46781e+07
-2.4764e+07
-2.47036e+07
-2.47516e+07
-2.4784e+07
-2.48135e+07
-2.07161e+07
-2.12034e+07
-2.09167e+07
-2.11816e+07
-2.25814e+07
-2.20551e+07
-2.52796e+07
-2.51291e+07
-1.6233e+07
-1.74445e+07
-1.4906e+07
-1.47188e+07
-1.51772e+07
-1.60161e+07
-1.46944e+07
-1.52286e+07
-1.56989e+07
-1.57399e+07
-1.56917e+07
-1.55946e+07
-1.62668e+07
-1.59515e+07
-1.55118e+07
-1.64909e+07
-1.87424e+07
-1.89071e+07
-1.80465e+07
-1.64276e+07
-1.59447e+07
-1.84548e+07
-1.54459e+07
-1.82938e+07
-1.81116e+07
-1.82444e+07
-1.77938e+07
-1.64814e+07
-1.8521e+07
-1.69889e+07
-1.85714e+07
-1.81473e+07
-2.05947e+07
-2.00493e+07
-2.08827e+07
-1.86984e+07
-2.11306e+07
-2.02867e+07
-1.89255e+07
-1.9632e+07
-1.93133e+07
-2.05932e+07
-1.85326e+07
-2.03079e+07
-1.99461e+07
-1.83092e+07
-2.13928e+07
-2.08079e+07
-2.04312e+07
-2.16787e+07
-2.21362e+07
-2.05065e+07
-2.22933e+07
-2.06067e+07
-2.0229e+07
-1.98861e+07
-2.12091e+07
-2.19009e+07
-2.03366e+07
-2.17202e+07
-2.01171e+07
-2.00733e+07
-2.4065e+07
-2.42716e+07
-2.34177e+07
-2.26092e+07
-2.37321e+07
-2.18432e+07
-2.36165e+07
-2.35171e+07
-2.1601e+07
-2.37905e+07
-2.30951e+07
-2.38586e+07
-2.20019e+07
-2.39642e+07
-2.36717e+07
-2.22239e+07
-2.35201e+07
-2.39287e+07
-2.29138e+07
-2.35262e+07
-2.41218e+07
-2.32174e+07
-2.40696e+07
-2.29574e+07
-2.31286e+07
-2.35095e+07
-2.3868e+07
-2.42414e+07
-2.3363e+07
-2.42776e+07
-2.34967e+07
-2.32961e+07
-2.50534e+07
-2.50395e+07
-2.48779e+07
-2.45943e+07
-2.48803e+07
-2.49783e+07
-2.47183e+07
-2.3185e+07
-2.36813e+07
-2.30198e+07
-2.32471e+07
-2.29919e+07
-2.35348e+07
-2.36198e+07
-2.48898e+07
-2.47436e+07
-2.48678e+07
-2.44855e+07
-2.48583e+07
-2.49239e+07
-2.43349e+07
-2.23214e+07
-2.26025e+07
-2.2921e+07
-2.28506e+07
-2.2495e+07
-2.23762e+07
-2.24949e+07
-2.58104e+07
-2.54111e+07
-2.59922e+07
-2.52973e+07
-2.51587e+07
-2.57817e+07
-2.51995e+07
-2.58084e+07
-2.58948e+07
-2.38472e+07
-2.37536e+07
-2.36462e+07
-2.33621e+07
-2.38143e+07
-2.32924e+07
-2.3737e+07
-2.5653e+07
-2.50886e+07
-2.50862e+07
-2.56598e+07
-2.505e+07
-2.54876e+07
-2.57834e+07
-2.24503e+07
-2.27629e+07
-2.3066e+07
-2.31235e+07
-2.28934e+07
-2.29952e+07
-2.27362e+07
-2.31401e+07
-2.10544e+07
-2.65224e+07
-2.48603e+07
-1.58612e+07
-1.93329e+07
-4.30668e+06
-3.94633e+06
-9.32246e+06
-1.24516e+07
-1.25119e+07
-1.45881e+07
-1.11632e+07
-1.41737e+07
-1.15412e+07
-2.18326e+06
-3.6895e+06
-4.46916e+06
-5.84419e+06
-5.46304e+06
-5.10412e+06
-5.83373e+06
-4.02385e+06
-3.06609e+06
-7.53789e+06
-7.18083e+06
-5.49636e+06
-6.43297e+06
3.70364e+06
3.3625e+06
4.57947e+06
5.38246e+06
6.28204e+06
7.66892e+06
7.43362e+06
6.54729e+06
5.97201e+06
5.35074e+06
5.81352e+06
4.40717e+06
-1.45925e+07
-1.49753e+07
-1.65157e+07
-1.68464e+07
-1.69974e+07
-1.69887e+07
-1.7305e+07
-1.71249e+07
-1.63591e+07
-1.57141e+07
-1.53231e+07
-1.84318e+07
-1.91429e+07
-1.88563e+07
-1.82286e+07
-1.79415e+07
-1.48731e+07
-1.39002e+07
-1.81299e+07
-1.33936e+07
-1.80307e+07
-1.79773e+07
-1.87263e+07
-1.92143e+07
-1.32294e+07
-1.25163e+07
-1.05476e+07
-1.16838e+07
-1.19584e+07
-1.11999e+07
-1.09118e+07
-1.16467e+07
-1.07067e+07
-1.19799e+07
-1.3425e+07
-1.28093e+07
-1.06196e+07
-1.10628e+07
-1.15832e+07
-1.29249e+07
-9.58596e+06
-1.03233e+07
-1.29556e+07
-1.15476e+07
-1.08596e+07
-1.10595e+07
-1.05074e+07
-9.70395e+06
-1.69406e+07
-1.80896e+07
-1.86191e+07
-1.9336e+07
-1.85098e+07
-1.89302e+07
-1.89385e+07
-1.89701e+07
-1.84936e+07
-1.81588e+07
-1.68981e+07
-2.09024e+07
-2.02844e+07
-2.16991e+07
-2.09348e+07
-2.18877e+07
-1.95091e+07
-2.2102e+07
-1.97568e+07
-2.14618e+07
-2.07686e+07
-2.14449e+07
-1.10167e+07
-1.07516e+07
-1.04763e+07
-1.02314e+07
-7.92267e+06
-7.42164e+06
-9.72727e+06
-1.01226e+07
-7.85304e+06
-8.54205e+06
-9.23794e+06
-8.98528e+06
-1.69732e+07
-1.68456e+07
-1.80474e+07
-1.8264e+07
-1.93407e+07
-1.78463e+07
-1.90001e+07
-1.76807e+07
-1.84372e+07
-1.58647e+07
-1.63277e+07
-1.54038e+07
-1.49584e+07
-1.48147e+07
-1.59557e+07
-1.57239e+07
-1.55746e+07
-1.53422e+07
-1.54564e+07
-1.61748e+07
-1.50289e+07
-1.55724e+07
-1.5168e+07
-2.21086e+07
-1.99712e+07
-1.84706e+07
-1.98394e+07
-2.11707e+07
-2.22948e+07
-2.28386e+07
-2.12019e+07
-2.29581e+07
-2.13179e+07
-2.09615e+07
-2.02338e+07
-1.88272e+07
-1.12991e+07
-1.26039e+07
-1.34023e+07
-1.39488e+07
-1.15555e+07
-1.22856e+07
-1.36279e+07
-1.30887e+07
-1.09979e+07
-1.22864e+07
-1.26519e+07
-1.1937e+07
-1.84314e+07
-1.70862e+07
-1.92441e+07
-2.05244e+07
-2.0968e+07
-1.97503e+07
-2.07247e+07
-1.95416e+07
-1.94263e+07
-1.6961e+07
-1.8249e+07
-1.56873e+07
-1.55694e+07
-1.45353e+07
-1.34327e+07
-1.53127e+07
-1.4535e+07
-1.38906e+07
-1.50112e+07
-1.60712e+07
-1.60407e+07
-1.41331e+07
-1.48181e+07
-2.36923e+07
-2.4528e+07
-2.1553e+07
-2.22559e+07
-2.27766e+07
-2.1903e+07
-2.31879e+07
-2.10198e+07
-2.30403e+07
-2.0772e+07
-2.29221e+07
-2.18855e+07
-2.12011e+07
-1.66207e+07
-1.69182e+07
-1.76881e+07
-1.80543e+07
-1.63624e+07
-1.72081e+07
-1.67293e+07
-1.59559e+07
-1.79908e+07
-1.84331e+07
-1.70001e+07
-1.73242e+07
-1.62723e+07
-1.56686e+07
-1.53927e+07
-1.55427e+07
-1.56224e+07
-1.5833e+07
-1.56194e+07
-1.52988e+07
-1.62296e+07
-1.52386e+07
-1.58145e+07
-1.55591e+07
-2.33683e+07
-2.27304e+07
-2.42075e+07
-2.36881e+07
-2.425e+07
-2.27564e+07
-2.43371e+07
-2.29675e+07
-2.41189e+07
-2.28817e+07
-2.34926e+07
-2.29167e+07
-2.44375e+07
-2.10456e+07
-1.97075e+07
-2.2118e+07
-2.30099e+07
-2.37272e+07
-2.24897e+07
-2.36518e+07
-2.22306e+07
-2.23478e+07
-1.92579e+07
-2.06046e+07
-1.89249e+07
-1.89397e+07
-1.75579e+07
-1.80082e+07
-1.86046e+07
-1.79189e+07
-1.75601e+07
-1.82375e+07
-1.80285e+07
-1.84693e+07
-1.93102e+07
-1.93251e+07
-1.49489e+07
-1.58887e+07
-1.68691e+07
-1.68799e+07
-1.49767e+07
-1.57884e+07
-1.64293e+07
-1.64571e+07
-1.44378e+07
-1.54595e+07
-1.62654e+07
-1.54146e+07
-2.20928e+07
-2.31458e+07
-2.42424e+07
-2.43049e+07
-2.45227e+07
-2.40806e+07
-2.45562e+07
-2.41833e+07
-2.40505e+07
-2.356e+07
-2.25343e+07
-2.42027e+07
-2.41937e+07
-2.52529e+07
-2.55846e+07
-2.48306e+07
-2.50606e+07
-2.48075e+07
-2.50872e+07
-2.52322e+07
-2.46715e+07
-2.50921e+07
-2.43939e+07
-2.44389e+07
-2.47022e+07
-2.49584e+07
-2.44596e+07
-2.44426e+07
-2.44973e+07
-1.84842e+07
-1.91329e+07
-1.81848e+07
-1.77255e+07
-1.76079e+07
-1.6779e+07
-1.72264e+07
-1.80088e+07
-1.73935e+07
-1.77728e+07
-1.82354e+07
-1.87784e+07
-2.31522e+07
-2.36408e+07
-2.46195e+07
-2.43119e+07
-2.47133e+07
-2.39397e+07
-2.46705e+07
-2.37633e+07
-2.46659e+07
-2.35741e+07
-2.30289e+07
-1.99464e+07
-2.00789e+07
-2.0345e+07
-1.97294e+07
-1.95505e+07
-2.01484e+07
-1.95184e+07
-1.92713e+07
-2.02102e+07
-2.09019e+07
-2.05484e+07
-2.03074e+07
-2.70808e+07
-2.49935e+07
-2.49999e+07
-2.51919e+07
-2.61741e+07
-2.56799e+07
-2.55367e+07
-2.60865e+07
-2.57302e+07
-2.60786e+07
-2.61776e+07
-2.55352e+07
-2.50228e+07
-2.50684e+07
-2.48834e+07
-2.54484e+07
-2.49494e+07
-2.49753e+07
-2.50357e+07
-2.50228e+07
-1.90424e+07
-1.92816e+07
-1.99408e+07
-2.00471e+07
-1.83068e+07
-1.89536e+07
-1.96473e+07
-1.96354e+07
-1.85673e+07
-1.88923e+07
-1.93002e+07
-1.86855e+07
-2.4299e+07
-2.34525e+07
-2.50725e+07
-2.47752e+07
-2.48853e+07
-2.51756e+07
-2.48597e+07
-2.4963e+07
-2.52509e+07
-2.30042e+07
-2.3921e+07
-2.12042e+07
-2.14282e+07
-2.14756e+07
-2.10804e+07
-2.09404e+07
-2.14838e+07
-2.16351e+07
-2.18394e+07
-2.14911e+07
-2.14859e+07
-2.14577e+07
-2.12893e+07
-2.11545e+07
-2.12468e+07
-2.1794e+07
-2.14551e+07
-2.19664e+07
-2.08584e+07
-2.07373e+07
-2.27429e+07
-2.1806e+07
-2.53576e+07
-2.5034e+07
-1.61107e+07
-1.7955e+07
-2.73453e+06
-4.34165e+06
-3.60334e+06
-2.79512e+06
341574
1.5987e+06
-899895
-2.78775e+06
-554813
-290381
-1.74028e+06
-875306
-6.15601e+06
-6.344e+06
-1.45023e+07
-1.4276e+07
-1.34698e+07
-1.49766e+07
-1.37952e+07
-1.41592e+07
-1.53592e+07
-9.12543e+06
-8.44915e+06
-4.6117e+06
-5.20726e+06
-4.73378e+06
-5.86361e+06
-4.11837e+06
-3.82171e+06
-4.64127e+06
-5.55986e+06
-3.68751e+06
-2.79944e+06
-2.34604e+06
-2.13213e+06
-6.63501e+06
-7.49809e+06
-6.88399e+06
-6.37827e+06
-4.12668e+06
-3.79212e+06
-2.01825e+06
-2.64666e+06
-802778
486839
-302174
-879139
-2.08744e+06
-2.33569e+06
-1.23788e+06
-2.42245e+06
-7.0434e+06
-6.62476e+06
-4.78089e+06
-6.12263e+06
-9.43619e+06
-1.03949e+07
-9.85623e+06
-8.07932e+06
-6.43976e+06
-7.95087e+06
-7.95032e+06
-8.80651e+06
-8.08974e+06
-6.47465e+06
-8.23236e+06
-8.73862e+06
-4.2285e+06
-3.17922e+06
-4.98263e+06
-5.34312e+06
-3.30517e+06
-4.0735e+06
-4.66597e+06
-5.33659e+06
-3.62259e+06
-3.24431e+06
-1.53874e+06
-2.41913e+06
-6.34158e+06
-7.09253e+06
-4.90651e+06
-5.97746e+06
3.10391e+06
3.94307e+06
2.57318e+06
2.0138e+06
3.882e+06
3.3721e+06
2.9811e+06
2.43153e+06
4.06824e+06
4.6954e+06
5.95396e+06
5.10117e+06
937958
335143
1.42309e+06
1.94854e+06
3.40336e+06
2.71759e+06
1.56095e+06
1.45592e+06
2.20189e+06
884447
-456173
-363555
1.51456e+06
908999
2.62521e+06
3.97e+06
56138.6
520234
1.22135e+06
2.01976e+06
-2.89149e+06
-3.5301e+06
-2.27276e+06
-1.66198e+06
95759.9
-458868
-1.62172e+06
-1.03834e+06
-629637
193464
-1.81493e+06
-1.41215e+06
-1.39898e+07
-1.34541e+07
-1.59705e+07
-1.59653e+07
-1.66546e+07
-1.68515e+07
-1.61657e+07
-1.6316e+07
-1.66709e+07
-1.1485e+07
-1.24058e+07
-1.17485e+07
-1.29062e+07
-1.31379e+07
-1.19082e+07
-1.17742e+07
-1.02157e+07
-1.1028e+07
-1.22484e+07
-1.09332e+07
-9.62186e+06
-8.63625e+06
-1.0272e+07
-1.29978e+07
-1.37729e+07
-1.36656e+07
-1.28324e+07
-1.03498e+07
-1.20676e+07
-1.15592e+07
-1.01568e+07
-7.35926e+06
-6.38542e+06
-6.05383e+06
-5.48849e+06
-8.19289e+06
-9.17796e+06
-8.48615e+06
-1.00844e+07
-8.22824e+06
-7.0637e+06
-8.03515e+06
-9.21982e+06
-1.86562e+07
-1.89517e+07
-1.58534e+07
-1.59995e+07
-1.61439e+07
-1.64128e+07
-1.47853e+07
-1.45458e+07
-1.51795e+07
-1.56771e+07
-1.64363e+07
-1.59231e+07
-1.56851e+07
-1.59609e+07
-1.5251e+07
-1.56936e+07
-1.46368e+07
-1.44571e+07
-1.78034e+07
-1.85417e+07
-1.80171e+07
-1.59854e+07
-1.44129e+07
-1.81812e+07
-1.79727e+07
-1.49072e+07
-1.82174e+07
-1.83187e+07
-1.74337e+07
-1.64369e+07
-1.64126e+07
-1.57655e+07
-1.63202e+07
-1.55978e+07
-1.58713e+07
-1.44815e+07
-1.45548e+07
-1.45888e+07
-1.44394e+07
-1.54056e+07
-1.57264e+07
-1.57401e+07
-1.66757e+07
-1.66869e+07
-1.65212e+07
-1.04271e+07
-1.15023e+07
-1.30398e+07
-1.2244e+07
-1.03077e+07
-1.11197e+07
-1.29301e+07
-1.20638e+07
-1.13503e+07
-1.03631e+07
-1.14046e+07
-1.05647e+07
-1.26935e+07
-1.21981e+07
-1.45878e+07
-1.35317e+07
-1.38575e+07
-1.39547e+07
-1.50529e+07
-1.58513e+07
-1.55885e+07
-1.48225e+07
-1.35967e+07
-1.37751e+07
-1.38039e+07
-1.47751e+07
-1.2411e+07
-1.28939e+07
-1.33132e+07
-1.43888e+07
-1.20596e+07
-1.25294e+07
-1.52353e+07
-1.43885e+07
-1.3293e+07
-1.35045e+07
-1.2408e+07
-1.19389e+07
-1.42456e+07
-1.31225e+07
-1.3404e+07
-1.36165e+07
-1.53879e+07
-1.45843e+07
-1.27563e+07
-1.40843e+07
-1.20583e+07
-1.2346e+07
-1.49055e+07
-1.39727e+07
-1.32977e+07
-1.36843e+07
-1.24232e+07
-1.21558e+07
-1.41186e+07
-1.27447e+07
-1.32291e+07
-1.35717e+07
-1.40032e+07
-1.49245e+07
-1.28986e+07
-1.17334e+07
-1.04324e+07
-1.10828e+07
-1.0873e+07
-1.00884e+07
-1.03388e+07
-1.11903e+07
-1.29134e+07
-1.18899e+07
-9.90641e+06
-1.06548e+07
-1.23133e+07
-1.19421e+07
-1.28567e+07
-1.41155e+07
-1.32206e+07
-1.34914e+07
-1.41988e+07
-1.50641e+07
-1.4977e+07
-1.40806e+07
-1.35123e+07
-1.31871e+07
-1.29583e+07
-1.41504e+07
-1.23479e+07
-1.19241e+07
-1.80878e+07
-1.70263e+07
-1.83002e+07
-1.82347e+07
-1.80157e+07
-1.88271e+07
-1.84188e+07
-1.75255e+07
-1.86748e+07
-1.71848e+07
-1.815e+07
-1.70628e+07
-1.75798e+07
-1.7756e+07
-1.61322e+07
-1.66096e+07
-1.66494e+07
-1.51319e+07
-1.50221e+07
-1.48553e+07
-1.48861e+07
-1.64055e+07
-1.62816e+07
-1.63063e+07
-1.81293e+07
-1.79024e+07
-1.7269e+07
-1.5969e+07
-1.74086e+07
-1.72539e+07
-1.68252e+07
-1.46365e+07
-1.45472e+07
-1.5795e+07
-1.60019e+07
-1.66319e+07
-1.69586e+07
-1.58384e+07
-1.70408e+07
-1.60085e+07
-1.6177e+07
-1.47177e+07
-1.4728e+07
-1.97397e+07
-2.02862e+07
-2.09251e+07
-2.02598e+07
-2.16441e+07
-1.93281e+07
-2.11786e+07
-2.14222e+07
-1.90814e+07
-1.95845e+07
-1.91302e+07
-1.78188e+07
-1.74924e+07
-1.76899e+07
-1.79309e+07
-1.62937e+07
-1.65595e+07
-1.71076e+07
-1.865e+07
-1.79981e+07
-1.64596e+07
-1.58202e+07
-1.59792e+07
-1.85413e+07
-1.82937e+07
-1.81555e+07
-1.84009e+07
-1.72646e+07
-1.70112e+07
-1.67983e+07
-1.72421e+07
-1.64479e+07
-1.50568e+07
-1.4919e+07
-1.45846e+07
-1.65713e+07
-1.60343e+07
-1.63055e+07
-1.65729e+07
-1.53402e+07
-1.52962e+07
-1.72523e+07
-1.58158e+07
-1.14797e+07
-1.04409e+07
-1.12493e+07
-1.1711e+07
-9.80041e+06
-1.1371e+07
-1.08332e+07
-1.17413e+07
-1.03487e+07
-9.78442e+06
-8.51423e+06
-9.94635e+06
-1.1986e+07
-1.27708e+07
-1.11971e+07
-1.25144e+07
-1.21135e+07
-1.20305e+07
-1.26403e+07
-1.21749e+07
-1.31672e+07
-1.33375e+07
-1.19454e+07
-1.16978e+07
-1.39637e+07
-1.32432e+07
-1.31899e+07
-1.34523e+07
-1.27496e+07
-1.24921e+07
-1.2655e+07
-1.18713e+07
-1.35829e+07
-1.43376e+07
-1.39464e+07
-1.29364e+07
-1.22178e+07
-1.33291e+07
-1.29016e+07
-1.36154e+07
-1.34987e+07
-1.29095e+07
-1.34679e+07
-1.35519e+07
-1.78765e+07
-1.76954e+07
-1.92438e+07
-1.90724e+07
-1.96821e+07
-1.79771e+07
-1.88716e+07
-2.00001e+07
-1.81626e+07
-1.84375e+07
-1.87941e+07
-1.42107e+07
-1.44856e+07
-1.44098e+07
-1.4308e+07
-1.31891e+07
-1.21367e+07
-1.28408e+07
-1.14585e+07
-1.36225e+07
-1.41353e+07
-1.41658e+07
-1.36799e+07
-1.35755e+07
-1.23831e+07
-1.29926e+07
-1.40164e+07
-1.50451e+07
-1.46082e+07
-1.4917e+07
-1.49441e+07
-1.44968e+07
-1.38253e+07
-1.56541e+07
-1.43709e+07
-1.58038e+07
-1.55865e+07
-1.58164e+07
-1.52323e+07
-1.48362e+07
-1.36897e+07
-1.30967e+07
-1.40928e+07
-1.52311e+07
-1.49646e+07
-1.4353e+07
-1.48617e+07
-1.59722e+07
-1.72078e+07
-1.56035e+07
-1.51371e+07
-1.4538e+07
-1.51897e+07
-1.65189e+07
-1.53718e+07
-1.51239e+07
-1.45576e+07
-1.53317e+07
-1.5839e+07
-1.55652e+07
-1.4488e+07
-1.50243e+07
-1.4597e+07
-1.42977e+07
-1.4256e+07
-1.49727e+07
-1.49584e+07
-1.44214e+07
-1.40329e+07
-1.48951e+07
-1.39751e+07
-1.45314e+07
-1.4075e+07
-1.46854e+07
-1.46297e+07
-1.34707e+07
-1.44097e+07
-1.50885e+07
-1.41704e+07
-1.47473e+07
-1.58346e+07
-1.47953e+07
-1.39618e+07
-1.41652e+07
-1.41585e+07
-1.41076e+07
-1.36072e+07
-2.15582e+07
-2.06039e+07
-1.94808e+07
-1.81057e+07
-2.05832e+07
-2.18422e+07
-2.26374e+07
-2.10168e+07
-2.07958e+07
-2.2496e+07
-2.07802e+07
-1.77906e+07
-1.91368e+07
-1.93151e+07
-2.01594e+07
-2.04779e+07
-1.85446e+07
-1.96044e+07
-1.90928e+07
-1.79204e+07
-1.74777e+07
-1.71376e+07
-1.75051e+07
-1.91569e+07
-1.86894e+07
-1.88916e+07
-2.08112e+07
-2.04874e+07
-1.96836e+07
-1.81579e+07
-2.01725e+07
-1.98154e+07
-1.89484e+07
-1.64412e+07
-1.67416e+07
-1.83459e+07
-1.8062e+07
-1.85946e+07
-1.94966e+07
-1.98476e+07
-1.77856e+07
-1.87744e+07
-1.83746e+07
-1.67689e+07
-1.70806e+07
-1.44531e+07
-1.52932e+07
-1.30143e+07
-1.3423e+07
-1.61123e+07
-1.53818e+07
-1.41066e+07
-1.4149e+07
-1.31341e+07
-1.26793e+07
-1.5038e+07
-1.41084e+07
-1.44181e+07
-1.44451e+07
-1.63589e+07
-1.57314e+07
-1.42665e+07
-1.38202e+07
-1.16183e+07
-1.29262e+07
-1.34189e+07
-1.27708e+07
-1.20171e+07
-1.33467e+07
-1.42471e+07
-1.45896e+07
-1.23816e+07
-1.2986e+07
-1.37538e+07
-1.33425e+07
-1.48268e+07
-1.56046e+07
-1.51486e+07
-1.5058e+07
-1.64447e+07
-1.69555e+07
-1.66351e+07
-1.60816e+07
-1.47658e+07
-1.47341e+07
-1.52172e+07
-1.58824e+07
-1.37139e+07
-1.41045e+07
-1.72627e+07
-1.86272e+07
-1.97353e+07
-2.10399e+07
-2.12565e+07
-1.98649e+07
-1.95547e+07
-2.1457e+07
-1.99694e+07
-1.88651e+07
-1.74868e+07
-1.68482e+07
-1.88302e+07
-1.85236e+07
-1.77579e+07
-1.5269e+07
-1.53921e+07
-1.69071e+07
-1.69107e+07
-1.74789e+07
-1.82073e+07
-1.8479e+07
-1.65834e+07
-1.72396e+07
-1.71613e+07
-1.56877e+07
-1.54996e+07
-1.80345e+07
-1.88571e+07
-1.91595e+07
-1.71094e+07
-1.79973e+07
-1.77288e+07
-1.61022e+07
-1.63529e+07
-1.74125e+07
-1.95023e+07
-1.83206e+07
-1.91768e+07
-1.57701e+07
-1.59986e+07
-1.74651e+07
-1.76162e+07
-1.52667e+07
-1.49732e+07
-1.69146e+07
-1.64946e+07
-1.67633e+07
-1.65381e+07
-1.81159e+07
-1.82703e+07
-1.79049e+07
-1.77119e+07
-1.61605e+07
-1.63159e+07
-1.69388e+07
-1.72394e+07
-1.54237e+07
-1.56836e+07
-1.2959e+07
-1.41536e+07
-1.52713e+07
-1.50761e+07
-1.31959e+07
-1.38785e+07
-1.48955e+07
-1.46509e+07
-1.25025e+07
-1.37552e+07
-1.43684e+07
-1.36354e+07
-1.60568e+07
-1.65454e+07
-1.48684e+07
-1.45583e+07
-1.72711e+07
-1.6871e+07
-1.53737e+07
-1.54922e+07
-1.59014e+07
-1.57457e+07
-1.72946e+07
-1.75762e+07
-1.44579e+07
-1.41125e+07
-1.56452e+07
-1.62242e+07
-2.39482e+07
-2.43394e+07
-1.94749e+07
-1.94044e+07
-1.93595e+07
-1.93526e+07
-1.91728e+07
-1.76524e+07
-1.68819e+07
-1.71657e+07
-1.89278e+07
-1.87845e+07
-1.88691e+07
-1.90196e+07
-1.74102e+07
-1.76497e+07
-1.97425e+07
-1.81841e+07
-2.25824e+07
-2.18648e+07
-2.32618e+07
-2.24472e+07
-2.33501e+07
-2.11898e+07
-2.31184e+07
-2.35006e+07
-2.14292e+07
-2.21328e+07
-2.28577e+07
-1.97389e+07
-1.98768e+07
-1.99302e+07
-1.99254e+07
-1.83227e+07
-1.85535e+07
-1.90358e+07
-2.06689e+07
-2.02401e+07
-1.86208e+07
-1.78833e+07
-1.81581e+07
-2.03085e+07
-2.03895e+07
-2.03602e+07
-2.01312e+07
-1.73732e+07
-1.76215e+07
-1.62311e+07
-1.65013e+07
-1.5822e+07
-1.55634e+07
-1.58095e+07
-1.60923e+07
-1.71474e+07
-1.70435e+07
-1.56491e+07
-1.62975e+07
-1.92577e+07
-1.82875e+07
-1.74919e+07
-1.78826e+07
-1.93453e+07
-2.073e+07
-1.9185e+07
-1.88468e+07
-1.84923e+07
-1.8765e+07
-1.90879e+07
-2.04445e+07
-1.83068e+07
-1.78658e+07
-1.85937e+07
-1.96017e+07
-1.74467e+07
-1.70931e+07
-1.79606e+07
-1.88831e+07
-1.77085e+07
-1.78952e+07
-1.8386e+07
-1.97608e+07
-1.84962e+07
-1.75891e+07
-1.66691e+07
-1.70111e+07
-1.87448e+07
-2.01286e+07
-1.8133e+07
-1.83559e+07
-1.5738e+07
-1.52249e+07
-1.62794e+07
-1.7025e+07
-1.57369e+07
-1.60644e+07
-1.65658e+07
-1.78017e+07
-1.64553e+07
-1.57847e+07
-1.47981e+07
-1.54058e+07
-1.70921e+07
-1.83885e+07
-1.65201e+07
-1.62992e+07
-1.54071e+07
-1.55042e+07
-1.64085e+07
-1.61863e+07
-1.56423e+07
-1.54232e+07
-1.67186e+07
-1.66933e+07
-1.54242e+07
-1.57344e+07
-1.54393e+07
-1.57489e+07
-1.75486e+07
-1.6747e+07
-1.61409e+07
-1.57246e+07
-1.79854e+07
-1.93637e+07
-1.74707e+07
-1.72946e+07
-1.682e+07
-1.70186e+07
-1.88748e+07
-1.75633e+07
-1.659e+07
-1.62094e+07
-1.80316e+07
-1.71809e+07
-2.25644e+07
-2.32263e+07
-2.39248e+07
-2.32385e+07
-2.41544e+07
-2.25994e+07
-2.40056e+07
-2.40818e+07
-2.23777e+07
-2.30641e+07
-2.23734e+07
-2.0988e+07
-2.16091e+07
-2.16432e+07
-2.11515e+07
-2.001e+07
-1.99547e+07
-2.03048e+07
-2.19339e+07
-2.16812e+07
-2.00078e+07
-1.96565e+07
-1.96657e+07
-2.14111e+07
-2.19787e+07
-2.19742e+07
-2.12688e+07
-2.08713e+07
-2.12441e+07
-2.12342e+07
-2.07695e+07
-2.10018e+07
-1.93949e+07
-1.88137e+07
-1.89957e+07
-2.04871e+07
-2.08182e+07
-2.05939e+07
-2.0832e+07
-1.92783e+07
-1.93519e+07
-1.96973e+07
-2.13467e+07
-2.33696e+07
-2.40437e+07
-1.97541e+07
-2.14502e+07
-2.10961e+07
-2.04435e+07
-1.79412e+07
-1.83269e+07
-1.99507e+07
-1.94418e+07
-2.00189e+07
-2.07849e+07
-2.11348e+07
-1.9352e+07
-2.03432e+07
-1.98116e+07
-1.83106e+07
-1.87193e+07
-2.01625e+07
-2.14581e+07
-2.27316e+07
-2.33937e+07
-2.38731e+07
-2.2644e+07
-2.25168e+07
-2.39279e+07
-2.27789e+07
-2.18944e+07
-2.06167e+07
-2.08264e+07
-2.14191e+07
-2.01527e+07
-2.17382e+07
-2.11145e+07
-2.0565e+07
-1.96239e+07
-1.9119e+07
-1.87366e+07
-1.91759e+07
-2.07198e+07
-2.01518e+07
-2.05495e+07
-2.20423e+07
-2.17278e+07
-2.1206e+07
-1.70432e+07
-1.76218e+07
-1.84884e+07
-1.85293e+07
-1.66964e+07
-1.74919e+07
-1.80755e+07
-1.81719e+07
-1.72173e+07
-1.65103e+07
-1.79119e+07
-1.70992e+07
-1.87295e+07
-1.87445e+07
-1.99197e+07
-1.9804e+07
-2.03174e+07
-1.99781e+07
-2.11939e+07
-2.1185e+07
-2.08134e+07
-2.08996e+07
-1.98585e+07
-1.95528e+07
-2.0163e+07
-2.02538e+07
-1.92041e+07
-1.91477e+07
-1.94399e+07
-1.95269e+07
-1.82949e+07
-1.82966e+07
-2.01145e+07
-2.01783e+07
-1.89985e+07
-1.86322e+07
-1.78468e+07
-1.77933e+07
-1.91393e+07
-1.90531e+07
-1.94176e+07
-1.90953e+07
-2.04611e+07
-2.05435e+07
-1.78146e+07
-1.79911e+07
-1.63847e+07
-1.65245e+07
-1.86377e+07
-1.85467e+07
-1.71742e+07
-1.69421e+07
-1.60889e+07
-1.58863e+07
-1.7632e+07
-1.73846e+07
-1.76208e+07
-1.73706e+07
-1.89836e+07
-1.89824e+07
-1.72997e+07
-1.73426e+07
-1.54265e+07
-1.62898e+07
-1.70776e+07
-1.62938e+07
-1.59416e+07
-1.67504e+07
-1.77147e+07
-1.77747e+07
-1.58905e+07
-1.66517e+07
-1.6956e+07
-1.68429e+07
-1.82476e+07
-1.83956e+07
-1.85551e+07
-1.82186e+07
-1.97591e+07
-1.9708e+07
-1.93496e+07
-1.93664e+07
-1.77979e+07
-1.80846e+07
-1.86355e+07
-1.87565e+07
-1.74148e+07
-1.73384e+07
-2.27283e+07
-2.16064e+07
-2.36718e+07
-2.39898e+07
-2.44236e+07
-2.39022e+07