/*--------------------------------*- C++ -*----------------------------------*\
| =========                 |                                                 |
| \\      /  F ield         | OpenFOAM: The Open Source CFD Toolbox           |
|  \\    /   O peration     | Version:  2012                                  |
|   \\  /    A nd           | Website:  www.openfoam.com                      |
|    \\/     M anipulation  |                                                 |
\*---------------------------------------------------------------------------*/
FoamFile
{
    version     2.0;
    format      ascii;
    class       volScalarField;
    location    "0.108/solid";
    object      sigmaDiff;
}
// * * * * * * * * * * * * * * * * * * * * * * * * * * * * * * * * * * * * * //

dimensions      [1 -1 -2 0 0 0 0];


internalField   nonuniform List<scalar> 
3125
(
-3.44576e+07
-3.6056e+07
-7.25913e+06
-2.09407e+07
-3.56827e+07
-3.98851e+07
-6.45463e+07
-3.63472e+07
-2.65051e+07
-4.28697e+07
-7.53597e+07
-2.45817e+07
-3.67287e+07
-3.98729e+07
-3.70073e+07
-3.64483e+07
-2.67719e+07
-2.60154e+07
-2.68538e+07
-4.24414e+07
-2.39789e+07
-3.93952e+07
-3.39392e+07
-2.1974e+07
-3.61337e+07
-1.87243e+07
-3.48213e+07
-2.25927e+07
-2.67922e+07
-2.13131e+07
-2.70071e+07
-2.38196e+07
-3.80322e+07
-2.19732e+07
-2.86207e+06
-1.62721e+07
-2.1455e+07
-5.81472e+06
-2.05313e+07
-3.11152e+06
-2.15413e+07
-2.11373e+07
-3.67892e+07
-3.69158e+07
-1.14447e+07
-1.27992e+07
-3.09146e+07
-3.15574e+07
-3.45757e+07
-2.84981e+07
-2.5284e+07
-4.35836e+07
-3.69842e+07
-3.09677e+07
-4.41181e+07
-4.69531e+07
-3.09782e+07
-2.9675e+07
-3.62309e+07
-2.70769e+07
-3.68474e+07
-3.50145e+07
-7.2509e+07
-3.70406e+07
-4.41321e+07
-4.89628e+07
-3.28922e+07
-4.11009e+07
-7.32861e+07
-5.34353e+07
-4.70395e+07
-3.47887e+07
-2.8133e+07
-3.76583e+07
-3.90693e+07
-4.04441e+07
-4.30935e+07
-3.91237e+07
-3.99397e+07
-4.27391e+07
-3.91211e+07
-3.87936e+07
-4.29264e+07
-4.01183e+07
-3.95312e+07
-4.28308e+07
-2.58358e+07
-2.56822e+07
-2.46236e+07
-3.34909e+07
-3.17888e+07
-3.2714e+07
-4.21744e+07
-3.46838e+07
-2.42587e+07
-2.79017e+07
-3.07104e+07
-3.56797e+07
-4.18876e+07
-3.53307e+07
-2.9229e+07
-2.84152e+07
-3.86969e+07
-3.0744e+07
-3.18204e+07
-2.6206e+07
-2.01254e+07
-2.85364e+07
-3.8351e+07
-2.85996e+07
-3.12844e+07
-2.98017e+07
-2.12939e+07
-2.9206e+07
-2.56623e+07
-2.52942e+07
-3.34142e+07
-2.64083e+07
-3.11703e+07
-3.05407e+07
-2.47234e+07
-3.05205e+07
-3.52162e+07
-3.26369e+07
-3.20695e+07
-2.60631e+07
-2.4511e+07
-2.98434e+07
-1.14141e+07
-8.2982e+06
-9.70092e+06
-1.76635e+07
-9.82867e+06
-1.12317e+07
-1.28418e+07
-1.87456e+07
-1.17718e+07
-8.9424e+06
-8.32318e+06
-9.43608e+06
-1.22648e+07
-1.35372e+07
-1.20462e+07
-8.29166e+06
-1.29128e+07
-2.25403e+07
-1.49518e+07
-1.56413e+07
-1.34698e+07
-2.24065e+07
-1.53938e+07
-8.91133e+06
-1.29494e+07
-1.33353e+07
-3.57613e+07
-3.67906e+07
-5.78413e+06
-1.76575e+07
-2.99568e+07
-3.41956e+07
-2.34347e+07
-2.78987e+07
-4.03062e+07
-3.89307e+07
-3.84934e+07
-5.89224e+07
-5.7515e+07
-5.20465e+07
-3.38723e+07
-2.9876e+07
-2.82635e+07
-4.53854e+07
-2.90872e+07
-4.78963e+07
-4.608e+07
-4.39028e+07
-4.04493e+07
-4.15459e+07
-7.50108e+07
-6.66932e+07
-6.59866e+07
-2.77054e+07
-2.08264e+07
-2.43906e+07
-3.8137e+07
-2.89777e+07
-2.79354e+07
-3.9635e+07
-3.99999e+07
-4.0325e+07
-3.84432e+07
-2.9265e+07
-3.07804e+07
-3.78548e+07
-3.77911e+07
-3.91996e+07
-2.65051e+07
-2.53801e+07
-2.61e+07
-2.30667e+07
-2.05596e+07
-4.00819e+07
-4.23226e+07
-4.00808e+07
-2.33291e+07
-1.95804e+07
-1.90434e+07
-3.84586e+07
-4.0507e+07
-3.93412e+07
-3.21283e+07
-2.49103e+07
-2.68043e+07
-3.40759e+07
-2.72267e+07
-2.12302e+07
-1.91503e+07
-2.18139e+07
-3.61811e+07
-3.29467e+07
-3.42243e+07
-2.58345e+07
-1.87659e+07
-2.03135e+07
-2.65881e+07
-2.33389e+07
-2.19033e+07
-2.71135e+07
-2.37423e+07
-2.60993e+07
-2.43354e+07
-2.65568e+07
-3.73503e+07
-3.64203e+07
-3.5972e+07
-2.41063e+07
-1.98593e+07
-2.09562e+07
-5.23748e+06
-4.57063e+06
-3.95272e+06
-1.65512e+07
-1.39247e+07
-1.40853e+07
-1.7936e+07
-1.72537e+07
-1.4943e+07
-1.03742e+07
-6.91802e+06
-6.9643e+06
-1.78528e+07
-5.55169e+06
-5.11628e+06
-4.77549e+06
-2.2102e+07
-1.92787e+07
-1.98336e+07
-1.8249e+07
-1.8693e+07
-1.64611e+07
-1.03646e+07
-9.16081e+06
-3.60969e+07
-3.69184e+07
-7.13123e+06
-1.65057e+07
-3.00961e+07
-3.35902e+07
-2.68669e+07
-2.87708e+07
-2.06324e+07
-2.4724e+07
-2.73689e+07
-2.67818e+07
-2.56247e+07
-2.08721e+07
-1.88624e+07
-4.14351e+07
-3.98836e+07
-3.86703e+07
-3.79396e+07
-3.46331e+07
-3.65213e+07
-3.55521e+07
-3.24272e+07
-3.55451e+07
-5.23531e+07
-3.75642e+07
-4.5533e+07
-5.16073e+07
-4.24421e+07
-4.65022e+07
-3.31025e+07
-3.70505e+07
-4.03615e+07
-3.28923e+07
-2.71297e+07
-2.84463e+07
-3.66982e+07
-3.32163e+07
-3.31678e+07
-2.4752e+07
-2.99947e+07
-2.90841e+07
-4.31104e+07
-3.0345e+07
-7.27319e+07
-6.1469e+07
-6.15157e+07
-4.49293e+07
-3.48667e+07
-4.2842e+07
-5.20662e+07
-4.22708e+07
-5.12231e+07
-4.58509e+07
-4.70663e+07
-4.36593e+07
-3.71001e+07
-3.41383e+07
-3.82342e+07
-4.44001e+07
-3.68037e+07
-4.05824e+07
-7.46338e+07
-6.33306e+07
-6.50638e+07
-5.93546e+07
-5.19066e+07
-5.82428e+07
-5.45146e+07
-4.97913e+07
-5.67251e+07
-2.9181e+07
-3.24629e+07
-2.61197e+07
-2.34176e+07
-2.96662e+07
-2.5341e+07
-3.48832e+07
-3.28059e+07
-2.91704e+07
-3.84793e+07
-2.90639e+07
-3.0182e+07
-4.14802e+07
-4.17969e+07
-4.27861e+07
-4.4084e+07
-4.26907e+07
-4.36801e+07
-3.9414e+07
-4.08543e+07
-4.06786e+07
-4.00671e+07
-4.09847e+07
-4.08097e+07
-4.20682e+07
-4.20394e+07
-4.15808e+07
-3.87383e+07
-3.08462e+07
-2.95887e+07
-3.95548e+07
-4.07908e+07
-4.17036e+07
-4.39286e+07
-4.21652e+07
-4.31479e+07
-3.92315e+07
-4.14843e+07
-4.05852e+07
-3.88205e+07
-4.07731e+07
-4.01773e+07
-4.24028e+07
-4.20163e+07
-4.15255e+07
-2.63521e+07
-2.53686e+07
-2.57558e+07
-1.89727e+07
-2.1568e+07
-3.22453e+07
-3.32363e+07
-3.16165e+07
-2.91905e+07
-3.26541e+07
-3.05628e+07
-3.68451e+07
-3.31674e+07
-3.70758e+07
-4.22892e+07
-4.03134e+07
-4.02307e+07
-3.39217e+07
-3.79249e+07
-3.75138e+07
-2.34242e+07
-1.98394e+07
-1.81294e+07
-2.32322e+07
-2.85066e+07
-2.41769e+07
-2.75156e+07
-2.95577e+07
-2.57768e+07
-3.73622e+07
-3.58571e+07
-3.7927e+07
-4.13399e+07
-4.02574e+07
-3.99338e+07
-3.5732e+07
-3.81876e+07
-3.81934e+07
-3.14556e+07
-2.58256e+07
-3.98359e+07
-3.66334e+07
-3.79173e+07
-3.32922e+07
-2.4914e+07
-2.51166e+07
-3.43135e+07
-3.34458e+07
-3.5772e+07
-2.37334e+07
-2.71077e+07
-2.44746e+07
-1.9575e+07
-2.28302e+07
-2.2386e+07
-2.79804e+07
-2.56784e+07
-2.52021e+07
-3.75085e+07
-3.62535e+07
-3.54685e+07
-3.08566e+07
-2.96392e+07
-3.20256e+07
-3.38766e+07
-3.06531e+07
-3.31655e+07
-2.68713e+07
-2.29405e+07
-2.20828e+07
-2.30612e+07
-2.39147e+07
-2.5732e+07
-3.09638e+07
-2.65535e+07
-2.83804e+07
-2.64353e+07
-2.39054e+07
-3.25263e+07
-3.29755e+07
-3.23713e+07
-2.70331e+07
-2.34704e+07
-2.25078e+07
-3.22256e+07
-3.10464e+07
-3.18916e+07
-2.83614e+07
-3.0744e+07
-2.87014e+07
-2.46599e+07
-2.6809e+07
-2.68259e+07
-3.08124e+07
-2.87524e+07
-2.88921e+07
-3.65442e+07
-3.44385e+07
-3.54424e+07
-3.4615e+07
-3.26414e+07
-3.44072e+07
-3.33912e+07
-3.25528e+07
-3.41164e+07
-2.46857e+07
-2.22248e+07
-2.21555e+07
-2.49499e+07
-2.64835e+07
-2.68582e+07
-2.99298e+07
-2.82626e+07
-2.84986e+07
-6.83079e+06
-9.27128e+06
-5.12803e+06
-5.84023e+06
-5.97108e+06
-5.40569e+06
-1.03572e+07
-7.78349e+06
-7.94083e+06
-1.68427e+07
-1.53568e+07
-1.44631e+07
-1.17424e+07
-1.0146e+07
-1.19037e+07
-1.32102e+07
-1.06793e+07
-1.24683e+07
-1.6708e+07
-1.0463e+07
-1.36559e+07
-2.04049e+07
-1.6287e+07
-1.77991e+07
-1.28006e+07
-1.39632e+07
-1.5262e+07
-1.01758e+07
-6.51594e+06
-6.82626e+06
-7.29512e+06
-8.71885e+06
-7.58691e+06
-7.84941e+06
-9.11292e+06
-7.7941e+06
-8.2228e+06
-1.6868e+07
-7.24577e+06
-1.06039e+07
-5.96936e+06
-6.05067e+06
-7.77e+06
-6.78504e+06
-1.27309e+07
-1.0382e+07
-9.77653e+06
-2.24358e+07
-2.02696e+07
-2.01613e+07
-1.70715e+07
-1.54389e+07
-1.76116e+07
-1.79674e+07
-1.5664e+07
-1.78973e+07
-1.71652e+07
-1.18509e+07
-1.53133e+07
-2.28925e+07
-2.01556e+07
-2.05976e+07
-1.55222e+07
-1.78251e+07
-1.81688e+07
-1.01465e+07
-8.52747e+06
-8.96009e+06
-1.09998e+07
-1.33674e+07
-1.12828e+07
-1.09925e+07
-1.34904e+07
-1.12859e+07
-3.49291e+07
-3.63624e+07
-4.92666e+06
-1.98828e+07
-2.97906e+07
-3.52341e+07
-1.87191e+07
-2.15372e+07
-1.12588e+07
-2.24732e+07
-4.39513e+07
-3.5591e+07
-4.42988e+07
-3.39602e+07
-4.25038e+07
-3.33759e+07
-4.61985e+07
-5.01334e+07
-2.71628e+07
-7.96297e+07
-5.41922e+07
-5.41797e+07
-7.09528e+07
-2.32728e+07
-2.53931e+07
-2.18292e+07
-2.24808e+07
-2.27834e+07
-2.30087e+07
-2.35317e+07
-5.56856e+07
-3.72502e+07
-4.88609e+07
-3.39048e+07
-4.96456e+07
-3.4396e+07
-5.48253e+07
-5.02591e+07
-3.75784e+07
-4.58733e+07
-3.4489e+07
-4.72511e+07
-4.82938e+07
-3.4933e+07
-2.66968e+07
-2.56923e+07
-4.08185e+07
-2.66371e+07
-2.46348e+07
-3.37248e+07
-2.43392e+07
-3.34119e+07
-4.11037e+07
-2.55928e+07
-2.35945e+07
-2.11227e+07
-2.24373e+07
-2.43461e+07
-2.0663e+07
-2.28081e+07
-3.33666e+07
-2.29779e+07
-5.28098e+07
-4.79648e+07
-3.33499e+07
-3.54987e+07
-5.38768e+07
-4.69864e+07
-3.27801e+07
-3.24077e+07
-2.36963e+07
-2.75334e+07
-2.08417e+07
-2.90897e+07
-2.18724e+07
-3.06095e+07
-2.67793e+07
-2.20307e+07
-4.12506e+07
-2.48706e+07
-3.39255e+07
-2.71118e+07
-4.1243e+07
-2.50545e+07
-3.40189e+07
-3.18288e+07
-2.27399e+07
-2.08235e+07
-2.6292e+07
-2.1533e+07
-2.72979e+07
-3.055e+07
-3.57208e+06
-3.33218e+06
-3.71166e+06
-2.30923e+06
-4.45465e+06
-1.86598e+06
-1.70728e+06
-2.70948e+07
-2.03144e+07
-2.59652e+07
-1.97774e+07
-2.44173e+07
-2.8844e+07
-1.87263e+07
-5.66318e+06
-1.97085e+07
-3.21565e+06
-3.59107e+06
-3.25523e+06
-3.19644e+06
-2.31538e+06
-3.76161e+06
-2.3158e+06
-2.78244e+07
-2.02505e+07
-2.00486e+07
-2.52287e+07
-2.9209e+07
-1.92132e+07
-2.41106e+07
-8.9008e+06
-1.07031e+07
-8.23692e+06
-8.98918e+06
-3.66018e+07
-3.69768e+07
-1.00267e+07
-1.40963e+07
-3.05016e+07
-3.22444e+07
-1.68288e+07
-2.72685e+07
-2.45439e+07
-2.7221e+07
-2.119e+07
-2.10679e+07
-2.61944e+07
-2.89274e+07
-3.07979e+07
-2.77095e+07
-2.82655e+07
-3.06754e+07
-2.51058e+07
-2.92651e+07
-3.88193e+07
-3.3297e+07
-4.80424e+07
-3.94841e+07
-3.59508e+07
-4.12702e+07
-3.86503e+07
-4.55636e+07
-4.27702e+07
-3.37508e+07
-3.27288e+07
-3.34422e+07
-3.73162e+07
-3.11363e+07
-3.37522e+07
-3.79711e+07
-5.75417e+07
-3.89399e+07
-5.18261e+07
-3.60492e+07
-5.17927e+07
-5.73906e+07
-3.5932e+07
-5.65132e+07
-3.90822e+07
-5.16929e+07
-3.61099e+07
-5.13971e+07
-5.70405e+07
-3.60938e+07
-2.60169e+07
-2.55374e+07
-3.72514e+07
-2.50078e+07
-2.18473e+07
-2.94524e+07
-2.23124e+07
-3.03494e+07
-3.61084e+07
-3.33997e+07
-2.39166e+07
-2.14007e+07
-2.84772e+07
-2.09977e+07
-2.74345e+07
-3.48273e+07
-3.00053e+07
-2.75703e+07
-4.60399e+07
-3.16338e+07
-3.95978e+07
-2.83822e+07
-4.09786e+07
-4.44311e+07
-2.92178e+07
-4.11319e+07
-2.88499e+07
-3.81577e+07
-2.75012e+07
-3.67033e+07
-4.28009e+07
-2.66305e+07
-2.59617e+07
-2.48797e+07
-3.95111e+07
-2.66799e+07
-2.47619e+07
-3.25784e+07
-2.49691e+07
-3.30366e+07
-3.88388e+07
-3.72131e+07
-2.56611e+07
-2.44904e+07
-3.2035e+07
-2.41558e+07
-3.14128e+07
-3.8068e+07
-1.35967e+07
-9.93161e+06
-1.3742e+07
-1.04072e+07
-1.21628e+07
-1.53081e+07
-8.99453e+06
-5.86645e+06
-7.54844e+06
-6.04835e+06
-6.71028e+06
-6.41498e+06
-5.28927e+06
-6.01876e+06
-1.86536e+07
-1.4186e+07
-1.52956e+07
-1.17647e+07
-1.68075e+07
-1.69885e+07
-1.30274e+07
-7.26938e+06
-9.48822e+06
-6.43526e+06
-7.30839e+06
-6.8862e+06
-7.00283e+06
-7.81797e+06
-1.09642e+07
-1.47045e+07
-1.44997e+07
-1.05295e+07
-1.12463e+07
-1.46398e+07
-9.72731e+06
-1.29675e+07
-1.64462e+07
-6.58468e+06
-7.59037e+06
-6.3236e+06
-6.68554e+06
-5.62483e+06
-7.10745e+06
-6.11729e+06
-2.0055e+07
-1.47922e+07
-1.26487e+07
-1.62088e+07
-1.39529e+07
-1.76871e+07
-1.83013e+07
-7.95462e+06
-9.44616e+06
-6.71996e+06
-7.23546e+06
-7.24328e+06
-7.52472e+06
-7.72961e+06
-3.53641e+07
-3.66166e+07
-4.79854e+06
-1.87892e+07
-2.98649e+07
-3.47506e+07
-3.21284e+07
-4.0511e+07
-1.3082e+07
-2.22837e+07
-1.15348e+07
-2.34476e+07
-1.00809e+07
-2.28304e+07
-9.05344e+06
-4.97612e+07
-6.83088e+07
-6.63972e+07
-6.87129e+07
-6.57718e+07
-7.09274e+07
-6.97752e+07
-6.96572e+07
-7.1302e+07
-6.8676e+07
-6.77779e+07
-6.92593e+07
-6.80086e+07
-1.14714e+08
-1.01385e+08
-1.09602e+08
-1.06409e+08
-1.2764e+08
-1.36697e+08
-1.23843e+08
-1.2878e+08
-1.33413e+08
-1.19283e+08
-1.1828e+08
-1.1033e+08
-4.21375e+07
-4.75139e+07
-4.1484e+07
-3.47633e+07
-3.84042e+07
-3.19461e+07
-4.05422e+07
-3.26874e+07
-3.8752e+07
-5.53757e+07
-5.05473e+07
-4.77544e+07
-2.804e+07
-8.55708e+07
-9.48214e+07
-7.27644e+07
-5.10009e+07
-4.7648e+07
-6.01402e+07
-5.08761e+07
-6.54741e+07
-6.61118e+07
-1.14958e+08
-1.04902e+08
-7.61546e+07
-7.39916e+07
-7.6718e+07
-7.3222e+07
-7.71824e+07
-7.67867e+07
-7.7499e+07
-7.86966e+07
-7.53978e+07
-7.32699e+07
-7.57835e+07
-7.31634e+07
-1.30288e+08
-1.19817e+08
-1.28746e+08
-1.21416e+08
-1.41478e+08
-1.51162e+08
-1.40439e+08
-1.49766e+08
-1.5065e+08
-1.39523e+08
-1.31179e+08
-1.22818e+08
-3.43894e+07
-3.46482e+07
-2.37503e+07
-2.64429e+07
-2.54445e+07
-2.57159e+07
-2.40054e+07
-2.40863e+07
-2.50316e+07
-3.72259e+07
-3.51712e+07
-7.39248e+07
-7.386e+07
-5.63508e+07
-3.772e+07
-5.08885e+07
-3.51869e+07
-5.03121e+07
-3.48168e+07
-5.69005e+07
-7.2177e+07
-7.27121e+07
-7.25277e+07
-7.40347e+07
-7.45455e+07
-7.48313e+07
-7.14082e+07
-7.24088e+07
-7.46376e+07
-7.36551e+07
-7.18199e+07
-7.11216e+07
-7.02334e+07
-7.08637e+07
-6.67562e+07
-6.34441e+07
-5.19819e+07
-3.80511e+07
-4.94601e+07
-3.55951e+07
-4.84466e+07
-3.53091e+07
-5.34486e+07
-5.74607e+07
-6.17413e+07
-7.68966e+07
-7.94819e+07
-7.6819e+07
-7.60946e+07
-7.51548e+07
-7.23094e+07
-7.46516e+07
-7.71893e+07
-7.41679e+07
-7.45389e+07
-7.45283e+07
-7.75578e+07
-2.66328e+07
-2.54818e+07
-6.03715e+07
-6.12387e+07
-4.04054e+07
-2.6402e+07
-2.36415e+07
-3.25176e+07
-2.4028e+07
-3.30279e+07
-3.98567e+07
-6.13722e+07
-6.09803e+07
-7.71118e+07
-7.67408e+07
-7.61082e+07
-7.82147e+07
-7.73216e+07
-7.73626e+07
-7.6754e+07
-7.42332e+07
-7.5857e+07
-7.47685e+07
-7.83729e+07
-7.83941e+07
-4.67432e+07
-4.38787e+07
-2.70545e+07
-2.33789e+07
-2.03167e+07
-2.43121e+07
-2.03881e+07
-2.34573e+07
-2.863e+07
-3.90336e+07
-4.18223e+07
-8.02483e+07
-8.13408e+07
-8.05074e+07
-8.04391e+07
-7.88703e+07
-7.74844e+07
-7.91365e+07
-7.90311e+07
-7.8613e+07
-8.01933e+07
-7.9211e+07
-8.0354e+07
-3.27774e+07
-2.39551e+07
-6.66142e+07
-6.78798e+07
-5.1634e+07
-3.4814e+07
-4.47834e+07
-3.14618e+07
-4.59271e+07
-3.21514e+07
-5.03371e+07
-7.06525e+07
-6.97397e+07
-4.52639e+07
-4.91167e+07
-4.74006e+07
-4.64963e+07
-4.17359e+07
-3.92917e+07
-4.38354e+07
-4.64085e+07
-4.26885e+07
-4.15839e+07
-4.05291e+07
-4.41533e+07
-6.82088e+07
-6.83243e+07
-7.14044e+07
-6.76869e+07
-6.92483e+07
-7.23749e+07
-7.14126e+07
-7.48122e+07
-7.15006e+07
-7.16487e+07
-6.89526e+07
-6.55852e+07
-4.71109e+07
-4.4942e+07
-3.41578e+07
-2.47729e+07
-3.21813e+07
-2.38302e+07
-3.06284e+07
-2.28519e+07
-3.59307e+07
-4.00782e+07
-4.23114e+07
-2.67042e+07
-2.27311e+07
-5.94943e+07
-5.98751e+07
-4.11428e+07
-2.71456e+07
-2.51901e+07
-3.3895e+07
-2.51526e+07
-3.40061e+07
-4.08837e+07
-6.08391e+07
-6.08485e+07
-5.24654e+07
-5.56574e+07
-5.46455e+07
-5.30975e+07
-4.91724e+07
-4.66691e+07
-5.14942e+07
-5.4005e+07
-4.97686e+07
-4.81055e+07
-4.75192e+07
-5.06806e+07
-7.46288e+07
-7.40714e+07
-7.58264e+07
-7.34599e+07
-7.51474e+07
-7.6813e+07
-7.63471e+07
-7.83987e+07
-7.72588e+07
-7.69044e+07
-7.41267e+07
-7.22192e+07
-4.68534e+07
-4.52127e+07
-3.30492e+07
-2.34614e+07
-2.27815e+07
-2.91567e+07
-2.21961e+07
-2.8265e+07
-3.42138e+07
-4.12393e+07
-4.30642e+07
-1.17468e+07
-9.45096e+06
-5.97482e+06
-3.73771e+06
-7.34033e+06
-4.56e+06
-5.72906e+06
-3.00027e+06
-8.09107e+06
-4.56189e+06
-3.34075e+06
-2.98933e+06
-3.13788e+06
-2.29146e+06
-2.30649e+06
-4.76911e+06
-3.28183e+06
-6.28742e+06
-3.34406e+07
-3.21237e+07
-3.44528e+07
-3.13859e+07
-3.48089e+07
-3.71606e+07
-3.27114e+07
-3.05165e+07
-3.58551e+07
-3.92533e+07
-3.80356e+07
-3.67735e+07
-3.06342e+07
-3.28281e+07
-2.53696e+07
-1.91412e+07
-2.13434e+07
-1.65247e+07
-2.28804e+07
-1.76506e+07
-2.36443e+07
-3.75231e+07
-3.52964e+07
-1.37402e+07
-1.57779e+07
-1.3829e+07
-1.55884e+07
-1.03966e+07
-7.69418e+06
-1.35183e+07
-1.5296e+07
-1.04679e+07
-7.5159e+06
-7.67097e+06
-1.04697e+07
-5.99885e+06
-1.88079e+07
-1.27153e+07
-1.02387e+07
-5.41394e+06
-3.99074e+06
-4.69139e+06
-7.2535e+06
-3.01972e+06
-5.16838e+06
-7.89059e+06
-5.22946e+06
-4.34864e+06
-3.58364e+06
-4.09479e+06
-3.03458e+06
-3.6891e+06
-5.61085e+06
-3.45116e+06
-6.79107e+06
-4.00254e+07
-3.823e+07
-4.07191e+07
-3.77654e+07
-4.18481e+07
-4.4355e+07
-4.26055e+07
-4.57336e+07
-4.49375e+07
-4.31551e+07
-3.95489e+07
-3.71042e+07
-3.29353e+07
-3.49989e+07
-2.63821e+07
-1.92825e+07
-1.73022e+07
-2.16884e+07
-1.82943e+07
-2.29294e+07
-2.48596e+07
-3.91556e+07
-3.72014e+07
-1.58919e+07
-1.87535e+07
-1.59256e+07
-1.86108e+07
-8.79492e+06
-1.05471e+07
-7.96968e+06
-8.66773e+06
-8.12406e+06
-8.87204e+06
-8.65421e+06
-1.14687e+07
-7.78571e+06
-1.14688e+07
-7.41675e+06
-7.64052e+06
-1.14319e+07
-1.57033e+07
-1.83918e+07
-3.63759e+07
-3.69724e+07
-8.57965e+06
-1.53051e+07
-3.02695e+07
-3.29397e+07
-5.96556e+07
-4.19051e+07
-5.06423e+07
-5.0842e+07
-7.79144e+07
-8.67044e+07
-6.9494e+07
-6.04367e+07
-6.78795e+07
-6.79316e+07
-5.91781e+07
-7.68149e+07
-2.46454e+07
-1.87033e+07
-1.26e+07
-2.60051e+07
-1.44287e+07
-2.42607e+07
-9.0585e+06
-1.77674e+07
-2.51893e+07
-1.73338e+07
-1.61186e+07
-3.65325e+07
-3.39847e+07
-4.30281e+07
-2.76661e+07
-3.98459e+07
-4.45164e+07
-4.82054e+07
-3.66774e+07
-4.4651e+07
-6.00112e+07
-5.11455e+07
-5.32939e+07
-3.21948e+07
-2.24661e+07
-2.36983e+07
-2.96549e+07
-7.1155e+07
-6.57613e+07
-6.94592e+07
-6.74154e+07
-7.64709e+07
-8.03032e+07
-7.34815e+07
-7.20372e+07
-6.88454e+07
-7.68018e+07
-7.42448e+07
-7.16634e+07
-6.07714e+07
-6.29378e+07
-6.3573e+07
-6.03208e+07
-6.10207e+07
-6.17981e+07
-6.03936e+07
-6.35068e+07
-5.82507e+07
-5.39768e+07
-5.64226e+07
-5.55041e+07
-6.42865e+07
-6.65835e+07
-6.50998e+07
-6.49682e+07
-5.887e+07
-6.25179e+07
-6.32468e+07
-5.83227e+07
-5.41076e+07
-4.9296e+07
-5.5821e+07
-4.80543e+07
-5.91353e+07
-6.72765e+07
-6.46129e+07
-6.15161e+07
-5.40631e+07
-5.01979e+07
-5.45555e+07
-4.94304e+07
-9.82573e+07
-9.61581e+07
-1.04764e+08
-8.97779e+07
-1.01828e+08
-1.04457e+08
-1.12142e+08
-9.4323e+07
-1.08224e+08
-1.24273e+08
-1.14245e+08
-1.18132e+08
-9.20563e+07
-7.55102e+07
-8.41759e+07
-8.32409e+07
-9.19723e+07
-9.33871e+07
-9.87671e+07
-8.67011e+07
-8.97413e+07
-8.44775e+07
-8.60112e+07
-7.57455e+07
-8.09131e+07
-8.07076e+07
-9.58293e+07
-1.02499e+08
-7.49376e+07
-8.8334e+07
-8.16378e+07
-8.14652e+07
-6.29399e+07
-5.12802e+07
-5.53048e+07
-5.85652e+07
-6.8482e+07
-6.73656e+07
-6.07343e+07
-7.53205e+07
-6.91455e+07
-7.08336e+07
-6.45636e+07
-7.56519e+07
-3.81367e+07
-3.22953e+07
-3.24667e+07
-3.18688e+07
-3.60263e+07
-3.1111e+07
-3.57539e+07
-3.34485e+07
-3.02293e+07
-2.1812e+07
-2.75265e+07
-4.94656e+07
-4.45483e+07
-4.9089e+07
-4.50373e+07
-5.68185e+07
-6.04306e+07
-5.69539e+07
-5.85526e+07
-5.07488e+07
-5.00165e+07
-5.31223e+07
-4.85105e+07
-5.354e+07
-5.73758e+07
-5.34599e+07
-5.76662e+07
-3.63199e+07
-3.93849e+07
-3.44853e+07
-4.02618e+07
-3.67753e+07
-4.30451e+07
-3.64211e+07
-4.26874e+07
-3.212e+07
-2.51338e+07
-3.037e+07
-2.9046e+07
-4.05972e+07
-4.64839e+07
-4.44578e+07
-4.27254e+07
-4.09107e+07
-3.1747e+07
-1.05384e+08
-9.14541e+07
-1.01259e+08
-9.54617e+07
-1.20998e+08
-1.36439e+08
-1.32003e+08
-1.25226e+08
-1.16406e+08
-1.2267e+08
-1.12003e+08
-1.27263e+08
-1.09715e+08
-1.04031e+08
-9.98545e+07
-1.14021e+08
-7.64467e+07
-6.81986e+07
-5.37172e+07
-4.2123e+07
-4.45218e+07
-5.50198e+07
-5.9745e+07
-4.15185e+07
-5.01578e+07
-5.35411e+07
-6.03185e+07
-7.70918e+07
-8.1785e+07
-8.56339e+07
-7.32062e+07
-7.29652e+07
-7.09214e+07
-7.74473e+07
-6.62871e+07
-8.13357e+07
-9.41502e+07
-8.98415e+07
-8.56776e+07
-6.87586e+07
-5.78972e+07
-6.49039e+07
-6.19086e+07
-8.05824e+07
-7.54204e+07
-7.86168e+07
-7.75819e+07
-8.591e+07
-8.96543e+07
-8.40734e+07
-8.47594e+07
-8.09182e+07
-8.7741e+07
-8.26121e+07
-8.02792e+07
-6.67039e+07
-7.07843e+07
-7.05782e+07
-6.71079e+07
-6.32241e+07
-6.03731e+07
-5.91798e+07
-6.46419e+07
-6.31948e+07
-5.85524e+07
-6.30369e+07
-5.85447e+07
-6.70531e+07
-7.10895e+07
-7.01963e+07
-6.76864e+07
-7.03847e+07
-7.24647e+07
-7.42804e+07
-6.84013e+07
-6.98234e+07
-6.9269e+07
-7.37953e+07
-6.51227e+07
-7.37765e+07
-8.16562e+07
-7.78084e+07
-7.77841e+07
-6.6261e+07
-5.96609e+07
-6.45155e+07
-6.15642e+07
-1.24282e+08
-1.17426e+08
-1.2681e+08
-1.14863e+08
-1.32392e+08
-1.40238e+08
-1.43512e+08
-1.29263e+08
-1.35471e+08
-1.48296e+08
-1.37483e+08
-1.46237e+08
-1.21331e+08
-1.0803e+08
-1.17827e+08
-1.11498e+08
-1.05489e+08
-1.10588e+08
-1.12772e+08
-1.03224e+08
-1.00139e+08
-9.47938e+07
-9.84864e+07
-9.01368e+07
-9.29436e+07
-9.57947e+07
-1.07135e+08
-1.1408e+08
-9.73281e+07
-1.08231e+08
-1.05151e+08
-1.00439e+08
-8.58427e+07
-7.52691e+07
-8.16374e+07
-7.96309e+07
-9.37109e+07
-9.8046e+07
-8.98528e+07
-1.01868e+08
-8.94698e+07
-8.71384e+07
-8.34953e+07
-9.29917e+07
-3.59372e+07
-3.82752e+07
-3.01065e+07
-3.086e+07
-2.71228e+07
-2.79055e+07
-2.71749e+07
-2.90307e+07
-3.06027e+07
-4.72903e+07
-4.23928e+07
-4.43525e+07
-3.89386e+07
-3.93209e+07
-4.37198e+07
-4.98459e+07
-5.65403e+07
-5.46494e+07
-5.14408e+07
-4.89303e+07
-5.38347e+07
-5.43075e+07
-4.87277e+07
-4.49017e+07
-4.21402e+07
-4.00954e+07
-4.70924e+07
-4.69998e+07
-4.02919e+07
-4.25168e+07
-4.51611e+07
-5.55357e+07
-6.48129e+07
-5.99717e+07
-6.05859e+07
-5.10153e+07
-5.14629e+07
-5.55146e+07
-4.6598e+07
-5.17826e+07
-5.51936e+07
-5.68566e+07
-4.98445e+07
-7.46234e+07
-7.41969e+07
-5.75168e+07
-3.87439e+07
-5.13259e+07
-3.55124e+07
-5.72859e+07
-5.16296e+07
-3.57582e+07
-7.33902e+07
-7.44093e+07
-7.84211e+07
-7.72833e+07
-7.70863e+07
-7.83844e+07
-7.86789e+07
-7.84414e+07
-7.89455e+07
-7.73297e+07
-7.89749e+07
-8.01323e+07
-7.99991e+07
-8.01113e+07
-7.72105e+07
-7.54096e+07
-7.60979e+07
-7.67484e+07
-7.85122e+07
-7.7771e+07
-7.74545e+07
-7.9096e+07
-7.91814e+07
-7.92836e+07
-7.96817e+07
-8.04001e+07
-7.86837e+07
-7.64866e+07
-7.74155e+07
-7.75049e+07
-8.03459e+07
-8.07895e+07
-7.96245e+07
-8.02623e+07
-7.37807e+07
-7.46979e+07
-7.21534e+07
-7.37351e+07
-6.90994e+07
-6.68205e+07
-6.6271e+07
-6.77543e+07
-6.95838e+07
-6.85093e+07
-7.07117e+07
-6.9176e+07
-7.11479e+07
-7.26738e+07
-7.38565e+07
-7.23739e+07
-7.7178e+07
-7.74736e+07
-7.47911e+07
-7.65881e+07
-7.81437e+07
-7.66623e+07
-7.55407e+07
-7.67042e+07
-7.64699e+07
-7.81703e+07
-7.95291e+07
-7.85793e+07
-7.68894e+07
-7.53261e+07
-7.75044e+07
-7.77221e+07
-7.78634e+07
-7.89147e+07
-7.9692e+07
-7.9699e+07
-7.74346e+07
-7.668e+07
-7.5075e+07
-7.64124e+07
-8.00779e+07
-7.96265e+07
-7.75954e+07
-7.89352e+07
-6.81102e+07
-7.05352e+07
-5.57123e+07
-3.89492e+07
-5.02763e+07
-3.58256e+07
-5.46946e+07
-5.09243e+07
-3.59915e+07
-7.30647e+07
-7.14064e+07
-6.68254e+07
-6.92515e+07
-6.6645e+07
-7.00106e+07
-6.52348e+07
-6.36728e+07
-6.41494e+07
-6.69556e+07
-6.45183e+07
-6.08596e+07
-6.40822e+07
-6.08822e+07
-7.01309e+07
-7.22392e+07
-6.93881e+07
-7.05974e+07
-7.42009e+07
-7.09381e+07
-7.31189e+07
-7.1603e+07
-7.78412e+07
-7.88545e+07
-7.75623e+07
-7.71473e+07
-7.52116e+07
-7.58578e+07
-7.70881e+07
-7.42752e+07
-7.46826e+07
-7.38573e+07
-7.61694e+07
-7.46957e+07
-7.86788e+07
-7.8112e+07
-7.86033e+07
-8.09288e+07
-7.85206e+07
-7.81975e+07
-7.98799e+07
-7.80173e+07
-7.97753e+07
-8.13573e+07
-7.9878e+07
-7.9781e+07
-7.91893e+07
-7.63429e+07
-7.64713e+07
-7.68796e+07
-7.71423e+07
-7.82435e+07
-7.8404e+07
-8.04995e+07
-7.6882e+07
-7.87181e+07
-7.83937e+07
-7.61885e+07
-7.89793e+07
-8.05322e+07
-7.72751e+07
-7.87294e+07
-8.17343e+07
-8.00006e+07
-7.97039e+07
-7.89397e+07
-8.07328e+07
-8.13738e+07
-8.02938e+07
-7.94911e+07
-8.01083e+07
-8.05868e+07
-8.19081e+07
-8.07026e+07
-7.98141e+07
-7.8806e+07
-8.14853e+07
-8.03618e+07
-2.61873e+07
-2.5417e+07
-6.01028e+07
-5.88148e+07
-3.82683e+07
-2.53905e+07
-2.32114e+07
-3.18863e+07
-3.91249e+07
-2.27647e+07
-3.11636e+07
-5.63837e+07
-5.81608e+07
-7.00667e+07
-6.5894e+07
-6.65493e+07
-6.92515e+07
-7.27211e+07
-7.53519e+07
-7.52418e+07
-7.23078e+07
-7.27026e+07
-7.53842e+07
-7.2665e+07
-7.59503e+07
-6.95052e+07
-6.65371e+07
-6.63485e+07
-6.98721e+07
-6.7967e+07
-6.55465e+07
-6.44032e+07
-6.9304e+07
-7.05523e+07
-7.27072e+07
-6.95662e+07
-7.42415e+07
-6.75306e+07
-6.20325e+07
-6.36267e+07
-6.57743e+07
-7.16129e+07
-7.55452e+07
-7.20953e+07
-7.45095e+07
-7.19231e+07
-7.54857e+07
-7.38743e+07
-7.31279e+07
-6.75968e+07
-6.21334e+07
-6.55933e+07
-6.38188e+07
-7.01607e+07
-7.16051e+07
-7.30677e+07
-6.90294e+07
-6.88864e+07
-6.76875e+07
-7.10176e+07
-6.59489e+07
-7.96743e+07
-7.82177e+07
-7.86654e+07
-7.86956e+07
-8.05961e+07
-8.03198e+07
-7.99415e+07
-8.01722e+07
-7.99689e+07
-8.07439e+07
-7.95276e+07
-7.96098e+07
-7.59282e+07
-7.6347e+07
-7.49074e+07
-7.78729e+07
-7.51923e+07
-7.42485e+07
-7.3141e+07
-7.68345e+07
-7.42276e+07
-6.98431e+07
-7.22826e+07
-7.13406e+07
-7.75175e+07
-7.96685e+07
-7.84638e+07
-7.81574e+07
-4.8754e+07
-5.13825e+07
-3.18607e+07
-2.36181e+07
-2.04287e+07
-2.53099e+07
-3.02691e+07
-2.06622e+07
-2.63601e+07
-5.51839e+07
-5.2989e+07
-5.35835e+07
-5.20429e+07
-4.92322e+07
-5.65613e+07
-5.56607e+07
-5.79326e+07
-5.35008e+07
-6.04361e+07
-5.16505e+07
-4.42114e+07
-4.69404e+07
-4.87763e+07
-5.81007e+07
-6.46898e+07
-6.20994e+07
-6.02635e+07
-6.10952e+07
-5.42518e+07
-5.67804e+07
-5.83676e+07
-6.65528e+07
-7.19039e+07
-6.80326e+07
-6.99452e+07
-6.25057e+07
-6.06532e+07
-6.48091e+07
-5.85708e+07
-6.45402e+07
-6.63063e+07
-6.87041e+07
-6.2619e+07
-8.00097e+07
-8.06631e+07
-8.07557e+07
-8.05585e+07
-7.85688e+07
-7.68511e+07
-7.74958e+07
-7.84393e+07
-7.93736e+07
-7.78825e+07
-7.76136e+07
-7.91015e+07
-7.98498e+07
-7.93868e+07
-7.97446e+07
-7.88774e+07
-8.0951e+07
-8.11578e+07
-8.11069e+07
-8.16422e+07
-8.05902e+07
-8.11766e+07
-8.12678e+07
-8.11926e+07
-8.08026e+07
-8.10497e+07
-8.11293e+07
-8.02178e+07
-8.03919e+07
-8.11955e+07
-8.02922e+07
-8.07373e+07
-7.85671e+07
-7.56626e+07
-7.62957e+07
-7.73558e+07
-7.86766e+07
-7.74262e+07
-7.72039e+07
-7.94667e+07
-7.96388e+07
-7.99804e+07
-7.93461e+07
-8.08568e+07
-3.07355e+07
-2.67282e+07
-7.22259e+07
-6.97149e+07
-7.11576e+07
-7.09703e+07
-7.48252e+07
-7.68529e+07
-7.64843e+07
-7.59126e+07
-7.42185e+07
-7.4023e+07
-7.29363e+07
-7.51316e+07
-7.35017e+07
-7.26023e+07
-7.15709e+07
-7.39299e+07
-6.44968e+07
-6.29694e+07
-4.75348e+07
-3.24775e+07
-4.35635e+07
-3.07265e+07
-4.89726e+07
-4.22954e+07
-2.99919e+07
-5.88515e+07
-6.06348e+07
-6.70955e+07
-6.76512e+07
-6.86753e+07
-6.59287e+07
-6.56889e+07
-6.42447e+07
-6.61623e+07
-6.33087e+07
-6.76934e+07
-7.03375e+07
-6.98687e+07
-6.86836e+07
-6.45745e+07
-6.16308e+07
-6.36112e+07
-6.27215e+07
-5.20115e+07
-5.13306e+07
-4.99378e+07
-5.39821e+07
-5.27e+07
-5.58672e+07
-5.45124e+07
-5.87218e+07
-5.60453e+07
-5.6463e+07
-5.11247e+07
-4.83164e+07
-4.82589e+07
-4.98055e+07
-4.7546e+07
-5.09518e+07
-4.59844e+07
-4.37127e+07
-4.64007e+07
-4.35892e+07
-4.88507e+07
-5.17311e+07
-5.12251e+07
-4.90229e+07
-4.57732e+07
-4.24661e+07
-4.47831e+07
-4.31022e+07
-5.60481e+07
-5.25413e+07
-5.47211e+07
-5.33769e+07
-5.91257e+07
-6.19343e+07
-6.12384e+07
-5.93266e+07
-5.83139e+07
-5.94426e+07
-5.74063e+07
-6.09485e+07
-5.63354e+07
-5.42447e+07
-5.40749e+07
-5.69272e+07
-7.34823e+07
-7.00599e+07
-7.12988e+07
-7.11066e+07
-7.54602e+07
-7.75682e+07
-7.63893e+07
-7.56807e+07
-7.43339e+07
-7.4195e+07
-7.34332e+07
-7.666e+07
-7.35027e+07
-7.2409e+07
-7.45149e+07
-7.21806e+07
-6.34373e+07
-6.7499e+07
-6.45408e+07
-6.46194e+07
-6.05377e+07
-5.70077e+07
-6.06335e+07
-6.04901e+07
-5.89485e+07
-6.32368e+07
-6.14398e+07
-6.49557e+07
-6.72951e+07
-6.78272e+07
-6.97502e+07
-6.62625e+07
-6.58112e+07
-6.41258e+07
-6.65971e+07
-6.39024e+07
-6.82916e+07
-7.08372e+07
-6.85299e+07
-6.99359e+07
-6.55493e+07
-6.19989e+07
-6.29948e+07
-6.38411e+07
-4.97309e+07
-5.18329e+07
-3.94335e+07
-2.78829e+07
-3.37134e+07
-2.48046e+07
-3.76897e+07
-3.52226e+07
-2.57373e+07
-5.63709e+07
-5.44151e+07
-4.7794e+07
-4.94185e+07
-4.70579e+07
-5.01024e+07
-4.56834e+07
-4.36665e+07
-4.60999e+07
-4.30249e+07
-4.82829e+07
-5.1398e+07
-4.9012e+07
-5.09489e+07
-4.4937e+07
-4.19433e+07
-4.4355e+07
-4.25656e+07
-5.51561e+07
-5.20843e+07
-5.43788e+07
-5.29509e+07
-5.85274e+07
-6.15424e+07
-6.10613e+07
-5.94036e+07
-5.79612e+07
-5.91599e+07
-6.00391e+07
-5.69959e+07
-5.61024e+07
-5.42805e+07
-5.65715e+07
-5.34876e+07
-2.62257e+07
-2.443e+07
-6.75002e+07
-6.42054e+07
-6.47997e+07
-6.70488e+07
-7.11118e+07
-7.42729e+07
-7.19339e+07
-7.39375e+07
-6.88302e+07
-6.60325e+07
-6.57775e+07
-6.89588e+07
-7.03072e+07
-7.16864e+07
-6.90995e+07
-7.24245e+07
-5.83097e+07
-5.76228e+07
-4.00726e+07
-2.68866e+07
-2.5185e+07
-3.37079e+07
-4.05466e+07
-2.51131e+07
-3.34172e+07
-5.50815e+07
-5.60996e+07
-6.45707e+07
-6.29581e+07
-6.54038e+07
-6.20087e+07
-6.49843e+07
-6.53617e+07
-6.67668e+07
-6.32169e+07
-6.64787e+07
-6.9925e+07
-6.79617e+07
-6.88324e+07
-6.26511e+07
-5.91665e+07
-6.04304e+07
-6.1491e+07
-5.93099e+07
-5.79029e+07
-5.72311e+07
-6.03878e+07
-6.0703e+07
-6.30559e+07
-6.18295e+07
-6.49083e+07
-6.25344e+07
-6.3765e+07
-5.86723e+07
-5.61717e+07
-5.36423e+07
-5.57775e+07
-5.35972e+07
-5.61874e+07
-5.08901e+07
-4.81652e+07
-5.06626e+07
-4.86279e+07
-5.36139e+07
-5.5574e+07
-5.58312e+07
-5.31116e+07
-5.12537e+07
-4.85158e+07
-5.08329e+07
-4.86326e+07
-6.09493e+07
-5.84334e+07
-6.05188e+07
-5.85074e+07
-6.30329e+07
-6.44377e+07
-6.48402e+07
-6.22381e+07
-6.3079e+07
-6.49734e+07
-6.30967e+07
-6.53998e+07
-6.04676e+07
-5.77997e+07
-5.84645e+07
-6.01485e+07
-7.59845e+07
-7.45966e+07
-7.56848e+07
-7.43677e+07
-7.66584e+07
-7.63483e+07
-7.71895e+07
-7.52488e+07
-7.70013e+07
-7.80855e+07
-7.73938e+07
-7.82718e+07
-7.50674e+07
-7.2906e+07
-7.43085e+07
-7.41358e+07
-7.00313e+07
-7.27198e+07
-7.14898e+07
-7.06907e+07
-6.71658e+07
-6.49331e+07
-6.78174e+07
-6.67981e+07
-6.61122e+07
-6.90283e+07
-6.88069e+07
-7.08838e+07
-7.11304e+07
-7.26533e+07
-7.30055e+07
-7.12906e+07
-6.88028e+07
-6.63164e+07
-6.82945e+07
-6.72337e+07
-7.09598e+07
-7.16402e+07
-6.9899e+07
-7.22313e+07