/*--------------------------------*- C++ -*----------------------------------*\
| =========                 |                                                 |
| \\      /  F ield         | OpenFOAM: The Open Source CFD Toolbox           |
|  \\    /   O peration     | Version:  2012                                  |
|   \\  /    A nd           | Website:  www.openfoam.com                      |
|    \\/     M anipulation  |                                                 |
\*---------------------------------------------------------------------------*/
FoamFile
{
    version     2.0;
    format      ascii;
    class       volSymmTensorField;
    location    "0.108/solid";
    object      sigma;
}
// * * * * * * * * * * * * * * * * * * * * * * * * * * * * * * * * * * * * * //

dimensions      [1 -1 -2 0 0 0 0];


internalField   nonuniform List<symmTensor> 
3125
(
(1.99175e+07 2.55216e+06 -4.7783e+06 2.40455e+07 1.15337e+07 4.35289e+07)
(1.7019e+07 1.80349e+06 -2.82824e+06 2.02448e+07 6.18823e+06 5.00233e+07)
(2.5413e+07 971145 -2.81881e+06 2.70629e+07 -291216 2.95041e+07)
(2.31354e+07 1.47826e+06 -3.70931e+06 2.59233e+07 9.13299e+06 3.00707e+07)
(1.6841e+07 1.64449e+06 -2.58765e+06 1.98872e+07 5.57735e+06 4.9979e+07)
(1.84422e+07 -1.12608e+06 -1.37616e+07 2.58645e+06 -9.77475e+06 2.35448e+07)
(1.66155e+07 1.22074e+06 -1.54763e+07 658128 -1.72452e+07 -3.02296e+07)
(1.76682e+07 -462855 -2.89108e+06 1.6505e+07 5.12417e+06 5.11169e+07)
(1.91091e+07 -258639 2.7412e+06 1.94284e+07 5.72647e+06 4.23859e+07)
(675640 -1.12287e+06 1.79953e+07 1.28813e+07 -1.00142e+07 3.80863e+06)
(-8.99756e+06 1.15942e+06 1.28999e+07 1.94241e+06 -1.72415e+07 5.49551e+07)
(1.76171e+07 -1.43114e+06 3.4907e+06 1.9374e+07 5.25929e+06 3.81153e+07)
(2.16544e+07 -223761 -4.97419e+06 2.01743e+07 1.1638e+07 4.70778e+07)
(1.85917e+07 -1.2989e+06 -1.32884e+07 3.1208e+06 -8.61815e+06 2.7947e+07)
(1.79917e+07 -465638 -3.10503e+06 1.67202e+07 5.7844e+06 5.15738e+07)
(1.91027e+07 -1.83892e+06 -9.6109e+06 8.1931e+06 -2.14393e+06 4.00204e+07)
(2.25861e+07 221351 5.04704e+06 2.27802e+07 1.17298e+07 3.09391e+07)
(1.94012e+07 -132095 2.97858e+06 1.96152e+07 6.3534e+06 4.13662e+07)
(2.08822e+07 -1.50152e+06 5.79102e+06 2.32282e+07 1.18254e+07 2.53012e+07)
(1.94916e+06 -1.30012e+06 1.80975e+07 1.39494e+07 -8.87613e+06 -63588.8)
(1.78455e+07 -1.46269e+06 3.75763e+06 1.97239e+07 5.92323e+06 3.67657e+07)
(9.96534e+06 -1.79183e+06 1.62058e+07 1.84984e+07 -2.45046e+06 -7.92296e+06)
(2.00875e+07 2.51923e+06 -4.81807e+06 2.41903e+07 1.1621e+07 4.27614e+07)
(2.29599e+07 1.55214e+06 -3.84615e+06 2.58536e+07 9.50675e+06 3.07835e+07)
(2.18216e+07 -193435 -4.98426e+06 2.04015e+07 1.17503e+07 4.62447e+07)
(1.89924e+07 -1.63651e+06 -5.25503e+06 1.48781e+07 1.12165e+06 3.08494e+07)
(1.91156e+07 -1.84375e+06 -9.06289e+06 9.03004e+06 -1.49958e+06 3.97084e+07)
(2.373e+07 331796 -3.94254e+06 2.35874e+07 9.75284e+06 3.15993e+07)
(2.26701e+07 158291 5.06697e+06 2.29665e+07 1.18268e+07 3.04943e+07)
(2.35651e+07 -1.05607e+06 4.06707e+06 2.56458e+07 9.64905e+06 2.71537e+07)
(2.10743e+07 -1.49337e+06 5.82257e+06 2.3364e+07 1.19339e+07 2.50206e+07)
(1.71072e+07 -1.57217e+06 1.04104e+07 1.97583e+07 889728 6.23741e+06)
(1.09732e+07 -1.80597e+06 1.56537e+07 1.88129e+07 -1.80218e+06 -6.97789e+06)
(2.34153e+07 -1.14122e+06 4.5514e+06 2.45637e+07 9.89365e+06 2.51917e+07)
(2.38914e+07 60853.3 -772275 2.47571e+07 409990 2.61681e+07)
(1.89504e+07 -1.5637e+06 -4.73698e+06 1.56505e+07 1.24247e+06 2.9216e+07)
(2.38187e+07 367216 -3.77718e+06 2.37672e+07 9.37752e+06 3.06759e+07)
(2.41867e+07 -636041 -1.79371e+06 2.60664e+07 -41446 2.8569e+07)
(2.35601e+07 -1.1459e+06 3.89516e+06 2.57768e+07 9.2801e+06 2.70666e+07)
(2.34285e+07 -1.0677e+06 -380813 2.46379e+07 -94627.2 2.58049e+07)
(1.78559e+07 -1.50854e+06 9.52656e+06 1.97912e+07 1.02681e+06 8.45856e+06)
(2.35523e+07 -1.12094e+06 4.37981e+06 2.46057e+07 9.50907e+06 2.53779e+07)
(1.85162e+07 2.52388e+06 -4.24171e+06 2.26128e+07 9.96568e+06 4.79254e+07)
(1.82802e+07 2.47007e+06 -4.10268e+06 2.23376e+07 9.62081e+06 4.83668e+07)
(2.42156e+07 992409 -2.10555e+06 2.63878e+07 5.10565e+06 2.58963e+07)
(2.40807e+07 1.01989e+06 -2.3367e+06 2.63099e+07 5.74352e+06 2.61698e+07)
(1.5657e+07 -182647 -335784 1.64689e+07 -316445 4.65205e+07)
(1.57606e+07 106195 -659655 1.6937e+07 491037 4.72712e+07)
(1.46453e+07 -1.74683e+06 -5.21492e+06 8.32266e+06 -1.28404e+07 -1.14082e+07)
(1.46407e+07 -325424 -701490 1.48644e+07 -1.16228e+06 4.27861e+07)
(1.58399e+07 -1.74227e+06 -7.46156e+06 8.16382e+06 -9.06687e+06 1.5994e+07)
(1.78228e+07 -384371 -1.4947e+07 1.36607e+06 -1.33368e+07 5.41511e+06)
(1.72516e+07 -1.76314e+06 -1.11213e+07 6.97405e+06 -5.63102e+06 3.55354e+07)
(1.65508e+07 -1.6308e+06 -1.0364e+07 6.29291e+06 -9.45299e+06 1.79326e+07)
(1.53928e+07 -1.26481e+06 -8.29287e+06 6.47978e+06 -1.41338e+07 -1.81582e+07)
(1.75601e+07 -55962.5 -1.52328e+07 1.09441e+06 -1.44712e+07 -2.31057e+06)
(1.62968e+07 -1.55866e+06 -9.97559e+06 6.23649e+06 -1.07323e+07 1.02213e+07)
(1.50592e+07 -352196 -996617 1.50577e+07 -301340 4.43158e+07)
(1.71076e+07 -1.6799e+06 -9.4874e+06 8.90917e+06 -3.70853e+06 3.99476e+07)
(1.61834e+07 -1.72756e+06 -8.06701e+06 8.24633e+06 -7.69589e+06 2.33708e+07)
(1.5826e+07 -1.79976e+06 349309 1.77378e+07 -247717 5.15852e+07)
(1.62758e+07 -1.55631e+06 674850 1.79328e+07 581575 5.03109e+07)
(3.83278e+06 -1.52924e+06 3.74801e+06 5.51357e+06 -1.29638e+07 7.23578e+07)
(1.57855e+07 -1.08064e+06 961356 1.59262e+07 -1.10844e+06 5.17517e+07)
(7.32494e+06 -1.54489e+06 8.45408e+06 1.11866e+07 -9.1223e+06 4.56307e+07)
(-3.31816e+06 -409630 1.69039e+07 8.92617e+06 -1.34964e+07 2.05398e+07)
(8.93902e+06 -1.60744e+06 1.47774e+07 1.59383e+07 -5.69834e+06 1.62687e+07)
(5.48962e+06 -1.47853e+06 1.21948e+07 1.17212e+07 -9.53145e+06 3.42364e+07)
(350929 -1.11901e+06 6.46411e+06 4.12716e+06 -1.4233e+07 6.9453e+07)
(-4.70122e+06 -98350.9 1.62157e+07 7.35441e+06 -1.45984e+07 2.78802e+07)
(4.25531e+06 -1.42362e+06 1.10213e+07 1.00264e+07 -1.08164e+07 4.19021e+07)
(1.60235e+07 -1.14203e+06 1.32951e+06 1.64159e+07 -237754 4.97732e+07)
(1.14892e+07 -1.51603e+06 1.27089e+07 1.68872e+07 -3.70175e+06 2.04854e+07)
(8.42669e+06 -1.55303e+06 9.73311e+06 1.28112e+07 -7.73293e+06 3.81466e+07)
(2.01966e+07 -396897 -4.46228e+06 1.85358e+07 9.88133e+06 5.13951e+07)
(1.92537e+07 -1.40628e+06 -1.0265e+07 1.33529e+07 3.58212e+06 4.99139e+07)
(1.84877e+07 -1.52454e+06 -1.04705e+07 1.13389e+07 1.5646e+06 5.09359e+07)
(1.74689e+07 -1.78067e+06 -1.12429e+07 7.35881e+06 -4.43322e+06 3.96115e+07)
(1.89173e+07 -1.6586e+06 -1.17662e+07 5.06403e+06 -5.44307e+06 3.67314e+07)
(1.80846e+07 -1.78028e+06 -1.12637e+07 8.90198e+06 -1.2726e+06 4.70292e+07)
(1.99714e+07 -409845 -4.35157e+06 1.83122e+07 9.49844e+06 5.17449e+07)
(1.73977e+07 -1.65298e+06 -9.82074e+06 9.27889e+06 -2.48143e+06 4.36937e+07)
(1.82256e+07 -1.55599e+06 -1.04143e+07 1.0754e+07 692779 5.01761e+07)
(1.88787e+07 -1.67264e+06 -1.0534e+07 1.1681e+07 1.74213e+06 4.78729e+07)
(1.89852e+07 -1.72874e+06 -1.12293e+07 5.79945e+06 -4.51125e+06 3.8346e+07)
(1.82925e+07 -1.75878e+06 -1.1154e+07 9.54511e+06 -383601 4.80901e+07)
(2.14768e+07 360103 4.45961e+06 2.13284e+07 1.01678e+07 3.47989e+07)
(2.12697e+07 322892 4.33628e+06 2.11247e+07 9.80924e+06 3.54903e+07)
(1.95363e+07 -1.55658e+06 5.26518e+06 2.1969e+07 1.00601e+07 2.87778e+07)
(1.77347e+07 -1.27757e+06 1.50418e+07 2.23164e+07 3.64683e+06 4.6234e+06)
(1.57207e+07 -1.38238e+06 1.505e+07 2.10667e+07 1.61665e+06 6.06144e+06)
(9.99523e+06 -1.63739e+06 1.53592e+07 1.70563e+07 -4.49546e+06 1.19348e+07)
(5.58608e+06 -1.63125e+06 1.77715e+07 1.64789e+07 -5.73892e+06 -7.11685e+06)
(1.28844e+07 -1.63038e+06 1.63226e+07 1.96343e+07 -1.32563e+06 3.46657e+06)
(1.93291e+07 -1.55756e+06 5.11817e+06 2.17345e+07 9.67741e+06 2.95197e+07)
(1.2427e+07 -1.50408e+06 1.34341e+07 1.7965e+07 -2.46177e+06 1.61752e+07)
(1.49633e+07 -1.42807e+06 1.48252e+07 2.04491e+07 739031 7.60484e+06)
(1.60985e+07 -1.53693e+06 1.60343e+07 2.15471e+07 1.70318e+06 914569)
(6.73142e+06 -1.70618e+06 1.74916e+07 1.71117e+07 -4.81227e+06 -8.12485e+06)
(1.37528e+07 -1.63161e+06 1.64114e+07 2.02573e+07 -432584 2.00073e+06)
(2.15185e+07 2.15792e+06 -4.67046e+06 2.5152e+07 1.14421e+07 3.71451e+07)
(2.16817e+07 2.08322e+06 -4.6185e+06 2.52375e+07 1.12865e+07 3.62997e+07)
(1.95043e+07 -1.36045e+06 -1.00689e+07 1.40866e+07 4.05817e+06 4.86852e+07)
(2.28674e+07 45355.7 -4.81542e+06 2.19755e+07 1.16683e+07 3.96025e+07)
(2.0208e+07 -1.22768e+06 -9.13141e+06 1.63306e+07 4.91944e+06 4.31856e+07)
(1.9081e+07 -1.77602e+06 -6.86933e+06 1.24272e+07 386034 3.55712e+07)
(2.02447e+07 -1.26133e+06 -6.90032e+06 1.79712e+07 3.61006e+06 3.33998e+07)
(1.97805e+07 -1.44129e+06 -8.55547e+06 1.56421e+07 3.53318e+06 3.99928e+07)
(1.90724e+07 -1.6317e+06 -1.02275e+07 1.246e+07 2.27045e+06 4.68865e+07)
(1.91003e+07 -1.80583e+06 -7.42298e+06 1.15821e+07 16340.3 3.69361e+07)
(1.96177e+07 -1.49028e+06 -9.04185e+06 1.48528e+07 3.34275e+06 4.20403e+07)
(2.29857e+07 81446.3 -4.73242e+06 2.21868e+07 1.15251e+07 3.85821e+07)
(2.10185e+07 -1.03625e+06 -7.13297e+06 1.92664e+07 4.79615e+06 3.38688e+07)
(2.04298e+07 -1.17923e+06 -8.70088e+06 1.70968e+07 5.02624e+06 4.09561e+07)
(2.32616e+07 -327856 4.93443e+06 2.43091e+07 1.16213e+07 2.83148e+07)
(2.3288e+07 -428441 4.85274e+06 2.44776e+07 1.14741e+07 2.80813e+07)
(1.83288e+07 -1.2496e+06 1.48365e+07 2.25653e+07 4.12666e+06 5.0301e+06)
(2.22545e+07 -1.34148e+06 5.57372e+06 2.40923e+07 1.18425e+07 2.42708e+07)
(1.99091e+07 -1.12274e+06 1.36279e+07 2.29804e+07 4.99002e+06 8.19071e+06)
(1.46707e+07 -1.72068e+06 1.29132e+07 1.95564e+07 114660 -313607)
(2.07371e+07 -1.13756e+06 1.11637e+07 2.22547e+07 3.58801e+06 1.24862e+07)
(1.92129e+07 -1.31219e+06 1.35733e+07 2.22781e+07 3.50847e+06 6.77338e+06)
(1.67899e+07 -1.50883e+06 1.57204e+07 2.18079e+07 2.2353e+06 1.46817e+06)
(1.37959e+07 -1.76121e+06 1.36663e+07 1.94352e+07 -267729 -2.30186e+06)
(1.86553e+07 -1.37781e+06 1.42297e+07 2.22307e+07 3.31642e+06 5.09246e+06)
(2.24211e+07 -1.32442e+06 5.49957e+06 2.41665e+07 1.16934e+07 2.43021e+07)
(2.16375e+07 -955158 1.08175e+07 2.29979e+07 4.85442e+06 1.49579e+07)
(2.03726e+07 -1.09689e+06 1.30499e+07 2.30091e+07 5.09551e+06 9.70574e+06)
(2.44074e+07 624686 -2.18732e+06 2.49615e+07 5.22007e+06 2.51642e+07)
(2.19251e+07 -4.10616e+06 -208588 2.29704e+07 147311 2.33446e+07)
(2.16322e+07 -580014 -3.97429e+06 2.2192e+07 2.47074e+06 2.45835e+07)
(2.03804e+07 -1.18499e+06 -6.29534e+06 1.87053e+07 3.47168e+06 3.12419e+07)
(1.88034e+07 -1.25411e+06 -3.40517e+06 1.77923e+07 1.26875e+06 2.46976e+07)
(2.06587e+07 -859282 -4.48092e+06 2.0634e+07 2.51912e+06 2.57259e+07)
(2.43499e+07 597234 -2.42841e+06 2.48485e+07 5.88225e+06 2.55714e+07)
(2.11918e+07 -973586 -6.52851e+06 1.99498e+07 4.53932e+06 3.15832e+07)
(2.15745e+07 -691763 -4.61465e+06 2.1732e+07 3.15459e+06 2.58649e+07)
(2.1521e+07 -4.43031e+06 -201856 2.25167e+07 225624 2.2979e+07)
(1.87319e+07 -1.16076e+06 -3.06717e+06 1.84407e+07 1.16296e+06 2.34338e+07)
(2.07032e+07 -738254 -3.9101e+06 2.11927e+07 2.01539e+06 2.44361e+07)
(2.37559e+07 -1.71333e+06 2.16507e+06 2.67912e+07 5.16608e+06 2.7025e+07)
(2.3717e+07 -1.68598e+06 2.44891e+06 2.66886e+07 5.81043e+06 2.69784e+07)
(2.44102e+07 -922785 2.43142e+06 2.49127e+07 5.27189e+06 2.69084e+07)
(2.29184e+07 -4.11615e+06 427972 2.33548e+07 147184 2.33586e+07)
(2.3534e+07 -505559 5.91994e+06 2.29622e+07 2.49216e+06 2.24157e+07)
(2.12048e+07 -1.07448e+06 1.02452e+07 2.22144e+07 3.45165e+06 1.44274e+07)
(1.99333e+07 -1.17861e+06 6.85183e+06 1.98982e+07 1.10763e+06 1.46675e+07)
(2.25513e+07 -742676 7.26511e+06 2.21579e+07 2.49887e+06 1.95331e+07)
(2.43172e+07 -950482 2.72109e+06 2.48637e+07 5.95374e+06 2.67449e+07)
(2.20311e+07 -904361 9.93381e+06 2.29591e+07 4.59377e+06 1.67472e+07)
(2.31774e+07 -632164 6.9568e+06 2.29102e+07 3.18762e+06 2.13769e+07)
(2.28595e+07 -4.42719e+06 449035 2.30611e+07 221057 2.31052e+07)
(2.0574e+07 -1.08836e+06 5.99006e+06 1.99506e+07 1.02397e+06 1.64693e+07)
(2.29587e+07 -641075 6.25613e+06 2.21793e+07 1.99422e+06 2.07737e+07)
(1.93161e+07 2.59766e+06 -4.63386e+06 2.34927e+07 1.1058e+07 4.56196e+07)
(1.75591e+07 2.17421e+06 -3.44645e+06 2.1232e+07 7.85545e+06 4.97074e+07)
(2.45122e+07 970158 -1.0619e+06 2.67683e+07 2.21861e+06 2.61892e+07)
(2.36006e+07 1.26328e+06 -3.17715e+06 2.61167e+07 7.86377e+06 2.81224e+07)
(1.51422e+07 -1.50857e+06 969497 1.43503e+07 -3.71036e+06 4.24065e+07)
(1.63812e+07 1.09279e+06 -1.82806e+06 1.87326e+07 3.54854e+06 4.93725e+07)
(1.28215e+07 -182010 572076 1.41068e+07 -4.74018e+06 3.51979e+07)
(1.33916e+07 -1.18909e+06 -225791 9.89582e+06 -1.08441e+07 2.71902e+07)
(1.82629e+07 -912778 -1.42053e+07 2.11073e+06 -1.09598e+07 1.83386e+07)
(1.79702e+07 -1.39195e+06 -1.34586e+07 3.76948e+06 -8.37659e+06 2.71957e+07)
(1.7846e+07 -1.2748e+06 -1.37333e+07 3.40593e+06 -9.57395e+06 2.20533e+07)
(1.67544e+07 -20941.2 -1.3842e+07 2.88068e+06 -1.60979e+07 -2.66417e+07)
(1.69547e+07 741149 -1.55166e+07 747967 -1.64687e+07 -2.01877e+07)
(1.698e+07 -312860 -1.40779e+07 2.78099e+06 -1.52566e+07 -1.65235e+07)
(1.66157e+07 -438121 -2.13746e+06 1.58611e+07 2.95448e+06 4.90021e+07)
(1.80912e+07 -1.66015e+06 -3.16204e+06 1.65073e+07 8532.98 4.48639e+07)
(1.61957e+07 -1.32554e+06 -2.46653e+06 1.49351e+07 -2.79423e+06 4.137e+07)
(1.37371e+07 -2.96901e+06 -1.06195e+06 1.68993e+07 -3.70278e+06 5.68047e+07)
(1.79996e+07 -710907 1.91607e+06 1.87702e+07 3.68148e+06 4.55759e+07)
(1.48197e+07 -817531 -570598 1.37629e+07 -4.74576e+06 6.03022e+07)
(1.13441e+07 -1.18778e+06 237229 1.27481e+07 -1.08053e+07 5.27401e+07)
(-628287 -929041 1.77708e+07 1.16894e+07 -1.11774e+07 8.51558e+06)
(3.57539e+06 -1.32713e+06 1.76004e+07 1.40858e+07 -8.57355e+06 8.15035e+06)
(2.277e+06 -1.22514e+06 1.72369e+07 1.28166e+07 -9.75623e+06 1.30115e+07)
(-6.33681e+06 -13535.3 1.14296e+07 2.24737e+06 -1.61302e+07 5.99603e+07)
(-7.53862e+06 683781 1.4243e+07 3.85268e+06 -1.65121e+07 4.51342e+07)
(-4.81436e+06 -303331 1.29204e+07 4.3407e+06 -1.53218e+07 5.01401e+07)
(1.69458e+07 -1.33399e+06 2.64729e+06 1.82131e+07 3.06144e+06 4.26365e+07)
(1.46863e+07 -1.72179e+06 5.30903e+06 1.53602e+07 127088 3.15213e+07)
(1.4955e+07 -1.34717e+06 4.18312e+06 1.49057e+07 -2.73946e+06 3.67569e+07)
(2.10707e+07 -312067 -4.82748e+06 1.9466e+07 1.10945e+07 4.92792e+07)
(2.18459e+07 -1.60279e+06 -4.81078e+06 2.14336e+07 8.23175e+06 4.40621e+07)
(1.98711e+07 -1.11905e+06 -4.45486e+06 2.03805e+07 6.5929e+06 4.4106e+07)
(1.80897e+07 -1.48394e+06 -1.31458e+07 4.21546e+06 -7.21361e+06 3.15153e+07)
(1.87237e+07 -1.44451e+06 -1.27948e+07 3.72065e+06 -7.50306e+06 3.15854e+07)
(1.81997e+07 -1.55685e+06 -1.27979e+07 4.72891e+06 -6.10046e+06 3.50418e+07)
(1.88981e+07 -460638 -3.72431e+06 1.7387e+07 7.57704e+06 5.22486e+07)
(1.73095e+07 -1.31448e+06 -3.17996e+06 1.66816e+07 211267 4.44132e+07)
(1.92669e+07 -1.71988e+06 -3.85712e+06 1.80993e+07 2.90011e+06 4.67889e+07)
(1.86994e+07 -1.70731e+06 -1.02031e+07 8.95668e+06 -869025 4.24755e+07)
(1.90774e+07 -1.81525e+06 -1.01588e+07 7.37129e+06 -2.85999e+06 3.99358e+07)
(1.86315e+07 -1.70633e+06 -1.06888e+07 8.15412e+06 -1.55086e+06 4.259e+07)
(2.2172e+07 330092 4.87051e+06 2.21529e+07 1.12648e+07 3.23837e+07)
(2.03145e+07 145311 3.64465e+06 2.02653e+07 8.02713e+06 3.86342e+07)
(2.03244e+07 -1.54508e+06 5.65947e+06 2.27542e+07 1.1278e+07 2.64406e+07)
(1.87233e+07 -1.71188e+06 7.74441e+06 1.9285e+07 8.36968e+06 2.06781e+07)
(1.95653e+07 -1.19974e+06 7.37622e+06 1.89548e+07 6.69981e+06 2.30758e+07)
(4.83025e+06 -1.42264e+06 1.78458e+07 1.52192e+07 -7.42293e+06 4.11326e+06)
(3.19349e+06 -1.43739e+06 1.8087e+07 1.49023e+07 -7.77685e+06 -3.14205e+06)
(6.04123e+06 -1.49145e+06 1.79569e+07 1.62209e+07 -6.31906e+06 867566)
(1.84844e+07 -1.52312e+06 4.42057e+06 2.06746e+07 7.73832e+06 3.3211e+07)
(1.62866e+07 -1.3507e+06 5.41308e+06 1.59287e+07 286160 3.15679e+07)
(1.57651e+07 -1.80207e+06 6.37647e+06 1.6326e+07 3.03149e+06 2.70667e+07)
(1.23682e+07 -1.61397e+06 1.66012e+07 1.98463e+07 -1.10455e+06 -4.87662e+06)
(8.922e+06 -1.78287e+06 1.66986e+07 1.81151e+07 -3.16779e+06 -8.46782e+06)
(1.14206e+07 -1.62511e+06 1.70417e+07 1.94833e+07 -1.78785e+06 -5.2764e+06)
(2.07224e+07 2.39754e+06 -4.81935e+06 2.46512e+07 1.1723e+07 4.04201e+07)
(2.24628e+07 1.79276e+06 -4.2528e+06 2.56319e+07 1.04357e+07 3.3078e+07)
(2.05788e+07 -1.01761e+06 -4.54632e+06 2.12327e+07 7.72749e+06 4.184e+07)
(2.2307e+07 -97427.2 -4.99129e+06 2.10852e+07 1.18996e+07 4.3538e+07)
(2.24501e+07 -1.49407e+06 -4.76514e+06 2.21505e+07 8.89303e+06 4.12827e+07)
(1.9027e+07 -1.6907e+06 -5.78975e+06 1.40785e+07 939786 3.2484e+07)
(1.90961e+07 -1.445e+06 -5.89472e+06 1.56666e+07 1.93733e+06 3.16585e+07)
(1.90692e+07 -1.50017e+06 -6.46608e+06 1.48629e+07 1.83219e+06 3.34785e+07)
(1.87668e+07 -1.69456e+06 -9.70627e+06 9.78708e+06 -263336 4.19588e+07)
(1.91191e+07 -1.83983e+06 -8.51613e+06 9.87853e+06 -925196 3.90567e+07)
(1.88316e+07 -1.6752e+06 -9.19388e+06 1.063e+07 265435 4.10945e+07)
(2.34305e+07 220960 -4.34299e+06 2.30048e+07 1.06919e+07 3.45175e+07)
(2.36444e+07 -1.05211e+06 -3.64829e+06 2.35559e+07 7.88549e+06 3.12164e+07)
(2.22223e+07 -693177 -3.89863e+06 2.29356e+07 8.21505e+06 3.23796e+07)
(2.29808e+07 -19684.1 5.08717e+06 2.35532e+07 1.19132e+07 2.94087e+07)
(2.34667e+07 -775701 4.4636e+06 2.51523e+07 1.06068e+07 2.74355e+07)
(2.05519e+07 -1.10499e+06 7.49208e+06 1.9966e+07 7.83454e+06 2.22197e+07)
(2.1589e+07 -1.43645e+06 5.78437e+06 2.37169e+07 1.20851e+07 2.44638e+07)
(1.96392e+07 -1.61607e+06 7.62591e+06 2.0248e+07 9.02589e+06 2.03738e+07)
(1.63252e+07 -1.63925e+06 1.12728e+07 1.97103e+07 692020 4.00494e+06)
(1.86144e+07 -1.34326e+06 1.08897e+07 2.07598e+07 1.76171e+06 8.34652e+06)
(1.79435e+07 -1.40628e+06 1.17827e+07 2.07639e+07 1.64541e+06 6.21168e+06)
(1.32756e+07 -1.60932e+06 1.61043e+07 2.0136e+07 -495658 -4.07363e+06)
(1.1949e+07 -1.79832e+06 1.50423e+07 1.90715e+07 -1.22334e+06 -5.68799e+06)
(1.4145e+07 -1.58809e+06 1.5524e+07 2.03618e+07 38100.9 -2.91625e+06)
(2.30118e+07 -1.22439e+06 5.03668e+06 2.44177e+07 1.08451e+07 2.46947e+07)
(2.20562e+07 -1.18615e+06 5.82979e+06 2.28809e+07 7.98281e+06 2.25777e+07)
(2.27438e+07 -809911 6.35453e+06 2.26136e+07 8.3066e+06 2.31271e+07)
(2.47303e+07 687986 -1.26207e+06 2.53476e+07 2.19108e+06 2.51595e+07)
(2.36207e+07 -2.20145e+06 -192435 2.47885e+07 -22736.3 2.47336e+07)
(2.37468e+07 -372286 -1.25604e+06 2.42972e+07 1.50545e+06 2.41899e+07)
(1.91273e+07 -1.37527e+06 -5.33601e+06 1.64545e+07 1.9756e+06 2.98654e+07)
(1.89103e+07 -1.47585e+06 -4.24804e+06 1.64e+07 1.30609e+06 2.76263e+07)
(1.91512e+07 -1.28884e+06 -4.79354e+06 1.72054e+07 1.94627e+06 2.81315e+07)
(2.40618e+07 464862 -3.26069e+06 2.42727e+07 8.0737e+06 2.81295e+07)
(2.26881e+07 -587629 -3.38747e+06 2.3333e+07 7.42609e+06 2.92409e+07)
(2.38678e+07 -863747 -3.01204e+06 2.38466e+07 6.55302e+06 2.81799e+07)
(2.00577e+07 -5.14968e+06 -191448 2.08618e+07 382830 2.15657e+07)
(1.89854e+07 -1.65908e+06 -2.50054e+06 2.04392e+07 839299 2.20482e+07)
(2.39793e+07 -1.81014e+06 785205 2.72796e+07 2.07425e+06 2.75921e+07)
(2.3641e+07 -1.39683e+06 3.35659e+06 2.61971e+07 7.97596e+06 2.69627e+07)
(2.47625e+07 -881946 898950 2.51863e+07 2.07235e+06 2.72942e+07)
(2.34555e+07 -2.43388e+06 409950 2.47947e+07 -22117.8 2.47339e+07)
(2.45436e+07 -514380 1.73317e+06 2.50041e+07 1.50453e+06 2.55128e+07)
(1.9258e+07 -1.28198e+06 9.98052e+06 2.07464e+07 1.8119e+06 1.04636e+07)
(1.85762e+07 -1.41642e+06 8.62966e+06 1.98223e+07 1.10781e+06 1.06286e+07)
(1.98774e+07 -1.19517e+06 9.03801e+06 2.07315e+07 1.79603e+06 1.25227e+07)
(2.38998e+07 -1.04708e+06 3.74266e+06 2.47165e+07 8.18847e+06 2.59828e+07)
(2.33855e+07 -708102 5.5251e+06 2.34067e+07 7.504e+06 2.40973e+07)
(2.27975e+07 -1.00673e+06 4.77177e+06 2.364e+07 6.63172e+06 2.37737e+07)
(2.22619e+07 -5.14212e+06 462136 2.17847e+07 363855 2.17944e+07)
(2.26244e+07 -1.59231e+06 4.05805e+06 2.09048e+07 765866 2.03637e+07)
(1.90662e+07 2.58519e+06 -4.5477e+06 2.32579e+07 1.08376e+07 4.62243e+07)
(1.77161e+07 2.26808e+06 -3.63796e+06 2.15183e+07 8.33803e+06 4.94527e+07)
(2.4408e+07 945029 -1.32672e+06 2.6548e+07 2.98353e+06 2.56964e+07)
(2.37151e+07 1.19082e+06 -2.99809e+06 2.61555e+07 7.37762e+06 2.75392e+07)
(1.52461e+07 -1.15231e+06 628367 1.48943e+07 -2.85549e+06 4.35883e+07)
(1.61858e+07 864416 -1.54744e+06 1.82836e+07 2.82323e+06 4.89601e+07)
(1.38034e+07 -1.76137e+06 -1.37763e+06 9.46919e+06 -1.11004e+07 -4.64351e+06)
(1.50761e+07 -1.75598e+06 -6.03122e+06 8.21414e+06 -1.16834e+07 -1.453e+06)
(1.43197e+07 -1.78308e+06 -2.43972e+06 9.62837e+06 -9.80209e+06 5.16768e+06)
(1.32982e+07 -221395 258818 1.4297e+07 -3.84013e+06 3.73219e+07)
(1.51796e+07 -1.39412e+06 -1.30812e+06 1.24268e+07 -7.04781e+06 3.52051e+07)
(1.35729e+07 -1.25064e+06 -739531 1.05865e+07 -9.38061e+06 2.92891e+07)
(1.54792e+07 -1.75048e+06 -6.78342e+06 8.16643e+06 -1.0407e+07 7.70996e+06)
(1.52629e+07 -1.77544e+06 -4.42954e+06 1.00353e+07 -6.97556e+06 2.22496e+07)
(1.48082e+07 -1.78576e+06 -3.4571e+06 9.8161e+06 -8.41404e+06 1.4161e+07)
(1.80586e+07 -667966 -1.45987e+07 1.70602e+06 -1.21568e+07 1.23009e+07)
(1.75454e+07 -976825 -1.41063e+07 2.91273e+06 -1.19933e+07 9.18268e+06)
(1.77034e+07 -1.13533e+06 -1.39454e+07 3.11975e+06 -1.07881e+07 1.60525e+07)
(1.75806e+07 -1.61076e+06 -1.24534e+07 5.30204e+06 -7.1933e+06 3.12898e+07)
(1.70283e+07 -1.72844e+06 -1.09402e+07 6.67131e+06 -6.87923e+06 3.05828e+07)
(1.74033e+07 -1.53183e+06 -1.25074e+07 4.96122e+06 -8.41701e+06 2.61577e+07)
(1.70086e+07 -1.32487e+06 -1.24178e+07 4.51092e+06 -1.09086e+07 1.32015e+07)
(1.67951e+07 -1.68355e+06 -1.06833e+07 6.44734e+06 -8.15942e+06 2.47212e+07)
(1.72128e+07 -1.43597e+06 -1.24915e+07 4.69594e+06 -9.66227e+06 2.01335e+07)
(1.6007e+07 -639958 -1.12507e+07 4.54842e+06 -1.52661e+07 -2.32605e+07)
(1.57157e+07 -1.38326e+06 -8.94223e+06 6.33456e+06 -1.31154e+07 -7.88454e+06)
(1.62883e+07 -851797 -1.16973e+07 4.43309e+06 -1.43497e+07 -1.2929e+07)
(1.72723e+07 317605 -1.54266e+07 893868 -1.5528e+07 -1.08584e+07)
(1.73732e+07 -784980 -1.41936e+07 2.7921e+06 -1.31637e+07 1.4458e+06)
(1.71861e+07 -563311 -1.41897e+07 2.75044e+06 -1.42626e+07 -7.13753e+06)
(1.60179e+07 -1.47916e+06 -9.50263e+06 6.25238e+06 -1.19653e+07 1.60098e+06)
(1.6787e+07 -1.18998e+06 -1.22708e+07 4.40812e+06 -1.21289e+07 5.36098e+06)
(1.65466e+07 -1.03179e+06 -1.2033e+07 4.38339e+06 -1.32872e+07 -3.36392e+06)
(1.62509e+07 -418608 -1.88219e+06 1.5657e+07 2.17642e+06 4.80299e+07)
(1.49799e+07 -1.30539e+06 -1.63356e+06 1.29243e+07 -6.04997e+06 3.63827e+07)
(1.67622e+07 -1.55055e+06 -2.30973e+06 1.46221e+07 -3.35525e+06 4.10691e+07)
(1.68927e+07 -1.69402e+06 -7.66734e+06 1.13459e+07 -1.43088e+06 4.51648e+07)
(1.68139e+07 -1.69912e+06 -9.08792e+06 8.61428e+06 -4.99698e+06 3.53331e+07)
(1.65074e+07 -1.72141e+06 -6.96574e+06 1.09478e+07 -2.74198e+06 4.08346e+07)
(1.56947e+07 -1.76323e+06 -5.33714e+06 1.02906e+07 -5.52782e+06 2.93945e+07)
(1.65074e+07 -1.71404e+06 -8.60963e+06 8.39665e+06 -6.33242e+06 2.98133e+07)
(1.61104e+07 -1.74531e+06 -6.18926e+06 1.05934e+07 -4.11004e+06 3.55814e+07)
(1.42748e+07 -2.66178e+06 -707260 1.71014e+07 -2.82244e+06 5.54713e+07)
(1.75915e+07 -913349 1.62938e+06 1.85629e+07 2.93761e+06 4.6711e+07)
(7.09064e+06 -1.48274e+06 387744 8.01573e+06 -1.12401e+07 7.6096e+07)
(5.01679e+06 -1.55267e+06 5.46188e+06 7.5174e+06 -1.1781e+07 6.28075e+07)
(8.1875e+06 -1.52243e+06 2.13246e+06 9.69273e+06 -9.89498e+06 6.66671e+07)
(1.50681e+07 -892837 -163293 1.43247e+07 -3.83367e+06 5.80736e+07)
(1.24713e+07 -1.41615e+06 2.2184e+06 1.35516e+07 -6.97424e+06 4.44307e+07)
(1.22392e+07 -1.22652e+06 937829 1.30495e+07 -9.38875e+06 5.09454e+07)
(6.1846e+06 -1.56285e+06 7.03421e+06 9.41003e+06 -1.04842e+07 5.38681e+07)
(1.02522e+07 -1.53916e+06 5.33131e+06 1.27638e+07 -6.98701e+06 4.96274e+07)
(9.24993e+06 -1.54397e+06 3.79426e+06 1.12868e+07 -8.46289e+06 5.78148e+07)
(-1.96394e+06 -698707 1.74173e+07 1.03649e+07 -1.23474e+07 1.40843e+07)
(-439997 -936629 1.60614e+07 9.84946e+06 -1.21375e+07 2.53137e+07)
(938345 -1.09945e+06 1.67273e+07 1.14034e+07 -1.09523e+07 1.87281e+07)
(6.26601e+06 -1.53453e+06 1.64138e+07 1.49793e+07 -7.32918e+06 1.21643e+07)
(7.83564e+06 -1.58644e+06 1.40634e+07 1.46732e+07 -6.95002e+06 2.14175e+07)
(5.06586e+06 -1.46707e+06 1.58715e+07 1.37132e+07 -8.54774e+06 1.72433e+07)
(2.53581e+06 -1.26636e+06 1.43384e+07 1.07569e+07 -1.10235e+07 2.99774e+07)
(6.68395e+06 -1.55118e+06 1.32055e+07 1.32663e+07 -8.23502e+06 2.7403e+07)
(3.82089e+06 -1.37981e+06 1.51849e+07 1.23051e+07 -9.78577e+06 2.31754e+07)
(-2.95708e+06 -595630 9.09614e+06 3.16921e+06 -1.53319e+07 6.53665e+07)
(1.6784e+06 -1.24511e+06 8.16389e+06 6.21742e+06 -1.32104e+07 5.95811e+07)
(-1.53928e+06 -808621 1.07128e+07 5.25941e+06 -1.44302e+07 5.53975e+07)
(-6.10978e+06 262467 1.53396e+07 5.65602e+06 -1.56147e+07 3.60904e+07)
(-1.85883e+06 -762118 1.52103e+07 8.15127e+06 -1.32853e+07 3.27618e+07)
(-3.31665e+06 -552300 1.41776e+07 6.31257e+06 -1.4358e+07 4.10526e+07)
(2.98084e+06 -1.34755e+06 9.68424e+06 8.18463e+06 -1.20564e+07 5.03671e+07)
(1.20709e+06 -1.14051e+06 1.33174e+07 9.05851e+06 -1.22348e+07 3.76351e+07)
(-150791 -988373 1.21195e+07 7.22321e+06 -1.33815e+07 4.6124e+07)
(1.67134e+07 -1.29461e+06 2.32141e+06 1.77849e+07 2.27936e+06 4.43044e+07)
(1.36464e+07 -1.30303e+06 2.68851e+06 1.39573e+07 -6.02327e+06 4.32634e+07)
(1.36668e+07 -1.59881e+06 3.90672e+06 1.44642e+07 -3.25467e+06 3.73423e+07)
(1.39098e+07 -1.51621e+06 1.0272e+07 1.76137e+07 -1.32606e+06 2.44824e+07)
(1.05139e+07 -1.53933e+06 1.18574e+07 1.567e+07 -5.00079e+06 2.55728e+07)
(1.30672e+07 -1.53751e+06 9.24038e+06 1.65727e+07 -2.65625e+06 2.96052e+07)
(1.124e+07 -1.54767e+06 6.76494e+06 1.41508e+07 -5.50472e+06 4.21834e+07)
(9.49228e+06 -1.55353e+06 1.08645e+07 1.43105e+07 -6.35428e+06 3.14581e+07)
(1.21785e+07 -1.55046e+06 8.05769e+06 1.54192e+07 -4.05616e+06 3.55065e+07)
(2.08785e+07 -332176 -4.77144e+06 1.92393e+07 1.08418e+07 4.99081e+07)
(1.91022e+07 -1.21294e+06 -4.1925e+06 1.93665e+07 4.95855e+06 4.54908e+07)
(2.11586e+07 -1.67569e+06 -4.68838e+06 2.05405e+07 7.02406e+06 4.61045e+07)
(1.97175e+07 -1.32273e+06 -1.02392e+07 1.58118e+07 5.61408e+06 5.26993e+07)
(1.9005e+07 -1.44525e+06 -1.04041e+07 1.26537e+07 3.00813e+06 5.07439e+07)
(1.93904e+07 -1.37856e+06 -1.02148e+07 1.51688e+07 5.10322e+06 5.3826e+07)
(1.8711e+07 -1.48801e+06 -9.9106e+06 1.39337e+07 3.76451e+06 5.4632e+07)
(1.87549e+07 -1.48266e+06 -1.04664e+07 1.19868e+07 2.33795e+06 5.11082e+07)
(1.90553e+07 -1.43331e+06 -1.01058e+07 1.45387e+07 4.491e+06 5.44887e+07)
(1.77477e+07 -1.66968e+06 -1.235e+07 5.72071e+06 -6.01233e+06 3.55575e+07)
(1.76764e+07 -1.78883e+06 -1.13049e+07 7.81036e+06 -3.30216e+06 4.28499e+07)
(1.79044e+07 -1.71358e+06 -1.21987e+07 6.20815e+06 -4.88688e+06 3.90003e+07)
(1.88309e+07 -1.56155e+06 -1.22884e+07 4.36918e+06 -6.44009e+06 3.44962e+07)
(1.83871e+07 -1.65877e+06 -1.2021e+07 5.9475e+06 -4.06211e+06 3.9914e+07)
(1.82988e+07 -1.61188e+06 -1.24241e+07 5.31221e+06 -5.04617e+06 3.78246e+07)
(1.78827e+07 -1.78548e+06 -1.13136e+07 8.33423e+06 -2.24564e+06 4.53062e+07)
(1.82014e+07 -1.76536e+06 -1.17721e+07 7.3754e+06 -2.84572e+06 4.36196e+07)
(1.80564e+07 -1.74287e+06 -1.20083e+07 6.7643e+06 -3.82881e+06 4.16706e+07)
(1.91765e+07 -452531 -3.88265e+06 1.76139e+07 8.1067e+06 5.22654e+07)
(2.02994e+07 -1.72292e+06 -4.36677e+06 1.94464e+07 5.24927e+06 4.7115e+07)
(1.82815e+07 -1.27615e+06 -3.75738e+06 1.81459e+07 2.81572e+06 4.56949e+07)
(1.72736e+07 -1.66209e+06 -8.28156e+06 1.17886e+07 -195683 4.86159e+07)
(1.76807e+07 -1.62548e+06 -1.00853e+07 9.70947e+06 -1.33539e+06 4.66097e+07)
(1.76466e+07 -1.62544e+06 -8.82081e+06 1.22732e+07 945351 5.12283e+07)
(1.8366e+07 -1.53782e+06 -9.63863e+06 1.33503e+07 2.92814e+06 5.4176e+07)
(1.79572e+07 -1.59097e+06 -1.02844e+07 1.0208e+07 -274035 4.87525e+07)
(1.80133e+07 -1.583e+06 -9.26864e+06 1.27953e+07 1.9866e+06 5.30624e+07)
(1.87401e+07 -1.74467e+06 -1.0466e+07 1.02782e+07 281915 4.54003e+07)
(1.86853e+07 -1.70667e+06 -1.07962e+07 1.09409e+07 1.12393e+06 4.84477e+07)
(1.86093e+07 -1.76021e+06 -1.08477e+07 9.50029e+06 -373694 4.57338e+07)
(1.90402e+07 -1.77906e+06 -1.06966e+07 6.57467e+06 -3.65097e+06 3.93987e+07)
(1.84743e+07 -1.68466e+06 -1.15908e+07 6.64276e+06 -3.14795e+06 4.1368e+07)
(1.85573e+07 -1.69726e+06 -1.11491e+07 7.38013e+06 -2.31183e+06 4.22396e+07)
(1.84896e+07 -1.73571e+06 -1.09993e+07 1.02244e+07 415691 4.85401e+07)
(1.83396e+07 -1.77313e+06 -1.14947e+07 8.03921e+06 -1.93974e+06 4.49045e+07)
(1.84732e+07 -1.76826e+06 -1.11884e+07 8.74734e+06 -1.11602e+06 4.55875e+07)
(2.201e+07 332593 4.79723e+06 2.19499e+07 1.10329e+07 3.2932e+07)
(2.05565e+07 200711 3.82886e+06 2.04698e+07 8.5262e+06 3.77758e+07)
(2.01242e+07 -1.55505e+06 5.56577e+06 2.25667e+07 1.1031e+07 2.69291e+07)
(1.85281e+07 -1.27754e+06 7.00179e+06 1.79375e+07 5.05966e+06 2.48209e+07)
(1.78688e+07 -1.78209e+06 7.57364e+06 1.83381e+07 7.16509e+06 2.18167e+07)
(1.91833e+07 -1.24934e+06 1.40086e+07 2.24908e+07 5.80997e+06 7.86842e+06)
(1.71011e+07 -1.32543e+06 1.51523e+07 2.19818e+07 3.07312e+06 4.62078e+06)
(1.86744e+07 -1.3028e+06 1.39795e+07 2.21644e+07 5.30206e+06 7.9926e+06)
(1.75167e+07 -1.3807e+06 1.35526e+07 2.12926e+07 3.94758e+06 9.66086e+06)
(1.64302e+07 -1.36906e+06 1.51554e+07 2.15617e+07 2.39617e+06 5.08134e+06)
(1.81254e+07 -1.35131e+06 1.38169e+07 2.17714e+07 4.6789e+06 8.57582e+06)
(7.41828e+06 -1.59637e+06 1.68271e+07 1.6103e+07 -6.15179e+06 7.91621e+06)
(1.10089e+07 -1.64831e+06 1.58021e+07 1.80385e+07 -3.36037e+06 8.38305e+06)
(8.52622e+06 -1.63717e+06 1.7104e+07 1.70948e+07 -5.02943e+06 4.46538e+06)
(4.40342e+06 -1.55825e+06 1.79734e+07 1.5739e+07 -6.72618e+06 -5.47498e+06)
(8.32517e+06 -1.57847e+06 1.78623e+07 1.7849e+07 -4.29421e+06 -3.44385e+06)
(7.20253e+06 -1.54941e+06 1.7964e+07 1.70926e+07 -5.27238e+06 -1.63655e+06)
(1.19693e+07 -1.65793e+06 1.61243e+07 1.88922e+07 -2.29962e+06 5.57376e+06)
(1.0605e+07 -1.67908e+06 1.73103e+07 1.87045e+07 -2.99174e+06 -225054)
(9.58971e+06 -1.66806e+06 1.72641e+07 1.79575e+07 -3.97356e+06 1.76691e+06)