/*--------------------------------*- C++ -*----------------------------------*\
| =========                 |                                                 |
| \\      /  F ield         | OpenFOAM: The Open Source CFD Toolbox           |
|  \\    /   O peration     | Version:  2012                                  |
|   \\  /    A nd           | Website:  www.openfoam.com                      |
|    \\/     M anipulation  |                                                 |
\*---------------------------------------------------------------------------*/
FoamFile
{
    version     2.0;
    format      ascii;
    class       surfaceScalarField;
    location    "0.107/fluid";
    object      phi;
}
// * * * * * * * * * * * * * * * * * * * * * * * * * * * * * * * * * * * * * //

dimensions      [0 3 -1 0 0 0 0];
oriented        oriented;


internalField   nonuniform List<scalar> 
47129
(
-0.00112615
2.50497e-05
-0.000230992
-3.09679e-05
0.00136286
-0.00149331
1.85838e-05
1.27935e-06
-2.05033e-05
0.00149348
1.16232e-05
-0.00150798
0.00151191
-4.04289e-06
-1.21483e-05
7.06553e-06
-0.00151895
0.00152043
-1.942e-06
-7.25879e-06
4.29392e-06
-0.00152349
0.0015242
-1.21476e-06
-4.38374e-06
2.6274e-06
-0.00152577
0.00152616
-8.43078e-07
-2.67862e-06
1.62377e-06
-0.00152708
0.00152733
-6.79308e-07
-1.65555e-06
1.01757e-06
-0.00152793
0.0015281
-5.55476e-07
-1.03535e-06
6.38786e-07
-0.00152853
0.00152864
-4.63993e-07
-6.50988e-07
4.00952e-07
-0.00152895
0.00152903
-3.92296e-07
-4.09169e-07
2.54272e-07
-0.00152927
0.00152934
-3.24283e-07
-2.59122e-07
1.59638e-07
-0.00152953
0.00152959
-2.31665e-07
-1.63158e-07
9.87745e-08
-0.00152974
0.00152979
-1.62263e-07
-1.04835e-07
5.72421e-08
-0.00152992
0.00152996
-1.07112e-07
-5.83209e-08
1.62233e-05
2.60833e-06
0.00167816
-2.56234e-06
-1.10311e-05
9.51045e-05
-0.00155618
1.70279e-05
-1.97086e-05
0.00152933
-6.66779e-05
1.46591e-05
2.95964e-05
-0.00150913
-1.56673e-05
0.00151005
-3.05157e-05
9.77424e-06
1.2592e-05
-0.00151397
0.00151517
-1.42822e-05
-1.00834e-05
6.07015e-06
7.25669e-06
-0.00151829
0.00151916
-8.71072e-06
-6.21979e-06
3.72558e-06
4.9719e-06
-0.00152137
0.001522
-6.1018e-06
-3.80557e-06
2.28838e-06
3.65889e-06
-0.00152357
0.00152401
-4.54172e-06
-2.33911e-06
1.42365e-06
2.83467e-06
-0.00152515
0.00152549
-3.4959e-06
-1.45238e-06
8.9035e-07
2.19595e-06
-0.00152644
0.00152673
-2.68386e-06
-9.09957e-07
5.62737e-07
1.73942e-06
-0.00152749
0.00152772
-2.10199e-06
-5.74134e-07
3.56044e-07
1.41172e-06
-0.00152832
0.0015285
-1.69318e-06
-3.62445e-07
2.21827e-07
1.15003e-06
-0.00152894
0.00152906
-1.38114e-06
-2.21218e-07
1.37137e-07
8.67944e-07
-0.00152942
0.00152953
-1.06426e-06
-1.39791e-07
8.5604e-08
5.62182e-07
-0.00152982
0.0015299
-6.91981e-07
-8.70785e-08
5.0534e-08
2.8783e-07
-0.00153014
0.00153022
-3.42038e-07
-5.13167e-08
4.15903e-06
3.55425e-06
0.00158145
-1.53996e-06
-4.64846e-06
-0.0015475
1.2002e-05
2.69121e-05
-1.68449e-05
-1.33083e-05
0.00153733
9.96244e-06
2.29548e-05
-0.00152183
0.00151982
-2.11846e-05
-1.04256e-05
6.87777e-06
1.59097e-05
-0.00151779
0.00151782
-1.59835e-05
-7.00145e-06
4.46649e-06
1.1274e-05
-0.00151849
0.00151883
-1.15353e-05
-4.56536e-06
2.83273e-06
8.49121e-06
-0.00152
0.00152042
-8.85247e-06
-2.88995e-06
1.80063e-06
6.53066e-06
-0.00152169
0.00152211
-6.86604e-06
-1.83568e-06
1.1451e-06
5.02224e-06
-0.00152334
0.00152375
-5.29651e-06
-1.17077e-06
7.33539e-07
3.80736e-06
-0.00152491
0.00152528
-4.01461e-06
-7.52053e-07
4.87971e-07
2.90389e-06
-0.00152632
0.00152664
-3.03231e-06
-4.956e-07
3.21668e-07
2.25282e-06
-0.00152747
0.0015277
-2.32097e-06
-3.23949e-07
1.9781e-07
1.81371e-06
-0.0015283
0.00152848
-1.83598e-06
-2.01806e-07
1.24861e-07
1.40976e-06
-0.00152896
0.0015291
-1.42648e-06
-1.30251e-07
7.64834e-08
9.23919e-07
-0.00152946
0.00152959
-9.48235e-07
-7.91067e-08
4.49603e-08
4.35186e-07
-0.00152995
0.00153007
-4.59422e-07
-4.67408e-08
1.90211e-06
-1.41564e-05
0.000408108
1.87019e-05
-1.51891e-06
-0.00150211
1.29826e-05
1.19467e-06
-8.52716e-07
-1.82639e-05
0.00150679
-0.0015105
7.05798e-06
1.71381e-05
-1.92886e-05
-7.50333e-06
0.00151344
4.33921e-06
1.49288e-05
-0.001518
0.00151839
-1.47226e-05
-4.44019e-06
2.9313e-06
1.1513e-05
-0.00151945
0.00151973
-1.12872e-05
-3.015e-06
1.96219e-06
9.02267e-06
-0.00152056
0.00152084
-8.82595e-06
-2.01627e-06
1.34064e-06
7.02958e-06
-0.00152179
0.00152213
-1.36682e-06
9.11595e-07
5.39275e-06
-0.00152318
0.00152355
-9.27853e-07
6.2751e-07
4.05385e-06
-0.00152469
0.00152509
-6.41848e-07
4.58737e-07
2.95304e-06
-0.00152623
0.0015266
-4.66742e-07
3.30387e-07
2.19593e-06
-0.00152759
0.00152787
-3.36493e-07
2.26662e-07
1.62499e-06
-0.00152855
0.00152873
-2.2891e-07
1.47223e-07
1.28159e-06
-0.00152911
0.00152921
-1.46469e-07
7.72244e-08
9.49598e-07
-0.00152948
0.00152956
-7.93104e-08
3.54838e-08
5.46119e-07
-0.00152987
0.00153001
-3.66793e-08
-0.00120174
5.6843e-05
-0.000178118
-8.00738e-05
0.00140287
-0.00152096
2.64537e-05
3.98576e-06
-2.30237e-05
0.00151305
1.31419e-05
-0.00151694
0.00151958
-3.16511e-06
-1.32705e-05
7.38175e-06
-0.00152369
0.0015245
-1.61194e-06
-7.2251e-06
4.35669e-06
-0.0015261
0.00152646
-1.05783e-06
-4.23427e-06
2.64173e-06
-0.00152728
0.00152749
-7.47073e-07
-2.55949e-06
1.62672e-06
-0.001528
0.00152814
-5.90403e-07
-1.57691e-06
1.017e-06
-0.00152851
0.00152862
-4.94108e-07
-9.83148e-07
6.39551e-07
-0.0015289
0.00152898
-4.2682e-07
-6.1914e-07
4.05584e-07
-0.00152918
0.00152924
-3.77132e-07
-3.92868e-07
2.5835e-07
-0.0015294
0.00152945
-3.22684e-07
-2.50131e-07
1.63947e-07
-0.0015296
0.00152965
-2.10965e-07
-1.60861e-07
9.95667e-08
-0.00152978
0.00152982
-1.28989e-07
-9.68549e-08
5.74025e-08
-0.00152995
0.00153
-9.72639e-08
-5.58149e-08
1.55891e-05
2.351e-06
0.0016328
-2.10884e-06
-1.04574e-05
6.31089e-05
-0.00154878
3.14768e-05
-3.30978e-05
0.0015318
-4.56481e-05
1.86797e-05
2.10991e-05
-0.00151817
-1.88114e-05
0.00151833
-2.22063e-05
1.06504e-05
1.01154e-05
-0.00151971
0.00152023
-1.16736e-05
-1.05213e-05
6.27265e-06
6.34073e-06
-0.00152168
0.0015221
-7.79357e-06
-6.1369e-06
3.7786e-06
4.47675e-06
-0.00152335
0.00152375
-5.58173e-06
-3.6759e-06
2.31701e-06
3.24905e-06
-0.0015248
0.00152511
-4.08273e-06
-2.25218e-06
1.43764e-06
2.5084e-06
-0.00152592
0.00152617
-3.13401e-06
-1.39793e-06
9.04546e-07
1.98594e-06
-0.00152689
0.00152711
-2.45459e-06
-8.79049e-07
5.69288e-07
1.63151e-06
-0.00152771
0.00152789
-1.9963e-06
-5.55602e-07
3.59413e-07
1.39058e-06
-0.00152838
0.00152852
-1.69102e-06
-3.49692e-07
2.18553e-07
1.18987e-06
-0.0015289
0.00152903
-1.4442e-06
-2.12394e-07
1.39055e-07
8.79955e-07
-0.00152938
0.00152949
-1.07955e-06
-1.35074e-07
8.64088e-08
5.34784e-07
-0.0015298
0.00152989
-6.71734e-07
-8.42972e-08
5.14734e-08
2.4777e-07
-0.00153015
0.00153024
-2.92502e-07
-5.06595e-08
3.89511e-06
6.41522e-06
0.00155838
-7.54105e-06
-3.34541e-06
-0.0015416
1.31927e-05
2.27917e-05
-1.95554e-05
-1.22787e-05
0.0015359
1.06556e-05
1.88625e-05
-0.00152503
0.00152319
-1.81391e-05
-1.02731e-05
7.09458e-06
1.37267e-05
-0.00152064
0.00152035
-1.38518e-05
-6.90669e-06
4.54902e-06
1.04604e-05
-0.00152023
0.00152039
-1.06051e-05
-4.41756e-06
2.86501e-06
7.96056e-06
-0.00152112
0.00152144
-8.26858e-06
-2.78067e-06
1.81694e-06
6.04353e-06
-0.00152241
0.00152275
-6.38097e-06
-1.76523e-06
1.1626e-06
4.64409e-06
-0.00152375
0.00152409
-4.93937e-06
-1.13446e-06
7.5757e-07
3.59075e-06
-0.0015251
0.00152542
-3.82163e-06
-7.40396e-07
4.93542e-07
2.83512e-06
-0.00152633
0.0015266
-2.99092e-06
-4.8293e-07
3.18476e-07
2.32414e-06
-0.00152732
0.00152753
-2.41321e-06
-3.11262e-07
2.01781e-07
1.93707e-06
-0.0015281
0.00152828
-1.99365e-06
-1.95308e-07
1.25834e-07
1.47198e-06
-0.00152878
0.00152893
-1.54327e-06
-1.20445e-07
8.0608e-08
9.37562e-07
-0.00152937
0.00152953
-9.70199e-07
-7.67818e-08
5.05946e-08
3.46324e-07
-0.00152997
0.00153009
-3.87295e-07
-4.8999e-08
1.2777e-05
8.92739e-06
0.00153441
-1.01607e-05
-7.45317e-06
1.1012e-05
-0.00152529
1.56724e-05
-1.61878e-05
0.00152399
-9.53206e-06
7.29769e-06
1.5631e-05
-0.00152079
-1.58083e-05
0.00152045
-6.42578e-06
4.44674e-06
1.30888e-05
-0.00152028
0.00152032
-1.28144e-05
-4.26172e-06
3.00788e-06
1.04185e-05
-0.00152059
0.00152074
-1.01516e-05
-2.91091e-06
2.02873e-06
8.30352e-06
-0.00152127
0.00152147
-8.09327e-06
-1.96985e-06
1.35349e-06
6.58553e-06
-0.00152219
0.00152246
-6.4539e-06
-1.31418e-06
9.14009e-07
5.22013e-06
-0.00152332
0.00152363
-5.14056e-06
-8.89881e-07
6.34032e-07
4.05454e-06
-0.00152464
0.001525
-6.19255e-07
4.59541e-07
3.02778e-06
-0.00152609
0.00152644
-4.4823e-07
3.27013e-07
2.31016e-06
-0.00152736
0.00152762
-3.13952e-07
2.1531e-07
1.83909e-06
-0.00152821
0.00152836
-2.0448e-07
1.31437e-07
1.52263e-06
-0.00152875
0.00152887
-1.25085e-07
7.64932e-08
1.02625e-06
-0.00152924
0.00152937
-7.25835e-08
3.82094e-08
5.31838e-07
-0.00152977
0.00152993
-3.72074e-08
6.26966e-05
0.00159574
-2.79697e-05
-1.91814e-06
4.34751e-05
-0.00152242
-1.00137e-05
0.00152428
-3.55643e-05
2.38662e-05
-0.00152758
-3.72496e-06
0.0015273
-2.02783e-05
1.10877e-05
-0.00152802
0.0015282
-1.7968e-06
-1.00012e-05
6.09579e-06
-0.00152841
0.00152844
-1.15931e-06
-5.5073e-06
3.5392e-06
-0.00152852
0.00152854
-8.37784e-07
-3.20475e-06
2.13058e-06
-0.00152865
0.0015287
-6.23632e-07
-1.93104e-06
1.30946e-06
-0.00152885
0.00152891
-4.74765e-07
-1.18657e-06
8.15318e-07
-0.00152906
0.00152911
-3.75553e-07
-7.37762e-07
5.14157e-07
-0.00152923
0.00152927
-3.2043e-07
-4.65137e-07
3.2192e-07
-0.00152938
0.00152942
-3.03668e-07
-2.91179e-07
2.08909e-07
-0.00152953
0.00152957
-2.92139e-07
-1.88909e-07
1.3026e-07
-0.00152968
0.00152972
-2.31021e-07
-1.1828e-07
7.99193e-08
-0.00152983
0.00152988
-1.57803e-07
-7.25288e-08
4.65891e-08
-0.00153
0.00153005
-9.31068e-08
-4.21383e-08
2.10702e-06
1.04735e-05
0.0015705
-6.82212e-06
-3.1623e-06
2.3316e-05
1.81163e-05
-0.00154706
0.00154116
-1.66211e-05
-1.97007e-05
1.54728e-05
1.02361e-05
-0.00153144
0.00152981
-1.11666e-05
-1.37009e-05
8.89247e-06
6.438e-06
-0.00152701
0.00152653
-7.59665e-06
-7.98495e-06
5.16255e-06
4.68568e-06
-0.00152581
0.00152573
-5.73771e-06
-4.67252e-06
3.07762e-06
3.5648e-06
-0.00152581
0.00152591
-4.42354e-06
-2.78961e-06
1.88512e-06
2.6535e-06
-0.00152632
0.00152647
-3.30646e-06
-1.7095e-06
1.17229e-06
1.99313e-06
-0.00152696
0.00152713
-2.49788e-06
-1.06278e-06
7.41292e-07
1.54642e-06
-0.00152764
0.00152781
-1.94128e-06
-6.73996e-07
4.73029e-07
1.29134e-06
-0.00152825
0.00152837
-1.61029e-06
-4.28267e-07
2.91853e-07
1.18562e-06
-0.0015287
0.00152879
-1.47393e-06
-2.64283e-07
1.76475e-07
1.08664e-06
-0.00152906
0.00152915
-1.34564e-06
-1.59307e-07
1.11616e-07
8.63352e-07
-0.00152943
0.00152952
-1.07497e-06
-9.99602e-08
7.01464e-08
5.48585e-07
-0.0015298
0.00152989
-6.98593e-07
-6.29298e-08
4.30109e-08
2.41349e-07
-0.00153015
0.00153024
-3.13715e-07
-3.8418e-08
1.74268e-06
4.79446e-06
0.00154569
-5.57163e-06
-1.5666e-06
8.61134e-06
1.20625e-05
-0.00153909
-1.16089e-05
0.00153642
-7.47607e-06
8.14341e-06
1.17573e-05
-0.00152979
0.00152821
-1.1794e-05
-7.20175e-06
5.72601e-06
9.72567e-06
-0.00152515
0.00152455
-1.00158e-05
-5.15058e-06
3.67736e-06
7.9682e-06
-0.0015235
0.00152336
-8.27352e-06
-3.3268e-06
2.3223e-06
6.31421e-06
-0.00152338
0.00152349
-6.60701e-06
-2.10486e-06
1.48287e-06
4.85021e-06
-0.00152396
0.00152416
-5.12929e-06
-1.34846e-06
9.59619e-07
3.75969e-06
-0.00152481
0.00152506
-4.02561e-06
-8.75221e-07
6.30599e-07
2.95194e-06
-0.0015258
0.00152606
-3.1839e-06
-5.77225e-07
4.16881e-07
2.41179e-06
-0.00152677
0.00152699
-2.58682e-06
-3.78037e-07
2.5527e-07
2.15716e-06
-0.00152752
0.00152768
-2.27584e-06
-2.30598e-07
1.5639e-07
1.92801e-06
-0.00152811
0.00152825
-2.0253e-06
-1.38803e-07
9.43255e-08
1.60292e-06
-0.00152867
0.00152881
-1.69654e-06
-8.3019e-08
5.83766e-08
1.07834e-06
-0.00152926
0.0015294
-1.13547e-06
-5.07999e-08
3.60198e-08
5.11915e-07
-0.00152982
0.00152998
-5.69786e-07
-2.96521e-08
1.50025e-06
7.64163e-06
0.00153175
-8.25486e-06
-1.03138e-06
4.70279e-06
1.09413e-05
-0.00152915
-1.11457e-05
0.00152819
-3.82638e-06
4.49807e-06
1.11773e-05
-0.0015257
0.00152506
-1.10564e-05
-3.88436e-06
3.4113e-06
9.92283e-06
-0.00152373
0.00152344
-9.68963e-06
-3.04854e-06
2.3831e-06
8.2935e-06
-0.00152299
0.00152293
-8.0847e-06
-2.14572e-06
1.62794e-06
6.69906e-06
-0.00152303
0.00152312
-6.55441e-06
-1.46942e-06
1.10797e-06
5.33913e-06
-0.00152353
0.00152368
-5.26381e-06
-1.00898e-06
7.64839e-07
4.36698e-06
-0.00152422
0.00152443
-4.36763e-06
-7.01692e-07
5.30282e-07
3.52232e-06
-0.00152519
0.00152548
-3.52937e-06
-4.88539e-07
3.70658e-07
2.7649e-06
-0.0015264
0.00152669
-2.70627e-06
-3.33534e-07
2.52162e-07
2.26153e-06
-0.00152741
0.00152761
-2.16078e-06
-2.23463e-07
1.61805e-07
2.0099e-06
-0.0015281
0.00152824
-1.44171e-07
9.97124e-08
1.64604e-06
-0.0015286
0.00152873
-8.9354e-08
5.45881e-08
1.13883e-06
-0.00152914
0.00152926
-4.85318e-08
2.97276e-08
6.03412e-07
-0.00152968
0.00152986
-2.58583e-08
3.89048e-06
0.00155722
-1.94136e-06
-2.06752e-07
1.30293e-05
-0.0015469
-2.12742e-06
0.00154416
-8.36937e-06
9.59995e-06
-0.0015385
0.00153711
-1.37549e-06
-7.14068e-06
5.78479e-06
-0.00153384
0.00153305
-1.01982e-06
-4.34433e-06
3.34056e-06
-0.00153136
0.00153097
-7.54602e-07
-2.53448e-06
1.96399e-06
-0.00153014
0.00152996
-6.10873e-07
-1.4961e-06
1.18862e-06
-0.00152962
0.00152955
-4.84732e-07
-9.04332e-07
7.3148e-07
-0.00152946
0.00152944
-3.6215e-07
-5.54607e-07
4.54177e-07
-0.00152944
0.00152944
-2.73143e-07
-3.41714e-07
2.87297e-07
-0.00152947
0.00152948
-2.24783e-07
-2.15575e-07
1.7775e-07
-0.00152953
0.00152956
-2.37014e-07
-1.3424e-07
1.13724e-07
-0.00152964
0.00152967
-2.4724e-07
-8.60738e-08
7.279e-08
-0.00152975
0.00152978
-2.10378e-07
-5.50848e-08
4.46979e-08
-0.00152987
0.00152991
-1.58993e-07
-3.36174e-08
2.55975e-08
-0.00153003
0.00153007
-1.051e-07
-1.90298e-08
1.00142e-06
2.12912e-06
0.00155096
-2.09282e-06
-5.57741e-07
7.8753e-06
4.95938e-06
-0.00154475
0.00154244
-5.35313e-06
-5.64064e-06
7.1299e-06
4.54128e-06
-0.00153664
0.0015351
-5.27206e-06
-5.31953e-06
4.69698e-06
3.83113e-06
-0.00153154
0.00153069
-4.57902e-06
-3.53486e-06
2.84524e-06
3.14652e-06
-0.00152894
0.00152857
-3.84927e-06
-2.1619e-06
1.72001e-06
2.58714e-06
-0.00152789
0.00152777
-3.17417e-06
-1.3116e-06
1.0528e-06
2.02626e-06
-0.00152764
0.00152766
-2.50508e-06
-8.01289e-07
6.58019e-07
1.53451e-06
-0.00152785
0.00152795
-1.93172e-06
-4.98455e-07
4.17354e-07
1.16215e-06
-0.00152829
0.0015284
-1.49149e-06
-3.15885e-07
2.62731e-07
9.83598e-07
-0.00152871
0.0015288
-1.27297e-06
-2.0166e-07
1.60066e-07
1.00254e-06
-0.00152898
0.00152903
-1.28666e-06
-1.23663e-07
9.66312e-08
1.00834e-06
-0.0015292
0.00152927
-1.28437e-06
-7.30649e-08
5.84407e-08
8.28888e-07
-0.00152951
0.0015296
-1.04524e-06
-4.36153e-08
3.64308e-08
5.48432e-07
-0.00152984
0.00152991
-7.01611e-07
-2.6839e-08
2.20558e-08
3.07034e-07
-0.00153012
0.00153021
-3.94776e-07
-1.64975e-08
6.31412e-07
2.86095e-06
0.00154073
-3.36338e-06
-4.76779e-07
3.75463e-06
5.96886e-06
-0.00153788
0.00153655
-6.17587e-06
-2.7832e-06
4.08375e-06
6.74019e-06
-0.00153255
0.00153138
-7.03844e-06
-3.0579e-06
3.07947e-06
6.20856e-06
-0.00152869
0.00152806
-6.5103e-06
-2.32178e-06
2.03009e-06
5.32943e-06
-0.00152663
0.00152631
-5.57912e-06
-1.54726e-06
1.30436e-06
4.43103e-06
-0.00152574
0.00152565
-4.64196e-06
-9.96582e-07
8.38253e-07
3.60945e-06
-0.00152559
0.00152563
-3.8148e-06
-6.42636e-07
5.39571e-07
2.94511e-06
-0.00152589
0.00152602
-3.17447e-06
-4.10691e-07
3.60126e-07
2.40972e-06
-0.00152649
0.00152667
-2.63317e-06
-2.71294e-07
2.32989e-07
2.04934e-06
-0.0015272
0.00152736
-2.22715e-06
-1.77033e-07
1.3713e-07
1.96397e-06
-0.00152776
0.00152789
-2.09239e-06
-1.03729e-07
7.78664e-08
1.84972e-06
-0.00152825
0.00152838
-1.94569e-06
-5.80796e-08
4.46396e-08
1.49683e-06
-0.00152878
0.00152892
-1.56574e-06
-3.2867e-08
2.71927e-08
1.04224e-06
-0.00152931
0.00152941
-1.08532e-06
-2.02274e-08
1.35693e-08
6.28728e-07
-0.00152976
0.00152992
-6.83792e-07
-1.05639e-08
3.48371e-07
4.80767e-06
0.00153228
-5.16901e-06
-2.35405e-07
1.85132e-06
6.57771e-06
-0.00153117
0.00153061
-6.70662e-06
-1.3368e-06
2.1774e-06
7.13329e-06
-0.00152879
0.0015282
-7.03994e-06
-1.63039e-06
1.81252e-06
6.63961e-06
-0.00152677
0.00152639
-6.50997e-06
-1.3666e-06
1.30099e-06
5.71438e-06
-0.00152558
0.00152539
-5.60759e-06
-9.8831e-07
9.1083e-07
4.75251e-06
-0.00152506
0.00152501
-4.67274e-06
-6.93267e-07
6.41139e-07
4.00541e-06
-0.00152495
0.00152496
-3.98125e-06
-4.91237e-07
4.36821e-07
3.55033e-06
-0.00152512
0.00152523
-3.61379e-06
-3.34004e-07
3.04861e-07
3.01934e-06
-0.00152574
0.00152597
-3.08389e-06
-2.3498e-07
2.06745e-07
2.45157e-06
-0.0015267
0.00152693
-2.44948e-06
-1.59272e-07
1.26887e-07
2.14195e-06
-0.00152754
0.0015277
-2.09113e-06
-9.79439e-08
8.39961e-08
1.9917e-06
-0.00152812
0.00152826
-1.95532e-06
-6.34573e-08
5.41398e-08
1.5462e-06
-0.00152866
0.00152881
-1.51064e-06
-4.13895e-08
2.94957e-08
1.05454e-06
-0.00152921
0.00152931
-2.31438e-08
1.25139e-08
6.35944e-07
-0.00152966
0.00152985
-1.00051e-08
-2.94863e-05
0.00112347
-0.000416962
-0.000233925
-0.00011677
-0.000234053
-0.000116122
-2.16843e-06
-1.37158e-05
0.00174157
2.00563e-05
2.45699e-06
2.41522e-06
2.0044e-05
-1.71845e-05
0.00154639
-0.00012075
0.00016416
-0.00158855
-1.43334e-05
1.65126e-06
0.000409998
1.9646e-05
-1.65332e-05
-1.09065e-05
0.00150126
-0.00149721
1.13764e-05
-0.000412302
-3.8475e-05
-0.000234403
-0.000117713
-0.00023422
-0.000118653
0.00173365
-1.84421e-06
2.05839e-05
2.94096e-06
2.05232e-05
3.06835e-06
0.00154482
-0.00011989
0.000162466
-0.00158488
-2.04648e-05
-9.68961e-05
0.00116445
8.02829e-05
-0.000381303
-0.000242499
-0.000142147
-0.000246008
-0.000136036
-2.86775e-06
-1.68905e-05
1.54927e-06
0.00169543
2.04194e-05
4.48385e-06
3.85398e-06
2.05523e-05
-3.90814e-05
0.00154111
-9.79083e-05
3.17359e-05
0.000133479
-0.00157016
-9.18592e-06
-0.00149814
1.22542e-05
-2.4157e-05
6.69385e-06
0.00153907
-1.15279e-05
6.39718e-06
7.20075e-06
7.42883e-06
5.94507e-06
1.26814e-05
0.00152247
-1.1849e-05
1.95456e-05
-0.00152569
-1.78591e-05
-0.0003311
-0.000128947
-0.000257732
-0.000155888
-0.000256515
-0.000168613
0.0016718
-6.78931e-06
1.93098e-05
4.26884e-06
1.98545e-05
5.12187e-06
0.00154139
-8.10268e-05
0.000110032
-0.0015656
-4.46815e-05
0.00158163
1.99274e-05
1.47906e-05
1.11168e-05
-1.85497e-06
1.82706e-05
0.00155902
-5.81963e-05
6.35877e-05
-0.00156053
-4.06953e-06
6.15758e-06
-2.58953e-06
1.54358e-05
-1.82721e-05
0.00158589
0.00155526
-1.73068e-05
-2.60055e-05
3.90354e-05
1.38926e-05
-0.00156554
2.9514e-06
0.00158781
-1.16877e-06
-1.14415e-05
2.49783e-05
0.00154918
-0.00156344
-1.19606e-05
-1.02593e-05
1.48306e-05
1.4818e-05
1.53576e-05
0.00156676
-1.68553e-05
-7.55668e-06
0.00152807
-0.00152697
-1.22067e-05
7.55501e-07
-2.49049e-06
0.00150557
-8.37654e-06
1.70305e-05
0.00150857
-0.00150636
-1.79724e-05
-2.39955e-06
0.00050499
-8.83602e-05
2.19917e-06
-0.000556815
0.000140365
2.43648e-06
-2.83725e-05
2.97662e-05
-9.96789e-07
-2.83344e-06
-4.27427e-07
-1.05764e-06
1.68537e-06
0.000154526
5.6152e-07
2.1134e-06
0.000509756
-9.01985e-05
-2.08801e-06
0.000143207
-0.000562809
1.2766e-06
-1.0765e-06
0.000152587
-1.08352e-06
1.68169e-06
-5.07598e-06
-2.72573e-05
-1.05955e-06
4.51886e-06
2.88739e-05
2.49948e-05
-0.00155998
-1.27868e-05
-1.27675e-05
1.45112e-05
1.20689e-05
1.22718e-05
0.00156179
-1.56786e-05
-1.49513e-05
0.00152728
-0.001526
-9.33499e-06
-9.55828e-06
6.51113e-06
4.3864e-06
0.00156344
-7.33183e-06
2.33845e-05
-1.25799e-05
0.00154268
1.33071e-05
-0.00155051
-1.806e-05
-5.11795e-06
9.79591e-06
0.00154104
6.65629e-06
-4.87786e-06
0.0015294
5.85857e-06
-0.00153219
1.35203e-05
4.75569e-06
0.00038717
-1.26416e-05
-0.000392293
1.86052e-05
-5.69274e-06
-3.73278e-06
-1.97271e-06
8.82105e-07
0.000403162
8.14496e-06
0.000388348
-8.44618e-06
-4.41949e-06
8.56473e-06
7.84685e-06
-0.000392049
1.65422e-05
-0.00150852
-1.70896e-05
-9.5815e-06
1.45601e-05
1.65888e-05
-1.8368e-05
0.00152035
1.60799e-05
0.00151812
-8.73594e-06
9.96311e-06
-0.00151817
-1.69448e-05
0.000390133
-4.39778e-05
-2.75773e-05
2.07983e-05
-0.000419119
7.97157e-05
1.25028e-05
-1.96327e-05
2.88043e-05
-8.17591e-06
-1.34986e-05
-3.36138e-06
-2.09141e-06
2.76129e-06
0.00014673
3.76706e-06
-1.98664e-05
7.47358e-06
4.48058e-05
3.80118e-06
2.5193e-06
3.95177e-06
2.5785e-06
2.75446e-06
0.000477849
-8.37223e-05
-5.29591e-06
0.000136961
-0.000528568
-4.79334e-06
-5.81801e-08
0.000114772
-3.63026e-06
9.36564e-06
5.17779e-05
-1.22537e-05
-1.22069e-06
7.67372e-06
-4.59776e-05
1.41634e-05
-0.00152692
-1.46875e-05
-1.03096e-05
8.42911e-06
2.41164e-06
0.00153227
-9.28942e-06
1.14418e-05
0.00152829
-4.38059e-06
5.80611e-06
-0.00152965
-1.19341e-05
-2.87795e-05
3.01511e-05
-1.07348e-06
2.1383e-06
-1.01022e-06
1.6643e-06
-3.31715e-07
0.00015479
0.00051179
-9.04219e-05
1.82772e-06
0.000143637
-0.000564737
0.000388191
-1.3014e-05
-0.000393659
3.7459e-06
1.94071e-05
-2.08408e-05
1.22565e-05
2.39686e-05
2.41466e-05
1.20371e-05
-3.56167e-05
-0.0003881
-0.000375259
-0.000375238
-1.51283e-05
-0.000369568
-0.000369572
0.00147353
0.000501057
-8.75076e-05
-0.000553041
-2.27288e-06
0.000139344
-2.38764e-05
2.94395e-05
-4.75657e-06
1.16962e-05
-1.56851e-06
2.23812e-06
-3.06487e-06
0.000148118
-1.18387e-06
0.000152061
1.75473e-06
1.53732e-06
0.000488377
-8.55173e-05
2.13299e-06
0.00013648
-0.000538741
-2.6422e-05
-8.8379e-07
2.81653e-05
-5.93559e-06
-3.26418e-05
1.12242e-05
2.3509e-05
2.2618e-05
1.19046e-05
-3.15106e-05
-0.000374848
-0.000387527
-0.000375642
-1.74463e-05
-0.000370209
-0.000369822
0.00147656
-0.00151
6.23665e-06
-2.84513e-05
0.00150854
-1.14528e-06
-3.54336e-05
8.67629e-06
1.07448e-05
1.8354e-05
4.54791e-06
-1.80669e-05
-0.000380069
-0.000387309
-0.00037709
-1.34179e-05
-0.000371895
-0.000375903
0.00148426
-1.78439e-06
-6.8667e-06
0.000393543
7.28552e-06
2.88015e-05
-1.43562e-05
0.00153156
7.37921e-06
-1.55842e-05
0.00153953
1.22855e-05
1.09746e-05
-1.86781e-05
0.00152616
2.23272e-07
6.38693e-06
7.43102e-06
-1.6937e-06
-6.63841e-06
-0.00038514
-0.000390913
-0.000388911
-0.000383491
1.35362e-05
7.23128e-06
1.45765e-05
0.00152431
9.62132e-06
4.99824e-06
-2.03304e-05
-0.00151522
-2.20495e-05
1.07237e-05
0.0015169
2.47806e-05
-1.55263e-05
9.5591e-06
-1.41068e-05
1.58521e-05
-0.00152236
0.00152008
-1.19883e-05
-4.61312e-06
4.98585e-06
2.30218e-07
-4.28369e-06
2.34787e-06
-0.000378004
-0.000375923
0.00150485
3.20248e-06
2.18893e-06
-1.65352e-05
-0.000233648
0.00136103
-2.02939e-05
0.00149106
-0.00148929
3.86155e-08
-1.82046e-05
-9.58924e-05
0.000115675
0.00152774
-1.69674e-05
0.00150348
-3.98486e-05
4.46092e-05
-0.00150768
0.0016851
-8.83326e-06
-1.55732e-05
0.00155794
-0.00160179
-7.64839e-05
-1.07945e-06
0.00159387
4.00839e-06
-7.83144e-06
0.00155749
-0.00157044
3.52973e-05
-0.0014913
2.06182e-07
-2.29142e-05
0.00011446
-2.11511e-05
0.00152759
0.00150531
-3.94658e-05
4.40361e-05
-0.00150916
-1.85739e-05
5.27572e-05
-0.000214191
0.00138251
-3.53945e-05
0.0015077
3.0193e-05
-0.00150688
3.93727e-06
-3.46419e-05
-7.67262e-05
2.99188e-05
9.28487e-05
0.00152882
-2.44553e-05
0.00151176
-3.16271e-05
2.2659e-05
3.54715e-05
-0.00151477
-0.00159795
-1.83001e-05
-7.64537e-05
0.00158827
-1.74777e-06
5.13169e-06
0.00155609
-0.0015677
-8.85234e-06
3.57541e-05
2.01466e-06
0.00164853
-1.09603e-05
-3.17411e-05
0.00155011
2.6535e-05
-0.00158233
-6.16035e-05
-1.14985e-06
1.21285e-06
0.00157341
6.17946e-06
-1.06628e-05
0.00154877
9.92831e-06
-0.00155777
3.10698e-05
-0.0015257
7.61598e-06
-3.87135e-05
7.42405e-05
-3.59249e-05
0.00153066
0.00151578
-2.7409e-05
3.00357e-05
-0.00151875
-2.50604e-05
5.26546e-05
-2.5489e-06
0.00155215
0.00152752
-2.84538e-05
3.75857e-05
-0.00153314
-3.91272e-06
-1.84142e-05
-2.61831e-05
3.56598e-05
1.72608e-05
0.00154623
0.00152917
-1.42363e-05
-2.03445e-05
2.41216e-05
1.33977e-05
-0.00153289
-0.00157566
-3.42273e-05
-5.27641e-05
0.00156795
6.11049e-06
-1.40152e-06
-2.17005e-05
0.00154706
-0.00155476
2.78665e-05
-1.10865e-05
6.15097e-06
0.00157939
1.77e-06
0.00155242
-2.29636e-05
3.18646e-05
-0.00156271
-1.67739e-05
-4.12945e-06
-1.29632e-06
1.85033e-06
2.65357e-06
0.00155407
-1.26918e-05
0.00154369
-8.86853e-06
1.04776e-05
1.39258e-05
-0.00154794
-0.00152819
-1.58541e-05
-3.67734e-05
1.80795e-05
0.00157663
-4.47241e-06
0.00154608
-2.04739e-05
2.50904e-05
-0.00155431
-2.29845e-05
1.09576e-07
0.00155908
1.279e-06
0.00155333
-1.30922e-05
1.74651e-05
-0.00155706
-8.4516e-07
1.09208e-06
-1.32642e-06
1.55585e-06
-1.99338e-06
0.00155565
0.0015492
-3.40216e-06
-8.26124e-06
1.19568e-05
2.35728e-06
-0.00155226
-1.09857e-05
2.43537e-05
2.86703e-05
2.42782e-05
-9.95512e-05
9.62234e-06
-5.17014e-06
-0.00165165
-2.19656e-05
-0.000274307
0.00151248
-1.95405e-05
-0.000512463
-0.000409107
-0.000409676
0.000145833
0.000146051
0.00015131
0.000151026
-0.000399473
4.95511e-07
8.55412e-07
6.844e-06
6.68741e-06
-4.07839e-07
0.000508441
-2.72249e-06
0.000162316
-8.91684e-06
0.00166528
-8.59757e-05
-1.03759e-05
9.07349e-05
6.80956e-05
6.83316e-05
-0.000486408
-0.000487012
-0.000472985
-0.000472408
0.00176453
2.50547e-05
0.00163885
-3.49844e-05
-0.000506301
-0.000403634
-0.000404809
0.000141788
0.000142348
0.00014746
0.000146747
-0.000387763
2.4012e-05
2.84e-05
2.37539e-05
-9.88287e-05
-1.28057e-05
-3.89262e-06
-0.00164568
-2.76223e-05
0.00151019
-0.000271445
-0.000404381
-5.38316e-05
-0.000234889
-0.000121742
-0.000235097
-0.000120354
0.00113168
-0.000508844
-0.000407598
-0.000406814
0.000144714
0.000144388
0.000149499
0.000149895
-0.000395864
-3.72051e-05
0.00150846
-0.000264714
-2.24841e-05
2.25063e-05
2.71159e-05
2.25302e-05
-9.65025e-05
1.84647e-05
1.10873e-06
1.20192e-05
-0.000158821
-1.50922e-05
8.89365e-05
6.66618e-05
6.70417e-05
-0.000479756
-0.00048084
-0.000467408
-0.000466376
0.00174492
6.87915e-06
9.00125e-07
6.70651e-06
0.000506538
8.8203e-07
-2.99963e-06
0.00016251
-1.04152e-05
-8.70208e-05
0.0016591
0.00172459
-1.26795e-06
2.01459e-05
3.03031e-06
2.8232e-06
2.02421e-05
-1.51796e-05
8.98032e-05
6.79489e-05
6.76972e-05
-0.000484217
-0.000483397
-0.000469608
-0.000470378
0.00175577
2.43678e-06
6.8021e-06
9.04617e-07
6.6334e-06
0.000501419
-1.80897e-06
-3.20378e-06
-1.28645e-05
-8.39555e-05
0.00165158
0.00163037
-5.26928e-05
-0.000498936
-0.000400756
-0.00039916
0.000138769
0.000138434
0.000142462
0.00014361
-0.000376266
-0.000391224
-0.00023668
-0.000124417
-0.000236004
-0.000126912
0.00114154
-5.05842e-05
1.75836e-05
2.37358e-05
1.82927e-05
-0.000101836
4.42854e-05
2.46423e-05
5.03359e-05
-0.00162015
-8.56183e-05
-0.00023675
0.00151056
-0.000255136
0.0015071
-0.000104743
-0.00049168
-0.000391899
-0.000394469
0.000138606
0.0001353
0.000138869
0.000138811
-0.000353514
2.18093e-05
2.65343e-05
2.15318e-05
-9.46e-05
-2.82946e-05
4.10966e-06
-0.000155548
-2.05898e-05
6.61449e-05
8.69161e-05
6.59455e-05
-0.000475872
-0.000474451
-0.000461621
-0.000463019
0.00172912
0.00171239
2.04702e-05
3.19133e-06
3.61404e-06
2.02428e-05
-1.60976e-05
5.88217e-06
1.32348e-06
7.23481e-06
6.97348e-06
-4.86257e-06
0.000487402
-5.11539e-06
1.71181e-05
0.000149711
-2.37736e-05
0.00162858
-7.68196e-05
6.88527e-06
1.04107e-06
6.72457e-06
0.000497792
3.15719e-06
-3.41331e-06
0.0016421
-8.16041e-05
-3.42043e-05
8.62074e-05
6.63714e-05
6.59546e-05
-0.000466434
-0.000468426
-0.00045648
-0.000454144
0.00170438
0.000199911
0.00153449
-0.000146588
-0.000433189
-0.000372657
-0.000366179
2.11075e-05
5.40545e-05
6.51041e-05
2.52925e-05
-0.000191495
1.17259e-05
1.89167e-05
6.26459e-06
-0.000125191
-3.44998e-05
5.25631e-05
-0.00159386
-0.000138954
0.0015056
-0.000189833
-0.0001661
-0.000128524
-0.000291243
-0.000285357
-0.000372477
-0.000177206
0.00129179
-0.000471754
-0.000387741
-0.000389774
0.000143878
0.000139014
0.000119386
0.000136553
-0.000310662
-0.000128266
0.00149057
-0.000133202
-6.13364e-05
-0.000101507
-3.54527e-05
-7.41262e-05
2.36625e-05
3.42685e-05
0.000266264
6.45733e-05
-0.000105783
-8.45531e-05
6.00749e-05
4.91038e-05
5.93389e-05
-0.000426788
-0.000436283
-0.000430094
-0.000426333
0.00163236
7.7407e-06
2.11829e-06
7.78511e-06
0.000478563
5.47162e-06
-5.89045e-06
0.000135901
-3.43097e-05
-6.70271e-05
0.00161285
0.00163547
-1.59749e-05
1.96364e-05
7.28899e-06
6.57732e-06
1.67704e-05
-1.58661e-05
7.89531e-05
6.79111e-05
6.79517e-05
-0.000457178
-0.000453958
-0.000443186
-0.000446468
0.00166813
-1.64459e-06
7.40381e-06
2.52242e-06
5.23515e-06
0.000437229
-2.81885e-06
-1.08147e-05
-4.24078e-05
-5.17549e-05
0.00158895
0.000396059
-1.89172e-05
-0.000406378
2.87209e-05
-2.70898e-05
3.56695e-06
2.01023e-05
7.83968e-06
-3.74687e-05
0.000467841
-3.29124e-05
1.81975e-05
0.00159347
2.01983e-05
1.60858e-06
2.80581e-05
9.86282e-06
-8.98497e-05
0.00167438
3.53104e-05
6.20918e-06
2.62365e-06
-4.75715e-06
1.35727e-05
-3.50929e-05
-3.08543e-06
0.00043415
1.31833e-05
4.64811e-07
2.01804e-06
-3.91564e-06
-2.58246e-06
0.00164816
2.97471e-05
1.21141e-05
2.71391e-05
1.99887e-05
2.19774e-05
-6.67333e-05
0.00043409
-2.19865e-05
-0.000461024
-3.21608e-05
2.61127e-05
1.8399e-05
2.43118e-05
-3.51869e-07
3.87237e-06
3.98801e-07
-3.9193e-06
2.72296e-06
-3.06236e-05
5.33922e-05
2.01861e-05
-4.26966e-05
-2.98184e-06
-3.38514e-06
-2.81471e-05
2.99875e-06
-1.08414e-06
2.96175e-05
2.59122e-07
3.64169e-06
-3.13953e-07
-3.58686e-06
-3.69339e-06
-3.04794e-05
5.33059e-05
-4.25047e-05
3.24122e-06
2.01296e-05
-3.28005e-07
1.07373e-06
3.44099e-07
-1.08983e-06
7.81434e-08
0.000143315
-1.41872e-05
-0.000145854
1.66676e-05
-2.04216e-08
7.59408e-07
-1.05214e-06
-6.11133e-07
1.67354e-06
0.000153861
2.41569e-07
1.214e-06
-2.84496e-07
-1.17108e-06
7.77878e-08
0.000142793
-1.40799e-05
1.65346e-05
-5.80266e-08
-0.000145269
1.20389e-06
-1.14739e-06
-3.84513e-07
2.96833e-07
0.000141598
-1.38976e-05
-0.000144034
-2.77083e-07
1.63128e-05
-1.08639e-06
9.38056e-07
1.69323e-06
0.000153507
0.000142328
-1.40526e-05
1.65032e-05
1.54768e-07
-0.000144857
-4.53282e-07
1.02192e-06
4.77439e-07
-1.04608e-06
3.61488e-06
-3.54092e-06
-4.25837e-07
-5.21978e-06
-2.9964e-05
5.28482e-05
1.96997e-05
4.60576e-06
-4.19705e-05
-2.75579e-05
-3.95186e-06
-9.60383e-07
2.90849e-05
-3.02011e-05
5.30544e-05
-4.23119e-05
-4.05236e-06
1.98168e-05
-4.83179e-07
3.91644e-06
5.40893e-07
-3.97416e-06