/*--------------------------------*- C++ -*----------------------------------*\
| =========                 |                                                 |
| \\      /  F ield         | OpenFOAM: The Open Source CFD Toolbox           |
|  \\    /   O peration     | Version:  2012                                  |
|   \\  /    A nd           | Website:  www.openfoam.com                      |
|    \\/     M anipulation  |                                                 |
\*---------------------------------------------------------------------------*/
FoamFile
{
    version     2.0;
    format      ascii;
    class       pointVectorField;
    location    "0.107/fluid";
    object      pointMotionU;
}
// * * * * * * * * * * * * * * * * * * * * * * * * * * * * * * * * * * * * * //

dimensions      [0 1 -1 0 0 0 0];


internalField   nonuniform List<vector> 
20459
(
(0 0 0)
(0 0 0)
(0 0 0)
(0 0 0)
(0 0 0)
(0 0 0)
(0 0 0)
(0 0 0)
(0 0 0)
(0 0 0)
(0 0 0)
(0 0 0)
(0 0 0)
(0 0 0)
(0 0 0)
(1.05301e-06 -1.06114e-06 3.66478e-07)
(-1.56203e-06 -3.23496e-06 -1.80791e-06)
(-9.22876e-06 -9.68594e-06 -3.17331e-06)
(-2.49455e-05 -2.12186e-05 7.68606e-07)
(-4.38096e-05 -3.7555e-05 6.64728e-06)
(-6.24141e-05 -5.51289e-05 1.12787e-05)
(-7.79441e-05 -6.86814e-05 1.40459e-05)
(-8.96057e-05 -7.45385e-05 1.49041e-05)
(-9.78738e-05 -7.36165e-05 1.45822e-05)
(-0.000102247 -6.76439e-05 1.351e-05)
(-0.000101117 -5.80378e-05 1.18565e-05)
(-9.39259e-05 -4.65185e-05 9.87995e-06)
(-8.08747e-05 -3.47662e-05 7.69897e-06)
(-6.17081e-05 -2.33146e-05 5.35354e-06)
(-3.46267e-05 -1.1699e-05 2.72965e-06)
(0 0 0)
(-5.54863e-06 -9.73344e-06 2.41236e-06)
(-1.68826e-05 -1.49476e-05 -3.31569e-06)
(-3.95398e-05 -3.24396e-05 -2.87772e-06)
(-7.52639e-05 -6.13346e-05 7.76502e-06)
(-0.000110635 -9.54397e-05 1.81631e-05)
(-0.000141214 -0.000125366 2.50608e-05)
(-0.000167034 -0.000144754 2.86908e-05)
(-0.000187942 -0.000151162 2.98145e-05)
(-0.000203232 -0.000146097 2.91777e-05)
(-0.000211134 -0.000132644 2.70943e-05)
(-0.000208504 -0.000113323 2.38793e-05)
(-0.000192715 -9.0305e-05 1.98323e-05)
(-0.000164574 -6.63957e-05 1.53468e-05)
(-0.000123961 -4.32029e-05 1.05417e-05)
(-6.88414e-05 -2.10879e-05 5.37527e-06)
(0 0 0)
(-3.20252e-05 -8.05858e-06 2.14377e-06)
(-3.20896e-05 -2.65234e-05 2.27375e-06)
(-6.30846e-05 -5.64866e-05 -1.74877e-06)
(-0.000123409 -0.000104081 1.30908e-05)
(-0.000176633 -0.00015325 2.76195e-05)
(-0.000218656 -0.000189947 3.65112e-05)
(-0.000254472 -0.00020914 4.09728e-05)
(-0.000285181 -0.000212527 4.26547e-05)
(-0.000307966 -0.000201866 4.20579e-05)
(-0.000319187 -0.000180741 3.93214e-05)
(-0.000314179 -0.000152823 3.47693e-05)
(-0.000289507 -0.000120608 2.88895e-05)
(-0.00024562 -8.68671e-05 2.22631e-05)
(-0.000183184 -5.47346e-05 1.52007e-05)
(-9.99067e-05 -2.54882e-05 7.602e-06)
(0 0 0)
(0 0 0)
(0 0 0)
(0 0 0)
(0 0 0)
(0 0 0)
(0 0 0)
(0 0 0)
(0 0 0)
(0 0 0)
(0 0 0)
(0 0 0)
(0 0 0)
(0 0 0)
(0 0 0)
(0 0 0)
(-6.39056e-07 -2.6325e-06 3.74603e-07)
(-6.06871e-06 -6.86897e-06 -1.21598e-06)
(-2.09913e-05 -1.72126e-05 -2.01859e-06)
(-4.32542e-05 -3.1808e-05 1.34123e-06)
(-6.65818e-05 -4.97001e-05 6.75513e-06)
(-8.60399e-05 -6.78733e-05 1.12923e-05)
(-0.000100411 -8.09286e-05 1.41985e-05)
(-0.000109297 -8.525e-05 1.53496e-05)
(-0.00011398 -8.22842e-05 1.51548e-05)
(-0.000114565 -7.42952e-05 1.39826e-05)
(-0.000110215 -6.30217e-05 1.21885e-05)
(-0.000100349 -5.02509e-05 1.00628e-05)
(-8.5277e-05 -3.76625e-05 7.82638e-06)
(-6.47552e-05 -2.56454e-05 5.46412e-06)
(-3.60133e-05 -1.28567e-05 2.74224e-06)
(0 0 0)
(-6.25718e-06 -2.02251e-05 2.63664e-06)
(-2.72364e-05 -2.88207e-05 -3.35203e-06)
(-6.66038e-05 -5.00479e-05 -1.98868e-06)
(-0.000114571 -8.29008e-05 7.51472e-06)
(-0.000156168 -0.000117978 1.69701e-05)
(-0.000187941 -0.000147733 2.43634e-05)
(-0.000210479 -0.000165288 2.87172e-05)
(-0.000225566 -0.000168625 3.04433e-05)
(-0.000234154 -0.000160315 3.00433e-05)
(-0.000235114 -0.000143972 2.78463e-05)
(-0.000226188 -0.00012224 2.43781e-05)
(-0.000205917 -9.75237e-05 2.02085e-05)
(-0.000174151 -7.21629e-05 1.56749e-05)
(-0.000130357 -4.75215e-05 1.0774e-05)
(-7.20509e-05 -2.33606e-05 5.47776e-06)
(0 0 0)
(-2.00159e-05 -2.51889e-05 1.644e-06)
(-3.87647e-05 -4.01481e-05 -2.83991e-06)
(-0.000102618 -7.83092e-05 -1.64708e-06)
(-0.000182482 -0.000133996 1.2772e-05)
(-0.000242972 -0.000183372 2.61627e-05)
(-0.000284095 -0.000215761 3.52922e-05)
(-0.000314587 -0.000230604 4.06693e-05)
(-0.000335734 -0.000229181 4.30716e-05)
(-0.000348556 -0.000214792 4.27852e-05)
(-0.00035068 -0.000192065 4.0011e-05)
(-0.00033801 -0.000163371 3.52658e-05)
(-0.000306503 -0.000129224 2.91807e-05)
(-0.000257197 -9.3731e-05 2.24906e-05)
(-0.000190367 -5.96925e-05 1.53077e-05)
(-0.000103472 -2.81186e-05 7.6816e-06)
(0 0 0)
(0 0 0)
(0 0 0)
(0 0 0)
(0 0 0)
(0 0 0)
(0 0 0)
(0 0 0)
(0 0 0)
(0 0 0)
(0 0 0)
(0 0 0)
(0 0 0)
(0 0 0)
(0 0 0)
(0 0 0)
(0 0 0)
(-9.64974e-06 -9.30286e-06 5.77123e-07)
(-1.71466e-05 -1.53946e-05 -3.3748e-07)
(-3.49074e-05 -2.9183e-05 -5.27176e-07)
(-5.85124e-05 -4.63318e-05 1.87372e-06)
(-8.23632e-05 -6.42493e-05 5.71423e-06)
(-0.000102376 -8.08773e-05 9.26238e-06)
(-0.000116293 -9.1914e-05 1.16689e-05)
(-0.000123734 -9.45159e-05 1.27076e-05)
(-0.000126218 -8.99434e-05 1.25782e-05)
(-0.000124453 -8.0388e-05 1.15801e-05)
(-0.00011742 -6.72695e-05 1.00036e-05)
(-0.000105157 -5.28908e-05 8.21376e-06)
(-8.84361e-05 -3.94603e-05 6.37363e-06)
(-6.64778e-05 -2.67522e-05 4.40324e-06)
(-3.66382e-05 -1.311e-05 2.18265e-06)
(0 0 0)
(-3.4241e-05 -3.53399e-05 2.78475e-06)
(-5.49406e-05 -4.96764e-05 -7.15639e-07)
(-9.51783e-05 -7.65573e-05 4.09337e-07)
(-0.000142891 -0.000110649 6.50397e-06)
(-0.000185935 -0.000143207 1.36589e-05)
(-0.000219504 -0.00016928 1.96926e-05)
(-0.000242278 -0.000183769 2.36213e-05)
(-0.000254434 -0.000183692 2.5281e-05)
(-0.000258411 -0.000172261 2.49551e-05)
(-0.000254329 -0.00015332 2.29807e-05)
(-0.000239881 -0.000128657 1.99072e-05)
(-0.000214873 -0.000101451 1.64071e-05)
(-0.00017986 -7.50926e-05 1.26985e-05)
(-0.000134143 -5.00028e-05 8.74379e-06)
(-7.32708e-05 -2.39515e-05 4.33959e-06)
(0 0 0)
(-5.26498e-05 -5.56799e-05 4.07163e-06)
(-8.86964e-05 -8.12108e-05 -1.6796e-06)
(-0.000155621 -0.000123003 1.14295e-06)
(-0.000230128 -0.000173556 1.10747e-05)
(-0.000289605 -0.000215593 2.11221e-05)
(-0.000332457 -0.000242084 2.87904e-05)
(-0.000361211 -0.000251661 3.36637e-05)
(-0.000377345 -0.000244455 3.58475e-05)
(-0.000383163 -0.000226012 3.54395e-05)
(-0.00037817 -0.000201381 3.28566e-05)
(-0.000358068 -0.000170244 2.87472e-05)
(-0.000319777 -0.000133346 2.35998e-05)
(-0.000265558 -9.72663e-05 1.81112e-05)
(-0.000195906 -6.34335e-05 1.24158e-05)
(-0.000105923 -2.95943e-05 6.1606e-06)
(0 0 0)
(0 0 0)
(0 0 0)
(0 0 0)
(0 0 0)
(0 0 0)
(0 0 0)
(0 0 0)
(0 0 0)
(0 0 0)
(0 0 0)
(0 0 0)
(0 0 0)
(0 0 0)
(0 0 0)
(0 0 0)
(0 0 0)
(-3.06328e-05 -2.53666e-05 6.99281e-07)
(-3.71507e-05 -3.16146e-05 3.21609e-07)
(-5.14396e-05 -4.44355e-05 3.55784e-07)
(-7.12515e-05 -6.09049e-05 1.57863e-06)
(-9.27029e-05 -7.77077e-05 3.51247e-06)
(-0.000111951 -9.1689e-05 5.48114e-06)
(-0.000124864 -9.94663e-05 6.79721e-06)
(-0.000131476 -0.000100125 7.32811e-06)
(-0.00013307 -9.45568e-05 7.20178e-06)
(-0.000130143 -8.40772e-05 6.57678e-06)
(-0.000121608 -6.9626e-05 5.62229e-06)
(-0.000107778 -5.40494e-05 4.54878e-06)
(-8.9783e-05 -4.0072e-05 3.49338e-06)
(-6.7199e-05 -2.70882e-05 2.4174e-06)
(-3.66749e-05 -1.28239e-05 1.17488e-06)
(0 0 0)
(-7.84995e-05 -6.2885e-05 2.10616e-06)
(-9.45162e-05 -7.86227e-05 1.1977e-06)
(-0.000124107 -0.000104241 1.68059e-06)
(-0.000163469 -0.000135185 4.42083e-06)
(-0.000202735 -0.000163877 8.0859e-06)
(-0.000235469 -0.000185166 1.14398e-05)
(-0.000258043 -0.000195078 1.36937e-05)
(-0.000269411 -0.000191915 1.4615e-05)
(-0.000271933 -0.000178862 1.43279e-05)
(-0.00026535 -0.000158283 1.3012e-05)
(-0.000247507 -0.000131291 1.10726e-05)
(-0.000219247 -0.000102378 9.03522e-06)
(-0.00018222 -7.59809e-05 6.97356e-06)
(-0.000135164 -5.07655e-05 4.74229e-06)
(-7.31258e-05 -2.35869e-05 2.28708e-06)
(0 0 0)
(-0.000130932 -0.000103003 3.3931e-06)
(-0.000160366 -0.000131388 1.7097e-06)
(-0.000208356 -0.000168684 3.01276e-06)
(-0.000264288 -0.000208288 7.38195e-06)
(-0.000316759 -0.000241158 1.25324e-05)
(-0.000359101 -0.00026145 1.68473e-05)
(-0.000387386 -0.00026544 1.96474e-05)
(-0.000401077 -0.000253215 2.07914e-05)
(-0.000403605 -0.000231707 2.03083e-05)
(-0.000394855 -0.000205336 1.8491e-05)
(-0.000369328 -0.000171166 1.58599e-05)
(-0.000326682 -0.000132945 1.29805e-05)
(-0.000269882 -9.81172e-05 9.98289e-06)
(-0.000198426 -6.50737e-05 6.7499e-06)
(-0.000106574 -3.00644e-05 3.26869e-06)
(0 0 0)
(0 0 0)
(0 0 0)
(0 0 0)
(0 0 0)
(0 0 0)
(0 0 0)
(0 0 0)
(0 0 0)
(0 0 0)
(0 0 0)
(0 0 0)
(0 0 0)
(0 0 0)
(0 0 0)
(0 0 0)
(0 0 0)
(-4.31601e-05 -3.49351e-05 0)
(-4.86705e-05 -4.10188e-05 0)
(-5.99162e-05 -5.21542e-05 0)
(-7.65947e-05 -6.70197e-05 0)
(-9.64871e-05 -8.28672e-05 0)
(-0.000114694 -9.52891e-05 0)
(-0.000126944 -0.000101368 0)
(-0.000133318 -0.000101085 0)
(-0.000134805 -9.52034e-05 0)
(-0.000131575 -8.45333e-05 0)
(-0.000122617 -6.98782e-05 0)
(-0.000108316 -5.41326e-05 0)
(-9.02262e-05 -4.03102e-05 0)
(-6.74047e-05 -2.72106e-05 0)
(-3.67142e-05 -1.27903e-05 0)
(0 0 0)
(-0.000100139 -7.78272e-05 0)
(-0.000113492 -9.33767e-05 0)
(-0.000137555 -0.000116547 0)
(-0.000171479 -0.000144444 0)
(-0.000207788 -0.000171012 0)
(-0.000239251 -0.000189605 0)
(-0.000261349 -0.000197109 0)
(-0.00027268 -0.000192698 0)
(-0.000275177 -0.000179345 0)
(-0.000268147 -0.000158525 0)
(-0.000249317 -0.000131058 0)
(-0.000219862 -0.000101948 0)
(-0.000182505 -7.59967e-05 0)
(-0.000135226 -5.08593e-05 0)
(-7.2864e-05 -2.35132e-05 0)
(0 0 0)
(-0.000164578 -0.000124862 0)
(-0.000190232 -0.00015321 0)
(-0.000228544 -0.000186342 0)
(-0.000275834 -0.000220195 0)
(-0.0003244 -0.000248796 0)
(-0.000365872 -0.000266137 0)
(-0.000393724 -0.000267571 0)
(-0.00040698 -0.000253752 0)
(-0.000409129 -0.000231693 0)
(-0.000399035 -0.000204439 0)
(-0.000371377 -0.000169303 0)
(-0.000327156 -0.000131342 0)
(-0.000270113 -9.75738e-05 0)
(-0.000198848 -6.53006e-05 0)
(-0.000106983 -3.03454e-05 0)
(0 0 0)
(-1.2527e-07 -3.02162e-07 -9.18313e-08)
(-1.24544e-06 -1.18007e-06 -3.85222e-08)
(0 0 0)
(4.63775e-08 -1.87208e-08 8.73784e-09)
(-2.62813e-07 -8.95127e-07 -6.56432e-07)
(0 0 0)
(-9.00585e-08 -1.67658e-06 -4.80237e-07)
(5.52984e-07 -1.70225e-06 3.65614e-07)
(-3.42794e-06 -4.78048e-06 -1.53823e-06)
(-3.1124e-05 -1.97733e-05 5.74232e-06)
(-2.92275e-05 -1.47304e-05 1.09505e-06)
(-3.58762e-05 -3.12972e-05 3.8439e-06)
(-3.36638e-05 -3.08099e-05 -1.69329e-07)
(0 0 0)
(-7.3958e-09 -6.09842e-08 1.16781e-08)
(0 0 0)
(-1.93737e-06 -2.02478e-06 -4.39668e-07)
(0 0 0)
(-2.37623e-06 -3.89344e-06 -2.62449e-07)
(-3.4763e-06 -4.60783e-06 4.258e-07)
(-1.02506e-05 -1.00356e-05 -7.45964e-07)
(-2.64281e-05 -3.18142e-05 1.60799e-07)
(-2.53292e-05 -2.18762e-05 1.08843e-06)
(-3.87899e-05 -4.28806e-05 -3.20115e-06)
(0 0 0)
(-3.25654e-06 -2.94636e-06 1.59272e-07)
(-6.7793e-06 -5.95755e-06 -1.59915e-07)
(-1.1998e-05 -1.11767e-05 1.3636e-07)
(1.47651e-08 -1.8878e-07 -1.08607e-07)
(3.20434e-08 -3.28323e-08 9.85689e-09)
(-9.54641e-07 -1.34781e-06 -5.57971e-07)
(-8.468e-07 -2.6025e-06 -3.85818e-07)
(-4.08874e-07 -4.99178e-07 -6.44736e-08)
(-2.82981e-05 -2.52186e-05 2.86963e-06)
(-3.48204e-05 -3.38158e-05 6.08997e-07)
(-2.81037e-05 -3.26195e-05 3.7353e-07)
(-3.84339e-07 -3.93941e-07 3.48458e-08)
(-3.53954e-06 -3.28742e-06 -2.87827e-07)
(-5.5552e-06 -6.23809e-06 -7.85385e-08)
(-4.26072e-06 -3.78067e-06 2.41261e-08)
(0 0 0)
(0 0 0)
(1.13243e-09 3.96084e-09 -1.19575e-10)
(-2.20041e-05 -2.20559e-05 6.2998e-07)
(-3.45507e-05 -1.89119e-05 4.97253e-06)
(-5.34614e-05 -4.85481e-05 -4.2158e-06)
(5.89136e-10 3.15895e-09 2.80194e-09)
(-3.96003e-05 -4.89807e-05 -1.16403e-06)
(1.03899e-09 4.65392e-09 -1.85278e-10)
(-3.00324e-05 -2.40276e-05 4.92989e-06)
(-3.26442e-05 -2.81531e-05 6.79991e-06)
(7.26877e-10 3.95429e-09 3.93002e-10)
(-3.53734e-05 -2.80618e-05 5.19943e-06)
(-2.97254e-05 -2.44377e-05 1.90077e-06)
(-2.79941e-05 -3.21135e-05 5.25016e-08)
(-1.18529e-05 -1.08943e-05 -3.77778e-07)
(-1.94757e-05 -1.26085e-05 2.34722e-06)
(-4.4634e-06 -1.51252e-05 2.43504e-06)
(-2.69002e-05 -2.07593e-05 -7.73473e-07)
(-2.09102e-05 -2.11769e-05 -3.43747e-06)
(-2.97156e-05 -1.07162e-05 2.07764e-06)
(-3.13677e-05 -1.48173e-05 4.56615e-06)
(-3.13493e-05 -7.49433e-06 2.68014e-06)
(-3.18998e-05 -8.78256e-06 1.81887e-06)
(-4.09091e-05 -3.82395e-05 -2.33207e-06)
(-2.98501e-05 -2.61193e-05 2.91506e-06)
(-3.16543e-05 -2.36001e-05 4.67868e-06)
(-3.43876e-05 -2.94596e-05 3.44569e-06)
(-3.33199e-05 -2.81004e-05 1.24097e-06)
(-6.92101e-05 -6.59185e-05 -2.85785e-06)
(-8.11075e-05 -6.40693e-05 -1.84673e-06)
(-1.50949e-05 -2.32775e-05 -6.2653e-07)
(-1.31576e-05 -2.64688e-05 2.74867e-06)
(-3.70386e-05 -3.68663e-05 -3.12257e-06)
(-2.51992e-05 -3.72823e-05 3.1506e-06)
(-2.38445e-05 -2.05353e-05 1.05348e-06)
(-2.30677e-05 -2.85167e-05 1.02856e-06)
(-2.34446e-05 -2.30934e-05 1.08628e-06)
(-6.49889e-05 -5.54848e-05 -4.19695e-06)
(-5.76168e-05 -5.78455e-05 -3.12471e-06)
(-3.47988e-05 -3.45232e-05 -1.69005e-06)
(-3.09733e-05 -3.54245e-05 -1.27553e-06)
(-3.82811e-05 -4.14312e-05 -2.94951e-06)
(-0.000112087 -8.82949e-05 -2.61607e-06)
(-6.66547e-05 -6.66603e-05 5.26625e-07)
(-5.69178e-05 -6.081e-05 3.395e-06)
(-9.7808e-05 -9.03314e-05 -2.47187e-06)
(5.22357e-08 -1.45673e-07 -1.15609e-07)
(-4.40447e-08 -2.40134e-07 -1.00369e-07)
(-6.27415e-10 -8.75875e-08 -1.00841e-08)
(-2.45313e-07 -3.82493e-07 -7.88402e-08)
(-2.2122e-08 -4.25632e-08 -2.13617e-08)
(-3.18669e-05 -2.86998e-05 4.2874e-06)
(-3.32679e-05 -3.17044e-05 3.40379e-06)
(-2.96018e-05 -3.05894e-05 2.3407e-06)
(-6.74241e-07 -7.03015e-07 -5.00402e-08)
(-6.10766e-07 -5.93737e-07 1.01273e-08)
(-3.2804e-07 -2.86982e-07 -1.30824e-08)
(7.90952e-09 -2.4894e-08 -2.53662e-08)
(0 0 0)
(0 0 0)
(4.43799e-08 -1.46236e-08 9.21848e-09)
(4.04771e-08 -5.23483e-08 -1.50317e-08)
(4.16835e-08 -2.51392e-08 9.14937e-09)
(-2.95159e-05 -2.08869e-05 5.96507e-06)
(-3.23061e-05 -2.83215e-05 6.86081e-06)
(-3.08115e-05 -2.18094e-05 4.6867e-06)
(-2.88232e-05 -2.08558e-05 2.57104e-06)
(-3.56329e-05 -1.13842e-05 1.13881e-06)
(-3.32676e-05 -3.18958e-05 4.51756e-06)
(-4.02113e-05 -2.89813e-05 7.95996e-06)
(-3.6735e-05 -3.1825e-05 2.71001e-06)
(-3.01773e-05 -2.77856e-05 1.76567e-06)
(-3.40331e-05 -3.25143e-05 4.28547e-07)
(-7.57389e-08 -7.57558e-08 -1.57534e-08)
(0 0 0)
(0 0 0)
(1.30012e-08 -4.36802e-08 1.04737e-08)
(-9.47048e-08 -1.53774e-07 -3.44303e-09)
(-5.92465e-08 -1.05945e-07 1.52939e-08)
(-2.8855e-08 -2.33262e-08 5.32715e-09)
(0 0 0)
(-2.6799e-05 -2.7985e-05 1.27699e-06)
(-2.71745e-05 -3.21359e-05 2.94994e-07)
(-3.30413e-05 -1.51332e-05 8.30749e-07)
(-2.69304e-05 -2.75039e-05 1.24077e-06)
(-3.42313e-05 -3.71881e-05 -1.70023e-06)
(-3.08077e-05 -3.72294e-05 -1.41763e-06)
(-2.37272e-05 -1.53541e-05 1.93557e-06)
(-2.96454e-05 -1.68114e-05 4.53555e-06)
(-2.98117e-05 -2.35066e-05 5.18819e-06)
(-4.36952e-05 -4.44879e-05 -2.70604e-06)
(-3.20001e-05 -2.96916e-05 4.11674e-06)
(9.25905e-10 4.40685e-09 -1.5238e-10)
(-5.38787e-09 -3.28832e-08 -2.32413e-08)
(2.47574e-08 -6.82407e-08 -1.27178e-08)
(9.56923e-10 3.87559e-09 1.19744e-10)
(-1.2153e-05 -1.69043e-05 -5.85896e-07)
(-1.61922e-05 -1.89887e-05 2.27606e-06)
(-3.05914e-05 -2.73229e-05 -2.00658e-06)
(-3.12753e-05 -1.64994e-05 3.86552e-06)
(-2.32171e-05 -3.03181e-05 -2.61054e-07)
(-3.17858e-05 -2.52042e-05 3.54336e-06)
(-2.53738e-05 -2.44249e-05 1.59216e-06)
(-2.90993e-05 -3.08329e-05 -2.55181e-08)
(-5.08051e-05 -4.34739e-05 -3.21014e-06)
(-3.24428e-05 -2.08137e-05 5.07062e-06)
(-3.31817e-05 -4.61335e-06 2.40192e-06)
(-3.37837e-05 -2.72728e-05 6.2426e-06)
(-3.5201e-05 -2.22258e-05 3.50274e-06)
(-8.83979e-05 -7.30523e-05 -2.85801e-06)
(-6.8874e-05 -6.12091e-05 -4.97926e-06)
(-3.51815e-05 -3.03589e-05 2.27664e-06)
(-3.4075e-05 -3.5858e-05 -1.55689e-06)
(6.88167e-10 3.90709e-09 1.07273e-09)
(-1.30784e-07 -1.17294e-07 -1.13637e-08)
(-2.02615e-07 -2.40135e-07 1.34914e-09)
(-6.42355e-08 -5.39537e-08 4.45223e-09)
(-3.80436e-05 -4.58281e-05 -3.96266e-07)
(-2.7397e-05 -3.82081e-05 2.37263e-06)
(-6.1392e-05 -6.29209e-05 -3.85744e-06)
(-7.29004e-05 -7.35217e-05 -2.14378e-07)
(-2.53908e-05 -2.78191e-05 1.02523e-06)
(-3.04965e-05 -3.62578e-05 -1.26218e-06)
(1.83707e-08 -1.909e-08 -2.81276e-08)
(4.74799e-08 -4.07527e-08 -1.69713e-08)
(-2.85855e-05 -1.2568e-05 2.33504e-06)
(-2.97268e-05 -3.09299e-05 6.8932e-06)
(-3.67417e-05 -3.03753e-05 8.32036e-06)
(-3.52138e-05 -2.74892e-05 6.37604e-06)
(-4.50259e-08 -5.57556e-08 -1.85414e-08)
(-4.01377e-08 -1.13541e-07 -7.15966e-09)
(-3.01006e-05 -1.78485e-05 4.56843e-07)
(-4.17958e-05 -2.90345e-05 7.08681e-06)
(-3.09977e-05 -3.01206e-05 2.60945e-06)
(-2.79645e-05 -2.93573e-05 1.74349e-06)
(-3.44154e-05 -2.34276e-05 2.93222e-06)
(-2.81969e-05 -3.31986e-05 1.76798e-07)
(-2.77315e-06 -3.07507e-06 -1.21193e-06)
(-3.77186e-06 -8.24939e-06 -7.16592e-07)
(-7.14394e-06 -6.27736e-06 -6.2192e-07)
(-1.36225e-05 -1.63867e-05 -6.02445e-08)
(-9.44029e-06 -8.0175e-06 1.34386e-07)
(3.64981e-08 -1.08416e-07 -1.26151e-07)
(2.55516e-07 -3.10787e-07 -4.3969e-08)
(-6.17154e-08 -1.73567e-07 -1.13748e-07)
(1.54681e-07 -5.15342e-07 -2.7937e-08)
(-2.27179e-07 -2.73611e-07 -9.3226e-08)
(-2.0517e-07 -8.19332e-07 -4.62842e-09)
(-5.1965e-07 -4.82607e-07 -6.70715e-08)
(-1.05163e-06 -1.43944e-06 3.03064e-08)
(-6.148e-07 -5.38968e-07 1.09717e-08)
(1.76582e-09 1.36509e-09 -3.9918e-10)
(7.33638e-10 5.06914e-09 -1.21293e-10)
(5.81408e-10 3.95202e-09 9.18385e-12)
(1.54897e-09 1.17975e-09 -2.79442e-10)
(-2.98504e-05 -2.78609e-05 4.73262e-06)
(-3.72121e-05 -1.67815e-05 3.25055e-06)
(-2.74684e-05 -3.13657e-05 4.97305e-06)
(-4.02099e-05 -1.47002e-05 2.9135e-06)
(2.68648e-10 6.79034e-10 5.44232e-10)
(-4.08952e-09 4.73984e-10 2.57893e-09)
(-1.95089e-08 -1.35551e-08 6.00805e-09)
(-2.47069e-09 -2.24333e-09 2.1935e-09)
(1.99636e-09 1.52656e-09 -4.24316e-10)
(1.07653e-09 5.74998e-09 -2.984e-10)
(-3.40641e-05 -2.00064e-05 3.17011e-06)
(-2.52987e-05 -3.56873e-05 4.89761e-06)
(-3.73384e-05 -3.0503e-05 8.48846e-06)
(7.33177e-10 9.59116e-10 4.32926e-11)
(-2.20311e-09 2.56916e-09 1.05306e-09)
(-9.20091e-10 3.70573e-09 3.95678e-10)
(1.13778e-09 1.08604e-09 -1.50341e-10)
(-3.8674e-05 -2.9854e-05 6.4098e-06)
(-4.06746e-05 -2.933e-05 8.19185e-06)
(-3.59751e-05 -2.78411e-05 3.83874e-06)
(-3.79123e-05 -1.91834e-05 1.78797e-06)
(-2.74371e-05 -3.1726e-05 1.89946e-06)
(0 0 0)
(0 0 0)
(0 0 0)
(-6.88875e-08 -3.49482e-07 -2.90587e-07)
(0 0 0)
(-3.05331e-06 -3.93727e-06 -1.70149e-06)
(0 0 0)
(1.19432e-06 -4.25113e-06 1.35454e-06)
(1.02436e-06 -8.2076e-07 3.59525e-07)
(4.11099e-07 -3.00844e-07 1.12251e-07)
(5.02204e-07 -1.25586e-06 -3.38741e-08)
(9.02798e-07 -1.35056e-06 3.68352e-07)
(-4.50919e-06 -5.89086e-06 -2.97326e-06)
(-6.61692e-06 -8.04509e-06 -3.01037e-06)
(-1.51628e-05 -1.30095e-05 -2.62166e-06)
(0 0 0)
(0 0 0)
(0 0 0)
(-8.07846e-07 -8.15022e-07 -1.96611e-07)
(0 0 0)
(-8.72622e-06 -7.33845e-06 -1.08374e-06)
(0 0 0)
(-2.5526e-06 -9.49578e-06 1.34437e-06)
(6.25587e-08 -2.11438e-06 3.66832e-07)
(-1.96755e-07 -8.0758e-07 1.19898e-07)
(-1.29268e-06 -3.03776e-06 7.17547e-08)
(-1.7593e-06 -3.3853e-06 3.8987e-07)
(-1.23371e-05 -1.14132e-05 -1.99918e-06)
(-1.454e-05 -1.61027e-05 -2.19239e-06)
(-2.74696e-05 -2.25289e-05 -1.20212e-06)
(-1.64932e-05 -2.60138e-05 2.77143e-06)
(-3.86974e-05 -3.80731e-05 -2.12931e-06)
(0 0 0)
(0 0 0)
(0 0 0)
(-1.42493e-06 -1.25903e-06 6.44561e-08)
(0 0 0)
(0 0 0)
(-1.55867e-05 -1.31081e-05 -3.47516e-07)
(-2.02282e-05 -2.04268e-05 1.44815e-06)
(-1.94787e-05 -1.67619e-05 7.1286e-07)
(-2.48726e-05 -2.15319e-05 -6.65418e-07)
(-3.29746e-05 -2.99548e-05 -4.87656e-07)
(-2.68279e-05 -2.30969e-05 6.82499e-08)
(-4.1748e-05 -4.08937e-05 7.67471e-07)
(0 0 0)
(-1.42383e-05 -1.17541e-05 2.97896e-07)
(-1.71015e-05 -1.45684e-05 1.15997e-07)
(-3.27853e-05 -2.75198e-05 4.98953e-07)
(-4.32108e-07 -7.3984e-07 -2.78639e-07)
(-3.65466e-07 -1.09812e-06 -2.22648e-07)
(-3.4843e-05 -3.1601e-05 5.14057e-06)
(-2.23239e-06 -2.1224e-06 -1.38637e-07)
(-2.963e-06 -3.11847e-06 -6.5705e-08)
(-2.43847e-06 -2.20984e-06 -1.87889e-08)
(0 0 0)
(4.67694e-09 -5.77816e-09 -7.77836e-09)
(0 0 0)
(0 0 0)
(-1.55764e-09 6.75854e-09 -1.10351e-10)
(4.55956e-08 -1.64877e-08 8.85263e-09)
(4.30767e-08 -2.69786e-08 1.7243e-09)
(4.38438e-08 -2.14197e-08 8.85987e-09)
(-3.79598e-08 -7.19146e-07 -6.70042e-07)
(-7.61619e-08 -4.80494e-07 -3.27507e-07)
(-5.7317e-07 -1.1015e-06 -6.14547e-07)
(-3.7415e-07 -5.30972e-07 -2.4789e-07)
(0 0 0)
(2.34862e-08 -1.30436e-06 -4.95805e-07)
(2.76465e-08 -7.03264e-07 -2.72301e-07)
(-3.69529e-07 -2.10625e-06 -4.37862e-07)
(2.35924e-07 -4.88844e-07 1.14135e-07)
(-3.52936e-08 -1.99121e-06 1.13443e-08)
(-3.37979e-05 -1.22932e-05 2.09155e-06)
(0 0 0)
(-2.03116e-08 -1.9344e-08 -5.01186e-09)
(0 0 0)
(0 0 0)
(-1.58958e-09 4.14803e-09 1.61281e-09)
(3.39233e-09 -5.1199e-08 1.09486e-08)
(-2.64691e-08 -8.18238e-08 6.74278e-09)
(-2.63643e-08 -7.69683e-08 1.28373e-08)
(-1.02659e-08 -7.43289e-09 2.77341e-09)
(0 0 0)
(-1.40057e-06 -1.64555e-06 -5.0245e-07)
(-1.02052e-06 -1.15232e-06 -2.14168e-07)
(-2.61747e-06 -2.54015e-06 -3.61245e-07)
(-1.53334e-06 -1.39002e-06 -1.32147e-07)
(0 0 0)
(-1.48977e-06 -3.18175e-06 -3.30845e-07)
(-1.14791e-06 -1.70595e-06 -1.55751e-07)
(-3.67643e-06 -4.84667e-06 -1.73901e-07)
(-1.59437e-06 -1.87104e-06 1.6477e-07)
(-4.20569e-06 -5.1354e-06 1.77986e-07)
(-1.88966e-06 -1.64548e-06 6.41146e-09)
(0 0 0)
(-1.47656e-06 -1.38033e-06 8.9784e-08)
(-3.5767e-06 -3.19745e-06 9.09697e-08)
(-3.28969e-05 -3.40109e-05 7.23933e-06)
(2.32673e-08 -4.56851e-08 3.77362e-09)
(3.74529e-08 -2.88957e-08 9.55582e-09)
(-8.34336e-10 4.68821e-09 3.08872e-10)
(2.20373e-08 -3.7774e-08 1.00682e-08)
(-4.65081e-05 -9.56935e-06 1.11656e-06)
(-3.93815e-07 -3.95702e-07 2.11075e-08)
(-1.36084e-07 -1.73651e-07 2.05613e-08)
(-1.09735e-07 -9.91144e-08 1.30983e-08)
(-4.52677e-09 -1.04163e-08 -6.48079e-09)
(0 0 0)
(0 0 0)
(0 0 0)
(-1.13718e-07 -9.53868e-08 -4.35132e-09)
(0 0 0)
(0 0 0)
(9.55356e-10 4.18754e-09 -1.62321e-10)
(6.21629e-11 -1.43709e-09 -3.86999e-09)
(3.02343e-09 -5.05945e-09 -3.07273e-09)
(1.14541e-09 3.81995e-09 1.8882e-11)
(-3.36845e-05 -1.95158e-05 5.06775e-06)
(-3.57139e-05 -1.36526e-05 3.4155e-06)
(-3.24222e-05 -2.39495e-05 5.84934e-06)
(-3.66228e-05 -2.14669e-05 4.58134e-06)
(-3.49142e-05 -2.00339e-05 4.38542e-06)
(6.67004e-10 3.67951e-09 1.7723e-09)
(-2.52362e-08 -1.92579e-08 2.44832e-09)
(-3.7312e-08 -3.52462e-08 2.9896e-09)
(6.06864e-10 2.15388e-09 4.1057e-09)
(9.73617e-10 4.56252e-09 -1.7505e-10)
(4.97569e-09 1.0497e-09 -5.65541e-09)
(8.25634e-09 -9.01499e-10 -4.5599e-09)
(-3.12474e-05 -2.27417e-05 4.92178e-06)
(-3.07195e-05 -1.88627e-05 3.42007e-06)
(-2.83877e-05 -2.90347e-05 6.09097e-06)
(-3.06518e-05 -2.80768e-05 4.54538e-06)
(-3.26972e-05 -2.9776e-05 7.57373e-06)
(-3.54728e-05 -2.98492e-05 7.98817e-06)
(-3.4264e-05 -2.78971e-05 6.81609e-06)
(7.9991e-10 3.96658e-09 2.20108e-10)
(6.96872e-10 3.91761e-09 6.51145e-10)
(-7.63257e-09 -5.50587e-09 -2.272e-09)
(-8.59307e-09 -1.20386e-08 -1.40771e-09)
(-3.63904e-05 -2.82146e-05 6.41543e-06)
(-3.63375e-05 -2.7794e-05 6.18823e-06)
(-3.96378e-05 -2.88432e-05 6.63451e-06)
(-3.38877e-05 -2.90014e-05 4.26685e-06)
(-3.34041e-05 -2.32558e-05 2.63056e-06)
(-3.04667e-05 -2.10405e-05 1.26235e-06)
(-2.95626e-05 -2.73655e-05 2.33669e-06)
(-3.32803e-05 -2.3865e-05 2.44123e-06)
(-2.82352e-05 -3.10052e-05 1.14894e-06)
(-2.68063e-05 -3.10173e-05 9.6137e-07)
(-2.72282e-05 -3.25557e-05 1.78203e-07)
(-3.34446e-05 -1.53294e-05 3.65777e-06)
(-3.22129e-05 -5.69639e-06 2.60995e-06)
(-2.99658e-05 -1.04428e-05 2.48667e-06)
(-2.98895e-05 -3.72187e-05 7.25739e-06)
(1.54575e-08 -6.80022e-08 -9.46582e-09)
(-1.57197e-09 -8.02164e-09 -2.24574e-09)
(-1.45678e-08 -8.74947e-08 -7.02467e-09)
(-1.04715e-08 -3.13382e-08 -1.92803e-08)
(-3.09173e-09 -3.21738e-09 -3.16526e-09)
(-2.79158e-08 -4.08945e-08 -1.69786e-08)
(-3.56096e-05 -3.12277e-05 7.00552e-06)
(-3.32536e-05 -2.76905e-05 5.58864e-06)
(-3.34121e-05 -2.62142e-05 4.44749e-06)
(-3.10008e-05 -3.01437e-05 3.6101e-06)
(-3.00523e-05 -2.9454e-05 2.88093e-06)
(-4.45657e-05 -2.1713e-05 4.26923e-06)
(-3.97764e-05 -2.98836e-05 6.05191e-06)
(-3.19425e-05 -3.12819e-05 3.20711e-06)
(-2.85656e-05 -3.2451e-05 1.47285e-06)
(-2.8842e-05 -3.02541e-05 2.18174e-06)
(-3.37995e-05 -2.76143e-05 3.44971e-06)
(-2.74005e-05 -3.21321e-05 1.29598e-06)
(-2.92147e-07 -3.0947e-07 5.20488e-09)
(-2.25055e-07 -2.01399e-07 5.29476e-09)
(-1.67839e-07 -1.44847e-07 -8.91138e-09)
(-1.48923e-07 -1.28321e-07 -2.18384e-10)
(2.19456e-09 3.53245e-10 -4.40371e-09)
(1.81283e-09 -2.38264e-08 -2.07598e-08)
(1.20457e-08 -1.78815e-08 -2.28111e-08)
(8.46247e-09 -4.57445e-09 -8.9661e-09)
(0 0 0)
(3.92647e-10 -7.9153e-09 -7.00559e-09)
(0 0 0)
(-1.71622e-09 7.0968e-09 -5.22835e-11)
(4.43053e-08 -2.18337e-08 1.7647e-09)
(5.81552e-09 -2.25392e-09 -3.64848e-09)
(3.2172e-08 -5.23204e-08 -1.14493e-08)
(4.27606e-08 -4.0037e-08 -1.35469e-08)
(-4.54381e-10 3.59787e-09 -9.88561e-11)
(3.57482e-08 -3.55414e-08 2.57433e-09)
(-3.06695e-05 -2.59704e-05 6.10559e-06)
(-3.33341e-05 -2.76851e-05 6.70211e-06)
(-3.09597e-05 -2.98835e-05 6.89606e-06)
(-3.55684e-05 -2.83959e-05 7.33015e-06)
(-3.07898e-05 -1.57867e-05 1.89067e-06)
(-3.36347e-05 -2.47366e-05 4.63046e-06)
(-3.66342e-05 -8.64823e-06 1.95122e-06)
(-3.40465e-05 -5.48993e-06 2.02379e-06)
(-3.61738e-05 -1.77888e-05 2.2123e-06)
(-3.34511e-05 -1.58632e-05 4.66549e-07)
(-3.88955e-05 -2.94554e-05 8.39931e-06)
(-3.87029e-05 -2.87405e-05 7.64534e-06)
(-4.2314e-05 -2.8809e-05 8.02891e-06)
(-1.32676e-08 -9.15528e-09 -8.15551e-10)
(-8.34549e-08 -7.73354e-08 -1.13082e-08)
(-5.02548e-08 -5.41904e-08 -1.47432e-08)
(-1.11476e-08 -1.40184e-08 -5.5997e-09)
(0 0 0)
(-3.62681e-08 -3.11077e-08 -3.20401e-09)
(0 0 0)
(-1.41774e-09 4.68473e-09 8.49993e-10)
(1.02885e-09 -5.96741e-08 4.89118e-09)
(-1.7439e-08 -1.85984e-08 9.71556e-11)
(-1.18658e-07 -1.64516e-07 -2.08134e-10)
(-5.41687e-08 -1.15059e-07 -3.8687e-09)
(-2.1278e-09 2.42489e-09 3.86367e-09)
(-9.05564e-08 -1.35715e-07 1.02004e-08)
(-3.53468e-08 -2.88349e-08 4.70765e-09)
(-1.73895e-08 -1.4571e-08 2.1738e-09)
(-3.3297e-05 -1.58546e-05 3.76392e-07)
(-3.43293e-05 -1.89594e-05 2.03854e-06)
(-1.1956e-06 -2.14535e-06 -1.36511e-06)
(2.84845e-08 -2.80103e-07 -2.95741e-07)
(-2.64277e-06 -5.34655e-06 -7.91984e-07)
(5.05344e-07 -9.67821e-07 -4.44562e-08)
(-5.84734e-06 -5.42187e-06 -1.40061e-06)
(-8.17902e-06 -8.28518e-06 -2.52088e-06)
(-4.73293e-06 -4.38819e-06 -9.02142e-07)
(-2.04775e-07 -4.31372e-07 -2.736e-07)
(-5.71002e-07 -6.54277e-07 -2.22607e-07)
(2.40053e-07 -6.72444e-06 1.33243e-06)
(-9.86288e-06 -1.16672e-05 -2.66649e-06)
(-7.1827e-06 -1.16976e-05 -4.45283e-07)
(3.34081e-07 -1.59224e-06 -1.24837e-08)
(-5.55636e-07 -2.45738e-06 3.7691e-08)
(-3.47463e-05 -1.39001e-05 3.6125e-06)
(-1.18824e-05 -9.84196e-06 -6.73655e-07)
(-1.76517e-05 -1.56167e-05 -1.27084e-06)
(-1.06028e-05 -9.16468e-06 -3.4149e-07)
(-1.10824e-06 -1.04007e-06 -1.63662e-07)
(-9.27176e-06 -1.3538e-05 1.37459e-06)
(-2.20534e-05 -2.18308e-05 -1.31934e-06)
(-2.51283e-05 -3.06417e-05 -1.45669e-08)
(-2.45358e-05 -2.37159e-05 4.0675e-07)
(-2.44542e-06 -3.85452e-06 1.17719e-07)
(-8.37716e-06 -7.08994e-06 2.70131e-07)
(-1.16967e-05 -1.00197e-05 -3.52832e-09)
(-2.18377e-05 -1.88346e-05 3.77862e-07)
(-1.50749e-05 -1.26518e-05 2.03697e-07)
(-1.56797e-06 -1.3708e-06 3.50119e-08)
(4.0622e-07 -2.3575e-07 1.10781e-07)
(3.03413e-08 -3.79969e-07 -3.38051e-07)
(-5.28448e-09 -1.38175e-07 -1.21038e-07)
(6.07035e-09 -5.07544e-09 -7.98248e-09)
(1.06211e-07 -5.47471e-07 -2.84798e-07)
(2.31063e-07 -4.0402e-07 -3.89116e-08)
(4.35917e-08 -2.39326e-08 1.40311e-09)
(-3.21739e-05 -1.72566e-05 3.51555e-06)
(3.47406e-07 -3.84054e-07 1.13568e-07)
(5.37407e-08 -6.22594e-07 1.15549e-07)
(-2.30623e-07 -5.98464e-07 -3.05785e-07)
(-1.35449e-07 -2.17295e-07 -1.03577e-07)
(2.39169e-09 -6.82527e-09 -7.28517e-09)
(-2.02313e-09 -9.13792e-09 -6.66912e-09)
(-1.26257e-07 -8.8465e-07 -2.49082e-07)
(3.90638e-09 -6.52107e-07 -1.77385e-08)
(3.96045e-08 -3.09902e-08 2.04468e-09)
(3.04552e-08 -4.06621e-08 3.00938e-09)
(-6.89236e-07 -9.15525e-07 -2.48849e-07)
(-3.46371e-07 -3.53248e-07 -8.08627e-08)
(-1.54261e-08 -1.6347e-08 -5.33589e-09)
(-7.78177e-09 -1.21516e-08 -5.83943e-09)
(-6.91982e-07 -1.35909e-06 -1.92642e-07)
(-5.2477e-07 -1.05482e-06 9.55493e-09)
(-1.10722e-08 -6.93198e-08 5.71648e-09)
(1.22449e-08 -5.23577e-08 4.0746e-09)
(-6.66945e-07 -1.13574e-06 1.29821e-07)
(-5.04111e-07 -4.52284e-07 2.83713e-08)
(-1.48309e-06 -1.50647e-06 -1.74065e-07)
(-8.49587e-07 -7.62423e-07 -5.8355e-08)
(-2.66073e-08 -2.36635e-08 -4.06321e-09)
(-5.76537e-08 -4.8904e-08 -2.76068e-09)
(-1.83615e-06 -2.22283e-06 -1.11888e-07)
(-2.04469e-06 -2.24322e-06 6.02389e-08)
(-5.01954e-08 -1.01503e-07 7.94265e-09)
(-1.78643e-07 -2.13367e-07 1.39979e-08)
(-9.40951e-07 -8.23927e-07 -1.0558e-08)
(-1.74826e-06 -1.59848e-06 3.91188e-08)
(-1.13444e-08 -8.82845e-09 2.4657e-09)
(-1.37407e-07 -1.23554e-07 9.94666e-09)
(-4.54659e-08 -3.85169e-08 8.6931e-10)
(1.10652e-09 -6.65896e-09 -2.7014e-09)
(-1.28072e-09 -2.3649e-09 -3.52899e-09)
(1.0473e-09 -5.41166e-10 -4.15699e-09)
(1.6583e-09 1.24357e-09 -3.27479e-10)
(1.82583e-09 1.4659e-09 -3.9553e-10)
(4.33016e-09 -3.63063e-09 -3.39189e-09)
(7.7128e-10 4.16192e-09 -4.66274e-11)
(9.52479e-10 5.35055e-09 -2.26982e-10)
(-1.42305e-09 6.99119e-09 -1.64878e-10)
(-1.71637e-10 3.23848e-09 2.21545e-10)
(-7.65754e-11 3.8236e-09 1.81041e-10)
(1.34995e-09 1.13606e-09 -1.94687e-10)
(-2.85755e-05 -2.93081e-05 4.84711e-06)
(-3.27166e-05 -2.46648e-05 5.2477e-06)
(-3.81648e-05 -2.06198e-05 4.3814e-06)
(-3.62707e-05 -3.07363e-05 6.5668e-06)
(-3.73265e-05 -2.74433e-05 4.89413e-06)
(-3.16771e-05 -2.48001e-05 6.0024e-06)
(-3.51582e-05 -2.30778e-05 4.65253e-06)
(-3.87516e-05 -1.53815e-05 3.15006e-06)
(-3.56715e-05 -1.83581e-05 3.2582e-06)
(-3.52253e-05 -1.04226e-05 2.08388e-06)
(-3.6372e-05 -1.44832e-05 2.9792e-06)
(-2.62642e-05 -3.37111e-05 4.89788e-06)
(-3.44183e-05 -3.25666e-05 7.173e-06)
(-3.81145e-05 -7.39843e-06 1.77809e-06)
(-4.41299e-05 -1.6659e-05 2.496e-06)