/*--------------------------------*- C++ -*----------------------------------*\
| =========                 |                                                 |
| \\      /  F ield         | OpenFOAM: The Open Source CFD Toolbox           |
|  \\    /   O peration     | Version:  2012                                  |
|   \\  /    A nd           | Website:  www.openfoam.com                      |
|    \\/     M anipulation  |                                                 |
\*---------------------------------------------------------------------------*/
FoamFile
{
    version     2.0;
    format      ascii;
    class       volVectorField;
    location    "0.107/fluid";
    object      U;
}
// * * * * * * * * * * * * * * * * * * * * * * * * * * * * * * * * * * * * * //

dimensions      [0 1 -1 0 0 0 0];


internalField   nonuniform List<vector> 
16422
(
(1.00484 -0.217072 -0.0233118)
(1.17103 0.00689774 -0.0164703)
(1.1847 -0.00160254 -0.00994523)
(1.19214 -0.00050382 -0.00598655)
(1.19534 -0.00020526 -0.00363302)
(1.1969 -9.43523e-05 -0.0022269)
(1.19777 -5.35993e-05 -0.00138099)
(1.1983 -3.68888e-05 -0.000865057)
(1.19864 -2.89915e-05 -0.000546887)
(1.19888 -2.84151e-05 -0.000346508)
(1.19907 -2.94078e-05 -0.000219959)
(1.19922 -3.17615e-05 -0.000137988)
(1.19936 -3.7814e-05 -8.49899e-05)
(1.19949 -4.61643e-05 -4.95205e-05)
(1.3202 -0.0126168 -0.00331552)
(1.2067 -0.0516621 -0.0169349)
(1.18624 -0.0231355 -0.0136372)
(1.19115 -0.00869931 -0.00868525)
(1.19447 -0.00405762 -0.00542233)
(1.19656 -0.00215012 -0.00337919)
(1.19783 -0.00123098 -0.00210901)
(1.19863 -0.000736492 -0.00132394)
(1.19912 -0.000452003 -0.000836403)
(1.19944 -0.000282041 -0.000530789)
(1.19964 -0.000176372 -0.000337668)
(1.19977 -0.000107835 -0.000214999)
(1.19985 -6.52475e-05 -0.00013675)
(1.1999 -3.58445e-05 -8.41094e-05)
(1.19993 -1.53059e-05 -4.96872e-05)
(1.24806 0.00131875 -0.00587215)
(1.21628 -0.0165043 -0.013837)
(1.20059 -0.014093 -0.010667)
(1.19769 -0.00864457 -0.00683619)
(1.19759 -0.00511053 -0.00441166)
(1.19814 -0.00307341 -0.0028658)
(1.1987 -0.00188435 -0.00184593)
(1.19913 -0.00117434 -0.00118715)
(1.19943 -0.000739547 -0.000763913)
(1.19963 -0.000469991 -0.000491584)
(1.19976 -0.00029732 -0.000316595)
(1.19985 -0.000191072 -0.000204076)
(1.19991 -0.000120741 -0.000131347)
(1.19994 -7.15905e-05 -8.18021e-05)
(1.19996 -3.87803e-05 -4.81414e-05)
(1.30154 0.0810979 0.00282568)
(1.19426 -0.00280248 -0.0155732)
(1.19786 -0.00631522 -0.00865374)
(1.20052 -0.00642098 -0.00510995)
(1.19988 -0.0046808 -0.00338373)
(1.19966 -0.00313061 -0.00228048)
(1.19967 -0.00204346 -0.00152346)
(1.19974 -0.00132232 -0.00101079)
(1.19981 -0.000855087 -0.000669623)
(1.19987 -0.000550975 -0.000440354)
(1.19992 -0.000356523 -0.00028803)
(1.19996 -0.000231186 -0.000189682)
(1.19998 -0.000143926 -0.000123906)
(1.19999 -8.67788e-05 -7.75781e-05)
(1.2 -4.89941e-05 -4.52186e-05)
(1.04883 -0.189002 -0.0356297)
(1.18963 0.00808255 -0.0216134)
(1.19128 -0.00117726 -0.0110145)
(1.19561 -0.000355734 -0.00612249)
(1.19724 -0.000149689 -0.00360286)
(1.198 -7.71418e-05 -0.00218499)
(1.19843 -4.95249e-05 -0.00134906)
(1.1987 -3.55904e-05 -0.000844531)
(1.1989 -2.76396e-05 -0.000532035)
(1.19904 -2.75587e-05 -0.000336996)
(1.19916 -2.86352e-05 -0.000213792)
(1.19928 -3.22607e-05 -0.00013583)
(1.1994 -3.94772e-05 -8.35392e-05)
(1.19952 -4.75389e-05 -4.83151e-05)
(1.28553 -0.0114627 -0.00257319)
(1.20718 -0.0341344 -0.027737)
(1.19378 -0.0158909 -0.015991)
(1.1959 -0.0063268 -0.009152)
(1.1974 -0.00310816 -0.00545898)
(1.19834 -0.00172043 -0.00333266)
(1.19892 -0.00102237 -0.00206571)
(1.1993 -0.000631719 -0.00129297)
(1.19954 -0.000397573 -0.000815937)
(1.1997 -0.000251986 -0.000517263)
(1.19981 -0.000160049 -0.000329262)
(1.19988 -0.000100307 -0.000210118)
(1.19992 -6.09281e-05 -0.000133424)
(1.19995 -3.33225e-05 -8.23576e-05)
(1.19997 -1.47913e-05 -4.8516e-05)
(1.23193 -0.00127451 -0.00337912)
(1.21565 -0.0123463 -0.0117127)
(1.20408 -0.0102865 -0.0096718)
(1.20058 -0.0064925 -0.00656747)
(1.19966 -0.00398815 -0.00431993)
(1.19952 -0.00248415 -0.0027982)
(1.1996 -0.00157448 -0.0018006)
(1.1997 -0.001009 -0.00115763)
(1.19979 -0.000650428 -0.000745417)
(1.19986 -0.000421951 -0.000478243)
(1.19992 -0.000272586 -0.000308547)
(1.19995 -0.000177247 -0.000199896)
(1.19998 -0.000113284 -0.000127665)
(1.19999 -6.81496e-05 -7.9849e-05)
(1.2 -3.62404e-05 -4.7672e-05)
(1.22604 0.0041594 -0.00978281)
(1.21113 -0.00210094 -0.0121653)
(1.20511 -0.00552693 -0.00739269)
(1.20268 -0.00501392 -0.00473553)
(1.20134 -0.0036929 -0.00325093)
(1.20067 -0.00254945 -0.00221153)
(1.20035 -0.00171638 -0.00148244)
(1.20019 -0.00114024 -0.000986097)
(1.20012 -0.000755526 -0.000651132)
(1.20008 -0.000497206 -0.00042739)
(1.20006 -0.000325905 -0.000281964)
(1.20005 -0.000214724 -0.000183464)
(1.20004 -0.000135662 -0.00012035)
(1.20004 -8.32806e-05 -7.68217e-05)
(1.20004 -4.59286e-05 -4.54566e-05)
(1.26614 -0.0134783 0.0359022)
(1.19393 -0.00486784 -0.0261913)
(1.19812 -0.00141416 -0.0176488)
(1.19874 -0.000502748 -0.00878439)
(1.19893 -0.000210543 -0.00484055)
(1.19896 -0.000103233 -0.00282355)
(1.19898 -6.46588e-05 -0.00170482)
(1.19901 -4.60199e-05 -0.00105075)
(1.19906 -3.35521e-05 -0.00065561)
(1.19911 -2.73492e-05 -0.000411697)
(1.19918 -2.75521e-05 -0.000261016)
(1.19925 -2.87023e-05 -0.000166475)
(1.19933 -3.23135e-05 -0.000106233)
(1.19943 -4.08513e-05 -6.47916e-05)
(1.19955 -4.8031e-05 -3.76284e-05)
(1.23561 -0.00594718 -0.00134002)
(1.21299 -0.0124263 -0.0172986)
(1.20339 -0.00711516 -0.0121984)
(1.20085 -0.00376781 -0.0072051)
(1.20015 -0.00215412 -0.00428848)
(1.19994 -0.00131278 -0.00260549)
(1.19989 -0.000831918 -0.00161046)
(1.19989 -0.000537409 -0.00100613)
(1.19992 -0.000350486 -0.00063333)
(1.19994 -0.000227033 -0.000401883)
(1.19995 -0.000146177 -0.000255312)
(1.19997 -9.33437e-05 -0.000163056)
(1.19998 -5.63741e-05 -0.000103264)
(1.19999 -3.1247e-05 -6.43575e-05)
(1.19999 -1.42227e-05 -3.76458e-05)
(1.22004 -0.000972335 -0.00144753)
(1.21362 -0.00601778 -0.00705884)
(1.20672 -0.00588286 -0.00686144)
(1.20312 -0.0042912 -0.00499276)
(1.20149 -0.00290612 -0.00333605)
(1.20075 -0.00194141 -0.00216978)
(1.20039 -0.00129566 -0.00140005)
(1.20022 -0.000863469 -0.000899619)
(1.20012 -0.000574258 -0.000579226)
(1.20008 -0.000380117 -0.000373462)
(1.20005 -0.000249944 -0.000239449)
(1.20004 -0.000164629 -0.000154247)
(1.20004 -0.000107466 -9.89136e-05)
(1.20003 -6.54302e-05 -6.21887e-05)
(1.20003 -3.53651e-05 -3.60148e-05)
(1.2152 -0.000214116 -0.00149562)
(1.21136 -0.00291241 -0.0047013)
(1.20712 -0.00396008 -0.00444298)
(1.20426 -0.00359707 -0.0034301)
(1.20254 -0.00279766 -0.0024644)
(1.20154 -0.00203175 -0.00170049)
(1.20095 -0.00142597 -0.00114859)
(1.20061 -0.000982864 -0.000767053)
(1.2004 -0.000667676 -0.00050821)
(1.20026 -0.000448711 -0.000333988)
(1.20018 -0.000299967 -0.00021737)
(1.20013 -0.000199695 -0.000142465)
(1.2001 -0.000128983 -9.3831e-05)
(1.20008 -8.03717e-05 -5.94441e-05)
(1.20007 -4.48954e-05 -3.47985e-05)
(1.22123 -0.00106498 0.00304966)
(1.21155 -0.000919099 -0.00645254)
(1.20598 -0.000419009 -0.00658189)
(1.20273 -0.000230669 -0.00411392)
(1.20099 -0.000127784 -0.00240213)
(1.20008 -8.02289e-05 -0.00142569)
(1.19963 -5.85535e-05 -0.000864802)
(1.1994 -4.33101e-05 -0.000533384)
(1.1993 -3.23252e-05 -0.000331327)
(1.19926 -2.73291e-05 -0.000208782)
(1.19927 -2.78477e-05 -0.000130493)
(1.19932 -2.91325e-05 -8.4045e-05)
(1.19937 -3.15559e-05 -5.37249e-05)
(1.19946 -4.15404e-05 -3.23232e-05)
(1.19957 -4.87169e-05 -1.77507e-05)
(1.21836 -0.000975865 0.000164029)
(1.21263 -0.00330797 -0.00510305)
(1.20711 -0.00293093 -0.00511941)
(1.2037 -0.00217151 -0.00346341)
(1.20192 -0.00150928 -0.00214827)
(1.201 -0.00103344 -0.00132071)
(1.20053 -0.000703897 -0.000816809)
(1.20029 -0.000475812 -0.000509382)
(1.20016 -0.000318734 -0.000318824)
(1.20009 -0.000212318 -0.000201594)
(1.20005 -0.000138515 -0.000126895)
(1.20003 -8.90924e-05 -8.13215e-05)
(1.20002 -5.41247e-05 -5.08344e-05)
(1.20002 -3.10394e-05 -2.97333e-05)
(1.20001 -1.46293e-05 -1.64937e-05)
(1.21437 -0.000369823 -0.000456437)
(1.21166 -0.00267324 -0.00287056)
(1.20763 -0.00324169 -0.00316417)
(1.20455 -0.00283169 -0.00245411)
(1.20265 -0.00217 -0.00167584)
(1.20155 -0.00157576 -0.00109502)
(1.20092 -0.00111202 -0.000706436)
(1.20056 -0.000769431 -0.000451824)
(1.20034 -0.000525358 -0.000286665)
(1.20022 -0.000354372 -0.000184121)
(1.20014 -0.000235643 -0.00011693)
(1.2001 -0.000157121 -7.4103e-05)
(1.20008 -0.000104937 -4.63128e-05)
(1.20006 -6.51584e-05 -2.72832e-05)
(1.20005 -3.64806e-05 -1.45871e-05)
(1.21192 -0.000260121 -0.000399251)
(1.21026 -0.00191337 -0.00173758)
(1.20751 -0.00267974 -0.00198912)
(1.20507 -0.00263009 -0.00166667)
(1.20329 -0.00220009 -0.00122345)
(1.20212 -0.00168875 -0.000847934)
(1.20136 -0.00123496 -0.000574674)
(1.20088 -0.000880283 -0.000381031)
(1.20058 -0.000612038 -0.000247257)
(1.20038 -0.000417463 -0.000161206)
(1.20026 -0.000283302 -0.000102915)
(1.20019 -0.000192132 -6.63755e-05)
(1.20014 -0.000125912 -4.16158e-05)
(1.20011 -7.97122e-05 -2.50408e-05)
(1.20009 -4.55615e-05 -1.22984e-05)
(0.750559 -0.357601 -0.0215577)
(1.38799 -0.00734164 -0.000896551)
(1.22051 -0.137826 -0.0115262)
(1.30851 0.0811601 -0.0171635)
(1.18545 -0.00460356 -0.0125113)
(0.752781 -0.353682 -0.0280451)
(1.38122 -0.0100209 -0.00251033)
(1.21872 -0.136489 -0.0168386)
(0.793951 -0.337642 -0.0899348)
(1.34954 -0.0116659 -0.00165314)
(1.21277 -0.113091 -0.0290667)
(1.1873 -0.00131481 -0.0196163)
(1.23706 0.0066501 -0.0152634)
(1.21069 -7.36008e-05 -0.0131483)
(0.814132 -0.33141 -0.0641067)
(1.33011 -0.0106819 -0.0035455)
(1.21263 -0.0920135 -0.0366961)
(1.22837 0.00427741 -0.142133)
(1.22768 -0.00796501 -0.0673108)
(1.24777 0.00750192 -0.00361654)
(1.22551 -0.0164265 -0.0246503)
(1.25231 0.0012683 -0.00107015)
(1.22592 -0.0151953 -0.00697477)
(1.25672 0.0192205 -0.00308648)
(1.20869 0.0339858 -0.00529289)
(1.19249 -0.00633896 -0.0107546)
(1.19398 -0.00588038 -0.0075692)
(1.669 -0.38149 -0.0229364)
(-0.429537 -0.0426117 -0.0502234)
(1.92127 0.0047277 0.0260479)
(1.68663 -0.389749 0.00782817)
(1.89729 0.00414091 -0.00331301)
(-0.416528 -0.0444216 -0.0539659)
(1.22494 -0.0146705 -0.013349)
(1.25089 0.018844 -0.0149195)
(1.20916 0.0305668 -0.011283)
(1.23588 -0.00119275 -0.00375675)
(1.22172 -0.012385 -0.0117923)
(1.23109 0.00508457 -0.00831409)
(1.21528 -0.00157781 -0.00628903)
(1.22562 0.0635311 -0.0182789)
(1.28369 0.0222344 -0.0108793)
(1.2297 0.0293965 -0.0343768)
(1.19644 -0.00516392 -0.0102489)
(1.20856 -0.00159755 -0.0120751)
(1.20404 -0.00481151 -0.00987861)
(1.26488 -0.178974 -0.0845217)
(-0.370042 -0.11153 -0.192296)
(1.82372 -0.0131965 0.0644342)
(0.566973 0.0634144 -0.251392)
(1.57963 -0.363879 0.00503656)
(1.47389 -0.0687238 0.0156795)
(0.585265 -0.0422699 -0.117361)
(1.2129 7.31511e-05 -0.0135411)
(1.21703 -1.61104e-05 -0.0020878)
(1.21295 -0.0022184 -0.00520836)
(-0.4349 -0.0424843 -0.0180613)
(1.9245 0.00555611 -0.0146063)
(1.6928 -0.390779 -0.0219384)
(1.2295 0.0635809 -0.0180248)
(1.19007 0.0236768 -0.014614)
(1.17271 0.0309917 -0.0123739)
(1.65683 -0.37859 0.00716991)
(-0.395274 -0.0775958 -0.159179)
(1.84136 -0.00391347 0.025379)
(1.89088 0.00204487 0.0374644)
(1.61162 -0.369063 -0.0226069)
(-0.406135 -0.0442486 -0.0879559)
(1.19071 0.0232934 -0.0243868)
(1.17642 0.0316664 -0.0190748)
(1.19584 -0.00484349 -0.0274167)
(1.20019 0.0151685 -0.0364376)
(1.1809 0.0314196 -0.0144415)
(1.25905 0.0230905 -0.0166997)
(1.22554 0.00663917 -0.0202378)
(1.24036 -0.000481795 -0.0275593)
(1.22352 0.0162869 -0.0390215)
(1.22403 -0.00191438 -0.031981)
(1.20268 -0.00784773 -0.0267657)
(1.21579 0.00298189 -0.0173946)
(1.20891 -0.00805456 -0.0179222)
(1.20553 -0.00336939 -0.0340448)
(1.1986 -0.00924637 -0.0148678)
(1.21202 -0.00562007 -0.0266598)
(1.00298 -0.219674 -0.0185472)
(1.17099 0.00490764 -0.0155918)
(1.19999 -0.106944 -0.0124718)
(1.18135 -0.0334946 -0.0124497)
(1.32574 -0.0109256 -0.000790698)
(1.23687 -0.0633652 -0.00990123)
(1.25368 0.00256425 0.00194412)
(1.22974 -0.01714 -0.00342082)
(1.17276 0.00501273 -0.0182268)
(1.19968 -0.105737 -0.0176201)
(1.18292 -0.0330171 -0.0157026)
(1.02792 -0.206 -0.0567515)
(1.18487 0.00729574 -0.0279053)
(1.20063 -0.0863488 -0.0271956)
(1.18827 -0.0260395 -0.0200762)
(1.23497 -0.0631586 -0.0157216)
(1.24949 0.00231802 -0.00370382)
(1.229 -0.0172067 -0.0102208)
(1.29739 -0.0121838 -0.00155442)
(1.22754 -0.049568 -0.0242596)
(1.24006 0.000282254 -0.000830066)
(1.22413 -0.0163243 -0.00899947)
(1.19734 0.0110493 -0.0306294)
(1.20251 -0.0691744 -0.0305215)
(1.19166 -0.0220941 -0.0209919)
(1.21801 -0.00306955 -0.0452733)
(1.20025 -0.000954729 -0.0266159)
(1.2173 -0.0168078 -0.0245934)
(1.20268 -0.0104968 -0.0183894)
(1.22511 -0.0421472 -0.0286667)
(1.23607 -0.000169805 -0.00138098)
(1.2226 -0.0149302 -0.00985431)
(1.24149 0.0038634 -0.00217416)
(1.22399 -0.0111117 -0.0216048)
(1.22475 0.000283325 -0.00117289)
(1.21847 -0.00747294 -0.00817386)
(1.19275 -0.00764577 -0.0216516)
(1.2418 -0.010479 -0.000485628)
(1.21685 -0.0190323 -0.0185275)
(1.22018 0.000418222 -0.00995668)
(1.21952 -0.00060311 -0.0164594)
(1.22065 0.00177816 -0.00293402)
(1.21752 -0.00199874 -0.00911628)
(-0.176115 -0.258736 -0.0318032)
(1.21439 -0.345951 -0.0158766)
(1.38421 -0.495552 -0.0142084)
(1.62388 0.00890102 -0.000166386)
(1.34412 -0.087033 -0.0055709)
(1.45037 -0.156986 -0.00728047)
(1.36844 -0.482582 -0.02429)
(-0.171931 -0.256367 -0.0435698)
(1.21143 -0.342324 -0.0208724)
(0.75735 -0.34756 -0.0380664)
(1.37729 -0.491018 -0.0186326)
(1.20854 -0.335534 -0.0260138)
(-0.156196 -0.24899 -0.0658053)
(1.43233 -0.153076 -0.0110803)
(1.61818 0.00825079 0.00354043)
(1.33847 -0.0879751 -0.00902071)
(1.37401 -0.00906556 -0.000916887)
(1.44208 -0.156481 -0.00983554)
(1.60147 0.00782272 0.00553348)
(1.33165 -0.0852121 -0.00913259)
(1.35522 -0.46987 -0.0357133)
(0.765432 -0.337914 -0.0511235)
(-0.0790199 -0.273816 -0.15773)
(1.20509 -0.306216 -0.047749)
(1.20561 -0.324728 -0.0365428)
(1.33158 -0.446025 -0.0516942)
(-0.145797 -0.243298 -0.08881)
(1.41764 -0.149804 -0.0146238)
(1.36359 -0.010241 -0.00117619)
(1.55473 0.000121317 0.0169363)
(1.31018 -0.0786097 -0.0165539)
(1.59035 0.00678647 0.0105785)
(1.32267 -0.0830245 -0.0123613)
(1.39473 -0.144975 -0.0203838)
(1.17816 -0.280279 -0.192316)
(0.0282622 -0.368434 -0.18869)
(1.19634 -0.237817 -0.0927605)
(0.97054 -0.10824 -0.16984)
(1.295 -0.396266 -0.12849)
(1.19194 -0.176265 -0.149489)
(0.842165 0.0916236 -0.291597)
(1.32119 -0.106639 -0.0702825)
(1.52599 -0.00501835 0.0209807)
(1.29484 -0.0686416 -0.0241308)
(1.30188 -0.0128335 -0.00727626)
(1.36232 -0.134645 -0.0383851)
(1.39929 -0.0341609 0.00480023)
(1.27167 -0.0531825 -0.0316237)
(1.26326 -0.0806687 -0.103068)
(1.40536 -0.113429 -0.250492)
(1.23446 0.000507191 -0.168388)
(1.31433 0.0305229 -0.0763953)
(1.40918 0.00367314 -0.0208258)
(1.30877 0.0287877 -0.109973)
(1.45611 -0.0946193 -0.274981)
(-0.179192 0.193282 -0.0679689)
(0.690483 -0.380679 -0.0396133)
(-0.427246 -0.043377 -0.031)
(-0.164754 0.181242 0.0124704)
(0.688205 -0.378858 -0.0445311)
(-0.0282188 -0.0240259 -0.0321626)
(1.8088 -0.207584 0.0199948)
(1.91305 0.00481744 -0.0102471)
(-0.0197529 -0.025202 -0.0178002)
(1.80164 -0.205877 -0.0196927)
(-0.0193709 -0.0245108 -0.0245103)
(1.78621 -0.203088 -0.016269)
(1.90871 0.00390268 0.0305067)
(1.7963 -0.205686 0.0218781)
(-0.0304463 -0.0231414 -0.0442404)
(-0.162141 0.180122 0.00174473)
(0.679688 -0.371672 -0.0640675)
(-0.419722 -0.043398 -0.0638371)
(0.684143 -0.374779 -0.0530636)
(-0.181119 0.196098 -0.0777505)
(1.34567 0.145676 -0.0100946)
(1.26529 0.0969801 -0.0666425)
(1.26014 0.133946 -0.0322426)
(1.2999 0.0501515 -0.0456811)
(1.38906 0.158399 -0.0397662)
(1.52146 0.148266 0.0295026)
(1.39716 0.168869 0.00799305)
(1.5007 0.137359 -0.0295242)
(1.34848 0.154036 -0.041684)
(1.25481 0.157712 -0.0193705)
(1.35209 0.162048 0.00301572)
(1.25501 0.153505 -0.0250893)
(1.38401 0.149377 -0.00242814)
(1.41391 -0.00240449 0.00769023)
(1.49315 0.134424 0.0339813)
(1.3224 0.0457448 -0.0365891)
(0.146161 -0.113112 -0.353045)
(0.661176 -0.428843 -0.194288)
(-0.250847 -0.338427 0.133029)
(-0.140928 0.178911 -0.0235338)
(0.721735 -0.605566 -0.518649)
(0.175126 -0.188074 -0.184082)
(1.70067 -0.209608 0.0327996)
(1.77592 -0.0111996 0.0435823)
(0.0132639 -0.0488446 -0.0603487)
(1.65739 -0.211437 -0.013746)
(0.647245 -0.0395095 0.271738)
(0.507258 0.0759991 -0.21796)
(0.836643 -0.117634 0.000907085)
(0.220715 -0.206097 -0.181418)
(1.37504 -0.147246 -0.0919069)
(1.71631 -0.0391836 0.0719361)
(1.24504 -0.2581 0.267714)
(1.58401 -0.215073 -0.00362337)
(1.34462 -0.376093 -0.0795166)
(0.173502 -0.165818 -0.326647)
(1.27237 -0.261951 -0.35296)
(-0.175413 -0.280832 0.245358)
(0.533487 0.0643581 -0.218165)
(0.636068 -0.447952 -0.58698)
(1.02434 -0.213739 -0.0692127)
(-0.166661 0.182125 0.0196002)
(0.693153 -0.383199 -0.0322814)
(-0.436313 -0.0419115 -0.0423292)
(-0.177947 0.191528 -0.0614546)
(0.694465 -0.384244 -0.0309658)
(-0.0199898 -0.0256982 -0.0134537)
(1.93075 0.00506506 0.0242633)
(1.81285 -0.207459 -0.0220276)
(-0.0265243 -0.0247815 -0.0239826)
(1.81809 -0.209061 0.0202992)
(-0.025471 -0.0253051 -0.0188967)
(1.82031 -0.209802 -0.0221081)
(-0.17725 0.190491 -0.0576174)
(0.696711 -0.386823 -0.0245382)
(1.3587 0.163607 -0.0282826)
(1.40419 0.170611 0.0160751)
(1.5262 0.14705 -0.0385447)
(1.40048 0.169343 -0.0354659)
(1.53304 0.148364 0.0325183)
(1.40577 0.170676 -0.0297947)
(1.5352 0.147686 -0.0362741)
(1.35742 0.163389 0.012009)
(1.25568 0.160192 -0.0134992)
(1.35469 0.16252 -0.0344332)
(1.25729 0.160016 -0.0114315)
(1.18025 0.0520704 -0.0104476)
(1.19647 0.105949 -0.0155725)
(1.19709 0.105633 -0.0112618)
(1.1808 0.0518182 -0.0165797)
(-0.155323 0.179353 -0.02398)
(0.653479 -0.399222 -0.155834)
(-0.388364 -0.0479842 -0.131396)
(-0.176447 0.203698 -0.0810997)
(0.660722 -0.369522 -0.105078)
(-0.0121077 -0.0280294 -0.0447077)
(1.86512 -0.0033415 0.0489815)
(1.72591 -0.203111 -0.00131483)
(-0.0105974 -0.0424843 -0.0778708)
(1.74876 -0.203906 0.0292634)
(-0.0286651 -0.025829 -0.0587345)
(1.77777 -0.20358 0.0245336)
(1.87492 0.000940397 0.00830564)
(-0.0183854 -0.0240311 -0.0340447)
(1.76268 -0.201724 -0.00976881)
(-0.182552 0.199916 -0.0862845)
(0.673728 -0.366742 -0.0738265)
(-0.402711 -0.0472369 -0.0948963)
(-0.159042 0.179244 -0.0125923)
(0.667258 -0.368377 -0.0930189)
(1.19218 0.0425943 -0.018731)
(1.22862 0.0518166 -0.0466176)
(1.20974 0.0849855 -0.0209866)
(1.20847 0.0268378 -0.0374938)
(1.18415 0.04933 -0.0209651)
(1.19699 0.104695 -0.0173439)
(1.19898 0.101265 -0.0219426)
(1.18219 0.0518045 -0.0160816)
(1.22875 0.0207124 -0.0364292)
(1.1938 0.0581468 -0.0648878)
(1.21122 0.0698005 -0.0780146)
(1.21716 0.0110462 -0.0255685)
(1.24333 0.0318176 -0.0483488)
(1.29656 -0.000166936 -0.0458106)
(1.2329 0.0293239 -0.0701844)
(1.25743 0.035482 -0.0383061)
(1.2019 -0.00503785 -0.00991695)
(1.19003 0.0404617 -0.0387374)
(1.19413 0.0169634 -0.0247691)
(1.20746 -0.00167083 -0.0100592)
(1.22188 -0.0557192 -0.0641335)
(1.21887 0.00387455 -0.0402567)
(1.24406 -0.00828019 -0.113108)
(1.24704 0.00191108 -0.0680693)
(1.2015 -0.0206389 -0.0602716)
(1.27995 0.0112118 -0.0955378)
(1.26714 -0.0455669 -0.0708894)
(1.28692 -0.0438583 -0.0677779)
(1.27102 -0.0144709 -0.0196444)
(1.26713 0.0261431 -0.00757946)
(1.24461 -0.00322123 -0.0163329)
(1.32294 -0.029329 -0.0256657)
(1.2551 -0.0399276 -0.0399723)
(1.26215 0.0176332 -0.0357766)
(0.2485 0.0660565 -0.0428253)
(1.67485 -0.384737 0.00763246)
(1.81663 -0.248083 -0.00200267)
(1.28887 -0.500267 -0.0246516)
(1.29471 -0.504388 -0.0307597)
(1.82398 -0.250143 -0.00025304)
(0.245208 0.0667911 -0.0537318)
(0.248192 0.0669369 -0.0389876)
(1.68266 -0.387553 -0.0222867)
(1.30457 -0.51022 -0.0251139)
(1.83654 -0.252956 -0.00176436)
(0.250801 0.0661438 -0.0317763)
(1.3007 -0.507533 -0.0167916)
(1.83145 -0.251595 -0.00356725)
(0.653995 -0.374772 -0.390455)
(1.44805 -0.257015 -0.0547204)
(1.38263 -0.203656 -0.0738529)
(1.17006 -0.376675 -0.265553)
(1.12443 -0.52911 -0.35558)
(1.60157 -0.244045 -0.0412789)
(1.42152 -0.419341 -0.163607)
(0.632059 0.111369 0.0673554)
(0.537665 0.0842533 -0.245577)
(0.733191 0.172822 0.0033312)
(0.604841 -0.309734 -0.247306)
(1.55532 -0.338563 -0.0427571)
(1.22892 -0.498052 -0.0893732)
(1.72524 -0.266386 0.00890721)
(0.306446 -0.0195071 -0.101109)
(1.22919 -0.532271 -0.211628)
(1.69562 -0.267433 -0.0100483)
(0.252327 0.0663927 -0.0246841)
(1.69571 -0.392409 0.00936461)
(1.30889 -0.511854 -0.0117062)
(1.84239 -0.253386 -0.00444639)
(0.25036 0.0670047 -0.0290188)
(1.31169 -0.513685 -0.020812)
(1.84617 -0.254563 -0.00152371)
(0.247547 0.0597434 -0.0713569)
(1.80514 -0.247401 0.00220892)
(1.64748 -0.374996 -0.0233085)
(1.28043 -0.49657 -0.038855)
(0.246357 0.0647415 -0.05846)
(1.2724 -0.491632 -0.0353403)
(1.79403 -0.246222 0.00152176)
(0.253461 0.0520119 -0.0758503)
(1.62592 -0.373531 0.00710012)
(1.2453 -0.487067 -0.0584219)
(1.75799 -0.251714 0.00646713)
(0.277961 0.0164323 -0.0946831)
(1.25964 -0.490753 -0.0500382)
(1.77529 -0.249425 0.0073627)
(1.65242 -0.132056 -0.107376)
(1.45564 -0.111351 -0.317464)
(1.66035 -0.126344 -0.20503)
(1.62585 -0.0706395 0.0275455)
(1.15393 -0.104583 0.0252138)
(1.66926 -0.0602387 0.0880497)
(1.14876 -0.113202 0.0116135)
(1.3799 -0.0312636 -0.0884617)
(1.56919 -0.0752879 -0.115699)
(1.53078 -0.1063 -0.223741)
(1.37476 -0.12997 0.0284118)
(1.38674 -0.0540886 0.0284321)
(1.41782 -0.104134 0.0695013)
(1.35119 -0.085717 -0.0139387)
(1.60415 -0.0754211 -0.256406)
(1.45344 -0.104603 -0.312248)
(1.64797 -0.111173 -0.241094)
(1.56685 -0.0888864 0.00457066)
(1.17351 -0.166908 0.0968237)
(1.47872 -0.0988553 -0.0477544)
(1.13061 -0.137734 0.066949)
(-0.250034 0.671388 -0.0430519)
(-0.162863 0.180447 0.00687746)
(-0.0170314 0.358924 -0.0585576)
(-0.0154913 0.356698 -0.0540695)
(-0.262633 0.688865 -0.093626)
(-0.267594 0.558592 -0.0686217)
(-0.0488777 0.0943989 -0.00411768)
(-0.261662 0.549758 -0.0265153)
(-0.0494081 0.0966661 -0.0275457)
(-0.262058 0.690415 -0.0833013)
(-0.177614 0.191818 -0.0640819)
(-0.0166653 0.360447 -0.047168)
(-0.0155348 0.358146 -0.0506215)
(-0.254559 0.679591 -0.0318095)
(-0.256731 0.543604 -0.0359205)
(-0.0494046 0.0960634 -0.0312248)
(-0.267065 0.557266 -0.0776673)
(-0.0483575 0.0936639 -0.00702985)
(1.30385 -0.230739 -0.0477129)
(-0.0212602 -0.0244007 -0.0202941)
(1.12334 -0.247237 -0.0152153)
(1.12537 -0.2488 -0.0122894)
(1.30312 -0.22969 0.0298865)
(1.26804 -0.199779 0.0330392)
(1.22152 0.0824062 -0.0357904)
(1.26915 -0.199185 -0.0484428)
(1.21918 0.0811643 0.0262927)
(1.3076 -0.231589 0.0311051)
(-0.0281628 -0.0243525 -0.0286028)
(1.12944 -0.249465 -0.0107124)
(1.1276 -0.249198 -0.0134145)
(1.3089 -0.230967 -0.0470577)
(1.26435 -0.199097 -0.0490381)
(1.21572 0.0812916 0.0262151)
(1.2638 -0.19824 0.0320814)
(1.21672 0.0815354 -0.0358677)
(1.29854 -0.229032 0.0296459)
(1.12226 -0.246829 -0.0135292)
(-0.0304011 -0.0232787 -0.0387092)
(1.11973 -0.24617 -0.0162727)
(1.3004 -0.228596 -0.0476402)
(1.25454 -0.196821 -0.0492192)
(1.20631 0.0805135 0.0261247)
(1.20853 0.0812776 -0.0353979)
(1.25372 -0.196412 0.03095)
(1.25943 -0.197769 0.0315527)
(1.2145 0.0822276 -0.0356178)
(1.26106 -0.19727 -0.0488923)
(1.21127 0.0806897 0.025685)
(1.29342 -0.227867 -0.047971)
(-0.0213546 -0.0232032 -0.0285069)
(1.11395 -0.24404 -0.0182616)
(1.11618 -0.245516 -0.0152076)
(1.2925 -0.227294 0.0286526)
(-0.258725 0.681324 -0.106979)
(-0.0159331 0.35577 -0.0640929)
(-0.179291 0.194107 -0.0722729)
(-0.0151324 0.353607 -0.0693107)
(-0.248603 0.666567 -0.0546703)
(-0.24875 0.532156 -0.0600585)
(-0.0491793 0.0948637 -0.0406956)
(-0.261152 0.550028 -0.103537)
(-0.0479539 0.0915173 -0.015747)
(-0.243824 0.656998 -0.0717473)
(-0.160119 0.179402 -0.00570521)
(-0.0165315 0.353547 -0.0808578)
(-0.0152233 0.351881 -0.0745216)
(-0.25869 0.678376 -0.123085)
(-0.26261 0.552052 -0.0890976)
(-0.0485108 0.0926506 -0.0107267)
(-0.25438 0.539551 -0.0454387)
(-0.0491702 0.0955396 -0.0348367)
(-0.107234 0.457564 0.0739894)
(-0.0861328 0.163889 -0.039917)
(0.365133 -0.280184 -0.368373)
(0.230303 -0.0594009 -0.242105)
(0.0262143 0.169932 0.200805)
(-0.215528 0.489797 0.0114238)
(-0.0574747 0.100357 -0.0328368)
(-0.242612 0.528069 -0.0424969)
(-0.0811327 0.102763 -0.0227145)
(-0.141384 0.514813 -0.0305643)
(-0.159561 0.205006 -0.0683148)
(0.0464333 0.239596 -0.123947)
(0.104873 0.1493 -0.15668)
(-0.208895 0.603602 -0.0525954)
(-0.198332 0.479 0.103098)
(-0.110188 0.100383 0.141789)
(-0.0798455 0.261895 0.16973)
(-0.089333 0.12225 0.0248012)
(1.32315 -0.268993 -0.0524007)
(0.0538087 -0.0881945 -0.0706227)
(1.21669 -0.327083 -0.108587)
(1.1738 -0.300272 -0.0450191)
(1.36724 -0.302992 -0.0660248)
(1.28997 -0.224705 0.0146122)
(1.20931 0.0809449 -0.0297355)
(1.26048 -0.210983 -0.0429704)
(1.22368 0.0780915 0.0187979)
(1.33282 -0.264046 0.0130481)
(0.0238256 -0.0733808 -0.08312)
(1.13548 -0.267792 -0.0216062)
(1.15756 -0.281363 -0.0289318)
(1.30149 -0.246564 -0.0411382)
(1.27801 -0.227331 -0.055721)
(1.22247 0.0718928 -0.00902404)
(1.31617 -0.252882 -0.0541486)
(1.21475 0.0802247 -0.0389239)
(0.488793 -0.149849 -0.0461977)
(0.635498 0.00496561 0.184591)
(0.566749 -0.0933635 -0.120617)
(0.516187 0.0915792 -0.230701)
(0.982354 0.157735 -0.105786)
(0.852052 0.178986 -0.0318929)
(0.696242 -0.0838398 0.148393)
(0.820772 -0.0404729 -0.196153)
(0.675587 -0.0855326 -0.157631)
(1.53461 -0.324772 -0.256213)
(1.2907 -0.367078 -0.199781)
(0.186267 -0.183897 -0.0392251)
(1.3198 -0.362915 -0.31256)
(1.40589 -0.321228 -0.129905)
(1.5724 -0.212019 -0.244326)
(1.69948 -0.150682 0.106243)
(1.19998 -0.270711 0.15527)
(1.66279 -0.20998 0.0325227)
(1.58343 0.123313 -0.125718)
(1.4983 -0.267715 -0.23232)
(1.25793 0.0851405 -0.062963)
(1.34949 -0.265315 -0.121003)
(1.3356 0.0913506 -0.0616013)
(1.5742 -0.27617 -0.251303)
(0.189387 -0.0233461 -0.253496)
(1.54719 -0.320553 -0.0837665)
(1.30965 -0.37292 0.0635688)
(1.63567 -0.296853 -0.00194296)
(1.25656 -0.316966 -0.248386)
(-0.141868 0.508707 0.14432)
(0.286673 -0.240303 -0.419372)
(0.00920867 0.0483525 0.228424)
(0.119559 0.106924 -0.202602)
(0.00417482 0.223536 0.293047)
(0.241214 0.0461709 -0.0784043)
(0.574884 0.0433282 -0.212645)
(1.16254 0.1123 -0.176587)
(1.31755 0.0752707 -0.239145)
(0.148919 0.0141482 -0.0537853)
(0.105915 0.260372 -0.191301)
(0.111311 0.291434 -0.083635)
(1.15691 -0.250596 -0.215203)
(1.01838 -0.071048 -0.257871)
(1.18369 -0.0707778 -0.292716)
(0.646658 0.169326 -0.303084)
(-0.0721685 0.419235 0.255209)
(-0.0943093 0.120439 0.190922)
(-0.117133 0.330949 0.292211)
(-0.023414 0.0448652 0.00223824)
(-0.264644 0.697325 -0.0691784)
(-0.176611 0.190417 -0.0588754)
(-0.0175008 0.364158 -0.0364694)
(-0.0162124 0.361884 -0.0385365)
(-0.259018 0.689045 -0.0179788)
(-0.262598 0.552002 -0.021193)
(-0.0496427 0.0970068 -0.0258214)
(-0.271624 0.563227 -0.0621445)
(-0.0486355 0.0949647 -0.00198688)
(-0.254922 0.682245 -0.0251298)
(-0.165058 0.181448 0.015678)
(-0.0177001 0.363125 -0.0434071)
(-0.265873 0.697066 -0.0754182)
(-0.016119 0.360685 -0.0405799)
(-0.271202 0.563609 -0.0566213)
(-0.0491578 0.0956543 -0.000233023)
(-0.266899 0.557023 -0.0152156)
(-0.0495179 0.0972672 -0.0234293)
(1.31501 -0.233532 0.0326935)
(-0.0266907 -0.0250527 -0.0219206)
(1.13519 -0.251328 -0.00854266)
(1.31588 -0.232807 -0.0462936)
(1.13382 -0.2513 -0.0110553)
(1.27183 -0.200779 -0.04833)
(1.22307 0.0818512 0.0268788)
(1.27162 -0.199867 0.033605)
(1.22335 0.0818207 -0.0356887)
(1.31169 -0.2328 -0.0469127)
(-0.021374 -0.0251062 -0.0147602)
(1.13032 -0.249619 -0.0125387)
(1.31129 -0.231744 0.0314664)
(1.13192 -0.250921 -0.00970312)
(1.27513 -0.201352 0.0346165)
(1.22758 0.0826707 -0.0356142)
(1.22588 0.081652 0.0271049)
(1.27586 -0.2007 -0.0477466)
(1.31799 -0.233516 0.0327593)
(1.22926 0.0823311 0.0275931)
(1.27806 -0.201277 0.034917)
(-0.268375 0.703223 -0.0649382)
(-0.0498081 0.0976425 -0.0227723)
(-0.275017 0.567765 -0.0532828)
(-0.253442 0.663267 -0.161308)
(-0.180656 0.201347 -0.0843497)
(-0.00861607 0.331575 -0.107766)
(-0.00279397 0.320635 -0.108702)
(-0.236502 0.636018 -0.1253)
(-0.24488 0.521639 -0.112125)
(-0.0606114 0.0993903 -0.0528983)
(-0.267027 0.550603 -0.102074)
(-0.0519344 0.0908058 -0.0478835)
(-0.233248 0.629297 -0.120153)
(-0.151035 0.179063 -0.0241004)
(0.0201401 0.282561 -0.112745)
(-0.240198 0.642927 -0.115192)
(0.00608456 0.303337 -0.109398)
(-0.261089 0.54926 -0.147771)
(-0.0488365 0.088902 -0.0391511)
(-0.239159 0.51821 -0.110585)
(-0.0529768 0.0960853 -0.0658062)
(1.29029 -0.232041 0.0302997)
(-0.0251681 -0.0301184 -0.067733)
(1.11123 -0.245732 -0.0176203)
(1.28576 -0.228229 -0.0443128)
(1.11226 -0.246962 -0.0192888)
(1.24244 -0.199823 -0.043556)
(1.19828 0.076935 0.0284173)
(1.25209 -0.207818 0.0300784)
(1.19905 0.0805285 -0.0303314)
(1.2804 -0.231729 -0.0415196)
(-0.00979308 -0.0308552 -0.0512004)
(1.11354 -0.255399 -0.0214652)
(1.29101 -0.241452 0.0274)
(1.10712 -0.249667 -0.0169339)
(1.25168 -0.2003 0.031752)
(1.20308 0.0817862 -0.0314704)
(1.20212 0.0795414 0.027564)
(1.24714 -0.196944 -0.0454715)
(1.2838 -0.226481 -0.0464398)
(-0.019681 -0.0233558 -0.0390075)
(1.10734 -0.243525 -0.0198826)
(1.10777 -0.243635 -0.01717)
(1.28534 -0.228288 0.0291342)
(1.25115 -0.196563 0.0310089)
(1.20666 0.0820147 -0.0345871)
(1.25163 -0.195412 -0.0484974)
(1.20354 0.0801501 0.0260638)
(1.28973 -0.227413 0.0291405)
(-0.0319433 -0.0231204 -0.0523163)
(1.11377 -0.244076 -0.0165068)
(1.2904 -0.226275 -0.047404)
(1.11159 -0.243536 -0.0188472)
(1.24561 -0.195761 -0.0477439)
(1.19898 0.0794267 0.0275365)
(1.20157 0.081008 -0.0336445)
(1.24694 -0.197369 0.0314992)
(-0.237828 0.641151 -0.110754)
(-0.157057 0.178979 -0.0196039)
(-0.0129712 0.341639 -0.103792)
(-0.0136054 0.343083 -0.098589)
(-0.255755 0.668674 -0.157892)
(-0.257255 0.545621 -0.121088)
(-0.0481782 0.0903369 -0.0219786)
(-0.245272 0.526646 -0.0753572)
(-0.0492579 0.094505 -0.0473161)
(-0.255351 0.670875 -0.141877)
(-0.181401 0.19759 -0.0824308)
(-0.0151463 0.34927 -0.0877629)
(-0.241718 0.650226 -0.0895523)
(-0.0142334 0.346469 -0.0935354)
(-0.240564 0.520093 -0.0951054)