/*--------------------------------*- C++ -*----------------------------------*\
| =========                 |                                                 |
| \\      /  F ield         | OpenFOAM: The Open Source CFD Toolbox           |
|  \\    /   O peration     | Version:  2012                                  |
|   \\  /    A nd           | Website:  www.openfoam.com                      |
|    \\/     M anipulation  |                                                 |
\*---------------------------------------------------------------------------*/
FoamFile
{
    version     2.0;
    format      ascii;
    class       surfaceVectorField;
    location    "0.107/fluid";
    object      Uf;
}
// * * * * * * * * * * * * * * * * * * * * * * * * * * * * * * * * * * * * * //

dimensions      [0 1 -1 0 0 0 0];


internalField   nonuniform List<vector> 
47129
(
(0.886362 -0.28535 -0.0256764)
(1.0039 -0.218374 -0.0212942)
(1.0709 -0.192547 -0.0220288)
(1.00672 -0.215158 -0.0262665)
(1.07105 -0.156947 -0.0221919)
(1.17187 0.00595524 -0.0173487)
(1.17007 0.00687974 -0.0156609)
(1.16609 0.00167655 -0.0163343)
(1.1722 0.00696763 -0.0172738)
(1.1718 0.004442 -0.0155592)
(1.18405 -0.00163711 -0.00971346)
(1.18294 -0.00177655 -0.010634)
(1.186 -0.00136613 -0.00934763)
(1.18536 -0.00283097 -0.00983705)
(1.18542 -0.00155996 -0.010161)
(1.19175 -0.000519561 -0.00589052)
(1.1915 -0.000566781 -0.00638858)
(1.19266 -0.000453555 -0.00563337)
(1.19246 -0.00107604 -0.00593863)
(1.19255 -0.000486776 -0.00605772)
(1.19511 -0.000211977 -0.00358329)
(1.19504 -0.000230574 -0.00387293)
(1.19558 -0.000185575 -0.00342222)
(1.19566 -0.000500314 -0.00361386)
(1.19557 -0.000198417 -0.00366241)
(1.19677 -9.63361e-05 -0.00219766)
(1.19675 -0.000103313 -0.00237049)
(1.19703 -8.73507e-05 -0.00210051)
(1.19735 -0.000259329 -0.00222193)
(1.19704 -9.22466e-05 -0.00224235)
(1.19769 -5.41802e-05 -0.00136328)
(1.19768 -5.71138e-05 -0.00146778)
(1.19785 -5.07936e-05 -0.0013043)
(1.19833 -0.000150806 -0.00138023)
(1.19785 -5.30645e-05 -0.00138989)
(1.19824 -3.70334e-05 -0.000853956)
(1.19824 -3.84436e-05 -0.000918367)
(1.19835 -3.55673e-05 -0.00081799)
(1.19891 -9.58341e-05 -0.000865265)
(1.19835 -3.67467e-05 -0.000870559)
(1.19861 -2.92689e-05 -0.000540024)
(1.1986 -2.96732e-05 -0.000580063)
(1.19867 -2.85025e-05 -0.000517463)
(1.19927 -6.52093e-05 -0.000546645)
(1.19867 -2.88317e-05 -0.00055019)
(1.19886 -2.84751e-05 -0.000341948)
(1.19885 -2.82058e-05 -0.000367519)
(1.19891 -2.86726e-05 -0.000327687)
(1.19949 -4.98902e-05 -0.000346397)
(1.1989 -2.82309e-05 -0.000348815)
(1.19906 -2.95429e-05 -0.000217058)
(1.19905 -2.93169e-05 -0.000233074)
(1.19909 -2.96377e-05 -0.000208066)
(1.19963 -4.03795e-05 -0.000219709)
(1.19908 -2.92773e-05 -0.000221241)
(1.19922 -3.16013e-05 -0.000136083)
(1.1992 -3.1441e-05 -0.000146587)
(1.19924 -3.22302e-05 -0.000130335)
(1.19972 -3.52749e-05 -0.000138539)
(1.19923 -3.19135e-05 -0.000139097)
(1.19935 -3.76539e-05 -8.39783e-05)
(1.19934 -3.68031e-05 -9.06516e-05)
(1.19937 -3.89132e-05 -7.9899e-05)
(1.19977 -3.44165e-05 -8.55493e-05)
(1.19936 -3.7998e-05 -8.54823e-05)
(1.19949 -4.59931e-05 -4.88958e-05)
(1.19948 -4.52593e-05 -5.33686e-05)
(1.19951 -4.63913e-05 -4.58151e-05)
(1.19981 -3.66516e-05 -5.00709e-05)
(1.1995 -4.6347e-05 -4.98257e-05)
(1.35069 -0.0105857 -0.00291436)
(1.32297 -0.0117712 -0.00222474)
(1.31188 -0.0324728 -0.00590476)
(1.31743 -0.0121283 -0.00218692)
(1.30106 -0.00709411 -0.00328079)
(1.20318 -0.0763899 -0.0172777)
(1.22096 -0.0574049 -0.016328)
(1.20686 -0.0517837 -0.0145194)
(1.20623 -0.0499114 -0.0167554)
(1.20068 -0.0474681 -0.0169137)
(1.2117 -0.0524038 -0.0154008)
(1.18531 -0.0233317 -0.0125724)
(1.18385 -0.022536 -0.0140015)
(1.18617 -0.026481 -0.0143018)
(1.18676 -0.0223137 -0.0134188)
(1.18715 -0.0204415 -0.0129564)
(1.19044 -0.0227356 -0.012983)
(1.19056 -0.00887957 -0.00846501)
(1.19021 -0.00825749 -0.00889108)
(1.19066 -0.00978012 -0.00922794)
(1.19166 -0.00788701 -0.0082016)
(1.19224 -0.00905439 -0.00843739)
(1.19166 -0.00842639 -0.00873302)
(1.19413 -0.00416198 -0.00534344)
(1.19413 -0.00375087 -0.00552097)
(1.19413 -0.00444896 -0.00576096)
(1.19479 -0.00374334 -0.0051206)
(1.19488 -0.00432616 -0.00530475)
(1.19483 -0.00394614 -0.00547475)
(1.19634 -0.00220036 -0.00333426)
(1.1964 -0.0019574 -0.00342561)
(1.19634 -0.00232418 -0.00359144)
(1.19675 -0.00200474 -0.00319079)
(1.19674 -0.00231994 -0.00332305)
(1.19678 -0.00209799 -0.00340444)
(1.1977 -0.00125606 -0.00208176)
(1.19776 -0.00111216 -0.00213207)
(1.1977 -0.00131931 -0.00224038)
(1.19795 -0.00115515 -0.00199255)
(1.19793 -0.00133779 -0.00208113)
(1.19797 -0.00120521 -0.00212317)
(1.19854 -0.00074926 -0.00130698)
(1.19858 -0.000662956 -0.00133565)
(1.19854 -0.000785765 -0.00140519)
(1.1987 -0.000693518 -0.00125178)
(1.19868 -0.000804055 -0.00130979)
(1.19871 -0.000723441 -0.00133242)
(1.19907 -0.000458682 -0.000825665)
(1.1991 -0.000406234 -0.000842496)
(1.19907 -0.000480823 -0.000886993)
(1.19917 -0.000426655 -0.000791376)
(1.19915 -0.000495214 -0.000828993)
(1.19918 -0.000445191 -0.000841671)
(1.19941 -0.000285639 -0.000524064)
(1.19942 -0.000253392 -0.000534098)
(1.1994 -0.000299546 -0.00056268)
(1.19947 -0.000266487 -0.000502348)
(1.19946 -0.000310305 -0.000526764)
(1.19947 -0.00027831 -0.000534003)
(1.19962 -0.000178327 -0.000333381)
(1.19963 -0.000159421 -0.000339508)
(1.19962 -0.000187452 -0.000357837)
(1.19966 -0.000166371 -0.000319636)
(1.19965 -0.000195854 -0.000335502)
(1.19966 -0.000174324 -0.000339769)
(1.19975 -0.000108898 -0.000212116)
(1.19976 -9.93511e-05 -0.00021598)
(1.19975 -0.000114993 -0.000227817)
(1.19978 -0.000101536 -0.000203551)
(1.19977 -0.000122406 -0.000213912)
(1.19978 -0.000106831 -0.000216487)
(1.19984 -6.57422e-05 -0.000134929)
(1.19984 -6.25181e-05 -0.000137355)
(1.19984 -6.9737e-05 -0.000145017)
(1.19986 -6.11312e-05 -0.000129213)
(1.19986 -7.76594e-05 -0.000136347)
(1.19986 -6.4735e-05 -0.000137668)
(1.1999 -3.61143e-05 -8.30827e-05)
(1.1999 -3.85022e-05 -8.48349e-05)
(1.1999 -3.91026e-05 -8.97206e-05)
(1.19991 -3.28323e-05 -7.91284e-05)
(1.19991 -4.73141e-05 -8.42662e-05)
(1.19991 -3.55463e-05 -8.46034e-05)
(1.19993 -1.54144e-05 -4.89609e-05)
(1.19993 -2.18887e-05 -5.01392e-05)
(1.19993 -1.74022e-05 -5.34207e-05)
(1.19993 -1.34783e-05 -4.60391e-05)
(1.19993 -2.56984e-05 -4.99446e-05)
(1.19994 -1.52197e-05 -5.0045e-05)
(1.25018 0.00129374 -0.00373209)
(1.24877 0.00162112 -0.00478893)
(1.24534 -0.00148465 -0.00761101)
(1.24422 0.0046326 -0.00559063)
(1.24631 0.000499511 -0.00421111)
(1.22055 -0.0155876 -0.0135931)
(1.21615 -0.0168387 -0.0111977)
(1.21855 -0.0176454 -0.0125051)
(1.21731 -0.00852912 -0.0117783)
(1.21607 -0.0161614 -0.0123271)
(1.2131 -0.0167058 -0.013687)
(1.19957 -0.0144331 -0.00940076)
(1.2012 -0.0143931 -0.0105545)
(1.20159 -0.0147523 -0.0112063)
(1.19997 -0.0133712 -0.0101312)
(1.20268 -0.0122771 -0.0097738)
(1.20075 -0.0136671 -0.00977993)
(1.19713 -0.00886374 -0.00658083)
(1.19726 -0.00870288 -0.00702253)
(1.19785 -0.00925142 -0.00724932)
(1.19762 -0.00810789 -0.00647177)
(1.19847 -0.00836511 -0.00654778)
(1.19798 -0.00839073 -0.00667123)
(1.19732 -0.00523996 -0.00435633)
(1.19723 -0.00507711 -0.00454333)
(1.19755 -0.0054649 -0.00466035)
(1.19765 -0.00480162 -0.00418825)
(1.19793 -0.00509945 -0.00427817)
(1.19784 -0.00497535 -0.00443625)
(1.19796 -0.00314409 -0.00282995)
(1.19793 -0.00300619 -0.00293652)
(1.19806 -0.00327862 -0.00303069)
(1.19821 -0.00289405 -0.00271725)
(1.19834 -0.00311301 -0.00279311)
(1.19831 -0.00300089 -0.00288403)
(1.19859 -0.00192204 -0.00182266)
(1.19858 -0.00182678 -0.00188312)
(1.19863 -0.00200499 -0.00195363)
(1.19876 -0.00177833 -0.00174949)
(1.19882 -0.00192603 -0.00180686)
(1.19881 -0.00184583 -0.00185747)
(1.19906 -0.00119452 -0.00117215)
(1.19905 -0.0011327 -0.00120697)
(1.19908 -0.00124738 -0.00125649)
(1.19917 -0.00110971 -0.00112498)
(1.1992 -0.00120633 -0.00116603)
(1.1992 -0.0011536 -0.00119461)
(1.19938 -0.000750212 -0.000754458)
(1.19938 -0.000710989 -0.000774459)
(1.19939 -0.000784442 -0.000808187)
(1.19946 -0.000699739 -0.000724256)
(1.19947 -0.000762457 -0.000752732)
(1.19947 -0.000728498 -0.000768433)
(1.1996 -0.000475762 -0.000485601)
(1.1996 -0.000450968 -0.000497271)
(1.19961 -0.000498146 -0.000520384)
(1.19965 -0.00044473 -0.000465821)
(1.19966 -0.000485424 -0.000485532)
(1.19966 -0.00046403 -0.000494335)
(1.19974 -0.000300527 -0.000312574)
(1.19974 -0.000285209 -0.000319671)
(1.19974 -0.000315415 -0.000334894)
(1.19977 -0.000281355 -0.000300177)
(1.19978 -0.000307568 -0.000313296)
(1.19978 -0.000294157 -0.000318571)
(1.19984 -0.000192677 -0.000201166)
(1.19984 -0.000182309 -0.000205665)
(1.19984 -0.000202007 -0.000215919)
(1.19986 -0.000181125 -0.000193504)
(1.19986 -0.000198527 -0.000202373)
(1.19986 -0.000189386 -0.000205623)
(1.1999 -0.000121514 -0.000129765)
(1.1999 -0.000115507 -0.000132164)
(1.1999 -0.000128426 -0.000139128)
(1.19991 -0.000113719 -0.000124222)
(1.19992 -0.00012507 -0.000130514)
(1.19992 -0.000119866 -0.000132066)
(1.19994 -7.20955e-05 -8.07715e-05)
(1.19994 -6.92161e-05 -8.23239e-05)
(1.19994 -7.69054e-05 -8.70696e-05)
(1.19995 -6.67656e-05 -7.70468e-05)
(1.19995 -7.47181e-05 -8.13325e-05)
(1.19995 -7.11045e-05 -8.22945e-05)
(1.19996 -3.91536e-05 -4.73916e-05)
(1.19996 -3.92875e-05 -4.86857e-05)
(1.19996 -4.21986e-05 -5.18574e-05)
(1.19996 -3.56089e-05 -4.45878e-05)
(1.19997 -4.17723e-05 -4.79362e-05)
(1.19997 -3.84039e-05 -4.86063e-05)
(1.30503 0.0811308 -0.00694975)
(1.28775 0.0570691 -0.00228323)
(1.29097 0.0807995 -0.00121672)
(1.30765 0.0686798 -0.00385512)
(1.29913 0.0761633 -0.00563647)
(1.19333 -0.00207301 -0.0175922)
(1.19337 -0.00457082 -0.013564)
(1.20233 0.00619553 -0.0128672)
(1.19121 0.00736916 -0.0159786)
(1.19647 -0.00397852 -0.018092)
(1.1965 -0.00229448 -0.0145001)
(1.19718 -0.00573947 -0.00945147)
(1.19684 -0.00667923 -0.00791532)
(1.20125 -0.00734524 -0.00818727)
(1.20208 -0.00875556 -0.00782723)
(1.19852 -0.00643505 -0.00825377)
(1.1988 -0.00658196 -0.0080169)
(1.20013 -0.00665309 -0.00496915)
(1.20058 -0.00666751 -0.00524996)
(1.20062 -0.00659535 -0.00541482)
(1.20041 -0.00622182 -0.00484691)
(1.20089 -0.00639674 -0.00485827)
(1.20076 -0.00625827 -0.00501534)
(1.19969 -0.00480238 -0.00334467)
(1.19965 -0.00476106 -0.0035062)
(1.19994 -0.00490721 -0.00355878)
(1.19983 -0.0044651 -0.00322598)
(1.20011 -0.00459973 -0.00326185)
(1.20006 -0.00455829 -0.00339777)
(1.19953 -0.00320177 -0.00225234)
(1.19948 -0.00315382 -0.00235327)
(1.19967 -0.00330192 -0.00239986)
(1.19965 -0.00297416 -0.00217177)
(1.19982 -0.00309277 -0.00220931)
(1.19978 -0.00305799 -0.00229384)
(1.19958 -0.00208371 -0.00150434)
(1.19955 -0.00204444 -0.00156436)
(1.19966 -0.0021597 -0.00160474)
(1.19967 -0.0019386 -0.00144973)
(1.19975 -0.00200245 -0.00153288)
(1.19968 -0.00134465 -0.0009985)
(1.19966 -0.00131707 -0.00103342)
(1.19973 -0.00139856 -0.00106573)
(1.19975 -0.00125399 -0.000961232)
(1.1998 -0.00129958 -0.00101672)
(1.19977 -0.000867239 -0.000661793)
(1.19976 -0.000849091 -0.00068187)
(1.1998 -0.000904338 -0.000705865)
(1.19982 -0.000810799 -0.000636777)
(1.19985 -0.00084266 -0.000673051)
(1.19984 -0.000557711 -0.000434901)
(1.19984 -0.000546108 -0.00044704)
(1.19986 -0.000583133 -0.000465099)
(1.19988 -0.000522161 -0.000417945)
(1.1999 -0.000544193 -0.000442796)
(1.1999 -0.000360319 -0.000284007)
(1.1999 -0.000352114 -0.000291853)
(1.19991 -0.000376593 -0.000303887)
(1.19993 -0.000338611 -0.000273753)
(1.19994 -0.000352647 -0.000290169)
(1.19995 -0.000232982 -0.000187339)
(1.19994 -0.000228683 -0.000191544)
(1.19995 -0.00024487 -0.000200027)
(1.19996 -0.000218621 -0.000180427)
(1.19997 -0.000229229 -0.000190801)
(1.19997 -0.000145033 -0.000122515)
(1.19997 -0.000142451 -0.000124954)
(1.19997 -0.000153204 -0.000131252)
(1.19998 -0.00013562 -0.000117098)
(1.19998 -0.000142839 -0.000124451)
(1.19999 -8.73334e-05 -7.63922e-05)
(1.19998 -8.55633e-05 -7.81205e-05)
(1.19999 -9.28482e-05 -8.23594e-05)
(1.19999 -8.13477e-05 -7.31861e-05)
(1.2 -8.62847e-05 -7.82902e-05)
(1.2 -4.93625e-05 -4.46357e-05)
(1.2 -4.8369e-05 -4.56311e-05)
(1.2 -5.31407e-05 -4.88243e-05)
(1.2 -4.49303e-05 -4.19018e-05)
(1.20001 -4.85933e-05 -4.55548e-05)
(0.945166 -0.260177 -0.0498752)
(1.03835 -0.197505 -0.0481903)
(1.10019 -0.148638 -0.0457805)
(1.06193 -0.139946 -0.0678322)
(1.10225 -0.132089 -0.0387815)
(1.19368 0.00956596 -0.0261217)
(1.18563 0.00783686 -0.0221812)
(1.18405 0.00390055 -0.0219046)
(1.18692 0.00449173 -0.0192292)
(1.18728 0.0049354 -0.0193425)
(1.19037 -0.00124794 -0.010977)
(1.19007 -0.00136818 -0.0119043)
(1.1921 -0.000990255 -0.0102335)
(1.19182 -0.00208354 -0.0108521)
(1.19229 -0.00107063 -0.0110658)
(1.19516 -0.000375226 -0.00616317)
(1.19526 -0.000401444 -0.00658265)
(1.19588 -0.000319898 -0.00573203)
(1.19591 -0.000794366 -0.00606359)
(1.19606 -0.000335754 -0.00602817)
(1.197 -0.000156613 -0.00364057)
(1.19709 -0.00016665 -0.00385089)
(1.19736 -0.000136628 -0.00338768)
(1.19764 -0.000385634 -0.00358405)
(1.19747 -0.000143005 -0.00353969)
(1.19787 -7.92383e-05 -0.00221106)
(1.19793 -8.29192e-05 -0.00232792)
(1.19806 -7.261e-05 -0.00205967)
(1.19852 -0.000214426 -0.00218036)
(1.19813 -7.5243e-05 -0.00214444)
(1.19835 -4.996e-05 -0.00136601)
(1.19839 -5.21478e-05 -0.00143453)
(1.19847 -4.73457e-05 -0.0012736)
(1.19904 -0.000132632 -0.0013488)
(1.19851 -4.91307e-05 -0.00132335)
(1.19865 -3.58659e-05 -0.000855369)
(1.19868 -3.70501e-05 -0.000896379)
(1.19873 -3.4392e-05 -0.000798406)
(1.19935 -8.71457e-05 -0.000844486)
(1.19875 -3.54028e-05 -0.000827994)
(1.19887 -2.77429e-05 -0.000539214)
(1.19888 -2.84552e-05 -0.000564585)
(1.19891 -2.72139e-05 -0.000503211)
(1.19954 -5.98177e-05 -0.000532203)
(1.19893 -2.75806e-05 -0.000521482)
(1.19902 -2.75544e-05 -0.000341294)
(1.19902 -2.74148e-05 -0.000357357)
(1.19906 -2.76339e-05 -0.000318934)
(1.19966 -4.68186e-05 -0.000337119)
(1.19906 -2.74681e-05 -0.000330334)
(1.19915 -2.86874e-05 -0.000216745)
(1.19915 -2.83659e-05 -0.000226642)
(1.19918 -2.90768e-05 -0.000202517)
(1.19974 -3.84473e-05 -0.000213988)
(1.19918 -2.87193e-05 -0.000209706)
(1.19927 -3.22147e-05 -0.000137573)
(1.19926 -3.18214e-05 -0.0001442)
(1.19929 -3.28021e-05 -0.000128182)
(1.19979 -3.49191e-05 -0.000136049)
(1.19929 -3.23055e-05 -0.000133118)
(1.19939 -3.93099e-05 -8.4277e-05)
(1.19938 -3.83799e-05 -8.91538e-05)
(1.19941 -4.05596e-05 -7.84309e-05)
(1.19982 -3.51004e-05 -8.39715e-05)
(1.1994 -3.95693e-05 -8.19484e-05)
(1.19952 -4.73841e-05 -4.8884e-05)
(1.19951 -4.66756e-05 -5.204e-05)
(1.19954 -4.77383e-05 -4.45798e-05)
(1.19984 -3.76175e-05 -4.87026e-05)
(1.19953 -4.76294e-05 -4.74722e-05)
(1.3078 -0.0105184 -0.00306373)
(1.29147 -0.0118231 -0.00198419)
(1.27894 -0.025391 -0.00905332)
(1.27749 -0.0112031 -0.00172551)
(1.27221 -0.00685215 -0.00238443)
(1.20484 -0.0502568 -0.0291308)
(1.21649 -0.0381382 -0.028201)
(1.20661 -0.03708 -0.0264677)
(1.20882 -0.0307915 -0.027699)
(1.20367 -0.0314329 -0.0262883)
(1.21068 -0.0352795 -0.0227042)
(1.19249 -0.0169948 -0.0158522)
(1.19205 -0.0154488 -0.0169586)
(1.19389 -0.0180698 -0.0173185)
(1.19509 -0.014772 -0.015903)
(1.19422 -0.0141141 -0.0148938)
(1.19636 -0.0157473 -0.0147548)
(1.19525 -0.00665182 -0.00917274)
(1.19525 -0.0059998 -0.00945308)
(1.19569 -0.00705224 -0.00980973)
(1.19613 -0.00577334 -0.00858604)
(1.19663 -0.00660814 -0.00879542)
(1.19656 -0.00599465 -0.00903713)
(1.19702 -0.00323271 -0.00550546)
(1.19715 -0.00286477 -0.0055728)
(1.19724 -0.00338601 -0.00582754)
(1.19754 -0.00288263 -0.00513775)
(1.19769 -0.00331851 -0.00532279)
(1.19777 -0.00298289 -0.00536991)
(1.19812 -0.0017751 -0.00336998)
(1.19822 -0.00156378 -0.0033822)
(1.19824 -0.00184943 -0.00354823)
(1.19842 -0.00161156 -0.00314317)
(1.19848 -0.00185738 -0.00327333)
(1.19855 -0.00166634 -0.0032725)
(1.19879 -0.00104844 -0.00209081)
(1.19886 -0.000923164 -0.00208914)
(1.19886 -0.00109068 -0.00219566)
(1.19898 -0.000963158 -0.00195081)
(1.199 -0.00111153 -0.00203745)
(1.19905 -0.000996814 -0.002027)
(1.19922 -0.000644727 -0.00130922)
(1.19927 -0.000568465 -0.00130464)
(1.19926 -0.000671244 -0.00137273)
(1.19934 -0.000596889 -0.00122227)
(1.19934 -0.000690208 -0.0012789)
(1.19938 -0.000619006 -0.00126827)
(1.19949 -0.000404247 -0.000826316)
(1.19952 -0.000357451 -0.000821895)
(1.19952 -0.000421768 -0.000865381)
(1.19957 -0.000376057 -0.00077193)
(1.19957 -0.000435773 -0.000808792)
(1.19959 -0.000391155 -0.000800204)
(1.19967 -0.000255669 -0.000523794)
(1.19969 -0.000226612 -0.000520498)
(1.19969 -0.000267111 -0.000548398)
(1.19972 -0.000238501 -0.000489555)
(1.19972 -0.000277542 -0.000513315)
(1.19973 -0.00024849 -0.000507403)
(1.19979 -0.00016205 -0.000333479)
(1.1998 -0.000144931 -0.000330998)
(1.1998 -0.000169704 -0.000348891)
(1.19982 -0.000151365 -0.000311731)
(1.19982 -0.000178113 -0.00032708)
(1.19983 -0.000158134 -0.000322866)
(1.19986 -0.000101209 -0.000212841)
(1.19987 -9.25846e-05 -0.000210996)
(1.19987 -0.000106626 -0.000222561)
(1.19988 -9.46437e-05 -0.000198984)
(1.19988 -0.000114206 -0.000209186)
(1.19989 -9.93993e-05 -0.000205974)
(1.19991 -6.14979e-05 -0.000135202)
(1.19991 -5.89521e-05 -0.000134158)
(1.19992 -6.52138e-05 -0.000141601)
(1.19993 -5.69624e-05 -0.000126009)
(1.19993 -7.30538e-05 -0.000132989)
(1.19993 -6.03287e-05 -0.00013078)
(1.19995 -3.36509e-05 -8.32703e-05)
(1.19994 -3.65757e-05 -8.29283e-05)
(1.19995 -3.62797e-05 -8.77655e-05)
(1.19995 -3.06302e-05 -7.74901e-05)
(1.19995 -4.49824e-05 -8.22985e-05)
(1.19996 -3.30211e-05 -8.09111e-05)
(1.19996 -1.4829e-05 -4.9063e-05)
(1.19996 -2.18005e-05 -4.86883e-05)
(1.19996 -1.6753e-05 -5.21508e-05)
(1.19997 -1.29544e-05 -4.50293e-05)
(1.19997 -2.48077e-05 -4.85863e-05)
(1.19997 -1.47269e-05 -4.76494e-05)
(1.23391 -0.00123374 -0.003616)
(1.234 -0.000706533 -0.00238034)
(1.23079 -0.00339785 -0.00509853)
(1.22965 -0.000145549 -0.00238212)
(1.23016 -0.00123265 -0.00309046)
(1.21799 -0.0118814 -0.0114001)
(1.21577 -0.0129139 -0.0120773)
(1.21632 -0.0138145 -0.0112777)
(1.21578 -0.0100484 -0.0097325)
(1.21548 -0.0113878 -0.0111577)
(1.21361 -0.0123816 -0.0116849)
(1.20359 -0.0108051 -0.00981771)
(1.20388 -0.0107389 -0.00990175)
(1.20501 -0.0107651 -0.0100782)
(1.20342 -0.00977274 -0.00925292)
(1.20494 -0.0094477 -0.00878571)
(1.20449 -0.00969521 -0.00940548)
(1.2002 -0.00677687 -0.0066456)
(1.20017 -0.00658541 -0.00683726)
(1.20084 -0.00691201 -0.00691723)
(1.2004 -0.00611856 -0.00624681)
(1.20101 -0.0063284 -0.00626272)
(1.20094 -0.00620321 -0.00643599)
(1.1994 -0.00413215 -0.00437258)
(1.19939 -0.00395591 -0.00446486)
(1.19972 -0.00424461 -0.00456292)
(1.19962 -0.00376256 -0.00409965)
(1.1999 -0.00398591 -0.0041773)
(1.19991 -0.00384498 -0.00423704)
(1.19935 -0.00255809 -0.00283338)
(1.19937 -0.0024264 -0.00287088)
(1.19952 -0.00263776 -0.00296)
(1.19952 -0.00234867 -0.00265271)
(1.19967 -0.00251962 -0.00272422)
(1.19969 -0.0024116 -0.00274452)
(1.19948 -0.001613 -0.00182347)
(1.1995 -0.00152514 -0.00183787)
(1.19958 -0.00166823 -0.00190587)
(1.19961 -0.00149128 -0.0017063)
(1.19969 -0.00161047 -0.00176171)
(1.1997 -0.00153691 -0.00176611)
(1.19963 -0.00102931 -0.00117256)
(1.19964 -0.000973249 -0.0011771)
(1.19969 -0.00106823 -0.00122501)
(1.19971 -0.000956114 -0.00109743)
(1.19976 -0.00103672 -0.00113705)
(1.19977 -0.00098929 -0.00113522)
(1.19975 -0.000661442 -0.000754529)
(1.19976 -0.000625252 -0.000755794)
(1.19978 -0.000687771 -0.000788978)
(1.1998 -0.000617091 -0.000706253)
(1.19983 -0.000670864 -0.000734255)
(1.19984 -0.000639913 -0.000731414)
(1.19984 -0.000427917 -0.00048423)
(1.19984 -0.000404614 -0.000483947)
(1.19986 -0.000446139 -0.000506184)
(1.19987 -0.000400154 -0.000453321)
(1.19989 -0.000436172 -0.0004722)
(1.19989 -0.000416176 -0.000469337)
(1.1999 -0.000275595 -0.000312551)
(1.1999 -0.000261224 -0.000311482)
(1.19991 -0.0002883 -0.000326301)
(1.19992 -0.00025856 -0.000292677)
(1.19993 -0.000282117 -0.00030546)
(1.19993 -0.000269577 -0.000302542)
(1.19994 -0.000178998 -0.000202522)
(1.19994 -0.000169258 -0.000201514)
(1.19995 -0.000187243 -0.000211367)
(1.19995 -0.000168199 -0.000189518)
(1.19996 -0.000184027 -0.000198049)
(1.19996 -0.000175534 -0.000195849)
(1.19997 -0.000114217 -0.00012931)
(1.19997 -0.000108247 -0.000128543)
(1.19997 -0.000120315 -0.0001354)
(1.19998 -0.000106832 -0.000120692)
(1.19998 -0.000117594 -0.00012675)
(1.19998 -0.000112425 -0.000125192)
(1.19998 -6.85213e-05 -8.08173e-05)
(1.19998 -6.60519e-05 -8.02754e-05)
(1.19999 -7.30398e-05 -8.48802e-05)
(1.19999 -6.36283e-05 -7.53061e-05)
(1.2 -7.13843e-05 -7.95358e-05)
(1.2 -6.7782e-05 -7.8422e-05)
(1.19999 -3.64919e-05 -4.82849e-05)
(1.19999 -3.70025e-05 -4.78486e-05)
(1.2 -3.9629e-05 -5.11868e-05)
(1.2 -3.31994e-05 -4.42322e-05)
(1.2 -3.92071e-05 -4.73779e-05)
(1.2 -3.60212e-05 -4.67078e-05)
(1.23155 0.00540561 -0.0123271)
(1.22549 0.00245413 -0.00667603)
(1.22274 0.00403503 -0.0119831)
(1.22619 0.00221263 -0.0086298)
(1.22448 0.00250201 -0.0075878)
(1.20985 -0.00184919 -0.0120037)
(1.21225 -0.00101465 -0.0128527)
(1.21228 -0.00408974 -0.00984216)
(1.21023 -0.00380275 -0.0107163)
(1.21046 -0.00289327 -0.0115869)
(1.21111 -0.00242004 -0.0103749)
(1.20429 -0.00553779 -0.0078009)
(1.20569 -0.00601918 -0.00703912)
(1.20566 -0.00539991 -0.0079578)
(1.20552 -0.00589014 -0.00680343)
(1.20472 -0.00554924 -0.00694279)
(1.2054 -0.00529733 -0.006926)
(1.2024 -0.00519739 -0.00482925)
(1.20258 -0.00517402 -0.00488593)
(1.20292 -0.00515088 -0.00497802)
(1.20247 -0.00485466 -0.00452149)
(1.20289 -0.00492433 -0.00451362)
(1.20291 -0.00482629 -0.00460117)
(1.20116 -0.0038159 -0.00330026)
(1.20116 -0.00375711 -0.0033747)
(1.20147 -0.00385739 -0.00341126)
(1.20123 -0.00353578 -0.00310374)
(1.2015 -0.0036224 -0.00313117)
(1.20151 -0.00357263 -0.00317969)
(1.20054 -0.0026213 -0.00224189)
(1.20053 -0.0025667 -0.00228354)
(1.20073 -0.00267771 -0.00232497)
(1.20061 -0.00243119 -0.00210772)
(1.20079 -0.00251987 -0.00214161)
(1.20078 -0.00247949 -0.00216675)
(1.20026 -0.00175665 -0.00150231)
(1.20025 -0.00171628 -0.0015225)
(1.20038 -0.00180702 -0.00156143)
(1.20032 -0.00163365 -0.00141075)
(1.20043 -0.00170634 -0.00144293)
(1.20043 -0.00167714 -0.00145305)
(1.20014 -0.00116265 -0.000998452)
(1.20013 -0.00113503 -0.00100809)
(1.2002 -0.001202 -0.00103906)
(1.20018 -0.00108454 -0.000938101)
(1.20025 -0.00113861 -0.000964159)
(1.20025 -0.00111875 -0.00096709)
(1.20008 -0.000767835 -0.00065903)
(1.20008 -0.00074981 -0.00066333)
(1.20013 -0.000796641 -0.000687198)
(1.20011 -0.000718187 -0.000618524)
(1.20016 -0.000743499 -0.000639329)
(1.20006 -0.000503785 -0.000432922)
(1.20005 -0.000492685 -0.000433945)
(1.20009 -0.000524717 -0.000450882)
(1.20008 -0.000472345 -0.000406448)
(1.20011 -0.000490731 -0.00041943)
(1.20004 -0.000329629 -0.000285659)
(1.20004 -0.00032218 -0.000285535)
(1.20006 -0.000344006 -0.000297671)
(1.20006 -0.000309776 -0.000267675)
(1.20008 -0.00032235 -0.000276284)
(1.20004 -0.000216862 -0.000186109)
(1.20004 -0.000212215 -0.000185649)
(1.20005 -0.000226729 -0.000193852)
(1.20005 -0.000203566 -0.000174222)
(1.20006 -0.000212575 -0.000179783)
(1.20003 -0.000136629 -0.000121866)
(1.20003 -0.000134383 -0.000121275)
(1.20004 -0.000144226 -0.000127016)
(1.20004 -0.000128008 -0.000114294)
(1.20005 -0.000134736 -0.000118054)
(1.20003 -8.36831e-05 -7.76457e-05)
(1.20003 -8.19597e-05 -7.72357e-05)
(1.20004 -8.88925e-05 -8.16983e-05)
(1.20004 -7.80168e-05 -7.23559e-05)
(1.20004 -8.28762e-05 -7.54699e-05)
(1.20003 -4.62659e-05 -4.57515e-05)
(1.20003 -4.52224e-05 -4.57399e-05)
(1.20004 -4.98887e-05 -4.89104e-05)
(1.20004 -4.2311e-05 -4.20448e-05)
(1.20004 -4.5686e-05 -4.48111e-05)
(1.24734 -0.00464378 -0.0488502)
(1.2462 -0.0139501 0.0314517)
(1.27047 -0.0234364 0.0261864)
(1.24477 -0.00505531 -6.36745e-05)
(1.20598 -0.00396852 -0.0351)
(1.19461 -0.00625582 -0.0239189)
(1.19758 -0.00820178 -0.0258775)
(1.19611 -0.00409226 -0.0260844)
(1.20707 -0.00314053 -0.0284992)
(1.19743 -0.00132813 -0.0196921)
(1.19846 -0.00162306 -0.0193166)
(1.19878 -0.00274631 -0.0173239)
(1.19818 -0.00124611 -0.0161679)
(1.20069 -0.00108276 -0.0166442)
(1.19794 -0.000553641 -0.00918287)
(1.19866 -0.000568056 -0.00956729)
(1.19879 -0.000452979 -0.00814843)
(1.19903 -0.00105618 -0.00864147)
(1.19945 -0.00045668 -0.00826244)
(1.19856 -0.000227008 -0.00506794)
(1.19892 -0.000235368 -0.00521175)
(1.19894 -0.000191424 -0.00452641)
(1.19927 -0.000512814 -0.00479659)
(1.19926 -0.000196459 -0.00457485)
(1.19877 -0.000107986 -0.00295404)
(1.19896 -0.000111885 -0.00302103)
(1.19896 -9.66308e-05 -0.00265298)
(1.19945 -0.000282525 -0.00281216)
(1.19914 -9.92917e-05 -0.00267291)
(1.19887 -6.58844e-05 -0.00178363)
(1.19897 -6.80988e-05 -0.00181711)
(1.19898 -6.17984e-05 -0.00160657)
(1.19957 -0.000176045 -0.00170273)
(1.19908 -6.36729e-05 -0.00161445)
(1.19895 -4.64838e-05 -0.00109936)
(1.19901 -4.79544e-05 -0.00111757)
(1.19902 -4.42387e-05 -0.000991805)
(1.19966 -0.000116583 -0.00105023)
(1.19907 -4.55911e-05 -0.000995045)
(1.19902 -3.38598e-05 -0.000686291)
(1.19905 -3.48495e-05 -0.000696362)
(1.19907 -3.24678e-05 -0.000619446)
(1.19973 -7.86323e-05 -0.000655356)
(1.1991 -3.33379e-05 -0.000620408)
(1.19909 -2.72861e-05 -0.000431179)
(1.19911 -2.7843e-05 -0.000436997)
(1.19912 -2.7093e-05 -0.000389271)
(1.19978 -5.68242e-05 -0.000412173)
(1.19914 -2.7383e-05 -0.000389559)
(1.19916 -2.75251e-05 -0.000273109)
(1.19917 -2.74391e-05 -0.000276676)
(1.19919 -2.7592e-05 -0.000247004)
(1.19981 -4.53513e-05 -0.000261217)
(1.19919 -2.75253e-05 -0.000246981)
(1.19924 -2.87774e-05 -0.000174389)
(1.19924 -2.83654e-05 -0.000176198)
(1.19926 -2.9163e-05 -0.000157571)
(1.19984 -3.72696e-05 -0.00016654)
(1.19926 -2.87426e-05 -0.000157413)
(1.19933 -3.23965e-05 -0.000110892)
(1.19932 -3.17699e-05 -0.000112705)
(1.19935 -3.31252e-05 -0.000100139)
(1.19985 -3.39102e-05 -0.000105997)
(1.19934 -3.21954e-05 -0.000100757)
(1.19943 -4.06528e-05 -6.76774e-05)
(1.19942 -3.96038e-05 -6.89022e-05)
(1.19945 -4.19211e-05 -6.10131e-05)
(1.19986 -3.5911e-05 -6.53149e-05)
(1.19944 -4.0979e-05 -6.15803e-05)
(1.19955 -4.79976e-05 -3.94091e-05)
(1.19954 -4.73126e-05 -4.06216e-05)
(1.19957 -4.81561e-05 -3.48528e-05)
(1.19987 -3.81857e-05 -3.77413e-05)
(1.19955 -4.80627e-05 -3.56148e-05)
(1.23855 -0.00104137 -0.00153673)
(1.2387 -0.0080755 -0.000912687)
(1.23334 -0.00861424 -0.00477361)
(1.23234 -0.00466865 -0.00148452)
(1.23124 -0.00161499 -0.00247101)
(1.21452 -0.0123133 -0.019102)
(1.21224 -0.0139119 -0.0182528)
(1.2156 -0.0130062 -0.0169074)
(1.21118 -0.0117345 -0.0169874)
(1.2136 -0.0122098 -0.0149437)
(1.21446 -0.00900358 -0.016067)
(1.20263 -0.00794779 -0.012922)
(1.20282 -0.00696628 -0.0129889)
(1.20408 -0.00773344 -0.0130025)
(1.20294 -0.00657407 -0.0114511)
(1.20408 -0.00726061 -0.0113155)
(1.20429 -0.00627473 -0.0113978)
(1.20031 -0.00406067 -0.0075713)
(1.20056 -0.00352487 -0.00746)
(1.20105 -0.00407746 -0.00771401)
(1.20073 -0.00350989 -0.00676082)
(1.20118 -0.00397167 -0.00690836)
(1.20133 -0.00350906 -0.00678019)
(1.19984 -0.00226438 -0.00449004)
(1.2 -0.00197195 -0.00438471)
(1.2002 -0.00230715 -0.0045808)
(1.20011 -0.00202389 -0.0040337)
(1.20032 -0.00230928 -0.0041746)
(1.20043 -0.00205427 -0.00405504)
(1.19976 -0.00135972 -0.00272608)
(1.19987 -0.00118951 -0.00264658)
(1.19996 -0.00139586 -0.00277561)
(1.19993 -0.00124045 -0.00245627)
(1.20003 -0.0014209 -0.00255678)
(1.20011 -0.00126995 -0.00246682)
(1.19978 -0.000853613 -0.00168501)
(1.19985 -0.000750411 -0.00162938)
(1.19989 -0.000881041 -0.00171221)
(1.19989 -0.000788421 -0.0015206)
(1.19995 -0.000905798 -0.00158791)
(1.19999 -0.000812161 -0.00152509)
(1.19983 -0.000548083 -0.00105274)
(1.19987 -0.000483645 -0.00101533)
(1.19989 -0.000568107 -0.00106851)
(1.1999 -0.000510029 -0.000950832)
(1.19993 -0.000587763 -0.000995022)
(1.19995 -0.000527787 -0.000952861)
(1.19987 -0.000355794 -0.000662993)
(1.1999 -0.000315208 -0.000637971)
(1.19991 -0.00037024 -0.000671895)
(1.19992 -0.000332577 -0.000599103)
(1.19994 -0.000384553 -0.000627753)
(1.19995 -0.000345582 -0.000599496)
(1.19991 -0.000229747 -0.000420752)
(1.19992 -0.000204522 -0.000404194)
(1.19993 -0.000240087 -0.000425935)
(1.19994 -0.000215297 -0.00038042)
(1.19995 -0.00025005 -0.000399055)
(1.19996 -0.000224611 -0.000380318)
(1.19994 -0.000147705 -0.000267295)
(1.19994 -0.000132626 -0.0002566)
(1.19995 -0.000154744 -0.000270689)
(1.19996 -0.000138492 -0.000241652)
(1.19996 -0.000162962 -0.000253747)
(1.19997 -0.000144851 -0.000241648)
(1.19996 -9.41658e-05 -0.000170583)
(1.19996 -8.64091e-05 -0.000163826)
(1.19997 -9.89671e-05 -0.000172656)
(1.19997 -8.81856e-05 -0.000154427)
(1.19998 -0.000106688 -0.000162223)
(1.19998 -9.25628e-05 -0.000154516)
(1.19998 -5.68922e-05 -0.000108131)
(1.19998 -5.50551e-05 -0.000103883)
(1.19998 -6.04608e-05 -0.000109634)
(1.19999 -5.26779e-05 -9.75837e-05)
(1.19999 -6.8421e-05 -0.000102885)
(1.19999 -5.58936e-05 -9.78053e-05)
(1.19999 -3.14718e-05 -6.74508e-05)
(1.19999 -3.47471e-05 -6.48046e-05)
(1.19999 -3.38909e-05 -6.85054e-05)
(1.19999 -2.88179e-05 -6.0547e-05)
(1.2 -4.29043e-05 -6.43354e-05)
(1.2 -3.10023e-05 -6.08883e-05)
(1.19999 -1.43086e-05 -3.96181e-05)
(1.19999 -2.11945e-05 -3.75025e-05)
(1.19999 -1.60809e-05 -4.05806e-05)
(1.19999 -1.25508e-05 -3.47876e-05)
(1.2 -2.4634e-05 -3.71551e-05)
(1.2 -1.39608e-05 -3.57786e-05)
(1.22118 -0.000711675 -0.00154064)
(1.22106 -0.00101858 -0.00131564)
(1.21959 -0.00188293 -0.00243683)
(1.2191 -0.00073606 -0.00115902)
(1.21901 -0.000552191 -0.00135267)
(1.21398 -0.0065574 -0.00759932)
(1.2139 -0.00657008 -0.00755572)
(1.21462 -0.00569734 -0.00668766)
(1.21344 -0.00545505 -0.00629944)
(1.21257 -0.00616156 -0.00722443)
(1.21341 -0.00530136 -0.00652689)
(1.20649 -0.00637232 -0.00729362)
(1.20653 -0.00610574 -0.00731609)
(1.20742 -0.00602799 -0.00703499)
(1.20613 -0.00569816 -0.00664462)
(1.20691 -0.00562074 -0.00638774)
(1.20691 -0.00544416 -0.00640356)
(1.20285 -0.00454482 -0.00525178)
(1.20289 -0.00432023 -0.0052428)
(1.20345 -0.00449313 -0.00523097)
(1.20285 -0.00409861 -0.00476418)
(1.20331 -0.00423009 -0.00476048)
(1.20335 -0.00406263 -0.0047029)
(1.20129 -0.0030308 -0.00349722)
(1.20133 -0.00286458 -0.00345697)