/*--------------------------------*- C++ -*----------------------------------*\
| =========                 |                                                 |
| \\      /  F ield         | OpenFOAM: The Open Source CFD Toolbox           |
|  \\    /   O peration     | Version:  2012                                  |
|   \\  /    A nd           | Website:  www.openfoam.com                      |
|    \\/     M anipulation  |                                                 |
\*---------------------------------------------------------------------------*/
FoamFile
{
    version     2.0;
    format      ascii;
    class       volScalarField::Internal;
    location    "0.107/fluid";
    object      V0;
}
// * * * * * * * * * * * * * * * * * * * * * * * * * * * * * * * * * * * * * //

dimensions      [0 3 0 0 0 0 0];


value           nonuniform List<scalar> 
16422
(
4.24159e-05
4.25112e-05
4.251e-05
4.25004e-05
4.24962e-05
4.24975e-05
4.25018e-05
4.25066e-05
4.25111e-05
4.25136e-05
4.25151e-05
4.25165e-05
4.25173e-05
4.25166e-05
4.26556e-05
4.25918e-05
4.25348e-05
4.25087e-05
4.24988e-05
4.24962e-05
4.24984e-05
4.2502e-05
4.25073e-05
4.2511e-05
4.25127e-05
4.2514e-05
4.2514e-05
4.25144e-05
4.25137e-05
4.27155e-05
4.26134e-05
4.25137e-05
4.24924e-05
4.24871e-05
4.24908e-05
4.24949e-05
4.25007e-05
4.25076e-05
4.25112e-05
4.25117e-05
4.25128e-05
4.25128e-05
4.25116e-05
4.25105e-05
5.34467e-06
4.23852e-05
4.24445e-05
4.24731e-05
4.24842e-05
4.24923e-05
4.24974e-05
4.2501e-05
4.25085e-05
4.25104e-05
4.25113e-05
4.25129e-05
4.25113e-05
4.25103e-05
4.25098e-05
4.24114e-05
4.24966e-05
4.25049e-05
4.25009e-05
4.24988e-05
4.25004e-05
4.25043e-05
4.25086e-05
4.25119e-05
4.25147e-05
4.25161e-05
4.25166e-05
4.2516e-05
4.25166e-05
4.25985e-05
4.25441e-05
4.2517e-05
4.25042e-05
4.24992e-05
4.24981e-05
4.25008e-05
4.25048e-05
4.25085e-05
4.25108e-05
4.25133e-05
4.25147e-05
4.25142e-05
4.25138e-05
4.25143e-05
4.25881e-05
4.25486e-05
4.2502e-05
4.24901e-05
4.24913e-05
4.24958e-05
4.24995e-05
4.25043e-05
4.25092e-05
4.25115e-05
4.25124e-05
4.25122e-05
4.25124e-05
4.2512e-05
4.25119e-05
4.25738e-05
4.24486e-05
4.24633e-05
4.24795e-05
4.24896e-05
4.24954e-05
4.25016e-05
4.25061e-05
4.25109e-05
4.25108e-05
4.25126e-05
4.25127e-05
4.2512e-05
4.25106e-05
4.25098e-05
4.28231e-05
4.24813e-05
4.25018e-05
4.25048e-05
4.25017e-05
4.25006e-05
4.25027e-05
4.25066e-05
4.25097e-05
4.25133e-05
4.25148e-05
4.25168e-05
4.25169e-05
4.25175e-05
4.25171e-05
4.25291e-05
4.25169e-05
4.25103e-05
4.25045e-05
4.25002e-05
4.24998e-05
4.25028e-05
4.25068e-05
4.25093e-05
4.25129e-05
4.25147e-05
4.25155e-05
4.25142e-05
4.25151e-05
4.25143e-05
4.25255e-05
4.25187e-05
4.25014e-05
4.24945e-05
4.24967e-05
4.25004e-05
4.25028e-05
4.25071e-05
4.25095e-05
4.25122e-05
4.2514e-05
4.25129e-05
4.25121e-05
4.25136e-05
4.25125e-05
4.25111e-05
4.24984e-05
4.24891e-05
4.24928e-05
4.24974e-05
4.25004e-05
4.25051e-05
4.25093e-05
4.25119e-05
4.25137e-05
4.25133e-05
4.25121e-05
4.25112e-05
4.25129e-05
4.25109e-05
4.25723e-05
4.2536e-05
4.25161e-05
4.25078e-05
4.2503e-05
4.25021e-05
4.25044e-05
4.25081e-05
4.25107e-05
4.2513e-05
4.25152e-05
4.25175e-05
4.25172e-05
4.2518e-05
4.25171e-05
4.25393e-05
4.25282e-05
4.25146e-05
4.25076e-05
4.25027e-05
4.25017e-05
4.25036e-05
4.25072e-05
4.25106e-05
4.25136e-05
4.25156e-05
4.25167e-05
4.25146e-05
4.25151e-05
4.25142e-05
4.2517e-05
4.25128e-05
4.25044e-05
4.25016e-05
4.25019e-05
4.25029e-05
4.25045e-05
4.25078e-05
4.25103e-05
4.25131e-05
4.25155e-05
4.25152e-05
4.25125e-05
4.25127e-05
4.25133e-05
4.24992e-05
4.25003e-05
4.24976e-05
4.2499e-05
4.25024e-05
4.25039e-05
4.25063e-05
4.25094e-05
4.2511e-05
4.25135e-05
4.25142e-05
4.25146e-05
4.25119e-05
4.25114e-05
4.25119e-05
4.23476e-05
4.26832e-05
4.25952e-05
5.33768e-06
4.24717e-05
4.23475e-05
4.26825e-05
4.25901e-05
4.23724e-05
4.26954e-05
4.25679e-05
4.24756e-05
4.25296e-05
4.2426e-05
4.23767e-05
4.26637e-05
4.25438e-05
4.32155e-05
4.24186e-05
4.25003e-05
4.24968e-05
4.27316e-05
4.26745e-05
4.28289e-05
4.2648e-05
4.23834e-05
4.24271e-05
5.31845e-06
6.4702e-07
6.68605e-07
5.31805e-06
6.68645e-07
6.47019e-07
4.26578e-05
4.28799e-05
4.26375e-05
4.26188e-05
4.25871e-05
4.25773e-05
4.2519e-05
5.39513e-06
5.35891e-06
5.39909e-06
4.24275e-05
4.24157e-05
4.24469e-05
5.27759e-06
6.47966e-07
6.69582e-07
6.7102e-07
5.32867e-06
6.54336e-07
6.43034e-07
4.24686e-05
4.2518e-05
4.2503e-05
6.47e-07
6.68598e-07
5.3178e-06
5.39104e-06
4.32221e-05
4.19173e-05
5.31917e-06
6.47594e-07
6.69213e-07
6.68665e-07
5.32411e-06
6.47034e-07
4.32382e-05
4.19351e-05
4.2445e-05
4.31247e-05
4.19827e-05
5.32835e-06
4.27575e-05
4.27688e-05
4.30588e-05
4.29662e-05
4.23932e-05
4.25595e-05
4.22738e-05
4.27311e-05
4.20408e-05
4.23958e-05
4.2418e-05
4.25083e-05
4.25753e-05
4.2542e-05
4.26609e-05
4.26207e-05
4.27372e-05
4.26783e-05
4.25036e-05
4.25692e-05
4.25368e-05
4.24178e-05
4.24909e-05
4.25446e-05
4.25202e-05
4.26128e-05
4.27194e-05
4.26623e-05
4.26299e-05
4.2579e-05
4.26307e-05
4.25975e-05
4.24871e-05
4.25277e-05
4.25147e-05
4.24395e-05
4.2491e-05
4.25007e-05
4.25074e-05
4.25576e-05
4.25978e-05
4.25751e-05
4.25188e-05
4.25152e-05
4.25368e-05
4.25319e-05
4.24896e-05
4.25323e-05
4.25108e-05
4.25904e-05
4.2544e-05
4.2549e-05
4.2534e-05
5.24386e-06
4.24734e-05
4.2604e-05
5.33152e-06
4.26253e-05
4.24454e-05
4.26091e-05
5.24395e-06
4.24726e-05
4.23507e-05
4.26046e-05
4.24747e-05
5.24441e-06
4.24508e-05
5.33161e-06
4.26233e-05
4.26853e-05
4.2446e-05
5.33243e-06
4.2624e-05
4.2621e-05
4.23588e-05
5.25169e-06
4.24853e-05
4.248e-05
4.26459e-05
5.24497e-06
4.24636e-05
4.26918e-05
5.34124e-06
4.26253e-05
5.3332e-06
4.26268e-05
4.24894e-05
4.24418e-05
5.26018e-06
4.247e-05
4.23003e-05
4.26584e-05
4.2401e-05
5.20471e-06
4.23561e-05
5.34822e-06
4.25957e-05
4.25581e-05
4.25033e-05
5.27455e-06
4.25183e-05
5.26796e-06
5.50288e-06
4.27505e-05
4.27021e-05
5.21284e-06
4.2522e-05
5.229e-06
5.14895e-08
6.69186e-07
6.4702e-07
5.14895e-08
6.69179e-07
5.4241e-08
6.56663e-07
6.68609e-07
5.4241e-08
6.56665e-07
5.4241e-08
6.56707e-07
6.6862e-07
6.56679e-07
5.42411e-08
5.14895e-08
6.6922e-07
6.47006e-07
6.692e-07
5.14897e-08
6.75768e-07
5.67157e-06
5.62026e-06
6.79913e-07
6.68249e-07
6.7318e-07
6.64839e-07
6.76495e-07
6.73076e-07
5.5762e-06
6.69732e-07
5.58798e-06
6.70962e-07
6.87292e-07
6.7942e-07
6.751e-07
5.1497e-08
6.70274e-07
6.54463e-07
5.14934e-08
6.72436e-07
5.42508e-08
6.57721e-07
6.72256e-07
5.42457e-08
6.59071e-07
7.10814e-07
7.02226e-07
6.97383e-07
5.42153e-08
6.52566e-07
6.73601e-07
7.13082e-07
6.59277e-07
6.12438e-07
5.14801e-08
6.56139e-07
6.61996e-07
7.30151e-07
6.72805e-07
6.19415e-07
5.14895e-08
6.69172e-07
6.47003e-07
5.14895e-08
6.6919e-07
5.4241e-08
6.68605e-07
6.56651e-07
5.4241e-08
6.56664e-07
5.42398e-08
6.56648e-07
5.14883e-08
6.69168e-07
6.691e-07
6.6417e-07
6.7307e-07
6.64698e-07
6.72629e-07
6.64182e-07
6.72645e-07
6.69088e-07
5.57125e-06
6.69592e-07
5.56912e-06
5.30272e-06
5.51471e-06
5.51312e-06
5.3041e-06
5.14902e-08
6.69899e-07
6.47153e-07
5.14922e-08
6.69412e-07
5.42418e-08
6.68825e-07
6.57372e-07
5.42448e-08
6.56942e-07
5.42417e-08
6.56739e-07
6.6875e-07
5.42412e-08
6.56843e-07
5.14901e-08
6.69243e-07
6.4711e-07
5.14897e-08
6.69335e-07
5.30934e-06
5.44641e-06
5.5107e-06
5.2981e-06
5.30823e-06
5.51731e-06
5.52019e-06
5.30483e-06
5.39233e-06
5.5014e-06
5.38026e-06
5.40493e-06
5.30066e-06
6.62487e-07
6.63799e-07
5.27773e-06
5.27971e-06
5.3543e-06
5.28147e-06
5.3323e-06
4.22848e-05
4.22923e-05
4.24517e-05
4.24424e-05
4.2377e-05
4.24461e-05
4.20834e-05
4.22819e-05
4.24685e-05
4.24926e-05
4.24943e-05
4.22032e-05
4.24653e-05
4.24618e-05
6.72519e-07
5.31831e-06
5.27126e-06
5.32679e-06
5.32658e-06
5.271e-06
6.72528e-07
6.72522e-07
5.31795e-06
5.32638e-06
5.27074e-06
6.72519e-07
5.32643e-06
5.27082e-06
6.78988e-07
5.31561e-06
5.23859e-06
5.26601e-06
5.34255e-06
5.29194e-06
6.22854e-07
6.76742e-07
6.73988e-07
6.81679e-07
6.75508e-07
5.32921e-06
5.34026e-06
5.28462e-06
6.73e-07
5.35105e-06
5.29494e-06
6.72518e-07
5.31808e-06
5.32634e-06
5.27069e-06
6.72516e-07
5.32639e-06
5.27073e-06
6.72571e-07
5.27175e-06
5.31991e-06
5.32726e-06
6.72532e-07
5.32805e-06
5.2726e-06
6.72596e-07
5.32176e-06
5.33314e-06
5.27773e-06
6.72805e-07
5.32975e-06
5.27434e-06
5.57324e-06
5.57251e-06
5.53939e-06
5.40921e-06
5.45525e-06
5.43983e-06
5.45052e-06
5.20387e-06
5.3206e-06
5.23844e-06
5.31882e-06
5.29551e-06
5.34738e-06
5.28552e-06
5.22334e-06
5.47008e-06
5.2912e-06
5.34016e-06
5.30835e-06
5.29255e-06
5.39311e-06
1.00904e-07
5.14895e-08
7.05148e-07
7.05141e-07
1.00907e-07
8.43823e-08
7.12558e-08
8.43885e-08
7.12936e-08
1.00903e-07
5.14895e-08
7.05145e-07
7.05141e-07
1.00906e-07
8.43824e-08
7.12662e-08
8.43884e-08
7.12872e-08
7.92731e-08
5.4241e-08
6.53945e-07
6.53939e-07
7.92738e-08
7.73539e-08
7.45398e-08
7.73544e-08
7.45398e-08
7.92727e-08
5.4241e-08
6.53943e-07
6.53935e-07
7.92735e-08
7.73539e-08
7.454e-08
7.73546e-08
7.45399e-08
7.92733e-08
6.53946e-07
5.42406e-08
6.53948e-07
7.92738e-08
7.73544e-08
7.45403e-08
7.45393e-08
7.73551e-08
7.73539e-08
7.454e-08
7.73547e-08
7.45392e-08
7.92743e-08
5.42402e-08
6.53963e-07
6.5395e-07
7.9274e-08
1.00909e-07
7.05154e-07
5.14895e-08
7.05154e-07
1.00908e-07
8.43935e-08
7.12402e-08
8.43926e-08
7.12306e-08
1.00908e-07
5.14884e-08
7.05161e-07
7.05157e-07
1.00909e-07
8.43947e-08
7.12497e-08
8.43926e-08
7.12432e-08
1.00965e-07
5.15003e-08
7.08654e-07
7.06921e-07
1.01296e-07
8.44268e-08
7.12669e-08
8.44007e-08
7.12596e-08
1.00957e-07
5.14978e-08
7.05688e-07
7.06093e-07
1.00923e-07
8.44303e-08
7.17244e-08
8.48259e-08
7.12951e-08
7.93618e-08
5.42545e-08
6.57456e-07
6.55854e-07
7.94725e-08
7.7408e-08
7.45498e-08
7.73814e-08
7.45607e-08
7.93369e-08
5.42511e-08
6.54583e-07
6.55021e-07
7.93052e-08
7.74288e-08
7.46908e-08
7.75369e-08
7.45707e-08
6.87977e-07
7.22364e-07
6.97054e-07
6.82038e-07
7.19852e-07
6.94751e-07
7.27701e-07
7.33797e-07
7.14478e-07
8.0412e-08
6.60797e-07
5.4137e-08
6.65e-07
7.95848e-08
7.80512e-08
6.06853e-07
7.12276e-07
5.9696e-07
8.12416e-08
7.86413e-08
7.48153e-08
7.766e-08
7.61825e-08
7.99241e-08
5.43042e-08
6.27705e-07
6.59886e-07
6.11016e-07
6.45346e-07
1.02468e-07
7.12489e-07
5.23793e-08
7.17033e-07
1.01544e-07
7.99826e-08
6.88466e-07
7.40006e-07
6.45784e-07
3.50004e-08
1.03238e-07
5.35595e-08
6.33426e-07
6.92295e-07
6.13686e-07
7.01806e-07
8.43082e-08
7.2269e-08
8.51726e-08
1.10195e-07
1.00911e-07
5.14895e-08
7.05147e-07
7.05146e-07
1.00906e-07
8.43988e-08
7.12898e-08
8.43865e-08
7.12137e-08
1.00911e-07
5.14895e-08
7.05146e-07
1.00906e-07
7.05148e-07
8.43998e-08
7.13007e-08
8.43862e-08
7.12089e-08
7.92724e-08
5.4241e-08
6.53941e-07
7.92734e-08
6.53936e-07
7.73542e-08
7.45398e-08
7.73544e-08
7.45398e-08
7.92734e-08
5.4241e-08
6.5394e-07
7.92734e-08
6.53936e-07
7.73537e-08
7.45398e-08
7.45398e-08
7.73543e-08
7.92734e-08
7.45386e-08
7.73539e-08
1.00906e-07
7.12726e-08
8.43875e-08
1.00912e-07
5.14907e-08
7.05233e-07
7.05273e-07
1.0091e-07
8.43902e-08
7.12402e-08
8.44024e-08
7.12846e-08
1.00912e-07
5.1491e-08
7.05468e-07
1.00923e-07
7.05344e-07
8.43924e-08
7.12425e-08
8.43931e-08
7.12546e-08
7.92827e-08
5.42425e-08
6.54054e-07
7.92796e-08
6.54107e-07
7.73655e-08
7.45475e-08
7.73742e-08
7.45444e-08
7.92865e-08
5.42428e-08
6.54337e-07
7.92971e-08
6.54192e-07
7.73623e-08
7.45419e-08
7.45431e-08
7.73594e-08
7.9277e-08
5.42413e-08
6.54023e-07
6.53992e-07
7.92774e-08
7.73556e-08
7.45403e-08
7.73557e-08
7.45399e-08
7.92757e-08
5.42405e-08
6.53968e-07
7.92751e-08
6.53977e-07
7.73573e-08
7.45412e-08
7.45408e-08
7.73578e-08
1.00908e-07
5.14898e-08
7.05203e-07
7.05188e-07
1.00909e-07
8.43893e-08
7.12658e-08
8.43912e-08
7.1265e-08
1.00907e-07
5.14886e-08
7.05168e-07
1.00908e-07
7.05173e-07
8.43907e-08
7.12697e-08
8.43912e-08
7.12691e-08
5.35649e-06
5.35594e-06
5.36159e-06
5.35605e-06
5.36608e-06
5.33882e-06
5.38043e-06
4.2566e-05
4.25621e-05
4.25124e-05
4.25337e-05
4.25285e-05
4.25191e-05
4.25085e-05
5.32517e-06
5.33282e-06
5.34951e-06
5.35232e-06
5.34502e-06
5.32989e-06
5.34753e-06
4.30101e-05
4.27751e-05
4.28447e-05
6.70245e-07
6.37916e-07
6.60532e-07
6.47022e-07
6.60528e-07
6.70263e-07
6.37942e-07
6.51744e-07
6.79837e-07
6.61245e-07
6.68591e-07
6.61231e-07
6.51747e-07
6.79833e-07
6.51769e-07
6.61286e-07
6.68624e-07
6.79866e-07
6.61263e-07
6.79854e-07
6.51779e-07
6.70301e-07
6.60561e-07
6.47014e-07
6.37897e-07
6.6056e-07
6.70298e-07
6.37879e-07
4.30378e-05
4.28613e-05
4.30126e-05
4.28024e-05
4.27801e-05
4.28396e-05
4.27504e-05
4.26506e-05
4.26737e-05
4.28297e-05
4.27182e-05
4.26025e-05
4.26671e-05
4.26388e-05
5.38422e-06
5.36757e-06
5.3693e-06
5.40791e-06
5.37661e-06
5.41144e-06
5.38198e-06
6.71524e-07
6.38447e-07
6.61532e-07
6.48874e-07
6.62366e-07
6.7094e-07
6.38991e-07
6.53216e-07
6.80619e-07
6.62244e-07
6.70045e-07
6.62689e-07
6.52634e-07
6.81162e-07
6.4551e-07
6.52234e-07
6.61941e-07
6.40215e-07
6.57871e-07
6.35664e-07
6.58973e-07
6.19347e-07
6.4606e-07
6.32844e-07
6.35381e-07
6.46141e-07
6.32866e-07
5.65997e-07
6.70301e-07
6.3791e-07
6.60526e-07
6.46992e-07
6.60543e-07
6.70262e-07
6.37844e-07
6.51742e-07
6.79835e-07
6.68594e-07
6.61235e-07
6.61234e-07
6.51745e-07
6.7983e-07
6.70491e-07
6.38212e-07
6.61153e-07
6.47352e-07
6.609e-07
6.70663e-07
6.3811e-07
6.52109e-07
6.80319e-07
6.69039e-07
6.61877e-07
6.61696e-07
6.52297e-07
6.80151e-07
6.51807e-07
6.61307e-07
6.79872e-07
6.6867e-07
6.61312e-07
6.51789e-07
6.79888e-07
6.70305e-07
6.60575e-07
6.37903e-07
6.47054e-07
6.60588e-07
6.70306e-07
6.37914e-07
5.31585e-06
5.31035e-06
5.34374e-06
5.30095e-06
5.32276e-06
5.3118e-06
5.29184e-06
5.33476e-06
5.24387e-06
5.33481e-06
5.30568e-06
5.26963e-06
5.30534e-06
5.26986e-06
5.33153e-06
5.27967e-06
5.27971e-06
5.31398e-06
5.31691e-06
5.31708e-06
5.31367e-06
5.33483e-06
5.24401e-06
5.33486e-06
5.30549e-06
5.26986e-06
5.30565e-06
5.26977e-06
5.33537e-06
5.24415e-06
5.33509e-06
5.30592e-06
5.27024e-06
5.30599e-06
5.2701e-06
5.27977e-06
5.33173e-06
5.27987e-06
5.31381e-06
5.31708e-06
5.31391e-06
5.31708e-06
5.28057e-06
5.33201e-06
5.28015e-06
5.31418e-06
5.31763e-06
5.31737e-06
5.31435e-06
5.34227e-06
5.24787e-06
5.33884e-06
5.30932e-06
5.27626e-06
5.31089e-06
5.27372e-06
5.33596e-06
5.24592e-06
5.3369e-06
5.30739e-06
5.27098e-06
5.30681e-06
5.27174e-06
5.33698e-06
5.28884e-06
5.28496e-06
5.31697e-06
5.32206e-06
5.32047e-06
5.31799e-06
5.28134e-06
5.33454e-06
5.28262e-06
5.31565e-06
5.31824e-06
5.31902e-06
5.315e-06
5.34869e-06
5.27782e-06
5.3556e-06
5.31325e-06
5.28167e-06
5.31458e-06
5.28609e-06
5.27239e-06
5.28878e-06
5.33894e-06
5.30591e-06
5.2606e-06
5.28302e-06
5.28616e-06
5.29476e-06
5.35486e-06
5.29907e-06
5.31617e-06
5.324e-06
5.31912e-06
5.32246e-06
5.24992e-06
5.3387e-06
5.2864e-06
5.30804e-06
5.30156e-06
5.31354e-06
5.29988e-06
5.24e-06
5.24696e-06
5.20186e-06
5.29258e-06
5.2907e-06
5.28681e-06
5.28692e-06
5.42907e-08
5.14894e-08
9.12175e-08
9.12166e-08
5.42909e-08
6.77755e-07
6.68243e-07
6.7291e-07
6.69156e-07
6.68231e-07
6.72903e-07
6.77762e-07
6.70236e-07
6.47038e-07
6.60528e-07
6.37933e-07
6.60533e-07
6.70255e-07
6.37959e-07
5.42907e-08
5.14894e-08
9.12173e-08
9.12165e-08
5.42908e-08
6.77759e-07
6.72914e-07
6.69175e-07
6.68238e-07
6.68241e-07
6.72912e-07
6.77765e-07
7.0999e-08
5.42408e-08
1.01113e-07
1.01113e-07
7.09993e-08
6.51747e-07
6.68601e-07
6.79843e-07
6.61247e-07
6.61239e-07
6.51753e-07
6.79834e-07
7.0999e-08
5.42408e-08
1.01113e-07
1.01112e-07
7.09992e-08
7.09991e-08
1.01113e-07
5.42408e-08
1.01112e-07
7.09994e-08
6.51759e-07
6.68612e-07
6.79845e-07
6.6126e-07
6.6125e-07
6.51756e-07
6.79844e-07
7.09993e-08
5.42409e-08
1.01114e-07
1.01113e-07
7.09995e-08
5.42909e-08
9.12176e-08
5.14894e-08
9.12163e-08
5.4291e-08
6.77791e-07
6.6827e-07
6.69204e-07
6.72939e-07
6.68268e-07
6.72934e-07
6.77793e-07
6.70308e-07
6.46996e-07
6.6055e-07
6.37871e-07
6.60551e-07
6.70299e-07
6.37852e-07
6.77786e-07
6.72925e-07
6.69182e-07
6.68259e-07
6.68253e-07
6.72925e-07
6.77783e-07
5.42908e-08
5.14895e-08
9.12181e-08
9.12171e-08
5.42909e-08
6.38896e-07
6.66263e-07
6.6096e-07
6.70393e-07
6.58994e-07
6.68779e-07
6.40399e-07
6.52957e-07
6.90281e-07
6.6514e-07
6.73845e-07
6.65834e-07
6.52606e-07
6.90605e-07
6.3822e-07
6.65549e-07
6.57628e-07
6.6763e-07
6.58322e-07
6.68043e-07
6.37831e-07
6.5358e-07
6.6852e-07
6.74485e-07
6.92504e-07
6.66497e-07
6.55007e-07
6.91171e-07
6.50805e-07
6.63667e-07
6.73845e-07
6.7554e-07
6.81281e-07
6.4364e-07
6.68524e-07
6.80685e-07
7.3107e-07
6.9158e-07
6.79691e-07
6.82512e-07
7.21625e-07
6.87461e-07
6.66045e-07
6.7136e-07
6.95693e-07
6.8534e-07
6.58198e-07
6.76836e-07
7.04255e-07
6.61562e-07
6.79353e-07
6.86658e-07
6.69541e-07
6.91751e-07
6.72835e-07
6.58797e-07
5.43077e-08
5.15006e-08
9.1379e-08
9.13279e-08
5.43041e-08
6.79229e-07
6.69241e-07
6.73766e-07
6.70811e-07
6.69956e-07
6.74351e-07
6.78584e-07
6.72866e-07
6.50665e-07
6.66712e-07
6.44665e-07
6.63881e-07
6.76696e-07
6.40426e-07
5.42955e-08
5.14939e-08
9.12388e-08
9.12445e-08
5.42949e-08
6.80535e-07
6.77224e-07
6.71691e-07
6.72869e-07
6.71128e-07
6.75429e-07
6.83303e-07
7.10256e-08
5.4258e-08
1.01286e-07
1.01248e-07
7.10116e-08
6.54352e-07
6.71013e-07
6.84708e-07
6.6466e-07
6.63583e-07
6.56568e-07
6.82291e-07
7.10078e-08
5.4246e-08
1.01139e-07
1.01145e-07
7.10065e-08
7.10036e-08
1.01341e-07
5.42238e-08
1.01565e-07
7.09779e-08
6.63444e-07
6.70598e-07
6.8943e-07
6.65896e-07
6.64052e-07
6.60728e-07
6.90836e-07
5.43181e-08
9.14155e-08
5.15455e-08
9.16755e-08
5.42808e-08
6.58489e-07
6.52601e-07
6.61927e-07
6.51446e-07
6.58719e-07
6.44609e-07
6.62739e-07
6.87111e-07
6.67962e-07
6.70674e-07
6.58735e-07
6.67099e-07
6.86048e-07
7.02016e-07
6.8563e-07
6.79354e-07
6.68724e-07
6.74411e-07
6.7008e-07
6.76996e-07
6.87798e-07
5.42907e-08
5.14893e-08
9.12173e-08
9.12164e-08
5.42908e-08
6.77776e-07
6.68234e-07
6.72913e-07
6.69169e-07
6.68247e-07
6.77767e-07
6.72913e-07
6.70313e-07
6.46974e-07
6.60538e-07
6.37902e-07
6.60534e-07
6.70269e-07
6.37829e-07
5.42895e-08
5.14882e-08
9.12173e-08
9.12149e-08
5.42908e-08
6.7778e-07
6.72913e-07
6.69163e-07
6.68249e-07
6.6824e-07
6.72912e-07
6.77771e-07
7.0999e-08
5.42408e-08
1.01113e-07
1.01112e-07
7.09991e-08
6.5174e-07
6.6858e-07
6.79834e-07
6.61246e-07
6.61221e-07
6.79829e-07
6.51745e-07
7.09979e-08
5.42396e-08
1.01113e-07
1.01111e-07
7.09992e-08
1.01112e-07
7.0998e-08
6.61237e-07
9.12157e-08
5.42896e-08
6.72913e-07
6.68234e-07
6.37428e-07
6.64313e-07
6.57009e-07
6.67127e-07
6.57153e-07
6.37368e-07
6.67188e-07
6.52304e-07
6.90142e-07
6.65011e-07
6.72791e-07
6.64702e-07
6.52437e-07
6.9003e-07
6.3751e-07
6.64365e-07
6.57499e-07
6.67442e-07
6.57194e-07
6.3765e-07
6.67282e-07
6.52238e-07
6.64523e-07
6.72766e-07
6.89932e-07
6.64669e-07
6.89977e-07
6.52191e-07
6.57019e-07
6.67106e-07
6.37346e-07
6.64532e-07
6.89916e-07
6.52167e-07
5.42911e-08
5.14898e-08
9.12208e-08
9.12199e-08
5.42915e-08
6.78062e-07
6.68877e-07
6.73434e-07
6.69638e-07
6.68627e-07
6.78256e-07
6.73235e-07
6.70418e-07
6.47247e-07
6.60694e-07
6.37978e-07
6.60785e-07
6.70374e-07
6.38033e-07
5.42931e-08
5.14917e-08
9.12334e-08
9.1229e-08
5.42937e-08
6.77959e-07
6.73058e-07
6.6949e-07
6.68417e-07
6.68502e-07
6.73125e-07
6.77898e-07
7.10003e-08
5.42415e-08
1.01117e-07
1.01117e-07
7.10001e-08
6.51986e-07
6.6888e-07
6.79984e-07
6.61477e-07
6.61531e-07
6.80044e-07
6.51918e-07
7.10033e-08
5.42433e-08
1.01134e-07
1.01128e-07
7.10054e-08
7.1e-08
5.42414e-08
1.01117e-07
1.01116e-07
7.10004e-08
6.51833e-07
6.6871e-07
6.79938e-07
6.61395e-07
6.61352e-07
6.7991e-07
6.51863e-07
7.09994e-08
5.42411e-08
1.01115e-07
1.01113e-07
7.09995e-08
5.42911e-08
5.14898e-08
9.122e-08
9.12189e-08
5.42914e-08
6.77808e-07
6.68285e-07
6.72951e-07
6.69244e-07
6.68297e-07
6.77801e-07
6.72961e-07
6.7032e-07
6.47078e-07
6.6065e-07
6.37955e-07
6.60613e-07
6.70343e-07
6.37937e-07
5.42909e-08
5.14896e-08
9.12182e-08
9.12169e-08
5.4291e-08
6.7783e-07
6.73008e-07
6.69282e-07
6.68361e-07
6.68324e-07
6.72984e-07
6.77853e-07
6.45423e-07
6.47647e-07
6.60854e-07
6.56746e-07
6.34011e-07
6.49799e-07
6.56828e-07
6.44911e-07
6.60233e-07
6.49275e-07
6.58193e-07
6.28857e-07
6.5506e-07
6.56202e-07
6.59859e-07
6.6227e-07
6.72518e-07
6.62268e-07
6.59849e-07
6.62889e-07
6.62936e-07
6.72521e-07
6.62289e-07
6.59868e-07
6.62275e-07
6.59858e-07
6.62911e-07
6.62949e-07
6.72513e-07
6.59861e-07
6.62269e-07
6.59849e-07
6.62257e-07
6.62889e-07
6.62924e-07
6.72514e-07
6.59857e-07
6.62264e-07
6.59845e-07
6.62251e-07
6.62877e-07
6.62924e-07
6.66508e-07
6.68797e-07
6.85088e-07
6.69645e-07
6.67067e-07
6.64807e-07
6.67087e-07
6.75128e-07
6.44241e-07
6.43423e-07
6.57483e-07
6.54236e-07
6.58654e-07
6.51884e-07
7.28085e-08
7.34499e-08
7.30182e-08
7.30681e-08
7.30924e-08
7.41709e-08
7.30693e-08
7.41735e-08
7.27236e-08
7.27601e-08
7.26802e-08
7.2845e-08
7.31296e-08
7.43038e-08
7.32977e-08
7.41869e-08
6.74057e-07
6.63658e-07
6.66033e-07
6.61953e-07
6.64369e-07
6.65076e-07
6.66061e-07
6.73354e-07
6.60563e-07
6.62996e-07
6.61039e-07
6.63469e-07
6.64304e-07
6.63872e-07
6.59851e-07
6.6226e-07
6.62908e-07
6.72513e-07
6.59858e-07
6.62264e-07
6.59845e-07
6.62251e-07
6.62874e-07
6.62928e-07
6.72514e-07
6.59857e-07
6.62263e-07
6.59848e-07
6.62253e-07
6.62883e-07
6.62916e-07
6.7255e-07
6.59935e-07
6.62359e-07
6.62321e-07
6.599e-07
6.62981e-07
6.63061e-07
6.72538e-07
6.62296e-07
6.59876e-07
6.62305e-07
6.59884e-07
6.62948e-07
6.62972e-07
6.72634e-07
6.59979e-07
6.62398e-07
6.6003e-07
6.62451e-07
6.63167e-07
6.6313e-07
6.72699e-07
6.60289e-07
6.62716e-07
6.60126e-07
6.62551e-07
6.63309e-07
6.63544e-07
7.23967e-08
4.27322e-08
8.2132e-08
1.00902e-07
7.23976e-08
8.21312e-08
4.27311e-08
5.42894e-08
5.14882e-08
9.12172e-08
9.1215e-08
5.42907e-08
7.23981e-08
1.00904e-07
8.21337e-08
4.27334e-08
8.21323e-08
4.27325e-08
7.23988e-08
8.43836e-08
7.42222e-08
7.42227e-08
7.13892e-08
7.12632e-08
7.13864e-08
8.43871e-08
7.42325e-08
7.42313e-08
7.13678e-08
7.12997e-08
7.13618e-08
7.23981e-08
4.27323e-08
8.21322e-08
1.00904e-07
7.23981e-08
4.27325e-08
8.21321e-08
5.42906e-08
5.14894e-08
9.12167e-08
9.12164e-08
5.42907e-08
7.23983e-08
1.00905e-07
4.27333e-08
8.21336e-08
4.2733e-08
8.2132e-08
7.23986e-08
8.43794e-08
7.42227e-08
7.42162e-08
7.13803e-08
7.12942e-08
7.13671e-08
8.43834e-08
7.42306e-08
7.42232e-08
7.13745e-08
7.13142e-08
7.13521e-08
7.09974e-08
5.42396e-08
1.01113e-07
1.01111e-07
7.09991e-08
4.25154e-08
4.25155e-08
4.25145e-08
4.25154e-08
3.60313e-08
5.87649e-08
7.73534e-08
9.63913e-08
9.63906e-08
5.87648e-08
3.60313e-08
8.15297e-08
7.45386e-08
8.1529e-08
3.60313e-08
7.73534e-08
9.63912e-08
5.87649e-08
9.63906e-08
5.87648e-08
3.60313e-08
8.15297e-08
7.45386e-08
8.1529e-08
7.0999e-08
5.42408e-08
1.01113e-07
1.01112e-07
7.09992e-08
4.25154e-08
4.25154e-08
4.25154e-08
4.25154e-08
3.60305e-08
5.87649e-08
7.73526e-08
9.63903e-08
5.87635e-08
3.60313e-08
9.63896e-08
8.15298e-08
7.45387e-08
8.15291e-08
3.60313e-08
7.73535e-08
5.8765e-08
9.63914e-08
5.87648e-08
9.63907e-08
3.60314e-08
8.15292e-08
7.4537e-08
8.15277e-08
4.25155e-08
4.25155e-08
7.09991e-08
5.42408e-08
1.01112e-07
1.01113e-07
7.09988e-08
4.25155e-08
4.25155e-08
3.60314e-08
5.87642e-08
9.63905e-08
7.73542e-08
9.63911e-08
3.60306e-08
5.8765e-08
7.4539e-08
8.15301e-08
8.15294e-08
8.1529e-08
7.4539e-08
8.15293e-08
3.60314e-08
7.73544e-08
9.6392e-08
5.87653e-08
9.63912e-08
5.87651e-08
3.60315e-08
3.60313e-08
7.73538e-08
5.87647e-08
9.63906e-08
5.87649e-08
9.63909e-08
3.60314e-08
8.15298e-08
7.45388e-08
8.15292e-08
3.60313e-08
7.73534e-08
5.8765e-08
9.63915e-08
3.60314e-08
5.87649e-08
9.63909e-08
8.15289e-08
7.45388e-08
8.15292e-08
7.09992e-08
5.42409e-08
1.01113e-07
1.01113e-07
7.09982e-08
4.25156e-08
4.25157e-08
4.25155e-08
4.25146e-08
7.23994e-08
8.21349e-08
1.00909e-07
4.27348e-08
8.21348e-08
7.23991e-08
4.27349e-08
5.42909e-08
5.14894e-08
9.1217e-08
9.12172e-08
5.4291e-08
7.23993e-08
1.00909e-07
8.21355e-08
4.27342e-08
7.23992e-08
8.21342e-08
4.27347e-08
8.43918e-08
7.42392e-08
7.42342e-08
7.13955e-08
7.1266e-08
7.13767e-08
8.43911e-08
7.42375e-08
7.42334e-08
7.13966e-08
7.12639e-08
7.13769e-08
7.23992e-08
8.21352e-08
4.27338e-08
1.00908e-07
7.23983e-08
8.21346e-08
4.27344e-08
5.42908e-08
5.14894e-08
9.12161e-08
9.1217e-08
5.42898e-08
7.23992e-08
1.00908e-07
8.21352e-08
4.27342e-08
8.21345e-08
4.27341e-08
7.23993e-08
8.43949e-08
7.42387e-08
7.42397e-08
7.13861e-08
7.12289e-08
7.14004e-08
8.43951e-08
7.42367e-08
7.42424e-08
7.13863e-08
7.12441e-08
7.13875e-08
7.24376e-08
4.27438e-08
8.22384e-08
1.01025e-07
7.24241e-08
8.23072e-08
4.27511e-08
5.43053e-08
5.15012e-08
9.12818e-08
9.13066e-08
5.4303e-08
7.24532e-08
1.01089e-07
8.25232e-08
4.28044e-08
8.23616e-08
4.27675e-08
7.24786e-08
8.44094e-08
7.42638e-08
7.4249e-08
7.13819e-08
7.12743e-08
7.13872e-08
8.44065e-08
7.42388e-08
7.4244e-08
7.14217e-08
7.12451e-08
7.14054e-08
7.24121e-08
4.27417e-08
8.22205e-08
1.00935e-07
7.2418e-08
4.27396e-08
8.21872e-08
5.42975e-08
5.14957e-08
9.12679e-08
9.12516e-08
5.42999e-08
7.24088e-08
1.00932e-07
4.27373e-08
8.21653e-08
4.27376e-08
8.21807e-08
7.24066e-08
8.44882e-08
7.42625e-08
7.43176e-08
7.19915e-08
7.14781e-08
7.15638e-08
8.45704e-08
7.47817e-08
7.44268e-08
7.14136e-08
7.13996e-08
7.14533e-08
7.10248e-08
5.42571e-08
1.01192e-07
1.01213e-07
7.10205e-08
4.25236e-08
4.25169e-08
4.25256e-08
4.25254e-08
3.60363e-08
5.87796e-08
7.7397e-08
9.64279e-08
9.64211e-08
5.87767e-08
3.6037e-08
8.15411e-08
7.45498e-08
8.15414e-08
3.60344e-08
7.73849e-08
9.64103e-08
5.87722e-08
9.64114e-08
5.8773e-08
3.60344e-08
8.15534e-08
7.45548e-08
8.15484e-08
7.10115e-08
5.42486e-08
1.01171e-07
1.01157e-07
7.10156e-08
4.25198e-08
4.25195e-08
4.25219e-08
4.25233e-08
3.6037e-08
5.87836e-08
7.74463e-08
9.64423e-08
5.87859e-08
3.60374e-08
9.64545e-08
8.16661e-08
7.46245e-08
8.16173e-08
3.60357e-08
7.74835e-08
5.87753e-08
9.65445e-08
5.87846e-08
9.64878e-08
3.60372e-08
8.15654e-08
7.45872e-08
8.15821e-08
7.47823e-08
7.42104e-08
7.3554e-08
7.57124e-08
7.57572e-08
7.69513e-08
7.84235e-08
7.5055e-08
7.67592e-08
8.16227e-08
7.80523e-08
8.01057e-08
7.4188e-08
7.30465e-08
7.322e-08
7.38333e-08
7.43683e-08
7.40738e-08
7.34689e-08
7.52701e-08
7.51785e-08
7.69699e-08
7.72303e-08
7.54025e-08
7.57674e-08
7.99681e-08
7.70813e-08
7.82238e-08
7.4161e-08
7.44126e-08
7.35317e-08
7.47952e-08
7.88627e-08
7.5128e-08
7.70039e-08
7.66774e-08
8.63894e-08
7.72553e-08
9.51455e-08
1.00257e-07
8.18954e-08
8.47978e-08
7.98315e-08
8.49135e-08
8.19757e-08
8.20979e-08
7.89075e-08
8.62608e-08
4.25851e-08
4.25134e-08
7.12739e-08
5.4297e-08
1.03008e-07
1.02135e-07
7.16187e-08
4.28987e-08
4.36306e-08
6.884e-08
7.35811e-08
6.79324e-08
1.0072e-07
9.63895e-08
4.20396e-08
8.20996e-08
9.53838e-08
7.88181e-08
8.29288e-08
7.77484e-08
1.04806e-07
8.58724e-08
8.59245e-08
8.78354e-08
5.48371e-08
8.22988e-08
9.51985e-08
9.37786e-08
6.81125e-08
3.6645e-08
7.84657e-08
6.10397e-08
9.89337e-08
5.94301e-08
9.79272e-08
3.78843e-08
8.17541e-08
7.50755e-08
8.19537e-08
3.61867e-08
7.79462e-08
5.87701e-08
9.66947e-08
3.6059e-08
5.88769e-08
9.70777e-08
8.20569e-08
7.55819e-08
8.23624e-08
8.22695e-08
7.60777e-08
1.06277e-07
9.88304e-08
6.65523e-08
7.18772e-08
7.45253e-08
1.01069e-07
9.28911e-08
4.87544e-08
6.65489e-08
7.28507e-08
8.30651e-08
1.02514e-07
4.35798e-08
8.32872e-08
7.30872e-08
4.32512e-08
5.44565e-08
5.18119e-08
9.37312e-08
9.22926e-08
5.43846e-08
7.25847e-08
1.02034e-07
8.2674e-08
4.28679e-08
7.24915e-08
8.29997e-08
4.2999e-08
8.96346e-08
9.31204e-08
6.97198e-08
9.28874e-08
6.62478e-08
8.64635e-08
7.97942e-08
8.05941e-08
8.59418e-08
8.55997e-08
8.48843e-08
8.17831e-08
1.00226e-07
1.06524e-07
4.66303e-08
1.04234e-07
9.07187e-08
1.01896e-07
8.48262e-08
9.9013e-08
8.28705e-08
4.74486e-08
7.38085e-08
7.72808e-08
7.50736e-08
7.75658e-08
7.67119e-08
9.77106e-08
9.27329e-08
7.77125e-08
5.46271e-08
6.80752e-08
8.56827e-08
9.5456e-08
9.50419e-08
8.61311e-08
7.83264e-08
7.84012e-08
7.28817e-08
7.41606e-08
7.5039e-08
8.57612e-08
7.54196e-08
7.66591e-08
9.19048e-08
7.91674e-08
8.00001e-08
7.23993e-08
4.27355e-08
8.21353e-08
1.0091e-07
7.23997e-08
8.21348e-08
4.27348e-08
5.42908e-08
5.14893e-08
9.12167e-08
9.12164e-08
5.42909e-08
7.23988e-08
1.00907e-07
8.21339e-08
4.27333e-08
8.2133e-08
4.27338e-08
7.23986e-08
8.43928e-08
7.42468e-08
7.42381e-08
7.1364e-08
7.12892e-08
7.13621e-08
8.4386e-08
7.42251e-08
7.42252e-08
7.14048e-08
7.12432e-08
7.13898e-08
7.23986e-08
4.27354e-08
1.00907e-07
8.21356e-08
7.23996e-08
4.27344e-08
8.2133e-08
5.42908e-08
5.14893e-08
9.12176e-08
9.12159e-08
5.42909e-08
7.23975e-08
1.00905e-07
4.27331e-08
8.21336e-08
7.23986e-08
4.27325e-08
8.21326e-08
8.43958e-08
7.42485e-08
7.42437e-08
7.1355e-08
7.12732e-08
7.13734e-08
8.43894e-08
7.42227e-08
7.42305e-08
7.14066e-08
7.12251e-08
7.14015e-08
7.0999e-08
5.42408e-08
1.01112e-07
1.01112e-07
7.09991e-08
4.25154e-08
4.25154e-08
4.25155e-08
4.25155e-08
3.60313e-08
5.87649e-08
7.73524e-08
9.63912e-08
9.63894e-08
5.87644e-08
3.60313e-08
8.15297e-08
7.45373e-08
8.15277e-08
3.60305e-08
7.73529e-08
9.63912e-08
5.87649e-08
9.63894e-08
3.60313e-08
5.87638e-08
8.15297e-08
7.45382e-08
8.15285e-08
7.09986e-08
5.42408e-08
1.01113e-07
1.01112e-07
7.09991e-08
4.25145e-08
4.25154e-08
4.25154e-08
4.25155e-08
3.60313e-08
5.87649e-08
9.63912e-08
7.73533e-08
5.87648e-08
3.60313e-08
9.63904e-08
7.45386e-08
8.15297e-08
8.1529e-08
8.15296e-08
7.45386e-08
8.1529e-08
3.60313e-08
7.73533e-08
5.87649e-08
9.63911e-08
5.87648e-08
9.63904e-08
3.60313e-08
4.25145e-08
8.15283e-08
5.87639e-08
9.639e-08
3.60305e-08
8.21338e-08
4.27326e-08
7.23977e-08
7.13716e-08
7.4228e-08
7.2399e-08
4.27345e-08
8.21439e-08
1.00909e-07
7.2401e-08
8.21404e-08
4.27334e-08
5.42909e-08
5.14895e-08
9.12236e-08
9.12211e-08
5.42921e-08
7.24004e-08
1.0091e-07
8.214e-08
4.27344e-08
8.21394e-08
4.27343e-08
7.24002e-08
8.43918e-08
7.42285e-08
7.42293e-08
7.1404e-08
7.12563e-08
7.13916e-08
8.43955e-08
7.42452e-08
7.4238e-08
7.13705e-08
7.12945e-08
7.13668e-08
7.24021e-08
4.27344e-08
1.00914e-07
8.21455e-08
7.24013e-08
4.27347e-08
8.2149e-08
5.42926e-08
5.14913e-08
9.12257e-08
9.12266e-08
5.42923e-08
7.24032e-08
1.00916e-07
4.27367e-08
8.21622e-08
7.24051e-08
4.27357e-08
8.21515e-08
8.43902e-08
7.42352e-08
7.42317e-08
7.13967e-08
7.12699e-08
7.13779e-08
8.43916e-08
7.42377e-08
7.42333e-08
7.13923e-08
7.12721e-08
7.13765e-08
7.10002e-08
5.42412e-08
1.01121e-07
1.01118e-07
7.10017e-08
4.2516e-08