/*--------------------------------*- C++ -*----------------------------------*\
| =========                 |                                                 |
| \\      /  F ield         | OpenFOAM: The Open Source CFD Toolbox           |
|  \\    /   O peration     | Version:  2012                                  |
|   \\  /    A nd           | Website:  www.openfoam.com                      |
|    \\/     M anipulation  |                                                 |
\*---------------------------------------------------------------------------*/
FoamFile
{
    version     2.0;
    format      ascii;
    class       volScalarField;
    location    "0.104/fluid";
    object      p;
}
// * * * * * * * * * * * * * * * * * * * * * * * * * * * * * * * * * * * * * //

dimensions      [0 2 -2 0 0 0 0];


internalField   nonuniform List<scalar> 
131374
(
0.0551341
0.0542932
0.0543333
0.054181
0.0543906
0.0548766
0.0556965
0.057051
0.0592665
0.0630259
0.0698051
0.0841436
0.122494
0.241619
0.413594
0.0445638
0.0128503
0.00397696
0.00106886
-1.65194e-05
-0.000523396
-0.000794721
-0.000937284
-0.000983525
-0.000951688
-0.000838115
-0.00063955
-0.000340063
0.0550448
0.0542679
0.0542878
0.054113
0.0542953
0.0547438
0.0555062
0.0567536
0.0587367
0.0619172
0.0671656
0.0763617
0.0938893
0.123193
0.0632349
-0.0498857
0.00761567
0.00477685
0.00180282
0.000368165
-0.00027691
-0.000626803
-0.000836592
-0.000958023
-0.000998619
-0.00096287
-0.000850958
-0.000653112
-0.000350563
0.0550414
0.0542107
0.0541915
0.0539723
0.0540913
0.0544526
0.0550907
0.0561195
0.057718
0.0601321
0.0636946
0.0687737
0.0758297
0.0877157
0.0838606
-0.0311366
-0.00621055
-0.00143387
-0.000608202
-0.000589152
-0.000666723
-0.000781978
-0.000900544
-0.000981715
-0.00101244
-0.000974195
-0.000859841
-0.000665237
-0.000361697
0.0550352
0.0541475
0.0540746
0.053792
0.0538239
0.0540635
0.0545318
0.0552914
0.0564553
0.0581411
0.0605505
0.0641303
0.0709695
0.092898
0.140523
0.0065483
0.000406516
-0.00142986
-0.00124848
-0.000995668
-0.000865505
-0.000865983
-0.000927917
-0.000982795
-0.0010047
-0.000969542
-0.000862343
-0.000673884
-0.000368453
0.0550132
0.0540816
0.0539522
0.0535999
0.0535464
0.0536621
0.0539464
0.0544307
0.0551706
0.0561992
0.0576282
0.0597929
0.0637969
0.0711722
0.0470489
-0.0771143
0.00905186
0.00426104
0.000464946
-0.0006933
-0.00079384
-0.000791269
-0.000832058
-0.000897858
-0.00095885
-0.000977119
-0.000947545
-0.000849742
-0.000670435
-0.000368791
0.0549899
0.054027
0.0538491
0.0534349
0.0533047
0.0533193
0.0534436
0.0536901
0.0540514
0.0544804
0.0548902
0.0551205
0.0545578
0.0504194
0.0343352
0.00793735
0.00776219
0.00511392
0.0017802
0.000208519
-0.000307611
-0.000562821
-0.000723705
-0.000835689
-0.000910766
-0.000936974
-0.000916183
-0.000830182
-0.000661845
-0.000362774
0.054977
0.0539944
0.0537798
0.0533241
0.0531447
0.0530911
0.0531128
0.0532011
0.0533049
0.053301
0.0529515
0.051808
0.0489359
0.042669
0.031974
0.0193252
0.0113648
0.00629395
0.00273604
0.00100412
0.000129564
-0.000343682
-0.000614432
-0.000776366
-0.000864077
-0.000895646
-0.0008795
-0.000801668
-0.000641175
-0.000345671
0.0549609
0.0542541
0.0542891
0.0541192
0.0542982
0.0547326
0.055478
0.0566988
0.0586787
0.0619939
0.0677172
0.0786664
0.102578
0.156611
0.280394
0.158388
0.0389976
0.0121169
0.00336811
0.000749117
-0.000142012
-0.000578554
-0.000819121
-0.000948087
-0.000992772
-0.000957277
-0.000841967
-0.000640676
-0.000341415
0.0548784
0.0542313
0.0542434
0.0540525
0.0542059
0.0546041
0.0552922
0.0564093
0.0581822
0.0609745
0.0653669
0.0721621
0.0812647
0.0795424
-0.00216617
-0.152594
-0.0327624
0.00587299
0.0050347
0.00157718
9.28597e-05
-0.000394801
-0.00067843
-0.00086096
-0.00096859
-0.00100564
-0.000968707
-0.000854824
-0.000656841
-0.000354495
0.0548851
0.0541764
0.0541476
0.053912
0.0540065
0.0543238
0.0548898
0.0558058
0.0572218
0.0593314
0.0623054
0.0659518
0.0683708
0.0592805
0.00697884
-0.042046
-0.012355
-0.00352007
-0.000558097
-0.000580792
-0.00079921
-0.000769138
-0.000826786
-0.000917856
-0.000990916
-0.00101751
-0.0009794
-0.000866528
-0.000669979
-0.000363269
0.0548855
0.0541154
0.054031
0.0537318
0.0537439
0.0539487
0.0543537
0.0550167
0.0560267
0.0574908
0.0595384
0.0623946
0.066895
0.0742384
0.0629656
-0.198359
0.00521758
0.000250154
-0.00131744
-0.00136966
-0.00119059
-0.000953721
-0.000905001
-0.000942357
-0.000992898
-0.00101283
-0.00097687
-0.000870133
-0.000679649
-0.00037016
0.0548685
0.0540515
0.0539103
0.0535427
0.0534681
0.053555
0.0537894
0.0541963
0.0548106
0.0556791
0.0569121
0.0588783
0.0628621
0.071859
0.0723814
-0.0720509
0.00606625
0.00304836
1.79107e-05
-0.000997077
-0.00096312
-0.000868149
-0.00086815
-0.000915522
-0.000967225
-0.000986903
-0.000956684
-0.000860046
-0.000679938
-0.000370685
0.0548473
0.0539973
0.0538089
0.0533804
0.0532305
0.053216
0.0533026
0.0534865
0.0537512
0.05406
0.0543623
0.0545798
0.0543676
0.0516411
0.0382472
0.00974712
0.00667111
0.00426129
0.0012947
-5.57097e-05
-0.000428109
-0.000624175
-0.000757191
-0.000855696
-0.000923656
-0.000949881
-0.000927029
-0.000843095
-0.000672305
-0.000363224
0.0548331
0.0539645
0.0537414
0.0532717
0.0530725
0.0529914
0.0529809
0.0530157
0.0530401
0.0529423
0.0525194
0.0513756
0.0486793
0.0428376
0.0324973
0.0194266
0.010948
0.00585901
0.00245941
0.000854526
5.04333e-05
-0.000391309
-0.000646264
-0.000796798
-0.000880493
-0.000910439
-0.000891874
-0.000816421
-0.000652284
-0.00034822
0.0548787
0.0541681
0.054186
0.05398
0.0540918
0.054421
0.0549998
0.0559462
0.0574716
0.0600096
0.0643559
0.0725415
0.0910549
0.143955
0.291476
0.153854
0.0299761
0.00775321
0.00186947
0.000271919
-0.000362482
-0.000684862
-0.000871756
-0.000974807
-0.00101041
-0.000970464
-0.000852945
-0.000647245
-0.000344087
0.0548009
0.0541468
0.0541396
0.053912
0.054003
0.0542997
0.0548256
0.0556823
0.0570374
0.0591461
0.0623819
0.0671281
0.0727823
0.0716882
0.0198232
-0.142808
-0.0412235
-0.00145026
0.00147866
0.000106562
-0.000361084
-0.000595548
-0.000774308
-0.000906816
-0.000992167
-0.0010205
-0.000981646
-0.000866948
-0.000665824
-0.000362665
0.0548212
0.0540951
0.0540431
0.0537722
0.0538099
0.0540334
0.0544503
0.0551323
0.0561863
0.0577419
0.0598796
0.0622961
0.0628781
0.0537281
0.0123262
-0.0538146
-0.0303941
-0.0111216
-0.00373314
-0.00189979
-0.00121173
-0.000934695
-0.000905927
-0.00095494
-0.00100991
-0.00103042
-0.000992489
-0.000881113
-0.000680808
-0.000366739
0.0548339
0.0540381
0.0539271
0.0535937
0.0535552
0.0536772
0.0539498
0.0544114
0.055123
0.056162
0.0576431
0.0598926
0.0642616
0.0772302
0.103163
-0.201959
-0.0250782
-0.00940861
-0.00449425
-0.00252612
-0.00152656
-0.00108971
-0.000971255
-0.000974602
-0.00101053
-0.00102665
-0.000992127
-0.000887484
-0.00069263
-0.000373365
0.0548237
0.0539775
0.0538089
0.0534076
0.0532867
0.0533022
0.0534233
0.0536606
0.0540341
0.0545833
0.0554394
0.0571645
0.0619104
0.0769449
0.099335
-0.0823237
-0.0149565
-0.00409445
-0.0024634
-0.00180365
-0.00121525
-0.000980645
-0.000927792
-0.000948617
-0.000988191
-0.00100627
-0.000977028
-0.000881806
-0.000694872
-0.000374949
0.0548052
0.0539253
0.0537096
0.0532492
0.0530561
0.0529778
0.0529677
0.0530098
0.0530801
0.0531465
0.0531888
0.0532763
0.0535017
0.0526202
0.0413987
0.00802413
0.00190069
0.0013437
7.70056e-05
-0.000466477
-0.000600636
-0.000714827
-0.000812897
-0.000892385
-0.000951254
-0.000975904
-0.000953125
-0.000868393
-0.000690148
-0.00036739
0.0547928
0.0538938
0.0536436
0.0531435
0.052903
0.0527622
0.0526657
0.0525766
0.0524365
0.0521416
0.0515218
0.0502684
0.047711
0.0423749
0.0324579
0.0188981
0.00981799
0.0049466
0.00201509
0.000636784
-6.38847e-05
-0.000463791
-0.000699874
-0.000837937
-0.000914008
-0.00094065
-0.00092096
-0.00084415
-0.000672663
-0.000354472
0.0547948
0.0540652
0.0540482
0.0537857
0.0538064
0.0539906
0.0543376
0.0549139
0.0558434
0.0573947
0.0602097
0.065996
0.0814248
0.133388
0.291868
0.158078
0.0261895
0.00578426
0.0011581
-0.000119914
-0.000574756
-0.000796164
-0.000929235
-0.00100659
-0.00103092
-0.000987591
-0.000867139
-0.000659138
-0.000349498
0.0547255
0.0540462
0.0540012
0.0537183
0.0537212
0.0538773
0.0541797
0.0546824
0.0554803
0.0567188
0.0586301
0.0615711
0.0656909
0.0661401
0.0247656
-0.123764
-0.0362654
-0.00343976
-0.000482423
-0.000541265
-0.000664116
-0.000771651
-0.000870624
-0.00095915
-0.00102179
-0.00104078
-0.00100015
-0.000884923
-0.000680085
-0.000369316
0.054762
0.053999
0.0539051
0.0535807
0.053537
0.0536305
0.0538414
0.0542018
0.0547632
0.0555811
0.0566677
0.0578019
0.0576609
0.0502584
0.0177444
-0.0426076
-0.0314323
-0.013575
-0.00548522
-0.00246331
-0.00138938
-0.00105169
-0.000978611
-0.000998145
-0.00103606
-0.00105002
-0.00101279
-0.000902874
-0.000698013
-0.000378811
0.0547884
0.0539466
0.0537907
0.0534065
0.0532944
0.0533015
0.0533914
0.0535721
0.0538653
0.0542965
0.054922
0.0560456
0.0591894
0.071968
0.123963
-0.151803
-0.0332547
-0.0133282
-0.00609303
-0.00290793
-0.00162707
-0.00116492
-0.00102636
-0.00101302
-0.0010369
-0.00104921
-0.00101687
-0.000913827
-0.000712165
-0.000379869
0.0547868
0.0538895
0.0536759
0.053226
0.0530392
0.0529535
0.0529176
0.0529154
0.052942
0.0530016
0.0531756
0.0539506
0.0573178
0.0704611
0.0956894
-0.0884672
-0.0234381
-0.00742829
-0.0035342
-0.00197957
-0.0012818
-0.00103357
-0.000974401
-0.000987512
-0.00101983
-0.00103639
-0.00100841
-0.000913141
-0.000716901
-0.000381098
0.0547724
0.0538393
0.0535801
0.0530735
0.0528197
0.0526514
0.0525061
0.0523459
0.0521303
0.0518134
0.0513588
0.0508241
0.0503402
0.0489232
0.0383504
0.00720069
0.000217494
0.000163672
-0.000291393
-0.000538916
-0.00064103
-0.000755126
-0.00085633
-0.000934852
-0.000990634
-0.00101477
-0.000992467
-0.000904281
-0.000713829
-0.000377988
0.0547622
0.0538081
0.053516
0.0529721
0.0526741
0.0524498
0.0522318
0.0519654
0.0515809
0.0509776
0.0499958
0.0483684
0.0455402
0.0402566
0.0308783
0.0181944
0.00934351
0.00462731
0.00193642
0.000621921
-8.44818e-05
-0.000496913
-0.000742449
-0.000883932
-0.000959541
-0.000985704
-0.00096532
-0.000884195
-0.000697872
-0.000370087
0.0547156
0.0539612
0.0539023
0.0535738
0.0534961
0.0535226
0.053618
0.0537946
0.0540919
0.0546043
0.055665
0.0582674
0.0666978
0.100329
0.228869
0.13512
0.0177771
0.00353088
0.000394954
-0.000452144
-0.000743201
-0.000885215
-0.000977895
-0.00103713
-0.00105368
-0.00100733
-0.000884082
-0.000672871
-0.000354831
0.0546531
0.053944
0.053855
0.0535089
0.0534153
0.0534187
0.0534779
0.0535982
0.053797
0.0540975
0.054535
0.0551886
0.0559853
0.05372
0.0228935
-0.0833105
-0.0211977
-0.0021772
-0.00066766
-0.000763168
-0.000834102
-0.000884908
-0.000942506
-0.00100412
-0.00105128
-0.00106343
-0.00102008
-0.000904223
-0.000696991
-0.00038156
0.0547048
0.0539011
0.05376
0.0533746
0.0532409
0.053193
0.0531796
0.0531895
0.0532137
0.0532165
0.0530873
0.0524769
0.0501315
0.0415982
0.0160987
-0.0194913
-0.018833
-0.00920639
-0.00404992
-0.00205094
-0.00132314
-0.00107694
-0.00101981
-0.00103472
-0.00106391
-0.00107373
-0.0010367
-0.000926015
-0.000716977
-0.000382915
0.0547435
0.0538535
0.053648
0.0532059
0.0530124
0.0528933
0.0527843
0.0526562
0.0524829
0.052213
0.0517653
0.0510641
0.0501073
0.04836
0.0337752
-0.0224431
-0.0165185
-0.00869617
-0.00429972
-0.00225512
-0.00142718
-0.00112734
-0.0010423
-0.00104289
-0.00106508
-0.00107713
-0.00104636
-0.000941576
-0.000731782
-0.000387044
0.0547504
0.0538002
0.0535357
0.0530328
0.0527731
0.0525766
0.0523673
0.0521002
0.0517327
0.051207
0.050473
0.0495964
0.0489447
0.0486171
0.0381011
-0.00779047
-0.00810646
-0.00396672
-0.00223006
-0.00139987
-0.00106334
-0.000973789
-0.000979907
-0.00101569
-0.0010523
-0.00106996
-0.00104455
-0.000945568
-0.000737552
-0.000386524
0.0547407
0.0537529
0.0534427
0.0528866
0.0525675
0.0523015
0.0520048
0.0516184
0.0510757
0.0502951
0.0491698
0.0475862
0.0452856
0.0410033
0.0305566
0.0128134
0.00433117
0.00174172
0.000479068
-0.000108648
-0.00045722
-0.000697397
-0.000859553
-0.00096525
-0.00102949
-0.00105633
-0.00103524
-0.000941362
-0.000734506
-0.000383124
0.0547335
0.0537231
0.0533805
0.0527888
0.0524306
0.0521168
0.0517623
0.0512963
0.0506317
0.049656
0.0481979
0.0459853
0.042527
0.036925
0.0283791
0.0180301
0.0100556
0.00523327
0.00244594
0.000931435
6.03612e-05
-0.000449682
-0.000747895
-0.000917035
-0.00100417
-0.00103442
-0.00101266
-0.000923307
-0.000720153
-0.000374653
0.0546531
0.0538756
0.0537778
0.0533898
0.0532234
0.0531095
0.0529819
0.0528086
0.0525476
0.0521315
0.0515035
0.0507341
0.0500681
0.0488244
0.0185594
-0.0971226
-0.00963814
-0.000218322
0.000132168
-0.000446317
-0.000725158
-0.000860214
-0.000946804
-0.00101534
-0.00106572
-0.00107474
-0.00102414
-0.000899504
-0.000686916
-0.000366283
0.0545973
0.0538597
0.05373
0.0533266
0.0531463
0.0530145
0.0528593
0.0526418
0.0523107
0.0517674
0.0508314
0.0491506
0.045843
0.0377405
0.0136057
-0.0246844
-0.0128078
-0.00325135
-0.00123034
-0.000949344
-0.000919605
-0.000942115
-0.000985502
-0.00103659
-0.00107689
-0.00108419
-0.00103822
-0.000920974
-0.000711506
-0.000374911
0.0546609
0.0538196
0.0536356
0.0531954
0.052981
0.0528073
0.052595
0.0522942
0.0518404
0.0511097
0.0498608
0.0475868
0.0430992
0.0338034
0.0165892
-0.00241269
-0.00643517
-0.00403498
-0.00224881
-0.00144213
-0.00113069
-0.00103556
-0.00102998
-0.00105839
-0.00108841
-0.00109673
-0.00105808
-0.000945844
-0.000733677
-0.000387341
0.0547097
0.0537752
0.0535259
0.0530321
0.0527653
0.052534
0.0522476
0.0518435
0.0512506
0.0503464
0.0489171
0.0465941
0.0426466
0.0354396
0.021888
0.00459493
-0.00209079
-0.00254599
-0.00180194
-0.00128527
-0.00106763
-0.00101263
-0.00102407
-0.00105748
-0.00108965
-0.00110455
-0.00107436
-0.000965747
-0.000747348
-0.000391996
0.0547232
0.0537248
0.053416
0.052865
0.0525412
0.0522464
0.0518815
0.0513754
0.0506496
0.0495893
0.048021
0.045696
0.0421685
0.0362868
0.0254428
0.0106264
0.00306508
0.000610858
-0.000171283
-0.000477201
-0.000681864
-0.000835803
-0.000948328
-0.00102648
-0.00107832
-0.0011014
-0.00107816
-0.000973238
-0.000752388
-0.000390312
0.0547171
0.0536784
0.0533245
0.0527245
0.0523491
0.0519965
0.0515634
0.0509709
0.0501296
0.0489209
0.0471725
0.044638
0.0408897
0.0350942
0.0262659
0.0157367
0.00819604
0.00404148
0.00181375
0.000589969
-0.000136803
-0.000571378
-0.000828359
-0.00097793
-0.0010595
-0.00109125
-0.00107273
-0.000970422
-0.000751184
-0.000385715
0.054712
0.0536495
0.053263
0.0526296
0.0522203
0.0518279
0.0513493
0.0507011
0.0497806
0.0484596
0.0465539
0.0437903
0.0397755
0.0340292
0.026435
0.0181485
0.0111679
0.00632134
0.00328081
0.00142664
0.000312484
-0.00034392
-0.000722327
-0.00093335
-0.00103773
-0.00107416
-0.00105252
-0.000954135
-0.000738334
-0.000376439
0.0546207
0.053828
0.0536985
0.0532689
0.0530415
0.0528357
0.0525614
0.052155
0.0515213
0.0504862
0.0487591
0.0458757
0.0408432
0.0314904
0.0121992
-0.00997784
-0.0073141
-0.00245494
-0.00103127
-0.000835817
-0.000854644
-0.000911888
-0.000975113
-0.00103589
-0.00108372
-0.00108871
-0.00103285
-0.000908765
-0.000694251
-0.000369478
0.0545684
0.0538125
0.0536501
0.0532066
0.0529677
0.0527456
0.0524484
0.0520066
0.0513217
0.0502163
0.0483723
0.045224
0.0397447
0.030252
0.0148701
-0.00149974
-0.00408297
-0.00199944
-0.00117408
-0.000952681
-0.000922858
-0.000950805
-0.000998615
-0.00105122
-0.00109104
-0.00109635
-0.00104881
-0.000930455
-0.000720415
-0.000378769
0.054638
0.0537728
0.0535553
0.0530771
0.0528075
0.0525503
0.0522061
0.0516979
0.0509246
0.0497086
0.047731
0.0444447
0.0389361
0.0300892
0.0178785
0.00587355
0.000355424
-0.000853575
-0.000969448
-0.000933497
-0.000935332
-0.000969021
-0.00101606
-0.00106426
-0.00110052
-0.00110938
-0.00106979
-0.000955592
-0.000740809
-0.000389021
0.0546916
0.0537304
0.0534465
0.0529167
0.0526001
0.0522942
0.051889
0.0513
0.0504276
0.0491056
0.0470559
0.0438378
0.0387832
0.0311367
0.0208723
0.010452
0.00389599
0.00101906
-7.14656e-05
-0.000511116
-0.000743008
-0.000888713
-0.000986606
-0.00105437
-0.00110016
-0.00111922
-0.00108966
-0.000977232
-0.000753867
-0.000393528
0.054708
0.0536773
0.0533378
0.0527529
0.0523855
0.0520253
0.0515562
0.0508887
0.0499234
0.0485124
0.0464219
0.0433153
0.0387164
0.0320753
0.0232781
0.0140059
0.00723738
0.00337508
0.00135508
0.000276929
-0.000337115
-0.000693635
-0.000900549
-0.00101824
-0.00108706
-0.00111768
-0.00109714
-0.000986874
-0.000758263
-0.000390875
0.0547039
0.0536359
0.0532472
0.0526159
0.0522025
0.0517928
0.0512674
0.0505348
0.0494926
0.0480013
0.0458568
0.0427775
0.0384034
0.0323772
0.0247427
0.0167042
0.0101294
0.00565242
0.00286515
0.00117415
0.000156742
-0.00044015
-0.000782031
-0.000970527
-0.00106975
-0.00110875
-0.00109323
-0.000985174
-0.000755694
-0.000386894
0.0547003
0.0536074
0.0531863
0.0525233
0.0520795
0.0516352
0.0510725
0.0502995
0.0492067
0.0476556
0.0454572
0.0423534
0.0380584
0.0323662
0.0254543
0.0182455
0.0119496
0.0072045
0.00395388
0.00184985
0.000545909
-0.000232807
-0.000681038
-0.000928282
-0.00104982
-0.00109452
-0.00107514
-0.000969985
-0.000746971
-0.000378406
0.328972
0.139776
0.0655392
0.165133
0.244085
0.088931
0.0615929
0.102728
0.26825
0.0225747
-0.273893
-0.0340396
0.100896
-0.326959
-0.0844225
0.0764633
-0.0638197
0.0198873
0.121212
0.0285836
-0.033789
-0.00926452
0.08289
0.00507861
-0.213488
-0.0323759
-0.18332
-0.194415
-0.0676214
-0.245285
-0.09512
-0.185173
-0.0718772
0.124947
-0.0337148
-0.174333
-0.00172623
-0.269312
-0.0774963
-0.0279976
-0.171336
-0.06269
-0.254135
-0.0606927
0.0938873
-0.103474
0.0449877
-0.22093
0.0952598
-0.0688383
0.00935523
-0.1029
0.0634089
-0.20654
-0.0552311
-0.0620308
0.00324868
0.0135732
-0.195205
0.292804
0.0302335
-0.193871
0.1616
-0.23853
-0.03166
0.137514
-0.246012
-0.0559601
-0.214324
0.108423
-0.0642196
0.0853581
-0.209628
0.140623
-0.0574508
0.0208666
-0.0590266
0.0292749
-0.20578
-0.0553085
-0.0655965
-0.011447
0.033506
-0.175552
0.292992
0.0365879
-0.165345
0.163553
-0.222809
-0.0330046
0.171298
-0.211838
-0.0309612
-0.2052
0.152013
-0.0599524
0.128154
-0.156382
0.164379
-0.083315
-0.0318508
-0.0698996
-0.00978872
-0.162763
-0.0490983
-0.103205
-0.0311384
0.0381985
-0.154849
0.263459
0.0349926
-0.125879
0.17823
-0.199534
-0.02226
0.182889
-0.163484
-0.00704764
-0.145038
0.153012
-0.0841019
0.0472294
-0.0282816
0.0571882
-0.0148313
-0.0421707
-0.103849
-0.0306396
-0.0409416
-0.0232693
-0.0294072
-0.0163267
0.0308483
-0.108659
0.0483308
-0.0494924
0.0165927
-0.0258499
0.250241
-0.143177
-0.005162
-0.0781343
-0.0338936
-0.0346092
-0.0113221
-0.25028
0.868487
0.225436
0.00314494
0.235021
-0.501864
-0.739748
-0.506978
0.0335605
0.239579
0.175237
0.154341
-0.0108243
0.182665
0.0906337
0.17027
0.0907084
0.0840971
0.0781186
0.0394372
0.0527275
0.00195611
-0.149527
0.0782327
0.006429
-0.15911
0.0196192
-0.398743
0.730064
-0.317992
-0.390277
-0.253537
0.773968
0.0830918
0.0916544
0.108481
0.0508971
0.000247668
0.061656
0.0312547
-0.1627
0.091479
0.0135976
-0.161717
0.018365
-0.32722
0.771675
-0.219422
-0.334598
-0.225521
0.766319
0.1258
0.0794472
0.0941929
0.0673321
0.0604452
0.0730484
0.0901921
0.198683
0.0793562
-0.113029
0.162224
0.141374
0.749678
-0.249327
-0.0418431
0.302695
0.00175165
0.0256273
0.00607405
-0.0246166
-0.0172682
0.00110516
-0.00542259
-0.108018
0.0344082
0.0113199
0.0631051
-0.0804951
0.0379039
0.0139303
0.0117521
0.0083761
0.0111248
-0.0791412
-0.0113059
0.00849455
0.0052501
-0.280968
-0.436874
-0.745344
-0.28024
-0.724696
-0.40654
-0.0416957
0.03021
-0.163275
-0.00649493
-0.0727936
0.0303936
-0.202721
-0.008308
-0.155939
-0.0147835
-0.0836356
-0.066337
-0.206906
-0.0779496
0.0753901
0.0774414
0.100274
0.0739607
0.0883935
0.0814834
0.121263
0.0313182
0.152522
0.0607784
0.0309049
0.160273
0.0464281
-0.069015
-0.206296
0.0915297
-0.0998516
0.00128508
0.0180646
0.00317105
-0.0407433
-0.0229674
-0.013707
-0.0122689
-0.0703641
0.0404103
0.0164697
0.0930484
-0.0623299
0.0451797
0.0175721
0.0012628
0.0111726
0.0089718
-0.0782212
-0.0237136
0.00944758
0.00184638
-0.243628
-0.382949
-0.700098
-0.251625
-0.683784
-0.374418
-0.0431752
0.0504771
-0.172069
0.0136823
-0.0408915
0.0644849
-0.14983
-0.0374624
-0.178844
-0.0547419
-0.0534283
-0.0470173
-0.16356
-0.0635466
0.101354
0.0833606
0.129516
0.0756895
0.113049
0.0807189
0.134905
0.0857322
0.216604
0.111577
0.0996947
0.231632
-0.0345215
-0.0995635
-0.193521
-0.00108488
-0.105002
-0.0118604
-0.0093414
-0.00753641
-0.0388542
-0.0204038
-0.023888
-0.0135214
-0.0629579
0.0462879
0.0178225
0.103282
-0.067544
0.0450997
0.0156427
-0.0234032
0.00912621
0.00173572
-0.0945967
-0.0352233
0.00617727
-0.00185418
-0.189059
-0.340815
-0.65465
-0.214105
-0.62004
-0.293002
-0.0305741
0.0649594
-0.124667
0.0163931
-0.0176726
0.0350869
-0.0235892
-0.0372895
-0.139237
-0.0523546
-0.0255595
-0.0262634
-0.0364068
-0.026157
0.107138
0.0764478
0.125136
0.0538925
0.0529402
0.0562034
0.0604543
0.134278
0.243515
0.107051
0.116629
0.20574
-0.134533
-0.0855844
-0.0966271
-0.0578306
-0.0534681
-0.0167884
-0.0227197
-0.0122144
-0.0208096
-0.012531
-0.0144864
-0.00868792
-0.0631297
0.0428757
0.0147528
0.0485288
-0.00379458
0.0337353
0.0145676
-0.0334281
0.00585722
-0.00193555
-0.0175655
-0.0133505
0.00870774
0.000639767
-0.0348341
-0.127953
-0.549081
-0.496832
-0.113369
-0.307208
-0.0534237
-0.0122876
0.0410796
-0.00318947
0.0229244
0.00619253
0.0264496
0.0111415
-0.0189718
-0.013568
-0.0126882
0.00153328
-0.00437058
0.00665423
8.38526e-05
0.195925
0.346198
0.746935
0.203768
0.22105
0.380117
0.251518
-0.39845
-0.785403
0.347147
-0.399061
-0.0050237
-0.0196606
-0.112082
-0.194311
-0.459541
-0.345795
-0.58406
-0.280028
-0.263157
0.325193
-0.769448
-0.767444
-0.142884
0.306133
-0.368286
0.0563318
0.205405
-0.0499118
-0.29889
-0.345509
0.987669
-0.341429
-0.606426
-0.450349
-0.29838
-0.140609
0.149594
-0.0524954
-0.0963156
-0.318166
-0.367921
-0.443665
-0.760506
-0.732335
-0.314026
-0.509648
-0.216147
-0.32263
-0.236197
-0.270063
-0.154966
0.0811141
0.0130699
0.013911
-0.161648
-0.21929
-0.239584
-0.260441
-0.220905
-0.360323
0.771895
-0.221791
-0.242259
-0.343358
0.776912
-0.22495
-0.238264
-0.220973
-0.246118
-0.157675
0.0953301
0.0474112
0.0264697
-0.143451
-0.22193
-0.320569
-0.245511
-0.236483
-0.298545
0.768711
-0.281798
-0.222985
-0.319601
0.76463
-0.297423
-0.210442
0.137464
0.0656328
0.0844367
0.136005
0.0768099
-0.036512
-0.0865
-0.0263452
0.0525663
0.00238396
0.136023
0.00331785
0.132484
-0.234736
-0.117962
-0.120961
0.0909153
0.152103
0.0979638
0.146787
0.0861319
-0.0854804
0.0124899
-0.00715304
0.0781919
-0.0458499
0.145375
0.0602488
-0.243772
0.0195114
0.179695
0.156504
-0.0213161
-0.0767223
0.00534935
0.176854
0.078866
0.085808
0.0726673
0.00250741
-0.00049545
-0.03371
0.124325
0.135181
-0.208008
-0.094289
-0.0545272
0.0954393
0.0764171
0.0528499
-0.145374
-0.0310266
0.0907359
0.0821698
0.0363887
0.151836
-0.0745314
0.00210913
0.0077442
0.130894
0.0730656
0.0459183
0.00123411
-0.00506651
0.0752698
0.0338298
0.0499024
-0.0556851
0.322468
-0.755555
-0.1084
-0.731204
0.330085
-0.0517756
0.333623
-0.708386
-0.725587
-0.0363622
0.329622
-0.265054
-0.383691
-0.703041
-0.719813
-0.260689
-0.402977
-0.0976802
-0.215192
-0.0892701
0.170273
0.11499
0.117046
0.182998
0.129573
0.0204793
-0.0558633
0.041482
0.0808508
0.0626809
0.195236
0.0552303
0.182165
-0.213173
-0.0632533
-0.0785405
0.131046
0.218883
0.160021
0.203222
0.146715
-0.0544903
0.0634148
0.0480678
-0.00674964
0.00801633
0.0415767
-0.0592217
0.0353771
-0.105917
-0.0337621
0.0882836
0.00599817
-0.0563039
0.129135
-0.00651967
0.0102205
0.0485277
0.0154798
-0.00493629
0.0482311
-0.00727496
-0.0121024
0.0429558
-0.203535
-0.105304
-0.0879064
0.00239586
-0.00827777
-0.00976437
-0.0944404
-0.0362555
-0.0398699
0.00662822
-0.0470325
0.0850269
-0.0566086
-0.0249143
-0.00670193
0.0236671
0.0077123
0.0107862
-0.0135078
-0.0260073
0.0209713
-0.00455844
-0.045414
-0.0276129
0.333857
-0.705026
-0.0342708
-0.689043
0.33645
-0.0248615
0.339364
-0.664539
-0.685894
-0.0181846
0.336795
-0.236689
-0.344759
-0.658713
-0.680803
-0.222036
-0.371497
-0.0528596
-0.19163
-0.0300033
0.237752
0.173557
0.159645
0.252668
0.183572
0.0676235
-0.0714543
0.076161
0.123603
0.131397
0.253634
0.11911
0.246886
-0.18419
0.00443719
-0.0200216
0.164724
0.269662
0.192599
0.265012
0.190725
-0.0754056
0.0785425
0.0778787
-0.082082
-0.0680082
-0.0201548
-0.0536392
-0.0489988
-0.0912612
-0.0417332
-0.0524496
-0.0294239
-0.0868707
0.0187198
-0.0502723
-0.109093
-0.00658133
-0.0318742
-0.0229337
-0.0491616
-0.0252195
-0.0474941
-0.0381398
-0.187193
-0.0914871
-0.100881
-0.0543993
-0.0840034
-0.043597
-0.083261
-0.0440441
-0.0803077
-0.0376344
-0.102056
-0.0582262
-0.0922922
-0.0679616
-0.0556489
-0.116397
-0.113098
-0.0257515
-0.0338918
-0.0642856
-0.0269737
-0.0566182
-0.161273
-0.00676544
0.339522
-0.660501
-0.0154576
-0.626698
0.340271
-0.00293971
0.33003
-0.561985
-0.620189
0.00759635
0.339828
-0.175977
-0.150029
-0.560978
-0.613746
-0.136696
-0.284144
0.011605
-0.0910038
0.0174712
0.256145
0.181658
0.128916
0.214379
0.150273
0.0766155
-0.0636892
0.0531618
-0.235681
0.0652028
0.0331131
0.0654354
0.0492987
0.105606
0.0530205
-0.350324
-0.0705118
0.00359171
-0.0317036
0.0115565
-0.112866
0.00980084
-0.230432
0.0795491
0.0685538
0.0454935
0.110974
0.0687145
0.058137
-0.347094
-0.0495701
-0.0217602
0.0175656
-0.109978
0.0380699
0.0181127
-0.0496694
-0.0724588
-0.0429108
-0.0388383
-0.102757
-0.0601142
-0.0312808
-0.233031
-0.0689255
-0.0763086
-0.122045
-0.0469079
-0.0935489
-0.0362087
-0.0641361
-0.0301808
-0.163988
-0.0262297
-0.0560219
0.0726834
-0.0756045
-0.0367824
-0.0436963
-0.0695123
-0.10853
-0.0356233
0.0389207
-0.0299181
-0.0282944
-0.018072
-0.0450168
-0.0358981
-0.0210996
0.0788833
-0.0592108
-0.0363418
-0.027705
-0.105112
-0.0642021
-0.0297767
0.0321975
-0.0222695
-0.0152023
-0.0210863
-0.0317267
-0.0396867
-0.0171063
-0.0134022
0.325245
-0.547127
-0.594148
0.0144466
-0.302701
-0.0559318
-0.0144157
0.256422
0.231573
0.0972869
0.241984
0.290951
0.0191208
0.128634
0.0720669
0.188622
0.3637
0.00501938
-0.367153
-0.0760763
-0.316225
0.00446262
-0.026057
-0.00646679
-0.0570962
-0.0191162
-0.0490383
-0.0269948
0.0742753
-0.221036
0.0749734
-0.220552
-0.00954838
0.00560354
-0.00111648
-0.0436047
-0.0279379
-0.0380227
-0.0210653
-0.090711
-0.307862
-0.0119949
-0.40726
0.245891
0.0862385
0.0465207
0.145826
0.250003
0.0769588
0.0544751
0.144454
0.285163
0.129109
0.292717
0.113209
0.151729
0.294991
0.0537882
-0.00162149
0.016559
0.136042
0.0303954
-0.0277222
-0.00686537
-0.13261
0.0046346
-0.0446066
0.0118337
-0.130216
-0.00925092
-0.0835227
-0.0557757
-0.0463378
-0.0102514
-0.164696
-0.0951526
-0.0960785
-0.0725928
0.248742
0.076326
0.0567673
0.137063
0.246834
0.0717592
0.0570204
0.142674
0.299265
0.140057
0.292258
0.140291
0.141356
0.301301
0.0429663
-0.00610407
0.00805886
0.154642
0.0395986
-0.00803401
0.00248693
-0.111063
0.00960682
-0.0483431
0.0219208
-0.103241
0.00899579
-0.0505828
-0.0693236
-0.0601996
-0.0403149
-0.134528
-0.0705053
-0.0631164
-0.0500314
0.244324
0.0696812
0.0568489
0.112203
0.215306
0.0597533
0.0494133
0.149892
0.304005
0.141931
0.288593
0.149009
0.139661
0.302999
0.0403522
-0.00111823
0.00601362
0.139878
0.0341259
0.00362537
0.00524945
-0.0932831
0.0137502
-0.0375808
0.0245435
-0.0720376
0.0144238
-0.0229583
-0.0608266
-0.049611
-0.0384301
-0.0966796
-0.0437338
-0.0315958
-0.0263581
0.188485
0.0551571
0.043947
0.0587025
0.0579076
0.0410789
0.0257534
0.0868063
0.256495
0.106775
0.160139
0.129646
0.0754167
0.0365659
0.0307714
0.00263652
0.00419253
-5.56196e-05
0.0047385
-0.00550737
-0.00115103
-0.0614749
0.0145545
-0.0175219
0.0167126
-0.018596
0.0152619
-0.00331277
-0.0366341
-0.0248327
-0.0214603
-0.0275134
-0.0191635
-0.00771251
-0.010186
-0.100534
0.0112956
-0.0290193
0.0164779
0.000414094
0.0150456
0.00239081
-0.0156632
-0.0363531
-0.0174835
-0.00395597
-0.00637363
-0.000794298
-0.00337565
0.15661
0.454546
0.468478
0.280294
0.310011
0.414039
0.323463
0.0633976
0.121699
0.0855303
0.025002
-0.0162049
0.0655336
0.234495
-0.508088
-0.401479
-0.449493
-0.480744
0.168072
0.292396
0.285867
0.156965
0.144785
0.132478
0.243412
0.0723241
-0.16729
-0.535737
-0.162158
-0.522147
-0.0549751
-0.173446
-0.0980631
0.138614
0.065972
0.140781
-0.222395
-0.363091
-0.131048
-0.425193
-0.225479
0.153657
-0.264475
-0.0105824
0.0553937
-0.279797
-0.311168
-0.303537
-0.236068
-0.59259
-0.277582
-0.573823
-0.143259
-0.429617
-0.01543
0.0604724
0.00442896
0.0505982
-0.0629836
-0.0132108
0.0673186
-0.44292
-0.409131
-0.363001
-0.479592
-0.387919
-0.270258
-0.276044
-0.382865
-0.25132
-0.124333
-0.0633109
0.0668492
-0.264052
0.105301
0.000852715
0.0723194
-0.221878
0.0740668
-0.227276
-0.239768
-0.100495
0.0207271
0.129431
0.121702
-0.231004
0.0113491
-0.381943
-0.26943
-0.268824
-0.382295
-0.416876
-0.348592
-0.304264
-0.457719
-0.219465
0.0230445
-0.0564711
0.134082
-0.221147
0.133109
0.0296437
0.0478135
-0.294034
0.017361
-0.25364
-0.201184
-0.0681659
0.0615359
0.131017
0.130571
-0.198968
0.0230034
-0.581031
-0.361866
-0.476182
-0.469188
-0.106218
-0.510617
-0.104359
-0.215222
-0.113563
-0.497285
-0.101185
0.12915
0.285152
0.298719
0.143949
0.131226
0.141611
0.294467
-0.102499
-0.186212
-0.474936
-0.0891249
-0.485303
-0.090121
-0.0950211
-0.223976
-0.245374
0.0607591
0.118792
-0.187945
0.0222624
-0.228913
-0.374079
-0.563163
-0.182027
-0.271547
-0.278331
-0.556641
-0.222008
-0.17926
0.160836
-0.20479
0.0413078
0.0606887
-0.193756
-0.217328
-0.292271
-0.231353
-0.532399
-0.197566
-0.540697
-0.180517
-0.334174
-0.0871034
-0.467931
-0.0778426
-0.17954
-0.089616
-0.458208
-0.0797366
0.145547
0.292986
0.303817
0.142677
0.142493
0.147263
0.302021
-0.0800379
-0.166116
-0.438944
-0.0693757
-0.452518
-0.0697737
-0.076874
-0.172466
-0.201538
0.0630634
0.158347
-0.170352
0.0567106
-0.201572
-0.308267
-0.52373
-0.174149
-0.228293
-0.295483
-0.51369
-0.180381
-0.158071
0.169631
-0.172205
0.0694777
0.0683132
-0.151211
-0.193905
-0.288646
-0.213065
-0.49224
-0.163885
-0.50725
-0.16536
-0.285999
-0.065249
-0.432776
-0.0621658
-0.148716
-0.0706263
-0.411223
-0.058423
0.14908
0.280876
0.277984
0.124507
0.134609
0.143798
0.300765
-0.0586246
-0.137987
-0.363304