/*--------------------------------*- C++ -*----------------------------------*\
| =========                 |                                                 |
| \\      /  F ield         | OpenFOAM: The Open Source CFD Toolbox           |
|  \\    /   O peration     | Version:  2012                                  |
|   \\  /    A nd           | Website:  www.openfoam.com                      |
|    \\/     M anipulation  |                                                 |
\*---------------------------------------------------------------------------*/
FoamFile
{
    version     2.0;
    format      ascii;
    class       volVectorField;
    location    "0.104/solid";
    object      D_0;
}
// * * * * * * * * * * * * * * * * * * * * * * * * * * * * * * * * * * * * * //

dimensions      [0 1 0 0 0 0 0];


internalField   nonuniform List<vector> 
3125
(
(6.69662e-11 2.15647e-10 -4.01982e-12)
(5.75948e-11 2.03914e-10 -4.94777e-12)
(3.75838e-11 1.78565e-10 2.93542e-11)
(6.74462e-11 2.16931e-10 -4.13242e-12)
(5.94029e-11 2.05886e-10 -4.9007e-12)
(3.68509e-11 1.84465e-10 1.87234e-11)
(6.97915e-11 2.22627e-10 -5.61466e-12)
(6.4522e-11 2.12013e-10 -4.2101e-12)
(4.99245e-11 1.96561e-10 -2.70188e-12)
(6.90647e-11 2.20753e-10 -5.09395e-12)
(6.34533e-11 2.1065e-10 -4.35572e-12)
(4.64837e-11 1.9372e-10 -1.09076e-13)
(3.4043e-10 3.65837e-10 -4.38881e-12)
(4.71711e-11 1.4199e-10 -3.24648e-12)
(2.20868e-10 8.62389e-10 -8.64233e-12)
(6.63245e-11 2.14451e-10 -3.98717e-12)
(3.46538e-10 3.71235e-10 -4.57054e-12)
(2.185e-10 8.56212e-10 -7.1231e-12)
(4.62874e-11 1.41013e-10 -3.31775e-12)
(2.92946e-10 3.35024e-10 1.24939e-12)
(3.48061e-11 1.32404e-10 -3.74662e-12)
(1.9899e-10 8.22757e-10 -8.71016e-12)
(5.54603e-11 2.01704e-10 -4.76982e-12)
(3.09173e-10 3.44902e-10 -1.99627e-12)
(1.91178e-10 8.10527e-10 -5.38076e-12)
(3.19934e-11 1.30626e-10 -3.54501e-12)
(2.54465e-10 2.89006e-10 1.06291e-10)
(1.39804e-12 1.15757e-10 1.73619e-11)
(1.49039e-10 7.27657e-10 1.10947e-10)
(4.69059e-11 1.63807e-10 4.13218e-11)
(2.12162e-10 3.06507e-10 6.27311e-11)
(1.84529e-10 6.34971e-10 2.00851e-10)
(1.12642e-11 1.09426e-10 2.3226e-11)
(2.44252e-10 9.33134e-10 -7.77991e-12)
(2.45958e-10 9.40245e-10 -9.10591e-12)
(3.52043e-10 3.76892e-10 -5.02516e-12)
(6.78986e-11 2.18174e-10 -4.21479e-12)
(4.77152e-11 1.42959e-10 -3.34343e-12)
(2.21558e-10 8.64653e-10 -7.5449e-12)
(3.46711e-10 3.71439e-10 -4.80143e-12)
(2.2352e-10 8.71568e-10 -8.94904e-12)
(4.82414e-11 1.43936e-10 -3.46395e-12)
(2.43689e-10 9.30764e-10 -8.81593e-12)
(2.41724e-10 9.24277e-10 -7.39723e-12)
(2.26512e-10 8.9306e-10 -8.28171e-12)
(2.31596e-10 9.02855e-10 -9.49636e-12)
(3.21989e-10 3.53018e-10 -3.48414e-12)
(6.09419e-11 2.07634e-10 -4.7205e-12)
(3.71403e-11 1.33984e-10 -3.81519e-12)
(2.01229e-10 8.25977e-10 -7.77743e-12)
(3.10266e-10 3.45293e-10 -2.45362e-12)
(2.06891e-10 8.35455e-10 -9.14156e-12)
(3.91198e-11 1.35396e-10 -3.69783e-12)
(2.24622e-10 8.89646e-10 -9.12959e-12)
(2.17796e-10 8.77084e-10 -5.98793e-12)
(1.8589e-10 7.91733e-10 1.01013e-10)
(1.90787e-10 8.23914e-10 4.2345e-11)
(2.33665e-10 3.10066e-10 3.15264e-11)
(3.92221e-11 1.87933e-10 1.03597e-11)
(1.98956e-12 1.18284e-10 1.18141e-11)
(1.48264e-10 7.39216e-10 8.95524e-11)
(2.11477e-10 3.05381e-10 5.8063e-11)
(1.56369e-10 7.62911e-10 3.89807e-11)
(7.18883e-12 1.20097e-10 7.22244e-12)
(1.87253e-10 7.75392e-10 1.27602e-10)
(2.20318e-10 6.55038e-10 2.45398e-10)
(2.27175e-10 8.8341e-10 -1.01485e-11)
(5.10986e-11 1.47569e-10 -4.64497e-12)
(3.59734e-10 3.84332e-10 -5.99534e-12)
(2.60733e-10 1.14346e-09 -9.46229e-12)
(2.84874e-11 4.07553e-11 -2.00491e-12)
(2.67403e-11 3.9224e-11 -9.7971e-13)
(2.57227e-11 3.87676e-11 -1.53454e-12)
(2.53757e-10 1.11703e-09 -7.198e-12)
(2.51138e-10 1.10977e-09 -6.73838e-12)
(3.4001e-10 3.65637e-10 -4.18651e-12)
(6.54925e-11 2.13276e-10 -4.04576e-12)
(2.14087e-10 8.47796e-10 -7.54217e-12)
(4.38196e-11 1.3897e-10 -3.46203e-12)
(2.17499e-10 8.54529e-10 -8.42492e-12)
(3.32472e-10 3.59998e-10 -4.1567e-12)
(4.5132e-11 1.4002e-10 -3.32928e-12)
(2.4634e-10 1.09908e-09 -7.01208e-12)
(2.50065e-10 1.10756e-09 -6.98248e-12)
(2.38063e-11 3.81035e-11 -1.53215e-12)
(2.54589e-11 3.86068e-11 -9.97184e-13)
(1.84413e-11 3.64417e-11 -9.14314e-13)
(1.5224e-11 3.57408e-11 -1.11946e-12)
(2.29892e-10 1.06678e-09 -5.93094e-12)
(2.21245e-10 1.05123e-09 -2.68273e-12)
(2.91268e-10 3.34514e-10 2.1744e-12)
(5.29254e-11 1.99248e-10 -4.11297e-12)
(1.77499e-10 7.91052e-10 3.68615e-12)
(2.43498e-11 1.26487e-10 -1.79167e-12)
(1.87985e-10 8.06467e-10 -5.24022e-12)
(2.68421e-10 3.22347e-10 1.02012e-11)
(2.85648e-11 1.28649e-10 -2.91708e-12)
(2.05998e-10 1.02598e-09 8.61564e-12)
(2.17888e-10 1.04585e-09 -1.07597e-12)
(9.43044e-12 3.46839e-11 -6.54596e-14)
(1.43752e-11 3.5504e-11 -4.38217e-13)
(-1.12054e-11 3.13089e-11 4.36105e-12)
(-1.00077e-14 2.75204e-11 4.8125e-12)
(1.6664e-10 9.42985e-10 1.40607e-10)
(1.9994e-10 8.35258e-10 2.42365e-10)
(2.65704e-10 2.77387e-10 1.16509e-10)
(4.05526e-11 7.27795e-11 3.43976e-11)
(2.16728e-10 5.76703e-10 2.38587e-10)
(7.69334e-12 4.40837e-11 7.13566e-12)
(2.35969e-10 7.66642e-10 2.76144e-10)
(1.19482e-11 2.62667e-11 4.65262e-12)
(2.48395e-10 9.52832e-10 -1.01948e-11)
(2.47567e-10 9.48897e-10 -1.09361e-11)
(2.46303e-10 9.41602e-10 -8.1191e-12)
(3.52384e-10 3.7715e-10 -5.24863e-12)
(6.84371e-11 2.19333e-10 -4.51483e-12)
(2.26245e-10 8.7951e-10 -1.08698e-11)
(5.0176e-11 1.46198e-10 -4.18257e-12)
(3.59591e-10 3.84084e-10 -5.75064e-12)
(2.24191e-10 8.72807e-10 -7.83214e-12)
(4.91164e-11 1.44983e-10 -3.83291e-12)
(2.67034e-11 3.93582e-11 -1.52861e-12)
(2.70275e-11 3.97778e-11 -1.11027e-12)
(2.5451e-10 1.12025e-09 -7.2078e-12)
(2.56772e-10 1.12932e-09 -7.50177e-12)
(2.59649e-10 1.13745e-09 -9.01917e-12)
(2.57471e-10 1.13063e-09 -7.33446e-12)
(2.82746e-11 4.05474e-11 -1.38536e-12)
(2.70406e-11 3.99421e-11 -1.74428e-12)
(2.37875e-10 9.1561e-10 -7.87258e-12)
(2.40924e-10 9.22541e-10 -8.60822e-12)
(2.36789e-10 9.13345e-10 -9.12731e-12)
(2.33e-10 9.05374e-10 -8.2956e-12)
(3.22739e-10 3.53302e-10 -3.7463e-12)
(6.22745e-11 2.09202e-10 -4.54183e-12)
(2.12805e-10 8.45617e-10 -8.85863e-12)
(4.23983e-11 1.37856e-10 -3.50394e-12)
(3.31896e-10 3.59744e-10 -3.95378e-12)
(2.08541e-10 8.37912e-10 -7.87213e-12)
(4.08404e-11 1.3667e-10 -3.64304e-12)
(1.89737e-11 3.6644e-11 -1.4697e-12)
(2.12519e-11 3.72348e-11 -1.00691e-12)
(2.323e-10 1.07124e-09 -6.27217e-12)
(2.38513e-10 1.08322e-09 -7.12778e-12)
(2.44966e-10 1.09607e-09 -7.20962e-12)
(2.40296e-10 1.08656e-09 -7.00816e-12)
(2.34773e-11 3.79412e-11 -1.00903e-12)
(2.16288e-11 3.74085e-11 -1.52856e-12)
(1.98107e-10 1.13459e-09 -3.50288e-12)
(2.06371e-10 8.56558e-10 3.48133e-12)
(2.1544e-10 8.72611e-10 -5.67018e-12)
(1.86275e-10 1.10898e-09 8.02325e-12)
(1.9581e-10 1.13059e-09 -1.94745e-12)
(2.03371e-10 8.51078e-10 6.83729e-12)
(1.93649e-10 8.30888e-10 3.1342e-11)
(1.60403e-10 1.02211e-09 1.26443e-10)
(1.68535e-10 1.06567e-09 5.58378e-11)
(1.83083e-10 1.10267e-09 1.34325e-11)
(1.72244e-10 1.07579e-09 4.11703e-11)
(2.36564e-10 3.10013e-10 2.83228e-11)
(4.27655e-11 1.9084e-10 4.104e-12)
(1.73375e-10 7.86053e-10 6.66072e-12)
(1.92588e-11 1.24229e-10 2.07672e-13)
(2.65909e-10 3.21794e-10 1.20423e-11)
(1.6061e-10 7.68503e-10 2.93781e-11)
(1.33724e-11 1.22037e-10 3.18492e-12)
(-1.09638e-11 3.21033e-11 3.86682e-12)
(-2.00416e-12 3.33084e-11 3.16394e-12)
(1.67645e-10 9.57515e-10 1.12369e-10)
(1.80763e-10 9.88312e-10 5.17506e-11)
(2.0138e-10 1.01929e-09 1.34154e-11)
(1.86126e-10 9.96203e-10 3.90136e-11)
(7.96752e-12 3.44273e-11 8.70431e-13)
(3.11962e-13 3.35701e-11 2.04537e-12)
(1.59925e-10 9.99237e-10 1.6092e-10)
(1.9044e-10 8.51708e-10 2.92196e-10)
(6.63265e-11 7.0634e-11 4.90751e-11)
(2.52714e-10 5.84782e-10 2.96068e-10)
(2.24355e-10 7.66119e-10 3.3773e-10)
(1.41293e-10 1.80779e-10 1.36283e-10)
(3.80315e-11 1.21304e-11 5.09448e-11)
(2.1606e-10 1.87912e-10 2.37135e-10)
(2.03364e-11 1.75282e-11 2.37663e-11)
(4.53246e-11 7.68698e-12 6.40975e-11)
(2.49201e-10 1.76108e-10 2.78941e-10)
(1.5326e-10 4.22419e-10 -6.39565e-12)
(3.43546e-10 3.6844e-10 -4.34541e-12)
(2.42249e-10 5.6067e-10 -5.88658e-12)
(1.86292e-10 2.88607e-10 -5.3693e-12)
(1.87791e-10 2.89926e-10 -5.03259e-12)
(2.43623e-10 5.62379e-10 -6.69258e-12)
(1.52123e-10 4.20918e-10 -6.11016e-12)
(1.54165e-10 4.23329e-10 -6.12818e-12)
(3.43874e-10 3.68659e-10 -4.56537e-12)
(1.89977e-10 2.92048e-10 -5.06453e-12)
(2.45908e-10 5.657e-10 -6.8618e-12)
(1.54993e-10 4.24954e-10 -6.46606e-12)
(1.8884e-10 2.90685e-10 -5.39247e-12)
(2.44829e-10 5.63836e-10 -5.98077e-12)
(1.25306e-10 3.96615e-10 -5.93501e-12)
(3.00997e-10 3.39985e-10 -3.98196e-13)
(2.05285e-10 5.24034e-10 -2.7426e-12)
(1.49976e-10 2.66379e-10 -3.30395e-12)
(1.54087e-10 2.68882e-10 -3.63703e-12)
(2.09177e-10 5.27623e-10 -4.52065e-12)
(1.2199e-10 3.93566e-10 -4.98303e-12)
(1.28014e-10 3.98374e-10 -6.08353e-12)
(3.0236e-10 3.40465e-10 -1.04641e-12)
(1.60597e-10 2.72487e-10 -4.47991e-12)
(2.1589e-10 5.33786e-10 -5.80811e-12)
(1.30743e-10 4.01112e-10 -6.64111e-12)
(1.57188e-10 2.70214e-10 -4.49867e-12)
(2.12654e-10 5.3055e-10 -4.53625e-12)
(7.84243e-11 3.52962e-10 7.78543e-11)
(2.2638e-10 3.05035e-10 8.36883e-11)
(1.77538e-10 4.48377e-10 1.34656e-10)
(1.01719e-10 2.29529e-10 6.89935e-11)
(8.29523e-11 2.39306e-10 5.79764e-11)
(1.56975e-10 4.68322e-10 1.13675e-10)
(9.79462e-11 3.34802e-10 9.52951e-11)
(6.98219e-11 3.58657e-10 6.64635e-11)
(2.18728e-10 3.0447e-10 7.77401e-11)
(7.70721e-11 2.45359e-10 4.25907e-11)
(1.39114e-10 4.82075e-10 8.0125e-11)
(6.63636e-11 3.64142e-10 5.43136e-11)
(7.6636e-11 2.41877e-10 4.96865e-11)
(1.44375e-10 4.76977e-10 9.69592e-11)
(1.57016e-10 4.28762e-10 -6.48155e-12)
(3.49206e-10 3.74105e-10 -5.01888e-12)
(2.49835e-10 5.72881e-10 -7.37799e-12)
(1.93551e-10 2.96323e-10 -5.6084e-12)
(1.57877e-10 4.30348e-10 -6.99867e-12)
(1.92374e-10 2.94883e-10 -5.71844e-12)
(2.48686e-10 5.71078e-10 -6.4482e-12)
(1.56348e-10 4.27723e-10 -6.64371e-12)
(3.49058e-10 3.73912e-10 -4.80404e-12)
(1.90722e-10 2.92803e-10 -5.48299e-12)
(2.46834e-10 5.67378e-10 -6.19275e-12)
(1.55658e-10 4.25993e-10 -6.2455e-12)
(1.91649e-10 2.94121e-10 -5.22639e-12)
(2.47744e-10 5.69394e-10 -7.1123e-12)
(1.3726e-10 4.06449e-10 -6.63847e-12)
(3.16967e-10 3.49524e-10 -3.27769e-12)
(2.26377e-10 5.43942e-10 -6.70192e-12)
(1.70733e-10 2.78496e-10 -5.02878e-12)
(1.39229e-10 4.08605e-10 -6.87439e-12)
(1.68262e-10 2.76691e-10 -5.36555e-12)
(2.24025e-10 5.41425e-10 -5.86044e-12)
(1.35335e-10 4.05075e-10 -6.88216e-12)
(3.16062e-10 3.49182e-10 -2.94149e-12)
(1.63178e-10 2.73664e-10 -5.12114e-12)
(2.18796e-10 5.36337e-10 -5.43338e-12)
(1.33007e-10 4.0266e-10 -6.53979e-12)
(1.66078e-10 2.75649e-10 -4.89625e-12)
(2.21544e-10 5.39163e-10 -6.44294e-12)
(7.41101e-11 3.68098e-10 2.91914e-11)
(2.21042e-10 3.0647e-10 4.17236e-11)
(1.53831e-10 4.90822e-10 3.29104e-11)
(9.81606e-11 2.48432e-10 1.98187e-11)
(7.95629e-11 3.70499e-10 2.13714e-11)
(9.10175e-11 2.46877e-10 2.49776e-11)
(1.47567e-10 4.87878e-10 4.31232e-11)
(6.99885e-11 3.67179e-10 3.60257e-11)
(2.19012e-10 3.07175e-10 4.56612e-11)
(7.99781e-11 2.45457e-10 3.63012e-11)
(1.39093e-10 4.83757e-10 6.67345e-11)
(6.6896e-11 3.64999e-10 4.57516e-11)
(8.54099e-11 2.46708e-10 3.05224e-11)
(1.42425e-10 4.85951e-10 5.32834e-11)
(1.65381e-10 4.41806e-10 -8.71732e-12)
(3.63098e-10 3.87769e-10 -5.91821e-12)
(2.59155e-10 5.88701e-10 -8.35901e-12)
(2.03081e-10 3.05337e-10 -7.56438e-12)
(1.64005e-10 4.40232e-10 -8.82308e-12)
(3.62733e-10 3.87444e-10 -5.84866e-12)
(2.56358e-10 5.82652e-10 -8.1715e-12)
(2.00083e-10 3.02498e-10 -7.02519e-12)
(2.5752e-10 5.85997e-10 -9.20212e-12)
(2.01519e-10 3.04263e-10 -6.92096e-12)
(1.62943e-10 4.3751e-10 -8.23353e-12)
(3.75588e-10 7.38553e-10 -7.82662e-12)
(2.6204e-10 1.1504e-09 -9.81981e-12)
(3.25884e-10 8.54203e-10 -8.48021e-12)
(3.28395e-10 8.62907e-10 -8.52481e-12)
(2.63373e-10 1.15617e-09 -9.11777e-12)
(3.29301e-10 8.65227e-10 -8.66824e-12)
(3.71744e-10 7.29336e-10 -7.5683e-12)
(3.74522e-10 7.36588e-10 -7.44787e-12)
(2.31632e-10 2.23186e-10 -5.60519e-12)
(1.49555e-10 1.50193e-10 -4.50499e-12)
(2.93324e-11 4.09756e-11 -1.56019e-12)
(1.51825e-10 1.51086e-10 -4.53265e-12)
(2.28205e-10 2.21205e-10 -5.32905e-12)
(2.30994e-10 2.22868e-10 -5.90126e-12)
(2.96508e-11 4.12193e-11 -2.12044e-12)
(1.52762e-10 1.5163e-10 -4.81152e-12)
(2.1242e-10 2.09808e-10 -3.93346e-12)
(2.15075e-10 2.11297e-10 -4.33e-12)
(1.41842e-10 1.44183e-10 -3.15863e-12)
(2.65374e-11 3.90967e-11 -1.4924e-12)
(1.40931e-10 1.43461e-10 -3.34247e-12)
(2.17387e-10 2.12996e-10 -4.40667e-12)
(2.15508e-10 2.11573e-10 -4.00388e-12)
(1.38251e-10 1.42185e-10 -3.36514e-12)
(2.63933e-11 3.89474e-11 -1.04059e-12)
(1.40325e-10 1.43002e-10 -3.19572e-12)
(3.55617e-10 7.03596e-10 -5.76182e-12)
(3.57846e-10 7.06606e-10 -5.46385e-12)
(3.16235e-10 8.34264e-10 -6.36092e-12)
(2.52992e-10 1.11409e-09 -6.87582e-12)
(3.14595e-10 8.30634e-10 -6.36885e-12)
(3.6041e-10 7.10648e-10 -5.64218e-12)
(3.58504e-10 7.07239e-10 -5.85603e-12)
(3.12048e-10 8.26881e-10 -6.29366e-12)
(2.52138e-10 1.11185e-09 -6.87835e-12)
(3.14017e-10 8.29861e-10 -6.12951e-12)
(1.49743e-10 4.1845e-10 -6.19342e-12)
(2.40842e-10 5.59241e-10 -6.66942e-12)
(3.3663e-10 3.62989e-10 -4.26624e-12)
(1.85022e-10 2.87874e-10 -4.98366e-12)
(1.51022e-10 4.20032e-10 -6.41218e-12)
(2.39322e-10 5.57416e-10 -5.93152e-12)
(1.83359e-10 2.865e-10 -5.36275e-12)
(1.48509e-10 4.17468e-10 -6.53127e-12)
(3.36133e-10 3.62761e-10 -4.07114e-12)
(2.36092e-10 5.53828e-10 -5.98652e-12)
(1.80096e-10 2.84307e-10 -5.42547e-12)
(2.37768e-10 5.55808e-10 -6.72967e-12)
(1.81943e-10 2.85733e-10 -5.02583e-12)
(1.47068e-10 4.15757e-10 -6.33523e-12)
(3.54854e-10 7.02904e-10 -5.38546e-12)
(3.52336e-10 6.99593e-10 -5.73298e-12)
(2.47679e-10 1.10201e-09 -7.11582e-12)
(3.05836e-10 8.17676e-10 -6.35372e-12)
(3.08349e-10 8.21581e-10 -6.14542e-12)
(3.11364e-10 8.26069e-10 -6.09206e-12)
(2.48921e-10 1.10484e-09 -6.94626e-12)
(3.09122e-10 8.22588e-10 -6.34284e-12)
(3.48682e-10 6.951e-10 -5.68355e-12)
(3.51475e-10 6.98754e-10 -5.35826e-12)
(2.11873e-10 2.09555e-10 -4.24949e-12)
(2.09054e-10 2.08054e-10 -3.89687e-12)
(1.32239e-10 1.39588e-10 -3.35482e-12)
(2.46245e-11 3.82917e-11 -1.04688e-12)
(1.3471e-10 1.40473e-10 -3.17684e-12)
(2.05181e-10 2.06211e-10 -3.89679e-12)
(2.08434e-10 2.07798e-10 -4.22505e-12)
(1.37413e-10 1.41737e-10 -3.13025e-12)
(2.49525e-11 3.84585e-11 -1.49109e-12)
(1.35701e-10 1.40919e-10 -3.31187e-12)
(1.70547e-10 1.91508e-10 -1.3346e-12)
(1.77534e-10 1.94236e-10 -2.59681e-12)
(1.15009e-10 1.32843e-10 -2.67905e-12)
(1.73969e-11 3.62248e-11 -1.32159e-12)
(1.11465e-10 1.31506e-10 -2.67979e-12)
(1.84625e-10 1.97086e-10 -3.42215e-12)
(1.78918e-10 1.94649e-10 -2.58067e-12)
(1.04544e-10 1.29322e-10 -1.98089e-12)
(1.67168e-11 3.60031e-11 -7.87015e-13)
(1.09336e-10 1.3085e-10 -2.16653e-12)
(3.13582e-10 6.5758e-10 -2.1672e-13)
(3.2005e-10 6.64328e-10 -1.89166e-12)
(2.86611e-10 7.92416e-10 -4.74511e-12)
(2.27282e-10 1.06165e-09 -5.11476e-12)
(2.81712e-10 7.85984e-10 -3.86435e-12)
(3.27394e-10 6.71908e-10 -3.558e-12)
(3.2197e-10 6.65868e-10 -2.75769e-12)
(2.74091e-10 7.7702e-10 -1.39391e-12)
(2.24518e-10 1.05639e-09 -4.25478e-12)
(2.79989e-10 7.84149e-10 -3.17668e-12)
(1.14767e-10 3.88273e-10 -2.84998e-12)
(2.01121e-10 5.20796e-10 -2.15169e-12)
(2.81715e-10 3.28929e-10 4.83449e-12)
(1.46219e-10 2.64919e-10 -2.03736e-12)
(1.18738e-10 3.91646e-10 -4.42081e-12)
(1.96491e-10 5.16781e-10 3.32764e-13)
(1.41285e-10 2.62129e-10 -1.17381e-12)
(1.10846e-10 3.86157e-10 -1.6479e-12)
(2.79625e-10 3.2834e-10 6.15494e-12)
(1.86013e-10 5.08929e-10 5.50211e-12)
(1.30787e-10 2.57619e-10 2.27262e-12)
(1.9152e-10 5.13175e-10 1.85447e-12)
(1.36709e-10 2.60529e-10 6.25131e-13)
(1.06077e-10 3.82631e-10 8.96804e-13)
(3.113e-10 6.55864e-10 9.81877e-13)
(3.03619e-10 6.48263e-10 3.8914e-12)
(2.10294e-10 1.03266e-09 4.28523e-12)
(2.54467e-10 7.55923e-10 9.53186e-12)
(2.62653e-10 7.64599e-10 4.29495e-12)
(2.72037e-10 7.74994e-10 -3.6936e-13)
(2.14217e-10 1.03936e-09 1.25495e-12)
(2.65079e-10 7.66865e-10 2.71379e-12)
(2.91885e-10 6.38229e-10 1.04988e-11)
(3.0091e-10 6.4631e-10 5.60755e-12)
(1.68853e-10 1.91064e-10 -1.15034e-12)
(1.60551e-10 1.88032e-10 7.25457e-13)
(8.63618e-11 1.24243e-10 1.20437e-12)
(1.16298e-11 3.49851e-11 4.58282e-14)
(9.32788e-11 1.26153e-10 4.06856e-13)
(1.48326e-10 1.84292e-10 3.89418e-12)
(1.58437e-10 1.87561e-10 1.17119e-12)
(1.01959e-10 1.28615e-10 -1.14721e-12)
(1.27668e-11 3.524e-11 -6.87088e-13)
(9.66466e-11 1.26898e-10 -7.16083e-13)
(9.98517e-11 1.52049e-10 4.7696e-11)
(7.56489e-11 1.6119e-10 3.72152e-11)
(3.06622e-11 1.11086e-10 1.5944e-11)
(-1.16159e-11 3.00355e-11 3.93052e-12)
(2.64668e-11 1.04231e-10 1.65478e-11)
(8.50474e-11 1.71693e-10 2.98699e-11)
(7.5332e-11 1.63984e-10 3.4849e-11)
(4.51639e-11 9.10612e-11 2.15439e-11)
(-6.97934e-12 2.83818e-11 4.4552e-12)
(3.1384e-11 9.63322e-11 1.82381e-11)
(2.76918e-10 5.51717e-10 1.77327e-10)
(2.47762e-10 5.8791e-10 1.40416e-10)
(2.05643e-10 7.10318e-10 1.0637e-10)
(1.6979e-10 9.2059e-10 1.72481e-10)
(2.11495e-10 6.9422e-10 1.41316e-10)
(2.37416e-10 6.02995e-10 9.76378e-11)
(2.42601e-10 5.93204e-10 1.28573e-10)
(2.4758e-10 6.38454e-10 1.94799e-10)
(1.79828e-10 8.86116e-10 2.07034e-10)
(2.16593e-10 6.8551e-10 1.54495e-10)
(1.55755e-10 2.77381e-10 1.35453e-10)
(2.06182e-10 4.13819e-10 1.59464e-10)
(3.23759e-10 2.35889e-10 1.55256e-10)
(1.27182e-10 2.20722e-10 8.16757e-11)
(1.21487e-10 3.06323e-10 1.11935e-10)
(2.49335e-10 3.77193e-10 1.99496e-10)
(1.62117e-10 2.01589e-10 9.91431e-11)
(1.81382e-10 2.48594e-10 1.63365e-10)
(3.301e-10 5.28122e-10 3.49175e-10)
(3.09237e-10 4.52709e-10 2.68963e-10)
(2.57419e-10 2.68636e-10 2.69864e-10)
(1.27109e-10 1.68835e-10 1.16007e-10)
(1.0423e-11 1.42097e-11 8.97384e-12)
(1.23616e-10 1.11103e-10 6.30375e-11)
(1.62281e-11 1.77869e-11 1.92583e-11)
(1.69161e-10 2.27733e-10 1.38711e-10)
(3.67122e-10 2.39023e-10 1.64593e-10)
(3.15744e-10 4.01075e-10 2.51104e-10)
(1.73632e-10 1.42216e-10 8.0923e-11)
(2.90713e-10 5.32459e-10 1.91808e-10)
(3.56177e-10 4.57839e-10 2.47564e-10)
(3.36678e-10 6.08503e-10 3.40339e-10)
(3.56977e-10 5.17011e-10 2.83564e-10)
(2.63184e-10 6.16708e-10 2.10273e-10)
(2.92531e-10 6.82614e-10 3.06944e-10)
(3.34176e-10 5.3408e-10 2.65395e-10)
(3.82669e-10 4.43618e-10 2.65184e-10)
(1.15183e-10 1.47809e-10 5.07653e-11)
(1.68544e-10 1.22071e-10 6.45004e-11)
(1.03739e-11 1.19111e-11 8.99269e-12)
(1.34847e-10 8.78099e-11 5.28522e-11)
(1.92894e-10 1.09157e-10 6.75499e-11)
(6.93936e-11 8.86219e-11 2.37266e-11)
(1.91754e-11 2.25148e-11 6.7966e-12)
(9.01972e-11 7.68663e-11 2.74634e-11)
(1.59999e-10 4.32743e-10 -7.60684e-12)
(3.55974e-10 3.80472e-10 -5.34137e-12)
(2.51145e-10 5.74198e-10 -6.77338e-12)
(1.94668e-10 2.972e-10 -6.22761e-12)
(1.58816e-10 4.312e-10 -6.94815e-12)
(2.52655e-10 5.75871e-10 -7.84761e-12)
(1.96326e-10 2.98822e-10 -6.17811e-12)
(1.61052e-10 4.3375e-10 -7.60391e-12)
(3.56394e-10 3.8081e-10 -5.61271e-12)
(2.55309e-10 5.79952e-10 -8.63181e-12)
(1.99084e-10 3.01582e-10 -6.5234e-12)
(1.62054e-10 4.35921e-10 -8.26921e-12)
(2.54069e-10 5.77441e-10 -7.40287e-12)
(1.97629e-10 2.99825e-10 -6.70321e-12)
(2.21351e-10 2.16381e-10 -4.88362e-12)
(2.19477e-10 2.14855e-10 -4.26778e-12)
(1.41988e-10 1.44605e-10 -3.40938e-12)
(2.70173e-11 3.95054e-11 -1.04557e-12)
(1.43156e-10 1.45278e-10 -3.30081e-12)
(2.17637e-10 2.13264e-10 -4.0971e-12)
(2.19255e-10 2.1459e-10 -4.56026e-12)
(1.44143e-10 1.46471e-10 -3.51957e-12)
(2.69256e-11 3.96427e-11 -1.54484e-12)
(1.43275e-10 1.45688e-10 -3.51803e-12)
(3.65273e-10 7.19554e-10 -6.1968e-12)
(3.63375e-10 7.16401e-10 -6.35901e-12)
(3.16737e-10 8.35367e-10 -6.63242e-12)
(2.55297e-10 1.12366e-09 -7.50068e-12)
(3.18305e-10 8.39731e-10 -6.64063e-12)
(3.60989e-10 7.11536e-10 -6.06248e-12)
(3.6278e-10 7.15424e-10 -5.91272e-12)
(3.20434e-10 8.44095e-10 -6.80346e-12)
(2.56064e-10 1.12687e-09 -7.4221e-12)
(3.18818e-10 8.40906e-10 -6.91089e-12)
(3.65913e-10 7.20039e-10 -6.64751e-12)
(3.68014e-10 7.22539e-10 -6.55635e-12)
(3.2519e-10 8.52081e-10 -8.09258e-12)
(2.58821e-10 1.13331e-09 -8.10835e-12)
(3.23288e-10 8.46953e-10 -7.5624e-12)
(3.70938e-10 7.27661e-10 -7.08819e-12)
(3.6868e-10 7.22902e-10 -7.01956e-12)
(3.20988e-10 8.44614e-10 -7.08527e-12)
(2.58163e-10 1.13162e-09 -7.68023e-12)
(3.22716e-10 8.46478e-10 -7.19079e-12)
(2.21772e-10 2.16714e-10 -4.63854e-12)
(2.24659e-10 2.18661e-10 -5.32933e-12)
(1.49099e-10 1.49721e-10 -4.1713e-12)
(2.78129e-11 4.03577e-11 -1.86725e-12)
(1.47575e-10 1.48744e-10 -4.22349e-12)
(2.27806e-10 2.20921e-10 -5.61453e-12)
(2.2521e-10 2.19055e-10 -5.06683e-12)
(1.44635e-10 1.47031e-10 -3.90568e-12)
(2.76382e-11 4.01537e-11 -1.32075e-12)
(1.46776e-10 1.48069e-10 -3.94066e-12)
(1.4266e-10 4.11761e-10 -6.78861e-12)
(3.27194e-10 3.56471e-10 -3.78094e-12)
(2.28523e-10 5.45923e-10 -5.99318e-12)
(1.72624e-10 2.79429e-10 -5.45589e-12)
(1.40897e-10 4.09817e-10 -6.57737e-12)
(2.30607e-10 5.48174e-10 -6.7779e-12)
(1.74842e-10 2.81049e-10 -5.08577e-12)
(1.44159e-10 4.1288e-10 -6.46579e-12)
(3.27859e-10 3.5675e-10 -4.0012e-12)
(2.3438e-10 5.52118e-10 -6.77415e-12)
(1.78543e-10 2.83487e-10 -5.05359e-12)
(1.45715e-10 4.14708e-10 -6.66426e-12)
(2.32527e-10 5.50002e-10 -6.02577e-12)
(1.7655e-10 2.81929e-10 -5.44928e-12)
(1.95784e-10 2.01873e-10 -4.06314e-12)
(1.91666e-10 1.99947e-10 -3.63305e-12)
(1.16681e-10 1.33447e-10 -3.09524e-12)
(2.00649e-11 3.68627e-11 -1.02705e-12)
(1.20158e-10 1.34634e-10 -2.99589e-12)
(1.85757e-10 1.97457e-10 -3.28488e-12)
(1.90713e-10 1.99613e-10 -3.86203e-12)
(1.24119e-10 1.36233e-10 -3.065e-12)
(2.05204e-11 3.70525e-11 -1.47964e-12)
(1.2161e-10 1.35176e-10 -3.22985e-12)
(3.38937e-10 6.84311e-10 -4.97294e-12)
(3.34983e-10 6.7966e-10 -5.01102e-12)
(2.88065e-10 7.93985e-10 -5.20129e-12)
(2.3456e-10 1.07542e-09 -6.76595e-12)
(2.92241e-10 7.99557e-10 -5.5777e-12)
(3.29002e-10 6.73235e-10 -4.2012e-12)
(3.33605e-10 6.78478e-10 -4.49557e-12)
(2.97057e-10 8.05903e-10 -5.95163e-12)
(2.36619e-10 1.07935e-09 -6.89186e-12)
(2.93486e-10 8.00956e-10 -5.90732e-12)
(3.40125e-10 6.85322e-10 -5.40777e-12)
(3.43595e-10 6.8945e-10 -5.20814e-12)
(3.04989e-10 8.16621e-10 -6.15037e-12)
(2.43533e-10 1.09282e-09 -7.08508e-12)
(3.02225e-10 8.12514e-10 -6.3251e-12)
(3.47738e-10 6.94228e-10 -5.30767e-12)
(3.44652e-10 6.90359e-10 -5.60398e-12)
(2.98134e-10 8.07103e-10 -6.20387e-12)
(2.41988e-10 1.08973e-09 -7.17327e-12)
(3.01275e-10 8.11422e-10 -6.1038e-12)
(1.96598e-10 2.02174e-10 -3.79772e-12)
(2.0042e-10 2.03957e-10 -4.16926e-12)
(1.31245e-10 1.39125e-10 -3.12979e-12)
(2.28836e-11 3.77802e-11 -1.49493e-12)
(1.29236e-10 1.38209e-10 -3.31371e-12)
(2.04508e-10 2.05935e-10 -4.20481e-12)
(2.01163e-10 2.04247e-10 -3.86775e-12)
(1.25308e-10 1.36733e-10 -3.33003e-12)
(2.25195e-11 3.76034e-11 -1.05529e-12)
(1.28088e-10 1.37713e-10 -3.15997e-12)
(1.89291e-10 1.1148e-09 3.74845e-12)
(1.92789e-10 1.12315e-09 7.53973e-13)
(1.62177e-10 1.03889e-09 9.7375e-11)
(1.64831e-10 1.05248e-09 7.42868e-11)
(1.79115e-10 1.09255e-09 2.05519e-11)
(1.75418e-10 1.08333e-09 2.93632e-11)
(9.07616e-11 3.75013e-10 1.04884e-11)
(2.50225e-10 3.15288e-10 2.03697e-11)
(1.60478e-10 4.93639e-10 2.57835e-11)
(1.04689e-10 2.49332e-10 1.51413e-11)
(8.48154e-11 3.71971e-10 1.62715e-11)
(1.67299e-10 4.97377e-10 1.82867e-11)
(1.12174e-10 2.51695e-10 1.11638e-11)
(9.59558e-11 3.76989e-10 7.00748e-12)
(2.53109e-10 3.15696e-10 1.78837e-11)
(1.80172e-10 5.05232e-10 8.31251e-12)
(1.2531e-10 2.56008e-10 4.87867e-12)
(1.0146e-10 3.8052e-10 3.06111e-12)
(1.73852e-10 5.00945e-10 1.35549e-11)
(1.18441e-10 2.53129e-10 7.5897e-12)
(1.14661e-10 1.77225e-10 1.61064e-11)
(1.01828e-10 1.75157e-10 2.16068e-11)
(3.21965e-11 1.13875e-10 1.47684e-11)
(-7.90592e-12 3.26228e-11 4.11983e-12)
(4.02463e-11 1.16402e-10 1.38138e-11)
(8.72405e-11 1.72446e-10 2.83456e-11)
(9.88162e-11 1.75179e-10 2.33232e-11)
(5.44861e-11 1.18549e-10 1.00555e-11)
(-5.49682e-12 3.29989e-11 3.20517e-12)
(4.53147e-11 1.16848e-10 1.16435e-11)
(2.59645e-10 6.16818e-10 4.0772e-11)
(2.48585e-10 6.10456e-10 5.77054e-11)
(2.06394e-10 7.1316e-10 9.59099e-11)
(1.70982e-10 9.69082e-10 8.80109e-11)
(2.12554e-10 7.20957e-10 6.87386e-11)
(2.38277e-10 6.04287e-10 8.83762e-11)
(2.45345e-10 6.0897e-10 6.46175e-11)
(2.25417e-10 7.31398e-10 4.20365e-11)
(1.75578e-10 9.7922e-10 6.80281e-11)
(2.15441e-10 7.23362e-10 6.10638e-11)
(2.63388e-10 6.18433e-10 3.58031e-11)
(2.74723e-10 6.25898e-10 2.41238e-11)
(2.51623e-10 7.53572e-10 1.19227e-11)
(1.96519e-10 1.01154e-09 1.99376e-11)
(2.42218e-10 7.44496e-10 2.02026e-11)
(2.88718e-10 6.36267e-10 1.29453e-11)
(2.78316e-10 6.27892e-10 2.05964e-11)
(2.28762e-10 7.33578e-10 3.67145e-11)
(1.91449e-10 1.00368e-09 2.83189e-11)
(2.39024e-10 7.42017e-10 2.38275e-11)
(1.17949e-10 1.77369e-10 1.45273e-11)
(1.30976e-10 1.80219e-10 9.68857e-12)
(8.22205e-11 1.23512e-10 2.83261e-12)
(5.4421e-12 3.41356e-11 8.87044e-13)
(7.4402e-11 1.21515e-10 4.03762e-12)
(1.45744e-10 1.83841e-10 4.70327e-12)
(1.34025e-10 1.8057e-10 8.47959e-12)
(6.00559e-11 1.18973e-10 7.66463e-12)
(3.51016e-12 3.38757e-11 1.91611e-12)
(6.92769e-11 1.20897e-10 6.08583e-12)
(1.62874e-10 9.66438e-10 2.00637e-10)
(1.71697e-10 9.19396e-10 2.45168e-10)
(3.49453e-10 5.25444e-10 3.86247e-10)
(2.92686e-10 2.58419e-10 3.16208e-10)
(3.43528e-10 6.05633e-10 3.73793e-10)
(2.79161e-10 6.70183e-10 3.80902e-10)
(2.45337e-10 4.08429e-10 -5.44839e-12)
(3.41729e-10 3.66967e-10 -4.18587e-12)
(3.22524e-10 4.55937e-10 -4.99597e-12)
(2.70054e-10 3.19905e-10 -4.91063e-12)
(2.71235e-10 3.21001e-10 -4.32828e-12)
(3.23773e-10 4.56965e-10 -5.00047e-12)
(2.44557e-10 4.07696e-10 -5.39392e-12)
(1.46968e-10 5.15884e-10 -6.51049e-12)
(1.84712e-10 6.21893e-10 -8.50402e-12)
(2.26136e-10 7.40385e-10 -7.52555e-12)
(2.20191e-10 8.59955e-10 -7.25054e-12)
(1.47695e-10 5.17757e-10 -7.4982e-12)
(1.84072e-10 6.19775e-10 -6.52621e-12)
(2.25267e-10 7.38204e-10 -7.22836e-12)
(2.48702e-10 4.11935e-10 -5.61533e-12)
(3.45358e-10 3.70159e-10 -4.68867e-12)
(2.75643e-10 3.24794e-10 -4.63096e-12)
(3.28255e-10 4.6172e-10 -5.27731e-12)
(2.49275e-10 4.1258e-10 -5.67828e-12)
(2.74756e-10 3.23829e-10 -5.18098e-12)
(3.27135e-10 4.60602e-10 -5.22156e-12)
(1.46262e-10 5.14929e-10 -7.36326e-12)
(2.23182e-10 7.34736e-10 -7.11614e-12)
(2.19386e-10 8.5819e-10 -8.35711e-12)
(1.82675e-10 6.16915e-10 -6.45709e-12)
(1.83467e-10 6.18736e-10 -8.3337e-12)
(2.24285e-10 7.36575e-10 -7.26675e-12)
(1.45323e-10 5.13276e-10 -6.46157e-12)
(2.06112e-10 3.79034e-10 -2.28558e-12)
(2.96218e-10 3.37194e-10 8.41224e-13)
(2.77704e-10 4.2141e-10 1.19281e-13)
(2.25504e-10 2.93e-10 -3.86549e-13)
(2.28495e-10 2.95074e-10 -3.77877e-13)
(2.80862e-10 4.23495e-10 -4.90423e-13)
(2.03899e-10 3.77598e-10 -1.67995e-12)
(1.24862e-10 4.87853e-10 -6.9537e-12)
(1.66591e-10 5.92637e-10 -9.44869e-12)
(2.00465e-10 7.03698e-10 -7.15271e-12)
(1.96614e-10 8.18723e-10 -7.09139e-12)
(1.27242e-10 4.91015e-10 -8.09649e-12)
(1.64474e-10 5.89158e-10 -7.37817e-12)
(1.97676e-10 6.99973e-10 -6.55822e-12)
(2.15577e-10 3.85541e-10 -4.15533e-12)
(3.06507e-10 3.4311e-10 -1.81819e-12)
(2.40681e-10 3.01797e-10 -2.72937e-12)
(2.93115e-10 4.32271e-10 -3.17036e-12)
(2.17294e-10 3.86669e-10 -4.41254e-12)
(2.38378e-10 3.00151e-10 -3.04408e-12)
(2.90559e-10 4.30464e-10 -2.84906e-12)
(1.60708e-10 3.33385e-10 9.84815e-11)
(2.44599e-10 2.9808e-10 9.78516e-11)
(2.436e-10 3.63121e-10 1.23695e-10)
(1.90074e-10 2.54937e-10 8.97617e-11)
(1.77524e-10 2.63229e-10 8.42362e-11)
(2.34012e-10 3.73359e-10 1.14257e-10)
(1.72711e-10 3.2449e-10 1.05925e-10)
(1.31564e-10 3.48507e-10 6.6544e-11)
(2.1194e-10 3.0537e-10 6.74738e-11)
(1.47041e-10 2.6999e-10 5.46793e-11)
(2.00789e-10 3.87761e-10 7.04733e-11)
(1.3095e-10 3.48798e-10 6.09509e-11)
(1.46865e-10 2.6908e-10 5.84265e-11)
(2.00638e-10 3.86679e-10 7.67252e-11)
(2.34173e-10 6.5451e-10 -6.44261e-12)
(2.44903e-10 9.35854e-10 -8.99168e-12)
(2.34757e-10 6.568e-10 -9.13247e-12)
(2.35714e-10 6.59943e-10 -9.37955e-12)
(2.4546e-10 9.38046e-10 -7.92462e-12)
(2.3523e-10 6.58016e-10 -6.59926e-12)
(2.52884e-10 4.17664e-10 -6.13129e-12)
(3.50676e-10 3.75678e-10 -5.13013e-12)
(3.33366e-10 4.6826e-10 -5.84065e-12)
(2.80465e-10 3.29771e-10 -5.13545e-12)
(2.53606e-10 4.18338e-10 -6.26693e-12)
(2.79374e-10 3.28675e-10 -5.65643e-12)
(3.3207e-10 4.6706e-10 -5.71917e-12)
(1.48859e-10 5.20962e-10 -7.68818e-12)
(1.85226e-10 6.23178e-10 -6.71261e-12)
(2.2694e-10 7.42458e-10 -7.53639e-12)
(2.22212e-10 8.67331e-10 -8.88581e-12)
(1.4824e-10 5.18914e-10 -6.67697e-12)
(1.85811e-10 6.25458e-10 -8.68408e-12)
(2.27734e-10 7.44914e-10 -7.80336e-12)
(2.50229e-10 4.13966e-10 -5.7132e-12)
(3.47741e-10 3.72533e-10 -4.61991e-12)
(2.75838e-10 3.24855e-10 -5.23902e-12)
(3.28375e-10 4.62164e-10 -5.32163e-12)
(2.49735e-10 4.13204e-10 -5.63443e-12)
(2.767e-10 3.25909e-10 -4.67289e-12)
(3.29362e-10 4.63207e-10 -5.34809e-12)
(2.33657e-10 6.53188e-10 -8.96285e-12)
(2.43082e-10 9.28178e-10 -7.54488e-12)
(2.33039e-10 6.50995e-10 -6.27234e-12)
(2.42482e-10 9.26307e-10 -8.53538e-12)
(2.31805e-10 6.48054e-10 -6.20406e-12)
(2.32496e-10 6.49912e-10 -8.80601e-12)
(2.27079e-10 3.93857e-10 -5.2325e-12)
(3.19967e-10 3.51598e-10 -3.5371e-12)
(3.05219e-10 4.41458e-10 -4.48925e-12)
(2.5266e-10 3.08823e-10 -3.8769e-12)
(2.28334e-10 3.94724e-10 -5.30884e-12)
(2.50949e-10 3.07525e-10 -4.39178e-12)
(3.03286e-10 4.40026e-10 -4.3841e-12)
(1.31147e-10 4.95519e-10 -8.24019e-12)
(1.68265e-10 5.9444e-10 -7.68807e-12)
(2.03014e-10 7.06677e-10 -7.327e-12)
(2.03265e-10 8.29463e-10 -9.10512e-12)
(1.29121e-10 4.92732e-10 -7.31861e-12)
(1.70083e-10 5.97508e-10 -9.50275e-12)
(2.05385e-10 7.09926e-10 -7.63612e-12)
(2.20318e-10 3.88766e-10 -4.7239e-12)
(3.12644e-10 3.47006e-10 -2.44506e-12)
(2.4176e-10 3.01906e-10 -3.50866e-12)
(2.94091e-10 4.32993e-10 -3.42774e-12)
(2.18767e-10 3.87616e-10 -4.51302e-12)
(2.43921e-10 3.03551e-10 -3.10287e-12)
(2.96384e-10 4.34622e-10 -3.61376e-12)
(1.32752e-10 4.97018e-10 -7.33467e-12)
(2.09581e-10 7.15478e-10 -7.7531e-12)
(1.73089e-10 6.01868e-10 -9.33538e-12)
(2.05172e-10 8.32291e-10 -7.98283e-12)
(1.71523e-10 5.99118e-10 -7.61715e-12)
(1.34493e-10 4.99503e-10 -8.14473e-12)
(2.07561e-10 7.12575e-10 -7.61357e-12)
(1.47262e-10 3.52067e-10 3.05141e-11)
(2.28458e-10 3.08053e-10 3.46793e-11)