/*--------------------------------*- C++ -*----------------------------------*\
| =========                 |                                                 |
| \\      /  F ield         | OpenFOAM: The Open Source CFD Toolbox           |
|  \\    /   O peration     | Version:  2012                                  |
|   \\  /    A nd           | Website:  www.openfoam.com                      |
|    \\/     M anipulation  |                                                 |
\*---------------------------------------------------------------------------*/
FoamFile
{
    version     2.0;
    format      ascii;
    class       volVectorField;
    location    "0.104/solid";
    object      D_0_0_0;
}
// * * * * * * * * * * * * * * * * * * * * * * * * * * * * * * * * * * * * * //

dimensions      [0 1 0 0 0 0 0];


internalField   nonuniform List<vector> 
3125
(
(6.9308e-11 2.12595e-10 -3.98586e-12)
(5.9542e-11 2.00965e-10 -4.92417e-12)
(3.90635e-11 1.75411e-10 2.7605e-11)
(7.00243e-11 2.13881e-10 -4.0882e-12)
(6.13751e-11 2.02934e-10 -4.85545e-12)
(3.84085e-11 1.81371e-10 1.75283e-11)
(7.25175e-11 2.19512e-10 -5.48403e-12)
(6.65582e-11 2.09e-10 -4.10709e-12)
(5.17242e-11 1.93636e-10 -2.87466e-12)
(7.17848e-11 2.1765e-10 -4.93568e-12)
(6.54744e-11 2.07654e-10 -4.25209e-12)
(4.82341e-11 1.90779e-10 -4.19466e-13)
(3.40446e-10 3.57788e-10 -4.1258e-12)
(4.76167e-11 1.39229e-10 -3.26157e-12)
(2.28122e-10 8.53518e-10 -8.5108e-12)
(6.84816e-11 2.11405e-10 -3.92623e-12)
(3.47319e-10 3.63247e-10 -4.28174e-12)
(2.25239e-10 8.47429e-10 -6.96797e-12)
(4.64633e-11 1.38234e-10 -3.26706e-12)
(2.92635e-10 3.27178e-10 1.16779e-12)
(3.49353e-11 1.29715e-10 -3.72637e-12)
(2.05105e-10 8.14235e-10 -8.67543e-12)
(5.73571e-11 1.98763e-10 -4.77439e-12)
(3.08954e-10 3.37097e-10 -1.91942e-12)
(1.9717e-10 8.02074e-10 -5.55268e-12)
(3.20837e-11 1.27934e-10 -3.55724e-12)
(2.5417e-10 2.82014e-10 9.77609e-11)
(1.27753e-12 1.12845e-10 1.57319e-11)
(1.53969e-10 7.18769e-10 1.0638e-10)
(4.83571e-11 1.60726e-10 3.87284e-11)
(2.11548e-10 2.98384e-10 5.88721e-11)
(1.89057e-10 6.26902e-10 1.92646e-10)
(1.11484e-11 1.06589e-10 2.07721e-11)
(2.54039e-10 9.23675e-10 -7.65746e-12)
(2.56197e-10 9.307e-10 -8.88155e-12)
(3.53604e-10 3.68956e-10 -4.71151e-12)
(7.06426e-11 2.15117e-10 -4.11197e-12)
(4.8547e-11 1.40244e-10 -3.35167e-12)
(2.29004e-10 8.55767e-10 -7.41149e-12)
(3.47608e-10 3.63471e-10 -4.50495e-12)
(2.3143e-10 8.62603e-10 -8.69279e-12)
(4.93234e-11 1.41239e-10 -3.35725e-12)
(2.5329e-10 9.21342e-10 -8.69593e-12)
(2.50836e-10 9.14947e-10 -7.25913e-12)
(2.34902e-10 8.84079e-10 -8.23282e-12)
(2.4013e-10 8.93769e-10 -9.33151e-12)
(3.21823e-10 3.45164e-10 -3.32274e-12)
(6.29352e-11 2.04675e-10 -4.64326e-12)
(3.72804e-11 1.31301e-10 -3.76478e-12)
(2.07374e-10 8.17431e-10 -7.70566e-12)
(3.10042e-10 3.37496e-10 -2.35949e-12)
(2.13147e-10 8.26896e-10 -8.96559e-12)
(3.92653e-11 1.32706e-10 -3.62245e-12)
(2.3295e-10 8.80791e-10 -9.1369e-12)
(2.26013e-10 8.68244e-10 -6.09675e-12)
(1.92607e-10 7.82725e-10 9.72626e-11)
(1.98074e-10 8.14999e-10 4.03927e-11)
(2.3309e-10 3.0216e-10 2.99869e-11)
(4.08669e-11 1.849e-10 9.55714e-12)
(1.90147e-12 1.15433e-10 1.07015e-11)
(1.53353e-10 7.30355e-10 8.58143e-11)
(2.10848e-10 2.97278e-10 5.4625e-11)
(1.61739e-10 7.54291e-10 3.70313e-11)
(7.14544e-12 1.17312e-10 6.4899e-12)
(1.93918e-10 7.66366e-10 1.23043e-10)
(2.26729e-10 6.46482e-10 2.37235e-10)
(2.35388e-10 8.7446e-10 -9.84484e-12)
(5.18124e-11 1.44743e-10 -4.48556e-12)
(3.61137e-10 3.76167e-10 -5.64881e-12)
(2.69261e-10 1.13304e-09 -9.1414e-12)
(2.79066e-11 3.94588e-11 -1.91471e-12)
(2.61096e-11 3.799e-11 -9.89731e-13)
(2.46939e-11 3.75072e-11 -1.47695e-12)
(2.61257e-10 1.10665e-09 -7.06244e-12)
(2.58109e-10 1.09949e-09 -6.58102e-12)
(3.3995e-10 3.57598e-10 -3.93268e-12)
(6.75582e-11 2.10245e-10 -3.95533e-12)
(2.20503e-10 8.39111e-10 -7.33691e-12)
(4.39147e-11 1.3622e-10 -3.34434e-12)
(2.24118e-10 8.45775e-10 -8.24004e-12)
(3.32304e-10 3.52032e-10 -3.93441e-12)
(4.52179e-11 1.37252e-10 -3.22706e-12)
(2.52969e-10 1.08891e-09 -6.81168e-12)
(2.56909e-10 1.09731e-09 -6.80726e-12)
(2.28722e-11 3.68795e-11 -1.46835e-12)
(2.44188e-11 3.73545e-11 -9.32096e-13)
(1.76077e-11 3.52494e-11 -9.01373e-13)
(1.43801e-11 3.4541e-11 -1.12687e-12)
(2.36177e-10 1.05691e-09 -5.92604e-12)
(2.27523e-10 1.04162e-09 -2.89986e-12)
(2.9093e-10 3.26664e-10 2.05366e-12)
(5.47684e-11 1.96319e-10 -4.18378e-12)
(1.83333e-10 7.82628e-10 3.07504e-12)
(2.43734e-11 1.23801e-10 -1.9438e-12)
(1.94057e-10 7.97969e-10 -5.47558e-12)
(2.6799e-10 3.14563e-10 9.7128e-12)
(2.86135e-11 1.25962e-10 -2.98399e-12)
(2.11791e-10 1.01605e-09 7.85581e-12)
(2.2402e-10 1.03591e-09 -1.34727e-12)
(8.56223e-12 3.34868e-11 -1.345e-13)
(1.35167e-11 3.43049e-11 -4.58266e-13)
(-1.20818e-11 2.99841e-11 3.67994e-12)
(-1.01211e-12 2.61961e-11 3.5584e-12)
(1.71638e-10 9.32662e-10 1.35391e-10)
(2.04633e-10 8.25699e-10 2.32902e-10)
(2.6551e-10 2.70929e-10 1.07008e-10)
(4.14925e-11 7.1271e-11 3.2555e-11)
(2.21118e-10 5.69521e-10 2.28725e-10)
(7.39533e-12 4.2773e-11 5.43998e-12)
(2.40659e-10 7.58123e-10 2.64846e-10)
(1.08008e-11 2.50616e-11 3.01004e-12)
(2.5909e-10 9.4328e-10 -9.92658e-12)
(2.58164e-10 9.3932e-10 -1.06475e-11)
(2.56643e-10 9.32047e-10 -7.87032e-12)
(3.53932e-10 3.69204e-10 -4.93064e-12)
(7.11953e-11 2.16255e-10 -4.35863e-12)
(2.34386e-10 8.70542e-10 -1.05409e-11)
(5.09938e-11 1.43404e-10 -3.97528e-12)
(3.60971e-10 3.75926e-10 -5.41245e-12)
(2.32175e-10 8.63831e-10 -7.54968e-12)
(5.01183e-11 1.42246e-10 -3.62012e-12)
(2.62939e-11 3.81473e-11 -1.54142e-12)
(2.70725e-11 3.85976e-11 -1.01642e-12)
(2.62203e-10 1.10984e-09 -7.06156e-12)
(2.64931e-10 1.11883e-09 -7.24856e-12)
(2.68093e-10 1.12698e-09 -8.68911e-12)
(2.65718e-10 1.12013e-09 -7.04813e-12)
(2.77439e-11 3.92662e-11 -1.28535e-12)
(2.69675e-11 3.87371e-11 -1.62008e-12)
(2.46628e-10 9.06393e-10 -7.68393e-12)
(2.49918e-10 9.13241e-10 -8.44484e-12)
(2.45495e-10 9.04141e-10 -8.92881e-12)
(2.41575e-10 8.96261e-10 -8.12333e-12)
(3.22559e-10 3.45443e-10 -3.57429e-12)
(6.42826e-11 2.06225e-10 -4.44548e-12)
(2.19179e-10 8.36948e-10 -8.64154e-12)
(4.25171e-11 1.35129e-10 -3.39456e-12)
(3.31704e-10 3.5179e-10 -3.74059e-12)
(2.14822e-10 8.29324e-10 -7.68958e-12)
(4.09778e-11 1.33963e-10 -3.54608e-12)
(1.81357e-11 3.54547e-11 -1.44649e-12)
(2.04035e-11 3.60398e-11 -9.68128e-13)
(2.38637e-10 1.06129e-09 -6.21193e-12)
(2.44964e-10 1.07319e-09 -6.96952e-12)
(2.51548e-10 1.08591e-09 -7.00712e-12)
(2.46776e-10 1.07648e-09 -6.83488e-12)
(2.25566e-11 3.67249e-11 -9.52677e-13)
(2.07687e-11 3.62085e-11 -1.48371e-12)
(2.06881e-10 1.12559e-09 -3.7122e-12)
(2.14042e-10 8.47924e-10 2.86883e-12)
(2.23315e-10 8.63937e-10 -5.89431e-12)
(1.94308e-10 1.09734e-09 7.35849e-12)
(2.03974e-10 1.1193e-09 -2.0442e-12)
(2.10989e-10 8.42473e-10 6.11767e-12)
(2.01155e-10 8.2197e-10 2.97102e-11)
(1.67396e-10 1.01029e-09 1.22148e-10)
(1.76074e-10 1.0542e-09 5.36829e-11)
(1.90915e-10 1.09071e-09 1.23773e-11)
(1.80072e-10 1.06477e-09 3.95474e-11)
(2.35983e-10 3.02123e-10 2.69552e-11)
(4.44681e-11 1.87858e-10 3.58328e-12)
(1.79149e-10 7.77659e-10 5.98089e-12)
(1.92587e-11 1.21522e-10 -7.13369e-14)
(2.65444e-10 3.13995e-10 1.14754e-11)
(1.66013e-10 7.59962e-10 2.77378e-11)
(1.33546e-11 1.19298e-10 2.72166e-12)
(-1.18421e-11 3.0805e-11 3.31368e-12)
(-2.87181e-12 3.20692e-11 2.87217e-12)
(1.72736e-10 9.47125e-10 1.08137e-10)
(1.86249e-10 9.78256e-10 4.96398e-11)
(2.07215e-10 1.00931e-09 1.26017e-11)
(1.91776e-10 9.86194e-10 3.71818e-11)
(7.08889e-12 3.32244e-11 7.69496e-13)
(-5.67232e-13 3.23424e-11 1.81898e-12)
(1.66929e-10 9.88565e-10 1.55607e-10)
(1.9726e-10 8.41308e-10 2.82622e-10)
(6.76221e-11 6.90516e-11 4.72705e-11)
(2.59208e-10 5.76901e-10 2.86265e-10)
(2.31378e-10 7.57454e-10 3.26429e-10)
(1.42996e-10 1.79372e-10 1.26771e-10)
(3.85537e-11 1.2184e-11 4.82499e-11)
(2.193e-10 1.86069e-10 2.27674e-10)
(2.05932e-11 1.76588e-11 2.10901e-11)
(4.59277e-11 7.70733e-12 6.14103e-11)
(2.53007e-10 1.74342e-10 2.69468e-10)
(1.55213e-10 4.16232e-10 -6.27972e-12)
(3.43814e-10 3.6039e-10 -4.07323e-12)
(2.4463e-10 5.52726e-10 -5.68912e-12)
(1.86059e-10 2.82708e-10 -5.18723e-12)
(1.87707e-10 2.8402e-10 -4.89276e-12)
(2.46145e-10 5.54412e-10 -6.50853e-12)
(1.53869e-10 4.14757e-10 -5.95582e-12)
(1.56302e-10 4.1713e-10 -6.03886e-12)
(3.4423e-10 3.60621e-10 -4.28387e-12)
(1.90477e-10 2.86163e-10 -4.97972e-12)
(2.48901e-10 5.57713e-10 -6.69789e-12)
(1.57363e-10 4.18751e-10 -6.3929e-12)
(1.88979e-10 2.84783e-10 -5.27682e-12)
(2.47547e-10 5.55857e-10 -5.81719e-12)
(1.2679e-10 3.90591e-10 -5.952e-12)
(3.00723e-10 3.32155e-10 -3.92606e-13)
(2.07178e-10 5.16326e-10 -2.83033e-12)
(1.49584e-10 2.60636e-10 -3.36069e-12)
(1.53706e-10 2.63123e-10 -3.65792e-12)
(2.1108e-10 5.19889e-10 -4.54322e-12)
(1.23401e-10 3.87578e-10 -5.05434e-12)
(1.29522e-10 3.92347e-10 -6.0637e-12)
(3.02088e-10 3.32649e-10 -1.01544e-12)
(1.60281e-10 2.66746e-10 -4.42584e-12)
(2.17885e-10 5.2605e-10 -5.75559e-12)
(1.32262e-10 3.951e-10 -6.58286e-12)
(1.56825e-10 2.64465e-10 -4.4761e-12)
(2.14586e-10 5.22811e-10 -4.52557e-12)
(7.94117e-11 3.4666e-10 7.26867e-11)
(2.25846e-10 2.97107e-10 7.75881e-11)
(1.78947e-10 4.41019e-10 1.2654e-10)
(1.01274e-10 2.2405e-10 6.28688e-11)
(8.23292e-11 2.33319e-10 5.30516e-11)
(1.5831e-10 4.60415e-10 1.07042e-10)
(9.89932e-11 3.2899e-10 8.89181e-11)
(7.07731e-11 3.52248e-10 6.22102e-11)
(2.18157e-10 2.96439e-10 7.23036e-11)
(7.63725e-11 2.3924e-10 3.93602e-11)
(1.40456e-10 4.73949e-10 7.57562e-11)
(6.73049e-11 3.57729e-10 5.08937e-11)
(7.59438e-11 2.35769e-10 4.56618e-11)
(1.45685e-10 4.68875e-10 9.15495e-11)
(1.60144e-10 4.22502e-10 -6.29995e-12)
(3.50616e-10 3.66192e-10 -4.71158e-12)
(2.53604e-10 5.64843e-10 -7.07655e-12)
(1.95017e-10 2.90438e-10 -5.33497e-12)
(1.61045e-10 4.24079e-10 -6.736e-12)
(1.93736e-10 2.89019e-10 -5.51575e-12)
(2.5233e-10 5.63053e-10 -6.20491e-12)
(1.59289e-10 4.21476e-10 -6.52113e-12)
(3.50351e-10 3.65999e-10 -4.50142e-12)
(1.9154e-10 2.86922e-10 -5.38676e-12)
(2.50068e-10 5.59379e-10 -6.02727e-12)
(1.58296e-10 4.19769e-10 -6.16554e-12)
(1.92793e-10 2.88262e-10 -5.0989e-12)
(2.512e-10 5.61384e-10 -6.90607e-12)
(1.38871e-10 4.00424e-10 -6.50331e-12)
(3.16793e-10 3.41703e-10 -3.13773e-12)
(2.28461e-10 5.36164e-10 -6.52484e-12)
(1.70449e-10 2.72735e-10 -4.88064e-12)
(1.40809e-10 4.02568e-10 -6.71331e-12)
(1.67961e-10 2.70951e-10 -5.23042e-12)
(2.26076e-10 5.33668e-10 -5.71065e-12)
(1.36925e-10 3.99053e-10 -6.76869e-12)
(3.15861e-10 3.41367e-10 -2.81455e-12)
(1.62867e-10 2.67928e-10 -5.03525e-12)
(2.20807e-10 5.28606e-10 -5.3466e-12)
(1.3455e-10 3.96651e-10 -6.4565e-12)
(1.65767e-10 2.69912e-10 -4.78717e-12)
(2.23568e-10 5.31419e-10 -6.31196e-12)
(7.52132e-11 3.6187e-10 2.73407e-11)
(2.20442e-10 2.98512e-10 3.95481e-11)
(1.55349e-10 4.82958e-10 3.11339e-11)
(9.75424e-11 2.42544e-10 1.84827e-11)
(8.06799e-11 3.64332e-10 1.99245e-11)
(9.03554e-11 2.40933e-10 2.32737e-11)
(1.49024e-10 4.79961e-10 4.08721e-11)
(7.10366e-11 3.60908e-10 3.37738e-11)
(2.18395e-10 2.99202e-10 4.32192e-11)
(7.92748e-11 2.39383e-10 3.36536e-11)
(1.40466e-10 4.75694e-10 6.32015e-11)
(6.78715e-11 3.58638e-10 4.29184e-11)
(8.47315e-11 2.40732e-10 2.84266e-11)
(1.43835e-10 4.77985e-10 5.04653e-11)
(1.684e-10 4.35526e-10 -8.46977e-12)
(3.64585e-10 3.79595e-10 -5.57593e-12)
(2.62993e-10 5.80688e-10 -8.0541e-12)
(2.04001e-10 2.99314e-10 -7.30144e-12)
(1.66984e-10 4.33949e-10 -8.5471e-12)
(3.64163e-10 3.7927e-10 -5.50792e-12)
(2.60099e-10 5.74599e-10 -7.82094e-12)
(2.01026e-10 2.96486e-10 -6.70665e-12)
(2.61277e-10 5.77957e-10 -8.86649e-12)
(2.02417e-10 2.98244e-10 -6.64293e-12)
(1.65861e-10 4.31238e-10 -7.92122e-12)
(3.80221e-10 7.29241e-10 -7.47886e-12)
(2.70666e-10 1.14001e-09 -9.51421e-12)
(3.31561e-10 8.44676e-10 -8.11667e-12)
(3.34187e-10 8.53421e-10 -8.18374e-12)
(2.72113e-10 1.14582e-09 -8.83859e-12)
(3.35104e-10 8.55771e-10 -8.3354e-12)
(3.76217e-10 7.19985e-10 -7.19492e-12)
(3.7909e-10 7.2726e-10 -7.09565e-12)
(2.30798e-10 2.17703e-10 -5.3639e-12)
(1.48037e-10 1.46105e-10 -4.2829e-12)
(2.86905e-11 3.96717e-11 -1.48847e-12)
(1.50173e-10 1.4697e-10 -4.33994e-12)
(2.27432e-10 2.15759e-10 -5.04776e-12)
(2.30127e-10 2.17387e-10 -5.64515e-12)
(2.89753e-11 3.99088e-11 -2.05246e-12)
(1.51072e-10 1.47507e-10 -4.63781e-12)
(2.10422e-10 2.04462e-10 -3.7433e-12)
(2.13338e-10 2.05959e-10 -4.16686e-12)
(1.40186e-10 1.4027e-10 -3.12372e-12)
(2.56768e-11 3.78453e-11 -1.47478e-12)
(1.3872e-10 1.39473e-10 -3.26915e-12)
(2.16384e-10 2.07735e-10 -4.28217e-12)
(2.13864e-10 2.06239e-10 -3.85928e-12)
(1.35636e-10 1.38178e-10 -3.22351e-12)
(2.54078e-11 3.76878e-11 -1.00864e-12)
(1.37841e-10 1.39009e-10 -3.09318e-12)
(3.58638e-10 6.94352e-10 -5.54053e-12)
(3.61098e-10 6.97325e-10 -5.25642e-12)
(3.21067e-10 8.24786e-10 -6.18044e-12)
(2.60292e-10 1.10373e-09 -6.74217e-12)
(3.19109e-10 8.21181e-10 -6.18842e-12)
(3.64073e-10 7.01352e-10 -5.43536e-12)
(3.61829e-10 6.97959e-10 -5.64869e-12)
(3.16226e-10 8.17483e-10 -6.09099e-12)
(2.59255e-10 1.10152e-09 -6.73572e-12)
(3.18413e-10 8.20424e-10 -5.94702e-12)
(1.514e-10 4.12307e-10 -5.99225e-12)
(2.43098e-10 5.51313e-10 -6.44711e-12)
(3.365e-10 3.54972e-10 -4.0232e-12)
(1.84693e-10 2.8198e-10 -4.78479e-12)
(1.52689e-10 4.13877e-10 -6.23011e-12)
(2.41503e-10 5.49503e-10 -5.70389e-12)
(1.8299e-10 2.80628e-10 -5.14376e-12)
(1.50132e-10 4.11334e-10 -6.32116e-12)
(3.35963e-10 3.54757e-10 -3.83741e-12)
(2.38222e-10 5.4595e-10 -5.75795e-12)
(1.79752e-10 2.7847e-10 -5.20944e-12)
(2.39896e-10 5.47909e-10 -6.49221e-12)
(1.81559e-10 2.7987e-10 -4.80998e-12)
(1.48647e-10 4.09648e-10 -6.12261e-12)
(3.57804e-10 6.9367e-10 -5.16217e-12)
(3.55178e-10 6.90386e-10 -5.5006e-12)
(2.5436e-10 1.09181e-09 -6.91877e-12)
(3.09752e-10 8.08361e-10 -6.12917e-12)
(3.12325e-10 8.12231e-10 -5.92153e-12)
(3.15477e-10 8.16683e-10 -5.88589e-12)
(2.55669e-10 1.09462e-09 -6.75908e-12)
(3.13104e-10 8.1324e-10 -6.11956e-12)
(3.51435e-10 6.8594e-10 -5.4546e-12)
(3.54269e-10 6.89558e-10 -5.1285e-12)
(2.0982e-10 2.04216e-10 -4.04271e-12)
(2.0701e-10 2.02748e-10 -3.69469e-12)
(1.29788e-10 1.35673e-10 -3.20149e-12)
(2.36403e-11 3.706e-11 -9.82709e-13)
(1.32145e-10 1.36529e-10 -3.01225e-12)
(2.03193e-10 2.00955e-10 -3.7084e-12)
(2.06365e-10 2.02504e-10 -4.01706e-12)
(1.34756e-10 1.37747e-10 -2.96552e-12)
(2.39374e-11 3.7215e-11 -1.42058e-12)
(1.3308e-10 1.36952e-10 -3.14626e-12)
(1.68645e-10 1.86324e-10 -1.38956e-12)
(1.75656e-10 1.89056e-10 -2.59189e-12)
(1.1276e-10 1.29018e-10 -2.63483e-12)
(1.65543e-11 3.503e-11 -1.31078e-12)
(1.09194e-10 1.27673e-10 -2.65921e-12)
(1.82762e-10 1.91925e-10 -3.35606e-12)
(1.77024e-10 1.89486e-10 -2.56462e-12)
(1.02261e-10 1.25478e-10 -2.01286e-12)
(1.58623e-11 3.48048e-11 -7.88851e-13)
(1.07033e-10 1.27006e-10 -2.1668e-12)
(3.16084e-10 6.48634e-10 -3.57915e-13)
(3.22565e-10 6.553e-10 -1.92116e-12)
(2.9032e-10 7.83286e-10 -4.69108e-12)
(2.33501e-10 1.05197e-09 -5.14723e-12)
(2.85339e-10 7.76848e-10 -3.8703e-12)
(3.29984e-10 6.62929e-10 -3.49606e-12)
(3.2449e-10 6.56824e-10 -2.75932e-12)
(2.77689e-10 7.67963e-10 -1.55059e-12)
(2.30554e-10 1.04703e-09 -4.31578e-12)
(2.83565e-10 7.75026e-10 -3.21705e-12)
(1.16153e-10 3.82331e-10 -3.05745e-12)
(2.02981e-10 5.13124e-10 -2.29515e-12)
(2.81356e-10 3.2113e-10 4.58664e-12)
(1.45792e-10 2.59181e-10 -2.14278e-12)
(1.20122e-10 3.85676e-10 -4.5424e-12)
(1.98311e-10 5.09141e-10 9.21348e-14)
(1.40829e-10 2.56419e-10 -1.34777e-12)
(1.12198e-10 3.80242e-10 -1.93802e-12)
(2.79234e-10 3.20548e-10 5.85079e-12)
(1.87757e-10 5.01308e-10 4.96854e-12)
(1.30286e-10 2.51905e-10 1.90505e-12)
(1.93285e-10 5.05564e-10 1.48749e-12)
(1.36222e-10 2.54826e-10 3.68721e-13)
(1.07358e-10 3.76699e-10 4.85451e-13)
(3.13781e-10 6.46954e-10 7.98827e-13)
(3.0605e-10 6.39464e-10 3.57279e-12)
(2.16171e-10 1.02286e-09 3.84778e-12)
(2.57855e-10 7.46934e-10 8.8966e-12)
(2.66118e-10 7.55593e-10 3.89294e-12)
(2.75608e-10 7.66011e-10 -5.65168e-13)
(2.20241e-10 1.02947e-09 9.87555e-13)
(2.68569e-10 7.57913e-10 2.38025e-12)
(2.942e-10 6.29434e-10 9.8886e-12)
(3.03291e-10 6.37557e-10 5.21091e-12)
(1.66919e-10 1.85886e-10 -1.21714e-12)
(1.58592e-10 1.82864e-10 5.6333e-13)
(8.4007e-11 1.20409e-10 9.92235e-13)
(1.07589e-11 3.37904e-11 -6.14151e-15)
(9.092e-11 1.22323e-10 2.59307e-13)
(1.46311e-10 1.79126e-10 3.56379e-12)
(1.56444e-10 1.82402e-10 9.81608e-13)
(9.96371e-11 1.24771e-10 -1.20028e-12)
(1.18985e-11 3.40421e-11 -7.17434e-13)
(9.42936e-11 1.23055e-10 -8.17718e-13)
(9.80389e-11 1.47199e-10 4.19288e-11)
(7.36088e-11 1.55728e-10 3.31191e-11)
(2.8152e-11 1.06913e-10 1.39719e-11)
(-1.25236e-11 2.86936e-11 3.11128e-12)
(2.38783e-11 1.00038e-10 1.41068e-11)
(8.28836e-11 1.66165e-10 2.72191e-11)
(7.32208e-11 1.58463e-10 3.11764e-11)
(4.25809e-11 8.71521e-11 1.76684e-11)
(-7.93108e-12 2.70265e-11 3.43688e-12)
(2.87867e-11 9.2199e-11 1.51899e-11)
(2.78703e-10 5.43379e-10 1.67711e-10)
(2.49516e-10 5.7874e-10 1.33311e-10)
(2.08445e-10 7.00806e-10 1.0166e-10)
(1.7467e-10 9.10275e-10 1.66003e-10)
(2.14196e-10 6.84734e-10 1.34821e-10)
(2.39237e-10 5.93694e-10 9.30379e-11)
(2.44352e-10 5.83938e-10 1.22184e-10)
(2.50233e-10 6.29874e-10 1.85146e-10)
(1.846e-10 8.75971e-10 1.99154e-10)
(2.19259e-10 6.76134e-10 1.47298e-10)
(1.57141e-10 2.73749e-10 1.2563e-10)
(2.07719e-10 4.07395e-10 1.49661e-10)
(3.23776e-10 2.31768e-10 1.42657e-10)
(1.26983e-10 2.16072e-10 7.40882e-11)
(1.22647e-10 3.0128e-10 1.04074e-10)
(2.51014e-10 3.72132e-10 1.87726e-10)
(1.6226e-10 1.98425e-10 8.95888e-11)
(1.83478e-10 2.46392e-10 1.52582e-10)
(3.35165e-10 5.22906e-10 3.35617e-10)
(3.11962e-10 4.48018e-10 2.55422e-10)
(2.61351e-10 2.65928e-10 2.59247e-10)
(1.28274e-10 1.67613e-10 1.06514e-10)
(1.01584e-11 1.43959e-11 6.40932e-12)
(1.22939e-10 1.10456e-10 5.40497e-11)
(1.63874e-11 1.794e-11 1.65913e-11)
(1.70646e-10 2.25737e-10 1.27975e-10)
(3.67283e-10 2.359e-10 1.51104e-10)
(3.17773e-10 3.96609e-10 2.37547e-10)
(1.73256e-10 1.40993e-10 7.06417e-11)
(2.9252e-10 5.24607e-10 1.8124e-10)
(3.5807e-10 4.51945e-10 2.34063e-10)
(3.41924e-10 6.02414e-10 3.26173e-10)
(3.59753e-10 5.1147e-10 2.69343e-10)
(2.65848e-10 6.086e-10 1.99692e-10)
(2.97302e-10 6.75267e-10 2.93728e-10)
(3.36911e-10 5.27909e-10 2.51938e-10)
(3.84593e-10 4.38387e-10 2.50843e-10)
(1.13554e-10 1.43389e-10 4.43268e-11)
(1.67508e-10 1.20046e-10 5.52681e-11)
(9.89797e-12 1.2124e-11 6.4063e-12)
(1.33445e-10 8.73427e-11 4.40824e-11)
(1.91782e-10 1.08175e-10 5.74266e-11)
(6.73158e-11 8.5385e-11 1.87468e-11)
(1.79835e-11 2.18109e-11 4.06387e-12)
(8.84189e-11 7.4808e-11 2.0995e-11)
(1.63142e-10 4.26442e-10 -7.25518e-12)
(3.57479e-10 3.72403e-10 -5.01737e-12)
(2.54933e-10 5.66152e-10 -6.43925e-12)
(1.96069e-10 2.91295e-10 -5.88334e-12)
(1.61976e-10 4.24929e-10 -6.63235e-12)
(2.56422e-10 5.67797e-10 -7.47604e-12)
(1.97577e-10 2.92865e-10 -5.81483e-12)
(1.641e-10 4.27463e-10 -7.24659e-12)
(3.57851e-10 3.72725e-10 -5.28116e-12)
(2.59026e-10 5.71881e-10 -8.25485e-12)
(2.00077e-10 2.95569e-10 -6.18465e-12)
(1.65004e-10 4.29628e-10 -7.9294e-12)
(2.57793e-10 5.69369e-10 -7.02869e-12)
(1.98733e-10 2.93852e-10 -6.33305e-12)
(2.21478e-10 2.11175e-10 -4.60564e-12)
(2.19494e-10 2.09678e-10 -4.08113e-12)
(1.40782e-10 1.4072e-10 -3.3866e-12)
(2.68754e-11 3.83188e-11 -1.04523e-12)
(1.42559e-10 1.41478e-10 -3.23511e-12)
(2.16818e-10 2.08004e-10 -3.97811e-12)
(2.19104e-10 2.09422e-10 -4.39791e-12)
(1.43934e-10 1.42671e-10 -3.28921e-12)
(2.69368e-11 3.84694e-11 -1.50535e-12)
(1.42985e-10 1.41903e-10 -3.39892e-12)
(3.69627e-10 7.10193e-10 -5.88309e-12)
(3.67557e-10 7.07063e-10 -6.09415e-12)
(3.21663e-10 8.25887e-10 -6.44316e-12)
(2.63175e-10 1.11322e-09 -7.32573e-12)
(3.23543e-10 8.30214e-10 -6.41479e-12)
(3.64756e-10 7.02237e-10 -5.84825e-12)
(3.66855e-10 7.061e-10 -5.66689e-12)
(3.25916e-10 8.3455e-10 -6.50332e-12)
(2.64093e-10 1.11641e-09 -7.21105e-12)
(3.24112e-10 8.31392e-10 -6.66465e-12)
(3.70282e-10 7.10684e-10 -6.31657e-12)
(3.7244e-10 7.13142e-10 -6.19473e-12)
(3.30827e-10 8.42535e-10 -7.72934e-12)
(2.67202e-10 1.1228e-09 -7.78052e-12)
(3.28888e-10 8.3738e-10 -7.19888e-12)
(3.75379e-10 7.1829e-10 -6.71398e-12)
(3.73089e-10 7.13524e-10 -6.64876e-12)
(3.26495e-10 8.35067e-10 -6.76439e-12)
(2.66478e-10 1.12111e-09 -7.36665e-12)
(3.28279e-10 8.36903e-10 -6.83779e-12)
(2.21813e-10 2.11499e-10 -4.34118e-12)
(2.24336e-10 2.13304e-10 -5.00355e-12)
(1.47665e-10 1.45647e-10 -3.92048e-12)
(2.74126e-11 3.90953e-11 -1.74516e-12)
(1.4644e-10 1.44741e-10 -3.94273e-12)
(2.27054e-10 2.15469e-10 -5.31591e-12)
(2.24756e-10 2.13699e-10 -4.74866e-12)
(1.44196e-10 1.43178e-10 -3.63762e-12)
(2.73632e-11 3.89179e-11 -1.19169e-12)
(1.45878e-10 1.4411e-10 -3.64328e-12)
(1.44293e-10 4.05674e-10 -6.59885e-12)
(3.27032e-10 3.48553e-10 -3.59136e-12)
(2.30608e-10 5.38124e-10 -5.80586e-12)
(1.72329e-10 2.73655e-10 -5.28537e-12)
(1.42485e-10 4.03765e-10 -6.40196e-12)
(2.32697e-10 5.40339e-10 -6.56846e-12)
(1.74532e-10 2.75249e-10 -4.90638e-12)
(1.45778e-10 4.06789e-10 -6.26545e-12)
(3.27679e-10 3.48829e-10 -3.80141e-12)
(2.36486e-10 5.4425e-10 -6.54279e-12)
(1.78204e-10 2.77655e-10 -4.85113e-12)
(1.47303e-10 4.086e-10 -6.45412e-12)
(2.34614e-10 5.42152e-10 -5.81083e-12)
(1.7622e-10 2.76122e-10 -5.25319e-12)
(1.93931e-10 1.96692e-10 -3.92188e-12)
(1.89825e-10 1.94795e-10 -3.5211e-12)
(1.14424e-10 1.29627e-10 -3.0404e-12)
(1.92218e-11 3.56742e-11 -1.00021e-12)
(1.17883e-10 1.30813e-10 -2.9178e-12)
(1.83886e-10 1.92309e-10 -3.21399e-12)
(1.88842e-10 1.94467e-10 -3.75253e-12)
(1.21834e-10 1.32392e-10 -2.95675e-12)
(1.96678e-11 3.58624e-11 -1.44278e-12)
(1.19319e-10 1.31352e-10 -3.14097e-12)
(3.41631e-10 6.75245e-10 -4.80195e-12)
(3.37647e-10 6.70638e-10 -4.86863e-12)
(2.9178e-10 7.84872e-10 -5.12459e-12)
(2.4094e-10 1.06544e-09 -6.66177e-12)
(2.96014e-10 7.90403e-10 -5.45062e-12)
(3.316e-10 6.64276e-10 -4.11824e-12)
(3.3624e-10 6.69466e-10 -4.36874e-12)
(3.00869e-10 7.96701e-10 -5.77994e-12)
(2.4303e-10 1.06936e-09 -6.75781e-12)
(2.97251e-10 7.91803e-10 -5.76561e-12)
(3.42815e-10 6.76251e-10 -5.22616e-12)
(3.46317e-10 6.80316e-10 -5.00586e-12)
(3.08878e-10 8.07311e-10 -5.93044e-12)
(2.5008e-10 1.08267e-09 -6.88812e-12)
(3.06094e-10 8.03229e-10 -6.11538e-12)
(3.5047e-10 6.85068e-10 -5.08415e-12)
(3.4736e-10 6.81227e-10 -5.39242e-12)
(3.01949e-10 7.9789e-10 -6.02033e-12)
(2.48497e-10 1.07961e-09 -6.98539e-12)
(3.05113e-10 8.02151e-10 -5.90234e-12)
(1.94725e-10 1.96992e-10 -3.65767e-12)
(1.98525e-10 1.98733e-10 -4.00363e-12)
(1.2881e-10 1.3522e-10 -2.9784e-12)
(2.19914e-11 3.65693e-11 -1.44058e-12)
(1.26865e-10 1.34326e-10 -3.18045e-12)
(2.02516e-10 2.00682e-10 -4.01428e-12)
(1.99232e-10 1.9903e-10 -3.70348e-12)
(1.23004e-10 1.3288e-10 -3.22075e-12)
(2.16346e-11 3.63981e-11 -1.00764e-12)
(1.2572e-10 1.33837e-10 -3.02972e-12)
(1.97656e-10 1.1044e-09 3.25737e-12)
(2.00868e-10 1.11177e-09 3.03444e-13)
(1.69449e-10 1.02726e-09 9.40176e-11)
(1.72429e-10 1.04168e-09 7.15773e-11)
(1.87526e-10 1.08286e-09 1.92701e-11)
(1.83968e-10 1.0742e-09 2.80164e-11)
(9.19861e-11 3.68933e-10 9.58371e-12)
(2.49704e-10 3.07447e-10 1.9415e-11)
(1.62026e-10 4.85815e-10 2.43541e-11)
(1.04079e-10 2.43466e-10 1.40694e-11)
(8.59706e-11 3.65831e-10 1.50937e-11)
(1.68883e-10 4.89605e-10 1.71627e-11)
(1.11592e-10 2.4588e-10 1.0337e-11)
(9.72011e-11 3.70956e-10 6.28301e-12)
(2.5259e-10 3.07873e-10 1.70421e-11)
(1.81862e-10 4.97576e-10 7.62161e-12)
(1.24776e-10 2.50258e-10 4.38838e-12)
(1.02718e-10 3.7453e-10 2.52548e-12)
(1.75478e-10 4.93228e-10 1.266e-11)
(1.17873e-10 2.47352e-10 6.93745e-12)
(1.12589e-10 1.71932e-10 1.50234e-11)
(9.97105e-11 1.69784e-10 2.00687e-11)
(2.96935e-11 1.09752e-10 1.31573e-11)
(-8.77317e-12 3.13487e-11 3.66469e-12)
(3.78128e-11 1.12354e-10 1.25187e-11)
(8.50541e-11 1.6694e-10 2.59561e-11)
(9.66796e-11 1.69793e-10 2.16127e-11)
(5.20959e-11 1.14601e-10 9.23373e-12)
(-6.37748e-12 3.17452e-11 2.8437e-12)
(4.28716e-11 1.12848e-10 1.05989e-11)
(2.61711e-10 6.07728e-10 3.89184e-11)
(2.50557e-10 6.01342e-10 5.50834e-11)
(2.09226e-10 7.03687e-10 9.1685e-11)
(1.7617e-10 9.58825e-10 8.4528e-11)
(2.15502e-10 7.11613e-10 6.57093e-11)
(2.40121e-10 5.9502e-10 8.42573e-11)
(2.47279e-10 5.99853e-10 6.16764e-11)
(2.28516e-10 7.2218e-10 4.0116e-11)
(1.80884e-10 9.69142e-10 6.53173e-11)
(2.18409e-10 7.14076e-10 5.8357e-11)
(2.65473e-10 6.09349e-10 3.4146e-11)
(2.76898e-10 6.1688e-10 2.29712e-11)
(2.54981e-10 7.44577e-10 1.11903e-11)
(2.02323e-10 1.00178e-09 1.89842e-11)
(2.45492e-10 7.35449e-10 1.91452e-11)
(2.91003e-10 6.27477e-10 1.22413e-11)
(2.80506e-10 6.18907e-10 1.95748e-11)
(2.31895e-10 7.24396e-10 3.49997e-11)
(1.97156e-10 9.94067e-10 2.68782e-11)
(2.42239e-10 7.32931e-10 2.26309e-11)
(1.15861e-10 1.72091e-10 1.3558e-11)
(1.28933e-10 1.74993e-10 9.0269e-12)
(7.98385e-11 1.19661e-10 2.54911e-12)
(4.56106e-12 3.29259e-11 7.56056e-13)
(7.20071e-11 1.17644e-10 3.65098e-12)
(1.43709e-10 1.78663e-10 4.32624e-12)
(1.31963e-10 1.75363e-10 7.89316e-12)
(5.76495e-11 1.1505e-10 7.00811e-12)
(2.62698e-12 3.26563e-11 1.73852e-12)
(6.68702e-11 1.17002e-10 5.58549e-12)
(1.69755e-10 9.55776e-10 1.94225e-10)
(1.78367e-10 9.08195e-10 2.37317e-10)
(3.55589e-10 5.20212e-10 3.72791e-10)
(2.97283e-10 2.55882e-10 3.05556e-10)
(3.49771e-10 5.9955e-10 3.59785e-10)
(2.86048e-10 6.6238e-10 3.67917e-10)
(2.46049e-10 4.01176e-10 -5.23618e-12)
(3.41792e-10 3.58922e-10 -3.9203e-12)
(3.23399e-10 4.4775e-10 -4.7507e-12)
(2.69692e-10 3.12686e-10 -4.66767e-12)
(2.70934e-10 3.13783e-10 -4.0878e-12)
(3.24694e-10 4.48776e-10 -4.75968e-12)
(2.45153e-10 4.00456e-10 -5.173e-12)
(1.50837e-10 5.09418e-10 -6.40657e-12)
(1.90874e-10 6.14883e-10 -8.40592e-12)
(2.31165e-10 7.32049e-10 -7.38356e-12)
(2.27239e-10 8.51117e-10 -7.12619e-12)
(1.51775e-10 5.1128e-10 -7.41023e-12)
(1.90046e-10 6.12783e-10 -6.41814e-12)
(2.30083e-10 7.29878e-10 -7.08669e-12)
(2.49981e-10 4.04676e-10 -5.44211e-12)
(3.45972e-10 3.62157e-10 -4.40108e-12)
(2.76116e-10 3.17631e-10 -4.39589e-12)
(3.29867e-10 4.53537e-10 -5.0409e-12)
(2.50653e-10 4.05335e-10 -5.5044e-12)
(2.75052e-10 3.16644e-10 -4.94503e-12)
(3.28585e-10 4.52414e-10 -4.98598e-12)
(1.49961e-10 5.08467e-10 -7.24931e-12)
(2.27657e-10 7.26466e-10 -6.93869e-12)
(2.26259e-10 8.49381e-10 -8.21041e-12)
(1.88376e-10 6.09974e-10 -6.31241e-12)
(1.893e-10 6.11758e-10 -8.2166e-12)
(2.28911e-10 7.2827e-10 -7.10478e-12)
(1.48876e-10 5.06847e-10 -6.30942e-12)
(2.06467e-10 3.71948e-10 -2.33872e-12)
(2.95903e-10 3.29341e-10 7.92429e-13)
(2.782e-10 4.13399e-10 2.514e-14)
(2.24907e-10 2.8595e-10 -4.59382e-13)
(2.27906e-10 2.88012e-10 -4.24209e-13)
(2.81353e-10 4.15474e-10 -5.51315e-13)
(2.04199e-10 3.70498e-10 -1.7617e-12)
(1.2797e-10 4.81601e-10 -6.92565e-12)
(1.7176e-10 5.85842e-10 -9.36567e-12)
(2.04434e-10 6.95643e-10 -7.09565e-12)
(2.02695e-10 8.10186e-10 -7.11043e-12)
(1.30407e-10 4.84772e-10 -8.04027e-12)
(1.69579e-10 5.82318e-10 -7.33841e-12)
(2.01607e-10 6.9189e-10 -6.54692e-12)
(2.16004e-10 3.78476e-10 -4.10515e-12)
(3.06261e-10 3.35317e-10 -1.75573e-12)
(2.40174e-10 2.94792e-10 -2.65784e-12)
(2.9371e-10 4.24307e-10 -3.09869e-12)
(2.17691e-10 3.79617e-10 -4.34322e-12)
(2.37852e-10 2.93154e-10 -2.98714e-12)
(2.9113e-10 4.22506e-10 -2.79533e-12)
(1.60883e-10 3.26538e-10 9.13443e-11)
(2.44189e-10 2.90676e-10 9.0205e-11)
(2.43919e-10 3.55895e-10 1.1497e-10)
(1.89604e-10 2.48575e-10 8.19295e-11)
(1.7692e-10 2.56468e-10 7.72013e-11)
(2.34239e-10 3.65732e-10 1.06399e-10)
(1.72955e-10 3.18036e-10 9.8011e-11)
(1.3155e-10 3.4105e-10 6.23454e-11)
(2.11325e-10 2.9724e-10 6.31472e-11)
(1.46189e-10 2.6262e-10 5.10749e-11)
(2.00893e-10 3.79423e-10 6.6411e-11)
(1.30905e-10 3.41335e-10 5.71929e-11)
(1.46011e-10 2.61684e-10 5.4391e-11)
(2.0073e-10 3.78341e-10 7.21832e-11)
(2.42329e-10 6.47122e-10 -6.31972e-12)
(2.54863e-10 9.26363e-10 -8.83731e-12)
(2.43072e-10 6.49368e-10 -8.99143e-12)
(2.44267e-10 6.52487e-10 -9.17214e-12)
(2.55571e-10 9.28531e-10 -7.74398e-12)
(2.43664e-10 6.50573e-10 -6.42295e-12)
(2.55093e-10 4.10403e-10 -5.84479e-12)
(3.52188e-10 3.67769e-10 -4.81909e-12)
(3.35726e-10 4.60075e-10 -5.51928e-12)
(2.81791e-10 3.22643e-10 -4.82972e-12)
(2.55783e-10 4.11076e-10 -5.95597e-12)
(2.80671e-10 3.21571e-10 -5.35772e-12)
(3.34382e-10 4.58895e-10 -5.41379e-12)
(1.53359e-10 5.14457e-10 -7.55577e-12)
(1.91556e-10 6.16151e-10 -6.60113e-12)
(2.32191e-10 7.34096e-10 -7.38974e-12)
(2.29838e-10 8.58409e-10 -8.71426e-12)
(1.5253e-10 5.12429e-10 -6.57656e-12)
(1.92313e-10 6.18398e-10 -8.54531e-12)
(2.33194e-10 7.36525e-10 -7.61852e-12)
(2.5196e-10 4.06713e-10 -5.52487e-12)
(3.48788e-10 3.64591e-10 -4.31961e-12)
(2.76451e-10 3.17696e-10 -4.99717e-12)
(3.301e-10 4.53987e-10 -5.07793e-12)
(2.51266e-10 4.05953e-10 -5.45375e-12)
(2.77491e-10 3.1878e-10 -4.4285e-12)
(3.31225e-10 4.55035e-10 -5.09802e-12)
(2.41664e-10 6.45817e-10 -8.85445e-12)
(2.52504e-10 9.18777e-10 -7.43154e-12)
(2.40879e-10 6.43639e-10 -6.15561e-12)
(2.51741e-10 9.16933e-10 -8.40622e-12)
(2.39383e-10 6.40759e-10 -6.06166e-12)
(2.40206e-10 6.42566e-10 -8.68917e-12)
(2.27567e-10 3.86772e-10 -5.07218e-12)
(3.1978e-10 3.43768e-10 -3.38224e-12)
(3.05875e-10 4.33442e-10 -4.31994e-12)
(2.52191e-10 3.01782e-10 -3.71628e-12)
(2.28782e-10 3.87636e-10 -5.13898e-12)
(2.5047e-10 3.00503e-10 -4.23707e-12)
(3.03924e-10 4.32031e-10 -4.22289e-12)
(1.34386e-10 4.89255e-10 -8.13094e-12)
(1.73476e-10 5.8768e-10 -7.59168e-12)
(2.0702e-10 6.98641e-10 -7.2417e-12)
(2.09439e-10 8.20935e-10 -8.98285e-12)
(1.32327e-10 4.86481e-10 -7.23535e-12)
(1.75332e-10 5.90756e-10 -9.38577e-12)
(2.09425e-10 7.01879e-10 -7.50731e-12)
(2.2078e-10 3.81703e-10 -4.61981e-12)
(3.12432e-10 3.39203e-10 -2.33923e-12)
(2.41252e-10 2.94908e-10 -3.41944e-12)
(2.94689e-10 4.25037e-10 -3.33608e-12)
(2.1918e-10 3.80564e-10 -4.42505e-12)
(2.4343e-10 2.96548e-10 -3.00054e-12)
(2.96987e-10 4.26652e-10 -3.50851e-12)
(1.36007e-10 4.90749e-10 -7.1919e-12)
(2.13671e-10 7.07396e-10 -7.57403e-12)
(1.78403e-10 5.95097e-10 -9.17696e-12)
(2.1138e-10 8.23765e-10 -7.83867e-12)
(1.76804e-10 5.92374e-10 -7.47563e-12)
(1.37766e-10 4.93218e-10 -7.98364e-12)
(2.11625e-10 7.04516e-10 -7.46271e-12)
(1.47313e-10 3.4485e-10 2.8803e-11)
(2.2786e-10 3.00139e-10 3.29533e-11)
(2.21638e-10 3.84757e-10 3.08947e-11)