/*--------------------------------*- C++ -*----------------------------------*\
| =========                 |                                                 |
| \\      /  F ield         | OpenFOAM: The Open Source CFD Toolbox           |
|  \\    /   O peration     | Version:  2012                                  |
|   \\  /    A nd           | Website:  www.openfoam.com                      |
|    \\/     M anipulation  |                                                 |
\*---------------------------------------------------------------------------*/
FoamFile
{
    version     2.0;
    format      ascii;
    class       volScalarField;
    location    "0.104/solid";
    object      epsilonEq;
}
// * * * * * * * * * * * * * * * * * * * * * * * * * * * * * * * * * * * * * //

dimensions      [0 0 0 0 0 0 0];


internalField   nonuniform List<scalar> 
3125
(
1.73858e-08
1.65991e-08
1.48385e-08
1.74728e-08
1.67382e-08
1.52517e-08
1.7821e-08
1.71531e-08
1.60676e-08
1.76889e-08
1.70624e-08
1.58623e-08
4.83358e-09
9.68214e-09
1.87999e-08
1.73092e-08
4.92408e-09
1.87227e-08
9.6223e-09
4.20516e-09
9.05711e-09
1.81856e-08
1.6441e-08
4.4648e-09
1.79688e-08
8.93094e-09
2.65304e-09
8.26965e-09
1.58008e-08
1.37191e-08
3.29158e-09
1.34333e-08
7.9135e-09
2.1084e-08
2.12078e-08
5.01211e-09
1.75511e-08
9.74468e-09
1.88473e-08
4.91179e-09
1.89628e-08
9.80842e-09
2.10322e-08
2.09423e-08
2.04179e-08
2.05862e-08
4.63508e-09
1.68597e-08
9.16783e-09
1.82448e-08
4.4597e-09
1.83996e-08
9.26453e-09
2.03526e-08
2.01199e-08
1.79772e-08
1.88861e-08
3.39522e-09
1.54665e-08
8.33045e-09
1.61707e-08
3.25735e-09
1.68945e-08
8.32235e-09
1.75213e-08
1.49456e-08
1.90974e-08
1.00381e-08
5.12382e-09
1.27904e-08
6.81073e-09
6.39741e-09
6.33644e-09
1.25167e-08
1.24539e-08
4.84604e-09
1.72356e-08
1.85952e-08
9.4982e-09
1.87008e-08
4.74577e-09
9.56282e-09
1.23421e-08
1.24309e-08
6.18236e-09
6.31076e-09
5.62132e-09
5.33488e-09
1.19328e-08
1.16942e-08
4.20278e-09
1.62631e-08
1.75858e-08
8.63867e-09
1.78848e-08
3.82671e-09
8.78989e-09
1.11967e-08
1.15871e-08
4.85936e-09
5.2379e-09
4.06158e-09
3.71023e-09
8.48929e-09
6.97625e-09
2.27446e-09
1.3496e-08
1.23944e-08
6.48494e-09
6.60144e-09
3.86752e-09
2.13761e-08
2.12693e-08
2.12067e-08
5.00094e-09
1.76088e-08
1.89911e-08
9.95396e-09
5.13834e-09
1.89557e-08
9.87625e-09
6.41864e-09
6.53799e-09
1.25522e-08
1.26487e-08
1.27147e-08
1.26607e-08
6.76543e-09
6.58747e-09
2.08021e-08
2.09174e-08
2.07586e-08
2.06314e-08
4.62633e-09
1.69659e-08
1.8556e-08
9.4269e-09
4.75565e-09
1.8441e-08
9.34951e-09
5.69373e-09
5.90736e-09
1.19995e-08
1.21543e-08
1.23059e-08
1.21983e-08
6.13594e-09
5.96318e-09
1.3568e-08
1.96985e-08
2.00286e-08
1.30376e-08
1.34536e-08
1.95707e-08
1.90832e-08
1.03609e-08
1.17302e-08
1.28734e-08
1.2079e-08
3.39403e-09
1.56587e-08
1.74709e-08
8.49131e-09
3.81491e-09
1.70564e-08
8.37449e-09
4.12724e-09
4.29725e-09
8.93069e-09
1.00576e-08
1.10228e-08
1.03487e-08
4.74312e-09
4.36362e-09
9.7637e-09
7.9543e-09
1.53851e-08
1.39914e-08
7.70692e-09
1.12853e-08
1.29964e-08
1.60958e-08
8.58655e-09
1.47193e-08
1.72108e-08
1.1073e-08
4.88515e-09
9.02391e-09
6.44394e-09
6.45479e-09
9.03468e-09
1.10595e-08
1.10965e-08
4.87315e-09
6.48489e-09
9.06922e-09
1.11149e-08
6.4757e-09
9.05163e-09
1.06027e-08
4.34736e-09
8.44722e-09
5.95689e-09
6.00298e-09
8.50658e-09
1.05582e-08
1.06556e-08
4.346e-09
6.0947e-09
8.61985e-09
1.06925e-08
6.05944e-09
8.57143e-09
9.27771e-09
3.25388e-09
6.01686e-09
4.99e-09
5.36385e-09
6.58347e-09
8.53148e-09
9.69246e-09
3.25069e-09
5.51862e-09
7.19529e-09
9.88642e-09
5.53551e-09
6.98912e-09
1.11998e-08
4.95003e-09
9.17468e-09
6.56175e-09
1.12096e-08
6.55072e-09
9.16112e-09
1.11716e-08
4.96258e-09
6.50952e-09
9.09936e-09
1.11469e-08
6.52524e-09
9.12852e-09
1.08096e-08
4.55097e-09
8.78864e-09
6.23551e-09
1.08351e-08
6.21334e-09
8.75648e-09
1.07696e-08
4.558e-09
6.142e-09
8.67233e-09
1.07382e-08
6.17247e-09
8.71158e-09
1.00202e-08
3.26769e-09
7.59274e-09
5.4242e-09
1.00637e-08
5.40261e-09
7.49855e-09
1.0007e-08
3.2929e-09
5.46215e-09
7.32278e-09
9.95991e-09
5.43406e-09
7.40093e-09
1.14214e-08
5.17827e-09
9.44263e-09
6.75531e-09
1.13784e-08
5.19143e-09
9.28453e-09
6.68889e-09
9.36739e-09
6.71664e-09
1.13228e-08
8.49686e-09
1.28816e-08
9.97744e-09
1.01298e-08
1.29583e-08
1.01651e-08
8.36748e-09
8.47102e-09
5.74735e-09
5.86733e-09
6.87904e-09
5.86047e-09
5.6868e-09
5.71757e-09
6.944e-09
5.95635e-09
5.34158e-09
5.36389e-09
5.56531e-09
6.38836e-09
5.56403e-09
5.40499e-09
5.38179e-09
5.53164e-09
6.37049e-09
5.51969e-09
8.08731e-09
8.0993e-09
9.76692e-09
1.24915e-08
9.73595e-09
8.14102e-09
8.12295e-09
9.70661e-09
1.24688e-08
9.72223e-09
1.10211e-08
9.00536e-09
4.79256e-09
6.423e-09
1.10371e-08
8.98771e-09
6.41216e-09
1.0993e-08
4.80354e-09
8.93643e-09
6.36816e-09
8.95968e-09
6.38586e-09
1.09724e-08
8.06543e-09
8.04265e-09
1.23725e-08
9.60288e-09
9.64264e-09
9.69335e-09
1.24051e-08
9.65955e-09
7.98901e-09
8.01765e-09
5.32263e-09
5.29565e-09
5.43694e-09
6.24313e-09
5.42575e-09
5.23823e-09
5.27345e-09
5.48272e-09
6.28332e-09
5.48328e-09
4.64906e-09
4.74437e-09
5.02133e-09
5.53711e-09
5.01552e-09
4.87203e-09
4.79504e-09
4.88646e-09
5.45073e-09
4.88752e-09
7.40512e-09
7.50743e-09
9.2548e-09
1.18617e-08
9.15804e-09
7.6383e-09
7.55813e-09
9.00151e-09
1.17763e-08
9.11864e-09
1.04471e-08
8.36938e-09
4.03132e-09
5.89195e-09
1.04985e-08
8.2951e-09
5.83726e-09
1.03818e-08
4.02311e-09
8.1147e-09
5.70003e-09
8.20062e-09
5.764e-09
1.03257e-08
7.34424e-09
7.20911e-09
1.13398e-08
8.54791e-09
8.74145e-09
8.95566e-09
1.14712e-08
8.79627e-09
6.96959e-09
7.14002e-09
4.58915e-09
4.47433e-09
4.53718e-09
5.00681e-09
4.5494e-09
4.27156e-09
4.40589e-09
4.73502e-09
5.11911e-09
4.72026e-09
3.49695e-09
3.87553e-09
3.74922e-09
3.85591e-09
3.67024e-09
3.7857e-09
3.80425e-09
3.3271e-09
3.65752e-09
3.45371e-09
4.35125e-09
5.08193e-09
6.93138e-09
7.99881e-09
6.36837e-09
5.63105e-09
5.19343e-09
5.46539e-09
7.44295e-09
6.25271e-09
7.67058e-09
5.25089e-09
1.47757e-09
4.20721e-09
8.19928e-09
4.73503e-09
3.88092e-09
1.09698e-08
1.27432e-08
7.56154e-09
1.63306e-08
9.73016e-09
5.30836e-09
4.87935e-09
7.73446e-09
9.20821e-09
3.76887e-09
5.16012e-09
3.88775e-09
4.12768e-09
3.52308e-09
9.91174e-09
5.14518e-09
5.24615e-09
6.70841e-09
5.07938e-09
3.21727e-09
3.23132e-09
2.74272e-09
4.63472e-09
4.39839e-09
3.42041e-09
3.05067e-09
3.80237e-09
3.1455e-09
1.12176e-08
5.07727e-09
9.18044e-09
6.58356e-09
1.12185e-08
9.17344e-09
6.59872e-09
1.12351e-08
5.06721e-09
9.21196e-09
6.64805e-09
1.12635e-08
9.18102e-09
6.62855e-09
5.50493e-09
5.4713e-09
5.61404e-09
6.46258e-09
5.6038e-09
5.42382e-09
5.45043e-09
5.65916e-09
6.4996e-09
5.66047e-09
8.24405e-09
8.22067e-09
9.78458e-09
1.25882e-08
9.83554e-09
8.16546e-09
8.19816e-09
9.88508e-09
1.26243e-08
9.85339e-09
8.26542e-09
8.26065e-09
9.94224e-09
1.26774e-08
9.89279e-09
8.32839e-09
8.29769e-09
9.89411e-09
1.26599e-08
9.87931e-09
5.53269e-09
5.58046e-09
5.78669e-09
6.71895e-09
5.78406e-09
5.6599e-09
5.61402e-09
5.7261e-09
6.66176e-09
5.7127e-09
1.08911e-08
4.69887e-09
8.82442e-09
6.26967e-09
1.0869e-08
8.85041e-09
6.29094e-09
1.09221e-08
4.69005e-09
8.90627e-09
6.33908e-09
1.09423e-08
8.8823e-09
6.32259e-09
5.0664e-09
5.0155e-09
5.13267e-09
5.78258e-09
5.12591e-09
4.91543e-09
4.9786e-09
5.22102e-09
5.84764e-09
5.22019e-09
7.83028e-09
7.78115e-09
9.28647e-09
1.20534e-08
9.35983e-09
7.68193e-09
7.74278e-09
9.44989e-09
1.21085e-08
9.38699e-09
7.86218e-09
7.89982e-09
9.58386e-09
1.22717e-08
9.53883e-09
7.96179e-09
7.92921e-09
9.47204e-09
1.22329e-08
9.51803e-09
5.09839e-09
5.14312e-09
5.36883e-09
6.0889e-09
5.3688e-09
5.21186e-09
5.17184e-09
5.30518e-09
6.03584e-09
5.29458e-09
1.31543e-08
1.32986e-08
1.08603e-08
1.13225e-08
1.26442e-08
1.23714e-08
1.01485e-08
3.58942e-09
7.69702e-09
5.44701e-09
1.00964e-08
7.79575e-09
5.50112e-09
1.02036e-08
3.60154e-09
8.0103e-09
5.62725e-09
1.02618e-08
7.91142e-09
5.56172e-09
3.81968e-09
3.77613e-09
3.91204e-09
4.19617e-09
3.88573e-09
3.77605e-09
3.7579e-09
3.98231e-09
4.21962e-09
3.99651e-09
6.28176e-09
5.9766e-09
6.9605e-09
9.33527e-09
7.37255e-09
5.6325e-09
5.95561e-09
7.79898e-09
9.72273e-09
7.42072e-09
6.34051e-09
6.60283e-09
8.48674e-09
1.08304e-08
8.23283e-09
6.89433e-09
6.67487e-09
7.859e-09
1.06021e-08
8.16404e-09
3.87229e-09
3.9868e-09
4.3477e-09
4.60139e-09
4.32808e-09
4.19671e-09
4.05767e-09
4.13909e-09
4.4937e-09
4.14329e-09
9.09509e-09
8.40409e-09
1.34581e-08
1.74751e-08
1.01577e-08
7.83563e-09
7.31431e-09
4.85919e-09
5.89467e-09
5.55596e-09
5.53721e-09
5.88059e-09
7.31456e-09
1.54569e-08
1.94425e-08
1.43705e-08
1.87625e-08
1.54884e-08
1.94097e-08
1.43457e-08
7.34285e-09
4.87811e-09
5.59754e-09
5.94404e-09
7.37029e-09
5.59757e-09
5.93684e-09
1.54302e-08
1.43175e-08
1.87392e-08
1.93507e-08
1.93715e-08
1.43265e-08
1.54077e-08
6.82704e-09
4.27887e-09
5.25091e-09
4.92566e-09
4.92065e-09
5.26031e-09
6.78657e-09
1.48851e-08
1.87745e-08
1.38616e-08
1.81185e-08
1.49396e-08
1.87203e-08
1.38094e-08
6.93143e-09
4.38877e-09
5.10526e-09
5.45736e-09
6.9802e-09
5.09871e-09
5.43706e-09
5.0203e-09
3.00879e-09
2.99988e-09
3.20063e-09
3.49506e-09
3.33472e-09
4.48483e-09
5.8137e-09
3.24204e-09
3.89959e-09
4.01504e-09
5.99957e-09
3.87886e-09
3.94646e-09
2.20123e-08
2.11341e-08
2.20562e-08
2.21255e-08
2.11807e-08
2.21029e-08
7.4285e-09
4.95888e-09
6.03562e-09
5.68848e-09
7.45369e-09
5.68719e-09
6.02751e-09
1.55624e-08
1.94929e-08
1.44127e-08
1.88972e-08
1.5525e-08
1.9531e-08
1.44538e-08
7.38397e-09
4.93717e-09
5.63645e-09
5.97328e-09
7.37905e-09
5.61798e-09
5.9601e-09
2.19582e-08
2.09884e-08
2.19189e-08
2.09601e-08
2.18525e-08
2.18776e-08
7.08579e-09
4.57477e-09
5.64044e-09
5.28828e-09
7.1223e-09
5.28594e-09
5.627e-09
1.50381e-08
1.88466e-08
1.39185e-08
1.82978e-08
1.49915e-08
1.88923e-08
1.396e-08
7.01484e-09
4.51173e-09
5.17724e-09
5.51153e-09
6.99168e-09
5.16515e-09
5.50935e-09
1.50825e-08
1.40465e-08
1.89956e-08
1.83504e-08
1.89556e-08
1.51224e-08
1.401e-08
6.08829e-09
3.29914e-09
4.28264e-09
4.03117e-09
6.19687e-09
4.00918e-09
4.22756e-09
6.05434e-09
3.28334e-09
3.9402e-09
4.04566e-09
5.96571e-09
3.91668e-09
4.06649e-09
7.57032e-09
5.15977e-09
6.1903e-09
5.86328e-09
6.18358e-09
5.84365e-09
7.5444e-09
6.45207e-09
6.4766e-09
4.69122e-09
4.71639e-09
4.39758e-09
4.41302e-09
4.47461e-09
4.43863e-09
6.13348e-09
6.15192e-09
6.22149e-09
6.18567e-09
7.28384e-09
5.86599e-09
4.79979e-09
5.51742e-09
7.30905e-09
5.85835e-09
5.51789e-09
1.53259e-08
1.92133e-08
1.86318e-08
1.42132e-08
1.4241e-08
1.92449e-08
1.5294e-08
1.53564e-08
1.42973e-08
1.93152e-08
1.86687e-08
1.53833e-08
1.42752e-08
1.92886e-08
7.24117e-09
4.77567e-09
5.80284e-09
5.46473e-09
5.79192e-09
5.44825e-09
7.23348e-09
6.1338e-09
6.0978e-09
6.03439e-09
6.05593e-09
4.39751e-09
4.36079e-09
4.30956e-09
4.33091e-09
3.77631e-09
3.83914e-09
4.01374e-09
3.9492e-09
5.43022e-09
5.49682e-09
5.7058e-09
5.64117e-09
6.70284e-09
5.17726e-09
4.10351e-09
4.83014e-09
6.77247e-09
5.14329e-09
4.8144e-09
6.55599e-09
3.92335e-09
4.85358e-09
4.55206e-09
4.88045e-09
4.55723e-09
6.49433e-09
5.40963e-09
5.31851e-09
4.99026e-09
5.08888e-09
3.75704e-09
3.67107e-09
3.4181e-09
3.50126e-09
2.8475e-09
3.11652e-09
3.03506e-09
2.97997e-09
3.12536e-09
3.4732e-09
4.03593e-09
3.91695e-09
3.4159e-09
2.62602e-09
1.671e-09
2.7289e-09
4.13404e-09
2.11639e-09
2.53853e-09
1.15348e-08
1.28908e-08
1.44841e-08
1.13287e-08
1.20035e-08
1.40369e-08
1.0602e-08
1.11233e-08
9.24888e-09
1.39393e-08
1.2024e-08
1.11671e-08
8.75986e-09
1.4023e-08
8.61281e-09
6.02219e-09
9.25601e-09
6.26713e-09
9.18229e-09
5.6531e-09
8.4246e-09
2.89586e-09
2.50006e-09
2.55402e-09
1.83083e-09
2.22453e-08
2.12062e-08
2.21886e-08
2.21462e-08
2.11936e-08
2.21509e-08
7.45254e-09
5.03648e-09
6.07015e-09
5.73404e-09
7.45477e-09
6.05575e-09
5.71708e-09
7.48087e-09
5.08052e-09
6.14859e-09
5.80892e-09
7.5252e-09
6.13805e-09
5.8082e-09
4.56224e-09
4.51957e-09
4.47505e-09
4.49056e-09
6.32153e-09
6.27786e-09
6.22061e-09
6.23747e-09
6.31946e-09
6.34968e-09
6.44821e-09
6.40111e-09
4.56712e-09
4.58987e-09
4.69152e-09
4.64485e-09
2.16965e-08
2.084e-08
2.17342e-08
2.18144e-08
2.08805e-08
2.17814e-08
2.16446e-08
2.07117e-08
2.16028e-08
7.14324e-09
4.66422e-09
5.68142e-09
5.34361e-09
7.13093e-09
5.67328e-09
5.32815e-09
1.52279e-08
1.91654e-08
1.41773e-08
1.85152e-08
1.52608e-08
1.91318e-08
1.41484e-08
7.19429e-09
4.70401e-09
5.76901e-09
5.41897e-09
7.22578e-09
5.75864e-09
5.41745e-09
1.51937e-08
1.4086e-08
1.90495e-08
1.8477e-08
1.51598e-08
1.90824e-08
1.41129e-08
4.1841e-09
4.13386e-09
4.02442e-09
4.06699e-09
5.89767e-09
5.84876e-09
5.71696e-09
5.75992e-09
5.90318e-09
5.9324e-09
6.03231e-09
5.9915e-09
4.18951e-09
4.21858e-09
4.30634e-09
4.2638e-09
6.24618e-09
3.48298e-09
4.35666e-09
4.12036e-09
6.17405e-09
4.39272e-09
4.12282e-09
6.38998e-09
3.69509e-09
4.76259e-09
4.43705e-09
6.48578e-09
4.70984e-09
4.40868e-09
3.04814e-09
2.96874e-09
2.99139e-09
3.01665e-09
4.40029e-09
4.26604e-09
4.01037e-09
4.0999e-09
4.41737e-09
4.53585e-09
4.9605e-09
4.83575e-09
3.04808e-09
3.11754e-09
3.39212e-09
3.28749e-09
1.56449e-08
1.61677e-08
1.61976e-08
1.58022e-08
1.39266e-08
1.62839e-08
1.31547e-08
1.08614e-08
1.25341e-08
1.37946e-08
1.10561e-08
1.22667e-08
1.45084e-08
1.52886e-08
1.3724e-08
9.74165e-09
9.86524e-09
1.11294e-08
1.50365e-08
1.63247e-08
7.31353e-09
4.83878e-09
5.55804e-09
5.90454e-09
7.33743e-09
5.55764e-09
5.89865e-09
7.34253e-09
4.89852e-09
5.5959e-09
5.93373e-09
7.34297e-09
5.57651e-09
5.91864e-09
6.82801e-09
4.2605e-09
4.98183e-09
5.33252e-09
6.88649e-09
4.97118e-09
5.30656e-09
6.93083e-09
4.40799e-09
5.06528e-09
5.39601e-09
6.89983e-09
5.05592e-09
5.39925e-09
5.10883e-09
3.10025e-09
3.77377e-09
3.71592e-09
5.51874e-09
3.6588e-09
3.52488e-09
5.83083e-09
3.2916e-09
3.88613e-09
3.84595e-09
5.60621e-09
3.87765e-09
3.92886e-09
7.43083e-09
4.97875e-09
5.6826e-09
6.01946e-09
7.42701e-09
5.66371e-09
6.00764e-09
7.3868e-09
4.91493e-09
5.6404e-09
5.9883e-09
7.41851e-09
5.63981e-09
5.97943e-09
7.08578e-09
4.59514e-09
5.26898e-09
5.60512e-09
7.0685e-09
5.25443e-09
5.59985e-09
7.01543e-09
4.4906e-09
5.20598e-09
5.55789e-09
7.05817e-09
5.20144e-09
5.5419e-09
6.13099e-09
3.32536e-09
3.98173e-09
4.1575e-09
6.05736e-09
3.9688e-09
4.18665e-09
5.99037e-09
3.23342e-09
3.92782e-09
4.11476e-09
6.1006e-09
3.92242e-09
4.07212e-09
7.67104e-09
5.22845e-09
6.2791e-09
5.94016e-09
7.65452e-09
6.27736e-09
5.92477e-09
7.58299e-09
5.1294e-09
6.232e-09
5.87612e-09
7.63776e-09
6.21274e-09
5.87573e-09
6.53292e-09
6.57715e-09
7.89462e-09
8.52115e-09
7.39537e-09
7.41011e-09
7.92219e-09
1.19786e-08
1.35866e-08
1.36335e-08
1.19442e-08
1.19958e-08
1.37123e-08
1.20433e-08
1.36416e-08
1.20863e-08
1.37084e-08
1.20543e-08
1.37559e-08
6.5231e-09
6.47341e-09
7.29862e-09
8.39157e-09
7.78406e-09
7.30631e-09
7.81309e-09
7.86244e-09
7.36459e-09
8.4211e-09
7.33199e-09
7.8365e-09
4.74868e-09
4.7859e-09
5.94702e-09
6.05603e-09
5.51561e-09
5.69306e-09
5.46807e-09
5.9335e-09
6.06367e-09
5.2017e-09
6.00156e-09
5.99082e-09
5.21714e-09
4.32928e-09
4.46777e-09
4.27902e-09
4.5161e-09
5.21761e-09
5.96256e-09
5.99644e-09
5.16612e-09
4.34063e-09
4.58743e-09
4.35075e-09
4.55944e-09
4.74919e-09
4.6975e-09
5.86065e-09
5.43102e-09
5.62732e-09
5.96711e-09
5.38623e-09
5.9734e-09
5.85642e-09
5.85945e-09
6.00795e-09
5.44712e-09
5.621e-09
5.4018e-09
5.90805e-09
5.97048e-09
5.30393e-09
6.05567e-09
6.09076e-09
5.2549e-09
4.61779e-09
4.37361e-09
4.43624e-09
4.40098e-09
5.4955e-09
5.11612e-09
5.28122e-09
5.61835e-09
5.07279e-09
5.6175e-09
5.50044e-09
5.49264e-09
5.63347e-09
5.12139e-09
5.27823e-09
5.07904e-09
5.52162e-09
5.61038e-09
4.91943e-09
5.65209e-09
5.67472e-09
4.89755e-09
4.06927e-09
4.12694e-09
4.04696e-09
4.14106e-09
4.91878e-09
5.6735e-09
5.67842e-09
4.90035e-09
4.0732e-09
4.13578e-09
4.05581e-09
4.13869e-09
4.43752e-09
4.45305e-09
5.53925e-09
5.15917e-09
5.31986e-09
5.68116e-09
5.1179e-09
5.65515e-09
5.57392e-09
5.53684e-09
5.65442e-09
5.15354e-09
5.31896e-09
5.10861e-09
5.53893e-09
5.65417e-09
4.88299e-09
5.62659e-09
5.63427e-09
4.87962e-09
4.05222e-09
4.09794e-09
4.01619e-09
4.11776e-09
4.89696e-09
5.61777e-09
5.64168e-09
4.8577e-09
4.05497e-09
4.13208e-09
4.04913e-09
4.13583e-09
6.17887e-09
6.14196e-09
6.98611e-09
8.08232e-09
7.47508e-09
6.98042e-09
7.49177e-09
7.5111e-09
7.00314e-09
8.09622e-09
6.99588e-09
7.49392e-09
1.16594e-08
1.33191e-08
1.16781e-08
1.3294e-08
1.0463e-08
1.25138e-08
9.75011e-09
1.01525e-08
1.24812e-08
1.01399e-08
1.04771e-08
1.04531e-08
1.01168e-08
9.74026e-09
1.24663e-08
1.24763e-08
1.01308e-08
1.04424e-08
1.16495e-08
1.32759e-08
1.16393e-08
1.32888e-08
6.17664e-09
6.19551e-09
7.04752e-09
8.1327e-09
7.55253e-09
7.03769e-09
7.53626e-09
7.51669e-09
7.02943e-09
8.11683e-09
7.02191e-09
7.5332e-09
1.04148e-08
1.24442e-08
9.70927e-09
1.00834e-08
1.24485e-08
1.00969e-08
1.04053e-08
1.15992e-08
1.3227e-08
1.15914e-08
1.32356e-08
1.04228e-08
1.01095e-08
9.71559e-09
1.24621e-08
1.24472e-08
1.01011e-08
1.04301e-08
1.16108e-08
1.32612e-08
1.16234e-08
1.32465e-08
7.28397e-09
4.81952e-09
5.8524e-09
5.51464e-09
7.27966e-09
5.84049e-09
5.49631e-09
7.24186e-09
4.75505e-09
5.82117e-09
5.47252e-09
7.27212e-09
5.81222e-09
5.47126e-09
6.96207e-09
7.46741e-09
8.05674e-09
6.9509e-09
7.45177e-09
6.08639e-09
6.10593e-09
7.42951e-09
8.04305e-09
6.93918e-09
6.9367e-09
7.44641e-09
1.14851e-08
1.31005e-08
1.31153e-08
1.147e-08
1.03067e-08
1.23263e-08
9.61401e-09
9.96948e-09
1.23451e-08
9.98984e-09
1.02905e-08
1.03206e-08
1.00172e-08
1.23804e-08
9.62535e-09
1.23491e-08
1.0336e-08
1.0002e-08
1.14989e-08
1.31534e-08
1.15186e-08
1.31308e-08
1.03797e-08
1.24388e-08
1.00722e-08
9.6802e-09
1.0392e-08
1.2414e-08
1.00615e-08
1.15595e-08
1.32137e-08
1.15766e-08
1.31923e-08
1.0369e-08
1.00339e-08
9.67096e-09
1.23906e-08
1.24098e-08
1.00513e-08
1.03531e-08
1.15482e-08
1.31674e-08
1.15337e-08
1.31847e-08
6.0855e-09
6.0475e-09
6.88623e-09
7.98977e-09
7.37451e-09
6.88388e-09
7.39476e-09
7.41954e-09
6.9131e-09
8.00747e-09
6.90156e-09
7.40053e-09
4.35788e-09
4.37661e-09
5.44841e-09
5.08101e-09
5.59461e-09
5.23767e-09
5.48323e-09
5.04164e-09
5.5698e-09
5.44903e-09
5.56745e-09
5.07567e-09
5.23809e-09
5.03126e-09
5.44677e-09
5.56991e-09
4.78899e-09
5.53144e-09
5.53305e-09
4.79643e-09
3.96439e-09
3.96426e-09
3.9205e-09
4.00044e-09
4.8032e-09
5.51081e-09
5.54206e-09
4.75429e-09
3.97644e-09
4.04835e-09
3.98046e-09
4.03398e-09
4.35662e-09
4.31775e-09
5.39733e-09
5.02371e-09
5.18715e-09
5.51419e-09
4.98369e-09
5.51922e-09
5.39484e-09
5.39413e-09
5.53887e-09
5.03475e-09
5.18411e-09
4.99285e-09
5.42789e-09
5.5129e-09
4.8525e-09
5.56391e-09
5.59232e-09
4.82054e-09
4.0255e-09
4.08848e-09
4.00697e-09
4.09658e-09
4.85094e-09
5.58923e-09
4.83744e-09
5.59388e-09
4.02237e-09
4.06678e-09
3.99624e-09
4.08442e-09
3.89932e-09
3.82498e-09
4.82162e-09
4.47296e-09
4.633e-09
4.90494e-09
4.44735e-09
4.9396e-09
4.7788e-09
4.8233e-09
4.9839e-09
4.52289e-09
4.63659e-09
4.47924e-09
4.88536e-09
4.94093e-09
4.37364e-09
5.03783e-09
5.09282e-09
4.313e-09
3.58903e-09
3.4907e-09
3.58842e-09
3.4711e-09
4.36854e-09
5.10745e-09
5.09231e-09
4.38029e-09
3.56972e-09
3.39134e-09
3.52533e-09
3.43639e-09
3.91403e-09
3.96652e-09
4.96537e-09
4.64975e-09
4.77212e-09
5.12286e-09
4.6089e-09
5.0836e-09
5.02259e-09
4.96301e-09
5.0524e-09
4.61357e-09
4.76844e-09
4.58183e-09
4.92843e-09
5.07943e-09
4.22864e-09
4.96674e-09
4.94627e-09
4.26158e-09
3.44756e-09
3.20857e-09
3.38678e-09
3.27029e-09
4.2451e-09
4.89087e-09
4.95498e-09
4.16486e-09
3.47339e-09
3.35596e-09
3.49212e-09
3.31887e-09
5.57406e-09
5.49711e-09
6.2791e-09
7.43279e-09
6.7416e-09
6.3025e-09
6.79813e-09
6.87864e-09
6.38174e-09
7.47365e-09
6.34816e-09
6.82801e-09
1.10028e-08
1.26659e-08
1.10482e-08
1.26206e-08
9.86224e-09
1.19719e-08
9.21875e-09
9.58622e-09
1.19152e-08
9.55157e-09
9.89778e-09
1.09711e-08
1.25403e-08
1.09238e-08
1.25869e-08
5.58961e-09
5.64345e-09
6.51914e-09
7.61211e-09
7.01959e-09
6.49191e-09
6.97978e-09
6.91209e-09
6.43963e-09
7.57956e-09
6.45631e-09
6.95683e-09
1.07787e-08
1.23332e-08
1.07271e-08
1.23888e-08
1.08234e-08
1.24928e-08
1.088e-08
1.24421e-08
6.70241e-09
4.11745e-09
5.07016e-09
4.75445e-09
6.65027e-09
5.08901e-09
4.75496e-09
6.55313e-09
3.91195e-09
4.98633e-09
4.64686e-09
6.63638e-09
4.94333e-09
4.62441e-09
6.20991e-09
6.69912e-09
7.29985e-09
6.16653e-09
6.63761e-09
5.2309e-09
5.31354e-09
6.52655e-09
7.25224e-09
6.07604e-09
6.11181e-09
6.59622e-09
1.02229e-08
1.17176e-08
1.18186e-08
1.01254e-08
1.02962e-08
1.19937e-08
1.03885e-08
1.19008e-08
1.06017e-08
1.22772e-08
1.06778e-08
1.22004e-08
1.0542e-08
1.20684e-08
1.04618e-08
1.21393e-08
5.20475e-09
5.09671e-09
5.82867e-09
7.02588e-09
6.25712e-09
5.87386e-09
6.34142e-09
6.47078e-09
5.99532e-09
7.08158e-09
5.94088e-09
6.39434e-09
3.61097e-09
3.68579e-09
4.65222e-09
4.36719e-09
4.82227e-09
4.47467e-09
4.72631e-09
4.32248e-09
4.77249e-09
4.64534e-09
4.71896e-09
4.30287e-09
4.46683e-09
4.28097e-09
4.58873e-09
4.76277e-09
3.88054e-09
4.60677e-09
4.57131e-09
3.93329e-09
3.15609e-09
2.82802e-09
3.08551e-09
2.90025e-09
3.9012e-09
4.49566e-09
4.58053e-09
3.79646e-09
3.18669e-09
2.99555e-09
3.21437e-09
2.94691e-09
3.58691e-09
3.48953e-09
4.44175e-09
4.10193e-09
4.27381e-09
4.51031e-09
4.08544e-09
4.5611e-09
4.37689e-09
4.44822e-09
4.62301e-09
4.1809e-09
4.28123e-09
4.13335e-09
4.52921e-09
4.56925e-09
4.08285e-09
4.70327e-09
4.77794e-09
3.99855e-09
3.34037e-09
3.17122e-09
3.35068e-09
3.13762e-09
4.07423e-09
4.80588e-09
4.10452e-09
4.77707e-09
3.31334e-09
3.03452e-09
3.25553e-09
3.09634e-09
3.19829e-09
3.10766e-09
3.025e-09
2.95666e-09
3.4665e-09
2.76435e-09
3.19008e-09
2.8329e-09
2.89817e-09
3.08319e-09
3.17356e-09
3.36311e-09
3.50082e-09
3.25632e-09
3.2057e-09
2.9528e-09
3.28644e-09
3.40206e-09
3.5828e-09
3.2934e-09
2.65717e-09
2.77922e-09
2.67653e-09
2.75358e-09
3.21676e-09
3.63409e-09
3.56185e-09
3.19948e-09
2.66207e-09
2.55095e-09
2.62779e-09
2.69744e-09
3.06803e-09
3.08585e-09
3.4455e-09
3.42202e-09
3.6351e-09
3.65558e-09
3.39307e-09
3.56352e-09
3.55503e-09
3.38426e-09
3.33456e-09
3.40575e-09
3.71487e-09
3.37964e-09
3.28579e-09
3.50416e-09
3.23076e-09
3.2038e-09
3.00821e-09
3.1915e-09
2.75401e-09
1.85918e-09
2.88288e-09
1.91289e-09
3.16751e-09
2.76599e-09
2.87376e-09
3.14737e-09
2.68832e-09
2.34729e-09
2.60753e-09
2.11435e-09
3.78766e-09
3.51512e-09
3.44693e-09
4.61126e-09
3.64539e-09
3.71654e-09
3.92198e-09
4.27883e-09
4.16491e-09
4.80172e-09
3.98025e-09
4.09814e-09
6.85447e-09
8.19132e-09
7.08738e-09
7.83832e-09
6.63811e-09
7.22567e-09
6.42272e-09
7.59029e-09
3.81799e-09
3.96182e-09
4.57526e-09
5.42164e-09
4.6885e-09
4.48326e-09
4.60295e-09
4.41139e-09
4.33145e-09
5.43017e-09
4.43963e-09
4.52395e-09
5.97482e-09
6.57867e-09
5.84692e-09
6.65397e-09
6.06123e-09
7.02716e-09
6.23682e-09
6.72726e-09
3.1563e-09
1.59086e-09
2.56715e-09
2.67677e-09
3.24967e-09
1.76497e-09
1.87879e-09
1.05584e-08
1.30875e-08
1.26978e-08
1.13961e-08
1.4928e-08
1.33759e-08
9.68517e-09
9.72917e-09
1.18162e-08
1.458e-08
1.58751e-08
1.42372e-08
7.79008e-09
9.56027e-09
7.8745e-09
5.43675e-09
6.11599e-09
6.56183e-09
6.3352e-09
5.35635e-09
6.68703e-09
8.71387e-09
6.80539e-09
7.41419e-09
8.65696e-09
7.10319e-09
6.70943e-09
3.64152e-09
3.40585e-09
4.25834e-09
7.70916e-09
3.68813e-09
5.6421e-09
5.53211e-09
3.54236e-09
5.08759e-09
3.15148e-09
3.34033e-09
3.86671e-09
2.72207e-09
2.97973e-09
2.44724e-09
2.19662e-09
2.16097e-09
3.75012e-09
2.77345e-09
2.62073e-09
2.569e-09
8.2336e-09
6.46529e-09
5.35614e-09
5.11701e-09
6.98777e-09
5.42342e-09
7.54108e-09
4.57082e-09
5.81085e-09
6.48852e-09
5.77794e-09
6.56311e-09
6.07837e-09
6.97234e-09
5.66698e-09
7.08918e-09
4.20899e-09
1.86493e-09
2.99532e-09
1.4387e-09
1.98498e-09
2.50175e-09
2.50365e-09
2.6038e-09
2.95516e-09
2.86819e-09
2.6551e-09
2.79525e-09
3.23124e-09
3.00221e-09
2.86425e-09
2.8188e-09
1.83869e-09
2.22124e-09
2.63595e-09
4.68347e-09
3.05767e-09
4.81958e-09
3.55434e-09
3.37977e-09
4.26277e-09
4.74521e-09
3.81324e-09
3.0801e-09
2.61338e-09
3.4155e-09
4.64055e-09
3.24764e-09
3.29772e-09
2.43938e-09
2.52495e-09
3.03182e-09
2.36033e-09
2.33353e-09
1.92558e-09
2.51041e-09
2.12513e-09
2.64106e-09
2.61997e-09
2.77307e-09
2.64843e-09
1.95326e-09
2.64992e-09
1.76385e-09
2.23651e-09
1.41976e-08
1.42397e-08
1.43288e-08
1.42663e-08
1.43514e-08
1.39481e-08
1.39645e-08
1.40058e-08
1.39791e-08
1.40667e-08
1.40475e-08
1.40196e-08
1.40391e-08
1.41782e-08
1.41357e-08
1.41139e-08
1.41319e-08
1.40802e-08
1.40858e-08
1.41017e-08
1.40913e-08
7.44552e-09
5.01733e-09
6.08562e-09
5.74718e-09
7.47158e-09
6.08035e-09
5.74288e-09
7.47926e-09
5.10494e-09
6.12644e-09
5.7969e-09
7.474e-09
6.11022e-09
5.77934e-09
4.51549e-09
4.53492e-09
5.64076e-09
5.25061e-09
5.41172e-09
5.78483e-09
5.20687e-09
5.75483e-09
5.68073e-09
5.64021e-09
5.75391e-09
5.24209e-09
5.41172e-09
5.19607e-09
5.6389e-09
5.75532e-09
4.94532e-09
5.71639e-09
5.71819e-09
4.9492e-09
4.09157e-09
4.13567e-09
4.05308e-09
4.16049e-09
4.95939e-09
5.70146e-09
4.91899e-09
5.72535e-09
4.09717e-09
4.19395e-09
4.09798e-09
4.18582e-09
4.51548e-09
4.47788e-09
5.58861e-09
5.19325e-09
5.36445e-09
5.70486e-09
5.15069e-09
5.59303e-09
5.70513e-09
5.58718e-09
5.72602e-09
5.20182e-09
5.36129e-09
5.15828e-09
5.62027e-09
5.69931e-09
5.00613e-09
5.74881e-09
5.77548e-09
4.97236e-09
4.1459e-09
4.24183e-09
4.13071e-09
4.24354e-09
5.00381e-09
5.77772e-09
5.77671e-09
4.99752e-09
4.13949e-09
4.20984e-09
4.11208e-09
4.22841e-09
6.26588e-09
6.28717e-09
7.14581e-09
8.23654e-09
7.65079e-09
7.13461e-09
7.63379e-09
7.61255e-09
7.12057e-09
8.22361e-09
7.11914e-09
7.62829e-09
1.17065e-08
1.33314e-08
1.16931e-08
1.33484e-08
1.05109e-08
1.25255e-08
9.79845e-09
1.01684e-08
1.25496e-08
1.04938e-08
1.01886e-08
1.05256e-08
1.02227e-08
9.81135e-09
1.26004e-08
1.25585e-08
1.02054e-08
1.05455e-08
1.17177e-08
1.33873e-08
1.33587e-08
1.17384e-08
6.26554e-09
6.22875e-09
7.0722e-09
8.1662e-09
7.56139e-09
7.06764e-09
7.57858e-09
7.60104e-09
7.09662e-09
8.18377e-09
7.08418e-09
7.58446e-09
1.17776e-08
1.34438e-08
1.3423e-08
1.17921e-08
1.17648e-08
1.33947e-08
1.34157e-08
1.17504e-08
6.38716e-09
6.33525e-09
7.17441e-09
8.25341e-09
7.65645e-09
7.16669e-09
7.67794e-09
7.70208e-09
7.19145e-09
8.27039e-09
7.18906e-09
7.67507e-09
1.18892e-08
1.35723e-08
1.19209e-08
1.35285e-08
1.18742e-08
1.35081e-08
1.35238e-08
1.18625e-08
6.3817e-09
6.41413e-09
7.26272e-09
7.76291e-09
8.31163e-09
7.2485e-09
7.73422e-09
7.70204e-09
7.23296e-09
8.28266e-09
7.22035e-09
7.73107e-09
1.18119e-08
1.34566e-08
1.34618e-08
1.18085e-08
1.18282e-08
1.34837e-08
1.34752e-08
1.18363e-08
4.62552e-09
4.57912e-09
5.70396e-09
5.29545e-09
5.47847e-09
5.81795e-09
5.25364e-09
5.70505e-09
5.82098e-09
5.70317e-09
5.84509e-09
5.31244e-09
5.47745e-09
5.26176e-09
5.74074e-09
5.81275e-09
5.14408e-09
5.87687e-09
5.90956e-09
5.10385e-09
4.27576e-09
4.44014e-09
4.26486e-09
4.43098e-09
5.14075e-09
5.91705e-09
5.13539e-09
5.91209e-09
4.26944e-09
4.37629e-09
4.23603e-09
4.40713e-09
4.63535e-09
4.66066e-09
5.7827e-09
5.37789e-09
5.9265e-09
5.56206e-09
5.82878e-09
5.33137e-09
5.89062e-09
5.77651e-09
5.88093e-09
5.35908e-09
5.55988e-09
5.31774e-09
5.77188e-09
5.88826e-09
5.06133e-09
5.83687e-09
5.83563e-09
5.07561e-09
4.19446e-09
4.26007e-09
4.14868e-09
4.29692e-09
5.0789e-09
5.81684e-09
5.02598e-09
5.84583e-09
4.20857e-09
4.3518e-09
4.21568e-09
4.33342e-09
1.39355e-08
1.39106e-08
1.3892e-08
1.39058e-08
1.38471e-08
1.38553e-08
1.38797e-08
1.38652e-08
1.37182e-08
1.37316e-08
1.37698e-08
1.37495e-08
1.38321e-08
1.38122e-08
1.37869e-08
1.38031e-08
1.33251e-08
1.33511e-08
1.34171e-08
1.3386e-08
1.35282e-08
1.34996e-08
1.3451e-08
1.34768e-08
1.36981e-08
1.36737e-08
1.3641e-08
1.36594e-08
1.35566e-08
1.35728e-08
1.36176e-08
1.35955e-08
7.1431e-09
4.64321e-09
5.709e-09
5.35817e-09
7.17711e-09
5.69772e-09
5.35569e-09
7.19455e-09
4.72367e-09
5.74659e-09
5.40858e-09
7.18514e-09
5.73705e-09
5.39215e-09
4.11573e-09
4.1514e-09
5.17792e-09
4.8399e-09
4.97501e-09
5.32845e-09
4.80062e-09
5.29638e-09
5.22412e-09
5.17805e-09
5.28056e-09
4.82087e-09
4.97426e-09
4.78258e-09
5.15945e-09
5.29521e-09
4.47389e-09
5.21685e-09
5.20757e-09
4.49317e-09
3.66708e-09
3.52198e-09
3.61562e-09
3.57065e-09
4.48914e-09
5.16961e-09
4.42608e-09
5.21688e-09
3.68654e-09
3.63955e-09
3.69729e-09
3.61357e-09
4.1082e-09
4.05189e-09
5.08305e-09
4.7268e-09
4.88255e-09
5.18132e-09
4.69341e-09
5.06013e-09
5.20116e-09
5.08115e-09
5.23165e-09
4.75445e-09
4.88214e-09
4.7131e-09
5.12861e-09
5.19763e-09
4.57863e-09
5.26936e-09
5.31081e-09
4.53236e-09
3.77178e-09
3.73787e-09
3.76387e-09
3.72817e-09
4.57544e-09
5.31687e-09
5.31056e-09
4.57603e-09
3.75849e-09
3.66861e-09
3.72301e-09
3.7015e-09
5.81889e-09
5.85447e-09
6.71886e-09
7.81283e-09
7.22281e-09
6.70015e-09
7.1959e-09
7.15286e-09
6.67024e-09
7.79035e-09
6.67628e-09
7.18273e-09
1.11166e-08
1.27055e-08
1.10832e-08
1.27347e-08
9.96478e-09
1.1988e-08
9.31172e-09
9.61848e-09
1.20252e-08
9.93357e-09
9.65437e-09
9.99102e-09
9.70579e-09
9.33146e-09
1.20785e-08
1.20321e-08
9.67734e-09
1.00189e-08
1.1143e-08
1.28011e-08
1.27659e-08
1.11786e-08
5.8111e-09
5.75488e-09
6.56777e-09
7.69478e-09
7.04537e-09
6.57712e-09
7.08273e-09
7.13243e-09
6.62864e-09
7.72314e-09
6.60751e-09
7.09875e-09
1.00968e-08
1.21758e-08
9.42573e-09
9.80463e-09
1.21351e-08
9.78239e-09
1.012e-08
1.12558e-08
1.29114e-08
1.28794e-08
1.12862e-08
1.0076e-08
9.7332e-09
9.4092e-09
1.20931e-08
1.21277e-08
9.76279e-09
1.00486e-08
1.12354e-08
1.28308e-08
1.28597e-08
1.12062e-08
5.96998e-09
5.92499e-09
6.75442e-09
7.86676e-09
7.23936e-09
6.75624e-09
7.26555e-09
7.29907e-09
6.79262e-09
7.88725e-09
6.77808e-09
7.27469e-09
1.14284e-08
1.30817e-08
1.14518e-08
1.30553e-08
1.02543e-08
1.23164e-08
9.95265e-09
9.56503e-09
1.02716e-08
1.22819e-08
9.93659e-09
1.14138e-08
1.30225e-08
1.30425e-08
1.13942e-08
1.02397e-08
9.90159e-09
9.55243e-09
1.22537e-08
1.22765e-08
9.92324e-09
1.02208e-08
5.97325e-09
5.99913e-09
6.85745e-09
7.36292e-09
7.94981e-09
6.84356e-09
7.34261e-09
7.31256e-09
6.82528e-09
7.93192e-09
6.82515e-09
7.33468e-09
1.01647e-08
1.21864e-08
9.48659e-09
9.82618e-09
1.22085e-08
1.01444e-08
9.85083e-09
1.1331e-08
1.29368e-08
1.29558e-08
1.13103e-08
1.13492e-08
1.30009e-08
1.29761e-08
1.13735e-08
1.01819e-08
9.88373e-09
9.49964e-09
1.22438e-08
1.22115e-08
9.86495e-09
1.01999e-08
4.24977e-09
4.20419e-09
5.26168e-09
4.89752e-09
5.05387e-09