/*--------------------------------*- C++ -*----------------------------------*\
| =========                 |                                                 |
| \\      /  F ield         | OpenFOAM: The Open Source CFD Toolbox           |
|  \\    /   O peration     | Version:  2012                                  |
|   \\  /    A nd           | Website:  www.openfoam.com                      |
|    \\/     M anipulation  |                                                 |
\*---------------------------------------------------------------------------*/
FoamFile
{
    version     2.0;
    format      ascii;
    class       volSymmTensorField;
    location    "0.104/solid";
    object      epsilon;
}
// * * * * * * * * * * * * * * * * * * * * * * * * * * * * * * * * * * * * * //

dimensions      [0 0 0 0 0 0 0];


internalField   nonuniform List<symmTensor> 
3125
(
(-2.32273e-09 1.84275e-09 -5.23804e-12 2.46396e-08 -1.51774e-10 -4.74581e-12)
(-2.42216e-09 1.4887e-09 -3.97071e-11 2.34641e-08 -1.94872e-10 4.28643e-12)
(-2.96336e-09 1.05892e-09 -3.4137e-10 2.07211e-08 1.63885e-09 9.46748e-10)
(-2.32086e-09 1.86738e-09 -9.33273e-12 2.47672e-08 -1.54161e-10 -4.72154e-12)
(-2.39872e-09 1.5615e-09 -3.18174e-11 2.36693e-08 -1.95183e-10 -8.40767e-12)
(-2.94875e-09 8.1863e-10 -2.75145e-10 2.13998e-08 1.09968e-09 6.88801e-10)
(-2.26493e-09 2.03347e-09 -2.75649e-11 2.52869e-08 -1.83135e-10 -1.00161e-11)
(-2.33891e-09 1.75875e-09 -1.46843e-11 2.42893e-08 -1.63562e-10 -1.82829e-11)
(-2.55412e-09 1.18236e-09 -8.71641e-11 2.26869e-08 -6.48273e-11 1.25713e-10)
(-2.27165e-09 1.9844e-09 -2.13124e-11 2.51006e-08 -1.73866e-10 4.60485e-12)
(-2.3501e-09 1.72072e-09 -1.81056e-11 2.41535e-08 -1.73081e-10 -1.75597e-11)
(-2.63446e-09 1.05235e-09 -1.15846e-10 2.23842e-08 7.29892e-11 2.15738e-10)
(6.32731e-09 -1.60443e-10 -7.91856e-13 7.88762e-09 -1.86505e-11 -1.03696e-11)
(2.25058e-09 1.98859e-09 1.23621e-11 1.50983e-08 -1.1467e-10 1.39699e-12)
(-2.68339e-10 -3.78757e-09 -1.34991e-11 2.72941e-08 -1.0322e-10 7.45078e-12)
(-2.32553e-09 1.81881e-09 -6.16618e-12 2.45249e-08 -1.48369e-10 -9.98769e-12)
(6.47156e-09 -1.03384e-10 6.31843e-12 8.03825e-09 -5.53889e-12 -3.30333e-12)
(-3.09648e-10 -3.78052e-09 -2.36816e-11 2.71478e-08 -7.67261e-11 -1.18612e-11)
(2.23794e-09 1.95652e-09 8.08161e-12 1.50111e-08 -1.13398e-10 -3.19393e-12)
(5.53818e-09 -2.49183e-10 -9.41026e-11 7.05808e-09 6.33499e-11 1.47513e-10)
(1.92816e-09 1.47421e-09 -2.25481e-11 1.42107e-08 -1.27688e-10 1.62242e-11)
(-6.07986e-10 -3.80619e-09 -7.58853e-11 2.61777e-08 -1.19322e-10 3.79609e-11)
(-2.45313e-09 1.40229e-09 -5.06738e-11 2.32324e-08 -1.79852e-10 2.72216e-11)
(5.8662e-09 -1.47714e-10 -4.5569e-11 7.39126e-09 3.42696e-11 6.87857e-11)
(-7.46056e-10 -3.82011e-09 -1.15769e-10 2.58083e-08 -1.08016e-10 1.30767e-10)
(1.84771e-09 1.34638e-09 -3.66248e-11 1.40384e-08 -1.07378e-10 3.56286e-11)
(4.68178e-09 2.04344e-10 -8.39147e-10 6.13246e-09 7.52492e-10 2.19433e-09)
(4.41699e-10 -6.10303e-11 -2.98076e-10 1.26971e-08 1.06268e-09 4.40903e-10)
(-2.11489e-09 -3.17171e-09 -8.34446e-10 2.29008e-08 9.11439e-10 2.80031e-09)
(-2.89633e-09 1.90561e-09 -3.72185e-10 1.88519e-08 2.43986e-09 1.68714e-09)
(4.55696e-09 -3.70722e-10 -8.3944e-10 6.12245e-09 8.96153e-10 1.14399e-09)
(-1.89633e-09 -1.30438e-09 -9.53245e-10 2.03985e-08 -2.54615e-10 4.23118e-09)
(1.5429e-10 3.4286e-10 6.94655e-11 1.20022e-08 1.46397e-09 7.09237e-10)
(-2.42461e-09 -1.49549e-09 -3.74469e-11 3.02383e-08 -1.21201e-10 3.94856e-12)
(-2.39276e-09 -1.4819e-09 -4.32852e-11 3.04419e-08 -6.75126e-11 -3.60934e-12)
(6.59184e-09 -9.69801e-11 -8.8968e-12 8.17209e-09 2.30516e-12 -8.67637e-12)
(-2.31136e-09 1.89946e-09 -1.51939e-11 2.48849e-08 -1.50572e-10 -3.77802e-12)
(2.26802e-09 2.0212e-09 4.89166e-12 1.51894e-08 -1.1504e-10 2.91075e-12)
(-2.57387e-10 -3.78997e-09 -2.46238e-11 2.73701e-08 -1.14649e-10 4.31712e-12)
(6.43886e-09 -1.46872e-10 2.44319e-12 8.01204e-09 -2.02007e-11 -1.06183e-11)
(-2.07714e-10 -3.78713e-09 -2.94802e-11 2.75683e-08 -5.57308e-11 -9.22977e-12)
(2.29762e-09 2.06867e-09 -4.22374e-12 1.52799e-08 -1.16415e-10 3.62957e-12)
(-2.43149e-09 -1.49544e-09 -3.71679e-11 3.0158e-08 -1.15616e-10 7.33246e-12)
(-2.46494e-09 -1.49403e-09 -3.06933e-11 2.99967e-08 -8.2394e-11 -9.73941e-12)
(-2.66569e-09 -1.55737e-09 -8.58471e-11 2.90947e-08 -1.31487e-10 1.93153e-11)
(-2.59554e-09 -1.53106e-09 -7.3384e-11 2.93792e-08 -1.23083e-10 -1.14789e-11)
(6.07056e-09 -1.34672e-10 -1.96063e-11 7.6077e-09 1.30534e-11 1.92453e-11)
(-2.38018e-09 1.62329e-09 -2.59906e-11 2.38495e-08 -1.89659e-10 -1.45923e-11)
(1.99474e-09 1.58042e-09 -1.63215e-11 1.43635e-08 -1.34366e-10 4.6792e-12)
(-5.7213e-10 -3.80058e-09 -7.45063e-11 2.6282e-08 -1.17862e-10 2.08454e-11)
(5.82644e-09 -2.12315e-10 -4.31112e-11 7.3591e-09 1.69696e-11 4.70437e-11)
(-4.83556e-10 -3.78958e-09 -5.04442e-11 2.65569e-08 -1.08529e-10 -9.91686e-12)
(2.05093e-09 1.6695e-09 -9.51251e-12 1.44985e-08 -1.35309e-10 -1.53776e-12)
(-2.69433e-09 -1.56579e-09 -9.89152e-11 2.89859e-08 -1.38507e-10 3.68277e-11)
(-2.80976e-09 -1.60048e-09 -1.21985e-10 2.86047e-08 -1.27095e-10 1.34362e-10)
(-4.1018e-09 -1.26156e-09 -6.82478e-10 2.55249e-08 7.38496e-10 2.89901e-09)
(-3.6827e-09 -1.57276e-09 -3.52967e-10 2.67527e-08 3.09038e-10 1.54866e-09)
(4.73863e-09 -2.97119e-10 -4.97329e-10 6.24762e-09 4.72966e-10 7.44309e-10)
(-2.85236e-09 8.22116e-10 -2.07376e-10 2.17664e-08 6.39638e-10 4.97143e-10)
(7.83719e-10 6.14338e-11 -2.9241e-10 1.29734e-08 8.1368e-10 3.63522e-10)
(-2.06642e-09 -3.43599e-09 -7.30659e-10 2.32845e-08 8.50718e-10 2.41389e-09)
(4.44465e-09 -4.82618e-10 -8.12491e-10 5.99356e-09 8.40476e-10 1.06273e-09)
(-1.67345e-09 -3.78206e-09 -4.23677e-10 2.41686e-08 3.73698e-10 1.3746e-09)
(1.04143e-09 2.70872e-10 -2.39264e-10 1.30933e-08 5.34845e-10 3.10599e-10)
(-4.16674e-09 -1.0415e-09 -8.77065e-10 2.49426e-08 7.62225e-10 3.46579e-09)
(-3.8931e-09 4.0178e-10 -1.49386e-09 2.1509e-08 -6.66868e-10 5.62678e-09)
(-8.40336e-11 -3.79685e-09 -6.46489e-11 2.78378e-08 -1.99799e-10 2.57497e-12)
(2.4245e-09 2.27047e-09 -5.26495e-12 1.55911e-08 -1.2171e-10 -2.65255e-12)
(6.73664e-09 -1.18244e-10 -1.09227e-11 8.31993e-09 2.09795e-13 -3.13395e-11)
(1.0616e-08 -1.68875e-09 -4.9527e-11 2.18708e-08 -9.80345e-11 -1.97567e-11)
(3.8812e-09 4.22606e-09 7.79029e-11 8.22228e-09 -1.0108e-10 1.34864e-12)
(3.66198e-09 3.84371e-09 -6.3409e-11 7.97195e-09 -8.08601e-11 3.2263e-12)
(3.64295e-09 3.80241e-09 8.46556e-11 7.90242e-09 -1.0641e-10 2.00363e-12)
(1.02828e-08 -1.67501e-09 -1.41792e-11 2.14067e-08 -3.57824e-11 -6.95218e-12)
(1.0197e-08 -1.67049e-09 -2.23189e-11 2.12881e-08 -2.01136e-11 -1.62848e-11)
(6.35876e-09 -1.17635e-10 1.96938e-12 7.91464e-09 -2.73082e-12 -3.47785e-12)
(-2.33097e-09 1.79118e-09 -1.03682e-11 2.44131e-08 -1.54253e-10 -1.62356e-11)
(-3.71462e-10 -3.78324e-09 -3.69923e-11 2.69139e-08 -1.02575e-10 -2.04124e-11)
(2.18558e-09 1.87063e-09 -3.17229e-12 1.48307e-08 -1.22989e-10 -7.60295e-12)
(-3.24129e-10 -3.78227e-09 -2.09815e-11 2.71019e-08 -8.27839e-11 -1.96633e-11)
(6.20121e-09 -1.70615e-10 -8.48351e-12 7.75142e-09 -1.30346e-11 -8.3019e-12)
(2.2178e-09 1.91809e-09 4.10891e-12 1.49242e-08 -1.17666e-10 -7.34803e-12)
(1.00657e-08 -1.67017e-09 -3.27283e-11 2.10881e-08 -3.32335e-11 -1.92939e-11)
(1.01695e-08 -1.67171e-09 -2.11369e-11 2.12463e-08 -2.23423e-11 -1.70709e-11)
(3.56539e-09 3.66467e-09 7.48677e-11 7.79525e-09 -1.11886e-10 2.64019e-12)
(3.61987e-09 3.78159e-09 -6.70533e-11 7.88018e-09 -8.34709e-11 2.82535e-13)
(3.25209e-09 3.09737e-09 -7.62366e-11 7.49601e-09 -7.33515e-11 9.76779e-12)
(3.11633e-09 2.78537e-09 5.25069e-11 7.36727e-09 -4.88624e-11 2.70104e-11)
(9.62143e-09 -1.67367e-09 -7.4719e-11 2.04473e-08 -2.89415e-11 6.56308e-11)
(9.38212e-09 -1.67382e-09 -1.13902e-10 2.01298e-08 -2.18808e-11 1.74483e-10)
(5.58345e-09 -1.69029e-10 -1.02656e-10 7.09449e-09 8.48652e-11 1.83385e-10)
(-2.49535e-09 1.30021e-09 -6.61683e-11 2.29725e-08 -1.42597e-10 6.53144e-11)
(-1.03918e-09 -3.8464e-09 -1.94152e-10 2.51827e-08 -2.70135e-11 4.24857e-10)
(1.62286e-09 1.00197e-09 -8.52193e-11 1.36399e-08 2.89008e-12 1.10073e-10)
(-8.02444e-10 -3.831e-09 -1.24665e-10 2.56677e-08 -9.74309e-11 1.81297e-10)
(5.14207e-09 -3.04215e-10 -2.09144e-10 6.65298e-09 1.70967e-10 3.53188e-10)
(1.74812e-09 1.19095e-09 -5.45224e-11 1.38467e-08 -6.8341e-11 6.55865e-11)
(8.93655e-09 -1.67758e-09 -2.12504e-10 1.95615e-08 1.7993e-11 5.07558e-10)
(9.29296e-09 -1.67369e-09 -1.27233e-10 1.99954e-08 -1.46221e-11 2.315e-10)
(2.82809e-09 2.18768e-09 2.00039e-11 7.18741e-09 8.47157e-11 5.83224e-11)
(3.03309e-09 2.66591e-09 -8.90431e-11 7.32791e-09 -1.14579e-11 2.77731e-11)
(1.7673e-09 2.78311e-10 -1.28006e-10 6.68996e-09 5.37778e-10 1.0398e-11)
(1.90737e-09 1.20504e-09 3.37255e-10 5.73049e-09 5.66829e-10 3.08758e-11)
(7.33539e-09 -1.40035e-09 -1.25306e-09 1.7276e-08 4.90682e-10 3.5464e-09)
(6.95757e-09 -6.08947e-10 -1.19565e-09 1.56754e-08 -2.50308e-10 4.46716e-09)
(4.32378e-09 2.29508e-10 -9.22879e-10 5.77518e-09 5.8028e-10 2.53226e-09)
(-2.4358e-09 4.58593e-09 -5.86133e-10 1.62752e-08 4.35298e-09 1.79363e-09)
(-1.96222e-09 -2.27483e-10 -7.50214e-10 1.89479e-08 -9.79293e-10 4.88668e-09)
(2.98892e-10 1.25205e-09 2.26517e-10 9.54164e-09 1.41355e-09 4.81804e-10)
(6.55001e-09 -1.45538e-10 -6.28275e-10 1.48762e-08 -9.66219e-10 4.23152e-09)
(1.57906e-09 1.79256e-09 2.041e-10 5.5084e-09 5.76864e-10 1.80394e-10)
(-2.29357e-09 -1.48906e-09 -9.07086e-11 3.07495e-08 -2.00918e-10 4.50267e-13)
(-2.29865e-09 -1.50271e-09 -7.65768e-11 3.05972e-08 -1.68046e-10 2.92274e-11)
(-2.36863e-09 -1.48488e-09 -3.27619e-11 3.04594e-08 -4.70958e-11 9.70684e-12)
(6.56186e-09 -1.4269e-10 -1.58738e-11 8.14558e-09 -1.38697e-11 -1.70118e-11)
(-2.28983e-09 1.94027e-09 -1.90589e-11 2.49786e-08 -1.52439e-10 3.34751e-12)
(-9.60933e-11 -3.80362e-09 -4.50034e-11 2.76813e-08 -1.53702e-10 3.33545e-11)
(2.38413e-09 2.2126e-09 -4.60656e-12 1.54737e-08 -1.24379e-10 1.6732e-12)
(6.78419e-09 -5.75879e-11 -7.74019e-12 8.35384e-09 1.19608e-11 -1.69739e-11)
(-1.78248e-10 -3.78681e-09 -3.66875e-11 2.75789e-08 -3.48368e-11 3.69418e-12)
(2.33905e-09 2.1396e-09 -1.39686e-11 1.53707e-08 -1.19283e-10 5.03125e-12)
(3.68311e-09 3.85891e-09 8.39639e-11 7.99333e-09 -1.06098e-10 4.21794e-12)
(3.73237e-09 3.966e-09 -7.43969e-11 8.07381e-09 -8.01211e-11 2.42975e-12)
(1.0318e-08 -1.67634e-09 -2.04266e-11 2.14708e-08 -4.55409e-11 -4.63262e-12)
(1.04246e-08 -1.67757e-09 -2.99735e-11 2.16418e-08 -5.22127e-12 -3.07751e-12)
(1.05556e-08 -1.69245e-09 -3.95115e-11 2.17403e-08 -6.21049e-11 -1.71555e-11)
(1.04518e-08 -1.67867e-09 -3.69251e-11 2.16576e-08 9.83326e-12 -8.3854e-12)
(3.84025e-09 4.18053e-09 -7.73564e-11 8.20157e-09 -7.61754e-11 -1.41272e-13)
(3.76765e-09 4.01346e-09 7.6493e-11 8.10267e-09 -1.0706e-10 4.8607e-12)
(-2.50882e-09 -1.50888e-09 -4.69503e-11 2.9753e-08 -1.10813e-10 -2.14425e-11)
(-2.47582e-09 -1.49645e-09 -4.17904e-11 2.99488e-08 -9.21621e-11 -1.82756e-11)
(-2.5225e-09 -1.51118e-09 -5.53155e-11 2.96798e-08 -1.16155e-10 -2.02127e-11)
(-2.57587e-09 -1.52476e-09 -6.19271e-11 2.94585e-08 -1.13967e-10 -1.41556e-11)
(6.03547e-09 -1.8812e-10 -2.02697e-11 7.57895e-09 -2.82894e-12 5.55236e-12)
(-2.3642e-09 1.67592e-09 -2.16522e-11 2.40086e-08 -1.80705e-10 -1.65741e-11)
(-3.90326e-10 -3.78335e-09 -3.33688e-11 2.68444e-08 -1.02681e-10 -1.90113e-11)
(2.14511e-09 1.81299e-09 -4.4381e-12 1.47286e-08 -1.28977e-10 -6.00381e-12)
(6.23169e-09 -1.24325e-10 -6.7315e-12 7.77768e-09 2.45486e-12 1.29964e-12)
(-4.58519e-10 -3.78554e-09 -5.2046e-11 2.6634e-08 -1.04166e-10 -1.29359e-11)
(2.10018e-09 1.74605e-09 -8.61318e-12 1.46186e-08 -1.31962e-10 -4.07725e-12)
(3.31145e-09 3.17665e-09 6.63218e-11 7.53096e-09 -9.90586e-11 1.08006e-11)
(3.40767e-09 3.39411e-09 -7.23815e-11 7.64037e-09 -8.8949e-11 2.98593e-12)
(9.68584e-09 -1.67149e-09 -7.01202e-11 2.05425e-08 -3.13798e-11 4.18972e-11)
(9.8523e-09 -1.6697e-09 -4.8534e-11 2.07792e-08 -2.88183e-11 3.4853e-12)
(1.00267e-08 -1.66973e-09 -3.20417e-11 2.10269e-08 -3.02707e-11 -1.68067e-11)
(9.89874e-09 -1.66795e-09 -4.77496e-11 2.08488e-08 -2.89755e-11 -5.33348e-12)
(3.52857e-09 3.6197e-09 -7.21009e-11 7.76736e-09 -8.96711e-11 8.4969e-13)
(3.45282e-09 3.45162e-09 7.18742e-11 7.6702e-09 -1.1151e-10 4.95291e-12)
(8.68497e-09 -2.0827e-09 -1.19159e-10 2.30545e-08 -4.75492e-11 1.7641e-10)
(-3.06931e-09 -1.63912e-09 -1.75503e-10 2.79415e-08 -5.77273e-11 4.50459e-10)
(-2.8604e-09 -1.61129e-09 -1.39886e-10 2.84579e-08 -1.21511e-10 1.86835e-10)
(8.24111e-09 -2.06482e-09 -1.82634e-10 2.24201e-08 -2.44987e-11 5.39358e-10)
(8.58221e-09 -2.07069e-09 -1.31372e-10 2.29013e-08 -5.50659e-11 2.32204e-10)
(-3.16441e-09 -1.64167e-09 -2.00741e-10 2.77462e-08 -2.2251e-11 5.87517e-10)
(-3.53301e-09 -1.60987e-09 -2.90992e-10 2.70311e-08 2.03236e-10 1.23233e-09)
(6.50383e-09 -1.81812e-09 -8.54582e-10 2.00405e-08 2.40541e-10 3.6898e-09)
(7.29706e-09 -1.97404e-09 -4.17196e-10 2.1185e-08 1.05492e-10 1.88421e-09)
(8.09231e-09 -2.06853e-09 -2.10173e-10 2.22549e-08 -1.39307e-11 7.00384e-10)
(7.5249e-09 -2.00314e-09 -3.36561e-10 2.14861e-08 6.41209e-11 1.47845e-09)
(4.67579e-09 -3.94388e-10 -4.54686e-10 6.19183e-09 4.15254e-10 6.80842e-10)
(-2.73701e-09 9.22175e-10 -1.54654e-10 2.2076e-08 3.00793e-10 3.40256e-10)
(-1.14148e-09 -3.84929e-09 -2.17319e-10 2.50029e-08 1.62225e-11 5.49506e-10)
(1.46482e-09 7.76782e-10 -1.25165e-10 1.34298e-08 1.18286e-10 1.69949e-10)
(5.19146e-09 -2.10384e-10 -2.30347e-10 6.69305e-09 2.03769e-10 4.07097e-10)
(-1.52628e-09 -3.8166e-09 -3.61362e-10 2.43909e-08 2.53788e-10 1.11192e-09)
(1.27027e-09 5.23843e-10 -1.79728e-10 1.3239e-08 2.94591e-10 2.41784e-10)
(1.91789e-09 3.4511e-10 -3.84283e-11 6.84781e-09 5.53401e-10 4.48548e-11)
(2.25903e-09 1.04249e-09 -1.82287e-10 7.00855e-09 4.08002e-10 7.62068e-11)
(7.479e-09 -1.49581e-09 -1.06425e-09 1.76398e-08 4.49945e-10 3.00399e-09)
(8.08514e-09 -1.63706e-09 -5.63288e-10 1.85476e-08 2.14637e-10 1.63852e-09)
(8.7963e-09 -1.6769e-09 -2.48545e-10 1.9385e-08 4.16787e-11 6.49543e-10)
(8.2781e-09 -1.65034e-09 -4.55343e-10 1.87833e-08 1.53026e-10 1.3105e-09)
(2.71051e-09 2.00122e-09 -1.22329e-10 7.14918e-09 1.44411e-10 5.94931e-11)
(2.40928e-09 1.29349e-09 -3.97143e-11 7.03143e-09 3.37237e-10 8.85022e-11)
(6.26258e-09 -1.68567e-09 -1.10306e-09 1.95002e-08 2.17891e-10 4.47012e-09)
(5.68246e-09 -8.29518e-10 -1.94409e-09 1.7125e-08 -7.48633e-10 6.01143e-09)
(-2.92271e-09 6.99327e-09 -8.87907e-10 1.57234e-08 6.00634e-09 2.59125e-09)
(-3.86558e-09 1.22093e-09 -1.49583e-09 1.97841e-08 -1.57718e-09 6.43295e-09)
(5.4238e-09 -4.68696e-10 -1.77991e-09 1.63092e-08 -1.49618e-09 5.58489e-09)
(-3.87752e-09 3.19336e-09 -2.09296e-10 1.44781e-08 3.84142e-10 3.66009e-09)
(-2.04715e-09 8.81698e-09 -4.42622e-10 7.81549e-09 4.82187e-09 4.76222e-09)
(-7.42221e-09 6.0958e-09 -6.5644e-10 1.75038e-08 3.42787e-10 6.99393e-09)
(-1.24062e-09 4.61726e-09 -1.2876e-10 9.17402e-09 2.42083e-09 2.24825e-09)
(-2.06578e-09 1.00839e-08 -5.51575e-10 6.51419e-09 6.1895e-09 5.59603e-09)
(-8.01608e-09 7.27689e-09 -8.86689e-10 1.76335e-08 5.27442e-10 8.12425e-09)
(2.38455e-09 -2.44723e-09 -7.73957e-11 1.71114e-08 3.5362e-11 -1.06435e-11)
(6.41711e-09 -1.09807e-10 3.99098e-12 7.97677e-09 -5.50206e-12 -2.69245e-12)
(6.06289e-09 -2.59087e-09 -8.75861e-12 1.46715e-08 -4.76523e-11 -7.39051e-13)
(6.33489e-09 -1.11454e-09 3.67731e-11 1.08885e-08 -9.16754e-11 2.26005e-12)
(6.35533e-09 -1.11461e-09 -1.39619e-11 1.09046e-08 -2.07903e-11 -1.01325e-12)
(6.08691e-09 -2.5871e-09 9.97478e-12 1.46994e-08 -2.71743e-11 3.56304e-12)
(2.36697e-09 -2.45799e-09 7.37894e-11 1.70801e-08 -2.09652e-10 -1.339e-12)
(2.39894e-09 -2.44146e-09 8.06098e-11 1.71629e-08 -2.15079e-10 7.26399e-12)
(6.38656e-09 -1.51266e-10 1.39909e-12 7.95086e-09 -2.17488e-11 -9.50158e-12)
(6.39802e-09 -1.09643e-09 -9.00532e-12 1.09697e-08 -2.23744e-11 4.10815e-12)
(6.13539e-09 -2.58196e-09 1.68473e-11 1.47732e-08 -3.58946e-11 9.14826e-12)
(2.41409e-09 -2.43523e-09 -7.28784e-11 1.71987e-08 2.81071e-11 -2.75783e-12)
(6.38359e-09 -1.09329e-09 4.33375e-11 1.09552e-08 -9.60151e-11 5.69987e-12)
(6.11145e-09 -2.57972e-09 -2.58884e-12 1.47389e-08 -5.2462e-11 6.42479e-12)
(1.86413e-09 -2.61154e-09 -1.57918e-10 1.61229e-08 3.37273e-11 5.41689e-11)
(5.7362e-09 -1.59182e-10 -6.92807e-11 7.25212e-09 5.41499e-11 1.14406e-10)
(5.34976e-09 -2.62531e-09 -9.82202e-11 1.36785e-08 -6.61102e-12 1.42952e-10)
(5.49449e-09 -1.30739e-09 -4.00229e-11 1.00814e-08 -2.54972e-11 1.11574e-10)
(5.56971e-09 -1.30831e-09 -8.69999e-11 1.0123e-08 2.51539e-11 7.64999e-11)
(5.42418e-09 -2.62556e-09 -6.7325e-11 1.37657e-08 1.65182e-13 1.11537e-10)
(1.79748e-09 -2.63747e-09 -1.08868e-11 1.6043e-08 -1.87032e-10 1.08623e-10)
(1.91632e-09 -2.59792e-09 1.46829e-11 1.62354e-08 -2.10402e-10 5.87274e-11)
(5.69432e-09 -2.30368e-10 -6.41857e-11 7.21926e-09 3.46536e-11 8.67026e-11)
(5.7234e-09 -1.26742e-09 -6.39876e-11 1.02672e-08 2.482e-12 4.16089e-11)
(5.5555e-09 -2.61631e-09 -4.32479e-11 1.39445e-08 -1.55412e-11 6.20338e-11)
(1.97028e-09 -2.57582e-09 -1.35093e-10 1.63048e-08 1.98059e-11 1.7593e-11)
(5.66523e-09 -1.26524e-09 -1.37671e-11 1.02329e-08 -5.59017e-11 6.53895e-11)
(5.49322e-09 -2.61604e-09 -6.97299e-11 1.38689e-08 -2.94133e-11 8.19406e-11)
(-1.15162e-10 -1.82492e-09 -5.05631e-10 1.39766e-08 1.48723e-09 1.70151e-09)
(4.81381e-09 -8.33888e-11 -8.03311e-10 6.41572e-09 1.01089e-09 1.50681e-09)
(3.4121e-09 -1.3287e-09 -5.11543e-10 1.15847e-08 6.79643e-10 2.61005e-09)
(2.5348e-09 -5.27099e-10 -6.9829e-11 9.07057e-09 1.09074e-09 1.37881e-09)
(2.69421e-09 -1.05097e-09 -4.97841e-10 9.24647e-09 1.31249e-09 1.14225e-09)
(3.60101e-09 -1.85681e-09 -6.37624e-10 1.19092e-08 1.09357e-09 2.22338e-09)
(-1.39069e-10 -1.15356e-09 -1.68594e-10 1.33399e-08 1.04963e-09 2.11428e-09)
(-6.62658e-12 -2.30165e-09 -4.72559e-10 1.44432e-08 1.27572e-09 1.44494e-09)
(4.61365e-09 -3.25157e-10 -8.21793e-10 6.20355e-09 1.00175e-09 1.34337e-09)
(3.35927e-09 -1.59551e-09 -7.46463e-10 9.18591e-09 1.17084e-09 8.28263e-10)
(3.77672e-09 -2.49935e-09 -8.58915e-10 1.21609e-08 1.12078e-09 1.72022e-09)
(1.6706e-10 -2.61849e-09 -7.3919e-10 1.4544e-08 1.38054e-09 1.27538e-09)
(2.99759e-09 -1.36329e-09 -6.23008e-10 9.36432e-09 1.20034e-09 9.38811e-10)
(3.67614e-09 -2.24375e-09 -8.24049e-10 1.2103e-08 1.1733e-09 1.94156e-09)
(2.46343e-09 -2.43386e-09 6.14013e-11 1.73542e-08 -2.1414e-10 8.86452e-12)
(6.48678e-09 -1.54663e-10 -3.9689e-12 8.06734e-09 -1.68933e-11 -1.57507e-11)
(6.24479e-09 -2.58876e-09 -1.31639e-11 1.49605e-08 -1.51552e-11 4.78964e-12)
(6.51769e-09 -1.07527e-09 -3.60744e-11 1.11083e-08 -1.16292e-11 3.91733e-12)
(2.4936e-09 -2.417e-09 -1.0565e-10 1.7384e-08 4.58541e-11 -4.2982e-12)
(6.48928e-09 -1.07766e-09 2.61941e-11 1.10928e-08 -9.0286e-11 7.72109e-12)
(6.21121e-09 -2.59398e-09 -1.73773e-11 1.49291e-08 -5.09042e-11 4.28443e-12)
(2.44436e-09 -2.43595e-09 -8.25477e-11 1.72973e-08 2.87158e-11 -4.77711e-12)
(6.5216e-09 -1.07828e-10 2.48374e-12 8.09463e-09 -1.10128e-12 -7.64801e-12)
(6.42772e-09 -1.08267e-09 3.95039e-11 1.10217e-08 -9.43309e-11 8.90925e-12)
(6.15911e-09 -2.58469e-09 -9.55921e-13 1.48256e-08 -5.96763e-11 8.41271e-12)
(2.42724e-09 -2.43699e-09 7.93241e-11 1.7257e-08 -2.21527e-10 1.12705e-11)
(6.45147e-09 -1.09344e-09 -1.842e-11 1.10385e-08 -1.72268e-11 2.4248e-12)
(6.18314e-09 -2.59443e-09 1.04944e-11 1.48721e-08 -3.74406e-11 7.62292e-12)
(2.09369e-09 -2.53866e-09 4.2886e-11 1.65493e-08 -2.22623e-10 1.05213e-11)
(5.93949e-09 -2.00325e-10 -2.97125e-11 7.47543e-09 4.15105e-12 2.10475e-11)
(5.7581e-09 -2.60521e-09 -1.75824e-11 1.42299e-08 -2.67093e-11 1.41057e-11)
(5.9665e-09 -1.20671e-09 -4.09931e-11 1.05018e-08 -1.47376e-11 7.16777e-12)
(2.13172e-09 -2.52338e-09 -1.09976e-10 1.66008e-08 1.75931e-11 -1.42071e-11)
(5.92563e-09 -1.20283e-09 1.24387e-11 1.04776e-08 -8.15627e-11 1.86155e-11)
(5.71326e-09 -2.60402e-09 -3.80173e-11 1.41744e-08 -4.6545e-11 2.0412e-11)
(2.05788e-09 -2.54733e-09 -1.20678e-10 1.64629e-08 1.62229e-11 -3.83559e-12)
(5.97597e-09 -1.42174e-10 -3.04895e-11 7.50536e-09 2.10579e-11 3.80116e-11)
(5.80368e-09 -1.23068e-09 7.67319e-13 1.03628e-08 -7.12843e-11 3.76445e-11)
(5.61268e-09 -2.60876e-09 -5.06772e-11 1.40324e-08 -3.9057e-11 4.38875e-11)
(2.01287e-09 -2.56484e-09 3.12752e-11 1.64032e-08 -2.18827e-10 2.91244e-11)
(5.85687e-09 -1.23426e-09 -5.20597e-11 1.0393e-08 -8.70556e-12 1.86209e-11)
(5.66438e-09 -2.61047e-09 -2.82921e-11 1.40964e-08 -2.36696e-11 3.23429e-11)
(6.61982e-10 -2.89644e-09 -4.16577e-10 1.48883e-08 5.79338e-10 8.88827e-10)
(4.50158e-09 -4.51174e-10 -6.37571e-10 6.02383e-09 6.17625e-10 8.68099e-10)
(4.29023e-09 -2.70809e-09 -5.26867e-10 1.25305e-08 5.03801e-10 9.81432e-10)
(4.22032e-09 -1.63035e-09 -4.66077e-10 9.23206e-09 5.97034e-10 5.88928e-10)
(8.22048e-10 -2.88824e-09 -5.3001e-10 1.49584e-08 6.44489e-10 7.56913e-10)
(4.06429e-09 -1.62991e-09 -4.65421e-10 9.21878e-09 6.54286e-10 6.54657e-10)
(4.15191e-09 -2.69954e-09 -6.43302e-10 1.24201e-08 6.18328e-10 1.14523e-09)
(5.14024e-10 -2.86045e-09 -6.67612e-10 1.47677e-08 9.98865e-10 1.00301e-09)
(4.58852e-09 -3.52264e-10 -6.85797e-10 6.1046e-09 6.85001e-10 9.32675e-10)
(3.66186e-09 -1.62043e-09 -6.02952e-10 9.21473e-09 9.61627e-10 7.58412e-10)
(3.89384e-09 -2.61341e-09 -8.37866e-10 1.22426e-08 9.66364e-10 1.51245e-09)
(3.40445e-10 -2.78468e-09 -5.34602e-10 1.47278e-08 9.80636e-10 1.13507e-09)
(3.85856e-09 -1.65776e-09 -6.14763e-10 9.15693e-09 8.81295e-10 7.04511e-10)
(4.01794e-09 -2.68117e-09 -7.28614e-10 1.23024e-08 8.02706e-10 1.32821e-09)
(2.69598e-09 -2.36903e-09 8.8003e-12 1.78017e-08 -2.1161e-10 -1.75716e-11)
(6.75825e-09 -1.67707e-10 -3.15591e-11 8.37597e-09 8.62961e-12 -6.71688e-11)
(6.50274e-09 -2.59747e-09 -6.37012e-11 1.54046e-08 -3.96598e-11 -4.30336e-11)
(6.83487e-09 -1.01578e-09 -1.42579e-11 1.14366e-08 -7.34013e-11 -1.20802e-11)
(2.6674e-09 -2.37413e-09 -1.00334e-10 1.77193e-08 1.1337e-11 -2.64593e-11)
(6.81339e-09 -9.82536e-11 -1.68316e-11 8.40956e-09 2.60462e-11 -4.99269e-11)
(6.43757e-09 -2.56167e-09 -4.8363e-12 1.51787e-08 -8.19435e-11 -5.88908e-12)
(6.75866e-09 -9.91587e-10 3.18344e-11 1.13376e-08 -8.49238e-11 -5.52515e-12)
(6.46183e-09 -2.59504e-09 -2.33769e-12 1.52907e-08 -5.64961e-11 -2.14482e-11)
(6.78247e-09 -1.03108e-09 -2.69398e-11 1.13599e-08 -3.82214e-13 -1.71766e-11)
(2.65256e-09 -2.36014e-09 6.77783e-11 1.76477e-08 -2.49341e-10 5.76894e-12)
(8.17369e-09 -1.47764e-09 1.54895e-10 1.43432e-08 -7.95068e-11 -2.2241e-11)
(1.06838e-08 -1.67876e-09 -5.64467e-11 2.20284e-08 -9.36351e-11 -2.4884e-11)
(9.21703e-09 -2.23835e-09 1.83759e-10 1.66541e-08 -1.27182e-10 2.56849e-13)
(9.27606e-09 -2.25865e-09 -2.51298e-10 1.68708e-08 -3.50071e-11 -4.6142e-11)
(1.07519e-08 -1.67285e-09 -6.52059e-11 2.21516e-08 -3.90869e-11 -3.87383e-11)
(9.30189e-09 -2.25413e-09 1.54475e-10 1.69368e-08 -1.10111e-10 -4.95066e-11)
(8.09077e-09 -1.44512e-09 1.74763e-10 1.41273e-08 -8.23451e-11 -1.87076e-11)
(8.15039e-09 -1.46992e-09 -2.74567e-10 1.42765e-08 3.35582e-11 -3.81235e-11)
(8.25043e-09 1.45137e-09 -6.23931e-11 8.16499e-09 -5.25413e-11 -3.71248e-11)
(7.96882e-09 2.23194e-09 5.82966e-11 7.79685e-09 -1.05882e-10 -1.94976e-11)
(3.90442e-09 4.29356e-09 -8.87699e-11 8.24864e-09 -7.0214e-11 -4.25759e-12)
(7.95791e-09 2.21813e-09 -4.7912e-11 7.81958e-09 3.48187e-11 -1.63979e-11)
(8.13902e-09 1.44831e-09 -4.01791e-11 8.11216e-09 -6.38323e-11 -2.63355e-11)
(8.20419e-09 1.42746e-09 4.88428e-11 8.13955e-09 2.14561e-11 -3.96562e-11)
(3.9538e-09 4.36081e-09 8.01002e-11 8.27417e-09 -9.49178e-11 -1.38504e-12)
(8.08551e-09 2.28238e-09 4.73403e-11 7.87222e-09 -9.44443e-11 -2.92791e-11)
(7.6678e-09 1.24736e-09 -2.6764e-11 7.73155e-09 -8.32621e-11 -1.42272e-11)
(7.69818e-09 1.24887e-09 6.3025e-11 7.76763e-09 -2.14876e-11 -1.56028e-11)
(7.57986e-09 2.05999e-09 -2.59367e-11 7.5097e-09 -8.39093e-13 -1.88749e-12)
(3.66829e-09 3.8413e-09 9.59302e-11 7.95099e-09 -1.0426e-10 8.53284e-13)
(7.57959e-09 2.05818e-09 7.77554e-11 7.49662e-09 -1.2408e-10 -3.68275e-12)
(7.74002e-09 1.28521e-09 6.21978e-11 7.82352e-09 -1.99326e-11 -1.2964e-11)
(7.72251e-09 1.26692e-09 -2.29375e-11 7.78505e-09 -8.76133e-11 -1.31542e-11)
(7.54077e-09 2.04026e-09 6.78278e-11 7.45079e-09 -1.21538e-10 -7.26517e-12)
(3.65081e-09 3.83027e-09 -7.05682e-11 7.92985e-09 -8.28354e-11 -2.81682e-13)
(7.52357e-09 2.03028e-09 -3.3659e-11 7.46945e-09 -2.64639e-12 1.25701e-12)
(7.68013e-09 -1.46436e-09 1.98381e-10 1.36505e-08 -6.65223e-11 -5.26292e-12)
(7.72842e-09 -1.45558e-09 -2.21446e-10 1.36689e-08 5.4313e-11 -7.30376e-12)
(8.89548e-09 -2.23829e-09 -2.07745e-10 1.62836e-08 1.95188e-11 -1.52611e-12)
(1.02489e-08 -1.67091e-09 -1.63601e-11 2.13592e-08 -3.04694e-11 -1.1241e-11)
(8.84905e-09 -2.23138e-09 1.96747e-10 1.62362e-08 -6.61727e-11 1.51622e-12)
(7.78559e-09 -1.45471e-09 -2.21861e-10 1.37427e-08 4.77292e-11 -6.37374e-12)
(7.73866e-09 -1.45511e-09 2.02948e-10 1.37163e-08 -6.69399e-11 -4.29758e-12)
(8.79071e-09 -2.23837e-09 1.91057e-10 1.61732e-08 -6.53078e-11 -6.54171e-12)
(1.02211e-08 -1.67046e-09 -1.7204e-11 2.13182e-08 -1.40895e-11 -1.2463e-11)
(8.83505e-09 -2.23385e-09 -2.12008e-10 1.62026e-08 3.75855e-11 -5.35049e-12)
(2.33008e-09 -2.47314e-09 6.80209e-11 1.6994e-08 -2.14889e-10 -8.48368e-12)
(6.03779e-09 -2.59838e-09 6.52463e-12 1.46292e-08 -2.87012e-11 -3.36099e-12)
(6.26869e-09 -1.67607e-10 -4.16392e-12 7.82142e-09 -1.64949e-11 -1.08716e-11)
(6.30265e-09 -1.13453e-09 -1.77815e-11 1.08375e-08 -1.97624e-11 -5.29669e-12)
(2.35071e-09 -2.46416e-09 -8.26186e-11 1.70284e-08 3.25131e-11 -1.99664e-11)
(6.01083e-09 -2.59807e-09 -1.19602e-11 1.45936e-08 -5.19803e-11 -5.37795e-12)
(6.28111e-09 -1.13063e-09 3.23004e-11 1.08226e-08 -9.11158e-11 -2.58618e-12)
(2.30959e-09 -2.47596e-09 -9.02645e-11 1.69354e-08 2.67068e-11 -2.37927e-11)
(6.29977e-09 -1.2305e-10 -2.00184e-12 7.84744e-09 -3.3872e-13 -2.72886e-12)
(5.9498e-09 -2.59613e-09 -1.75318e-11 1.45003e-08 -5.10594e-11 -3.47346e-12)
(6.20554e-09 -1.14215e-09 2.46023e-11 1.07472e-08 -8.91486e-11 7.05641e-13)
(5.98124e-09 -2.60071e-09 1.48511e-12 1.45412e-08 -3.15323e-11 -3.86049e-12)
(6.23964e-09 -1.14864e-09 -2.68856e-11 1.07659e-08 -1.88067e-11 -7.60602e-12)
(2.28301e-09 -2.48302e-09 6.09472e-11 1.68962e-08 -2.17575e-10 -6.08748e-12)
(7.6697e-09 -1.46434e-09 -2.26145e-10 1.36047e-08 5.44765e-11 -9.47907e-12)
(7.61918e-09 -1.46727e-09 1.92652e-10 1.35722e-08 -6.69265e-11 -5.10864e-12)
(1.01007e-08 -1.67028e-09 -2.77054e-11 2.11427e-08 -2.82958e-11 -1.8324e-11)
(8.65799e-09 -2.23474e-09 1.81621e-10 1.59928e-08 -7.17e-11 -5.01122e-12)
(8.71179e-09 -2.23942e-09 -2.20279e-10 1.60509e-08 2.53561e-11 -1.28314e-11)
(8.77684e-09 -2.24131e-09 -2.16408e-10 1.61404e-08 3.4054e-11 -1.26373e-11)
(1.01358e-08 -1.67028e-09 -2.59224e-11 2.11996e-08 -3.47593e-11 -1.87153e-11)
(8.72813e-09 -2.23771e-09 1.87739e-10 1.60896e-08 -7.39865e-11 -6.99461e-12)
(7.55184e-09 -1.46478e-09 1.86278e-10 1.34816e-08 -6.43512e-11 -3.74329e-12)
(7.60713e-09 -1.46493e-09 -2.32465e-10 1.352e-08 5.176e-11 -1.03021e-11)
(7.64087e-09 1.22873e-09 5.74698e-11 7.71287e-09 -1.93387e-11 -1.72297e-11)
(7.60607e-09 1.21589e-09 -3.29046e-11 7.67531e-09 -8.07588e-11 -1.68011e-11)
(7.41795e-09 1.99085e-09 5.9184e-11 7.33886e-09 -1.16544e-10 -8.36289e-12)
(3.58532e-09 3.72144e-09 -7.95853e-11 7.82933e-09 -8.8608e-11 -2.24001e-12)
(7.40095e-09 1.97657e-09 -4.34496e-11 7.36491e-09 -2.31833e-13 -1.60767e-13)
(7.51293e-09 1.19952e-09 -3.59503e-11 7.61397e-09 -7.82356e-11 -1.22675e-11)
(7.57356e-09 1.19612e-09 5.00991e-11 7.65337e-09 -1.66227e-11 -1.97204e-11)
(7.47655e-09 2.00974e-09 -3.15715e-11 7.42007e-09 -1.12323e-12 -2.39987e-12)
(3.61769e-09 3.75889e-09 8.59437e-11 7.85534e-09 -1.08021e-10 -8.38635e-13)
(7.47865e-09 2.01104e-09 6.89961e-11 7.40282e-09 -1.18495e-10 -6.12428e-12)
(6.67881e-09 9.21941e-10 -8.24973e-11 7.06318e-09 1.10266e-11 9.23865e-11)
(6.80889e-09 9.3966e-10 -2.67357e-12 7.14006e-09 3.57275e-11 5.2734e-11)
(6.88061e-09 1.75481e-09 -5.51817e-11 6.96722e-09 2.99531e-11 3.36725e-11)
(3.22812e-09 3.01004e-09 6.67687e-11 7.45482e-09 -8.00779e-11 1.49721e-11)
(6.8874e-09 1.76018e-09 4.35664e-11 6.93426e-09 -6.38201e-11 3.43772e-11)
(6.98025e-09 1.00824e-09 1.58988e-11 7.25391e-09 1.166e-11 2.48004e-11)
(6.88071e-09 9.83069e-10 -6.2733e-11 7.18458e-09 -2.66949e-11 5.04872e-11)
(6.73616e-09 1.69116e-09 2.37107e-11 6.81864e-09 -2.62477e-11 5.91127e-11)
(3.15728e-09 2.91099e-09 -8.81768e-11 7.41651e-09 -5.23844e-11 1.53024e-11)
(6.71656e-09 1.67628e-09 -7.44808e-11 6.8595e-09 5.5997e-11 5.92378e-11)
(6.88908e-09 -1.47546e-09 8.41398e-11 1.26591e-08 -1.48362e-11 1.898e-10)
(7.01874e-09 -1.46864e-09 -3.06221e-10 1.27535e-08 8.46936e-11 1.20157e-10)
(8.24402e-09 -2.23375e-09 -2.65101e-10 1.54344e-08 3.9223e-11 5.97653e-11)
(9.54651e-09 -1.67258e-09 -8.69378e-11 2.03477e-08 -3.51944e-11 9.27032e-11)
(8.13602e-09 -2.22699e-09 1.17476e-10 1.53253e-08 -5.29957e-11 1.11086e-10)
(7.15716e-09 -1.4665e-09 -2.80393e-10 1.29314e-08 7.40002e-11 6.61692e-11)
(7.04742e-09 -1.47097e-09 1.17706e-10 1.2851e-08 -3.42583e-11 1.13818e-10)
(7.97289e-09 -2.2308e-09 8.55114e-11 1.51226e-08 -3.48629e-11 1.89137e-10)
(9.46717e-09 -1.6717e-09 -9.75355e-11 2.02336e-08 -2.47048e-11 1.30253e-10)
(8.09936e-09 -2.23249e-09 -2.88788e-10 1.52465e-08 4.68267e-11 1.1585e-10)
(1.65037e-09 -2.68655e-09 -4.89651e-11 1.58247e-08 -1.45817e-10 1.84104e-10)
(5.26715e-09 -2.63612e-09 -1.02066e-10 1.35606e-08 2.74113e-11 1.86826e-10)
(5.35501e-09 -2.74079e-10 -1.40587e-10 6.86727e-09 1.05061e-10 2.34653e-10)
(5.38088e-09 -1.35676e-09 -1.17475e-10 9.95796e-09 6.21737e-11 1.31433e-10)
(1.73316e-09 -2.6542e-09 -1.90527e-10 1.59158e-08 6.26106e-11 1.13718e-10)
(5.17615e-09 -2.63777e-09 -1.42558e-10 1.34569e-08 2.73523e-11 2.3602e-10)
(5.29381e-09 -1.35821e-09 -7.77538e-11 9.90994e-09 2.09384e-11 1.76877e-10)
(1.56879e-09 -2.70778e-09 -2.40631e-10 1.56835e-08 1.20415e-10 2.07156e-10)
(5.40148e-09 -1.87235e-10 -1.54684e-10 6.90327e-09 1.31637e-10 2.78977e-10)
(4.96552e-09 -2.65467e-09 -2.10727e-10 1.32075e-08 9.39123e-11 3.73871e-10)
(5.04538e-09 -1.42172e-09 -1.38284e-10 9.71888e-09 9.99092e-11 2.70806e-10)
(5.07499e-09 -2.65129e-09 -1.57683e-10 1.33214e-08 7.65418e-11 3.02717e-10)