/*--------------------------------*- C++ -*----------------------------------*\
| =========                 |                                                 |
| \\      /  F ield         | OpenFOAM: The Open Source CFD Toolbox           |
|  \\    /   O peration     | Version:  2012                                  |
|   \\  /    A nd           | Website:  www.openfoam.com                      |
|    \\/     M anipulation  |                                                 |
\*---------------------------------------------------------------------------*/
FoamFile
{
    version     2.0;
    format      ascii;
    class       volScalarField;
    location    "0.104/solid";
    object      sigmaDiff;
}
// * * * * * * * * * * * * * * * * * * * * * * * * * * * * * * * * * * * * * //

dimensions      [1 -1 -2 0 0 0 0];


internalField   nonuniform List<scalar> 
3125
(
-816.42
-781.767
-718.648
-820.358
-787.687
-734.621
-835.554
-805.818
-760.631
-829.791
-801.821
-753.362
-237.432
-461.992
-857.573
-812.897
-241.451
-854.431
-459.275
-208.602
-431.139
-835.617
-775.207
-220.121
-829.311
-424.554
-134.263
-380.677
-778.566
-674.4
-167.906
-677.894
-361.696
-984.024
-989.076
-245.601
-823.836
-464.916
-859.527
-241.091
-863.766
-467.992
-981.827
-977.988
-957.491
-963.716
-228.008
-792.945
-436.804
-837.505
-220.24
-842.614
-441.679
-955.177
-947.492
-894.586
-918.688
-171.321
-741.236
-385.708
-791.473
-166.827
-809.139
-387.271
-879.186
-770.127
-868.523
-479.287
-250.802
-664.188
-324.375
-306.675
-304.22
-649.816
-646.517
-237.809
-809.518
-849.55
-453.34
-853.547
-233.35
-456.504
-640.653
-645.309
-297.587
-302.772
-273.651
-261.64
-619.055
-606.343
-208.021
-768.077
-820.376
-408.535
-827.075
-191.358
-416.983
-579.54
-600.642
-241.187
-257.394
-203.772
-185.942
-429.949
-352.57
-115.252
-670.437
-631.978
-294.083
-329.362
-184.389
-995.475
-991.102
-988.878
-245.263
-826.324
-864.228
-475.14
-251.189
-863.228
-471.296
-307.966
-312.733
-651.664
-656.716
-660.255
-657.367
-322.163
-315.081
-972.124
-976.907
-970.37
-965.44
-227.882
-797.59
-848.073
-449.786
-233.59
-844.058
-445.922
-276.942
-285.715
-622.582
-630.764
-638.753
-633.086
-295.335
-288.335
-695.275
-935.774
-944.727
-665.396
-688.95
-932.852
-922.535
-505.245
-588.282
-655.701
-609.262
-171.896
-746.826
-818.231
-399.776
-190.216
-811.614
-392.04
-207.539
-216.65
-453.497
-516.408
-570.077
-532.755
-236.26
-219.46
-473.808
-402.495
-780.943
-725.047
-388.372
-583.634
-675.144
-833.494
-439.361
-763.705
-886.57
-525.623
-239.615
-461.765
-334.384
-334.924
-462.4
-524.624
-526.672
-239.249
-336.451
-464.316
-527.841
-335.984
-463.36
-496.467
-214.68
-428.883
-309.501
-311.919
-432.381
-492.38
-499.174
-215.032
-316.679
-438.959
-502.42
-314.856
-436.145
-443.826
-165.136
-284.864
-241.114
-262.875
-314.663
-413.283
-460.184
-166.125
-276.951
-347.94
-468.348
-274.551
-336.718
-532.167
-242.945
-470.001
-340.318
-533.271
-339.793
-469.161
-530.832
-243.289
-337.709
-465.899
-529.287
-338.506
-467.412
-509.332
-224.407
-448.589
-323.88
-511.472
-322.756
-446.754
-507.371
-224.422
-319.113
-441.964
-504.702
-320.67
-444.212
-464.737
-166.585
-374.233
-277.764
-466.003
-275.571
-367.807
-468.983
-167.165
-275.91
-355.933
-467.904
-275.98
-360.994
-545.615
-253.815
-484.531
-349.917
-543.465
-253.972
-476.427
-346.501
-480.563
-347.962
-540.371
-441.152
-668.928
-518.441
-526.357
-672.938
-528.188
-434.371
-439.766
-290.946
-304.156
-326.873
-303.749
-288.044
-289.198
-329.797
-308.849
-268.898
-269.958
-288.213
-306.596
-288.13
-272.44
-271.078
-286.422
-305.413
-285.778
-420.05
-420.624
-507.467
-648.494
-505.849
-422.768
-421.869
-504.309
-647.303
-505.138
-522.439
-460.722
-235.508
-333.327
-523.627
-459.737
-332.783
-521.128
-235.797
-456.922
-330.572
-458.202
-331.455
-519.566
-418.898
-417.753
-642.248
-498.891
-500.975
-503.622
-643.955
-501.851
-414.986
-416.436
-267.719
-266.265
-281.437
-299.899
-280.804
-263.338
-264.913
-283.825
-301.93
-283.852
-231.652
-236.284
-259.391
-270.309
-259.139
-243.296
-239.34
-252.306
-266.457
-252.25
-384.774
-390.091
-480.644
-615.271
-475.51
-396.866
-392.73
-467.206
-610.741
-473.466
-484.217
-424.291
-200.655
-306.061
-489.31
-419.83
-303.131
-480.953
-199.731
-408.78
-295.584
-414.113
-299.138
-474.675
-381.616
-374.527
-587.308
-442.858
-453.402
-464.824
-594.411
-456.262
-361.894
-370.958
-228.049
-222.252
-233.662
-247.586
-234.13
-211.686
-218.183
-244.114
-252.405
-243.446
-180.846
-201.031
-189.356
-194.088
-184.865
-193.327
-197.67
-169.293
-183.977
-174.541
-220.372
-261.986
-353.956
-404.992
-322.807
-290.303
-265.93
-273.782
-377.24
-318.954
-386.5
-245.136
-72.5469
-201.733
-403.641
-237.51
-180.716
-568.653
-659.209
-387.418
-844.15
-497.744
-262.876
-231.469
-392.706
-474.515
-183.079
-259.509
-182.395
-208.583
-175.544
-509.632
-254.712
-261.488
-323.772
-256.403
-150.928
-167.783
-141.343
-231.2
-208.083
-172.006
-157.968
-178.917
-159.44
-534.737
-248.434
-470.543
-341.353
-533.854
-470.462
-342.022
-535.739
-248.071
-472.76
-344.39
-537.693
-471.091
-343.438
-277.869
-276.017
-290.788
-309.581
-290.221
-273.593
-274.758
-293.158
-311.483
-293.224
-428.083
-426.929
-508.382
-653.539
-511.034
-424.062
-425.736
-513.621
-655.425
-511.959
-429.201
-428.813
-516.614
-658.297
-514.041
-432.272
-430.76
-514.092
-657.359
-513.341
-279.575
-282.03
-299.893
-320.595
-299.772
-286.482
-284.059
-296.721
-317.88
-295.989
-514.964
-230.947
-450.611
-325.614
-513.101
-452.094
-326.683
-516.467
-230.788
-455.252
-329.105
-518.119
-453.894
-328.281
-253.845
-251.2
-265.361
-280.486
-264.937
-245.933
-248.956
-269.998
-283.498
-269.978
-406.781
-404.272
-482.285
-625.435
-486.167
-399.143
-402.264
-490.89
-628.344
-487.574
-408.453
-410.363
-497.907
-636.954
-495.541
-413.554
-411.906
-492.037
-634.91
-494.464
-255.802
-257.885
-277.82
-293.674
-277.833
-261.727
-259.637
-274.491
-291.143
-273.882
-672.449
-680.553
-535.158
-563.467
-642.521
-626.697
-466.18
-179.937
-381.548
-280.034
-462.084
-388.232
-283.648
-465.255
-181.159
-402.202
-291.393
-472.285
-395.835
-287.531
-189.158
-188.716
-198.376
-211.467
-196.823
-191.787
-188.193
-202.652
-212.704
-203.583
-325.174
-307.884
-354.124
-475.861
-377.9
-289.042
-307.497
-401.692
-497.536
-379.957
-327.948
-342.507
-439.657
-559.487
-425.617
-358.032
-346.146
-404.753
-546.865
-422.013
-191.854
-196.605
-223.198
-229.999
-222.329
-207.286
-200.602
-211.851
-225.48
-211.88
-445.319
-419.541
-698.471
-900.106
-526.16
-376.752
-376.169
-238.41
-296.115
-274.466
-273.236
-295.747
-376.183
-706.277
-926.403
-675.216
-856.074
-707.529
-925.117
-673.885
-377.824
-239.47
-276.169
-298.779
-379.318
-276.25
-298.083
-705.105
-672.262
-855.097
-922.456
-923.228
-672.843
-704.233
-348.097
-211.534
-265.499
-245.363
-244.606
-266.495
-345.729
-686.386
-898.782
-645.41
-833.624
-688.163
-897.227
-642.048
-354.339
-216.938
-253.144
-275.791
-357.131
-253.025
-274.312
-247.117
-152.611
-155.378
-165.3
-180.072
-172.82
-218.255
-281.794
-166.12
-199.718
-207.846
-293.143
-199.047
-203.969
-1074.33
-986.166
-1076.21
-1079.33
-988.072
-1078.48
-382.425
-243.326
-303.211
-280.421
-383.902
-280.499
-302.483
-710.562
-928.784
-677.362
-861.51
-709.085
-930.234
-679.507
-380.003
-242.067
-278.309
-299.858
-379.792
-277.073
-299.563
-1071.73
-979.994
-1070.03
-978.779
-1066.94
-1067.99
-363.264
-225.464
-284.414
-261.653
-365.323
-261.681
-283.345
-691.25
-901.913
-648.85
-839.207
-689.645
-903.304
-651.457
-359.141
-222.288
-256.934
-277.865
-357.826
-255.907
-278.215
-692.589
-656.654
-907.403
-840.977
-906.132
-694.021
-654.405
-299.083
-167.669
-220.407
-204.265
-306.642
-203.508
-217.194
-296.259
-167.108
-201.681
-208.883
-289.853
-199.85
-210.231
-390.457
-252.31
-309.927
-288.85
-310.144
-287.466
-389.267
-316.984
-318.419
-217.208
-218.247
-204.559
-205.03
-207.847
-206.318
-301.845
-303.008
-306.355
-304.373
-374.46
-295.074
-235.827
-272.351
-375.865
-294.37
-272.45
-701.065
-916.538
-850.929
-666.415
-667.997
-917.644
-699.869
-702.186
-671.136
-920.688
-852.347
-703.231
-669.863
-919.72
-372.08
-234.5
-291.714
-270.199
-291.524
-269.04
-371.668
-302.119
-300.14
-297.09
-298.377
-204.392
-202.872
-200.782
-201.451
-178.49
-180.478
-187.978
-185.526
-268.3
-271.887
-281.797
-278.365
-340.729
-262.608
-203.883
-240.427
-344.825
-260.376
-239.934
-331.482
-195.176
-246.718
-228.251
-248.598
-227.9
-327.614
-267.77
-263.004
-247.4
-252.569
-177.099
-173.932
-163.771
-166.303
-146.448
-160.482
-152.58
-150.497
-160.727
-176.732
-200.965
-195.523
-159.102
-136.419
-86.7149
-139.597
-200.955
-109.787
-131.905
-593.242
-656.347
-745.051
-545.248
-602.585
-729.268
-527.199
-575.155
-458.653
-721.52
-622.273
-567.26
-449.219
-728.576
-429.358
-275.415
-432.986
-295.933
-443.499
-265.83
-407.007
-150.122
-129.364
-129.518
-94.0783
-1084.4
-988.568
-1082.07
-1080.35
-988.17
-1080.3
-384.036
-246.648
-304.432
-282.914
-384.03
-304.044
-281.673
-385.974
-248.63
-308.272
-285.82
-388.3
-307.276
-285.986
-211.686
-209.908
-208.022
-208.533
-311.23
-308.819
-306.059
-307.115
-310.739
-312.571
-317.024
-314.41
-211.986
-212.815
-217.156
-215.084
-1059.75
-973.699
-1061.3
-1065.02
-975.38
-1063.61
-1057.26
-968.538
-1055.58
-366.517
-229.351
-285.949
-264.612
-365.83
-285.94
-263.477
-697.523
-914.311
-664.415
-846.638
-698.726
-913.193
-662.69
-369.464
-231.391
-290.461
-267.73
-371.226
-289.596
-267.769
-696.422
-658.958
-909.875
-845.283
-695.203
-910.915
-660.631
-195.243
-193.269
-188.829
-190.174
-290.898
-288.272
-281.965
-284.356
-290.858
-292.547
-297.274
-295.064
-195.744
-196.653
-200.458
-198.729
-310.626
-175.16
-223.307
-208.697
-305.427
-225.559
-208.189
-320.894
-185.295
-243.08
-222.435
-326.903
-239.901
-221.388
-149.263
-146.834
-150.428
-150.534
-219.422
-212.498
-199.648
-203.975
-219.92
-226.062
-246.486
-240.055
-149.628
-151.27
-161.989
-158.304
-808.81
-839.761
-835.109
-820.712
-723.645
-838.262
-683.195
-562.126
-651.134
-713.494
-573.569
-637.062
-753.755
-790.738
-712.992
-504.346
-510.114
-578.001
-772.162
-839.368
-376.153
-237.643
-274.278
-296.901
-377.499
-274.345
-296.284
-377.796
-240.222
-276.359
-297.956
-377.827
-275.099
-297.542
-348.237
-211.063
-247.406
-269.92
-351.623
-247.138
-268.112
-354.242
-217.491
-251.761
-272.387
-352.451
-250.848
-273.04
-249.406
-157.306
-194.174
-192.38
-271.349
-188.94
-182.06
-285.166
-167.787
-200.165
-198.71
-272.942
-198.991
-203.379
-382.516
-244.068
-280.496
-302.14
-382.308
-279.233
-301.907
-380.145
-241.232
-278.173
-300.979
-381.851
-278.245
-300.166
-363.23
-226.147
-261.144
-282.322
-362.256
-260.044
-282.482
-359.22
-221.595
-257.799
-280.526
-361.642
-257.76
-279.288
-301.867
-168.34
-202.726
-213.981
-296.332
-201.508
-215.822
-291.53
-165.244
-200.056
-212.488
-299.286
-200.097
-209.96
-395.604
-255.863
-314.634
-292.625
-394.663
-315.017
-291.411
-391.031
-251.216
-312.75
-289.058
-393.821
-311.198
-289.197
-321.155
-323.655
-386.791
-442.362
-368.154
-368.842
-388.19
-574.127
-669.805
-672.205
-572.419
-574.965
-676.167
-577.317
-672.532
-579.492
-675.748
-577.905
-678.129
-320.795
-318.096
-362.892
-435.609
-380.492
-363.337
-382.202
-385.059
-366.454
-437.216
-364.844
-383.514
-219.97
-221.316
-293.066
-297.299
-269.014
-287.941
-266.085
-292.056
-297.804
-270.22
-310.533
-309.955
-271.012
-224.912
-208.887
-222.31
-210.701
-271.057
-308.542
-310.239
-268.361
-225.522
-212.828
-226.06
-212.52
-219.689
-217.436
-288.952
-264.679
-284.565
-293.06
-261.937
-293.403
-288.59
-288.798
-294.93
-265.035
-284.118
-262.869
-291.229
-293.13
-275.535
-313.342
-315.119
-272.978
-214.518
-227.249
-206.103
-204.608
-270.361
-248.733
-265.376
-275.377
-246.203
-275.395
-270.449
-270.192
-276.12
-248.727
-265.201
-246.584
-271.594
-274.991
-255.596
-292.403
-293.549
-254.455
-211.285
-195.175
-210.147
-196.699
-255.56
-293.574
-293.765
-254.586
-211.496
-196.217
-210.615
-196.012
-206.303
-206.817
-272.546
-250.56
-267.643
-278.615
-248.492
-277.316
-274.287
-272.443
-277.198
-250.568
-267.516
-247.928
-272.354
-277.279
-253.707
-291.066
-291.433
-253.52
-210.382
-194.591
-208.528
-195.191
-254.437
-290.622
-291.8
-252.39
-210.552
-195.3
-210.278
-196.332
-304.332
-302.263
-348.246
-419.773
-366.574
-347.941
-367.434
-368.287
-348.932
-420.504
-348.703
-367.387
-559.368
-657.255
-560.249
-656.048
-535.421
-643.319
-506.588
-522.67
-641.574
-522.02
-536.147
-534.934
-520.859
-506.078
-640.8
-641.308
-521.562
-534.384
-558.871
-655.244
-558.382
-655.841
-303.918
-305.118
-351.034
-422.372
-370.186
-350.658
-369.289
-368.394
-350.27
-421.533
-349.865
-369.245
-533.097
-639.541
-504.455
-519.298
-639.778
-519.967
-532.615
-556.625
-652.905
-556.276
-653.29
-533.461
-520.546
-504.783
-640.578
-639.719
-520.136
-533.805
-557.125
-654.501
-557.666
-653.834
-374.453
-236.547
-294.094
-272.496
-374.229
-293.843
-271.284
-372.131
-233.736
-292.939
-270.205
-373.806
-292.145
-270.251
-347.016
-366.331
-418.48
-346.578
-365.503
-299.568
-300.766
-364.466
-417.758
-346.017
-345.874
-365.347
-551.346
-646.905
-647.564
-550.642
-527.701
-633.208
-499.479
-513.566
-634.208
-514.602
-526.867
-528.372
-515.982
-636.132
-500.066
-634.417
-529.153
-515.201
-551.956
-649.413
-552.865
-648.368
-531.352
-639.257
-518.753
-502.93
-531.969
-637.889
-518.218
-554.823
-652.245
-555.61
-651.247
-530.831
-516.823
-502.451
-636.656
-637.662
-517.709
-530.004
-554.281
-650.112
-553.568
-650.921
-299.788
-297.7
-343.469
-415.008
-361.845
-343.321
-362.904
-364.097
-344.668
-415.942
-344.214
-363.064
-202.817
-203.403
-267.94
-246.7
-274.17
-262.948
-269.722
-244.751
-272.933
-268.003
-272.769
-246.724
-262.909
-244.094
-267.648
-272.97
-248.831
-286.112
-286.179
-249.21
-205.748
-189.165
-203.486
-190.57
-249.574
-285.096
-286.645
-247.025
-206.425
-191.98
-206.669
-192.113
-202.591
-200.98
-265.394
-244.106
-260.217
-270.178
-241.709
-270.48
-265.068
-265.203
-271.336
-244.358
-260.016
-242.291
-266.89
-270.083
-252.132
-287.791
-289.223
-250.467
-208.993
-193.53
-208.058
-194.761
-252.048
-289.134
-251.334
-289.317
-208.823
-193.3
-207.487
-193.815
-183.079
-180.302
-236.095
-216.274
-229.897
-239.462
-214.501
-241.335
-233.491
-236.077
-243.44
-218.238
-230.063
-216.366
-239.411
-241.275
-227.259
-260.644
-263.445
-224.11
-185.818
-170.339
-185.843
-169.918
-226.996
-264.264
-263.433
-227.605
-184.69
-166.562
-182.419
-168.664
-184.178
-185.859
-243.329
-224.692
-237.514
-250.496
-222.901
-248.505
-246.403
-243.288
-246.892
-223.387
-237.251
-221.285
-241.127
-248.377
-219.726
-256.962
-255.885
-221.438
-178.027
-159.244
-174.916
-162.211
-220.572
-253.074
-256.327
-216.41
-179.62
-165.152
-180.669
-163.839
-275.547
-271.475
-314.688
-386.219
-332.394
-315.678
-335.199
-338.936
-319.359
-388.342
-317.93
-336.388
-529.175
-626.383
-531.279
-624.396
-505.712
-613.854
-478.721
-494.496
-610.669
-492.756
-507.478
-527.715
-620.67
-525.457
-622.738
-275.895
-278.84
-325.886
-395.528
-345.485
-324.738
-343.463
-340.314
-322.288
-393.831
-322.985
-342.553
-518.877
-610.963
-516.555
-613.517
-520.83
-618.284
-523.429
-616.134
-340.59
-204.087
-256.944
-237.481
-337.454
-258.426
-236.966
-331.475
-195.135
-253.609
-231.982
-336.504
-250.906
-231.213
-311.206
-330.629
-379.282
-309.335
-327.573
-258.832
-263.214
-322.438
-376.817
-305.093
-306.647
-325.853
-493.504
-582.498
-587.027
-489.025
-496.836
-595.192
-501.063
-591.118
-510.844
-607.927
-514.361
-604.488
-508.15
-598.7
-504.42
-601.613
-258.055
-252.438
-293.419
-364.955
-309.974
-295.376
-314.063
-320.055
-301.046
-367.822
-298.677
-316.3
-171.587
-173.959
-227.305
-210.313
-235.284
-221.214
-231.354
-208.464
-232.727
-227.065
-229.964
-207.641
-220.745
-206.068
-223.638
-232.354
-201.628
-238.342
-236.485
-204.369
-162.041
-143.732
-158.529
-147.364
-202.649
-232.617
-236.943
-197.247
-164.094
-150.912
-165.602
-148.852
-169.921
-166.411
-216.553
-197.293
-210.229
-219.267
-196.15
-222.073
-212.594
-216.775
-225.111
-200.825
-210.585
-198.886
-221.243
-222.341
-212.125
-243.348
-247.159
-207.761
-172.412
-157.859
-173.019
-156.598
-211.7
-248.669
-213.276
-247.132
-170.728
-152.26
-167.794
-155.296
-163.03
-159.646
-155.398
-150.403
-179.542
-131.096
-161.872
-132.805
-147.709
-157.522
-148.566
-166.649
-181.49
-163.418
-160.915
-139.974
-170.768
-168.999
-180.628
-171.029
-138.028
-136.009
-139.076
-133.93
-167.093
-185.724
-180.983
-166.146
-138.108
-123.923
-135.941
-131.04
-155.879
-155.587
-160.408
-162.23
-184.276
-167.718
-160.553
-162.648
-162.316
-161.146
-154.248
-164.851
-190.132
-161.794
-160.949
-160.092
-166.746
-155.273
-141.439
-165.727
-143.023
-96.4248
-149.784
-97.7257
-163.535
-133.733
-135.235
-161.846
-139.34
-115.073
-135.254
-106.217
-190.037
-177.628
-177.431
-237.484
-186.694
-189.568
-200.204
-218.147
-211.967
-245.563
-203.369
-208.959
-337.456
-413.173
-347.524
-395.897
-325.976
-363.698
-316.939
-382.164
-191.434
-197.688
-232.597
-277.872
-237.822
-228.523
-233.924
-224.759
-220.981
-279.881
-225.789
-230.166
-292.092
-327.941
-286.82
-329.42
-299.258
-351.385
-306.447
-336.191
-153.135
-82.5682
-123.791
-129.504
-160.326
-88.4985
-97.6242
-547.012
-680.046
-659.652
-588.578
-775.059
-695.034
-501.186
-499.28
-613.177
-757.17
-823.343
-739.718
-391.858
-491.618
-400.123
-271.756
-304.513
-327.705
-308.469
-265.674
-335.231
-446.98
-340.684
-377.242
-445.051
-360.339
-336.706
-170.639
-155.368
-206.325
-394.166
-177.228
-280.664
-271.252
-172.903
-245.246
-163.349
-172.546
-182.654
-140.832
-154.724
-125.479
-112.208
-112.241
-170.418
-138.665
-132.731
-133.388
-414.17
-305.81
-271.057
-262.938
-344.759
-279.902
-391.271
-226.647
-283.782
-320.47
-281.59
-327.38
-294.491
-355.595
-277.691
-356.711
-209.736
-95.6276
-148.207
-74.5757
-102.806
-124.047
-124.015
-125.742
-153.478
-144.609
-133.555
-141.327
-167.847
-155.723
-148.829
-146.424
-90.1249
-112.476
-135.024
-227.972
-150.871
-236.524
-182.571
-169.5
-202.221
-231.498
-183.046
-156.902
-135.76
-165.554
-236.713
-165.953
-171.135
-124.879
-130.764
-156.974
-119.579
-120.46
-97.242
-130.38
-100.243
-137.223
-132.174
-143.325
-137.06
-95.547
-137.396
-91.2164
-112.242
-725.499
-727.714
-732.473
-729.178
-733.722
-713.366
-714.203
-716.326
-714.96
-719.43
-718.474
-717.056
-718.078
-724.482
-722.274
-721.255
-722.153
-720.033
-720.257
-720.786
-720.361
-383.753
-245.882
-305.341
-283.037
-385.338
-304.759
-283.059
-385.884
-249.591
-306.797
-285.748
-385.552
-306.379
-284.42
-209.819
-210.477
-277.634
-255.118
-272.686
-283.798
-252.942
-282.291
-279.698
-277.606
-282.194
-254.986
-272.602
-252.253
-277.3
-282.346
-256.934
-295.779
-295.85
-257.124
-212.431
-196.218
-210.451
-197.043
-257.67
-295.036
-255.561
-296.212
-212.753
-197.9
-212.824
-198.389
-209.662
-208.052
-275.044
-252.514
-270.109
-279.82
-250.006
-275.126
-279.883
-274.946
-280.802
-252.652
-269.894
-250.47
-276.561
-279.519
-260.093
-297.46
-298.798
-258.332
-215.31
-199.683
-214.547
-200.697
-259.964
-298.976
-298.874
-259.617
-214.963
-199.166
-213.554
-199.679
-308.261
-309.561
-355.814
-427.744
-374.957
-355.42
-374.112
-373.157
-354.769
-427.063
-354.683
-373.979
-561.609
-657.874
-560.962
-658.712
-537.889
-643.917
-509.105
-523.478
-645.147
-536.981
-524.532
-538.635
-526.331
-509.772
-647.844
-645.601
-525.418
-539.675
-562.131
-660.653
-659.235
-563.112
-308.484
-306.445
-352.332
-424.088
-370.517
-352.106
-371.463
-372.651
-353.509
-425.024
-352.98
-371.701
-565.016
-663.255
-662.29
-565.658
-564.416
-660.971
-662.008
-563.7
-314.335
-311.409
-357.208
-428.532
-375.009
-356.715
-376.023
-376.844
-357.583
-429.41
-357.722
-375.52
-569.785
-669.14
-571.304
-666.982
-569.05
-666.162
-666.859
-568.531
-313.491
-315.481
-360.896
-379.499
-431.469
-360.321
-377.88
-376.414
-359.631
-429.923
-358.874
-377.908
-566.461
-663.839
-664.023
-566.371
-567.133
-664.929
-664.653
-567.39
-214.348
-212.343
-280.93
-257.736
-276.431
-285.486
-255.236
-280.781
-285.719
-280.939
-286.862
-258.332
-276.413
-255.757
-282.822
-285.245
-267.229
-304.071
-305.721
-265.126
-222.135
-207.179
-221.579
-207.761
-267.047
-306.177
-266.75
-305.867
-221.8
-205.419
-220.074
-206.398
-214.782
-215.864
-285.117
-261.63
-291.037
-281.164
-287.458
-259.331
-289.254
-284.776
-288.703
-261.021
-280.978
-258.497
-284.317
-289.182
-262.93
-301.993
-301.919
-263.655
-217.855
-200.991
-215.482
-202.294
-263.859
-301.006
-261.097
-302.435
-218.624
-203.821
-219.015
-203.934
-712.722
-711.448
-710.52
-711.229
-708.404
-708.788
-709.933
-709.242
-701.947
-702.584
-704.483
-703.492
-707.653
-706.655
-705.368
-706.197
-682.524
-683.742
-686.983
-685.504
-692.526
-691.133
-688.718
-689.98
-700.924
-699.718
-698.088
-698.996
-693.968
-694.722
-696.9
-695.852
-366.54
-228.604
-287.646
-264.888
-368.455
-286.705
-264.906
-369.455
-232.09
-289.047
-267.595
-368.927
-288.941
-266.437
-192.612
-193.756
-254.177
-234.401
-248.639
-260.861
-232.579
-259.25
-256.621
-254.235
-258.412
-233.852
-248.53
-231.462
-252.963
-259.248
-232.468
-269.893
-269.394
-233.468
-189.906
-171.719
-187.259
-173.914
-233.262
-267.485
-229.985
-269.868
-191.052
-176.137
-191.671
-175.518
-191.976
-189.786
-249.411
-229.096
-243.566
-253.45
-226.958
-247.932
-254.537
-249.249
-255.951
-230.038
-243.521
-228.149
-251.739
-254.261
-237.912
-272.611
-274.714
-235.505
-195.577
-179.905
-195.21
-180.099
-237.743
-275.088
-274.711
-237.767
-194.83
-177.531
-193.015
-178.936
-286.827
-288.845
-335.404
-405.907
-354.933
-334.632
-353.548
-351.541
-333.226
-404.729
-333.454
-353.061
-534.408
-628.397
-532.864
-629.626
-510.791
-614.696
-483.634
-496.079
-616.764
-509.226
-497.887
-512.059
-500.446
-484.658
-619.732
-617.134
-499.009
-513.448
-535.577
-632.767
-631.214
-537.216
-286.79
-283.765
-328.356
-399.792
-346.52
-328.722
-348.412
-350.74
-331.106
-401.275
-330.231
-348.997
-517.309
-625.037
-489.61
-505.385
-622.774
-504.267
-518.467
-540.807
-637.922
-636.498
-542.217
-516.294
-501.799
-488.752
-620.492
-622.382
-503.294
-514.907
-539.86
-634.272
-635.549
-538.474
-294.339
-291.891
-337.222
-408.67
-355.573
-337.256
-356.914
-358.469
-338.916
-409.746
-338.342
-357.199
-548.719
-645.939
-549.807
-644.743
-525.079
-632.699
-512.737
-496.914
-525.944
-630.807
-511.925
-548.028
-643.257
-644.135
-547.094
-524.369
-510.173
-496.261
-629.287
-630.515
-511.265
-523.405
-294.189
-295.709
-341.989
-361.417
-412.967
-341.434
-360.345
-358.965
-340.582
-412.026
-340.526
-360.09
-520.679
-625.585
-492.811
-506.44
-626.8
-519.653
-507.681
-544.254
-639.211
-640.024
-543.302
-545.053
-642.158
-641.062
-546.154
-521.496
-509.306
-493.488
-628.776
-626.965
-508.36
-522.39
-198.02
-196.187
-258.498
-237.727
-252.955
-263.03
-235.397
-257.745
-263.604
-258.283
-264.657
-238.184
-252.791
-236.197
-260.289
-263.229
-245.94
-281.209
-282.933
-243.916
-203.178
-187.789
-202.621
-188.313
-245.824
-283.11
-245.559
-282.962
-202.659
-186.154
-201.078
-187.164
-198.433
-199.253
-261.992
-241.448
-268.453
-256.718
-264.1
-239.513
-267.003
-262.025
-266.544
-241.161
-256.642
-238.661
-261.272
-267.024
-241.63
-279.071
-278.89
-242.284
-198.679
-181.261
-196.299
-182.957
-242.4
-277.54
-239.607
-279.376
-199.556
-184.75
-199.977
-184.521
-680.313
-678.326
-674.316
-676.356
-664.346
-666.203
-671.78
-669.675
-634.555
-638.655
-646.696
-642.566
-662.962
-659.512
-651.831
-655.479
-468.418
-486.116
-517.666
-500.89
-568.063
-556.28
-530.031
-544.342
-629.463
-623.606
-610.274
-617.244
-578.486
-587.679
-603.338
-594.92
-309.337
-175.214
-231.374
-212.468
-316.35
-227.897
-211.332
-321.268
-185.079
-235.025
-218.092
-316.512
-237.376
-217.891
-147.92
-148.343
-180.789
-168.901
-179.802
-189.685
-167.887
-187.539
-185.431
-180.873
-185.311
-166.666
-181.606
-166.202
-176.851
-187.544
-166.855
-195.152
-194.374
-168.311
-142.844
-137.073
-139.979
-138.696
-171.022
-192.349
-167.427
-197.051
-142.138
-136.35
-142.153
-137.121
-149.181
-147.751
-170.709
-162.767
-183.09
-175.11
-162.981
-165.253
-178.855
-170.599
-180.183
-163.614
-179.545
-163.275
-175.155
-178.653
-173.79
-199.717
-203.505
-168.938
-143.891
-133.768
-143.595
-134.01
-171.148
-203.458
-201.904
-173.332
-144.037
-134.864
-142.1
-135.648
-207.438
-213.004
-258.959
-317.431
-272.459
-255.116
-267.358
-258.171
-248.315
-316.405
-251.555
-262.898
-371.067
-428.394
-360.535
-444.718
-382.492
-474.028
-457.437
-393.901
-207.735
-201.925
-236.083
-299.278
-241.833
-238.747
-245.46
-253.375
-244.506
-297.474
-240.933
-249.271
-423.864
-519.724
-508.888
-432.982
-414.798
-485.207
-499.127
-404.246
-233.041
-225.986
-263.797
-333.992
-276.921
-266.742
-282.049
-290.826
-274.366
-336.617
-270.799
-285.833
-479.086
-577.562
-484.778
-571.958
-474.338
-560.424
-566.831
-468.22
-234.042
-239.952
-288.767
-306.991
-353.728
-285.772
-302.532
-294.725
-279.295
-350.717
-281.994
-299.42
-448.993
-528.763
-538.006
-441.079
-455.31
-553.926
-545.561
-462.526
-154.288
-150.877
-192.116
-174.722
-187.814
-195.387
-174.13
-187.832
-198.179
-192.24
-201.156
-178.529
-187.349
-176.887
-197.246
-198.41
-191.817
-220.353
-224.959
-186.219
-155.465
-142.636
-156.427
-140.885
-190.896
-226.904
-193.58
-224.665
-153.675
-136.908
-150.584
-140.085
-155.78
-158.227
-204.77
-189.905
-213.665
-198.765
-209.81
-188.02
-210.64
-204.367
-207.027
-185.848
-198.432
-184.972
-199.915
-210.063
-179.72
-214.524
-212.418
-182.976
-146.848
-132.972
-144.293
-135.144
-181.553
-209.039
-175.787
-213.47
-147.957
-136.431
-148.905
-135.028
-450.717
-432.523
-400.805
-418.712
-371.314
-379.233
-392.166
-377.727
-827.173
-879.592
-296.071
-338.018
-378.322
-377.735
-356.862
-411.063
-684.853
-633.722
-831.466
-892.042
-893.717
-637.731
-683.061
-646.793
-836.778
-572.821
-756.123
-660.96
-814.58
-557.062
-617.616
-495.906
-721.153
-739.438
-778.541
-528.443
-590.98
-711.634
-682.801
-932.604
-863.163
-932.233
-712.22
-681.805
-1041.49
-959.514
-1043.58
-1048.71
-961.656
-1046.76
-1037.97
-952.584
-1035.53
-949.872
-1028.85
-1031.53
-970.537
-905.275
-979.823
-993.08
-913.131
-988.504
-672.398
-851.349
-581.952
-799.675
-669.552
-858.844
-585.95
-673.707
-590.631
-867.496
-805.388
-864.72
-674.174
-589.187
-951.651
-853.785
-928.364
-815.846
-846.159
-885.237
-719.789
-940.062
-873.191
-689.444
-695.641
-942.797
-716.54
-720.614
-875.896
-701.108
-945.125
-678.443
-881.175
-822.548
-610.875
-616.799
-882.8
-676.932
-679.756
-628.513
-888.36
-824.858
-681.595
-623.288
-886.703
-1088.7
-1000.1
-1092.17
-1002.92
-1094.89
-712.241
-936.158
-684.252
-862.117
-714.047
-934.487
-682.063
-711.926
-682.886
-933.413
-862.162
-712.056
-932.973
-681.958
-1051.47
-966.876
-1053.03
-1014.04
-938.628
-1017.01
-1024.54
-941.728
-1021.69
-1009.41
-929.553
-1006.31
-998.395
-925.999
-1001.49
-674.999
-877.479
-604.103
-816.07
-676.098
-876.003
-598.617
-674.665
-592.3
-871.075
-813.783
-674.185
-872.507
-594.121
-550.045
-654.308
-520.984
-533.731
-658.433
-536.186
-547.585
-551.97
-541.621
-665.919
-522.638
-660.101
-555.107
-539.108
-545.042
-668.025
-546.78
-557.106
-504.125
-489.011
-477.408
-607.093
-610.033
-491.235
-502.04
-495.638
-598.008
-469.53
-480.191
-601.507
-482.884
-493.21
-497.634
-486.976
-471.108
-605.989
-602.171
-484.716
-499.835
-470.969
-571.01
-446.967
-454.935
-576.937
-459.014
-466.921
-474.32
-465.693
-584.205
-449.32
-578.045
-477.945
-462.155
-487.542
-596.754
-477.697
-461.725
-490.497
-591.88
-474.909
-484.819
-468.973
-459.673
-585.849
-590.813
-472.379
-481.372
-343.851
-468.158
-339.52
-357.619
-447.892
-352.299
-351.602
-335.951
-338.684
-339.933
-427.53
-452.077
-345.378
-327.628
-305.412
-371.34
-294.604
-305.651
-400.829
-313.38
-300.776
-311.312
-329.118
-298.718
-428.551
-399.472
-321.495
-318.376
-293.547
-367.199
-297.001
-238.592
-294.205
-343.734
-288.631
-293.726
-268.19
-230.802
-344.632
-339.775
-279.473
-279.482
-541.989
-650.928
-513.122
-529.167
-649.938
-528.844
-542.437
-541.543
-527.517
-512.72
-648.601
-649.808
-528.409
-540.593
-544.309
-652.876
-531.67
-514.828
-545.855
-649.584
-530.162
-543.517
-528.637
-513.947
-648.957
-649.186
-529.419
-543.118
-542.933
-650.871
-513.683
-529.364
-650.194
-542.864
-529.661
-542.963
-529.113
-513.785
-649.301
-649.564
-529.071
-542.71
-368.505
-464.977
-366.048
-364.544
-482.179
-360.271
-370.233
-376.542
-383.274
-366.034
-497.352
-479.994
-377.117
-385.454
-409.762
-526.371
-392.546
-410.036
-513.283
-404.144
-417.22
-402.518
-391.015
-390.383
-497.806
-512.757
-397.564
-393.81
-457.915
-569.32
-451.014
-434.337
-462.657
-561.529
-446.687
-453.468
-437.437
-431.512
-551.648
-560.059
-442.476
-447.932
-430.666
-527.63
-412.131
-416.033
-537.996
-423.989
-421.791
-436.329
-432.242
-414.927
-549.56
-539.248
-426.961
-442.447
)
;

boundaryField
{
    left
    {
        type            calculated;
        value           nonuniform List<scalar> 0();
    }
    bottom
    {
        type            calculated;
        value           nonuniform List<scalar> 
214
(
-783.641
-747.722
-683.838
-787.556
-753.782
-699.887
-803.6
-772.677
-726.295
-798.035
-768.51
-719.029
-465.063
-462.498
-780.048
-436.325
-430.483
-741.023
-396.889
-375.437
-642.935
-791.173
-470.797
-467.856
-759.219
-445.892
-441.434
-706.94
-398.922
-398.036
-283.333
-481.504
-268.205
-270.2
-263.203
-267.373
-776.527
-459.861
-456.834
-239.801
-247.011
-230.608
-237.819
-733.793
-423.881
-416.629
-195.065
-233.779
-175.149
-650.755
-294.713
-781.717
-477.532
-473.9
-794.173
-276.159
-281.8
-270.995
-274.809
-453.461
-449.832
-764.072
-256.466
-261.759
-248.847
-254.889
-409.257
-402.851
-712.541
-228.158
-229.417
-237.622
-230.286
-761.539
-435.438
-904.202
-285.885
-287.687
-269.353
-269.94
-265.264
-266.531
-242.764
-244.76
-233.318
-235.183
-208.123
-227.083
-207.612
-144.161
-381.544
-236.135
-278.574
-280.226
-272.555
-273.702
-258.758
-260.298
-251.439
-253.173
-227.97
-227.844
-235.674
-232.763
-520.892
-497.227
-636.967
-274.127
-381.928
-421.366
-821.474
-619.073
-528.75
-286.239
-288.249
-277.891
-279.547
-291.196
-250.465
-249.663
-247.732
-246.939
-249.436
-248.171
-250.138
-248.264