/*--------------------------------*- C++ -*----------------------------------*\
| =========                 |                                                 |
| \\      /  F ield         | OpenFOAM: The Open Source CFD Toolbox           |
|  \\    /   O peration     | Version:  2012                                  |
|   \\  /    A nd           | Website:  www.openfoam.com                      |
|    \\/     M anipulation  |                                                 |
\*---------------------------------------------------------------------------*/
FoamFile
{
    version     2.0;
    format      ascii;
    class       volScalarField;
    location    "0.104/solid";
    object      sigmaMax;
}
// * * * * * * * * * * * * * * * * * * * * * * * * * * * * * * * * * * * * * //

dimensions      [1 -1 -2 0 0 0 0];


internalField   nonuniform List<scalar> 
3125
(
-428.58
-398.306
-329.211
-431.466
-403.637
-340.558
-445.341
-419.834
-377.458
-441.31
-416.341
-368.717
-319.29
-390.386
-584.839
-425.815
-326.297
-578.929
-387.902
-291.096
-363.94
-541.809
-392.242
-301.889
-527.948
-359.271
-346.621
-308.543
-452.508
-302.872
-290.906
-447.915
-293.753
-551.087
-557.214
-331.732
-434.518
-392.913
-587.035
-324.586
-593.904
-395.656
-548.991
-543.225
-512.739
-522.242
-308.769
-408.322
-368.269
-545.737
-299.134
-556.163
-372.244
-509.125
-496.514
-420.797
-440.369
-283.426
-349.895
-322.783
-453.748
-282.118
-469.489
-331.385
-416.524
-399.197
-606.378
-405.182
-337.127
-729.892
-272.068
-261.898
-259.53
-712.646
-707.557
-320.969
-422.971
-570.068
-382.435
-576.935
-313.497
-385.276
-699.943
-705.957
-255.442
-258.727
-242.291
-237.215
-679.971
-673.133
-294.794
-385.32
-504.469
-349.038
-522.808
-283.539
-354.271
-667.69
-671.086
-228.38
-234.474
-189.17
-170.963
-728.625
-728.791
-345.335
-232.226
-430.667
-235.923
-696.859
-167.081
-569.327
-566.273
-559.175
-330.022
-437.757
-602.997
-401.858
-339.714
-595.956
-398.707
-262.6
-265.722
-714.999
-721.332
-725.748
-722.018
-270.886
-267.014
-535.103
-541.364
-532.743
-525.04
-306.614
-412.516
-567.53
-379.306
-315.279
-559.197
-375.923
-244.304
-248.69
-682.319
-689.382
-697.818
-691.53
-254.157
-250.245
-723.342
-474.824
-491.651
-718.056
-720.497
-468.452
-447.424
-783.657
-738.806
-719.396
-729.801
-277.997
-359.381
-497.753
-343.606
-288.264
-476.209
-337.902
-198.172
-210.953
-715.65
-683.785
-667.952
-676.791
-224.499
-216.423
-798.023
-762.491
-159.111
-379.318
-721.838
-188.078
-0.340028
-118.234
-133.639
67.4114
-99.4567
-438.02
-323.721
-466.478
-387.618
-388.293
-467.878
-437.383
-440.406
-322.091
-390.987
-470.92
-441.074
-390.391
-469.463
-407.054
-298.207
-435.577
-356.301
-357.062
-437.599
-407.007
-411.408
-295.081
-361.951
-441.993
-411.777
-361.13
-439.914
-338.213
-320.888
-466.982
-328.957
-320.495
-457.751
-337.394
-345.131
-303.337
-317.623
-439.409
-346.318
-319.755
-446.837
-446.268
-326.64
-477.369
-396.783
-446.881
-395.979
-475.873
-443.847
-328.464
-393.05
-472.589
-443.368
-393.65
-474.141
-419.929
-302.936
-450.465
-370.902
-420.541
-370.031
-448.527
-416.266
-305.319
-365.707
-444.296
-415.803
-366.585
-446.308
-369.67
-277.512
-427.515
-331.264
-372.951
-330.653
-429.025
-359.59
-283.719
-324.393
-434.453
-356.493
-325.142
-431.348
-460.194
-336.989
-490.628
-410.458
-457.188
-339.892
-486.042
-406.854
-488.298
-407.299
-456.939
-505.369
-734.694
-581.992
-585.661
-738.279
-587.686
-498.805
-502.327
-367.377
-353.629
-273.154
-354.114
-364.251
-365.643
-274.72
-357.456
-345.711
-347.142
-339.413
-261.087
-338.907
-349.481
-348.2
-336.825
-260.509
-337.404
-479.508
-480.866
-566.302
-710.591
-564.367
-483.861
-482.351
-561.219
-708.979
-562.912
-434.245
-464.829
-316.456
-385.371
-434.89
-463.309
-384.672
-431.649
-318.169
-459.936
-381.449
-461.55
-382.22
-431.116
-477.976
-476.39
-702.009
-554.264
-556.319
-559.813
-704.06
-557.909
-472.916
-474.607
-344.538
-342.922
-331.498
-256.659
-332.215
-339.685
-341.558
-335.044
-257.745
-334.41
-314.012
-316.614
-313.322
-240.979
-312.758
-321.569
-319.101
-308.079
-238.634
-308.52
-449.766
-450.776
-535.642
-677.459
-533.659
-455.134
-453.629
-529.549
-675.072
-531.049
-402.65
-433.369
-287.162
-351.942
-402.256
-431.505
-351.335
-397.487
-291.291
-428.229
-346.282
-429.656
-346.753
-398.626
-446.703
-446.419
-668.24
-524.211
-523.425
-526.833
-669.344
-526.091
-444.287
-443.153
-311.218
-308.523
-297.25
-229.841
-297.349
-302.422
-305.394
-303.227
-233.129
-302.974
-246.325
-237.74
-243.064
-183.014
-235.895
-254.94
-244.378
-220.667
-173.409
-222.618
-530.222
-499.547
-559.159
-737.727
-581.632
-472.028
-499.207
-594.492
-738.806
-579.316
-323.578
-474.895
-362.99
-331.627
-333.311
-466.771
-341.41
-232.485
-350.75
-476.401
-156.249
-197.916
-145.881
-248.266
-148.171
-248.537
-453.945
-511.776
-301.344
-521.778
-526.917
-477.146
-561.203
-582.467
-648.621
-553.237
-563.222
-254.753
-264.858
-123.329
-232.644
-268.931
-223.888
-153.035
-229.632
-450.483
-336.562
-478.988
-399.632
-449.817
-480.344
-400.648
-453.603
-334.779
-483.783
-404.332
-454.227
-482.014
-403.608
-355.158
-353.253
-341.055
-263.619
-341.641
-350.549
-351.973
-344.397
-264.608
-343.728
-490.782
-489.351
-567.957
-717.486
-570.212
-485.601
-487.512
-573.409
-719.771
-571.733
-492.192
-492.688
-579.243
-723.142
-577.011
-495.849
-494.346
-574.494
-722.263
-575.423
-356.867
-359.249
-351.007
-269.764
-350.413
-362.928
-361.088
-346.943
-268.402
-347.735
-424.525
-312.013
-452.571
-374.087
-423.949
-454.375
-374.965
-427.635
-310.101
-458.07
-378.737
-428.259
-456.346
-377.915
-330.419
-328.185
-317.06
-245.678
-317.726
-323.803
-326.179
-321.745
-247.435
-321.05
-463.546
-461.788
-538.036
-684.662
-540.183
-457.719
-459.374
-544.534
-687.032
-542.363
-465.665
-467.369
-552.511
-695.644
-550.454
-471.043
-469.346
-546.517
-693.559
-548.593
-332.24
-334.404
-328.973
-252.992
-328.265
-338.122
-336.097
-324.757
-251.55
-325.484
-717.132
-717.7
-765.772
-750.86
-720.944
-724.119
-384.879
-285.376
-426.453
-336.083
-383.747
-426.122
-336.492
-393.937
-280.336
-427.021
-341.556
-392.357
-426.3
-341.227
-282.791
-276.593
-257.243
-201.697
-260.035
-263.048
-271.524
-272.944
-208.474
-271.509
-445.858
-456.605
-559.126
-703.168
-541.257
-472.251
-454.913
-529.216
-692.613
-541.34
-448.081
-441.462
-521.706
-669.316
-525.013
-441.161
-444.342
-530.298
-672.182
-523.117
-287.064
-291.583
-290.652
-222.979
-290.581
-298.902
-295.449
-282.309
-218.314
-282.754
-799.834
-786.394
-331.053
-135.896
-474.702
-671.6
-387.777
-322.246
-382.81
-366.14
-365.947
-382.842
-386.398
-475.704
-408.726
-553.238
-582.767
-476.871
-407.547
-551.705
-391.63
-324.165
-369.626
-386.339
-390.992
-370.902
-387.911
-473.228
-548.375
-580.824
-404.127
-405.369
-549.917
-472.004
-357.846
-295.889
-354.459
-336.766
-335.353
-353.251
-357.065
-433.611
-372.415
-522.539
-537.49
-436.191
-369.552
-520.473
-364.187
-298.275
-341.899
-359.112
-363.398
-343.736
-361.263
-375.629
-343.393
-399.116
-346.059
-335.232
-388.165
-381.178
-350.439
-290.853
-311.663
-348.604
-344.336
-316.759
-356.694
-312.757
-553.146
-313.607
-316.701
-555.208
-315.586
-397.483
-329.06
-392.126
-375.327
-396.761
-376.567
-393.813
-480.416
-410.825
-555.084
-589.347
-479.268
-412.057
-556.725
-393.394
-327.392
-371.614
-388.373
-392.007
-371.351
-388.377
-310.844
-546.949
-309.958
-545.03
-306.865
-307.877
-372.192
-305.813
-367.144
-350.23
-371.587
-351.689
-368.893
-443.447
-376.388
-525.011
-549.434
-441.227
-378.851
-527.126
-366.515
-303.221
-345.211
-362.293
-365.398
-344.387
-361.751
-447.852
-531.441
-384.465
-552.888
-382.34
-449.775
-529.484
-345.688
-278.439
-339.912
-315.488
-341.324
-319.486
-345.219
-343.449
-285.195
-315.243
-349.669
-345.372
-312.263
-344.527
-406.536
-339.869
-401.529
-385.29
-401.146
-384.42
-405.168
-424.326
-426.072
-312.814
-315.292
-294.912
-297.567
-300.833
-300.37
-405.075
-406.985
-411.261
-410.205
-385.847
-380.723
-318.73
-364.049
-385.259
-382.234
-365.267
-465.301
-396.76
-572.487
-541.443
-543.161
-398.265
-463.879
-468.149
-546.575
-401.911
-574.781
-469.403
-545.028
-400.603
-381.589
-316.639
-376.721
-360.072
-376.715
-359.802
-380.288
-405.391
-404.363
-398.66
-400.652
-295.779
-295.122
-289.097
-291.954
-265.599
-269.608
-275.999
-274.204
-374.86
-377.522
-383.945
-382.267
-355.949
-350.649
-290.425
-332.769
-354.607
-353.545
-335.277
-349.504
-289.017
-347.582
-328.285
-345.343
-326.124
-349.441
-375.879
-373.966
-367.415
-370.107
-268.05
-265.678
-256.405
-260.966
-287.017
-271.727
-243.569
-242.682
-443.814
-440.054
-382.044
-385.523
-392.341
-400.827
-335.433
-342.239
-381.816
-420.048
-361.236
-224.524
-162.091
-200.715
-274.915
-263.393
-181.162
-209.932
-283.557
-469.663
-260.606
-395.174
-311.345
-443.152
-234.768
-254.212
-282.579
-259.98
-201.219
-277.719
-265.051
-221.095
-445.265
-450.406
-285.906
-265.078
-324.852
-563.552
-323.661
-319.288
-561.209
-320.902
-399.727
-333.797
-394.708
-377.893
-398.344
-394.581
-377.831
-404.821
-337.246
-399.082
-383.042
-404.083
-401.021
-384.743
-306.077
-305.154
-299.901
-302.434
-417.644
-416.385
-410.949
-412.785
-417.194
-419.62
-424.583
-423.189
-305.473
-308.768
-314.866
-314.281
-300.642
-537.29
-301.731
-304.778
-539.389
-303.857
-298.262
-530.241
-297.041
-374.491
-310.141
-369.811
-352.983
-373.228
-369.629
-352.526
-459.067
-394.146
-539.444
-564.847
-460.661
-392.431
-537.707
-379.504
-312.733
-374.396
-357.691
-378.908
-375.956
-358.947
-455.476
-533.705
-387.621
-562.082
-453.716
-389.544
-535.611
-283.298
-282.006
-274.27
-277.782
-391.763
-390.382
-383.357
-385.769
-391.384
-393.546
-398.959
-397.742
-282.021
-285.151
-290.057
-289.099
-343.625
-283.694
-344.112
-320.416
-344.609
-340.674
-317.76
-349.068
-283.223
-343.233
-323.61
-346.449
-347.288
-326.999
-249.584
-246.42
-239.571
-243.377
-367.262
-366.412
-375.198
-374.252
-364.552
-366.59
-369.118
-367.304
-246.602
-251.563
-259.492
-256.536
-64.8075
-127.874
-117.441
-190.188
-339.586
-169.56
-158.778
-174.273
-146.477
-86.0112
-61.5735
-121.609
-145.906
-108.609
-135.509
-161.869
-101.043
-134.687
-60.23
-91.4453
-388.803
-321.428
-366.927
-383.577
-388.182
-368.122
-385.123
-390.686
-325.071
-368.977
-385.648
-389.263
-368.79
-385.672
-360.018
-294.194
-337.372
-354.825
-359.004
-339.503
-357.299
-362.228
-299.571
-341.039
-358.349
-361.239
-339.966
-357.557
-371.804
-329.042
-320.234
-370.061
-360.274
-331.833
-384.78
-352.186
-299.523
-320.181
-366.202
-355.866
-314.421
-357.001
-396.206
-329.76
-374.272
-391.237
-394.822
-374.05
-391.231
-394.354
-326.324
-372.131
-389.016
-393.642
-373.492
-390.631
-370.608
-306.765
-349.202
-366.12
-369.391
-348.592
-365.816
-368.27
-302.026
-346.178
-363.189
-367.581
-347.792
-365.109
-342.514
-282.527
-317.169
-344.954
-344.002
-314.393
-340.973
-345.837
-279.836
-312.63
-341.507
-341.062
-316.663
-347.484
-409.455
-340.915
-404.763
-387.38
-408.239
-404.247
-386.805
-407.514
-337.791
-401.71
-384.712
-406.612
-403.84
-386.859
-427.868
-430.122
-523.9
-505.831
-482.865
-483.511
-525.198
-799.984
-895.407
-899.251
-795.908
-804.776
-907.161
-808.058
-903.688
-815.642
-911.284
-813.515
-913.533
-427.399
-426.464
-476.848
-499.478
-513.663
-477.817
-516.093
-520.774
-480.272
-502.699
-480.263
-518.569
-312.074
-315.767
-387.71
-394.461
-360.093
-366.106
-359.137
-383.997
-396.883
-298.416
-367.995
-366.026
-301.396
-252.431
-167.437
-252.832
-167.361
-296.453
-363.109
-362.789
-296.791
-253.97
-170.117
-256.986
-167.92
-314.87
-314.578
-385.506
-357.936
-362.806
-391.606
-356.671
-393.356
-383.018
-386.771
-394.379
-358.02
-363.869
-358.39
-385.395
-395.281
-300.854
-366.979
-367.225
-301.154
-169.58
-256.862
-298.429
-297.925
-364.668
-339.273
-344.355
-371.001
-338.511
-372.623
-362.093
-365.929
-373.525
-340.53
-345.354
-340.038
-364.812
-374.129
-283.242
-347.634
-346.716
-284.676
-240.988
-163.02
-243.091
-161.028
-283.054
-348.816
-347.275
-284.986
-241.367
-162.22
-242.755
-161.689
-297.732
-300.429
-368.606
-342.862
-347.766
-375.743
-342.516
-376.405
-367.636
-367.55
-373.806
-341.903
-346.813
-341.093
-364.858
-375.403
-282.718
-348.154
-346.353
-285.29
-240.023
-161.383
-240.842
-161.125
-281.468
-344.586
-343.949
-282.211
-240.928
-163.247
-243.427
-161.185
-408.451
-407.248
-457.674
-480.02
-495.479
-458.232
-496.488
-498.002
-459.21
-481.6
-459.856
-496.989
-780.059
-878.939
-780.9
-877.907
-663.345
-660.145
-566.359
-634.411
-660.453
-633.325
-664.247
-662.12
-631.502
-564.925
-657.922
-658.982
-632.284
-661.288
-778.508
-875.102
-777.159
-876.392
-407.958
-409.98
-462.209
-484.547
-500.899
-462.769
-499.772
-498.009
-460.567
-482.861
-461.103
-499.088
-659.737
-654.67
-561.747
-629.153
-655.69
-629.874
-659.01
-776.357
-872.917
-775.331
-873.791
-660.374
-631.219
-563.065
-656.588
-656.911
-630.477
-660.815
-776.751
-874.484
-776.816
-874.309
-384.762
-319.486
-379.851
-363.221
-383.418
-379.901
-362.99
-382.796
-315.796
-377.652
-361.008
-382.176
-379.178
-362.24
-456.324
-495.19
-478.648
-456.868
-494.291
-401.953
-403.891
-492.35
-476.939
-454.501
-455.185
-493.461
-768.451
-864.197
-865.446
-766.874
-652.386
-647.256
-554.775
-621.474
-648.234
-622.57
-651.308
-653.55
-624.821
-649.579
-556.423
-649.935
-654.437
-623.647
-769.439
-867.429
-770.145
-866.758
-657.739
-653.309
-628.597
-559.9
-658.363
-653.676
-627.757
-774.374
-872.215
-774.775
-871.666
-656.563
-625.742
-558.474
-651.241
-652.194
-626.709
-655.525
-772.968
-868.82
-771.332
-870.282
-402.214
-401.01
-451.075
-473.385
-488.657
-451.705
-489.891
-491.86
-453.015
-475.295
-453.479
-490.626
-292.192
-295.059
-362.929
-337.775
-370.657
-342.713
-362.148
-337.389
-371.144
-361.716
-368.054
-336.561
-341.569
-335.675
-358.79
-369.768
-278.071
-342.868
-340.564
-281.177
-235.568
-159.005
-236.104
-158.807
-276.14
-337.587
-337.34
-276.506
-237.114
-161.529
-240.049
-159.248
-293.146
-292.432
-358.115
-333.321
-338.383
-364.065
-332.481
-365.867
-355.266
-359.722
-367.585
-334.854
-339.71
-334.413
-358.934
-367.93
-280.041
-342.54
-341.979
-281.069
-239.008
-162.158
-241.284
-160.125
-280.386
-345.072
-282.652
-343.197
-238.886
-160.995
-239.98
-160.572
-272.12
-270.064
-329.903
-308.924
-312.767
-333.646
-307.204
-335.576
-326.34
-332.435
-339.543
-310.584
-315.074
-310.713
-332.927
-339.129
-255.994
-313.433
-313.576
-256.39
-220.047
-152.969
-222.715
-151.296
-257.732
-319.656
-316.965
-260.612
-218.754
-151.666
-219.288
-150.911
-270.087
-273.943
-337.776
-315.292
-319.922
-345.065
-315.281
-344.833
-338.11
-335.579
-340.076
-313.679
-317.838
-312.147
-332.03
-341.975
-252.926
-314.533
-311.461
-256.48
-213.577
-149.519
-213.692
-148.791
-249.74
-305.712
-306.161
-249.645
-216.154
-151.623
-219.242
-149.955
-379.767
-377.874
-427.512
-449.182
-464.7
-427.559
-466.21
-468.479
-429.362
-452.266
-430.251
-466.953
-746.19
-842.965
-747.11
-842.428
-631.969
-627.448
-536.073
-603.255
-628.266
-601.956
-632.83
-744.477
-838.771
-742.662
-840.097
-379.075
-381.666
-433.765
-456.338
-472.696
-434.482
-471.306
-468.801
-431.566
-453.493
-431.916
-470.315
-739.606
-834.786
-738.319
-835.301
-740.465
-836.719
-741.494
-836.461
-353.521
-292.349
-350.76
-332.488
-353.046
-349.126
-330.725
-352.204
-286.54
-346.602
-328.124
-350.304
-350.043
-331.059
-425.272
-464.683
-448.67
-426.452
-463.306
-370.834
-373.593
-461.218
-445.367
-423.787
-423.594
-462.597
-732.391
-828.382
-827.689
-732.106
-732.656
-828.309
-732.693
-829.09
-736.719
-832.02
-737.462
-832.107
-735.339
-829.7
-733.606
-830.147
-372.001
-370.012
-421.011
-442.427
-459.039
-420.24
-460.013
-461.344
-421.443
-445.778
-423.009
-460.124
-261.158
-265.508
-326.511
-305.493
-333.162
-309.871
-327.456
-305.906
-332.512
-323.844
-326.825
-304.012
-307.301
-301.997
-319.98
-328.811
-239.735
-300.125
-296.391
-243.796
-201.743
-145.191
-201.408
-144.397
-235.458
-288.477
-289.54
-234.92
-205.224
-147.541
-208.641
-146.032
-263.948
-261.273
-317.108
-298.557
-301.343
-318.685
-296.409
-320.845
-313.106
-320.134
-326.285
-300.15
-304.223
-300.769
-321.398
-325.319
-243.909
-298.659
-299.237
-243.933
-210.861
-149.353
-213.758
-147.929
-246.61
-307.277
-249.872
-304.075
-208.754
-147.977
-208.94
-147.048
-256.274
-262.128
-217.538
-271.34
-245.79
-215.133
-260.144
-198.983
-244.188
-213.864
-207.901
-253.174
-243.963
-259.136
-220.99
-200.015
-165.005
-194.088
-205.846
-169.094
-144.11
-112.924
-146.738
-107.318
-173.738
-226.826
-218.921
-174.424
-137.009
-96.2021
-139.29
-100.707
-244.846
-245.853
-255.533
-261.18
-253.171
-258.858
-261.31
-250.283
-264.561
-243.679
-221.788
-257.36
-243.393
-254.627
-230.303
-235.343
-174.93
-186.882
-174.165
-168.713
-142.451
-87.3802
-153.601
-86.5869
-171.687
-183.991
-170.362
-184.83
-145.17
-93.6616
-140.35
-90.6084
-413.13
-420.716
-500.582
-514.879
-558.574
-490.503
-555.126
-537.147
-469.591
-517.596
-484.869
-546.721
-819.139
-904.876
-807.661
-917.327
-826.45
-929.41
-834.24
-921.517
-397.424
-392.208
-441.513
-484.889
-502.664
-450.039
-510.676
-527.178
-463.629
-484.809
-453.109
-517.655
-825.414
-890.398
-811.807
-902.596
-837.11
-924.393
-835.627
-924.815
-402.762
-375.034
-455.832
-395.76
-407.656
-430.14
-365.466
-303.883
-198.861
-268.211
-399.379
-288.433
-327.239
-391.485
-436.749
-348.88
-184.134
-207.636
-241.244
-225.232
-181.042
-205.565
-176.004
-153.415
-170.502
-231.666
-211.978
-202.413
-164.209
-158.502
-181.835
-327.304
-278.071
-351.527
-491.89
-441.821
-451.307
-419.858
-524.699
-453.602
-289.564
-349.398
-360.995
-500.577
-560.265
-539.109
-506.72
-551.192
-452.152
-452.762
-524.353
-534.904
-513.244
-508.925
-535.522
-526.859
-586.261
-574.095
-609.483
-537.735
-570.761
-576.847
-583.837
-748.814
-852.177
-791.243
-809.438
-678.984
-662.429
-615.813
-722.998
-513.224
-569.199
-553.437
-276.567
-309.985
-252.239
-267.303
-227.178
-255.23
-262.222
-287.091
-243.52
-298.692
-221.862
-299.893
-264.777
-269.642
-218.433
-238.779
-210.169
-171.168
-148.673
-92.8168
-151.563
-231.885
-193.084
-197.315
-60.1721
-114.792
-372.633
-240.307
-311.779
-262.058
-180.315
-159.11
-200.641
-159.501
-159.122
-96.4284
-155.693
-94.0341
-192.368
-198.488
-190.233
-205.515
-156.808
-35.9125
-121.972
-67.3287
-900.773
-904.34
-911.769
-908.706
-915.804
-885.605
-887.367
-890.282
-889.06
-894.954
-894.721
-892.076
-893.726
-897.378
-895.287
-892.128
-893.35
-894.481
-894.661
-892.967
-893.515
-401.322
-333.269
-395.769
-379.591
-400.567
-397.577
-380.74
-403.599
-338.543
-398.479
-382.335
-402.18
-398.202
-382.084
-301.876
-304.843
-374.622
-348.402
-353.314
-382.266
-347.952
-382.618
-374.067
-373.101
-379.081
-346.838
-351.958
-346.009
-370.084
-380.965
-285.274
-352.305
-350.323
-288.12
-241.799
-162.279
-242.555
-162.064
-283.804
-348.252
-284.466
-347.682
-242.907
-164.544
-245.702
-162.3
-303.029
-302.612
-370.136
-344.202
-349.2
-376.024
-343.394
-367.62
-377.7
-371.455
-378.713
-345.254
-350.22
-344.919
-370.331
-379.333
-287.007
-351.922
-351.506
-287.889
-244.83
-165.139
-247.193
-163.115
-287.583
-355.209
-353.138
-290.025
-244.463
-163.871
-245.481
-163.495
-413.937
-415.903
-468.927
-491.604
-508.38
-469.691
-507.718
-505.933
-467.238
-489.966
-467.942
-507.015
-784.286
-880.546
-782.322
-882.353
-666.853
-661.88
-568.597
-635.415
-662.996
-665.472
-636.724
-668.438
-639.704
-570.252
-664.451
-664.813
-638.24
-669.691
-785.922
-885.377
-884.113
-787.053
-414.089
-413.014
-463.673
-486.207
-501.423
-464.351
-502.747
-505.012
-465.656
-488.094
-466.061
-503.677
-791.841
-889.961
-889.838
-791.603
-790.715
-887.178
-888.88
-789.01
-421.722
-419.828
-470.423
-492.412
-508.257
-470.638
-509.025
-509.659
-471.373
-493.981
-472.565
-508.708
-790.595
-891.984
-792.471
-889.924
-788.463
-886.978
-887.962
-787.573
-420.617
-423.31
-474.661
-512.207
-496.77
-475.261
-510.229
-508.298
-472.956
-494.367
-473.055
-509.737
-791.182
-889.596
-889.594
-791.276
-790.162
-887.718
-888.637
-788.952
-311.114
-309.943
-377.371
-350.41
-355.63
-382.849
-349.909
-374.175
-385.047
-379.561
-387.409
-352.934
-357.351
-352.22
-379.046
-387.526
-294.207
-360.828
-360.595
-294.945
-250.701
-167.976
-253.26
-165.765
-294.89
-364.159
-297.239
-362.331
-250.253
-166.283
-251.16
-165.985
-310.94
-314.167
-384.561
-356.371
-391.5
-361.138
-383.654
-356.32
-392.089
-382.831
-388.16
-355.03
-359.703
-354.365
-379.564
-390.321
-291.772
-361.047
-358.63
-295.037
-246.497
-164.447
-247.006
-164.257
-289.616
-354.781
-289.762
-354.795
-248.186
-166.937
-251.237
-164.632
-883.986
-882.887
-879.975
-881.328
-877.793
-878.696
-879.394
-879.103
-869.101
-870.369
-872.294
-871.581
-877.147
-876.537
-873.664
-875.118
-849.603
-850.718
-852.855
-852.235
-858.574
-857.853
-854.517
-855.943
-867.762
-866.933
-863.82
-865.2
-859.827
-860.899
-862.555
-862.021
-375.95
-309.231
-370.83
-354.047
-375.334
-372.474
-355.375
-378.161
-313.497
-373.347
-356.623
-376.86
-373.291
-356.297
-278.343
-281.762
-347.376
-323.85
-328.623
-354.95
-323.604
-355.011
-347.246
-345.577
-350.933
-322.265
-326.918
-321.08
-342.289
-352.778
-262.773
-325.642
-322.939
-266.105
-222.27
-152.871
-222.599
-152.372
-260.238
-318.539
-260.36
-318.657
-224.275
-155.093
-227.282
-153.147
-279.806
-278.319
-340.727
-318.039
-322.553
-345.573
-316.761
-337.48
-347.447
-342.865
-350.395
-319.778
-324.431
-319.571
-342.792
-350.322
-265.364
-324.892
-324.759
-265.991
-227.394
-156.292
-229.962
-154.394
-266.545
-329.575
-327.202
-269.219
-226.507
-154.852
-227.248
-154.292
-387.44
-389.766
-442.068
-464.402
-480.872
-442.621
-479.669
-477.276
-439.851
-462.046
-440.439
-478.673
-749.735
-844.663
-748.031
-845.679
-635.079
-629.975
-538.27
-604.107
-630.592
-633.98
-605.385
-636.469
-607.963
-540.487
-632.339
-632.938
-606.603
-637.411
-750.811
-847.904
-847.388
-751.69
-387.874
-386.237
-435.77
-457.774
-473.04
-436.198
-474.521
-476.841
-437.951
-460.379
-438.538
-475.363
-641.318
-636.985
-544.721
-612.584
-637.491
-611.428
-642.166
-756.393
-853.602
-852.979
-757.184
-639.794
-608.905
-542.744
-634.647
-635.368
-610.119
-638.641
-754.736
-849.659
-851.041
-752.87
-395.416
-394.007
-443.786
-466.01
-481.287
-444.359
-482.591
-484.647
-445.843
-468.164
-446.366
-483.363
-765.101
-862.803
-765.859
-862.069
-649.461
-645.463
-620.666
-552.63
-650.289
-645.869
-619.586
-763.554
-859.008
-860.346
-761.895
-648.112
-617.391
-550.931
-643.204
-644.082
-618.429
-647.084
-395.061
-397.21
-449.535
-488.238
-471.792
-450.04
-487.112
-485.005
-447.492
-469.775
-448.125
-486.232
-644.189
-639.03
-546.949
-613.382
-639.89
-643.171
-614.482
-759.521
-854.948
-855.981
-758.04
-760.402
-857.679
-857.247
-760.997
-645.332
-616.668
-548.783
-641.329
-641.767
-615.515
-646.123
-286.775
-285.707
-349.903
-326.083
-330.992
-355.439
-325.089
-346.896
-357.276
-351.746
-359.546
-327.801
-332.568
-327.407
-351.3
-359.688
-273.315
-334.354
-334.067
-274.072
-233.785
-159.433
-236.235
-157.427
-274.151
-338.131
-276.681
-335.948
-233.209
-157.961
-234.041
-157.563
-285.725
-288.85
-355.788
-331.43
-363.556
-336.299
-355.376
-331.062
-363.788
-354.212
-360.086
-329.884
-334.82
-328.929
-351.068
-361.927
-270.919
-334.842
-332.357
-274.126
-229.302
-155.947
-229.784
-155.592
-268.72
-328.775
-268.981
-328.686
-231.068
-158.313
-234.021
-156.184
-848.058
-847.372
-843.687
-845.146
-840.838
-841.55
-841.968
-842.148
-834.519
-833.889
-833.316
-834.302
-838.332
-837.324
-834.479
-834.979
-908.917
-897.964
-878.005
-887.069
-851.505
-858.183
-870.83
-863.979
-834.521
-836.073
-837.208
-835.82
-846.908
-842.701
-837.704
-840.639
-346.842
-280.203
-340.712
-319.335
-343.304
-345.438
-323.112
-346.079
-286.038
-345.192
-324.231
-346.525
-342.395
-321.764
-242.14
-246.788
-293.985
-280.503
-281.291
-296.685
-280.948
-293.81
-296.89
-289.953
-284.426
-277.306
-277.202
-275.781
-285.029
-287.918
-184.654
-246.437
-239.735
-191.089
-149.749
-115.529
-148.755
-117.527
-175.972
-225.934
-176.546
-228.985
-156.981
-126.227
-163.221
-121.977
-245.495
-242.811
-275.494
-267.615
-263.549
-264.429
-266.179
-267.971
-269.941
-280.986
-281.967
-271.983
-269.333
-272.011
-284.979
-277.892
-196.733
-246.621
-249.242
-194.687
-174.381
-135.642
-179.598
-132.872
-203.538
-263.844
-258.052
-209.396
-168.802
-128.832
-166.301
-129.996
-366.994
-368.055
-420.56
-452.498
-467.312
-424.396
-469.382
-475.096
-426.62
-450.358
-423.57
-472.201
-785.58
-895.27
-796.326
-883.228
-778.057
-866.529
-876.091
-769.257
-370.366
-370.843
-438.556
-462.742
-494.98
-433.044
-488.577
-479.06
-426.931
-463.812
-432.049
-483.519
-753.836
-843.57
-850.637
-748.097
-758.335
-862.064
-854.843
-764.351
-366.975
-365.46
-421.37
-443.659
-464.223
-419.117
-463.058
-460.906
-417.997
-446.313
-420.902
-461.29
-733.396
-827.553
-732.503
-829.523
-733.561
-830.859
-829.015
-734.094
-365.084
-367.598
-418.911
-459.958
-444.724
-421.079
-459.382
-459.486
-419.789
-441.507
-418.531
-459.76
-740.199
-840.128
-835.338
-743.679
-737.815
-830.747
-834.432
-735.161
-254.829
-251.642
-300.751
-285.477
-286.923
-298.098
-283.618
-296.165
-301.051
-304.36
-308.574
-287.901
-290.504
-288.684
-306.655
-306.545
-226.252
-277.765
-279.224
-225.47
-197.585
-144.62
-201.045
-143.17
-230.597
-290.245
-234.68
-286.09
-194.048
-142.297
-193.461
-141.61
-251.644
-256.483
-312.767
-294.294
-318.073
-297.902
-314.591
-295.121
-316.645
-309.511
-309.461
-292.572
-294.689
-290.377
-305.193
-311.885
-219.001
-278.942
-273.954
-224.29
-182.801
-136.973
-181.298
-136.951
-212.87
-262.938
-211.275
-265.187
-187.813
-141.294
-192.293
-139.264
-922.889
-931.745
-941.761
-940.804
-894.698
-918.885
-942.337
-932.973
-265.406
-178.306
-601.256
-581.826
-865.036
-815.097
-665.76
-733.347
-427.855
-515.964
-532.872
-361.593
-365.015
-518.029
-424.79
-344.826
-290.912
-476.975
-452.287
-345.09
-290.339
-481.265
-339.312
-485.933
-452.188
-279.225
-283.604
-485.401
-332.66
-483.122
-559.844
-415.837
-591.672
-414.274
-484.523
-558.447
-283.611
-516.086
-285.371
-290.047
-519.248
-288.565
-279.97
-505.175
-277.994
-500.93
-271.303
-273.841
-212.642
-426.57
-216.573
-227.106
-433.054
-222.202
-354.197
-296.157
-476.309
-457.669
-351.457
-299.907
-477.935
-361.855
-487.864
-310.986
-462.824
-305.394
-366.52
-482.372
-207.145
-412.348
-204.723
-407.165
-201.717
-198.916
-499.37
-427.803
-610.35
-569.088
-571.242
-429.568
-498.371
-503.536
-614.357
-572.996
-432.689
-407.08
-341.85
-511.067
-508.478
-509.976
-346.731
-402.739
-414.549
-513.653
-356.565
-517.13
-418.201
-511.884
-352.553
-326.983
-572.531
-327.943
-575.811
-330.732
-493.688
-425.25
-566.674
-600.193
-495.168
-423.496
-564.797
-489.849
-561.448
-418.578
-597.969
-488.04
-420.526
-562.846
-292.962
-527.667
-294.382
-254.745
-480.962
-258.416
-266.612
-486.461
-263.759
-248.852
-461.585
-244.546
-233.472
-454.717
-238.355
-389.41
-335.525
-506.619
-490.542
-394.413
-329.935
-504.212
-380.576
-494.15
-317.404
-483.484
-375.269
-323.38
-499.777
-681.305
-676.643
-582.753
-647.997
-677.73
-651.018
-678.187
-685.378
-658.178
-680.617
-585.595
-681.31
-688.449
-655.001
-662.306
-683.399
-663.665
-692.475
-630.319
-599.259
-533.707
-625.372
-625.67
-600.569
-629.277
-625.79
-620.916
-529.25
-594.628
-620.883
-595.834
-624.899
-627.238
-598.383
-531.783
-622.589
-623.68
-597.008
-628.054
-619.047
-615.548
-522.674
-588.149
-613.811
-588.655
-619.256
-619.896
-590.147
-614.298
-525.18
-616.838
-619.929
-589.231
-623.126
-617.946
-594.011
-527.955
-623.791
-619.637
-592.808
-621.554
-590.663
-525.366
-617.401
-616.638
-591.654
-620.927
-686.804
-652.198
-570.276
-638.017
-665.965
-646.532
-678.39
-693.511
-661.914
-570.198
-674.627
-661.78
-653.364
-700.229
-706.506
-676.477
-584.822
-678.927
-667.968
-677.619
-703.968
-708.251
-668.649
-591.502
-667.401
-679.721
-675.304
-704.922
-674.286
-658.902
-676.639
-588.847
-694.764
-652.593
-662.839
-637.294
-620.545
-577.316
-582.703
-624.761
-639.679
-614.478
-673.282
-667.813
-573.608
-643.404
-668.384
-642.997
-673.449
-672.361
-641.161
-572.335
-666.167
-667.062
-642.152
-671.245
-673.587
-673.506
-645.522
-579.368
-675.337
-673.909
-643.499
-671.95
-641.584
-577.38
-670.858
-671.858
-642.206
-671.454
-673.251
-668.733
-574.836
-643.335
-669.525
-673.372
-643.306
-672.75
-642.702
-575.88
-669.661
-670.212
-642.742
-672.204
-661.399
-655.266
-550.137
-629.871
-643.704
-669.651
-622.37
-655.334
-611.585
-549.762
-634.162
-646.136
-616.964
-648.657
-635.965
-621.148
-535.363
-597.594
-629.823
-600.641
-631.411
-639.228
-607.602
-534.89
-636.511
-627.616
-603.63
-644.418
-620.043
-612.516
-588.502
-524.448
-619.167
-616.413
-588.382
-619.742
-588.804
-522.348
-616.963
-613.553
-588.416
-620.915
-625.131
-623.425
-525.987
-594.549
-617.784
-628.387
-592.415
-623.762
-589.8
-527.352
-614.223
-620.215
-590.835
-621.488
)
;

boundaryField
{
    left
    {
        type            calculated;
        value           nonuniform List<scalar> 0();
    }
    bottom
    {
        type            calculated;
        value           nonuniform List<scalar> 
214
(
-406.62
-375.355
-307.243
-409.507
-380.809
-316.938
-423.86
-397.555
-354.116
-420.044
-393.951
-345.263
-399.374
-396.809
-403.764
-370.846
-365.751
-369.151
-306.565
-289.074
-290.149
-412.652
-404.899
-401.969
-385.638
-379.882
-375.55
-326.257
-334.642
-324.101
-287.958
-415.213
-274.778
-276.993
-270.414
-273.758
-400.795
-394.039
-390.963
-250.599
-256.092
-240.949
-247.686
-362.1
-360.298
-354.529
-180.089
-198.024
-176.663
-241.259
-243.764
-159.078
-411.697
-408.242
-416.244
-282.508
-286.413
-277.917
-281.022
-387.574
-383.881
-389.983
-264.798
-268.876
-258.341
-262.986
-348.503
-342.102
-335.823
-227.805
-236.986
-206.96
-222.067
112.446
-93.076
228.565
-289.075
-290.975
-275.6
-276.4
-271.565
-272.924
-252.164
-254.729
-242.727
-246.137
-183.024
-191.73
-126.654
-178.068
-122.166
-144.05
-283.788
-285.392
-278.81
-280.061
-266.074
-267.795
-259.742
-261.769
-230.298
-235.05
-211.482
-218.748
-282.628
-218.705
-167.029
-218.483
-233.058
-267.954
-62.8926
24.2103
-44.0011
-100.625
-101.148
-103.973
-103.543
-99.2338
-111.871
-113.535
-112.813
-113.325