/*--------------------------------*- C++ -*----------------------------------*\
| =========                 |                                                 |
| \\      /  F ield         | OpenFOAM: The Open Source CFD Toolbox           |
|  \\    /   O peration     | Version:  2012                                  |
|   \\  /    A nd           | Website:  www.openfoam.com                      |
|    \\/     M anipulation  |                                                 |
\*---------------------------------------------------------------------------*/
FoamFile
{
    version     2.0;
    format      ascii;
    class       volVectorField;
    location    "0.104/solid";
    object      sigmaMaxDir;
}
// * * * * * * * * * * * * * * * * * * * * * * * * * * * * * * * * * * * * * //

dimensions      [1 -1 -2 0 0 0 0];


internalField   nonuniform List<vector> 
3125
(
(0.997691 -0.0678836 -0.00207788)
(0.998302 -0.0571373 0.0113472)
(0.99305 -0.0515223 0.105821)
(0.997654 -0.0684546 -0.000508206)
(0.998194 -0.0595187 0.00811011)
(0.995659 -0.037245 0.0853004)
(0.997302 -0.0731706 0.00586058)
(0.997844 -0.0656112 0.00160946)
(0.998443 -0.0465843 0.030686)
(0.997405 -0.0719095 0.00361843)
(0.997914 -0.0644991 0.00282521)
(0.998277 -0.0420271 0.0409463)
(0.000184819 0.00236516 0.999997)
(-0.0138101 0.00941283 0.99986)
(0.990415 0.133746 0.0344976)
(0.997732 -0.0672864 -0.00157125)
(-0.000965038 0.000676375 0.999999)
(0.990115 0.133942 0.0416243)
(-0.0115005 0.00904985 0.999893)
(0.0170515 -0.00854793 0.999818)
(0.00527675 0.00844645 0.99995)
(0.987433 0.13789 0.0772226)
(0.998401 -0.0542328 0.0159693)
(0.00774399 -0.00452334 0.99996)
(0.986098 0.13934 0.0905313)
(0.0156172 0.00616512 0.999859)
(0.286493 -0.176958 0.941598)
(0.649919 -0.0607588 0.757571)
(0.984231 0.117667 0.132074)
(0.986953 -0.0995737 0.126523)
(0.203034 -0.149611 0.967674)
(0.986858 0.0588664 0.150489)
(0.997334 -0.0201768 -0.0701207)
(0.998807 0.0456982 0.0171927)
(0.998808 0.0450243 0.018835)
(0.00134399 -0.000265844 0.999999)
(0.997592 -0.0693272 0.00193415)
(-0.010114 0.00891993 0.999909)
(0.989722 0.133507 0.0512478)
(-0.00032161 0.00251205 0.999997)
(0.989817 0.13263 0.0516928)
(-0.0057272 0.0083953 0.999948)
(0.998808 0.0457953 0.0169131)
(0.998852 0.0459085 0.0136437)
(0.998244 0.0489646 0.0333306)
(0.998413 0.0478091 0.0297612)
(0.00320292 -0.0016633 0.999993)
(0.998091 -0.0614924 0.00579073)
(0.000843812 0.00926364 0.999957)
(0.98732 0.137347 0.0795876)
(0.00738142 -0.00210627 0.999971)
(0.988571 0.136158 0.0647168)
(-0.003258 0.00970538 0.999948)
(0.998075 0.0493673 0.0375357)
(0.99781 0.0508661 0.0422923)
(0.995021 0.0399412 0.0913096)
(0.996724 0.0506956 0.0630229)
(0.114815 -0.0775791 0.990353)
(0.997102 -0.0349912 0.0675499)
(0.433585 -0.0592189 0.899165)
(0.984416 0.12667 0.121986)
(0.196904 -0.138201 0.970633)
(0.985079 0.139585 0.10068)
(0.290714 -0.0457963 0.955713)
(0.993503 0.0325452 0.109052)
(0.988522 -0.0115749 0.150632)
(0.980191 0.131886 0.147753)
(-0.00593736 0.00866853 0.999945)
(0.00161383 -2.27137e-06 0.999999)
(0.00543376 0.00489729 0.999973)
(-0.0750929 0.0507791 0.995883)
(0.0135145 0.00362695 0.999902)
(-0.0741106 0.0490128 0.996045)
(0.00167127 0.00180173 0.999997)
(0.00237006 0.00112994 0.999997)
(-0.000303249 0.000340378 1)
(0.997784 -0.0665292 3.40311e-05)
(0.98917 0.134813 0.058032)
(-0.00629608 0.00908117 0.999939)
(0.990192 0.134162 0.0389875)
(0.00141321 0.00171084 0.999998)
(-0.00970827 0.00912607 0.999911)
(0.00355244 0.00185556 0.999992)
(0.00227677 0.00122973 0.999997)
(-0.0685615 0.0464894 0.996563)
(0.0149464 0.00341827 0.999882)
(0.0233749 0.000124285 0.999727)
(-0.0348716 0.0198763 0.999194)
(0.00818478 0.00209197 0.999964)
(0.0127611 0.00216662 0.999916)
(0.0186255 -0.011816 0.999757)
(0.998462 -0.0507145 0.0223861)
(0.98528 0.141542 0.095858)
(0.059074 -0.00458634 0.998243)
(0.986151 0.140111 0.088737)
(0.0419164 -0.0250302 0.998808)
(0.0307273 0.00230097 0.999525)
(0.0254445 0.00129586 0.999675)
(0.0143985 0.0019589 0.999894)
(0.00285218 -0.0127555 0.999915)
(0.0416445 -0.0136333 0.999039)
(0.0828463 -0.0827222 0.993123)
(-0.126868 -0.0705387 0.989408)
(0.286513 -0.00488326 0.958064)
(0.377962 0.0394354 0.924981)
(0.383412 -0.164645 0.908783)
(0.915546 -0.27109 0.297131)
(0.993832 0.0158862 0.109748)
(0.963377 -0.0901578 -0.252539)
(0.241757 0.0889555 0.966251)
(-0.014095 -0.101772 0.994708)
(0.998093 0.0451371 0.0421126)
(0.99834 0.045685 0.0350627)
(0.99888 0.0451092 0.0142484)
(0.00245059 0.001742 0.999995)
(0.997499 -0.0706017 0.00339376)
(0.986032 0.133092 0.100138)
(-0.00637512 0.00894951 0.99994)
(0.00112603 -0.00142112 0.999998)
(0.9894 0.132619 0.0591549)
(-0.00129591 0.00794264 0.999968)
(-0.0735977 0.0487083 0.996098)
(0.0196456 0.000271453 0.999807)
(0.00235297 0.00230425 0.999995)
(0.00294996 0.000469855 0.999996)
(0.00424668 0.00318466 0.999986)
(0.0035007 -0.000182621 0.999994)
(0.0225103 -0.00218803 0.999744)
(-0.0721798 0.0488793 0.996193)
(0.998703 0.0466755 0.0203457)
(0.998774 0.0460477 0.0181945)
(0.998624 0.0468433 0.02357)
(0.998545 0.0475092 0.0255142)
(0.00337573 0.000457382 0.999994)
(0.997996 -0.0631373 0.00415672)
(0.989432 0.135077 0.0527049)
(-0.00592442 0.00948102 0.999938)
(0.00107447 -0.000298503 0.999999)
(0.988429 0.135747 0.0676794)
(-0.00376503 0.00947276 0.999948)
(-0.0548422 0.0362753 0.997836)
(0.0173082 0.00395196 0.999842)
(0.00764349 0.00215377 0.999968)
(0.00523413 0.00180772 0.999985)
(0.0034752 0.00171419 0.999992)
(0.00512399 0.00179922 0.999985)
(0.0164511 0.00387619 0.999857)
(-0.0638656 0.0432094 0.997023)
(0.0148389 0.00342869 0.999884)
(0.997397 0.052649 0.0492635)
(0.997598 0.0513589 0.046479)
(0.0246139 0.00344133 0.999691)
(0.0167066 0.00395439 0.999853)
(0.997232 0.0528342 0.0523092)
(0.996995 0.0519605 0.057451)
(0.278275 0.016568 0.960359)
(0.0772801 0.00245064 0.997006)
(0.0293647 0.00346307 0.999563)
(0.0562032 0.00242497 0.998416)
(0.10441 -0.0663882 0.992316)
(0.997879 -0.0376645 0.0530895)
(0.985454 0.141912 0.0934962)
(0.1039 -0.0149412 0.994476)
(0.0465543 -0.0307248 0.998443)
(0.985018 0.140915 0.0994156)
(0.179554 -0.02943 0.983308)
(0.0347117 -0.0822152 0.99601)
(0.115823 -0.0751422 0.990423)
(0.217824 -0.00761613 0.975958)
(0.0852961 -0.00437652 0.996346)
(0.0305713 0.000512505 0.999532)
(0.064311 -0.00266097 0.997926)
(0.0772118 -0.0419928 0.99613)
(0.0485579 -0.057306 0.997175)
(0.44774 0.0359616 0.89344)
(0.733878 0.0835736 0.674121)
(0.86636 -0.368141 0.337478)
(0.990088 -0.0417222 0.134109)
(0.703185 0.108425 0.702691)
(0.985368 -0.16713 0.0334435)
(0.816594 -0.529263 0.230336)
(0.973183 -0.225558 0.0451563)
(0.90709 -0.37604 0.189163)
(0.773673 -0.577655 0.260277)
(0.965307 -0.255326 0.0546829)
(0.0352995 0.00298085 0.999372)
(-0.000610017 0.000681133 1)
(0.00306312 0.00378859 0.999988)
(-0.00440346 0.00796939 0.999959)
(0.00257695 0.00216974 0.999994)
(-0.000922351 0.00168673 0.999998)
(-0.0216108 0.00915867 0.999725)
(-0.0244072 0.00905718 0.999661)
(-0.000154196 0.00272917 0.999996)
(0.00178896 0.00221928 0.999996)
(-0.00186261 0.00210545 0.999996)
(0.0331947 0.00306589 0.999444)
(-0.00538294 0.00823025 0.999952)
(0.00208276 0.0039256 0.99999)
(0.108036 0.0154559 0.994027)
(0.0121126 -0.00731429 0.9999)
(0.0211666 0.004593 0.999765)
(0.0083203 0.00364827 0.999959)
(0.0157232 -0.000455805 0.999876)
(0.0139925 0.00267834 0.999899)
(0.0332869 0.0172352 0.999297)
(0.01323 0.0151258 0.999798)
(0.0112589 -0.00449395 0.999927)
(0.0115241 0.00118557 0.999933)
(0.00923333 0.00285947 0.999953)
(0.084456 0.0121367 0.996353)
(0.00380737 0.00597149 0.999975)
(0.015317 0.00503904 0.99987)
(0.981228 0.108041 0.159747)
(0.206368 -0.181122 0.961565)
(0.433549 -0.00394473 0.901121)
(-0.00270258 -0.137916 0.99044)
(0.191656 -0.128429 0.973023)
(0.316864 -0.0449898 0.947403)
(0.996031 0.0819199 0.0348066)
(0.978282 0.13837 0.154334)
(0.203145 -0.17255 0.963825)
(0.205913 -0.0940952 0.974036)
(0.316621 -0.0252291 0.948216)
(0.94538 0.137941 0.295344)
(0.20149 -0.103038 0.974056)
(0.338525 -0.0327459 0.940388)
(-0.014816 0.0102629 0.999838)
(0.000660366 0.00210258 0.999998)
(0.0027257 0.00148513 0.999995)
(0.00580351 0.00160919 0.999982)
(0.0457718 0.00372705 0.998945)
(-0.00273093 0.00787847 0.999965)
(0.00455563 0.00420234 0.999981)
(0.0371943 0.00357743 0.999302)
(-0.000378241 0.000130889 1)
(-0.00478822 0.00809379 0.999956)
(0.00199391 0.0043752 0.999988)
(-0.0231313 0.00957045 0.999687)
(0.00317414 0.00187541 0.999993)
(-0.000691903 0.00239801 0.999997)
(-0.0051393 0.0126682 0.999907)
(0.00500583 -0.000422321 0.999987)
(0.00426773 0.00266091 0.999987)
(0.00733329 0.0022474 0.999971)
(0.0605326 0.0081332 0.998133)
(-0.000530235 0.00773667 0.99997)
(0.00893259 0.0049315 0.999948)
(0.0703203 0.00989049 0.997475)
(0.00506921 -0.00272336 0.999983)
(0.00137524 0.00706735 0.999974)
(0.0114018 0.00491793 0.999923)
(0.00188987 0.0136565 0.999905)
(0.00932777 0.00194874 0.999955)
(0.00634929 0.0028614 0.999976)
(0.93095 0.168425 0.323984)
(0.15307 -0.10117 0.983023)
(0.146737 -0.00867898 0.989137)
(0.103437 -0.048674 0.993444)
(0.856449 0.144289 0.495656)
(0.106523 -0.0550203 0.992787)
(0.19496 -0.00702588 0.980786)
(0.914861 0.149536 0.375059)
(0.16405 -0.114295 0.979808)
(0.150191 -0.0816077 0.985283)
(0.287273 -0.015889 0.957717)
(0.95452 0.160821 0.251054)
(0.146776 -0.0727242 0.986493)
(0.233394 -0.0138605 0.972284)
(0.00804827 0.0129421 0.999884)
(0.00460074 -0.000930672 0.999989)
(0.0115163 0.00450334 0.999924)
(0.00307362 0.00668354 0.999973)
(0.0414766 0.00490953 0.999127)
(0.00240866 -0.00305089 0.999992)
(0.0031038 0.00591979 0.999978)
(-0.0036552 0.00716659 0.999968)
(0.001971 0.00402358 0.99999)
(0.00402221 0.000398116 0.999992)
(-0.0147412 0.012156 0.999817)
(-0.0182293 0.00365776 0.999827)
(0.0060078 0.00470289 0.999971)
(-0.0186812 0.00512326 0.999812)
(0.0283407 0.00584985 0.999581)
(0.00639013 0.00224308 0.999977)
(-0.0154439 0.00443129 0.999871)
(-0.0208786 0.00368584 0.999775)
(0.0336738 0.00111412 0.999432)
(0.00661086 0.00523536 0.999964)
(-0.012035 0.0169744 0.999783)
(0.0311268 -0.00768818 0.999486)
(0.00786221 -0.00666823 0.999947)
(0.00364424 0.00719394 0.999967)
(-0.00564069 -0.00163871 0.999983)
(-0.0774612 0.0521672 0.99563)
(-0.0100036 0.0148368 0.99984)
(0.00178512 0.01046 0.999944)
(-0.00884601 0.00417968 0.999952)
(0.00366349 -0.000892966 0.999993)
(-0.0796505 0.0514556 0.995494)
(-0.0159127 0.0208937 0.999655)
(-0.0086789 0.0039665 0.999954)
(0.00115589 0.0110452 0.999938)
(-0.0144461 0.0202338 0.999691)
(0.0169522 0.00225576 0.999854)
(0.00472549 -0.000930286 0.999988)
(-0.025378 0.00214758 0.999676)
(0.0284137 -0.000945193 0.999596)
(0.0238533 0.00207963 0.999713)
(0.00185026 0.00157043 0.999997)
(-0.0219546 0.00105718 0.999758)
(0.0283509 -0.000470197 0.999598)
(-0.0257814 0.00214211 0.999665)
(-0.0214304 0.00107043 0.99977)
(0.00181211 0.000802434 0.999998)
(0.0242183 0.00101927 0.999706)
(-0.0185451 0.00993635 0.999779)
(-0.000255925 0.00191601 0.999998)
(0.000719707 0.00212139 0.999997)
(0.00320701 0.00215817 0.999993)
(0.0385903 0.00367147 0.999248)
(0.00381884 0.00424002 0.999984)
(-0.00369477 0.00803016 0.999961)
(0.0436699 0.00480125 0.999034)
(0.000318567 4.81416e-05 1)
(0.00485899 0.00439 0.999979)
(-0.00248636 0.0080305 0.999965)
(0.000752323 0.00230241 0.999997)
(0.00471681 0.00224847 0.999986)
(-0.015037 0.0106593 0.99983)
(0.0292485 -0.000853353 0.999572)
(-0.0248122 0.00224554 0.99969)
(0.00299768 0.00157377 0.999994)
(-0.0205357 0.00161188 0.999788)
(0.0257388 0.00200956 0.999667)
(0.0249434 0.00135302 0.999688)
(0.00285922 0.00186323 0.999994)
(-0.0210503 0.0016686 0.999777)
(-0.0242174 0.00213929 0.999704)
(0.0303722 -0.000535024 0.999539)
(-0.00811181 0.00379079 0.99996)
(0.00270998 0.0100688 0.999946)
(-0.0131675 0.0194178 0.999725)
(0.0205789 0.00153269 0.999787)
(0.00631447 -0.00166308 0.999979)
(0.0032225 0.00975021 0.999947)
(-0.00711312 0.00327496 0.999969)
(0.00450864 -0.00106943 0.999989)
(-0.0746773 0.0493508 0.995986)
(-0.0145645 0.0199329 0.999695)
(0.0129837 -0.00329837 0.99991)
(0.00111738 -0.00518898 0.999986)
(0.00980028 -0.00679933 0.999929)
(-0.0494361 0.0307223 0.998305)
(-0.00934202 0.0116297 0.999889)
(-0.00209432 -0.00132082 0.999997)
(0.00881985 0.00252613 0.999958)
(-0.00484101 0.00509395 0.999975)
(0.0337685 -0.00620572 0.99941)
(0.0141317 -0.0117137 0.999832)
(-0.0126235 -0.000303955 0.99992)
(0.043921 -0.00158991 0.999034)
(0.0329495 0.00223615 0.999455)
(0.00964291 0.00253363 0.99995)
(-0.0142464 0.00139746 0.999898)
(0.0391858 -0.00127966 0.999231)
(-0.0168102 0.000747792 0.999858)
(-0.0107763 0.000724579 0.999942)
(0.0108255 0.0021289 0.999939)
(0.0367512 0.0023282 0.999322)
(0.072928 0.0218133 0.997099)
(0.02118 0.00212532 0.999773)
(0.0266283 -0.0147206 0.999537)
(0.0214944 -0.00335695 0.999763)
(0.148136 0.020928 0.988746)
(0.0310151 0.00411879 0.99951)
(0.0151815 -3.25034e-05 0.999885)
(0.227034 0.0320411 0.97336)
(0.0294432 -0.0190072 0.999386)
(0.0471548 0.00244275 0.998885)
(0.0269893 -0.00650618 0.999615)
(0.0335133 0.000948611 0.999438)
(0.0316364 -0.00839589 0.999464)
(0.16745 0.0343082 0.985283)
(0.0505493 -0.00257316 0.998718)
(-0.00539195 -0.00172477 0.999984)
(0.0205965 0.00160371 0.999787)
(0.00501638 -0.00210506 0.999985)
(0.0510873 0.00153929 0.998693)
(0.0421219 0.00200186 0.99911)
(0.0172569 0.00228163 0.999848)
(-0.00487375 0.000107619 0.999988)
(0.00651241 -0.00464532 0.999968)
(0.0616752 -0.00389281 0.998089)
(0.00620122 -0.0114692 0.999915)
(0.0199506 -0.0124911 0.999723)
(0.0107703 -0.0209404 0.999723)
(0.0603093 -0.0268327 0.997819)
(0.0279816 -0.0320222 0.999095)
(0.031101 -0.0272018 0.999146)
(0.0145188 -0.0217563 0.999658)
(0.0185357 -0.0193619 0.999641)
(-0.0205013 0.00647259 0.999769)
(0.000568269 -0.00498203 0.999987)
(-0.054084 -0.191084 0.980083)
(0.218105 -0.135823 0.966428)
(0.101784 -0.147374 0.98383)
(-0.0220756 -0.0782522 0.996689)
(0.0788852 -0.128178 0.988609)
(0.154053 -0.144395 0.977455)
(0.19425 -0.130199 0.972273)
(-0.0395805 -0.1387 0.989543)
(-0.0107892 -0.0788927 0.996825)
(0.070627 -0.142303 0.9873)
(0.258025 -0.0172811 0.965984)
(0.353362 -0.0564524 0.933782)
(0.285524 -0.024527 0.958058)
(0.353075 0.00383782 0.935587)
(0.249598 -0.0315573 0.967835)
(0.319722 -0.0436688 0.946504)
(0.273759 -0.0549079 0.96023)
(0.18 0.0079284 0.983635)
(0.395971 0.0188934 0.918068)
(0.318962 -0.0269775 0.947384)
(0.997692 -0.0541049 -0.0410275)
(0.939285 0.0649025 0.336944)
(-0.163818 -0.232474 0.958707)
(0.0406395 -0.175104 0.983711)
(0.998603 0.018481 0.0495085)
(0.969598 0.000252111 -0.244702)
(-0.445944 -0.158582 0.8809)
(0.992647 -0.117154 0.0304279)
(0.999623 -0.0249047 -0.0115212)
(0.991021 0.0595697 -0.119705)
(0.983606 -0.175048 0.0433298)
(0.985008 -0.172198 0.0103551)
(0.92981 -0.335951 0.150302)
(0.885369 -0.355009 -0.300151)
(0.925312 -0.342906 0.161903)
(0.990841 -0.128751 0.0407223)
(-0.297221 0.0234185 0.954522)
(0.974289 0.0194315 -0.224464)
(-0.462024 0.0491602 0.885504)
(0.353829 -0.000194677 0.93531)
(0.755379 -0.0176947 -0.655049)
(0.999154 0.00882547 -0.0401722)
(0.8779 0.0529928 -0.475903)
(0.219017 0.0331069 0.975159)
(-0.348726 0.13813 0.92699)
(0.749044 -0.0336097 -0.661667)
(0.879401 0.0289751 -0.475198)
(0.0546871 -0.206045 0.977013)
(0.0055337 -0.186905 0.982362)
(0.907701 -0.393819 0.144863)
(-0.568574 0.363653 0.737889)
(-0.064147 -0.175915 0.982313)
(-0.031833 -0.144369 0.989012)
(0.870132 -0.466836 0.157906)
(-0.127982 -0.00940228 0.991732)
(0.0481352 0.00365279 0.998834)
(0.00246148 -0.000408349 0.999997)
(0.00787319 0.00314326 0.999964)
(0.000475167 0.0076698 0.99997)
(-0.00502762 0.0106615 0.999931)
(0.00434873 0.0009655 0.99999)
(0.00759691 0.00158846 0.99997)
(-0.0086591 0.0112211 0.9999)
(0.00281741 0.00139184 0.999995)
(0.000434027 0.00298253 0.999995)
(0.00355591 0.00135221 0.999993)
(0.0371709 0.00411485 0.9993)
(0.00602921 0.0037182 0.999975)
(-0.000859923 0.00777046 0.999969)
(-0.005999 0.00239937 0.999979)
(0.00296396 0.00967599 0.999949)
(-0.0142182 0.02019 0.999695)
(0.0212501 -6.04068e-05 0.999774)
(0.00580681 -0.00220635 0.999981)
(0.00151091 0.0105781 0.999943)
(-0.00756256 0.00282139 0.999967)
(0.00598417 -0.00294234 0.999978)
(-0.0755134 0.0497835 0.995901)
(-0.0138325 0.0193917 0.999716)
(0.0298014 -0.00171564 0.999554)
(-0.0242187 0.00261897 0.999703)
(-0.0218503 0.00219211 0.999759)
(0.00250852 0.00208309 0.999995)
(0.0249572 0.00260976 0.999685)
(-0.0253407 0.00267308 0.999675)
(0.0294901 -0.000201099 0.999565)
(0.0260426 7.34513e-05 0.999661)
(0.00300133 0.00190098 0.999994)
(-0.0206038 0.00216961 0.999785)
(-0.0231001 0.00145418 0.999732)
(0.0293188 -0.00254071 0.999567)
(0.0254723 0.00412323 0.999667)
(0.00379616 0.00120647 0.999992)
(-0.0190147 -0.000353516 0.999819)
(0.0305609 0.000242833 0.999533)
(-0.0225261 0.00107218 0.999746)
(-0.0190142 -0.000330337 0.999819)
(0.00326573 -0.000616419 0.999994)
(0.025725 -0.00117279 0.999668)
(0.00458526 0.00917036 0.999947)
(-0.00526589 0.00231544 0.999983)
(0.00598036 -0.00406213 0.999974)
(-0.0784688 0.0524832 0.995534)
(-0.0129137 0.0184991 0.999745)
(-0.0068083 0.000910793 0.999976)
(0.00486868 0.00910137 0.999947)
(-0.0118556 0.0184869 0.999759)
(0.0262641 -0.00306288 0.99965)
(0.00778651 -0.00361512 0.999963)
(0.0545819 0.00688221 0.998486)
(0.00210319 -0.000863694 0.999997)
(0.00733867 0.00459445 0.999963)
(-0.00120283 0.00787349 0.999968)
(-0.00909235 0.0118015 0.999889)
(0.0031244 0.00249381 0.999992)
(0.00669748 0.00232887 0.999975)
(-0.0121092 0.0112857 0.999863)
(0.00235644 0.00129207 0.999996)
(0.00177404 0.00242367 0.999995)
(0.00545122 0.00239427 0.999982)
(0.0486978 0.00583228 0.998797)
(0.00609141 0.00456588 0.999971)
(-0.00202944 0.00811707 0.999965)
(-0.00525583 0.00199702 0.999984)
(0.00482443 0.00783704 0.999958)
(-0.0107525 0.0152019 0.999827)
(0.0229324 0.00149667 0.999736)
(0.00886931 -0.00436075 0.999951)
(0.0062523 0.00583944 0.999963)
(-0.00400243 0.00075525 0.999992)
(0.00665322 -0.0027463 0.999974)
(-0.0633691 0.0417035 0.997118)
(-0.0128328 0.0175176 0.999764)
(0.0340308 -0.000926479 0.99942)
(-0.0214605 0.00165839 0.999768)
(-0.0166343 0.00144898 0.999861)
(0.00657882 0.00190648 0.999977)
(0.0306199 0.00230897 0.999528)
(-0.0196998 0.00126073 0.999805)
(0.0363067 -0.000879203 0.99934)
(0.0288365 0.00197059 0.999582)
(0.00607055 0.00229192 0.999979)
(-0.018118 0.00166813 0.999834)
(-0.0226756 0.00181846 0.999741)
(0.0325512 -0.000805173 0.99947)
(0.0264376 0.00189275 0.999649)
(0.00411041 0.00197053 0.99999)
(-0.0198789 0.00147294 0.999801)
(0.0311962 -0.000755531 0.999513)
(-0.0235454 0.00194875 0.999721)
(-0.0190814 0.0014474 0.999817)
(0.00437672 0.00149367 0.999989)
(0.0276308 0.00183777 0.999617)
(0.00396156 0.00877579 0.999954)
(-0.00586348 0.0026212 0.999979)
(0.00561591 -0.00162123 0.999983)
(-0.0698965 0.0465672 0.996467)
(-0.0138094 0.0192919 0.999719)
(-0.00645427 0.00312603 0.999974)
(0.00362869 0.00949877 0.999948)
(-0.0125886 0.0184409 0.999751)
(0.0205635 0.00252372 0.999785)
(0.00711707 -0.00226671 0.999972)
(0.021948 0.00360844 0.999753)
(0.0191223 0.00413825 0.999809)
(0.171743 0.0085854 0.985104)
(0.111185 0.00493325 0.993787)
(0.0351843 0.00383897 0.999373)
(0.0438966 0.00314469 0.999031)
(0.675043 0.109067 0.729672)
(0.0739534 -0.0491912 0.996048)
(0.120839 -0.00333356 0.992667)
(0.0720794 -0.0323261 0.996875)
(0.846258 0.154709 0.509816)
(0.088494 -0.00436179 0.996067)
(0.0704256 -0.0296279 0.997077)
(0.454408 0.0818007 0.88703)
(0.0665283 -0.0409838 0.996942)
(0.0537216 -0.00118525 0.998555)
(0.0467246 -0.0166569 0.998769)
(0.39253 0.0581733 0.917897)
(0.0745696 0.0005313 0.997216)
(0.0448249 -0.0165079 0.998858)
(0.0741317 -0.0928563 0.992916)
(0.100247 -0.113662 0.988449)
(0.0705149 -0.129289 0.989097)
(0.121864 -0.0833421 0.989042)
(0.0960947 -0.135965 0.986042)
(0.133667 -0.1375 0.981441)
(0.107496 -0.126888 0.986075)
(0.0772595 -0.107633 0.991184)
(0.0591554 -0.0749868 0.995428)
(0.0605535 -0.106304 0.992488)
(0.15912 -0.018259 0.98709)
(0.132434 -0.0253657 0.990867)
(0.193652 -0.0282543 0.980663)
(0.159577 -0.0059005 0.987168)
(0.20235 -0.0124704 0.979234)
(0.218661 -0.041471 0.974919)
(0.236582 -0.0278895 0.971211)
(0.132313 -0.00742135 0.99118)
(0.116553 -0.00441006 0.993175)
(0.111475 -0.0158486 0.993641)
(0.0654671 -0.0160908 0.997725)
(0.109073 -0.0106975 0.993976)
(0.0653352 -0.000255838 0.997863)
(0.0383712 0.000311975 0.999264)
(0.0222358 -0.00451926 0.999743)
(0.0791214 -0.00677217 0.996842)
(0.0276994 -0.00850497 0.99958)
(0.0538481 -0.0104142 0.998495)
(0.0487506 -0.00120959 0.99881)
(0.0898137 -0.00235731 0.995956)
(0.0718748 -0.0789709 0.994282)
(0.0470033 -0.0613465 0.997009)
(0.0396634 -0.0505922 0.997931)
(0.0254111 -0.0345913 0.999078)
(0.0240304 -0.0436775 0.998757)
(0.0275296 -0.0377056 0.99891)
(0.0479393 -0.0489587 0.99765)
(0.0424594 -0.073662 0.996379)
(0.100843 -0.0600523 0.993088)
(0.0577842 -0.0766319 0.995384)
(0.619433 0.0587539 0.782847)
(0.713588 0.0730638 0.696745)
(0.998409 -0.0459914 0.0326092)
(0.978394 -0.20073 0.0495259)
(0.999708 -0.0110191 0.0214902)
(0.781212 0.112415 0.614061)
(0.0268088 0.004131 0.999632)
(-0.00102727 0.00194617 0.999998)
(-0.00291104 0.00300647 0.999991)
(-0.0122933 0.00178581 0.999923)
(0.0103038 0.00480896 0.999935)
(0.00243976 -0.000356231 0.999997)
(-0.0235575 0.00382424 0.999715)
(0.993859 0.095583 -0.0557521)
(0.998999 0.0447095 0.00162447)
(0.009367 0.00555769 0.999941)
(0.990318 0.133772 0.0370897)
(0.991802 0.0958902 0.0844604)
(0.998912 0.045074 0.0119361)
(0.00870821 0.00497793 0.99995)
(-0.0244867 0.00510833 0.999687)
(0.000587268 0.00250978 0.999997)
(0.00881716 0.00210502 0.999959)
(0.00134121 -0.00115128 0.999998)
(0.0226284 0.00235352 0.999741)
(-0.0123641 0.00134079 0.999923)
(-0.00320577 0.00367096 0.999988)
(0.991667 0.0965384 0.0853008)
(0.0112089 0.00505883 0.999924)
(0.990537 0.133846 0.0303705)
(0.99888 0.0455201 0.0128994)
(0.998983 0.0450768 0.00119363)
(0.0099177 0.00468256 0.99994)
(0.994172 0.096543 -0.047978)
(0.048915 0.00618936 0.998784)
(0.0146035 -0.00695273 0.999869)
(0.0104564 -0.00528254 0.999931)
(-0.00101513 -0.00926235 0.999957)
(0.0248607 -0.00316196 0.999686)
(0.0161231 -0.00674895 0.999847)
(-0.01176 0.000249035 0.999931)
(0.994172 0.106004 0.0196457)
(0.998544 0.0510998 0.0172648)
(0.0524816 0.0153825 0.998503)
(0.986788 0.138299 0.084399)
(0.98807 0.105125 0.112543)
(0.998226 0.0523284 0.0283917)
(0.0613359 0.0173775 0.997966)
(-0.0153311 0.00532174 0.999868)
(0.0105607 -0.00251667 0.999941)
(0.0166825 -0.00278869 0.999857)
(0.00886934 -0.00518525 0.999947)
(0.0348426 0.00302154 0.999388)
(-0.00536149 -0.00342038 0.99998)
(0.00505441 -4.86745e-05 0.999987)
(0.279322 -0.0844744 0.956474)
(0.233147 -0.184185 0.95484)
(0.257901 -0.116847 0.95908)
(0.187734 -0.185813 0.964484)
(0.1973 -0.181743 0.96335)
(0.22236 -0.152031 0.963038)
(0.218863 -0.0716391 0.973122)
(0.207879 -0.0605717 0.976277)
(0.211863 -0.151474 0.965489)
(0.181156 -0.144368 0.9728)
(0.197482 -0.124977 0.972307)
(0.284256 -0.0456524 0.957661)
(0.155822 -0.149828 0.976356)
(0.199431 -0.123131 0.972145)
(0.99917 -0.0367786 0.0175021)
(0.998731 0.0453665 0.0218653)
(0.999281 -0.0370946 -0.0078906)
(0.99926 -0.037526 -0.00847703)
(0.998816 0.0451207 0.0181689)
(0.999141 -0.0372499 0.0181804)
(-0.0196761 0.0055253 0.999791)
(0.00272548 0.00191568 0.999994)
(0.00371312 -0.00223447 0.999991)
(0.0113572 0.000951797 0.999935)
(0.0274519 0.00210127 0.999621)
(-0.00984001 0.000577438 0.999951)
(-0.000790273 0.00323902 0.999994)
(0.990322 0.0952837 0.100917)
(0.998905 0.0447296 0.0137375)
(0.0110833 0.00634428 0.999918)
(0.989776 0.133175 0.0510658)
(0.994157 0.0950271 -0.0512058)
(0.999014 0.0442141 0.00390611)
(0.0138513 0.00675716 0.999881)
(0.0254335 0.00390062 0.999669)
(-0.00146471 0.00178033 0.999997)
(-0.0127291 0.00201714 0.999917)
(-0.00354796 0.00318034 0.999989)
(-0.0245567 0.00398422 0.99969)
(0.00964567 0.00461067 0.999943)
(0.00183452 -0.000415365 0.999998)
(0.999284 -0.0367229 -0.00905954)
(0.998878 0.0457497 0.0122209)
(0.999199 -0.036601 0.0161873)
(0.99884 0.0457398 0.0150551)
(0.999204 -0.0363499 0.0164264)
(0.999284 -0.0365758 -0.00969487)
(-0.0196351 0.0055791 0.999792)
(0.00535537 0.000363039 0.999986)
(0.00510392 -0.00306551 0.999982)
(0.0127979 -3.89859e-05 0.999918)
(0.0294497 0.00302492 0.999562)
(-0.00907155 -0.000667728 0.999959)
(0.000876992 0.00203838 0.999998)
(0.988594 0.103266 0.109625)
(0.99839 0.0508168 0.0251825)
(0.0450728 0.0136887 0.99889)
(0.987981 0.136932 0.0717109)
(0.994552 0.103961 0.00763163)
(0.998665 0.0497279 0.0139708)
(0.0402075 0.0125861 0.999112)
(0.0374823 0.00605671 0.999279)
(0.00583532 -0.00157042 0.999982)
(-0.00792123 -0.00271415 0.999965)
(0.00268476 -0.000495888 0.999996)
(-0.0187999 0.00277342 0.999819)
(0.0168464 0.00187161 0.999856)
(0.00851221 -0.00290323 0.99996)
(0.994761 0.10218 -0.00310562)
(0.031351 0.0104458 0.999454)
(0.998758 0.0485772 0.0110955)
(0.987932 0.136467 0.0732579)
(0.998521 0.0494929 0.0224798)
(0.989099 0.101681 0.106513)
(0.0348795 0.0114657 0.999326)
(0.103758 -0.0201291 0.994399)
(0.131604 -0.0816774 0.987932)
(0.104826 -0.0588766 0.992746)
(0.10662 -0.0722858 0.991669)
(0.166235 -0.00953559 0.98604)
(0.0872145 -0.0802986 0.992948)
(0.110632 -0.0595648 0.992075)
(0.276613 -0.0212568 0.960746)
(0.185986 -0.130067 0.973905)
(0.140729 -0.134913 0.980813)
(0.179878 -0.111178 0.977386)
(0.179784 -0.0552593 0.982153)
(0.168548 -0.120148 0.978344)
(0.180529 -0.104047 0.978051)
(0.0233845 0.00291166 0.999722)
(0.00042684 -0.000875826 1)
(-0.002355 0.00154245 0.999996)
(-0.0114495 -0.000265393 0.999934)
(0.00284657 -0.00193277 0.999994)
(0.0098779 0.00221492 0.999949)
(-0.0238986 0.00352035 0.999708)
(-0.000749426 0.0021776 0.999997)
(0.00635882 -0.00366432 0.999973)
(0.000864507 0.00401803 0.999992)
(6.28004e-05 -0.00033036 1)
(-0.000138492 0.00714453 0.999974)
(-0.000974324 0.00292457 0.999995)
(-0.00179868 -0.00119356 0.999998)
(-0.000143789 0.00519565 0.999986)
(-0.00305135 0.00383496 0.999988)
(0.00411989 -0.00190307 0.99999)
(0.00364919 -0.00237049 0.999991)
(-0.00355667 0.00412298 0.999985)
(-0.0230858 0.00511331 0.99972)
(0.00208646 -0.00149729 0.999997)
(0.00147824 0.00220893 0.999996)
(0.00969323 0.00184216 0.999951)
(0.0243426 0.00244794 0.999701)
(-0.00227872 0.00342262 0.999992)
(-0.011641 0.000960943 0.999932)
(0.990207 0.0983409 0.0990948)
(0.998763 0.0467907 0.0168015)
(0.989693 0.134599 0.0488964)
(0.0186526 0.00749655 0.999798)
(0.0172843 0.00708458 0.999826)
(0.998919 0.0461933 0.00519169)
(0.994747 0.0984158 -0.0281475)
(0.994507 0.0974988 -0.0380876)
(0.0130291 0.00568379 0.999899)
(0.998955 0.0455986 0.00296474)
(0.98962 0.134322 0.051085)
(0.990969 0.0974661 0.0920876)
(0.0148355 0.00650274 0.999869)
(0.998823 0.046118 0.0150542)
(0.0291156 0.00471589 0.999565)
(0.000118692 0.00140473 0.999999)
(-0.00196723 0.00239954 0.999995)
(-0.0115246 0.00108028 0.999933)
(0.00350704 -0.000768082 0.999994)
(0.0115234 0.00436299 0.999924)
(-0.0223692 0.00384159 0.999742)
(0.0042098 -0.0026577 0.999988)
(-0.0028165 0.00386381 0.999989)
(-0.00192128 0.003258 0.999993)
(0.00530624 -0.00244328 0.999983)
(-0.00115735 -0.0014935 0.999998)
(0.000609281 0.00488495 0.999988)
(0.00094656 0.006521 0.999978)
(0.000182851 0.00250673 0.999997)
(0.014908 -0.00700268 0.999864)
(0.0141254 -0.00846194 0.999864)
(0.00618551 -0.00793729 0.999949)
(0.00903954 -0.00065752 0.999959)
(0.0117377 -0.00429263 0.999922)
(0.0185149 -0.00912209 0.999787)
(0.0118513 -0.00655929 0.999908)
(0.00495951 0.000119337 0.999988)
(-0.00457982 0.00317248 0.999984)
(0.018067 -0.0105075 0.999782)
(0.0231061 -0.0101701 0.999681)
(0.0261256 -0.0100071 0.999609)
(0.0474406 0.00179903 0.998872)
(0.0153063 -0.00561024 0.999867)
(0.00414821 -0.0110335 0.999931)
(0.077259 0.00465584 0.997)
(0.0366015 -0.021436 0.9991)
(0.0312372 -0.0174748 0.999359)
(0.0179956 -0.0256712 0.999508)
(0.0354826 -0.017182 0.999223)
(0.044635 -0.0169602 0.998859)
(0.00931806 -0.00625296 0.999937)
(0.0215978 -0.0120761 0.999694)
(0.0154951 -0.00563302 0.999864)
(0.0332089 -0.0168931 0.999306)
(0.0380667 -0.020523 0.999064)
(0.0162401 -0.0181793 0.999703)
(0.0206797 -0.0109499 0.999726)
(0.0369319 -0.0292836 0.998889)
(0.0345899 -0.0279823 0.99901)
(0.219982 -0.229449 0.948136)
(0.191151 -0.221903 0.956149)
(0.166371 -0.178792 0.969719)
(0.172 -0.170112 0.970298)
(0.266876 -0.120397 0.956181)
(0.245079 -0.15668 0.956759)
(0.214039 -0.137924 0.967039)
(0.214224 -0.133739 0.967586)
(0.953609 0.0924403 0.286505)
(0.330207 -0.120435 0.936194)
(0.396538 -0.212099 0.89318)
(0.326051 -0.177955 0.928452)
(0.518478 -0.0307173 0.854539)
(0.308154 -0.126217 0.942927)
(0.249995 -0.25118 0.9351)
(0.985695 -0.155217 0.0656688)
(0.889108 -0.360203 0.282385)
(0.973254 -0.161219 0.163659)
(0.959682 -0.182207 0.214036)
(0.9897 -0.0992812 0.103137)
(0.972091 -0.209926 0.104742)
(0.937631 -0.27074 0.218053)
(0.996847 -0.0768646 0.0197052)
(0.993847 0.0946039 0.0576068)
(0.990019 -0.0801176 0.115944)
(0.999444 -0.0329586 0.00505136)
(0.997107 -0.0225563 0.0725828)
(0.995891 0.0301614 -0.0853944)
(0.990732 -0.122763 0.0581373)
(0.990806 -0.135191 0.00517292)
(-0.525467 -0.0958583 0.845396)
(0.985269 -0.12875 0.112556)
(0.958342 -0.248172 0.141393)
(0.997925 -0.0640501 0.00651022)
(0.970439 -0.187304 -0.152204)
(0.961458 -0.22239 0.161685)
(0.303056 -0.129037 0.944196)
(0.302257 -0.105523 0.947368)
(0.32018 -0.230513 0.918885)
(0.236618 -0.305298 0.922391)
(0.99927 -0.0379794 -0.00407213)
(0.998726 0.0456364 0.0215536)
(0.999093 -0.0376907 0.0198339)
(0.999144 -0.0375905 0.0172673)
(0.99881 0.0453025 0.0180626)
(0.999251 -0.0377293 -0.00858815)
(0.0319997 0.00419448 0.999479)
(0.00174742 0.00129095 0.999998)
(-0.000348756 0.00242502 0.999997)
(-0.0093546 0.0009878 0.999956)
(-0.0178338 0.00435226 0.999831)
(0.00524503 -0.00116849 0.999986)
(0.0131577 0.00390274 0.999906)
(-0.0208007 0.00529338 0.99977)
(0.00293445 0.000704767 0.999995)
(0.00289659 -0.00231771 0.999993)
(0.00926054 -6.74677e-05 0.999957)
(0.0216183 0.00143016 0.999765)