/*--------------------------------*- C++ -*----------------------------------*\
| =========                 |                                                 |
| \\      /  F ield         | OpenFOAM: The Open Source CFD Toolbox           |
|  \\    /   O peration     | Version:  2012                                  |
|   \\  /    A nd           | Website:  www.openfoam.com                      |
|    \\/     M anipulation  |                                                 |
\*---------------------------------------------------------------------------*/
FoamFile
{
    version     2.0;
    format      ascii;
    class       volVectorField;
    location    "0.104/solid";
    object      sigmaMidDir;
}
// * * * * * * * * * * * * * * * * * * * * * * * * * * * * * * * * * * * * * //

dimensions      [1 -1 -2 0 0 0 0];


internalField   nonuniform List<vector> 
3125
(
(0.00248899 0.0059721 0.999979)
(-0.0108506 0.00899384 0.999901)
(-0.10955 -0.0759342 0.991077)
(0.000931558 0.00615264 0.999981)
(-0.00760288 0.00874359 0.999933)
(-0.087087 -0.049315 0.994979)
(-0.00531374 0.00766587 0.999956)
(-0.00116495 0.00681268 0.999976)
(-0.0305106 0.00447146 0.999524)
(-0.00311056 0.00717346 0.999969)
(-0.0023574 0.00732791 0.99997)
(-0.0410389 -0.00134185 0.999157)
(0.994862 0.101235 -0.000423307)
(0.988662 -0.1494 0.0150619)
(-0.0346711 -0.00103207 0.999398)
(0.00197273 0.00590069 0.999981)
(0.997848 0.0655656 0.000918615)
(-0.0416017 -0.00296839 0.99913)
(0.98891 -0.147973 0.0127134)
(0.98724 0.158483 -0.015482)
(0.993056 -0.117566 -0.0042473)
(-0.07704 -0.00666837 0.997006)
(-0.0155205 0.00868692 0.999842)
(0.995383 0.0957034 -0.00727563)
(-0.0901268 -0.00922317 0.995888)
(0.993974 -0.108603 -0.0148557)
(0.957466 0.0176391 -0.288006)
(0.759972 0.0611344 -0.647075)
(-0.125107 -0.0647805 0.990026)
(-0.13835 -0.122537 0.982774)
(0.939008 0.309889 -0.149107)
(-0.150949 0.00342025 0.988536)
(0.066975 -0.128206 0.989483)
(-0.0173547 0.0031497 0.999844)
(-0.0189125 0.00129658 0.99982)
(0.998135 0.061029 -0.00132526)
(-0.00151036 0.00616476 0.99998)
(0.988481 -0.150917 0.0113447)
(-0.0513172 -0.0029233 0.998678)
(0.995744 0.0921673 8.87131e-05)
(-0.0514779 -0.00505144 0.998661)
(0.988111 -0.153585 0.00694886)
(-0.0170677 0.00298754 0.99985)
(-0.0137528 0.00206087 0.999903)
(-0.0335041 0.00272537 0.999435)
(-0.0299209 0.00262743 0.999549)
(0.996234 0.0866511 -0.00304676)
(-0.00528977 0.00830637 0.999952)
(0.992186 -0.124768 0.000318604)
(-0.0793774 -0.00701569 0.99682)
(0.990845 0.134822 -0.00703007)
(-0.0646191 -0.00514167 0.997897)
(0.991423 -0.130615 0.00449796)
(-0.0377168 0.00274139 0.999285)
(-0.0424526 0.00207393 0.999096)
(-0.0898233 -0.0375486 0.99525)
(-0.0622785 -0.0161332 0.997928)
(0.971147 0.218539 -0.0954689)
(-0.068521 -0.0273386 0.997275)
(0.901106 0.0246425 -0.432898)
(-0.115217 -0.0594823 0.991558)
(0.926558 0.349865 -0.138148)
(-0.0970692 -0.0324561 0.994748)
(0.956567 -0.00861845 -0.291386)
(-0.107705 -0.0405986 0.993354)
(-0.149959 0.0458277 0.987629)
(-0.147331 -0.0130034 0.989002)
(0.986229 -0.165225 0.00728826)
(0.997252 0.0740672 -0.00160923)
(0.989383 0.145206 -0.00608735)
(0.850205 -0.518606 0.0905515)
(0.862756 -0.505526 -0.00982715)
(0.859599 -0.503208 0.08872)
(0.989322 0.145732 -0.001916)
(0.989316 0.145768 -0.00250946)
(0.997186 0.074968 0.000276878)
(0.000385002 0.00628565 0.99998)
(-0.0579763 -0.00434198 0.998309)
(0.989656 -0.143261 0.00753239)
(-0.0390195 -0.0023916 0.999236)
(0.994138 0.108108 -0.00158988)
(0.989228 -0.145975 0.0109368)
(0.989191 0.146586 -0.00378607)
(0.989275 0.146042 -0.00243195)
(0.863311 -0.497864 0.0826192)
(0.86324 -0.504671 -0.0111785)
(0.884323 -0.46642 -0.0206186)
(0.895612 -0.443027 0.0400695)
(0.988747 0.149359 -0.00840543)
(0.988543 0.150385 -0.0129418)
(0.993686 0.110869 -0.0172021)
(-0.0220348 0.00747412 0.999729)
(-0.094879 -0.0136648 0.995395)
(0.994836 -0.0824003 -0.059251)
(-0.0882827 -0.00946695 0.99605)
(0.980198 0.194673 -0.0362569)
(0.994804 -0.097176 -0.0303585)
(0.987993 0.152405 -0.0253448)
(0.988431 0.150975 -0.0145292)
(0.923542 -0.383424 -0.00752551)
(0.901042 -0.431551 -0.0434486)
(0.995119 -0.0467486 -0.0869067)
(0.951678 -0.289887 0.101363)
(0.947486 0.149718 -0.282586)
(0.923374 0.0565428 -0.379716)
(0.922073 0.0121034 -0.386826)
(-0.347583 -0.161531 0.923631)
(-0.110576 0.067352 0.991583)
(0.233978 -0.177429 0.955915)
(0.970279 -0.0113058 -0.241724)
(0.933111 -0.358819 -0.02349)
(-0.0423573 0.00447741 0.999092)
(-0.0352709 0.00376032 0.999371)
(-0.0143013 0.000849129 0.999897)
(0.996028 0.0890027 -0.00259591)
(-0.00295397 0.00633269 0.999976)
(-0.0999352 -0.0082189 0.99496)
(0.986726 -0.16221 0.00774266)
(0.999329 0.036623 -0.00107323)
(-0.058771 -0.00681031 0.998248)
(0.987444 -0.157951 0.00253426)
(0.859328 -0.503775 0.0881265)
(0.860046 -0.509941 -0.0167609)
(0.989357 0.145482 -0.00266317)
(0.989455 0.144807 -0.0029869)
(0.989217 0.146386 -0.00466714)
(0.98942 0.145038 -0.00343719)
(0.854832 -0.518505 -0.0203822)
(0.855833 -0.509879 0.0870277)
(-0.0204931 0.00268249 0.999786)
(-0.0183134 0.00216046 0.99983)
(-0.0237225 0.00270287 0.999715)
(-0.0256636 0.002538 0.999667)
(0.992857 0.119263 -0.00340618)
(-0.0036729 0.00777701 0.999963)
(-0.0527012 -0.00360557 0.998604)
(0.990162 -0.139744 0.0071915)
(0.996822 0.0796521 -0.00104728)
(-0.0675322 -0.00569458 0.997701)
(0.990758 -0.135549 0.00501451)
(0.879598 -0.47119 0.0654734)
(0.87422 -0.48535 -0.0132152)
(0.988839 0.14878 -0.00787887)
(0.989011 0.147744 -0.00544377)
(0.989155 0.146827 -0.00368923)
(0.989076 0.147307 -0.00533313)
(0.867398 -0.497462 -0.0123431)
(0.869873 -0.487255 0.0768377)
(0.989956 0.140558 -0.0151735)
(-0.0492876 -0.000841676 0.998784)
(-0.0466244 0.00163642 0.998911)
(0.98967 0.141191 -0.0248532)
(0.989969 0.140243 -0.0170962)
(-0.0522585 -0.00234162 0.998631)
(-0.0569316 -0.0114234 0.998313)
(0.951384 0.132683 -0.277963)
(0.987375 0.138492 -0.076874)
(0.989483 0.141594 -0.0295592)
(0.988641 0.139474 -0.0559917)
(0.961593 0.26141 -0.0836886)
(-0.0535583 -0.0115482 0.998498)
(-0.0922719 -0.0151977 0.995618)
(0.992499 -0.063208 -0.104643)
(0.988947 0.142276 -0.0417333)
(-0.0965975 -0.0267168 0.994965)
(0.982796 -0.0386094 -0.180616)
(0.997077 -0.0650189 -0.0401159)
(0.972387 -0.194815 -0.128494)
(0.964963 0.151561 -0.214187)
(0.984715 0.152783 -0.0836293)
(0.987775 0.152912 -0.0302901)
(0.986272 0.152575 -0.0631531)
(0.930376 -0.356102 -0.0871269)
(0.966728 -0.248342 -0.0613471)
(0.885222 0.123125 -0.448578)
(-0.676423 -0.0010429 0.736513)
(-0.420584 -0.173423 0.890524)
(-0.127836 0.127776 0.98353)
(0.710707 -0.0784855 -0.699096)
(-0.0380183 -0.0242477 0.998983)
(-0.391534 -0.214689 0.894768)
(-0.0475144 -0.0050339 0.998858)
(-0.261499 -0.151256 0.953278)
(-0.466105 -0.240665 0.851367)
(-0.0592174 -0.0101005 0.998194)
(0.986525 0.159752 -0.0353222)
(0.997555 0.0698891 0.000560922)
(0.963523 0.267597 -0.00396525)
(0.974194 0.2257 0.00249123)
(0.97416 0.225839 -0.00300039)
(0.963638 0.26721 0.000438103)
(0.986791 0.160778 0.0198583)
(0.986969 0.159309 0.022654)
(0.995442 0.0953731 -0.000106797)
(0.9751 0.221755 -0.00223656)
(0.963926 0.266167 0.00123502)
(0.986808 0.15844 -0.033261)
(0.975202 0.22129 0.00342835)
(0.963908 0.266219 -0.00305269)
(0.978677 0.174051 -0.109074)
(0.994539 0.103754 -0.0112887)
(0.960473 0.277531 -0.0216097)
(0.9666 0.256134 -0.00897721)
(0.966042 0.257944 -0.0150736)
(0.960696 0.277238 -0.0141865)
(0.983765 0.175853 -0.0358025)
(0.98481 0.172932 -0.0156479)
(0.989161 0.146457 -0.0104795)
(0.967733 0.251719 -0.0114514)
(0.961329 0.275234 -0.00966374)
(0.981527 0.171262 -0.0852854)
(0.968177 0.250212 -0.00518047)
(0.96116 0.275519 -0.0161125)
(-0.144249 -0.138619 0.979784)
(0.968887 0.175055 -0.174966)
(0.886863 0.179108 -0.425905)
(0.99689 0.0776404 0.0135314)
(0.968493 0.185382 -0.166295)
(0.924454 0.238009 -0.297886)
(-0.0269605 -0.0950076 0.995111)
(-0.138106 -0.120116 0.983107)
(0.945308 0.291113 -0.147125)
(0.944977 0.277683 -0.172945)
(0.909384 0.292367 -0.295876)
(-0.274309 -0.152817 0.949422)
(0.957546 0.230043 -0.17374)
(0.908041 0.273392 -0.317361)
(0.987436 0.157485 0.0130157)
(0.995335 0.0964729 -0.00086013)
(0.964295 0.264813 -0.00302167)
(0.976087 0.217298 -0.00601452)
(0.986644 0.156323 -0.0457914)
(0.976124 0.21721 0.000954477)
(0.964188 0.265164 -0.0055069)
(0.986767 0.157801 -0.0372926)
(0.99768 0.0680704 0.000368454)
(0.97583 0.21851 0.00290404)
(0.96406 0.265666 -0.00308463)
(0.987148 0.158381 0.0213249)
(0.975359 0.220597 -0.00350966)
(0.963992 0.265932 2.92832e-05)
(0.985761 0.168128 0.00293652)
(0.991857 0.127259 -0.00491139)
(0.962226 0.272208 -0.00483091)
(0.970227 0.242074 -0.00765922)
(0.984092 0.166843 -0.0610406)
(0.970603 0.240682 -0.00134747)
(0.962148 0.272345 -0.00993806)
(0.983075 0.168894 -0.0709798)
(0.995761 0.091854 -0.00479765)
(0.969528 0.244959 -0.00306463)
(0.961711 0.273789 -0.0123126)
(0.985381 0.170316 -0.00418856)
(0.969068 0.246611 -0.00952025)
(0.961805 0.273648 -0.00688996)
(-0.3101 -0.103808 0.945019)
(0.94327 0.311542 -0.114817)
(0.946301 0.29244 -0.137816)
(0.952343 0.293005 -0.0848017)
(-0.478485 -0.138512 0.867102)
(0.953864 0.287536 -0.0864114)
(0.937772 0.294307 -0.184301)
(-0.355524 -0.141987 0.92382)
(0.952473 0.276803 -0.127184)
(0.95247 0.279105 -0.122072)
(0.916056 0.296682 -0.269855)
(-0.234011 -0.117654 0.965089)
(0.948688 0.292734 -0.119571)
(0.929349 0.297347 -0.218849)
(0.988446 0.151249 -0.00991391)
(0.994767 0.102074 -0.00448171)
(0.965254 0.261024 -0.0122926)
(0.978475 0.206317 -0.00438651)
(0.987478 0.152132 -0.0417406)
(0.99812 0.0612463 -0.0022173)
(0.965072 0.261945 -0.00454615)
(0.979181 0.202977 0.00212452)
(0.964903 0.262589 -0.0029584)
(0.977679 0.210064 -0.00401609)
(0.988285 0.152086 0.0127221)
(0.974957 0.221745 0.0169647)
(0.989653 0.143326 -0.00661988)
(0.963303 0.267901 0.0166262)
(0.963794 0.265079 -0.0288774)
(0.989811 0.142233 -0.00664422)
(0.964496 0.263739 0.0137286)
(0.974915 0.221716 0.0195421)
(0.974445 0.222176 -0.0330796)
(-0.696609 0.71745 0.000849106)
(-0.69332 0.720336 -0.0205759)
(0.851312 -0.52377 -0.0305412)
(-0.695947 0.71802 0.0102602)
(-0.703864 0.71033 -0.00254511)
(-0.69902 0.715097 -0.00277117)
(0.846159 -0.524696 0.0933243)
(-0.690387 0.723226 -0.0176396)
(0.7162 -0.697869 0.00602157)
(0.716762 -0.697257 0.00925524)
(-0.701047 0.713108 0.00320508)
(0.858586 -0.503841 0.0947391)
(-0.699849 0.713815 -0.0260597)
(0.718395 -0.695577 0.0089943)
(0.715909 -0.698159 0.0068842)
(-0.699215 0.71449 -0.0245654)
(0.862294 -0.506228 -0.0134779)
(-0.702356 0.711815 0.00398121)
(0.973738 0.226378 0.0242332)
(0.973695 0.226195 -0.0274636)
(0.962812 0.269145 -0.0235327)
(0.989347 0.145564 -0.00205916)
(0.963025 0.268604 0.0208639)
(0.97385 0.225518 -0.0275145)
(0.974062 0.224935 0.0246391)
(0.962814 0.269398 0.0203498)
(0.989328 0.145692 -0.00190969)
(0.962748 0.269367 -0.0235976)
(0.986623 0.16216 0.0166894)
(0.963236 0.268657 -0.000268233)
(0.994355 0.106102 -0.000940732)
(0.973212 0.229883 -0.00361725)
(0.986155 0.161255 -0.0386771)
(0.963178 0.268823 -0.00481811)
(0.973432 0.228971 0.00175801)
(0.985739 0.162464 -0.0438695)
(0.996893 0.0787647 -0.000321369)
(0.962993 0.269462 -0.00586224)
(0.972973 0.230918 0.000564799)
(0.962964 0.269628 -0.00134526)
(0.972543 0.232666 -0.00511052)
(0.9865 0.163237 0.0130962)
(0.973357 0.227544 -0.0282871)
(0.973534 0.227314 0.0236524)
(0.989227 0.146355 -0.00319573)
(0.962543 0.270438 0.0193347)
(0.962329 0.270705 -0.0253216)
(0.962498 0.270192 -0.0243811)
(0.989268 0.146083 -0.00310074)
(0.962668 0.269958 0.0198184)
(0.973452 0.227725 0.0230942)
(0.973133 0.228351 -0.0294477)
(0.717298 -0.696716 0.00846002)
(0.717207 -0.696842 0.00507302)
(-0.700027 0.713743 -0.0230833)
(0.864438 -0.502452 -0.0170227)
(-0.703834 0.710342 0.00562582)
(0.721929 -0.691953 0.0044205)
(0.718729 -0.695251 0.00738955)
(-0.7021 0.712067 0.00392707)
(0.860242 -0.501992 0.089373)
(-0.700348 0.713383 -0.0244275)
(0.775674 -0.631016 -0.0121536)
(0.76604 -0.64278 -0.00419139)
(0.715687 -0.698322 -0.0117629)
(0.885955 -0.460126 0.0580327)
(0.711762 -0.702264 0.014818)
(0.753149 -0.657849 0.000708436)
(0.759079 -0.650979 -0.00505071)
(0.71566 -0.698414 0.00702237)
(0.891089 -0.452633 -0.0329191)
(0.721848 -0.69181 -0.0183077)
(0.972104 0.234224 0.0123435)
(0.971014 0.235247 -0.0423148)
(0.960996 0.27467 -0.0322961)
(0.9887 0.149577 -0.00991342)
(0.961669 0.273889 0.013319)
(0.971634 0.233449 -0.0378046)
(0.972449 0.232555 0.0161754)
(0.961277 0.275398 0.01016)
(0.98863 0.149962 -0.0110223)
(0.960508 0.275919 -0.0359666)
(0.980935 0.179002 -0.0756618)
(0.959942 0.279416 -0.0209302)
(0.984319 0.174803 -0.0236485)
(0.964136 0.264666 -0.0198397)
(0.972783 0.177046 -0.149492)
(0.959531 0.279901 -0.0309279)
(0.964712 0.262902 -0.0146389)
(0.956674 0.179739 -0.229059)
(0.991867 0.124416 -0.0268554)
(0.958131 0.282625 -0.045922)
(0.962445 0.270395 -0.0242258)
(0.958843 0.282078 -0.0324198)
(0.961787 0.272347 -0.028156)
(0.968485 0.181185 -0.170904)
(0.970155 0.237588 -0.0484914)
(0.971724 0.236052 0.00564672)
(0.988114 0.152335 -0.0206004)
(0.960666 0.277673 -0.00423462)
(0.958946 0.279237 -0.0494845)
(0.959765 0.277791 -0.0410198)
(0.988265 0.151752 -0.0174032)
(0.961014 0.276459 0.00465405)
(0.971204 0.238193 -0.00521856)
(0.968943 0.240157 -0.0589376)
(0.785362 -0.618921 -0.0119698)
(0.798791 -0.601152 -0.0234519)
(0.733119 -0.67974 -0.0221361)
(0.913208 -0.402113 -0.0660086)
(0.740391 -0.670849 -0.0422375)
(0.832772 -0.5521 -0.0409531)
(0.81222 -0.582838 -0.0244812)
(0.728877 -0.684121 -0.0267658)
(0.907197 -0.420165 0.0213232)
(0.723657 -0.690149 -0.00384962)
(0.998348 -0.029401 0.0493597)
(0.964661 0.180024 -0.192406)
(0.921479 -0.358689 -0.149063)
(0.997037 -0.0752013 0.0161791)
(0.931141 -0.344699 -0.118991)
(0.987374 0.0594331 -0.146837)
(0.972926 0.152102 -0.174012)
(0.953736 -0.30062 -0.00398817)
(0.988449 -0.151546 -0.00129541)
(0.972255 -0.211456 -0.100029)
(0.955517 0.152415 -0.252502)
(0.902115 0.284796 -0.324161)
(0.918016 0.294036 -0.266063)
(0.926207 0.139875 -0.350109)
(0.936373 0.26259 -0.232922)
(0.908014 0.299531 -0.292901)
(0.929681 0.270951 -0.249556)
(0.973705 0.140513 -0.179316)
(0.911498 0.113046 -0.395464)
(0.918231 0.256399 -0.301846)
(0.0326023 -0.148316 0.988402)
(-0.332489 -0.0705765 0.940463)
(0.947463 -0.30773 0.0872761)
(0.998433 0.0450198 -0.033234)
(-0.0466779 -0.130749 0.990316)
(0.244578 -0.0328367 0.969073)
(0.887056 -0.209632 0.411322)
(-0.0359522 -0.0453327 0.998325)
(0.0145998 0.1272 0.99177)
(0.113682 0.0958875 0.988879)
(-0.0461113 -0.0118518 0.998866)
(-0.0126554 -0.012266 0.999845)
(-0.190659 -0.0903637 0.977488)
(0.251527 -0.177173 0.951496)
(-0.217757 -0.130953 0.967178)
(-0.0488435 -0.0605607 0.996969)
(0.768758 -0.587032 0.25378)
(0.223784 0.032061 0.974111)
(0.800608 -0.406411 0.440291)
(0.929551 0.110879 -0.351627)
(0.655275 0.0140459 0.75526)
(0.0388053 0.121452 0.991838)
(0.469551 0.0995797 0.877272)
(0.969102 0.108835 -0.221352)
(0.937133 0.0375622 0.346945)
(0.656461 0.172418 0.734392)
(0.475908 -0.0266368 0.879091)
(0.996168 -0.0556235 -0.0674899)
(0.816393 -0.566458 -0.112373)
(-0.189774 -0.0773711 0.978774)
(0.550383 -0.498492 0.669764)
(0.745771 -0.662521 -0.0699454)
(0.907709 -0.418389 -0.0318574)
(-0.203011 -0.0475786 0.97802)
(0.766618 -0.635346 0.0929079)
(0.987004 0.153322 -0.0481258)
(0.999147 0.041211 -0.00244256)
(0.964672 0.263317 -0.00842302)
(0.97756 0.210649 -0.0020802)
(0.987915 0.154961 0.00331498)
(0.964894 0.2626 -0.00444965)
(0.97795 0.208693 -0.00776113)
(0.98833 0.152177 0.00685114)
(0.997504 0.0705522 -0.00290859)
(0.96507 0.261989 -0.00120026)
(0.979027 0.203697 -0.0037568)
(0.987746 0.151534 -0.0373651)
(0.965166 0.261549 -0.00679185)
(0.979472 0.201577 -0.000724096)
(0.713647 -0.700481 0.005962)
(0.714406 -0.699716 0.00465321)
(-0.698158 0.715529 -0.0243805)
(0.861502 -0.507423 -0.0183418)
(-0.701268 0.712876 0.00564509)
(0.7172 -0.696839 0.00628795)
(0.715753 -0.698315 0.00738338)
(-0.700123 0.713995 0.00629061)
(0.857398 -0.506663 0.0903388)
(-0.698073 0.715639 -0.0235402)
(0.973987 0.224784 -0.0286533)
(0.974158 0.224692 0.0230112)
(0.963054 0.268531 0.0204593)
(0.989417 0.14507 -0.00278418)
(0.963005 0.268344 -0.024742)
(0.974121 0.224741 0.024092)
(0.973846 0.225393 -0.0286859)
(0.963038 0.268194 -0.0251082)
(0.989463 0.14475 -0.0032449)
(0.96331 0.267698 0.0192712)
(0.974528 0.223164 0.0221931)
(0.97437 0.223201 -0.0280124)
(0.962757 0.269148 -0.0256419)
(0.989254 0.146157 -0.00393173)
(0.963225 0.268064 0.0184135)
(0.974477 0.222492 -0.0298489)
(0.975079 0.220789 0.0217336)
(0.963416 0.267377 0.0184102)
(0.989315 0.145762 -0.003141)
(0.96283 0.268997 -0.0244614)
(0.712131 -0.70204 0.00317282)
(0.709381 -0.704805 0.00536755)
(-0.698725 0.715355 0.00708468)
(0.852211 -0.514629 0.0943025)
(-0.697029 0.716697 -0.0222651)
(-0.705983 0.708207 -0.00545171)
(0.707822 -0.706384 0.00298306)
(-0.69662 0.717118 -0.0215213)
(0.857015 -0.514728 -0.0240937)
(-0.700697 0.713414 0.00803536)
(0.984746 0.165089 -0.0549688)
(0.996474 0.0838755 -0.00202333)
(0.962515 0.2711 -0.00830945)
(0.971544 0.23686 -0.000696335)
(0.986069 0.166187 0.0070052)
(0.962559 0.271049 -0.00368339)
(0.97115 0.238367 -0.00705956)
(0.986316 0.164558 0.0100877)
(0.993492 0.113875 -0.00248825)
(0.962812 0.270163 -0.00236286)
(0.971978 0.235 -0.00586122)
(0.985311 0.16359 -0.0489956)
(0.96281 0.270088 -0.00709826)
(0.972326 0.233629 7.68974e-05)
(0.735512 -0.677491 0.00521877)
(0.738589 -0.674154 0.00172018)
(0.707278 -0.706697 0.0183513)
(0.878279 -0.477753 -0.0194312)
(0.712297 -0.701815 -0.00937848)
(0.747892 -0.66382 -0.000799745)
(0.74239 -0.669959 0.00347738)
(0.708558 -0.705621 -0.00665221)
(0.87356 -0.480804 0.0756259)
(-0.705601 0.708285 -0.0214673)
(0.972483 0.230639 -0.0328997)
(0.97297 0.230021 0.0205037)
(0.961886 0.273005 0.0156069)
(0.988911 0.148353 -0.00678886)
(0.961452 0.273323 -0.0300849)
(0.972718 0.231221 0.0188745)
(0.972107 0.231893 -0.0351133)
(0.961748 0.272473 -0.0282822)
(0.988984 0.147886 -0.00634275)
(0.96216 0.271956 0.0169816)
(0.973172 0.229055 0.0216563)
(0.972799 0.229499 -0.0314977)
(0.962156 0.271258 -0.0259596)
(0.989162 0.146765 -0.00435511)
(0.962536 0.270506 0.0187394)
(0.972992 0.228856 -0.0301955)
(0.973383 0.22808 0.0224805)
(0.962335 0.271272 0.0179733)
(0.989119 0.14705 -0.00454879)
(0.962046 0.271541 -0.0270915)
(0.732369 -0.680901 0.00307426)
(0.728414 -0.685111 0.00606697)
(-0.70444 0.709745 0.00510683)
(0.865578 -0.493714 0.0837878)
(-0.702099 0.711693 -0.0234321)
(0.723953 -0.689815 0.00682915)
(0.725938 -0.68775 0.00389877)
(-0.702652 0.711195 -0.021966)
(0.870072 -0.492643 -0.016652)
(-0.70692 0.707263 0.00663454)
(0.989865 0.140263 -0.0222371)
(0.989992 0.139766 -0.019513)
(0.975874 0.135354 -0.171313)
(0.984345 0.137066 -0.110809)
(0.989357 0.141142 -0.0353739)
(0.98913 0.140339 -0.0439033)
(0.712614 0.159715 -0.683135)
(0.982712 0.173582 -0.0643907)
(0.95028 0.2895 -0.114707)
(0.956659 0.284975 -0.0599306)
(-0.496835 -0.116334 0.860013)
(0.953903 0.288269 -0.0834857)
(0.955909 0.287681 -0.0589694)
(0.870558 0.170261 -0.461671)
(0.973138 0.223371 -0.0557571)
(0.957198 0.284877 -0.0511584)
(0.959083 0.280258 -0.040194)
(0.900582 0.17832 -0.396427)
(0.955642 0.285693 -0.071613)
(0.95976 0.278175 -0.038473)
(0.953204 -0.286032 -0.0979162)
(0.974203 -0.190664 -0.120726)
(0.857386 -0.498925 -0.126342)
(0.987091 -0.0941573 -0.129558)
(0.860585 -0.486426 -0.150941)
(0.990253 -0.020586 -0.137751)
(0.983768 -0.129762 -0.123943)
(0.814621 -0.566363 -0.124998)
(0.986373 -0.148964 -0.0698389)
(0.812306 -0.572593 -0.11089)
(0.954672 0.257606 -0.149129)
(0.958667 0.257265 -0.121544)
(0.941896 0.285 -0.177785)
(0.975863 0.15196 -0.156841)
(0.937792 0.290539 -0.190087)
(0.940793 0.274174 -0.199344)
(0.935859 0.275205 -0.220067)
(0.950251 0.285431 -0.124712)
(0.981627 0.152621 -0.11452)
(0.953795 0.282434 -0.1025)
(0.967426 0.246062 -0.0595105)
(0.963122 0.248566 -0.103012)
(0.957593 0.281235 -0.0626264)
(0.987489 0.153051 -0.0379669)
(0.960216 0.278534 -0.0200976)
(0.966947 0.243669 -0.0750932)
(0.970138 0.24128 -0.0248306)
(0.958922 0.279441 -0.0487994)
(0.987065 0.152971 -0.047992)
(0.955349 0.282844 -0.0854824)
(0.933564 -0.345608 -0.0949355)
(0.902589 -0.424986 -0.0687016)
(0.755918 -0.65162 -0.0630796)
(0.943415 -0.32972 -0.0354112)
(0.750327 -0.659402 -0.0468899)
(0.851514 -0.52255 -0.043192)
(0.880313 -0.46987 -0.0653594)
(0.774244 -0.627885 -0.0794127)
(0.95063 -0.288633 -0.113985)
(0.78021 -0.618578 -0.0929156)
(0.776607 0.0999868 -0.622)
(-0.694303 -0.058926 0.717266)
(-0.0257924 0.141717 0.989571)
(-0.0500355 0.00253715 0.998744)
(-0.0198275 0.133559 0.990842)
(-0.623889 0.106384 0.774239)
(0.92182 0.386724 -0.0263202)
(0.997305 0.0733654 0.000881724)
(0.986304 0.164921 0.00237536)
(0.998818 -0.0470176 0.0123637)
(0.999144 -0.0401123 -0.0101028)
(0.985003 0.172519 -0.00234172)
(0.921896 0.386908 0.0202437)
(0.0551423 0.00901152 0.998438)
(-0.00160886 -0.000385164 0.999999)
(0.973692 0.227632 -0.0103863)
(-0.0371856 -0.00178214 0.999307)
(-0.0846738 -0.00184846 0.996407)
(-0.01237 0.00935983 0.99988)
(0.973679 0.227721 -0.00961306)
(0.922496 0.385454 0.0206264)
(0.99577 0.0918811 -0.000815388)
(0.999155 -0.0401549 -0.00872555)
(0.985321 0.170706 -0.00112499)
(0.922752 0.384777 -0.0217916)
(0.998315 -0.0566794 0.0124202)
(0.98695 0.161004 0.00257293)
(-0.0854524 -0.00257007 0.996339)
(0.97354 0.228197 -0.0120676)
(-0.0304401 -0.0015263 0.999535)
(-0.0133201 0.00895212 0.999871)
(-0.00114933 -0.00100861 0.999999)
(0.973606 0.227982 -0.0107241)
(0.047427 0.00799542 0.998843)
(0.917255 0.395474 -0.0473728)
(0.994079 0.10778 -0.0137695)
(0.982792 0.184481 -0.00930254)
(0.999991 -0.0041731 0.000976507)
(0.999554 0.0166365 -0.0248048)
(0.979794 0.199487 -0.0144532)
(0.9187 0.39481 0.0107064)
(-0.0200247 0.00251139 0.999796)
(-0.0172942 0.000132763 0.99985)
(0.97109 0.232381 -0.0546207)
(-0.0841517 -0.00764523 0.996424)
(-0.112679 -0.00466974 0.993621)
(-0.0289526 0.0099923 0.999531)
(0.970465 0.232682 -0.0636973)
(0.919062 0.393931 0.0119954)
(0.990343 0.138268 -0.0101113)
(0.999823 0.00871669 -0.0166577)
(0.981058 0.19356 -0.00769809)
(0.918669 0.393628 -0.0332185)
(0.999856 -0.0161259 0.00530567)
(0.983715 0.179666 -0.00496342)
(0.933294 0.25803 -0.249764)
(0.971785 0.0080423 -0.235733)
(0.964778 0.0844329 -0.249147)
(0.967121 -0.136542 -0.214553)
(0.973544 -0.0792128 -0.214332)
(0.965463 0.171901 -0.195782)
(0.957686 0.206812 -0.200166)
(0.911375 0.374451 -0.170828)
(0.92708 0.34376 -0.149503)
(0.969298 0.19344 -0.151797)
(0.933528 0.326705 -0.147612)
(0.882591 0.402604 -0.242781)
(0.982023 0.130104 -0.136761)
(0.940054 0.304105 -0.15433)
(-0.0171763 0.00915594 0.999811)
(-0.0220095 0.00268076 0.999754)
(0.00793663 0.00109396 0.999968)
(0.0084857 7.18162e-05 0.999964)
(-0.0182967 0.00241951 0.99983)
(-0.0178708 0.00862798 0.999803)
(0.922905 0.384693 0.016037)
(0.99573 0.0922679 -0.00289062)
(0.985553 0.169335 -0.00328114)
(0.998982 -0.043668 -0.0113048)
(0.92306 0.383766 -0.026156)
(0.998163 -0.0597781 0.00985693)
(0.987209 0.159433 0.000263758)
(-0.101058 -0.00336023 0.994875)
(-0.014187 0.009747 0.999852)
(0.973739 0.227338 -0.0122356)
(-0.0511036 -0.00313651 0.998688)
(0.050576 0.00902651 0.998679)
(-0.00388846 -0.000485256 0.999992)
(0.973763 0.227067 -0.015024)
(0.922715 0.384674 -0.0249766)
(0.997814 0.0660666 0.00134389)
(0.998365 -0.0557108 0.0128218)
(0.987023 0.160552 0.00299134)
(0.922956 0.384324 0.02114)
(0.998828 -0.047478 -0.009416)
(0.985611 0.169023 -0.00173792)
(0.00910824 0.00115907 0.999958)
(-0.0123626 0.00281438 0.99992)
(-0.0158775 0.00873778 0.999836)
(-0.0151619 0.00198864 0.999883)
(-0.016134 0.00832159 0.999835)
(0.00971892 0.000479841 0.999953)
(0.92007 0.391431 0.0158851)
(0.992622 0.121128 -0.00535992)
(0.982702 0.185139 -0.00444817)
(0.999874 -0.00939876 -0.0127977)
(0.919953 0.391007 -0.0282875)
(0.999506 -0.0301013 0.00904734)
(0.984806 0.173653 -0.00121764)
(-0.109784 -0.00416482 0.993947)
(-0.0257288 0.0101252 0.999618)
(0.971618 0.231833 -0.0470192)
(-0.071566 -0.0059874 0.997418)
(-0.00808731 0.00396232 0.999959)
(-0.013994 0.00011898 0.999902)
(0.971932 0.231477 -0.0420297)
(0.919128 0.392231 -0.0368533)
(0.995541 0.094161 -0.00566153)
(0.999735 -0.0216228 0.00786072)
(0.984294 0.176519 -0.00255506)
(0.919858 0.391915 0.0162092)
(0.999838 -0.00644857 -0.016834)
(0.982054 0.188436 -0.0078127)
(0.00260492 0.00503316 0.999984)
(0.972473 0.230677 -0.0329156)
(-0.0111073 -2.80457e-05 0.999938)
(-0.0731177 -0.0060468 0.997305)
(-0.0230068 0.0101052 0.999684)
(-0.106671 -0.0038956 0.994287)
(0.972279 0.230944 -0.0365852)
(0.910351 0.404632 -0.0867978)
(0.952661 0.28596 -0.103264)
(0.960428 0.265019 -0.0856956)
(0.985206 0.142265 -0.0955555)
(0.900002 0.410075 -0.147765)
(0.991399 0.104634 -0.0786167)
(0.963956 0.24946 -0.0925183)
(0.878626 0.410532 -0.243886)
(0.94373 0.299519 -0.140222)
(0.982341 0.142399 -0.12136)
(0.943721 0.299848 -0.139575)
(0.908574 0.392023 -0.144259)
(0.972492 0.182171 -0.145167)
(0.939406 0.312864 -0.140113)
(0.924113 0.381443 -0.0227268)
(0.998921 0.0464306 -0.000385714)
(0.988744 0.149599 0.00209776)
(0.996721 -0.0801114 0.0113914)
(0.986774 0.162086 -0.00249566)
(0.997914 -0.0638247 -0.00971642)
(0.924864 0.379731 0.0207722)
(0.958706 -0.284395 0.00133778)
(0.957975 -0.286761 -0.00714257)
(0.99998 0.00634018 -0.000889971)
(0.99735 -0.0727523 -8.66685e-05)
(0.996211 0.0869665 -0.00048338)
(0.999879 0.015529 0.000928794)
(0.999845 0.0175332 0.00181934)
(0.998848 0.0479863 -0.000105698)
(0.962586 -0.270948 0.00397631)
(0.960759 -0.277348 -0.00448608)
(0.959951 -0.280136 -0.00416715)
(0.961717 -0.274008 0.0045503)
(0.921271 0.388442 0.0192875)
(0.984407 0.175896 -0.00179057)
(0.994773 0.102092 -0.00169603)
(0.999508 -0.0298567 -0.00963392)
(0.921488 0.387702 -0.0233875)
(0.985993 0.16678 0.00167599)
(0.998859 -0.0463032 0.011673)
(-0.0992361 -0.00346628 0.995058)
(-0.0172684 0.00959229 0.999805)
(-0.0488998 -0.00328281 0.998798)
(0.973167 0.229241 -0.0198747)
(0.973235 0.229071 -0.0184478)
(-0.00517282 -0.000527864 0.999986)
(0.0276069 0.00685051 0.999595)
(0.0375341 0.00750599 0.999267)
(0.973431 0.228551 -0.0139834)
(-0.00292704 -0.00089357 0.999995)
(-0.0510686 -0.00356987 0.998689)
(-0.0922227 -0.00312706 0.995733)
(0.973359 0.228733 -0.0159297)
(-0.0155004 0.0093327 0.999836)
(0.920943 0.388642 -0.0286591)
(0.996858 0.0792104 -0.000229589)
(0.985788 0.167988 0.00153618)
(0.999088 -0.0411114 0.0115592)
(0.984261 0.17669 -0.00331615)
(0.999422 -0.0320278 -0.0113779)
(0.921321 0.388333 0.0191223)
(0.961083 -0.276217 -0.00478013)
(0.962856 -0.269991 0.00375512)
(0.963393 -0.26808 0.00272437)
(0.961559 -0.274537 -0.00577313)
(0.998998 0.0447271 0.00122299)
(0.996776 0.0802332 -0.000999263)
(0.994259 0.106988 -0.00163883)
(0.999428 0.0338154 -0.000267514)
(0.974374 0.224562 -0.0129552)
(0.991318 0.13085 -0.0128973)
(0.992921 0.118665 -0.0052001)
(0.984005 0.177922 -0.00877833)
(0.969119 -0.246279 -0.0124334)
(0.96547 -0.259727 -0.0202492)
(0.96402 -0.265504 -0.0131676)
(0.966995 -0.254751 -0.00476548)
(0.917714 0.39723 0.00294281)
(0.978374 0.206261 -0.0155124)
(0.986217 0.164105 -0.0211254)
(0.999022 0.0359444 -0.0257504)
(0.916568 0.397424 -0.0442474)
(0.981845 0.189172 -0.0139689)
(0.999979 0.00511671 -0.00409195)
(0.913607 0.400053 -0.0726649)
(0.990595 0.132674 -0.0334434)
(0.97969 0.198672 -0.0271485)
(0.99954 0.0248653 -0.0173576)
(0.975827 0.216346 -0.0309317)
(0.997706 0.0516964 -0.0437056)
(0.917248 0.398272 -0.00605697)
(0.966036 -0.257291 -0.0239786)
(0.969954 -0.242734 -0.0163991)
(0.973403 -0.226228 -0.0361724)
(0.968443 -0.245681 -0.0419468)
(0.9865 0.163237 -0.0130572)
(0.972693 0.231428 -0.0175857)
(0.959515 0.280334 -0.0272578)
(0.981265 0.190523 -0.028639)
(0.922006 -0.268543 -0.278907)
(0.95079 -0.200134 -0.236527)
(0.958167 0.261576 -0.116162)
(0.963574 0.233825 -0.129813)
(0.947714 -0.147347 -0.283066)
(0.958726 -0.107567 -0.263198)
(0.976724 0.0159882 -0.213902)
(0.976215 0.0631291 -0.207409)
(-0.266642 -0.182458 0.946367)
(0.94363 0.0662043 -0.324313)
(0.91563 0.161517 -0.368151)
(0.934635 -0.0867827 -0.344856)
(0.8323 0.247319 -0.496094)
(0.940786 -0.106774 -0.321747)
(0.918324 -0.244599 -0.311212)
(-0.0853887 -0.124001 0.988601)
(-0.372444 -0.210777 0.903802)
(-0.187671 -0.147083 0.971157)
(-0.243758 -0.16028 0.9565)
(-0.11731 -0.149524 0.981774)
(-0.134518 -0.132959 0.981951)
(-0.273101 -0.185579 0.943915)
(-0.0261965 -0.0843783 0.996089)
(-0.0598967 0.0215443 0.997972)
(-0.120125 -0.0494933 0.991524)
(-0.00128805 0.113219 0.993569)
(-0.0741828 -0.080853 0.993962)
(0.0825551 0.0853539 0.992925)
(-0.0624664 -0.0317114 0.997543)
(-0.0216408 -0.120629 0.992462)
(0.846999 -0.152927 0.509123)
(-0.131884 -0.153062 0.979377)
(-0.177263 -0.12861 0.975724)
(-0.0162025 -0.151992 0.988249)
(0.122327 -0.161911 0.979194)
(-0.199315 -0.158652 0.967007)
(0.91862 -0.224069 -0.325469)
(0.90359 -0.284809 -0.320014)
(0.882655 -0.27972 -0.377727)
(0.971542 0.0849372 -0.221114)
(0.00417924 0.00274111 0.999988)
(-0.0216938 0.0025792 0.999761)
(-0.019492 0.00941883 0.999766)
(-0.016989 0.00771036 0.999826)
(-0.0181229 0.000921052 0.999835)
(0.00859957 0.000140392 0.999963)
(0.923743 0.381742 -0.0311769)
(0.99855 0.0538034 -0.00181434)
(0.987885 0.155188 -3.18036e-05)
(0.997878 -0.0644361 0.00939882)
(0.923945 0.382238 0.0148163)
(0.98644 0.164044 -0.0049823)
(0.998191 -0.0587283 -0.0129059)
(0.925048 0.379458 0.017237)
(0.997702 0.0676947 -0.00297543)
(0.986969 0.160894 -0.00248595)
(0.99795 -0.0633322 -0.00924622)
(0.924898 0.379661 -0.0205425)
(0.989123 0.147088 0.000971571)
(0.996293 -0.0854719 0.00971941)
(0.999963 0.00862867 -0.000626531)
(0.998559 0.0536148 -0.00232411)
(0.997993 0.0633312 8.09079e-05)
(0.999995 -0.00292929 0.00137698)
(0.9595 -0.281646 -0.00588347)
(0.961882 -0.27345 0.00284268)
(0.961689 -0.274109 0.00433314)
(0.960154 -0.279437 -0.00430437)
(0.961041 -0.276395 0.00222344)
(0.958113 -0.286319 -0.00634941)
(0.956009 -0.293256 -0.0069021)
(0.957935 -0.286981 0.00181256)