/*--------------------------------*- C++ -*----------------------------------*\
| =========                 |                                                 |
| \\      /  F ield         | OpenFOAM: The Open Source CFD Toolbox           |
|  \\    /   O peration     | Version:  2012                                  |
|   \\  /    A nd           | Website:  www.openfoam.com                      |
|    \\/     M anipulation  |                                                 |
\*---------------------------------------------------------------------------*/
FoamFile
{
    version     2.0;
    format      ascii;
    class       volVectorField;
    location    "0.104/solid";
    object      sigmaMinDir;
}
// * * * * * * * * * * * * * * * * * * * * * * * * * * * * * * * * * * * * * //

dimensions      [1 -1 -2 0 0 0 0];


internalField   nonuniform List<vector> 
3125
(
(0.0678698 0.997675 -0.00612727)
(0.0572337 0.998326 -0.00835859)
(0.0430272 0.995781 0.0810507)
(0.0684502 0.997635 -0.00620197)
(0.0595856 0.998189 -0.00827529)
(0.0328514 0.998089 0.0523445)
(0.0732124 0.99729 -0.00725638)
(0.0656206 0.997822 -0.00672156)
(0.0466993 0.998904 -0.00304319)
(0.0719333 0.997385 -0.00693117)
(0.0645179 0.997891 -0.00716057)
(0.0419367 0.999116 0.00306429)
(-0.101235 0.99486 -0.0023343)
(0.149521 0.988732 -0.00724288)
(-0.133701 0.991015 -0.00361493)
(0.0672758 0.997716 -0.00602005)
(-0.0655649 0.997848 -0.000738193)
(-0.133949 0.990985 -0.00263318)
(0.148072 0.98895 -0.00724773)
(-0.158322 0.987325 0.0111412)
(0.117524 0.993029 -0.00900816)
(-0.137992 0.990425 -0.00403846)
(0.054363 0.998491 -0.00783131)
(-0.0956666 0.9954 0.00524358)
(-0.139602 0.990202 -0.00346332)
(0.108496 0.994066 -0.00782406)
(0.034356 0.98406 0.174485)
(-0.0069982 0.996279 0.0859074)
(-0.125049 0.990938 0.049038)
(0.0823546 0.987456 0.134715)
(-0.277564 0.938928 0.203404)
(-0.0576769 0.99826 -0.0122611)
(0.0289545 0.991542 0.126513)
(-0.0456369 0.99895 -0.00393902)
(-0.0449918 0.998985 -0.00214656)
(-0.0610286 0.998136 0.000347371)
(0.0693377 0.997575 -0.00604521)
(0.151004 0.988506 -0.00729081)
(-0.133481 0.991044 -0.00395798)
(-0.0921668 0.99574 -0.002531)
(-0.132714 0.991153 -0.00182752)
(0.153636 0.9881 -0.00741587)
(-0.0457379 0.998946 -0.0037656)
(-0.045876 0.998944 -0.00268988)
(-0.0488461 0.998797 -0.0043611)
(-0.0477093 0.998853 -0.00405375)
(-0.0866455 0.996237 0.00193457)
(0.0615375 0.998073 -0.00796523)
(0.124766 0.992143 -0.00929654)
(-0.137468 0.990498 -0.0039755)
(-0.134803 0.990868 0.00308217)
(-0.136204 0.990674 -0.00371551)
(0.130651 0.991386 -0.00919659)
(-0.049229 0.998777 -0.00459809)
(-0.0507324 0.998703 -0.00422879)
(-0.04318 0.998496 0.033774)
(-0.0516074 0.998584 0.0129231)
(-0.209024 0.97274 0.100432)
(0.0330491 0.999014 0.029657)
(0.00347808 0.997941 0.0640471)
(-0.132856 0.99016 0.0439608)
(-0.320499 0.92655 0.196941)
(-0.142119 0.989678 0.0184224)
(0.0215812 0.998914 0.0413017)
(-0.0367562 0.998645 0.0368296)
(0.0183349 0.998882 -0.043566)
(-0.132357 0.99118 -0.00668512)
(0.165279 0.986218 -0.00756816)
(-0.0740671 0.997253 0.000121797)
(-0.145232 0.989389 -0.00405628)
(0.521068 0.853504 -0.00422904)
(0.50544 0.862804 -0.0099611)
(0.505566 0.862775 -0.00483836)
(-0.145735 0.989322 -0.00153893)
(-0.14577 0.989318 -0.000772387)
(-0.0749679 0.997186 -0.000362154)
(0.0665281 0.997765 -0.00629734)
(-0.134837 0.990862 -0.003521)
(0.143321 0.989643 -0.00808525)
(-0.134153 0.990956 -0.0028668)
(-0.10811 0.994138 -0.00154803)
(0.146062 0.989246 -0.00761059)
(-0.146592 0.989196 -0.00131477)
(-0.146045 0.989278 -0.000884036)
(0.499994 0.866008 -0.00600054)
(0.504573 0.863305 -0.0104938)
(0.46629 0.884563 -0.0110124)
(0.443467 0.896288 -0.00235242)
(-0.149371 0.988781 -0.00084596)
(-0.150401 0.988625 -0.000222712)
(-0.110639 0.993765 0.0138064)
(0.0508681 0.998685 -0.00634514)
(-0.1422 0.989838 3.43501e-05)
(0.0825273 0.996589 -0.000305059)
(-0.140398 0.990091 -0.00303354)
(-0.193533 0.980549 0.0326945)
(0.0970601 0.995265 -0.00527497)
(-0.152388 0.988317 0.00259757)
(-0.150987 0.988536 0.000237575)
(0.383487 0.923484 0.0106866)
(0.431728 0.901986 -0.0056875)
(0.0536163 0.995476 0.0784455)
(0.279667 0.954458 0.103908)
(-0.14206 0.988717 0.047523)
(-0.0672753 0.997621 -0.0150425)
(0.0526895 0.986279 0.156455)
(0.202391 0.948904 0.242115)
(-0.00836069 0.997603 -0.0686933)
(0.130991 0.979995 0.149836)
(-0.0105784 0.995971 -0.0890449)
(0.359311 0.927842 0.100023)
(-0.0449075 0.998971 -0.00638075)
(-0.0455244 0.998949 -0.00536543)
(-0.0450925 0.998982 -0.0014933)
(-0.0890069 0.99603 -0.00151697)
(0.0706215 0.997484 -0.00610829)
(-0.133244 0.99107 -0.00519645)
(0.162269 0.986716 -0.00779661)
(-0.0366214 0.999328 0.0014614)
(-0.13279 0.991144 -0.00105605)
(0.157966 0.987415 -0.00763822)
(0.506102 0.86246 -0.00477964)
(0.509838 0.860209 -0.0102515)
(-0.145487 0.989358 -0.00193741)
(-0.144808 0.98946 -3.77259e-05)
(-0.146398 0.989222 -0.00252867)
(-0.145036 0.989426 0.000688422)
(0.518417 0.855072 -0.0098013)
(0.512192 0.858856 -0.00502957)
(-0.046611 0.998907 -0.00363554)
(-0.0460006 0.998937 -0.0030011)
(-0.0467662 0.998899 -0.00381039)
(-0.0474286 0.998868 -0.00375356)
(-0.119264 0.992863 -5.15138e-05)
(0.0631673 0.997975 -0.00752953)
(-0.135078 0.990829 -0.00355125)
(0.139804 0.990142 -0.00855983)
(-0.0796517 0.996823 0.000383138)
(-0.135821 0.990727 -0.00353862)
(0.13559 0.990725 -0.00887487)
(0.472546 0.881285 -0.00606654)
(0.485221 0.874311 -0.0118554)
(-0.148792 0.988868 -0.000992532)
(-0.147752 0.989024 -0.00101454)
(-0.146832 0.989161 -0.00118534)
(-0.147315 0.989089 -0.00102476)
(0.497343 0.867477 -0.011546)
(0.489124 0.87219 -0.00646786)
(-0.140593 0.990067 -0.00130853)
(-0.0526264 0.998613 -0.00175546)
(-0.0512269 0.998679 -0.00402707)
(-0.141233 0.989976 6.94767e-05)
(-0.14029 0.990109 -0.00157173)
(-0.0528843 0.998601 -0.000425895)
(-0.0525291 0.998584 0.00843084)
(-0.132028 0.99102 0.0211597)
(-0.138266 0.99036 0.008283)
(-0.141634 0.989919 0.00073122)
(-0.139389 0.990223 0.00544147)
(-0.253846 0.962942 0.0911324)
(0.0369948 0.999224 0.0135409)
(-0.142711 0.989763 0.00188217)
(0.0644223 0.997889 0.00826182)
(-0.140772 0.98935 0.0370088)
(-0.142861 0.989661 0.0127045)
(0.0432805 0.998821 0.0219912)
(0.0680576 0.994491 0.079718)
(0.202605 0.977957 0.0505032)
(-0.146286 0.988419 0.0403628)
(-0.151859 0.98825 0.0173414)
(-0.152856 0.98824 0.00416849)
(-0.152091 0.988288 0.0124367)
(0.358383 0.933503 0.0115738)
(0.251156 0.966976 0.0433404)
(-0.126137 0.991739 0.0232942)
(-0.0622561 0.996501 -0.0557658)
(0.269312 0.913453 0.305081)
(0.0581708 0.990925 -0.121175)
(-0.0206483 0.991002 -0.132248)
(0.166149 0.985637 0.0302469)
(0.424117 0.820846 0.382538)
(0.225073 0.974217 0.0156162)
(0.329859 0.914175 0.235536)
(0.429157 0.779997 0.455444)
(0.254312 0.966802 0.0248698)
(-0.159757 0.987153 0.00269847)
(-0.0698887 0.997555 -0.0007221)
(-0.267609 0.963523 -0.00283071)
(-0.225671 0.974164 -0.00875759)
(-0.225844 0.974162 -0.00153169)
(-0.267209 0.963637 -0.00187186)
(-0.160551 0.986948 -0.0125122)
(-0.15905 0.987187 -0.0128274)
(-0.095373 0.995438 -0.00273144)
(-0.221759 0.9751 -0.00176731)
(-0.266164 0.963925 -0.00252527)
(-0.158454 0.987364 0.00223391)
(-0.221251 0.975173 -0.00921735)
(-0.266228 0.963905 -0.00322944)
(-0.174697 0.984615 0.00367743)
(-0.103661 0.994576 0.00853108)
(-0.277566 0.960706 0.00146294)
(-0.256156 0.966634 -0.0013953)
(-0.257905 0.96616 0.00449604)
(-0.277248 0.960797 0.00130619)
(-0.176346 0.984266 -0.0111018)
(-0.173133 0.984818 -0.0126081)
(-0.146399 0.989207 0.0060942)
(-0.251716 0.9678 0.00175352)
(-0.275249 0.961373 -0.000207565)
(-0.171673 0.985151 0.00255159)
(-0.250236 0.968173 -0.00482881)
(-0.275565 0.961282 -0.0006232)
(-0.128001 0.984435 0.120432)
(-0.136636 0.967756 0.211612)
(-0.159718 0.983821 0.0811507)
(-0.0787643 0.987396 0.137277)
(-0.159024 0.974238 0.159912)
(-0.212088 0.97022 0.117007)
(-0.0848264 0.9921 0.0924219)
(-0.15457 0.98307 0.0983976)
(-0.255195 0.940999 0.222251)
(-0.2542 0.956053 0.146096)
(-0.269763 0.955973 0.115513)
(-0.176098 0.97858 0.106632)
(-0.206173 0.96771 0.145015)
(-0.246702 0.961345 0.122285)
(-0.157326 0.987468 -0.0124672)
(-0.0964745 0.995333 -0.00202907)
(-0.264816 0.964299 -0.000710306)
(-0.217304 0.976104 -0.000309618)
(-0.156329 0.987699 0.00347792)
(-0.217195 0.976093 -0.00828355)
(-0.265182 0.964194 -0.00284386)
(-0.157824 0.987464 0.0023392)
(-0.0680703 0.997681 -0.000156332)
(-0.218477 0.975801 -0.00894445)
(-0.265677 0.964055 -0.00368824)
(-0.158127 0.987332 -0.013111)
(-0.220602 0.975363 -0.00112899)
(-0.265931 0.963989 -0.00249566)
(-0.168075 0.985684 -0.0133519)
(-0.127255 0.991869 0.00105592)
(-0.272218 0.962235 -0.00139869)
(-0.242084 0.970255 -0.000405292)
(-0.167028 0.98595 0.00209563)
(-0.240685 0.970573 -0.00763685)
(-0.27238 0.962187 -0.00231209)
(-0.16917 0.985585 0.00215357)
(-0.0918394 0.995769 0.00317744)
(-0.244975 0.969508 -0.00651512)
(-0.273828 0.961777 -0.00160795)
(-0.170357 0.985295 -0.013135)
(-0.246618 0.969113 0.000411863)
(-0.273661 0.961826 -0.00101464)
(-0.192797 0.980233 0.0444113)
(-0.294637 0.944831 0.143118)
(-0.288067 0.956244 0.0511248)
(-0.286957 0.954871 0.0766619)
(-0.193768 0.979793 0.0495881)
(-0.280707 0.956188 0.083111)
(-0.287357 0.955685 0.0639667)
(-0.191397 0.978508 0.0767349)
(-0.256677 0.954105 0.154272)
(-0.265035 0.956787 0.119648)
(-0.279849 0.954844 0.099784)
(-0.184744 0.979946 0.0746692)
(-0.280084 0.953424 0.111959)
(-0.286072 0.954669 0.0822802)
(-0.15136 0.988411 -0.0115752)
(-0.102068 0.994776 0.00139542)
(-0.26106 0.965322 -0.00134083)
(-0.206341 0.978462 -0.00590554)
(-0.152204 0.988348 0.00146185)
(-0.061239 0.998118 0.00319268)
(-0.261966 0.965065 -0.0049)
(-0.202955 0.979157 -0.00775931)
(-0.262598 0.964899 -0.0033648)
(-0.210064 0.977688 0.00045569)
(-0.151903 0.988293 -0.0142555)
(-0.221644 0.975098 -0.00760841)
(-0.143353 0.989664 -0.00379316)
(-0.267765 0.963433 -0.00993996)
(-0.265136 0.964209 0.00187446)
(-0.142245 0.989831 -0.00131133)
(-0.263645 0.964584 -0.00834712)
(-0.221594 0.975104 -0.00822251)
(-0.222087 0.975006 0.00639587)
(0.71742 0.69659 -0.00838996)
(0.720529 0.693418 -0.00309942)
(0.523736 0.851825 -0.00975825)
(0.71805 0.695991 -0.00100448)
(0.710325 0.703832 -0.00765217)
(0.71508 0.699023 0.00517913)
(0.527272 0.84969 -0.00349809)
(0.723371 0.690452 -0.00300829)
(0.697893 0.716149 -0.00873727)
(0.697262 0.716809 0.0031721)
(0.713106 0.701053 -0.00198645)
(0.506445 0.862263 -0.00404788)
(0.714113 0.700023 -0.00326368)
(0.695581 0.71844 0.00318733)
(0.698192 0.715857 -0.00871433)
(0.714766 0.699353 -0.00382623)
(0.506124 0.862397 -0.0105268)
(0.71181 0.702367 -0.00271028)
(-0.226253 0.974037 -0.00783621)
(-0.226077 0.974082 0.00734737)
(-0.269116 0.963098 0.00441769)
(-0.145567 0.989348 -0.00128436)
(-0.268517 0.96325 -0.00691518)
(-0.225414 0.974239 0.00685154)
(-0.224807 0.974372 -0.00788568)
(-0.269314 0.963028 -0.00680392)
(-0.145693 0.98933 -0.00052986)
(-0.269312 0.963037 0.0055423)
(-0.161959 0.986714 -0.0128107)
(-0.268657 0.963234 -0.00191432)
(-0.106104 0.994353 -0.00203306)
(-0.229889 0.973216 -0.00136312)
(-0.161275 0.986906 0.00260222)
(-0.268839 0.96318 -0.0030573)
(-0.228948 0.9734 -0.00866281)
(-0.162518 0.986703 0.00236201)
(-0.0787647 0.996893 -2.29002e-05)
(-0.269482 0.963001 -0.00291822)
(-0.230905 0.97294 -0.00838761)
(-0.26963 0.962962 -0.00201429)
(-0.232674 0.972554 -0.0010893)
(-0.163069 0.986529 -0.0129699)
(-0.227422 0.973767 0.00748592)
(-0.22719 0.973819 -0.00782626)
(-0.146359 0.989231 -0.00111809)
(-0.27035 0.962736 -0.00710515)
(-0.270665 0.96266 0.00503376)
(-0.270141 0.962805 0.00543723)
(-0.146087 0.989271 -0.00142555)
(-0.269864 0.962871 -0.007289)
(-0.227609 0.973723 -0.00759741)
(-0.22823 0.973579 0.00745618)
(0.69672 0.717337 0.0029325)
(0.696855 0.717154 -0.00910983)
(0.713995 0.700138 -0.00419481)
(0.502318 0.864604 -0.0116648)
(0.710337 0.703854 -0.00331491)
(0.69196 0.721876 -0.00926878)
(0.695253 0.71876 0.00259159)
(0.712064 0.70211 -0.0024596)
(0.504387 0.863463 -0.00496622)
(0.713653 0.700491 -0.00356992)
(0.631 0.775762 -0.0056345)
(0.642792 0.766034 0.00325674)
(0.698353 0.715751 -0.00197757)
(0.461129 0.887322 -0.00447174)
(0.702358 0.711821 -0.00171699)
(0.657846 0.753148 0.00237252)
(0.650939 0.759091 -0.00765908)
(0.698432 0.715676 -0.000264509)
(0.45257 0.891675 -0.00975488)
(0.691908 0.721985 -0.00132098)
(-0.234209 0.972183 -0.00266124)
(-0.234953 0.971934 0.0118761)
(-0.274593 0.961536 0.0069013)
(-0.149594 0.988747 -0.00106265)
(-0.273842 0.96176 -0.00524583)
(-0.233221 0.972368 0.0103913)
(-0.23251 0.972583 -0.00463648)
(-0.275375 0.96133 -0.00366429)
(-0.149977 0.988689 -0.000481278)
(-0.275815 0.961178 0.0079041)
(-0.180133 0.983607 -0.00834317)
(-0.279397 0.960168 0.00387786)
(-0.174374 0.984493 0.0191445)
(-0.264537 0.964334 0.00892538)
(-0.178182 0.98398 0.00586841)
(-0.279891 0.96002 0.00472905)
(-0.262871 0.964823 0.0040226)
(-0.18229 0.983192 0.0101539)
(-0.123829 0.992048 0.0225158)
(-0.282422 0.959227 0.0109866)
(-0.270133 0.962728 0.0135596)
(-0.28195 0.959391 0.00854381)
(-0.271964 0.962163 0.0166911)
(-0.184382 0.98285 -0.00288757)
(-0.237159 0.971363 0.0145063)
(-0.236058 0.971739 0.000403221)
(-0.152336 0.988328 0.00155292)
(-0.277659 0.960673 0.00341517)
(-0.278948 0.960221 0.0127893)
(-0.277626 0.960639 0.00977979)
(-0.151769 0.988416 0.000363908)
(-0.276455 0.961026 -0.00145082)
(-0.238161 0.971207 0.00606276)
(-0.239469 0.970726 0.0185837)
(0.619006 0.785369 0.00516941)
(0.601278 0.799037 -0.00201558)
(0.680015 0.733154 0.0080308)
(0.403007 0.915197 0.000252666)
(0.671594 0.740903 0.00493752)
(0.552742 0.833334 0.00548198)
(0.583171 0.812297 0.00920886)
(0.684393 0.729112 0.00143177)
(0.420206 0.907425 0.002742)
(0.690159 0.723651 0.00321309)
(0.0193835 0.981133 0.192358)
(-0.147847 0.97424 0.170288)
(0.374856 0.92175 0.0992935)
(0.0736862 0.994093 0.0796804)
(0.356024 0.929921 0.0921601)
(-0.0368907 0.987734 0.151727)
(-0.125228 0.979752 0.156219)
(0.298029 0.943605 0.144181)
(0.151167 0.985297 0.0796165)
(0.223005 0.966973 0.12342)
(-0.142867 0.988165 0.0558393)
(-0.247638 0.956924 0.151563)
(-0.275177 0.95548 0.10647)
(-0.132209 0.990162 0.0458317)
(-0.246793 0.964391 0.0950911)
(-0.270717 0.953087 0.135419)
(-0.246472 0.961026 0.125222)
(-0.139635 0.990047 0.0175723)
(-0.111256 0.99341 0.0275418)
(-0.234765 0.966195 0.106553)
(0.0595625 0.987459 0.14621)
(-0.0848186 0.995393 0.044712)
(0.274733 0.922637 0.270672)
(-0.0384671 0.98352 0.17666)
(-0.0247752 0.991243 0.129704)
(0.00779091 0.999461 0.0319001)
(0.119437 0.964835 0.234155)
(0.115579 0.992079 0.0492114)
(0.0232343 0.991564 -0.127516)
(-0.0703854 0.993608 -0.0882545)
(0.174336 0.984489 0.0197292)
(0.172044 0.984986 0.0142613)
(0.314807 0.937535 0.148073)
(0.390968 0.917921 0.0675687)
(0.310449 0.930197 0.195843)
(0.125894 0.989826 0.0662947)
(0.566278 0.809225 0.156475)
(-0.026125 0.999297 -0.0268882)
(0.381524 0.912367 0.148414)
(-0.103638 0.993834 0.0394132)
(0.00416334 0.999745 -0.0222048)
(-0.0136324 0.992558 -0.121007)
(-0.0938794 0.993617 -0.0625382)
(-0.11346 0.993508 -0.00824723)
(0.0131038 0.989702 -0.142545)
(-0.0894006 0.98445 -0.151212)
(-0.012814 0.999225 0.037214)
(0.0682509 0.97696 0.202214)
(0.57747 0.802616 0.149453)
(0.374252 0.915926 0.144967)
(0.611394 0.786932 0.0832812)
(0.663107 0.728093 0.173691)
(0.418391 0.896721 0.144364)
(0.449062 0.883063 0.136173)
(0.62922 0.77217 0.0885209)
(-0.153319 0.98817 0.00377487)
(-0.0412099 0.99915 0.000509441)
(-0.263334 0.964704 -0.000959066)
(-0.210659 0.977532 -0.00739759)
(-0.154915 0.987863 -0.0113117)
(-0.262602 0.964904 0.000210371)
(-0.208699 0.97798 3.19886e-05)
(-0.152084 0.98829 -0.0124079)
(-0.0705559 0.997507 -0.0011896)
(-0.261992 0.965066 -0.00276464)
(-0.2037 0.979033 -0.00059952)
(-0.151582 0.988443 0.00156825)
(-0.261567 0.965183 -0.00201175)
(-0.201576 0.979442 -0.00778429)
(0.70048 0.713667 0.00248988)
(0.699725 0.714356 -0.00898652)
(0.715803 0.698291 -0.00392227)
(0.507309 0.861697 -0.0107308)
(0.712874 0.701287 -0.00259229)
(0.696866 0.71715 -0.00863946)
(0.698313 0.715785 0.00326163)
(0.713997 0.700145 -0.00221267)
(0.509084 0.860705 -0.00442441)
(0.715893 0.698201 -0.00363776)
(-0.224635 0.974407 0.0083699)
(-0.224566 0.974426 -0.00799305)
(-0.268422 0.963268 -0.0079786)
(-0.145075 0.989419 -0.00169714)
(-0.268324 0.96332 0.00418389)
(-0.224603 0.974415 -0.008299)
(-0.225289 0.974268 0.00684269)
(-0.268105 0.963365 0.00691374)
(-0.144755 0.989466 -0.00144651)
(-0.267599 0.9635 -0.00760562)
(-0.223071 0.97478 -0.00657223)
(-0.223033 0.974769 0.00901956)
(-0.269165 0.96309 0.00288616)
(-0.14616 0.989261 -0.000638673)
(-0.268022 0.963401 -0.00475664)
(-0.222396 0.974934 0.00656293)
(-0.220709 0.975321 -0.00601898)
(-0.267335 0.963592 -0.00476572)
(-0.145759 0.98932 0.00108585)
(-0.268879 0.96314 0.00804914)
(0.702032 0.712079 -0.00974952)
(0.704806 0.709397 0.0020689)
(0.715365 0.698749 -0.00143978)
(0.51728 0.855805 -0.00434447)
(0.716927 0.697139 -0.00363924)
(0.708196 0.706004 0.00417869)
(0.706374 0.70777 -0.00988131)
(0.717343 0.696707 -0.00437646)
(0.514622 0.857348 -0.0108939)
(0.713417 0.700734 -0.0030219)
(-0.165217 0.986255 0.00223363)
(-0.0838735 0.996476 0.00103705)
(-0.271128 0.96254 -0.00243271)
(-0.236858 0.971512 -0.00793434)
(-0.166086 0.986024 -0.0131481)
(-0.271056 0.962562 -0.00155357)
(-0.238377 0.971172 -0.000665228)
(-0.164422 0.986303 -0.013124)
(-0.113878 0.993494 -0.00101532)
(-0.270168 0.962811 -0.00185426)
(-0.23501 0.971992 -0.00104613)
(-0.163679 0.986511 0.00221988)
(-0.270112 0.962825 -0.00275086)
(-0.23362 0.972292 -0.00836657)
(0.677491 0.735528 0.00209194)
(0.674139 0.738549 -0.00904076)
(0.706853 0.707353 -0.00315317)
(0.477598 0.878493 -0.0122705)
(0.701822 0.712346 -0.00311847)
(0.663791 0.74787 -0.00851767)
(0.669956 0.742398 0.00212077)
(0.705621 0.708584 -0.00274874)
(0.482573 0.875836 -0.00596244)
(0.708494 0.70571 -0.00327122)
(-0.230475 0.973039 0.00874982)
(-0.229933 0.973184 -0.00654992)
(-0.272945 0.962011 -0.005935)
(-0.148363 0.988933 -0.000909349)
(-0.273263 0.96192 0.00614915)
(-0.231152 0.9729 -0.00578134)
(-0.231709 0.972741 0.00927395)
(-0.272415 0.962161 0.00596198)
(-0.147897 0.989002 -0.00136892)
(-0.271883 0.962308 -0.00653232)
(-0.228957 0.973412 -0.00696363)
(-0.229352 0.973309 0.00825375)
(-0.271212 0.962505 0.00535028)
(-0.146772 0.989169 -0.00134591)
(-0.270424 0.962717 -0.00679511)
(-0.228722 0.97346 0.00787457)
(-0.227972 0.973641 -0.0072671)
(-0.271197 0.962502 -0.00656913)
(-0.147055 0.989128 -0.000833819)
(-0.271487 0.962425 0.00573488)
(0.680896 0.732323 -0.00912455)
(0.685112 0.728434 0.00210781)
(0.709741 0.704457 -0.0028438)
(0.495872 0.868377 -0.00579864)
(0.711945 0.702225 -0.00371677)
(0.689819 0.723979 0.00218916)
(0.687751 0.725886 -0.00939114)
(0.711423 0.702753 -0.00400456)
(0.492496 0.870228 -0.0123263)
(0.707258 0.706947 -0.00343125)
(-0.140308 0.990108 -0.000493384)
(-0.13982 0.990176 -0.00142419)
(-0.134809 0.99076 0.0148679)
(-0.136761 0.99055 0.0103837)
(-0.141189 0.989982 0.00116787)
(-0.140341 0.990098 0.00304991)
(-0.191047 0.98112 0.0300918)
(-0.169728 0.98359 0.0611778)
(-0.286994 0.957172 0.0381506)
(-0.282148 0.95799 0.0514659)
(-0.19236 0.981087 0.021584)
(-0.286771 0.957539 0.0296708)
(-0.285093 0.957268 0.0485817)
(-0.188792 0.981998 0.00615569)
(-0.220403 0.973872 0.0547433)
(-0.284405 0.958563 0.0164386)
(-0.279243 0.95978 0.0290703)
(-0.18674 0.982252 0.017606)
(-0.284936 0.958321 0.0207963)
(-0.277222 0.960389 0.0283128)
(0.293098 0.95371 0.067307)
(0.202184 0.975053 0.0916169)
(0.50982 0.856947 0.0756689)
(0.103923 0.992063 0.0707919)
(0.50016 0.863078 0.0702663)
(0.0391447 0.990288 0.133408)
(0.143682 0.983393 0.110879)
(0.574824 0.817097 0.043923)
(0.15352 0.985995 0.0651529)
(0.58008 0.812919 0.0516788)
(-0.251558 0.966077 0.0584217)
(-0.251832 0.966008 0.0583878)
(-0.274466 0.958111 0.0818034)
(-0.149085 0.988369 0.0300074)
(-0.282135 0.956782 0.0704852)
(-0.25903 0.960786 0.0989667)
(-0.261145 0.960981 0.0912091)
(-0.281988 0.958371 0.0448184)
(-0.151075 0.988275 0.0221175)
(-0.279013 0.959156 0.0466006)
(-0.244544 0.969121 0.0316756)
(-0.245967 0.968556 0.037415)
(-0.280618 0.959639 0.0186196)
(-0.15295 0.988218 0.0055647)
(-0.278372 0.960416 0.0105329)
(-0.242391 0.969835 0.0258278)
(-0.240968 0.970418 0.0149343)
(-0.278513 0.960106 0.0250338)
(-0.152731 0.98823 0.00865135)
(-0.281499 0.959163 0.0276553)
(0.351129 0.93505 0.0488839)
(0.42793 0.903119 0.0353949)
(0.653463 0.756857 0.0123981)
(0.330641 0.943445 0.0242554)
(0.66063 0.750521 0.0169267)
(0.523609 0.851775 0.0177212)
(0.471965 0.881377 0.0205737)
(0.631461 0.774812 0.0303727)
(0.293484 0.955555 0.027981)
(0.622843 0.781977 0.024045)
(-0.114819 0.993253 0.0163065)
(-0.0934626 0.995585 -0.00867954)
(0.050133 0.988838 -0.140305)
(0.200604 0.979643 0.00756133)
(0.0137884 0.99098 -0.133302)
(-0.0217097 0.98795 -0.153243)
(-0.38669 0.922186 0.00655957)
(-0.0733635 0.997303 -0.00201629)
(-0.164913 0.986302 -0.00344539)
(0.047036 0.998892 -0.00120569)
(0.0400611 0.999184 -0.00521815)
(-0.172517 0.985006 0.000771792)
(-0.386721 0.92211 -0.0126402)
(-0.0959361 0.995381 -0.00368551)
(-0.0447101 0.999 0.000312847)
(-0.227676 0.973731 -0.00327925)
(-0.133745 0.991011 -0.00320949)
(-0.0957018 0.99539 -0.00628608)
(-0.0449569 0.99894 -0.00990722)
(-0.227757 0.973714 -0.00286387)
(-0.385228 0.922713 -0.0141509)
(-0.0918828 0.995767 -0.0024452)
(0.0401349 0.999191 -0.00245729)
(-0.170704 0.985321 0.00136334)
(-0.384729 0.923007 0.00653517)
(0.0566917 0.998392 -0.000637746)
(-0.160993 0.986947 -0.0041392)
(-0.0964042 0.995326 -0.00570078)
(-0.228241 0.973602 -0.00236714)
(-0.13383 0.991001 -0.00256243)
(-0.0453988 0.998923 -0.00954843)
(-0.045078 0.998983 0.000955773)
(-0.228018 0.973654 -0.00229791)
(-0.0968149 0.995297 -0.00337008)
(-0.395287 0.918456 0.0136674)
(-0.107671 0.99415 0.00848554)
(-0.184419 0.982822 0.00712064)
(0.00416387 0.999948 0.0092665)
(-0.0165528 0.999857 0.00357415)
(-0.199359 0.979877 0.00982893)
(-0.39478 0.918763 -0.00487177)
(-0.105933 0.994363 -0.00461945)
(-0.0510899 0.998694 -0.0010163)
(-0.232873 0.972503 -0.0027421)
(-0.138449 0.990361 -0.00409384)
(-0.10498 0.994448 -0.00723133)
(-0.0520201 0.99858 -0.0114896)
(-0.233315 0.972398 -0.00259247)
(-0.393815 0.919125 -0.0109304)
(-0.138235 0.990392 0.00395257)
(-0.00866899 0.999958 0.00293362)
(-0.193509 0.981075 0.00680378)
(-0.393488 0.919265 0.0109392)
(0.0161074 0.999864 0.00350635)
(-0.179664 0.983728 0.000955988)
(-0.225701 0.962437 0.150913)
(0.0357393 0.982859 0.180863)
(-0.051866 0.989554 0.134506)
(0.17156 0.973052 0.15407)
(0.115263 0.98015 0.161306)
(-0.135783 0.973312 0.185004)
(-0.186913 0.975754 0.113871)
(-0.355221 0.925266 0.133044)
(-0.309251 0.92676 0.213258)
(-0.166264 0.970432 0.174979)
(-0.299209 0.936827 0.181188)
(-0.374475 0.914235 0.154735)
(-0.106537 0.980115 0.167407)
(-0.276631 0.944647 0.176398)
(0.0369319 0.999281 -0.00851663)
(-0.0452967 0.998967 -0.00367586)
(0.0370847 0.999311 -0.00138758)
(0.037524 0.999296 -0.000390197)
(-0.0450691 0.998979 -0.0032422)
(0.0373995 0.999269 -0.00795488)
(-0.384524 0.923028 -0.0126686)
(-0.0922729 0.995732 -0.00165603)
(-0.169326 0.985556 0.00283095)
(0.0436544 0.999046 -0.00144677)
(-0.383676 0.923428 0.00859551)
(0.0597809 0.998212 1.18404e-05)
(-0.159432 0.987203 -0.00332358)
(-0.0951345 0.995444 -0.00630149)
(-0.0445891 0.998952 -0.0103709)
(-0.227397 0.973795 -0.00365801)
(-0.13316 0.991088 -0.00370128)
(-0.0953638 0.995434 -0.00416768)
(-0.0442156 0.999022 0.000312853)
(-0.227141 0.973856 -0.00343472)
(-0.384644 0.923044 0.00618441)
(-0.066064 0.997814 -0.00187321)
(0.055732 0.998445 -0.00130469)
(-0.160541 0.987022 -0.00370871)
(-0.384121 0.92319 -0.013115)
(0.0474319 0.998862 -0.00506322)
(-0.169022 0.985612 0.000719465)
(0.0367109 0.999325 -0.00149272)
(-0.0457116 0.998949 -0.00337681)
(0.0367364 0.999292 -0.00814965)
(-0.0457045 0.998951 -0.00267983)
(0.0364806 0.999304 -0.0077285)
(0.0365694 0.999331 -0.000834974)
(-0.391261 0.92019 -0.0128189)
(-0.121128 0.992637 0.000288323)
(-0.185122 0.982708 0.00395742)
(0.00939849 0.999956 -8.13039e-05)
(-0.390921 0.920383 0.00873223)
(0.030094 0.999547 0.000940463)
(-0.173655 0.984805 -0.00185511)
(-0.103097 0.994645 -0.00721954)
(-0.0505424 0.998657 -0.0114164)
(-0.23222 0.972659 -0.00285081)
(-0.137008 0.990562 -0.00388427)
(-0.103927 0.994573 -0.0047815)
(-0.0497213 0.998763 -0.000814714)
(-0.231801 0.972759 -0.00292572)
(-0.392172 0.919847 0.00913484)
(-0.0941504 0.995556 0.00211288)
(0.0216007 0.999763 0.00288471)
(-0.176517 0.984297 0.000962009)
(-0.3918 0.919997 -0.00991913)
(0.00641613 0.999977 -0.00197994)
(-0.188406 0.982081 0.00445514)
(-0.102194 0.994753 -0.00474062)
(-0.230895 0.972974 -0.00292633)
(-0.0485745 0.998819 -0.000511549)
(-0.136543 0.990626 -0.00400435)
(-0.0492501 0.998723 -0.0112289)
(-0.101515 0.994809 -0.00699325)
(-0.231208 0.972899 -0.00309268)
(-0.400619 0.914258 0.0603086)
(-0.274075 0.954754 0.115444)
(-0.258051 0.962444 0.0843275)
(-0.134172 0.987186 0.0863847)
(-0.402941 0.912002 0.0767509)
(-0.0975834 0.991264 0.0887335)
(-0.241972 0.966552 0.0850159)
(-0.389233 0.911598 0.132235)
(-0.273465 0.945183 0.178455)
(-0.123294 0.980572 0.15257)
(-0.277549 0.947487 0.158858)
(-0.377055 0.918294 0.120687)
(-0.160784 0.975899 0.147547)
(-0.291418 0.944082 0.154224)
(-0.381404 0.924388 0.00622915)
(-0.0464303 0.998921 0.0008947)
(-0.149596 0.988745 -0.00187739)
(0.0801031 0.996786 0.00118175)
(-0.16208 0.986775 0.0023686)
(0.0637999 0.997959 -0.00284075)
(-0.379547 0.92509 -0.0123309)
(0.284397 0.958705 -0.00187454)
(0.28678 0.957995 0.00168687)
(-0.0063437 0.999972 -0.00401247)
(0.0727524 0.99735 0.000324916)
(-0.0869678 0.996186 -0.00712951)
(-0.0155262 0.999875 -0.00293935)
(-0.0175354 0.999846 0.00116184)
(-0.0479862 0.998834 -0.00519656)
(0.27096 0.962586 -0.00286472)
(0.277353 0.960768 0.000685746)
(0.280143 0.959957 0.00125329)
(0.274022 0.961719 -0.00299059)
(-0.388235 0.921459 -0.0136782)
(-0.175892 0.984408 0.00184095)
(-0.102096 0.994772 -0.00204647)
(0.0298375 0.999552 -0.00213066)
(-0.387643 0.921781 0.00718193)
(-0.166773 0.985988 -0.00375472)
(0.0463113 0.998927 -0.000420829)
(-0.0981984 0.995147 -0.00632663)
(-0.0466204 0.998859 -0.0103884)
(-0.134598 0.990895 -0.00333291)
(-0.229343 0.973341 -0.00301945)
(-0.229161 0.973384 -0.00293564)
(-0.0461954 0.998932 0.000288344)
(-0.0985688 0.995122 -0.00409758)
(-0.0977133 0.995207 -0.00380523)
(-0.228608 0.973515 -0.00255495)
(-0.045601 0.998959 0.000759167)
(-0.134328 0.990931 -0.0033268)
(-0.0973382 0.995234 -0.00588977)
(-0.228807 0.973467 -0.00293613)
(-0.0459699 0.998892 -0.0100366)
(-0.388608 0.921377 0.00697248)
(-0.0792106 0.996857 -0.00139092)
(-0.167984 0.985786 -0.00269591)
(0.0411212 0.999154 -0.0006055)
(-0.176686 0.984266 0.00137565)
(0.0319758 0.999477 -0.00472954)
(-0.388159 0.921511 -0.012226)
(0.276227 0.961091 0.00139145)
(0.270002 0.962855 -0.00295986)
(0.268087 0.963391 -0.00262368)
(0.274547 0.961573 0.000892603)
(-0.0447288 0.998998 0.00144024)
(-0.0802371 0.996764 -0.00482032)
(-0.106997 0.994239 -0.00638229)
(-0.033816 0.999425 -0.00249911)
(-0.224441 0.974435 0.010171)
(-0.130723 0.991366 0.0102368)
(-0.118618 0.992903 0.0086151)
(-0.177909 0.984044 0.00225533)
(0.246313 0.96919 0.00126932)
(0.259856 0.965639 0.00399828)
(0.265567 0.964087 0.00317671)
(0.254748 0.967007 -0.00137884)
(-0.397215 0.917713 -0.00473067)
(-0.206053 0.978441 0.0140068)
(-0.163838 0.98639 0.0138217)
(-0.0356726 0.999304 0.0109364)
(-0.397055 0.917633 0.0172051)
(-0.189068 0.981928 0.0084039)
(-0.00507121 0.999926 0.0110545)
(-0.399192 0.91648 0.0266541)
(-0.131837 0.990928 0.0260905)
(-0.19807 0.97991 0.0233258)
(-0.0244075 0.999361 0.0261068)
(-0.215647 0.976165 0.0244432)
(-0.0508962 0.998519 0.0192287)
(-0.398209 0.917246 0.00944663)
(0.257502 0.966258 0.00610902)
(0.242794 0.970076 0.00170258)
(0.226682 0.973928 0.00893102)
(0.246312 0.969133 0.0105231)
(-0.162952 0.986419 0.0205849)
(-0.231173 0.97279 0.0154368)
(-0.279225 0.959456 0.0384513)
(-0.189533 0.981284 0.0340482)
(0.31861 0.935541 0.152479)
(0.243844 0.954309 0.172727)
(-0.232886 0.948479 0.214831)
(-0.204797 0.957281 0.204134)
(0.174971 0.98173 0.0747786)
(0.144154 0.981774 0.123851)
(0.0140411 0.990314 0.138136)
(-0.0333442 0.989004 0.144082)
(-0.139758 0.978858 0.149345)
(-0.0229213 0.990511 0.135508)
(-0.0661789 0.963808 0.258252)
(0.141942 0.980204 0.138027)
(-0.196105 0.968447 0.153796)
(0.14129 0.98624 0.0858401)
(0.306895 0.936525 0.169516)
(0.145305 0.980067 0.135481)
(0.266032 0.90875 0.321559)
(0.132498 0.975897 0.173405)
(0.139975 0.970109 0.198232)
(0.0820503 0.983761 0.15963)
(0.192211 0.968634 0.157487)
(0.21509 0.944595 0.247944)
(0.0749013 0.993465 0.0861259)
(-0.093171 0.995282 -0.0270782)
(0.0737001 0.995556 0.0586235)
(0.0333185 0.993023 -0.113114)
(0.0165515 0.996471 0.0822924)
(-0.0372367 0.995894 -0.0825132)
(0.120618 0.991929 0.039086)
(0.133548 0.983449 0.122446)
(0.0804799 0.983577 0.16155)
(0.108867 0.979794 0.167787)
(0.223963 0.960141 0.167244)
(0.062308 0.986304 0.152715)
(0.20805 0.968866 0.134212)
(0.189401 0.961963 0.196863)
(0.253563 0.965993 0.0506302)
(0.303588 0.952758 0.00926426)
(0.344101 0.931998 0.113902)
(-0.0108396 0.948461 0.316708)
(0.0379678 0.999275 -0.00289784)
(-0.0455699 0.998955 -0.00356594)
(0.0378687 0.999245 -0.00867562)
(0.037717 0.999263 -0.00706513)
(-0.0452785 0.998973 -0.00174097)
(0.0377267 0.999288 -0.000464743)
(-0.381674 0.924259 0.008341)
(-0.0538056 0.998551 -0.00119506)
(-0.155188 0.987882 -0.00244976)
(0.0644425 0.997921 -0.000382929)
(-0.382109 0.924054 -0.010838)
(-0.164036 0.986452 0.00201306)
(0.0586724 0.998266 -0.00466841)
(-0.379279 0.925194 -0.0127896)
(-0.0676965 0.997706 -0.0005045)
(-0.160887 0.986969 0.00275355)
(0.0633301 0.997992 -0.000519161)
(-0.379601 0.925125 0.00688486)
(-0.147085 0.989121 -0.00235128)
(0.085466 0.996341 0.00102723)
(-0.00862713 0.99996 0.00241938)
(-0.0536242 0.998552 -0.00420557)
(-0.0633289 0.997965 -0.00738683)
(0.00293311 0.999992 -0.00278381)