/*--------------------------------*- C++ -*----------------------------------*\
| =========                 |                                                 |
| \\      /  F ield         | OpenFOAM: The Open Source CFD Toolbox           |
|  \\    /   O peration     | Version:  2012                                  |
|   \\  /    A nd           | Website:  www.openfoam.com                      |
|    \\/     M anipulation  |                                                 |
\*---------------------------------------------------------------------------*/
FoamFile
{
    version     2.0;
    format      ascii;
    class       volScalarField;
    location    "0.104/solid";
    object      sigmaMid;
}
// * * * * * * * * * * * * * * * * * * * * * * * * * * * * * * * * * * * * * //

dimensions      [1 -1 -2 0 0 0 0];


internalField   nonuniform List<scalar> 
3125
(
-501.853
-473.629
-446.619
-504.765
-478.103
-450.398
-517.431
-492.89
-459.659
-513.857
-489.618
-455.834
-508.932
-448.89
-608.489
-498.934
-520.34
-603.271
-446.39
-451.724
-416.101
-577.511
-468.938
-475.41
-571.11
-409.274
-440.832
-326.261
-616.074
-440.02
-403.064
-642.776
-305.206
-626.024
-630.939
-529.571
-507.679
-451.643
-610.31
-517.665
-615.183
-454.857
-624.24
-618.962
-595.742
-602.085
-489.961
-482.252
-422.046
-579.77
-471.669
-586.244
-427.257
-593.595
-587.588
-635.231
-600.89
-405.557
-451.568
-345.492
-605.153
-390.278
-579.181
-358.375
-651.33
-697.64
-624.962
-466.614
-539.904
-1041.56
-311.71
-304.151
-302.589
-1013.94
-1006.58
-511.571
-495.967
-596.211
-440.139
-601.498
-499.227
-443.574
-995.078
-1004.15
-299.449
-301.055
-290.658
-288.715
-959.1
-941.813
-456.371
-464.178
-566.1
-392.236
-569.345
-426.017
-401.362
-913.122
-935.372
-284.251
-286.564
-243.484
-219.833
-858.185
-832.112
-425.621
-389.331
-639.242
-240.499
-778.545
-190.065
-640.371
-638.315
-632.564
-527.009
-510.646
-622.593
-462.451
-543.687
-616.78
-458.486
-305.699
-307.163
-1017.29
-1026.8
-1035.43
-1028.45
-310.129
-308.722
-611.888
-617.2
-610.007
-604.155
-486.838
-486.089
-594.282
-436.198
-501.893
-588.392
-431.919
-292.638
-294.381
-964.127
-977.381
-991.695
-981.216
-297.787
-296.152
-969.84
-583.534
-585.942
-940.546
-962.338
-584.252
-593.832
-875.266
-894.821
-932.649
-903.853
-398.085
-453.134
-566.328
-381.81
-431.688
-573.677
-370.379
-255.145
-272.463
-857.17
-872.474
-905.023
-879.927
-281.862
-276.793
-877.852
-882.364
-401.545
-695.582
-831.443
-430.627
-350.906
-594.902
-286.071
-350.451
-644.334
-498.15
-516.084
-626.808
-569.88
-571.235
-628.859
-496.568
-500.507
-513.54
-575.326
-633.323
-501.993
-574.32
-631.246
-448.447
-466.423
-569.153
-507.42
-511.461
-574.306
-443.649
-453.533
-462.333
-522.559
-584.351
-457.562
-519.329
-579.827
-397.132
-434.882
-497.836
-366.928
-371.721
-498.858
-405.148
-397.997
-412.855
-391.714
-494.88
-397.698
-382.76
-497.373
-508.378
-521.267
-643.244
-585.028
-510.616
-583.256
-640.691
-505.817
-524.12
-578.374
-635.75
-504.287
-579.707
-637.938
-469.529
-479.727
-600.682
-540.669
-472.485
-538.312
-597.228
-465.501
-483.075
-529.374
-589.122
-462.1
-532.34
-593.001
-398.736
-389.259
-506.451
-428.736
-400.483
-422.053
-501.571
-399.599
-398.912
-404.717
-495.928
-398.928
-411.435
-497.042
-530.803
-541.244
-665.981
-609.459
-527.282
-545.615
-658.503
-603.637
-661.617
-604.649
-525.594
-741.339
-1048.69
-840.038
-847.137
-1054.81
-849.888
-732.454
-738.484
-571.183
-523.838
-311.328
-524.729
-565.377
-569.165
-312.854
-529.264
-539.729
-542.153
-504.009
-304.194
-503.629
-544.781
-543.228
-500.896
-302.657
-501.356
-700.16
-703.171
-814.741
-1011.02
-811.381
-707.891
-704.874
-806.593
-1008.61
-809.683
-492.344
-624.324
-504.307
-566.575
-494.112
-622.051
-565.232
-489.644
-506.952
-616.753
-559.486
-619.259
-561.403
-487.585
-698.479
-695.13
-998.173
-795.542
-799.502
-804.947
-1001.3
-801.376
-689.576
-693.241
-538.513
-536.188
-493.541
-299.494
-494.422
-530.969
-534.673
-498.273
-301.118
-497.673
-489.176
-495.651
-467.413
-290.779
-466.31
-503.815
-498.747
-458.892
-288.711
-460.152
-640.143
-647.867
-762.543
-953.537
-755.48
-657.953
-651.203
-743.944
-947.638
-751.955
-432.247
-562.889
-439.572
-498.407
-438.042
-556.892
-493.81
-426.367
-444.599
-543.081
-477.772
-549.741
-483.468
-419.355
-636.468
-627.44
-920.672
-716.181
-726.547
-740.088
-928.196
-730.729
-613.427
-623.442
-485.593
-478.748
-441.247
-284.432
-442.678
-466.062
-474.536
-451.883
-286.638
-450.562
-321.446
-328.017
-377.403
-236.984
-368.907
-383.064
-344.311
-335.659
-224.12
-346.028
-596.623
-601.898
-678.472
-859.307
-680.004
-585.505
-592.439
-666.034
-853.622
-685.205
-432.508
-493.711
-377.498
-359.545
-417.051
-529.91
-354.271
-482.807
-626.316
-613.42
-653.193
-369.929
-204.972
-274.401
-270.525
-432.608
-485.272
-583.127
-317.334
-582.811
-569.715
-667.558
-618.21
-646.501
-698.661
-627.232
-576.429
-333.114
-319.728
-180.549
-254.825
-316.188
-314.294
-169.904
-278.209
-516.959
-537.67
-646.364
-589.772
-514.003
-649.187
-592.65
-520.602
-535.239
-655.234
-599.858
-522.901
-652.413
-597.944
-552.895
-550.25
-506.559
-305.742
-507.221
-545.922
-548.833
-510.89
-307.303
-510.282
-718.482
-714.94
-816.621
-1020.74
-820.503
-709.686
-713.08
-826.001
-1024.14
-822.326
-720.283
-723.584
-836.983
-1031.46
-832.468
-729.706
-725.823
-827.482
-1029.45
-830.52
-554.663
-558.624
-519.841
-310.349
-519
-563.751
-560.607
-514.369
-308.675
-515.19
-478.767
-496.104
-604.391
-545.945
-476.129
-607.439
-548.306
-482.125
-493.287
-613.684
-555.111
-484.525
-610.849
-553.162
-517.762
-513.897
-472.862
-292.605
-473.926
-506.473
-511.551
-479.661
-294.494
-478.752
-674.454
-669.346
-765.625
-968.656
-771.678
-660.9
-666.653
-779.796
-973.164
-774.421
-676.787
-681.28
-793.483
-988.177
-789.129
-687.566
-683.471
-782.204
-984.626
-786.884
-519.816
-524.06
-489.829
-297.883
-488.981
-529.238
-525.967
-484.017
-296.124
-484.947
-947.264
-954.245
-878.288
-886.027
-923.372
-913.505
-404.505
-417.854
-513.374
-440.5
-399.658
-520.118
-447.671
-406.373
-411.566
-535.338
-466.245
-414.139
-528.134
-459.83
-429.418
-417.475
-394.849
-261.42
-397.446
-394.814
-410.721
-410.507
-268.749
-408.783
-583.872
-575.363
-672.503
-859.607
-675.784
-576.97
-578.507
-683.676
-865.424
-674.439
-584.731
-595.348
-711.922
-896.554
-700.525
-609.617
-598.466
-685.734
-887.955
-696.729
-435.508
-446.422
-432.493
-281.407
-431.075
-461.191
-451.965
-420.358
-278.515
-421.752
-885.463
-891.224
-650.734
-689.628
-701.662
-726.288
-528.867
-513.453
-598.69
-580.901
-580.633
-597.254
-527.503
-497.658
-522.92
-614.714
-606.801
-498.475
-522.241
-612.695
-534.503
-515.855
-586.743
-603.513
-534.95
-587.852
-605.75
-495.243
-608.542
-605.009
-518.85
-519.667
-610.497
-494.314
-472.705
-460.947
-541.669
-522.523
-522.13
-539.118
-469.763
-468.052
-493.3
-568.342
-575.394
-469.167
-492.744
-564.009
-485.468
-467.635
-537.154
-554.144
-487.122
-538.274
-556.961
-426.821
-449.098
-487.617
-444.557
-445.685
-485.462
-419.569
-397.063
-398.151
-441.159
-468.152
-399.04
-443.715
-477.003
-509.999
-627.81
-510.471
-513.446
-629.432
-512.83
-543.331
-524.142
-613.123
-596.467
-544.345
-597.359
-615.398
-501.394
-525.265
-617.126
-612.078
-500.677
-525.816
-619.446
-537.491
-522.001
-589.772
-607.7
-536.292
-589.482
-606.203
-507.684
-622.527
-507.089
-620.743
-503.839
-504.566
-501.849
-483.773
-570.638
-553.748
-502.999
-554.801
-573.05
-473.523
-496.915
-572.782
-582.016
-472.361
-497.646
-576.562
-492.147
-478.874
-542.717
-561.281
-489.909
-542.399
-559.27
-476.515
-583.819
-501.785
-584.198
-501.034
-477.657
-580.496
-405.937
-393.194
-476.691
-457.792
-409.553
-459.806
-482.302
-399.928
-398.52
-446.614
-474.6
-395.125
-445.494
-468.034
-560.413
-544.554
-631.036
-613.618
-628.931
-612.844
-559.645
-677.37
-679.614
-517.234
-520.961
-485.382
-489.012
-495.003
-492.803
-644.579
-646.681
-653.833
-651.831
-525.434
-594.43
-506.936
-577.771
-526.033
-596.562
-578.848
-488.697
-512.244
-598.066
-598.971
-601.443
-512.942
-487.778
-491.016
-606.243
-516.235
-599.856
-491.917
-604.061
-515.519
-519.178
-504.184
-588.647
-570.785
-587.22
-570.624
-517.624
-644.374
-642.37
-634.046
-636.407
-486.449
-483.969
-475.359
-479.545
-425.439
-433.449
-448.225
-442.911
-584.661
-589.252
-604.65
-600.985
-463.803
-532.511
-446.425
-515.351
-466.184
-535.9
-516.564
-447.226
-437.595
-516.229
-496.138
-513.027
-495.77
-443.183
-583.821
-578.966
-558.367
-564.197
-427.738
-420.475
-397.815
-408.004
-378.516
-370.739
-354.398
-349.481
-544.304
-560.076
-534.436
-532.241
-403.75
-471.622
-382.62
-433.587
-416.56
-469.44
-427.684
-447.132
-374.478
-481.05
-355.407
-425.263
-534.889
-335.111
-521.69
-574.69
-566.365
-657.843
-489.209
-604.196
-608.294
-359.556
-291.64
-295.141
-231.484
-347.095
-289.732
-285.024
-529.23
-504.813
-375.721
-324.35
-520.456
-636.289
-519.996
-516.246
-634.331
-517.085
-548.659
-532.883
-618.376
-600.282
-546.458
-616.808
-600.414
-557.888
-538.411
-625.894
-609.98
-558.359
-628.681
-611.238
-504.334
-501.31
-493.901
-497.365
-664.223
-661.796
-654.008
-656.037
-664.49
-667.39
-677.012
-674.376
-503.85
-508.411
-519.378
-516.654
-497.436
-613.768
-498.019
-501.238
-615.535
-500.593
-494.729
-608.159
-494.146
-506.993
-492.657
-576.337
-558.141
-505.175
-574.692
-557.907
-484.302
-509.492
-596.101
-592.443
-485.307
-508.785
-593.392
-514.924
-496.634
-583.808
-567.087
-515.813
-585.972
-568.039
-481.638
-587.279
-505.012
-590.446
-480.529
-505.805
-590.242
-463.751
-459.82
-446.495
-452.68
-620.687
-617.859
-605.31
-608.812
-621.177
-623.956
-633.668
-631.277
-462.392
-467.342
-476.398
-473.285
-417.46
-410.705
-487.952
-466.159
-412.314
-483.734
-465.598
-435.66
-419.436
-504.97
-487.354
-438.956
-509.135
-488.678
-370.096
-360.787
-348.683
-356.491
-532.648
-527.311
-526.729
-529.477
-531.437
-537.366
-557.643
-551.627
-366.388
-377.388
-400.655
-391.278
-398.403
-527.199
-625.69
-622.571
-703.827
-688.414
-481.666
-411.756
-459.76
-502.209
-320.203
-458.088
-534.71
-570.11
-503.796
-376.651
-312.32
-407.495
-549.597
-617.183
-530.032
-511.365
-582.389
-599.007
-530.643
-583.384
-601.235
-533.478
-518.057
-585.454
-603.293
-532.12
-585.161
-601.808
-475.337
-457.578
-527.032
-544.004
-477.333
-528.15
-547.125
-483.152
-470.524
-533.385
-552.124
-480.548
-532.993
-549.931
-417.764
-437.77
-441.009
-480.526
-415.626
-444.593
-493.157
-406.128
-412.153
-443.326
-483.95
-404.178
-441.306
-474.042
-541.896
-526.082
-594.411
-612.357
-540.364
-594.158
-610.923
-538.481
-519.55
-591.144
-607.879
-538.883
-592.27
-610.186
-500.071
-486.184
-550.986
-569.255
-498.038
-550.664
-567.502
-494.178
-476.124
-546.047
-562.879
-495.559
-547.071
-565.512
-405.27
-400.441
-454.33
-477.652
-400.294
-453.127
-472.545
-397.135
-388.766
-447.648
-468.306
-400.229
-450.273
-475.191
-565.019
-547.95
-636.873
-618.729
-562.802
-635.028
-618.494
-561.052
-540.517
-630.797
-614.418
-560.999
-633.789
-616.223
-683.68
-687.001
-835.629
-743.509
-762.323
-763.633
-837.921
-1295.24
-1423.51
-1428.99
-1289.84
-1300.73
-1439.8
-1305.85
-1433.9
-1315.03
-1444.25
-1311.67
-1448.26
-682.577
-680.217
-753.707
-734.049
-822.726
-754.819
-825.752
-831.535
-758.965
-736.625
-757.694
-828.836
-518.876
-524.643
-619.109
-632.429
-580.204
-568.81
-578.47
-615.586
-634.892
-428.284
-548.057
-545.967
-431.262
-368.742
-184.156
-367.369
-183.247
-427.151
-541.757
-542.96
-425.338
-369.572
-183.561
-372.026
-183.498
-522.059
-519.347
-613.248
-575.059
-563.331
-625.828
-573.02
-627.757
-610.917
-614.665
-630.475
-576.568
-564.568
-575.05
-615.105
-629.827
-433.434
-548.581
-550.222
-432.12
-183.74
-372.312
-490.888
-488.678
-579.44
-544.895
-537.553
-592.633
-543.147
-594.104
-577.374
-580.646
-595.75
-546.835
-538.513
-544.789
-580.712
-595.437
-407.948
-517.628
-517.613
-408.557
-353.776
-183.671
-354.799
-183.829
-407.611
-518.9
-518.065
-408.219
-354.101
-184.426
-354.505
-183.078
-490.073
-493.699
-585.019
-550.691
-541.461
-599.54
-548.796
-599.223
-585.334
-583.839
-596.757
-549.002
-540.707
-547.197
-581.619
-598.16
-406.751
-517.538
-516.229
-408.536
-352.696
-183.8
-352.175
-182.82
-406.187
-513.598
-514.191
-405.435
-353.099
-183.641
-354.737
-183.665
-649.206
-647.083
-720.538
-701.027
-789.978
-720.935
-791.563
-794.026
-723.113
-702.728
-723.162
-792.45
-1261.27
-1395.31
-1262.91
-1393.23
-1012.78
-899.874
-813.979
-957.659
-899.127
-956.192
-1014.14
-1011.14
-953.461
-812.377
-896.262
-897.486
-954.794
-1009.95
-1259.34
-1389.53
-1257.57
-1391.41
-649.253
-651.451
-728.049
-707.406
-798.816
-727.964
-797.241
-794.581
-725.391
-705.687
-725.718
-796.23
-1006.93
-891.8
-807.593
-949.145
-893.001
-950.434
-1005.86
-1254.85
-1385.29
-1253.46
-1386.58
-1008.04
-952.588
-809.075
-894.792
-894.272
-951.451
-1008.84
-1255.82
-1388.38
-1256.5
-1387.51
-524.267
-508.968
-593.898
-576.231
-522.824
-592.532
-575.948
-520.497
-502.032
-589.385
-572.841
-521.21
-591.559
-573.792
-718.363
-789.124
-697.914
-718.195
-787.73
-639.537
-641.749
-784.805
-696.173
-715.331
-715.967
-786.476
-1241.92
-1371.15
-1373.13
-1239.69
-995.372
-880.443
-796.783
-937.021
-881.984
-938.836
-993.757
-997.172
-942.131
-884.682
-798.607
-883.78
-998.611
-940.457
-1243.56
-1376.65
-1245.14
-1374.96
-1003.52
-890.299
-948.007
-804.185
-1004.61
-889.612
-946.741
-1251.07
-1384.08
-1252.22
-1382.58
-1001.89
-943.702
-802.576
-886.553
-887.994
-945.284
-1000.37
-1249.2
-1378.57
-1246.98
-1380.8
-639.218
-636.981
-709.688
-690.641
-778.792
-710.304
-780.692
-783.682
-712.981
-692.558
-712.716
-781.899
-480.813
-484.845
-576.074
-542.568
-591.437
-534.981
-576.512
-540.663
-590.986
-574.819
-587.901
-540.634
-534.018
-538.8
-572.3
-589.553
-400.344
-509.666
-507.546
-403.11
-347.198
-182.977
-346.212
-182.193
-399.228
-503.318
-504.594
-397.699
-348.14
-183.049
-350.454
-182.695
-481.92
-479.278
-569.33
-535.47
-529.328
-581.772
-533.82
-583.663
-566.795
-570.881
-586.365
-537.954
-530.675
-535.88
-571.357
-585.648
-404.05
-510.315
-510.935
-403.856
-350.97
-183.037
-352.151
-183.11
-404.101
-513.331
-405.158
-512.083
-350.923
-183.703
-350.865
-182.589
-438.834
-432.638
-520.556
-490.777
-489.574
-528.953
-488.914
-531.923
-516.273
-523.348
-537.762
-495.224
-492.046
-493.18
-525.722
-535.764
-370.442
-464.793
-466.966
-368.597
-326.671
-184.165
-328.758
-183.872
-370.998
-472.943
-470.222
-373.597
-325.987
-185.119
-324.958
-184.479
-436.883
-444.023
-533.734
-504.553
-500.371
-548.302
-502.569
-546.65
-535.794
-531.296
-540.819
-500.71
-498.339
-498.854
-527.289
-543.481
-363.112
-463.792
-460.263
-367.243
-319.862
-186.385
-317.899
-186.047
-361.845
-452.356
-455.298
-358.624
-321.226
-185.72
-324.195
-185.262
-594.822
-590.539
-659.478
-642.501
-726.659
-660.875
-730.327
-736.213
-666.364
-645.972
-665.347
-732.826
-1198.21
-1331.07
-1201.12
-1328.24
-956.595
-847.058
-760.776
-902.405
-845.256
-899.711
-958.894
-1195.09
-1320.94
-1191.3
-1324.58
-595.636
-599.696
-676.767
-656.429
-746.737
-675.922
-743.921
-738.397
-670.636
-653.326
-671.96
-741.583
-1181.64
-1307.79
-1177.97
-1310.88
-1184.65
-1317.13
-1188.21
-1314.13
-460.836
-449.999
-529.635
-510.191
-457.34
-526.872
-509.786
-450.459
-433.413
-519.345
-502.121
-453.302
-523.127
-503.324
-654.719
-724.293
-634.22
-653.485
-720.576
-572.105
-577.395
-713.442
-630.42
-646.677
-648.459
-717.57
-1149.34
-1273.12
-1277.4
-1144.7
-1152.94
-1285.91
-1157.13
-1281.92
-1170.7
-1303.45
-1174.79
-1299.78
-1166.57
-1290.61
-1161.33
-1295.14
-571.112
-565.575
-632.721
-616.793
-698.991
-634.5
-703.392
-710.603
-641.356
-620.665
-639.909
-706.381
-412.698
-421.866
-511.414
-484.459
-525.443
-482.48
-514.484
-482.538
-523.046
-508.292
-515.504
-479.64
-479.782
-477.583
-503.415
-518.77
-342.384
-438.533
-433.931
-347.851
-304.624
-190.58
-301.414
-190.764
-341.17
-423.341
-427.52
-336.156
-306.475
-189.978
-310.273
-189.344
-415.232
-406.837
-494.522
-467.054
-468.428
-499.984
-464.789
-503.576
-489.376
-497.979
-511.452
-472.318
-471.618
-470.423
-501.511
-508.611
-352.864
-439.853
-443.12
-349.572
-314.406
-187.355
-317.096
-186.943
-353.518
-451.444
-357.204
-447.782
-313.348
-188.618
-311.436
-188.273
-365.715
-362.963
-315.697
-373.679
-323.021
-331.52
-371.994
-320.372
-343.445
-317.919
-344.158
-382.049
-324.033
-378.837
-338.726
-324.421
-250.458
-323.498
-335.197
-259.707
-216.085
-138.888
-216.534
-130.681
-253.595
-349.24
-342.948
-252.401
-212.774
-117.424
-218.362
-123.149
-351.72
-357.225
-404.597
-405.337
-381.227
-419.942
-404.68
-408.249
-422.091
-385.218
-367.265
-395.52
-367.319
-394.656
-360.115
-390.51
-275.139
-316.509
-302.515
-256.755
-218.097
-130.47
-230.325
-119.733
-269.561
-296.457
-292.817
-286.096
-223.388
-116.186
-214.921
-119.401
-552.489
-546.372
-610.47
-606.052
-679.65
-617.202
-688.2
-683.414
-613.377
-602.12
-619.137
-686.718
-1086.53
-1200
-1086.96
-1198.12
-1087.09
-1192
-1083.24
-1197.03
-538.232
-540.793
-600.393
-583.659
-667.337
-603.474
-670.807
-678.54
-611.098
-593.755
-606.964
-674.111
-1062.57
-1137.92
-1041.98
-1158.24
-1071.76
-1186.07
-1080.15
-1175.83
-428.48
-412.88
-474.69
-416.572
-441.924
-453.554
-413.992
-540.898
-538.906
-586.061
-637.343
-702.842
-674.187
-602.591
-617.689
-628.115
-584.794
-663.132
-619.683
-333.278
-365.073
-331.52
-245.049
-226.934
-252.815
-286.36
-272.973
-290.872
-325.104
-246.775
-302.775
-493.203
-389.04
-441.587
-506.397
-446.121
-485.239
-555.112
-550.167
-520.563
-342.787
-381.18
-398.148
-592.24
-662.834
-557.946
-565.758
-633.539
-497.033
-490.754
-583.25
-538.28
-548.587
-548.926
-597.724
-641.066
-618.73
-654.945
-706.75
-611.45
-682.363
-790.853
-758.646
-980.019
-1103.12
-1022.23
-1055.85
-925.089
-900.282
-839.498
-980.96
-564.407
-630.593
-586.381
-309.351
-368.594
-347.926
-363.347
-333.3
-336.179
-365.749
-383.832
-343.204
-386.271
-307.765
-374.969
-341.149
-342.167
-297.098
-326.204
-250.4
-203.465
-195.664
-159.953
-196.521
-254.723
-235.324
-223.145
-165.965
-185.356
-400.03
-318.879
-368.249
-340.127
-223.946
-215.228
-267.59
-195.686
-207.354
-124.643
-217.321
-104.046
-262.465
-292.816
-274.761
-284.747
-174.935
-112.454
-159.846
-97.3677
-1379.38
-1384.1
-1393.66
-1388.91
-1398.06
-1353.18
-1355.49
-1359.73
-1357.64
-1366.51
-1365.51
-1361.9
-1364.09
-1375.44
-1372.05
-1367.78
-1369.69
-1366.85
-1367.49
-1367.54
-1367.29
-550.683
-531.264
-619.648
-603.593
-552.237
-622.118
-604.086
-556.576
-541.123
-625.441
-607.727
-554.583
-623.515
-607.753
-497.731
-501.842
-594.81
-559.705
-549.135
-609.95
-557.585
-609.193
-595.616
-593.269
-605.72
-557.293
-548.024
-555.5
-590.697
-607.497
-410.178
-523.805
-522.066
-412.562
-355.438
-184.501
-354.743
-183.561
-409.378
-519.037
-408.443
-519.719
-356.029
-184.47
-358.124
-184.284
-499.075
-496.859
-588.337
-552.871
-543.879
-600.669
-551.134
-586.271
-602.258
-589.657
-604.302
-554.765
-544.945
-552.795
-589.853
-603.817
-413.459
-524.36
-525.117
-413.128
-358.628
-184.165
-359.864
-184.369
-413.54
-528.336
-526.673
-414.93
-358.455
-185.106
-358.339
-183.948
-658.817
-661.095
-738.752
-717.859
-810.261
-738.699
-808.953
-806.161
-735.6
-716.098
-736.285
-807.764
-1267.47
-1397.36
-1264.96
-1399.83
-1017.81
-901.818
-817.788
-959.234
-903.33
-1016
-961.109
-1019.93
-964.93
-819.56
-906.314
-905.297
-963.05
-1021.73
-1269.6
-1404.32
-1401.96
-1271.6
-658.463
-656.42
-730.276
-710.615
-799.891
-730.78
-801.69
-804.671
-733.276
-712.375
-732.991
-802.951
-1277.97
-1411.48
-1410.42
-1278.41
-1276.29
-1406.49
-1409.01
-1274.03
-671.121
-667.958
-741.403
-721.205
-810.801
-741.584
-812.493
-814.78
-744.118
-723.307
-744.611
-812.763
-1282.24
-1419.45
-1285.44
-1415.69
-1279.52
-1411.55
-1413.31
-1278.08
-670.973
-674.134
-750.653
-820.353
-728.913
-750.405
-817.646
-814.235
-747.316
-726.497
-747.24
-816.685
-1279.04
-1411.71
-1412.07
-1278.88
-1278.86
-1411.41
-1411.7
-1278.2
-512.451
-509.086
-599.642
-562.728
-552.728
-611.713
-561.387
-596.909
-613.862
-601.705
-617.252
-566.349
-554.311
-563.798
-602.585
-616.155
-422.726
-537.244
-538.351
-421.944
-365.406
-183.645
-367.171
-183.713
-422.976
-541.535
-424.547
-540.032
-365.11
-184.523
-364.666
-183.272
-512.732
-517.17
-609.256
-572.209
-624.185
-559.657
-609.994
-570.353
-623.406
-607.361
-619.249
-569.555
-558.38
-568.161
-604.397
-621.458
-418.19
-536.332
-533.964
-421.193
-361.033
-184.616
-360.116
-183.573
-417.182
-529.021
-415.457
-530.541
-361.912
-184.039
-364.286
-183.926
-1351.12
-1349.19
-1345.56
-1347.37
-1341.09
-1342.41
-1344.4
-1343.4
-1327.48
-1329.4
-1332.85
-1331.26
-1339.87
-1338.51
-1334.76
-1336.75
-1291.73
-1294.24
-1299.2
-1297.04
-1309.26
-1307.26
-1301.99
-1304.55
-1325.44
-1323.61
-1319.2
-1321.35
-1311.51
-1313.47
-1317.12
-1315.49
-508.625
-490.339
-577.462
-560.744
-509.66
-579.779
-561.669
-513.448
-498.712
-582.763
-564.794
-511.697
-581.286
-564.588
-455.131
-460.756
-550.868
-519.963
-514.214
-565.743
-517.985
-564.616
-552.202
-548.972
-560.034
-516.958
-512.662
-515.149
-545.663
-562.228
-378.211
-482.493
-479.678
-381.61
-330.749
-183.927
-329.368
-183.353
-377.003
-473.653
-374.739
-475.735
-331.85
-183.534
-334.443
-183.138
-456.636
-452.155
-540.708
-509.268
-505.828
-550.947
-507.536
-537.257
-553.384
-542.908
-557.69
-512.813
-507.752
-510.735
-544.381
-556.315
-383.776
-483.308
-484.779
-382.713
-336.163
-182.854
-337.922
-182.645
-384.221
-489.252
-487.127
-386.213
-335.61
-183.486
-335.027
-182.677
-613.697
-616.85
-693.691
-673.376
-763.975
-693.138
-761.845
-757.545
-689.027
-670.911
-690.028
-760.009
-1206.82
-1334.17
-1203.64
-1336.79
-963.929
-849.985
-767.519
-904.799
-852.215
-961.635
-907.478
-966.549
-912.27
-770.2
-856.324
-854.79
-909.826
-968.601
-1209.14
-1341.87
-1339.59
-1211.6
-613.097
-609.809
-680.486
-662.616
-748.564
-681.521
-751.397
-755.897
-685.679
-665.386
-685.018
-753.279
-975.694
-864.631
-778.507
-920.991
-863.349
-918.961
-977.457
-1219.67
-1352.47
-1350.28
-1221.79
-973.247
-914.455
-776.15
-858.971
-860.999
-916.796
-971.11
-1217.11
-1344.69
-1347.53
-1214.02
-627.413
-624.737
-696.635
-678.113
-765.388
-697.417
-767.611
-771.165
-700.653
-680.362
-700.254
-769.071
-1236.08
-1369.11
-1237.86
-1367.13
-990.428
-878.456
-935.449
-792.476
-991.918
-877.464
-933.77
-1233.92
-1362.51
-1364.85
-1231.44
-988.423
-930.155
-790.517
-873.847
-875.499
-932.019
-986.731
-627.835
-630.482
-707.175
-777.636
-686.793
-706.819
-775.862
-772.385
-703.435
-684.713
-704.187
-774.403
-981.322
-866.905
-783.685
-922.822
-868.672
-979.545
-924.879
-1226.16
-1354.73
-1356.76
-1223.76
-1227.91
-1360.41
-1358.74
-1229.6
-983.302
-928.536
-785.798
-871.748
-870.66
-926.662
-984.828
-470.423
-467.019
-556.269
-523.594
-518.562
-567.799
-521.907
-553.398
-569.881
-558.071
-573.254
-526.539
-520.138
-524.423
-558.992
-572.242
-394.812
-497.981
-499.083
-394.125
-344.24
-182.531
-345.798
-182.464
-395.178
-502.724
-396.865
-500.915
-343.846
-183.125
-343.438
-182.239
-469.327
-474.03
-564.708
-532.477
-580.002
-525.575
-565.655
-530.461
-579.128
-563.066
-575.175
-529.864
-524.266
-528.129
-560.139
-577.148
-390.092
-497.208
-494.777
-393.141
-339.416
-182.975
-338.356
-182.218
-388.919
-489.848
-387.141
-491.419
-340.445
-182.763
-342.861
-182.406
-1288.69
-1286.09
-1279.48
-1282.58
-1267.82
-1271.57
-1276.29
-1274.47
-1233.89
-1237.81
-1244.54
-1241.79
-1262.31
-1257.32
-1248.57
-1252.1
-1158.08
-1158.95
-1166.04
-1162.19
-1185.77
-1181.95
-1171.58
-1176.64
-1229.14
-1224.94
-1214.05
-1219.29
-1191
-1196.08
-1207.78
-1202.23
-420.039
-405.007
-489.98
-472.013
-423.674
-494.735
-473.517
-432.418
-424.018
-501.752
-481.057
-427.692
-498.26
-480.658
-354.514
-364.175
-454.531
-431.52
-430.634
-461.308
-430.926
-458.003
-458.379
-451.514
-449.307
-429.981
-426.604
-424.439
-447.279
-452.493
-266.169
-366.564
-360.941
-276.045
-226.482
-143.841
-220.794
-151.423
-263.554
-348.541
-257.293
-353.604
-231.698
-166.551
-241.619
-158.02
-359.775
-352.329
-437.532
-419.221
-407.257
-428.562
-412.817
-429.704
-433.991
-441.818
-444.832
-419.83
-412.817
-419.978
-446.07
-441.05
-290.038
-367.828
-372.661
-280.599
-259.831
-185.677
-267.367
-180.853
-291.597
-384.99
-379.564
-299.975
-255.17
-171.208
-246.491
-177.655
-524.414
-528.934
-600.825
-579.558
-668.84
-599.909
-665.921
-662.051
-596.262
-580.46
-597.235
-664.103
-1086.22
-1199.47
-1084.94
-1202.41
-1087.41
-1209.88
-1204.47
-1090.42
-527.979
-524.407
-598.029
-580.507
-664.034
-596.542
-662.33
-661.296
-595.101
-574.384
-595.535
-661.167
-1101.86
-1228.98
-1224.35
-1105.7
-1098.36
-1213.98
-1220.12
-1093.71
-543.689
-537.522
-604.773
-589.261
-670.652
-606.326
-674.383
-681.062
-612.587
-591.355
-611.05
-676.925
-1136.2
-1268.37
-1140.89
-1263.86
-1131.71
-1253.22
-1258.65
-1126.12
-544.082
-550.324
-627.167
-696.25
-606.27
-625.588
-691.884
-684.051
-617.957
-602.697
-620.063
-688.555
-1113.4
-1233.1
-1237.9
-1108.8
-1117.02
-1247.76
-1242.81
-1121.67
-385.309
-375.382
-464.824
-440.801
-441.978
-465.773
-437.016
-459.968
-469.335
-468.24
-478.438
-444.842
-445.774
-443.563
-472.391
-475.028
-328.062
-406.296
-410.856
-322.236
-295.946
-192.076
-299.901
-191.187
-328.773
-422.077
-334.301
-417.19
-293.812
-191.739
-289.877
-192.544
-382.105
-393.086
-483.204
-458.834
-495.492
-459.345
-487.311
-457.203
-492.242
-479.584
-483.137
-453.807
-455.896
-450.976
-474.257
-486.837
-312.154
-404.618
-399.025
-319.866
-277.541
-186.829
-271.192
-189.924
-310.906
-386.321
-302.905
-391.452
-281.207
-192.585
-287.315
-190.246
-1156.27
-1154.59
-1142.72
-1149.17
-1080.32
-1102.65
-1132.97
-1120.73
-737.213
-690.159
-627.907
-752.138
-1047.66
-995.213
-851.958
-932.403
-464.849
-553.924
-573.235
-488.67
-489.048
-558.903
-463.876
-473.468
-508.063
-550.114
-626.859
-468.74
-517.299
-558.922
-473.126
-572.26
-636.462
-549.221
-523.624
-565.668
-489.876
-503.479
-624.472
-528.818
-613.718
-528.133
-504.477
-622.11
-482.984
-597.971
-483.481
-487.398
-600.058
-486.821
-479.459
-591.527
-479.198
-589.53
-475.527
-475.609
-506.719
-621.798
-494.611
-480.921
-609.701
-489.095
-464.204
-504.537
-542.055
-595.381
-468.11
-497.679
-534.121
-462.13
-522.32
-488.475
-586.106
-493.846
-459.041
-527.531
-513.727
-668.43
-533.145
-685.326
-594.501
-546.041
-514.909
-538.835
-627.013
-638.546
-642.552
-538.856
-514.208
-516.662
-628.358
-647.102
-541.078
-457.557
-483.13
-566.902
-530.182
-536.139
-482.289
-457.464
-460.146
-548.138
-485.187
-567.907
-460.796
-542.488
-485.376
-522.835
-642.235
-522.748
-643.473
-525.19
-511.079
-536.472
-634.816
-620.492
-512.183
-535.816
-632.004
-508.358
-627.044
-531.684
-618.464
-506.98
-532.689
-629.312
-490.577
-606.215
-491.209
-471.348
-584.056
-469.871
-472.125
-584.665
-472.777
-469.685
-585.819
-472.667
-478.126
-589.391
-472.999
-456.477
-481.137
-524.174
-567.394
-455.7
-483.19
-519.922
-456.147
-519.235
-486.635
-570.133
-458.003
-483.05
-518.074
-1042.71
-924.859
-842.027
-982.194
-927.628
-986.149
-1038.57
-1047.72
-994.961
-934.135
-845.041
-931.598
-1052.18
-990.897
-999.924
-937.774
-1002.46
-1056.97
-953.469
-893.853
-757.729
-839.629
-842.222
-896.908
-950.84
-941.545
-827.819
-746.48
-881.389
-830.828
-884.821
-938.541
-945.032
-891.051
-749.892
-836.324
-834.117
-887.87
-947.686
-912.455
-799.38
-719.642
-851.887
-803.412
-856.009
-909.044
-916.603
-863.711
-810.337
-723.594
-807.175
-919.874
-859.764
-931.688
-824.204
-878.302
-737.644
-934.877
-821.567
-874.761
-927.5
-867.327
-733.857
-814.304
-817.843
-871.18
-924.02
-877.064
-760.228
-675.819
-818.215
-754.034
-822.698
-874.17
-880.87
-829.467
-683.448
-756.612
-765.28
-825.663
-881.643
-870.058
-735.212
-679.813
-814.434
-755.896
-825.52
-855.41
-877.644
-830.633
-680.905
-765.281
-753.817
-830.704
-882.118
-804.956
-718.132
-796.555
-625.855
-833.638
-693.761
-769.381
-767.035
-722.789
-609.248
-674.543
-659.753
-738.62
-734.896
-1026.88
-911.993
-825.168
-970.787
-911.358
-969.854
-1027.56
-1025.48
-966.945
-823.645
-908.331
-909.871
-968.548
-1023.85
-1032.01
-921.397
-978.763
-835.76
-1034.62
-919.922
-976.045
-1029.68
-972.671
-833.544
-916.37
-917.713
-974.125
-1028.67
-1028.42
-913.086
-828.55
-971.421
-914.158
-1028.15
-972.141
-1028.55
-972.807
-829.963
-915.165
-914.867
-972.21
-1028.41
-868.017
-750.948
-676.117
-814.957
-757.413
-870.041
-812.15
-866.811
-811.096
-671.926
-757.147
-751.314
-811.495
-867.095
-873.124
-766.089
-679.556
-819.092
-760.984
-816.707
-875.289
-870.545
-812.66
-679.135
-754.85
-761.25
-814.218
-868.642
-901.445
-795.462
-848.257
-708.494
-904.898
-791.707
-844.212
-896.859
-836.008
-704.662
-783.191
-788.052
-840.167
-893.061
-881.205
-767.451
-690.088
-821.725
-772.826
-878.304
-824.951
-885.173
-832.141
-692.867
-779.694
-775.237
-828.367
-888.548
)
;

boundaryField
{
    left
    {
        type            calculated;
        value           nonuniform List<scalar> 0();
    }
    bottom
    {
        type            calculated;
        value           nonuniform List<scalar> 
214
(
-478.797
-449.521
-423.985
-481.699
-454.125
-426.162
-494.872
-469.52
-435.262
-491.502
-466.122
-431.444
-466.885
-464.069
-475.803
-427.487
-419.004
-444.695
-319.976
-312.452
-428.222
-484.713
-473.782
-469.971
-458.43
-441.182
-434.805
-427.275
-351.44
-335.018
-389.224
-488.053
-373.524
-375.882
-368.273
-371.569
-472.713
-460.803
-456.744
-341.859
-349.595
-324.044
-336.861
-439.834
-409.065
-397.368
-238.145
-230.964
-220.118
-398.275
-258.47
-416.562
-483.222
-478.338
-488.043
-383.237
-386.752
-377.759
-380.83
-452.039
-446.86
-462.433
-361.599
-365.781
-353.303
-358.658
-383.681
-368.164
-428.794
-292.925
-316.714
-243.751
-281.384
-263.975
-244.06
-240.079
-389.466
-392.271
-373.973
-375.765
-368.981
-371.273
-344.018
-348.312
-328.282
-334.303
-223.977
-225.569
-167.838
-191.925
-237.246
-191.33
-383.928
-386.489
-378.261
-380.454
-362.494
-365.27
-354.582
-357.896
-301.75
-311.02
-255.787
-270.049
-362.741
-339.3
-378.281
-240.086
-290.233
-301.806
-404.085
-250.731
-258.083
-145.924
-147.613
-146.471
-145.148
-147.503
-142.425
-143.615
-143.204
-141.465
-142.437
-143.404
-143.995