/*--------------------------------*- C++ -*----------------------------------*\
| =========                 |                                                 |
| \\      /  F ield         | OpenFOAM: The Open Source CFD Toolbox           |
|  \\    /   O peration     | Version:  2012                                  |
|   \\  /    A nd           | Website:  www.openfoam.com                      |
|    \\/     M anipulation  |                                                 |
\*---------------------------------------------------------------------------*/
FoamFile
{
    version     2.0;
    format      ascii;
    class       volVectorField;
    location    "0.104/solid";
    object      U;
}
// * * * * * * * * * * * * * * * * * * * * * * * * * * * * * * * * * * * * * //

dimensions      [0 1 -1 0 0 0 0];


internalField   nonuniform List<vector> 
3125
(
(-1.344e-08 5.88653e-09 3.86318e-09)
(-8.79395e-09 9.73916e-09 1.18279e-09)
(-6.78343e-09 1.17613e-08 6.12292e-09)
(-1.21981e-08 5.1115e-09 4.04388e-09)
(-9.00901e-09 9.44142e-09 1.23814e-09)
(-7.23391e-09 1.16407e-08 4.5199e-09)
(3.48128e-10 1.46685e-10 9.69602e-09)
(-1.0639e-08 7.9639e-09 2.7348e-09)
(-8.34148e-09 1.03869e-08 1.47879e-09)
(-3.35699e-09 1.83802e-09 7.7543e-09)
(-9.9316e-09 8.45592e-09 2.22605e-09)
(-8.14511e-09 1.06839e-08 1.81945e-09)
(-2.04516e-08 1.73251e-08 5.27103e-09)
(-1.29037e-08 4.29818e-09 3.74637e-09)
(-3.16826e-08 1.89756e-08 8.3605e-09)
(-1.29582e-08 6.66398e-09 3.70687e-09)
(-2.35921e-08 1.32089e-08 8.00058e-09)
(-3.21209e-08 2.20704e-08 7.37528e-09)
(-1.12004e-08 5.24354e-09 3.93397e-09)
(-5.95526e-09 2.63036e-08 1.88625e-09)
(-3.53856e-09 8.60669e-09 1.02192e-09)
(-2.53813e-08 2.89179e-08 2.67724e-09)
(-8.65261e-09 9.96798e-09 1.23075e-09)
(-7.29342e-09 2.52907e-08 1.91402e-09)
(-2.45693e-08 2.9722e-08 2.30112e-09)
(-3.34613e-09 8.80647e-09 9.98598e-10)
(-1.8227e-09 2.55037e-08 2.88878e-08)
(-1.67458e-09 1.05468e-08 5.64977e-09)
(-2.09961e-08 3.52065e-08 1.70771e-08)
(-6.32486e-09 1.10923e-08 8.75503e-09)
(-2.243e-09 3.01608e-08 1.37034e-08)
(-1.7501e-08 2.7186e-08 2.86991e-08)
(-1.1951e-09 1.00751e-08 8.24576e-09)
(-3.38972e-08 1.97064e-08 8.41802e-09)
(-2.61925e-08 1.48359e-08 1.05913e-08)
(-1.39715e-08 1.00076e-08 1.27696e-08)
(-9.56138e-09 4.26394e-09 4.78625e-09)
(-1.15181e-08 3.72362e-09 3.42791e-09)
(-3.03592e-08 1.79013e-08 8.8031e-09)
(-2.30375e-08 1.2868e-08 8.49278e-09)
(-2.28228e-08 1.31478e-08 1.12708e-08)
(-7.87674e-09 3.32009e-09 4.14259e-09)
(-3.53968e-08 2.07917e-08 8.02407e-09)
(-3.67163e-08 2.39826e-08 7.10536e-09)
(-3.25156e-08 3.1271e-08 2.67519e-09)
(-3.30733e-08 2.97378e-08 3.57754e-09)
(-9.18206e-09 2.38838e-08 2.26825e-09)
(-9.22471e-09 9.19299e-09 1.49307e-09)
(-3.79547e-09 8.41178e-09 1.0908e-09)
(-2.57323e-08 2.84863e-08 2.82829e-09)
(-7.48083e-09 2.51697e-08 1.90808e-09)
(-2.65661e-08 2.76666e-08 3.48878e-09)
(-4.09051e-09 8.18263e-09 1.25366e-09)
(-3.238e-08 3.30168e-08 2.35776e-09)
(-3.17482e-08 3.15063e-08 3.10397e-09)
(-2.78284e-08 3.60619e-08 1.42152e-08)
(-2.96711e-08 3.71226e-08 8.54106e-09)
(-3.10757e-09 2.88249e-08 6.19335e-09)
(-7.51593e-09 1.12724e-08 3.33075e-09)
(-1.9768e-09 1.03982e-08 4.08241e-09)
(-2.07797e-08 3.53859e-08 1.42876e-08)
(-2.33743e-09 3.01605e-08 1.23684e-08)
(-2.12518e-08 3.25488e-08 8.61423e-09)
(-2.15275e-09 1.00823e-08 2.95714e-09)
(-2.59355e-08 3.52653e-08 1.7032e-08)
(-2.68501e-08 3.13737e-08 2.89279e-08)
(-2.62229e-09 2.6732e-09 1.9586e-08)
(1.80622e-09 2.92502e-11 9.64678e-09)
(1.4531e-09 3.03353e-09 2.10703e-08)
(-2.52833e-09 3.03022e-09 1.93287e-08)
(1.39758e-09 5.53616e-12 4.89566e-09)
(-1.01105e-08 1.74542e-09 1.72453e-09)
(-5.86665e-09 2.65341e-09 1.84115e-09)
(-3.2807e-08 2.23415e-08 8.23237e-09)
(-3.33688e-08 2.58978e-08 7.17034e-09)
(-1.9583e-08 1.7799e-08 4.98961e-09)
(-1.17186e-08 7.37678e-09 3.28666e-09)
(-2.90385e-08 2.48851e-08 5.50336e-09)
(-6.37015e-09 6.93633e-09 2.59604e-09)
(-3.14483e-08 2.27687e-08 6.94329e-09)
(-1.3243e-08 2.12424e-08 3.36532e-09)
(-8.45148e-09 6.20633e-09 3.39271e-09)
(-3.02983e-08 2.93532e-08 5.36104e-09)
(-3.27534e-08 2.68496e-08 6.75592e-09)
(-9.4057e-10 3.53307e-09 9.00182e-10)
(-4.27704e-09 2.97675e-09 1.6288e-09)
(6.3475e-10 4.00612e-09 3.96798e-10)
(9.18133e-10 4.104e-09 3.90345e-10)
(-2.66916e-08 3.56758e-08 2.53145e-09)
(-2.53073e-08 3.71556e-08 2.36804e-09)
(-5.74487e-09 2.63569e-08 1.94738e-09)
(-8.57036e-09 1.01638e-08 1.34421e-09)
(-2.37521e-08 3.13864e-08 3.14848e-09)
(-2.90777e-09 9.2038e-09 1.2747e-09)
(-2.2995e-08 2.98738e-08 2.57001e-09)
(-4.48203e-09 2.73653e-08 2.81013e-09)
(-3.15153e-09 9.00589e-09 1.08471e-09)
(-2.49158e-08 3.72347e-08 2.88362e-09)
(-2.54173e-08 3.48029e-08 2.46317e-09)
(1.23367e-09 4.26476e-09 5.72669e-10)
(9.78124e-10 4.13922e-09 4.3126e-10)
(1.72952e-09 4.85539e-09 2.274e-09)
(2.48471e-09 4.7137e-09 4.08421e-09)
(-2.13194e-08 4.17684e-08 2.00476e-08)
(-1.72767e-08 2.62816e-08 3.17541e-08)
(-1.93623e-09 2.35421e-08 3.20454e-08)
(-3.72149e-09 5.22588e-09 6.40829e-09)
(-1.8029e-08 2.31637e-08 3.60896e-08)
(4.50535e-10 4.67083e-09 5.77328e-09)
(-1.8304e-08 2.65239e-08 4.24551e-08)
(3.21237e-09 4.33715e-09 5.46985e-09)
(-4.35265e-09 3.70484e-09 1.80218e-08)
(-9.75395e-09 6.1242e-09 1.62554e-08)
(-2.27259e-08 1.31545e-08 1.17132e-08)
(-1.23462e-08 9.54838e-09 1.34922e-08)
(-6.53539e-09 3.19997e-09 6.09949e-09)
(-7.44865e-09 4.91818e-09 1.76238e-08)
(-1.26818e-09 1.49999e-09 7.63431e-09)
(-5.43536e-10 3.93693e-09 1.99865e-08)
(-1.95446e-08 1.15843e-08 1.25555e-08)
(-4.30681e-09 2.61409e-09 5.76422e-09)
(-9.31776e-09 1.64219e-09 1.61723e-09)
(-3.28735e-09 1.63807e-09 2.3687e-09)
(-3.14381e-08 2.09686e-08 8.6976e-09)
(-2.37838e-08 1.55873e-08 1.11448e-08)
(-7.72e-09 5.97016e-09 1.73719e-08)
(-2.03473e-08 1.35516e-08 1.2422e-08)
(5.41636e-10 5.02179e-10 4.37452e-09)
(-1.86559e-09 1.45452e-09 2.86105e-09)
(-3.48888e-08 2.69873e-08 5.47032e-09)
(-3.64356e-08 2.4715e-08 6.75103e-09)
(-3.44066e-08 2.75475e-08 5.02552e-09)
(-3.33104e-08 2.93306e-08 3.89742e-09)
(-9.4701e-09 2.37146e-08 2.33437e-09)
(-9.50323e-09 8.86751e-09 1.80846e-09)
(-2.83491e-08 2.54367e-08 4.99837e-09)
(-5.15997e-09 7.46617e-09 1.95805e-09)
(-1.26709e-08 2.15474e-08 3.21693e-09)
(-2.69006e-08 2.72486e-08 3.82377e-09)
(-4.49712e-09 7.87119e-09 1.52895e-09)
(5.75116e-10 3.97799e-09 3.9817e-10)
(2.36211e-10 3.88115e-09 5.05757e-10)
(-2.68111e-08 3.45041e-08 2.77806e-09)
(-2.76439e-08 3.28121e-08 3.45744e-09)
(-2.95876e-08 3.01254e-08 4.89529e-09)
(-2.80084e-08 3.22411e-08 3.75812e-09)
(-5.8262e-10 3.63411e-09 7.86387e-10)
(1.4729e-10 3.83268e-09 5.36958e-10)
(-3.24629e-08 4.70217e-08 2.65513e-09)
(-3.0813e-08 3.40679e-08 3.47905e-09)
(-3.38899e-08 3.55736e-08 2.71766e-09)
(-3.28548e-08 4.07097e-08 5.25482e-09)
(-3.73952e-08 2.93041e-08 3.78432e-09)
(-3.17008e-08 3.48216e-08 4.62097e-09)
(-3.04541e-08 3.70082e-08 6.50139e-09)
(-2.94905e-08 3.58995e-08 1.56861e-08)
(-3.33875e-08 3.78322e-08 8.26977e-09)
(-3.49091e-08 2.92838e-08 4.18398e-09)
(-3.43996e-08 3.34733e-08 8.35539e-09)
(-3.23849e-09 2.87239e-08 5.60788e-09)
(-7.84121e-09 1.09518e-08 2.35592e-09)
(-2.28329e-08 3.21904e-08 4.53513e-09)
(-2.63484e-09 9.46317e-09 1.61436e-09)
(-4.34627e-09 2.7518e-08 3.03855e-09)
(-2.15429e-08 3.24638e-08 6.36603e-09)
(-2.36222e-09 9.76737e-09 2.13854e-09)
(1.64935e-09 4.78646e-09 1.90042e-09)
(1.49405e-09 4.5935e-09 1.17668e-09)
(-2.17586e-08 4.01464e-08 1.63317e-08)
(-2.26266e-08 3.84745e-08 9.88528e-09)
(-2.44614e-08 3.57755e-08 4.96811e-09)
(-2.29096e-08 3.68695e-08 6.4292e-09)
(1.28486e-09 4.31601e-09 6.61968e-10)
(1.4801e-09 4.51971e-09 9.86159e-10)
(-2.6392e-08 4.58503e-08 1.92213e-08)
(-2.98534e-08 3.32542e-08 3.20975e-08)
(-4.97935e-09 5.42375e-09 6.2662e-09)
(-2.53357e-08 2.61378e-08 3.60869e-08)
(-2.61937e-08 3.69376e-08 4.18369e-08)
(-6.48028e-09 5.0779e-09 3.35797e-08)
(-1.89989e-09 -2.69124e-10 9.70297e-09)
(-1.22795e-08 6.24621e-09 3.35553e-08)
(-9.49803e-10 -4.31487e-10 9.46338e-09)
(-2.19507e-09 -2.13342e-10 9.70169e-09)
(-1.43931e-08 5.77826e-09 3.35801e-08)
(-2.35317e-08 1.35388e-08 7.05205e-09)
(-2.3037e-08 1.53311e-08 6.29521e-09)
(-2.47459e-08 1.8487e-08 7.02411e-09)
(-1.94357e-08 1.30038e-08 6.1979e-09)
(-2.18842e-08 1.19293e-08 6.66877e-09)
(-2.60049e-08 1.74814e-08 7.47188e-09)
(-2.19862e-08 1.44946e-08 6.71305e-09)
(-2.44327e-08 1.31186e-08 7.18612e-09)
(-2.34783e-08 1.48813e-08 6.68933e-09)
(-2.35297e-08 1.03712e-08 6.93258e-09)
(-2.64121e-08 1.55361e-08 8.27656e-09)
(-2.43361e-08 1.21405e-08 7.27776e-09)
(-2.32497e-08 1.13819e-08 6.76284e-09)
(-2.66379e-08 1.66779e-08 7.89622e-09)
(-1.09762e-08 2.06175e-08 2.06226e-09)
(-6.61866e-09 2.58682e-08 1.88305e-09)
(-1.27568e-08 2.711e-08 2.36752e-09)
(-5.15692e-09 1.95065e-08 1.82522e-09)
(-5.51019e-09 1.92195e-08 1.77984e-09)
(-1.32027e-08 2.68249e-08 2.4151e-09)
(-1.07194e-08 2.10329e-08 2.09496e-09)
(-1.11954e-08 2.03255e-08 2.09049e-09)
(-6.77606e-09 2.56931e-08 1.89908e-09)
(-6.02984e-09 1.86802e-08 1.80039e-09)
(-1.36631e-08 2.58608e-08 2.36888e-09)
(-1.13673e-08 1.99853e-08 2.1214e-09)
(-5.76356e-09 1.90098e-08 1.74658e-09)
(-1.34758e-08 2.64249e-08 2.4516e-09)
(-6.75047e-09 2.36393e-08 1.77764e-08)
(-1.79632e-09 2.89093e-08 2.09129e-08)
(-7.66731e-09 2.69055e-08 2.81036e-08)
(-1.20687e-09 2.00523e-08 2.07949e-08)
(-1.31503e-09 2.20234e-08 1.67179e-08)
(-8.06348e-09 2.97706e-08 2.29933e-08)
(-6.42688e-09 2.13507e-08 2.19825e-08)
(-7.0741e-09 2.44833e-08 1.47509e-08)
(-1.92927e-09 2.92989e-08 1.87835e-08)
(-1.94457e-09 2.28245e-08 1.12254e-08)
(-8.92125e-09 3.15614e-08 1.56584e-08)
(-7.47563e-09 2.47076e-08 1.2115e-08)
(-1.59421e-09 2.26419e-08 1.37709e-08)
(-8.58648e-09 3.12014e-08 1.90011e-08)
(-1.8274e-08 9.45889e-09 8.58612e-09)
(-1.86031e-08 1.13429e-08 1.07374e-08)
(-1.73883e-08 1.07168e-08 1.17855e-08)
(-1.2896e-08 7.46475e-09 9.69891e-09)
(-1.49997e-08 8.16876e-09 9.82429e-09)
(-1.65491e-08 8.46486e-09 8.33748e-09)
(-2.05007e-08 1.21852e-08 1.05016e-08)
(-2.09284e-08 1.03074e-08 7.8877e-09)
(-2.00115e-08 1.16933e-08 1.01339e-08)
(-2.23136e-08 9.84345e-09 7.03106e-09)
(-2.52481e-08 1.45688e-08 8.80549e-09)
(-2.32413e-08 1.14893e-08 7.41885e-09)
(-1.97037e-08 9.02572e-09 7.598e-09)
(-2.32047e-08 1.33302e-08 9.5063e-09)
(-1.21662e-08 1.91438e-08 2.45778e-09)
(-8.34953e-09 2.45197e-08 2.06162e-09)
(-1.50722e-08 2.42946e-08 2.93925e-09)
(-7.40615e-09 1.7653e-08 2.28102e-09)
(-1.25445e-08 1.87939e-08 2.70313e-09)
(-6.97132e-09 1.80411e-08 2.06461e-09)
(-1.46532e-08 2.47693e-08 2.72089e-09)
(-1.18898e-08 1.93532e-08 2.30398e-09)
(-8.15869e-09 2.4669e-08 2.0188e-09)
(-6.30252e-09 1.84801e-08 1.84101e-09)
(-1.39386e-08 2.54981e-08 2.42671e-09)
(-1.16287e-08 1.97251e-08 2.17542e-09)
(-6.6638e-09 1.81937e-08 1.96505e-09)
(-1.42864e-08 2.50915e-08 2.52876e-09)
(-8.12935e-09 2.35663e-08 7.2723e-09)
(-2.74901e-09 2.95565e-08 8.30866e-09)
(-9.88419e-09 2.94519e-08 7.39452e-09)
(-2.87484e-09 2.15535e-08 5.44303e-09)
(-8.36103e-09 2.29556e-08 6.02574e-09)
(-2.63314e-09 2.20931e-08 6.58791e-09)
(-9.71526e-09 3.01764e-08 8.95356e-09)
(-8.00349e-09 2.3985e-08 8.50537e-09)
(-2.68622e-09 2.97781e-08 9.16436e-09)
(-2.20981e-09 2.27105e-08 9.42404e-09)
(-9.22105e-09 3.13652e-08 1.29549e-08)
(-7.79947e-09 2.44877e-08 1.02912e-08)
(-2.4816e-09 2.23588e-08 7.79176e-09)
(-9.50796e-09 3.07788e-08 1.06825e-08)
(8.88381e-09 -2.51721e-09 2.22222e-08)
(1.00922e-08 -1.72759e-09 2.60098e-08)
(1.04763e-08 -3.00579e-09 2.60026e-08)
(9.82793e-09 -2.34651e-09 2.23081e-08)
(4.92902e-09 -1.10221e-09 2.02772e-08)
(7.60282e-09 -6.17616e-10 2.47269e-08)
(7.5726e-10 1.89556e-09 2.11312e-08)
(2.5875e-09 1.38021e-09 1.81084e-08)
(5.31621e-09 -7.52525e-10 2.35447e-08)
(6.09562e-09 -8.96735e-10 2.03083e-08)
(7.67979e-10 1.37515e-09 1.80302e-08)
(9.20465e-09 -2.26338e-09 2.59338e-08)
(3.33314e-09 -3.02791e-10 2.14445e-08)
(-1.86678e-09 3.08171e-09 2.06188e-08)
(5.90863e-09 -1.46087e-09 2.41704e-08)
(9.97691e-09 -3.55878e-09 2.36297e-08)
(8.82485e-09 -2.33106e-09 2.53366e-08)
(-1.00511e-09 3.22558e-09 2.1027e-08)
(6.36048e-09 -1.16205e-09 2.46532e-08)
(9.52007e-09 -1.71844e-09 2.02714e-08)
(3.94303e-09 9.01225e-10 1.27877e-08)
(1.88324e-09 -4.48534e-10 5.44714e-09)
(5.64272e-09 -4.0098e-10 1.4252e-08)
(3.29835e-09 1.72693e-09 1.64149e-08)
(7.67305e-09 -9.68989e-10 1.92414e-08)
(2.88434e-09 -1.06381e-09 6.05128e-09)
(8.44131e-09 -1.84396e-09 1.5791e-08)
(-1.69096e-08 1.14865e-08 5.02924e-09)
(-2.2174e-08 9.64009e-09 5.73794e-09)
(-2.4018e-08 5.38609e-09 4.56989e-09)
(-9.4417e-09 1.96963e-09 1.9485e-09)
(-2.25549e-08 6.09775e-09 4.83035e-09)
(-2.42072e-08 8.13813e-09 6.22239e-09)
(-2.31258e-08 9.45266e-09 5.83067e-09)
(-1.47751e-08 8.04519e-09 4.39718e-09)
(-8.08735e-09 2.30882e-09 1.97183e-09)
(-1.99428e-08 6.78524e-09 4.71329e-09)
(-2.55919e-08 2.20068e-08 6.56733e-09)
(-2.69581e-08 2.03469e-08 7.37791e-09)
(-2.8386e-08 1.88884e-08 8.58433e-09)
(-3.35418e-08 2.36865e-08 7.85718e-09)
(-2.90602e-08 2.08419e-08 7.81223e-09)
(-2.67009e-08 1.8119e-08 8.50601e-09)
(-2.71944e-08 2.00774e-08 7.6324e-09)
(-2.78511e-08 2.29499e-08 6.88755e-09)
(-3.36936e-08 2.48514e-08 7.51892e-09)
(-2.89577e-08 2.13466e-08 7.59551e-09)
(-1.84968e-08 1.5568e-08 5.70483e-09)
(-2.32325e-08 1.91781e-08 6.50216e-09)
(-1.64932e-08 1.95318e-08 4.19168e-09)
(-1.71599e-08 1.3501e-08 5.73656e-09)
(-2.02857e-08 1.48273e-08 6.32315e-09)
(-2.1626e-08 2.00629e-08 5.93601e-09)
(-1.46869e-08 1.44762e-08 5.03084e-09)
(-1.70638e-08 1.59292e-08 5.16414e-09)
(-1.56888e-08 1.99117e-08 3.97643e-09)
(-1.88405e-08 2.14534e-08 4.81121e-09)
(-1.12086e-08 1.56363e-08 3.87741e-09)
(-2.0163e-08 2.06922e-08 5.3515e-09)
(-1.28993e-08 1.48997e-08 4.49938e-09)
(-1.57794e-08 1.6663e-08 4.54383e-09)
(-2.4982e-08 2.23813e-08 6.31786e-09)
(-2.29417e-08 2.38246e-08 5.49825e-09)
(-3.11055e-08 2.85359e-08 5.84174e-09)
(-2.33397e-08 2.62529e-08 4.8486e-09)
(-2.4966e-08 2.49992e-08 5.6188e-09)
(-2.73388e-08 2.33256e-08 6.64978e-09)
(-3.19525e-08 2.77426e-08 6.32272e-09)
(-2.55586e-08 2.47633e-08 5.87902e-09)
(-2.0511e-08 2.54838e-08 4.49133e-09)
(-2.23201e-08 2.4229e-08 5.23611e-09)
(-1.55821e-08 1.16577e-08 4.78606e-09)
(-1.07557e-08 1.31562e-08 3.90746e-09)
(-3.47665e-09 1.0548e-08 2.36458e-09)
(-1.74021e-09 3.4115e-09 1.11425e-09)
(-5.67624e-09 9.91398e-09 2.8792e-09)
(-6.90526e-09 1.42782e-08 2.96193e-09)
(-9.87249e-09 1.32851e-08 3.65308e-09)
(-1.16135e-08 8.60093e-09 3.96483e-09)
(-2.59566e-09 3.2272e-09 1.32523e-09)
(-7.46062e-09 9.62081e-09 3.30705e-09)
(-6.2057e-10 1.72515e-08 1.49885e-09)
(-1.12842e-09 1.69746e-08 1.43145e-09)
(9.40702e-10 1.22248e-08 1.07824e-09)
(7.611e-10 4.042e-09 3.79305e-10)
(1.29812e-09 1.23651e-08 1.04999e-09)
(-1.75983e-09 1.65995e-08 1.46357e-09)
(-1.24501e-09 1.69436e-08 1.42916e-09)
(1.7652e-09 1.26102e-08 1.08797e-09)
(8.13246e-10 4.07946e-09 3.86343e-10)
(1.43597e-09 1.24574e-08 1.05166e-09)
(-1.43089e-08 3.20904e-08 2.36131e-09)
(-1.50255e-08 3.15117e-08 2.4091e-09)
(-1.89267e-08 3.11393e-08 2.57542e-09)
(-2.6421e-08 3.7612e-08 2.63493e-09)
(-1.86878e-08 3.21427e-08 2.60208e-09)
(-1.55809e-08 3.03089e-08 2.41585e-09)
(-1.51829e-08 3.13453e-08 2.41653e-09)
(-1.77074e-08 3.28381e-08 2.50979e-09)
(-2.73583e-08 3.94396e-08 3.17724e-09)
(-1.8656e-08 3.25639e-08 2.53824e-09)
(-1.01948e-08 2.13545e-08 2.33785e-09)
(-1.23071e-08 2.72753e-08 2.41523e-09)
(-5.15661e-09 2.67706e-08 2.21107e-09)
(-4.92409e-09 1.95869e-08 1.89767e-09)
(-1.04923e-08 2.10743e-08 2.17898e-09)
(-1.2001e-08 2.75283e-08 2.69593e-09)
(-4.57045e-09 1.99338e-08 2.00787e-09)
(-9.91928e-09 2.16133e-08 2.55176e-09)
(-5.01468e-09 2.68154e-08 2.32142e-09)
(-1.14192e-08 2.80849e-08 3.21424e-09)
(-4.01163e-09 2.02874e-08 2.60137e-09)
(-1.17823e-08 2.7774e-08 2.82663e-09)
(-4.31581e-09 2.00642e-08 2.26621e-09)
(-9.68112e-09 2.1758e-08 2.92453e-09)
(-1.40889e-08 3.241e-08 2.39978e-09)
(-1.34817e-08 3.2597e-08 2.83917e-09)
(-2.50126e-08 3.79351e-08 4.05915e-09)
(-1.6553e-08 3.38993e-08 3.71058e-09)
(-1.69432e-08 3.32989e-08 3.17882e-09)
(-1.7581e-08 3.30488e-08 2.60349e-09)
(-2.48423e-08 3.6523e-08 4.07198e-09)
(-1.69662e-08 3.35415e-08 3.03669e-09)
(-1.30348e-08 3.3044e-08 3.50723e-09)
(-1.3455e-08 3.29404e-08 2.92549e-09)
(-5.43789e-10 1.73074e-08 1.53997e-09)
(3.17433e-12 1.75891e-08 1.72138e-09)
(2.7171e-09 1.31523e-08 1.5856e-09)
(1.14251e-09 4.22332e-09 5.22175e-10)
(2.40726e-09 1.29521e-08 1.40584e-09)
(5.75546e-10 1.80167e-08 2.21659e-09)
(9.24764e-11 1.76731e-08 1.82454e-09)
(1.91528e-09 1.2678e-08 1.1713e-09)
(1.09078e-09 4.17674e-09 4.59261e-10)
(2.24692e-09 1.28254e-08 1.26263e-09)
(3.14131e-09 1.748e-08 1.91486e-08)
(3.14263e-09 1.97069e-08 1.36946e-08)
(4.41553e-09 1.48771e-08 6.69249e-09)
(1.94593e-09 4.89432e-09 2.68308e-09)
(5.07683e-09 1.49467e-08 8.11202e-09)
(2.47059e-09 2.01463e-08 9.16495e-09)
(3.04843e-09 2.00334e-08 1.2344e-08)
(5.64035e-09 1.37506e-08 1.26277e-08)
(2.20646e-09 4.87159e-09 3.27664e-09)
(5.45255e-09 1.46161e-08 9.94077e-09)
(-8.82898e-09 3.04135e-08 3.36974e-08)
(-9.38291e-09 3.54738e-08 2.5085e-08)
(-1.36989e-08 3.79169e-08 1.73306e-08)
(-2.07108e-08 4.19017e-08 2.31692e-08)
(-1.29726e-08 3.74577e-08 2.31195e-08)
(-1.02933e-08 3.683e-08 1.68174e-08)
(-9.66207e-09 3.63332e-08 2.27245e-08)
(-1.15939e-08 3.01998e-08 3.38892e-08)
(-2.00984e-08 3.99978e-08 2.72351e-08)
(-1.27153e-08 3.68502e-08 2.54111e-08)
(-5.79195e-09 1.35289e-08 3.42878e-08)
(-7.58127e-09 2.29965e-08 3.40086e-08)
(-1.3978e-09 1.55771e-08 4.22095e-08)
(-1.24195e-09 1.70642e-08 2.57776e-08)
(-6.03792e-09 1.83543e-08 2.71548e-08)
(-7.25392e-09 1.8206e-08 4.07599e-08)
(-1.10184e-09 1.22882e-08 3.25537e-08)
(-7.9996e-09 7.7376e-09 3.81626e-08)
(-1.88937e-08 1.70612e-08 4.9412e-08)
(-1.04494e-08 1.64638e-08 4.77459e-08)
(-1.50436e-08 8.83381e-09 3.69997e-08)
(-4.45517e-09 4.6829e-09 3.29979e-08)
(8.54582e-10 -4.74202e-10 8.78732e-09)
(2.11704e-09 3.55045e-09 3.02969e-08)
(-6.05416e-10 -4.7959e-10 9.34955e-09)
(-5.65169e-09 7.56065e-09 3.74422e-08)
(-1.21146e-09 1.23683e-08 4.53309e-08)
(-7.92541e-09 1.64463e-08 4.71257e-08)
(1.44031e-09 5.84162e-09 3.44531e-08)
(-8.83536e-09 2.87226e-08 3.68566e-08)
(-8.25719e-09 2.16173e-08 4.69316e-08)
(-2.01632e-08 1.9614e-08 5.15426e-08)
(-1.09799e-08 1.96404e-08 5.00927e-08)
(-1.16983e-08 2.82128e-08 3.71998e-08)
(-1.90858e-08 2.29685e-08 4.77887e-08)
(-1.12977e-08 2.19158e-08 4.74127e-08)
(-7.92063e-09 1.94868e-08 4.9673e-08)
(3.02661e-09 1.61225e-08 2.14334e-08)
(3.52365e-09 9.00195e-09 3.05061e-08)
(1.55444e-09 -5.28168e-10 8.7397e-09)
(4.667e-09 3.27809e-09 2.91828e-08)
(4.03605e-09 5.67483e-09 3.32339e-08)
(5.0981e-09 1.17149e-08 1.64888e-08)
(3.64371e-09 2.73795e-09 9.11114e-09)
(5.19493e-09 8.384e-09 2.14621e-08)
(-8.76223e-09 5.54437e-09 1.27755e-08)
(-7.44771e-09 7.45384e-09 1.60085e-08)
(-1.41193e-08 9.3773e-09 1.32686e-08)
(-9.69392e-09 6.72809e-09 1.10407e-08)
(-1.20924e-08 7.24441e-09 1.10437e-08)
(-1.06979e-08 7.59102e-09 1.50252e-08)
(-6.47031e-09 5.36648e-09 1.2797e-08)
(-5.90049e-09 4.53757e-09 1.43081e-08)
(-5.73613e-09 6.78913e-09 1.6915e-08)
(-3.35811e-09 3.81381e-09 1.89735e-08)
(-4.7546e-10 2.5708e-09 1.63175e-08)
(-2.4107e-09 2.57445e-09 1.63091e-08)
(-7.15868e-09 5.99649e-09 1.68814e-08)
(-3.57646e-09 4.4158e-09 1.43572e-08)
(-1.01991e-08 6.67534e-09 9.40137e-09)
(-1.65476e-08 7.23113e-09 7.59569e-09)
(-2.22963e-08 5.06283e-09 4.60725e-09)
(-7.46698e-09 1.66566e-09 1.61069e-09)
(-1.80101e-08 5.16335e-09 4.78032e-09)
(-2.34327e-08 7.94178e-09 6.316e-09)
(-1.8545e-08 7.52623e-09 7.19094e-09)
(-8.49096e-09 5.07637e-09 6.55903e-09)
(-5.31922e-09 1.6724e-09 1.87752e-09)
(-1.34746e-08 4.99742e-09 5.44306e-09)
(-1.77432e-08 1.2316e-08 1.25812e-08)
(-2.20663e-08 1.48316e-08 1.06273e-08)
(-2.77999e-08 1.83944e-08 8.86881e-09)
(-2.94128e-08 1.93113e-08 9.29966e-09)
(-2.49337e-08 1.61127e-08 1.00434e-08)
(-2.61389e-08 1.76503e-08 8.82536e-09)
(-2.33641e-08 1.55524e-08 1.01045e-08)
(-1.92748e-08 1.28479e-08 1.23666e-08)
(-2.68334e-08 1.76091e-08 1.01101e-08)
(-2.36853e-08 1.55473e-08 1.0525e-08)
(-1.61449e-08 1.16745e-08 1.3309e-08)
(-1.0992e-08 8.63398e-09 1.58852e-08)
(-4.17876e-09 4.19143e-09 1.95372e-08)
(-1.23475e-08 8.76333e-09 1.55476e-08)
(-1.0428e-08 7.97155e-09 1.64898e-08)
(-3.2093e-09 4.25374e-09 1.99388e-08)
(-9.18475e-09 7.87557e-09 1.68191e-08)
(-1.76549e-08 1.21208e-08 1.30773e-08)
(-1.65421e-08 1.12265e-08 1.38951e-08)
(-1.23448e-08 8.94859e-09 1.55722e-08)
(-8.48363e-09 6.3073e-09 1.00727e-08)
(-3.71385e-09 4.89911e-09 1.22794e-08)
(1.6051e-09 2.08808e-09 1.14762e-08)
(1.15458e-11 8.62029e-10 3.8702e-09)
(-1.81799e-10 3.01335e-09 1.01351e-08)
(1.76935e-09 2.34755e-09 1.55193e-08)
(-2.28086e-09 4.4408e-09 1.30532e-08)
(-5.2615e-09 4.46846e-09 7.64318e-09)
(-8.97177e-10 1.2272e-09 3.39292e-09)
(-2.50437e-09 3.96592e-09 8.96743e-09)
(-1.34233e-08 1.79209e-08 3.26476e-09)
(-1.05868e-08 2.28173e-08 2.65268e-09)
(-1.55682e-08 2.38594e-08 3.20103e-09)
(-7.8301e-09 1.74023e-08 2.45691e-09)
(-1.29256e-08 1.85125e-08 2.9171e-09)
(-1.61687e-08 2.32539e-08 3.50645e-09)
(-8.47081e-09 1.69229e-08 2.7583e-09)
(-1.4013e-08 1.75977e-08 3.61015e-09)
(-1.09975e-08 2.25899e-08 2.76677e-09)
(-1.77785e-08 2.20311e-08 4.31028e-09)
(-1.01203e-08 1.59894e-08 3.46038e-09)
(-1.48341e-08 1.70177e-08 4.09224e-09)
(-1.68879e-08 2.2726e-08 3.88829e-09)
(-9.1179e-09 1.6606e-08 3.02138e-09)
(-3.31019e-09 1.58267e-08 1.84548e-09)
(-2.58328e-09 1.62348e-08 1.64475e-09)
(7.56946e-10 1.21279e-08 1.09446e-09)
(4.60562e-10 3.95555e-09 4.30553e-10)
(3.7237e-10 1.19728e-08 1.16862e-09)
(-1.88452e-09 1.65749e-08 1.48948e-09)
(-2.48141e-09 1.63056e-08 1.59059e-09)
(-2.73193e-10 1.17177e-08 1.36167e-09)
(3.8807e-10 3.9296e-09 4.5449e-10)
(2.00606e-10 1.19348e-08 1.24404e-09)
(-1.71369e-08 2.84107e-08 2.96925e-09)
(-1.64548e-08 2.92424e-08 2.66092e-09)
(-1.907e-08 3.09661e-08 2.59803e-09)
(-2.70508e-08 3.3762e-08 2.98402e-09)
(-1.95192e-08 3.02402e-08 2.79022e-09)
(-1.5742e-08 3.0098e-08 2.424e-09)
(-1.6294e-08 2.95175e-08 2.58629e-09)
(-2.0305e-08 2.93016e-08 3.20247e-09)
(-2.73451e-08 3.33782e-08 3.22289e-09)
(-1.97024e-08 3.01445e-08 2.87398e-09)
(-1.73988e-08 2.82481e-08 3.07167e-09)
(-1.83023e-08 2.7158e-08 3.51281e-09)
(-2.2902e-08 2.65872e-08 4.61374e-09)
(-2.89605e-08 3.0865e-08 4.4748e-09)
(-2.16808e-08 2.77149e-08 3.97636e-09)
(-2.00115e-08 2.57935e-08 4.27914e-09)
(-1.86907e-08 2.69946e-08 3.68455e-09)
(-2.05422e-08 2.90989e-08 3.33014e-09)
(-2.84417e-08 3.15719e-08 4.07905e-09)
(-2.13761e-08 2.80678e-08 3.7906e-09)
(-3.48195e-09 1.57688e-08 1.9241e-09)
(-4.48563e-09 1.51831e-08 2.21321e-09)
(-2.66938e-09 1.07333e-08 2.10728e-09)
(-1.99645e-10 3.71159e-09 6.7008e-10)
(-1.54119e-09 1.11172e-08 1.80117e-09)
(-6.43292e-09 1.43946e-08 2.77788e-09)
(-4.7624e-09 1.51118e-08 2.3318e-09)
(-5.14864e-10 1.15815e-08 1.45736e-09)
(-4.92151e-11 3.77835e-09 6.06934e-10)
(-1.14838e-09 1.13006e-08 1.63563e-09)
(-3.01047e-08 5.60262e-08 3.37335e-09)
(-3.53122e-08 4.0286e-08 1.26679e-09)
(-2.92594e-08 4.26715e-08 1.40022e-08)
(-2.83848e-08 5.27359e-08 1.08689e-08)
(-2.91372e-08 4.91091e-08 4.27888e-09)
(-2.80895e-08 5.25349e-08 7.10636e-09)
(-8.867e-09 2.24725e-08 4.31754e-09)
(-3.7059e-09 2.83706e-08 4.24713e-09)
(-1.01624e-08 2.91677e-08 6.04564e-09)
(-3.04873e-09 2.13353e-08 4.63641e-09)
(-8.62647e-09 2.26818e-08 5.14943e-09)
(-1.05944e-08 2.8963e-08 5.03501e-09)
(-3.28977e-09 2.10365e-08 3.8927e-09)
(-9.15721e-09 2.23119e-08 3.77987e-09)
(-3.85974e-09 2.8291e-08 3.89129e-09)
(-1.11232e-08 2.83734e-08 3.81198e-09)
(-3.80461e-09 2.04306e-08 2.93247e-09)
(-9.48707e-09 2.18544e-08 3.25209e-09)
(-1.09022e-08 2.87675e-08 4.46243e-09)
(-3.48664e-09 2.08533e-08 3.37522e-09)
(1.55689e-09 1.91782e-08 4.43282e-09)
(1.92167e-09 1.96533e-08 5.79922e-09)
(4.11633e-09 1.47245e-08 5.58414e-09)
(1.55896e-09 4.72581e-09 1.61933e-09)
(3.75803e-09 1.44883e-08 4.66303e-09)
(2.34921e-09 2.01199e-08 8.35657e-09)
(1.91553e-09 1.97567e-08 6.32851e-09)
(3.49982e-09 1.41277e-08 3.31959e-09)
(1.55674e-09 4.6647e-09 1.35807e-09)
(3.73662e-09 1.43766e-08 3.93314e-09)
(-1.15432e-08 3.40798e-08 7.59138e-09)
(-1.1157e-08 3.53562e-08 1.01891e-08)
(-1.39022e-08 3.78031e-08 1.57149e-08)
(-2.21988e-08 3.99591e-08 1.25553e-08)
(-1.44372e-08 3.66464e-08 1.16406e-08)
(-1.04981e-08 3.68421e-08 1.52035e-08)
(-1.1052e-08 3.58161e-08 1.12013e-08)
(-1.49567e-08 3.50402e-08 7.90699e-09)
(-2.23389e-08 4.08219e-08 1.11725e-08)
(-1.46305e-08 3.64405e-08 1.06074e-08)
(-1.17042e-08 3.39311e-08 6.83445e-09)
(-1.23039e-08 3.39865e-08 5.21602e-09)
(-1.63786e-08 3.40449e-08 4.01997e-09)
(-2.40262e-08 3.82548e-08 6.39581e-09)
(-1.596e-08 3.47779e-08 5.06477e-09)
(-1.29063e-08 3.32074e-08 3.81759e-09)
(-1.24983e-08 3.40553e-08 4.83877e-09)
(-1.51027e-08 3.49827e-08 7.15711e-09)
(-2.37168e-08 3.95512e-08 5.16612e-09)
(-1.58236e-08 3.50026e-08 5.43578e-09)
(1.5005e-09 1.91186e-08 4.07143e-09)
(1.12634e-09 1.86189e-08 3.15856e-09)
(2.82753e-09 1.3256e-08 1.81373e-09)
(1.37668e-09 4.37685e-09 7.37801e-10)
(3.0958e-09 1.34655e-08 2.06927e-09)
(6.24072e-10 1.81059e-08 2.36443e-09)
(1.04914e-09 1.85476e-08 2.9372e-09)
(3.43261e-09 1.39285e-08 2.80329e-09)
(1.40662e-09 4.45038e-09 8.66639e-10)
(3.18273e-09 1.36681e-08 2.39542e-09)
(-2.6394e-08 4.76329e-08 2.43191e-08)
(-2.89097e-08 3.96737e-08 2.85669e-08)
(-2.36441e-08 1.74253e-08 4.94508e-08)
(-1.73935e-08 9.20525e-09 3.76743e-08)
(-2.40107e-08 1.8906e-08 5.09236e-08)
(-2.60426e-08 2.77149e-08 4.75771e-08)
(-2.26844e-08 1.60576e-08 6.57384e-09)
(-2.14899e-08 1.66394e-08 5.5612e-09)
(-2.19912e-08 1.85468e-08 6.00134e-09)
(-2.03448e-08 1.58231e-08 5.50942e-09)
(-2.15465e-08 1.50903e-08 5.8295e-09)
(-2.29999e-08 1.79337e-08 6.26994e-09)
(-2.16924e-08 1.66413e-08 6.30769e-09)
(-2.5318e-08 1.37054e-08 7.30552e-09)
(-2.71723e-08 1.45756e-08 7.49061e-09)
(-2.876e-08 1.71239e-08 8.481e-09)
(-3.2408e-08 2.02965e-08 8.04472e-09)
(-2.4962e-08 1.26715e-08 7.4881e-09)
(-2.77825e-08 1.57486e-08 7.24059e-09)
(-2.92135e-08 1.82905e-08 8.13417e-09)
(-2.51107e-08 1.37277e-08 7.70041e-09)
(-2.38351e-08 1.37277e-08 7.52012e-09)
(-2.43578e-08 1.19756e-08 7.76411e-09)
(-2.46567e-08 1.4768e-08 8.20381e-09)
(-2.4884e-08 1.33214e-08 7.91878e-09)
(-2.45782e-08 1.24776e-08 7.3625e-09)
(-2.48885e-08 1.52943e-08 7.87112e-09)
(-2.49328e-08 1.42467e-08 7.09905e-09)
(-2.81946e-08 2.0084e-08 7.37958e-09)
(-3.24812e-08 2.11407e-08 7.70623e-09)
(-2.73761e-08 1.72169e-08 6.70151e-09)
(-2.77746e-08 1.62568e-08 7.01979e-09)
(-2.89498e-08 1.91022e-08 7.78371e-09)
(-2.40331e-08 1.51981e-08 6.77762e-09)
(-8.31836e-09 2.42836e-08 2.0862e-09)
(-6.19713e-09 2.61016e-08 1.87243e-09)
(-8.62344e-09 2.7399e-08 2.09224e-09)
(-5.39624e-09 2.37025e-08 1.88999e-09)
(-5.63012e-09 2.34253e-08 1.88093e-09)
(-8.86607e-09 2.72543e-08 2.07595e-09)
(-8.16322e-09 2.43669e-08 2.11352e-09)
(-1.61527e-08 2.1591e-08 2.28922e-09)
(-2.18909e-08 2.23744e-08 2.77233e-09)
(-1.94844e-08 2.72838e-08 2.74942e-09)
(-2.49109e-08 2.88104e-08 2.59974e-09)
(-1.61548e-08 2.12872e-08 2.31098e-09)
(-2.18653e-08 2.2293e-08 2.53981e-09)
(-1.91437e-08 2.76484e-08 2.72207e-09)
(-9.07326e-09 2.34021e-08 2.06477e-09)
(-7.12694e-09 2.54458e-08 1.89694e-09)
(-6.6581e-09 2.27692e-08 1.86753e-09)
(-9.83145e-09 2.6197e-08 2.11052e-09)
(-9.26842e-09 2.32791e-08 2.07405e-09)
(-6.46782e-09 2.28923e-08 1.84184e-09)
(-9.66219e-09 2.63251e-08 2.10005e-09)
(-3.77584e-09 2.51836e-08 2.44097e-08)
(-1.74546e-09 2.6889e-08 2.59845e-08)
(-4.15648e-09 2.63497e-08 2.98387e-08)
(-1.21039e-09 2.32011e-08 2.63896e-08)
(-1.19439e-09 2.44304e-08 2.37702e-08)
(-4.13536e-09 2.79251e-08 2.69703e-08)
(-3.79758e-09 2.35735e-08 2.69874e-08)
(-4.46454e-09 2.8238e-08 1.47346e-08)
(-2.13482e-09 3.00119e-08 1.51987e-08)
(-1.89824e-09 2.73333e-08 1.26856e-08)
(-4.8541e-09 3.14882e-08 1.45409e-08)
(-4.6687e-09 2.82344e-08 1.33338e-08)
(-1.74437e-09 2.71951e-08 1.40498e-08)
(-4.7121e-09 3.13731e-08 1.61081e-08)
(-2.85683e-08 1.51232e-08 7.6118e-09)
(-3.18301e-08 1.81613e-08 8.94601e-09)
(-2.6665e-08 1.36586e-08 8.17281e-09)
(-2.18377e-08 1.10724e-08 9.74416e-09)
(-2.92414e-08 1.67482e-08 9.65131e-09)
(-2.46389e-08 1.28338e-08 8.76029e-09)
(-1.61866e-08 9.85856e-09 1.10613e-08)
(-1.55885e-08 1.0494e-08 1.20338e-08)
(-1.51232e-08 1.05682e-08 1.26169e-08)
(-1.35893e-08 9.0124e-09 1.20786e-08)
(-1.45529e-08 9.35761e-09 1.17749e-08)
(-1.53072e-08 9.46328e-09 1.13428e-08)
(-1.67055e-08 1.11619e-08 1.18799e-08)
(-2.19434e-08 1.07719e-08 8.2435e-09)
(-2.60952e-08 1.39208e-08 7.77889e-09)
(-2.75328e-08 1.60531e-08 8.92849e-09)
(-2.83474e-08 1.63622e-08 9.38151e-09)
(-2.39114e-08 1.20531e-08 7.73716e-09)
(-2.4215e-08 1.25116e-08 8.31419e-09)
(-2.5532e-08 1.46573e-08 9.57652e-09)
(-2.33688e-08 1.23777e-08 8.50588e-09)
(-2.22703e-08 1.24154e-08 8.99247e-09)
(-2.37081e-08 1.1715e-08 8.11583e-09)
(-2.40384e-08 1.43613e-08 8.61879e-09)
(-2.42631e-08 1.29241e-08 8.20015e-09)
(-2.28269e-08 1.12857e-08 8.57421e-09)
(-2.33058e-08 1.37904e-08 9.00164e-09)
(-2.97254e-08 1.57963e-08 7.30091e-09)
(-3.63074e-08 2.20272e-08 7.70945e-09)
(-3.05411e-08 1.69982e-08 6.98452e-09)
(-3.67308e-08 2.29125e-08 7.40872e-09)
(-3.07489e-08 1.85153e-08 6.42678e-09)
(-3.08124e-08 1.75121e-08 6.7571e-09)
(-1.05927e-08 2.21419e-08 2.50492e-09)
(-8.90502e-09 2.41281e-08 2.17281e-09)
(-1.1617e-08 2.47205e-08 2.56341e-09)
(-8.45832e-09 2.15606e-08 2.28958e-09)
(-1.08914e-08 2.20096e-08 2.59842e-09)
(-8.15539e-09 2.17861e-08 2.19135e-09)
(-1.13346e-08 2.49667e-08 2.46176e-09)
(-1.64334e-08 2.0301e-08 2.50944e-09)
(-2.19335e-08 2.24358e-08 2.66255e-09)
(-1.97257e-08 2.70204e-08 2.74079e-09)
(-2.60397e-08 2.84242e-08 2.9782e-09)
(-1.62358e-08 2.07382e-08 2.31398e-09)
(-2.2088e-08 2.21509e-08 2.71924e-09)
(-1.99877e-08 2.65935e-08 2.83999e-09)
(-9.56537e-09 2.29392e-08 2.14516e-09)
(-7.71023e-09 2.49651e-08 1.92943e-09)
(-6.80286e-09 2.27008e-08 1.88078e-09)
(-9.98651e-09 2.60677e-08 2.11235e-09)
(-9.40953e-09 2.316e-08 2.10748e-09)
(-7.0297e-09 2.24982e-08 1.92302e-09)
(-1.02298e-08 2.58373e-08 2.14457e-09)
(-1.66521e-08 2.01106e-08 2.6744e-09)
(-2.06425e-08 2.57779e-08 3.30008e-09)
(-2.25161e-08 2.15827e-08 3.12428e-09)
(-2.63052e-08 2.817e-08 3.2436e-09)
(-2.22653e-08 2.20041e-08 2.85151e-09)
(-1.69721e-08 1.97085e-08 2.9629e-09)