/*--------------------------------*- C++ -*----------------------------------*\
| =========                 |                                                 |
| \\      /  F ield         | OpenFOAM: The Open Source CFD Toolbox           |
|  \\    /   O peration     | Version:  2012                                  |
|   \\  /    A nd           | Website:  www.openfoam.com                      |
|    \\/     M anipulation  |                                                 |
\*---------------------------------------------------------------------------*/
FoamFile
{
    version     2.0;
    format      ascii;
    class       volVectorField;
    location    "0.108/solid";
    object      D_0;
}
// * * * * * * * * * * * * * * * * * * * * * * * * * * * * * * * * * * * * * //

dimensions      [0 1 0 0 0 0 0];


internalField   nonuniform List<vector> 
3125
(
(7.08538e-06 -3.13131e-06 -9.38291e-07)
(1.21132e-05 -4.70151e-06 -1.08482e-06)
(1.64165e-05 -5.82481e-06 -1.14468e-06)
(2.21474e-05 -7.18416e-06 -1.1769e-06)
(2.6716e-05 -8.35803e-06 -9.66566e-07)
(6.93061e-06 -3.12459e-06 -7.3931e-07)
(1.15203e-05 -4.53369e-06 -1.07284e-06)
(7.60392e-06 -3.31097e-06 -9.59243e-07)
(1.13152e-05 -4.52958e-06 -8.85599e-07)
(7.44252e-06 -3.3046e-06 -7.60902e-07)
(1.19024e-05 -4.6977e-06 -8.99649e-07)
(1.61704e-05 -5.82281e-06 -9.72865e-07)
(2.15076e-05 -7.03455e-06 -1.175e-06)
(1.70469e-05 -5.97894e-06 -1.15031e-06)
(2.12344e-05 -7.03401e-06 -1.00976e-06)
(1.67966e-05 -5.97716e-06 -9.79939e-07)
(2.67139e-05 -8.48034e-06 -6.68741e-07)
(2.65779e-05 -8.48029e-06 -5.88314e-07)
(2.18719e-05 -7.18373e-06 -1.0117e-06)
(2.65764e-05 -8.35798e-06 -8.84377e-07)
(7.22896e-06 -2.67579e-06 -2.59982e-06)
(7.20946e-06 -2.74852e-06 -2.33542e-06)
(1.65394e-05 -5.06536e-06 -3.25196e-06)
(1.43648e-05 -4.57003e-06 -3.16921e-06)
(1.19313e-05 -4.08586e-06 -2.72982e-06)
(1.39289e-05 -5.19351e-06 -1.11528e-06)
(1.40393e-05 -4.60703e-06 -2.83603e-06)
(1.19504e-05 -3.98669e-06 -3.03732e-06)
(1.40583e-05 -4.49825e-06 -3.15502e-06)
(1.65206e-05 -5.1838e-06 -2.92351e-06)
(1.45447e-05 -5.35381e-06 -1.12375e-06)
(1.43459e-05 -4.6801e-06 -2.84884e-06)
(2.67352e-05 -7.36666e-06 -3.36334e-06)
(2.44892e-05 -6.83395e-06 -3.36973e-06)
(2.19192e-05 -6.38813e-06 -3.01594e-06)
(2.40646e-05 -7.63468e-06 -1.18095e-06)
(2.41522e-05 -6.89654e-06 -3.0286e-06)
(2.19378e-05 -6.25519e-06 -3.35447e-06)
(2.41707e-05 -6.76043e-06 -3.36857e-06)
(2.67185e-05 -7.49985e-06 -3.03516e-06)
(2.4703e-05 -7.78602e-06 -1.18177e-06)
(2.44708e-05 -6.97039e-06 -3.02963e-06)
(7.13331e-06 -2.66233e-06 -2.49294e-06)
(7.13387e-06 -2.73926e-06 -2.24951e-06)
(7.48641e-06 -2.7549e-06 -2.63209e-06)
(9.36624e-06 -3.30336e-06 -2.83437e-06)
(9.78682e-06 -4.01905e-06 -1.03085e-06)
(1.16364e-05 -4.00992e-06 -2.71217e-06)
(9.62563e-06 -3.46783e-06 -2.5699e-06)
(7.46693e-06 -2.82927e-06 -2.3645e-06)
(9.22608e-06 -3.84406e-06 -1.01471e-06)
(9.34693e-06 -3.38897e-06 -2.54679e-06)
(1.16555e-05 -3.9122e-06 -3.01775e-06)
(9.6449e-06 -3.38066e-06 -2.85999e-06)
(7.38872e-06 -2.74179e-06 -2.52536e-06)
(9.25456e-06 -3.29262e-06 -2.7297e-06)
(9.5998e-06 -4.01401e-06 -8.37827e-07)
(1.15364e-05 -4.00426e-06 -2.63108e-06)
(9.5359e-06 -3.46066e-06 -2.48613e-06)
(7.38973e-06 -2.82025e-06 -2.2787e-06)
(9.04532e-06 -3.8387e-06 -8.20014e-07)
(9.25873e-06 -3.38157e-06 -2.46269e-06)
(1.15289e-05 -3.90398e-06 -2.91675e-06)
(9.53129e-06 -3.37024e-06 -2.75573e-06)
(1.63873e-05 -5.06139e-06 -3.15726e-06)
(1.4223e-05 -4.56435e-06 -3.07233e-06)
(1.18299e-05 -4.08041e-06 -2.64913e-06)
(1.37019e-05 -5.19053e-06 -9.36303e-07)
(1.39286e-05 -4.60293e-06 -2.75801e-06)
(1.1822e-05 -3.97877e-06 -2.93681e-06)
(1.3918e-05 -4.49231e-06 -3.05772e-06)
(1.64005e-05 -5.18106e-06 -2.84771e-06)
(1.43127e-05 -5.35109e-06 -9.46725e-07)
(1.42339e-05 -4.67618e-06 -2.77115e-06)
(1.68535e-05 -5.13535e-06 -3.26156e-06)
(1.90681e-05 -5.62311e-06 -3.31506e-06)
(1.95894e-05 -6.58534e-06 -1.16717e-06)
(2.15999e-05 -6.31654e-06 -3.0132e-06)
(1.93675e-05 -5.82005e-06 -2.98572e-06)
(1.68347e-05 -5.25488e-06 -2.93217e-06)
(1.89515e-05 -6.4349e-06 -1.16372e-06)
(1.90494e-05 -5.74951e-06 -2.98043e-06)
(2.16186e-05 -6.18419e-06 -3.35143e-06)
(1.93862e-05 -5.69279e-06 -3.32092e-06)
(1.67e-05 -5.1316e-06 -3.16706e-06)
(1.89063e-05 -5.62078e-06 -3.22109e-06)
(1.93246e-05 -6.58435e-06 -1.00083e-06)
(2.14665e-05 -6.31579e-06 -2.93735e-06)
(1.92389e-05 -5.81856e-06 -2.91068e-06)
(1.67135e-05 -5.2523e-06 -2.85656e-06)
(1.86899e-05 -6.43373e-06 -9.96649e-07)
(1.89217e-05 -5.7479e-06 -2.90542e-06)
(2.14495e-05 -6.18312e-06 -3.25612e-06)
(1.92233e-05 -5.69064e-06 -3.22689e-06)
(2.65564e-05 -7.3667e-06 -3.26138e-06)
(2.43151e-05 -6.83378e-06 -3.27119e-06)
(2.17852e-05 -6.38748e-06 -2.93987e-06)
(2.37839e-05 -7.63454e-06 -1.01512e-06)
(2.40151e-05 -6.89637e-06 -2.95072e-06)
(2.1768e-05 -6.25425e-06 -3.25886e-06)
(2.3997e-05 -6.76019e-06 -3.27041e-06)
(2.65785e-05 -7.49993e-06 -2.95494e-06)
(2.4421e-05 -7.78593e-06 -1.01562e-06)
(2.43334e-05 -6.97026e-06 -2.95148e-06)
(7.25687e-06 -2.40605e-06 -3.49818e-06)
(7.19252e-06 -3.01312e-06 -1.45162e-06)
(1.65282e-05 -4.63534e-06 -4.38423e-06)
(1.55936e-05 -4.43627e-06 -4.34088e-06)
(1.19281e-05 -4.44126e-06 -1.68889e-06)
(1.27126e-05 -4.86741e-06 -1.09586e-06)
(1.28248e-05 -4.68131e-06 -1.71832e-06)
(1.19557e-05 -3.62359e-06 -4.09266e-06)
(1.28466e-05 -3.83011e-06 -4.16678e-06)
(1.6527e-05 -5.60512e-06 -1.80429e-06)
(1.5789e-05 -5.66934e-06 -1.13841e-06)
(1.55877e-05 -5.37898e-06 -1.78708e-06)
(2.66952e-05 -6.85688e-06 -4.55611e-06)
(2.57424e-05 -6.63776e-06 -4.54274e-06)
(2.1933e-05 -6.85878e-06 -1.85939e-06)
(2.2787e-05 -7.33395e-06 -1.17851e-06)
(2.28914e-05 -7.08031e-06 -1.86355e-06)
(2.1914e-05 -5.77533e-06 -4.52044e-06)
(2.28702e-05 -5.98456e-06 -4.52967e-06)
(2.67249e-05 -7.98806e-06 -1.86592e-06)
(2.5998e-05 -8.09584e-06 -1.18207e-06)
(2.577e-05 -7.75718e-06 -1.86986e-06)
(7.19202e-06 -2.39417e-06 -3.43089e-06)
(7.09893e-06 -3.0062e-06 -1.33721e-06)
(7.5129e-06 -2.47931e-06 -3.54196e-06)
(8.29835e-06 -2.6984e-06 -3.6664e-06)
(1.09345e-05 -4.36396e-06 -1.05988e-06)
(1.16324e-05 -4.36036e-06 -1.67842e-06)
(1.07563e-05 -4.11503e-06 -1.64427e-06)
(7.45092e-06 -3.09951e-06 -1.46909e-06)
(8.13398e-06 -3.48981e-06 -9.78938e-07)
(8.24313e-06 -3.35754e-06 -1.51915e-06)
(1.1662e-05 -3.55416e-06 -4.06603e-06)
(1.0792e-05 -3.34405e-06 -3.98022e-06)
(7.44661e-06 -2.46775e-06 -3.47473e-06)
(8.22777e-06 -2.68778e-06 -3.59952e-06)
(1.07354e-05 -4.35955e-06 -8.70614e-07)
(1.15089e-05 -4.35613e-06 -1.57081e-06)
(1.06379e-05 -4.11034e-06 -1.53497e-06)
(7.35517e-06 -3.09278e-06 -1.35485e-06)
(7.96604e-06 -3.48379e-06 -7.81551e-07)
(8.14171e-06 -3.35133e-06 -1.40571e-06)
(1.15755e-05 -3.54707e-06 -4.00194e-06)
(1.07093e-05 -3.33612e-06 -3.91532e-06)
(1.64244e-05 -4.63214e-06 -4.32313e-06)
(1.54927e-05 -4.43243e-06 -4.27953e-06)
(1.18027e-05 -4.43719e-06 -1.58186e-06)
(1.24963e-05 -4.86388e-06 -9.12776e-07)
(1.26945e-05 -4.67768e-06 -1.61301e-06)
(1.18679e-05 -3.61677e-06 -4.02883e-06)
(1.27553e-05 -3.82409e-06 -4.10372e-06)
(1.63789e-05 -5.60307e-06 -1.70486e-06)
(1.55474e-05 -5.66711e-06 -9.64986e-07)
(1.54436e-05 -5.37658e-06 -1.68644e-06)
(1.68413e-05 -4.70155e-06 -4.39719e-06)
(1.77847e-05 -4.90011e-06 -4.43188e-06)
(2.08678e-05 -6.88499e-06 -1.17277e-06)
(2.16134e-05 -6.78519e-06 -1.85774e-06)
(2.06548e-05 -6.56486e-06 -1.85175e-06)
(1.68417e-05 -5.67993e-06 -1.80938e-06)
(1.76798e-05 -6.13188e-06 -1.15533e-06)
(1.77893e-05 -5.90298e-06 -1.82322e-06)
(2.15953e-05 -5.70636e-06 -4.51659e-06)
(2.06395e-05 -5.50156e-06 -4.50246e-06)
(1.67367e-05 -4.69855e-06 -4.33614e-06)
(1.76775e-05 -4.89771e-06 -4.37082e-06)
(2.05971e-05 -6.88431e-06 -1.00734e-06)
(2.1449e-05 -6.78462e-06 -1.76062e-06)
(2.04927e-05 -6.56408e-06 -1.75476e-06)
(1.66922e-05 -5.678e-06 -1.71032e-06)
(1.74255e-05 -6.13032e-06 -9.8624e-07)
(1.76363e-05 -5.90137e-06 -1.72506e-06)
(2.14803e-05 -5.70582e-06 -4.45336e-06)
(2.05261e-05 -5.50063e-06 -4.44007e-06)
(2.59889e-05 -8.35158e-06 -5.54796e-07)
(2.5728e-05 -8.35154e-06 -4.00561e-07)
(2.65757e-05 -6.85688e-06 -4.48909e-06)
(2.56233e-05 -6.63827e-06 -4.47486e-06)
(2.17678e-05 -6.85829e-06 -1.76219e-06)
(2.25095e-05 -7.33364e-06 -1.0132e-06)
(2.27245e-05 -7.07998e-06 -1.76594e-06)
(2.17985e-05 -5.7749e-06 -4.45688e-06)
(2.27534e-05 -5.98445e-06 -4.46508e-06)
(2.65658e-05 -7.98796e-06 -1.77356e-06)
(2.57132e-05 -8.09578e-06 -1.01478e-06)
(2.55997e-05 -7.75716e-06 -1.77082e-06)
(7.25108e-06 -2.47887e-06 -3.25963e-06)
(7.19594e-06 -2.94794e-06 -1.66962e-06)
(1.43608e-05 -4.16898e-06 -4.27204e-06)
(1.52838e-05 -4.36969e-06 -4.32488e-06)
(1.65357e-05 -4.75096e-06 -4.0833e-06)
(1.56019e-05 -4.85441e-06 -3.21993e-06)
(1.56001e-05 -4.54876e-06 -4.04293e-06)
(1.43659e-05 -4.27695e-06 -3.97889e-06)
(1.52911e-05 -4.78368e-06 -3.20814e-06)
(1.529e-05 -4.48109e-06 -4.02804e-06)
(1.19287e-05 -4.35365e-06 -1.94582e-06)
(1.2826e-05 -4.3114e-06 -2.77898e-06)
(1.2825e-05 -4.59013e-06 -1.9801e-06)
(1.33181e-05 -5.0314e-06 -1.106e-06)
(1.40409e-05 -4.99534e-06 -1.75231e-06)
(1.31269e-05 -4.76045e-06 -1.72728e-06)
(1.31272e-05 -4.38584e-06 -2.79413e-06)
(1.40405e-05 -4.89963e-06 -2.0198e-06)
(1.31269e-05 -4.66811e-06 -1.99063e-06)
(1.40553e-05 -4.10168e-06 -4.25275e-06)
(1.31467e-05 -3.89839e-06 -4.18962e-06)
(1.19576e-05 -3.72149e-06 -3.81216e-06)
(1.2845e-05 -4.20799e-06 -3.0918e-06)
(1.28498e-05 -3.93194e-06 -3.88104e-06)
(1.40601e-05 -4.20847e-06 -3.96095e-06)
(1.31463e-05 -4.28106e-06 -3.10859e-06)
(1.31503e-05 -4.00149e-06 -3.90227e-06)
(1.65257e-05 -5.5013e-06 -2.08062e-06)
(1.5583e-05 -4.96941e-06 -2.89461e-06)
(1.55867e-05 -5.27804e-06 -2.06053e-06)
(1.51649e-05 -5.51238e-06 -1.13144e-06)
(1.43482e-05 -5.07282e-06 -1.75986e-06)
(1.52763e-05 -5.30297e-06 -1.78081e-06)
(1.52722e-05 -4.89749e-06 -2.88397e-06)
(1.43476e-05 -4.97602e-06 -2.0287e-06)
(1.52754e-05 -5.20304e-06 -2.05314e-06)
(2.4462e-05 -6.34194e-06 -4.53877e-06)
(2.54189e-05 -6.56234e-06 -4.54201e-06)
(2.67178e-05 -6.99221e-06 -4.24676e-06)
(2.57724e-05 -7.13414e-06 -3.37225e-06)
(2.57554e-05 -6.77062e-06 -4.23279e-06)
(2.44749e-05 -6.47385e-06 -4.22891e-06)
(2.54479e-05 -7.05763e-06 -3.37197e-06)
(2.5432e-05 -6.69507e-06 -4.23198e-06)
(2.19301e-05 -6.74288e-06 -2.14516e-06)
(2.28768e-05 -6.60435e-06 -3.02264e-06)
(2.28884e-05 -6.96311e-06 -2.14998e-06)
(2.34261e-05 -7.48408e-06 -1.17986e-06)
(2.41678e-05 -7.37796e-06 -1.86734e-06)
(2.32107e-05 -7.15444e-06 -1.86465e-06)
(2.31959e-05 -6.67695e-06 -3.02443e-06)
(2.41645e-05 -7.25942e-06 -2.15436e-06)
(2.32077e-05 -7.03687e-06 -2.15127e-06)
(2.41439e-05 -6.26955e-06 -4.53745e-06)
(2.31888e-05 -6.05514e-06 -4.53205e-06)
(2.19258e-05 -5.90401e-06 -4.21104e-06)
(2.28954e-05 -6.46984e-06 -3.36194e-06)
(2.28825e-05 -6.11468e-06 -4.21993e-06)
(2.41567e-05 -6.40116e-06 -4.22759e-06)
(2.32144e-05 -6.54199e-06 -3.36392e-06)
(2.32012e-05 -6.18568e-06 -4.22226e-06)
(2.67221e-05 -7.8656e-06 -2.15921e-06)
(2.5756e-05 -7.27169e-06 -3.03262e-06)
(2.57668e-05 -7.63737e-06 -2.15774e-06)
(2.53441e-05 -7.9389e-06 -1.1822e-06)
(2.44865e-05 -7.45289e-06 -1.86801e-06)
(2.5446e-05 -7.67999e-06 -1.86952e-06)
(2.54307e-05 -7.19498e-06 -3.03192e-06)
(2.44833e-05 -7.33408e-06 -2.15514e-06)
(2.54427e-05 -7.56044e-06 -2.15705e-06)
(7.17184e-06 -2.46531e-06 -3.17609e-06)
(7.10598e-06 -2.94016e-06 -1.56176e-06)
(7.5076e-06 -2.55371e-06 -3.30034e-06)
(8.27606e-06 -2.99131e-06 -2.72378e-06)
(8.29448e-06 -2.77748e-06 -3.41604e-06)
(9.38305e-06 -2.98793e-06 -3.81664e-06)
(8.56567e-06 -2.7711e-06 -3.70562e-06)
(8.54477e-06 -3.06971e-06 -2.75266e-06)
(9.38105e-06 -3.07307e-06 -3.55568e-06)
(8.56228e-06 -2.85172e-06 -3.45249e-06)
(1.03565e-05 -4.19239e-06 -1.0459e-06)
(9.61626e-06 -3.78203e-06 -1.59301e-06)
(1.04681e-05 -4.03239e-06 -1.63219e-06)
(1.16332e-05 -4.27398e-06 -1.93353e-06)
(1.07626e-05 -3.77981e-06 -2.65527e-06)
(1.07575e-05 -4.0324e-06 -1.89379e-06)
(9.61809e-06 -3.70459e-06 -1.8341e-06)
(1.04752e-05 -3.70236e-06 -2.63497e-06)
(1.04695e-05 -3.95104e-06 -1.87962e-06)
(7.45411e-06 -3.03293e-06 -1.69003e-06)
(8.25667e-06 -3.07056e-06 -2.44711e-06)
(8.24585e-06 -3.28682e-06 -1.74807e-06)
(8.67492e-06 -3.66759e-06 -9.97414e-07)
(9.3367e-06 -3.69781e-06 -1.57922e-06)
(8.51276e-06 -3.44307e-06 -1.53473e-06)
(8.52539e-06 -3.15056e-06 -2.47314e-06)
(9.33874e-06 -3.62169e-06 -1.81794e-06)
(8.51525e-06 -3.37099e-06 -1.76631e-06)
(9.66038e-06 -3.05971e-06 -3.85147e-06)
(1.05059e-05 -3.2734e-06 -3.94959e-06)
(1.16635e-05 -3.65071e-06 -3.78742e-06)
(1.07818e-05 -3.68652e-06 -2.95467e-06)
(1.07922e-05 -3.43644e-06 -3.70768e-06)
(9.65884e-06 -3.14634e-06 -3.58805e-06)
(1.04944e-05 -3.61058e-06 -2.93216e-06)
(1.05057e-05 -3.36438e-06 -3.67923e-06)
(7.42661e-06 -2.54051e-06 -3.21689e-06)
(8.1723e-06 -2.97923e-06 -2.61773e-06)
(8.20832e-06 -2.76534e-06 -3.33306e-06)
(9.30694e-06 -2.97853e-06 -3.75051e-06)
(8.49369e-06 -2.76079e-06 -3.6389e-06)
(8.43901e-06 -3.05797e-06 -2.64691e-06)
(9.28819e-06 -3.06229e-06 -3.47371e-06)
(8.47442e-06 -2.83992e-06 -3.36974e-06)
(1.01634e-05 -4.18767e-06 -8.54689e-07)
(9.50515e-06 -3.77669e-06 -1.48163e-06)
(1.03517e-05 -4.02753e-06 -1.52234e-06)
(1.15144e-05 -4.26922e-06 -1.832e-06)
(1.06669e-05 -3.77352e-06 -2.57299e-06)
(1.06438e-05 -4.02712e-06 -1.7907e-06)
(9.51143e-06 -3.69857e-06 -1.72906e-06)
(1.03809e-05 -3.69585e-06 -2.5523e-06)
(1.03576e-05 -3.94557e-06 -1.77602e-06)
(7.36222e-06 -3.02536e-06 -1.58234e-06)
(8.17469e-06 -3.06224e-06 -2.36188e-06)
(8.14837e-06 -3.27985e-06 -1.64112e-06)
(8.50052e-06 -3.6619e-06 -8.01254e-07)
(9.22764e-06 -3.69228e-06 -1.46737e-06)
(8.40922e-06 -3.43704e-06 -1.42165e-06)
(8.44185e-06 -3.14248e-06 -2.38815e-06)
(9.23392e-06 -3.61548e-06 -1.71247e-06)
(8.41588e-06 -3.3642e-06 -1.65968e-06)
(9.58292e-06 -3.05061e-06 -3.78556e-06)
(1.04245e-05 -3.26518e-06 -3.88443e-06)
(1.15581e-05 -3.64248e-06 -3.70814e-06)
(1.06606e-05 -3.67739e-06 -2.85222e-06)
(1.06914e-05 -3.42728e-06 -3.62735e-06)
(9.56435e-06 -3.13588e-06 -3.50638e-06)
(1.0375e-05 -3.60112e-06 -2.82923e-06)
(1.04064e-05 -3.3549e-06 -3.59855e-06)
(1.42639e-05 -4.16421e-06 -4.21007e-06)
(1.51839e-05 -4.36562e-06 -4.26341e-06)
(1.64091e-05 -4.74705e-06 -4.00817e-06)
(1.5454e-05 -4.84974e-06 -3.12445e-06)
(1.5477e-05 -4.54413e-06 -3.96738e-06)
(1.42477e-05 -4.2713e-06 -3.90247e-06)
(1.51446e-05 -4.77877e-06 -3.11234e-06)
(1.51681e-05 -4.47621e-06 -3.95231e-06)
(1.18082e-05 -4.34907e-06 -1.84483e-06)
(1.27204e-05 -4.30655e-06 -2.69948e-06)
(1.26997e-05 -4.58605e-06 -1.8807e-06)
(1.30963e-05 -5.02815e-06 -9.24988e-07)
(1.39042e-05 -4.99228e-06 -1.64921e-06)
(1.29948e-05 -4.75698e-06 -1.62255e-06)
(1.30204e-05 -4.38118e-06 -2.71502e-06)
(1.39091e-05 -4.89618e-06 -1.92244e-06)
(1.3e-05 -4.6642e-06 -1.89176e-06)
(1.39595e-05 -4.09667e-06 -4.19059e-06)
(1.30543e-05 -3.89262e-06 -4.12681e-06)
(1.18506e-05 -3.71357e-06 -3.73323e-06)
(1.27113e-05 -4.20094e-06 -2.99273e-06)
(1.27385e-05 -3.92491e-06 -3.80314e-06)
(1.39433e-05 -4.20255e-06 -3.88426e-06)
(1.30109e-05 -4.27429e-06 -3.00999e-06)
(1.30376e-05 -3.99474e-06 -3.82469e-06)
(1.63833e-05 -5.499e-06 -1.98655e-06)
(1.54662e-05 -4.96619e-06 -2.81812e-06)
(1.54482e-05 -5.27534e-06 -1.96537e-06)
(1.4928e-05 -5.50991e-06 -9.56279e-07)
(1.42098e-05 -5.06989e-06 -1.6573e-06)
(1.51337e-05 -5.30044e-06 -1.67971e-06)
(1.51566e-05 -4.8941e-06 -2.80721e-06)
(1.42147e-05 -4.97273e-06 -1.93181e-06)
(1.51383e-05 -5.20019e-06 -1.95758e-06)
(1.68492e-05 -4.81816e-06 -4.09538e-06)
(1.77996e-05 -5.34465e-06 -3.28731e-06)
(1.77935e-05 -5.01954e-06 -4.12774e-06)
(1.905e-05 -5.16572e-06 -4.469e-06)
(1.81003e-05 -4.96637e-06 -4.4421e-06)
(1.8116e-05 -5.41427e-06 -3.29492e-06)
(1.90599e-05 -5.28852e-06 -4.16247e-06)
(1.81094e-05 -5.08669e-06 -4.13729e-06)
(2.02283e-05 -6.73531e-06 -1.17017e-06)
(1.93784e-05 -6.27139e-06 -1.84121e-06)
(2.03354e-05 -6.49151e-06 -1.84943e-06)
(2.16106e-05 -6.66978e-06 -2.14322e-06)
(2.06423e-05 -6.10293e-06 -3.00332e-06)
(2.06522e-05 -6.45109e-06 -2.13624e-06)
(1.93761e-05 -6.16021e-06 -2.1239e-06)
(2.03233e-05 -6.03205e-06 -2.99942e-06)
(2.03329e-05 -6.37834e-06 -2.1335e-06)
(1.68402e-05 -5.5752e-06 -2.08663e-06)
(1.77808e-05 -5.4673e-06 -2.95541e-06)
(1.77875e-05 -5.79563e-06 -2.10279e-06)
(1.83148e-05 -6.28381e-06 -1.15979e-06)
(1.90598e-05 -6.19793e-06 -1.83809e-06)
(1.81063e-05 -5.97692e-06 -1.82726e-06)
(1.80973e-05 -5.53791e-06 -2.96227e-06)
(1.90577e-05 -6.08747e-06 -2.12022e-06)
(1.81044e-05 -5.86877e-06 -2.10757e-06)
(1.93674e-05 -5.23246e-06 -4.47677e-06)
(2.03211e-05 -5.4339e-06 -4.49681e-06)
(2.16069e-05 -5.83451e-06 -4.20736e-06)
(2.0661e-05 -5.97256e-06 -3.34045e-06)
(2.06505e-05 -5.62792e-06 -4.19395e-06)
(1.93775e-05 -5.35603e-06 -4.16977e-06)
(2.0342e-05 -5.90241e-06 -3.33612e-06)
(2.03319e-05 -5.55961e-06 -4.18861e-06)
(1.67215e-05 -4.81448e-06 -4.02034e-06)
(1.76423e-05 -5.34155e-06 -3.19324e-06)
(1.76627e-05 -5.01651e-06 -4.05279e-06)
(1.89398e-05 -5.16403e-06 -4.40759e-06)
(1.79924e-05 -4.96415e-06 -4.38098e-06)
(1.79576e-05 -5.41138e-06 -3.20093e-06)
(1.89253e-05 -5.28628e-06 -4.08724e-06)
(1.79776e-05 -5.08386e-06 -4.06231e-06)
(1.99604e-05 -6.73448e-06 -1.00437e-06)
(1.92198e-05 -6.27028e-06 -1.744e-06)
(2.01742e-05 -6.49065e-06 -1.75241e-06)
(2.14525e-05 -6.66914e-06 -2.05075e-06)
(2.05108e-05 -6.1019e-06 -2.92796e-06)
(2.04963e-05 -6.45021e-06 -2.04401e-06)
(1.92237e-05 -6.15896e-06 -2.03163e-06)
(2.01925e-05 -6.03091e-06 -2.92417e-06)
(2.01778e-05 -6.37737e-06 -2.0413e-06)
(1.66965e-05 -5.57303e-06 -1.99287e-06)
(1.76566e-05 -5.46516e-06 -2.8802e-06)
(1.76404e-05 -5.79383e-06 -2.0098e-06)
(1.80568e-05 -6.28245e-06 -9.91798e-07)
(1.89024e-05 -6.19672e-06 -1.74074e-06)
(1.7952e-05 -5.97543e-06 -1.72936e-06)
(1.79722e-05 -5.53591e-06 -2.88716e-06)
(1.89062e-05 -6.08611e-06 -2.02786e-06)
(1.79561e-05 -5.86708e-06 -2.01478e-06)
(1.92565e-05 -5.23093e-06 -4.41521e-06)
(2.02083e-05 -5.43283e-06 -4.43466e-06)
(2.14664e-05 -5.83355e-06 -4.1302e-06)
(2.04944e-05 -5.97107e-06 -3.24587e-06)
(2.0512e-05 -5.62652e-06 -4.11771e-06)
(1.92421e-05 -5.35397e-06 -4.09439e-06)
(2.01763e-05 -5.90076e-06 -3.24173e-06)
(2.01942e-05 -5.55806e-06 -4.11263e-06)
(2.43436e-05 -6.34222e-06 -4.47227e-06)
(2.52999e-05 -6.56281e-06 -4.47441e-06)
(2.65712e-05 -6.99227e-06 -4.16409e-06)
(2.5597e-05 -7.13419e-06 -3.27239e-06)
(2.56099e-05 -6.7708e-06 -4.15056e-06)
(2.43303e-05 -6.4738e-06 -4.1481e-06)
(2.52729e-05 -7.05764e-06 -3.27242e-06)
(2.52866e-05 -6.6952e-06 -4.15003e-06)
(2.17713e-05 -6.74232e-06 -2.05257e-06)
(2.27413e-05 -6.60393e-06 -2.94587e-06)
(2.27279e-05 -6.96274e-06 -2.05689e-06)
(2.31468e-05 -7.48386e-06 -1.01432e-06)
(2.39989e-05 -7.37782e-06 -1.76901e-06)
(2.30432e-05 -7.15417e-06 -1.76689e-06)
(2.30599e-05 -6.6766e-06 -2.94738e-06)
(2.40021e-05 -7.25925e-06 -2.06041e-06)
(2.30466e-05 -7.03656e-06 -2.05798e-06)
(2.40258e-05 -6.26977e-06 -4.47134e-06)
(2.30716e-05 -6.05513e-06 -4.46709e-06)
(2.17847e-05 -5.90318e-06 -4.13352e-06)
(2.27237e-05 -6.46924e-06 -3.26531e-06)
(2.27398e-05 -6.11419e-06 -4.14126e-06)
(2.40124e-05 -6.40104e-06 -4.14722e-06)
(2.30422e-05 -6.5415e-06 -3.26692e-06)
(2.30581e-05 -6.18529e-06 -4.14317e-06)
(2.65679e-05 -7.86557e-06 -2.07e-06)
(2.56174e-05 -7.27171e-06 -2.95343e-06)
(2.56029e-05 -7.63736e-06 -2.06286e-06)
(2.50612e-05 -7.93887e-06 -1.01576e-06)
(2.43173e-05 -7.45278e-06 -1.76951e-06)
(2.52759e-05 -7.67995e-06 -1.77054e-06)
(2.52925e-05 -7.19498e-06 -2.95302e-06)
(2.43205e-05 -7.33396e-06 -2.06098e-06)
(2.52791e-05 -7.56042e-06 -2.06231e-06)
(7.27675e-06 -2.21839e-06 -4.11514e-06)
(7.02508e-06 -2.14947e-06 -4.0622e-06)
(1.65113e-05 -4.33746e-06 -5.15801e-06)
(1.61998e-05 -4.27361e-06 -5.14203e-06)
(1.19542e-05 -3.36932e-06 -4.81566e-06)
(1.22485e-05 -3.43506e-06 -4.84588e-06)
(2.66106e-05 -6.53111e-06 -5.28446e-06)
(2.63377e-05 -6.46419e-06 -5.29066e-06)
(2.18851e-05 -5.44723e-06 -5.31377e-06)
(2.22034e-05 -5.51539e-06 -5.31744e-06)
(7.24783e-06 -2.21263e-06 -4.08575e-06)
(6.99688e-06 -2.14353e-06 -4.03283e-06)
(7.53145e-06 -2.28729e-06 -4.16671e-06)
(7.78911e-06 -2.35615e-06 -4.21693e-06)
(1.16617e-05 -3.30333e-06 -4.7843e-06)
(1.1371e-05 -3.23711e-06 -4.75178e-06)
(7.50183e-06 -2.28171e-06 -4.13731e-06)
(7.75878e-06 -2.35074e-06 -4.18754e-06)
(1.16227e-05 -3.30022e-06 -4.75577e-06)
(1.13325e-05 -3.23384e-06 -4.72317e-06)
(1.64649e-05 -4.33648e-06 -5.13025e-06)
(1.61538e-05 -4.27251e-06 -5.11428e-06)
(1.19146e-05 -3.36635e-06 -4.78722e-06)
(1.22083e-05 -3.43225e-06 -4.81751e-06)
(1.68235e-05 -4.40133e-06 -5.17311e-06)
(1.71365e-05 -4.46524e-06 -5.18736e-06)
(2.15669e-05 -5.37951e-06 -5.30962e-06)
(2.12487e-05 -5.31221e-06 -5.30497e-06)
(1.67768e-05 -4.40046e-06 -5.14534e-06)
(1.70894e-05 -4.46448e-06 -5.15957e-06)
(2.15162e-05 -5.37997e-06 -5.28039e-06)
(2.11982e-05 -5.3126e-06 -5.2759e-06)
(2.62826e-05 -8.40842e-06 -5.89024e-07)
(2.64488e-05 -8.48117e-06 -5.09762e-07)
(2.61541e-05 -8.41004e-06 -5.09154e-07)
(2.65387e-05 -6.52933e-06 -5.24848e-06)
(2.62806e-05 -6.46473e-06 -5.25749e-06)
(2.18342e-05 -5.44775e-06 -5.28437e-06)
(2.21523e-05 -5.51597e-06 -5.28786e-06)
(2.61196e-05 -8.15263e-06 -1.11449e-06)
(2.65715e-05 -8.23438e-06 -1.18106e-06)
(2.62808e-05 -8.28562e-06 -8.86427e-07)
(2.64459e-05 -8.35955e-06 -8.03678e-07)
(2.6273e-05 -8.16056e-06 -1.1852e-06)
(2.61519e-05 -8.2876e-06 -8.05781e-07)
(2.64171e-05 -8.22824e-06 -1.10521e-06)
(7.24087e-06 -2.60968e-06 -2.82865e-06)
(6.97452e-06 -2.59659e-06 -2.56668e-06)
(7.28131e-06 -2.69888e-06 -2.60862e-06)
(7.02565e-06 -2.61955e-06 -2.57626e-06)
(6.98662e-06 -2.53193e-06 -2.79257e-06)
(7.01508e-06 -2.74225e-06 -2.1607e-06)
(7.20255e-06 -2.81601e-06 -2.10774e-06)
(6.955e-06 -2.66767e-06 -2.30557e-06)
(7.27225e-06 -2.76057e-06 -2.39516e-06)
(7.0164e-06 -2.67985e-06 -2.36558e-06)
(6.94787e-06 -2.73371e-06 -2.08088e-06)
(7.27125e-06 -2.82434e-06 -2.18744e-06)
(1.43506e-05 -3.88951e-06 -5.02666e-06)
(1.46562e-05 -3.95376e-06 -5.04831e-06)
(1.65461e-05 -4.95904e-06 -3.53867e-06)
(1.62261e-05 -4.99522e-06 -3.24183e-06)
(1.66261e-05 -5.09273e-06 -3.23913e-06)
(1.63119e-05 -5.02247e-06 -3.22938e-06)
(1.62329e-05 -4.88988e-06 -3.52765e-06)
(1.44452e-05 -4.59651e-06 -3.15958e-06)
(1.43725e-05 -4.47103e-06 -3.4486e-06)
(1.46725e-05 -4.64151e-06 -3.18279e-06)
(1.47538e-05 -4.66813e-06 -3.17262e-06)
(1.468e-05 -4.5414e-06 -3.46338e-06)
(1.23188e-05 -4.25839e-06 -2.55123e-06)
(1.19279e-05 -4.17659e-06 -2.4623e-06)
(1.20165e-05 -4.09597e-06 -2.78235e-06)
(1.22279e-05 -4.16142e-06 -2.74683e-06)
(1.23143e-05 -4.17144e-06 -2.7989e-06)
(1.20207e-05 -4.18174e-06 -2.53637e-06)
(1.22247e-05 -4.2534e-06 -2.47758e-06)
(1.38319e-05 -4.6359e-06 -2.61731e-06)
(1.41326e-05 -4.61654e-06 -2.88548e-06)
(1.3734e-05 -4.53364e-06 -2.82264e-06)
(1.40371e-05 -4.7062e-06 -2.55768e-06)
(1.38261e-05 -4.54323e-06 -2.8725e-06)
(1.41386e-05 -4.7103e-06 -2.62895e-06)
(1.37316e-05 -4.63166e-06 -2.54566e-06)
(1.40462e-05 -3.82512e-06 -5.00401e-06)
(1.3743e-05 -3.76059e-06 -4.98033e-06)
(1.19593e-05 -3.89725e-06 -3.30499e-06)
(1.20226e-05 -4.01208e-06 -3.03277e-06)
(1.2247e-05 -4.06082e-06 -3.05617e-06)
(1.23203e-05 -4.08635e-06 -3.05092e-06)
(1.22557e-05 -3.97012e-06 -3.32552e-06)
(1.41377e-05 -4.5246e-06 -3.14594e-06)
(1.40661e-05 -4.40039e-06 -3.43314e-06)
(1.3753e-05 -4.42617e-06 -3.14019e-06)
(1.38314e-05 -4.45239e-06 -3.1317e-06)
(1.37609e-05 -4.32946e-06 -3.417e-06)
(1.63154e-05 -5.22243e-06 -2.69709e-06)
(1.65197e-05 -5.29145e-06 -2.63624e-06)
(1.62072e-05 -5.11254e-06 -2.91437e-06)
(1.6622e-05 -5.19275e-06 -2.97036e-06)
(1.63077e-05 -5.12155e-06 -2.96148e-06)
(1.62062e-05 -5.21921e-06 -2.62803e-06)
(1.66299e-05 -5.29456e-06 -2.70506e-06)
(1.47555e-05 -4.8581e-06 -2.65074e-06)
(1.44402e-05 -4.68953e-06 -2.8979e-06)
(1.46536e-05 -4.75285e-06 -2.86109e-06)
(1.43439e-05 -4.7804e-06 -2.56919e-06)
(1.4749e-05 -4.7622e-06 -2.90978e-06)
(1.44465e-05 -4.78436e-06 -2.64009e-06)
(1.46517e-05 -4.85426e-06 -2.58019e-06)
(2.44302e-05 -6.0058e-06 -5.33207e-06)
(2.47479e-05 -6.07782e-06 -5.33302e-06)
(2.67443e-05 -7.24379e-06 -3.66203e-06)
(2.64366e-05 -7.29231e-06 -3.37094e-06)
(2.68311e-05 -7.39402e-06 -3.35232e-06)
(2.65297e-05 -7.31923e-06 -3.35941e-06)
(2.64341e-05 -7.16733e-06 -3.6684e-06)
(2.45894e-05 -6.86324e-06 -3.35621e-06)
(2.44936e-05 -6.71191e-06 -3.6665e-06)
(2.48078e-05 -6.90788e-06 -3.37069e-06)
(2.49082e-05 -6.93717e-06 -3.35737e-06)
(2.4812e-05 -6.78556e-06 -3.66755e-06)
(2.23634e-05 -6.58241e-06 -2.78995e-06)
(2.19202e-05 -6.50849e-06 -2.71938e-06)
(2.20329e-05 -6.39629e-06 -3.06207e-06)
(2.22385e-05 -6.45996e-06 -3.01841e-06)
(2.23526e-05 -6.46808e-06 -3.0647e-06)
(2.20436e-05 -6.51016e-06 -2.78755e-06)
(2.22396e-05 -6.5808e-06 -2.72162e-06)
(2.39609e-05 -6.94721e-06 -2.79907e-06)
(2.42685e-05 -6.90448e-06 -3.07606e-06)
(2.38336e-05 -6.82304e-06 -3.02739e-06)
(2.41537e-05 -7.01967e-06 -2.7309e-06)
(2.39496e-05 -6.83101e-06 -3.07464e-06)
(2.42799e-05 -7.02098e-06 -2.80039e-06)
(2.3835e-05 -6.94586e-06 -2.7298e-06)
(2.41123e-05 -5.93427e-06 -5.33094e-06)
(2.37944e-05 -5.86323e-06 -5.32955e-06)
(2.19428e-05 -6.13622e-06 -3.65007e-06)
(2.20355e-05 -6.28417e-06 -3.33967e-06)
(2.22571e-05 -6.32645e-06 -3.35723e-06)
(2.23552e-05 -6.35549e-06 -3.34253e-06)
(2.2262e-05 -6.207e-06 -3.65304e-06)
(2.42707e-05 -6.78971e-06 -3.35486e-06)
(2.41752e-05 -6.63868e-06 -3.66526e-06)
(2.38521e-05 -6.68727e-06 -3.36723e-06)
(2.39519e-05 -6.71654e-06 -3.35333e-06)
(2.38567e-05 -6.56584e-06 -3.66381e-06)
(2.65403e-05 -7.55149e-06 -2.80908e-06)
(2.67168e-05 -7.62232e-06 -2.74067e-06)
(2.64254e-05 -7.42898e-06 -3.03724e-06)
(2.68352e-05 -7.50581e-06 -3.08746e-06)
(2.65316e-05 -7.43457e-06 -3.08442e-06)
(2.64236e-05 -7.55242e-06 -2.74006e-06)
(2.68438e-05 -7.62226e-06 -2.81348e-06)
(2.49176e-05 -7.16944e-06 -2.80259e-06)
(2.45873e-05 -6.97828e-06 -3.07731e-06)
(2.47896e-05 -7.04464e-06 -3.03052e-06)
(2.44723e-05 -7.0938e-06 -2.73186e-06)
(2.49061e-05 -7.05245e-06 -3.07841e-06)
(2.45987e-05 -7.09504e-06 -2.80156e-06)
(2.47912e-05 -7.1683e-06 -2.7327e-06)
(7.1406e-06 -2.59476e-06 -2.7189e-06)
(6.88093e-06 -2.58277e-06 -2.4597e-06)
(7.07551e-06 -2.67113e-06 -2.37745e-06)
(6.88853e-06 -2.51661e-06 -2.68273e-06)
(6.82422e-06 -2.59107e-06 -2.34486e-06)
(6.80276e-06 -2.71752e-06 -1.90882e-06)
(7.12507e-06 -2.80737e-06 -2.01801e-06)
(6.88102e-06 -2.65816e-06 -2.21957e-06)
(7.06838e-06 -2.73568e-06 -2.16257e-06)
(6.87203e-06 -2.72484e-06 -1.99106e-06)
(6.81685e-06 -2.65431e-06 -2.13275e-06)
(7.05435e-06 -2.80024e-06 -1.93582e-06)
(7.49813e-06 -2.68733e-06 -2.86378e-06)
(7.53999e-06 -2.77812e-06 -2.64011e-06)
(7.7468e-06 -2.83388e-06 -2.6635e-06)
(7.8016e-06 -2.85722e-06 -2.67073e-06)
(7.75833e-06 -2.76486e-06 -2.89798e-06)
(9.39253e-06 -2.76686e-06 -4.49041e-06)
(9.11885e-06 -2.6988e-06 -4.44808e-06)
(9.42822e-06 -3.32751e-06 -2.83675e-06)
(9.08993e-06 -3.22576e-06 -2.80795e-06)
(9.37665e-06 -3.22586e-06 -3.08401e-06)
(9.15074e-06 -3.24977e-06 -2.81114e-06)
(9.10053e-06 -3.14965e-06 -3.05524e-06)
(1.14296e-05 -4.02725e-06 -2.5049e-06)
(1.16328e-05 -4.09938e-06 -2.44644e-06)
(1.17203e-05 -4.02013e-06 -2.76517e-06)
(1.13433e-05 -3.9336e-06 -2.69386e-06)
(1.17242e-05 -4.10469e-06 -2.52093e-06)
(1.14259e-05 -3.9439e-06 -2.74734e-06)
(1.13395e-05 -4.02177e-06 -2.43e-06)
(9.98507e-06 -3.63424e-06 -2.41563e-06)
(9.70061e-06 -3.47876e-06 -2.62619e-06)
(9.62063e-06 -3.548e-06 -2.31859e-06)
(9.90661e-06 -3.54635e-06 -2.59229e-06)
(9.70246e-06 -3.55454e-06 -2.39588e-06)
(9.9829e-06 -3.55718e-06 -2.64812e-06)
(9.90182e-06 -3.62789e-06 -2.33872e-06)
(7.79256e-06 -2.98816e-06 -2.2387e-06)
(7.46024e-06 -2.8982e-06 -2.13389e-06)
(7.53112e-06 -2.84119e-06 -2.42394e-06)
(7.72735e-06 -2.90988e-06 -2.3928e-06)
(7.53044e-06 -2.90632e-06 -2.21343e-06)
(7.79291e-06 -2.92167e-06 -2.45191e-06)
(7.72088e-06 -2.98025e-06 -2.15935e-06)
(9.14418e-06 -3.39412e-06 -2.3544e-06)
(9.42059e-06 -3.40002e-06 -2.60353e-06)
(9.07061e-06 -3.30979e-06 -2.52297e-06)
(9.34173e-06 -3.46777e-06 -2.29783e-06)
(9.14294e-06 -3.32096e-06 -2.58015e-06)
(9.42214e-06 -3.47449e-06 -2.37547e-06)
(9.0652e-06 -3.38721e-06 -2.27641e-06)
(9.6686e-06 -2.83472e-06 -4.53146e-06)
(9.94699e-06 -2.90236e-06 -4.57125e-06)
(1.16646e-05 -3.82403e-06 -3.28368e-06)
(1.17266e-05 -3.93745e-06 -3.01392e-06)
(1.13624e-05 -3.83734e-06 -2.99746e-06)
(1.14324e-05 -3.86245e-06 -2.99437e-06)
(1.13716e-05 -3.75045e-06 -3.26159e-06)
(9.70806e-06 -3.40494e-06 -2.86157e-06)
(9.65514e-06 -3.30178e-06 -3.11191e-06)
(9.92587e-06 -3.45763e-06 -2.88483e-06)
(9.99019e-06 -3.48205e-06 -2.8856e-06)
(9.93593e-06 -3.37739e-06 -3.13895e-06)
(7.3957e-06 -2.6728e-06 -2.75418e-06)
(7.32983e-06 -2.75109e-06 -2.40927e-06)
(7.64707e-06 -2.82111e-06 -2.55696e-06)
(7.65375e-06 -2.75072e-06 -2.78856e-06)
(7.5871e-06 -2.83091e-06 -2.44031e-06)
(9.35822e-06 -2.76247e-06 -4.46125e-06)
(9.08517e-06 -2.69425e-06 -4.41886e-06)
(9.18821e-06 -3.30537e-06 -2.6105e-06)
(8.98022e-06 -3.21468e-06 -2.70289e-06)
(9.25947e-06 -3.21396e-06 -2.97648e-06)
(8.98541e-06 -3.13738e-06 -2.94731e-06)
(8.91492e-06 -3.22695e-06 -2.58403e-06)
(1.11471e-05 -4.01198e-06 -2.2666e-06)
(1.15304e-05 -4.0941e-06 -2.36184e-06)
(1.12447e-05 -3.92773e-06 -2.61237e-06)
(1.14508e-05 -4.00491e-06 -2.54582e-06)
(1.12385e-05 -4.0163e-06 -2.34497e-06)
(1.11603e-05 -3.92813e-06 -2.52689e-06)
(1.14377e-05 -4.08996e-06 -2.28382e-06)
(9.72364e-06 -3.61618e-06 -2.17157e-06)
(9.45883e-06 -3.4595e-06 -2.39953e-06)
(9.52874e-06 -3.54132e-06 -2.23116e-06)
(9.81538e-06 -3.53941e-06 -2.50887e-06)
(9.80839e-06 -3.62142e-06 -2.25165e-06)
(9.44534e-06 -3.53589e-06 -2.15076e-06)
(9.73706e-06 -3.53852e-06 -2.42242e-06)
(7.56654e-06 -2.96531e-06 -1.98794e-06)
(7.38113e-06 -2.88979e-06 -2.04429e-06)
(7.32293e-06 -2.81694e-06 -2.19168e-06)
(7.64855e-06 -2.9011e-06 -2.30716e-06)
(7.30897e-06 -2.88284e-06 -1.96219e-06)
(7.64013e-06 -2.97206e-06 -2.06992e-06)
(7.58044e-06 -2.89806e-06 -2.22009e-06)
(8.8958e-06 -3.3743e-06 -2.10732e-06)
(9.18292e-06 -3.38015e-06 -2.37595e-06)
(8.98395e-06 -3.30217e-06 -2.43855e-06)
(9.2514e-06 -3.46088e-06 -2.21003e-06)
(8.97644e-06 -3.38011e-06 -2.18828e-06)
(8.9094e-06 -3.30048e-06 -2.35169e-06)
(9.16937e-06 -3.45526e-06 -2.12934e-06)
(9.63366e-06 -2.8305e-06 -4.50237e-06)
(9.91143e-06 -2.89831e-06 -4.54223e-06)