/*--------------------------------*- C++ -*----------------------------------*\
| =========                 |                                                 |
| \\      /  F ield         | OpenFOAM: The Open Source CFD Toolbox           |
|  \\    /   O peration     | Version:  2012                                  |
|   \\  /    A nd           | Website:  www.openfoam.com                      |
|    \\/     M anipulation  |                                                 |
\*---------------------------------------------------------------------------*/
FoamFile
{
    version     2.0;
    format      ascii;
    class       volVectorField;
    location    "0.108/solid";
    object      D_0_0_0;
}
// * * * * * * * * * * * * * * * * * * * * * * * * * * * * * * * * * * * * * //

dimensions      [0 1 0 0 0 0 0];


internalField   nonuniform List<vector> 
3125
(
(1.29512e-05 -3.49101e-06 -1.69005e-06)
(2.22452e-05 -5.91413e-06 -1.99629e-06)
(3.02221e-05 -7.9833e-06 -2.12933e-06)
(4.08648e-05 -1.07844e-05 -2.20018e-06)
(4.94445e-05 -1.31609e-05 -1.79559e-06)
(1.28268e-05 -3.4782e-06 -1.41636e-06)
(2.11475e-05 -5.62966e-06 -1.9703e-06)
(1.39079e-05 -3.74281e-06 -1.73253e-06)
(2.09946e-05 -5.62162e-06 -1.65971e-06)
(1.37798e-05 -3.73062e-06 -1.45321e-06)
(2.2089e-05 -5.90663e-06 -1.6822e-06)
(3.00461e-05 -7.97915e-06 -1.79601e-06)
(3.96758e-05 -1.0468e-05 -2.19644e-06)
(3.13918e-05 -8.28815e-06 -2.14205e-06)
(3.94852e-05 -1.04665e-05 -1.85038e-06)
(3.12136e-05 -8.28442e-06 -1.80665e-06)
(4.94425e-05 -1.32449e-05 -1.24109e-06)
(4.93487e-05 -1.32446e-05 -1.07276e-06)
(4.06731e-05 -1.07832e-05 -1.85312e-06)
(4.93482e-05 -1.31606e-05 -1.62327e-06)
(1.32512e-05 -3.14817e-06 -4.7974e-06)
(1.32252e-05 -3.20588e-06 -4.31053e-06)
(3.05068e-05 -7.48656e-06 -6.0516e-06)
(2.64699e-05 -6.46415e-06 -5.89126e-06)
(2.19708e-05 -5.41272e-06 -5.06441e-06)
(2.56091e-05 -6.78554e-06 -2.06333e-06)
(2.58822e-05 -6.39995e-06 -5.26908e-06)
(2.19917e-05 -5.33924e-06 -5.63606e-06)
(2.59011e-05 -6.32084e-06 -5.86375e-06)
(3.04898e-05 -7.57121e-06 -5.43792e-06)
(2.67506e-05 -7.08144e-06 -2.08222e-06)
(2.64512e-05 -6.54401e-06 -5.29381e-06)
(4.94592e-05 -1.24788e-05 -6.25911e-06)
(4.52829e-05 -1.13469e-05 -6.27331e-06)
(4.05243e-05 -1.01765e-05 -5.61374e-06)
(4.44288e-05 -1.1739e-05 -2.20713e-06)
(4.46773e-05 -1.12821e-05 -5.63569e-06)
(4.05383e-05 -1.0084e-05 -6.24719e-06)
(4.46905e-05 -1.1188e-05 -6.27154e-06)
(4.94506e-05 -1.25712e-05 -5.64542e-06)
(4.56159e-05 -1.20591e-05 -2.20815e-06)
(4.52699e-05 -1.14411e-05 -5.6373e-06)
(1.31733e-05 -3.12278e-06 -4.63754e-06)
(1.31635e-05 -3.1884e-06 -4.18338e-06)
(1.3727e-05 -3.26795e-06 -4.85886e-06)
(1.72043e-05 -4.14067e-06 -5.2455e-06)
(1.79405e-05 -4.79688e-06 -1.88074e-06)
(2.14239e-05 -5.27495e-06 -5.03045e-06)
(1.7697e-05 -4.33623e-06 -4.75753e-06)
(1.37013e-05 -3.32664e-06 -4.36578e-06)
(1.69039e-05 -4.52686e-06 -1.84686e-06)
(1.71808e-05 -4.20609e-06 -4.71333e-06)
(2.1445e-05 -5.20232e-06 -5.59828e-06)
(1.77202e-05 -4.26988e-06 -5.29466e-06)
(1.36479e-05 -3.2432e-06 -4.69726e-06)
(1.71173e-05 -4.12032e-06 -5.07288e-06)
(1.77977e-05 -4.78713e-06 -1.58198e-06)
(2.13485e-05 -5.26414e-06 -4.88511e-06)
(1.76274e-05 -4.32263e-06 -4.61922e-06)
(1.36387e-05 -3.3096e-06 -4.23725e-06)
(1.67647e-05 -4.51651e-06 -1.55254e-06)
(1.7112e-05 -4.19207e-06 -4.57614e-06)
(2.13497e-05 -5.18665e-06 -5.41527e-06)
(1.76321e-05 -4.25013e-06 -5.12063e-06)
(3.03976e-05 -7.47883e-06 -5.85301e-06)
(2.63662e-05 -6.45321e-06 -5.69875e-06)
(2.18947e-05 -5.4023e-06 -4.91816e-06)
(2.54438e-05 -6.77957e-06 -1.73994e-06)
(2.58009e-05 -6.39206e-06 -5.11708e-06)
(2.18953e-05 -5.32413e-06 -5.45189e-06)
(2.57983e-05 -6.3094e-06 -5.6722e-06)
(3.04035e-05 -7.56586e-06 -5.28045e-06)
(2.65824e-05 -7.07596e-06 -1.7561e-06)
(2.63693e-05 -6.53645e-06 -5.14106e-06)
(3.10901e-05 -7.63518e-06 -6.07017e-06)
(3.52042e-05 -8.69134e-06 -6.1732e-06)
(3.61122e-05 -9.5252e-06 -2.17981e-06)
(3.99306e-05 -1.00198e-05 -5.60876e-06)
(3.578e-05 -8.93381e-06 -5.55726e-06)
(3.10732e-05 -7.72044e-06 -5.45461e-06)
(3.49275e-05 -9.21355e-06 -2.1722e-06)
(3.51888e-05 -8.78038e-06 -5.54721e-06)
(3.99448e-05 -9.92764e-06 -6.24166e-06)
(3.57953e-05 -8.8443e-06 -6.18438e-06)
(3.09801e-05 -7.62787e-06 -5.87079e-06)
(3.50899e-05 -8.68668e-06 -5.96889e-06)
(3.5926e-05 -9.52289e-06 -1.83751e-06)
(3.98375e-05 -1.00182e-05 -5.4435e-06)
(3.56894e-05 -8.9308e-06 -5.39491e-06)
(3.09864e-05 -7.71538e-06 -5.29654e-06)
(3.4743e-05 -9.21092e-06 -1.83141e-06)
(3.50985e-05 -8.77714e-06 -5.38535e-06)
(3.98268e-05 -9.92534e-06 -6.03288e-06)
(3.56805e-05 -8.83998e-06 -5.97944e-06)
(4.93362e-05 -1.24787e-05 -6.04239e-06)
(4.51626e-05 -1.13463e-05 -6.06109e-06)
(4.04309e-05 -1.0175e-05 -5.44813e-06)
(4.42344e-05 -1.17383e-05 -1.8578e-06)
(4.45825e-05 -1.12815e-05 -5.46806e-06)
(4.04201e-05 -1.0082e-05 -6.03794e-06)
(4.45704e-05 -1.11873e-05 -6.0596e-06)
(4.93542e-05 -1.25712e-05 -5.47521e-06)
(4.54209e-05 -1.20584e-05 -1.85837e-06)
(4.5175e-05 -1.14407e-05 -5.46946e-06)
(1.33198e-05 -2.92846e-06 -6.47195e-06)
(1.31829e-05 -3.4213e-06 -2.66391e-06)
(3.05143e-05 -7.17809e-06 -8.15586e-06)
(2.8778e-05 -6.74233e-06 -8.07321e-06)
(2.19502e-05 -5.67935e-06 -3.12628e-06)
(2.33554e-05 -6.20172e-06 -2.02042e-06)
(2.36132e-05 -6.10581e-06 -3.18447e-06)
(2.20246e-05 -5.06737e-06 -7.5998e-06)
(2.36777e-05 -5.47506e-06 -7.74108e-06)
(3.04846e-05 -7.874e-06 -3.35539e-06)
(2.9058e-05 -7.68047e-06 -2.11516e-06)
(2.87403e-05 -7.42359e-06 -3.32113e-06)
(4.94204e-05 -1.2125e-05 -8.47455e-06)
(4.76478e-05 -1.16484e-05 -8.4505e-06)
(4.05308e-05 -1.05045e-05 -3.46309e-06)
(4.20535e-05 -1.11018e-05 -2.20316e-06)
(4.23131e-05 -1.09791e-05 -3.47046e-06)
(4.05264e-05 -9.75004e-06 -8.41274e-06)
(4.23048e-05 -1.02188e-05 -8.42928e-06)
(4.94505e-05 -1.2906e-05 -3.47074e-06)
(4.80237e-05 -1.27114e-05 -2.2076e-06)
(4.7667e-05 -1.24198e-05 -3.47982e-06)
(1.32683e-05 -2.90585e-06 -6.36573e-06)
(1.3107e-05 -3.40818e-06 -2.50177e-06)
(1.37933e-05 -3.04496e-06 -6.55469e-06)
(1.52467e-05 -3.40219e-06 -6.79015e-06)
(2.00634e-05 -5.3485e-06 -1.94242e-06)
(2.14021e-05 -5.53881e-06 -3.1056e-06)
(1.97783e-05 -5.12225e-06 -3.0384e-06)
(1.36604e-05 -3.54524e-06 -2.69758e-06)
(1.48864e-05 -3.99957e-06 -1.77279e-06)
(1.51254e-05 -3.92459e-06 -2.79434e-06)
(2.14799e-05 -4.93326e-06 -7.54909e-06)
(1.98665e-05 -4.53655e-06 -7.38576e-06)
(1.3741e-05 -3.02294e-06 -6.44726e-06)
(1.5192e-05 -3.3819e-06 -6.67926e-06)
(1.99138e-05 -5.33989e-06 -1.63553e-06)
(2.13093e-05 -5.53066e-06 -2.9214e-06)
(1.96885e-05 -5.11325e-06 -2.85761e-06)
(1.35833e-05 -3.53248e-06 -2.53375e-06)
(1.47545e-05 -3.988e-06 -1.48818e-06)
(1.50451e-05 -3.91279e-06 -2.62571e-06)
(2.1416e-05 -4.91946e-06 -7.4266e-06)
(1.98048e-05 -4.5212e-06 -7.26588e-06)
(3.04406e-05 -7.17149e-06 -8.02196e-06)
(2.87059e-05 -6.73453e-06 -7.94117e-06)
(2.18564e-05 -5.6715e-06 -2.941e-06)
(2.3196e-05 -6.19474e-06 -1.70304e-06)
(2.35167e-05 -6.09878e-06 -2.99613e-06)
(2.196e-05 -5.05408e-06 -7.47648e-06)
(2.36111e-05 -5.46324e-06 -7.61538e-06)
(3.03784e-05 -7.86991e-06 -3.15718e-06)
(2.88845e-05 -7.67589e-06 -1.78408e-06)
(2.86362e-05 -7.41883e-06 -3.12507e-06)
(3.10961e-05 -7.32469e-06 -8.18055e-06)
(3.28492e-05 -7.7684e-06 -8.24653e-06)
(3.8487e-05 -1.01525e-05 -2.19185e-06)
(3.99366e-05 -1.03469e-05 -3.46006e-06)
(3.81544e-05 -9.87572e-06 -3.4488e-06)
(3.10689e-05 -8.02521e-06 -3.36554e-06)
(3.25665e-05 -8.5949e-06 -2.15339e-06)
(3.28293e-05 -8.48193e-06 -3.393e-06)
(3.99337e-05 -9.59463e-06 -8.40573e-06)
(3.81563e-05 -9.13112e-06 -8.37963e-06)
(3.10219e-05 -7.31847e-06 -8.04606e-06)
(3.27736e-05 -7.76326e-06 -8.11034e-06)
(3.82978e-05 -1.01508e-05 -1.84692e-06)
(3.98219e-05 -1.03455e-05 -3.25355e-06)
(3.80408e-05 -9.87399e-06 -3.24347e-06)
(3.09619e-05 -8.02134e-06 -3.16666e-06)
(3.23861e-05 -8.59156e-06 -1.81605e-06)
(3.27205e-05 -8.47866e-06 -3.19223e-06)
(3.98537e-05 -9.59296e-06 -8.2639e-06)
(3.80772e-05 -9.12872e-06 -8.23904e-06)
(4.80203e-05 -1.28885e-05 -1.03838e-06)
(4.78402e-05 -1.2888e-05 -7.15343e-07)
(4.93384e-05 -1.2125e-05 -8.33124e-06)
(4.75659e-05 -1.16487e-05 -8.30492e-06)
(4.04157e-05 -1.05033e-05 -3.25623e-06)
(4.18608e-05 -1.11008e-05 -1.85521e-06)
(4.21971e-05 -1.09782e-05 -3.26266e-06)
(4.04463e-05 -9.74858e-06 -8.27052e-06)
(4.22239e-05 -1.02179e-05 -8.286e-06)
(4.93408e-05 -1.29058e-05 -3.27602e-06)
(4.78272e-05 -1.27108e-05 -1.85608e-06)
(4.75496e-05 -1.24196e-05 -3.27058e-06)
(1.33014e-05 -2.98758e-06 -6.02661e-06)
(1.31916e-05 -3.36867e-06 -3.07015e-06)
(2.64884e-05 -6.17135e-06 -7.94186e-06)
(2.82027e-05 -6.59848e-06 -8.0427e-06)
(3.05151e-05 -7.2608e-06 -7.59772e-06)
(2.8766e-05 -7.04442e-06 -5.98957e-06)
(2.87774e-05 -6.82335e-06 -7.52039e-06)
(2.64858e-05 -6.24991e-06 -7.39762e-06)
(2.81891e-05 -6.89833e-06 -5.96671e-06)
(2.82016e-05 -6.67891e-06 -7.49186e-06)
(2.19544e-05 -5.61394e-06 -3.60485e-06)
(2.36304e-05 -5.83109e-06 -5.15907e-06)
(2.36167e-05 -6.03838e-06 -3.67201e-06)
(2.44771e-05 -6.49224e-06 -2.04275e-06)
(2.58692e-05 -6.68483e-06 -3.25191e-06)
(2.41733e-05 -6.24948e-06 -3.20224e-06)
(2.41894e-05 -5.97216e-06 -5.18828e-06)
(2.58719e-05 -6.61487e-06 -3.75004e-06)
(2.41766e-05 -6.18141e-06 -3.6927e-06)
(2.59213e-05 -6.03049e-06 -7.90505e-06)
(2.42347e-05 -5.61268e-06 -7.78464e-06)
(2.20174e-05 -5.14039e-06 -7.07827e-06)
(2.36504e-05 -5.75512e-06 -5.74136e-06)
(2.36723e-05 -5.55025e-06 -7.21013e-06)
(2.59181e-05 -6.1084e-06 -7.36324e-06)
(2.42092e-05 -5.89538e-06 -5.77385e-06)
(2.42298e-05 -5.68857e-06 -7.25079e-06)
(3.04856e-05 -7.79957e-06 -3.86981e-06)
(2.87483e-05 -7.12711e-06 -5.38217e-06)
(2.87419e-05 -7.35074e-06 -3.83024e-06)
(2.79006e-05 -7.3798e-06 -2.09947e-06)
(2.64393e-05 -6.8313e-06 -3.26696e-06)
(2.81622e-05 -7.27461e-06 -3.30863e-06)
(2.81711e-05 -6.98034e-06 -5.36162e-06)
(2.64417e-05 -6.76074e-06 -3.76756e-06)
(2.8164e-05 -7.2023e-06 -3.81568e-06)
(4.52658e-05 -1.10074e-05 -8.44459e-06)
(4.7046e-05 -1.1486e-05 -8.44953e-06)
(4.94464e-05 -1.2221e-05 -7.90084e-06)
(4.76697e-05 -1.19906e-05 -6.27648e-06)
(4.76562e-05 -1.17397e-05 -7.87578e-06)
(4.52742e-05 -1.10984e-05 -7.87013e-06)
(4.70662e-05 -1.18273e-05 -6.27633e-06)
(4.70546e-05 -1.15773e-05 -7.87467e-06)
(4.05294e-05 -1.04238e-05 -3.9947e-06)
(4.23052e-05 -1.06485e-05 -5.6257e-06)
(4.23114e-05 -1.08977e-05 -4.00325e-06)
(4.32416e-05 -1.14201e-05 -2.20546e-06)
(4.46867e-05 -1.1615e-05 -3.47662e-06)
(4.29068e-05 -1.11377e-05 -3.47234e-06)
(4.28985e-05 -1.08065e-05 -5.62878e-06)
(4.46847e-05 -1.1533e-05 -4.01043e-06)
(4.29051e-05 -1.10562e-05 -4.00546e-06)
(4.4674e-05 -1.0849e-05 -8.4425e-06)
(4.28974e-05 -1.03758e-05 -8.43344e-06)
(4.05333e-05 -9.83953e-06 -7.83933e-06)
(4.23189e-05 -1.05553e-05 -6.26047e-06)
(4.23123e-05 -1.0309e-05 -7.85519e-06)
(4.46823e-05 -1.09398e-05 -7.86808e-06)
(4.29121e-05 -1.0713e-05 -6.26388e-06)
(4.29051e-05 -1.04662e-05 -7.85922e-06)
(4.94483e-05 -1.28216e-05 -4.01624e-06)
(4.76605e-05 -1.2086e-05 -5.64155e-06)
(4.76652e-05 -1.23373e-05 -4.01517e-06)
(4.68082e-05 -1.23815e-05 -2.2084e-06)
(4.52796e-05 -1.17746e-05 -3.4776e-06)
(4.70644e-05 -1.22565e-05 -3.4795e-06)
(4.70555e-05 -1.19224e-05 -5.64057e-06)
(4.52776e-05 -1.16925e-05 -4.0116e-06)
(4.70623e-05 -1.21741e-05 -4.0142e-06)
(1.32377e-05 -2.96198e-06 -5.89687e-06)
(1.31184e-05 -3.35395e-06 -2.91561e-06)
(1.37756e-05 -3.10496e-06 -6.10373e-06)
(1.51871e-05 -3.63488e-06 -5.03381e-06)
(1.52311e-05 -3.46478e-06 -6.32322e-06)
(1.72554e-05 -3.89539e-06 -7.07496e-06)
(1.57416e-05 -3.52374e-06 -6.86444e-06)
(1.56841e-05 -3.75961e-06 -5.08901e-06)
(1.72424e-05 -3.96134e-06 -6.58875e-06)
(1.57267e-05 -3.58718e-06 -6.39248e-06)
(1.8994e-05 -5.07083e-06 -1.91258e-06)
(1.76666e-05 -4.57971e-06 -2.93802e-06)
(1.92444e-05 -4.9852e-06 -3.01468e-06)
(2.14065e-05 -5.47409e-06 -3.58079e-06)
(1.98037e-05 -4.86694e-06 -4.92115e-06)
(1.97835e-05 -5.05967e-06 -3.50324e-06)
(1.76728e-05 -4.52008e-06 -3.38719e-06)
(1.9271e-05 -4.73279e-06 -4.88219e-06)
(1.92499e-05 -4.92334e-06 -3.47564e-06)
(1.36688e-05 -3.49183e-06 -3.1093e-06)
(1.51623e-05 -3.69649e-06 -4.52304e-06)
(1.5133e-05 -3.8688e-06 -3.22091e-06)
(1.58855e-05 -4.26101e-06 -1.81089e-06)
(1.71491e-05 -4.44655e-06 -2.9111e-06)
(1.56241e-05 -4.0534e-06 -2.82458e-06)
(1.56597e-05 -3.82219e-06 -4.57267e-06)
(1.71556e-05 -4.38767e-06 -3.35589e-06)
(1.56314e-05 -3.99684e-06 -3.25607e-06)
(1.77692e-05 -4.02151e-06 -7.14108e-06)
(1.93361e-05 -4.40626e-06 -7.32752e-06)
(2.14721e-05 -5.00553e-06 -7.03095e-06)
(1.98257e-05 -4.79694e-06 -5.47668e-06)
(1.98568e-05 -4.60652e-06 -6.87859e-06)
(1.77569e-05 -4.08828e-06 -6.6504e-06)
(1.92933e-05 -4.66369e-06 -5.43334e-06)
(1.93258e-05 -4.47544e-06 -6.82426e-06)
(1.3711e-05 -3.08001e-06 -5.97252e-06)
(1.51046e-05 -3.61205e-06 -4.86723e-06)
(1.51636e-05 -3.44178e-06 -6.18785e-06)
(1.71974e-05 -3.87734e-06 -6.95984e-06)
(1.5686e-05 -3.50402e-06 -6.75245e-06)
(1.56005e-05 -3.73741e-06 -4.92087e-06)
(1.71711e-05 -3.94085e-06 -6.44829e-06)
(1.56582e-05 -3.56481e-06 -6.25578e-06)
(1.88478e-05 -5.06166e-06 -1.60963e-06)
(1.75808e-05 -4.5695e-06 -2.76225e-06)
(1.91557e-05 -4.97589e-06 -2.83509e-06)
(2.13172e-05 -5.46496e-06 -3.40495e-06)
(1.97308e-05 -4.85497e-06 -4.77867e-06)
(1.9697e-05 -5.04957e-06 -3.33071e-06)
(1.75903e-05 -4.50862e-06 -3.21952e-06)
(1.91989e-05 -4.72042e-06 -4.74071e-06)
(1.91644e-05 -4.9129e-06 -3.30428e-06)
(1.35945e-05 -3.47749e-06 -2.95313e-06)
(1.50971e-05 -3.68077e-06 -4.3906e-06)
(1.50556e-05 -3.85555e-06 -3.06012e-06)
(1.57499e-05 -4.25006e-06 -1.52128e-06)
(1.70645e-05 -4.43601e-06 -2.73668e-06)
(1.55426e-05 -4.04193e-06 -2.65444e-06)
(1.55935e-05 -3.8069e-06 -4.43899e-06)
(1.70741e-05 -4.37585e-06 -3.18952e-06)
(1.5553e-05 -3.98396e-06 -3.09383e-06)
(1.77104e-05 -4.00402e-06 -7.02496e-06)
(1.92751e-05 -4.39038e-06 -7.20854e-06)
(2.13935e-05 -4.98979e-06 -6.88166e-06)
(1.97334e-05 -4.77957e-06 -5.29733e-06)
(1.97809e-05 -4.58905e-06 -6.73242e-06)
(1.76846e-05 -4.06841e-06 -6.50874e-06)
(1.92021e-05 -4.64573e-06 -5.25527e-06)
(1.92508e-05 -4.45738e-06 -6.67918e-06)
(2.64186e-05 -6.16184e-06 -7.81249e-06)
(2.81311e-05 -6.59027e-06 -7.91131e-06)
(3.04247e-05 -7.25311e-06 -7.43484e-06)
(2.8659e-05 -7.03537e-06 -5.79345e-06)
(2.8689e-05 -6.81433e-06 -7.35971e-06)
(2.64001e-05 -6.23897e-06 -7.24012e-06)
(2.80829e-05 -6.88882e-06 -5.77146e-06)
(2.81138e-05 -6.66942e-06 -7.33195e-06)
(2.18641e-05 -5.60514e-06 -3.42796e-06)
(2.3552e-05 -5.82179e-06 -5.01023e-06)
(2.35238e-05 -6.03051e-06 -3.49215e-06)
(2.43146e-05 -6.48578e-06 -1.72227e-06)
(2.57692e-05 -6.67885e-06 -3.05989e-06)
(2.40758e-05 -6.24273e-06 -3.01295e-06)
(2.41103e-05 -5.96322e-06 -5.03862e-06)
(2.57756e-05 -6.60817e-06 -3.56658e-06)
(2.40828e-05 -6.17384e-06 -3.5119e-06)
(2.58521e-05 -6.02053e-06 -7.77639e-06)
(2.41674e-05 -5.60134e-06 -7.65817e-06)
(2.1938e-05 -5.12521e-06 -6.92799e-06)
(2.35512e-05 -5.74163e-06 -5.55388e-06)
(2.35905e-05 -5.53672e-06 -7.05699e-06)
(2.58332e-05 -6.09696e-06 -7.20657e-06)
(2.4109e-05 -5.88242e-06 -5.58531e-06)
(2.41472e-05 -5.67557e-06 -7.09674e-06)
(3.03834e-05 -7.795e-06 -3.68026e-06)
(2.86638e-05 -7.12086e-06 -5.22662e-06)
(2.86418e-05 -7.34542e-06 -3.64281e-06)
(2.77297e-05 -7.37478e-06 -1.7708e-06)
(2.63384e-05 -6.82558e-06 -3.07408e-06)
(2.8059e-05 -7.26961e-06 -3.11333e-06)
(2.80872e-05 -6.97377e-06 -5.20675e-06)
(2.63446e-05 -6.75434e-06 -3.58326e-06)
(2.80646e-05 -7.19672e-06 -3.629e-06)
(3.10974e-05 -7.40794e-06 -7.62084e-06)
(3.28473e-05 -8.08455e-06 -6.1199e-06)
(3.28518e-05 -7.85314e-06 -7.68267e-06)
(3.52012e-05 -8.36852e-06 -8.31685e-06)
(3.34359e-05 -7.91754e-06 -8.26593e-06)
(3.34353e-05 -8.23546e-06 -6.13457e-06)
(3.52053e-05 -8.45503e-06 -7.74871e-06)
(3.34388e-05 -8.00275e-06 -7.70087e-06)
(3.72989e-05 -9.83823e-06 -2.18634e-06)
(3.57819e-05 -9.25227e-06 -3.42845e-06)
(3.75608e-05 -9.71933e-06 -3.44437e-06)
(3.99353e-05 -1.02664e-05 -3.99115e-06)
(3.815e-05 -9.55195e-06 -5.59046e-06)
(3.81535e-05 -9.79605e-06 -3.97811e-06)
(3.57815e-05 -9.17393e-06 -3.95451e-06)
(3.7557e-05 -9.39678e-06 -5.58316e-06)
(3.756e-05 -9.63995e-06 -3.97292e-06)
(3.10698e-05 -7.95029e-06 -3.88164e-06)
(3.28311e-05 -8.17154e-06 -5.49931e-06)
(3.28297e-05 -8.4056e-06 -3.91337e-06)
(3.37453e-05 -8.90341e-06 -2.16341e-06)
(3.519e-05 -9.09736e-06 -3.42235e-06)
(3.34182e-05 -8.63511e-06 -3.40102e-06)
(3.34193e-05 -8.32299e-06 -5.51249e-06)
(3.51897e-05 -9.01938e-06 -3.94738e-06)
(3.34184e-05 -8.55835e-06 -3.92271e-06)
(3.57911e-05 -8.51998e-06 -8.33152e-06)
(3.75643e-05 -8.97756e-06 -8.36911e-06)
(3.99403e-05 -9.68385e-06 -7.83265e-06)
(3.81647e-05 -9.4608e-06 -6.22132e-06)
(3.81621e-05 -9.21945e-06 -7.80789e-06)
(3.57956e-05 -8.60689e-06 -7.7625e-06)
(3.75718e-05 -9.30601e-06 -6.21319e-06)
(3.75698e-05 -9.06557e-06 -7.79795e-06)
(3.10064e-05 -7.40068e-06 -7.45726e-06)
(3.27354e-05 -8.07843e-06 -5.91829e-06)
(3.27591e-05 -7.8471e-06 -7.51708e-06)
(3.51238e-05 -8.36471e-06 -8.17857e-06)
(3.33598e-05 -7.91275e-06 -8.1292e-06)
(3.33227e-05 -8.22972e-06 -5.93225e-06)
(3.51106e-05 -8.45046e-06 -7.58065e-06)
(3.33456e-05 -7.99709e-06 -7.53464e-06)
(3.71112e-05 -9.83622e-06 -1.84265e-06)
(3.56702e-05 -9.24992e-06 -3.22495e-06)
(3.74477e-05 -9.71745e-06 -3.23945e-06)
(3.9825e-05 -1.02649e-05 -3.79329e-06)
(3.80579e-05 -9.54978e-06 -5.42636e-06)
(3.80442e-05 -9.79414e-06 -3.78144e-06)
(3.5674e-05 -9.17132e-06 -3.75968e-06)
(3.74651e-05 -9.39441e-06 -5.41947e-06)
(3.74511e-05 -9.63788e-06 -3.77668e-06)
(3.09669e-05 -7.94597e-06 -3.69142e-06)
(3.27427e-05 -8.1673e-06 -5.33951e-06)
(3.27249e-05 -8.40196e-06 -3.72128e-06)
(3.35628e-05 -8.90043e-06 -1.82428e-06)
(3.50788e-05 -9.09484e-06 -3.21934e-06)
(3.33087e-05 -8.63204e-06 -3.19966e-06)
(3.33304e-05 -8.31901e-06 -5.35215e-06)
(3.50827e-05 -9.01658e-06 -3.75306e-06)
(3.3313e-05 -8.55494e-06 -3.73004e-06)
(3.57134e-05 -8.51647e-06 -8.19275e-06)
(3.74856e-05 -8.9749e-06 -8.22895e-06)
(3.98425e-05 -9.68168e-06 -7.66044e-06)
(3.80479e-05 -9.4577e-06 -6.01406e-06)
(3.80653e-05 -9.21647e-06 -7.63712e-06)
(3.57004e-05 -8.60266e-06 -7.59388e-06)
(3.74554e-05 -9.30262e-06 -6.00649e-06)
(3.74734e-05 -9.06229e-06 -7.62769e-06)
(4.51842e-05 -1.10072e-05 -8.29986e-06)
(4.69641e-05 -1.14861e-05 -8.30407e-06)
(4.93456e-05 -1.2221e-05 -7.7244e-06)
(4.75489e-05 -1.19904e-05 -6.06338e-06)
(4.75561e-05 -1.17397e-05 -7.69943e-06)
(4.51744e-05 -1.10979e-05 -7.69458e-06)
(4.69455e-05 -1.18271e-05 -6.06346e-06)
(4.69545e-05 -1.15771e-05 -7.69842e-06)
(4.04187e-05 -1.04224e-05 -3.79648e-06)
(4.22111e-05 -1.06475e-05 -5.45912e-06)
(4.21999e-05 -1.08967e-05 -3.80406e-06)
(4.3048e-05 -1.14192e-05 -1.85675e-06)
(4.45699e-05 -1.16145e-05 -3.26782e-06)
(4.27906e-05 -1.11369e-05 -3.26426e-06)
(4.28042e-05 -1.08056e-05 -5.46191e-06)
(4.45723e-05 -1.15325e-05 -3.81021e-06)
(4.27933e-05 -1.10553e-05 -3.80598e-06)
(4.45925e-05 -1.08487e-05 -8.29803e-06)
(4.28164e-05 -1.03751e-05 -8.28984e-06)
(4.04352e-05 -9.8376e-06 -7.66667e-06)
(4.21997e-05 -1.05539e-05 -6.04993e-06)
(4.22135e-05 -1.03077e-05 -7.6813e-06)
(4.45826e-05 -1.09392e-05 -7.69282e-06)
(4.27927e-05 -1.07118e-05 -6.05296e-06)
(4.28061e-05 -1.04651e-05 -7.68495e-06)
(4.93421e-05 -1.28215e-05 -3.82784e-06)
(4.7565e-05 -1.20858e-05 -5.47286e-06)
(4.75522e-05 -1.2337e-05 -3.81428e-06)
(4.66128e-05 -1.2381e-05 -1.8583e-06)
(4.51626e-05 -1.17741e-05 -3.26862e-06)
(4.6947e-05 -1.22562e-05 -3.2702e-06)
(4.69602e-05 -1.19221e-05 -5.47219e-06)
(4.5165e-05 -1.1692e-05 -3.81118e-06)
(4.69494e-05 -1.21738e-05 -3.81339e-06)
(1.33752e-05 -2.78642e-06 -7.62141e-06)
(1.29093e-05 -2.67381e-06 -7.52185e-06)
(3.05152e-05 -6.97057e-06 -9.58994e-06)
(2.99361e-05 -6.82613e-06 -9.55973e-06)
(2.20483e-05 -4.88639e-06 -8.94244e-06)
(2.25945e-05 -5.01938e-06 -8.99956e-06)
(4.92897e-05 -1.188e-05 -9.82663e-06)
(4.87872e-05 -1.17421e-05 -9.83768e-06)
(4.051e-05 -9.52341e-06 -9.88264e-06)
(4.11021e-05 -9.6785e-06 -9.88936e-06)
(1.33544e-05 -2.77493e-06 -7.5728e-06)
(1.2889e-05 -2.662e-06 -7.47383e-06)
(1.38467e-05 -2.9004e-06 -7.71844e-06)
(1.43239e-05 -3.01573e-06 -7.81295e-06)
(2.15053e-05 -4.75433e-06 -8.88317e-06)
(2.09656e-05 -4.62322e-06 -8.82171e-06)
(1.38255e-05 -2.88923e-06 -7.66925e-06)
(1.43022e-05 -3.00486e-06 -7.76319e-06)
(2.14783e-05 -4.74753e-06 -8.82676e-06)
(2.0939e-05 -4.61616e-06 -8.76571e-06)
(3.04834e-05 -6.96761e-06 -9.52801e-06)
(2.99046e-05 -6.82297e-06 -9.4981e-06)
(2.20209e-05 -4.87986e-06 -8.88563e-06)
(2.25669e-05 -5.01313e-06 -8.94236e-06)
(3.10957e-05 -7.11571e-06 -9.61849e-06)
(3.16776e-05 -7.26155e-06 -9.64541e-06)
(3.99179e-05 -9.36878e-06 -9.875e-06)
(3.9326e-05 -9.21464e-06 -9.8664e-06)
(3.10636e-05 -7.11296e-06 -9.55627e-06)
(3.16453e-05 -7.259e-06 -9.58291e-06)
(3.9883e-05 -9.36845e-06 -9.80919e-06)
(3.92913e-05 -9.21419e-06 -9.80079e-06)
(4.87988e-05 -1.30945e-05 -1.07432e-06)
(4.92626e-05 -1.32459e-05 -9.08522e-07)
(4.87149e-05 -1.30968e-05 -9.07456e-07)
(4.92375e-05 -1.18779e-05 -9.74869e-06)
(4.87509e-05 -1.17433e-05 -9.7665e-06)
(4.04749e-05 -9.52319e-06 -9.81664e-06)
(4.10669e-05 -9.6784e-06 -9.82318e-06)
(4.86843e-05 -1.29175e-05 -2.02918e-06)
(4.93452e-05 -1.30756e-05 -2.17451e-06)
(4.87981e-05 -1.301e-05 -1.62729e-06)
(4.92617e-05 -1.31625e-05 -1.45461e-06)
(4.87914e-05 -1.29235e-05 -2.1822e-06)
(4.8715e-05 -1.30129e-05 -1.45859e-06)
(4.92376e-05 -1.30708e-05 -2.01184e-06)
(1.32712e-05 -3.09481e-06 -5.22198e-06)
(1.27811e-05 -3.02972e-06 -4.73434e-06)
(1.32918e-05 -3.17563e-06 -4.79102e-06)
(1.28209e-05 -3.05735e-06 -4.72827e-06)
(1.28015e-05 -2.9772e-06 -5.15336e-06)
(1.27948e-05 -3.157e-06 -3.95083e-06)
(1.32111e-05 -3.26104e-06 -3.88716e-06)
(1.27547e-05 -3.08644e-06 -4.25386e-06)
(1.32755e-05 -3.22478e-06 -4.39353e-06)
(1.28042e-05 -3.10568e-06 -4.33602e-06)
(1.27403e-05 -3.14078e-06 -3.83608e-06)
(1.32665e-05 -3.27688e-06 -4.00315e-06)
(2.64992e-05 -5.97518e-06 -9.34151e-06)
(2.7067e-05 -6.11507e-06 -9.38246e-06)
(3.05151e-05 -7.41036e-06 -6.58627e-06)
(2.9925e-05 -7.33855e-06 -6.03199e-06)
(3.05685e-05 -7.50932e-06 -6.04052e-06)
(2.99861e-05 -7.36143e-06 -6.02088e-06)
(2.99336e-05 -7.26289e-06 -6.56497e-06)
(2.65278e-05 -6.48777e-06 -5.88021e-06)
(2.64803e-05 -6.392e-06 -6.41198e-06)
(2.70409e-05 -6.60818e-06 -5.91758e-06)
(2.70994e-05 -6.63167e-06 -5.90649e-06)
(2.7051e-05 -6.53541e-06 -6.4406e-06)
(2.25833e-05 -5.62973e-06 -4.7293e-06)
(2.19629e-05 -5.48095e-06 -4.56658e-06)
(2.20342e-05 -5.42622e-06 -5.15858e-06)
(2.2521e-05 -5.55135e-06 -5.09716e-06)
(2.25851e-05 -5.56456e-06 -5.19185e-06)
(2.20321e-05 -5.49072e-06 -4.69903e-06)
(2.25133e-05 -5.62028e-06 -4.59609e-06)
(2.53829e-05 -6.33678e-06 -4.86447e-06)
(2.59502e-05 -6.41152e-06 -5.3667e-06)
(2.53154e-05 -6.25661e-06 -5.24326e-06)
(2.58764e-05 -6.47283e-06 -4.75106e-06)
(2.53829e-05 -6.26845e-06 -5.34042e-06)
(2.59506e-05 -6.48045e-06 -4.88838e-06)
(2.53094e-05 -6.32886e-06 -4.72778e-06)
(2.59336e-05 -5.83609e-06 -9.29865e-06)
(2.53704e-05 -5.69783e-06 -9.25384e-06)
(2.20048e-05 -5.27248e-06 -6.13443e-06)
(2.20445e-05 -5.36396e-06 -5.62574e-06)
(2.25415e-05 -5.47703e-06 -5.67248e-06)
(2.25951e-05 -5.5016e-06 -5.66204e-06)
(2.25543e-05 -5.40956e-06 -6.17406e-06)
(2.59584e-05 -6.34459e-06 -5.85276e-06)
(2.59118e-05 -6.24932e-06 -6.38207e-06)
(2.53346e-05 -6.17826e-06 -5.83503e-06)
(2.53913e-05 -6.20214e-06 -5.82409e-06)
(2.53457e-05 -6.10739e-06 -6.35084e-06)
(2.99824e-05 -7.50521e-06 -5.02873e-06)
(3.04862e-05 -7.64866e-06 -4.90326e-06)
(2.99077e-05 -7.42256e-06 -5.4203e-06)
(3.05624e-05 -7.58085e-06 -5.53889e-06)
(2.99799e-05 -7.43243e-06 -5.52088e-06)
(2.99039e-05 -7.4995e-06 -4.88738e-06)
(3.05653e-05 -7.65412e-06 -5.04514e-06)
(2.70928e-05 -6.76993e-06 -4.93323e-06)
(2.65199e-05 -6.55533e-06 -5.39187e-06)
(2.70225e-05 -6.68877e-06 -5.31746e-06)
(2.64458e-05 -6.61751e-06 -4.77335e-06)
(2.70918e-05 -6.69983e-06 -5.41597e-06)
(2.65206e-05 -6.62484e-06 -4.9113e-06)
(2.70173e-05 -6.76288e-06 -4.79467e-06)
(4.52449e-05 -1.07758e-05 -9.91525e-06)
(4.58361e-05 -1.09341e-05 -9.91676e-06)
(4.94675e-05 -1.23949e-05 -6.81614e-06)
(4.89048e-05 -1.23259e-05 -6.27341e-06)
(4.95178e-05 -1.24955e-05 -6.25386e-06)
(4.89581e-05 -1.23414e-05 -6.26732e-06)
(4.88973e-05 -1.22383e-05 -6.82745e-06)
(4.53519e-05 -1.13674e-05 -6.2647e-06)
(4.52862e-05 -1.12627e-05 -6.8265e-06)
(4.58755e-05 -1.15062e-05 -6.27471e-06)
(4.59445e-05 -1.15266e-05 -6.26621e-06)
(4.58785e-05 -1.14218e-05 -6.82803e-06)
(4.12041e-05 -1.04196e-05 -5.21461e-06)
(4.0524e-05 -1.02604e-05 -5.06194e-06)
(4.06034e-05 -1.01831e-05 -5.71998e-06)
(4.1118e-05 -1.03335e-05 -5.61821e-06)
(4.11973e-05 -1.034e-05 -5.72467e-06)
(4.061e-05 -1.02625e-05 -5.21032e-06)
(4.11179e-05 -1.04176e-05 -5.06598e-06)
(4.41722e-05 -1.12097e-05 -5.22976e-06)
(4.47576e-05 -1.12879e-05 -5.74325e-06)
(4.40846e-05 -1.11233e-05 -5.63375e-06)
(4.46779e-05 -1.13672e-05 -5.08185e-06)
(4.41648e-05 -1.11292e-05 -5.74116e-06)
(4.47651e-05 -1.13685e-05 -5.23168e-06)
(4.40851e-05 -1.12083e-05 -5.08008e-06)
(4.46536e-05 -1.06179e-05 -9.91338e-06)
(4.40621e-05 -1.04604e-05 -9.91102e-06)
(4.05429e-05 -1.00012e-05 -6.79844e-06)
(4.06061e-05 -1.01051e-05 -6.23766e-06)
(4.11319e-05 -1.02408e-05 -6.25215e-06)
(4.11999e-05 -1.02618e-05 -6.24274e-06)
(4.11363e-05 -1.01578e-05 -6.80378e-06)
(4.47595e-05 -1.12086e-05 -6.26282e-06)
(4.46941e-05 -1.11039e-05 -6.82459e-06)
(4.4098e-05 -1.10294e-05 -6.26939e-06)
(4.41668e-05 -1.10501e-05 -6.26057e-06)
(4.41017e-05 -1.09455e-05 -6.8223e-06)
(4.89669e-05 -1.25017e-05 -5.24418e-06)
(4.9447e-05 -1.26548e-05 -5.09738e-06)
(4.8903e-05 -1.24217e-05 -5.64986e-06)
(4.95282e-05 -1.25746e-05 -5.76044e-06)
(4.89638e-05 -1.24221e-05 -5.75513e-06)
(4.88982e-05 -1.25056e-05 -5.09694e-06)
(4.95321e-05 -1.26542e-05 -5.25189e-06)
(4.59506e-05 -1.1687e-05 -5.23465e-06)
(4.53502e-05 -1.14469e-05 -5.745e-06)
(4.58629e-05 -1.16007e-05 -5.63862e-06)
(4.52706e-05 -1.15264e-05 -5.08333e-06)
(4.59429e-05 -1.16062e-05 -5.74644e-06)
(4.53577e-05 -1.15276e-05 -5.2333e-06)
(4.58638e-05 -1.1686e-05 -5.08456e-06)
(1.31896e-05 -3.06666e-06 -5.0557e-06)
(1.27043e-05 -3.00367e-06 -4.57628e-06)
(1.31225e-05 -3.12329e-06 -4.44624e-06)
(1.27212e-05 -2.94833e-06 -4.98897e-06)
(1.2654e-05 -3.00368e-06 -4.38734e-06)
(1.26195e-05 -3.11034e-06 -3.58701e-06)
(1.31478e-05 -3.24473e-06 -3.75588e-06)
(1.2694e-05 -3.06851e-06 -4.12812e-06)
(1.31081e-05 -3.17781e-06 -4.05e-06)
(1.26779e-05 -3.12406e-06 -3.70625e-06)
(1.26393e-05 -3.05751e-06 -3.99629e-06)
(1.30886e-05 -3.23137e-06 -3.63528e-06)
(1.37466e-05 -3.21375e-06 -5.28885e-06)
(1.37683e-05 -3.29523e-06 -4.85218e-06)
(1.42084e-05 -3.38901e-06 -4.91874e-06)
(1.42504e-05 -3.41612e-06 -4.91177e-06)
(1.42275e-05 -3.33398e-06 -5.35401e-06)
(1.72952e-05 -3.73398e-06 -8.32826e-06)
(1.67878e-05 -3.61128e-06 -8.24844e-06)
(1.72508e-05 -4.16677e-06 -5.23692e-06)
(1.66929e-05 -4.01254e-06 -5.19485e-06)
(1.72209e-05 -4.08076e-06 -5.70955e-06)
(1.67387e-05 -4.0388e-06 -5.18651e-06)
(1.67099e-05 -3.95342e-06 -5.65444e-06)
(2.09394e-05 -5.21527e-06 -4.63515e-06)
(2.14156e-05 -5.34246e-06 -4.53597e-06)
(2.14866e-05 -5.28873e-06 -5.12409e-06)
(2.08803e-05 -5.13804e-06 -4.99527e-06)
(2.14841e-05 -5.35256e-06 -4.66765e-06)
(2.09423e-05 -5.15212e-06 -5.08836e-06)
(2.08717e-05 -5.20484e-06 -4.50426e-06)
(1.8271e-05 -4.54264e-06 -4.45522e-06)
(1.77545e-05 -4.35215e-06 -4.84704e-06)
(1.76863e-05 -4.39855e-06 -4.29e-06)
(1.82175e-05 -4.46741e-06 -4.80039e-06)
(1.77492e-05 -4.41105e-06 -4.41565e-06)
(1.82758e-05 -4.48302e-06 -4.89054e-06)
(1.82072e-05 -4.5305e-06 -4.32863e-06)
(1.42268e-05 -3.52054e-06 -4.10381e-06)
(1.36876e-05 -3.38262e-06 -3.93695e-06)
(1.37524e-05 -3.3452e-06 -4.44959e-06)
(1.4183e-05 -3.44868e-06 -4.41961e-06)
(1.37438e-05 -3.39807e-06 -4.05413e-06)
(1.42349e-05 -3.4669e-06 -4.5042e-06)
(1.41697e-05 -3.50547e-06 -3.98546e-06)
(1.67189e-05 -4.151e-06 -4.33285e-06)
(1.72375e-05 -4.22233e-06 -4.8022e-06)
(1.66691e-05 -4.07702e-06 -4.6678e-06)
(1.71697e-05 -4.26764e-06 -4.25018e-06)
(1.6725e-05 -4.09358e-06 -4.756e-06)
(1.72319e-05 -4.28049e-06 -4.37487e-06)
(1.66576e-05 -4.13779e-06 -4.20914e-06)
(1.78071e-05 -3.85781e-06 -8.4057e-06)
(1.83234e-05 -3.98274e-06 -8.48079e-06)
(2.14585e-05 -5.13629e-06 -6.09334e-06)
(2.14972e-05 -5.22718e-06 -5.58811e-06)
(2.09017e-05 -5.06628e-06 -5.55914e-06)
(2.09532e-05 -5.09129e-06 -5.54913e-06)
(2.09156e-05 -5.00098e-06 -6.05076e-06)
(1.77675e-05 -4.29581e-06 -5.28585e-06)
(1.77364e-05 -4.20917e-06 -5.76304e-06)
(1.82404e-05 -4.40014e-06 -5.34235e-06)
(1.82884e-05 -4.42591e-06 -5.3333e-06)
(1.82562e-05 -4.33864e-06 -5.81491e-06)
(1.36638e-05 -3.18632e-06 -5.12074e-06)
(1.35966e-05 -3.24422e-06 -4.50365e-06)
(1.41281e-05 -3.36491e-06 -4.75543e-06)
(1.41435e-05 -3.30727e-06 -5.18411e-06)
(1.40763e-05 -3.36643e-06 -4.55958e-06)
(1.72712e-05 -3.72492e-06 -8.27539e-06)
(1.67642e-05 -3.60193e-06 -8.19605e-06)
(1.70625e-05 -4.12481e-06 -4.86476e-06)
(1.6607e-05 -3.99157e-06 -5.02368e-06)
(1.71298e-05 -4.0582e-06 -5.52984e-06)
(1.662e-05 -3.93019e-06 -5.47626e-06)
(1.65527e-05 -3.99558e-06 -4.81747e-06)
(2.07251e-05 -5.18613e-06 -4.21809e-06)
(2.13384e-05 -5.33238e-06 -4.38616e-06)
(2.08057e-05 -5.12685e-06 -4.85086e-06)
(2.12827e-05 -5.25971e-06 -4.7316e-06)
(2.07953e-05 -5.1944e-06 -4.35539e-06)
(2.07405e-05 -5.12206e-06 -4.69837e-06)
(2.12675e-05 -5.32443e-06 -4.24796e-06)
(1.80683e-05 -4.5083e-06 -4.05242e-06)
(1.75659e-05 -4.31561e-06 -4.47348e-06)
(1.76149e-05 -4.38586e-06 -4.14733e-06)
(1.81471e-05 -4.45423e-06 -4.661e-06)
(1.81349e-05 -4.51819e-06 -4.18486e-06)
(1.7549e-05 -4.37563e-06 -4.01594e-06)
(1.8085e-05 -4.44758e-06 -4.51406e-06)
(1.40438e-05 -3.47734e-06 -3.72818e-06)
(1.36234e-05 -3.36672e-06 -3.80426e-06)
(1.35826e-05 -3.29942e-06 -4.10234e-06)
(1.41195e-05 -3.43209e-06 -4.28974e-06)
(1.35634e-05 -3.35372e-06 -3.68233e-06)
(1.41045e-05 -3.48999e-06 -3.8514e-06)
(1.40627e-05 -3.42231e-06 -4.15335e-06)
(1.65235e-05 -4.11341e-06 -3.93956e-06)
(1.70512e-05 -4.18466e-06 -4.43163e-06)
(1.66012e-05 -4.06258e-06 -4.53175e-06)
(1.70992e-05 -4.25456e-06 -4.10864e-06)
(1.6588e-05 -4.12432e-06 -4.06877e-06)
(1.6541e-05 -4.05478e-06 -4.3885e-06)
(1.7034e-05 -4.24399e-06 -3.97833e-06)
(1.77827e-05 -3.84905e-06 -8.35235e-06)
(1.82986e-05 -3.97427e-06 -8.42697e-06)