/*--------------------------------*- C++ -*----------------------------------*\
| =========                 |                                                 |
| \\      /  F ield         | OpenFOAM: The Open Source CFD Toolbox           |
|  \\    /   O peration     | Version:  2012                                  |
|   \\  /    A nd           | Website:  www.openfoam.com                      |
|    \\/     M anipulation  |                                                 |
\*---------------------------------------------------------------------------*/
FoamFile
{
    version     2.0;
    format      ascii;
    class       volScalarField;
    location    "0.108/solid";
    object      epsilonEq;
}
// * * * * * * * * * * * * * * * * * * * * * * * * * * * * * * * * * * * * * //

dimensions      [0 0 0 0 0 0 0];


internalField   nonuniform List<scalar> 
3125
(
0.00184021
0.000977003
0.000891463
0.000412454
0.000212118
0.00202757
0.000980078
0.00162709
0.00107075
0.00177336
0.00107868
0.00103613
0.0004716
0.000853481
0.000590489
0.000998051
0.00020997
0.000209867
0.000524432
0.000213382
0.00138461
0.00111347
0.000561615
0.000654096
0.0005688
0.000973782
0.000472116
0.000765735
0.000667179
0.000387707
0.000963886
0.000460904
0.000128465
0.000166765
0.000201182
0.000252143
0.000128431
0.000290068
0.000181329
0.000154984
0.000208646
0.000119027
0.00120002
0.000986335
0.00132635
0.000995902
0.00108001
0.000586839
0.000758789
0.00106776
0.00116663
0.000790956
0.000783631
0.000960709
0.00113745
0.000905474
0.0011502
0.000707966
0.000720316
0.000935073
0.00124228
0.000730494
0.000901671
0.000896649
0.000795338
0.000886506
0.00070922
0.00110347
0.000696423
0.000904731
0.000893846
0.000619826
0.00109942
0.000690878
0.000547379
0.000439108
0.000650304
0.000212377
0.000290666
0.000377257
0.000707031
0.000302011
0.000306806
0.000422947
0.000777647
0.000627369
0.000785233
0.000337578
0.000471374
0.000606215
0.000845767
0.000489818
0.000431308
0.000603824
0.000129454
0.000218717
0.000318687
0.000340526
0.000190045
0.000406927
0.000241291
0.000159154
0.000287191
0.000173106
0.000965478
0.00118739
0.000507165
0.000559034
0.000596613
0.000977751
0.000549505
0.00075126
0.000706329
0.000414944
0.000922934
0.000447615
9.85193e-05
0.000107089
0.000206144
0.000355482
0.000171019
0.000229785
0.000189721
0.000182973
0.000148181
9.61513e-05
0.000683892
0.00122302
0.0009543
0.000920289
0.00099347
0.000614193
0.000680309
0.00113622
0.00144139
0.000994528
0.000765479
0.000807619
0.000673412
0.000656105
0.00107338
0.000721631
0.000747872
0.00115899
0.00155484
0.000995879
0.00065365
0.000657286
0.000520837
0.000558833
0.00071682
0.00109046
0.000702719
0.000651177
0.000638527
0.000613264
0.00106559
0.000646788
0.000489487
0.000437701
0.000531723
0.000218693
0.0002562
0.000403964
0.000809492
0.000369172
0.000243828
0.000289092
0.00050744
0.000464908
0.000656214
0.000348572
0.000404382
0.000601106
0.00095336
0.000558261
0.000282552
0.000327973
0.000132476
0.000173737
4.77145e-05
8.27681e-05
0.000330278
0.000460407
0.000275481
0.000267885
0.000224144
0.000186501
0.000192605
0.000135996
0.0011533
0.00117262
0.000626445
0.000575752
0.000433485
0.000602572
0.000482731
0.000552313
0.000616292
0.000499737
0.000590353
0.00052224
0.000541396
0.000977907
0.000500551
0.000536677
0.0005085
0.00048959
0.000527456
0.000642726
0.000690709
0.000710821
0.000719794
0.000648125
0.000570803
0.000705762
0.000628292
0.000401139
0.000418628
0.000434148
0.000947115
0.00049008
0.000458027
0.000429339
0.000478213
0.000444969
0.000135268
0.000112347
8.64394e-05
0.000115953
0.000104148
0.000129881
0.000127992
0.000109997
0.00019856
0.000168967
0.000164652
0.000301627
0.000128805
0.00015946
0.000158242
0.000124051
0.000153824
0.000144742
0.000177432
0.000204125
0.000241957
0.00017298
0.000137752
0.000226095
0.000163655
0.00017424
9.08029e-05
9.22235e-05
0.000173387
0.000119208
9.89809e-05
9.58727e-05
0.00011496
9.48192e-05
0.000874721
0.00116444
0.0011241
0.00116718
0.00103828
0.000872579
0.00090874
0.00111984
0.000928504
0.00101039
0.00102418
0.000797249
0.000705795
0.000608928
0.000649768
0.000676039
0.000792851
0.000674366
0.000701864
0.00112391
0.000938752
0.000985736
0.00128697
0.000832003
0.000950416
0.000898962
0.000827041
0.000943193
0.000859625
0.000820584
0.000732834
0.000845925
0.000802043
0.000901993
0.000871319
0.000826173
0.000847586
0.000995576
0.000790585
0.000654231
0.000654243
0.000963537
0.000755846
0.000778285
0.00109724
0.000817651
0.000759832
0.000721311
0.000706077
0.000740798
0.000796882
0.000706386
0.00075012
0.00110486
0.00081497
0.000953191
0.00137683
0.000843978
0.000950885
0.000786654
0.000818917
0.00091307
0.000655071
0.000657209
0.000732748
0.000892212
0.000740657
0.000751434
0.000890364
0.00074306
0.00060149
0.000570426
0.000584526
0.0008428
0.000626628
0.000673595
0.000855826
0.000639584
0.00071776
0.000708833
0.000706663
0.00109932
0.00068412
0.000699595
0.00070779
0.000688467
0.000703457
0.000610243
0.000632491
0.00072919
0.000908021
0.000714364
0.000683296
0.000906651
0.000707489
0.000614441
0.000656748
0.000649235
0.00108729
0.000678815
0.000655208
0.000666625
0.000682707
0.000658427
0.000417763
0.000502696
0.000372236
0.000369834
0.000420426
0.000487001
0.000315284
0.00035775
0.000591656
0.000307332
0.000269292
0.000210333
0.000245729
0.000246588
0.000295714
0.000257286
0.000258898
0.000390095
0.000345764
0.0003557
0.0007604
0.000320132
0.000357038
0.000334731
0.000307917
0.00034393
0.000352875
0.000304401
0.000215318
0.000356382
0.000250593
0.000301786
0.000373523
0.000263037
0.000569434
0.000717603
0.000521575
0.000404635
0.0004499
0.000696347
0.000453368
0.000504628
0.000722007
0.000476522
0.000422253
0.000344191
0.000395556
0.000400624
0.000473898
0.000414465
0.000418764
0.000601675
0.000559621
0.000557635
0.000901824
0.000493553
0.000543547
0.000543415
0.000491192
0.000542234
0.000389404
0.000343402
0.000314294
0.000505834
0.000365966
0.000435954
0.000530701
0.00038363
0.000153047
0.000103391
7.65902e-05
0.000133791
9.61212e-05
0.000168595
0.000153437
0.000116445
0.000325824
0.000262083
0.000270602
0.000398145
0.00020708
0.000258272
0.000244165
0.000201455
0.000253183
0.000167054
0.000209419
0.00029749
0.000334463
0.000248068
0.00018432
0.000310797
0.000231545
0.000178804
0.000113739
0.000130426
0.000238866
0.000191261
0.000147447
0.000125638
0.000185539
0.00014159
0.000359909
0.00033561
0.000480134
0.00049449
0.000607219
0.000606906
5.1231e-05
7.9387e-05
0.000207707
0.000193467
0.000434934
0.000436721
0.00038472
0.000409709
0.000606144
0.000603224
0.000434092
0.000434252
0.000431774
0.000434349
0.000327411
0.00033674
0.000428492
0.000425173
0.000465183
0.00044973
0.000222772
0.000237853
0.000317481
0.000308628
0.000172166
0.000181557
0.000163459
0.000176335
0.000171407
5.47665e-05
5.1426e-05
0.000163358
0.000154636
0.000187764
0.000207518
0.000166867
0.000177784
0.000168017
0.000175101
0.000159687
0.0015145
0.00144537
0.00225553
0.00236164
0.00156777
0.00250334
0.0011072
0.00116055
0.00229537
0.00241288
0.00115241
0.00237683
0.000567435
0.000557434
0.000584481
0.000576074
0.00100187
0.00102596
0.000602167
0.00115003
0.000709826
0.000641371
0.00113097
0.000691148
0.00124697
0.000559748
0.00125704
0.000552117
0.00123787
0.00126524
0.000541978
0.00117118
0.00114215
0.000483868
0.000455707
0.00115791
0.00115604
0.000468385
0.000576693
0.000584822
0.000876087
0.00129858
0.000749299
0.00127775
0.000852329
0.00116833
0.000728575
0.000679857
0.00118674
0.000747399
0.00103203
0.000367626
0.000398327
0.000990795
0.0010134
0.000378395
0.00100942
0.00112577
0.00112616
0.000449944
0.000443715
0.00110962
0.00114126
0.00043227
0.000111287
0.000103095
0.000111947
0.000103754
9.13169e-05
0.00013598
0.000111896
0.000292909
0.00017785
0.000152849
0.000267291
0.000165244
0.000487972
0.000185474
0.000510178
0.00019021
0.000480289
0.000518392
0.00017518
0.000342045
0.00031097
0.00013834
0.000118121
0.000337943
0.000314488
0.000127087
0.000120396
0.000130676
0.00029405
0.0005166
0.000273732
0.000487115
0.000278024
0.000318893
0.000190881
0.000196017
0.00034605
0.0002042
0.000140004
0.000159269
0.000109692
0.000100749
0.000133645
0.000110481
0.000111363
0.000263184
0.000284935
0.000110158
0.0001096
0.000259641
0.000288344
0.000101835
0.00129583
0.00127056
0.00206246
0.00135504
0.00217967
0.00240897
0.00101974
0.00104374
0.0021414
0.00107616
0.00227152
0.00226861
0.00146255
0.00215471
0.00127033
0.00205951
0.00141203
0.000534961
0.000517999
0.00161738
0.00103444
0.00114999
0.00167609
0.00118901
0.00131066
0.000579019
0.00127806
0.000606317
0.0012861
0.00130212
0.000599824
0.00149748
0.00153135
0.000757489
0.000728631
0.00155229
0.00147998
0.000726717
0.00214319
0.00106296
0.00218384
0.00102319
0.00225663
0.00207852
0.0010198
0.00168414
0.00158893
0.000825147
0.000790148
0.00165353
0.00161447
0.000824574
0.000550081
0.000563453
0.000900823
0.00132114
0.000802751
0.001346
0.000926501
0.00156457
0.00111266
0.000928033
0.00151715
0.00107711
0.0012435
0.00195673
0.00108247
0.0011974
0.00186186
0.000438524
0.000437729
0.00151746
0.000919113
0.00103455
0.00105063
0.00155072
0.00142851
0.000696337
0.000706713
0.00141255
0.000697888
0.00141255
0.00142699
0.00148841
0.00147722
0.00073376
0.000713468
0.000722761
0.00151884
0.00145336
0.00202095
0.000968704
0.00202256
0.000889205
0.00213925
0.00092232
0.00191463
0.00160695
0.00150908
0.000744646
0.000747777
0.000765694
0.00154958
0.00155837
0.000438436
0.000439403
0.000979836
0.000898559
0.00144021
0.000984134
0.00144137
0.00149206
0.00102195
0.00089159
0.00101169
0.00147337
0.000386445
0.00037869
0.00080262
0.000812306
0.00124428
0.000821338
0.00127088
0.00138987
0.000912614
0.000877992
0.000900007
0.0013752
0.00142568
0.000695088
0.000710137
0.00141281
0.000693673
0.00142578
0.00141314
0.0014112
0.00138889
0.000701175
0.000672569
0.000677883
0.00139751
0.00140323
0.000393016
0.000400291
0.000975447
0.000906987
0.00143956
0.00097056
0.0014386
0.00140245
0.000924136
0.000899912
0.00093484
0.00141353
0.00128718
0.000596212
0.000632884
0.00124317
0.000608906
0.00126858
0.00126203
0.00138076
0.001378
0.000684135
0.000666516
0.000659314
0.0013652
0.00139268
0.000566808
0.000977382
0.000532728
0.000952334
0.000549141
0.000351982
0.000368594
0.000786519
0.000455551
0.000444963
0.000815807
0.000462324
0.000581073
0.000196058
0.000540268
0.000223642
0.000549345
0.000570883
0.000206801
0.000736812
0.000751652
0.000271356
0.000279471
0.000766972
0.000722003
0.000260417
0.000962389
0.000356959
0.000967573
0.000366816
0.000986386
0.000943521
0.000346462
0.000826815
0.000780957
0.000313074
0.000282385
0.000809955
0.000796985
0.000293259
0.000335318
0.000318634
0.000310276
0.000546616
0.000323477
0.000577184
0.000326565
0.000756938
0.000427566
0.000406412
0.000727568
0.000410315
0.000783289
0.00121637
0.000758695
0.00076311
0.00118685
0.000248789
0.000258768
0.000983289
0.000650958
0.000629567
0.000653074
0.00101974
0.000735145
0.000326627
0.000356786
0.000680777
0.000344967
0.00071949
0.00069568
0.000930376
0.000949645
0.00045432
0.00045297
0.000436787
0.000967954
0.00091216
0.00120669
0.000583069
0.00121608
0.000591736
0.00123485
0.000569161
0.00118744
0.00104215
0.000986648
0.00050821
0.000471842
0.000489469
0.00102291
0.00100568
0.00023837
0.000229088
0.000437479
0.000456223
0.000678539
0.000461628
0.000717245
0.000946351
0.000605978
0.000579556
0.000581958
0.000908795
9.65426e-05
8.87523e-05
0.000112858
0.000107841
0.000101196
0.000110874
0.000143864
0.000348762
0.000231041
0.0001967
0.000208965
0.0003144
0.00061762
0.000308613
0.000299994
0.000642146
0.000290805
0.000656117
0.000603989
0.000429941
0.00038338
0.000207714
0.000186187
0.000202791
0.000418895
0.000394218
0.000104426
0.000112968
0.000413633
0.000382584
0.000640425
0.00038993
0.00060257
0.000383473
0.00025313
0.000264403
0.000275729
0.000419247
0.000161174
0.000163191
0.000117555
0.000113912
0.000120043
0.00014972
0.000125854
0.00032554
0.000348488
0.000156611
0.000170236
0.00015475
0.000314603
0.000358968
0.000614682
0.000975607
0.000589481
0.00337706
0.00299426
0.00318531
0.00318395
0.000521766
0.000508451
0.000821656
0.00052406
0.000842063
0.000881645
0.00054114
0.000862139
0.0017072
0.00156827
0.00171485
0.00154782
0.00171521
0.00157342
0.00159483
0.0017088
0.000601882
0.000605054
0.000981066
0.000736092
0.00098353
0.000982458
0.000720914
0.000983626
0.00158882
0.0015021
0.00155272
0.0015537
0.0016088
0.00159531
0.00154956
0.00163844
9.78682e-05
0.000106282
6.08974e-05
9.48385e-05
8.94568e-05
0.000126721
9.86587e-05
0.000111609
0.000729991
0.000756853
0.000781886
0.00069814
0.000682385
0.000601365
0.000656629
0.000632832
0.000166137
0.000179223
0.000388394
0.000215661
0.00036256
0.000312798
0.000202236
0.00033695
0.000191803
0.00014523
0.00018739
0.000140009
0.000255171
0.0002724
0.000242481
0.000293196
0.00291043
0.0032109
0.00346101
0.00149459
0.00145381
0.00144934
0.00147193
0.00271052
0.00250718
0.00215977
0.00233171
0.00157764
0.00154122
0.00154564
0.00156001
0.00298694
0.00276175
0.00237366
0.00256579
0.000377854
0.000697369
0.00035543
0.00355682
0.00323568
0.00344346
0.00334513
0.000642688
0.000942751
0.000672133
0.000457052
0.000433724
0.000931195
0.000733785
0.000702675
0.00172408
0.00152546
0.0017112
0.00155
0.00173128
0.00155415
0.00151936
0.00175576
0.0028084
0.00276944
0.00298007
0.00259712
0.00263175
0.00225388
0.00240427
0.00248506
0.000592524
0.000598658
0.000975958
0.00077944
0.000967885
0.000945923
0.00079338
0.000957935
0.000406391
0.000665094
0.000439137
0.000435469
0.000434144
0.000659249
0.000509847
0.000473226
0.00182139
0.00161963
0.00163206
0.00182239
0.00182748
0.00163365
0.00161026
0.00183818
0.00293339
0.00298181
0.00279696
0.00311829
0.00273737
0.00241789
0.00257631
0.00258272
0.00043764
0.000435657
0.000814498
0.000655456
0.000801895
0.000769755
0.000656686
0.000786271
0.00148236
0.00153164
0.00156971
0.00151966
0.00153004
0.00152363
0.00156118
0.00157547
0.00156781
0.00161453
0.00165527
0.00160674
0.00164672
0.00164137
0.00167467
0.00168776
0.000819168
0.000853669
0.000956272
0.000923339
0.00147212
0.00147042
0.00139847
0.00140784
0.000937686
0.000977135
0.00108291
0.00104468
0.00159391
0.00159049
0.00152094
0.00153246
0.000354587
0.000345239
0.000740824
0.000533876
0.000756671
0.000786196
0.000546642
0.000771131
0.00183128
0.00165568
0.00182529
0.00164703
0.00184035
0.0016795
0.00168971
0.00184525
0.000416984
0.000420757
0.000825178
0.000647506
0.000832505
0.000841856
0.000643145
0.000837269
0.00175306
0.00163656
0.00168306
0.00172166
0.00177473
0.00172209
0.00168066
0.00180017
0.000799371
0.000471908
0.000776128
0.000417831
0.000433991
0.000454489
0.000728375
0.000752304
0.00088454
0.000798815
0.000831017
0.000860227
0.000933784
0.000964746
0.000900869
0.000988198
0.00148769
0.00149685
0.00152771
0.00144175
0.00145586
0.00136981
0.00142883
0.00141134
0.000269491
0.000253447
0.000414253
0.000258276
0.000439892
0.000493449
0.000273288
0.000466339
0.000723206
0.000493488
0.000705186
0.000289019
0.000298114
0.000479095
0.000667062
0.000685509
0.00102006
0.000919718
0.000982715
0.000964086
0.00107322
0.0010912
0.0010258
0.00112998
0.00165398
0.00162919
0.00157703
0.00169135
0.00161942
0.00150589
0.00156259
0.00157622
0.000199967
0.000190115
0.000400125
0.000297627
0.000423185
0.000469601
0.000312727
0.000445605
0.000752074
0.000716542
0.000618034
0.00065385
0.000154078
0.000196608
0.000281851
0.000251276
0.000872255
0.00083079
0.000726748
0.000769096
0.00015856
0.000220681
0.000341296
0.000294192
6.83963e-05
6.57834e-05
3.58991e-05
4.71009e-05
4.92183e-05
0.00010204
6.21755e-05
7.39736e-05
0.000854107
0.000874257
0.000909041
0.000813164
0.000801947
0.000710532
0.000768419
0.000748431
0.000138011
0.000145982
0.000377844
0.000252856
0.000354414
0.000309668
0.000238285
0.000331102
0.000198406
0.000194078
0.000140499
0.000150488
0.000148294
0.000154036
0.000185012
0.000217848
0.000154242
0.000213666
0.000151145
0.000298591
0.00033002
0.000286577
0.000349553
0.00129308
0.00118213
0.0013337
0.000534366
0.000546175
0.000943556
0.000609403
0.000930034
0.00089886
0.000592252
0.000914857
0.000449001
0.000449833
0.000464961
0.000589518
0.00107017
0.000637218
0.00104831
0.000619361
0.000466002
0.000497458
0.0004808
0.000567546
0.000534513
0.000549248
0.000629043
0.00109162
0.000655236
0.00111195
0.00067292
0.000517164
0.000514315
0.000531588
0.00123007
0.000536817
0.00120418
0.000509764
0.00121418
0.00122065
0.000525482
0.00171288
0.00160439
0.00170015
0.00163322
0.00170832
0.0016185
0.0017169
0.0015945
0.00118559
0.00049589
0.00118827
0.000494898
0.00119944
0.00117335
0.000481296
0.000597542
0.00059168
0.000954985
0.000658753
0.00096465
0.000978605
0.000674664
0.00097238
0.000736153
0.00068936
0.000712232
0.000734451
0.00123998
0.000808434
0.001259
0.000830078
0.000668702
0.000667417
0.000689591
0.000586403
0.000589667
0.000605472
0.000692803
0.00122175
0.00078728
0.00120469
0.000767104
0.000609147
0.000646097
0.000625597
0.00105285
0.00040837
0.00105455
0.000399322
0.00103451
0.00107233
0.00038864
0.00168196
0.00163538
0.00169997
0.00160092
0.00167531
0.00158264
0.00165164
0.00162295
0.00110891
0.000439603
0.00107408
0.000410391
0.0010924
0.0010912
0.000421208
9.59272e-05
9.58526e-05
0.000198504
0.000126275
0.000177436
0.000140731
0.000118408
0.000157235
9.88316e-05
9.14674e-05
9.48908e-05
0.000106014
0.000194674
0.000131784
0.000168911
0.000120483
9.72207e-05
0.00010842
0.000100285
0.000138854
0.000122843
0.000130652
0.00014004
0.00021896
0.000142729
0.000242903
0.00015359
0.000116249
0.000115631
0.000122907
0.000457618
0.000179726
0.000421934
0.000155326
0.000427592
0.000451035
0.000165263
0.000499334
0.000429687
0.000458273
0.000472928
0.000541455
0.000561016
0.000587285
0.000511146
0.00037003
0.000148214
0.000393229
0.000145386
0.000398362
0.000365506
0.000136051
0.00015381
0.000141494
0.000219749
0.00015469
0.0002419
0.000288709
0.000165662
0.000264737
0.000219026
0.000193406
0.000207614
0.000258006
0.000429204
0.000247585
0.000458478
0.000262773
0.000183256
0.000186125
0.000196844
0.00014761
0.00014586
0.000156451
0.000211032
0.000400687
0.000232545
0.000373567
0.000218263
0.00015484
0.000175921
0.000166108
0.000169918
9.1698e-05
0.00018873
8.64373e-05
0.000164337
0.000193731
8.93797e-05
0.000385696
0.000395154
0.000420709
0.000359199
0.000353528
0.000300884
0.000324109
0.000329543
0.000239005
0.000102275
0.000212046
8.97409e-05
0.000235383
0.000216162
9.49352e-05
0.00158937
0.00154343
0.00148166
0.00148856
0.00167357
0.0017638
0.00201291
0.00187963
0.00172295
0.00166273
0.00158126
0.00160011
0.00181907
0.00192629
0.00220894
0.00205721
0.00103884
0.000906486
0.00108356
0.0012527
0.00109521
0.00121314
0.00121747
0.00188776
0.0013174
0.00197056
0.00136383
0.00106654
0.0011369
0.00117465
0.00047894
0.00049916
0.000847945
0.000884588
0.000821507
0.000764509
0.000896494
0.00079351
0.0010757
0.00181085
0.00127255
0.00174057
0.00122961
0.000994957
0.000955507
0.00102909
0.00109994
0.000982914
0.00106405
0.00187113
0.0016958
0.00162265
0.00193592
0.0018216
0.0015462
0.00178026
0.00159687
0.00133809
0.00062723
0.00135944
0.000645341
0.00136955
0.00132884
0.000621686
0.00144901
0.000700515
0.00139462
0.000670912
0.00140648
0.00143457
0.000698043
0.00203657
0.000980208
0.00188771
0.000937162
0.00197975
0.00193705
0.000977884
0.00210661
0.00176322
0.00186194
0.00201567
0.00221962
0.00209922
0.00233913
0.00197392
0.00176086
0.000861181
0.00180251
0.000897828
0.00172475
0.001845
0.00086038
0.000584597
0.000574991
0.000871878
0.000846655
0.000893599
0.000930558
0.000833437
0.000913217
0.000760948
0.000755532
0.000786553
0.000823455
0.00140283
0.000981954
0.00137287
0.000953412
0.000778501
0.000840632
0.000812988
0.00096174
0.000876422
0.000929827
0.000898328
0.00143705
0.00101223
0.00147488
0.00104357
0.000850983
0.000869302
0.000898866
0.000999669
0.000824435
0.000965404
0.00103511
0.00112306
0.00170539
0.00115744
0.00177805
0.000805622
0.000911662
0.000936249
0.000435666
0.000437042
0.000645428
0.000653585
0.00061362
0.000545316
0.00065346
0.000579784
0.000938244
0.00109411
0.00164371
0.00107041
0.0015925
0.000848789
0.000761571
0.000860222
0.000890793
0.000768704
0.000873874
0.00194664
0.0017888
0.00172205
0.00200201
0.00189424
0.00163848
0.0018646
0.00168017
0.00143222
0.000706571
0.000703837
0.00141813
0.000700748
0.00143927
0.00141438
0.00146604
0.000709044
0.000707787
0.00142525
0.000714036
0.00144998
0.00143671
0.0019148
0.000849076
0.000845121
0.00173446
0.000881089
0.00181863
0.00182032
0.00217675
0.0018769
0.00197411
0.00208971
0.00230037
0.00223727
0.00242114
0.0021094
0.00166642
0.00076301
0.000814203
0.00166182
0.000787568
0.00160014
0.00173764
0.000438451
0.000439078
0.000674486
0.00065589
0.000701894
0.000749386
0.000656702
0.000726345
0.000806068
0.000735774
0.00081005
0.000895416
0.000992373
0.00144563
0.000988088
0.00144316
0.000738337
0.000817409
0.000813626
0.00083972
0.000747749
0.000832227
0.000890101
0.000998055
0.00145156
0.00100423
0.00146056
0.000745141
0.000821992
0.000826543
0.001618
0.00157768
0.00155397
0.00160034
0.00158803
0.00162002
0.00160608
0.00158283
0.0017143
0.00167419
0.00164539
0.00169068
0.00169025
0.00172194
0.0017134
0.00169057
0.00115466
0.00112888
0.00102753
0.00105703
0.00122606
0.00124719
0.0013324
0.00131649
0.00128326
0.00125391
0.00115098
0.00118498
0.00135117
0.00137553
0.00145957
0.00144038
0.000362852
0.000371048
0.000828005
0.000591674
0.00081935
0.000798507
0.000581329
0.00080893
0.000649552
0.000599172
0.000665317
0.000828632
0.000855913
0.00131856
0.000839243
0.00129602
0.000613201
0.000694462
0.000680227
0.000743859
0.000662803
0.00073256
0.00086774
0.000871878
0.00133944
0.000886523
0.00135835
0.000651402
0.000708329
0.000720749
0.00142529
0.000709733
0.000688896
0.00141139
0.000691344
0.00142359
0.00141285
0.001859
0.00172324
0.00174347
0.00185516
0.00185405
0.00172083
0.00185244
0.00170617
0.00141678
0.000705065
0.000686464
0.00140847
0.000682691
0.00142104
0.00140383
0.000411147
0.000405836
0.000834011
0.000618758
0.000839052
0.000842525
0.000625944
0.000840991
0.000801824
0.000724657
0.000796897
0.000908098
0.000959235
0.00143315
0.000965395
0.00143669
0.000719799
0.000786086
0.000791844
0.000753899
0.000692315
0.000763292
0.000903921
0.000951557
0.00142798
0.000943604
0.00142189
0.000700197
0.000778823
0.000771403
0.00131003
0.000645812
0.000632033
0.00131368
0.000621277
0.00129234
0.00133106
0.00184186
0.00175165
0.00172443
0.00185239
0.00183396
0.001711
0.00181615
0.00174481
0.00136667
0.000676194
0.000641795
0.00133307
0.000651205
0.0013504
0.00134994
0.000433329
0.000402512
0.000418086
0.000518231
0.000899679
0.000514498
0.000926531
0.000531857
0.000387295
0.000388472
0.000403185
0.000401721
0.000385025
0.00062636
0.000386268
0.00065201
0.000703486
0.000403006
0.000677676
0.000471567
0.000871935
0.000496848
0.000844405
0.000479452
0.000332169
0.000329314
0.000345895
0.000374035
0.00034362
0.000359851
0.00113746
0.00116731
0.00110299
0.00119021
0.00109048
0.00100316
0.00103664
0.00106731
0.000612304
0.000234665
0.000631504
0.000227934
0.000643358
0.000601145
0.000217197
0.000705945
0.000268423
0.000662022
0.000238942
0.000674693
0.000692244
0.000249733
0.000936951
0.000356498
0.000892436
0.000325425
0.000918556
0.000910481
0.000336079
0.00128554
0.00119867
0.00126216
0.00123463
0.00132662
0.00134988
0.00137467
0.00128807
0.000855547
0.00032404
0.000865448
0.000314491
0.000838307
0.000883244
0.000303877
0.00028553
0.000302045
0.000599738
0.000336386
0.000573046
0.000519613
0.000319979
0.00054627
0.000230688
0.000226908
0.000242492
0.000340003
0.000636972
0.000359513
0.000607237
0.00034285
0.000238624
0.000266843
0.000254435
0.000318519
0.000288913
0.000305294
0.000389934
0.000667629
0.000376498
0.000698015
0.000393113
0.000275755
0.000279383
0.000292014
0.000633321
0.000553645
0.000616328
0.000738591
0.000720785
0.00112321
0.000742226
0.00115559
0.000537767
0.000581477
0.000599113
0.000278275
0.000268607
0.000582449
0.000419922
0.000604028
0.000646183
0.000435065
0.00062469
0.000674012
0.00069855
0.00108969
0.000676071
0.00105529
0.000506625
0.000470788
0.000525887
0.000562927
0.000487712
0.000544494
0.00128986
0.00129958
0.00123511
0.00134339
0.00123891
0.00113223
0.00118352
0.00119696
0.000774514
0.000376587
0.000382039
0.000797275
0.000363882
0.000813871
0.000758556
0.000892086
0.000433962
0.000399954
0.000835921
0.000418519
0.000852994
0.000874322
0.00117661
0.000575946
0.000538437
0.00112518
0.000554043
0.00115707
0.00114453
0.00144338
0.00133309
0.00139586
0.00139274
0.00148768
0.00148391
0.00153522
0.00142312
0.00107719
0.00052607
0.000522878
0.00109223
0.000506402
0.00105803
0.0011115
0.000209509
0.000219006
0.00055988
0.000374043
0.000537603
0.000492324
0.000358676
0.000514407
0.000351762
0.00033144
0.000371008
0.000481181
0.000509747
0.000794141
0.000485615
0.000756057
0.000348644
0.000409591
0.000390245
0.000487403
0.000418269
0.000467876
0.000555342
0.000534302
0.000832973
0.000558275
0.000871249
0.000400926
0.000429382
0.000448649
0.000443664
0.000474894
0.000560693
0.00052625
0.000400135
0.000372434
0.000312776
0.000337768
0.000537941
0.000576824
0.000670408
0.000628221
0.000492643
0.000455594
0.000380049
0.000416924
7.62152e-05
8.32513e-05
0.000197884
0.000137991
0.000175028
0.000127714
0.000121806
0.000151423
9.85897e-05
6.2576e-05
8.45979e-05
0.000116506
0.000144537
0.000215507
0.000124742
0.000182758
7.60972e-05
0.000111429
9.32272e-05
0.000187123
0.000152078
0.000168745
0.000174809
0.000165561
0.00024758
0.000187178
0.000280658
0.000134872
0.00013117
0.000150247
0.000579092
0.000280922
0.000254493
0.000528461
0.000272474
0.000540613
0.000565995
0.000599788
0.000523268
0.000570831
0.000553909
0.000646567
0.000666155
0.000697021
0.0006123
0.000466066
0.000225907
0.000237506
0.000491415
0.000220195
0.000503164
0.000454772
0.000128997
0.000120835
0.000219623
0.000181438
0.000242111
0.000286557
0.000195484
0.000263682
0.000332781
0.000280527
0.000313764
0.000358389
0.000343709
0.000527842
0.000366729
0.000565121
0.00026415
0.000277118
0.000295349
0.00020486
0.000200135
0.000222844
0.000287352
0.000320349
0.000490831
0.000297815
0.000454901
0.00021573
0.000258439
0.000240534
0.000199613
0.000107244
0.000115208
0.000218904
0.000109229
0.000187351
0.000231693
0.000468258
0.000483615
0.000441825
0.000509378
0.000429468
0.000368575
0.000390988
0.000406082
0.000293445
0.000140722
0.000126116
0.000249755
0.000139957
0.000281827
0.000262083
0.000165207
0.000205509
0.000160431
0.000172589
0.000153802
0.000160448
0.000153656
0.000159208
0.000174963
0.000154787
0.000146833
0.000167233
0.000122161
0.000128881
0.000154371
0.000116334
0.000121126
0.000170661
0.000171698
0.000134079
0.000143585
0.000179805
0.000127441
0.000136187
0.00284532
0.00119676
0.00123794
0.00254891
0.0011958
0.00269391
0.00270451
0.00142592
0.000627989
0.00130364
0.000579048
0.00145574
0.000544755
0.00129548
0.00144748
0.00128444
0.000564481
0.000505905
0.000589846
0.00128989
0.00141882
0.00131423
0.000351944
0.000426354
0.00114265
0.000414102
0.00126897
0.00116465
0.00131554
0.00120241
0.000436514
0.000440141
0.00037257
0.00118442
0.00135744
0.000598441
0.000190561
0.000578855
0.000194105
0.000647534
0.000172439
0.000542602
0.000565642
0.000471342
0.0001823
0.000155052
0.000169385
0.000506389
0.000519451
0.000172385
0.000192157
0.000129245
0.000137236
0.000139515
0.000145415
0.00015865
0.00021188
0.000212203
0.000101588
0.000101393
0.000112201
0.000188187
0.000239842
0.00295794
0.00125473
0.00129002
0.00258976
0.00126018
0.00278858
0.0027635
0.00147275
0.000590192
0.00131361
0.000634877
0.00143873
0.000670602
0.00132822
0.00146624
0.00137197
0.000718143
0.000655855
0.000642495
0.00150751
0.00134695
0.00238744
0.00111579
0.00239786
0.0010878
0.00252456
0.00110369
0.00225814
0.00224224
0.00200384
0.00103976
0.00101285
0.00103821
0.00212488
0.00212143
0.00158697
0.000695485
0.000728617
0.00145022
0.000755078
0.00156834
0.00144916
0.00157144
0.00146073
0.000781202
0.000737201
0.000725319
0.0015979
0.00145232
0.00245072
0.00115204
0.00242281
0.00110038
0.00260032
0.0011404
0.0022711
0.0022923
0.00200382
0.0010452
0.00103843
0.00105719
0.00212923
0.002167
0.00157504
0.000734831
0.000711553
0.00145354
0.000672648
0.0015917
0.00145817
0.00160302
0.00146803
0.000707441
0.000653699
0.000716895
0.00146364
0.00158484
0.0015101
0.00055005
0.000625041
0.00135772
0.000602083
0.00146524
0.00138106
0.00151253
0.00142051
0.000636484
0.000626041
0.000571069
0.00140242
0.00155302
0.000731585
0.000191479
0.000616006
0.000231038
0.000680312
0.000213144
0.000653051
0.000763594
0.000727742
0.000236534
0.000243528
0.000210577
0.000816387
0.000690673
0.00121414
0.000388013
0.00111905
0.000392371
0.00126212
0.000331508
0.00109357
0.00120164
0.0010374
0.000381064
0.000311513
0.000362377
0.0010662
0.00115134
0.000876121
0.000323973
0.000366817
0.000758171
0.000350838
0.000819972
0.000801009
0.000912739
0.000887285
0.000385751
0.000386035
0.000355755
0.000970028
0.000844846
0.0014069
0.000576599
0.00133134
0.000587536
0.00145517
0.00052739
0.00130363
0.00139192
0.00124066
0.000573352
0.000502128
0.000548396
0.001273
0.00133937
0.000727365
0.000316762
0.000312054
0.00071455
0.000292765
0.000781108
0.000672493
0.000689219
0.000588258
0.00029353
0.000261403
0.000282807
0.000629814
0.000637035
0.000254986
0.000263914
0.000129278
0.000138927
0.00013934
0.000229884
0.000294224
0.00259534
0.00113487
0.0012224
0.00254756
0.00269484
0.00118229
0.00245785
0.00127116
0.00056998
0.00132607
0.000572424
0.00131265
0.00128713
0.000552196
0.00125705
0.00129119
0.000556715
0.000520578
0.00130149
0.00124438
0.00053599
0.00143165
0.000443334
0.00126204
0.00051258
0.00126936
0.00139957
0.000524056
0.00141183
0.00128018
0.000555213
0.000523671
0.00144121
0.00127499
0.000472409
0.0012086
0.000467725
0.00125135
0.000501921
0.0012622
0.00119608
0.000480143
0.00122072
0.00128172
0.000506083
0.000514005
0.00123248
0.0012721
0.000492651
0.00107907
0.000380113
0.000412528
0.00111572
0.00113854
0.00039099
0.00105684
0.0010998
0.00117877
0.000422956
0.00041206
0.00115929