/*--------------------------------*- C++ -*----------------------------------*\
| =========                 |                                                 |
| \\      /  F ield         | OpenFOAM: The Open Source CFD Toolbox           |
|  \\    /   O peration     | Version:  2012                                  |
|   \\  /    A nd           | Website:  www.openfoam.com                      |
|    \\/     M anipulation  |                                                 |
\*---------------------------------------------------------------------------*/
FoamFile
{
    version     2.0;
    format      ascii;
    class       volSymmTensorField;
    location    "0.108/solid";
    object      epsilon;
}
// * * * * * * * * * * * * * * * * * * * * * * * * * * * * * * * * * * * * * //

dimensions      [0 0 0 0 0 0 0];


internalField   nonuniform List<symmTensor> 
3125
(
(0.000951028 8.09168e-05 -0.00080166 0.000231534 -0.000463792 -0.00156236)
(0.000346783 2.72778e-05 -0.000644349 -0.000405584 -0.000225196 0.000539134)
(0.000169338 1.88031e-06 -0.000434518 -0.000375158 -5.94865e-05 0.000891417)
(0.000140179 -2.31855e-05 -0.000199584 -3.74305e-05 2.91731e-05 0.000536596)
(0.000182379 -0.000181655 -6.31789e-06 0.000193284 1.56083e-05 0.000223896)
(-0.000976888 8.24711e-05 0.000665405 -0.000420951 -0.00045837 0.0019542)
(0.000390958 3.15259e-05 -0.000673768 -0.000376767 -0.000254851 0.000406436)
(0.000861656 7.21129e-05 -0.000805676 0.000121364 -0.000448639 -0.00123444)
(-0.000204636 3.47909e-05 0.000812047 0.000440825 -0.000265842 -0.000152566)
(-0.000855602 7.388e-05 0.000716236 -0.000272807 -0.00044612 0.00159651)
(-0.000141606 3.03175e-05 0.000801534 0.000493869 -0.0002373 -0.000288665)
(0.000136845 4.38655e-06 0.000652415 0.000595311 -7.46652e-05 -0.000615844)
(0.000139026 -2.13543e-05 -0.000222637 -7.82206e-05 2.55684e-05 0.000589854)
(0.00015865 -1.35396e-06 -0.000405924 -0.000346666 -4.2994e-05 0.000879431)
(0.000232374 -2.03613e-05 0.000393 0.000391819 1.39689e-05 -0.000235884)
(0.000157401 5.80986e-07 0.000623451 0.000581157 -5.80518e-05 -0.000595283)
(0.000182672 -0.000179606 -5.82811e-06 0.000196975 1.54263e-05 0.000227937)
(0.000231827 -0.000179915 1.60178e-05 0.000210528 1.46224e-05 0.000205691)
(0.000236595 -2.25811e-05 0.000357439 0.000360103 1.84126e-05 -0.000172332)
(0.000232694 -0.000182785 1.52635e-05 0.000203383 1.44346e-05 0.000202324)
(0.000688878 0.000251938 -0.000599796 5.62516e-05 -0.000430587 -0.00110645)
(0.000519548 0.000204271 -0.000453917 3.16998e-05 -0.00047894 -0.000810488)
(0.000466746 -2.03699e-05 -0.000259636 -0.000240991 -0.000102045 0.000427982)
(0.000537372 -9.92521e-07 -0.000331471 -0.000285665 -0.000161959 0.000340998)
(0.00040007 -9.40913e-06 -0.000289644 -0.000195703 -0.000263598 6.55284e-05)
(0.000244981 1.57737e-05 -0.000553428 -0.000436406 -0.000143866 0.000800761)
(0.00035533 -4.43818e-05 -0.000222859 -0.000198833 -0.000174337 0.000236677)
(0.00060746 4.18258e-05 -0.000424069 -0.000275733 -0.000248172 9.69729e-05)
(0.000547305 3.05464e-06 -0.00034269 -0.000288907 -0.000171659 0.000319887)
(0.000307752 -6.09995e-05 -0.000158715 -0.000156293 -9.46022e-05 0.000326979)
(0.00022018 1.23296e-05 -0.000523055 -0.000430657 -0.00012013 0.000847768)
(0.000349072 -4.76071e-05 -0.000213846 -0.000195955 -0.000163196 0.00025346)
(0.000196291 -0.000106529 -2.20774e-05 0.00015289 4.3957e-06 0.000187007)
(0.000222154 -2.40338e-05 -9.05788e-05 7.01006e-05 5.48355e-06 0.000283228)
(0.000224738 -5.28916e-05 -6.7329e-05 1.09488e-05 -1.22489e-06 0.000304366)
(0.000144104 -2.53887e-05 -0.000141239 7.83878e-05 3.29994e-05 0.000384672)
(0.000197012 -4.11654e-05 -5.08631e-05 8.53616e-05 1.69532e-05 0.000259745)
(0.000294081 -2.90098e-05 -0.000126318 -3.61385e-05 -1.57662e-05 0.000366439)
(0.000230694 -2.47319e-05 -9.38696e-05 5.64373e-05 3.06866e-06 0.000294922)
(0.000185456 -0.000131435 -1.6867e-05 0.000159872 1.28204e-05 0.000192213)
(0.000144748 -2.59401e-05 -0.000126808 0.000113802 3.18124e-05 0.000338883)
(0.000193469 -3.93088e-05 -4.96876e-05 9.58352e-05 1.91489e-05 0.000252288)
(-0.000668577 0.000253906 0.000507959 -0.000101303 -0.000423277 0.000837278)
(-0.000507535 0.000202915 0.000352552 -9.90463e-05 -0.000474253 0.000641499)
(0.000686459 0.000233956 -0.000593825 2.50269e-05 -0.000424649 -0.00101065)
(0.000662225 0.000129365 -0.000530868 -0.000155566 -0.000356587 -0.000419631)
(0.000557885 4.57061e-05 -0.000752808 -0.000227254 -0.000346551 -0.000143526)
(0.000406732 -2.39307e-06 -0.000300127 -0.00019141 -0.000277276 3.26021e-05)
(0.000454425 6.46751e-05 -0.000373281 -0.000129057 -0.000377322 -0.000264451)
(0.000512038 0.000185455 -0.000446755 1.00595e-05 -0.000471694 -0.000742368)
(0.000625193 5.13875e-05 -0.000773789 -0.000155737 -0.000375874 -0.000379199)
(0.000461343 7.70996e-05 -0.000383788 -0.000115676 -0.000391107 -0.000316356)
(0.000615086 4.93499e-05 -0.000436376 -0.000268862 -0.00025993 5.31801e-05)
(0.000657852 0.00011721 -0.00051959 -0.000175581 -0.000344942 -0.000348453)
(-0.000646154 0.00023575 0.00052057 -5.00557e-05 -0.000418559 0.00071924)
(-0.000507943 0.000131069 0.000563018 0.000246055 -0.00035848 4.31849e-05)
(-0.000438546 4.88114e-05 0.000814559 0.000209427 -0.000353091 0.000424004)
(-0.000172346 -3.47875e-06 0.000419254 0.00035372 -0.0002836 -0.000298581)
(-0.000295304 6.36203e-05 0.00041958 0.000212445 -0.000379966 -1.57782e-05)
(-0.000480421 0.000184083 0.000365566 -5.74464e-05 -0.000467897 0.000551904)
(-0.000531851 5.39531e-05 0.000803357 0.00010711 -0.000380566 0.000674618)
(-0.000315714 7.58239e-05 0.000416466 0.00018529 -0.000393118 4.05708e-05)
(-0.000373516 5.03196e-05 0.00054799 0.000447862 -0.000267684 -0.000409858)
(-0.000489844 0.000118628 0.000564175 0.000279546 -0.000347601 -3.1651e-05)
(-0.000147063 -2.09767e-05 0.000427392 0.000505175 -0.000114006 -0.000539205)
(-0.000240809 -8.21867e-07 0.000489432 0.000524196 -0.000173086 -0.00057999)
(-0.000157274 -1.06178e-05 0.000417039 0.000367216 -0.000270237 -0.000324249)
(1.02767e-05 1.88666e-05 0.00075127 0.000588744 -0.000158214 -0.000548649)
(-6.65457e-05 -4.56802e-05 0.000388703 0.000420699 -0.000182868 -0.000417359)
(-0.000357936 4.26668e-05 0.000543184 0.000463751 -0.00025638 -0.000444623)
(-0.00025465 3.08481e-06 0.000497219 0.000522465 -0.0001826 -0.000575314)
(1.18517e-05 -6.27433e-05 0.000339042 0.000414511 -0.000103805 -0.000381654)
(4.86784e-05 1.48288e-05 0.000729171 0.000601578 -0.000134793 -0.000591456)
(-5.54907e-05 -4.91986e-05 0.000383514 0.000423555 -0.000171777 -0.000419958)
(0.000456488 -2.20025e-05 -0.000249923 -0.000231861 -9.50278e-05 0.000433029)
(0.000383287 -2.8909e-05 -0.000189178 -0.000153462 -5.21138e-05 0.000430729)
(0.000139138 -1.38922e-05 -0.000297199 -0.000201417 5.68817e-06 0.00074273)
(0.00022907 -5.42968e-05 -7.11192e-05 1.63879e-07 -4.15316e-06 0.000309848)
(0.000260909 -6.13544e-05 -0.000102595 -7.37869e-05 -3.38855e-05 0.000338028)
(0.000302262 -6.18308e-05 -0.000151389 -0.000148498 -8.66371e-05 0.00033202)
(0.000141213 -1.08635e-05 -0.000323635 -0.00024108 -3.85672e-06 0.000787045)
(0.000265668 -6.1944e-05 -0.000108218 -8.41497e-05 -3.91501e-05 0.000340162)
(0.000303813 -2.92555e-05 -0.000132484 -4.97418e-05 -1.88168e-05 0.000375543)
(0.000373382 -2.92538e-05 -0.00018115 -0.000141312 -4.72169e-05 0.000426044)
(-0.000134258 -2.29589e-05 0.000417981 0.000498857 -0.000106878 -0.000524845)
(-4.98933e-05 -3.01526e-05 0.000346673 0.00043463 -6.3412e-05 -0.000385707)
(0.000211989 -1.23009e-05 0.000496813 0.000485116 -7.94104e-06 -0.000419736)
(0.000119113 -5.625e-05 0.00020776 0.000296266 -1.11851e-05 -9.81035e-05)
(7.80591e-05 -6.32061e-05 0.000269345 0.000356232 -4.23573e-05 -0.000237709)
(2.02464e-05 -6.37401e-05 0.00033214 0.000410178 -9.5732e-05 -0.000369766)
(0.000201669 -9.48342e-06 0.000530211 0.000513555 -1.80818e-05 -0.000474191)
(7.15039e-05 -6.3992e-05 0.000277506 0.000364464 -4.78254e-05 -0.000256652)
(3.82689e-05 -3.10729e-05 0.000259099 0.000342601 -2.78775e-05 -0.000187019)
(-3.82341e-05 -3.07924e-05 0.00033614 0.000424109 -5.82076e-05 -0.000362092)
(0.000191784 -0.000108952 2.46117e-05 0.000176931 3.93237e-06 0.000176256)
(0.000127324 -2.55505e-05 0.00015436 0.000241606 1.13135e-06 2.82739e-05)
(0.000124491 -5.49631e-05 0.000198734 0.000287658 -7.90234e-06 -7.8196e-05)
(0.000247922 -2.46683e-05 0.000254281 0.000270029 2.51224e-05 8.2899e-06)
(0.000159062 -4.29369e-05 0.000131553 0.000229609 1.28254e-05 5.43765e-05)
(4.87036e-05 -3.08833e-05 0.000247871 0.000331158 -2.43387e-05 -0.000161898)
(0.000118217 -2.65193e-05 0.000166299 0.00025259 -1.98956e-06 5.49059e-06)
(0.000208985 -0.000134472 2.13643e-05 0.00017837 1.17263e-05 0.000177565)
(0.00025113 -2.55183e-05 0.000221937 0.000243 2.51816e-05 6.29363e-05)
(0.000163509 -4.12348e-05 0.000121801 0.000222047 1.55671e-05 7.22833e-05)
(0.000312215 0.000373438 -0.000312807 -1.14598e-05 -0.000320288 -0.000849168)
(0.00054168 0.000161704 -0.000484862 3.29095e-05 -0.000604199 -0.000761151)
(0.000786664 0.00012115 -0.000170517 0.000167001 -9.69417e-05 0.000114482)
(0.000826817 0.000137613 -0.000184409 0.000166806 -0.000113531 7.37786e-05)
(0.000276192 1.70573e-06 -0.000322466 -0.000169528 -0.000320339 0.000232405)
(0.000307745 2.34531e-05 -0.000614143 -0.000424751 -0.000196684 0.000648152)
(0.000247009 -1.28999e-05 -0.000290324 -0.000174524 -0.000265845 0.000320405)
(0.000853429 0.000214245 -0.000241554 0.000141505 -0.000195597 -0.000182408)
(0.000872121 0.000193298 -0.000226918 0.000152446 -0.000172541 -0.000102696)
(0.000183186 -4.40973e-05 -0.000179003 -0.000120962 -9.42339e-05 0.000466339)
(0.000182765 5.40793e-06 -0.000463713 -0.000399239 -7.77749e-05 0.000891361)
(0.000194759 -3.89524e-05 -0.000204427 -0.000142471 -0.000130393 0.000455776)
(0.000207669 -3.43707e-05 -6.22985e-05 0.00017149 2.72463e-05 0.000130906)
(0.000239904 4.0147e-08 -8.26758e-05 0.00015737 -2.46217e-06 0.000185598)
(0.000167633 -4.94645e-05 -7.29946e-05 4.94437e-05 2.05196e-05 0.000354607)
(0.00014144 -2.43741e-05 -0.000178028 2.4369e-06 3.15573e-05 0.00048423)
(0.000167224 -4.73173e-05 -6.10052e-05 8.03734e-05 2.83572e-05 0.000323438)
(0.000460858 4.5638e-05 -0.000101827 0.000152484 -3.20486e-05 0.000222733)
(0.000400449 3.46761e-05 -9.33425e-05 0.000150495 -2.46361e-05 0.00022485)
(0.000174616 -0.000156363 -1.25648e-05 0.000184743 1.171e-05 0.000211575)
(0.000140366 -5.12486e-05 -9.75453e-05 0.000178944 2.65684e-05 0.000258378)
(0.000168458 -4.87369e-05 -4.50131e-05 0.000167104 3.30936e-05 0.000233432)
(-0.000246733 0.000370607 0.000259545 6.24781e-05 -0.000311243 0.000183338)
(-0.000553715 0.000157442 0.00036437 -0.000174191 -0.000600059 0.000941645)
(0.000365309 0.0003615 -0.000309861 2.90773e-06 -0.00031529 -0.000801912)
(0.000509658 0.000328252 -0.000299838 4.10057e-05 -0.00029681 -0.000664681)
(0.000440755 3.59843e-05 -0.000702174 -0.000337726 -0.000285257 0.000249108)
(0.000284741 6.74199e-06 -0.000333169 -0.000166666 -0.000338502 0.000197082)
(0.000321571 2.61166e-05 -0.000366062 -0.000149319 -0.000396178 7.51189e-05)
(0.000522364 0.000147842 -0.000478202 1.39601e-05 -0.000594386 -0.000680212)
(0.00077741 6.43572e-05 -0.000801445 1.9216e-05 -0.000428083 -0.000926193)
(0.000461376 0.00010881 -0.000457456 -4.10916e-05 -0.000556908 -0.000454937)
(0.000842487 0.000221235 -0.00024648 0.000137031 -0.000203458 -0.000211581)
(0.000795476 0.000244895 -0.000260823 0.000120528 -0.000227853 -0.000307593)
(-0.000279399 0.000357722 0.000268254 6.68545e-05 -0.000307148 0.000111958)
(-0.000368474 0.000321225 0.000288998 7.85565e-05 -0.000290967 -7.72243e-05)
(-0.00027568 3.89425e-05 0.000817799 0.00037614 -0.000295065 1.1071e-05)
(-8.15415e-05 3.56067e-06 0.000472428 0.000269205 -0.000344464 -0.000138234)
(-0.00014892 2.26394e-05 0.000473488 0.000216148 -0.000400816 -1.56374e-05)
(-0.000517102 0.000143571 0.000381175 -0.000135907 -0.000591078 0.00084291)
(-0.000740318 6.65323e-05 0.000755606 -0.00013456 -0.000428119 0.00126205)
(-0.000406645 0.000104806 0.000423077 -2.63157e-05 -0.000556123 0.000574249)
(-0.000564723 0.000206782 0.000318118 0.000103997 -0.00020438 -0.000492577)
(-0.000540924 0.000231443 0.000317235 9.9871e-05 -0.00022745 -0.000435659)
(-0.00045906 0.000106375 0.000275825 0.000115483 -0.00010138 -0.000435919)
(-0.000501695 0.000122312 0.000288718 0.000114115 -0.000117676 -0.000479708)
(-6.37923e-05 -1.45759e-06 0.000471297 0.000283158 -0.000326631 -0.000172109)
(-8.49168e-05 2.63507e-05 0.000787999 0.000535741 -0.000209611 -0.000398962)
(-9.11028e-06 -1.59472e-05 0.000462289 0.000318947 -0.000273052 -0.00025103)
(-0.000568814 0.000199336 0.000317833 0.000105145 -0.000196886 -0.00050543)
(-0.000571332 0.000177768 0.000314452 0.000108271 -0.000174821 -0.000527903)
(0.000126907 -4.65282e-05 0.000390749 0.000357471 -0.000102885 -0.000314619)
(0.000111529 7.65604e-06 0.000679371 0.00060402 -9.3035e-05 -0.000623113)
(0.000100825 -4.16464e-05 0.000414022 0.00035999 -0.000138919 -0.000329537)
(0.000771161 0.000115579 -0.000165826 0.000166912 -9.18273e-05 0.000126414)
(0.00072037 0.000100884 -0.00015237 0.000165129 -7.72588e-05 0.000156828)
(0.000138288 -1.91139e-05 -0.000246752 -0.00011951 2.04877e-05 0.000642857)
(0.000166827 -5.01572e-05 -7.73648e-05 3.87288e-05 1.76816e-05 0.000365194)
(0.000167888 -5.07763e-05 -9.25475e-05 7.02354e-06 5.21481e-06 0.000395299)
(0.000181758 -4.50468e-05 -0.000171502 -0.000112337 -8.41147e-05 0.000466855)
(0.000150678 -4.58709e-06 -0.000377882 -0.000314333 -2.82518e-05 0.000856978)
(0.000174217 -4.83146e-05 -0.000148776 -8.57562e-05 -5.44596e-05 0.000460949)
(0.000481142 4.90561e-05 -0.000105082 0.000153397 -3.46131e-05 0.000221018)
(0.000543053 6.11783e-05 -0.000115559 0.000156294 -4.35827e-05 0.000212317)
(-0.000443418 0.000101249 0.000271434 0.000115749 -9.63431e-05 -0.000419246)
(-0.00039225 8.72286e-05 0.000256459 0.000117342 -8.18158e-05 -0.000364009)
(0.000226379 -1.81974e-05 0.000427841 0.000423678 8.03476e-06 -0.000298959)
(0.00019453 -5.20607e-05 0.000239259 0.000271672 1.10617e-05 -6.46995e-05)
(0.000186167 -5.28778e-05 0.000271406 0.000292083 -1.99742e-06 -0.000121615)
(0.000132528 -4.75405e-05 0.000383471 0.000354789 -9.27277e-05 -0.00030608)
(0.000174955 -2.80125e-06 0.000593738 0.000562354 -4.30852e-05 -0.000563702)
(0.000152098 -5.07163e-05 0.000357182 0.000344604 -6.29887e-05 -0.000272297)
(-0.000157251 3.97379e-05 0.00018377 0.000125077 -3.81399e-05 -0.000113209)
(-0.000218221 5.05835e-05 0.000203387 0.000122532 -4.75991e-05 -0.000175782)
(0.000157068 -6.14249e-05 -7.70891e-05 0.000196629 2.61392e-05 0.000261208)
(0.000255748 -6.08224e-05 0.000128841 0.000199291 2.31451e-05 0.000172572)
(0.000148397 -3.82574e-05 -6.89214e-07 0.000133079 1.07092e-05 0.000155236)
(0.000108882 -4.10521e-06 6.53159e-05 0.000150801 1.37378e-06 9.46119e-05)
(0.000195949 -5.13417e-05 0.000229039 0.000264627 1.41754e-05 -4.54175e-05)
(0.000240556 -2.38995e-05 0.000322547 0.000329036 2.17381e-05 -0.000109958)
(0.000202467 -4.9123e-05 0.000196117 0.000244509 2.28201e-05 1.07941e-05)
(-0.000136599 3.65045e-05 0.000177243 0.000126146 -3.53568e-05 -9.29531e-05)
(-7.51738e-05 2.67457e-05 0.000156134 0.000130076 -2.71468e-05 -3.54415e-05)
(0.000232009 -0.000157883 2.02343e-05 0.000187467 1.02912e-05 0.000188638)
(0.000264942 -5.11442e-05 0.000147496 0.000196544 2.25515e-05 0.000157796)
(0.000220906 -5.01544e-05 9.74535e-05 0.000190478 3.05884e-05 0.000160146)
(0.000534676 0.000338433 -0.00044526 -3.13105e-05 -0.000366082 -0.000936615)
(0.000547765 0.000163242 -0.000486519 2.93779e-05 -0.000570959 -0.000771734)
(0.000863233 0.000161021 -0.000203066 0.000163387 -0.00013792 6.27907e-06)
(0.000837813 0.000143003 -0.000189011 0.000166395 -0.000119021 5.85612e-05)
(0.0006035 0.000110184 -0.000212464 8.23536e-05 -0.000100175 0.000211965)
(0.000497788 -1.37933e-05 -0.000288993 -0.000264939 -0.000125988 0.000402618)
(0.000639495 0.000125332 -0.000233267 7.62023e-05 -0.000119423 0.000175662)
(0.000678479 0.000146633 -0.000262225 6.75167e-05 -0.000148455 0.000109371)
(0.000508065 -1.09839e-05 -0.000299935 -0.0002717 -0.000134359 0.000390505)
(0.000650475 0.000130391 -0.000240327 7.38871e-05 -0.000126335 0.000161159)
(0.000309387 1.3371e-05 -0.000319833 -0.000171996 -0.00030986 0.000190813)
(0.000380564 -2.72961e-05 -0.000260144 -0.000202656 -0.000223166 0.000151206)
(0.000281852 3.25219e-07 -0.000287703 -0.000176645 -0.000259869 0.000278251)
(0.000273818 1.97382e-05 -0.000583888 -0.000434893 -0.000169399 0.000734903)
(0.000218285 -2.72315e-05 -0.000249908 -0.000167885 -0.000200064 0.000402335)
(0.000240667 -1.65301e-05 -0.000280052 -0.000173578 -0.000249263 0.000344748)
(0.000374262 -3.21911e-05 -0.000249918 -0.000203085 -0.000210746 0.000175383)
(0.000253226 -1.37058e-05 -0.000247261 -0.000170313 -0.000198973 0.000360885)
(0.000274966 -3.97168e-06 -0.000277139 -0.000176204 -0.000244137 0.000302427)
(0.00086847 0.000166878 -0.000208013 0.000161965 -0.000144524 -1.30729e-05)
(0.000873985 0.00018628 -0.00022212 0.000155487 -0.000165513 -7.85202e-05)
(0.000715818 0.000194786 -0.00032469 4.64018e-05 -0.000217252 -9.75034e-05)
(0.00058318 2.25993e-05 -0.000388533 -0.000288919 -0.000213688 0.00020974)
(0.000709632 0.000175828 -0.000300657 5.49486e-05 -0.00018984 -7.12345e-06)
(0.000686609 0.000152079 -0.000269864 6.49322e-05 -0.000156309 8.93023e-05)
(0.00057466 1.72501e-05 -0.000376315 -0.00029079 -0.000202776 0.000241363)
(0.000705562 0.000169617 -0.000292909 5.74464e-05 -0.000181092 1.94681e-05)
(0.000213899 -3.14725e-05 -0.000176555 -0.000124534 -0.000100403 0.000431231)
(0.000325086 -5.72504e-05 -0.00018082 -0.000176835 -0.000121874 0.000304095)
(0.000226974 -2.64901e-05 -0.000201413 -0.000145957 -0.00013384 0.000417651)
(0.000199475 8.97018e-06 -0.000493141 -0.000418063 -9.80667e-05 0.000877438)
(0.000213902 -2.97361e-05 -0.00024063 -0.000163743 -0.000185604 0.000417166)
(0.000197422 -3.73493e-05 -0.000213032 -0.000149155 -0.00014268 0.000449026)
(0.000331045 -5.54128e-05 -0.000189383 -0.000182655 -0.000131405 0.000293786)
(0.000247968 -1.69529e-05 -0.000237573 -0.000166694 -0.000185167 0.000376111)
(0.00023067 -2.39922e-05 -0.000210313 -0.000152118 -0.000145734 0.000410037)
(0.000305574 1.6747e-05 -8.4765e-05 0.000150609 -1.41519e-05 0.000215406)
(0.000255478 4.64497e-06 -8.27186e-05 0.000154458 -5.5141e-06 0.000197061)
(0.000183172 -6.16355e-05 -3.89654e-05 0.000164672 1.03897e-05 0.000157211)
(0.000194839 -2.60405e-05 -7.97558e-05 0.000124262 1.5283e-05 0.000228089)
(0.000209997 -1.60737e-06 -8.3927e-05 0.000149991 6.10168e-06 0.0002013)
(0.000253423 1.28222e-05 -9.0828e-05 0.000134771 -6.85205e-06 0.000238969)
(0.000200727 -2.32434e-05 -8.33588e-05 0.00011029 1.33206e-05 0.000243406)
(0.000220454 2.43542e-06 -8.55659e-05 0.000145242 2.19898e-06 0.000214216)
(0.000180248 -4.25328e-05 -7.20656e-05 4.2761e-05 1.04497e-05 0.000342148)
(0.000212322 -4.83501e-05 -5.85042e-05 4.29672e-05 7.26244e-06 0.000286663)
(0.000176899 -4.12882e-05 -6.07362e-05 7.35624e-05 1.89283e-05 0.000314265)
(0.000142798 -2.50377e-05 -0.000158395 4.10641e-05 3.29246e-05 0.000433312)
(0.000167872 -4.23088e-05 -5.01947e-05 0.000120261 3.48739e-05 0.000282095)
(0.000167897 -4.61065e-05 -5.75821e-05 9.06701e-05 3.01278e-05 0.000312836)
(0.000208396 -4.66252e-05 -5.55508e-05 5.34932e-05 9.44499e-06 0.00028027)
(0.00017377 -3.79948e-05 -5.04799e-05 0.00011342 2.72929e-05 0.000276572)
(0.000176313 -4.07748e-05 -5.73787e-05 8.36648e-05 2.11588e-05 0.0003049)
(0.00032358 2.01478e-05 -8.61733e-05 0.000150212 -1.61662e-05 0.000219108)
(0.000380655 3.08328e-05 -9.11893e-05 0.000150239 -2.26624e-05 0.000224497)
(0.00036146 3.96499e-05 -0.000115781 0.000114583 -2.658e-05 0.000269451)
(0.000265942 -2.75439e-05 -0.000110405 3.65651e-06 -7.15482e-06 0.000337604)
(0.000319401 2.93527e-05 -0.000104074 0.00012123 -1.86557e-05 0.000262123)
(0.000266038 1.60079e-05 -9.29965e-05 0.000131469 -9.20401e-06 0.000245075)
(0.000256933 -2.67967e-05 -0.000105192 1.67223e-05 -4.50316e-06 0.000327434)
(0.000305877 2.58952e-05 -0.000100929 0.000123433 -1.61602e-05 0.00025873)
(0.000176749 -0.000148962 -1.35586e-05 0.000179549 1.12562e-05 0.000206484)
(0.000183048 -3.98927e-05 -4.77542e-05 0.000138734 2.75633e-05 0.000217317)
(0.000171413 -4.48679e-05 -4.56583e-05 0.000161364 3.07329e-05 0.00022911)
(0.000143624 -3.0071e-05 -0.000114564 0.000147337 2.85869e-05 0.000297443)
(0.000168472 -4.08716e-05 -4.85246e-05 0.000130061 3.5517e-05 0.000271771)
(0.000168273 -4.25378e-05 -4.62188e-05 0.000158198 3.56942e-05 0.000242661)
(0.000185059 -3.65241e-05 -4.90908e-05 0.000127923 2.61482e-05 0.000226845)
(0.000173362 -3.70983e-05 -4.88134e-05 0.000123186 2.85968e-05 0.000267088)
(0.000171406 -3.86604e-05 -4.69109e-05 0.000152031 3.1433e-05 0.000238514)
(-0.000484178 0.000336292 0.000378211 5.38714e-05 -0.00035723 0.000379143)
(-0.000551313 0.000158467 0.000368879 -0.000154406 -0.000566592 0.000866175)
(0.000555867 0.000327184 -0.000440565 -2.45851e-05 -0.000360175 -0.000873572)
(0.000677758 0.000184801 -0.000571109 -6.09436e-05 -0.000399388 -0.000738702)
(0.000612024 0.000296748 -0.000423688 -6.52759e-06 -0.000338712 -0.000693089)
(0.000664212 0.000288279 -0.000284032 8.24011e-05 -0.000268345 -0.000493813)
(0.000552333 0.000317669 -0.00029612 5.25342e-05 -0.000290334 -0.000620625)
(0.000674534 0.000169988 -0.000561431 -8.69932e-05 -0.000389731 -0.00065422)
(0.000668034 0.000261095 -0.000396364 1.34123e-05 -0.000304255 -0.000474649)
(0.000628265 0.00028738 -0.000417354 -1.30211e-06 -0.000330645 -0.000635949)
(0.000496211 4.08499e-05 -0.000728572 -0.000288113 -0.000316137 6.58674e-05)
(0.000377639 5.77392e-05 -0.000409114 -0.00011177 -0.000472255 -0.000130266)
(0.000332688 3.27908e-05 -0.000377244 -0.000142234 -0.000415117 2.78806e-05)
(0.000317971 1.90238e-05 -0.000330847 -0.000168639 -0.000326879 0.000156386)
(0.000426867 2.23677e-05 -0.000331056 -0.000171563 -0.000320307 -8.03714e-05)
(0.0003515 3.62419e-05 -0.00036404 -0.000151904 -0.0003798 3.66043e-05)
(0.000402436 6.55839e-05 -0.00040798 -0.000114615 -0.000449918 -0.000163251)
(0.000433709 3.19406e-05 -0.000342205 -0.000162823 -0.000334355 -0.00012261)
(0.000362092 4.34442e-05 -0.000375315 -0.000144364 -0.000397438 -8.9811e-06)
(0.000530523 0.000149384 -0.000480191 1.00698e-05 -0.000562418 -0.000694762)
(0.000489934 0.00013421 -0.000422545 -4.99374e-05 -0.000441791 -0.00054748)
(0.000477258 0.000114021 -0.000457424 -4.40544e-05 -0.000527641 -0.000476592)
(0.00069836 5.76241e-05 -0.00079031 -7.34384e-05 -0.000403422 -0.000640378)
(0.000391484 6.63827e-05 -0.000419801 -0.000100294 -0.000490461 -0.000189895)
(0.000444712 9.78352e-05 -0.000447917 -5.67069e-05 -0.000541473 -0.000383628)
(0.000482795 0.000118714 -0.000412849 -6.79878e-05 -0.000430299 -0.000486638)
(0.000415261 7.46275e-05 -0.000418694 -0.000102719 -0.000466647 -0.000220381)
(0.000462051 0.000102856 -0.000448087 -6.00328e-05 -0.000513682 -0.000408507)
(0.000695833 0.000278703 -0.000279404 9.13569e-05 -0.000260338 -0.000453784)
(0.000774488 0.000252748 -0.000265589 0.000114091 -0.000235659 -0.000341905)
(0.000715712 0.000201291 -0.000332825 4.31934e-05 -0.00022678 -0.00013141)
(0.00063536 7.48039e-05 -0.000472338 -0.000238129 -0.000296426 -9.82647e-05)
(0.000707951 0.000222271 -0.000357031 3.32723e-05 -0.000255757 -0.000245105)
(0.000678796 0.000252689 -0.000388714 1.76112e-05 -0.000294731 -0.00042462)
(0.000641565 8.45804e-05 -0.0004849 -0.000225054 -0.000308647 -0.000155457)
(0.000702833 0.000229414 -0.000365078 2.94877e-05 -0.000265533 -0.000286878)
(-0.000483283 0.000325067 0.000387037 6.67979e-05 -0.000352385 0.000292293)
(-0.000583693 0.000186646 0.000547027 9.03802e-05 -0.000397107 0.00039681)
(-0.000480318 0.000294422 0.000406577 0.00010181 -0.000333846 5.93871e-05)
(-0.00046382 0.000277809 0.000307049 9.00494e-05 -0.000265214 -0.000273934)
(-0.000395052 0.000309881 0.000294268 8.16207e-05 -0.000285305 -0.000132063)
(-0.000563965 0.000171587 0.000553131 0.00013304 -0.000388365 0.00030017)
(-0.000472542 0.000258506 0.000419853 0.000139309 -0.000302707 -0.000188109)
(-0.000478757 0.000285083 0.000410951 0.00011207 -0.000326716 -9.01603e-06)
(-0.000353844 4.33841e-05 0.000819513 0.00029911 -0.000324311 0.000203053)
(-0.00025222 5.4106e-05 0.000462176 0.000124057 -0.000474838 0.000204327)
(-0.000171027 2.92391e-05 0.000471621 0.000196171 -0.000419366 3.3901e-05)
(-0.000104456 1.53974e-05 0.000466067 0.000284772 -0.000332928 -0.000178429)
(-0.000221113 2.12525e-05 0.00042356 0.000303703 -0.000325146 -0.000200423)
(-0.00016829 3.23087e-05 0.000468374 0.000233474 -0.000384518 -6.16533e-05)
(-0.000265899 6.14748e-05 0.00045946 0.000142871 -0.000452516 0.000149478)
(-0.000238648 3.06939e-05 0.00042326 0.000283706 -0.000338824 -0.000160193)
(-0.000190094 3.9449e-05 0.000467047 0.000213423 -0.000401722 -1.4815e-05)
(-0.000516179 0.000144631 0.000385533 -0.000115636 -0.000558945 0.000770544)
(-0.000404808 0.000132898 0.000394412 5.73251e-05 -0.000440751 0.000307679)
(-0.000412453 0.00010951 0.000423778 -6.74923e-06 -0.000526738 0.000507157)
(-0.00063265 5.97417e-05 0.000783828 -7.62793e-06 -0.000405841 0.000954331)
(-0.000279078 6.2666e-05 0.000456916 9.76993e-05 -0.000492459 0.000270636)
(-0.000374919 9.37886e-05 0.000433473 6.37598e-06 -0.000541359 0.000491065)
(-0.000381297 0.00011731 0.000401955 9.21718e-05 -0.000429942 0.000234498)
(-0.000292065 7.04506e-05 0.000454523 0.000116337 -0.000468596 0.000212806)
(-0.000382089 9.83223e-05 0.000433801 2.62433e-05 -0.000513487 0.000427227)
(-0.00048313 0.00026771 0.00031029 9.2148e-05 -0.000257875 -0.000313647)
(-0.000529403 0.000239994 0.000316465 9.80555e-05 -0.000234776 -0.000410478)
(-0.000434399 0.000198335 0.000414327 0.000186302 -0.000230104 -0.000480786)
(-0.000421678 7.60483e-05 0.000559308 0.000389015 -0.000302191 -0.000277847)
(-0.00045259 0.000219408 0.000420267 0.000172641 -0.000257525 -0.000400463)
(-0.000469461 0.000250128 0.000421251 0.00014707 -0.000293987 -0.000238993)
(-0.000438277 8.57097e-05 0.000561769 0.000365171 -0.000313903 -0.000224016)
(-0.000457508 0.000226712 0.000421621 0.000167075 -0.000266698 -0.000366261)
(-0.00054515 0.000145246 0.000302912 0.000111915 -0.000141437 -0.000519364)
(-0.000514257 0.000127766 0.000292837 0.000113425 -0.000123039 -0.000491927)
(-0.000264952 0.000106512 0.000334813 0.000201784 -0.000107491 -0.000479223)
(-0.000186233 -1.41363e-05 0.000455435 0.000519973 -0.000137701 -0.000570971)
(-0.000303691 0.000121774 0.000354222 0.000204209 -0.000126473 -0.000519981)
(-0.000351725 0.000143201 0.000377531 0.000204482 -0.00015484 -0.000550938)
(-0.000199546 -1.14653e-05 0.000464017 0.00052308 -0.000146148 -0.000577108)
(-0.000316022 0.000126974 0.000360572 0.000204614 -0.00013322 -0.00053053)
(-8.70976e-05 9.78328e-06 0.000464542 0.000298722 -0.000316296 -0.000209937)
(-0.000115495 -2.85162e-05 0.000406883 0.000398328 -0.000230836 -0.000381589)
(-3.50233e-05 -3.14986e-06 0.000454909 0.000332678 -0.000267229 -0.000283718)
(-3.49062e-05 2.21384e-05 0.000770548 0.0005671 -0.000183163 -0.000484899)
(4.83416e-05 -2.99914e-05 0.000444371 0.000347985 -0.0002081 -0.000312419)
(4.75976e-06 -1.96364e-05 0.000459391 0.000327545 -0.000256637 -0.000271131)
(-0.000102567 -3.36027e-05 0.000403279 0.000406031 -0.000218526 -0.000394728)
(2.14332e-05 -1.68593e-05 0.000436216 0.000359806 -0.000207179 -0.000338647)
(-2.11452e-05 -7.47566e-06 0.000451441 0.000341209 -0.000251698 -0.000301832)
(-0.000553264 0.000151278 0.00030559 0.000111112 -0.00014785 -0.00052514)
(-0.000569105 0.000170867 0.000312348 0.000108901 -0.000168166 -0.000530471)
(-0.000427224 0.000191719 0.00041152 0.000189961 -0.000221029 -0.000500469)
(-0.000312647 2.32295e-05 0.000525771 0.000499101 -0.000223385 -0.000523457)
(-0.00040255 0.000172625 0.000401036 0.000198176 -0.000194827 -0.000540132)
(-0.000362707 0.000148798 0.000382697 0.000203857 -0.000162417 -0.000553592)
(-0.000297884 1.75202e-05 0.000519104 0.000507559 -0.000212595 -0.000541742)
(-0.000393175 0.000166468 0.000396493 0.000200058 -0.000186449 -0.000547367)
(0.000101012 -3.42521e-05 0.000382341 0.000365734 -0.000109255 -0.000331444)
(-1.48927e-05 -5.90085e-05 0.000359684 0.000423709 -0.000130882 -0.000408971)
(7.44418e-05 -2.95654e-05 0.000405209 0.000369896 -0.000142591 -0.000349422)
(8.20948e-05 1.10257e-05 0.000705583 0.000606495 -0.000113065 -0.000615623)
(5.89107e-05 -3.25678e-05 0.000439555 0.000351975 -0.000193772 -0.00032078)
(9.29198e-05 -4.01295e-05 0.000419853 0.000359788 -0.000151232 -0.00033063)
(-2.44378e-05 -5.72707e-05 0.000365527 0.000425195 -0.000140499 -0.000414729)
(3.23129e-05 -2.01474e-05 0.000431028 0.000363704 -0.000193565 -0.00034546)
(6.55496e-05 -2.7142e-05 0.00041156 0.000369785 -0.000154476 -0.000351604)
(0.000590862 0.000105206 -0.000205666 8.41032e-05 -9.41863e-05 0.000221869)
(0.000424963 -2.61158e-05 -0.000222992 -0.000200623 -7.48157e-05 0.000439351)
(0.000550509 9.14497e-05 -0.000186094 8.99553e-05 -7.76039e-05 0.000245213)
(0.000644585 8.22274e-05 -0.000135352 0.000161588 -6.08462e-05 0.000187604)
(0.000702003 9.5812e-05 -0.000148053 0.000164507 -7.31438e-05 0.000165524)
(0.000414688 -2.69623e-05 -0.000213659 -0.000189556 -6.88985e-05 0.000438798)
(0.000492959 7.40351e-05 -0.000161872 9.74048e-05 -5.86018e-05 0.000264236)
(0.00053658 8.68833e-05 -0.000179905 9.16074e-05 -7.24892e-05 0.000251172)
(0.000138097 -1.64558e-05 -0.000271575 -0.000160892 1.38069e-05 0.00069425)
(0.000169573 -5.05372e-05 -0.000115702 -3.53782e-05 -1.68739e-05 0.00043088)
(0.00016721 -5.11069e-05 -9.79535e-05 -3.86709e-06 7.65868e-07 0.000405079)
(0.000180857 -4.24821e-05 -7.65099e-05 3.23545e-05 7.32712e-06 0.000351275)
(0.000242252 -5.78729e-05 -8.30066e-05 -3.18488e-05 -1.55422e-05 0.00032445)
(0.000184847 -4.24328e-05 -9.101e-05 8.17306e-07 -5.1284e-06 0.000377585)
(0.00019102 -4.08888e-05 -0.000113591 -4.08842e-05 -2.67429e-05 0.00040756)
(0.000246833 -5.88691e-05 -8.81208e-05 -4.25804e-05 -1.94018e-05 0.00032862)
(0.00018557 -4.193e-05 -9.64849e-05 -9.68592e-06 -9.81159e-06 0.000385815)
(0.000211081 -3.32259e-05 -0.000168659 -0.000116425 -9.05268e-05 0.000432961)