/*--------------------------------*- C++ -*----------------------------------*\
| =========                 |                                                 |
| \\      /  F ield         | OpenFOAM: The Open Source CFD Toolbox           |
|  \\    /   O peration     | Version:  2012                                  |
|   \\  /    A nd           | Website:  www.openfoam.com                      |
|    \\/     M anipulation  |                                                 |
\*---------------------------------------------------------------------------*/
FoamFile
{
    version     2.0;
    format      ascii;
    class       volScalarField;
    location    "0.108/solid";
    object      sigmaMax;
}
// * * * * * * * * * * * * * * * * * * * * * * * * * * * * * * * * * * * * * //

dimensions      [1 -1 -2 0 0 0 0];


internalField   nonuniform List<scalar> 
3125
(
6.49861e+07
3.76215e+06
-4.06199e+06
-1.3172e+07
-1.36674e+07
2.24807e+07
5.78505e+06
5.37397e+07
2.8765e+07
2.23377e+07
2.99225e+07
2.72477e+07
-1.22298e+07
-5.09227e+06
5.05675e+06
2.52422e+07
-1.39671e+07
-1.57257e+07
1.87149e+06
-1.53266e+07
4.9299e+07
3.87953e+07
-6.86188e+06
-3.32466e+06
5.80764e+06
22776.5
-344904
3.22209e+06
-2.70381e+06
-5.01954e+06
-997243
-1.01326e+06
-1.40126e+07
-1.49274e+07
-1.20802e+07
-1.56699e+07
-1.43524e+07
-1.28294e+07
-1.46709e+07
-1.33123e+07
-1.58205e+07
-1.46446e+07
2.80613e+07
2.28344e+07
4.53423e+07
2.12394e+07
1.8714e+07
6.9624e+06
1.78416e+07
3.61855e+07
2.57242e+07
1.98184e+07
4.4815e+06
1.84551e+07
2.85722e+07
3.30743e+07
2.48017e+07
2.37532e+07
2.28768e+07
2.26152e+07
2.37536e+07
2.26999e+07
3.68525e+07
3.37033e+07
2.86384e+07
3.49318e+07
2.37383e+07
3.13452e+07
2.1934e+07
3.7003e+07
3.54984e+07
1.64062e+07
3.09704e+07
2.14311e+07
-7.28796e+06
-9.99305e+06
-9.24887e+06
-1.17294e+07
-9.08023e+06
-5.51265e+06
-8.2131e+06
-8.66057e+06
-1.25332e+07
-1.03266e+07
2.74738e+07
1.81529e+07
1.45371e+07
-398462
7.33906e+06
1.55153e+07
1.75299e+07
8.41789e+06
6.34705e+06
1.66958e+07
-1.44045e+07
-6.38425e+06
-1.4859e+06
-7.1672e+06
-8.78681e+06
4.87353e+06
-5.03889e+06
-1.43323e+07
-9.90146e+06
-9.77004e+06
4.19113e+07
3.90875e+07
-2.50382e+07
-2.3676e+07
4.04167e+06
2.29967e+06
883893
-9.55129e+06
-1.46088e+07
-7.29761e+06
-3.03214e+06
-5.76002e+06
-1.43365e+07
-1.68828e+07
-1.38038e+07
-1.40808e+07
-1.46353e+07
-2.30083e+07
-2.17395e+07
-1.35429e+07
-1.52417e+07
-1.63504e+07
2.02065e+07
1.95781e+07
3.79023e+07
2.65136e+07
8.76614e+06
5.35275e+06
9.56955e+06
3.61656e+07
4.33513e+07
2.83413e+07
-7.60346e+06
-928982
2.31359e+07
3.11765e+07
2.74389e+07
1.85875e+07
1.86053e+07
1.93569e+07
2.24946e+07
1.85167e+07
4.93597e+07
4.71253e+07
3.99951e+07
4.38373e+07
1.86849e+07
3.07977e+07
1.8274e+07
4.97673e+07
5.00451e+07
1.26034e+07
2.88923e+07
1.47765e+07
-2.53471e+07
-2.5845e+07
-1.12589e+07
-1.34776e+07
-1.25643e+07
-7.83029e+06
-6.13301e+06
-9.14776e+06
-2.34118e+07
-2.4487e+07
3.85926e+07
3.39816e+07
8.25801e+06
-2.73607e+06
400077
1.18865e+07
2.29292e+07
9.25004e+06
1.30816e+07
1.84242e+07
-1.6715e+07
-1.58374e+07
-1.28435e+07
-9.0492e+06
-3.73251e+06
-1.2429e+06
-6.77871e+06
1.13091e+07
6.06809e+06
-1.50973e+07
-1.51228e+07
-1.47964e+07
4.36331e+07
3.88134e+07
-2.06754e+07
-2.3076e+07
-2.10344e+07
-5.47182e+06
-1.99025e+07
-1.71599e+07
-4.96572e+06
-1.93564e+07
4.21253e+06
2.80268e+06
1.03813e+06
1.10817e+06
-2.48858e+06
-108180
1.94647e+06
-2.31065e+06
93336.9
-1.96857e+07
-1.60463e+07
-6.43533e+06
206567
-1.13597e+07
-1.62189e+07
-611030
-1.27511e+07
-7.09662e+06
-3.42936e+06
-5.52617e+06
-2.00734e+06
-3.25906e+06
-5.13314e+06
-2.86266e+06
-3.0401e+06
-4.93213e+06
-1.95398e+07
-1.78075e+07
-1.44958e+07
-1.57071e+07
-1.62657e+07
-1.81068e+07
-1.55955e+07
-1.69769e+07
-1.3626e+07
-1.309e+07
-1.44784e+07
-1.49409e+07
-1.56912e+07
-1.49297e+07
-1.34103e+07
-1.55355e+07
-1.4758e+07
-1.99881e+07
-2.13066e+07
-2.00054e+07
-1.36509e+07
-1.93171e+07
-1.83442e+07
-1.39092e+07
-1.90742e+07
-1.35375e+07
-1.55874e+07
-1.62573e+07
-1.56326e+07
-1.59514e+07
-1.64116e+07
-1.54483e+07
-1.57851e+07
-1.62933e+07
2.66399e+07
2.05986e+07
3.97538e+07
3.41322e+07
2.87086e+07
1.29725e+07
2.29505e+07
3.06735e+07
1.55354e+07
2.52405e+07
1.30536e+07
1.67869e+07
1.12956e+07
5.46702e+06
1.10062e+07
9.7122e+06
1.68789e+07
1.25496e+07
1.13706e+07
3.60343e+07
2.86822e+07
2.82288e+07
3.39686e+07
1.89701e+07
2.57311e+07
2.63384e+07
1.897e+07
2.57371e+07
9.89942e+06
1.55136e+06
-4.53154e+06
9.27053e+06
1.96726e+06
1.25488e+07
1.12644e+07
4.4045e+06
2.84656e+07
3.03954e+07
3.35706e+07
3.99491e+07
3.36026e+07
3.10513e+07
3.92192e+07
3.51124e+07
2.60979e+07
1.83885e+07
1.84111e+07
2.035e+07
2.3543e+07
2.0299e+07
1.99478e+07
2.33805e+07
2.01665e+07
2.03882e+07
2.23354e+07
1.98515e+07
2.29705e+07
1.82402e+07
1.8516e+07
2.23688e+07
1.98278e+07
1.98513e+07
4.17481e+07
4.60553e+07
4.50015e+07
3.58876e+07
4.37665e+07
4.03677e+07
3.54188e+07
4.31087e+07
4.77436e+07
4.49723e+07
3.46207e+07
3.17738e+07
3.82993e+07
4.21809e+07
3.26637e+07
3.93943e+07
2.03821e+07
2.33298e+07
1.99701e+07
3.1282e+07
1.72164e+07
1.81979e+07
2.30878e+07
1.87527e+07
1.98072e+07
4.84584e+07
4.98494e+07
4.51565e+07
3.69318e+07
4.48867e+07
4.29222e+07
3.67063e+07
4.45436e+07
1.37839e+07
1.88623e+07
1.6061e+07
3.01616e+07
1.69096e+07
1.52936e+07
1.95695e+07
1.8363e+07
1.66722e+07
-2.12677e+07
-8.51508e+06
-2.16446e+07
-2.56913e+07
-2.58812e+07
-8.89196e+06
-2.15409e+07
-2.16663e+07
-1.02538e+07
-1.11725e+07
-1.21998e+07
-1.33168e+07
-1.06411e+07
-1.23667e+07
-1.09617e+07
-1.02603e+07
-1.20199e+07
-7.59897e+06
-6.9266e+06
-8.94512e+06
-7.16958e+06
-1.07633e+07
-9.61061e+06
-7.37151e+06
-1.05742e+07
-9.38326e+06
-2.55401e+07
-2.48167e+07
-2.02199e+07
-1.16384e+07
-2.08325e+07
-2.14343e+07
-1.13169e+07
-2.10072e+07
3.3273e+07
2.36976e+07
2.89585e+07
2.72693e+07
3.23559e+07
2.23556e+07
2.27225e+07
2.74279e+07
1.14586e+07
4.50411e+06
1.38807e+06
-2.12004e+06
2.92347e+06
1.09841e+06
5.31931e+06
4.01848e+06
2.13633e+06
1.30004e+07
1.26123e+07
1.02749e+07
2.03348e+07
5.45605e+06
8.40117e+06
1.16076e+07
6.3246e+06
9.36346e+06
2.5544e+07
2.02288e+07
9.70231e+06
1.07967e+07
1.45851e+07
2.11107e+07
1.22779e+07
1.62273e+07
-2.33107e+06
-7.32443e+06
-1.37127e+07
-1.17708e+07
-1.03157e+07
-4.20499e+06
-1.04583e+07
-8.75287e+06
-3.14327e+06
-4.69876e+06
-6.2595e+06
-4.2731e+06
-1.05679e+07
-7.72001e+06
-5.72921e+06
-1.01728e+07
-7.23178e+06
-682670
4.35639e+06
8.09545e+06
547319
3.36308e+06
-2.72721e+06
-875205
1.80405e+06
-1.50057e+07
-1.34831e+07
-1.452e+07
-1.24818e+07
-1.14502e+07
-1.40382e+07
-1.26323e+07
-1.10815e+07
-1.37467e+07
3.34962e+07
3.5214e+07
-7.35477e+06
-6.68308e+06
7.23059e+06
5.96701e+06
-1.39098e+07
-1.41519e+07
-1.53768e+07
-1.56268e+07
1.18611e+07
9.75647e+06
3.17428e+07
3.00287e+07
8.50099e+06
9.79948e+06
1.38612e+07
1.56837e+07
2.75512e+07
2.74429e+07
1.93195e+07
2.0237e+07
2.75699e+07
2.74585e+07
-8.09854e+06
-8.7621e+06
-1.51359e+07
-1.48755e+07
1.8411e+07
1.74119e+07
2.551e+06
3.62547e+06
-1.61145e+07
-1.79657e+07
-1.70654e+07
-1.26522e+07
-1.13363e+07
1.49437e+06
409490
-1.63907e+07
-1.51904e+07
-1.56578e+07
-1.75917e+07
-1.56943e+07
-1.68152e+07
-1.7612e+07
5.03851e+07
5.33621e+07
7.69186e+07
8.43133e+07
5.49171e+07
8.95749e+07
3.75584e+07
4.1464e+07
7.90709e+07
8.64915e+07
4.01076e+07
8.18473e+07
-1.56605e+06
-2.5378e+06
-1.54313e+07
-6.41445e+06
-9.84091e+06
-9.47708e+06
-1.51218e+07
-6.89367e+06
-1.22345e+07
-3.89457e+06
-7.37821e+06
-1.28635e+07
-2.29231e+06
5.36486e+06
281026
4.74556e+06
-618449
-1.15142e+06
4.27349e+06
-6.04029e+06
-4.52941e+06
371431
-982716
-3.97224e+06
-6.63837e+06
-238162
-636631
374372
-3.57742e+06
-2.1224e+06
2.11446e+06
-2.83386e+06
-5.13297e+06
-6.41309e+06
-1.15276e+07
-2.05855e+06
-5.85406e+06
-1.07328e+07
-9.8295e+06
-5.78903e+06
-4.50663e+06
-8.30571e+06
-7.89525e+06
-5.26802e+06
-1.02364e+07
-7.64598e+06
-5.06597e+06
-1.65871e+06
-1.68966e+06
-5.57554e+06
-7.17183e+06
-2.35646e+06
-1.60215e+07
-1.59973e+07
-1.40937e+07
-1.50228e+07
-1.43876e+07
-1.41678e+07
-1.49461e+07
-1.54802e+07
-1.68348e+07
-1.51618e+07
-1.56391e+07
-1.67897e+07
-1.48581e+07
-1.26877e+07
-1.36759e+07
-1.24147e+07
-1.39251e+07
-1.47046e+07
-1.30067e+07
-1.57224e+07
-1.52854e+07
-1.40417e+07
-1.48107e+07
-1.50714e+07
-1.59097e+07
-1.45242e+07
-1.61489e+07
-1.61758e+07
-1.70788e+07
-1.41761e+07
-1.3099e+07
-1.43394e+07
-1.7061e+07
-1.53426e+07
-1.68742e+07
-1.44249e+07
-1.51591e+07
-1.69068e+07
-1.38151e+07
-1.34146e+07
-1.47212e+07
-1.40362e+07
-1.40924e+07
-1.48614e+07
-1.37892e+07
-1.6043e+07
-1.54972e+07
-1.49352e+07
-1.50911e+07
-1.56968e+07
-1.60473e+07
-1.53572e+07
3.54159e+07
2.75864e+07
4.49845e+07
3.42067e+07
4.34405e+07
4.2236e+07
2.21369e+07
2.31293e+07
4.32409e+07
2.24592e+07
4.22344e+07
4.31146e+07
4.59474e+07
6.97213e+07
4.14757e+07
6.27238e+07
4.16237e+07
2.01349e+07
2.17016e+07
2.63159e+07
2.42138e+07
1.87302e+07
3.16831e+07
2.21422e+07
2.4321e+06
6.54329e+06
1.3705e+06
8.2102e+06
383023
2.83407e+06
7.80511e+06
2.0102e+07
2.38294e+07
1.73454e+07
1.59765e+07
2.48139e+07
1.92079e+07
1.55178e+07
6.71266e+07
3.50554e+07
7.18623e+07
3.36193e+07
7.43547e+07
6.48753e+07
3.25966e+07
3.53087e+07
2.87738e+07
2.19017e+07
1.92682e+07
3.40489e+07
2.98877e+07
2.12918e+07
1.85111e+07
1.69719e+07
-1.84888e+06
-1.31605e+06
5.89036e+06
-301010
61119.4
2.12473e+07
1.54963e+07
1.58477e+07
1.64787e+07
1.24465e+07
3.66377e+07
4.65645e+07
2.91474e+07
3.78594e+07
4.814e+07
2.37718e+07
2.27695e+07
5.68585e+07
3.24019e+07
4.44567e+07
4.34955e+07
5.55424e+07
5.78121e+07
2.19854e+07
2.37077e+07
5.88577e+07
2.19904e+07
5.82798e+07
5.8511e+07
5.32961e+07
5.30184e+07
2.16115e+07
2.30504e+07
2.1696e+07
5.22827e+07
5.40459e+07
4.49499e+07
2.18881e+07
4.42872e+07
2.24534e+07
4.40226e+07
2.16744e+07
4.53425e+07
5.01152e+07
5.19617e+07
2.25537e+07
2.15106e+07
2.14368e+07
5.0858e+07
5.12209e+07
2.46724e+07
2.53835e+07
4.89867e+07
3.66013e+07
6.42807e+07
4.87828e+07
6.37704e+07
5.81255e+07
4.53548e+07
3.4315e+07
4.61533e+07
5.93145e+07
2.47664e+07
2.41154e+07
3.78921e+07
2.97313e+07
5.36918e+07
3.92512e+07
5.53306e+07
6.26447e+07
4.57982e+07
3.42585e+07
4.49173e+07
6.17463e+07
5.94236e+07
2.19248e+07
2.3672e+07
5.93208e+07
2.17976e+07
5.9028e+07
5.96575e+07
5.94438e+07
5.87924e+07
2.23687e+07
1.99782e+07
2.04112e+07
5.92995e+07
5.90345e+07
2.53601e+07
2.58363e+07
4.90738e+07
3.70777e+07
6.46829e+07
4.90445e+07
6.49503e+07
6.34107e+07
4.65867e+07
3.60016e+07
4.72756e+07
6.40585e+07
5.2008e+07
1.46072e+07
1.72547e+07
5.00416e+07
1.5426e+07
5.15443e+07
5.05335e+07
5.76686e+07
5.81443e+07
2.08711e+07
1.94796e+07
1.89114e+07
5.73549e+07
5.84163e+07
-1.57077e+07
-1.01909e+07
-7.7075e+06
-1.05201e+07
-1.59426e+07
-1.20936e+07
-1.1649e+07
-1.22502e+07
-9.63339e+06
-1.68396e+07
-1.19904e+07
-1.67494e+07
-1.42797e+07
-1.23543e+07
-1.34294e+07
-1.13716e+07
-1.45109e+07
-1.31711e+07
-1.20128e+07
-1.31915e+07
-1.14922e+07
-9.80394e+06
-9.47681e+06
-1.29764e+07
-1.17969e+07
-1.01904e+07
-1.09063e+07
-6.28862e+06
-8.70483e+06
-5.99325e+06
-1.05924e+07
-9.08957e+06
-6.76958e+06
-1.24159e+07
-1.11818e+07
-8.23865e+06
-9.40756e+06
-1.08527e+07
-1.27155e+07
-8.99334e+06
-1.26102e+07
-1.30485e+07
-1.70877e+07
-1.39877e+07
-1.2243e+07
-1.37773e+07
-1.7089e+07
-1.25104e+07
-1.6913e+07
-1.06683e+07
-1.27227e+07
-1.69692e+07
3.64783e+07
5.19857e+07
2.62635e+07
3.50075e+07
5.01916e+07
1.12525e+07
1.23325e+07
3.79263e+07
1.95723e+07
2.52821e+07
2.69853e+07
4.01157e+07
1.98369e+07
-1.49447e+06
690773
1.75823e+07
-453155
1.9798e+07
1.76068e+07
3.10771e+07
3.29682e+07
5.92154e+06
6.24282e+06
4.87098e+06
3.32884e+07
3.08176e+07
4.72056e+07
1.37532e+07
4.84386e+07
1.45828e+07
4.89125e+07
1.28509e+07
4.67413e+07
3.75452e+07
3.50955e+07
9.49808e+06
6.95141e+06
7.97897e+06
3.71721e+07
3.54543e+07
1.01911e+07
9.04786e+06
1.13062e+07
7.81643e+06
1.97344e+07
1.30544e+07
2.20463e+07
3.57193e+07
2.35665e+07
1.5227e+07
2.18186e+07
3.34744e+07
-6.66662e+06
-7.60779e+06
-1.45089e+07
-1.41889e+07
-1.61855e+07
-1.33835e+07
-1.35307e+07
-124902
-3.79512e+06
-7.7413e+06
-5.41114e+06
-2.24108e+06
1.308e+07
-2.53696e+06
-2.56013e+06
1.53811e+07
-3.57921e+06
1.53315e+07
1.31949e+07
2.24408e+06
509662
-7.79118e+06
-9.53081e+06
-8.58415e+06
2.57502e+06
178281
-5.69661e+06
-4.76996e+06
9.56465e+06
3.42012e+06
1.74535e+07
7.83231e+06
1.51914e+07
2.00376e+06
-2.17279e+06
-3.65722e+06
-534482
4.17376e+06
-1.46883e+07
-1.46708e+07
-1.46274e+07
-1.65348e+07
-1.50438e+07
-1.43064e+07
-1.67384e+07
-3.9774e+06
-1.53423e+06
-1.07383e+07
-1.04683e+07
-1.13999e+07
-3.57167e+06
-1.9183e+06
4.30893e+07
4.59924e+07
4.72761e+07
1.24524e+08
1.10402e+08
1.21263e+08
1.13798e+08
-5.07536e+06
-5.95165e+06
-2.34996e+07
-2.46809e+07
-2.34142e+07
-2.27492e+07
-2.42181e+07
-2.31953e+07
-4.71176e+06
761991
-3.15205e+06
-2.83187e+06
-4.93566e+06
-4.13524e+06
-929762
-6.04357e+06
3.66154e+06
4.73146e+06
-8.57906e+06
-1.13679e+07
-1.04247e+07
-1.36346e+07
-1.3065e+07
-1.2142e+07
-1.11477e+07
-9.95736e+06
-7.65243e+06
-1.19749e+07
-1.11995e+07
-6.69047e+06
-9.0893e+06
-1.0334e+07
-1.49243e+07
-1.42091e+07
-1.45212e+07
-1.53423e+07
-1.47958e+07
-1.68456e+07
-1.63237e+07
-1.61011e+07
-1.55563e+07
-1.45695e+07
-1.57919e+07
-1.54006e+07
-1.51093e+07
-1.49283e+07
-1.46985e+07
-1.49314e+07
-1.59316e+07
-1.5867e+07
-2.09828e+07
-2.25954e+07
-2.07409e+07
-2.00524e+07
-2.2179e+07
-2.04613e+07
-1.25165e+07
-1.36282e+07
-1.27902e+07
-1.36646e+07
-1.16696e+07
-1.22468e+07
-1.21325e+07
-1.1532e+07
1.10752e+08
2.97283e+07
2.94739e+07
-1.69954e+06
-85081.2
6.51789e+06
3.42395e+06
9.87997e+07
8.85094e+07
6.81937e+07
7.74828e+07
5.31879e+07
5.12467e+07
4.71744e+07
4.9135e+07
3.06395e+07
3.09964e+07
3.27212e+07
3.2145e+07
4.67284e+06
1.71913e+07
-244270
4.39811e+07
3.58651e+07
3.49728e+07
4.461e+07
3.89511e+07
3.39906e+07
3.49738e+07
2.66935e+07
2.83002e+07
3.01838e+07
2.74369e+07
3.10922e+07
2.24845e+06
-646872
-1.29469e+06
3.69385e+06
5.80447e+06
9.55964e+06
4.70777e+06
1.00861e+07
9.22005e+07
9.9046e+07
1.02211e+08
8.89123e+07
8.15651e+07
6.92139e+07
7.85337e+07
7.24072e+07
1.25986e+07
1.11285e+07
-6.66026e+06
-5.52461e+06
-4.58632e+06
19702.5
-3.29702e+06
-2.38933e+06
9.42268e+06
2.59405e+07
1.39205e+07
1.89264e+07
1.74076e+07
2.86267e+07
2.22246e+07
1.8209e+07
6.48694e+07
5.5562e+07
5.35237e+07
6.63566e+07
6.32707e+07
4.99749e+07
5.21269e+07
6.16154e+07
4.63155e+07
3.57708e+07
3.68829e+07
4.54486e+07
4.73299e+07
3.82554e+07
3.69557e+07
4.83547e+07
2.69455e+07
2.72597e+07
5.20036e+07
4.8795e+07
5.0836e+07
4.77749e+07
4.80564e+07
4.94337e+07
-4.48835e+06
-4.46283e+06
-6.16242e+06
-7.17826e+06
-1.22357e+07
-1.39771e+07
-1.32465e+07
-1.14855e+07
5.51437e+07
5.68585e+07
5.9874e+07
5.85216e+07
5.87855e+07
6.00248e+07
6.21091e+07
6.12407e+07
-1.55219e+07
-1.58312e+07
-1.61743e+07
-1.58255e+07
-1.46108e+07
-1.29282e+07
-1.35779e+07
-1.51537e+07
2.05619e+07
2.32964e+07
2.89691e+07
2.62232e+07
5.72014e+07
5.55686e+07
5.17141e+07
5.36759e+07
2.1882e+07
2.10917e+07
4.63891e+07
4.13661e+07
4.77716e+07
5.01747e+07
4.26587e+07
4.90436e+07
6.89635e+07
5.68364e+07
6.76686e+07
5.86569e+07
7.00128e+07
6.11504e+07
5.96966e+07
7.09114e+07
2.7036e+07
2.7313e+07
5.29714e+07
5.00152e+07
5.36971e+07
5.45686e+07
5.01131e+07
5.42472e+07
6.65648e+07
5.8421e+07
5.94529e+07
6.50936e+07
6.80959e+07
6.16476e+07
6.09709e+07
6.91978e+07
-2.3673e+07
-2.55778e+07
-2.37073e+07
-9.95538e+06
-9.43936e+06
-2.57507e+07
-2.36387e+07
-2.37704e+07
-1.55579e+07
-1.55198e+07
-1.58571e+07
-1.40306e+07
-1.56518e+07
-1.33563e+07
-1.49405e+07
-1.51517e+07
-1.26737e+07
-8.56618e+06
-1.18766e+07
-1.07776e+07
-1.25544e+07
-1.15504e+07
-9.45096e+06
-1.33055e+07
-1.41692e+07
-1.45953e+07
-2.13279e+07
-2.37983e+07
-2.16112e+07
-2.20961e+07
-2.41545e+07
-2.19299e+07
4.49475e+07
3.71135e+07
4.33929e+07
1.54344e+07
1.64697e+07
3.5578e+07
4.01011e+07
4.18019e+07
2.67806e+07
2.05513e+07
2.2978e+07
2.40152e+07
2.9902e+07
2.85083e+07
2.60911e+07
3.26379e+07
6.1374e+07
5.65104e+07
5.51591e+07
6.3107e+07
5.91203e+07
5.12898e+07
5.29399e+07
5.70613e+07
5.78874e+06
4.73148e+06
1.718e+07
1.4873e+07
1.91862e+07
2.31383e+07
1.66596e+07
2.11824e+07
-1.54053e+07
-1.50481e+07
-1.45664e+07
-1.49091e+07
-1.36311e+07
-1.28202e+07
-1.22552e+07
-1.20994e+07
1.76769e+07
1.49343e+07
9.46084e+06
1.21511e+07
-1.94752e+07
-1.71223e+07
-1.16712e+07
-1.41526e+07
-1.00495e+07
-1.02837e+07
-1.23013e+07
-1.2133e+07
-1.11551e+07
-7.79311e+06
-1.07884e+07
-9.43951e+06
1.81439e+07
1.7442e+07
2.0828e+07
1.50469e+07
1.50809e+07
9.67723e+06
1.20299e+07
1.24081e+07
-1.69849e+06
-616788
1.52043e+07
9.55314e+06
1.32122e+07
9.27036e+06
7.81427e+06
1.12545e+07
-1.55956e+07
-1.51952e+07
-1.56668e+07
-1.7542e+07
-1.57818e+07
-1.77944e+07
-1.55711e+07
-1.62741e+07
-1.92566e+07
-1.70291e+07
-1.88285e+07
-1.29816e+07
-1.16182e+07
-1.39542e+07
-1.04157e+07
4.74226e+07
4.75856e+07
5.1768e+07
-4.29317e+06
-3.46554e+06
-1.98011e+07
-2.15701e+07
-2.07556e+07
-2.22645e+07
-2.23749e+07
-2.15888e+07
-2.05851e+07
-2.07266e+07
-2.03289e+07
-5.93706e+06
-8.68955e+06
-1.43708e+07
-9.09485e+06
-1.47671e+07
-2.03564e+07
-1.96279e+07
-2.00162e+07
-1.72197e+07
-1.79895e+07
-1.79671e+07
-4.4407e+06
-8.27955e+06
-1.39255e+07
-7.82191e+06
-1.34212e+07
-1.87288e+07
-1.91594e+07
-1.86127e+07
-3.24699e+06
3.73422e+06
-2.09853e+06
2.28051e+06
-4.07959e+06
-1.3977e+06
3.238e+06
-7.41223e+06
-6.28359e+06
-8.3934e+06
-3.49126e+06
-7.26572e+06
-2.29749e+06
-6.23469e+06
-5.24414e+06
-5.4394e+06
1.13785e+06
-2.7575e+06
1.38728e+06
-4.79984e+06
-3.37356e+06
549054
2.49804e+06
1.38423e+06
-1.88214e+07
-1.85798e+07
-1.76791e+07
-1.51135e+07
-1.73743e+07
-1.64755e+07
-6.69727e+06
-8.20569e+06
-8.51499e+06
1.1053e+06
-4.15777e+06
-7.75877e+06
-3.47975e+06
-6.52224e+06
-9.84628e+06
-1.16931e+07
-1.01716e+07
-1.63636e+07
-1.51853e+07
-1.53945e+07
-1.36433e+06
-4.7478e+06
-8.87734e+06
-5.28802e+06
-9.85958e+06
-1.40292e+07
-1.30686e+07
-1.42949e+07
-9.44346e+06
-3.97e+06
-7.0096e+06
-4.17643e+06
-7.45136e+06
-9.04763e+06
-4.72884e+06
-9.4155e+06
-4.60409e+06
-8.47521e+06
-7.27664e+06
-9.44603e+06
-8.21407e+06
-1.03429e+07
-5.67109e+06
-8.12879e+06
-2.27111e+06
-6.5466e+06
-3.59472e+06
-6.05547e+06
-8.60719e+06
-2.98762e+06
-1.53789e+07
-1.59437e+07
-1.84755e+07
-1.90891e+07
-1.82646e+07
-1.75061e+07
-1.85612e+07
-1.80123e+07
-1.45889e+07
-1.49904e+07
-1.53665e+07
-1.55353e+07
-1.51806e+07
-1.60888e+07
-1.45382e+07
-1.55264e+07
-1.5666e+07
-1.64942e+07
-1.5919e+07
-1.80662e+07
-1.78532e+07
-1.78472e+07
-1.53872e+07
-1.58819e+07
-1.65721e+07
-1.57855e+07
-1.67234e+07
-1.75421e+07
-1.71206e+07
-1.76043e+07
-1.50476e+07
-1.2752e+07
-1.43879e+07
-1.36374e+07
-1.52462e+07
-1.41594e+07
-1.33259e+07
-1.36969e+07
-1.386e+07
-1.34939e+07
-1.39217e+07
-1.42323e+07
-1.43779e+07
-1.44117e+07
-1.44233e+07
-1.5564e+07
-1.37235e+07
-1.46212e+07
-1.39406e+07
-1.54173e+07
-1.48418e+07
-1.42355e+07
-1.6077e+07
-1.61946e+07
-1.88475e+07
-2.04278e+07
-1.91503e+07
-1.97954e+07
-2.08719e+07
-1.94991e+07
-1.97337e+07
-1.97727e+07
-1.95379e+07
-1.33775e+07
-1.46973e+07
-1.70097e+07
-1.44895e+07
-1.70399e+07
-1.95458e+07
-1.91351e+07
-1.9336e+07
-1.82835e+07
-1.85948e+07
-1.85026e+07
-1.41699e+07
-1.48521e+07
-1.69826e+07
-1.49786e+07
-1.69471e+07
-1.8842e+07
-1.89261e+07
-1.8718e+07
-1.40491e+07
-1.5443e+07
-1.49326e+07
-1.58791e+07
-1.43802e+07
-1.45621e+07
-1.56626e+07
-1.26791e+07
-1.33888e+07
-1.29291e+07
-1.32653e+07
-1.21187e+07
-1.26446e+07
-1.19093e+07
-1.28046e+07
-1.56106e+07
-1.52095e+07
-1.54979e+07
-1.5799e+07
-1.58677e+07
-1.50845e+07
-1.56025e+07
2.71742e+07
2.15609e+07
1.12097e+07
1.55456e+07
3.45411e+07
4.14516e+07
5.8289e+07
5.01294e+07
3.95922e+07
4.11395e+07
4.49747e+07
4.32117e+07
3.77717e+07
3.65545e+07
3.40691e+07
3.49873e+07
2.84501e+07
2.4766e+07
2.67107e+07
4.31614e+07
3.59634e+07
3.90025e+07
3.77352e+07
4.95043e+07
3.33832e+07
5.59829e+07
3.74323e+07
3.22834e+07
3.10462e+07
3.49684e+07
2.49901e+07
2.33144e+07
1.38583e+07
1.61624e+07
1.70177e+07
2.38342e+07
1.94947e+07
2.03529e+07
2.73603e+07
4.32831e+07
2.94728e+07
3.73383e+07
2.57269e+07
1.6689e+07
1.86502e+07
2.00727e+07
2.72448e+07
2.18799e+07
2.35863e+07
2.58279e+07
2.98107e+07
2.33823e+07
3.20119e+07
1.99679e+07
1.28624e+07
1.47697e+07
1.83841e+07
5.02684e+06
9.56823e+06
7.70562e+06
1.0603e+07
8.15881e+06
4.90616e+06
9.16259e+06
1.57386e+07
1.42129e+07
1.10937e+07
1.21403e+07
1.17443e+07
1.49524e+07
1.37777e+07
6.01634e+07
3.11137e+07
5.16955e+07
2.7848e+07
5.81503e+07
5.34755e+07
3.01909e+07
4.63217e+07
3.63109e+07
4.37095e+07
3.91309e+07
5.46752e+07
6.00037e+07
6.28751e+07
5.1617e+07
4.10428e+07
2.40725e+07
4.55182e+07
2.55802e+07
3.96346e+07
4.70984e+07
2.33962e+07
1.39929e+07
1.54348e+07
1.07598e+07
6.97597e+06
7.85604e+06
2.46388e+06
4.19379e+06
5.07532e+06
-4.72254e+06
-2.50302e+06
-2.59542e+06
7.48846e+06
4.22525e+06
4.43403e+06
1.34062e+06
2.14757e+06
-333716
2.11421e+06
-320288
1.34582e+07
9.69129e+06
1.03865e+07
1.34525e+07
7.92305e+06
6.92237e+06
1.20409e+07
9.59068e+06
6.97275e+06
4.71947e+06
7.47404e+06
3.01624e+07
3.02209e+07
3.18274e+07
2.97427e+07
4.02326e+07
5.11959e+07
3.90633e+07
4.96848e+07
3.19275e+07
3.5029e+07
3.34513e+07
2.03392e+07
2.15994e+07
3.6046e+07
3.80071e+07
3.29692e+07
2.60254e+07
3.58885e+07
2.96152e+07
3.17229e+07
4.1365e+07
5.26834e+07
4.24706e+07
5.41343e+07
4.05234e+07
3.79543e+07
3.92897e+07
3.65155e+07
3.65727e+07
3.7939e+07
5.67061e+07
4.33484e+07
4.53451e+07
5.50837e+07
5.83202e+07
4.86386e+07
5.99744e+07
4.65253e+07
5.70611e+07
2.36544e+07
2.1957e+07
5.6826e+07
2.19928e+07
5.62494e+07
5.76085e+07
5.43236e+07
2.32208e+07
2.18678e+07
5.59767e+07
2.17699e+07
5.53233e+07
5.50466e+07
4.59531e+07
2.23562e+07
2.14503e+07
4.75465e+07
2.1533e+07
4.64347e+07
4.69842e+07
5.21607e+07
4.24782e+07
4.07132e+07
5.35897e+07
5.07858e+07
3.85728e+07
4.95171e+07
4.01261e+07
4.9053e+07
2.24278e+07
2.1414e+07
4.86533e+07
2.13957e+07
4.97466e+07
4.80142e+07
2.65655e+07
2.60284e+07
3.88998e+07
4.33567e+07
4.14607e+07
4.59271e+07
4.48038e+07
4.38206e+07
4.64174e+07
4.47109e+07
4.61064e+07
3.62872e+07
4.80348e+07
6.23026e+07
4.84643e+07
6.30958e+07
4.42982e+07
4.50986e+07
4.56565e+07
4.1658e+07
4.1386e+07
4.26818e+07
3.48988e+07
4.75234e+07
6.14152e+07
4.68874e+07
6.04131e+07
4.23036e+07
4.44257e+07
4.36061e+07
-8.67514e+06
-1.03484e+07
-8.95606e+06
-7.50846e+06
-1.14558e+07
-9.71303e+06
-1.06149e+07
-1.24008e+07
6.33025e+07
6.27779e+07
6.10935e+07
6.20731e+07
6.35191e+07
6.35335e+07
6.28213e+07
6.32952e+07
-1.62499e+07
-1.51221e+07
-1.55277e+07
-1.63391e+07
-1.46601e+07
-1.59763e+07
-1.55891e+07
-1.41422e+07
3.98321e+07
3.72661e+07
3.17912e+07
3.45101e+07
4.24788e+07
4.48683e+07
4.95129e+07
4.73274e+07
2.26939e+07
2.34076e+07
5.36476e+07
4.69261e+07
5.29821e+07
5.12365e+07
4.60094e+07
5.21641e+07
3.61956e+07
3.59075e+07
3.75111e+07
3.07901e+07
4.17596e+07
5.82492e+07
4.05514e+07
5.68534e+07
3.7135e+07
3.9934e+07
3.87529e+07
4.38164e+07
4.13236e+07
4.29713e+07
3.34951e+07
4.29065e+07
5.95361e+07
4.39615e+07
6.06999e+07
4.03928e+07
4.10448e+07
4.20445e+07
5.97354e+07
2.35157e+07
2.14072e+07
5.99396e+07
2.16192e+07
5.99002e+07
5.98769e+07
7.23143e+07
6.37338e+07
6.31181e+07
7.2413e+07
7.20681e+07
6.18193e+07
7.15231e+07
6.28732e+07
5.97288e+07
2.27556e+07
2.11482e+07
5.98734e+07
2.07957e+07
5.98979e+07
5.96568e+07
2.67135e+07
2.62976e+07
5.41706e+07
4.90643e+07
5.45086e+07
5.47267e+07
4.95288e+07
5.46983e+07
4.66026e+07
4.51732e+07
4.66526e+07
3.70403e+07
4.86798e+07
6.50305e+07
4.89216e+07
6.50638e+07
4.50844e+07
4.64304e+07
4.6598e+07
4.45433e+07
4.357e+07
4.51831e+07
3.63955e+07
4.82999e+07
6.48351e+07
4.78342e+07
6.45108e+07
4.41009e+07
4.61072e+07
4.56941e+07
5.33984e+07
1.8093e+07
1.69736e+07
5.42441e+07
1.62268e+07
5.29516e+07
5.46838e+07
7.18279e+07
6.35083e+07
6.36813e+07
7.21027e+07
7.10998e+07
6.27702e+07
7.03762e+07
6.30269e+07
5.68181e+07
2.02478e+07
1.76591e+07
5.54113e+07
1.83112e+07
5.64452e+07
5.58199e+07
-2.07861e+07
-2.14501e+07
-2.09412e+07
-8.10984e+06
-1.11504e+07
-1.63397e+07
-1.08427e+07
-1.61592e+07
-2.15695e+07
-2.11112e+07
-2.1046e+07
-1.05718e+07
-1.11559e+07
-2.31947e+07
-2.58162e+07
-2.34191e+07
-2.36264e+07
-2.5874e+07
-2.35519e+07
-9.26356e+06
-1.14459e+07
-1.65017e+07
-1.17148e+07
-1.66319e+07
-2.10403e+07
-2.16097e+07
-2.10996e+07
-2.11418e+07
-2.16615e+07
-2.11392e+07
-1.4876e+07
-1.18896e+07
-1.36756e+07
-1.42403e+07
-1.47109e+07
-1.43285e+07
-1.52874e+07
-1.26633e+07
-1.40927e+07
-1.09995e+07
-1.26405e+07
-1.13154e+07
-1.39026e+07
-1.29183e+07
-1.16651e+07
-1.34312e+07
-9.86691e+06
-1.23685e+07
-1.09517e+07
-1.36811e+07
-1.20781e+07
-1.05765e+07
-1.12455e+07
-6.46387e+06
-9.82944e+06
-7.70051e+06
-9.46146e+06
-1.15823e+07
-7.24029e+06
-1.37328e+07
-1.30036e+07
-1.11138e+07
-1.43935e+07
-1.38762e+07
-1.03001e+07
-1.31631e+07
-1.23122e+07
-1.21463e+07
-7.81007e+06
-1.01789e+07
-8.14482e+06
-1.05078e+07
-1.18781e+07
-8.57398e+06
-1.38571e+07
-1.34991e+07
-2.30871e+07
-2.53348e+07
-2.2862e+07
-2.24044e+07
-2.50912e+07
-2.26711e+07
-1.99217e+07
-2.04374e+07
-2.01063e+07
-1.19347e+07
-1.34027e+07
-1.70754e+07
-1.35743e+07
-1.70888e+07
-2.06365e+07
-2.04497e+07
-2.02832e+07
-2.09578e+07
-2.13171e+07
-2.08587e+07
-1.09964e+07
-1.31843e+07
-1.70517e+07
-1.29239e+07
-1.7017e+07
-2.11769e+07
-2.05995e+07
-2.07388e+07
3.48212e+07
3.18678e+07
3.33883e+07
2.49862e+07
3.19183e+07
4.63393e+07
3.34859e+07
4.82995e+07
3.04291e+07
3.04e+07
3.19102e+07
1.44131e+07
1.33539e+07
3.28934e+07
2.9007e+07
3.47735e+07
3.83662e+07
3.07105e+07
3.65854e+07
2.09732e+07
3.03032e+07
4.43188e+07
2.86659e+07
4.22375e+07
2.39582e+07
2.43143e+07
2.56143e+07
2.88226e+07
2.58781e+07
2.72275e+07
4.15431e+07
3.91887e+07
3.69609e+07
4.41041e+07
3.84717e+07
3.16081e+07
3.57776e+07
3.39464e+07
2.21087e+07
1.8146e+06
1.68937e+06
2.42384e+07
623304
2.4397e+07
2.20284e+07
2.88675e+07
5.13246e+06
2.73622e+06
2.64536e+07
3.79543e+06
2.66432e+07
2.86496e+07
4.54372e+07
1.36046e+07
1.09665e+07
4.31145e+07
1.19189e+07
4.49629e+07
4.35756e+07
4.95177e+07
4.20968e+07
4.41811e+07
4.70555e+07
5.22407e+07
4.87916e+07
5.45009e+07
4.68954e+07
3.9608e+07
1.05543e+07
1.00029e+07
4.11945e+07
8.99282e+06
3.91991e+07
4.16277e+07
6.91295e+06
7.97299e+06
3.10033e+07
2.3784e+07
2.904e+07
2.51324e+07
2.20197e+07
2.70997e+07
1.04369e+07
1.13178e+07
1.21244e+07
9.30847e+06
1.65655e+07
2.66341e+07
1.48081e+07
2.43366e+07
1.29472e+07
1.55165e+07
1.38116e+07
2.22869e+07
1.94775e+07
2.06002e+07
1.37587e+07
1.83358e+07
2.89353e+07
2.00812e+07
3.12069e+07
1.78516e+07
1.72252e+07
1.89126e+07
-1.35159e+07
-1.38903e+07
-1.44068e+07
-1.40512e+07
-1.33233e+07
-1.29169e+07
-1.23258e+07
-1.27107e+07
-696985
1.66973e+06
6.77189e+06
4.23621e+06
-3.05305e+06
-5.29825e+06
-9.61341e+06
-7.41361e+06
-9.37408e+06
-8.42956e+06
-252089
-3.96704e+06
-2.10827e+06
-5.92999e+06
-5.59564e+06
-3.99076e+06
-1.42215e+07
-1.32928e+07
-1.3429e+07
-1.31235e+07
-1.02627e+07
-8.67503e+06
-1.19449e+07
-1.09908e+07
-1.19825e+07
-1.03978e+07
-1.20675e+07
-4.0819e+06
-5.70996e+06
-5.64528e+06
-9.0986e+06
-8.63902e+06
-6.50802e+06
-7.00822e+06
-4.36764e+06
-7.20353e+06
-8.78609e+06
-7.20068e+06
1.08804e+07
-3.6464e+06
-5.62685e+06
8.88055e+06
-4.61593e+06
8.69853e+06
1.10325e+07
4.08132e+06
-368722
1.75821e+06
1.64777e+06
6.86297e+06
6.76846e+06
9.40665e+06
4.50764e+06
4.35781e+06
-6.76897e+06
-6.60929e+06
6.76403e+06
-7.61141e+06
6.52798e+06
4.65685e+06
-2.7172e+06
-3.76454e+06
1.62484e+06
993646
3.49563e+06
7.33677e+06
2.67694e+06
5.40498e+06
8.76075e+06
6.49279e+06
7.08911e+06
1.96701e+06
4.44578e+06
1.07171e+07
6.132e+06
1.29386e+07
4.9154e+06
3.83094e+06
5.44707e+06
-2.53684e+06
-1.22901e+06
-962388
-2.27853e+06
2.75418e+06
8.49877e+06
1.09473e+06
6.31464e+06
273228
2.20084e+06
605613
-1.23166e+07
-1.42551e+07
-1.39689e+07
-9.66203e+06
-1.46976e+07
-1.19063e+07
-1.00532e+07
-3.29702e+06
-2.94272e+06
-4.93045e+06
-1.05576e+06
-5.80186e+06
-9.20377e+06
-7.96764e+06
-7.29993e+06
-5.97867e+06
-1.16941e+07
-1.3176e+07
-7.60643e+06
-1.22993e+07
-5.58063e+06
-8.00653e+06
-1.37443e+07
-1.3544e+07
-1.53568e+07
-1.35627e+07
-1.46497e+07
-1.46854e+07
-1.38664e+07
-1.56016e+07
-1.37528e+07
-1.5051e+07
-1.37134e+07
-1.34668e+07
-1.50102e+07
-1.35528e+07
-1.3566e+07
-1.49389e+07
-1.36604e+07
-1.49501e+07
-1.4817e+07
-1.54898e+07
-1.72721e+07
-1.52799e+07
-1.52572e+07
-1.69611e+07
1.03159e+08
3.89211e+07
4.17665e+07
9.28168e+07
3.70602e+07
9.53641e+07
1.01583e+08
-837746
1.64193e+06
-869075
2.96066e+06
655814
1.36385e+06
-2.52891e+06
-1.65082e+06
-4.85117e+06
1.81488e+06
-1.04504e+06
-684738
-3.7779e+06
-2.83997e+06
-8.36641e+06
-9.73494e+06
-6.84088e+06
-1.15632e+07
-9.63648e+06
-9.15445e+06
-1.10979e+07
-8.31029e+06
-1.0262e+07
-6.26191e+06
-8.59514e+06
-8.7781e+06
-1.07754e+07
-7.4761e+06
-1.51303e+07
-1.51129e+07
-1.58653e+07
-1.40727e+07
-1.46817e+07
-1.47036e+07
-1.61041e+07
-1.52326e+07
-1.64391e+07
-1.4381e+07
-1.50395e+07
-1.54571e+07
-1.62169e+07
-1.55168e+07
-1.35563e+07
-1.3542e+07
-1.50553e+07
-1.35135e+07
-1.50562e+07
-1.33824e+07
-1.37444e+07
-1.32275e+07
-1.41145e+07
-1.59877e+07
-1.61473e+07
-1.55039e+07
-1.38992e+07
-1.33496e+07
3.96216e+07
1.79265e+07
2.01119e+07
3.56582e+07
2.03669e+07
3.92874e+07
3.51436e+07
4.62705e+06
4.13283e+06
1.19314e+06
6.60614e+06
2.57791e+06
4.28728e+06
3.71909e+06
7.96259e+06
1.01476e+07
7.26678e+06
8.12133e+06
7.28539e+06
1.07148e+07
6.73482e+06
7.8022e+07
3.20998e+07
8.40712e+07
3.35787e+07
8.52229e+07
3.36756e+07
7.58699e+07
6.8626e+07
6.02859e+07
3.07835e+07
2.85497e+07
2.72664e+07
6.77902e+07
6.20973e+07
5.51845e+07
1.62497e+07
1.86771e+07
5.28328e+07
2.02672e+07
5.52016e+07
5.16793e+07
5.29065e+07
4.92548e+07
2.03991e+07
1.85481e+07
1.65082e+07
5.28303e+07
5.05053e+07
4.03382e+07
2.01791e+07
3.63463e+07
1.89387e+07
4.06401e+07
1.75656e+07
3.69877e+07
4.19285e+07
3.86644e+07
1.88243e+07
1.73036e+07
2.01397e+07
3.78306e+07
4.18117e+07
5.70087e+07
2.00029e+07
1.85212e+07
5.38156e+07
1.59136e+07
5.7267e+07
5.4723e+07
5.88699e+07
5.61009e+07
1.85202e+07
1.544e+07
1.95448e+07
5.54591e+07
5.83706e+07
5.44468e+07
9.47461e+06
1.34015e+07
5.0256e+07
1.30747e+07
5.22241e+07
5.15267e+07
5.4841e+07
5.3837e+07
1.40576e+07
1.45779e+07
1.08697e+07
5.28294e+07
5.68788e+07
-1.41043e+07
-1.43321e+07