/*--------------------------------*- C++ -*----------------------------------*\
| =========                 |                                                 |
| \\      /  F ield         | OpenFOAM: The Open Source CFD Toolbox           |
|  \\    /   O peration     | Version:  2012                                  |
|   \\  /    A nd           | Website:  www.openfoam.com                      |
|    \\/     M anipulation  |                                                 |
\*---------------------------------------------------------------------------*/
FoamFile
{
    version     2.0;
    format      ascii;
    class       volScalarField;
    location    "0.108/solid";
    object      sigmaHyd;
}
// * * * * * * * * * * * * * * * * * * * * * * * * * * * * * * * * * * * * * //

dimensions      [1 -1 -2 0 0 0 0];


internalField   nonuniform List<scalar> 
3125
(
-1.23434e+07
1.56108e+07
2.22819e+07
2.07787e+07
1.94857e+07
1.80819e+07
1.36704e+07
-8.17116e+06
2.71778e+06
1.52133e+07
2.06696e+06
3.78013e+06
2.11464e+07
2.2471e+07
1.262e+07
4.65647e+06
1.97465e+07
2.10615e+07
1.37919e+07
2.0748e+07
-1.17429e+07
-8.4253e+06
2.12465e+07
1.92629e+07
8.77159e+06
1.98034e+07
1.27782e+07
1.39327e+07
1.87942e+07
1.55492e+07
2.0712e+07
1.32137e+07
1.74261e+07
1.87032e+07
1.75517e+07
1.97328e+07
1.76188e+07
2.02924e+07
1.89167e+07
1.74701e+07
1.94166e+07
1.76018e+07
2.19043e+06
1.13483e+06
-9.72268e+06
2.82841e+06
6.08091e+06
8.05753e+06
1.97983e+06
-7.15878e+06
2.93336e+06
952621
1.29806e+07
4.3491e+06
748499
-7.10786e+06
6.33373e+06
-3.80922e+06
-3.20568e+06
456219
8.121e+06
-2.92021e+06
-1.09041e+07
-7.86335e+06
-5.88553e+06
-9.63958e+06
-3.71498e+06
1.63708e+06
-2.05417e+06
-1.10113e+07
-9.99372e+06
1.45301e+06
1.91101e+06
-1.68655e+06
2.13738e+07
2.1468e+07
2.21147e+07
1.75202e+07
1.70674e+07
1.5788e+07
2.23333e+07
1.69546e+07
2.04625e+07
2.13887e+07
-5.20801e+06
-31535.1
9.01447e+06
1.03115e+07
6.38892e+06
1.97137e+06
7.8336e+06
5.82777e+06
6.30017e+06
772942
1.77115e+07
1.29091e+07
1.08535e+07
1.71028e+07
1.4399e+07
7.08382e+06
1.22297e+07
1.83599e+07
1.81046e+07
1.48798e+07
-1.78234e+07
-6.06324e+06
3.47148e+07
3.46905e+07
1.10197e+07
1.72623e+07
1.27689e+07
2.64071e+07
2.99608e+07
1.71783e+07
2.19339e+07
1.65121e+07
1.65771e+07
1.89433e+07
1.85797e+07
2.04135e+07
1.85586e+07
2.71724e+07
2.52133e+07
1.85554e+07
1.87749e+07
1.84923e+07
-29799.3
6.9465e+06
-1.40951e+07
-3.70556e+06
1.14444e+07
1.02426e+07
8.03957e+06
-4.67636e+06
-4.21094e+06
-1.12619e+06
2.49579e+07
1.97734e+07
-3.26907e+06
-1.19321e+07
3.62478e+06
1.60646e+06
1.67668e+06
6.17177e+06
1.25833e+07
4.59186e+06
-3.09824e+07
-2.84932e+07
-2.53336e+07
-2.81869e+07
1.53584e+06
1.68554e+06
1.91122e+06
-3.14957e+07
-3.22063e+07
5.51716e+06
3.00418e+06
4.26652e+06
3.45958e+07
3.38756e+07
2.15031e+07
1.85494e+07
1.85319e+07
1.7429e+07
2.2533e+07
1.78558e+07
2.78056e+07
2.96291e+07
-2.42747e+07
-2.07648e+07
1.14107e+07
1.30488e+07
1.15906e+07
5.8902e+06
5.64225e+06
7.29319e+06
-4.72496e+06
-8.8228e+06
1.99844e+07
2.03974e+07
1.41931e+07
1.15146e+07
1.34927e+07
1.49381e+07
1.48775e+07
-3.36069e+06
632484
1.97637e+07
2.01266e+07
1.85747e+07
-1.40806e+07
-6.32421e+06
3.35692e+07
3.454e+07
2.91791e+07
2.06527e+07
2.89692e+07
2.77994e+07
2.03733e+07
2.87794e+07
1.06666e+07
1.06962e+07
1.24624e+07
1.86494e+07
1.47139e+07
1.33847e+07
1.12632e+07
1.44234e+07
1.30387e+07
3.30643e+07
3.09059e+07
2.16033e+07
1.638e+07
2.46173e+07
2.73274e+07
1.70701e+07
2.54305e+07
1.69194e+07
1.47012e+07
1.62067e+07
2.14126e+07
1.5188e+07
1.6162e+07
1.43707e+07
1.4865e+07
1.58791e+07
2.18266e+07
1.97274e+07
1.64143e+07
1.77837e+07
1.82419e+07
2.03828e+07
1.80187e+07
1.88471e+07
1.83676e+07
1.76134e+07
1.83536e+07
2.00582e+07
1.85324e+07
1.85706e+07
1.76201e+07
1.83223e+07
1.83585e+07
2.25192e+07
2.45502e+07
2.42285e+07
1.97341e+07
2.28395e+07
2.08839e+07
1.95354e+07
2.23613e+07
1.82904e+07
1.75207e+07
1.82613e+07
1.91231e+07
1.85349e+07
1.84968e+07
1.75444e+07
1.83181e+07
1.82634e+07
-1.66282e+06
5.2148e+06
-1.11244e+07
-3.96137e+06
-2.84677e+06
8.21601e+06
-512117
-2.16707e+06
6.7209e+06
-292059
8.90387e+06
4.40709e+06
7.09586e+06
9.93583e+06
5.68531e+06
7.67649e+06
4.04849e+06
4.81898e+06
6.78428e+06
-5.01052e+06
-3.49321e+06
-1.41013e+06
-502334
3.29209e+06
142243
-2.33449e+06
2.99524e+06
-210876
1.08357e+07
1.77669e+07
2.03936e+07
9.7164e+06
1.61239e+07
8.83309e+06
8.48422e+06
1.44769e+07
-4.03624e+06
-3.13633e+06
-1.03714e+07
-2.10504e+07
-1.44786e+07
-4.24954e+06
-1.69436e+07
-1.22103e+07
4.82038e+06
2.47534e+06
1.91898e+06
61338.3
-3.8296e+06
114757
859611
-3.74191e+06
276709
4.50869e+06
-1.29365e+06
2.85854e+06
1.02067e+07
2.90089e+06
3.98196e+06
-1.77538e+06
1.20505e+06
2.31988e+06
-2.29005e+07
-2.73593e+07
-2.36887e+07
-1.00916e+07
-2.21134e+07
-1.8245e+07
-9.65645e+06
-2.13426e+07
-3.09595e+07
-2.90146e+07
-1.76277e+07
-7.71e+06
-2.01325e+07
-2.26909e+07
-8.24116e+06
-2.0863e+07
54843.6
-3.20958e+06
452938
1.53708e+06
2.72699e+06
1.98813e+06
-2.96607e+06
1.38425e+06
592538
-3.1437e+07
-3.21969e+07
-2.39763e+07
-1.09526e+07
-2.41964e+07
-2.31544e+07
-1.07922e+07
-2.40657e+07
4.39729e+06
-5031.59
3.08478e+06
2.37144e+06
2.92844e+06
3.96754e+06
-454093
1.6431e+06
2.72126e+06
2.91471e+07
2.157e+07
2.87845e+07
3.22977e+07
3.35411e+07
2.15777e+07
2.77745e+07
2.85792e+07
2.18223e+07
1.83649e+07
1.84737e+07
1.83458e+07
1.73827e+07
1.83056e+07
1.81251e+07
1.73184e+07
1.82552e+07
1.71476e+07
1.63898e+07
1.76084e+07
2.24758e+07
1.82607e+07
1.80227e+07
1.65527e+07
1.80329e+07
1.77587e+07
3.18215e+07
3.0214e+07
2.46756e+07
2.09332e+07
2.59637e+07
2.7452e+07
2.10662e+07
2.6366e+07
-1.6699e+07
-3.08642e+06
-1.37167e+07
-1.56274e+07
-1.95316e+07
-2.32947e+06
-9.38949e+06
-1.26603e+07
1.01937e+07
9.63767e+06
1.11371e+07
1.23352e+07
8.65174e+06
1.081e+07
8.7697e+06
8.09397e+06
1.03149e+07
4.8157e+06
3.58447e+06
6.27312e+06
6.70167e+06
9.1896e+06
7.71354e+06
4.13937e+06
8.27692e+06
6.73443e+06
-1.43008e+07
-1.02084e+07
-325047
3.94339e+06
-3.72379e+06
-8.26659e+06
3.15598e+06
-4.86167e+06
6.91553e+06
1.0402e+07
1.59148e+07
1.56842e+07
1.31339e+07
9.23969e+06
1.5004e+07
1.21847e+07
1.28033e+07
1.24234e+07
1.42462e+07
1.60346e+07
1.65769e+07
1.52945e+07
1.29304e+07
1.60445e+07
1.46876e+07
5.69195e+06
1.91391e+06
794039
9.34564e+06
4.07393e+06
8.24369e+06
1.00876e+07
5.14046e+06
1.94693e+07
1.67796e+07
1.81525e+07
1.90562e+07
1.69694e+07
1.81883e+07
1.63088e+07
1.64597e+07
1.77417e+07
-2.37337e+07
-2.62823e+07
1.85433e+07
1.82922e+07
8.21695e+06
9.38826e+06
1.5423e+07
1.62822e+07
1.93255e+07
1.92346e+07
-166997
1.78997e+06
-2.11823e+07
-1.87431e+07
7.0119e+06
5.73114e+06
-2.05559e+06
-3.79065e+06
-1.6895e+07
-1.66195e+07
-1.15266e+07
-1.22581e+07
-1.70913e+07
-1.71561e+07
1.88779e+07
1.91053e+07
1.94623e+07
1.95831e+07
-1.08072e+07
-9.9784e+06
2.18151e+06
1.3139e+06
2.04348e+07
2.19083e+07
2.09983e+07
1.39711e+07
1.22189e+07
3.03338e+06
3.90803e+06
2.06896e+07
2.04159e+07
2.00453e+07
2.15768e+07
2.00467e+07
2.07872e+07
2.10178e+07
-1.11836e+07
-1.38179e+07
-1.66396e+07
-2.02058e+07
-1.39751e+07
-2.08816e+07
-7.42331e+06
-9.71584e+06
-1.73209e+07
-2.06699e+07
-8.64976e+06
-1.74226e+07
1.53661e+07
1.60262e+07
2.88369e+07
2.10895e+07
3.31011e+07
3.31761e+07
2.88382e+07
3.20323e+07
2.7653e+07
1.96758e+07
3.24314e+07
2.80097e+07
2.45211e+07
8.9823e+06
2.23428e+07
9.44053e+06
2.35734e+07
2.32921e+07
9.63012e+06
2.90341e+07
2.86311e+07
1.23051e+07
1.2843e+07
2.80438e+07
2.9639e+07
1.23858e+07
1.47508e+07
1.40161e+07
2.19459e+07
2.5219e+07
1.48059e+07
2.64693e+07
2.29659e+07
3.15637e+07
2.72183e+07
1.82761e+07
3.09661e+07
2.67048e+07
3.14194e+07
1.55577e+07
1.52896e+07
3.05136e+07
3.05313e+07
1.53016e+07
3.14013e+07
3.05372e+07
2.91366e+07
1.36244e+07
1.32805e+07
2.95584e+07
3.01426e+07
1.36815e+07
1.79198e+07
1.77901e+07
1.68584e+07
1.74169e+07
1.67501e+07
1.724e+07
1.73727e+07
2.10558e+07
2.02951e+07
1.84786e+07
2.04496e+07
1.98262e+07
2.44259e+07
1.75927e+07
2.46656e+07
1.75717e+07
2.4171e+07
2.49779e+07
1.76253e+07
2.17342e+07
2.11015e+07
1.76232e+07
1.77363e+07
2.16224e+07
2.1212e+07
1.77263e+07
1.81942e+07
1.83944e+07
2.39141e+07
2.58952e+07
2.01052e+07
2.52952e+07
2.34728e+07
2.16782e+07
2.07559e+07
1.91301e+07
2.22757e+07
2.12085e+07
1.72982e+07
1.77275e+07
1.75032e+07
1.67783e+07
1.72782e+07
1.77355e+07
1.69153e+07
2.01209e+07
2.05848e+07
1.75845e+07
1.77476e+07
2.00636e+07
2.06731e+07
1.7749e+07
-336527
3.73841e+06
7.34657e+06
1.91634e+06
1.03558e+07
1.5017e+07
2.16122e+06
1.86636e+06
1.00373e+07
2.81414e+06
1.28293e+07
1.21269e+07
-8.45701e+06
-1.31649e+07
-7.74656e+06
-9.77764e+06
-5.8164e+06
-5.75386e+06
-7.67994e+06
7.92508e+06
1.23437e+06
8.12365e+06
5.30664e+06
6.05419e+06
2.04278e+07
8.29466e+06
2.10068e+07
7.30433e+06
2.19253e+07
1.95574e+07
7.57714e+06
1.10488e+07
8.17444e+06
2.48147e+06
2.96056e+06
8.78533e+06
1.04004e+07
3.41634e+06
-1.07965e+07
-6.21732e+06
-1.40515e+07
-5.91207e+06
-1.40534e+07
-1.08695e+07
-5.03216e+06
3.8121e+06
5.8264e+06
-109984
1.51209e+06
3.34804e+06
6.37084e+06
501443
-3.80242e+06
-2.00782e+06
2.08241e+07
2.38394e+07
1.19649e+07
2.23203e+07
1.96001e+07
1.04089e+07
1.00823e+07
5.80332e+06
1.27398e+07
1.19314e+07
-2.48202e+06
4.44305e+06
-629752
-4.52313e+06
1.66474e+06
-1.20125e+07
-1.09286e+07
-1.19191e+07
-6.23859e+06
-1.42714e+07
-1.29544e+07
-1.00465e+07
-1.5087e+07
-2.21449e+06
-3.8529e+06
-1.67317e+07
-2.26155e+06
-1.6085e+07
-1.58265e+07
-9.53099e+06
-9.38219e+06
-1.73156e+06
-3.42871e+06
-1.92259e+06
-8.0258e+06
-1.08449e+07
6.73445e+06
1.54732e+06
7.35785e+06
-173147
9.36426e+06
988652
4.8024e+06
-4.49464e+06
-7.78087e+06
-2.59023e+06
-1.47533e+06
-1.17483e+06
-6.02494e+06
-6.34029e+06
-1.30217e+07
-1.3829e+07
-2.04434e+07
-1.07007e+07
-2.1494e+07
-2.00733e+07
-2.08219e+07
-1.36509e+07
-1.54675e+07
-8.54716e+06
-1.65316e+07
-1.5224e+07
-1.57066e+07
-1.52481e+07
-1.46474e+07
-6.51474e+06
-1.75589e+07
-1.54824e+07
-1.84348e+07
-2.21874e+07
-1.94278e+07
-9.21192e+06
-1.89151e+07
-2.17563e+07
-1.68222e+07
-2.11816e+06
-3.58521e+06
-1.72651e+07
-1.97088e+06
-1.63957e+07
-1.7672e+07
-1.7427e+07
-1.78703e+07
-2.38184e+06
-503221
-817640
-1.80858e+07
-1.72751e+07
-1.61265e+07
-1.64086e+07
-2.06999e+07
-1.10629e+07
-2.20468e+07
-2.08531e+07
-2.24741e+07
-2.25383e+07
-1.98774e+07
-1.03148e+07
-2.02463e+07
-2.28032e+07
-1.37344e+07
2.83068e+06
956455
-1.34651e+07
2.36131e+06
-1.42298e+07
-1.29999e+07
-1.66075e+07
-1.75725e+07
-1.29786e+06
-151328
233204
-1.71804e+07
-1.69885e+07
2.87897e+07
3.29776e+07
2.14681e+07
3.27997e+07
2.86861e+07
1.97704e+07
1.97809e+07
3.07515e+07
2.15241e+07
2.73745e+07
3.11888e+07
2.7671e+07
2.60275e+07
1.75513e+07
2.51693e+07
1.74811e+07
2.5513e+07
2.5671e+07
1.75064e+07
2.85083e+07
2.83697e+07
1.70609e+07
1.71591e+07
2.89637e+07
2.79718e+07
1.71549e+07
3.1152e+07
1.57933e+07
3.04507e+07
1.60058e+07
3.13105e+07
3.03404e+07
1.60072e+07
2.97519e+07
2.87509e+07
1.68324e+07
1.69584e+07
2.91036e+07
2.93812e+07
1.68368e+07
1.98579e+07
1.98513e+07
2.43449e+07
2.64864e+07
2.06305e+07
2.70665e+07
2.47639e+07
3.02971e+07
2.70496e+07
2.12974e+07
2.97977e+07
2.67e+07
-1.37754e+07
-1.66486e+07
-4.52117e+06
-1.28713e+07
-1.56979e+07
-4.94465e+06
-5.83038e+06
-9.19406e+06
-801259
-6.88232e+06
-7.92655e+06
-1.03536e+07
2.18575e+06
1.11696e+07
9.77236e+06
2.72422e+06
1.06658e+07
1.63803e+06
3.24385e+06
-3.28417e+06
-4.85878e+06
7.47865e+06
6.96356e+06
8.02121e+06
-4.38954e+06
-3.79108e+06
-1.12972e+07
3.31781e+06
-1.26458e+07
2.50381e+06
-1.21783e+07
3.82815e+06
-1.17739e+07
-6.46426e+06
-5.91728e+06
5.26219e+06
6.95305e+06
6.43055e+06
-6.94684e+06
-5.44491e+06
-4.08486e+06
-3.12572e+06
1.65146e+06
5.5307e+06
344005
593744
-863575
-8.03081e+06
-5.82989e+06
1.56594e+06
-4.76046e+06
-6.85291e+06
9.40785e+06
1.0117e+07
1.75538e+07
1.71098e+07
1.83063e+07
1.64176e+07
1.72498e+07
1.05853e+07
1.06953e+07
1.36094e+07
1.16403e+07
1.16592e+07
5.44276e+06
1.16802e+07
1.13855e+07
3.79512e+06
1.21936e+07
4.34077e+06
4.86221e+06
1.06138e+07
1.09839e+07
1.39238e+07
1.50229e+07
1.4575e+07
9.99066e+06
1.15824e+07
8.6771e+06
7.99239e+06
2.70776e+06
7.84577e+06
1.53293e+06
3.75508e+06
2.70477e+06
9.49654e+06
9.73871e+06
1.15247e+07
8.77497e+06
8.3879e+06
1.86639e+07
1.87535e+07
1.77978e+07
1.90488e+07
1.82376e+07
1.80847e+07
1.94754e+07
1.35902e+07
1.19644e+07
1.53557e+07
1.54765e+07
1.59355e+07
1.29549e+07
1.25859e+07
-2.59921e+07
-2.16636e+07
-3.04775e+07
-2.98737e+07
-2.54429e+07
-3.05174e+07
-2.54305e+07
1.74696e+07
1.79744e+07
3.63692e+07
3.47847e+07
3.64519e+07
3.62138e+07
3.47738e+07
3.64202e+07
3.13533e+07
2.59545e+07
2.96038e+07
2.83703e+07
3.26328e+07
3.10545e+07
2.89331e+07
3.40987e+07
1.13873e+07
1.0503e+07
2.61535e+07
2.77205e+07
2.77489e+07
3.03713e+07
2.89087e+07
2.91801e+07
3.89759e+07
3.6453e+07
3.57676e+07
3.91065e+07
3.93861e+07
3.57231e+07
3.65922e+07
3.90901e+07
1.71624e+07
1.69988e+07
1.63478e+07
1.74605e+07
1.71624e+07
1.94346e+07
1.83574e+07
1.86721e+07
2.70395e+07
2.64263e+07
2.75922e+07
2.62216e+07
2.59327e+07
2.47941e+07
2.50255e+07
2.538e+07
1.88786e+07
1.91463e+07
2.83303e+07
2.653e+07
2.76677e+07
2.61709e+07
2.58785e+07
2.69749e+07
1.78417e+07
1.79006e+07
1.80194e+07
1.77481e+07
1.83928e+07
1.89851e+07
1.85425e+07
1.87698e+07
-2.79772e+07
3.75224e+07
4.07999e+07
2.63543e+07
2.56684e+07
2.11112e+07
2.21279e+07
-2.20533e+07
-1.87884e+07
-1.01846e+07
-1.30817e+07
-6.366e+06
-6.00886e+06
-2.68533e+06
-3.39107e+06
3.26374e+07
2.97058e+07
2.24475e+07
2.50069e+07
5.37932e+06
3.36207e+06
9.29909e+06
3.4337e+07
3.26181e+07
3.73114e+07
3.0659e+07
-2.15599e+07
-1.04958e+07
-1.73304e+07
-1.41448e+07
-1.63364e+07
-7.02584e+06
-9.35977e+06
-1.32136e+07
2.58729e+07
2.50627e+07
2.79406e+07
2.23523e+07
2.38269e+07
1.80822e+07
2.11208e+07
2.14511e+07
-1.63716e+07
-2.1779e+07
-2.06081e+07
-1.69311e+07
-1.18631e+07
-8.93779e+06
-1.35527e+07
-7.88622e+06
2.83679e+06
4.38888e+06
2.44715e+07
2.33752e+07
2.25878e+07
1.83036e+07
2.16461e+07
2.05738e+07
1.58892e+06
-6.34164e+06
-1.9912e+06
-6.96975e+06
-5.48004e+06
-9.2375e+06
-8.56302e+06
-5.41302e+06
-1.07501e+07
-7.33542e+06
-5.00484e+06
-1.20389e+07
-9.25365e+06
-2.01903e+06
-4.68882e+06
-7.61929e+06
2.29015e+07
2.98919e+07
2.53924e+07
2.63799e+07
1.89477e+07
1.8746e+07
2.29893e+07
1.5763e+07
-1.58068e+07
-1.62869e+07
-3.16452e+07
-3.03218e+07
-3.07659e+07
-2.84208e+07
-2.94966e+07
-2.97085e+07
2.95085e+07
2.98661e+07
3.2703e+07
3.26487e+07
3.81831e+07
3.93579e+07
3.94358e+07
3.8405e+07
-8.64805e+06
-8.66371e+06
-1.03362e+07
-1.06237e+07
-9.40441e+06
-1.08502e+07
-1.19379e+07
-1.06271e+07
2.82737e+07
2.9654e+07
3.13421e+07
2.99026e+07
3.89222e+07
3.76293e+07
3.67996e+07
3.8166e+07
7.32736e+06
5.7164e+06
3.27613e+06
4.93782e+06
-9.4558e+06
-7.87851e+06
-6.11997e+06
-7.78383e+06
-1.35467e+07
-1.29453e+07
-2.75005e+07
-2.63641e+07
-2.85322e+07
-3.02795e+07
-2.73247e+07
-2.94781e+07
-1.41622e+07
-7.3398e+06
-1.31224e+07
-9.37975e+06
-1.48775e+07
-1.08085e+07
-9.07702e+06
-1.56006e+07
-1.70721e+07
-1.71874e+07
-3.23613e+07
-3.18819e+07
-3.29189e+07
-3.35523e+07
-3.21262e+07
-3.33505e+07
-1.39734e+07
-9.32464e+06
-8.98495e+06
-1.34484e+07
-1.48581e+07
-1.0015e+07
-1.05524e+07
-1.51931e+07
3.63188e+07
3.44079e+07
3.61287e+07
1.94096e+07
1.93607e+07
3.41709e+07
3.55617e+07
3.59349e+07
2.92692e+07
2.76739e+07
2.87261e+07
2.78658e+07
3.04146e+07
2.92815e+07
2.91509e+07
3.09415e+07
3.84881e+07
3.54809e+07
3.85104e+07
3.60092e+07
3.77442e+07
3.52912e+07
3.49175e+07
3.75967e+07
1.96793e+07
1.97151e+07
2.9067e+07
2.8432e+07
2.9742e+07
3.10098e+07
2.90402e+07
3.04399e+07
-2.64533e+07
-2.31599e+07
-2.53118e+07
-8.36397e+06
-9.22829e+06
-2.19957e+07
-2.28898e+07
-2.41674e+07
3.68155e+06
6.86327e+06
6.40249e+06
4.72514e+06
2.17151e+06
4.16668e+06
4.56553e+06
1.16893e+06
-1.17601e+07
-7.65101e+06
-7.84872e+06
-1.23666e+07
-1.05394e+07
-6.11614e+06
-6.07254e+06
-9.78403e+06
-454458
396148
-6.35049e+06
-6.09913e+06
-7.78477e+06
-1.05928e+07
-7.47155e+06
-9.22081e+06
2.79843e+07
2.66532e+07
2.50825e+07
2.63256e+07
1.81827e+07
1.83812e+07
1.94893e+07
1.88432e+07
8.1113e+06
9.67397e+06
1.1927e+07
1.04464e+07
2.24985e+07
2.19935e+07
2.03786e+07
2.13009e+07
1.17466e+07
1.16594e+07
1.30979e+07
1.3546e+07
1.23239e+07
1.04551e+07
1.26408e+07
1.12065e+07
7.22329e+06
8.62636e+06
6.23884e+06
9.09399e+06
8.68633e+06
1.12815e+07
1.07846e+07
9.68623e+06
5.60009e+06
4.7237e+06
-4.9319e+06
-2.03048e+06
-3.53603e+06
-751395
-706451
-2.17912e+06
2.02619e+07
2.0081e+07
1.93759e+07
2.07575e+07
1.97002e+07
2.11739e+07
1.99677e+07
2.10902e+07
2.21866e+07
2.18233e+07
2.15827e+07
2.02394e+07
2.01843e+07
2.09416e+07
1.94542e+07
-1.38484e+07
-1.71228e+07
-1.69126e+07
1.7075e+07
1.66132e+07
3.47556e+07
3.39826e+07
3.5319e+07
3.60315e+07
3.43048e+07
3.57395e+07
2.97652e+07
2.91649e+07
2.97637e+07
2.08869e+07
3.31004e+07
2.8685e+07
3.31793e+07
2.8787e+07
2.90974e+07
2.95927e+07
2.97077e+07
2.84566e+07
2.81977e+07
2.88463e+07
2.005e+07
3.29648e+07
2.85234e+07
3.27347e+07
2.82918e+07
2.8536e+07
2.94113e+07
2.91676e+07
2.56483e+07
1.00886e+07
2.56653e+07
1.08346e+07
2.66651e+07
2.46797e+07
1.02538e+07
3.68138e+07
3.46949e+07
3.77535e+07
3.3134e+07
3.62092e+07
3.1319e+07
3.50221e+07
3.31462e+07
2.83518e+07
1.17961e+07
2.65577e+07
1.13847e+07
2.75644e+07
2.73496e+07
1.19023e+07
1.23718e+07
1.3265e+07
3.41709e+07
3.24473e+07
3.34041e+07
3.15423e+07
3.17315e+07
3.2555e+07
2.22586e+07
2.27084e+07
2.33684e+07
1.56315e+07
2.86188e+07
2.47251e+07
2.75869e+07
2.38943e+07
2.37179e+07
2.52868e+07
2.43765e+07
2.79915e+07
2.67896e+07
2.74454e+07
1.77024e+07
2.95096e+07
2.54736e+07
3.02785e+07
2.61294e+07
2.61641e+07
2.60988e+07
2.68169e+07
3.13919e+07
1.50046e+07
3.03434e+07
1.47286e+07
3.04692e+07
3.12966e+07
1.50227e+07
3.87566e+07
3.44402e+07
3.80593e+07
3.57678e+07
3.87959e+07
3.6387e+07
3.92849e+07
3.52987e+07
3.08622e+07
1.40122e+07
3.01542e+07
1.44049e+07
2.98892e+07
3.11222e+07
1.40551e+07
1.73441e+07
1.77068e+07
2.24601e+07
2.1141e+07
2.17886e+07
2.02757e+07
2.04383e+07
2.10979e+07
1.69305e+07
1.69701e+07
1.73555e+07
1.75606e+07
1.85583e+07
1.83566e+07
1.78977e+07
1.78274e+07
1.76535e+07
1.84478e+07
1.78706e+07
2.05884e+07
1.98828e+07
2.00744e+07
1.82522e+07
1.92088e+07
1.88648e+07
1.9832e+07
1.93439e+07
1.93771e+07
1.90117e+07
1.95526e+07
2.38917e+07
1.75945e+07
2.31443e+07
1.76829e+07
2.33612e+07
2.36617e+07
1.76573e+07
2.2767e+07
2.21014e+07
2.22579e+07
2.23731e+07
2.3777e+07
2.36743e+07
2.43077e+07
2.34138e+07
2.22773e+07
1.76197e+07
2.26397e+07
1.77034e+07
2.28244e+07
2.21318e+07
1.77178e+07
1.87723e+07
1.86368e+07
2.32605e+07
2.31969e+07
2.39908e+07
2.54823e+07
2.38779e+07
2.47644e+07
2.45256e+07
2.37702e+07
2.4052e+07
1.99255e+07
2.41e+07
2.25822e+07
2.4683e+07
2.30312e+07
2.33118e+07
2.30947e+07
2.35744e+07
2.10997e+07
2.13925e+07
2.16067e+07
1.93357e+07
2.3493e+07
2.213e+07
2.28716e+07
2.16699e+07
2.18905e+07
2.26028e+07
2.21087e+07
1.78597e+07
1.7497e+07
1.84459e+07
1.7742e+07
1.78431e+07
1.84855e+07
1.77239e+07
2.082e+07
2.11564e+07
2.1297e+07
2.0903e+07
1.99388e+07
1.981e+07
1.95227e+07
2.00496e+07
1.95831e+07
1.75672e+07
1.8998e+07
1.77445e+07
1.95346e+07
1.90404e+07
1.77463e+07
9.6978e+06
1.14438e+07
1.71532e+07
1.57917e+07
4.97315e+06
2.82895e+06
-4.7843e+06
-2.24435e+06
6.18499e+06
4.77132e+06
349418
1.36272e+06
9.93624e+06
1.17559e+07
1.80512e+07
1.58277e+07
275079
837362
2.83688e+06
-1.08658e+07
-8.25735e+06
-7.97241e+06
-5.82257e+06
-3.36341e+06
-779322
-6.50975e+06
-3.25113e+06
-5.50115e+06
-2.48473e+06
-5.17996e+06
-1.18829e+07
-9.72161e+06
4.69025e+06
5.45728e+06
1.47492e+06
-5.56886e+06
2.54012e+06
-1.9591e+06
-431355
-343295
1.59992e+06
2.55169e+06
3.87157e+06
7.21447e+06
4.49534e+06
4.9556e+06
109132
2.16496e+06
2.59089e+06
1.3385e+07
7.46293e+06
1.11671e+07
1.03431e+07
1.62619e+07
1.64975e+07
1.89807e+07
1.31303e+07
1.88245e+07
6.50807e+06
1.62667e+07
6.02578e+06
1.70832e+07
1.79821e+07
6.81568e+06
1.31918e+07
3.90473e+06
1.44403e+07
5.19647e+06
1.52095e+07
1.24821e+07
4.33003e+06
-7.63592e+06
-4.68808e+06
-4.8356e+06
-2.72708e+06
-7.79727e+06
-4.57806e+06
-3.86622e+06
3.65626e+06
5.14392e+06
1.12055e+06
7.02057e+06
-79905.1
-5.89413e+06
-3.75631e+06
-1.55878e+06
1.14229e+06
-1.20211e+06
-1.99005e+06
-1.61935e+06
739156
-1.65316e+06
-545460
1.34216e+06
-249532
7.81854e+06
1.32935e+07
1.07001e+07
1.59664e+07
1.56031e+07
1.34403e+07
2.1039e+07
1.90881e+07
1.97119e+07
1.08739e+07
1.89118e+07
1.68541e+07
2.06767e+07
1.82808e+07
1.76601e+07
1.67293e+07
1.82758e+07
9.35303e+06
1.08424e+07
1.1376e+07
7.17872e+06
1.69941e+07
1.53198e+07
1.49175e+07
1.36754e+07
1.27243e+07
1.50592e+07
1.32748e+07
-2.16331e+06
-6.2768e+06
-4.4736e+06
-1.91415e+06
-8.2575e+06
-3.45812e+06
-6.44995e+06
-972480
-8.38952e+06
-8.71245e+06
-6.65455e+06
-8.41157e+06
-9.69775e+06
-1.93867e+07
-1.90481e+07
-1.6996e+07
-1.15606e+07
-1.68584e+07
-1.43831e+07
-5.28333e+06
-9.94308e+06
-5.80244e+06
-1.15164e+07
-7.9936e+06
-1.55588e+07
-1.54998e+07
-1.40554e+07
-1.06244e+07
-1.39178e+07
-1.24047e+07
-1.49624e+06
5.9745e+06
2.64803e+06
788946
-3.78978e+06
-1.36742e+06
-5.72034e+06
1.61783e+06
-1.42575e+07
-3.86094e+06
-2.26151e+06
-1.43931e+07
-2.27587e+06
-1.33092e+07
-1.53083e+07
-1.09248e+07
-3.60675e+06
-2.1915e+06
-1.33557e+07
-2.06958e+06
-1.21955e+07
-1.21718e+07
4.20532e+06
-755580
-21736.9
54910.1
459674
2.36493e+06
1.80436e+06
6.10959e+06
7.3395e+06
1.09842e+07
3.53887e+06
9.28723e+06
1.66659e+07
1.21968e+07
1.27015e+07
-2.53806e+06
-2.20183e+06
-454129
-2.11023e+06
-830848
-4.13102e+06
-438076
-1.52765e+07
-1.46006e+07
-2.16129e+07
-2.45621e+07
-2.35898e+07
-2.7019e+07
-2.60571e+07
-2.54159e+07
-2.27568e+07
-2.32764e+07
-2.2303e+07
-1.04342e+07
-1.90086e+07
-1.90177e+07
-1.95986e+07
-1.99782e+07
-2.2752e+07
-2.10303e+07
-2.17223e+07
-1.69216e+07
-1.94044e+07
-1.81499e+07
-9.14378e+06
-1.83054e+07
-1.78992e+07
-1.74771e+07
-1.66299e+07
-2.04359e+07
-2.02036e+07
-1.92401e+07
3.65413e+07
3.70052e+07
3.51174e+07
3.49113e+07
3.83108e+07
3.76277e+07
3.82186e+07
3.90992e+07
-1.19129e+07
-1.26766e+07
-1.19174e+07
-1.14176e+07
-1.29046e+07
-1.19021e+07
-1.14404e+07
-1.26546e+07
3.4505e+07
3.30181e+07
3.14776e+07
3.2973e+07
3.44467e+07
3.59027e+07
3.71301e+07
3.57248e+07
-1.48608e+06
255700
2.60681e+06
848588
-2.01188e+06
-3.7226e+06
-5.82351e+06
-4.16363e+06
-1.41733e+07
-1.47111e+07
-3.28594e+07
-3.04082e+07
-3.2377e+07
-3.10759e+07
-2.97668e+07
-3.17847e+07
-1.71703e+07
-1.85054e+07
-1.80374e+07
-7.11991e+06
-1.70161e+07
-1.99623e+07
-1.62783e+07
-1.92268e+07
-1.93413e+07
-1.96321e+07
-1.88552e+07
-2.20926e+07
-2.21409e+07
-2.15768e+07
-8.74004e+06
-1.77097e+07
-2.06315e+07
-1.83487e+07
-2.12279e+07
-2.15299e+07
-2.03448e+07
-2.09894e+07
-1.71772e+07
-3.40643e+06
-1.61247e+06
-1.81538e+07
-1.80548e+06
-1.74261e+07
-1.79765e+07
-1.65478e+07
-1.20401e+07
-1.08504e+07
-1.67625e+07
-1.64596e+07
-1.02354e+07
-1.59708e+07
-1.17e+07
-1.75202e+07
-2.68605e+06
-1.37878e+06
-1.82372e+07
-1.09804e+06
-1.75323e+07
-1.82126e+07
-1.69509e+07
-1.67042e+07
-3.32633e+07
-3.18057e+07
-3.35062e+07
-3.36798e+07
-3.20666e+07
-3.36724e+07
-2.30908e+07
-2.41496e+07
-2.33085e+07
-1.10311e+07
-2.08809e+07
-2.29423e+07
-2.09149e+07
-2.27644e+07
-2.4221e+07
-2.34377e+07
-2.34207e+07
-2.25258e+07
-2.35389e+07
-2.28867e+07
-1.05813e+07
-2.07509e+07
-2.29992e+07
-2.05372e+07
-2.29417e+07
-2.38396e+07
-2.33422e+07
-2.31553e+07
-1.44502e+07
470384
1.45022e+06
-1.56109e+07
1.90347e+06
-1.49436e+07
-1.51124e+07
-1.65751e+07
-1.09948e+07
-1.19511e+07
-1.6531e+07
-1.60812e+07
-1.14423e+07
-1.58955e+07
-1.07172e+07
-1.61826e+07
-880900
1.02494e+06
-1.62056e+07
622456
-1.67204e+07
-1.56867e+07
2.97175e+07
2.90785e+07
2.96249e+07
2.15339e+07
3.22831e+07
2.83857e+07
3.25683e+07
2.85577e+07
2.89523e+07
2.93034e+07
2.94845e+07
1.96008e+07
1.97379e+07
3.39026e+07
3.27518e+07
3.44342e+07
3.52526e+07
3.31637e+07
3.48768e+07
2.15628e+07
3.1961e+07
2.81812e+07
3.1593e+07
2.79332e+07
2.82256e+07
2.80723e+07
2.85393e+07
2.9084e+07
2.83528e+07
2.8831e+07
3.36603e+07
3.19243e+07
3.19521e+07
3.40832e+07
3.25466e+07
3.05917e+07
3.20703e+07
3.06554e+07
2.65601e+07
1.74298e+07
2.66273e+07
1.73962e+07
2.70788e+07
2.61636e+07
1.74521e+07
2.80483e+07
1.72394e+07
2.70918e+07
1.73275e+07
2.7576e+07
2.75393e+07
1.7249e+07
3.09614e+07
1.62065e+07
2.99612e+07
1.639e+07
3.01729e+07
3.07314e+07
1.62062e+07
3.54863e+07
3.32173e+07
3.30964e+07
3.51277e+07
3.64517e+07
3.41096e+07
3.67194e+07
3.43559e+07
3.01122e+07
1.67018e+07
2.97104e+07
1.65546e+07
2.94201e+07
3.04452e+07
1.67004e+07
1.97951e+07
1.98784e+07
3.34395e+07
3.13058e+07
3.28684e+07
3.16834e+07
3.07695e+07
3.23116e+07
2.49882e+07
2.51231e+07
2.54437e+07
2.07845e+07
2.82154e+07
2.55837e+07
2.76381e+07
2.51806e+07
2.55477e+07
2.63268e+07
2.58897e+07
2.78854e+07
2.7121e+07
2.75255e+07
2.11887e+07
2.87606e+07
2.59734e+07
2.92714e+07
2.63423e+07
2.67606e+07
2.6743e+07
2.71428e+07
-1.62558e+07
-1.57334e+07
-1.53055e+07
-3.79976e+06
-1.0964e+07
-1.36497e+07
-1.19335e+07
-1.46943e+07
-1.47365e+07
-1.33043e+07
-1.4315e+07
-7.55208e+06
-6.67141e+06
-1.76477e+07
-1.69626e+07
-1.90228e+07
-2.16345e+07
-1.82719e+07
-2.03541e+07
-1.56534e+06
-9.97187e+06
-1.25773e+07
-8.96428e+06
-1.14702e+07
-8.99191e+06
-1.04915e+07
-1.00982e+07
-1.22552e+07
-1.15815e+07
-1.11826e+07
-2.89824e+06
-218162
48604.6
-3.83472e+06
-1.36171e+06
2.28312e+06
-354837
1.9286e+06
1.0815e+06
9.21658e+06
9.61102e+06
-539798
1.01445e+07
-41552.1
545244
-2.20222e+06
7.53303e+06
9.08558e+06
-1.63409e+06
8.56538e+06
-1.13174e+06
-2.71778e+06
-1.0411e+07
3.04369e+06
4.84322e+06
-9.94411e+06
4.3323e+06
-1.08722e+07
-9.49117e+06
-6.23231e+06
-2.12769e+06
-2.31429e+06
-5.30404e+06
-7.62708e+06
-4.28132e+06
-8.45106e+06
-4.21221e+06
-7.4991e+06
4.70573e+06
5.36485e+06
-8.97286e+06
5.90266e+06
-7.96261e+06
-8.51196e+06
-1.37524e+06
-2.24545e+06
-1.62904e+07
-1.2949e+07
-1.48625e+07
-1.20384e+07
-1.1593e+07
-1.34728e+07
70093.1
-1.44523e+06
-1.0567e+06
4.74047e+06
-1.54766e+06
-3.26017e+06
-476083
-2.04812e+06
-2.58071e+06
-3.3321e+06
-2.186e+06
-7.8687e+06
-7.13207e+06
-6.74106e+06
2.36083e+06
-2.62109e+06
-4.45762e+06
-3.69018e+06
-5.64816e+06
-5.99558e+06
-4.46936e+06
-5.60359e+06
2.21798e+07
2.32335e+07
2.47181e+07
2.35753e+07
2.18422e+07
2.08795e+07
1.96986e+07
2.05877e+07
1.61284e+07
1.48868e+07
1.27461e+07
1.40723e+07
1.68811e+07
1.80511e+07
1.98358e+07
1.87086e+07
1.13505e+07
1.07011e+07
5.76362e+06
8.09229e+06
6.97852e+06
9.36651e+06
9.22878e+06
8.15585e+06
1.68996e+07
1.51145e+07
1.58161e+07
1.6447e+07
1.4474e+07
1.49391e+07
1.54972e+07
1.6104e+07
1.41963e+07
1.36562e+07
1.4756e+07
9.67382e+06
1.02368e+07
1.06738e+07
1.43047e+07
1.35234e+07
1.38335e+07
1.25681e+07
1.27444e+07
1.12006e+07
1.26554e+07
1.16592e+07
6.48893e+06
1.19177e+07
1.31638e+07
6.95035e+06
1.26865e+07
7.51507e+06
5.90675e+06
1.33526e+07
1.53829e+07
1.48752e+07
1.4292e+07
1.20433e+07
1.28703e+07
1.1098e+07
1.33648e+07
9.60153e+06
1.34353e+07
1.3639e+07
7.96848e+06
1.41223e+07
8.55596e+06
8.9839e+06
6.38162e+06
7.20533e+06
4.49129e+06
4.44815e+06
3.23071e+06
580478
3.18305e+06
1.90104e+06
1.19133e+06
1.90127e+06
2.30405e+06
8.60903e+06
5.79918e+06
5.02238e+06
4.783e+06
3.8784e+06
2.99759e+06
4.47789e+06
3.40268e+06
8.67048e+06
7.22682e+06
7.64197e+06
1.0813e+07
6.80631e+06
6.16277e+06
7.80106e+06
7.29556e+06
6.19647e+06
5.55045e+06
6.6081e+06
1.7644e+07
1.73101e+07
1.72647e+07
1.5924e+07
1.77732e+07
1.70344e+07
1.65355e+07
1.64125e+07
1.6752e+07
1.7245e+07
1.55619e+07
1.7606e+07
1.897e+07
1.84204e+07
1.84955e+07
1.45565e+07
1.58313e+07
1.68234e+07
1.49162e+07
1.63785e+07
1.39313e+07
1.55421e+07
1.83143e+07
1.91881e+07
1.97484e+07
1.85741e+07
1.89924e+07
1.90729e+07
1.83732e+07
1.999e+07
1.88444e+07
1.94536e+07
1.74857e+07
1.80111e+07
1.82627e+07
1.72559e+07
1.76245e+07
1.80113e+07
1.71067e+07
1.908e+07
1.91072e+07
1.90135e+07
2.03513e+07
1.95642e+07
1.86183e+07
1.99081e+07
-2.3268e+07
-5.11455e+06
-7.24117e+06
-2.20307e+07
-3.82502e+06
-2.01444e+07
-2.57776e+07
2.49603e+07
1.36798e+07
2.31421e+07
1.1578e+07
2.40733e+07
1.19025e+07
2.45713e+07
2.66075e+07
2.69613e+07
1.22765e+07
1.30498e+07
1.48058e+07
2.57913e+07
2.72549e+07
3.26398e+07
1.72116e+07
1.70154e+07
3.23699e+07
1.87697e+07
3.22847e+07
3.2332e+07
3.23099e+07
3.21575e+07
1.67149e+07
1.84038e+07
1.6781e+07
3.23486e+07
3.25338e+07
2.46382e+07
1.91781e+07
2.54092e+07
1.85587e+07
2.53385e+07
1.82914e+07
2.48991e+07
2.41888e+07
2.3765e+07
1.85781e+07
1.8273e+07
1.90658e+07
2.42765e+07
2.35101e+07
1.81925e+07
1.88182e+07
1.8513e+07
1.74847e+07
1.88359e+07
1.75733e+07
1.79497e+07
1.85895e+07
1.89513e+07
1.8472e+07
1.8514e+07
1.82885e+07
1.85086e+07
1.89319e+07
2.54675e+07
7.9368e+06
7.49645e+06
2.30429e+07
6.23571e+06
2.29036e+07
2.61794e+07
2.10287e+07
1.06079e+07
2.16524e+07
9.60824e+06
2.21404e+07
1.23814e+07
1.99707e+07
1.88073e+07
1.62269e+07
1.09286e+07
8.74516e+06
9.15294e+06
1.74268e+07
1.81917e+07
-1.30375e+07
-1.3196e+06
-1.82563e+07
-3.54331e+06
-1.59536e+07
-2.71847e+06
-1.469e+07
-9.07055e+06
-7.82417e+06
-2.20498e+06
-398445
1.09643e+06
-1.11537e+07
-6.38477e+06
-8.04507e+06
3.03076e+06
1.52568e+06
-9.65953e+06
755640
-8.54534e+06
-8.67203e+06
-6.56127e+06
-6.36923e+06
860029
1.68008e+06
3.09343e+06
-5.85648e+06
-7.61079e+06
1.71013e+07
4.98781e+06
1.9895e+07
5.69201e+06
1.94049e+07
6.80862e+06
1.69848e+07
1.38304e+07
1.14199e+07
4.99396e+06
5.8129e+06
3.86732e+06
1.40923e+07
1.17419e+07
-9.9528e+06
827981
1.68951e+06
-1.04379e+07
3.10529e+06
-9.74123e+06
-1.11441e+07
-1.08974e+07
-1.21484e+07
1.69472e+06
3.32244e+06
1.05624e+06
-1.1666e+07
-1.09294e+07
-9.18784e+06
6.82157e+06
5.04716e+06
-9.54188e+06
4.79321e+06
-8.2966e+06
-1.01148e+07
-9.50148e+06
-1.12469e+07
4.70678e+06
3.96514e+06
6.02425e+06
-1.07795e+07
-1.03398e+07
2.65008e+07
1.82995e+07
2.60369e+07
1.8564e+07
2.57761e+07
1.9275e+07
2.65492e+07
2.69175e+07
2.7656e+07
1.93656e+07
1.85208e+07
1.82909e+07
2.76408e+07
2.71694e+07
3.20165e+07
1.9044e+07
3.22153e+07
1.7554e+07
3.24604e+07
1.75426e+07
3.21397e+07
3.20566e+07
3.16715e+07
1.77602e+07
1.78058e+07
1.92349e+07
3.18629e+07
3.15177e+07
5.50635e+06
1.41696e+07
1.25505e+07
5.67645e+06
1.28149e+07
6.64145e+06
4.70066e+06
4.6006e+06
2.58136e+06
1.18118e+07
1.20975e+07
1.3233e+07
3.39423e+06