/*--------------------------------*- C++ -*----------------------------------*\
| =========                 |                                                 |
| \\      /  F ield         | OpenFOAM: The Open Source CFD Toolbox           |
|  \\    /   O peration     | Version:  2012                                  |
|   \\  /    A nd           | Website:  www.openfoam.com                      |
|    \\/     M anipulation  |                                                 |
\*---------------------------------------------------------------------------*/
FoamFile
{
    version     2.0;
    format      ascii;
    class       volScalarField;
    location    "0.108/solid";
    object      sigmaDiff;
}
// * * * * * * * * * * * * * * * * * * * * * * * * * * * * * * * * * * * * * //

dimensions      [1 -1 -2 0 0 0 0];


internalField   nonuniform List<scalar> 
3125
(
-9.33642e+07
-4.81075e+07
-4.42843e+07
-1.98619e+07
-1.09594e+07
-1.00099e+08
-4.82747e+07
-8.35067e+07
-5.27481e+07
-8.89638e+07
-5.22145e+07
-4.81589e+07
-2.28878e+07
-4.23523e+07
-2.75184e+07
-4.62349e+07
-1.08389e+07
-1.0898e+07
-2.4775e+07
-1.108e+07
-7.17036e+07
-5.76017e+07
-2.9174e+07
-3.38206e+07
-2.9548e+07
-4.83205e+07
-2.45247e+07
-3.89637e+07
-3.44451e+07
-2.00733e+07
-4.78921e+07
-2.39357e+07
-6.66968e+06
-8.50614e+06
-1.04134e+07
-1.16201e+07
-6.66927e+06
-1.50703e+07
-9.31388e+06
-8.03891e+06
-9.83101e+06
-6.16908e+06
-6.22792e+07
-5.098e+07
-6.87883e+07
-5.14325e+07
-5.52545e+07
-3.04834e+07
-3.94261e+07
-5.52732e+07
-6.03861e+07
-4.10919e+07
-3.98243e+07
-4.94698e+07
-5.90981e+07
-4.58583e+07
-5.95846e+07
-3.62404e+07
-3.72534e+07
-4.84265e+07
-6.45363e+07
-3.78407e+07
-4.55403e+07
-4.52336e+07
-4.0351e+07
-4.50592e+07
-3.62656e+07
-5.19322e+07
-3.5385e+07
-4.57578e+07
-4.54287e+07
-3.12733e+07
-5.15588e+07
-3.50758e+07
-2.84389e+07
-2.28155e+07
-3.19994e+07
-1.09873e+07
-1.5011e+07
-1.95217e+07
-3.48877e+07
-1.55992e+07
-1.59415e+07
-2.19755e+07
-3.94296e+07
-3.1585e+07
-3.57655e+07
-1.66643e+07
-2.3531e+07
-3.05569e+07
-3.86463e+07
-2.44899e+07
-2.1338e+07
-3.03552e+07
-6.72391e+06
-1.0387e+07
-1.57068e+07
-1.69612e+07
-9.28797e+06
-2.00666e+07
-1.15065e+07
-8.26209e+06
-1.4586e+07
-8.46761e+06
-5.00613e+07
-6.11004e+07
-2.46832e+07
-2.74744e+07
-3.09664e+07
-4.82716e+07
-2.84805e+07
-3.82404e+07
-3.56769e+07
-2.13784e+07
-4.58744e+07
-2.30949e+07
-5.03013e+06
-5.22537e+06
-1.05664e+07
-1.69301e+07
-8.74818e+06
-1.10039e+07
-9.11524e+06
-9.45643e+06
-7.63617e+06
-4.88603e+06
-3.34867e+07
-6.1741e+07
-4.94813e+07
-4.76851e+07
-4.92859e+07
-3.18913e+07
-3.53492e+07
-5.85365e+07
-7.46291e+07
-5.14121e+07
-3.90562e+07
-4.1455e+07
-3.29757e+07
-3.24455e+07
-5.39425e+07
-3.70482e+07
-3.87306e+07
-5.87362e+07
-7.92437e+07
-5.10624e+07
-3.3491e+07
-3.35383e+07
-2.66707e+07
-2.86812e+07
-3.66697e+07
-5.20823e+07
-3.55449e+07
-3.33935e+07
-3.28032e+07
-2.9937e+07
-4.96911e+07
-3.17894e+07
-2.37511e+07
-2.10431e+07
-2.59557e+07
-1.1212e+07
-1.31463e+07
-2.08051e+07
-4.0111e+07
-1.89884e+07
-1.16554e+07
-1.37614e+07
-2.59555e+07
-2.36828e+07
-3.02255e+07
-1.69689e+07
-1.95819e+07
-2.92897e+07
-4.39791e+07
-2.7075e+07
-1.37654e+07
-1.6264e+07
-6.86102e+06
-9.02617e+06
-2.43747e+06
-3.95413e+06
-1.61188e+07
-2.20964e+07
-1.35738e+07
-1.29508e+07
-1.05398e+07
-9.67294e+06
-1.00081e+07
-7.00063e+06
-5.9911e+07
-6.04165e+07
-3.11815e+07
-2.83848e+07
-2.0997e+07
-3.12709e+07
-2.33797e+07
-2.69596e+07
-3.19618e+07
-2.42329e+07
-3.06378e+07
-2.71354e+07
-2.80707e+07
-4.84175e+07
-2.58897e+07
-2.78025e+07
-2.64224e+07
-2.53634e+07
-2.73436e+07
-3.20928e+07
-3.47963e+07
-3.57329e+07
-3.68542e+07
-3.2204e+07
-2.79489e+07
-3.6223e+07
-3.10972e+07
-2.0755e+07
-2.17038e+07
-2.24762e+07
-4.70821e+07
-2.53362e+07
-2.36412e+07
-2.22718e+07
-2.47725e+07
-2.30365e+07
-6.33339e+06
-5.27884e+06
-4.38873e+06
-5.53178e+06
-5.06011e+06
-6.15291e+06
-6.21433e+06
-5.15988e+06
-1.0235e+07
-8.76632e+06
-8.46545e+06
-1.4139e+07
-6.52998e+06
-8.14868e+06
-8.21483e+06
-6.31622e+06
-7.90059e+06
-6.85226e+06
-8.52048e+06
-1.01752e+07
-1.25545e+07
-8.58391e+06
-6.63287e+06
-1.17203e+07
-8.08895e+06
-9.01356e+06
-4.56198e+06
-4.65798e+06
-8.57564e+06
-6.01681e+06
-4.95864e+06
-4.84973e+06
-5.82647e+06
-4.73215e+06
-4.44354e+07
-5.91039e+07
-5.83779e+07
-6.0646e+07
-5.38272e+07
-4.50954e+07
-4.70669e+07
-5.8155e+07
-4.78904e+07
-5.23315e+07
-5.1549e+07
-4.13902e+07
-3.66737e+07
-3.16101e+07
-3.37567e+07
-3.51229e+07
-4.11812e+07
-3.50372e+07
-3.64689e+07
-5.79717e+07
-4.86915e+07
-5.10192e+07
-6.68727e+07
-4.31683e+07
-4.91854e+07
-4.66524e+07
-4.29401e+07
-4.88628e+07
-4.43818e+07
-4.21918e+07
-3.69765e+07
-4.30628e+07
-4.0875e+07
-4.64355e+07
-4.44537e+07
-4.22271e+07
-4.27536e+07
-5.14597e+07
-3.90697e+07
-3.29351e+07
-3.25105e+07
-4.95793e+07
-3.70846e+07
-3.82885e+07
-5.61599e+07
-4.24671e+07
-3.94239e+07
-3.68402e+07
-3.62824e+07
-3.8229e+07
-4.14056e+07
-3.6354e+07
-3.88113e+07
-5.62951e+07
-4.23446e+07
-4.91142e+07
-7.10738e+07
-4.37778e+07
-4.89359e+07
-4.08721e+07
-4.25441e+07
-4.71878e+07
-3.30911e+07
-3.34655e+07
-3.66324e+07
-4.48788e+07
-3.67976e+07
-3.69363e+07
-4.47534e+07
-3.68168e+07
-3.09145e+07
-2.9289e+07
-2.92387e+07
-4.28158e+07
-3.14363e+07
-3.3858e+07
-4.34931e+07
-3.21054e+07
-3.65286e+07
-3.61413e+07
-3.55592e+07
-5.20444e+07
-3.41114e+07
-3.5255e+07
-3.60554e+07
-3.41826e+07
-3.52807e+07
-3.13691e+07
-3.25055e+07
-3.65094e+07
-4.60645e+07
-3.58725e+07
-3.43504e+07
-4.6027e+07
-3.55499e+07
-2.99027e+07
-3.32298e+07
-3.18164e+07
-5.08458e+07
-3.37411e+07
-3.22876e+07
-3.37636e+07
-3.38073e+07
-3.23384e+07
-2.02596e+07
-2.61208e+07
-1.81459e+07
-1.76291e+07
-2.01678e+07
-2.53051e+07
-1.55111e+07
-1.74791e+07
-2.9011e+07
-1.57844e+07
-1.38186e+07
-1.08441e+07
-1.26953e+07
-1.27282e+07
-1.52773e+07
-1.32927e+07
-1.33635e+07
-2.01826e+07
-1.78737e+07
-1.83906e+07
-3.76079e+07
-1.64441e+07
-1.83604e+07
-1.72945e+07
-1.59077e+07
-1.77817e+07
-1.68017e+07
-1.44754e+07
-1.07337e+07
-1.85178e+07
-1.24551e+07
-1.48846e+07
-1.94082e+07
-1.30546e+07
-2.84455e+07
-3.63e+07
-2.59276e+07
-2.04406e+07
-2.28806e+07
-3.51892e+07
-2.23265e+07
-2.50372e+07
-3.29862e+07
-2.30242e+07
-2.04281e+07
-1.66279e+07
-1.96266e+07
-1.92695e+07
-2.27816e+07
-2.06015e+07
-2.01242e+07
-2.92339e+07
-2.81216e+07
-2.69478e+07
-4.14161e+07
-2.38539e+07
-2.63311e+07
-2.72745e+07
-2.36209e+07
-2.61731e+07
-1.96118e+07
-1.71025e+07
-1.49186e+07
-2.52339e+07
-1.76804e+07
-2.14014e+07
-2.65355e+07
-1.86162e+07
-7.09529e+06
-4.95096e+06
-3.87115e+06
-6.64237e+06
-4.75641e+06
-7.97054e+06
-7.44606e+06
-5.71308e+06
-1.5783e+07
-1.28564e+07
-1.32397e+07
-1.94453e+07
-1.03791e+07
-1.27745e+07
-1.19629e+07
-1.00471e+07
-1.24394e+07
-7.64627e+06
-9.74525e+06
-1.40201e+07
-1.62907e+07
-1.13922e+07
-8.60418e+06
-1.50638e+07
-1.05558e+07
-9.27171e+06
-5.70762e+06
-6.70814e+06
-1.23307e+07
-9.63746e+06
-7.55087e+06
-6.23406e+06
-9.30951e+06
-7.24246e+06
-1.86382e+07
-1.7422e+07
-2.46389e+07
-2.54119e+07
-3.15327e+07
-3.15057e+07
-2.50288e+06
-4.11764e+06
-1.00976e+07
-9.34904e+06
-2.25535e+07
-2.26815e+07
-1.98735e+07
-2.11453e+07
-3.14861e+07
-3.13407e+07
-2.24692e+07
-2.24444e+07
-2.23619e+07
-2.25188e+07
-1.68673e+07
-1.73343e+07
-2.21664e+07
-2.19664e+07
-2.3845e+07
-2.30172e+07
-1.0901e+07
-1.17054e+07
-1.63729e+07
-1.59306e+07
-8.89046e+06
-9.39704e+06
-8.48956e+06
-8.9685e+06
-8.76831e+06
-2.82684e+06
-2.41978e+06
-8.41567e+06
-7.946e+06
-9.60066e+06
-1.07689e+07
-8.66869e+06
-9.04752e+06
-8.73032e+06
-8.93512e+06
-8.02637e+06
-7.86941e+07
-7.47218e+07
-1.17043e+08
-1.22284e+08
-8.14606e+07
-1.29326e+08
-5.73018e+07
-5.99988e+07
-1.19018e+08
-1.24819e+08
-5.96061e+07
-1.23102e+08
-2.93318e+07
-2.87937e+07
-2.98967e+07
-2.99176e+07
-5.13751e+07
-5.25563e+07
-3.07557e+07
-5.81717e+07
-3.58479e+07
-3.3205e+07
-5.7395e+07
-3.49824e+07
-5.94007e+07
-2.90778e+07
-6.00647e+07
-2.86838e+07
-5.97133e+07
-5.99111e+07
-2.81555e+07
-5.74981e+07
-5.72447e+07
-2.51398e+07
-2.36791e+07
-5.77968e+07
-5.698e+07
-2.43379e+07
-2.98362e+07
-3.02775e+07
-4.38325e+07
-6.18144e+07
-3.81967e+07
-6.15886e+07
-4.26193e+07
-5.88671e+07
-3.67139e+07
-3.50376e+07
-5.95237e+07
-3.75862e+07
-5.16031e+07
-1.90864e+07
-2.06347e+07
-5.04214e+07
-5.15301e+07
-1.96486e+07
-5.0504e+07
-5.58419e+07
-5.66368e+07
-2.33587e+07
-2.30551e+07
-5.59671e+07
-5.64432e+07
-2.24589e+07
-5.22597e+06
-4.87171e+06
-5.79828e+06
-5.31384e+06
-4.74484e+06
-6.93259e+06
-5.64873e+06
-1.42453e+07
-8.70755e+06
-7.71732e+06
-1.27718e+07
-7.94833e+06
-2.39471e+07
-9.63262e+06
-2.57101e+07
-9.85099e+06
-2.41424e+07
-2.55212e+07
-9.09948e+06
-1.62194e+07
-1.50411e+07
-7.18825e+06
-6.12006e+06
-1.65274e+07
-1.47117e+07
-6.59534e+06
-5.64612e+06
-6.12696e+06
-1.50823e+07
-2.63615e+07
-1.4219e+07
-2.48088e+07
-1.42375e+07
-1.57113e+07
-9.46857e+06
-1.01125e+07
-1.72207e+07
-1.02298e+07
-7.25733e+06
-8.25025e+06
-5.69525e+06
-5.21417e+06
-6.8868e+06
-5.74073e+06
-5.70975e+06
-1.1972e+07
-1.35802e+07
-5.68479e+06
-5.66269e+06
-1.21361e+07
-1.3269e+07
-5.23375e+06
-6.71284e+07
-6.57951e+07
-1.07086e+08
-7.03321e+07
-1.12887e+08
-1.24072e+08
-5.25441e+07
-5.38262e+07
-1.11003e+08
-5.53074e+07
-1.17364e+08
-1.1729e+08
-7.59765e+07
-1.11944e+08
-6.59568e+07
-1.06998e+08
-7.33124e+07
-2.77411e+07
-2.68345e+07
-8.1134e+07
-5.35535e+07
-5.90377e+07
-8.49819e+07
-6.12155e+07
-6.19955e+07
-3.00786e+07
-6.05289e+07
-3.14948e+07
-6.07248e+07
-6.13078e+07
-3.11602e+07
-7.47596e+07
-7.65489e+07
-3.93569e+07
-3.78608e+07
-7.83237e+07
-7.30654e+07
-3.77609e+07
-1.1134e+08
-5.50443e+07
-1.13411e+08
-5.30022e+07
-1.17101e+08
-1.08003e+08
-5.28419e+07
-8.63705e+07
-8.02957e+07
-4.28574e+07
-4.10477e+07
-8.43207e+07
-8.21978e+07
-4.28259e+07
-2.85429e+07
-2.92546e+07
-4.51274e+07
-6.20281e+07
-4.07782e+07
-6.23423e+07
-4.65065e+07
-7.74964e+07
-5.69409e+07
-4.76346e+07
-7.40499e+07
-5.49352e+07
-6.42254e+07
-1.01673e+08
-5.62295e+07
-6.15939e+07
-9.66051e+07
-2.27471e+07
-2.26786e+07
-7.37052e+07
-4.67835e+07
-5.15301e+07
-5.2558e+07
-7.66579e+07
-6.69791e+07
-3.54985e+07
-3.62215e+07
-6.71733e+07
-3.56626e+07
-6.6687e+07
-6.68597e+07
-7.33181e+07
-7.21541e+07
-3.80061e+07
-3.6838e+07
-3.73652e+07
-7.57731e+07
-6.99035e+07
-1.04975e+08
-5.00359e+07
-1.05051e+08
-4.61249e+07
-1.10926e+08
-4.77421e+07
-9.94771e+07
-8.19262e+07
-7.4829e+07
-3.86274e+07
-3.87925e+07
-3.97649e+07
-7.78947e+07
-7.8659e+07
-2.27627e+07
-2.28268e+07
-4.88988e+07
-4.53216e+07
-6.93813e+07
-4.90287e+07
-6.87715e+07
-7.10959e+07
-5.07481e+07
-4.48641e+07
-5.01589e+07
-6.88422e+07
-1.98542e+07
-1.94514e+07
-4.03074e+07
-4.12386e+07
-6.23151e+07
-4.12777e+07
-6.36645e+07
-6.94232e+07
-4.59301e+07
-4.46295e+07
-4.53019e+07
-6.87679e+07
-6.71914e+07
-3.53577e+07
-3.62775e+07
-6.7645e+07
-3.52149e+07
-6.69529e+07
-6.80646e+07
-6.75184e+07
-6.81744e+07
-3.56597e+07
-3.37818e+07
-3.41071e+07
-6.84817e+07
-6.72468e+07
-2.02e+07
-2.05833e+07
-4.87617e+07
-4.59283e+07
-6.99085e+07
-4.85938e+07
-7.0332e+07
-6.99524e+07
-4.65005e+07
-4.57263e+07
-4.70219e+07
-7.03792e+07
-6.18498e+07
-2.96039e+07
-3.19678e+07
-6.11744e+07
-3.02833e+07
-6.24516e+07
-6.06022e+07
-6.63211e+07
-6.77269e+07
-3.47071e+07
-3.34284e+07
-3.30218e+07
-6.71573e+07
-6.68328e+07
-2.90307e+07
-5.01609e+07
-2.768e+07
-4.8908e+07
-2.8157e+07
-1.77943e+07
-1.86871e+07
-4.04342e+07
-2.36703e+07
-2.29021e+07
-4.19432e+07
-2.37862e+07
-2.87753e+07
-1.01808e+07
-2.72875e+07
-1.15656e+07
-2.71294e+07
-2.8889e+07
-1.07369e+07
-3.67773e+07
-3.82671e+07
-1.40801e+07
-1.44316e+07
-3.83117e+07
-3.67382e+07
-1.35124e+07
-4.81945e+07
-1.85295e+07
-4.92703e+07
-1.8973e+07
-4.93751e+07
-4.80691e+07
-1.79824e+07
-4.13677e+07
-3.97765e+07
-1.61725e+07
-1.46525e+07
-4.12687e+07
-3.98458e+07
-1.52164e+07
-1.69131e+07
-1.60199e+07
-1.59338e+07
-2.79415e+07
-1.68082e+07
-2.95472e+07
-1.67856e+07
-3.89058e+07
-2.20119e+07
-2.11163e+07
-3.73874e+07
-2.1125e+07
-3.93054e+07
-6.08908e+07
-3.84441e+07
-3.82609e+07
-5.93864e+07
-1.29169e+07
-1.34261e+07
-4.88839e+07
-3.28218e+07
-3.12908e+07
-3.25207e+07
-5.07727e+07
-3.40569e+07
-1.58565e+07
-1.76484e+07
-3.23488e+07
-1.67692e+07
-3.43445e+07
-3.20625e+07
-4.39132e+07
-4.61799e+07
-2.22569e+07
-2.25829e+07
-2.13685e+07
-4.5813e+07
-4.42544e+07
-5.78388e+07
-2.89103e+07
-5.98027e+07
-2.97999e+07
-5.92528e+07
-2.8184e+07
-5.8344e+07
-4.95516e+07
-4.80763e+07
-2.54477e+07
-2.31541e+07
-2.40618e+07
-4.99325e+07
-4.77097e+07
-1.23826e+07
-1.19033e+07
-2.12424e+07
-2.26445e+07
-3.30201e+07
-2.25068e+07
-3.50476e+07
-4.69665e+07
-3.00583e+07
-2.90906e+07
-2.88077e+07
-4.50275e+07
-4.92151e+06
-4.53508e+06
-5.84949e+06
-5.58603e+06
-5.06246e+06
-5.73159e+06
-7.47511e+06
-1.58856e+07
-1.0918e+07
-9.341e+06
-9.95439e+06
-1.45694e+07
-2.81872e+07
-1.49756e+07
-1.47653e+07
-3.03584e+07
-1.41161e+07
-3.00834e+07
-2.83888e+07
-2.017e+07
-1.76086e+07
-1.01562e+07
-9.11968e+06
-9.90323e+06
-1.89967e+07
-1.87203e+07
-5.30638e+06
-5.74255e+06
-1.99987e+07
-1.87987e+07
-3.1026e+07
-1.87703e+07
-2.90536e+07
-1.75091e+07
-1.1913e+07
-1.26764e+07
-1.2984e+07
-1.93873e+07
-8.34676e+06
-8.46388e+06
-6.09328e+06
-5.77568e+06
-6.23174e+06
-7.7708e+06
-6.35787e+06
-1.59123e+07
-1.62641e+07
-7.67821e+06
-8.37847e+06
-7.66113e+06
-1.49551e+07
-1.72786e+07
-3.16293e+07
-5.05841e+07
-2.99843e+07
-1.73265e+08
-1.52702e+08
-1.62053e+08
-1.63955e+08
-2.68708e+07
-2.61639e+07
-3.75111e+07
-2.55872e+07
-3.82952e+07
-3.99125e+07
-2.65151e+07
-3.90868e+07
-7.78435e+07
-7.36128e+07
-7.78901e+07
-7.18928e+07
-7.91019e+07
-7.39582e+07
-7.56012e+07
-7.92401e+07
-3.12148e+07
-3.13983e+07
-4.68076e+07
-3.73811e+07
-4.6671e+07
-4.61155e+07
-3.65147e+07
-4.64223e+07
-7.52553e+07
-7.13108e+07
-7.43368e+07
-7.35204e+07
-7.62091e+07
-7.64991e+07
-7.37112e+07
-7.76573e+07
-5.0029e+06
-5.52165e+06
-2.76952e+06
-4.82232e+06
-4.64584e+06
-6.29435e+06
-4.91291e+06
-5.71406e+06
-3.33741e+07
-3.45549e+07
-3.52568e+07
-3.17612e+07
-3.12835e+07
-2.78794e+07
-3.00181e+07
-2.94003e+07
-7.9015e+06
-8.60901e+06
-1.88529e+07
-1.03497e+07
-1.76526e+07
-1.53394e+07
-9.71368e+06
-1.64648e+07
-9.87565e+06
-7.14808e+06
-9.63099e+06
-6.97712e+06
-1.32549e+07
-1.41115e+07
-1.25936e+07
-1.51852e+07
-1.48223e+08
-1.60602e+08
-1.71606e+08
-6.94155e+07
-6.89654e+07
-7.05189e+07
-6.9517e+07
-1.38393e+08
-1.29021e+08
-1.1201e+08
-1.20251e+08
-7.62183e+07
-7.61345e+07
-7.80526e+07
-7.71781e+07
-1.49863e+08
-1.39888e+08
-1.21746e+08
-1.30382e+08
-1.96156e+07
-3.42119e+07
-1.84588e+07
-1.8024e+08
-1.62303e+08
-1.7234e+08
-1.70385e+08
-3.32956e+07
-4.88775e+07
-3.49193e+07
-2.36087e+07
-2.23761e+07
-4.8268e+07
-3.79951e+07
-3.649e+07
-7.97759e+07
-7.01445e+07
-7.79693e+07
-7.24292e+07
-8.13889e+07
-7.39792e+07
-7.12677e+07
-8.38418e+07
-1.45544e+08
-1.42348e+08
-1.54031e+08
-1.33797e+08
-1.36668e+08
-1.16948e+08
-1.24582e+08
-1.29127e+08
-3.07881e+07
-3.11069e+07
-4.68415e+07
-3.98563e+07
-4.67329e+07
-4.6251e+07
-4.06523e+07
-4.65485e+07
-2.10492e+07
-3.26385e+07
-2.27351e+07
-2.24936e+07
-2.24217e+07
-3.2461e+07
-2.64492e+07
-2.45193e+07
-8.77072e+07
-7.74694e+07
-7.84689e+07
-8.6856e+07
-8.91434e+07
-8.06874e+07
-7.90596e+07
-9.0694e+07
-1.50889e+08
-1.51104e+08
-1.42114e+08
-1.59647e+08
-1.41409e+08
-1.24352e+08
-1.32169e+08
-1.33849e+08
-2.27271e+07
-2.26083e+07
-4.22402e+07
-3.35451e+07
-4.15918e+07
-3.99406e+07
-3.35612e+07
-4.07899e+07
-6.93695e+07
-7.12638e+07
-7.34991e+07
-7.09512e+07
-7.1712e+07
-7.0993e+07
-7.29107e+07
-7.40233e+07
-7.58901e+07
-7.64728e+07
-7.72987e+07
-7.65306e+07
-7.53037e+07
-7.59773e+07
-7.75341e+07
-7.71316e+07
-3.73209e+07
-3.94052e+07
-4.38399e+07
-4.1776e+07
-6.83973e+07
-6.87033e+07
-6.50927e+07
-6.51891e+07
-4.50183e+07
-4.71496e+07
-5.17956e+07
-4.96419e+07
-7.38841e+07
-7.28599e+07
-6.99159e+07
-7.12122e+07
-1.82267e+07
-1.77586e+07
-3.84753e+07
-2.73606e+07
-3.92925e+07
-4.08135e+07
-2.80362e+07
-4.00383e+07
-8.55597e+07
-7.78412e+07
-8.59927e+07
-7.70634e+07
-8.51991e+07
-7.73157e+07
-7.8266e+07
-8.49327e+07
-2.14962e+07
-2.17156e+07
-4.27911e+07
-3.32324e+07
-4.31681e+07
-4.36539e+07
-3.30266e+07
-4.3415e+07
-7.90292e+07
-7.3788e+07
-7.70482e+07
-7.80684e+07
-8.04379e+07
-7.89795e+07
-7.59499e+07
-8.12111e+07
-3.66148e+07
-2.28286e+07
-3.56874e+07
-2.13092e+07
-2.21834e+07
-2.19175e+07
-3.37429e+07
-3.47102e+07
-4.02424e+07
-3.61178e+07
-3.77951e+07
-3.9619e+07
-4.27625e+07
-4.48172e+07
-4.12242e+07
-4.54142e+07
-7.02515e+07
-7.1502e+07
-7.22516e+07
-6.82714e+07
-6.86842e+07
-6.466e+07
-6.80602e+07
-6.64695e+07
-1.33887e+07
-1.25479e+07
-2.00296e+07
-1.23286e+07
-2.1198e+07
-2.36061e+07
-1.30303e+07
-2.23816e+07
-3.75656e+07
-2.52148e+07
-3.66334e+07
-1.4952e+07
-1.54074e+07
-2.44447e+07
-3.46591e+07
-3.56151e+07
-4.82233e+07
-4.38239e+07
-4.61815e+07
-4.5918e+07
-5.05472e+07
-5.07438e+07
-4.83115e+07
-5.28765e+07
-7.5058e+07
-7.43852e+07
-7.11321e+07
-7.62408e+07
-7.32362e+07
-6.82243e+07
-7.11551e+07
-7.17331e+07
-1.03785e+07
-9.85421e+06
-2.07285e+07
-1.45952e+07
-2.19383e+07
-2.43692e+07
-1.54249e+07
-2.31116e+07
-3.50893e+07
-3.30779e+07
-2.89986e+07
-3.09387e+07
-7.52506e+06
-1.0044e+07
-1.46423e+07
-1.30329e+07
-4.25274e+07
-4.03355e+07
-3.57464e+07
-3.79314e+07
-7.71535e+06
-1.11896e+07
-1.77261e+07
-1.52054e+07
-3.54446e+06
-3.28896e+06
-1.82257e+06
-2.13184e+06
-2.53458e+06
-5.30201e+06
-2.96839e+06
-3.81323e+06
-4.11801e+07
-4.16028e+07
-4.34862e+07
-3.92522e+07
-3.88825e+07
-3.48035e+07
-3.70835e+07
-3.66027e+07
-7.05237e+06
-7.47744e+06
-1.9559e+07
-1.2129e+07
-1.83307e+07
-1.59877e+07
-1.13216e+07
-1.71098e+07
-1.01995e+07
-1.00712e+07
-7.29755e+06
-7.56765e+06
-7.70202e+06
-7.79873e+06
-9.52872e+06
-1.10501e+07
-7.49658e+06
-1.08761e+07
-7.25071e+06
-1.54336e+07
-1.71483e+07
-1.4819e+07
-1.81627e+07
-6.71905e+07
-6.14191e+07
-6.92976e+07
-2.75521e+07
-2.81898e+07
-4.32457e+07
-3.0243e+07
-4.24553e+07
-4.07308e+07
-2.92976e+07
-4.15919e+07
-2.23069e+07
-2.17779e+07
-2.30498e+07
-3.06077e+07
-5.46753e+07
-3.24444e+07
-5.36411e+07
-3.159e+07
-2.25602e+07
-2.45683e+07
-2.3789e+07
-2.79334e+07
-2.60219e+07
-2.70361e+07
-3.25986e+07
-5.56647e+07
-3.32976e+07
-5.65812e+07
-3.41297e+07
-2.51223e+07
-2.53641e+07
-2.61857e+07
-5.8998e+07
-2.78906e+07
-5.90616e+07
-2.64845e+07
-5.86277e+07
-5.94016e+07
-2.72993e+07
-8.06002e+07
-7.62636e+07
-8.01592e+07
-7.825e+07
-8.00431e+07
-7.72444e+07
-8.01703e+07
-7.55021e+07
-5.79282e+07
-2.57666e+07
-5.86841e+07
-2.5714e+07
-5.82803e+07
-5.82836e+07
-2.50082e+07
-3.09753e+07
-3.06547e+07
-4.3974e+07
-3.29951e+07
-4.46272e+07
-4.57145e+07
-3.38907e+07
-4.51981e+07
-3.69133e+07
-3.45222e+07
-3.55821e+07
-3.75155e+07
-6.09626e+07
-4.04583e+07
-6.13414e+07
-4.15097e+07
-3.3358e+07
-3.31218e+07
-3.43324e+07
-2.88745e+07
-2.89696e+07
-2.98464e+07
-3.5633e+07
-6.05457e+07
-3.94476e+07
-6.00959e+07
-3.84999e+07
-3.00355e+07
-3.19724e+07
-3.08898e+07
-5.25931e+07
-2.11612e+07
-5.3502e+07
-2.07398e+07
-5.25551e+07
-5.34958e+07
-2.01821e+07
-7.95629e+07
-7.84829e+07
-8.0352e+07
-7.62208e+07
-7.9358e+07
-7.53564e+07
-7.82429e+07
-7.79016e+07
-5.51342e+07
-2.2813e+07
-5.4404e+07
-2.13181e+07
-5.52305e+07
-5.43525e+07
-2.18822e+07
-4.76851e+06
-4.61196e+06
-9.80966e+06
-5.8357e+06
-8.74105e+06
-6.91403e+06
-5.42744e+06
-7.71825e+06
-5.0875e+06
-4.61514e+06
-4.74721e+06
-5.16159e+06
-9.19256e+06
-6.20623e+06
-8.32464e+06
-5.8655e+06
-4.82986e+06
-5.18249e+06
-4.91037e+06
-6.65437e+06
-5.70833e+06
-6.13397e+06
-6.95863e+06
-9.89553e+06
-6.57087e+06
-1.13182e+07
-7.21304e+06
-5.32084e+06
-5.35519e+06
-5.6335e+06
-2.23596e+07
-9.31703e+06
-2.10506e+07
-8.07089e+06
-2.07762e+07
-2.25959e+07
-8.58629e+06
-2.39298e+07
-2.09461e+07
-2.23195e+07
-2.25463e+07
-2.56998e+07
-2.60949e+07
-2.74679e+07
-2.42438e+07
-1.77264e+07
-7.69978e+06
-1.95213e+07
-7.55431e+06
-1.92327e+07
-1.80285e+07
-7.06718e+06
-7.28643e+06
-6.67e+06
-1.08609e+07
-7.37871e+06
-1.19432e+07
-1.41878e+07
-7.93648e+06
-1.30472e+07
-1.10814e+07
-9.63819e+06
-1.04876e+07
-1.33963e+07
-2.17223e+07
-1.26116e+07
-2.32875e+07
-1.34239e+07
-9.11766e+06
-9.34892e+06
-9.91871e+06
-7.1839e+06
-7.1103e+06
-7.70494e+06
-1.09183e+07
-2.01982e+07
-1.17991e+07
-1.87295e+07
-1.1012e+07
-7.6081e+06
-8.79398e+06
-8.24863e+06
-8.64816e+06
-4.66578e+06
-9.11512e+06
-4.35653e+06
-8.23344e+06
-9.59848e+06
-4.57709e+06
-1.93324e+07
-1.94068e+07
-2.07345e+07
-1.80399e+07
-1.79348e+07
-1.55022e+07
-1.66578e+07
-1.6693e+07
-1.11282e+07
-5.23703e+06
-9.85041e+06
-4.52987e+06
-1.07266e+07
-1.0384e+07
-4.8395e+06
-8.14894e+07
-7.76316e+07
-7.21836e+07
-7.45585e+07
-8.60954e+07
-9.15075e+07
-1.04504e+08
-9.76162e+07
-8.94529e+07
-8.57567e+07
-8.01122e+07
-8.22917e+07
-9.45084e+07
-9.99287e+07
-1.13624e+08
-1.06555e+08
-5.35567e+07
-4.63429e+07
-5.60573e+07
-6.50868e+07
-5.68539e+07
-6.30148e+07
-6.32537e+07
-9.76491e+07
-6.82509e+07
-1.02235e+08
-7.07463e+07
-5.5334e+07
-5.89868e+07
-6.09878e+07
-2.47583e+07
-2.58308e+07
-4.28991e+07
-4.57572e+07
-4.18477e+07
-3.94106e+07
-4.64069e+07
-4.06777e+07
-5.57942e+07
-9.32293e+07
-6.5817e+07
-8.90163e+07
-6.34635e+07
-5.13367e+07
-4.93636e+07
-5.31957e+07
-5.70146e+07
-5.08495e+07
-5.50866e+07
-9.36048e+07
-8.58958e+07
-8.15231e+07
-9.79459e+07
-8.97756e+07
-7.51403e+07
-8.64723e+07
-7.85186e+07
-6.37398e+07
-3.25833e+07
-6.45319e+07
-3.35296e+07
-6.5938e+07
-6.25992e+07
-3.22983e+07
-7.14941e+07
-3.63987e+07
-6.70041e+07
-3.48601e+07
-6.85445e+07
-6.98685e+07
-3.62713e+07
-1.05815e+08
-5.08103e+07
-9.78296e+07
-4.86148e+07
-1.02807e+08
-1.0054e+08
-5.07001e+07
-1.08466e+08
-9.0637e+07
-9.61036e+07
-1.03065e+08
-1.14909e+08
-1.09069e+08
-1.2142e+08
-1.02486e+08
-9.08137e+07
-4.47128e+07
-9.30786e+07
-4.6596e+07
-8.85862e+07
-9.55315e+07
-4.4671e+07
-3.03722e+07
-2.98645e+07
-4.38127e+07
-4.36601e+07
-4.45899e+07
-4.58045e+07
-4.29214e+07
-4.52608e+07
-3.83016e+07
-3.82571e+07
-3.97413e+07
-4.18551e+07
-6.515e+07
-4.95666e+07
-6.31697e+07
-4.79799e+07
-3.9552e+07
-4.27804e+07
-4.1228e+07
-4.95163e+07
-4.50221e+07
-4.77562e+07
-4.5963e+07
-6.78437e+07
-5.1268e+07
-7.08226e+07
-5.30407e+07
-4.3611e+07
-4.43885e+07
-4.60392e+07
-5.13041e+07
-4.1283e+07
-4.92727e+07
-5.36765e+07
-5.71576e+07
-8.7543e+07
-5.92426e+07
-9.18917e+07
-4.00573e+07
-4.59239e+07
-4.74842e+07
-2.25193e+07
-2.26161e+07
-3.35353e+07
-3.27696e+07
-3.18845e+07
-2.83155e+07
-3.26222e+07
-3.01206e+07
-4.80209e+07
-5.535e+07
-8.35626e+07
-5.38322e+07
-7.99406e+07
-4.17915e+07
-3.73342e+07
-4.25324e+07
-4.45689e+07
-3.77146e+07
-4.3446e+07
-9.92997e+07
-9.22955e+07
-8.85483e+07
-1.02891e+08
-9.56459e+07
-8.25773e+07
-9.31785e+07
-8.51447e+07
-6.74438e+07
-3.62593e+07
-3.6135e+07
-6.63097e+07
-3.58912e+07
-6.83292e+07
-6.63375e+07
-7.1277e+07
-3.65498e+07
-3.64269e+07
-6.6889e+07
-3.68354e+07
-6.96054e+07
-6.81334e+07
-9.94854e+07
-4.40923e+07
-4.38782e+07
-8.96013e+07
-4.56877e+07
-9.43288e+07
-9.44295e+07
-1.12935e+08
-9.74534e+07
-1.02568e+08
-1.08051e+08
-1.19526e+08
-1.15876e+08
-1.25742e+08
-1.09414e+08
-8.56381e+07
-3.96211e+07
-4.2302e+07
-8.52874e+07
-4.09216e+07
-8.13741e+07
-8.98159e+07
-2.27799e+07
-2.28151e+07
-3.50381e+07
-3.32368e+07
-3.64508e+07
-3.88944e+07
-3.33661e+07
-3.77098e+07
-3.98163e+07
-3.6717e+07
-3.99441e+07
-4.5097e+07
-4.9271e+07
-6.7264e+07
-4.91375e+07
-6.80662e+07
-3.6768e+07
-4.017e+07
-4.00494e+07
-4.12333e+07
-3.68478e+07
-4.08159e+07
-4.47397e+07
-4.94934e+07
-6.66906e+07
-4.97719e+07
-6.7158e+07
-3.68186e+07
-4.0339e+07
-4.05323e+07
-7.62187e+07
-7.38552e+07
-7.2659e+07
-7.52444e+07
-7.4361e+07
-7.63261e+07
-7.56063e+07
-7.40553e+07
-7.88293e+07
-7.82114e+07
-7.74693e+07
-7.82028e+07
-7.85806e+07
-7.8889e+07
-7.83532e+07
-7.83707e+07
-5.28777e+07
-5.17439e+07
-4.67694e+07
-4.83317e+07
-5.65322e+07
-5.73151e+07
-6.14714e+07
-6.10186e+07
-6.04763e+07
-5.86034e+07
-5.42024e+07
-5.62223e+07
-6.27367e+07
-6.4444e+07
-6.80683e+07
-6.65029e+07
-1.86479e+07
-1.90622e+07
-4.29578e+07
-3.04047e+07
-4.25147e+07
-4.14459e+07
-2.98635e+07
-4.198e+07
-3.21879e+07
-3.00024e+07
-3.30009e+07
-4.2083e+07
-4.30579e+07
-6.6041e+07
-4.22005e+07
-6.49226e+07
-3.0734e+07
-3.4504e+07
-3.37696e+07
-3.70075e+07
-3.33074e+07
-3.6444e+07
-4.41073e+07
-4.38745e+07
-6.70655e+07
-4.46229e+07
-6.7979e+07
-3.27173e+07
-3.52094e+07
-3.58443e+07
-6.74189e+07
-3.6224e+07
-3.48367e+07
-6.86007e+07
-3.50293e+07
-6.75751e+07
-6.83887e+07
-8.41976e+07
-7.80751e+07
-8.0087e+07
-8.40789e+07
-8.44519e+07
-7.91573e+07
-8.46501e+07
-7.77169e+07
-6.76408e+07
-3.58891e+07
-3.46502e+07
-6.86898e+07
-3.44042e+07
-6.76621e+07
-6.86499e+07
-2.11724e+07
-2.08824e+07
-4.32637e+07
-3.18072e+07
-4.35194e+07
-4.36913e+07
-3.21743e+07
-4.36152e+07
-3.96687e+07
-3.63278e+07
-3.94822e+07
-4.60333e+07
-4.81407e+07
-7.07376e+07
-4.83983e+07
-7.06133e+07
-3.61182e+07
-3.90282e+07
-3.92766e+07
-3.75058e+07
-3.48e+07
-3.79632e+07
-4.59148e+07
-4.78024e+07
-7.07373e+07
-4.74391e+07
-7.06423e+07
-3.51926e+07
-3.87025e+07
-3.83545e+07
-6.2973e+07
-3.26487e+07
-3.15167e+07
-6.46951e+07
-3.09383e+07
-6.36372e+07
-6.39926e+07
-8.33872e+07
-8.04548e+07
-7.80448e+07
-8.3448e+07
-8.26818e+07
-7.74073e+07
-8.22776e+07
-8.01105e+07
-6.56788e+07
-3.4278e+07
-3.20525e+07
-6.56434e+07
-3.25697e+07
-6.64695e+07
-6.48973e+07
-2.15776e+07
-1.95492e+07
-2.08634e+07
-2.69277e+07
-4.62392e+07
-2.64266e+07
-4.76037e+07
-2.72953e+07
-1.88439e+07
-1.94667e+07
-2.01625e+07
-2.04565e+07
-1.95683e+07
-2.94345e+07
-1.8443e+07
-3.05211e+07
-3.2693e+07
-1.92877e+07
-3.16092e+07
-2.45028e+07
-4.48272e+07
-2.55393e+07
-4.34162e+07
-2.46575e+07
-1.67576e+07
-1.61652e+07
-1.74243e+07
-1.87781e+07
-1.68281e+07
-1.80978e+07
-5.2848e+07
-5.49262e+07
-5.13036e+07
-5.54724e+07
-5.05041e+07
-4.63244e+07
-4.78485e+07
-4.99259e+07
-3.03841e+07
-1.21272e+07
-3.20466e+07
-1.18298e+07
-3.19783e+07
-3.04674e+07
-1.12739e+07
-3.51977e+07
-1.38639e+07
-3.36285e+07
-1.24009e+07
-3.35885e+07
-3.51991e+07
-1.29593e+07
-4.69241e+07
-1.84346e+07
-4.54827e+07
-1.68882e+07
-4.6809e+07
-4.5592e+07
-1.74426e+07
-6.02093e+07
-5.60771e+07
-5.96735e+07
-5.7681e+07
-6.22483e+07
-6.40834e+07
-6.46496e+07
-6.05513e+07
-4.28232e+07
-1.67404e+07
-4.41116e+07
-1.63184e+07
-4.27248e+07
-4.42222e+07
-1.57675e+07
-1.42536e+07
-1.5142e+07
-2.82726e+07
-1.60021e+07
-2.71159e+07
-2.47662e+07
-1.52204e+07
-2.59378e+07
-1.16826e+07
-1.13049e+07
-1.2287e+07
-1.7667e+07
-3.26741e+07
-1.85027e+07
-3.11234e+07
-1.76364e+07
-1.18774e+07
-1.35229e+07
-1.28956e+07
-1.60912e+07
-1.42807e+07
-1.54388e+07
-2.02604e+07
-3.42686e+07
-1.93813e+07
-3.58546e+07
-2.02403e+07
-1.36618e+07
-1.41529e+07
-1.47829e+07
-3.13458e+07
-2.76167e+07
-3.04656e+07
-3.73988e+07
-3.60544e+07
-5.61144e+07
-3.7174e+07
-5.77834e+07
-2.67811e+07
-2.86489e+07
-2.95689e+07
-1.44104e+07
-1.39236e+07
-3.02623e+07
-2.12642e+07
-3.13856e+07
-3.35761e+07
-2.20821e+07
-3.24599e+07
-3.40259e+07
-3.48969e+07
-5.4385e+07
-3.37247e+07
-5.26116e+07
-2.47426e+07
-2.32452e+07
-2.5747e+07
-2.76865e+07
-2.41398e+07
-2.67208e+07
-5.96872e+07
-5.94487e+07
-5.70754e+07
-6.17996e+07
-5.74515e+07
-5.27979e+07
-5.52324e+07
-5.51636e+07
-3.60399e+07
-1.86591e+07
-1.86074e+07
-3.83488e+07
-1.77065e+07
-3.80226e+07
-3.63552e+07
-4.19724e+07
-2.16072e+07
-1.95101e+07
-4.03371e+07
-2.0449e+07
-3.99998e+07
-4.2311e+07
-5.63267e+07
-2.89765e+07
-2.65837e+07
-5.51739e+07
-2.73974e+07
-5.67993e+07
-5.4718e+07
-6.59527e+07
-6.11451e+07
-6.35461e+07
-6.40174e+07
-6.79768e+07
-6.74559e+07
-6.97514e+07
-6.48372e+07
-5.13233e+07
-2.63763e+07
-2.57755e+07
-5.34883e+07
-2.49302e+07
-5.1736e+07
-5.30537e+07
-1.08812e+07
-1.13791e+07
-2.90863e+07
-1.87805e+07
-2.79247e+07
-2.55587e+07
-1.79423e+07
-2.6713e+07
-1.66116e+07
-1.58333e+07
-1.7622e+07
-2.39469e+07
-2.5025e+07
-3.90535e+07
-2.37618e+07
-3.70747e+07
-1.67537e+07
-1.96538e+07
-1.86343e+07
-2.37346e+07
-2.04633e+07
-2.27139e+07
-2.78253e+07
-2.63078e+07
-4.10729e+07
-2.75663e+07
-4.3075e+07
-1.95379e+07
-2.0688e+07
-2.17017e+07
-2.17462e+07
-2.33292e+07
-2.69762e+07
-2.51904e+07
-2.01026e+07
-1.87318e+07
-1.60857e+07
-1.73358e+07
-2.7238e+07
-2.91939e+07
-3.34796e+07
-3.13351e+07
-2.52598e+07
-2.33873e+07
-1.97065e+07
-2.15954e+07
-3.96024e+06
-4.30638e+06
-1.01775e+07
-6.48758e+06
-9.00509e+06
-6.62194e+06
-5.78871e+06
-7.81802e+06
-5.10426e+06
-3.12531e+06
-4.3271e+06
-5.92217e+06
-7.21134e+06
-1.07818e+07
-6.34786e+06
-9.38346e+06
-3.8034e+06
-5.53433e+06
-4.70029e+06
-8.81563e+06
-7.28218e+06
-8.049e+06
-8.35638e+06
-8.10702e+06
-1.20501e+07
-9.0215e+06
-1.33006e+07
-6.53963e+06
-6.42449e+06
-7.26106e+06
-2.63545e+07
-1.38063e+07
-1.23607e+07
-2.44843e+07
-1.32298e+07
-2.46615e+07
-2.64248e+07
-3.00074e+07
-2.64902e+07
-2.8478e+07
-2.7977e+07
-3.21142e+07
-3.26642e+07
-3.4308e+07
-3.04825e+07
-2.16278e+07
-1.10569e+07
-1.15514e+07
-2.25679e+07
-1.07327e+07
-2.31243e+07
-2.06826e+07
-6.57422e+06
-6.14932e+06
-1.12962e+07
-8.26785e+06
-1.24631e+07
-1.47768e+07
-8.98927e+06
-1.35854e+07
-1.56128e+07
-1.31147e+07
-1.46177e+07
-1.75402e+07
-1.63785e+07
-2.51152e+07
-1.75674e+07
-2.70858e+07
-1.22393e+07
-1.27055e+07
-1.36518e+07
-9.53511e+06
-9.23371e+06
-1.02595e+07
-1.38539e+07
-1.51886e+07
-2.31742e+07
-1.40627e+07
-2.12829e+07
-9.85055e+06
-1.1775e+07
-1.0978e+07
-1.03596e+07
-5.45636e+06
-5.845e+06
-1.11064e+07
-5.59266e+06
-9.68456e+06
-1.1896e+07
-2.40313e+07
-2.45673e+07
-2.2718e+07
-2.59208e+07
-2.21779e+07
-1.91396e+07
-2.02882e+07
-2.09531e+07
-1.45814e+07
-6.93341e+06
-6.34203e+06
-1.23897e+07
-6.98012e+06
-1.36719e+07
-1.32464e+07
-8.51612e+06
-1.06146e+07
-8.29286e+06
-8.64434e+06
-7.86423e+06
-8.29567e+06
-7.5989e+06
-8.21534e+06
-8.74197e+06
-7.88263e+06
-7.62831e+06
-8.65752e+06
-6.34135e+06
-6.51757e+06
-8.01957e+06
-6.04231e+06
-6.16723e+06
-8.81544e+06
-8.90404e+06
-6.96553e+06
-7.22752e+06
-9.26478e+06
-6.61966e+06
-6.87114e+06
-1.45871e+08
-6.1179e+07
-6.36382e+07
-1.31228e+08
-6.15481e+07
-1.38424e+08
-1.38755e+08
-6.67784e+07
-3.24764e+07
-6.12499e+07
-3.00418e+07
-6.82673e+07
-2.81648e+07
-6.07843e+07
-6.82105e+07
-6.04958e+07
-2.92707e+07
-2.60492e+07
-3.04169e+07
-6.05817e+07
-6.68176e+07
-6.33168e+07
-1.76712e+07
-2.19744e+07
-5.4803e+07
-2.09928e+07
-6.08808e+07
-5.58807e+07
-6.31323e+07
-5.76697e+07
-2.25109e+07
-2.23685e+07
-1.87616e+07
-5.68114e+07
-6.5387e+07
-2.74504e+07
-9.57878e+06