/*--------------------------------*- C++ -*----------------------------------*\
| =========                 |                                                 |
| \\      /  F ield         | OpenFOAM: The Open Source CFD Toolbox           |
|  \\    /   O peration     | Version:  2012                                  |
|   \\  /    A nd           | Website:  www.openfoam.com                      |
|    \\/     M anipulation  |                                                 |
\*---------------------------------------------------------------------------*/
FoamFile
{
    version     2.0;
    format      ascii;
    class       volScalarField;
    location    "0.108/solid";
    object      sigmaMid;
}
// * * * * * * * * * * * * * * * * * * * * * * * * * * * * * * * * * * * * * //

dimensions      [1 -1 -2 0 0 0 0];


internalField   nonuniform List<scalar> 
3125
(
422179
-6.24929e+06
-1.44374e+07
-1.61302e+07
-2.01629e+07
891995
-4.30649e+06
540804
-1.29353e+07
-1.3514e+06
-1.38314e+07
-1.76769e+07
-1.60919e+07
-1.48762e+07
-2.04551e+07
-1.82189e+07
-2.04664e+07
-2.08351e+07
-2.03437e+07
-2.05109e+07
8.33438e+06
5.28705e+06
-2.08417e+07
-1.73188e+07
-8.38204e+06
-1.11353e+07
-1.31199e+07
-9.27872e+06
-1.653e+07
-1.65353e+07
-1.22493e+07
-1.3679e+07
-1.75834e+07
-1.77486e+07
-1.80814e+07
-1.62385e+07
-1.74824e+07
-2.0148e+07
-1.80945e+07
-1.77469e+07
-1.67777e+07
-1.73469e+07
-414662
1.90679e+06
7.27182e+06
468543
-416266
-7.61402e+06
-2.19667e+06
4.37849e+06
137537
-1.40287e+06
-8.08057e+06
-487657
-291793
1.03327e+06
-9.02007e+06
161738
1.11688e+06
1.82749e+06
-7.33402e+06
1.20147e+06
4.54777e+06
1.41704e+06
730837
4.11432e+06
-66037.8
-1.56694e+07
-2.32056e+06
4.78551e+06
4.41305e+06
-5.89816e+06
-1.6115e+07
-2.72666e+06
-2.11067e+07
-2.16024e+07
-1.58468e+07
-1.81144e+07
-1.80307e+07
-1.68169e+07
-1.56859e+07
-1.79435e+07
-2.03795e+07
-2.15375e+07
106001
-4.62628e+06
-2.03521e+07
-1.34732e+07
-1.03139e+07
-6.38787e+06
-1.99143e+07
-9.8292e+06
-1.02566e+07
-5.3551e+06
-1.76017e+07
-1.55718e+07
-1.38819e+07
-2.00129e+07
-1.63355e+07
-1.09319e+07
-1.51048e+07
-1.81529e+07
-1.9925e+07
-1.66317e+07
1.97089e+07
1.11514e+06
-2.93848e+07
-2.92451e+07
-1.01761e+07
-8.11449e+06
-1.15941e+07
-2.18783e+07
-2.49878e+07
-1.55613e+07
-1.38629e+07
-1.49213e+07
-1.60281e+07
-1.78389e+07
-1.75652e+07
-1.61487e+07
-1.76572e+07
-2.44968e+07
-2.30456e+07
-1.91238e+07
-1.8205e+07
-1.789e+07
-6.83683e+06
1.74525e+06
1.59621e+07
5.77465e+06
-2.57965e+06
-9.54193e+06
-7.90865e+06
234385
559278
-1.89186e+06
-2.06106e+07
-1.60072e+07
-3.48883e+06
5.88877e+06
-1.18096e+07
-4.94622e+06
-3.51001e+06
1.50694e+06
-3.49534e+06
253324
2.77188e+07
2.47672e+07
2.26814e+07
2.55672e+07
-5.30769e+06
-1.45696e+07
-6.73682e+06
2.83461e+07
2.93321e+07
-1.18213e+07
-1.7106e+07
-1.05631e+07
-2.93423e+07
-2.88936e+07
-1.60359e+07
-1.7481e+07
-1.73207e+07
-1.58213e+07
-1.52219e+07
-1.62836e+07
-2.49378e+07
-2.61518e+07
2.15945e+07
1.80141e+07
-2.05226e+07
-1.67054e+07
-1.59902e+07
-1.21539e+07
-1.8806e+07
-1.33046e+07
1.77717e+06
5.88395e+06
-1.96623e+07
-2.04911e+07
-1.4455e+07
-1.24912e+07
-1.68941e+07
-2.02323e+07
-1.75013e+07
414757
-3.49379e+06
-1.94236e+07
-2.01263e+07
-1.91308e+07
1.48867e+07
1.76227e+06
-2.81753e+07
-2.90832e+07
-2.44716e+07
-1.97435e+07
-2.37229e+07
-2.21187e+07
-1.92266e+07
-2.33925e+07
-9.78712e+06
-1.05587e+07
-1.13927e+07
-9.74698e+06
-1.32748e+07
-1.21353e+07
-1.126e+07
-1.32856e+07
-1.19591e+07
-2.77285e+07
-2.58289e+07
-1.62063e+07
-1.26991e+07
-1.89287e+07
-2.15956e+07
-1.37653e+07
-1.9692e+07
-1.58099e+07
-1.55412e+07
-1.50917e+07
-1.31412e+07
-1.37098e+07
-1.45786e+07
-1.51151e+07
-1.37424e+07
-1.47367e+07
-2.00668e+07
-1.82883e+07
-1.58627e+07
-1.64052e+07
-1.71341e+07
-1.87819e+07
-1.66508e+07
-1.74278e+07
-1.76158e+07
-1.7894e+07
-1.76385e+07
-1.61538e+07
-1.7685e+07
-1.77039e+07
-1.78249e+07
-1.75796e+07
-1.7659e+07
-2.07292e+07
-2.25169e+07
-2.24997e+07
-1.9346e+07
-2.13004e+07
-1.93305e+07
-1.90675e+07
-2.08466e+07
-1.87827e+07
-1.68254e+07
-1.76114e+07
-1.75285e+07
-1.76851e+07
-1.77084e+07
-1.68868e+07
-1.75577e+07
-1.74715e+07
-3.85591e+06
2.2623e+06
1.22437e+07
4.2658e+06
4.95038e+06
-5.49762e+06
2.70219e+06
3.3093e+06
-3.34313e+06
2.72675e+06
-1.26973e+06
-5.40478e+06
-7.20521e+06
-9.13141e+06
-5.31149e+06
-7.33095e+06
-4.72194e+06
-4.51883e+06
-6.62525e+06
934687
1.80666e+06
-1.20798e+06
442551
-4.64827e+06
-2.70355e+06
979020
-3.98565e+06
-1.97871e+06
-7.92409e+06
-1.42116e+07
-1.51412e+07
-4.62751e+06
-1.14311e+07
-5.16142e+06
-3.52777e+06
-1.00126e+07
-2.06885e+06
77888.4
3.04281e+06
1.6188e+07
8.74103e+06
225397
9.47705e+06
4.69468e+06
-1.04969e+07
-1.73595e+06
-3.15519e+06
-4.0439e+06
685194
-2.7134e+06
-1.06878e+06
818638
-2.35173e+06
1.99268e+06
1.55474e+06
835533
-5.48732e+06
-1.40528e+06
-42010
1.46057e+06
-726718
525607
1.82962e+07
2.34328e+07
1.76956e+07
3.37834e+06
1.56049e+07
1.09357e+07
2.88509e+06
1.46271e+07
2.83058e+07
2.63883e+07
1.28804e+07
2.39808e+06
1.52353e+07
1.75688e+07
2.88915e+06
1.59057e+07
-4.40007e+06
-889459
-5.73979e+06
-1.51308e+07
-8.50242e+06
-7.10531e+06
-1.22202e+06
-7.47558e+06
-6.11141e+06
2.87631e+07
2.93976e+07
1.81252e+07
5.05853e+06
1.86884e+07
1.7969e+07
4.99102e+06
1.866e+07
-1.08569e+07
-4.47964e+06
-9.55994e+06
-1.65917e+07
-8.86347e+06
-1.02023e+07
-4.01315e+06
-7.84805e+06
-9.16977e+06
-2.46464e+07
-2.15589e+07
-2.49186e+07
-2.78814e+07
-2.86932e+07
-2.16441e+07
-2.47306e+07
-2.49257e+07
-1.59482e+07
-1.69654e+07
-1.7203e+07
-1.75598e+07
-1.81706e+07
-1.74552e+07
-1.71747e+07
-1.81417e+07
-1.73623e+07
-1.60622e+07
-1.74424e+07
-1.65444e+07
-1.54804e+07
-1.68116e+07
-1.64864e+07
-1.76207e+07
-1.70428e+07
-1.67279e+07
-2.75824e+07
-2.65331e+07
-2.28532e+07
-2.10051e+07
-2.3771e+07
-2.46029e+07
-2.11565e+07
-2.4029e+07
1.19964e+07
-1.83596e+06
9.16078e+06
1.27841e+07
1.67637e+07
-2.53372e+06
5.05002e+06
8.16236e+06
-2.0512e+07
-1.4897e+07
-1.57593e+07
-1.61376e+07
-1.21756e+07
-1.53575e+07
-1.41661e+07
-1.17174e+07
-1.50933e+07
-1.12139e+07
-7.85642e+06
-1.24212e+07
-1.93584e+07
-1.4627e+07
-1.36118e+07
-8.3589e+06
-1.3859e+07
-1.27571e+07
1.1426e+07
7.27003e+06
-3.51086e+06
-8.1897e+06
-318375
3.97976e+06
-7.48813e+06
746595
-8.98917e+06
-1.16062e+07
-1.64479e+07
-1.68687e+07
-1.40138e+07
-1.13386e+07
-1.66494e+07
-1.33352e+07
-1.63403e+07
-1.50162e+07
-1.69799e+07
-2.01124e+07
-1.82157e+07
-1.76689e+07
-1.53699e+07
-1.77408e+07
-1.71598e+07
-8.06424e+06
-4.70925e+06
-4.55289e+06
-1.28409e+07
-7.55575e+06
-1.06725e+07
-1.34486e+07
-8.47364e+06
-1.91246e+07
-1.7665e+07
-1.87093e+07
-1.98742e+07
-1.83703e+07
-1.89376e+07
-1.74277e+07
-1.79065e+07
-1.84891e+07
2.28468e+07
2.58409e+07
-1.62814e+07
-1.60984e+07
-7.57936e+06
-8.59315e+06
-1.59465e+07
-1.64251e+07
-1.71254e+07
-1.71011e+07
-667760
-2.20136e+06
1.99346e+07
1.73172e+07
-6.5516e+06
-5.45166e+06
913573
2.44886e+06
1.79446e+07
1.74915e+07
1.28081e+07
1.36347e+07
1.83006e+07
1.85178e+07
-1.65916e+07
-1.67744e+07
-1.72141e+07
-1.72931e+07
1.19724e+07
1.1042e+07
-2.75606e+06
-1.7956e+06
-2.05858e+07
-2.08252e+07
-2.00958e+07
-1.3782e+07
-1.15644e+07
-3.6732e+06
-4.59708e+06
-1.96868e+07
-2.00981e+07
-2.01515e+07
-2.04995e+07
-2.00212e+07
-1.97962e+07
-1.9803e+07
1.14746e+07
9.45121e+06
1.31242e+07
1.42746e+07
1.35518e+07
1.2821e+07
4.45488e+06
6.21825e+06
1.28388e+07
1.38453e+07
5.34019e+06
1.16749e+07
-1.36343e+07
-1.42094e+07
-2.57515e+07
-2.05222e+07
-2.82464e+07
-2.80178e+07
-2.55154e+07
-2.41379e+07
-2.26419e+07
-1.80334e+07
-2.51427e+07
-2.33198e+07
-9.57804e+06
-8.59884e+06
-7.52568e+06
-9.12894e+06
-9.76994e+06
-7.66235e+06
-9.28179e+06
-1.75238e+07
-1.95898e+07
-1.25182e+07
-1.28844e+07
-1.839e+07
-1.86601e+07
-1.23431e+07
-1.3143e+07
-1.25197e+07
-1.48504e+07
-9.59792e+06
-1.04499e+07
-1.21516e+07
-1.60125e+07
-2.29979e+07
-2.18859e+07
-1.56736e+07
-2.16665e+07
-2.10624e+07
-2.29959e+07
-1.60085e+07
-1.6221e+07
-2.45079e+07
-2.42731e+07
-1.57201e+07
-2.32271e+07
-2.04778e+07
-2.06411e+07
-1.4197e+07
-1.3407e+07
-2.15571e+07
-1.96408e+07
-1.38726e+07
-1.64906e+07
-1.65038e+07
-1.65896e+07
-1.68914e+07
-1.67304e+07
-1.64519e+07
-1.65774e+07
-1.79617e+07
-1.8508e+07
-1.7395e+07
-1.72988e+07
-1.7951e+07
-1.96143e+07
-1.77701e+07
-2.0935e+07
-1.80349e+07
-2.05206e+07
-2.00033e+07
-1.77631e+07
-1.75383e+07
-1.76926e+07
-1.75981e+07
-1.74674e+07
-1.81971e+07
-1.71049e+07
-1.75351e+07
-1.66388e+07
-1.67046e+07
-2.25022e+07
-2.2972e+07
-1.98987e+07
-2.23979e+07
-2.2059e+07
-1.86381e+07
-1.90508e+07
-1.84279e+07
-1.92882e+07
-1.95822e+07
-1.7007e+07
-1.8103e+07
-1.7372e+07
-1.70483e+07
-1.67629e+07
-1.77429e+07
-1.74579e+07
-1.63047e+07
-1.71796e+07
-1.71985e+07
-1.73979e+07
-1.6661e+07
-1.66557e+07
-1.7299e+07
-2.69388e+06
-592888
-4.92242e+06
-3.83037e+06
-5.0614e+06
-5.45091e+06
1.78661e+06
1.96856e+06
-5.59035e+06
1.9466e+06
-5.59262e+06
-5.32032e+06
9.45272e+06
1.19955e+07
6.24519e+06
1.08835e+07
7.51428e+06
4.73293e+06
6.47118e+06
4.727e+06
1.42281e+06
-2.79364e+06
5.69584e+06
-1.23144e+06
-4.152e+06
-7.89195e+06
-5.23234e+06
-6.83856e+06
-5.81708e+06
-3.03244e+06
-7.18142e+06
1.40906e+06
4.36679e+06
-2.77836e+06
-2.97398e+06
2.33994e+06
3.4486e+06
-3.52385e+06
9.47634e+06
3.58543e+06
1.18408e+07
3.49981e+06
1.05518e+07
1.08606e+07
2.74519e+06
4.31671e+06
5.26885e+06
-616121
-2.02498e+06
6.17886e+06
3.30978e+06
-1.26214e+06
2.92801e+06
1.33423e+06
-1.36473e+07
-6.85784e+06
-6.89718e+06
-4.01657e+06
-1.2416e+07
3.7752e+06
-4.29868e+06
-1.47088e+06
2.87325e+06
-5.75207e+06
-1.60389e+06
-4.78531e+06
-176096
-555547
-4.66903e+06
1.12408e+07
9.92541e+06
-4.25456e+06
695362
5.43082e+06
4.43019e+06
-4.28724e+06
-3.38421e+06
-1.82885e+06
364854
-346915
-1.53369e+06
-1.61759e+06
-2.6829e+06
-4.68112e+06
-5.73614e+06
-22168
1.0233e+06
-258980
-4.71487e+06
-5.65378e+06
-5.12812e+06
1.61783e+06
-5.59674e+06
1.7375e+06
-5.2125e+06
1.4273e+06
-5.615e+06
-4.82031e+06
-5.75178e+06
1.29065e+06
197249
415731
-5.74641e+06
-4.76188e+06
1.2483e+07
1.35468e+07
1.22558e+07
4.22102e+06
5.30179e+06
1.16832e+07
3.69646e+06
-4.20251e+06
6.44099e+06
1.87549e+06
7.44726e+06
-4.11466e+06
1.74412e+07
1.69648e+07
8.46553e+06
1.32018e+06
7.60811e+06
9.22231e+06
8.3075e+06
1.06962e+07
1.26171e+07
3.74817e+06
1.22125e+07
1.05442e+07
-1.18919e+06
-2.13734e+06
-310957
798888
-2.46762e+06
-1.91621e+06
1.76555e+06
911824
4.20062e+06
-1.93209e+06
-4.6649e+06
-4.26244e+06
4.14026e+06
1.00311e+06
1.78593e+07
1.81365e+07
1.27137e+07
4.96153e+06
6.68325e+06
1.30641e+07
7.8537e+06
1.07458e+07
1.29593e+07
4.66743e+06
1.32097e+07
1.06717e+07
-963011
-8.10249e+06
-5.41091e+06
1.48664e+06
-7.65247e+06
2.05239e+06
-1.46489e+06
806330
4.15576e+06
-3.14149e+06
-5.07669e+06
-5.5006e+06
3.98874e+06
965768
-2.59231e+07
-2.83903e+07
-2.13094e+07
-2.84508e+07
-2.60162e+07
-1.73297e+07
-1.73576e+07
-2.73198e+07
-2.16353e+07
-2.55423e+07
-2.76425e+07
-2.57279e+07
-2.07479e+07
-1.77645e+07
-2.13618e+07
-1.81344e+07
-2.03878e+07
-2.17818e+07
-1.77567e+07
-2.23646e+07
-2.38576e+07
-1.74947e+07
-1.8092e+07
-2.26266e+07
-2.35832e+07
-1.75716e+07
-2.3449e+07
-1.62731e+07
-2.46722e+07
-1.70579e+07
-2.33715e+07
-2.4773e+07
-1.64999e+07
-2.30562e+07
-2.41126e+07
-1.78474e+07
-1.74075e+07
-2.43367e+07
-2.28668e+07
-1.73072e+07
-1.74405e+07
-1.7437e+07
-2.29254e+07
-2.35424e+07
-2.05974e+07
-2.40977e+07
-2.3328e+07
-2.69647e+07
-2.53108e+07
-2.14393e+07
-2.65603e+07
-2.50365e+07
7.67493e+06
6.86531e+06
-519364
6.85979e+06
6.09687e+06
5.24581e+06
6.25225e+06
613544
-3.91916e+06
1.37343e+06
2.32981e+06
1.60202e+06
-1.21742e+07
-1.46635e+07
-1.30502e+07
-1.09884e+07
-1.43219e+07
-1.01655e+07
-1.28826e+07
-8.38836e+06
-5.18028e+06
-1.20222e+07
-1.07934e+07
-1.24371e+07
-7.59507e+06
-6.00766e+06
-2.68075e+06
-8.54956e+06
862980
-6.87699e+06
-2.03718e+06
-9.00225e+06
183204
-6.14609e+06
-4.36292e+06
-9.33505e+06
-1.16079e+07
-1.11878e+07
-3.57128e+06
-6.8642e+06
4.25497e+06
3.18476e+06
-6.32435e+06
-9.58043e+06
-7.48072e+06
-5.38315e+06
-6.45426e+06
-379680
414937
-6.06131e+06
-548102
-1.36247e+06
-9.9688e+06
-1.06004e+07
-1.77942e+07
-1.73656e+07
-1.74856e+07
-1.67543e+07
-1.7213e+07
-1.56205e+07
-1.35776e+07
-1.60046e+07
-1.41443e+07
-1.59261e+07
-1.4301e+07
-1.4991e+07
-1.42709e+07
-1.17892e+07
-1.53063e+07
-1.36019e+07
-1.25875e+07
-1.61594e+07
-1.63624e+07
-1.60328e+07
-1.68873e+07
-1.66536e+07
-1.61253e+07
-1.63835e+07
-9.33169e+06
-8.69468e+06
-7.25386e+06
-1.15788e+07
-8.47968e+06
-8.15962e+06
-9.44349e+06
-1.49881e+07
-1.29575e+07
-1.45832e+07
-1.22719e+07
-1.41239e+07
-1.82682e+07
-1.8455e+07
-1.80453e+07
-1.83013e+07
-1.83935e+07
-1.78705e+07
-1.85916e+07
-1.69036e+07
-1.65606e+07
-1.69122e+07
-1.71143e+07
-1.73456e+07
-1.67661e+07
-1.66423e+07
2.3427e+07
2.35901e+07
2.68645e+07
1.38383e+07
8.22646e+06
1.10788e+07
1.26517e+07
-1.53872e+07
-1.5856e+07
-2.45973e+07
-2.94051e+07
-2.42322e+07
-2.32305e+07
-2.93701e+07
-2.37831e+07
-6.7929e+06
-5.77464e+06
-4.61702e+06
-7.55433e+06
-8.92501e+06
-1.09349e+07
-9.33844e+06
-1.09688e+07
-1.02702e+07
-9.57367e+06
-1.44948e+07
-2.30444e+07
-1.57265e+07
-1.77293e+07
-2.40814e+07
-1.68341e+07
-1.93768e+07
-1.81335e+07
-1.76612e+07
-1.98494e+07
-1.95502e+07
-1.72892e+07
-1.78867e+07
-1.89449e+07
-1.66357e+07
-1.70567e+07
-1.72315e+07
-1.68746e+07
-1.72499e+07
-1.83183e+07
-1.75121e+07
-1.81e+07
-1.66318e+07
-1.55851e+07
-1.59362e+07
-1.61023e+07
-1.6296e+07
-1.66461e+07
-1.56616e+07
-1.68769e+07
-1.68711e+07
-1.7096e+07
-2.41724e+07
-2.40494e+07
-2.38686e+07
-2.30684e+07
-2.35638e+07
-2.35371e+07
-1.86163e+07
-1.92973e+07
-1.8847e+07
-1.89379e+07
-1.85843e+07
-1.83501e+07
-1.87689e+07
-1.80601e+07
1.06506e+07
-1.14218e+07
-9.74206e+06
-6.24845e+06
-7.86954e+06
-5.85064e+06
-3.71463e+06
6.9538e+06
8.36683e+06
6.17625e+06
4.53015e+06
-1.10595e+07
-8.33227e+06
-8.24024e+06
-1.09188e+07
-9.32799e+06
-1.12223e+07
-1.10388e+07
-8.92905e+06
-5.86801e+06
-1.0257e+07
-8.94996e+06
-1.07335e+07
-7.28197e+06
-9.53953e+06
-1.08122e+07
2.00732e+07
1.23839e+07
1.69628e+07
1.26561e+07
1.47847e+07
8.97802e+06
1.12005e+07
1.39464e+07
-2.33957e+06
-3.74973e+06
-3.26299e+06
-2.01533e+06
-1.7009e+06
613479
-1.51016e+06
-683767
1.02582e+07
9.59297e+06
1.14343e+07
6.76501e+06
9.12689e+06
5.33405e+06
8.17214e+06
7.97176e+06
-2.91943e+06
-4.31666e+06
-1.32523e+07
-1.922e+07
-1.18578e+07
-8.69937e+06
-1.76919e+07
-1.03944e+07
-2.56292e+06
-217689
867705
5.55001e+06
4.04656e+06
2.92012e+06
7.68893e+06
4.34024e+06
-9.78143e+06
-1.16484e+07
-1.35641e+07
-9.74048e+06
-9.63697e+06
-1.32053e+07
-1.11278e+07
-9.67889e+06
-1.04464e+07
-1.01131e+07
-7.82844e+06
-1.03902e+07
-1.0094e+07
-8.39694e+06
-1.07107e+07
-1.01491e+07
1.62564e+07
1.69494e+07
3.31684e+07
2.69205e+07
3.22174e+07
2.96531e+07
2.59384e+07
3.10481e+07
-1.01794e+07
-9.409e+06
-1.22851e+07
-1.26386e+07
-1.83659e+07
-1.91265e+07
-1.89036e+07
-1.82206e+07
-8.45315e+06
-1.1253e+07
-1.14409e+07
-8.64148e+06
-1.40541e+07
-1.15216e+07
-1.08704e+07
-1.34684e+07
-1.64564e+07
-1.78945e+07
-1.78378e+07
-1.62808e+07
-1.91477e+07
-1.83282e+07
-1.81501e+07
-1.90015e+07
-1.80876e+07
-1.65924e+07
-1.59709e+07
-1.7618e+07
-1.21514e+07
-1.46418e+07
-1.51523e+07
-1.27881e+07
1.51029e+07
1.44109e+07
2.81988e+07
2.37208e+07
2.93461e+07
3.13025e+07
2.46929e+07
3.03855e+07
-9.88093e+06
-1.38122e+07
-9.9773e+06
-1.21111e+07
-1.0194e+07
-1.25595e+07
-1.38962e+07
-1.00882e+07
1.86404e+07
1.86517e+07
3.39322e+07
2.88475e+07
3.45306e+07
3.51737e+07
2.9179e+07
3.49721e+07
-1.21802e+07
-1.50801e+07
-1.49029e+07
-1.17737e+07
-1.11796e+07
-1.42707e+07
-1.43347e+07
-1.16052e+07
-2.49957e+07
-2.92395e+07
-2.52841e+07
-1.70089e+07
-1.702e+07
-2.90937e+07
-2.56648e+07
-2.55538e+07
-1.64492e+07
-1.58645e+07
-1.66691e+07
-1.59173e+07
-1.71777e+07
-1.63148e+07
-1.63474e+07
-1.71068e+07
-1.98655e+07
-1.78083e+07
-1.95263e+07
-1.82013e+07
-1.94397e+07
-1.81128e+07
-1.77904e+07
-1.97097e+07
-1.73107e+07
-1.74068e+07
-2.45155e+07
-2.53708e+07
-2.48055e+07
-2.52312e+07
-2.57812e+07
-2.50784e+07
2.70304e+07
2.04675e+07
2.57832e+07
9.17501e+06
1.0153e+07
1.92758e+07
2.31265e+07
2.45134e+07
-1.63825e+07
-1.78686e+07
-1.8982e+07
-1.62878e+07
-1.57713e+07
-1.87728e+07
-1.75674e+07
-1.59061e+07
-1.24097e+07
-1.56825e+07
-1.56399e+07
-1.28734e+07
-1.33861e+07
-1.60068e+07
-1.65071e+07
-1.30375e+07
164351
-797202
5.41994e+06
3.14668e+06
6.92026e+06
9.87104e+06
4.52031e+06
8.40925e+06
-1.80528e+07
-1.67853e+07
-1.71161e+07
-1.82199e+07
-1.97608e+07
-1.94593e+07
-1.93152e+07
-1.9298e+07
-1.71605e+07
-1.85551e+07
-1.89563e+07
-1.77102e+07
-2.08296e+07
-2.05464e+07
-2.00674e+07
-2.03921e+07
-1.15966e+07
-1.11218e+07
-1.28685e+07
-1.42401e+07
-1.21269e+07
-1.04771e+07
-1.33771e+07
-1.09272e+07
-1.67775e+07
-1.91602e+07
-1.68863e+07
-1.81236e+07
-1.73383e+07
-1.83955e+07
-1.933e+07
-1.72722e+07
-6.3509e+06
-5.46009e+06
3.94603e+06
-885857
2.51433e+06
-298864
-2.18755e+06
1.13821e+06
-1.93949e+07
-1.97814e+07
-1.94966e+07
-1.96207e+07
-1.98349e+07
-2.01343e+07
-1.92321e+07
-1.96723e+07
-2.05499e+07
-2.05356e+07
-1.98402e+07
-1.93215e+07
-2.01682e+07
-2.00975e+07
-1.93685e+07
1.38905e+07
1.76161e+07
1.64993e+07
-1.50866e+07
-1.47188e+07
-2.14187e+07
-2.85646e+07
-2.19905e+07
-2.28348e+07
-2.88669e+07
-2.24489e+07
-2.58187e+07
-2.42636e+07
-2.55837e+07
-2.0179e+07
-2.72468e+07
-2.48689e+07
-2.77072e+07
-2.52367e+07
-2.40191e+07
-2.49539e+07
-2.53016e+07
-2.29971e+07
-2.25922e+07
-2.35685e+07
-1.86701e+07
-2.66706e+07
-2.44217e+07
-2.59789e+07
-2.39031e+07
-2.30282e+07
-2.4551e+07
-2.40918e+07
-1.14528e+07
-9.8436e+06
-1.37372e+07
-1.05805e+07
-1.32083e+07
-1.1842e+07
-9.93802e+06
-1.50168e+07
-1.52539e+07
-1.63146e+07
-1.41695e+07
-1.40531e+07
-1.21178e+07
-1.24267e+07
-1.34481e+07
-1.62483e+07
-1.18975e+07
-1.54739e+07
-1.12148e+07
-1.48133e+07
-1.70182e+07
-1.17969e+07
-1.11363e+07
-1.19087e+07
-2.08959e+07
-2.71873e+07
-2.02271e+07
-1.86855e+07
-2.65552e+07
-1.95161e+07
-1.6468e+07
-1.71916e+07
-1.74932e+07
-1.15895e+07
-1.65782e+07
-1.81994e+07
-1.44598e+07
-1.71286e+07
-1.81031e+07
-1.93525e+07
-1.84538e+07
-2.23728e+07
-2.10285e+07
-2.17008e+07
-1.47456e+07
-1.84875e+07
-1.92186e+07
-2.01637e+07
-2.01691e+07
-2.03983e+07
-2.01867e+07
-2.09711e+07
-2.26956e+07
-1.59126e+07
-2.35088e+07
-1.50932e+07
-2.39498e+07
-2.22987e+07
-1.54284e+07
-1.78757e+07
-1.56296e+07
-1.68755e+07
-1.65294e+07
-1.81376e+07
-1.73764e+07
-1.89259e+07
-1.66523e+07
-2.11948e+07
-1.46813e+07
-2.29654e+07
-1.47071e+07
-2.23261e+07
-2.17998e+07
-1.43078e+07
-1.65061e+07
-1.6621e+07
-2.06198e+07
-1.94093e+07
-2.00956e+07
-1.89009e+07
-1.87652e+07
-1.95508e+07
-1.65264e+07
-1.63145e+07
-1.65862e+07
-1.64496e+07
-1.6121e+07
-1.66859e+07
-1.62921e+07
-1.65639e+07
-1.67986e+07
-1.71724e+07
-1.68635e+07
-1.89784e+07
-1.82336e+07
-1.83949e+07
-1.70238e+07
-1.59671e+07
-1.68793e+07
-1.66069e+07
-1.73721e+07
-1.77262e+07
-1.74388e+07
-1.78158e+07
-1.92202e+07
-1.79625e+07
-1.96065e+07
-1.77028e+07
-1.88149e+07
-2.00705e+07
-1.7734e+07
-1.69772e+07
-1.76381e+07
-1.74663e+07
-1.67295e+07
-1.71667e+07
-1.6172e+07
-1.66319e+07
-1.71511e+07
-1.79775e+07
-1.77122e+07
-1.91556e+07
-1.76746e+07
-1.84058e+07
-1.86832e+07
-1.76152e+07
-1.68764e+07
-1.68511e+07
-2.12257e+07
-2.13564e+07
-2.17285e+07
-2.26681e+07
-2.19534e+07
-2.22478e+07
-2.30281e+07
-2.21269e+07
-2.25925e+07
-1.96254e+07
-2.11832e+07
-2.11157e+07
-2.17825e+07
-2.159e+07
-2.17263e+07
-2.1665e+07
-2.21326e+07
-1.95482e+07
-1.98774e+07
-2.01098e+07
-1.87489e+07
-2.05765e+07
-2.06256e+07
-1.99279e+07
-2.01035e+07
-2.03794e+07
-2.11622e+07
-2.06415e+07
-1.68328e+07
-1.69392e+07
-1.63573e+07
-1.71113e+07
-1.65356e+07
-1.67339e+07
-1.72693e+07
-1.77695e+07
-1.72846e+07
-1.72982e+07
-1.81385e+07
-1.76443e+07
-1.86386e+07
-1.80916e+07
-1.78466e+07
-1.64e+07
-1.70457e+07
-1.61478e+07
-1.71056e+07
-1.61418e+07
-1.65684e+07
-1.71945e+07
-1.95236e+06
178442
-1.69526e+06
-3.90767e+06
2.0937e+06
117406
2.27862e+06
4.09051e+06
-8.28651e+06
-1.08363e+07
-1.08855e+07
-8.2198e+06
-1.08437e+07
-8.44801e+06
-8.66822e+06
-1.09028e+07
-4.16867e+06
-5.70109e+06
-5.87486e+06
1.13613e+07
9.69915e+06
8.92693e+06
5.25103e+06
8.73084e+06
3.82256e+06
9.79811e+06
5.63514e+06
7.27056e+06
4.34848e+06
6.59084e+06
1.04269e+07
8.36678e+06
1.1118e+06
-2.93939e+06
3.38758e+06
8.44882e+06
-202914
5.84924e+06
2.36764e+06
7.69311e+06
2.07159e+06
6.6847e+06
394917
-3.68471e+06
-1.42281e+06
-1.81649e+06
2.1976e+06
594897
141304
1.79381e+06
3.88569e+06
1.25737e+06
2.89298e+06
1.05416e+06
-77147.3
-9376.6
2.35935e+06
-2.78732e+06
-6.07741e+06
320563
-5.75385e+06
-1.62911e+06
-1.1594e+06
-6.47392e+06
441369
-3.74125e+06
1.49585e+06
-5.00995e+06
-572629
2.51726e+06
-4.27428e+06
8.39622e+06
2.64718e+06
8.94539e+06
1.09995e+06
9.89791e+06
7.323e+06
1.91696e+06
4.85359e+06
2.58342e+06
5.32297e+06
3.74152e+06
5.79825e+06
6.74354e+06
6.93844e+06
3.92801e+06
5.30128e+06
174190
8.01239e+06
293547
7.09955e+06
6.29421e+06
-485077
-1.64008e+06
-256406
-1.1625e+06
-1.01725e+07
-3.22255e+06
-7.02243e+06
-1.22754e+07
-5.2109e+06
-1.53703e+07
-1.40012e+07
-1.42036e+07
-5.74356e+06
-35945.8
-9.86395e+06
-1.54168e+06
-1.11577e+07
-1.27607e+07
-1.16359e+07
-1.29587e+07
-5.45921e+06
-6.88759e+06
-7.14481e+06
-2.47816e+06
1.01526e+06
-8.53623e+06
1.98815e+06
-7.16682e+06
-8.50739e+06
-1.02282e+07
-8.73314e+06
-2.53086e+06
-328394
-961341
-66516.4
1.46491e+06
-4.47442e+06
465854
-4.56054e+06
1.37077e+06
2.00334e+06
545368
7.07561e+06
8.51059e+06
1.96032e+07
1.38995e+07
1.6934e+07
1.09466e+07
1.14203e+07
1.40394e+07
425069
2.44919e+06
-4.39676e+06
3.44042e+06
-4.34713e+06
7.42116e+06
7.92508e+06
6.11932e+06
3.41099e+06
6.32274e+06
4.782e+06
-9.62392e+06
-1.23249e+07
-1.0086e+07
-9.64334e+06
-9.62526e+06
-1.05978e+07
-9.6093e+06
-1.27593e+07
-3.90588e+06
533253
-994561
-4.16277e+06
-1.26675e+06
-4.24197e+06
-2.95451e+06
-4.59579e+06
928401
-734229
-4.99744e+06
-495679
-4.45478e+06
-5.44436e+06
-5.03688e+06
1.64663e+06
1.04274e+06
-5.65637e+06
1.24261e+06
-5.63534e+06
-4.95204e+06
-9.71532e+06
-9.52163e+06
-1.18111e+07
-9.74488e+06
-9.90763e+06
-1.12678e+07
-9.88217e+06
-8.94286e+06
-4.85363e+06
1.37101e+06
836495
-5.68859e+06
622721
-5.72601e+06
-4.89823e+06
1.54784e+07
1.456e+07
2.20771e+07
2.02097e+07
2.42987e+07
2.80974e+07
2.19299e+07
2.63161e+07
1.52517e+07
1.71243e+07
1.46401e+07
3.82515e+06
1.02273e+07
-288140
1.10048e+07
1.80916e+06
1.64276e+07
1.30638e+07
1.39033e+07
8.68222e+06
1.2289e+07
9.90187e+06
2.37346e+06
9.36285e+06
-2.44221e+06
8.42854e+06
-3.7787e+06
1.3519e+07
1.20986e+07
1.10405e+07
-1.6055e+07
-1.64635e+07
-1.4781e+07
-1.44727e+07
-1.76599e+07
-1.7131e+07
-1.78198e+07
-1.84409e+07
-1.20371e+07
-9.31456e+06
-8.96536e+06
-1.16906e+07
-9.74367e+06
-1.24718e+07
-1.2968e+07
-1.02558e+07
-1.81376e+07
-1.70662e+07
-1.66081e+07
-1.79091e+07
-1.74877e+07
-1.84405e+07
-1.87407e+07
-1.78714e+07
-1.47297e+07
-1.6696e+07
-1.72004e+07
-1.53436e+07
-1.61853e+07
-1.41247e+07
-1.34868e+07
-1.56611e+07
1.578e+07
1.63804e+07
3.42407e+07
2.77772e+07
3.36815e+07
3.22006e+07
2.71452e+07
3.30059e+07
1.13074e+07
1.37036e+07
1.20908e+07
1.86255e+06
1.05868e+07
9.42925e+06
9.93253e+06
8.8961e+06
1.44879e+07
1.35323e+07
1.28295e+07
1.56525e+07
1.70829e+07
1.52318e+07
3.33724e+06
1.11908e+07
9.88782e+06
1.1746e+07
1.0263e+07
1.65213e+07
1.41543e+07
1.47236e+07
-520285
-587995
-3.14029e+06
3.18279e+06
-2.79265e+06
52905
2.5644e+06
-1.07877e+07
-1.32721e+07
-1.35982e+07
-1.04596e+07
-1.03056e+07
-1.3775e+07
-1.04838e+07
-1.29296e+07
743958
-1.56409e+06
-3.50982e+06
3.65448e+06
-3.89307e+06
462995
3.97402e+06
1.85982e+07
1.83996e+07
3.47124e+07
2.90958e+07
3.50209e+07
3.52773e+07
2.93165e+07
3.52359e+07
1.5736e+07
1.84302e+07
1.61026e+07
5.04588e+06
1.34236e+07
9.50364e+06
1.32997e+07
8.77911e+06
1.86123e+07
1.64804e+07
1.63427e+07
1.59965e+07
1.82767e+07
1.62571e+07
4.8678e+06
1.34553e+07
1.00647e+07
1.33823e+07
1.04456e+07
1.85095e+07
1.65147e+07
1.64323e+07
-473031
-4.94854e+06
-6.78122e+06
3.03961e+06
-7.22568e+06
2.56483e+06
-37889.1
-1.05434e+07
-1.35774e+07
-1.34644e+07
-1.11644e+07
-1.12742e+07
-1.38062e+07
-1.07885e+07
-1.37918e+07
590341
-3.57499e+06
-6.34055e+06
3.43744e+06
-5.9201e+06
3.74032e+06
317489
-2.60027e+07
-2.47863e+07
-2.61288e+07
-2.14543e+07
-2.83091e+07
-2.60513e+07
-2.84158e+07
-2.60595e+07
-2.4874e+07
-2.62209e+07
-2.6199e+07
-1.72022e+07
-1.73337e+07
-2.58841e+07
-2.818e+07
-2.59434e+07
-2.58119e+07
-2.84555e+07
-2.59172e+07
-2.16586e+07
-2.81639e+07
-2.60008e+07
-2.7933e+07
-2.58784e+07
-2.58387e+07
-2.48322e+07
-2.59943e+07
-2.61904e+07
-2.49072e+07
-2.61167e+07
-1.83809e+07
-1.70675e+07
-1.72016e+07
-1.82966e+07
-1.7714e+07
-1.67936e+07
-1.77876e+07
-1.67136e+07
-2.11109e+07
-1.81632e+07
-2.25545e+07
-1.77279e+07
-2.1453e+07
-2.21867e+07
-1.77521e+07
-2.20848e+07
-1.81204e+07
-2.29101e+07
-1.76783e+07
-2.17772e+07
-2.32627e+07
-1.76349e+07
-2.34692e+07
-1.72571e+07
-2.47421e+07
-1.68808e+07
-2.47869e+07
-2.34376e+07
-1.66954e+07
-1.8784e+07
-1.75676e+07
-1.7388e+07
-1.89152e+07
-1.93544e+07
-1.76452e+07
-1.91824e+07
-1.7892e+07
-2.32209e+07
-1.77449e+07
-2.46619e+07
-1.70559e+07
-2.45198e+07
-2.33571e+07
-1.71856e+07
-1.74175e+07
-1.7495e+07
-2.58718e+07
-2.72457e+07
-2.57654e+07
-2.54751e+07
-2.69059e+07
-2.56548e+07
-2.34387e+07
-2.31896e+07
-2.38316e+07
-2.08171e+07
-2.51665e+07
-2.40976e+07
-2.46423e+07
-2.3728e+07
-2.34927e+07
-2.45582e+07
-2.42071e+07
-2.56494e+07
-2.44481e+07
-2.54204e+07
-2.13131e+07
-2.56446e+07
-2.44356e+07
-2.61116e+07
-2.47525e+07
-2.42662e+07
-2.48771e+07
-2.51678e+07
1.04708e+07
1.10811e+07
9.60543e+06
-1.17434e+06
5.10989e+06
4.38502e+06
6.00279e+06
5.26741e+06
1.01322e+07
7.76189e+06
8.69331e+06
8.24035e+06
7.23003e+06
1.74186e+07
1.41379e+07
1.89071e+07
2.1747e+07
1.54766e+07
2.03513e+07
-3.22441e+06
4.20616e+06
3.47926e+06
3.28563e+06
2.54715e+06
3.80187e+06
6.09113e+06
4.81321e+06
6.80676e+06
7.12806e+06
5.81367e+06
-1.47042e+07
-1.82741e+07
-1.69921e+07
-1.49045e+07
-1.54068e+07
-1.72677e+07
-1.52584e+07
-1.85151e+07
-1.1422e+07
-1.26198e+07
-1.36044e+07
-8.50861e+06
-1.39737e+07
-1.06468e+07
-9.33729e+06
-9.15598e+06
-1.12568e+07
-1.32191e+07
-7.6679e+06
-1.2838e+07
-9.89147e+06
-6.83491e+06
-3.31469e+06
-7.36374e+06
-9.87889e+06
-1.22278e+06
-9.43729e+06
-509896
-3.95968e+06
-1.43857e+07
-1.66655e+07
-1.78733e+07
-1.41815e+07
-1.36233e+07
-1.72833e+07
-1.38972e+07
-1.63169e+07
-5.39552e+06
-8.84954e+06
-1.0325e+07
-1.98201e+06
-1.07634e+07
-2.77435e+06
-4.66587e+06
1.18102e+06
2.16952e+06
1.59511e+07
1.00597e+07
1.44323e+07
1.14092e+07
8.68178e+06
1.29321e+07
-4.4725e+06
-2.46661e+06
-3.45663e+06
-8.89147e+06
-3.46311e+06
-4.43415e+06
-4.42617e+06
-5.45412e+06
-1.39862e+06
-1.38278e+06
-2.43089e+06
2.76692e+06
2.9045e+06
1.73674e+06
-6.77452e+06
-2.50043e+06
-3.42486e+06
-1.52561e+06
-2.3944e+06
1.82132e+06
-354223
687356
-1.77614e+07
-1.85908e+07
-1.83646e+07
-1.74332e+07
-1.87774e+07
-1.8073e+07
-1.83584e+07
-1.9006e+07
-1.97533e+07
-1.88059e+07
-1.83025e+07
-1.93543e+07
-1.92773e+07
-2.01693e+07
-2.05739e+07
-1.97034e+07
-1.13432e+07
-1.09379e+07
-6.60919e+06
-9.85521e+06
-7.71393e+06
-9.61759e+06
-1.07064e+07
-8.66799e+06
-1.71515e+07
-1.56325e+07
-1.62631e+07
-1.71719e+07
-1.56853e+07
-1.66854e+07
-1.6254e+07
-1.69471e+07
-1.48206e+07
-1.46387e+07
-1.54327e+07
-1.20421e+07
-1.20083e+07
-1.26817e+07
-1.63604e+07
-1.51852e+07
-1.64344e+07
-1.46664e+07
-1.61974e+07
-1.26553e+07
-1.39696e+07
-1.33152e+07
-1.4873e+07
-1.46541e+07
-1.58769e+07
-1.41279e+07
-1.55977e+07
-1.52808e+07
-1.33605e+07
-1.8213e+07
-1.89211e+07
-1.96639e+07
-1.81944e+07
-1.77415e+07
-1.94835e+07
-1.77993e+07
-1.86271e+07
-1.58923e+07
-1.57109e+07
-1.6147e+07
-1.48656e+07
-1.64114e+07
-1.55995e+07
-1.55828e+07
-7.13623e+06
-7.93758e+06
-5.42736e+06
-7.0639e+06
-4.22026e+06
-1.63818e+06
-5.91377e+06
-2.92763e+06
-5.48272e+06
-5.57472e+06
-6.47263e+06
-1.22209e+07
-9.9106e+06
-1.13862e+07
-9.04559e+06
-1.04266e+07
-6.58425e+06
-8.39008e+06
-7.45035e+06
-1.14026e+07
-9.98872e+06
-1.07416e+07
-1.40281e+07
-1.07387e+07
-1.23116e+07
-1.153e+07
-1.32331e+07
-9.28531e+06
-9.27807e+06
-1.00575e+07
-1.7939e+07
-1.79638e+07
-1.80115e+07
-1.73417e+07
-1.83317e+07
-1.76061e+07
-1.76044e+07
-1.8612e+07
-1.98033e+07
-1.9156e+07
-1.86532e+07
-1.90364e+07
-1.93628e+07
-1.90376e+07
-1.99334e+07
-1.71307e+07
-1.71724e+07
-1.77761e+07
-1.7146e+07
-1.75568e+07
-1.69606e+07
-1.73668e+07
-1.89382e+07
-1.98618e+07
-2.02388e+07
-1.99526e+07
-1.98134e+07
-1.95521e+07
-1.97879e+07
-2.05515e+07
-2.02855e+07
-2.03762e+07
-1.74021e+07
-1.84422e+07
-1.84263e+07
-1.81445e+07
-1.77218e+07
-1.81139e+07
-1.7832e+07
-1.85243e+07
-1.87834e+07
-1.90954e+07
-1.92824e+07
-1.88679e+07
-1.87207e+07
-1.89309e+07
9.35787e+06
-1.31958e+06
1.82883e+06
1.1686e+07
-1.09731e+06
8.12937e+06
1.29221e+07
-6.42708e+06
-1.18467e+07
-6.43817e+06
-1.06134e+07
-5.26429e+06
-1.02703e+07
-7.87176e+06
-8.3105e+06
-1.06857e+07
-1.11887e+07
-1.10102e+07
-1.26309e+07
-9.23643e+06
-9.2673e+06
-1.78699e+07
-1.44937e+07
-1.53899e+07
-1.91803e+07
-1.60434e+07
-1.76643e+07
-1.89195e+07
-1.71769e+07
-1.82787e+07
-1.51098e+07
-1.56527e+07
-1.40251e+07
-1.86837e+07
-1.72622e+07
-1.62035e+07
-1.77297e+07
-1.7617e+07
-1.75863e+07
-1.66008e+07
-1.68579e+07
-1.74341e+07
-1.61848e+07
-1.69536e+07
-1.764e+07
-1.69939e+07
-1.77718e+07
-1.7154e+07
-1.59217e+07
-1.85263e+07
-1.94448e+07
-1.87223e+07
-1.85297e+07
-1.9169e+07
-1.86198e+07
-1.8122e+07
-1.83143e+07
-1.77852e+07
-1.81854e+07
-1.80427e+07
-1.8043e+07
-1.79904e+07
-1.77913e+07
-5.77755e+06
2.81721e+06
2.18615e+06
-8.31639e+06
3.7259e+06
-5.54167e+06
-8.52367e+06
-2.70537e+06
-9.48397e+06
-5.26638e+06
-9.06141e+06
-3.85679e+06
-1.09602e+07
-4.06839e+06
-1.96518e+06
-2.04898e+06
-1.00356e+07
-8.40405e+06
-8.65569e+06
-837643
-3.11153e+06
6.62519e+06
-2.67768e+06
1.04959e+07
-422921
7.8399e+06
-2.5872e+06
9.29382e+06
6.37653e+06
7.0139e+06
-1.25856e+06
-3.77291e+06
-4.13199e+06
8.17178e+06
5.17226e+06
-9.74749e+06
-5.76492e+06
-4.39992e+06
-7.27216e+06
-3.96106e+06
-9.5207e+06
-7.32408e+06
-9.13101e+06
-7.27077e+06
-2.94702e+06
-4.05107e+06
-4.71249e+06
-9.35073e+06
-7.21976e+06
-6.07702e+06
2.94281e+06
-8.14181e+06
1.02702e+06
-6.29905e+06
1.79523e+06
-7.95986e+06
-6.85177e+06
-7.66991e+06
757842