/*--------------------------------*- C++ -*----------------------------------*\
| =========                 |                                                 |
| \\      /  F ield         | OpenFOAM: The Open Source CFD Toolbox           |
|  \\    /   O peration     | Version:  2012                                  |
|   \\  /    A nd           | Website:  www.openfoam.com                      |
|    \\/     M anipulation  |                                                 |
\*---------------------------------------------------------------------------*/
FoamFile
{
    version     2.0;
    format      ascii;
    class       volVectorField;
    location    "0.108/solid";
    object      sigmaMidDir;
}
// * * * * * * * * * * * * * * * * * * * * * * * * * * * * * * * * * * * * * //

dimensions      [1 -1 -2 0 0 0 0];


internalField   nonuniform List<vector> 
3125
(
(-0.263241 0.956355 -0.126843)
(0.730277 -0.407966 0.54796)
(0.904575 -0.0681824 0.420826)
(0.915688 -0.103587 0.38831)
(0.0942883 -0.055358 0.994005)
(0.279894 0.954315 0.104608)
(0.654537 -0.547674 0.521186)
(-0.271637 0.950968 -0.147896)
(0.460132 0.83958 0.288763)
(0.281158 0.952442 0.11749)
(0.523769 0.784086 0.33298)
(0.825009 0.328913 0.459539)
(0.920741 -0.0780867 0.382281)
(0.911434 -0.0578681 0.407357)
(0.129544 0.986183 0.103252)
(0.830655 0.319564 0.45595)
(0.0944749 -0.0553211 0.993989)
(0.0817338 0.098905 0.991735)
(0.0867274 0.991922 0.0925697)
(0.077594 0.094678 0.992479)
(-0.426717 0.89661 -0.118336)
(-0.517869 0.832372 -0.197405)
(0.682668 -0.192706 0.70486)
(0.6064 -0.288278 0.741063)
(0.523504 -0.601449 0.603493)
(0.848257 -0.16794 0.502251)
(0.612415 -0.421332 0.668899)
(0.495833 -0.552398 0.670079)
(0.593996 -0.30936 0.742607)
(0.714427 -0.29692 0.633588)
(0.868614 -0.129489 0.47827)
(0.626106 -0.400545 0.668996)
(0.0961319 -0.191322 0.976808)
(0.789531 -0.175182 0.588177)
(0.822926 -0.236493 0.516589)
(0.69131 -0.605857 0.393736)
(0.799956 -0.261873 0.539902)
(0.789689 -0.135075 0.598454)
(0.794563 -0.162069 0.585153)
(0.123982 -0.129041 0.983858)
(-0.209839 0.945509 -0.248959)
(0.789123 -0.268214 0.552581)
(0.469347 0.870394 0.148751)
(0.575837 0.784251 0.231003)
(-0.414327 0.89975 -0.137051)
(-0.379397 0.868324 -0.319486)
(-0.39264 0.867914 -0.304234)
(-0.512777 0.629292 -0.583996)
(-0.473182 0.782016 -0.405647)
(-0.509748 0.8326 -0.216644)
(-0.341925 0.906411 -0.248006)
(-0.47351 0.795129 -0.378891)
(0.479427 -0.599191 0.641186)
(-0.384125 0.851726 -0.356386)
(0.461019 0.870712 0.171235)
(0.530754 0.729678 0.431127)
(0.336876 0.922178 0.190008)
(0.74451 0.487036 0.456619)
(0.64035 0.650696 0.408102)
(0.573821 0.78018 0.249097)
(0.314008 0.934542 0.167424)
(0.624926 0.675229 0.391833)
(0.723975 0.351887 0.593326)
(0.558604 0.680007 0.474924)
(0.83523 0.193543 0.514715)
(0.812524 0.215177 0.541759)
(0.755539 0.470148 0.456203)
(0.718724 0.538204 0.440197)
(0.803953 0.397445 0.442377)
(0.739112 0.324507 0.590262)
(0.806875 0.222048 0.5474)
(0.815276 0.382819 0.434482)
(0.76189 0.461023 0.454952)
(0.807302 0.392775 0.440445)
(0.692045 -0.184421 0.697899)
(0.746876 -0.146495 0.648625)
(0.924013 -0.0486962 0.379246)
(0.821102 -0.234497 0.520388)
(0.793139 -0.240687 0.559464)
(0.72544 -0.287307 0.625453)
(0.922666 -0.0462657 0.382815)
(0.786753 -0.243763 0.567097)
(0.786146 -0.133749 0.603395)
(0.752775 -0.143197 0.642514)
(0.836429 0.193622 0.512735)
(0.834571 0.205827 0.511005)
(0.622937 0.703838 0.341411)
(0.712158 0.530975 0.459235)
(0.78579 0.428766 0.445751)
(0.814059 0.385185 0.434673)
(0.768563 0.4856 0.416537)
(0.791755 0.419666 0.443851)
(0.806495 0.271717 0.525106)
(0.832772 0.210475 0.512047)
(0.0329663 0.224193 0.973987)
(0.567634 0.683943 0.458272)
(0.693977 0.5541 0.459748)
(0.0021794 0.995305 0.0967663)
(0.446439 0.781653 0.435558)
(0.799591 0.288089 0.526934)
(0.647851 0.579922 0.493943)
(0.0816972 0.172704 0.98158)
(-0.0179885 0.99325 0.11459)
(0.380598 0.820643 0.426251)
(-0.595753 0.79515 -0.113206)
(-0.558817 0.793418 -0.24127)
(-0.297119 0.831742 -0.468962)
(-0.299237 0.857165 -0.419196)
(0.72779 -0.53513 0.428903)
(0.783726 -0.298825 0.544498)
(0.770037 -0.469024 0.432504)
(-0.355257 0.888344 -0.290925)
(-0.333447 0.887745 -0.317367)
(0.876779 -0.303467 0.373051)
(0.89563 -0.0820917 0.437158)
(0.8598 -0.32701 0.392184)
(0.428814 0.896716 -0.109637)
(-0.0447237 0.998025 -0.0441048)
(0.872525 -0.334047 0.356529)
(0.90564 -0.147013 0.397747)
(0.848512 -0.367131 0.381107)
(0.378723 -0.293099 0.877874)
(0.418764 -0.203188 0.885071)
(0.0898194 -0.0995313 0.990972)
(-0.127407 0.89524 -0.42698)
(0.467988 -0.60543 0.643772)
(0.679356 0.486677 0.549201)
(0.595663 0.774357 0.213441)
(-0.577876 0.806295 -0.126288)
(-0.524206 0.835845 -0.163008)
(-0.559196 0.691424 -0.45742)
(0.713605 -0.557969 0.423602)
(0.671044 -0.623052 0.401878)
(-0.563017 0.78644 -0.254016)
(-0.285814 0.942437 -0.173557)
(-0.580021 0.760806 -0.291117)
(-0.363601 0.88782 -0.282082)
(-0.393907 0.882857 -0.255735)
(0.670148 0.427737 0.606583)
(0.648511 0.259805 0.715497)
(0.408313 0.877763 0.250625)
(0.664998 0.688459 0.289486)
(0.652077 0.704858 0.279231)
(0.59864 0.770393 0.219374)
(0.287187 0.94877 0.131752)
(0.611161 0.755843 0.234911)
(0.67683 0.0330517 0.735397)
(0.666641 0.0551759 0.743334)
(0.691863 -0.00138637 0.722028)
(0.693496 -0.000131951 0.720461)
(0.668697 0.683215 0.293363)
(0.593403 0.711374 0.37659)
(0.677363 0.671288 0.300916)
(0.679691 0.0273178 0.73299)
(0.686494 0.01475 0.726986)
(0.650697 0.690874 0.315097)
(0.812485 0.356057 0.461619)
(0.669173 0.673173 0.314714)
(-0.297275 0.820359 -0.488507)
(-0.302297 0.773285 -0.557357)
(0.923288 -0.0626267 0.378968)
(0.877987 -0.326533 0.350022)
(0.889327 -0.304013 0.341575)
(0.880604 -0.29761 0.368735)
(0.916553 -0.0510711 0.396639)
(0.890092 -0.287599 0.353585)
(0.368755 -0.330878 0.868642)
(0.345472 -0.458897 0.818573)
(0.690986 -0.00115499 0.722867)
(0.687051 -0.00202278 0.726606)
(0.216338 0.966317 0.139391)
(0.335271 0.899119 0.281387)
(0.420637 0.859478 0.290451)
(0.642238 0.698561 0.315505)
(0.829021 0.330979 0.450752)
(0.608706 0.728933 0.313262)
(0.666354 0.025797 0.745189)
(0.670857 0.0118202 0.741492)
(-0.201924 0.8111 -0.548947)
(-0.0277058 0.900317 0.434352)
(0.301615 -0.0636806 0.951301)
(0.072263 0.991463 0.108528)
(0.304967 0.910739 0.278476)
(0.0536109 0.994631 0.0885121)
(0.213131 0.93734 0.275626)
(0.665642 0.0330187 0.74554)
(0.666147 0.0818049 0.741321)
(0.0608817 0.142287 0.987951)
(-0.0320959 0.940315 0.33879)
(-0.046454 0.885885 0.461574)
(-0.492193 0.861367 -0.125667)
(-0.535978 0.810764 -0.235349)
(-0.309022 0.877024 -0.367879)
(-0.300487 0.863827 -0.404363)
(0.460344 -0.440975 0.77047)
(0.651977 -0.224519 0.724236)
(0.448768 -0.567963 0.689946)
(-0.430094 0.708413 -0.559615)
(0.64112 -0.23753 0.729757)
(0.44407 -0.60721 0.658861)
(0.691975 -0.545105 0.473319)
(0.559388 -0.518527 0.646696)
(0.737689 -0.468796 0.485845)
(0.821214 -0.221266 0.525974)
(0.817971 -0.392747 0.420325)
(0.782846 -0.447935 0.431864)
(0.572283 -0.491967 0.656095)
(0.791488 -0.379027 0.479463)
(0.751597 -0.444899 0.486998)
(-0.312658 0.88033 -0.35674)
(-0.327409 0.88648 -0.327043)
(-0.412054 0.840779 -0.351143)
(0.541298 -0.426646 0.724547)
(-0.413855 0.809193 -0.417051)
(-0.425675 0.734638 -0.528306)
(0.555066 -0.39147 0.73393)
(-0.41567 0.794664 -0.442411)
(0.863951 -0.26808 0.426288)
(0.678452 -0.33355 0.654559)
(0.841988 -0.29949 0.448734)
(0.884 -0.101714 0.456288)
(0.827655 -0.376764 0.415975)
(0.853177 -0.337868 0.397409)
(0.665504 -0.348364 0.660112)
(0.802827 -0.360444 0.47492)
(0.833845 -0.311934 0.455412)
(0.523827 -0.201487 0.827653)
(-0.101333 0.992517 -0.0681352)
(0.0172619 -0.527623 0.849303)
(0.600082 -0.518928 0.608782)
(0.107091 0.992595 0.0573296)
(0.659863 0.16428 0.733207)
(0.726281 -0.298502 0.619204)
(0.154078 0.974716 0.161826)
(0.884692 -0.279786 0.37288)
(0.821266 -0.2446 0.515455)
(0.866051 -0.31227 0.39044)
(0.878065 -0.244615 0.411298)
(0.786444 -0.422349 0.450697)
(0.837971 -0.377403 0.394173)
(0.819514 -0.248661 0.516298)
(0.811285 -0.37237 0.45073)
(0.856606 -0.325353 0.400465)
(0.50227 -0.170068 0.847821)
(0.437426 -0.190352 0.878877)
(0.561068 0.00320257 0.827763)
(0.797073 -0.14077 0.587246)
(0.59989 0.0438233 0.798882)
(0.653488 0.115554 0.748064)
(0.798747 -0.143032 0.584419)
(0.613899 0.0572702 0.787304)
(0.0923719 -0.107007 0.989958)
(0.63457 -0.382196 0.67175)
(0.494479 -0.587833 0.640268)
(-0.101185 0.962131 -0.253112)
(0.758741 -0.442841 0.477708)
(0.565756 -0.576348 0.589698)
(0.710877 -0.317369 0.627639)
(0.785916 -0.395707 0.475134)
(0.600508 -0.545978 0.584207)
(0.56654 0.771625 0.289183)
(0.57762 0.786398 0.218937)
(-0.484311 0.864321 -0.135616)
(-0.386418 0.899997 -0.20171)
(-0.462543 0.870787 -0.166685)
(-0.459301 0.863633 -0.207799)
(-0.50722 0.8439 -0.174816)
(-0.381195 0.896032 -0.227634)
(-0.438788 0.873035 -0.212779)
(-0.455916 0.872095 -0.177738)
(-0.465837 0.800687 -0.376691)
(-0.622296 0.696765 -0.356744)
(0.65793 -0.643625 0.390992)
(0.677518 -0.570199 0.464588)
(-0.487537 0.70621 -0.513396)
(-0.63382 0.642257 -0.431021)
(-0.586851 0.719606 -0.371179)
(-0.481552 0.728775 -0.486821)
(-0.62149 0.663641 -0.416331)
(-0.53816 0.805085 -0.249444)
(-0.488158 0.826658 -0.27989)
(-0.550854 0.781784 -0.292187)
(-0.308165 0.928801 -0.205821)
(-0.612315 0.712239 -0.343201)
(-0.586691 0.750225 -0.304887)
(-0.482782 0.821457 -0.303531)
(-0.578298 0.734747 -0.354567)
(-0.555762 0.772186 -0.307989)
(-0.444524 0.868838 -0.217988)
(-0.405117 0.88047 -0.24628)
(-0.412685 0.84812 -0.332241)
(-0.429581 0.734632 -0.525143)
(-0.418355 0.863579 -0.281442)
(-0.433601 0.872431 -0.225508)
(-0.41489 0.772251 -0.481139)
(-0.421247 0.866875 -0.266606)
(0.57399 0.751011 0.326371)
(0.460391 0.84866 0.260414)
(0.612276 0.634801 0.471323)
(0.648966 0.12905 0.749793)
(0.646062 0.218181 0.731438)
(0.470053 0.830614 0.298548)
(0.668791 0.36388 0.648313)
(0.628172 0.574361 0.524889)
(0.367309 0.904265 0.217691)
(0.633291 0.728453 0.26134)
(0.647703 0.710749 0.274438)
(0.684468 0.651204 0.327775)
(0.70417 0.550077 0.448954)
(0.660279 0.68225 0.313952)
(0.628011 0.722827 0.288312)
(0.688834 0.573892 0.442894)
(0.65268 0.692292 0.3078)
(0.580255 0.782196 0.22688)
(0.581084 0.752262 0.310553)
(0.594983 0.76388 0.249966)
(0.297662 0.943069 0.148387)
(0.628783 0.734345 0.255674)
(0.614764 0.751024 0.240889)
(0.588558 0.737203 0.33186)
(0.620937 0.731893 0.280659)
(0.599727 0.757354 0.258345)
(0.652093 0.108931 0.750273)
(0.662792 0.0648733 0.745988)
(0.73622 0.0410333 0.675497)
(0.666214 0.466095 0.582163)
(0.713591 0.116821 0.690753)
(0.679138 0.29957 0.670096)
(0.642196 0.515676 0.567153)
(0.705553 0.151992 0.692165)
(0.692858 0.00395777 0.721063)
(0.693528 9.81274e-05 0.72043)
(0.793345 -0.0880387 0.602373)
(0.82869 0.198527 0.523316)
(0.790185 -0.0781772 0.607862)
(0.781103 -0.0585362 0.621653)
(0.825598 0.201518 0.527047)
(0.788478 -0.0741047 0.610582)
(0.691186 0.641683 0.332422)
(0.782137 0.429451 0.451479)
(0.710262 0.615637 0.341349)
(0.661862 0.624406 0.414796)
(0.681085 0.663971 0.308653)
(0.678951 0.668395 0.303768)
(0.788679 0.419879 0.449095)
(0.725976 0.592713 0.348783)
(0.714677 0.608785 0.344408)
(0.692111 0.00584173 0.721767)
(0.688376 0.012553 0.725245)
(0.742952 0.0225154 0.668966)
(0.77522 0.265229 0.573313)
(0.76059 -0.018497 0.648969)
(0.777895 -0.0522972 0.626215)
(0.784642 0.251235 0.566761)
(0.765658 -0.0286632 0.642608)
(0.717995 0.59984 0.353092)
(0.814872 0.382955 0.43512)
(0.727729 0.587664 0.353639)
(0.791758 0.400971 0.460805)
(0.680415 0.663694 0.310717)
(0.673656 0.669202 0.313619)
(0.814048 0.3839 0.435828)
(0.727726 0.589455 0.350654)
(0.729674 0.585643 0.352985)
(0.463243 -0.398417 0.791624)
(0.717934 -0.164546 0.676385)
(0.471889 -0.283223 0.834929)
(0.317287 -0.666366 0.674748)
(-0.305095 0.752364 -0.583837)
(0.72571 -0.159014 0.669372)
(0.487676 -0.164421 0.857402)
(0.475016 -0.249571 0.843845)
(0.924341 -0.0529011 0.377883)
(0.894812 -0.287876 0.341232)
(0.891501 -0.300043 0.339412)
(0.88891 -0.270464 0.369714)
(0.813291 -0.234127 0.532674)
(0.895356 -0.251458 0.367568)
(0.895173 -0.239163 0.376119)
(0.808472 -0.234474 0.53981)
(0.896476 -0.246488 0.368205)
(0.869441 -0.261046 0.419437)
(0.754892 -0.264153 0.600301)
(0.883558 -0.244502 0.39943)
(0.920265 -0.046953 0.38847)
(0.895006 -0.286795 0.341633)
(0.891997 -0.285354 0.350591)
(0.763962 -0.257992 0.591441)
(0.894169 -0.237661 0.379446)
(0.886841 -0.241823 0.393745)
(0.321744 -0.630594 0.70628)
(0.338796 -0.501778 0.795887)
(0.549735 -0.0120077 0.835253)
(0.774202 -0.135436 0.618278)
(0.5199 -0.0591081 0.85218)
(0.492556 -0.140263 0.858903)
(0.769205 -0.136674 0.624214)
(0.511845 -0.0779682 0.855532)
(0.793766 -0.0909805 0.60138)
(0.837952 0.195446 0.509545)
(0.792976 -0.0998418 0.601017)
(0.68039 0.00201683 0.732848)
(0.685644 -0.000284131 0.727937)
(0.837587 0.197482 0.509361)
(0.788159 -0.110285 0.60551)
(0.792285 -0.102528 0.601475)
(0.381753 0.897848 0.219393)
(0.519951 0.79858 0.303184)
(0.448931 0.843646 0.294486)
(0.411962 0.86178 0.296012)
(0.752082 0.477577 0.454195)
(0.508672 0.800681 0.316486)
(0.609216 0.717985 0.336682)
(0.76283 0.462049 0.452329)
(0.537453 0.779356 0.322101)
(0.712256 0.606405 0.353504)
(0.808093 0.394853 0.437123)
(0.687379 0.636324 0.350146)
(0.815332 0.374747 0.441359)
(0.541247 0.783203 0.306014)
(0.59372 0.741648 0.312177)
(0.804505 0.400615 0.438496)
(0.629057 0.69892 0.34029)
(0.675615 0.649247 0.349317)
(0.678585 0.00387117 0.734512)
(0.672511 0.00750231 0.740049)
(0.763673 -0.161049 0.625193)
(0.821363 0.236828 0.518917)
(0.775655 -0.13245 0.617103)
(0.78634 -0.113098 0.607354)
(0.824844 0.229089 0.516867)
(0.778698 -0.126647 0.614484)
(0.224438 0.96602 0.128193)
(0.0981362 0.99262 0.071232)
(0.155962 0.123186 0.980052)
(0.0880928 0.955859 0.280308)
(-0.0737112 0.996757 0.0322966)
(-0.0127197 0.996768 -0.0793156)
(0.180301 0.941959 0.283205)
(-0.0362926 0.999313 -0.00750191)
(0.380127 0.877831 0.291403)
(0.622157 0.635099 0.457788)
(0.27532 0.920608 0.27691)
(0.028785 0.995343 0.0919977)
(0.0693574 0.957322 0.280579)
(0.178578 0.944799 0.274708)
(0.588582 0.668609 0.454459)
(0.117922 0.955253 0.271267)
(0.239529 0.931185 0.27481)
(0.341634 0.903998 0.257049)
(0.667034 0.139853 0.731784)
(0.75768 -0.179834 0.62736)
(0.768942 0.359332 0.52878)
(0.702104 -0.359671 0.614563)
(-0.0405635 0.992414 -0.11606)
(0.753128 0.393257 0.527397)
(-0.587486 0.595755 -0.547664)
(0.060761 0.154478 0.986126)
(0.0596212 0.882529 0.466463)
(-0.0400179 0.895769 0.442715)
(-0.0266576 0.98652 0.161452)
(0.0308668 0.957707 0.286086)
(-0.0554699 0.925302 0.375152)
(0.124532 0.900824 0.415943)
(0.0772605 0.958037 0.276035)
(-0.0351642 0.934525 0.354157)
(0.0781024 0.989552 -0.12119)
(0.163072 0.97416 -0.15627)
(-0.489389 0.872063 0.00209973)
(-0.489909 0.871773 0.00126699)
(-0.44621 0.89491 -0.00575992)
(-0.452556 0.891726 -0.00415535)
(-0.518197 -0.324742 0.791211)
(-0.211415 0.900947 0.378944)
(-0.489572 0.871463 0.0295156)
(-0.488032 0.871539 0.0473778)
(0.985761 0.131027 0.10539)
(0.976931 0.192725 0.0919972)
(-0.00482522 0.995611 -0.0934598)
(-0.0794865 0.994103 -0.0737696)
(-0.440706 0.897627 -0.0066404)
(-0.432904 0.901407 -0.00773679)
(0.990593 0.0661818 0.119772)
(0.990998 -0.0035956 0.13383)
(0.793112 -0.486939 0.365873)
(0.807131 -0.478906 0.345236)
(0.524586 -0.486433 0.698708)
(0.541613 -0.491285 0.682125)
(0.777462 -0.495613 0.387196)
(0.763402 -0.500952 0.407755)
(-0.492679 0.870204 0.00357173)
(-0.492046 0.870562 0.00357746)
(-0.493429 0.869468 0.0235465)
(-0.493707 0.869447 0.0177755)
(0.505457 -0.483875 0.714407)
(0.48803 -0.480091 0.72893)
(0.205152 -0.505623 0.838008)
(0.229018 -0.495717 0.837744)
(0.150719 0.321102 0.934975)
(0.0528923 0.33339 0.941304)
(0.0772594 0.774226 0.628176)
(0.195993 0.847385 -0.493483)
(0.842135 -0.530957 0.0943024)
(0.17302 -0.520969 0.835856)
(0.146481 -0.531361 0.834385)
(0.0483302 0.890388 0.45263)
(0.0673046 0.107712 0.991901)
(0.172246 0.337689 0.925363)
(0.0486291 0.324896 0.944499)
(0.110733 0.363633 0.924937)
(0.06948 0.784171 0.616643)
(0.0335701 0.409783 0.911565)
(-0.379025 0.915945 -0.131855)
(-0.440568 0.891954 -0.101575)
(-0.254684 0.966718 -0.0243239)
(-0.254908 0.966719 -0.0218335)
(-0.387571 0.914226 -0.11823)
(-0.220261 0.973896 -0.0548821)
(-0.542688 0.81098 -0.218636)
(-0.526561 0.830959 -0.179558)
(-0.25381 0.965854 -0.0520245)
(-0.253769 0.966113 -0.0471932)
(-0.54619 0.812782 -0.202638)
(-0.22073 0.973502 -0.0597674)
(-0.477275 0.878753 -0.00104895)
(-0.480812 0.876823 0.000615513)
(0.58543 -0.262576 0.767024)
(0.672979 -0.201579 0.711664)
(0.738967 0.133125 0.660458)
(0.731089 0.130022 0.669778)
(0.57762 -0.276808 0.76794)
(0.672803 0.100725 0.732933)
(0.523082 -0.40229 0.751364)
(0.618285 -0.268975 0.738496)
(0.683761 0.10712 0.721801)
(0.532921 -0.375922 0.758075)
(0.661769 -0.322572 0.676764)
(0.604583 -0.573097 0.553209)
(0.630612 -0.241367 0.737611)
(0.534956 -0.573191 0.620705)
(0.647218 -0.16352 0.74456)
(0.626538 -0.436783 0.645501)
(0.616587 -0.546685 0.56653)
(0.750997 -0.0770447 0.655795)
(0.727957 0.0137216 0.685486)
(0.59901 -0.443277 0.666853)
(0.694437 -0.400566 0.59775)
(0.715662 -0.000973408 0.698446)
(0.763672 -0.0573896 0.643049)
(0.681276 -0.42232 0.59792)
(-0.47639 0.879233 -0.00135932)
(-0.472023 0.881584 -0.00200317)
(-0.425504 0.689471 -0.586155)
(0.580866 -0.0449882 0.812755)
(0.511869 -0.506563 0.693819)
(0.590149 -0.000435149 0.807294)
(-0.439361 0.650839 -0.619169)
(0.661369 0.0929837 0.744275)
(0.512968 -0.431228 0.742231)
(0.58157 -0.33347 0.742007)
(0.649447 0.0850998 0.75563)
(0.502296 -0.463106 0.730227)
(0.828043 0.0162062 0.56043)
(0.786776 -0.276194 0.551997)
(0.702626 -0.307848 0.641519)
(0.802712 0.0751675 0.59161)
(0.795555 0.0706849 0.601744)
(0.776607 -0.287065 0.560781)
(0.834496 0.0207037 0.550625)
(0.785997 -0.0258035 0.617692)
(0.739667 0.0260667 0.672468)
(0.639438 -0.381544 0.66749)
(0.707113 -0.380211 0.59618)
(0.750578 0.0366238 0.659766)
(0.775304 -0.0403632 0.630298)
(0.719599 -0.361017 0.593164)
(-0.40807 0.883045 0.231753)
(-0.397322 0.882794 0.250619)
(0.115986 -0.348207 0.930215)
(0.290569 -0.629947 0.720234)
(-0.327042 0.893231 -0.308515)
(-0.230467 0.968571 -0.0935662)
(-0.125546 0.84738 -0.515932)
(0.809762 0.147888 0.567815)
(0.732485 -0.20215 0.650077)
(0.780921 -0.190491 0.594875)
(0.805905 0.144655 0.574101)
(0.724114 -0.243438 0.645289)
(0.878942 0.0331054 0.475779)
(0.864059 -0.235053 0.445144)
(0.857433 0.0949316 0.505764)
(0.823993 -0.238882 0.513781)
(0.858119 0.092856 0.504985)
(0.878898 0.0358095 0.475663)
(0.862745 -0.239833 0.445142)
(0.873247 -0.0154691 0.487032)
(0.853441 0.0647479 0.517152)
(0.808431 -0.255703 0.530147)
(0.821811 -0.285639 0.492989)
(0.855504 0.0745553 0.512401)
(0.868838 -0.0605604 0.491378)
(0.833967 -0.275138 0.478327)
(-0.421388 0.875688 0.2358)
(-0.442119 0.879419 0.176501)
(0.702584 -0.15077 0.695446)
(0.809151 0.153972 0.567069)
(0.793169 -0.135208 0.593803)
(0.810556 0.154875 0.564813)
(0.708816 -0.149989 0.689263)
(0.812482 0.146738 0.564217)
(0.734588 -0.180456 0.654077)
(0.797724 -0.153435 0.583176)
(0.81297 0.151752 0.562185)
(0.733514 -0.169944 0.658086)
(-0.173871 0.941962 -0.287186)
(0.103541 -0.122729 0.987024)
(0.320694 -0.373334 0.870504)
(-0.283483 0.736986 -0.613587)
(-0.230492 0.940323 -0.250332)
(0.304068 -0.365074 0.879923)
(-0.240045 0.689554 -0.683297)
(-0.554427 0.771043 -0.313214)
(0.850608 0.0468405 0.52371)
(0.773183 -0.276311 0.570824)
(0.805458 -0.297475 0.512588)
(0.846516 0.0052521 0.532337)
(0.853439 -0.17456 0.491091)
(0.783978 -0.310414 0.537607)
(0.417561 0.890298 0.181694)
(0.480593 0.867282 0.129818)
(0.260143 0.965123 0.0293743)
(0.420466 0.892776 0.161741)
(0.260291 0.965163 0.0266259)
(0.223793 0.972969 0.0570007)
(0.597219 0.767121 0.234212)
(0.579682 0.786141 0.214363)
(0.261831 0.963448 0.0566785)
(0.597281 0.770754 0.221796)
(0.261339 0.963867 0.0515927)
(0.224965 0.972401 0.0618718)
(-0.371516 0.916741 -0.14684)
(-0.254634 0.966652 -0.0272925)
(-0.403298 0.901513 -0.156924)
(-0.255021 0.966453 -0.0305322)
(-0.364796 0.916782 -0.162586)
(-0.337512 0.941054 -0.0224402)
(-0.313748 0.949139 -0.0264216)
(-0.268791 0.960743 -0.0687369)
(-0.377518 0.880767 -0.285882)
(-0.347883 0.892739 -0.286348)
(-0.263986 0.962771 -0.0581674)
(-0.347336 0.900562 -0.261429)
(-0.505854 0.708714 -0.491769)
(-0.593056 0.599099 -0.537926)
(0.607829 -0.356502 0.709543)
(-0.503187 0.656365 -0.562128)
(0.574242 -0.574703 0.583064)
(0.568839 -0.516219 0.640266)
(-0.582182 0.6242 -0.520997)
(-0.282637 0.942551 -0.178083)
(-0.29705 0.942001 -0.156193)
(-0.539182 0.743633 -0.395339)
(-0.474527 0.76638 -0.432997)
(-0.266198 0.951663 -0.153219)
(-0.315042 0.930228 -0.188211)
(-0.543697 0.728003 -0.417618)
(-0.223371 0.97212 -0.0713273)
(-0.539643 0.808256 -0.235599)
(-0.254357 0.965399 -0.0575102)
(-0.501868 0.831914 -0.236743)
(-0.221743 0.972923 -0.0651916)
(-0.255378 0.964741 -0.0636967)
(-0.536967 0.804724 -0.253151)
(-0.245181 0.962191 -0.118637)
(-0.284273 0.949533 -0.132572)
(-0.475298 0.805997 -0.35279)
(-0.535749 0.757373 -0.373307)
(-0.275081 0.95457 -0.114568)
(-0.254177 0.957809 -0.134146)
(-0.533603 0.769049 -0.351895)
(-0.360718 0.932499 -0.01813)
(-0.376646 0.926224 -0.0156933)
(-0.411915 0.725819 -0.55092)
(0.57398 -0.121876 0.809749)
(-0.46277 0.646525 -0.606506)
(0.566976 -0.286123 0.772446)
(-0.398952 0.759188 -0.514267)
(-0.275692 0.957619 -0.0834199)
(-0.350128 0.882805 -0.313155)
(-0.39182 0.830531 -0.395848)
(-0.286599 0.952357 -0.104295)
(-0.353993 0.870494 -0.341949)
(0.417323 0.885325 0.205036)
(0.260588 0.964902 0.032527)
(0.45624 0.867754 0.197098)
(0.41988 0.877467 0.231847)
(0.261385 0.964548 0.0364151)
(0.916465 -0.332734 0.222214)
(0.933167 -0.29363 0.207316)
(0.295565 0.950156 0.0992239)
(0.50585 0.771524 0.385832)
(0.513955 0.719323 0.46736)
(0.489506 0.762644 0.422798)
(0.282477 0.956104 0.077918)
(0.592242 0.634996 0.496013)
(0.738581 0.533779 0.411798)
(0.732293 0.505728 0.456056)
(0.71377 0.159625 0.681948)
(0.727986 0.550829 0.408195)
(0.693527 0.246872 0.676812)
(0.656471 0.507368 0.558233)
(0.315282 0.929493 0.191418)
(0.344048 0.918199 0.196318)
(0.654989 0.664631 0.359521)
(0.656369 0.625146 0.422341)
(0.66704 0.646172 0.370837)
(0.291967 0.942419 0.163101)
(0.382117 0.889665 0.249966)
(0.229018 0.970616 0.0738641)
(0.598097 0.762337 0.247229)
(0.263181 0.96272 0.0624988)
(0.573706 0.773726 0.268717)
(0.226735 0.971623 0.0673716)
(0.60027 0.756 0.261036)
(0.265315 0.961661 0.0694018)
(0.261283 0.957153 0.124856)
(0.318634 0.934317 0.159764)
(0.610875 0.698139 0.373408)
(0.643583 0.682232 0.346931)
(0.633033 0.698618 0.33347)
(0.301115 0.944161 0.133752)
(0.274587 0.951069 0.141668)
(0.899644 -0.366121 0.237898)
(0.883368 -0.394008 0.253806)
(0.685619 0.358505 0.633561)
(0.706854 0.384101 0.59399)
(0.675406 -0.0640344 0.73466)
(0.670229 0.38992 0.63147)
(0.661629 -0.0339649 0.749062)
(0.31848 0.93822 0.135325)
(0.539782 0.670004 0.509637)
(0.587458 0.625235 0.513784)
(0.565598 0.617154 0.54701)
(0.366954 0.905505 0.213086)
(0.650304 -0.509198 0.563757)
(0.633126 -0.507124 0.584788)
(0.794945 0.202122 0.572022)
(0.833571 0.194204 0.51715)
(0.80867 -0.16832 0.563668)
(0.792837 0.202852 0.574683)
(0.805283 -0.166282 0.569095)
(0.77362 -0.148765 0.615939)
(0.770286 0.223745 0.597158)
(0.817452 0.209685 0.536473)
(0.775419 0.218097 0.592587)
(0.780455 -0.152567 0.606311)
(0.73336 0.302617 0.608774)
(0.748321 0.518122 0.414205)
(0.765449 0.454914 0.455128)
(0.729798 0.10078 0.676194)
(0.757275 0.503834 0.415555)
(0.702593 0.390839 0.59465)
(0.743934 0.0601004 0.665545)
(0.80807 0.0946954 0.581426)
(0.805233 -0.0469285 0.591098)
(0.799767 0.40335 0.444613)
(0.793769 0.442749 0.417019)
(0.789712 0.449674 0.417311)
(0.797321 -0.0372511 0.602405)
(0.816715 0.0746422 0.572193)
(0.667605 -0.510532 0.541905)
(0.685239 -0.511171 0.518799)
(0.699386 0.331848 0.633037)
(0.752511 0.301043 0.585748)
(0.68932 -0.083681 0.719608)
(0.711687 0.309337 0.630724)
(0.702709 -0.0979261 0.704706)
(0.765941 -0.144861 0.626378)
(0.764337 0.230557 0.60219)
(0.800255 0.230211 0.553711)
(0.757581 0.239422 0.607247)
(0.75756 -0.139091 0.637774)
(0.855263 0.0153758 0.517966)
(0.802651 0.427911 0.415504)
(0.815951 0.381618 0.434271)
(0.84509 -0.0860854 0.527648)
(0.803752 0.426365 0.414965)
(0.842153 -0.083333 0.53276)
(0.858209 0.00977009 0.513207)
(0.831456 0.0497816 0.553355)
(0.812416 -0.0551317 0.580466)
(0.810085 0.389033 0.438651)
(0.796895 0.437834 0.416246)
(0.799508 0.433793 0.415464)
(0.819031 -0.0616392 0.570429)
(0.824518 0.0598803 0.562658)
(0.593473 -0.249696 0.765142)
(0.746411 0.135561 0.651532)
(0.701264 -0.176867 0.690613)
(0.753144 0.138691 0.64307)
(0.601664 -0.237754 0.762544)
(-0.494686 0.869049 0.00625844)
(-0.496708 0.867904 0.00494213)
(0.784633 0.149787 0.601593)
(0.740253 -0.149884 0.655409)
(0.644814 -0.185429 0.741505)
(0.780296 0.148623 0.607494)
(0.638105 -0.192318 0.745544)
(0.877964 0.0414741 0.476926)
(0.864249 -0.230808 0.446992)
(0.856602 0.0963588 0.5069)
(0.818868 -0.233334 0.524414)
(0.878646 0.038262 0.475938)
(0.855452 0.097256 0.508669)
(0.863763 -0.22716 0.44979)
(0.871702 0.0439302 0.488063)
(0.843998 0.0958756 0.527707)
(0.84936 -0.224603 0.477641)
(0.799339 -0.237903 0.551778)
(0.869692 0.0427621 0.491738)
(0.846635 0.0965211 0.523349)
(0.853838 -0.222706 0.470492)
(0.845375 0.0297735 0.533343)
(0.796223 -0.266449 0.54317)
(0.80924 0.0788675 0.582161)
(0.735807 -0.278729 0.617169)
(0.840226 0.0253723 0.541642)
(0.815136 0.0822524 0.5734)
(0.804874 -0.257669 0.534588)
(0.864558 0.0415217 0.500814)
(0.841107 0.0949225 0.532474)
(0.779584 -0.24815 0.575039)
(0.844174 -0.227185 0.485549)
(0.837716 0.0936112 0.538024)
(0.867347 0.0417135 0.495952)
(0.838947 -0.230141 0.493156)
(-0.497604 0.867353 0.00946735)
(-0.495506 0.868554 0.00937347)
(0.696544 -0.151945 0.701241)
(0.807291 0.154441 0.569586)
(0.782631 -0.133164 0.608076)
(0.805112 0.155165 0.572467)
(0.690661 -0.154564 0.706468)
(0.788588 0.149943 0.596361)
(0.651779 -0.179141 0.736948)
(0.758827 -0.140128 0.636039)
(0.791916 0.151847 0.591448)
(0.658894 -0.173829 0.731876)
(0.796401 0.202182 0.569972)
(0.811538 -0.170175 0.558969)
(0.837287 0.193484 0.511385)
(0.797416 0.202522 0.56843)
(0.81401 -0.171657 0.554906)
(0.377585 -0.467573 0.799253)
(0.39561 -0.469426 0.789387)
(0.821055 -0.18075 0.541478)
(0.835943 0.202326 0.510161)
(0.795901 0.218359 0.564678)
(0.797039 0.21426 0.564643)
(0.820656 -0.179313 0.542559)
(0.865398 0.100499 0.490903)
(0.643332 0.643486 0.414789)
(0.728369 0.509222 0.458446)
(0.854648 -0.0787553 0.513201)
(0.668261 0.615238 0.418222)
(0.855592 -0.0835031 0.510872)
(0.861154 0.134505 0.490227)
(0.871153 0.0216139 0.490535)
(0.857667 -0.0944884 0.505449)
(0.758419 0.497021 0.421629)
(0.778931 0.438937 0.447885)
(0.747586 0.51304 0.421788)
(0.870951 0.0120755 0.491222)
(0.857813 -0.0937096 0.505347)
(0.863542 0.00731587 0.504225)
(0.800672 0.431322 0.415795)
(0.847822 -0.0881994 0.522895)
(0.812479 0.388053 0.435077)
(0.86102 0.00685374 0.508525)
(0.798053 0.436026 0.415923)
(0.850319 -0.0896913 0.518569)
(0.870371 0.00932508 0.492308)
(0.857377 -0.0945802 0.505923)
(0.796765 0.412312 0.441774)
(0.767195 0.484106 0.420778)
(0.774365 0.473623 0.419571)
(0.857054 -0.094114 0.506558)
(0.870681 0.0096486 0.491753)
(0.35742 -0.468879 0.807715)
(0.339903 -0.469644 0.814801)
(0.765149 0.307186 0.565848)
(0.812263 0.257589 0.523333)
(0.813618 -0.19666 0.547129)
(0.771665 0.288787 0.566688)
(0.815663 -0.192358 0.545612)
(0.821007 -0.182625 0.540921)
(0.794114 0.223534 0.565169)
(0.830646 0.214808 0.513697)
(0.791839 0.230242 0.565667)
(0.820948 -0.182795 0.540953)
(-0.0835626 -0.659624 0.746936)
(-0.11381 -0.67829 0.725927)
(0.0126351 0.367082 0.930103)
(0.0649013 0.755911 0.65145)
(0.175415 0.949457 0.260308)
(-0.000856216 0.87032 0.492487)
(0.172221 0.984451 0.0345747)
(-0.197865 0.942775 -0.268374)
(0.355556 0.8798 0.315486)
(0.454892 0.79311 0.405031)
(0.249447 0.935575 0.249952)
(0.0449732 0.993281 -0.106633)
(0.809811 0.371773 0.453862)
(0.614899 0.673585 0.410099)
(0.673901 0.578082 0.460085)
(0.853785 -0.0723091 0.51558)
(0.583584 0.704036 0.404675)
(0.850501 0.207849 0.483164)
(0.85323 -0.0611414 0.517939)
(0.199418 0.976759 0.0785792)
(0.255052 0.963393 0.0825914)
(0.505495 0.738784 0.445727)
(0.303412 0.884264 0.354991)
(0.365972 0.855289 0.366805)
(0.486892 0.840997 0.235926)
(0.161471 0.98511 0.0590428)
(-0.0660428 -0.647924 0.758836)
(-0.0240051 -0.62642 0.779116)
(0.756547 0.331095 0.563926)
(0.791675 0.30587 0.528862)
(0.81155 -0.199176 0.549287)
(0.745183 0.361357 0.560467)
(0.80914 -0.201749 0.551897)
(0.688788 -0.484653 0.53915)
(0.467954 0.793045 0.389998)
(0.698035 0.499417 0.513157)
(0.563311 0.690533 0.453702)
(0.769319 -0.302049 0.562952)
(0.0960785 0.956862 0.274197)
(0.066067 0.167451 0.983664)
(0.131576 0.521003 0.843353)
(0.116461 0.760941 0.638283)
(0.122284 0.515466 0.84814)
(0.151816 0.963989 0.218352)
(0.083611 0.691981 0.717058)
(0.124943 0.99088 0.0504551)
(0.196852 0.979222 0.0487238)
(0.30414 0.856568 0.416881)
(0.240581 0.906294 0.347493)
(0.175783 0.921729 0.34571)
(0.171926 0.984378 0.0379717)
(0.139747 0.988842 0.0516008)
(-0.532377 0.82205 -0.202011)
(-0.613299 0.783515 -0.0998473)
(-0.460876 0.85703 -0.230419)
(-0.141706 0.989514 -0.0279394)
(-0.149456 0.988437 -0.0255957)
(-0.133334 0.989944 -0.0472478)
(-0.146628 0.989184 0.00397849)
(-0.484767 0.874642 0.00124328)
(-0.489609 0.871938 0.00258675)
(0.146416 0.0250757 0.988905)
(-0.296678 0.842035 -0.45051)
(0.19212 -0.0239622 0.981079)
(0.475873 -0.344516 0.80923)
(-0.29732 0.849693 -0.435458)
(0.314227 -0.155939 0.936453)
(0.729917 0.160844 0.664342)
(0.729117 -0.34956 0.588385)
(0.660335 -0.502954 0.557669)
(0.775794 -0.1946 0.600229)
(0.771091 -0.0408355 0.635414)
(0.817011 -0.0633568 0.573131)
(0.79232 -0.191949 0.579124)
(0.769451 0.144792 0.622077)
(-0.4605 0.88765 -0.00416042)
(-0.459111 0.88837 -0.00390302)
(-0.695195 0.698158 -0.171113)
(-0.34701 0.888541 -0.300133)