/*--------------------------------*- C++ -*----------------------------------*\
| =========                 |                                                 |
| \\      /  F ield         | OpenFOAM: The Open Source CFD Toolbox           |
|  \\    /   O peration     | Version:  2012                                  |
|   \\  /    A nd           | Website:  www.openfoam.com                      |
|    \\/     M anipulation  |                                                 |
\*---------------------------------------------------------------------------*/
FoamFile
{
    version     2.0;
    format      ascii;
    class       volVectorField;
    location    "0.108/solid";
    object      D;
}
// * * * * * * * * * * * * * * * * * * * * * * * * * * * * * * * * * * * * * //

dimensions      [0 1 0 0 0 0 0];


internalField   nonuniform List<vector> 
3125
(
(3.46645e-06 1.28033e-06 -5.52446e-06)
(-0.000145371 0.00209555 -5.47403e-05)
(8.67968e-07 6.21758e-07 -1.61845e-06)
(-7.86099e-06 -7.22535e-06 -6.18824e-06)
(-0.00052678 0.00370891 -7.23412e-05)
(-0.000373961 0.00438035 -9.167e-05)
(5.34411e-06 2.40575e-06 -1.12949e-05)
(8.50845e-07 5.84975e-07 -1.74256e-06)
(3.30769e-06 1.17931e-06 -5.15299e-06)
(1.35621e-06 1.16316e-06 -3.81227e-06)
(4.44e-06 2.08409e-06 -9.83352e-06)
(-0.00012589 0.00216595 -5.60083e-06)
(1.2843e-06 1.34472e-06 -3.33422e-06)
(5.99664e-06 4.98827e-05 1.2032e-05)
(-5.27632e-05 0.00356773 0.000283273)
(5.21798e-06 3.26566e-06 1.45266e-07)
(-0.000224574 0.00209579 -0.000222061)
(-1.95806e-05 -5.55936e-06 -1.36547e-05)
(-0.000243744 0.00216621 -0.000251752)
(-1.8542e-05 2.89343e-05 -4.60022e-05)
(-0.000321571 0.00356373 -0.000266346)
(-1.6325e-05 2.0824e-07 -1.34114e-05)
(-0.00015936 0.00231186 -5.71052e-05)
(-0.000361781 0.00434566 -9.08047e-05)
(-0.000139437 0.00238413 -8.48375e-06)
(-0.000215856 0.00669256 0.000122987)
(-6.75616e-05 0.00415482 0.000277424)
(-0.000335915 0.00444196 -7.27272e-05)
(-0.000240066 0.002312 -0.000221242)
(-0.000466916 0.00434514 -0.000125418)
(-0.000259876 0.00238424 -0.00025026)
(-0.000617564 0.00669007 -2.1575e-05)
(-0.000365984 0.00415093 -0.000247022)
(-0.000493993 0.00444106 -0.000125927)
(-0.000497637 0.00381781 -8.35789e-05)
(-0.000240001 0.00680165 9.82992e-05)
(-0.000347762 0.00447794 -7.60148e-05)
(-0.000397878 0.00620691 -2.11202e-05)
(-0.0006486 0.00370857 6.37894e-07)
(-0.000480649 0.00437982 -0.000116759)
(-0.000678791 0.00381708 2.32346e-05)
(-0.000644468 0.00679936 1.08655e-05)
(-0.000508079 0.00447702 -0.000115169)
(-0.000777624 0.00620593 0.000174015)
(-0.000534859 0.00360969 -6.9144e-05)
(-0.000505663 0.00371875 -8.14057e-05)
(-0.000657015 0.00360938 7.01449e-06)
(-0.000687207 0.00371804 3.02217e-05)
(-3.79458e-07 1.54925e-06 -4.81019e-06)
(-3.18985e-07 1.34183e-06 -6.49053e-06)
(-3.06944e-07 2.08929e-06 -4.38993e-06)
(-1.53001e-06 6.77524e-06 -4.01665e-06)
(1.37385e-06 9.52119e-06 -3.80438e-06)
(-5.4286e-05 0.000611442 -4.44729e-05)
(1.44352e-06 1.40331e-06 -8.56692e-07)
(-4.33018e-05 0.00043712 -4.33771e-05)
(1.75884e-06 1.58867e-06 -7.158e-07)
(-0.000462736 0.0042553 -8.86553e-05)
(-0.000452527 0.00430536 -8.99997e-05)
(2.63938e-07 2.08583e-06 -1.09229e-05)
(1.14011e-06 2.40122e-06 -1.14695e-05)
(1.6099e-06 6.79881e-07 -2.90099e-06)
(1.66664e-06 7.26471e-07 -3.10266e-06)
(7.83248e-08 1.91061e-06 -9.85692e-06)
(-2.56453e-07 1.44517e-06 -7.20164e-06)
(-3.04579e-08 1.60895e-06 -4.79392e-06)
(2.15968e-06 1.25285e-06 -5.70937e-06)
(1.16958e-07 1.47333e-06 -6.59654e-06)
(8.29632e-07 2.17393e-06 -1.02776e-05)
(2.5759e-06 1.39877e-06 -6.53035e-06)
(2.37337e-07 1.60024e-06 -7.36511e-06)
(-5.986e-05 0.00268554 0.000186182)
(-3.8462e-05 0.000664856 -4.65265e-06)
(-1.3715e-05 0.00119962 0.000147972)
(5.91392e-08 2.08462e-06 -4.34416e-06)
(2.73883e-06 3.40342e-06 -2.19778e-06)
(2.14795e-06 8.3507e-06 -3.65424e-06)
(3.15149e-07 1.55424e-05 -3.66665e-06)
(-1.47201e-05 0.00109889 0.000180361)
(-3.16422e-07 1.68922e-05 6.56784e-06)
(-4.52813e-06 0.00083555 0.000126252)
(3.20542e-06 2.21827e-05 -1.75779e-06)
(-5.38079e-05 0.00288824 0.000219737)
(-2.14953e-05 0.00169849 0.000236796)
(-1.33909e-05 0.00131846 0.000174944)
(-2.78231e-05 0.000486681 -6.78044e-06)
(3.87702e-06 5.95798e-06 -1.1035e-06)
(-7.26484e-07 1.33728e-05 4.75093e-06)
(-4.19889e-06 0.000751914 0.000105385)
(4.32323e-06 1.92794e-05 -1.78836e-06)
(-0.000121124 0.000613206 -0.000183705)
(-0.000107546 0.000439544 -0.000169645)
(-0.000295335 0.00268351 -0.000302308)
(-0.000134375 0.000667333 -0.000207707)
(-0.000166495 0.00119567 -0.000269855)
(-0.0001409 0.00109455 -0.000241486)
(-1.97085e-05 2.27847e-05 -4.25775e-05)
(-0.000128429 0.00083763 -0.00024148)
(-0.000304301 0.00288547 -0.00030065)
(-0.000184261 0.00168798 -0.000267765)
(-0.000170824 0.00131271 -0.000275113)
(-0.000119405 0.00048991 -0.000191123)
(-2.02975e-05 1.93043e-05 -4.01706e-05)
(-0.000125354 0.000754692 -0.000234879)
(-0.000257214 0.00359923 -7.56912e-05)
(-0.000270869 0.0037386 -7.8204e-05)
(-7.88693e-05 0.00317104 0.000180859)
(-0.000234352 0.00368359 -3.81718e-05)
(-0.000142674 0.00441069 0.000132787)
(-0.000145548 0.00598595 0.000200243)
(-0.000221793 0.00564955 6.61487e-05)
(-0.000153296 0.00501321 0.000141049)
(-7.10753e-05 0.00339571 0.000214707)
(-0.000123759 0.00561931 0.000224525)
(-0.000131288 0.0046855 0.000164522)
(-0.000247601 0.00382457 -4.29524e-05)
(-0.000234369 0.00533742 4.07054e-05)
(-0.00016533 0.00472627 0.000110653)
(-0.000349074 0.0035989 -0.000189632)
(-0.000364411 0.00373823 -0.000182574)
(-0.000337189 0.00316875 -0.000292869)
(-0.000372725 0.00368299 -0.000207685)
(-0.00045503 0.0044081 -0.000225902)
(-0.000523446 0.00598285 -0.000125183)
(-0.000604201 0.00564689 -8.10117e-05)
(-0.000505656 0.00501029 -0.000183813)
(-0.000347735 0.00339279 -0.000288897)
(-0.000487456 0.00561603 -0.000159469)
(-0.000468887 0.00468253 -0.000215863)
(-0.000388551 0.00382391 -0.000198515)
(-0.000589502 0.00533492 -9.6616e-05)
(-0.000491234 0.00472366 -0.000195527)
(-0.000434461 0.00436097 -8.99436e-05)
(-0.000401411 0.00487093 -7.8227e-05)
(-0.000343718 0.00532749 -5.0553e-05)
(-0.000244757 0.00574802 4.23467e-05)
(-0.000311315 0.00679864 3.41323e-05)
(-0.000311711 0.00574173 -1.84142e-05)
(-0.000424452 0.00441027 -8.94688e-05)
(-0.000257164 0.00543071 1.87183e-05)
(-0.000322974 0.00541666 -3.65404e-05)
(-0.000392327 0.0051921 -6.68761e-05)
(-0.000334124 0.00670334 1.68903e-05)
(-0.000332972 0.00565293 -3.42054e-05)
(-0.000579716 0.00425482 -4.97431e-05)
(-0.000568469 0.00430487 -5.76944e-05)
(-0.000609226 0.00436007 -3.42006e-05)
(-0.000771647 0.00486946 0.000114497)
(-0.00071694 0.00532556 5.12712e-05)
(-0.00063308 0.00574548 -4.737e-05)
(-0.000712749 0.00679693 9.57881e-05)
(-0.000707975 0.00573963 4.37603e-05)
(-0.00059779 0.00440935 -4.35665e-05)
(-0.000618664 0.0054283 -6.39006e-05)
(-0.000695117 0.00541459 2.54922e-05)
(-0.000781613 0.00519066 0.000132977)
(-0.000731611 0.00670183 0.000119221)
(-0.000729104 0.00565099 6.9796e-05)
(-8.76129e-07 1.11761e-06 -4.41268e-06)
(-8.74844e-07 9.49607e-07 -4.80524e-06)
(-8.91631e-07 1.55359e-06 -4.0763e-06)
(-1.28013e-06 2.17856e-06 -4.20985e-06)
(-9.19774e-07 2.47088e-06 -3.82228e-06)
(6.84698e-06 1.47817e-07 -1.18642e-06)
(-0.000104275 0.00143328 -4.88965e-05)
(1.70108e-06 1.07243e-07 -3.13989e-07)
(8.19491e-07 8.16153e-07 -1.27448e-06)
(1.3842e-06 1.64048e-07 -1.96381e-07)
(-1.20578e-05 -1.26826e-05 -3.16707e-05)
(-2.97244e-07 -1.15861e-06 -1.03757e-06)
(-4.83259e-08 -8.07167e-07 -1.41712e-07)
(-0.000500933 0.00397929 -8.07151e-05)
(-0.000409113 0.00441256 -9.26303e-05)
(-9.41533e-07 1.34774e-06 -9.1569e-06)
(3.47142e-06 2.53605e-06 -1.10629e-05)
(1.83706e-06 1.01638e-07 -3.44307e-07)
(1.13539e-06 5.77488e-07 -2.17804e-06)
(2.35816e-06 8.07178e-08 -4.46711e-07)
(6.32488e-06 1.3844e-07 -1.10513e-06)
(2.39754e-06 9.51617e-07 -4.13021e-06)
(4.91747e-06 1.12798e-07 -8.80348e-07)
(-9.52846e-07 1.25821e-06 -8.36191e-06)
(-9.5065e-07 1.16569e-06 -7.62171e-06)
(8.04225e-07 1.34046e-06 -4.08473e-06)
(1.54339e-06 1.11697e-06 -4.36142e-06)
(9.03674e-07 1.26627e-06 -4.61233e-06)
(2.84556e-06 2.23148e-06 -9.74786e-06)
(3.69571e-06 1.81206e-06 -8.57184e-06)
(2.33836e-06 1.96349e-06 -8.59278e-06)
(-0.000123865 0.00245342 3.10208e-05)
(-8.61828e-05 0.00149759 -6.27505e-07)
(-8.63042e-05 0.00175531 3.27236e-05)
(8.08648e-07 1.5906e-06 -3.62355e-06)
(1.39411e-06 1.71615e-06 -2.91755e-06)
(9.89952e-07 2.08928e-06 -3.23011e-06)
(-3.19999e-05 0.000144468 8.97637e-05)
(8.53686e-06 9.2876e-05 -8.73902e-05)
(4.07847e-06 2.32695e-05 9.58214e-06)
(9.93053e-06 9.59407e-05 -2.84335e-05)
(-2.05833e-05 6.07685e-05 5.44604e-05)
(-5.20695e-05 0.00332565 0.00026569)
(-4.02295e-05 0.00295061 0.000280359)
(-3.90218e-05 0.00274106 0.000261984)
(-4.05995e-06 7.56124e-06 -2.52938e-05)
(1.1189e-05 3.62424e-06 5.7897e-06)
(1.69981e-06 3.91312e-06 1.48007e-06)
(-1.40141e-05 8.86648e-05 -1.92206e-05)
(1.20534e-05 2.28793e-05 2.01604e-05)
(-0.000178892 0.00143392 -0.00021637)
(-6.14451e-05 -2.73659e-06 -8.55141e-05)
(-0.000244847 0.00245296 -0.000217755)
(-0.000195952 0.00149844 -0.000246057)
(-0.000192831 0.00175516 -0.000214479)
(-5.48171e-05 0.00018307 -0.000103371)
(-2.13202e-05 2.79484e-05 -4.52543e-05)
(-5.61586e-05 0.000169779 -0.000104013)
(-0.000315788 0.00332192 -0.000280836)
(-0.000275908 0.0029459 -0.000277578)
(-0.000270039 0.00273675 -0.000288963)
(-6.39696e-05 2.55553e-05 -9.50705e-05)
(-1.03946e-05 5.88436e-08 -1.32446e-05)
(-5.12169e-05 0.000102506 -9.67677e-05)
(-0.00020155 0.00292208 -6.49292e-05)
(-0.000323945 0.00416484 -8.66856e-05)
(-0.00013655 0.00268091 2.90426e-05)
(-0.000180345 0.0029997 -1.97384e-05)
(-0.000176029 0.00332161 1.94602e-05)
(-0.000191892 0.00652184 0.000148635)
(-0.000214367 0.00632507 0.000106472)
(-0.000190854 0.00615912 0.0001323)
(-6.72282e-05 0.00388417 0.00026047)
(-8.44702e-05 0.00469836 0.000264512)
(-8.43558e-05 0.00440327 0.000248011)
(-0.000299134 0.00425696 -6.1166e-05)
(-0.00033053 0.00484448 -3.51218e-05)
(-0.000293315 0.00464246 -2.21907e-05)
(-0.00028688 0.00292197 -0.000212399)
(-0.000424217 0.00416436 -0.000151017)
(-0.000262313 0.00268032 -0.000215802)
(-0.00030844 0.00299944 -0.000237813)
(-0.00031376 0.00332079 -0.000202929)
(-0.000588459 0.00651915 -5.54584e-05)
(-0.00061634 0.00632243 -4.30011e-05)
(-0.000586425 0.00615631 -7.74682e-05)
(-0.000360404 0.00388047 -0.000264166)
(-0.000408608 0.0046947 -0.000221727)
(-0.000403376 0.00439971 -0.00024097)
(-0.000450137 0.00425613 -0.000158099)
(-0.000502924 0.00484335 -9.48889e-05)
(-0.000459149 0.00464133 -0.000125563)
(-0.000472046 0.00408727 -8.82897e-05)
(-0.00049617 0.00426726 -5.94221e-05)
(-0.000469842 0.00453401 -6.13008e-05)
(-0.00023802 0.00643155 8.16099e-05)
(-0.00026409 0.00685274 7.50425e-05)
(-0.000261592 0.00648192 5.82081e-05)
(-0.000382017 0.00451368 -8.39162e-05)
(-0.000342501 0.00488568 -3.90689e-05)
(-0.000377458 0.00493523 -4.89559e-05)
(-0.00039251 0.00585864 -3.73296e-05)
(-0.000377496 0.00640228 -1.07313e-05)
(-0.000372534 0.00604801 -2.726e-05)
(-0.000621213 0.00397888 -1.97543e-05)
(-0.00052015 0.00441203 -9.09103e-05)
(-0.000651244 0.00408646 4.26704e-07)
(-0.000683048 0.00426651 4.49928e-05)
(-0.000656532 0.00453315 2.40412e-05)
(-0.000644077 0.0064291 -9.74737e-06)
(-0.000669252 0.00685065 4.14351e-05)
(-0.000669698 0.00647965 2.18075e-05)
(-0.000548514 0.00451274 -8.34262e-05)
(-0.000516877 0.00488455 -8.45841e-05)
(-0.000556744 0.00493414 -5.45365e-05)
(-0.000782623 0.00585747 0.000161656)
(-0.000763977 0.00640113 0.000158307)
(-0.000768308 0.00604665 0.000144724)
(-0.000504438 0.0041685 -5.82855e-05)
(-0.000691024 0.00416778 5.14095e-05)
(-9.02865e-07 9.33067e-07 -5.75825e-06)
(-8.85641e-07 9.07745e-07 -5.25387e-06)
(-6.67235e-07 1.37864e-06 -4.66201e-06)
(-3.87435e-07 1.33884e-06 -5.29827e-06)
(-6.67393e-07 1.17099e-06 -5.1047e-06)
(-6.4782e-07 1.15333e-06 -6.181e-06)
(-3.63392e-07 1.29321e-06 -5.85756e-06)
(-6.60141e-07 1.11953e-06 -5.61062e-06)
(-6.43187e-07 1.91234e-06 -4.27983e-06)
(-1.00592e-07 3.16194e-06 -4.06715e-06)
(-5.5514e-07 3.00291e-06 -3.98646e-06)
(-1.35266e-06 3.99456e-06 -3.97327e-06)
(-7.00028e-07 8.74736e-06 -3.70942e-06)
(-8.63422e-07 4.78599e-06 -3.60965e-06)
(3.83335e-07 5.65465e-06 -3.79607e-06)
(2.91913e-07 9.61946e-06 -3.79079e-06)
(-2.69507e-07 5.60748e-06 -3.7329e-06)
(-9.10524e-05 0.00121568 -4.73909e-05)
(9.53233e-07 9.72441e-07 -1.16097e-06)
(1.22074e-06 2.35612e-07 1.31164e-08)
(1.31828e-06 1.90829e-07 -1.51083e-07)
(-2.10983e-05 4.9942e-05 -4.09284e-05)
(3.06471e-06 7.168e-07 -4.16576e-07)
(1.20273e-06 2.08334e-07 7.17694e-08)
(6.67566e-07 -4.55207e-07 8.60788e-08)
(-0.000491782 0.00405849 -8.30678e-05)
(-0.000420344 0.00440082 -9.23894e-05)
(-4.01499e-07 1.72212e-06 -1.00953e-05)
(2.20743e-06 2.58545e-06 -1.15451e-05)
(1.16476e-06 5.95008e-07 -2.33362e-06)
(3.27882e-06 8.54392e-08 -6.10049e-07)
(2.55533e-06 7.97934e-08 -4.83373e-07)
(2.30166e-06 8.81516e-07 -3.85867e-06)
(3.54342e-06 8.92217e-08 -6.54606e-07)
(4.54615e-06 1.06211e-07 -8.20572e-07)
(-9.21918e-07 9.9453e-07 -6.31954e-06)
(-9.39128e-07 1.07541e-06 -6.94081e-06)
(-4.91755e-07 1.59356e-06 -9.16759e-06)
(-6.40421e-08 1.73987e-06 -8.88153e-06)
(-5.5559e-07 1.46447e-06 -8.31081e-06)
(-6.2873e-07 1.23423e-06 -6.81866e-06)
(-1.73241e-07 1.58209e-06 -7.99764e-06)
(-5.99489e-07 1.34195e-06 -7.52825e-06)
(3.58637e-07 1.54135e-06 -4.54746e-06)
(-2.76539e-08 1.42926e-06 -5.31622e-06)
(3.95076e-07 1.41241e-06 -5.08455e-06)
(1.81397e-06 1.15537e-06 -4.98872e-06)
(1.29993e-06 1.39381e-06 -5.90271e-06)
(1.07354e-06 1.29529e-06 -5.21512e-06)
(2.71524e-08 1.40453e-06 -5.91568e-06)
(6.4657e-07 1.50422e-06 -6.40186e-06)
(4.96995e-07 1.41599e-06 -5.70043e-06)
(1.74563e-06 2.30936e-06 -1.02613e-05)
(5.85093e-07 1.95931e-06 -9.19929e-06)
(1.37708e-06 2.05742e-06 -9.11638e-06)
(3.08604e-06 1.5862e-06 -7.48187e-06)
(1.58009e-06 1.54384e-06 -6.68481e-06)
(1.92299e-06 1.73548e-06 -7.57765e-06)
(3.91095e-07 1.76614e-06 -8.23076e-06)
(8.39214e-07 1.64948e-06 -7.19718e-06)
(1.07987e-06 1.83688e-06 -8.09895e-06)
(-6.68941e-05 0.00248704 0.000150242)
(-4.24336e-05 0.00218379 0.000183791)
(-4.75406e-05 0.00200702 0.000149289)
(-7.34451e-05 0.00127771 -3.23041e-07)
(-4.15999e-05 0.000870061 2.05612e-05)
(-7.47081e-05 0.00152352 3.13077e-05)
(-2.70535e-05 0.00168157 0.000171132)
(-1.48435e-05 0.00107521 0.000120429)
(-3.03456e-05 0.0015295 0.000139464)
(4.28578e-07 1.90973e-06 -4.08256e-06)
(3.27465e-07 3.01659e-06 -3.99202e-06)
(6.94509e-07 2.6273e-06 -3.70504e-06)
(1.76497e-06 2.46372e-06 -2.52383e-06)
(2.51663e-06 4.56877e-06 -2.60114e-06)
(1.45476e-06 3.17295e-06 -2.86248e-06)
(9.20914e-07 5.15579e-06 -3.69276e-06)
(2.60734e-06 6.48736e-06 -3.26027e-06)
(1.29945e-06 4.23488e-06 -3.37463e-06)
(-7.03385e-06 5.72858e-06 -1.75768e-05)
(3.51517e-07 2.38303e-05 -1.73415e-06)
(-7.39089e-06 2.4882e-05 -2.47579e-06)
(-6.11847e-06 0.000572475 9.4488e-05)
(-1.08177e-05 0.00100212 0.000160863)
(1.93934e-06 0.000511884 9.09152e-05)
(-4.55626e-08 2.10771e-05 8.33238e-06)
(-3.96041e-06 6.77805e-05 -2.43651e-05)
(1.18776e-05 5.69179e-05 4.95339e-05)
(2.11805e-06 8.06135e-05 -2.26933e-05)
(7.57503e-06 6.11469e-05 5.31585e-05)
(-7.2892e-06 0.000917935 0.000144863)
(2.11301e-06 0.000427455 7.21732e-05)
(2.1622e-06 0.000469878 8.29141e-05)
(1.81041e-06 2.30037e-05 -1.73363e-06)
(5.72476e-06 2.56322e-05 7.22483e-07)
(3.81534e-06 2.74663e-05 8.55424e-07)
(-5.13857e-05 0.00310047 0.000245948)
(-3.83344e-05 0.00236162 0.000216321)
(-3.74089e-05 0.00254613 0.000242091)
(-2.98415e-05 0.0023198 0.000265372)
(-1.8705e-05 0.00156291 0.000216387)
(-2.81155e-05 0.00214623 0.000246062)
(-2.48922e-05 0.00183138 0.00020151)
(-1.54553e-05 0.00143812 0.000197419)
(-2.55224e-05 0.00198493 0.000226187)
(-1.04922e-05 8.25915e-05 -2.08347e-05)
(-3.25746e-05 0.00067217 1.37416e-05)
(-1.085e-05 0.000197981 -1.29438e-05)
(7.06866e-06 4.63049e-07 -1.38674e-06)
(4.25719e-06 8.94924e-06 -1.5273e-06)
(7.22049e-06 6.45041e-06 -1.49272e-06)
(-1.54383e-06 9.24365e-06 2.53615e-06)
(-7.8361e-06 5.73655e-05 -2.52213e-05)
(1.39436e-05 5.05116e-05 4.39849e-05)
(-1.36563e-05 3.39461e-05 -2.81832e-05)
(1.36059e-05 4.20609e-05 3.5663e-05)
(-5.10204e-06 0.000660519 8.53733e-05)
(2.17343e-06 0.00037952 5.80806e-05)
(5.67503e-06 0.000319343 4.37358e-05)
(4.80949e-06 1.42744e-05 -1.89431e-06)
(8.23318e-06 2.14564e-05 1.37021e-07)
(9.48876e-06 1.45861e-05 -1.13112e-06)
(-0.000164027 0.0012165 -0.000211231)
(-7.1756e-05 5.94522e-05 -0.000110113)
(-0.00028681 0.00248565 -0.000304664)
(-0.000252585 0.00218166 -0.000302499)
(-0.000246012 0.00200577 -0.000302819)
(-0.000180269 0.00127879 -0.000240137)
(-0.000124385 0.000870404 -0.000185016)
(-0.000175457 0.0015236 -0.000210035)
(-0.000209486 0.00167965 -0.000292311)
(-0.000163288 0.00107321 -0.000265707)
(-0.000204884 0.00152868 -0.000290411)
(-9.68057e-05 0.00054869 -0.000209994)
(-0.000135648 0.00100267 -0.000243334)
(-9.24068e-05 0.000505148 -0.000205988)
(-2.00472e-05 2.52509e-05 -4.42177e-05)
(-5.33229e-05 0.000147329 -0.000109188)
(-5.46245e-05 0.000160692 -0.00011052)
(-0.000132026 0.000918804 -0.000244374)
(-8.90527e-05 0.000423156 -0.00019981)
(-9.10813e-05 0.000466 -0.000204659)
(-0.000311018 0.00309712 -0.000293483)
(-0.000259883 0.00235853 -0.000303213)
(-0.000265597 0.0025423 -0.000298768)
(-0.000229753 0.00231444 -0.000278997)
(-0.000178384 0.00155431 -0.000272685)
(-0.000224007 0.00214149 -0.000287005)
(-0.00021513 0.00182828 -0.000295385)
(-0.00017474 0.00143077 -0.000276233)
(-0.000219886 0.00198084 -0.000293755)
(-7.69307e-05 9.50341e-05 -0.0001229)
(-0.000107901 0.000674266 -0.000172708)
(-6.38648e-05 0.000203822 -0.000123147)
(-2.21654e-05 1.49425e-05 -3.77493e-05)
(-5.32895e-05 0.000128851 -0.000105716)
(-4.77965e-05 0.000102073 -0.000105165)
(-0.000122906 0.000663861 -0.000228579)
(-8.68736e-05 0.000375984 -0.000191949)
(-8.36705e-05 0.000320706 -0.000183168)
(-0.000215581 0.00310799 -6.76595e-05)
(-0.000310937 0.00407824 -8.48474e-05)
(-8.76222e-05 0.00295325 0.000144312)
(-9.92e-05 0.00362676 0.000169168)
(-0.000109458 0.00339195 0.000132743)
(-0.000193951 0.00318734 -2.41177e-05)
(-0.000228841 0.00403589 1.83025e-06)
(-0.000189094 0.0035173 1.54474e-05)
(-0.000120556 0.0040425 0.000152703)
(-0.000155134 0.00414764 9.81542e-05)
(-0.000132046 0.00379265 0.000116951)
(-0.000168364 0.00628679 0.000174637)
(-0.000145211 0.00564054 0.000184157)
(-0.000167716 0.00593133 0.000158457)
(-0.000215237 0.00597827 8.79287e-05)
(-0.000198771 0.00549533 9.09876e-05)
(-0.000192031 0.00581786 0.000113641)
(-0.000146676 0.00531729 0.000165294)
(-0.000175873 0.00528345 0.000116219)
(-0.000169098 0.00559783 0.000139698)
(-6.73332e-05 0.00363238 0.00024094)
(-8.99168e-05 0.00387064 0.000202718)
(-8.50804e-05 0.00412853 0.000228692)
(-0.000103299 0.00518876 0.000246389)
(-0.000123627 0.00528711 0.000208438)
(-0.000103247 0.00487323 0.000230173)
(-0.000110074 0.00430302 0.000185516)
(-0.00012502 0.00497688 0.000189455)
(-0.000104396 0.00457909 0.000211039)
(-0.000286504 0.00416888 -5.68389e-05)
(-0.000241834 0.00418402 -3.012e-06)
(-0.00028072 0.00454814 -1.74637e-05)
(-0.000248369 0.0050371 1.32323e-05)
(-0.000211361 0.0051899 6.37855e-05)
(-0.00022527 0.00489678 3.42622e-05)
(-0.000178494 0.00445169 7.74835e-05)
(-0.000188289 0.00498635 8.7351e-05)
(-0.000201928 0.00470178 5.5909e-05)
(-0.000302509 0.00310782 -0.000207694)
(-0.000409535 0.00407778 -0.000159286)
(-0.000326804 0.00295153 -0.000297228)
(-0.000377887 0.00362434 -0.000275984)
(-0.000365885 0.00339002 -0.000282254)
(-0.000324621 0.00318697 -0.000231484)
(-0.000380549 0.00403487 -0.000173386)
(-0.000330802 0.00351641 -0.000196591)
(-0.000417212 0.00403996 -0.000253161)
(-0.000440626 0.00414544 -0.000235756)
(-0.000403862 0.00379056 -0.000261271)
(-0.000557101 0.0062839 -9.02275e-05)
(-0.000519909 0.0056374 -0.000147421)
(-0.000554291 0.00592835 -0.00011253)
(-0.000613005 0.00597557 -6.30783e-05)
(-0.000573331 0.00549257 -0.000115458)
(-0.00058251 0.00581501 -9.78735e-05)
(-0.000515113 0.00531418 -0.000167652)
(-0.000540478 0.00528059 -0.00015001)
(-0.000549882 0.00559484 -0.000133006)
(-0.000355372 0.00362898 -0.000279266)
(-0.0003898 0.00386768 -0.000269829)
(-0.000398199 0.0041252 -0.000258057)
(-0.000449153 0.00518528 -0.000192053)
(-0.000483263 0.00528381 -0.000181217)
(-0.000444389 0.00486978 -0.00021282)
(-0.000430235 0.00430004 -0.000244976)
(-0.000478203 0.00497368 -0.000200837)
(-0.000439199 0.00457579 -0.000231405)
(-0.000435029 0.00416808 -0.000168604)
(-0.00039681 0.00418296 -0.000164447)
(-0.000443934 0.00454703 -0.0001357)
(-0.000573462 0.00503482 -0.000112246)
(-0.000558517 0.00518734 -0.000129953)
(-0.000542549 0.00489448 -0.000144348)
(-0.000476054 0.00444942 -0.000207019)
(-0.000525747 0.00498375 -0.000163209)
(-0.000510056 0.00469948 -0.000176219)
(-0.000463018 0.00416602 -8.92196e-05)
(-0.000431186 0.00479966 -5.92198e-05)
(-0.000460564 0.0046112 -6.1201e-05)
(-0.000412699 0.00455264 -8.91903e-05)
(-0.000382986 0.00504992 -7.13749e-05)
(-0.000394761 0.00473061 -8.41785e-05)
(-0.000356422 0.00500864 -6.73158e-05)
(-0.000363742 0.00520367 -6.21647e-05)
(-0.000375992 0.00488415 -7.6905e-05)
(-0.000238502 0.00608119 6.32114e-05)
(-0.00026749 0.00579367 2.00837e-05)
(-0.000261632 0.00612972 3.99998e-05)
(-0.000287921 0.00685013 5.35698e-05)
(-0.000307776 0.00643104 1.71788e-05)
(-0.0002849 0.00648023 3.66423e-05)
(-0.000289851 0.00579017 -2.58899e-07)
(-0.000306837 0.00607953 -4.77293e-07)
(-0.000284459 0.00612772 1.86786e-05)
(-0.000392975 0.004503 -8.58492e-05)
(-0.000420928 0.00484613 -5.77784e-05)
(-0.000388631 0.00492861 -5.17344e-05)
(-0.000271103 0.00512444 -6.62355e-06)
(-0.000279603 0.00547255 -1.70374e-06)
(-0.000293358 0.00516152 -2.48762e-05)
(-0.000336089 0.0050994 -5.53961e-05)
(-0.000301573 0.0054665 -2.02058e-05)
(-0.000315047 0.00515183 -4.12069e-05)
(-0.000389644 0.00552111 -5.30816e-05)
(-0.000373343 0.00537332 -5.84269e-05)
(-0.000370119 0.00570577 -4.3588e-05)
(-0.000356217 0.00656947 1.9284e-06)
(-0.000330083 0.00633924 -8.31763e-09)
(-0.000351699 0.00620987 -1.48298e-05)
(-0.000353538 0.00552852 -4.75505e-05)
(-0.000328639 0.00598988 -1.7291e-05)
(-0.000349759 0.00586365 -3.16691e-05)
(-0.000611368 0.00405806 -2.69664e-05)
(-0.000532715 0.0044003 -8.24255e-05)
(-0.000641299 0.00416517 -7.78859e-06)
(-0.00061593 0.00479868 -8.16752e-06)
(-0.000646997 0.00461031 1.63891e-05)
(-0.000759236 0.00455122 9.47198e-05)
(-0.000755165 0.00504829 9.58097e-05)
(-0.000742103 0.00472904 7.60131e-05)
(-0.000702645 0.0050068 3.18662e-05)
(-0.000736936 0.00520188 7.47318e-05)
(-0.000723242 0.00488244 5.50569e-05)
(-0.000641389 0.00607864 -2.92876e-05)
(-0.000659988 0.00579127 -1.50916e-05)
(-0.000667705 0.00612734 2.96579e-06)
(-0.00069198 0.00684824 6.98148e-05)
(-0.000714837 0.00642914 7.84628e-05)
(-0.000693259 0.00647815 5.12976e-05)
(-0.000684937 0.00578791 1.53905e-05)
(-0.000714312 0.00607749 6.135e-05)
(-0.000691994 0.0061255 3.32772e-05)
(-0.000561352 0.00450206 -7.31419e-05)
(-0.000604866 0.00484512 -1.69912e-05)
(-0.000569292 0.00492753 -4.47591e-05)
(-0.000602731 0.00512222 -8.06124e-05)
(-0.000645992 0.00547024 -3.237e-05)
(-0.000630314 0.00515937 -5.00012e-05)
(-0.000680286 0.00509744 6.51459e-06)
(-0.000671474 0.0054643 -2.46452e-06)
(-0.000656172 0.00514977 -2.08512e-05)
(-0.000784951 0.00551977 0.000148527)
(-0.000765878 0.00537171 0.00011443)
(-0.000769963 0.00570426 0.000130588)
(-0.000748658 0.00656815 0.000140061)
(-0.000734486 0.00633753 0.000103135)
(-0.000752285 0.00620834 0.000125229)
(-0.00074839 0.00552674 9.33722e-05)
(-0.000734704 0.00598802 8.69889e-05)
(-0.000753235 0.00586196 0.000110081)
(1.35957e-05 1.38977e-06 -1.38563e-05)
(1.15312e-05 1.89066e-06 -1.55077e-05)
(3.97906e-06 1.38036e-06 -5.97054e-06)
(4.53594e-06 1.04034e-06 -4.87154e-06)
(1.28358e-05 2.03926e-06 -1.67255e-05)
(1.24099e-05 1.28765e-06 -1.28295e-05)
(5.02751e-06 1.1255e-06 -5.25347e-06)
(-0.000131495 0.00187562 -5.25702e-05)
(3.26684e-06 8.50153e-07 -3.41736e-06)
(1.10932e-06 4.67268e-07 -1.3899e-06)
(3.30792e-06 1.09876e-06 -4.71267e-06)
(7.86344e-07 6.59836e-07 -1.49757e-06)
(3.4571e-06 7.63993e-07 -3.6928e-06)
(3.09361e-06 1.20415e-06 -4.38797e-06)
(1.03466e-06 4.98799e-07 -1.28124e-06)
(-1.05162e-05 -6.12758e-06 -4.30576e-07)
(-1.05634e-05 -1.76356e-05 -1.97997e-05)
(-6.23185e-06 -5.22296e-06 -4.00773e-06)
(-7.62813e-06 -1.73446e-06 -1.78159e-06)
(-1.05779e-05 -7.19929e-06 -6.87643e-06)
(-7.52451e-06 -6.04387e-06 6.67444e-07)
(-6.76101e-06 -3.57443e-06 -1.47299e-06)
(-0.000518428 0.00380394 -7.53408e-05)
(-0.000385915 0.00440279 -9.22656e-05)
(3.90039e-06 6.59956e-07 -4.29136e-06)
(1.15899e-06 4.52082e-07 -1.5032e-06)
(3.37236e-06 1.00092e-06 -5.0495e-06)
(9.70755e-07 5.74629e-07 -1.88076e-06)
(3.61969e-06 6.99933e-07 -3.97935e-06)
(3.68832e-06 9.55196e-07 -5.42539e-06)
(1.26987e-06 4.42838e-07 -1.62334e-06)
(1.05623e-05 1.11053e-06 -1.10695e-05)
(1.08824e-05 1.74648e-06 -1.44813e-05)
(4.21252e-06 9.52752e-07 -4.52556e-06)
(2.88226e-06 1.10178e-06 -4.77359e-06)
(1.1551e-05 1.18625e-06 -1.1935e-05)
(9.78975e-06 1.63041e-06 -1.34397e-05)
(3.8057e-06 8.92491e-07 -4.20245e-06)
(-8.9572e-06 0.00204078 0.000233033)
(-4.16154e-05 0.00218275 0.000173927)
(-0.000125758 0.00226349 5.57707e-06)
(-0.000112462 0.00194409 -3.29173e-06)
(-3.03783e-05 0.00196113 0.000178006)
(-0.000112611 0.00203895 7.55369e-06)
(-1.89984e-05 0.00226468 0.000228965)
(-0.000209197 0.00187598 -0.000221619)
(-3.68206e-05 -2.02601e-05 -3.89634e-05)
(-0.000329612 0.00204093 -0.000463406)
(-0.000243389 0.00226335 -0.000237594)
(-0.000327274 0.00218313 -0.00042718)
(-0.00022771 0.00194452 -0.000251669)
(-0.00022682 0.00203896 -0.00023762)
(-0.000308981 0.00196191 -0.000428992)
(-0.000349334 0.0022644 -0.000461215)
(-5.58348e-05 1.3337e-05 -6.65944e-05)
(-3.60681e-05 -4.31161e-06 -3.96283e-05)
(-1.32021e-05 3.02951e-07 -1.31174e-05)
(-2.50741e-05 6.09203e-06 -2.06919e-05)
(-3.3306e-05 2.48388e-06 -3.65337e-05)
(-5.62531e-05 3.09717e-06 -5.80814e-05)
(-2.42337e-05 9.51872e-06 -2.18341e-05)
(-0.00017341 0.00252273 -5.96132e-05)
(-0.000349378 0.00429836 -8.96768e-05)
(-3.97779e-05 0.00269959 0.000213542)
(-5.30455e-05 0.00240074 0.000167746)
(-0.000138991 0.00248428 2.99759e-06)
(-0.000153058 0.00259682 -1.18461e-05)
(-2.92924e-05 0.00248487 0.000222364)
(-6.45844e-05 0.00261332 0.000159727)
(-0.000152399 0.0026995 -9.5075e-08)
(-0.000177896 0.00452372 5.67506e-06)
(-0.000323849 0.00439332 -6.9137e-05)
(-0.000221454 0.00446221 -3.29139e-05)
(-0.000334585 0.00457581 -6.01309e-05)
(-0.000210989 0.00441309 -1.89916e-05)
(-0.000322426 0.00452527 -5.64457e-05)
(-0.00018807 0.00457439 -1.09825e-05)
(-0.000255631 0.00252278 -0.00021928)
(-0.000452924 0.00429785 -0.000134039)
(-0.000388505 0.00269863 -0.000446935)
(-0.000260035 0.00248401 -0.000236059)
(-0.000345579 0.00240077 -0.000422289)
(-0.000276041 0.00259679 -0.00024734)
(-0.000368971 0.00248424 -0.000455614)
(-0.000276629 0.00269912 -0.000233156)
(-0.000363889 0.00261303 -0.000414633)
(-0.000626467 0.00452083 -0.000187167)
(-0.000479635 0.00439243 -0.000136703)
(-0.000496559 0.00457477 -0.000114661)
(-0.000608387 0.00445987 -0.000161594)
(-0.000482255 0.00452423 -0.000125152)
(-0.0005924 0.0044108 -0.000182643)
(-0.000642778 0.00457148 -0.000163693)
(-0.000325653 0.00406567 -0.000167015)
(-0.000489348 0.00391262 -8.54554e-05)
(-0.00036809 0.00384468 -0.000158721)
(-0.000498057 0.00396953 -7.46609e-05)
(-0.000360084 0.00393922 -0.000156695)
(-0.000489666 0.004064 -7.62406e-05)
(-0.000333772 0.00397139 -0.000170377)
(-0.000208045 0.00463795 -4.25253e-05)
(-0.000359406 0.00450162 -7.89865e-05)
(-0.000231768 0.00449867 -4.62947e-05)
(-0.000346502 0.00461361 -6.3547e-05)
(-0.000241938 0.00452283 -5.90869e-05)
(-0.0001981 0.00461236 -2.70589e-05)
(-0.000358258 0.00463903 -6.66509e-05)
(-0.000639827 0.00380358 -5.95016e-06)
(-0.000494105 0.00440225 -0.000108103)
(-0.000834733 0.00406343 0.000113955)
(-0.000669983 0.00391185 1.59395e-05)
(-0.000679363 0.00396881 3.00556e-05)
(-0.000808555 0.00384279 0.000101192)
(-0.000670693 0.00406324 2.3014e-05)
(-0.000799458 0.00393725 9.00883e-05)
(-0.000843664 0.00396924 0.000125942)
(-0.000674256 0.00463502 -0.000117781)
(-0.000521863 0.00450068 -0.000104475)
(-0.00051059 0.00461257 -0.000104186)
(-0.000624036 0.0044963 -0.000140805)
(-0.000658726 0.00460943 -0.000140549)
(-0.000524285 0.00463799 -9.37834e-05)
(-0.000639318 0.00452044 -0.000120356)
(-0.000375932 0.00374586 -0.00016002)
(-0.000506186 0.00387068 -7.27974e-05)
(-0.000341744 0.00387273 -0.000172913)
(-0.000687627 0.00386999 3.67935e-05)
(-0.000817176 0.00374403 0.000111551)
(-0.000852103 0.00387067 0.000137072)
(-6.58638e-05 0.000801612 -4.50964e-05)
(3.52679e-06 1.72339e-06 -2.16962e-06)
(1.31391e-06 1.31246e-06 -9.62444e-07)
(4.32328e-06 2.65315e-06 -2.79639e-06)
(1.34941e-06 8.66465e-07 -6.77003e-07)
(3.87218e-06 1.7594e-06 -1.96636e-06)
(3.95734e-06 2.63765e-06 -2.92295e-06)
(1.22264e-06 8.31804e-07 -7.77931e-07)
(-3.40105e-05 0.000282516 -4.34646e-05)
(4.65811e-06 1.53617e-06 -1.47688e-06)
(1.90831e-06 1.54242e-06 -5.92479e-07)
(4.90143e-06 3.36864e-06 -2.03349e-06)
(1.50401e-06 8.77988e-07 -5.72991e-07)
(4.06863e-06 1.93124e-06 -1.59629e-06)
(5.49858e-06 2.46008e-06 -2.00174e-06)
(1.60046e-06 7.49678e-07 -4.76791e-07)
(-0.000472681 0.00419708 -8.70466e-05)
(-0.000442055 0.00434668 -9.10722e-05)
(5.61633e-06 6.72404e-07 -6.19327e-06)
(1.3942e-06 6.49337e-07 -2.69354e-06)
(5.7479e-06 1.0263e-06 -8.25132e-06)
(2.10435e-06 5.38858e-07 -2.52762e-06)
(6.12389e-06 6.97917e-07 -6.66241e-06)
(5.18021e-06 9.84863e-07 -7.67875e-06)
(1.90177e-06 5.1648e-07 -2.35151e-06)
(7.14736e-06 7.84081e-07 -7.68496e-06)
(1.92114e-06 7.71323e-07 -3.34278e-06)
(6.05011e-06 1.08771e-06 -8.81158e-06)
(2.25492e-06 5.79129e-07 -2.71364e-06)
(6.55035e-06 7.4018e-07 -7.14082e-06)
(6.71723e-06 1.15358e-06 -9.47458e-06)
(2.4942e-06 6.15718e-07 -2.91739e-06)
(3.40977e-05 0.00094311 0.000206567)
(-4.93014e-05 0.000858319 -2.11229e-06)
(2.7277e-05 0.000683948 0.000145266)
(-4.07827e-05 0.000738954 3.07813e-06)
(1.98785e-05 0.000877235 0.000158975)