/*--------------------------------*- C++ -*----------------------------------*\
| =========                 |                                                 |
| \\      /  F ield         | OpenFOAM: The Open Source CFD Toolbox           |
|  \\    /   O peration     | Version:  2012                                  |
|   \\  /    A nd           | Website:  www.openfoam.com                      |
|    \\/     M anipulation  |                                                 |
\*---------------------------------------------------------------------------*/
FoamFile
{
    version     2.0;
    format      ascii;
    class       volVectorField;
    location    "0.108/solid";
    object      D_0_0;
}
// * * * * * * * * * * * * * * * * * * * * * * * * * * * * * * * * * * * * * //

dimensions      [0 1 0 0 0 0 0];


internalField   nonuniform List<vector> 
3125
(
(8.43145e-12 -1.53091e-13 1.26357e-11)
(1.61227e-06 -8.46612e-07 1.91119e-06)
(6.89982e-12 2.56361e-11 1.36822e-11)
(3.87891e-08 2.66901e-09 4.35862e-08)
(1.07597e-05 -4.42598e-06 4.65742e-06)
(5.62426e-06 -2.55002e-06 3.58033e-06)
(5.7625e-12 -1.97013e-13 3.21151e-11)
(6.50855e-12 1.37223e-11 1.30891e-11)
(8.43842e-12 -8.04188e-14 1.2626e-11)
(-6.61334e-12 1.71124e-11 3.17689e-11)
(5.76786e-12 -3.05852e-13 3.21118e-11)
(1.59214e-06 -8.26582e-07 1.78563e-06)
(-1.06847e-11 5.95547e-11 3.19955e-11)
(5.24246e-10 -4.6379e-09 -1.16227e-08)
(1.33536e-06 -4.65048e-07 -2.79807e-07)
(4.47019e-08 1.61627e-08 8.56166e-08)
(1.59685e-06 -8.73241e-07 1.96892e-06)
(6.62331e-08 -1.62145e-08 6.99247e-08)
(1.56869e-06 -8.64216e-07 1.86996e-06)
(-4.21372e-09 7.74452e-09 -7.80697e-09)
(1.27874e-06 -4.55476e-07 -1.65761e-07)
(4.03425e-08 -2.22388e-08 5.86115e-08)
(1.78401e-06 -9.2644e-07 2.02295e-06)
(5.3294e-06 -2.43364e-06 3.49556e-06)
(1.7645e-06 -9.05578e-07 1.89091e-06)
(5.0514e-06 -1.71368e-06 -5.05405e-07)
(1.68634e-06 -5.87537e-07 -3.12835e-07)
(5.31951e-06 -2.39872e-06 3.27919e-06)
(1.76752e-06 -9.52662e-07 2.08305e-06)
(5.2951e-06 -2.45383e-06 3.58167e-06)
(1.73948e-06 -9.4263e-07 1.97871e-06)
(4.95091e-06 -1.70639e-06 -3.18095e-07)
(1.62398e-06 -5.78294e-07 -1.87051e-07)
(5.26842e-06 -2.42723e-06 3.4054e-06)
(1.07597e-05 -4.37599e-06 4.37706e-06)
(5.64873e-06 -1.90493e-06 -5.28075e-07)
(5.61502e-06 -2.51413e-06 3.35918e-06)
(1.04963e-05 -3.37322e-06 -6.57657e-07)
(1.07066e-05 -4.44008e-06 4.75509e-06)
(5.58874e-06 -2.56982e-06 3.66758e-06)
(1.0681e-05 -4.39591e-06 4.52057e-06)
(5.54288e-06 -1.8979e-06 -3.34644e-07)
(5.56213e-06 -2.54208e-06 3.4871e-06)
(1.03536e-05 -3.36803e-06 -4.36267e-07)
(1.11436e-05 -4.55657e-06 4.71657e-06)
(1.11443e-05 -4.5057e-06 4.43304e-06)
(1.10894e-05 -4.57031e-06 4.81456e-06)
(1.10639e-05 -4.52511e-06 4.57704e-06)
(-1.19621e-11 -8.37075e-11 4.59092e-11)
(-2.4876e-12 -1.00388e-11 4.37115e-11)
(-1.60776e-11 -1.63132e-10 4.59055e-11)
(2.57047e-10 -8.50031e-10 9.75681e-11)
(3.03075e-10 -1.05291e-09 -8.66333e-11)
(6.60543e-07 -3.83778e-07 1.08006e-06)
(4.61264e-10 4.9118e-10 8.03927e-11)
(5.6027e-07 -3.31937e-07 9.54432e-07)
(6.10065e-10 6.11474e-10 1.27022e-10)
(8.20792e-06 -3.52637e-06 4.1996e-06)
(7.86435e-06 -3.40066e-06 4.12786e-06)
(-1.32345e-12 -2.0889e-13 4.15919e-11)
(-2.28207e-12 -2.10928e-13 4.51231e-11)
(8.10552e-12 -4.59169e-13 1.25036e-11)
(8.31009e-12 -5.34883e-13 1.25331e-11)
(-1.31113e-12 -4.13684e-13 4.17765e-11)
(-1.73354e-12 -4.78357e-12 4.30125e-11)
(-2.2395e-11 -7.14323e-11 4.83221e-11)
(4.0651e-12 -1.42662e-12 3.23197e-11)
(-4.67465e-12 -8.99229e-12 4.70466e-11)
(-2.29299e-12 -4.3977e-13 4.52808e-11)
(5.09754e-12 -1.19164e-12 3.22463e-11)
(-3.25025e-12 -4.35698e-12 4.6417e-11)
(1.3769e-06 -6.48336e-07 7.68134e-07)
(6.35922e-07 -3.68943e-07 1.00065e-06)
(5.42373e-07 -2.94204e-07 4.50823e-07)
(-3.24593e-11 -1.36207e-10 4.71881e-11)
(6.07931e-10 7.22368e-10 2.00238e-11)
(3.87341e-10 -9.10277e-10 -1.66383e-10)
(4.69567e-10 -1.91618e-09 1.70158e-10)
(3.037e-07 -9.798e-08 -1.27341e-07)
(2.99435e-09 -4.81444e-09 2.41464e-08)
(3.16866e-07 -1.75584e-07 2.16278e-07)
(1.2586e-09 -1.08408e-09 -1.77428e-10)
(1.35359e-06 -6.05012e-07 4.97358e-07)
(5.03201e-07 -1.70674e-07 -1.70181e-07)
(5.18406e-07 -2.64003e-07 2.88559e-07)
(5.35246e-07 -3.17644e-07 8.81607e-07)
(1.33086e-09 3.38571e-09 1.32522e-09)
(7.31971e-09 -6.76939e-09 3.7094e-08)
(3.39032e-07 -2.02261e-07 3.38431e-07)
(1.56906e-09 -1.29158e-10 -1.49889e-10)
(6.52202e-07 -4.1328e-07 1.11988e-06)
(5.52994e-07 -3.62269e-07 9.91521e-07)
(1.32232e-06 -6.84426e-07 9.11446e-07)
(6.23132e-07 -4.1079e-07 1.05956e-06)
(5.0604e-07 -3.36033e-07 5.52744e-07)
(2.75614e-07 -8.5776e-08 -7.30574e-08)
(-2.47085e-09 -2.37203e-08 3.85215e-08)
(2.869e-07 -2.06604e-07 2.99318e-07)
(1.2953e-06 -6.30018e-07 6.39802e-07)
(4.66082e-07 -1.58663e-07 -9.73033e-08)
(4.79525e-07 -2.93007e-07 3.87619e-07)
(5.23956e-07 -3.61267e-07 9.36668e-07)
(3.35179e-09 -3.43005e-08 5.44718e-08)
(3.11319e-07 -2.46205e-07 4.26558e-07)
(3.2224e-06 -1.56568e-06 2.7575e-06)
(3.46002e-06 -1.66714e-06 2.85562e-06)
(1.72737e-06 -7.90652e-07 8.67962e-07)
(3.20735e-06 -1.53849e-06 2.58308e-06)
(2.98177e-06 -1.28229e-06 1.14983e-06)
(3.42566e-06 -1.18025e-06 -4.30497e-07)
(5.07028e-06 -1.97697e-06 9.77565e-07)
(3.44446e-06 -1.39659e-06 8.1096e-07)
(1.70479e-06 -7.42545e-07 5.63688e-07)
(2.94276e-06 -1.01803e-06 -4.03095e-07)
(2.96151e-06 -1.21886e-06 7.51843e-07)
(3.44561e-06 -1.639e-06 2.67557e-06)
(5.08754e-06 -2.06197e-06 1.48584e-06)
(3.46397e-06 -1.46533e-06 1.23806e-06)
(3.19784e-06 -1.58906e-06 2.83189e-06)
(3.43426e-06 -1.69011e-06 2.93173e-06)
(1.6671e-06 -8.25555e-07 1.02393e-06)
(3.17052e-06 -1.57151e-06 2.69194e-06)
(2.90379e-06 -1.31382e-06 1.33924e-06)
(3.34133e-06 -1.17215e-06 -2.65374e-07)
(4.96307e-06 -1.9958e-06 1.20172e-06)
(3.35598e-06 -1.41765e-06 1.0103e-06)
(1.64057e-06 -7.66722e-07 7.19083e-07)
(2.86386e-06 -1.00966e-06 -2.46719e-07)
(2.87919e-06 -1.24068e-06 9.41385e-07)
(3.40702e-06 -1.67145e-06 2.78698e-06)
(4.98489e-06 -2.08918e-06 1.70903e-06)
(3.37989e-06 -1.49577e-06 1.43705e-06)
(8.20372e-06 -3.4828e-06 3.94408e-06)
(1.05262e-05 -3.88824e-06 2.02452e-06)
(8.31886e-06 -3.17486e-06 1.84313e-06)
(5.6676e-06 -2.18393e-06 1.02952e-06)
(7.59198e-06 -2.51061e-06 -5.89631e-07)
(7.61071e-06 -2.83656e-06 1.1746e-06)
(7.85953e-06 -3.35803e-06 3.87628e-06)
(5.68413e-06 -2.27438e-06 1.56285e-06)
(7.62504e-06 -2.94328e-06 1.7772e-06)
(1.05148e-05 -3.7604e-06 1.34292e-06)
(8.28659e-06 -2.72133e-06 -6.0809e-07)
(8.30526e-06 -3.06278e-06 1.21937e-06)
(8.1628e-06 -3.54309e-06 4.29387e-06)
(7.8204e-06 -3.41775e-06 4.22145e-06)
(8.13674e-06 -3.5064e-06 4.08245e-06)
(1.03748e-05 -3.90727e-06 2.28365e-06)
(8.18532e-06 -3.19689e-06 2.093e-06)
(5.55412e-06 -2.20202e-06 1.26048e-06)
(7.47012e-06 -2.50438e-06 -3.81276e-07)
(7.47854e-06 -2.85248e-06 1.42204e-06)
(7.79429e-06 -3.38217e-06 4.01364e-06)
(5.57525e-06 -2.30054e-06 1.79265e-06)
(7.49761e-06 -2.96632e-06 2.02295e-06)
(1.03583e-05 -3.77354e-06 1.60436e-06)
(8.15946e-06 -2.71536e-06 -3.95807e-07)
(8.16692e-06 -3.07799e-06 1.47109e-06)
(6.26646e-12 -6.78387e-11 3.75408e-11)
(2.50915e-12 -3.35772e-11 3.59332e-11)
(1.50969e-11 -1.37399e-10 3.98161e-11)
(5.01688e-11 -2.53863e-10 4.49963e-11)
(3.68727e-11 -2.72481e-10 4.47413e-11)
(7.27591e-12 -2.38404e-14 6.40712e-13)
(1.15029e-06 -6.26917e-07 1.5656e-06)
(1.4693e-11 9.73717e-12 1.7599e-12)
(3.98067e-11 1.00049e-10 1.82267e-11)
(4.21072e-11 3.84902e-11 1.07295e-11)
(2.111e-07 -1.43534e-07 3.82685e-07)
(1.656e-09 3.10554e-09 -2.49969e-10)
(2.2791e-09 1.66971e-09 8.36442e-10)
(9.63591e-06 -4.03686e-06 4.47065e-06)
(6.54764e-06 -2.90753e-06 3.82476e-06)
(-1.21046e-12 -1.25246e-13 3.195e-11)
(3.06002e-13 -1.7783e-13 4.32095e-11)
(1.18891e-11 5.70146e-12 9.22794e-13)
(6.61852e-12 1.91878e-12 1.25125e-11)
(8.75979e-12 9.53277e-13 2.54218e-13)
(7.31829e-12 -3.00391e-14 6.33081e-13)
(8.48915e-12 -2.95202e-13 1.26119e-11)
(7.55095e-12 -6.07982e-14 5.74693e-13)
(-1.16026e-12 -2.77877e-13 3.21102e-11)
(-1.06788e-12 -6.72491e-13 3.23754e-11)
(-2.24458e-11 -1.03877e-11 4.40304e-11)
(-1.76322e-12 3.67738e-12 3.2285e-11)
(-1.16594e-11 -7.90063e-12 4.44866e-11)
(2.98269e-13 -3.3083e-13 4.32767e-11)
(5.70817e-12 -5.00967e-13 3.21415e-11)
(2.09527e-13 -5.93428e-13 4.33873e-11)
(1.5151e-06 -7.69335e-07 1.34116e-06)
(1.12834e-06 -6.09239e-07 1.45993e-06)
(1.04761e-06 -5.62398e-07 1.0895e-06)
(-3.8326e-11 -3.71371e-12 4.37e-11)
(1.32556e-11 1.48348e-10 2.60796e-11)
(-4.75431e-11 -4.58556e-12 3.61814e-11)
(1.4647e-08 -2.66812e-08 -2.14567e-08)
(3.38052e-08 7.94012e-09 -1.52737e-08)
(-3.04783e-10 -1.27351e-09 -7.79735e-11)
(2.93901e-08 -9.77124e-09 6.63929e-09)
(1.1843e-08 -5.13614e-09 -6.30541e-09)
(1.33254e-06 -5.13354e-07 -2.40339e-08)
(1.0203e-06 -3.54251e-07 -2.45185e-07)
(1.01705e-06 -3.97248e-07 -2.34261e-08)
(1.80386e-07 -1.58056e-07 3.37129e-07)
(3.69333e-08 5.64011e-09 2.29199e-08)
(3.55109e-08 -5.30964e-09 6.06746e-08)
(1.1832e-07 -1.20131e-07 2.60703e-07)
(2.83059e-08 1.38918e-08 2.90251e-08)
(1.13794e-06 -6.54756e-07 1.61577e-06)
(2.28996e-07 -1.80847e-07 4.54402e-07)
(1.48844e-06 -7.97418e-07 1.4212e-06)
(1.10938e-06 -6.48595e-07 1.53322e-06)
(1.02525e-06 -5.91884e-07 1.15898e-06)
(3.3769e-08 6.74544e-09 -3.01192e-08)
(-5.19615e-09 -2.74693e-09 7.71305e-09)
(2.9895e-08 -1.86139e-08 1.94115e-08)
(1.27373e-06 -5.15027e-07 1.02058e-07)
(9.69643e-07 -3.44222e-07 -1.43724e-07)
(9.64297e-07 -3.98925e-07 8.94685e-08)
(2.11149e-07 -1.82214e-07 4.29276e-07)
(1.04087e-08 -1.61874e-08 3.85496e-08)
(1.24729e-07 -1.52098e-07 3.02722e-07)
(2.35091e-06 -1.18408e-06 2.348e-06)
(4.48544e-06 -2.09407e-06 3.23132e-06)
(1.68866e-06 -8.44553e-07 1.42131e-06)
(2.33328e-06 -1.1606e-06 2.19716e-06)
(2.26099e-06 -1.08787e-06 1.65745e-06)
(4.48106e-06 -1.52873e-06 -4.81609e-07)
(5.05158e-06 -1.80307e-06 -1.49363e-08)
(4.48091e-06 -1.61297e-06 -1.69557e-08)
(1.68393e-06 -6.41025e-07 -2.40839e-08)
(2.072e-06 -7.20984e-07 -3.44331e-07)
(2.06999e-06 -7.79605e-07 -2.36763e-08)
(4.47362e-06 -2.06206e-06 3.02987e-06)
(5.26079e-06 -2.27492e-06 2.48894e-06)
(4.41152e-06 -1.95122e-06 2.2966e-06)
(2.33106e-06 -1.20908e-06 2.41471e-06)
(4.45481e-06 -2.11544e-06 3.31357e-06)
(1.66042e-06 -8.72157e-07 1.50474e-06)
(2.30335e-06 -1.19592e-06 2.29469e-06)
(2.22815e-06 -1.11419e-06 1.75035e-06)
(4.38595e-06 -1.52117e-06 -3.01042e-07)
(4.94654e-06 -1.80427e-06 1.88628e-07)
(4.38162e-06 -1.61423e-06 1.79462e-07)
(1.61923e-06 -6.42647e-07 1.14358e-07)
(2.00405e-06 -7.1205e-07 -2.07602e-07)
(1.9995e-06 -7.81174e-07 1.26311e-07)
(4.42789e-06 -2.09225e-06 3.15036e-06)
(5.20795e-06 -2.29615e-06 2.6103e-06)
(4.36371e-06 -1.97366e-06 2.41225e-06)
(9.63416e-06 -3.98957e-06 4.20035e-06)
(1.07182e-05 -4.18489e-06 3.33451e-06)
(9.58942e-06 -3.81049e-06 3.19772e-06)
(5.64924e-06 -1.99946e-06 -1.27559e-08)
(6.27199e-06 -2.10188e-06 -5.4965e-07)
(6.27281e-06 -2.20155e-06 -1.04361e-08)
(6.54031e-06 -2.86873e-06 3.58996e-06)
(5.55734e-06 -2.38591e-06 2.54986e-06)
(6.48598e-06 -2.72762e-06 2.72801e-06)
(1.04989e-05 -3.50324e-06 5.34416e-09)
(9.73981e-06 -3.15307e-06 -6.42078e-07)
(9.7421e-06 -3.27812e-06 2.579e-09)
(9.58616e-06 -4.05207e-06 4.56713e-06)
(6.50848e-06 -2.92616e-06 3.91509e-06)
(9.56039e-06 -4.01105e-06 4.34206e-06)
(1.06389e-05 -4.19971e-06 3.47372e-06)
(9.51486e-06 -3.82644e-06 3.33499e-06)
(5.53844e-06 -2.00061e-06 1.97294e-07)
(6.16078e-06 -2.09512e-06 -3.50691e-07)
(6.15626e-06 -2.20264e-06 2.05466e-07)
(6.48208e-06 -2.89503e-06 3.72245e-06)
(5.50274e-06 -2.40669e-06 2.67297e-06)
(6.42636e-06 -2.7472e-06 2.85573e-06)
(1.03485e-05 -3.504e-06 2.44845e-07)
(9.60224e-06 -3.14762e-06 -4.2331e-07)
(9.59724e-06 -3.27894e-06 2.39347e-07)
(1.11037e-05 -4.31055e-06 3.37731e-06)
(1.10228e-05 -4.32497e-06 3.51706e-06)
(-1.29766e-13 -7.81394e-12 3.39187e-11)
(7.60668e-13 -1.63383e-11 3.48027e-11)
(-3.7203e-13 -8.16272e-11 4.23788e-11)
(-7.08869e-12 -4.17367e-11 4.5337e-11)
(-5.92867e-13 -4.04248e-11 4.12862e-11)
(-3.78451e-13 -9.51221e-12 3.9399e-11)
(-4.07809e-12 -2.06831e-11 4.45029e-11)
(-4.64122e-13 -1.97873e-11 4.02792e-11)
(2.73284e-12 -1.6336e-10 4.33744e-11)
(-9.74594e-12 -3.2007e-10 3.96785e-11)
(1.57987e-11 -3.22346e-10 4.30812e-11)
(9.75343e-11 -5.11794e-10 5.01762e-11)
(2.53889e-10 -1.09205e-09 6.20609e-11)
(9.17067e-11 -5.78449e-10 4.54482e-11)
(6.10471e-11 -5.64297e-10 2.08627e-11)
(2.65848e-10 -1.11597e-09 -2.74591e-12)
(7.46008e-11 -6.27887e-10 3.37885e-11)
(1.01438e-06 -5.60646e-07 1.44705e-06)
(6.94806e-11 1.73282e-10 2.14641e-11)
(2.41758e-10 1.91313e-10 8.3137e-11)
(6.34395e-11 6.07433e-11 1.86813e-11)
(2.97455e-07 -1.91828e-07 5.35269e-07)
(5.07735e-09 2.43885e-09 4.99456e-10)
(3.78827e-10 2.93621e-10 1.36486e-10)
(1.49215e-09 9.15902e-10 5.59339e-10)
(9.27111e-06 -3.90822e-06 4.40527e-06)
(6.86792e-06 -3.02921e-06 3.90297e-06)
(-5.90876e-13 -1.74134e-13 3.72566e-11)
(-1.95403e-12 -1.972e-13 4.62655e-11)
(7.36413e-12 4.90199e-13 1.24988e-11)
(7.88341e-12 -6.7463e-14 4.20981e-13)
(8.41074e-12 4.25488e-13 2.71404e-13)
(8.46821e-12 -2.68517e-13 1.25983e-11)
(7.76159e-12 -9.41796e-14 4.77587e-13)
(7.62556e-12 -7.39583e-14 5.50327e-13)
(-6.06116e-13 -3.62906e-12 3.32466e-11)
(-8.99649e-13 -1.63308e-12 3.27489e-11)
(-5.54256e-13 -3.58304e-13 3.74393e-11)
(-1.30883e-12 -9.69754e-13 4.20837e-11)
(-4.97247e-13 -8.67171e-13 3.77467e-11)
(-3.76095e-13 -4.47387e-12 3.86789e-11)
(-1.40582e-12 -2.21866e-12 4.24901e-11)
(-4.28478e-13 -2.04385e-12 3.81549e-11)
(-2.73943e-11 -4.44389e-11 4.8083e-11)
(-1.31758e-11 -3.58568e-11 4.82972e-11)
(-1.55349e-11 -2.31507e-11 4.85448e-11)
(1.98081e-12 -6.98525e-13 3.23224e-11)
(-2.25483e-12 -3.49873e-12 4.41371e-11)
(-5.44136e-12 -5.66662e-12 4.43421e-11)
(-7.60405e-12 -1.8162e-11 4.767e-11)
(-4.92655e-12 -6.50239e-12 4.77693e-11)
(-8.56942e-12 -1.24726e-11 4.8185e-11)
(-1.98147e-12 -4.03037e-13 4.63848e-11)
(-2.34534e-12 -9.5287e-13 4.55235e-11)
(-2.0999e-12 -8.03493e-13 4.65619e-11)
(5.52956e-12 -7.96789e-13 3.21954e-11)
(-7.32313e-13 -2.00622e-12 4.38432e-11)
(-6.14246e-14 -1.10337e-12 4.35758e-11)
(-2.59184e-12 -2.05941e-12 4.58985e-11)
(-3.18699e-12 -3.2996e-12 4.72842e-11)
(-2.41545e-12 -1.63622e-12 4.68593e-11)
(1.40926e-06 -6.91542e-07 1.04976e-06)
(1.062e-06 -5.17867e-07 6.65355e-07)
(1.09539e-06 -5.56597e-07 9.11815e-07)
(9.91868e-07 -5.43687e-07 1.34817e-06)
(5.50368e-07 -3.33729e-07 7.3439e-07)
(9.09807e-07 -5.00081e-07 1.00412e-06)
(7.83618e-07 -3.99826e-07 5.59475e-07)
(5.76506e-07 -3.25036e-07 6.22219e-07)
(8.17636e-07 -4.3447e-07 7.69311e-07)
(-4.27785e-11 -7.95855e-11 4.63846e-11)
(-3.00107e-11 -2.73332e-10 3.50809e-11)
(-4.73623e-11 -1.68684e-10 3.24048e-11)
(9.07021e-11 4.62768e-10 5.05047e-11)
(2.93117e-10 -9.50543e-11 -1.58077e-11)
(-6.77149e-12 1.10785e-10 4.61942e-11)
(5.51547e-11 -4.45739e-10 6.48073e-12)
(3.675e-10 -6.588e-10 -1.76268e-10)
(3.01253e-11 -2.50235e-10 5.75307e-12)
(3.9593e-09 5.26582e-10 2.97938e-09)
(7.23459e-10 -2.93144e-09 -2.09313e-10)
(4.04987e-09 -2.61568e-09 -1.66093e-10)
(1.44355e-07 -4.23066e-08 -7.89712e-08)
(2.99259e-07 -1.22713e-07 -1.40312e-08)
(1.38773e-07 -5.868e-08 -6.74824e-09)
(8.84541e-10 -3.07305e-09 1.15654e-08)
(4.06105e-08 -3.96919e-08 7.74713e-08)
(9.86133e-09 4.56971e-09 1.21052e-08)
(3.31989e-08 -2.37481e-08 4.02586e-08)
(7.82159e-09 -9.03298e-10 2.07587e-09)
(3.04055e-07 -1.49196e-07 9.95106e-08)
(1.54589e-07 -1.00856e-07 1.44774e-07)
(1.43322e-07 -7.93406e-08 6.75275e-08)
(9.52983e-10 -1.95912e-09 -2.02748e-10)
(3.38852e-09 -1.4859e-09 -7.83445e-10)
(2.59453e-09 -2.38714e-09 -8.80592e-10)
(1.33903e-06 -5.60073e-07 2.33903e-07)
(1.03806e-06 -4.79121e-07 4.293e-07)
(1.02336e-06 -4.38957e-07 2.00347e-07)
(7.4251e-07 -2.5577e-07 -2.08681e-07)
(4.99031e-07 -2.02013e-07 -1.9356e-08)
(7.38869e-07 -2.93245e-07 -2.19692e-08)
(7.59398e-07 -3.65399e-07 3.59588e-07)
(5.04462e-07 -2.33314e-07 1.32634e-07)
(7.44843e-07 -3.29904e-07 1.66476e-07)
(2.60739e-07 -1.85519e-07 4.83067e-07)
(4.47854e-07 -2.85778e-07 6.42153e-07)
(1.88233e-07 -1.58886e-07 3.5273e-07)
(6.27143e-09 -9.98842e-09 -7.88015e-11)
(1.72526e-09 9.87966e-10 3.6304e-10)
(3.5807e-09 -1.91919e-09 -4.09114e-10)
(1.45875e-08 -7.48969e-09 4.93313e-08)
(5.27558e-08 -5.79367e-08 1.16943e-07)
(1.39262e-08 1.0555e-08 2.26439e-08)
(6.81256e-08 -8.03674e-08 1.51995e-07)
(1.85766e-08 1.73962e-08 3.14266e-08)
(3.70719e-07 -2.29614e-07 4.68111e-07)
(1.72914e-07 -1.23368e-07 2.2645e-07)
(2.04218e-07 -1.4595e-07 3.12928e-07)
(1.84177e-09 3.09734e-10 -1.58709e-10)
(4.73709e-09 -9.56167e-10 -8.17778e-10)
(5.99273e-09 -1.06485e-09 -1.24037e-09)
(1.00297e-06 -5.88895e-07 1.49455e-06)
(3.04053e-07 -2.26839e-07 5.90148e-07)
(1.35924e-06 -7.35236e-07 1.19085e-06)
(1.01309e-06 -5.55337e-07 7.95335e-07)
(1.05067e-06 -6.01893e-07 1.04012e-06)
(9.74301e-07 -5.83669e-07 1.41758e-06)
(5.34448e-07 -3.66048e-07 7.90025e-07)
(8.89036e-07 -5.30125e-07 1.06993e-06)
(7.40583e-07 -4.38884e-07 6.75568e-07)
(5.4338e-07 -3.75361e-07 7.24486e-07)
(7.78336e-07 -4.81596e-07 8.84488e-07)
(1.29162e-07 -2.41861e-08 -4.688e-08)
(2.6949e-07 -1.25339e-07 5.06793e-08)
(1.23055e-07 -6.0334e-08 3.84704e-08)
(-5.12613e-09 -1.29789e-08 2.29649e-08)
(3.89538e-08 -7.27046e-08 1.20033e-07)
(3.15944e-08 -4.54944e-08 6.98422e-08)
(2.73415e-07 -1.65796e-07 1.74325e-07)
(1.3746e-07 -1.36085e-07 2.10865e-07)
(1.26271e-07 -9.80716e-08 1.24163e-07)
(1.27939e-06 -5.73248e-07 3.70141e-07)
(9.85759e-07 -5.05083e-07 5.58034e-07)
(9.69821e-07 -4.52608e-07 3.22942e-07)
(6.98208e-07 -2.45191e-07 -1.2086e-07)
(4.59963e-07 -2.03429e-07 6.38061e-08)
(6.92518e-07 -2.94923e-07 7.66835e-08)
(7.13372e-07 -3.92478e-07 4.73828e-07)
(4.64647e-07 -2.48355e-07 2.2499e-07)
(6.97729e-07 -3.44107e-07 2.74467e-07)
(2.76606e-07 -2.30845e-07 5.56135e-07)
(4.34768e-07 -3.1876e-07 6.94878e-07)
(1.86624e-07 -1.95183e-07 3.98836e-07)
(1.41367e-08 -4.50748e-08 7.23249e-08)
(5.37058e-08 -9.92637e-08 1.72208e-07)
(7.45674e-08 -1.22115e-07 2.2446e-07)
(3.4632e-07 -2.8233e-07 5.59789e-07)
(1.58214e-07 -1.72922e-07 2.99672e-07)
(1.90315e-07 -2.05998e-07 3.92923e-07)
(2.55666e-06 -1.27563e-06 2.45292e-06)
(4.21812e-06 -1.98437e-06 3.13991e-06)
(1.7586e-06 -8.38654e-07 1.1835e-06)
(2.11239e-06 -9.44222e-07 9.64819e-07)
(2.14247e-06 -9.97269e-07 1.31312e-06)
(2.53967e-06 -1.25123e-06 2.29602e-06)
(3.13965e-06 -1.44919e-06 1.95392e-06)
(2.46852e-06 -1.17438e-06 1.73265e-06)
(2.53088e-06 -1.10834e-06 1.05876e-06)
(3.0096e-06 -1.34594e-06 1.56041e-06)
(2.55983e-06 -1.16662e-06 1.43874e-06)
(3.93878e-06 -1.35071e-06 -4.56653e-07)
(3.4248e-06 -1.25422e-06 -2.04136e-08)
(3.93829e-06 -1.4298e-06 -1.87908e-08)
(5.05837e-06 -1.89076e-06 4.77839e-07)
(4.49993e-06 -1.77632e-06 9.23821e-07)
(4.48768e-06 -1.69545e-06 4.50022e-07)
(3.43154e-06 -1.3263e-06 3.92011e-07)
(3.95763e-06 -1.58264e-06 8.68286e-07)
(3.94505e-06 -1.50707e-06 4.21408e-07)
(1.69051e-06 -6.92738e-07 2.66916e-07)
(2.09058e-06 -8.91143e-07 6.28212e-07)
(2.07663e-06 -8.36349e-07 2.99275e-07)
(2.49118e-06 -8.64711e-07 -3.74395e-07)
(2.94154e-06 -1.08687e-06 -2.17936e-08)
(2.48957e-06 -9.28445e-07 -2.28956e-08)
(2.50985e-06 -1.05014e-06 6.9093e-07)
(2.94824e-06 -1.15381e-06 3.61845e-07)
(2.49624e-06 -9.90262e-07 3.30927e-07)
(4.20565e-06 -1.95334e-06 2.94366e-06)
(3.37902e-06 -1.54538e-06 2.02429e-06)
(4.14247e-06 -1.8469e-06 2.23098e-06)
(5.11102e-06 -2.14783e-06 2.00837e-06)
(4.51794e-06 -1.85587e-06 1.40605e-06)
(4.54249e-06 -1.93612e-06 1.90214e-06)
(3.49069e-06 -1.53446e-06 1.67818e-06)
(3.97638e-06 -1.65676e-06 1.32346e-06)
(4.00202e-06 -1.73143e-06 1.79208e-06)
(2.53565e-06 -1.30022e-06 2.52167e-06)
(4.18871e-06 -2.00614e-06 3.22074e-06)
(1.7032e-06 -8.80938e-07 1.3368e-06)
(2.04632e-06 -9.77975e-07 1.13271e-06)
(2.08152e-06 -1.03818e-06 1.47792e-06)
(2.50804e-06 -1.28598e-06 2.39655e-06)
(3.10031e-06 -1.47378e-06 2.05797e-06)
(2.43401e-06 -1.20023e-06 1.82852e-06)
(2.45891e-06 -1.14097e-06 1.23781e-06)
(2.93712e-06 -1.38417e-06 1.74592e-06)
(2.49317e-06 -1.20618e-06 1.61428e-06)
(3.84906e-06 -1.34288e-06 -2.83473e-07)
(3.33704e-06 -1.25561e-06 1.5963e-07)
(3.84477e-06 -1.43113e-06 1.69794e-07)
(4.95056e-06 -1.90064e-06 6.94777e-07)
(4.39898e-06 -1.79589e-06 1.14045e-06)
(4.38596e-06 -1.70572e-06 6.59515e-07)
(3.34196e-06 -1.33738e-06 5.84428e-07)
(3.86293e-06 -1.60295e-06 1.07665e-06)
(3.8494e-06 -1.51775e-06 6.22734e-07)
(1.62489e-06 -7.05475e-07 4.15973e-07)
(2.02039e-06 -9.14518e-07 7.95779e-07)
(2.00505e-06 -8.48662e-07 4.60349e-07)
(2.41772e-06 -8.56063e-07 -2.27477e-07)
(2.85952e-06 -1.08832e-06 1.4898e-07)
(2.41331e-06 -9.29955e-07 1.37865e-07)
(2.43363e-06 -1.07274e-06 8.69881e-07)
(2.8647e-06 -1.16529e-06 5.44593e-07)
(2.41869e-06 -1.00216e-06 5.0323e-07)
(4.16172e-06 -1.98409e-06 3.06204e-06)
(3.33795e-06 -1.56952e-06 2.13089e-06)
(4.09642e-06 -1.86979e-06 2.3445e-06)
(5.01451e-06 -2.18085e-06 2.22625e-06)
(4.42151e-06 -1.88416e-06 1.62191e-06)
(4.45204e-06 -1.97043e-06 2.11301e-06)
(3.41228e-06 -1.57137e-06 1.87289e-06)
(3.88615e-06 -1.68612e-06 1.53126e-06)
(3.91761e-06 -1.76704e-06 1.99524e-06)
(9.26876e-06 -3.86185e-06 4.13852e-06)
(8.15474e-06 -3.32031e-06 3.00016e-06)
(9.22305e-06 -3.68695e-06 3.15051e-06)
(1.05413e-05 -4.01812e-06 2.72274e-06)
(9.77048e-06 -3.64781e-06 1.96678e-06)
(9.78661e-06 -3.77239e-06 2.64642e-06)
(8.33705e-06 -3.28861e-06 2.48279e-06)
(9.03436e-06 -3.40987e-06 1.90632e-06)
(9.05151e-06 -3.52906e-06 2.56645e-06)
(5.65603e-06 -2.09238e-06 5.04846e-07)
(6.29082e-06 -2.39658e-06 1.07967e-06)
(6.2796e-06 -2.29969e-06 5.31032e-07)
(6.92009e-06 -2.30396e-06 -5.70159e-07)
(7.59341e-06 -2.62052e-06 -5.45913e-09)
(6.92122e-06 -2.40875e-06 -7.99718e-09)
(6.93888e-06 -2.61431e-06 1.12803e-06)
(7.60018e-06 -2.72905e-06 5.80899e-07)
(6.928e-06 -2.5121e-06 5.56387e-07)
(6.86122e-06 -2.98944e-06 3.66381e-06)
(7.80954e-06 -3.19984e-06 2.94845e-06)
(6.80792e-06 -2.84395e-06 2.7843e-06)
(5.70654e-06 -2.36586e-06 2.1108e-06)
(6.30662e-06 -2.49247e-06 1.63707e-06)
(6.32796e-06 -2.58957e-06 2.20944e-06)
(7.64428e-06 -3.05152e-06 2.39541e-06)
(6.95395e-06 -2.71563e-06 1.70852e-06)
(6.97423e-06 -2.81832e-06 2.3043e-06)
(1.05056e-05 -3.63213e-06 6.7036e-07)
(9.75832e-06 -3.52516e-06 1.30353e-06)
(9.74882e-06 -3.402e-06 6.49296e-07)
(9.00288e-06 -2.93563e-06 -6.25564e-07)
(8.28831e-06 -2.83632e-06 -2.83899e-09)
(9.00489e-06 -3.05567e-06 -1.54109e-10)
(9.02148e-06 -3.29247e-06 1.26234e-06)
(8.29507e-06 -2.95e-06 6.04559e-07)
(9.01163e-06 -3.17448e-06 6.27361e-07)
(9.22251e-06 -3.9238e-06 4.50126e-06)
(6.82755e-06 -3.04745e-06 3.99419e-06)
(9.19668e-06 -3.88386e-06 4.27949e-06)
(8.0867e-06 -3.33784e-06 3.13393e-06)
(9.15017e-06 -3.70333e-06 3.28699e-06)
(1.03973e-05 -4.04123e-06 2.9746e-06)
(9.62492e-06 -3.66782e-06 2.2233e-06)
(9.64833e-06 -3.79669e-06 2.89587e-06)
(8.21045e-06 -3.31534e-06 2.726e-06)
(8.89477e-06 -3.43088e-06 2.15976e-06)
(8.91903e-06 -3.55458e-06 2.81302e-06)
(5.54212e-06 -2.10187e-06 7.28535e-07)
(6.17109e-06 -2.41394e-06 1.31677e-06)
(6.15961e-06 -2.30879e-06 7.60806e-07)
(6.80355e-06 -2.29746e-06 -3.66236e-07)
(7.46542e-06 -2.62149e-06 2.20369e-07)
(6.79894e-06 -2.40978e-06 2.13154e-07)
(6.81291e-06 -2.63095e-06 1.37062e-06)
(7.46809e-06 -2.73738e-06 8.20967e-07)
(6.80195e-06 -2.52081e-06 7.91609e-07)
(6.80122e-06 -3.0152e-06 3.79764e-06)
(7.74322e-06 -3.2178e-06 3.08115e-06)
(6.74655e-06 -2.8631e-06 2.9134e-06)
(5.60395e-06 -2.3976e-06 2.33499e-06)
(6.19152e-06 -2.51758e-06 1.87282e-06)
(6.21932e-06 -2.62004e-06 2.43929e-06)
(7.52362e-06 -3.07949e-06 2.63474e-06)
(6.83266e-06 -2.73971e-06 1.94957e-06)
(6.85956e-06 -2.84753e-06 2.53919e-06)
(1.03499e-05 -3.63899e-06 9.24491e-07)
(9.60784e-06 -3.53898e-06 1.56221e-06)
(9.5989e-06 -3.40922e-06 9.00637e-07)
(8.87051e-06 -2.92993e-06 -4.0982e-07)
(8.15465e-06 -2.83724e-06 2.27128e-07)
(8.86561e-06 -3.05654e-06 2.33448e-07)
(8.87704e-06 -3.30699e-06 1.5178e-06)
(8.15699e-06 -2.95797e-06 8.48905e-07)
(8.8676e-06 -3.18207e-06 8.75452e-07)
(2.27249e-12 -1.19323e-13 2.16753e-11)
(-2.28838e-12 -2.13185e-13 4.82852e-11)
(8.41662e-12 -6.75002e-14 1.26787e-11)
(1.06271e-11 -1.2563e-13 8.42142e-12)
(-2.33777e-12 -2.29202e-13 4.84597e-11)
(2.28858e-12 -1.78259e-13 2.14735e-11)
(1.06398e-11 -3.65414e-14 8.4629e-12)
(1.44933e-06 -7.70004e-07 1.7977e-06)
(2.53317e-11 7.76888e-11 1.54529e-11)
(1.44212e-11 2.25334e-11 9.17384e-12)
(-4.67832e-12 6.26901e-11 4.55696e-11)
(1.13551e-11 3.94196e-11 1.45624e-11)
(8.87599e-12 5.14759e-11 1.84792e-11)
(8.47101e-12 9.20177e-11 3.94672e-11)
(2.07332e-11 3.49446e-11 1.02162e-11)
(2.56987e-08 7.78262e-09 -5.0769e-09)
(8.89358e-08 -1.28188e-08 1.75202e-07)
(2.07948e-08 1.70326e-08 1.65214e-08)
(4.54871e-08 -1.43198e-09 2.77853e-08)
(4.4471e-08 1.80938e-08 4.23461e-08)
(7.38472e-08 -9.70334e-09 4.95564e-08)
(3.36705e-08 7.6435e-09 1.12538e-08)
(1.03803e-05 -4.29579e-06 4.59672e-06)
(5.92568e-06 -2.66786e-06 3.66345e-06)
(1.49858e-12 1.74415e-11 1.91999e-11)
(1.2513e-11 1.27934e-11 8.55448e-12)
(-5.9225e-12 3.41792e-11 4.4471e-11)
(5.82669e-12 8.19852e-12 1.27444e-11)
(5.55881e-12 2.86464e-11 1.79745e-11)
(-8.36087e-12 2.06452e-11 4.64627e-11)
(1.09167e-11 7.70747e-12 8.25622e-12)
(2.32427e-12 -2.81271e-13 2.16246e-11)
(-2.28336e-12 -2.98603e-13 4.82529e-11)
(1.06463e-11 -6.44599e-14 8.41246e-12)
(8.45656e-12 -1.82579e-13 1.26456e-11)
(2.2979e-12 -1.94389e-13 2.14633e-11)
(-2.31272e-12 -3.15251e-13 4.84403e-11)
(1.07049e-11 -1.6928e-13 8.4288e-12)
(1.41729e-06 -7.04003e-07 1.46065e-06)
(1.60294e-06 -7.98619e-07 1.69795e-06)
(1.56437e-06 -8.08384e-07 1.6326e-06)
(1.42858e-06 -7.50785e-07 1.67869e-06)
(1.43822e-06 -7.22698e-07 1.59511e-06)
(1.40039e-06 -7.33858e-07 1.53393e-06)
(1.58265e-06 -7.78939e-07 1.55595e-06)
(1.43496e-06 -7.97039e-07 1.85298e-06)
(1.2829e-07 -5.53619e-08 2.30127e-07)
(1.35247e-06 -7.99662e-07 1.68248e-06)
(1.53981e-06 -8.41844e-07 1.71485e-06)
(1.54509e-06 -8.8738e-07 1.9022e-06)
(1.40667e-06 -7.88991e-07 1.75943e-06)
(1.37728e-06 -7.67834e-07 1.61269e-06)
(1.38404e-06 -8.12829e-07 1.79067e-06)
(1.51369e-06 -8.73131e-07 1.78766e-06)
(8.01775e-08 -1.02493e-07 1.92313e-07)
(8.55706e-08 -6.55542e-08 1.69469e-07)
(2.55308e-08 -1.61399e-08 5.0273e-08)
(5.0646e-08 -5.03039e-08 7.91511e-08)
(7.43853e-08 -6.03637e-08 1.51002e-07)
(9.98295e-08 -9.77628e-08 2.15003e-07)
(3.82299e-08 -5.12826e-08 6.60229e-08)
(1.96445e-06 -1.00937e-06 2.13302e-06)
(5.04122e-06 -2.31879e-06 3.40914e-06)
(1.93978e-06 -9.38187e-07 1.74218e-06)
(1.7765e-06 -8.77732e-07 1.79923e-06)
(1.73715e-06 -8.86077e-07 1.72958e-06)
(1.94557e-06 -9.87656e-07 1.99462e-06)
(1.75685e-06 -8.57044e-07 1.64971e-06)
(1.95879e-06 -9.59918e-07 1.89903e-06)
(1.91862e-06 -9.66812e-07 1.82522e-06)
(5.05069e-06 -2.22149e-06 2.81917e-06)
(5.03068e-06 -2.28484e-06 3.19763e-06)
(5.35123e-06 -2.37209e-06 3.13997e-06)
(5.29811e-06 -2.35736e-06 3.00891e-06)
(5.06105e-06 -2.25815e-06 3.06088e-06)
(5.0089e-06 -2.245e-06 2.9337e-06)
(5.34153e-06 -2.33424e-06 2.89262e-06)
(1.94686e-06 -1.03519e-06 2.1954e-06)
(5.00814e-06 -2.33937e-06 3.49403e-06)
(1.86221e-06 -1.02943e-06 1.99276e-06)
(1.71104e-06 -9.19006e-07 1.81524e-06)
(1.71487e-06 -9.65119e-07 2.0119e-06)
(1.91894e-06 -1.02413e-06 2.08577e-06)
(1.68362e-06 -9.49751e-07 1.89101e-06)
(1.891e-06 -9.99227e-07 1.91417e-06)
(1.8933e-06 -1.04593e-06 2.11984e-06)
(4.91144e-06 -2.29414e-06 3.162e-06)
(4.98137e-06 -2.31391e-06 3.32203e-06)
(5.24687e-06 -2.38268e-06 3.13246e-06)
(5.22691e-06 -2.43931e-06 3.44564e-06)
(4.95936e-06 -2.2708e-06 3.05546e-06)
(4.94105e-06 -2.32668e-06 3.36218e-06)
(5.19742e-06 -2.40551e-06 3.24049e-06)
(1.04312e-05 -4.16602e-06 3.83522e-06)
(1.03798e-05 -4.2467e-06 4.31961e-06)
(1.08123e-05 -4.35052e-06 4.20967e-06)
(1.07444e-05 -4.31136e-06 4.02123e-06)
(1.04311e-05 -4.22114e-06 4.15343e-06)
(1.0364e-05 -4.18345e-06 3.9682e-06)
(1.0813e-05 -4.2943e-06 3.88766e-06)
(5.94313e-06 -2.56428e-06 3.03546e-06)
(5.91707e-06 -2.63099e-06 3.43765e-06)
(5.64809e-06 -2.48756e-06 3.21759e-06)
(5.594e-06 -2.47127e-06 3.0826e-06)
(5.95149e-06 -2.60449e-06 3.29377e-06)
(5.63906e-06 -2.44853e-06 2.96467e-06)
(5.89645e-06 -2.58663e-06 3.15497e-06)
(1.03283e-05 -4.31026e-06 4.69403e-06)
(5.88894e-06 -2.68726e-06 3.75179e-06)
(1.02159e-05 -4.21705e-06 4.2301e-06)
(1.03027e-05 -4.26713e-06 4.46258e-06)
(1.06663e-05 -4.32903e-06 4.16207e-06)
(1.06215e-05 -4.39745e-06 4.55723e-06)
(1.02875e-05 -4.20157e-06 4.10848e-06)
(1.02442e-05 -4.2693e-06 4.49969e-06)
(1.05933e-05 -4.34404e-06 4.28408e-06)
(5.78925e-06 -2.63277e-06 3.39259e-06)
(5.8624e-06 -2.65839e-06 3.56719e-06)
(5.541e-06 -2.49609e-06 3.20784e-06)
(5.51946e-06 -2.55348e-06 3.5274e-06)
(5.49004e-06 -2.5184e-06 3.3173e-06)
(5.84175e-06 -2.61096e-06 3.28181e-06)
(5.81857e-06 -2.6691e-06 3.60749e-06)
(1.11981e-05 -4.48031e-06 4.26451e-06)
(1.11293e-05 -4.43971e-06 4.07286e-06)
(1.11994e-05 -4.42302e-06 3.93877e-06)
(1.10496e-05 -4.45691e-06 4.21419e-06)
(1.10033e-05 -4.52604e-06 4.61324e-06)
(1.09752e-05 -4.47147e-06 4.33657e-06)
(7.6975e-07 -4.39059e-07 1.20466e-06)
(4.31959e-10 6.86431e-10 4.16795e-11)
(3.211e-10 3.97504e-10 2.12324e-11)
(1.00894e-09 7.20553e-10 -1.12088e-10)
(4.19731e-10 3.86434e-10 6.6481e-11)
(9.16674e-10 7.32631e-10 -1.57164e-11)
(6.08497e-10 9.17198e-10 1.23474e-10)
(2.39238e-10 2.97522e-10 3.63213e-11)
(4.66355e-07 -2.83415e-07 8.22691e-07)
(2.39434e-09 1.38107e-09 -4.543e-11)
(9.77019e-10 8.19795e-10 2.60518e-10)
(1.23032e-09 1.79691e-09 7.90386e-10)
(5.61778e-10 5.46073e-10 1.07171e-10)
(9.64584e-10 1.33566e-09 2.42294e-10)
(2.47003e-09 4.37737e-10 2.42226e-10)
(9.33012e-10 7.48094e-10 1.63018e-10)
(8.55699e-06 -3.65292e-06 4.26975e-06)
(7.5264e-06 -3.27585e-06 4.05451e-06)
(1.66164e-12 -2.8711e-13 2.09196e-11)
(7.98555e-12 -4.12959e-13 1.25241e-11)
(-3.46931e-12 -1.01078e-12 4.81646e-11)
(1.07182e-11 -2.45322e-13 8.19247e-12)
(1.86763e-12 -5.97643e-13 2.0871e-11)
(-3.91669e-12 -5.01734e-13 4.83929e-11)
(1.07185e-11 -1.80427e-13 8.17622e-12)
(2.18504e-12 -6.69267e-13 2.12957e-11)
(8.36137e-12 -4.3382e-13 1.25724e-11)
(-2.98032e-12 -9.67831e-13 4.8315e-11)
(1.07603e-11 -3.70784e-13 8.24346e-12)
(2.04944e-12 -7.12585e-13 2.1067e-11)
(-2.77007e-12 -1.02863e-12 4.83673e-11)
(1.07925e-11 -2.79478e-13 8.30669e-12)
(7.26207e-07 -3.79744e-07 9.61865e-07)
(7.46068e-07 -4.2347e-07 1.11922e-06)