/*--------------------------------*- C++ -*----------------------------------*\
| =========                 |                                                 |
| \\      /  F ield         | OpenFOAM: The Open Source CFD Toolbox           |
|  \\    /   O peration     | Version:  2012                                  |
|   \\  /    A nd           | Website:  www.openfoam.com                      |
|    \\/     M anipulation  |                                                 |
\*---------------------------------------------------------------------------*/
FoamFile
{
    version     2.0;
    format      ascii;
    class       volVectorField;
    location    "0.108/solid";
    object      D_0_0_0;
}
// * * * * * * * * * * * * * * * * * * * * * * * * * * * * * * * * * * * * * //

dimensions      [0 1 0 0 0 0 0];


internalField   nonuniform List<vector> 
3125
(
(8.59161e-12 -1.27667e-13 1.21426e-11)
(1.98771e-06 -8.33947e-07 2.36771e-06)
(1.16264e-11 4.22401e-11 1.42595e-11)
(4.76162e-08 3.36898e-09 5.3702e-08)
(1.32825e-05 -4.42529e-06 5.76405e-06)
(6.93903e-06 -2.47711e-06 4.43367e-06)
(5.9625e-12 -1.30466e-13 3.10332e-11)
(9.54415e-12 2.43076e-11 1.31938e-11)
(8.61463e-12 -4.59443e-14 1.2131e-11)
(-4.04833e-12 3.6398e-11 3.03956e-11)
(6.01144e-12 -1.97628e-13 3.10279e-11)
(1.96156e-06 -8.13752e-07 2.21636e-06)
(-4.08144e-12 1.02471e-10 3.07454e-11)
(4.39697e-10 -5.45698e-09 -1.41333e-08)
(1.63982e-06 -4.78641e-07 -3.34906e-07)
(5.55534e-08 2.13738e-08 1.06421e-07)
(1.97359e-06 -8.66863e-07 2.42202e-06)
(8.10399e-08 -1.99118e-08 8.57537e-08)
(1.94004e-06 -8.60284e-07 2.29609e-06)
(-4.62741e-09 9.32555e-09 -1.06373e-08)
(1.58628e-06 -4.66822e-07 -2.18192e-07)
(4.91991e-08 -2.71302e-08 7.17178e-08)
(2.19949e-06 -9.08294e-07 2.50617e-06)
(6.57495e-06 -2.3611e-06 4.32887e-06)
(2.17395e-06 -8.87644e-07 2.34693e-06)
(6.21914e-06 -1.77387e-06 -6.09989e-07)
(2.07186e-06 -6.03677e-07 -3.74617e-07)
(6.55888e-06 -2.33201e-06 4.06592e-06)
(2.18472e-06 -9.40707e-07 2.56288e-06)
(6.54853e-06 -2.38607e-06 4.41519e-06)
(2.15146e-06 -9.33458e-07 2.43017e-06)
(6.13531e-06 -1.76486e-06 -4.10839e-07)
(2.01414e-06 -5.92266e-07 -2.4569e-07)
(6.51935e-06 -2.36728e-06 4.19287e-06)
(1.32763e-05 -4.38647e-06 5.42064e-06)
(6.95589e-06 -1.9776e-06 -6.38323e-07)
(6.9236e-06 -2.44741e-06 4.16479e-06)
(1.29381e-05 -3.59985e-06 -8.04317e-07)
(1.32431e-05 -4.44274e-06 5.87019e-06)
(6.91179e-06 -2.50159e-06 4.52155e-06)
(1.32177e-05 -4.41112e-06 5.57701e-06)
(6.86842e-06 -1.96892e-06 -4.31062e-07)
(6.88285e-06 -2.48199e-06 4.29406e-06)
(1.28255e-05 -3.59344e-06 -5.51438e-07)
(1.37569e-05 -4.5666e-06 5.83703e-06)
(1.37514e-05 -4.5272e-06 5.48957e-06)
(1.37167e-05 -4.58361e-06 5.94408e-06)
(1.36915e-05 -4.55122e-06 5.64731e-06)
(-1.66541e-11 -8.22964e-11 4.42725e-11)
(-3.28615e-12 -9.42586e-12 4.22801e-11)
(-2.35301e-11 -1.60567e-10 4.38454e-11)
(2.36392e-10 -9.42317e-10 1.03829e-10)
(3.29727e-10 -1.02363e-09 -1.32557e-10)
(8.14838e-07 -4.06768e-07 1.33748e-06)
(6.1923e-10 6.81293e-10 1.02913e-10)
(6.91381e-07 -3.58637e-07 1.1817e-06)
(8.10842e-10 8.50603e-10 1.64899e-10)
(1.013e-05 -3.47233e-06 5.19892e-06)
(9.70556e-06 -3.34195e-06 5.11031e-06)
(-1.61133e-12 -4.06876e-14 3.99271e-11)
(-2.4874e-12 -5.13455e-14 4.35182e-11)
(8.50723e-12 2.5985e-13 1.20117e-11)
(8.65877e-12 -7.07868e-14 1.20269e-11)
(-1.5836e-12 -2.35051e-13 4.01796e-11)
(-2.21265e-12 -4.37392e-12 4.15556e-11)
(-2.70507e-11 -6.60773e-11 4.65314e-11)
(4.56424e-12 4.96915e-13 3.11728e-11)
(-5.41605e-12 -7.90748e-12 4.56173e-11)
(-2.48172e-12 -2.57188e-13 4.37307e-11)
(5.50401e-12 -2.94464e-13 3.11233e-11)
(-3.6519e-12 -3.73244e-12 4.49712e-11)
(1.6913e-06 -6.467e-07 9.65785e-07)
(7.84111e-07 -3.89414e-07 1.24186e-06)
(6.65293e-07 -3.03488e-07 5.67457e-07)
(-3.91481e-11 -1.25638e-10 4.47471e-11)
(8.34078e-10 1.06985e-09 1.76732e-11)
(4.69593e-10 -8.40831e-10 -2.33008e-10)
(4.41204e-10 -2.14359e-09 1.98718e-10)
(3.71249e-07 -1.02756e-07 -1.52738e-07)
(3.4323e-09 -5.67e-09 3.02054e-08)
(3.87654e-07 -1.84912e-07 2.74188e-07)
(1.4512e-09 -6.28543e-10 -1.7686e-10)
(1.66197e-06 -6.07166e-07 6.30471e-07)
(6.16318e-07 -1.77834e-07 -2.03774e-07)
(6.35179e-07 -2.72341e-07 3.66429e-07)
(6.60299e-07 -3.41569e-07 1.09399e-06)
(1.75318e-09 4.60782e-09 1.70578e-09)
(8.80697e-09 -7.93335e-09 4.62218e-08)
(4.15484e-07 -2.13891e-07 4.2549e-07)
(1.89909e-09 5.99798e-10 -1.38055e-10)
(8.05172e-07 -4.43191e-07 1.37512e-06)
(6.82507e-07 -3.96047e-07 1.21707e-06)
(1.63995e-06 -6.91354e-07 1.10599e-06)
(7.69543e-07 -4.41088e-07 1.29828e-06)
(6.27779e-07 -3.55334e-07 6.68433e-07)
(3.42628e-07 -8.76866e-08 -9.72145e-08)
(-2.61942e-09 -2.8872e-08 4.58901e-08)
(3.56572e-07 -2.23119e-07 3.58673e-07)
(1.60706e-06 -6.38111e-07 7.7134e-07)
(5.78824e-07 -1.63093e-07 -1.29011e-07)
(5.9542e-07 -3.08329e-07 4.6535e-07)
(6.46823e-07 -3.95397e-07 1.14726e-06)
(4.42093e-09 -4.17462e-08 6.54584e-08)
(3.86377e-07 -2.68068e-07 5.15027e-07)
(3.97401e-06 -1.51317e-06 3.41576e-06)
(4.26727e-06 -1.61072e-06 3.53721e-06)
(2.12251e-06 -7.85028e-07 1.09063e-06)
(3.95286e-06 -1.48885e-06 3.20466e-06)
(3.66697e-06 -1.26815e-06 1.44193e-06)
(4.21466e-06 -1.21385e-06 -5.17454e-07)
(6.2401e-06 -1.98634e-06 1.22913e-06)
(4.23633e-06 -1.39414e-06 1.02289e-06)
(2.09408e-06 -7.42438e-07 7.13887e-07)
(3.61952e-06 -1.04575e-06 -4.83954e-07)
(3.64138e-06 -1.2155e-06 9.49308e-07)
(4.24674e-06 -1.58582e-06 3.31918e-06)
(6.26204e-06 -2.05363e-06 1.85816e-06)
(4.26099e-06 -1.45036e-06 1.5515e-06)
(3.9541e-06 -1.54207e-06 3.48779e-06)
(4.24656e-06 -1.63912e-06 3.61121e-06)
(2.06742e-06 -8.2822e-07 1.24366e-06)
(3.92284e-06 -1.52969e-06 3.31047e-06)
(3.60035e-06 -1.30718e-06 1.6308e-06)
(4.14177e-06 -1.20385e-06 -3.45388e-07)
(6.15264e-06 -2.00966e-06 1.46136e-06)
(4.16137e-06 -1.42023e-06 1.22481e-06)
(2.03515e-06 -7.72362e-07 8.67957e-07)
(3.5503e-06 -1.03541e-06 -3.21886e-07)
(3.57049e-06 -1.24253e-06 1.14005e-06)
(4.21557e-06 -1.62596e-06 3.4279e-06)
(6.17904e-06 -2.08733e-06 2.08754e-06)
(4.19037e-06 -1.48805e-06 1.7513e-06)
(1.01195e-05 -3.4377e-06 4.88699e-06)
(1.29715e-05 -3.99626e-06 2.51802e-06)
(1.02475e-05 -3.21946e-06 2.29701e-06)
(6.97657e-06 -2.20093e-06 1.29307e-06)
(9.35336e-06 -2.63392e-06 -7.16213e-07)
(9.37314e-06 -2.88995e-06 1.47061e-06)
(9.69452e-06 -3.30793e-06 4.80335e-06)
(6.99761e-06 -2.27198e-06 1.95309e-06)
(9.3915e-06 -2.97234e-06 2.21637e-06)
(1.29566e-05 -3.89897e-06 1.67445e-06)
(1.02106e-05 -2.86641e-06 -7.39886e-07)
(1.023e-05 -3.1333e-06 1.52506e-06)
(1.00961e-05 -3.493e-06 5.29766e-06)
(9.67253e-06 -3.36309e-06 5.20785e-06)
(1.00691e-05 -3.4669e-06 5.03237e-06)
(1.28551e-05 -4.01985e-06 2.80528e-06)
(1.01435e-05 -3.24674e-06 2.56582e-06)
(6.88488e-06 -2.22334e-06 1.53437e-06)
(9.25501e-06 -2.62623e-06 -4.87145e-07)
(9.26873e-06 -2.90969e-06 1.7362e-06)
(9.6453e-06 -3.3378e-06 4.94694e-06)
(6.91041e-06 -2.30438e-06 2.19131e-06)
(9.29166e-06 -3.00088e-06 2.4782e-06)
(1.28355e-05 -3.91526e-06 1.96628e-06)
(1.01086e-05 -2.85904e-06 -5.04335e-07)
(1.01214e-05 -3.15217e-06 1.79783e-06)
(3.37862e-12 -7.05276e-11 3.64579e-11)
(9.03601e-13 -3.45158e-11 3.47695e-11)
(9.9761e-12 -1.44085e-10 3.88767e-11)
(4.19486e-11 -2.76573e-10 4.46338e-11)
(2.78864e-11 -2.88559e-10 4.38478e-11)
(7.73242e-12 -1.5166e-14 5.39215e-13)
(1.41821e-06 -6.30622e-07 1.93945e-06)
(1.9577e-11 1.47231e-11 3.15143e-12)
(6.05096e-11 1.48332e-10 2.07217e-11)
(5.80033e-11 5.38329e-11 1.60968e-11)
(2.61123e-07 -1.71718e-07 4.72817e-07)
(1.88163e-09 3.90972e-09 -3.3703e-10)
(2.80506e-09 2.04685e-09 1.02988e-09)
(1.1894e-05 -4.00874e-06 5.53357e-06)
(8.0793e-06 -2.83693e-06 4.73582e-06)
(-1.59555e-12 2.78692e-14 3.03445e-11)
(3.49241e-13 -7.8664e-14 4.19579e-11)
(1.53396e-11 9.0252e-12 1.78308e-12)
(7.60781e-12 5.37735e-12 1.21881e-11)
(1.01967e-11 1.96245e-12 4.13198e-13)
(7.79333e-12 -1.89184e-14 5.31414e-13)
(8.71805e-12 -1.96927e-13 1.21063e-11)
(8.08941e-12 -3.05457e-14 4.75186e-13)
(-1.52325e-12 -1.32758e-13 3.05885e-11)
(-1.42333e-12 -5.32384e-13 3.0928e-11)
(-2.41735e-11 4.72851e-12 4.26398e-11)
(-6.48554e-13 1.26724e-11 3.10639e-11)
(-1.26047e-11 -4.03755e-13 4.32797e-11)
(3.699e-13 -1.9253e-13 4.2045e-11)
(5.99825e-12 -2.94939e-13 3.105e-11)
(3.00041e-13 -3.61995e-13 4.21694e-11)
(1.86598e-06 -7.6224e-07 1.66604e-06)
(1.39025e-06 -6.1168e-07 1.81222e-06)
(1.28998e-06 -5.6639e-07 1.35352e-06)
(-4.0445e-11 2.88303e-11 4.23407e-11)
(3.59755e-11 2.36454e-10 2.3141e-11)
(-4.52849e-11 5.53577e-11 3.26155e-11)
(1.66014e-08 -3.08786e-08 -2.47746e-08)
(4.09851e-08 9.80582e-09 -2.01763e-08)
(-6.1062e-10 -1.56823e-09 1.88652e-10)
(3.56142e-08 -1.1247e-08 7.90981e-09)
(1.3515e-08 -5.23892e-09 -6.37136e-09)
(1.63597e-06 -5.23157e-07 -1.69113e-08)
(1.25215e-06 -3.65613e-07 -2.93398e-07)
(1.24785e-06 -4.0629e-07 -1.76024e-08)
(2.23254e-07 -1.90335e-07 4.16352e-07)
(4.63527e-08 7.66617e-09 2.90474e-08)
(4.40847e-08 -5.91036e-09 7.53762e-08)
(1.45667e-07 -1.417e-07 3.21798e-07)
(3.53452e-08 1.88583e-08 3.73843e-08)
(1.40592e-06 -6.65029e-07 1.98634e-06)
(2.81871e-07 -2.16879e-07 5.56749e-07)
(1.84124e-06 -7.96982e-07 1.74319e-06)
(1.37143e-06 -6.60333e-07 1.88117e-06)
(1.26798e-06 -6.02864e-07 1.42035e-06)
(4.27358e-08 9.15205e-09 -3.96486e-08)
(-5.90124e-09 -3.40323e-09 8.27289e-09)
(3.79951e-08 -2.09837e-08 2.07826e-08)
(1.58041e-06 -5.25245e-07 1.10537e-07)
(1.20315e-06 -3.53236e-07 -1.8959e-07)
(1.1968e-06 -4.08391e-07 9.645e-08)
(2.60062e-07 -2.18124e-07 5.2499e-07)
(1.27391e-08 -1.98907e-08 4.69522e-08)
(1.53845e-07 -1.80283e-07 3.69022e-07)
(2.89871e-06 -1.15005e-06 2.90877e-06)
(5.53298e-06 -2.02574e-06 4.00206e-06)
(2.07986e-06 -8.33806e-07 1.76553e-06)
(2.87503e-06 -1.12791e-06 2.72658e-06)
(2.78543e-06 -1.06667e-06 2.05845e-06)
(5.51581e-06 -1.57837e-06 -5.80425e-07)
(6.21815e-06 -1.84669e-06 -1.37976e-09)
(5.51451e-06 -1.64764e-06 -3.74296e-09)
(2.06843e-06 -6.5183e-07 -1.57346e-08)
(2.54677e-06 -7.40186e-07 -4.12618e-07)
(2.54373e-06 -7.9189e-07 -1.42005e-08)
(5.51501e-06 -1.99848e-06 3.75762e-06)
(6.48636e-06 -2.23671e-06 3.08788e-06)
(5.43823e-06 -1.91199e-06 2.85007e-06)
(2.88183e-06 -1.18095e-06 2.97237e-06)
(5.50904e-06 -2.05217e-06 4.08341e-06)
(2.05411e-06 -8.67957e-07 1.8461e-06)
(2.84946e-06 -1.17159e-06 2.81996e-06)
(2.75677e-06 -1.09923e-06 2.14888e-06)
(5.43561e-06 -1.56904e-06 -3.89834e-07)
(6.1311e-06 -1.8482e-06 2.13047e-07)
(5.43135e-06 -1.64923e-06 2.01605e-07)
(2.00868e-06 -6.53857e-07 1.24473e-07)
(2.48508e-06 -7.29155e-07 -2.72093e-07)
(2.47997e-06 -7.93851e-07 1.38187e-07)
(5.4791e-06 -2.03582e-06 3.87721e-06)
(6.44452e-06 -2.26298e-06 3.21155e-06)
(5.39976e-06 -1.93978e-06 2.96642e-06)
(1.18861e-05 -3.97169e-06 5.20296e-06)
(1.32253e-05 -4.24408e-06 4.13052e-06)
(1.1831e-05 -3.83785e-06 3.96222e-06)
(6.95518e-06 -2.05398e-06 1.01256e-09)
(7.72472e-06 -2.18912e-06 -6.65455e-07)
(7.72428e-06 -2.26907e-06 3.41678e-09)
(8.06576e-06 -2.80538e-06 4.4499e-06)
(6.85238e-06 -2.34907e-06 3.16317e-06)
(7.99877e-06 -2.69816e-06 3.38318e-06)
(1.29392e-05 -3.70105e-06 1.73993e-08)
(1.20042e-05 -3.34972e-06 -7.83918e-07)
(1.20051e-05 -3.44742e-06 1.51678e-08)
(1.1857e-05 -4.02756e-06 5.63675e-06)
(8.04957e-06 -2.85997e-06 4.82811e-06)
(1.18309e-05 -3.99828e-06 5.35494e-06)
(1.31653e-05 -4.26244e-06 4.28385e-06)
(1.17743e-05 -3.85761e-06 4.11109e-06)
(6.86424e-06 -2.05541e-06 2.24042e-07)
(7.63362e-06 -2.18077e-06 -4.50514e-07)
(7.62945e-06 -2.27044e-06 2.34587e-07)
(8.02138e-06 -2.83793e-06 4.5857e-06)
(6.80935e-06 -2.3748e-06 3.28917e-06)
(7.95232e-06 -2.7224e-06 3.5157e-06)
(1.28212e-05 -3.70202e-06 2.88686e-07)
(1.18951e-05 -3.34299e-06 -5.36479e-07)
(1.18909e-05 -3.44846e-06 2.80719e-07)
(1.37015e-05 -4.38191e-06 4.18314e-06)
(1.36403e-05 -4.39977e-06 4.33787e-06)
(-7.30753e-13 -7.7931e-12 3.26426e-11)
(-1.78467e-13 -1.65835e-11 3.35776e-11)
(-4.37926e-12 -8.29e-11 4.0998e-11)
(-9.72286e-12 -4.04617e-11 4.38922e-11)
(-2.80014e-12 -4.05686e-11 3.99608e-11)
(-1.10717e-12 -9.26103e-12 3.80271e-11)
(-5.52189e-12 -1.97998e-11 4.30771e-11)
(-1.70136e-12 -1.96123e-11 3.89349e-11)
(-4.16871e-12 -1.66834e-10 4.18372e-11)
(-1.98598e-11 -3.19024e-10 3.44173e-11)
(4.30009e-12 -3.32424e-10 4.00917e-11)
(8.20056e-11 -5.62727e-10 5.02453e-11)
(2.3947e-10 -1.17346e-09 5.9032e-11)
(7.84924e-11 -6.15556e-10 4.41274e-11)
(5.81979e-11 -5.39291e-10 9.95912e-12)
(2.59053e-10 -1.1429e-09 -2.53084e-11)
(6.17559e-11 -6.40119e-10 2.77751e-11)
(1.25072e-06 -5.69597e-07 1.7925e-06)
(1.02923e-10 2.49798e-10 2.57235e-11)
(3.19771e-10 2.50342e-10 1.11668e-10)
(8.69376e-11 8.3242e-11 2.69967e-11)
(3.67569e-07 -2.23432e-07 6.61729e-07)
(6.43913e-09 3.14771e-09 6.44162e-10)
(4.94039e-10 3.78128e-10 1.79816e-10)
(1.86416e-09 1.12528e-09 7.01862e-10)
(1.14434e-05 -3.87251e-06 5.45286e-06)
(8.47485e-06 -2.9606e-06 4.83246e-06)
(-9.37228e-13 -8.76617e-15 3.55979e-11)
(-2.05337e-12 -6.08827e-14 4.48028e-11)
(8.11086e-12 2.71014e-12 1.20778e-11)
(8.63524e-12 1.37147e-13 3.62025e-13)
(9.57288e-12 1.09797e-12 3.37345e-13)
(8.71847e-12 -1.17843e-13 1.20923e-11)
(8.44719e-12 4.37352e-14 4.02036e-13)
(8.19053e-12 -3.02862e-14 4.53263e-13)
(-1.04692e-12 -3.52053e-12 3.19198e-11)
(-1.27338e-12 -1.4994e-12 3.13662e-11)
(-8.82354e-13 -1.93734e-13 3.58584e-11)
(-1.58902e-12 -7.57696e-13 4.05436e-11)
(-8.27092e-13 -6.91952e-13 3.62333e-11)
(-8.56001e-13 -4.24211e-12 3.72689e-11)
(-1.73981e-12 -1.93475e-12 4.09968e-11)
(-7.97033e-13 -1.84487e-12 3.66982e-11)
(-3.10729e-11 -3.39787e-11 4.63281e-11)
(-1.58543e-11 -3.25392e-11 4.68163e-11)
(-1.76445e-11 -1.74403e-11 4.71428e-11)
(2.66692e-12 3.43387e-12 3.11409e-11)
(-2.33986e-12 -1.72322e-12 4.29317e-11)
(-5.8184e-12 -2.04291e-12 4.31491e-11)
(-9.03687e-12 -1.62911e-11 4.62347e-11)
(-5.41692e-12 -4.95083e-12 4.64182e-11)
(-9.63255e-12 -9.52289e-12 4.68337e-11)
(-2.05867e-12 -2.32067e-13 4.49598e-11)
(-2.5413e-12 -7.0894e-13 4.40171e-11)
(-2.17363e-12 -5.47579e-13 4.5166e-11)
(5.87132e-12 -3.72627e-13 3.10911e-11)
(-6.85395e-13 -1.13701e-12 4.26349e-11)
(2.83792e-14 -6.66567e-13 4.2365e-11)
(-2.8423e-12 -1.68467e-12 4.44266e-11)
(-3.40696e-12 -2.48755e-12 4.59231e-11)
(-2.52333e-12 -1.19606e-12 4.54837e-11)
(1.73192e-06 -6.86455e-07 1.31404e-06)
(1.304e-06 -5.20296e-07 8.37031e-07)
(1.34588e-06 -5.57376e-07 1.14183e-06)
(1.22222e-06 -5.51021e-07 1.67349e-06)
(6.77736e-07 -3.50652e-07 9.11971e-07)
(1.12027e-06 -5.07606e-07 1.24742e-06)
(9.6176e-07 -4.06078e-07 7.04119e-07)
(7.08052e-07 -3.36007e-07 7.79485e-07)
(1.00438e-06 -4.40811e-07 9.63663e-07)
(-4.77681e-11 -5.84608e-11 4.40137e-11)
(-3.58834e-11 -2.59061e-10 2.79788e-11)
(-4.89805e-11 -1.35868e-10 2.53163e-11)
(1.49468e-10 6.76965e-10 5.52995e-11)
(4.08194e-10 8.76994e-11 -3.13191e-11)
(1.5813e-11 2.60294e-10 4.67105e-11)
(6.81127e-11 -3.88143e-10 -8.52108e-12)
(4.82579e-10 -5.63687e-10 -2.42695e-10)
(5.3911e-11 -1.61751e-10 -8.15906e-12)
(4.41509e-09 5.35785e-10 3.39217e-09)
(7.47409e-10 -3.15667e-09 -2.34009e-10)
(4.52252e-09 -2.8399e-09 -2.1795e-10)
(1.75732e-07 -4.4944e-08 -9.53302e-08)
(3.65623e-07 -1.28572e-07 -1.18119e-08)
(1.68799e-07 -6.26671e-08 -5.37926e-09)
(8.08741e-10 -3.65678e-09 1.46261e-08)
(4.92882e-08 -4.73575e-08 9.52867e-08)
(1.17209e-08 7.60664e-09 1.7018e-08)
(4.0223e-08 -2.81368e-08 4.94565e-08)
(9.03997e-09 4.47113e-10 4.32115e-09)
(3.71589e-07 -1.56667e-07 1.29299e-07)
(1.88466e-07 -1.09596e-07 1.82775e-07)
(1.74392e-07 -8.55301e-08 8.69549e-08)
(1.03572e-09 -1.83347e-09 -2.18154e-10)
(3.91118e-09 -1.06895e-09 -8.71425e-10)
(2.86775e-09 -2.32996e-09 -1.0191e-09)
(1.64383e-06 -5.66079e-07 3.03577e-07)
(1.27391e-06 -4.83658e-07 5.44666e-07)
(1.25555e-06 -4.45737e-07 2.60516e-07)
(9.10494e-07 -2.65018e-07 -2.4974e-07)
(6.10981e-07 -2.09334e-07 -1.61205e-08)
(9.05767e-07 -3.01533e-07 -1.74671e-08)
(9.31331e-07 -3.72147e-07 4.56509e-07)
(6.17703e-07 -2.41047e-07 1.72853e-07)
(9.1312e-07 -3.37372e-07 2.16796e-07)
(3.22128e-07 -2.1551e-07 5.98237e-07)
(5.51545e-07 -3.05366e-07 7.97121e-07)
(2.32041e-07 -1.8189e-07 4.36349e-07)
(8.03314e-09 -1.23637e-08 -8.31634e-11)
(2.20351e-09 1.72695e-09 4.95209e-10)
(4.49052e-09 -1.98654e-09 -4.79661e-10)
(1.78297e-08 -8.68101e-09 6.13381e-08)
(6.42378e-08 -6.93676e-08 1.43971e-07)
(1.6968e-08 1.53039e-08 3.02246e-08)
(8.30786e-08 -9.72911e-08 1.86975e-07)
(2.29309e-08 2.39434e-08 4.10575e-08)
(4.55116e-07 -2.44269e-07 5.85926e-07)
(2.11467e-07 -1.3523e-07 2.83879e-07)
(2.50835e-07 -1.6162e-07 3.9073e-07)
(2.31382e-09 1.04564e-09 -1.60226e-10)
(5.73972e-09 -3.7155e-10 -9.16073e-10)
(7.47865e-09 -6.50191e-10 -1.49539e-09)
(1.23899e-06 -6.04508e-07 1.83686e-06)
(3.74732e-07 -2.65925e-07 7.23436e-07)
(1.68495e-06 -7.40513e-07 1.45067e-06)
(1.25652e-06 -5.66665e-07 9.64115e-07)
(1.30237e-06 -6.13419e-07 1.26596e-06)
(1.20422e-06 -6.00446e-07 1.73877e-06)
(6.60643e-07 -3.90626e-07 9.66661e-07)
(1.09938e-06 -5.44765e-07 1.3108e-06)
(9.18605e-07 -4.54412e-07 8.18004e-07)
(6.73446e-07 -3.98334e-07 8.80018e-07)
(9.64716e-07 -4.99115e-07 1.07551e-06)
(1.6102e-07 -2.28982e-08 -6.31479e-08)
(3.35216e-07 -1.31733e-07 5.41062e-08)
(1.53612e-07 -6.47582e-08 4.10567e-08)
(-5.8273e-09 -1.58265e-08 2.68727e-08)
(4.90603e-08 -8.54597e-08 1.43714e-07)
(4.00678e-08 -5.29458e-08 8.22972e-08)
(3.40059e-07 -1.77076e-07 2.0544e-07)
(1.71224e-07 -1.53227e-07 2.51852e-07)
(1.57532e-07 -1.08697e-07 1.45742e-07)
(1.58755e-06 -5.82391e-07 4.39761e-07)
(1.22322e-06 -5.15795e-07 6.71913e-07)
(1.20371e-06 -4.62649e-07 3.82996e-07)
(8.66646e-07 -2.51973e-07 -1.59803e-07)
(5.71429e-07 -2.11189e-07 6.82596e-08)
(8.59816e-07 -3.03644e-07 8.23184e-08)
(8.85432e-07 -4.0567e-07 5.6973e-07)
(5.77219e-07 -2.59763e-07 2.65768e-07)
(8.66291e-07 -3.54974e-07 3.24884e-07)
(3.40926e-07 -2.70549e-07 6.80292e-07)
(5.37325e-07 -3.46063e-07 8.4977e-07)
(2.30413e-07 -2.2639e-07 4.86415e-07)
(1.74951e-08 -5.49062e-08 8.74205e-08)
(6.70008e-08 -1.17354e-07 2.07744e-07)
(9.27879e-08 -1.45153e-07 2.71802e-07)
(4.29231e-07 -3.09292e-07 6.79086e-07)
(1.96568e-07 -1.96599e-07 3.6085e-07)
(2.36018e-07 -2.35796e-07 4.75633e-07)
(3.15254e-06 -1.23661e-06 3.0387e-06)
(5.20298e-06 -1.91841e-06 3.88898e-06)
(2.16179e-06 -8.27749e-07 1.48079e-06)
(2.5964e-06 -9.3501e-07 1.21154e-06)
(2.63429e-06 -9.80929e-07 1.6422e-06)
(3.12949e-06 -1.21395e-06 2.84908e-06)
(3.86906e-06 -1.4168e-06 2.42588e-06)
(3.04131e-06 -1.15006e-06 2.1517e-06)
(3.11165e-06 -1.09621e-06 1.32863e-06)
(3.70215e-06 -1.32098e-06 1.94956e-06)
(3.14818e-06 -1.14551e-06 1.79843e-06)
(4.8472e-06 -1.39155e-06 -5.49593e-07)
(4.21273e-06 -1.27607e-06 -8.29466e-09)
(4.84559e-06 -1.45729e-06 -6.05699e-09)
(6.22563e-06 -1.91748e-06 6.09853e-07)
(5.53702e-06 -1.78004e-06 1.16279e-06)
(5.52208e-06 -1.71485e-06 5.75583e-07)
(4.22044e-06 -1.33617e-06 5.03534e-07)
(4.86866e-06 -1.58248e-06 1.09405e-06)
(4.85324e-06 -1.52092e-06 5.4014e-07)
(2.07632e-06 -6.98145e-07 3.45735e-07)
(2.56892e-06 -8.89195e-07 7.94823e-07)
(2.55161e-06 -8.41604e-07 3.86853e-07)
(3.06311e-06 -8.87702e-07 -4.49035e-07)
(3.61724e-06 -1.10446e-06 -1.04249e-08)
(3.06046e-06 -9.42915e-07 -1.24099e-08)
(3.08513e-06 -1.04703e-06 8.73293e-07)
(3.62502e-06 -1.16106e-06 4.65776e-07)
(3.06829e-06 -9.96053e-07 4.26877e-07)
(5.18437e-06 -1.89174e-06 3.65097e-06)
(4.16432e-06 -1.51091e-06 2.51304e-06)
(5.10626e-06 -1.80824e-06 2.76889e-06)
(6.29202e-06 -2.12139e-06 2.50423e-06)
(5.55986e-06 -1.84359e-06 1.75959e-06)
(5.59113e-06 -1.90754e-06 2.37296e-06)
(4.29486e-06 -1.50682e-06 2.09566e-06)
(4.8924e-06 -1.64234e-06 1.65738e-06)
(4.92496e-06 -1.70251e-06 2.23678e-06)
(3.13493e-06 -1.26701e-06 3.10449e-06)
(5.17986e-06 -1.94533e-06 3.96858e-06)
(2.11137e-06 -8.80069e-07 1.62974e-06)
(2.53754e-06 -9.76781e-07 1.37701e-06)
(2.58033e-06 -1.03155e-06 1.80311e-06)
(3.10284e-06 -1.25691e-06 2.94569e-06)
(3.83619e-06 -1.44723e-06 2.52854e-06)
(3.01158e-06 -1.18204e-06 2.24531e-06)
(3.04896e-06 -1.1366e-06 1.50605e-06)
(3.64075e-06 -1.3683e-06 2.13299e-06)
(3.09056e-06 -1.19447e-06 1.97085e-06)
(4.77065e-06 -1.38188e-06 -3.68026e-07)
(4.1373e-06 -1.27781e-06 1.77416e-07)
(4.7663e-06 -1.45895e-06 1.89723e-07)
(6.13695e-06 -1.92973e-06 8.36445e-07)
(5.45377e-06 -1.80427e-06 1.38544e-06)
(5.43749e-06 -1.72759e-06 7.92709e-07)
(4.14397e-06 -1.3499e-06 7.00182e-07)
(4.78956e-06 -1.60764e-06 1.3066e-06)
(4.77272e-06 -1.53415e-06 7.47288e-07)
(2.01589e-06 -7.1392e-07 4.95072e-07)
(2.50603e-06 -9.18129e-07 9.61626e-07)
(2.48714e-06 -8.56854e-07 5.48811e-07)
(2.99761e-06 -8.77024e-07 -2.97473e-07)
(3.54568e-06 -1.10628e-06 1.64703e-07)
(2.99278e-06 -9.44804e-07 1.51613e-07)
(3.01826e-06 -1.075e-06 1.05233e-06)
(3.55256e-06 -1.17529e-06 6.51392e-07)
(2.99983e-06 -1.01079e-06 6.0093e-07)
(5.14966e-06 -1.92978e-06 3.76796e-06)
(4.13031e-06 -1.54078e-06 2.6186e-06)
(5.06896e-06 -1.83658e-06 2.88263e-06)
(6.21469e-06 -2.16228e-06 2.72652e-06)
(5.48103e-06 -1.87861e-06 1.97964e-06)
(5.51786e-06 -1.95001e-06 2.58631e-06)
(4.22958e-06 -1.55251e-06 2.28958e-06)
(4.8177e-06 -1.67869e-06 1.86757e-06)
(4.85572e-06 -1.74659e-06 2.44067e-06)
(1.14348e-05 -3.83606e-06 5.12675e-06)
(1.00592e-05 -3.31556e-06 3.71887e-06)
(1.13786e-05 -3.70518e-06 3.9041e-06)
(1.29916e-05 -4.0947e-06 3.38168e-06)
(1.20388e-05 -3.73179e-06 2.44781e-06)
(1.206e-05 -3.82647e-06 3.28845e-06)
(1.02712e-05 -3.30652e-06 3.0881e-06)
(1.11304e-05 -3.47274e-06 2.37415e-06)
(1.11528e-05 -3.56362e-06 3.19061e-06)
(6.96257e-06 -2.12838e-06 6.42945e-07)
(7.74511e-06 -2.42335e-06 1.35463e-06)
(7.73158e-06 -2.34709e-06 6.74855e-07)
(8.52431e-06 -2.40803e-06 -6.9141e-07)
(9.35346e-06 -2.721e-06 8.20326e-09)
(8.52415e-06 -2.49155e-06 5.81828e-09)
(8.54441e-06 -2.65316e-06 1.4138e-06)
(9.36055e-06 -2.80628e-06 7.35116e-07)
(8.53135e-06 -2.5732e-06 7.05579e-07)
(8.46193e-06 -2.92843e-06 4.5411e-06)
(9.63296e-06 -3.18881e-06 3.65513e-06)
(8.39621e-06 -2.81817e-06 3.45265e-06)
(7.02632e-06 -2.34359e-06 2.63063e-06)
(7.76525e-06 -2.49817e-06 2.04443e-06)
(7.79269e-06 -2.57365e-06 2.75218e-06)
(9.41644e-06 -3.05555e-06 2.98088e-06)
(8.56366e-06 -2.73177e-06 2.13218e-06)
(8.58984e-06 -2.81112e-06 2.86892e-06)
(1.29459e-05 -3.80065e-06 8.41446e-07)
(1.2023e-05 -3.63818e-06 1.62696e-06)
(1.20118e-05 -3.54348e-06 8.16627e-07)
(1.10946e-05 -3.10512e-06 -7.62447e-07)
(1.02109e-05 -2.95705e-06 1.05623e-08)
(1.10952e-05 -3.19931e-06 1.28864e-08)
(1.11138e-05 -3.38284e-06 1.57717e-06)
(1.02179e-05 -3.04594e-06 7.63468e-07)
(1.11021e-05 -3.29179e-06 7.90637e-07)
(1.14071e-05 -3.89178e-06 5.55499e-06)
(8.44429e-06 -2.98316e-06 4.92613e-06)
(1.13808e-05 -3.86329e-06 5.27716e-06)
(1.0007e-05 -3.33727e-06 3.86106e-06)
(1.1323e-05 -3.72546e-06 4.05136e-06)
(1.28816e-05 -4.12334e-06 3.65914e-06)
(1.19264e-05 -3.7566e-06 2.72931e-06)
(1.19541e-05 -3.85659e-06 3.56045e-06)
(1.01733e-05 -3.33964e-06 3.34803e-06)
(1.10221e-05 -3.49878e-06 2.64951e-06)
(1.10509e-05 -3.59523e-06 3.45676e-06)
(6.86977e-06 -2.14014e-06 8.78503e-07)
(7.64919e-06 -2.44486e-06 1.6045e-06)
(7.63467e-06 -2.35838e-06 9.18894e-07)
(8.42959e-06 -2.40001e-06 -4.69207e-07)
(9.25083e-06 -2.72223e-06 2.54338e-07)
(8.42542e-06 -2.49285e-06 2.44684e-07)
(8.44423e-06 -2.67378e-06 1.67176e-06)
(9.25539e-06 -2.81662e-06 9.94728e-07)
(8.43031e-06 -2.58401e-06 9.5763e-07)
(8.41633e-06 -2.9603e-06 4.67894e-06)
(9.58191e-06 -3.21105e-06 3.79549e-06)
(8.34857e-06 -2.84187e-06 3.58725e-06)
(6.94489e-06 -2.38289e-06 2.86137e-06)
(7.67384e-06 -2.52928e-06 2.29099e-06)
(7.70716e-06 -2.61139e-06 2.9909e-06)
(9.32267e-06 -3.09019e-06 3.23417e-06)
(8.46803e-06 -2.76159e-06 2.38661e-06)
(8.50018e-06 -2.8473e-06 3.11515e-06)
(1.28245e-05 -3.80917e-06 1.12715e-06)
(1.1906e-05 -3.65532e-06 1.91284e-06)
(1.18944e-05 -3.55244e-06 1.0964e-06)
(1.09891e-05 -3.09808e-06 -5.20778e-07)
(1.01044e-05 -2.95821e-06 2.63556e-07)
(1.09848e-05 -3.20041e-06 2.72346e-07)
(1.10009e-05 -3.40084e-06 1.8567e-06)
(1.01086e-05 -3.05581e-06 1.03021e-06)
(1.09887e-05 -3.30121e-06 1.06409e-06)
(3.13307e-12 -8.54949e-14 2.05724e-11)
(-1.4846e-12 -1.51446e-13 4.68405e-11)
(8.56188e-12 -4.76536e-14 1.21896e-11)
(1.0879e-11 -1.1083e-13 7.99913e-12)
(-1.56396e-12 -1.81125e-13 4.70251e-11)
(3.17701e-12 -1.33494e-13 2.03642e-11)
(1.08747e-11 -2.7299e-14 8.04381e-12)
(1.78681e-06 -7.62844e-07 2.22709e-06)
(4.67924e-11 1.18422e-10 1.38349e-11)
(2.00225e-11 3.52002e-11 9.87489e-12)
(7.91629e-12 1.01182e-10 4.36556e-11)
(1.87608e-11 6.22883e-11 1.54448e-11)
(2.21808e-11 8.0538e-11 1.75225e-11)
(2.86575e-11 1.44503e-10 3.56302e-11)
(2.95409e-11 5.2951e-11 1.1475e-11)
(3.13861e-08 9.76214e-09 -6.31263e-09)
(1.09485e-07 -1.53017e-08 2.16424e-07)
(2.53414e-08 2.12323e-08 2.03103e-08)
(5.59227e-08 -1.60865e-09 3.42442e-08)
(5.45342e-08 2.33342e-08 5.23882e-08)
(9.07989e-08 -1.17306e-08 6.13064e-08)
(4.14267e-08 9.46387e-09 1.38932e-08)
(1.28138e-05 -4.28518e-06 5.68915e-06)
(7.31123e-06 -2.59513e-06 4.53643e-06)
(7.82694e-12 3.06942e-11 1.79485e-11)
(1.63454e-11 2.11673e-11 8.84626e-12)
(2.68251e-12 5.90226e-11 4.18723e-11)
(7.88354e-12 1.5794e-11 1.26918e-11)
(1.50068e-11 4.76705e-11 1.6557e-11)
(-2.59119e-12 3.82605e-11 4.44985e-11)
(1.34873e-11 1.35068e-11 8.29094e-12)
(3.28189e-12 -1.95808e-13 2.04895e-11)
(-1.4479e-12 -2.14318e-13 4.6804e-11)
(1.09155e-11 -4.41428e-14 7.98704e-12)
(8.64792e-12 -1.35322e-13 1.2147e-11)
(3.21932e-12 -1.34141e-13 2.03429e-11)
(-1.44435e-12 -1.98661e-13 4.69814e-11)
(1.09914e-11 -1.37552e-13 8.00013e-12)
(1.73987e-06 -6.90585e-07 1.83445e-06)
(1.96952e-06 -7.80042e-07 2.12542e-06)
(1.92713e-06 -7.97625e-07 2.02684e-06)
(1.76005e-06 -7.43087e-07 2.08369e-06)
(1.76725e-06 -7.09046e-07 1.99722e-06)
(1.72507e-06 -7.2774e-07 1.90442e-06)
(1.94279e-06 -7.6102e-07 1.95348e-06)
(1.77333e-06 -7.9626e-07 2.27895e-06)
(1.57249e-07 -6.80453e-08 2.82608e-07)
(1.67875e-06 -8.08906e-07 2.04477e-06)
(1.90446e-06 -8.39017e-07 2.10502e-06)
(1.9163e-06 -8.89799e-07 2.31855e-06)
(1.73946e-06 -7.90325e-07 2.15986e-06)
(1.70329e-06 -7.69769e-07 1.97913e-06)
(1.71626e-06 -8.20493e-07 2.18169e-06)
(1.87915e-06 -8.77532e-07 2.17364e-06)
(9.77427e-08 -1.24753e-07 2.33474e-07)
(1.04651e-07 -7.99908e-08 2.07157e-07)
(3.11682e-08 -1.96302e-08 6.13994e-08)
(6.1633e-08 -6.14361e-08 9.65421e-08)
(9.11964e-08 -7.33584e-08 1.84618e-07)
(1.21677e-07 -1.19232e-07 2.61954e-07)
(4.64543e-08 -6.25032e-08 8.02495e-08)
(2.42202e-06 -9.8581e-07 2.64251e-06)
(6.21913e-06 -2.24716e-06 4.22199e-06)
(2.38123e-06 -9.11392e-07 2.18581e-06)
(2.1827e-06 -8.54255e-07 2.25159e-06)
(2.14004e-06 -8.70707e-07 2.14714e-06)
(2.3971e-06 -9.64684e-07 2.47551e-06)
(2.15661e-06 -8.34656e-07 2.07049e-06)
(2.40666e-06 -9.31608e-07 2.37586e-06)
(2.36373e-06 -9.46901e-07 2.26574e-06)
(6.20704e-06 -2.15957e-06 3.52238e-06)
(6.20243e-06 -2.21868e-06 3.96509e-06)
(6.58132e-06 -2.30278e-06 3.91447e-06)
(6.53259e-06 -2.30056e-06 3.73135e-06)
(6.2239e-06 -2.18919e-06 3.8168e-06)
(6.17564e-06 -2.18827e-06 3.63837e-06)
(6.56512e-06 -2.27237e-06 3.61305e-06)
(2.40657e-06 -1.01772e-06 2.70157e-06)
(6.19354e-06 -2.27261e-06 4.30671e-06)
(2.31227e-06 -1.02427e-06 2.4252e-06)
(2.11642e-06 -9.11444e-07 2.22878e-06)
(2.12717e-06 -9.62315e-07 2.45325e-06)
(2.37361e-06 -1.00978e-06 2.56221e-06)
(2.09034e-06 -9.49335e-07 2.30035e-06)
(2.33916e-06 -9.87003e-07 2.35076e-06)
(2.34875e-06 -1.03797e-06 2.58588e-06)
(6.09781e-06 -2.24949e-06 3.86685e-06)
(6.16411e-06 -2.25464e-06 4.08966e-06)
(6.49256e-06 -2.3319e-06 3.85607e-06)
(6.48487e-06 -2.38594e-06 4.222e-06)
(6.13676e-06 -2.22021e-06 3.76074e-06)
(6.13036e-06 -2.27398e-06 4.11856e-06)
(6.4526e-06 -2.36058e-06 3.96416e-06)
(1.28372e-05 -4.17939e-06 4.76959e-06)
(1.2807e-05 -4.24694e-06 5.34989e-06)
(1.3314e-05 -4.36117e-06 5.22862e-06)
(1.32577e-05 -4.33866e-06 4.98028e-06)
(1.28437e-05 -4.22141e-06 5.1599e-06)
(1.27879e-05 -4.20013e-06 4.91499e-06)
(1.33081e-05 -4.3184e-06 4.83349e-06)
(7.30592e-06 -2.50412e-06 3.78916e-06)
(7.29643e-06 -2.56481e-06 4.26176e-06)
(6.947e-06 -2.41843e-06 4.01025e-06)
(6.89779e-06 -2.41493e-06 3.82242e-06)
(7.3208e-06 -2.53609e-06 4.10422e-06)
(6.93146e-06 -2.38724e-06 3.70192e-06)
(7.27112e-06 -2.53129e-06 3.91184e-06)
(1.27751e-05 -4.30308e-06 5.79434e-06)
(7.28316e-06 -2.61913e-06 4.62583e-06)
(1.26756e-05 -4.24259e-06 5.19883e-06)
(1.27495e-05 -4.27224e-06 5.50485e-06)
(1.31991e-05 -4.36055e-06 5.13419e-06)
(1.31715e-05 -4.41928e-06 5.60741e-06)
(1.27304e-05 -4.22257e-06 5.06749e-06)
(1.2704e-05 -4.28102e-06 5.53526e-06)
(1.31433e-05 -4.38001e-06 5.26669e-06)
(7.18679e-06 -2.58889e-06 4.15295e-06)
(7.25448e-06 -2.59871e-06 4.39327e-06)
(6.85657e-06 -2.44565e-06 3.94943e-06)
(6.84763e-06 -2.49998e-06 4.32339e-06)
(6.81563e-06 -2.47373e-06 4.05946e-06)
(7.22874e-06 -2.56141e-06 4.04107e-06)
(7.21851e-06 -2.61602e-06 4.42278e-06)
(1.37899e-05 -4.50214e-06 5.29559e-06)
(1.37332e-05 -4.47841e-06 5.04383e-06)
(1.37847e-05 -4.45863e-06 4.89572e-06)
(1.36734e-05 -4.49973e-06 5.19909e-06)
(1.36446e-05 -4.55875e-06 5.67768e-06)
(1.36168e-05 -4.51864e-06 5.33273e-06)
(9.49345e-07 -4.5775e-07 1.49199e-06)
(6.06056e-10 9.38237e-10 5.1418e-11)
(4.36216e-10 5.54299e-10 2.65447e-11)
(1.37042e-09 1.03748e-09 -1.55481e-10)
(5.6045e-10 5.22814e-10 8.68963e-11)
(1.23677e-09 1.00439e-09 -2.0631e-11)
(8.46358e-10 1.273e-09 1.46307e-10)
(3.25764e-10 4.06267e-10 4.75517e-11)
(5.7571e-07 -3.13074e-07 1.01823e-06)
(3.12334e-09 1.83964e-09 -5.14208e-11)
(1.27397e-09 1.12166e-09 3.37439e-10)
(1.65851e-09 2.45127e-09 1.00736e-09)
(7.42897e-10 7.29342e-10 1.39829e-10)
(1.29971e-09 1.78375e-09 3.12932e-10)
(3.23796e-09 7.27286e-10 3.09748e-10)
(1.21176e-09 9.84408e-10 2.11977e-10)
(1.05612e-05 -3.60425e-06 5.28554e-06)
(9.28814e-06 -3.21316e-06 5.0197e-06)
(3.45838e-12 1.5302e-12 1.96562e-11)
(8.46223e-12 6.01734e-13 1.20398e-11)
(-2.06937e-12 6.65962e-13 4.65669e-11)
(1.12683e-11 2.90408e-13 7.77041e-12)
(3.42041e-12 6.40731e-13 1.96324e-11)
(-2.30264e-12 1.92489e-12 4.6748e-11)
(1.13704e-11 6.08194e-13 7.7707e-12)
(3.4491e-12 -1.01992e-13 2.00877e-11)
(8.66872e-12 -1.05103e-13 1.20669e-11)
(-1.71962e-12 1.48551e-13 4.67436e-11)
(1.12409e-11 -1.45835e-14 7.81132e-12)
(3.4369e-12 1.18953e-13 1.98426e-11)
(-1.62224e-12 -2.56198e-13 4.68285e-11)
(1.12189e-11 -3.87868e-14 7.87043e-12)
(8.92672e-07 -3.87271e-07 1.21e-06)
(9.19668e-07 -4.39894e-07 1.38919e-06)