/*--------------------------------*- C++ -*----------------------------------*\
| =========                 |                                                 |
| \\      /  F ield         | OpenFOAM: The Open Source CFD Toolbox           |
|  \\    /   O peration     | Version:  2012                                  |
|   \\  /    A nd           | Website:  www.openfoam.com                      |
|    \\/     M anipulation  |                                                 |
\*---------------------------------------------------------------------------*/
FoamFile
{
    version     2.0;
    format      ascii;
    class       volSymmTensorField;
    location    "0.108/solid";
    object      epsilon;
}
// * * * * * * * * * * * * * * * * * * * * * * * * * * * * * * * * * * * * * //

dimensions      [0 0 0 0 0 0 0];


internalField   nonuniform List<symmTensor> 
3125
(
(-0.000249093 6.68466e-06 0.000723279 -2.04976e-05 0.00017549 -0.00198857)
(0.000144666 -0.000152227 2.01569e-05 6.87601e-05 6.54556e-05 -0.000449838)
(-7.12753e-05 1.58903e-05 0.000192308 9.67828e-06 8.69695e-05 -0.000595556)
(-2.1873e-06 -0.00117634 -0.00152838 -0.000122506 -0.0016091 -0.00227026)
(2.26997e-06 -0.000102819 7.65566e-05 -8.73818e-05 -0.000236072 0.00073435)
(0.000263931 -0.000316886 0.000188337 -7.41788e-05 -0.000497685 -8.74445e-06)
(-0.000331126 -1.26169e-05 0.0004871 -2.09525e-05 9.61963e-05 -0.00209089)
(-8.34651e-05 1.51057e-05 0.000201785 4.25475e-06 8.30342e-05 -0.000638484)
(-0.000219647 2.40906e-06 0.000665927 -1.03938e-05 0.000160044 -0.00185382)
(-0.000108286 1.67126e-05 0.000151793 1.50795e-05 5.32378e-05 -0.000723322)
(-0.000288008 -8.0066e-06 0.000415416 -1.73225e-05 8.39942e-05 -0.00182354)
(0.000127172 -8.84343e-05 3.3347e-05 0.000144152 0.000203785 -0.000588729)
(-9.01212e-05 3.12985e-05 0.000142422 3.06097e-05 6.47121e-05 -0.000641841)
(0.000697133 -0.000629304 0.000523997 -0.000518342 -0.00120636 0.00589283)
(0.00084731 0.0003117 0.00132931 -0.000670465 0.00251273 -0.000450816)
(0.00099368 -0.000542266 -0.000250527 -0.000213706 -0.00154573 -0.00357347)
(4.30561e-06 -0.000150174 -9.61679e-05 5.21352e-05 1.4702e-05 1.51917e-06)
(0.000957786 -0.00140555 -0.00211827 6.83912e-05 -0.00219414 -0.00441218)
(-1.47224e-06 -6.55963e-05 -0.000241241 -7.7582e-05 0.00015437 0.000175744)
(-0.000242008 -0.000365861 -0.00233743 0.00495572 0.00311493 -0.0131791)
(-0.00168154 0.000311919 -0.00270107 -0.000235498 0.00256104 0.00200369)
(0.000974555 -0.000702125 -0.00256668 0.000739329 -0.00161079 -0.006121)
(0.000183999 -0.000191117 3.71411e-05 5.29073e-05 1.12999e-05 -0.000465016)
(0.000279063 -0.000327187 0.000188887 -6.98864e-05 -0.000495063 -6.28714e-05)
(0.000147503 -7.12879e-05 4.84894e-05 0.000207642 0.000134151 -0.000702406)
(0.00128911 0.000254743 -0.000115165 0.000807138 -0.000169918 -0.00322019)
(0.00101613 0.000349392 0.00110577 -0.000209853 0.00198923 -0.00140513)
(0.000169812 2.03317e-05 0.000178812 0.000427269 -0.000515878 -0.000746432)
(-9.42404e-05 -0.000189951 -0.000107244 8.17148e-06 -3.56428e-05 0.000243523)
(-0.000616686 -0.000344971 -0.000217483 -0.000256091 -0.000511673 0.00175247)
(-8.02878e-05 -4.9307e-05 -0.000240933 -0.000198579 8.86896e-05 0.000506725)
(-0.00163407 0.000250751 -0.000543697 -0.00135795 -0.000147948 0.00411267)
(-0.00177881 0.00034989 -0.00239773 -0.000639318 0.0020319 0.00284923)
(-0.000507603 2.42533e-05 -0.000248189 -0.000792412 -0.000532552 0.0023913)
(-2.05914e-05 2.66683e-07 6.29799e-05 6.46262e-05 -0.000275526 0.000464544)
(0.00123922 0.000226357 -0.000212139 0.000772702 -0.000307151 -0.00305857)
(0.00015864 2.06628e-05 0.00017752 0.000409637 -0.000522754 -0.000677288)
(0.000726282 5.82588e-05 -0.000509509 0.000205197 -0.000593256 -0.001178)
(-0.000308943 -0.000145592 -8.27151e-05 -0.000153163 -0.000237795 0.00138086)
(-0.00060961 -0.00033626 -0.000215386 -0.000256589 -0.00051303 0.00176068)
(-0.000267449 -1.63408e-05 -7.1024e-05 -0.000350881 -0.000277874 0.00159009)
(-0.00153959 0.000222289 -0.000366479 -0.00127995 -0.000288318 0.00389956)
(-0.000503264 2.32063e-05 -0.000241807 -0.00077948 -0.000538314 0.00238219)
(-0.000771267 5.55261e-05 0.000377078 -0.000424275 -0.000591448 0.00175887)
(-1.26436e-05 -8.88251e-05 6.5078e-05 -8.44174e-05 -0.000208629 0.000768887)
(-2.91161e-05 -1.27709e-06 5.21461e-05 4.51602e-05 -0.000246803 0.000526886)
(-0.000285147 -0.000133894 -7.13015e-05 -0.000142047 -0.00020964 0.00133992)
(-0.000247189 -1.93711e-05 -5.7997e-05 -0.000318751 -0.000248724 0.00152211)
(-4.87754e-05 -6.53647e-07 -3.3475e-05 3.98343e-05 8.9044e-05 -0.000985199)
(-5.78715e-05 -7.68202e-06 -3.58923e-05 -3.45391e-06 6.71431e-05 -0.00130435)
(-5.24694e-05 7.37954e-06 -2.71406e-05 8.22559e-05 0.000125968 -0.000920317)
(-2.26337e-05 -0.000185339 -0.000137721 0.000417297 0.000404164 -0.00112651)
(-9.68546e-05 0.000146028 9.78433e-05 0.000622862 0.00065545 -0.000985909)
(-0.000196419 0.000268202 2.28975e-05 0.000293204 0.00017253 -0.000381094)
(1.20089e-05 9.68793e-05 0.000268486 3.79462e-05 0.000208703 -0.000322734)
(-0.000300035 0.00034408 2.16251e-05 0.000361395 6.04232e-05 -0.000350977)
(3.87743e-05 0.000123561 0.000308098 1.98471e-05 0.000218606 -0.000274308)
(0.000119519 -0.000206937 0.000146375 -9.35974e-05 -0.000410493 0.000426284)
(0.00013837 -0.000222531 0.000154508 -9.28534e-05 -0.000429774 0.000374341)
(-0.000106425 -2.08777e-05 -1.8472e-05 -1.31418e-05 0.000102273 -0.00218815)
(-0.000134229 -2.52792e-05 6.29545e-05 -1.72088e-05 0.000113376 -0.00221945)
(-0.000128998 5.00277e-06 0.000342569 -3.83703e-06 9.25187e-05 -0.00105051)
(-0.000146205 8.39169e-06 0.000370512 -9.58663e-06 9.94678e-05 -0.00112374)
(-9.3334e-05 -1.7011e-05 -2.49975e-05 -1.27256e-05 9.36057e-05 -0.00197524)
(-6.45788e-05 -9.32853e-06 -3.47166e-05 -7.6144e-06 7.13301e-05 -0.00144532)
(-5.50158e-05 4.56734e-06 2.62994e-06 3.60132e-05 8.87583e-05 -0.00094933)
(-0.000166787 1.68344e-06 0.000224948 -5.8642e-06 5.17716e-05 -0.00106596)
(-7.08166e-05 -7.92091e-06 8.97328e-06 -4.92958e-06 7.10757e-05 -0.00128152)
(-0.000117086 -2.01794e-05 4.66779e-05 -1.60509e-05 0.000102703 -0.00198982)
(-0.000191049 -4.19832e-07 0.00026134 -9.12713e-06 5.72007e-05 -0.00121709)
(-7.96692e-05 -1.02681e-05 1.53289e-05 -9.38827e-06 7.61891e-05 -0.00142871)
(0.000303284 -0.000223227 0.00063709 -0.000315283 0.0016446 -0.000380346)
(-1.62695e-05 -0.000318029 -1.17779e-05 -0.000498616 0.000415757 0.000500732)
(-0.000370646 -0.00063983 0.000698713 -0.00211977 0.00295684 0.00341998)
(-5.47423e-05 1.74431e-05 9.64555e-06 7.33245e-05 0.00012106 -0.000879787)
(2.09934e-05 0.00018884 0.000220589 0.000144 0.000202729 -0.000474952)
(-8.13607e-05 0.000195703 0.000151707 0.000522803 0.000564438 -0.000897453)
(-9.34181e-05 -0.000352428 -8.01822e-05 0.000502635 0.000651329 -0.00171397)
(-0.000102623 -0.000263784 0.00188616 -0.00460525 0.00457791 0.00640051)
(7.50008e-05 -0.0007026 -7.28543e-05 0.000441136 -8.80678e-05 0.00144129)
(-0.000396194 -0.000844912 0.00090069 -0.00363681 0.00378819 0.00549243)
(-0.000100413 0.000259487 0.000247073 0.000848747 0.00103098 -0.00118246)
(0.000421158 -0.000146356 0.000889378 -0.000433986 0.00195766 -0.00034161)
(0.000199248 -4.16572e-05 0.00180289 -0.00293429 0.0044892 0.0041808)
(-0.000277923 -0.000576274 0.00103287 -0.00243744 0.0035358 0.00384132)
(-9.94171e-06 -0.000377186 3.67062e-05 -0.000595631 0.000336569 0.00075772)
(0.000106613 0.000376739 0.000350994 0.000128608 0.000265357 -0.000434958)
(0.000102666 -0.00064437 -0.00016571 0.000349596 -0.000351532 0.00103191)
(-0.000503032 -0.000928655 0.000596397 -0.00316733 0.0031237 0.00486585)
(-0.000101441 0.000358032 0.000306402 0.000699088 0.000865287 -0.0010572)
(0.0010799 0.000249992 -0.000164392 0.00052088 6.18878e-05 -0.00258206)
(0.00128083 0.00033061 -0.00024959 0.00060415 -5.18724e-05 -0.00308799)
(-0.000575319 -0.000207289 -0.00184281 -0.000122315 0.00161161 0.000757472)
(0.000822463 -0.000301003 -0.000450541 0.00119728 0.000331123 -0.00328487)
(4.27929e-05 -0.000641914 -0.00239199 0.00180369 0.0029704 -0.00332885)
(-0.0010837 -0.000228459 -0.00311311 0.00236959 0.00595889 -0.0039084)
(0.00015301 -0.000578393 -0.0022823 0.00416923 0.00224103 -0.0116449)
(-0.000144739 -0.00087921 -0.00280266 0.00268579 0.00431899 -0.00486172)
(-0.000863051 -0.000136633 -0.0022163 -0.000137487 0.0019491 0.00105243)
(-0.00117461 -2.48511e-05 -0.00322457 0.00170804 0.00472782 -0.00204674)
(-0.000312714 -0.000579488 -0.00276055 0.00186558 0.00359949 -0.0030551)
(0.000983871 -0.000377647 -0.000552384 0.00144589 0.000235502 -0.00394079)
(0.000236268 -0.00065375 -0.00233459 0.00387457 0.00171141 -0.0109873)
(0.000159412 -0.000934421 -0.00250227 0.00258699 0.00354021 -0.00503999)
(0.000325205 -0.000341386 0.000143535 -2.11028e-05 -0.00033057 -0.000407601)
(0.000329168 -0.000347987 0.000154227 -2.86479e-05 -0.000365914 -0.00037708)
(0.000505141 -0.00016538 0.000582398 8.45753e-05 0.00127896 -0.00122912)
(0.000215965 -8.87406e-07 0.000143311 0.000456154 -0.000295052 -0.00105273)
(0.000897586 -8.70741e-05 0.000399158 0.000788562 0.000394563 -0.00271179)
(0.00133695 0.000333188 0.000292945 0.000713776 0.000466571 -0.00324115)
(0.00109435 2.82752e-07 0.000116953 0.000954943 -0.000227619 -0.00304633)
(0.00108431 2.90223e-07 0.000364637 0.000884015 0.000290674 -0.00307349)
(0.000627201 -8.46651e-05 0.000785867 1.68093e-06 0.00153808 -0.00125713)
(0.00130563 0.000352279 0.00047069 0.000589228 0.000766843 -0.00302867)
(0.00102447 -7.21217e-06 0.000462696 0.00076652 0.000538065 -0.00285932)
(0.000216344 4.50318e-06 0.000152406 0.00046718 -0.000339936 -0.00104691)
(0.000973901 -6.16564e-05 0.000176401 0.0009482 -0.000277969 -0.00284389)
(0.000957935 -7.64941e-05 0.000339707 0.000895015 0.000175357 -0.00290414)
(-0.000522948 -0.000347316 -0.000189118 -0.000190263 -0.000359267 0.00135247)
(-0.00055268 -0.000355399 -0.000197438 -0.000206048 -0.000392781 0.00144282)
(-0.000772907 -0.000151134 -0.00165459 -0.000547146 0.00124678 0.00175094)
(-0.000424584 1.35105e-05 -0.000262131 -0.000709624 -0.000323253 0.00197997)
(-0.00116766 -7.45724e-05 -0.00115699 -0.00130671 0.000373709 0.00358829)
(-0.00183574 0.000330211 -0.00121366 -0.00139466 0.000498826 0.00432105)
(-0.00136235 5.66782e-06 -0.000655588 -0.00147284 -0.000232363 0.00413796)
(-0.00140417 6.27183e-06 -0.00114365 -0.00145367 0.00028551 0.00405801)
(-0.0010334 -7.65351e-05 -0.00198553 -0.000573213 0.0015273 0.00202741)
(-0.00186408 0.000350021 -0.00148436 -0.00131306 0.000802869 0.00418498)
(-0.00136182 -7.80242e-07 -0.00133472 -0.0013452 0.000532844 0.0037955)
(-0.00044982 1.76571e-05 -0.000263817 -0.000743187 -0.000366424 0.00209063)
(-0.00122865 -5.09427e-05 -0.000637137 -0.00144472 -0.00029206 0.00402403)
(-0.00122753 -6.42973e-05 -0.0010131 -0.001416 0.000156375 0.00387477)
(5.61838e-05 1.24541e-05 0.000132559 0.000225133 -0.000452063 -4.70751e-05)
(0.000468365 -5.81432e-05 -0.000144513 0.000278084 -0.000461032 -0.00074001)
(0.000688628 -5.76961e-05 -4.22166e-05 0.000568833 -0.000511171 -0.00161769)
(0.00105548 -3.55825e-06 4.98472e-05 0.000911844 -0.000335408 -0.00287719)
(0.00103535 0.00014529 -0.000408081 0.000563945 -0.000547344 -0.00232769)
(0.000867055 -1.83537e-05 -0.000111097 0.000674371 -0.00050835 -0.00211219)
(6.90154e-05 1.4008e-05 0.000140744 0.000250005 -0.000470587 -0.000127839)
(0.000937975 -5.97938e-05 0.000127431 0.0009029 -0.000369117 -0.00267145)
(0.000760456 -5.77214e-05 -3.61386e-06 0.000665483 -0.000503281 -0.00191152)
(0.00055802 -3.79867e-05 -0.000251725 0.000279277 -0.000498865 -0.000913271)
(0.000958161 0.000120767 -0.000447256 0.00047565 -0.000582101 -0.00204168)
(0.000791131 -2.36639e-05 -0.000153023 0.000576522 -0.000526104 -0.00181313)
(-0.000476132 -0.000239072 -0.000161504 -0.000219975 -0.000417605 0.00163631)
(-0.000498093 -0.000253266 -0.000170746 -0.000227301 -0.000437871 0.00166547)
(-0.000401646 4.39228e-06 -0.000163257 -0.000580163 -0.000459721 0.00205096)
(-0.000592408 -5.05162e-05 6.41279e-05 -0.000566744 -0.000465909 0.00206586)
(-0.000873547 -4.90585e-05 -0.000155006 -0.000950604 -0.000519037 0.00294515)
(-0.00130494 1.72196e-06 -0.000518955 -0.00140578 -0.000340024 0.00399174)
(-0.00121574 0.000141698 4.58277e-05 -0.000942629 -0.00053685 0.00303811)
(-0.00105543 -1.33279e-05 -0.000175908 -0.0010833 -0.000512542 0.00326058)
(-0.000418606 7.12385e-06 -0.000175389 -0.000611176 -0.000479043 0.00210981)
(-0.00118297 -4.95447e-05 -0.000527645 -0.00138232 -0.0003818 0.00389934)
(-0.000963154 -4.88909e-05 -0.000239188 -0.00107518 -0.000512255 0.00322637)
(-0.000654681 -3.31364e-05 0.000153561 -0.000556945 -0.000502389 0.00204035)
(-0.00110228 0.000117316 0.000149132 -0.000812956 -0.000574035 0.00271537)
(-0.000957421 -1.88811e-05 -8.10511e-05 -0.000953858 -0.000530168 0.00296241)
(-3.54432e-05 -1.17504e-05 -9.73568e-05 3.21719e-05 7.4929e-05 -0.00102384)
(-3.49337e-05 -7.95045e-06 -9.94489e-05 1.32715e-05 5.97368e-05 -0.00110534)
(-4.07661e-05 -1.91515e-05 -9.76051e-05 6.81174e-05 0.000108733 -0.000963969)
(-2.42812e-05 -6.16167e-05 -0.000132227 0.000110467 0.000110605 -0.000942952)
(-5.59377e-05 -3.14548e-05 -9.89812e-05 0.000144148 0.00018446 -0.000935097)
(-0.00105517 -2.58455e-05 0.00117511 -3.26601e-06 3.92323e-05 -0.000928435)
(4.19109e-06 -5.07753e-06 -1.82939e-05 0.000133339 0.000203966 -0.000386938)
(-0.000252468 -2.89203e-07 0.000302926 3.63183e-06 3.13556e-05 -0.000250316)
(-5.32146e-05 3.61888e-05 0.000184646 2.18731e-05 0.000119995 -0.00047452)
(-0.000188678 7.96515e-06 0.000254035 7.82517e-06 4.99527e-05 -0.000176177)
(-0.000329368 0.000311692 0.000657351 0.00129706 -0.00161658 -0.00127136)
(0.000232942 -0.000167574 0.00014283 -0.00016752 -0.000233205 -0.000122615)
(4.4289e-06 -9.70755e-05 1.09607e-05 -8.33149e-05 -0.000250793 -6.17584e-05)
(4.85792e-05 -0.000146041 0.000108156 -9.27597e-05 -0.000316612 0.000615502)
(0.000213186 -0.000280353 0.000179673 -8.47365e-05 -0.00048516 0.000156921)
(-6.87768e-05 -1.1113e-05 -0.000140567 -6.59985e-06 7.76938e-05 -0.00208771)
(-0.000212249 -2.98681e-05 0.000295377 -2.32008e-05 0.000125119 -0.00221786)
(-0.000276336 -3.37042e-06 0.000324601 2.90892e-06 2.81648e-05 -0.000272772)
(-9.81525e-05 7.11884e-06 0.000248961 4.99091e-07 7.93803e-05 -0.000792706)
(-0.000362627 -6.67711e-06 0.000410331 5.72263e-07 2.2465e-05 -0.000348809)
(-0.000977922 -2.3723e-05 0.0010843 -2.98753e-06 3.65445e-05 -0.000861831)
(-0.000190772 8.06691e-06 0.000515793 -1.41542e-05 0.000130243 -0.00149126)
(-0.000759417 -1.76417e-05 0.000846361 -2.23288e-06 3.00853e-05 -0.000686405)
(-6.12743e-05 -9.34522e-06 -0.000134292 -6.88933e-06 7.23542e-05 -0.0019069)
(-5.4729e-05 -7.84903e-06 -0.00012765 -6.69518e-06 6.69924e-05 -0.00173859)
(-6.96433e-05 8.68649e-06 8.72318e-05 2.11278e-05 7.74933e-05 -0.000836355)
(-0.000126231 8.80008e-06 0.000169851 4.98384e-06 4.8691e-05 -0.000820714)
(-7.98271e-05 6.64981e-07 9.52571e-05 7.14921e-06 6.88762e-05 -0.000935796)
(-0.00018325 -2.3056e-05 0.000248556 -2.00729e-05 0.00011081 -0.00195571)
(-0.000250979 -4.80777e-06 0.000355257 -1.45637e-05 7.32399e-05 -0.0015921)
(-0.000158732 -1.78832e-05 0.000209704 -1.72764e-05 9.76598e-05 -0.00172501)
(0.000107717 -0.000225408 -8.35072e-05 -8.97072e-05 0.00115796 -0.000388405)
(5.6999e-05 -0.000156748 -7.03368e-06 -9.04641e-05 0.00039057 -0.000161355)
(3.19377e-05 -0.00037736 -0.000152879 -0.000245023 0.00167927 0.000136816)
(-6.0073e-05 2.32815e-05 8.80914e-05 4.33561e-05 9.76358e-05 -0.000755529)
(-6.82924e-05 5.73513e-05 0.00014537 5.54233e-05 8.81329e-05 -0.000575243)
(-4.94794e-05 5.06341e-05 0.000103575 8.18907e-05 0.000139117 -0.000694397)
(0.00280048 -0.00213418 -0.00154789 -0.00164955 0.00723202 -0.0243857)
(-7.2756e-05 -0.00162511 0.00226465 0.00091151 -0.00611798 0.00404854)
(-0.000141593 0.000138576 0.00036512 -0.000157661 -3.12757e-05 0.00280655)
(-8.95776e-05 -0.00104173 0.00120175 -0.000466617 -0.000814807 0.00424788)
(0.000296795 0.00117822 0.0024433 -0.00141215 0.00489076 0.000970077)
(0.000720062 8.95893e-05 0.00128042 -0.000614366 0.00236457 -0.000373126)
(0.000647973 0.000240675 0.00153388 -0.00125101 0.00311536 0.000773915)
(0.000502523 1.55025e-05 0.00146054 -0.00120089 0.0029344 0.000844779)
(0.000318857 -0.00110981 0.000591712 -0.000178164 -0.00156102 -1.41698e-05)
(0.00115166 0.000369104 0.00086788 -0.00100909 -0.000230516 -0.00253371)
(7.96939e-05 -0.000648135 -0.000407301 0.000414025 -0.00102338 -0.00140328)
(-0.000155912 -0.00165323 -0.000244154 0.00274793 0.00242894 0.000134901)
(-3.23477e-05 0.000356156 0.00117691 -0.00107039 0.000868417 -0.000268666)
(0.000374867 -2.94876e-06 -7.80811e-05 0.000216246 0.00013599 -0.000891837)
(0.00189851 0.00021075 -0.00134848 0.00134553 -0.00181899 -0.0057563)
(-0.00012258 -0.000207504 -0.000647334 -7.58768e-05 0.00112434 0.000264627)
(0.000287591 -0.000131306 -0.000266651 0.000374119 0.000325578 -0.00104515)
(7.04271e-05 -0.000361642 -0.000765733 0.000224222 0.00164011 -0.000781539)
(-0.000925087 -0.000739477 -0.00275989 0.00793041 0.00295615 -0.0105473)
(5.83281e-05 -0.000414648 -0.00229741 0.00434124 0.00289411 -0.0127311)
(-0.000165918 -0.00111267 -0.00287032 0.00692638 0.00256106 -0.0105146)
(-0.00144623 9.33044e-05 -0.00267191 -0.000194279 0.00239689 0.0016771)
(-0.00154367 0.000243292 -0.00296935 0.000285606 0.00315454 0.000923728)
(-0.00130145 2.19403e-05 -0.00292868 0.000344326 0.00295925 0.000573146)
(0.00133742 -0.00109999 -0.00153894 0.00299829 -0.00155308 -0.00684698)
(0.000180055 -0.000710774 -0.00252033 0.00109229 -6.14783e-05 -0.00679036)
(0.000678363 -0.00186064 -0.00120899 0.00259096 0.00139233 -0.00579831)
(0.000270931 -0.000279985 8.75408e-05 1.53664e-05 -0.000150652 -0.000475695)
(0.00031414 -0.000348295 0.000182558 -5.45272e-05 -0.000464249 -0.000214702)
(0.000206276 -0.000212034 -7.18579e-05 -9.17158e-05 0.00106286 -0.000480823)
(0.000192082 -3.24786e-05 9.43753e-05 0.000354395 -6.95482e-05 -0.000943569)
(0.000250981 -0.000122258 9.28192e-06 1.11773e-05 0.000527205 -0.000803315)
(0.00132458 0.000282697 5.32219e-07 0.00081385 2.15928e-06 -0.00331649)
(0.00125532 0.000122897 -3.58836e-05 0.000876053 -0.000176016 -0.00318135)
(0.00128627 0.000138006 7.42121e-05 0.000885021 -1.36072e-05 -0.00327619)
(0.000905829 0.000134503 0.00108246 -0.000149091 0.00186942 -0.00132725)
(0.00114808 0.000364852 0.000882204 0.000139256 0.00152325 -0.0021373)
(0.00105456 0.000159137 0.000882647 0.000204202 0.00142813 -0.00206492)
(0.000198277 1.72203e-05 0.000175338 0.000465289 -0.000468995 -0.000921432)
(0.000332621 -2.1804e-05 0.000122049 7.86291e-05 -0.00052558 -0.000777149)
(0.000382166 -5.53688e-05 6.82314e-05 6.97153e-05 -0.000238904 -0.000875541)
(-0.00033052 -0.000281214 -0.00014511 -9.82119e-05 -0.000188174 0.000833374)
(-0.000616299 -0.000361454 -0.000217038 -0.000246124 -0.000484839 0.00167996)
(-0.000242593 -0.000197443 -0.000614603 -0.00011407 0.00103412 0.000519533)
(-0.000268172 -1.34615e-05 -0.000248999 -0.000483822 -0.000106149 0.0013051)
(-0.000380086 -0.000108035 -0.000567224 -0.000316494 0.000503897 0.00124371)
(-0.00171715 0.000278837 -0.000743303 -0.00140828 2.73937e-05 0.00426541)
(-0.00156986 0.000121075 -0.000602713 -0.00142042 -0.000161595 0.00413318)
(-0.0016391 0.000136307 -0.000796406 -0.00146578 3.21242e-06 0.00425667)
(-0.00156345 0.000137074 -0.00238175 -0.000617796 0.00189761 0.00256541)
(-0.00183959 0.00036438 -0.00208365 -0.000948037 0.00156651 0.0034737)
(-0.00164936 0.00016039 -0.00208192 -0.000945452 0.00145825 0.00324059)
(-0.000504582 2.51885e-05 -0.000261054 -0.000805459 -0.000489531 0.00235022)
(-0.000612189 -1.43487e-05 -0.000375799 -0.000511772 -0.000534833 0.00218764)
(-0.000639799 -4.64181e-05 -0.000385599 -0.00049886 -0.000251932 0.00212779)
(8.91452e-06 5.41317e-06 9.44422e-05 0.000129212 -0.00035809 0.000259639)
(0.000105347 -3.09097e-05 3.02781e-05 -3.85359e-05 -0.000479324 0.000298414)
(0.000152195 -3.71356e-05 3.40692e-05 -2.06697e-05 -0.000493651 0.000119925)
(0.00120823 0.000106966 -0.000129845 0.000838492 -0.000304897 -0.0030193)
(0.00117835 0.00019839 -0.000292146 0.000717034 -0.000413333 -0.00284714)
(0.00114866 9.10368e-05 -0.000208784 0.000778911 -0.000403875 -0.00280588)
(0.000121321 1.90492e-05 0.000167024 0.000346653 -0.00051962 -0.0004508)
(0.00034658 -4.2319e-05 7.81569e-05 6.01653e-05 -0.000431444 -0.000688213)
(0.000286091 -1.74717e-05 0.000115684 5.39083e-05 -0.000622068 -0.000529486)
(0.000687517 9.65922e-06 -0.000448756 0.000238324 -0.000557539 -0.00110888)
(0.000802111 7.7162e-05 -0.000496777 0.000293643 -0.000602453 -0.00146031)
(0.000765794 2.05504e-05 -0.00043003 0.000331328 -0.00056944 -0.00139625)
(-0.000382138 -0.000184437 -0.000118389 -0.000184432 -0.000320457 0.00149848)
(-0.000573332 -0.000304493 -0.000201645 -0.000250043 -0.000497241 0.00174817)
(-0.00032691 -7.6993e-06 -0.000111681 -0.000449917 -0.00036261 0.0017936)
(-0.000307347 -2.93554e-05 -6.25112e-05 -0.000247382 -0.000479587 0.00141622)
(-0.000377279 -3.42166e-05 -0.000102336 -0.000308251 -0.000496871 0.00159888)
(-0.0014864 0.000105188 -0.000429475 -0.00134547 -0.000292757 0.003944)
(-0.00143664 0.000194374 -0.000210238 -0.00118093 -0.000397426 0.00364089)
(-0.00139202 8.93249e-05 -0.000275695 -0.00124788 -0.000393855 0.00370449)
(-0.000476468 1.75592e-05 -0.000217799 -0.000720951 -0.000531885 0.00230316)
(-0.000621708 -3.50459e-05 -0.00031827 -0.000491805 -0.000441424 0.00214964)
(-0.000567306 -1.19184e-05 -0.000301335 -0.000472397 -0.000628428 0.00209653)
(-0.000743929 9.55266e-06 0.000323723 -0.000479452 -0.000557481 0.00186508)
(-0.000878124 7.44505e-05 0.00031367 -0.000551086 -0.000598793 0.00206904)
(-0.000851087 1.99454e-05 0.000255802 -0.000609423 -0.000568083 0.00217453)
(8.98688e-05 -3.71416e-05 5.74987e-06 -4.3661e-05 -0.000414055 0.000364135)
(-0.00027391 -3.52031e-05 -3.30391e-05 -0.000228638 -0.000415653 0.00135048)
(-3.99995e-05 -5.70989e-06 -0.000108492 -1.63158e-06 5.46802e-05 -0.00131617)
(-3.67948e-05 -6.21448e-06 -0.000103342 3.56532e-06 5.46649e-05 -0.00120339)
(-4.26477e-05 -6.86644e-06 -6.65604e-05 3.84919e-05 8.49122e-05 -0.00100913)
(-4.93308e-05 -4.23096e-06 -3.57997e-05 1.62847e-05 7.20396e-05 -0.00107342)
(-4.21304e-05 -6.66758e-06 -6.92613e-05 1.58067e-05 6.75038e-05 -0.00109391)
(-4.86129e-05 -7.05812e-06 -7.46634e-05 -2.34052e-06 6.17352e-05 -0.00131506)
(-5.26508e-05 -6.15406e-06 -3.632e-05 3.66357e-06 6.65489e-05 -0.00118028)
(-4.44915e-05 -6.62952e-06 -7.18723e-05 4.05394e-06 6.16679e-05 -0.00119645)
(-4.82217e-05 -6.06413e-06 -6.26241e-05 8.108e-05 0.000123196 -0.000947277)
(-6.20807e-05 2.63655e-05 -1.15001e-05 0.00016642 0.000204696 -0.000886627)
(-6.18083e-05 7.17666e-07 -5.318e-05 0.000169527 0.000207278 -0.000917337)
(-2.58946e-05 -0.000116715 -0.000146427 0.000204811 0.000189012 -0.000976335)
(-0.000140295 -3.80449e-05 -4.61406e-05 0.000646831 0.000694634 -0.00109356)
(-9.08284e-05 -4.97637e-05 -9.54025e-05 0.000278278 0.000321411 -0.000970128)
(-7.89352e-05 6.58508e-05 2.3232e-05 0.00029882 0.000336609 -0.000909934)
(-0.000103083 0.000102789 4.63335e-05 0.000690052 0.000730444 -0.00104873)
(-8.51566e-05 2.38106e-05 -2.85149e-05 0.000317785 0.000355124 -0.000949926)
(-5.38473e-05 5.37504e-05 -2.81794e-05 0.000163494 0.000230252 -0.00035937)
(-3.7455e-05 4.54759e-05 0.000193278 2.73133e-05 0.000135859 -0.000439146)
(-0.000115676 1.98987e-05 0.000243225 -2.25215e-06 7.62584e-05 -5.69552e-05)
(-0.000170384 1.15874e-05 0.000245634 8.3893e-06 5.85337e-05 -0.000149623)
(6.47071e-05 0.000437669 0.000514627 0.000654414 -0.00122127 -0.00122671)
(0.000358208 -1.01958e-05 0.000422688 -0.000209389 -2.77333e-05 -0.000169273)
(-9.69546e-05 1.95627e-05 0.000247539 -1.36993e-05 7.04804e-05 -2.15853e-05)
(-2.00152e-05 -5.84572e-05 0.00015822 -0.000113199 -0.000129497 2.55756e-05)
(6.5358e-05 -0.0001614 0.000118283 -9.38831e-05 -0.000341976 0.00057102)
(0.000194663 -0.000266452 0.000174455 -8.73849e-05 -0.000475053 0.000212478)
(-8.71514e-05 -1.61371e-05 -8.55048e-05 -9.5099e-06 9.04023e-05 -0.00214312)
(-0.000168787 -2.79072e-05 0.000165514 -2.09891e-05 0.000122344 -0.00223277)
(-0.000111818 9.27995e-06 0.000268384 -4.36305e-06 8.22407e-05 -0.00084868)
(-0.000507311 -1.09189e-05 0.000566417 -1.07974e-06 2.30472e-05 -0.000473774)
(-0.000393326 -7.79392e-06 0.00044418 5.09988e-08 2.20045e-05 -0.000376904)
(-0.000168326 3.95832e-06 0.000475964 -6.84092e-06 0.0001197 -0.00139253)
(-0.000547218 -1.19719e-05 0.000612376 -1.32776e-06 2.40343e-05 -0.000509402)
(-0.000703711 -1.6334e-05 0.000782007 -2.04631e-06 2.82547e-05 -0.000638039)
(-4.41229e-05 -5.95004e-06 -0.000114459 -4.45009e-06 5.75297e-05 -0.00144293)
(-4.90365e-05 -6.70272e-06 -0.000120943 -5.96938e-06 6.18711e-05 -0.00158383)
(-7.69098e-05 -1.34004e-05 -8.46877e-05 -9.56472e-06 8.35102e-05 -0.00194643)
(-8.2182e-05 -1.3852e-05 -2.95929e-05 -1.17746e-05 8.51918e-05 -0.00178036)
(-6.80832e-05 -1.1117e-05 -8.28607e-05 -9.07201e-06 7.67077e-05 -0.00176482)
(-5.39959e-05 -7.95728e-06 -7.75558e-05 -5.9104e-06 6.51508e-05 -0.00144914)
(-7.26625e-05 -1.13394e-05 -3.2701e-05 -1.01607e-05 7.76203e-05 -0.00160389)
(-6.04835e-05 -9.31265e-06 -8.03726e-05 -7.94683e-06 7.04083e-05 -0.00159907)
(-6.24089e-05 8.01104e-06 4.31519e-05 2.89524e-05 8.50095e-05 -0.000900405)
(-5.82015e-05 -1.84007e-06 1.81453e-06 1.43637e-05 7.39076e-05 -0.00104145)
(-6.90356e-05 1.63454e-07 4.57057e-05 1.08699e-05 7.31621e-05 -0.000996548)
(-0.000145467 4.33091e-06 0.000194546 -1.40202e-06 4.87805e-05 -0.000934516)
(-0.000104576 -7.54668e-06 0.000127501 -7.0916e-06 7.10981e-05 -0.00118875)
(-9.13315e-05 -4.15968e-06 0.000109114 -1.43763e-06 6.77138e-05 -0.00105302)
(-6.36038e-05 -5.40421e-06 4.3405e-06 2.242e-06 6.95813e-05 -0.00115247)
(-8.7134e-05 -7.49709e-06 6.32823e-05 -6.36435e-06 7.29509e-05 -0.00124438)
(-7.72543e-05 -4.36087e-06 5.28697e-05 2.58257e-07 7.04115e-05 -0.00111124)
(-0.000146897 -2.17861e-05 0.000136362 -1.88657e-05 0.000109577 -0.0019861)
(-0.000102565 -1.6111e-05 3.37405e-05 -1.44932e-05 9.25149e-05 -0.00178189)
(-0.000128313 -1.70326e-05 0.000112443 -1.66237e-05 9.76166e-05 -0.00176572)
(-0.000218835 -2.46327e-06 0.000304352 -1.19343e-05 6.44445e-05 -0.0013915)
(-0.000119902 -1.0621e-05 0.000150092 -1.11721e-05 7.77318e-05 -0.0013443)
(-0.000137826 -1.39338e-05 0.000177287 -1.4343e-05 8.6781e-05 -0.00152235)
(-9.01989e-05 -1.29054e-05 2.34787e-05 -1.23474e-05 8.36e-05 -0.00159523)
(-9.878e-05 -1.03064e-05 7.65301e-05 -1.07909e-05 7.8986e-05 -0.00139667)
(-0.00011242 -1.33598e-05 9.27689e-05 -1.3987e-05 8.74474e-05 -0.00156996)
(0.000242912 -0.000238562 0.000315104 -0.000176827 0.0012463 -0.000479172)
(7.63198e-05 -0.000311052 0.000682644 -0.000808359 0.00205285 0.000680455)
(9.2419e-06 -0.000318298 0.000306664 -0.000598829 0.0015671 0.000500007)
(3.22501e-05 -0.000187018 -1.35504e-05 -0.000181618 0.000435316 1.49071e-05)
(-0.000121299 -0.000725589 -0.000264604 -0.000514177 0.00223618 0.0010541)
(-8.9908e-05 -0.000427434 -0.000201084 -0.000243008 0.00186238 0.000305803)
(-0.000162638 -0.000447484 0.00069933 -0.0014554 0.0024423 0.00191513)
(-0.000455719 -0.000603069 0.000277059 -0.00171465 0.0022056 0.00297529)
(-0.000251199 -0.0004513 0.000275604 -0.00113884 0.00186377 0.00164183)
(-5.72434e-05 2.29755e-05 4.83183e-05 5.87852e-05 0.000111394 -0.000825093)
(-5.82485e-05 4.39936e-05 2.86435e-05 0.000144651 0.000188647 -0.000838759)
(-5.3179e-05 5.23287e-05 6.71773e-05 0.000113319 0.000166059 -0.000774153)
(-3.88637e-05 0.000108365 0.000170195 8.73766e-05 0.000124136 -0.000525043)
(-1.04614e-05 0.000204579 0.000229201 0.000254488 0.000357442 -0.000642737)
(-3.54458e-05 0.000104043 0.000145289 0.000133907 0.000204746 -0.000660631)
(-6.70375e-05 9.63939e-05 7.009e-05 0.000252663 0.000298545 -0.000847176)
(-4.92377e-05 0.000223949 0.000198059 0.000383444 0.000461133 -0.000781122)
(-5.03722e-05 0.000110473 0.000111033 0.000191147 0.000253484 -0.000762226)
(0.000821757 7.95752e-05 -0.000545777 0.00505851 -3.50367e-05 -0.0117986)
(-0.000126103 2.00667e-05 0.000156339 0.000928171 0.00115481 -0.0014707)
(0.000110044 0.000648911 0.00119676 0.00334423 0.00445157 -0.000989217)
(-0.000592866 -0.00135647 0.0015489 0.00184652 0.00808034 0.00732372)
(-0.000197142 -0.000390635 0.00146169 -0.00451133 0.00453465 0.00638833)
(-0.000154063 -0.00130437 0.00070636 -0.000724982 0.00770029 0.00789876)
(-2.23435e-05 -0.000615397 8.11335e-05 0.00050202 8.65226e-05 0.00192428)
(8.44896e-05 -0.0014658 0.00039513 -0.00164127 0.000609379 0.0034549)
(6.84587e-05 0.000148594 0.000886058 -0.00120219 0.00279917 0.00240566)
(0.000100822 -0.00128137 0.000643476 -0.0015004 0.000689873 0.0040772)
(8.58299e-06 0.000247284 0.00102922 -0.00125709 0.00336474 0.0023366)
(-0.000288339 -0.000701332 0.00118103 -0.00402761 0.0043061 0.00599975)
(-0.00024029 -0.00114431 0.000690202 -0.00101599 0.00622227 0.00663918)
(-0.00011384 -0.00110506 0.000752759 -0.00127169 0.0068984 0.00730866)
(-0.000113597 0.000184657 0.000206178 0.000929665 0.00118138 -0.00129336)
(-4.91565e-05 0.000546321 0.000666584 0.00214955 0.00363428 0.000141031)
(-5.70926e-05 0.000449205 0.00063319 0.00237201 0.0039755 -0.000117387)
(0.000557439 -3.16973e-05 0.00111073 -0.000539336 0.00220361 -0.000340026)
(0.000187751 -0.000240893 0.000977585 -0.000974455 0.00243439 0.000810411)
(0.000327362 -0.000119897 0.00124539 -0.00110966 0.00273554 0.000864809)
(0.000417194 0.000131517 0.00170949 -0.00206353 0.0037137 0.00226408)
(1.67427e-05 -0.000235651 0.00165557 -0.00288932 0.00426142 0.0042033)
(0.000262007 -9.24821e-05 0.00159919 -0.0020116 0.00350679 0.00231927)
(-5.68226e-05 -0.000381798 0.00102967 -0.00169458 0.00290268 0.00216492)
(-0.000146881 -0.000443666 0.00135364 -0.00268832 0.00398472 0.00410855)
(8.41256e-05 -0.000251926 0.00133597 -0.00188126 0.00326746 0.00230335)
(7.90679e-05 -0.000854693 0.000201791 -0.000610019 -0.000818369 0.000288354)
(-0.000251714 -0.000902154 -0.000373708 -0.00042412 0.00251075 0.00132378)
(0.000408211 -0.00144478 1.03746e-06 0.000910481 0.00275678 0.00127701)
(0.000445065 0.000481568 0.000494213 0.000403443 0.00088288 -0.00021359)