/*--------------------------------*- C++ -*----------------------------------*\
| =========                 |                                                 |
| \\      /  F ield         | OpenFOAM: The Open Source CFD Toolbox           |
|  \\    /   O peration     | Version:  2012                                  |
|   \\  /    A nd           | Website:  www.openfoam.com                      |
|    \\/     M anipulation  |                                                 |
\*---------------------------------------------------------------------------*/
FoamFile
{
    version     2.0;
    format      ascii;
    class       pointVectorField;
    location    "0.108/solid";
    object      pointD;
}
// * * * * * * * * * * * * * * * * * * * * * * * * * * * * * * * * * * * * * //

dimensions      [0 1 0 0 0 0 0];


internalField   nonuniform List<vector> 
5184
(
(-0.000192347 0.00223202 -0.000135041)
(-0.000592085 0.00370144 -3.13235e-05)
(-3.3713e-07 4.44543e-07 -8.30653e-08)
(1.65747e-06 -4.6253e-05 -1.18614e-06)
(-0.000430389 0.00695938 6.21315e-05)
(-0.000203631 0.00400432 2.01133e-05)
(-0.00042115 0.00440262 -0.000102832)
(-0.000595979 0.00628126 8.48147e-05)
(-2.71145e-07 1.14278e-06 -5.3515e-07)
(-2.00328e-06 -1.65079e-06 1.28988e-06)
(-1.9876e-07 9.20482e-07 3.16725e-08)
(3.07265e-07 4.77763e-07 2.07765e-06)
(-0.000193554 0.00303748 -4.76978e-05)
(-0.000310628 0.00370424 -0.000127811)
(-8.08654e-05 0.00054072 -0.000107274)
(-0.000516187 0.00432213 -6.87567e-05)
(-0.000595165 0.00493418 2.84069e-05)
(4.50334e-07 1.82509e-06 -3.31019e-07)
(-3.71834e-07 6.4603e-07 -2.54372e-07)
(-6.78547e-08 9.74877e-07 2.45172e-07)
(-9.07944e-05 0.00142572 -1.77926e-05)
(4.67822e-07 -2.46306e-05 3.80713e-06)
(-0.000321316 0.00600126 4.45756e-05)
(-0.000425754 0.00555455 -1.49737e-05)
(-0.000523071 0.00695392 7.50442e-05)
(-7.81106e-05 0.000999887 -5.92249e-05)
(-0.000314391 0.00472196 -3.3841e-05)
(-0.000520414 0.00554328 6.44889e-06)
(-2.66533e-08 1.21044e-06 -1.9644e-07)
(3.47744e-07 5.76969e-06 2.77794e-06)
(-1.11712e-07 6.77832e-07 6.89433e-08)
(2.0737e-08 5.29781e-07 2.86301e-07)
(-0.000191996 0.00262022 -8.75795e-05)
(-0.000251777 0.00304726 -0.000134386)
(-0.000134339 0.00134774 -0.00012743)
(-0.000556629 0.00406107 -5.01732e-05)
(-0.00059399 0.00429875 -1.40822e-06)
(3.94352e-07 1.24187e-06 -1.86113e-07)
(8.65371e-07 -2.03152e-08 4.7071e-07)
(-2.88122e-07 8.86316e-07 -6.60902e-08)
(-3.62668e-07 5.09905e-07 -1.66119e-07)
(-2.70313e-07 5.19272e-07 2.67671e-08)
(5.74469e-06 2.57794e-05 2.85706e-06)
(-5.43334e-05 0.000276081 -7.4396e-05)
(3.81596e-08 -2.91317e-05 1.53505e-06)
(-0.000377535 0.00661371 5.40529e-05)
(-0.000427865 0.00621905 2.44619e-05)
(-0.000479076 0.00706095 6.90613e-05)
(-0.00019756 0.00348862 -1.29404e-05)
(-0.000145538 0.00272827 4.46553e-06)
(-0.000262852 0.00512097 3.338e-05)
(-0.000367453 0.0041593 -0.000116906)
(-0.000470912 0.00444765 -8.65248e-05)
(-0.000423628 0.00494356 -5.76277e-05)
(-0.000595698 0.00559018 5.69872e-05)
(-0.000562066 0.00667983 8.02475e-05)
(3.51411e-06 -4.5168e-08 1.59406e-06)
(3.86769e-07 2.08893e-06 -5.29897e-07)
(-3.52671e-07 8.51799e-07 -3.70288e-07)
(-4.09211e-05 2.77506e-05 -6.84888e-05)
(1.9753e-06 -3.86302e-07 3.109e-06)
(1.39967e-06 -1.07657e-05 2.88732e-06)
(5.29776e-08 8.75138e-07 -1.13659e-07)
(-1.41734e-07 9.9604e-07 -1.22518e-07)
(-1.42082e-07 1.33575e-06 5.29045e-07)
(-7.95721e-07 5.91593e-06 3.76487e-06)
(-0.000133638 0.00200508 -5.23462e-05)
(-0.000254498 0.00397019 -4.15506e-05)
(-0.000312343 0.00417977 -7.85443e-05)
(-7.63515e-05 0.000793852 -7.79385e-05)
(-0.000518631 0.00490452 -3.05958e-05)
(-0.00056035 0.00529471 1.74635e-05)
(1.57335e-07 1.49783e-06 -2.59403e-07)
(1.78572e-06 -2.45741e-08 8.57612e-07)
(-1.20168e-07 1.27643e-06 -3.0222e-07)
(3.28299e-07 -4.76141e-08 3.88848e-07)
(-6.78525e-09 2.86912e-06 1.54387e-06)
(-8.41045e-05 0.00120034 -4.08375e-05)
(-3.56528e-05 0.000194052 -7.46549e-05)
(6.42489e-06 2.42315e-05 1.89331e-05)
(-0.000317277 0.00532014 6.45677e-06)
(-0.000371819 0.00525275 -2.48755e-05)
(-0.00047545 0.00564187 -4.44153e-06)
(-0.000521754 0.00622039 4.13603e-05)
(-0.000132274 0.00167956 -8.51164e-05)
(-3.234e-05 0.000240386 -7.5647e-05)
(-0.00013861 0.00234427 -2.38632e-05)
(-3.34067e-05 0.000142044 -6.69487e-05)
(-0.00025266 0.00348213 -8.50077e-05)
(-0.000374307 0.00589235 1.55951e-05)
(-0.000257855 0.00450677 -3.01027e-06)
(-0.000369673 0.00467026 -6.91581e-05)
(-0.000558852 0.00465427 -1.60761e-05)
(-0.000477182 0.00631795 3.30575e-05)
(-0.000473453 0.00501255 -4.45951e-05)
(-0.00056129 0.0059645 4.93442e-05)
(-4.31825e-08 7.29073e-07 -6.39746e-08)
(-1.56109e-07 1.10134e-06 6.13532e-07)
(7.56947e-08 -1.85589e-07 1.3171e-07)
(5.69983e-07 -3.60358e-08 3.90174e-07)
(1.26253e-06 -2.1213e-08 6.34566e-07)
(2.50547e-06 -3.23104e-08 1.16516e-06)
(1.92389e-07 1.05649e-06 -1.48845e-07)
(6.37309e-08 1.63247e-06 -4.03291e-07)
(-2.28495e-07 1.02015e-06 -2.06539e-07)
(-2.8597e-07 1.03904e-06 2.74261e-07)
(7.06377e-06 1.46389e-05 1.214e-05)
(-1.33436e-05 2.16238e-05 1.94558e-05)
(-1.89663e-06 1.15212e-06 -9.01317e-06)
(-2.0691e-06 2.47035e-06 -8.13389e-06)
(1.88189e-05 9.70131e-07 -1.55625e-05)
(4.27643e-06 7.89267e-07 -3.4424e-06)
(-8.13856e-06 -4.81041e-06 -6.13847e-07)
(-2.78798e-06 1.34177e-06 -1.81642e-05)
(8.28909e-06 2.79789e-06 -2.20707e-05)
(5.41872e-06 5.01957e-07 -4.7161e-06)
(1.36263e-05 7.25345e-07 -1.1488e-05)
(-2.52058e-06 1.17664e-06 -1.52358e-05)
(2.3801e-06 1.43582e-06 -7.89806e-06)
(5.91272e-06 2.13791e-06 -1.699e-05)
(5.95642e-05 0.00196495 0.000379676)
(2.33296e-06 2.23682e-06 -6.28041e-06)
(7.08729e-06 6.73042e-05 0.000189854)
(7.72959e-05 0.00315241 0.000560188)
(8.9648e-06 -8.47422e-06 7.5405e-06)
(-0.000382363 0.00196502 -0.000600031)
(-4.95037e-05 0.000110325 -0.000153446)
(-0.00041831 0.00314408 -0.000565323)
(-8.07856e-05 3.19226e-05 -0.000116855)
(2.78953e-05 0.0028452 0.00034478)
(-3.10607e-06 0.00642768 0.000215093)
(7.85123e-05 0.00429009 0.000522452)
(-7.9895e-05 0.00454454 6.26629e-05)
(-0.000470751 0.00284332 -0.000568531)
(-0.000802675 0.00642242 -0.000136464)
(-0.000538569 0.00428271 -0.000502674)
(-0.000711339 0.0045404 -0.000238355)
(-0.000218219 0.00416981 -0.000216213)
(-4.7638e-05 0.00664461 0.000107415)
(-0.000115726 0.00470005 -3.33194e-05)
(-0.000191953 0.0061308 -0.000118311)
(-0.000933837 0.00416658 0.000165136)
(-0.000860636 0.0066401 -1.27197e-05)
(-0.000779497 0.00469586 -0.000114714)
(-0.000966912 0.0061285 0.000253967)
(-2.01994e-06 9.35364e-07 -1.06269e-05)
(-9.66223e-07 1.70081e-06 -9.90597e-06)
(-1.01068e-06 1.37256e-06 -1.19294e-05)
(-7.2584e-07 3.66311e-06 -8.68542e-06)
(-2.82053e-06 8.20327e-06 -9.80225e-06)
(7.12614e-07 1.14542e-05 -9.54427e-06)
(4.2135e-06 1.47516e-06 -2.35714e-06)
(5.21684e-06 1.07109e-06 -1.21091e-06)
(-7.84057e-07 2.12273e-06 -2.17737e-05)
(2.88122e-06 2.81625e-06 -2.38671e-05)
(7.31165e-06 4.70315e-07 -6.3663e-06)
(9.94896e-06 5.6028e-07 -8.53511e-06)
(-2.25042e-06 1.01565e-06 -1.27101e-05)
(-9.58157e-07 1.79472e-06 -1.78527e-05)
(-1.01358e-06 1.50903e-06 -1.45722e-05)
(5.40257e-07 1.84058e-06 -9.77523e-06)
(3.10608e-06 1.3907e-06 -1.0146e-05)
(7.37157e-07 1.61086e-06 -1.20925e-05)
(1.85231e-06 2.27134e-06 -1.9034e-05)
(4.26055e-06 1.66719e-06 -1.31091e-05)
(1.17568e-06 1.84193e-06 -1.51452e-05)
(5.27121e-05 0.00234484 0.000411233)
(8.24697e-05 0.00107813 0.000345803)
(6.12418e-05 0.00137744 0.000370961)
(9.14944e-07 3.40976e-06 -8.2685e-06)
(4.13725e-06 4.96395e-06 -5.35287e-06)
(3.26157e-06 9.06779e-06 -8.434e-06)
(4.62619e-06 3.51695e-05 -2.55437e-05)
(3.53582e-05 0.000821821 0.000350324)
(1.84433e-05 2.02571e-05 9.65959e-05)
(4.64155e-05 0.0006829 0.000304407)
(7.11504e-06 3.92892e-05 -1.61269e-05)
(7.45958e-05 0.00272947 0.000511309)
(6.04066e-05 0.00194155 0.000519728)
(6.59265e-05 0.00165252 0.000465536)
(8.22495e-05 0.000347525 0.0002217)
(1.20015e-05 1.24107e-05 -4.33439e-06)
(1.03659e-05 1.01594e-05 7.12045e-05)
(5.40829e-05 0.000542422 0.000235472)
(1.11599e-05 2.8819e-05 -1.37492e-05)
(-0.000375706 0.00234149 -0.000546951)
(-0.000289562 0.00108111 -0.000546772)
(-0.000266294 0.00137336 -0.000505268)
(-0.000160115 0.0007942 -0.000431331)
(-5.19208e-05 0.000101592 -0.000145713)
(-0.000155976 0.000669533 -0.000413209)
(-0.000403798 0.00272296 -0.00057912)
(-0.000287824 0.00192824 -0.000553972)
(-0.00027875 0.00164305 -0.000549674)
(-0.00018771 0.000361254 -0.00037985)
(-5.71645e-05 7.57732e-05 -0.000126386)
(-0.00015467 0.000534102 -0.000367023)
(3.29343e-05 0.00328895 0.000383298)
(-7.27057e-06 0.00360521 0.000266349)
(4.98524e-06 0.00410105 0.000311301)
(3.51321e-05 0.00596467 0.000329155)
(-1.32332e-05 0.00573642 0.000178469)
(2.27626e-05 0.00530454 0.000291859)
(6.94348e-05 0.00376032 0.000479287)
(6.35524e-05 0.00524623 0.000437475)
(5.12986e-05 0.00463846 0.000398206)
(-4.35687e-05 0.00418031 0.000166578)
(-6.56237e-05 0.00511737 0.00011567)
(-2.85586e-05 0.00471883 0.000216525)
(-0.000477889 0.00328484 -0.00051351)
(-0.000555661 0.00360212 -0.000481914)
(-0.000571375 0.00409643 -0.000430054)
(-0.00073068 0.00595867 -0.000268118)
(-0.000787206 0.005731 -0.000177967)
(-0.00071179 0.00529868 -0.000309665)
(-0.000519898 0.00375403 -0.000531182)
(-0.000642993 0.00523953 -0.000395886)
(-0.000622846 0.00463229 -0.000433523)
(-0.000636295 0.00417651 -0.000365372)
(-0.000730317 0.00511264 -0.000198364)
(-0.000655605 0.00471404 -0.000319057)
(-0.000185016 0.00447883 -0.000175138)
(-0.000221504 0.00480275 -0.00017045)
(-0.000183363 0.00510776 -0.000125105)
(-5.39812e-05 0.00593909 7.09164e-05)
(-9.54574e-05 0.00664234 1.37222e-05)
(-9.72106e-05 0.00593565 -2.25805e-05)
(-0.000150814 0.00466764 -0.000113855)
(-0.000104574 0.00529923 2.06407e-05)
(-0.000144144 0.00528543 -6.09682e-05)
(-0.000184332 0.00544896 -0.000152557)
(-0.000144164 0.00645754 -6.1963e-05)
(-0.000141116 0.0057596 -9.75843e-05)
(-0.000891274 0.00447514 9.05256e-05)
(-0.000933974 0.00479974 0.000185018)
(-0.000896981 0.00510417 0.000114165)
(-0.000850025 0.00593422 -5.15807e-05)
(-0.000906289 0.00663859 9.57306e-05)
(-0.000901282 0.0059314 6.09768e-05)
(-0.000839715 0.00466361 -3.41513e-06)
(-0.000795406 0.00529476 -8.08949e-05)
(-0.000850901 0.00528135 2.48791e-05)
(-0.000973194 0.00544607 0.000228684)
(-0.00094124 0.00645453 0.000185028)
(-0.000942008 0.00575602 0.000154991)
(-2.86261e-08 7.03753e-07 4.65282e-08)
(9.03956e-10 4.10416e-07 9.83145e-08)
(-0.000192059 0.00242221 -0.000110404)
(-0.000222026 0.00265506 -0.000135572)
(-0.000163011 0.00179083 -0.000132471)
(-0.000574978 0.00389131 -4.07514e-05)
(-0.000593134 0.00399355 -1.64835e-05)
(5.46162e-07 1.15814e-06 -1.66958e-07)
(-9.32293e-08 1.75928e-07 -1.60716e-07)
(-4.79293e-07 9.39866e-07 -2.00773e-07)
(4.41454e-06 1.0014e-06 -6.90822e-06)
(-3.52588e-07 4.66441e-07 -1.25533e-07)
(-3.0908e-07 4.51564e-07 -3.6739e-08)
(9.98479e-06 2.61414e-05 5.68385e-05)
(8.41152e-07 -3.7106e-06 3.21857e-06)
(-2.68249e-05 2.11408e-05 -5.46718e-05)
(1.67604e-06 -2.40163e-05 -4.83873e-06)
(-2.39231e-05 0.00694586 0.000174879)
(-0.000836844 0.0069412 -5.06822e-05)
(-0.00040444 0.00681887 5.82501e-05)
(-0.000429065 0.00657742 4.34169e-05)
(-0.000455293 0.00703867 6.57267e-05)
(-0.000200377 0.00373589 3.67054e-06)
(-0.000174357 0.00337931 1.27123e-05)
(8.33342e-05 0.00400594 0.000566746)
(-0.000490273 0.00399785 -0.000525952)
(-0.000233234 0.00458861 2.70371e-05)
(-0.00039475 0.00430702 -0.000110202)
(-0.000446561 0.00444843 -9.49052e-05)
(-0.000422475 0.00466364 -8.00767e-05)
(-0.000595855 0.00593003 7.09468e-05)
(-0.000579655 0.0064935 8.2601e-05)
(-0.000222716 0.00627674 -0.000122202)
(-0.000969285 0.00627508 0.000291425)
(1.36686e-05 1.26026e-06 -2.09687e-05)
(-1.85736e-07 1.3414e-06 -6.40072e-07)
(2.2125e-07 5.25277e-07 -6.45133e-07)
(-7.80616e-08 2.30819e-06 -9.15312e-07)
(-3.2311e-07 9.85498e-07 -4.43884e-07)
(-2.943e-05 -2.15074e-05 -4.07602e-05)
(2.59688e-06 -1.70336e-06 3.81716e-06)
(3.19714e-06 -2.16046e-06 4.45514e-06)
(1.80154e-07 8.42346e-07 -1.06602e-07)
(-1.54246e-07 8.28429e-07 6.00241e-08)
(-2.57697e-07 9.459e-07 -9.2669e-09)
(-1.90747e-07 2.44261e-06 -9.21885e-06)
(-1.78616e-07 9.29178e-07 -6.5376e-08)
(-1.93384e-07 9.51325e-07 1.83608e-07)
(-1.62627e-08 4.52434e-07 6.63227e-07)
(-2.48327e-08 -1.008e-05 1.69218e-05)
(-4.07848e-06 1.09171e-05 -1.49565e-05)
(-9.62488e-07 4.81946e-06 4.51803e-06)
(-0.000192487 0.0028274 -6.6536e-05)
(-0.000195262 0.00325678 -2.99333e-05)
(-0.000163277 0.00252689 -5.00385e-05)
(6.22734e-05 0.00303819 0.000460809)
(-0.000448306 0.00303312 -0.000556588)
(-0.000224045 0.00352244 -4.48183e-05)
(-0.000281377 0.00339919 -0.000131728)
(-0.000339369 0.00395828 -0.00012282)
(-0.00031152 0.00393335 -0.000102761)
(-0.000106749 0.000922974 -0.000119314)
(-5.75898e-05 0.000229674 -9.03655e-05)
(-7.76833e-05 0.000673529 -9.04077e-05)
(-0.000537021 0.00420622 -5.95305e-05)
(-0.000494135 0.00440412 -7.77806e-05)
(-0.00051751 0.00460503 -4.96892e-05)
(-0.000594756 0.00461603 1.37546e-05)
(-0.000595475 0.00525853 4.2816e-05)
(-0.000578397 0.00512609 2.29545e-05)
(-0.000216443 0.00493081 -0.000182375)
(-0.000973702 0.00492811 0.000238871)
(4.52471e-07 1.54447e-06 -2.41999e-07)
(4.20473e-07 2.03147e-06 -4.26958e-07)
(4.98931e-07 2.28181e-06 -2.08718e-05)
(2.86456e-07 1.6587e-06 -2.9282e-07)
(6.56251e-07 1.99415e-06 -3.69372e-07)
(-3.68616e-07 5.70576e-07 -2.08772e-07)
(-3.67973e-07 7.41434e-07 -3.07356e-07)
(7.4493e-06 7.69547e-07 -1.19524e-05)
(-8.24433e-09 2.81101e-07 -3.36365e-07)
(-4.32611e-07 1.34691e-06 -5.08172e-07)
(-1.38171e-07 6.06403e-07 6.39462e-08)
(4.53237e-07 -8.52648e-07 -2.03444e-07)
(6.37772e-06 4.13729e-06 -3.81522e-06)
(-4.9678e-08 1.4663e-07 -4.60815e-08)
(-1.6739e-07 2.54957e-06 9.76863e-07)
(-7.06538e-05 0.000829389 -4.00261e-05)
(-0.000118019 0.00207062 -4.43474e-06)
(4.53182e-05 0.00147224 0.000484033)
(-8.79931e-05 0.00130961 -3.05097e-05)
(-0.000229192 0.00145808 -0.000510335)
(-5.14216e-07 -2.64887e-05 3.53227e-06)
(1.43605e-06 -1.99566e-05 3.96591e-06)
(-2.13813e-05 1.74709e-05 -4.85484e-05)
(-2.5223e-06 -2.35188e-06 2.34815e-06)
(8.2503e-06 9.7495e-06 3.62564e-05)
(-0.000349784 0.00634152 4.95079e-05)
(-0.000292282 0.00559353 3.92169e-05)
(-0.000319152 0.00564761 2.56554e-05)
(5.48644e-05 0.00598905 0.000399044)
(-0.000697352 0.00598272 -0.000309638)
(-0.000426776 0.00587853 5.04562e-06)
(-0.000424795 0.00524558 -3.56775e-05)
(-0.000399276 0.00543179 -2.00218e-05)
(-5.33748e-05 0.00554136 9.765e-05)
(-0.00079773 0.00553637 -0.00012796)
(-0.000451169 0.00562348 -9.76842e-06)
(-0.000501684 0.00703099 7.21606e-05)
(-0.000543202 0.00683507 7.77332e-05)
(-0.000123445 0.00694436 -9.7108e-06)
(-0.000522402 0.00657831 5.82836e-05)
(-0.00092273 0.00694129 0.000159517)
(5.97744e-05 0.00103706 0.000364249)
(-0.000213536 0.00103124 -0.000476651)
(-0.00010488 0.00149 -5.44275e-05)
(-7.66468e-05 0.000898507 -6.79092e-05)
(-8.07188e-05 0.00109898 -5.02884e-05)
(-5.31908e-05 0.000565951 -6.57527e-05)
(1.8261e-05 0.00470972 0.000312063)
(-0.000646405 0.00470423 -0.000380076)
(-0.000284675 0.00437206 -3.78704e-05)
(-0.000313347 0.00444725 -5.53379e-05)
(-0.000315702 0.00501221 -1.32955e-05)
(-0.000343486 0.00501611 -2.94949e-05)
(-0.00013538 0.00553449 -7.96428e-05)
(-0.00090519 0.00553051 9.21868e-05)
(-0.000519681 0.00522181 -1.16504e-05)
(-0.00054102 0.00543537 1.19537e-05)
(-0.000498546 0.00561367 9.74426e-07)
(-0.000521104 0.00587573 2.41069e-05)
(-1.6169e-07 1.58741e-06 -1.35938e-05)
(2.81039e-08 1.05828e-06 -1.47117e-07)
(-9.1253e-08 1.09144e-06 -1.63601e-07)
(5.47384e-08 1.34736e-06 -2.27408e-07)
(-9.18782e-08 1.29712e-06 -2.45546e-07)
(4.63302e-06 1.99814e-05 -1.05224e-05)
(9.02921e-09 1.55847e-06 8.4189e-07)
(-8.64982e-08 5.83742e-06 3.14474e-06)
(4.0036e-07 4.58233e-06 2.25137e-06)
(4.50697e-07 2.74116e-07 -1.14409e-06)
(-1.53524e-06 1.22478e-06 -1.0306e-05)
(-1.2649e-06 5.83599e-06 -8.4418e-06)
(-1.79892e-06 1.36961e-06 -1.50111e-05)
(1.61298e-06 1.56297e-06 -1.00945e-05)
(3.14772e-06 2.05693e-06 -1.62791e-05)
(5.67641e-05 0.00168855 0.000367223)
(2.39155e-06 4.38906e-06 -6.97197e-06)
(3.81525e-05 0.000225723 0.000206385)
(1.62539e-05 9.26805e-05 -1.14191e-05)
(7.23272e-05 0.00236224 0.000530971)
(3.69989e-05 0.000144037 0.000132377)
(2.01026e-05 3.70593e-05 -1.5365e-05)
(-0.000319476 0.00168771 -0.000538263)
(-0.000100973 0.000334249 -0.000300151)
(-0.000348325 0.00235386 -0.000578569)
(-0.000109483 0.000190602 -0.000246729)
(4.54091e-06 0.00347972 0.000313985)
(1.5727e-05 0.00587938 0.000257072)
(7.0619e-05 0.00450024 0.000469209)
(-6.66912e-05 0.00466506 0.000132877)
(-0.000508872 0.00347635 -0.000484326)
(-0.000764136 0.00587363 -0.000225844)
(-0.00058583 0.00449346 -0.000474955)
(-0.000672015 0.00466084 -0.000271323)
(-0.000216644 0.00465406 -0.000166579)
(-6.85346e-05 0.00630716 4.1287e-05)
(-0.000142631 0.00500912 -4.74057e-05)
(-0.000160908 0.00595885 -0.000111153)
(-0.000900858 0.00465084 0.000134477)
(-0.000885774 0.00630274 2.4693e-05)
(-0.000803893 0.0050051 -4.18015e-05)
(-0.000961679 0.00595586 0.0002096)
(6.53202e-08 7.18126e-07 -6.54265e-08)
(-1.46828e-06 2.01679e-06 -8.80999e-06)
(-8.05435e-08 6.8072e-07 -1.83996e-08)
(-1.43838e-07 7.0929e-07 2.21321e-07)
(-3.34391e-06 3.20981e-06 -1.01181e-05)
(-1.37201e-07 1.14487e-06 5.63475e-07)
(-0.000161847 0.00215251 -8.7019e-05)
(3.45014e-05 0.00262215 0.000367294)
(-0.000417238 0.00261983 -0.000542969)
(-0.000222347 0.00306747 -8.68453e-05)
(-0.000252202 0.00325778 -0.000109081)
(-0.000132986 0.00151422 -0.000104935)
(-0.000557844 0.00435024 -3.31957e-05)
(-0.000577053 0.00448738 -8.74154e-06)
(-0.000251769 0.00430008 -0.000198498)
(-0.000936084 0.00429741 0.000195753)
(3.35333e-07 1.00128e-06 -1.36068e-07)
(-1.91737e-06 1.60567e-06 -1.81559e-05)
(2.84118e-07 1.15053e-06 -1.67e-07)
(5.24753e-07 1.32642e-06 -2.06566e-07)
(7.07602e-07 -2.85845e-08 4.19009e-07)
(1.05087e-06 -2.20848e-08 5.49095e-07)
(1.43512e-06 2.08947e-06 -8.11599e-06)
(-2.63883e-07 9.31844e-07 -1.48238e-07)
(-2.93865e-07 8.65904e-07 4.75307e-08)
(5.58658e-06 7.3058e-07 -9.07108e-06)
(-6.07108e-08 2.16978e-07 -2.39763e-07)
(-4.76093e-07 1.07041e-06 -3.60402e-07)
(4.31107e-06 1.99032e-06 -5.32252e-06)
(-1.00585e-07 1.64029e-07 -9.00553e-08)
(-4.19303e-07 1.12343e-06 7.50347e-08)
(-4.4606e-06 0.000148765 -0.000339208)
(-2.99156e-05 4.69412e-05 4.82829e-05)
(3.57348e-05 0.000181255 0.000321133)
(-3.30837e-05 0.000260654 -9.33573e-05)
(-0.000108291 0.000399097 -0.000313275)
(-1.6452e-05 2.77119e-05 -5.18641e-05)
(-2.59728e-06 -3.61253e-06 2.84613e-06)
(-4.55554e-06 7.05595e-06 4.52708e-05)
(-0.000375821 0.00624026 3.49593e-05)
(1.97884e-05 0.00659981 0.000286155)
(-0.00077479 0.00659432 -0.000177966)
(-0.000401575 0.00608569 2.00615e-05)
(-2.42485e-05 0.00620651 0.00014388)
(-0.000831365 0.0062014 -9.50145e-05)
(-0.000453091 0.00629525 2.87947e-05)
(-7.26509e-05 0.00704907 7.44767e-05)
(-0.000478095 0.00667903 5.11607e-05)
(-0.000885521 0.00704522 6.34597e-05)
(-0.000167725 0.00292546 -1.80701e-05)
(7.91177e-05 0.00349112 0.000531739)
(-0.000473494 0.00348396 -0.00055736)
(-0.0002277 0.00401949 -7.88685e-06)
(7.1367e-05 0.00274573 0.000573753)
(-0.000141969 0.00252893 -9.6767e-06)
(-0.000362477 0.00273593 -0.000564291)
(-0.000260163 0.00480142 1.53063e-05)
(7.72844e-05 0.0051135 0.000499335)
(-0.000602737 0.0051063 -0.000432131)
(-0.000368628 0.00440537 -9.27638e-05)
(-0.00047228 0.00472108 -6.54988e-05)
(-0.000397126 0.00483369 -6.36177e-05)
(-0.00010459 0.00493889 3.74221e-05)
(-0.000742165 0.00493467 -0.000152744)
(-0.000449092 0.00500213 -5.12631e-05)
(-0.000579134 0.00578969 5.3209e-05)
(-0.000205734 0.00558713 -0.000157846)
(-0.000985669 0.00558484 0.000271547)
(-0.00017402 0.00667282 -7.53308e-05)
(-0.000561684 0.00631494 6.48585e-05)
(-0.000950158 0.00667049 0.00023547)
(4.15804e-06 -5.34076e-08 1.87592e-06)
(2.95832e-06 -3.77206e-08 1.36219e-06)
(4.49859e-06 2.61323e-06 -2.07735e-05)
(2.01208e-07 1.84817e-06 -4.60114e-07)
(6.35624e-07 2.36193e-06 -5.98371e-07)
(1.00541e-05 9.58885e-07 -1.57964e-05)
(7.81881e-08 3.80971e-07 -4.65749e-07)
(-3.22629e-07 1.75258e-06 -6.85264e-07)
(-3.56135e-05 9.45641e-05 -6.52641e-05)
(8.50617e-06 6.87249e-06 1.47264e-06)
(1.9476e-07 -1.29107e-07 -3.8289e-08)
(8.01703e-06 5.50595e-06 1.09159e-05)
(-2.3737e-05 1.19111e-05 -3.73594e-05)
(-3.9936e-06 3.33166e-06 -2.61762e-08)
(9.72879e-06 6.62019e-06 2.78129e-05)
(-1.6566e-06 1.19093e-06 -1.23937e-05)
(5.20909e-10 7.95386e-07 -9.31171e-08)
(1.16143e-07 9.63433e-07 -1.31561e-07)
(-2.8388e-07 1.58427e-06 -1.10505e-05)
(-8.44518e-08 8.79291e-07 -8.70066e-08)
(-2.05057e-07 1.05342e-06 -1.59503e-07)
(7.34094e-07 6.1945e-06 -8.5102e-06)
(-1.59421e-07 1.28769e-06 5.98083e-07)
(-1.95755e-07 1.23677e-06 4.15812e-07)
(1.51252e-06 2.25871e-05 -1.15385e-05)
(-3.58335e-07 1.22081e-06 1.07523e-06)
(-5.62629e-06 -4.16054e-06 6.42041e-07)
(6.76733e-05 0.0020199 0.000456868)
(-0.000132475 0.00184269 -6.75712e-05)
(-0.000135747 0.00217085 -3.79324e-05)
(-0.000333325 0.00201477 -0.000561975)
(4.4997e-05 0.00396242 0.000404181)
(-0.00025345 0.00372331 -6.22997e-05)
(-0.00025597 0.00423047 -2.18613e-05)
(-0.000553178 0.00395701 -0.00048759)
(-2.98667e-05 0.00417515 0.000229668)
(-0.000282721 0.00385505 -8.21962e-05)
(-0.000341373 0.00445218 -7.4164e-05)
(-0.000594019 0.00417118 -0.000386969)
(6.55523e-05 0.000814302 0.000291283)
(-0.000103425 0.00121987 -8.17776e-05)
(-5.01857e-05 0.000426547 -7.41477e-05)
(-0.000215508 0.000814967 -0.000444837)
(-0.000180145 0.00490267 -0.00011619)
(-0.000539368 0.00479486 -2.33747e-05)
(-0.000496643 0.00497859 -3.76862e-05)
(-0.000856831 0.00489899 5.50201e-05)
(-0.000176517 0.00528868 -0.000140821)
(-0.000559771 0.00497323 1.02886e-06)
(-0.000560854 0.00562475 3.35619e-05)
(-0.000943974 0.00528532 0.000175408)
(8.36021e-08 1.87671e-06 -1.68471e-05)
(1.97423e-07 1.29209e-06 -1.92451e-07)
(9.8419e-08 1.62999e-06 -3.2796e-07)
(1.50394e-06 -2.21291e-08 7.37568e-07)
(2.10943e-06 -2.77346e-08 9.99349e-07)
(2.21821e-06 1.67315e-06 -1.27803e-05)
(-4.07734e-08 1.44272e-06 -3.50009e-07)
(-1.81017e-07 1.13526e-06 -2.56147e-07)
(2.19954e-07 -2.97023e-08 3.73326e-07)
(4.45703e-07 -4.25296e-08 3.84409e-07)
(7.1661e-06 1.18756e-05 -7.42426e-06)
(-1.59277e-07 9.77192e-07 4.53439e-07)
(4.36933e-07 -2.47424e-06 -4.57064e-07)
(5.26835e-05 0.00124411 0.000432861)
(-5.78825e-05 0.000689735 -5.65838e-05)
(-0.000110442 0.0017632 -3.04278e-05)
(-0.000218893 0.00123372 -0.000506435)
(3.68012e-05 0.000196646 0.00016208)
(-3.47115e-05 0.000218309 -7.47265e-05)
(-3.36521e-05 0.000162247 -7.53648e-05)
(-0.000102519 0.000276658 -0.000275567)
(1.63695e-05 7.58744e-05 -3.70414e-06)
(8.21314e-06 2.19835e-05 1.65573e-05)
(2.66645e-06 2.61774e-05 2.05818e-05)
(4.84491e-05 0.00530885 0.00037062)
(-0.000346167 0.00563728 1.10623e-05)
(-0.000287782 0.0049422 1.77376e-06)
(-0.000682675 0.00530253 -0.000357553)
(-1.53179e-05 0.005239 0.000204832)
(-0.000372987 0.0055637 -4.28789e-06)
(-0.000370799 0.00495774 -4.62817e-05)
(-0.000727813 0.00523367 -0.000254936)
(-9.39227e-05 0.00563053 7.86207e-07)
(-0.000476314 0.00597262 1.45585e-05)
(-0.000474588 0.00532434 -2.39991e-05)
(-0.000856659 0.005626 -1.00313e-05)
(-0.000114715 0.00621205 -4.46519e-05)
(-0.000500084 0.00629144 3.72471e-05)
(-0.00054216 0.00610973 4.53936e-05)
(-0.000928776 0.00620834 0.000127178)
(-3.05551e-06 1.76224e-06 -1.02023e-05)
(-1.924e-06 1.57239e-06 -8.4369e-06)
(-1.9376e-06 9.80289e-07 -9.75509e-06)
(-1.49493e-06 1.45447e-06 -9.47175e-06)
(-1.43228e-06 3.2296e-06 -8.41349e-06)
(-2.36853e-06 4.37819e-06 -8.32055e-06)
(1.59977e-05 1.4676e-06 -2.42128e-05)
(1.59872e-05 8.34573e-07 -1.33505e-05)
(4.74246e-06 6.0033e-07 -4.04247e-06)
(4.18188e-06 1.36718e-06 -6.05501e-06)
(4.06863e-06 1.09019e-06 -2.88724e-06)
(2.38604e-06 -1.80324e-05 -3.97461e-05)
(2.91019e-06 -2.44557e-06 -9.9776e-07)
(2.74276e-05 4.87215e-05 0.000223627)
(7.95177e-05 0.00338777 0.000579862)
(-4.786e-05 0.00702585 0.000122904)
(-0.000198693 0.00648777 -0.000101057)
(-2.65681e-06 1.26193e-06 -1.66529e-05)
(-1.95169e-06 1.72265e-06 -1.9912e-05)
(6.99028e-06 2.44045e-06 -1.93691e-05)
(5.3959e-06 2.94908e-06 -2.34438e-05)
(4.90382e-06 8.0853e-07 -7.90823e-06)
(6.27841e-06 4.6524e-07 -5.48523e-06)
(1.17096e-05 1.09571e-06 -1.81855e-05)
(1.16376e-05 6.33592e-07 -9.89737e-06)
(-2.38322e-06 1.09224e-06 -1.39185e-05)
(-1.86447e-06 1.48552e-06 -1.65198e-05)
(2.23299e-06 1.69395e-06 -7.01007e-06)
(1.44937e-06 1.70274e-06 -9.01768e-06)
(2.6845e-06 1.35702e-06 -8.94031e-06)
(3.75853e-06 2.31584e-06 -1.83847e-05)
(5.01481e-06 1.87974e-06 -1.49226e-05)
(-0.000162247 0.0019698 -0.000108665)
(4.43915e-05 0.00241426 0.000369225)
(4.68815e-05 0.00215758 0.000375417)
(7.26306e-05 0.00151311 0.000372899)
(1.67919e-06 2.88128e-06 -7.41933e-06)
(2.84467e-06 3.26092e-06 -5.70247e-06)
(-1.45513e-05 3.49344e-05 -6.65114e-05)
(1.23109e-05 0.000131227 -3.79221e-05)
(3.72131e-05 0.000194837 0.000250109)
(1.79998e-05 2.63906e-05 0.000113589)
(-0.000170831 0.00314326 -2.60838e-06)
(8.00117e-05 0.00373855 0.000548971)
(7.76102e-05 0.00293468 0.000541242)
(7.0569e-05 0.00254666 0.000551895)
(-2.48491e-05 2.00521e-06 -3.47324e-05)
(4.96361e-05 9.49847e-05 0.000118325)
(2.25098e-05 2.37353e-05 2.69528e-06)
(5.42758e-06 -2.43075e-06 4.97102e-05)
(-0.000426989 0.00241325 -0.000592949)
(-0.000369113 0.00215595 -0.000550172)
(-0.000336711 0.00151452 -0.000585927)
(-5.09538e-05 0.000125776 -0.000160179)
(-0.000102211 0.000358069 -0.00030631)
(-5.04407e-05 0.000107413 -0.000150042)
(-0.000480221 0.00373084 -0.000541227)
(-0.000427927 0.00337896 -0.000554053)
(-0.000412158 0.00292708 -0.000577438)
(-0.000353706 0.00253727 -0.000571073)
(-0.000133813 0.000133713 -0.000252587)
(-6.35211e-05 5.51139e-05 -0.000119175)
(-0.000222133 0.00285567 -0.000110468)
(2.02403e-05 0.00306693 0.000345848)
(1.05571e-05 0.00324531 0.000309514)
(-0.000402927 0.00643993 3.92845e-05)
(-1.22934e-06 0.00680496 0.000229631)
(-2.4788e-05 0.00656554 0.000159886)
(1.70106e-05 0.00622803 0.000271966)
(-3.55407e-06 0.00607273 0.000199682)
(-0.000230256 0.00429237 9.67919e-06)
(8.25348e-05 0.00458505 0.000538691)
(7.67324e-05 0.00401685 0.000506544)
(7.2926e-05 0.00479541 0.000484218)
(-0.000396014 0.00456085 -8.67029e-05)
(-9.78952e-05 0.00464742 1.31147e-05)
(-6.17724e-05 0.00438919 0.00011427)
(-8.5577e-05 0.00482864 8.43037e-05)
(-0.000463831 0.00306402 -0.000519951)
(-0.000513669 0.00324275 -0.000530408)
(-0.000807615 0.00679988 -0.000113127)
(-0.000833301 0.00656065 -7.30488e-05)
(-0.00076854 0.0062224 -0.000201925)
(-0.00079944 0.00606729 -0.000159571)
(-0.000548694 0.0045774 -0.000484108)
(-0.000531527 0.00400987 -0.00052204)
(-0.000592886 0.00478837 -0.000453202)
(-0.00074635 0.00464323 -0.000175448)
(-0.000674599 0.00438518 -0.000302184)
(-0.000708108 0.00482439 -0.000211635)
(-0.000576117 0.00418236 -2.48418e-05)
(-0.000234415 0.00398163 -0.000229435)
(-0.000201751 0.00433704 -0.000198171)
(-0.000234395 0.00448797 -0.000184784)
(-0.000454145 0.00665582 4.73716e-05)
(-4.60198e-05 0.00628346 9.07936e-05)
(-7.13025e-05 0.00666873 5.84967e-05)
(-0.000447919 0.00471599 -7.29802e-05)
(-0.000133376 0.00470554 -7.58301e-05)
(-0.000123642 0.00499802 -6.73858e-06)
(-0.000579406 0.00613515 6.79587e-05)
(-0.00021508 0.00592685 -0.00013936)
(-0.000183564 0.00578537 -0.000136925)
(-0.000168265 0.00630935 -9.25544e-05)
(-0.000951704 0.00397866 0.000195183)
(-0.000913684 0.00433357 0.000130274)
(-0.000919551 0.00448502 0.000167365)
(-0.000862731 0.0070216 8.41899e-06)
(-0.000860078 0.00627869 -3.3303e-05)
(-0.000884897 0.00666461 4.37301e-05)
(-0.000810649 0.0047014 -5.71269e-05)
(-0.000774106 0.00499388 -9.58281e-05)
(-0.000976673 0.0059249 0.000280973)
(-0.000960657 0.00648578 0.000265874)
(-0.000974712 0.00578273 0.000243084)
(-0.000955155 0.00630671 0.000222036)
(-3.94727e-06 5.92023e-06 -1.1033e-05)
(-1.59076e-06 1.16331e-06 -1.12842e-05)
(-2.1272e-06 9.576e-07 -1.16122e-05)
(-9.95777e-07 1.43981e-06 -1.08371e-05)
(-8.97754e-07 2.33377e-06 -9.16006e-06)
(-2.81975e-07 1.83373e-06 -1.00378e-05)
(-1.01691e-06 1.41094e-06 -1.31728e-05)
(-2.38642e-07 1.53017e-06 -1.22377e-05)
(-2.87212e-07 6.39253e-06 -8.62162e-06)
(8.41789e-08 3.69551e-06 -8.66898e-06)
(-6.53474e-07 1.10135e-05 -9.56017e-06)
(-1.96343e-06 1.77832e-05 -1.34031e-05)
(2.08135e-06 1.07087e-05 -9.24779e-06)
(2.9801e-06 2.19774e-05 -1.10903e-05)
(4.6641e-06 1.66842e-06 -1.79042e-06)
(5.04297e-06 2.91557e-06 -4.68505e-06)
(8.8088e-06 5.19127e-06 -2.18286e-06)
(-2.60439e-06 2.05559e-05 -4.02651e-05)
(2.66354e-05 0.000896714 0.000384449)
(5.91484e-05 0.00210105 0.000543926)
(-9.79482e-05 0.00702021 3.01492e-05)
(-0.000148878 0.00682678 -4.48958e-05)
(8.01187e-07 2.50403e-06 -2.31744e-05)
(-8.90429e-07 1.9578e-06 -1.97365e-05)
(2.31297e-06 2.53223e-06 -2.13329e-05)
(8.52248e-06 5.04027e-07 -7.36958e-06)
(6.43718e-06 7.24414e-07 -1.04143e-05)
(8.64533e-06 8.48295e-07 -1.37328e-05)
(-1.72778e-06 1.26711e-06 -1.36358e-05)
(-9.96102e-07 1.64171e-06 -1.61312e-05)
(2.6416e-07 2.07027e-06 -1.8759e-05)
(-5.57153e-08 1.71124e-06 -1.51272e-05)
(6.00396e-07 1.63666e-06 -1.08437e-05)
(6.08161e-07 2.35714e-06 -8.89808e-06)
(1.87592e-06 1.57109e-06 -1.13463e-05)
(3.62904e-06 1.50001e-06 -1.15264e-05)
(9.30117e-07 1.69205e-06 -1.35218e-05)
(1.4795e-06 2.03857e-06 -1.6979e-05)
(2.6392e-06 1.84085e-06 -1.44165e-05)
(5.85375e-05 0.00185511 0.000401074)
(6.65844e-05 0.00253382 0.000468151)
(-0.00016216 0.00233915 -6.73628e-05)
(4.40195e-05 0.00282776 0.00040424)
(6.35616e-05 0.00123406 0.000339947)
(8.68932e-05 0.000681936 0.000296127)
(-0.000104629 0.00107471 -9.8947e-05)
(6.54984e-05 0.00151524 0.000423723)
(5.95867e-05 0.000930096 0.000317168)
(-0.000103454 0.00135618 -6.69019e-05)
(1.67271e-06 5.4604e-06 -7.97636e-06)
(3.99967e-06 6.93417e-06 -7.04047e-06)
(6.67533e-06 8.19045e-06 -4.73061e-06)
(6.21155e-06 1.64347e-05 -9.38567e-06)
(5.62851e-06 3.98635e-05 -1.75818e-05)
(4.05684e-05 0.000747378 0.000329547)
(4.82117e-05 0.00135443 0.000457273)
(-6.21216e-05 0.000759727 -5.55188e-05)
(3.73882e-05 0.000218094 0.000183772)
(1.55548e-05 8.41857e-05 -3.81068e-06)
(1.49742e-05 1.66935e-05 8.50917e-05)