/*--------------------------------*- C++ -*----------------------------------*\
| =========                 |                                                 |
| \\      /  F ield         | OpenFOAM: The Open Source CFD Toolbox           |
|  \\    /   O peration     | Version:  2012                                  |
|   \\  /    A nd           | Website:  www.openfoam.com                      |
|    \\/     M anipulation  |                                                 |
\*---------------------------------------------------------------------------*/
FoamFile
{
    version     2.0;
    format      ascii;
    class       volScalarField;
    location    "0.108/solid";
    object      sigmaDiff;
}
// * * * * * * * * * * * * * * * * * * * * * * * * * * * * * * * * * * * * * //

dimensions      [1 -1 -2 0 0 0 0];


internalField   nonuniform List<scalar> 
3125
(
-6.99088e+07
-2.17526e+07
-2.14992e+07
-1.5447e+08
-2.98777e+07
-3.8582e+07
-6.61482e+07
-2.25423e+07
-6.5006e+07
-2.36362e+07
-5.75888e+07
-2.6799e+07
-2.20407e+07
-2.12998e+08
-1.77841e+08
-1.63315e+08
-1.08372e+07
-2.46578e+08
-1.7702e+07
-5.89219e+08
-2.48593e+08
-2.75273e+08
-2.3682e+07
-3.91249e+07
-2.9663e+07
-1.39052e+08
-1.54135e+08
-4.78187e+07
-1.61747e+07
-8.36476e+07
-2.46559e+07
-1.79355e+08
-2.34523e+08
-1.01354e+08
-2.0967e+07
-1.33353e+08
-4.62246e+07
-7.25102e+07
-5.51035e+07
-8.35095e+07
-6.08044e+07
-1.68442e+08
-1.00811e+08
-8.51722e+07
-2.97941e+07
-2.10983e+07
-5.25985e+07
-5.7454e+07
-3.12507e+07
-3.93108e+07
-3.10418e+07
-5.47126e+07
-6.31947e+07
-2.63828e+07
-2.43792e+07
-2.8782e+07
-2.60508e+07
-3.26057e+07
-3.3305e+07
-6.56806e+07
-6.6592e+07
-3.59608e+07
-3.85033e+07
-5.92639e+07
-4.34275e+07
-3.00432e+07
-3.35807e+07
-3.85598e+07
-5.96565e+07
-3.83078e+07
-4.28653e+07
-1.05861e+08
-4.32128e+07
-2.50908e+08
-2.95741e+07
-2.89465e+07
-5.6534e+07
-8.1408e+07
-4.43465e+08
-5.77083e+07
-3.64735e+08
-8.94755e+07
-1.29826e+08
-3.59472e+08
-2.93206e+08
-5.0529e+07
-3.85334e+07
-5.11951e+07
-3.14208e+08
-7.91125e+07
-1.13135e+08
-1.35959e+08
-1.50421e+08
-1.43201e+08
-2.78591e+08
-4.45354e+08
-5.10161e+08
-3.86905e+08
-1.84083e+08
-3.62979e+08
-3.11215e+08
-1.71227e+08
-4.77065e+08
-3.5209e+08
-3.67113e+07
-3.78367e+07
-9.25633e+07
-4.91273e+07
-1.12707e+08
-1.45052e+08
-1.24814e+08
-1.27356e+08
-1.12244e+08
-1.43692e+08
-1.2243e+08
-5.03636e+07
-1.17641e+08
-1.18858e+08
-6.7166e+07
-7.12926e+07
-1.4267e+08
-8.38496e+07
-1.59546e+08
-2.05619e+08
-1.71467e+08
-1.78679e+08
-1.7341e+08
-2.12263e+08
-1.77055e+08
-8.86344e+07
-1.6835e+08
-1.65854e+08
-2.94528e+07
-4.26258e+07
-7.39773e+07
-1.18917e+08
-1.09071e+08
-9.23204e+07
-3.15618e+07
-1.11806e+08
-8.46857e+07
-5.22779e+07
-9.97459e+07
-8.19938e+07
-7.22272e+07
-7.43657e+07
-8.39867e+07
-8.44568e+07
-1.21963e+08
-1.65043e+08
-1.32066e+08
-1.34465e+08
-8.69461e+07
-1.62764e+08
-1.33954e+08
-8.42343e+07
-1.19641e+08
-1.22102e+08
-3.24246e+07
-3.41332e+07
-3.21447e+07
-3.38062e+07
-3.47842e+07
-7.06562e+07
-1.98673e+07
-1.8463e+07
-1.99454e+07
-1.59225e+07
-1.3186e+08
-2.31763e+07
-1.62826e+07
-3.05416e+07
-3.64441e+07
-6.30301e+07
-6.75828e+07
-1.96785e+07
-2.71936e+07
-2.47088e+07
-6.51965e+07
-5.16561e+07
-5.08719e+07
-5.75754e+07
-5.25073e+07
-2.65134e+07
-2.62099e+07
-2.89197e+07
-5.94954e+07
-5.01956e+07
-5.24047e+07
-7.19281e+07
-2.57703e+07
-1.04349e+08
-2.52646e+07
-2.18515e+07
-2.59239e+07
-9.27286e+08
-4.03125e+08
-9.49546e+07
-1.83458e+08
-3.40939e+08
-1.65705e+08
-2.19632e+08
-2.07255e+08
-1.19546e+08
-1.25026e+08
-9.42228e+07
-1.91359e+08
-9.22264e+07
-3.88025e+07
-2.6589e+08
-7.82058e+07
-5.19678e+07
-1.15416e+08
-6.05635e+08
-5.55459e+08
-5.73809e+08
-2.33033e+08
-2.71079e+08
-2.56768e+08
-3.30484e+08
-2.79679e+08
-3.06368e+08
-2.98433e+07
-3.98139e+07
-6.69639e+07
-3.96368e+07
-4.29922e+07
-1.43e+08
-1.34474e+08
-1.38227e+08
-1.42726e+08
-1.44143e+08
-1.34123e+08
-5.1013e+07
-4.32259e+07
-4.00988e+07
-4.2972e+07
-8.14908e+07
-7.37364e+07
-5.53069e+07
-6.41736e+07
-1.89262e+08
-1.76319e+08
-1.84866e+08
-2.1908e+08
-2.25348e+08
-2.11155e+08
-9.98361e+07
-9.1737e+07
-8.779e+07
-2.27452e+07
-3.05894e+07
-3.01065e+07
-1.28814e+08
-1.26221e+08
-1.21613e+08
-4.03825e+07
-3.82472e+07
-4.23533e+07
-6.68854e+07
-8.11965e+07
-7.56702e+07
-6.271e+07
-8.11051e+07
-7.1003e+07
-5.83212e+07
-6.57777e+07
-1.66486e+08
-1.56744e+08
-1.55619e+08
-9.66997e+07
-8.8813e+07
-8.87758e+07
-8.5113e+07
-9.5953e+07
-9.60752e+07
-2.77881e+07
-5.4216e+07
-3.99348e+07
-3.67221e+07
-3.20239e+07
-3.30308e+07
-3.37296e+07
-3.97557e+07
-3.58096e+07
-3.6401e+07
-3.18853e+07
-3.39671e+07
-3.49981e+07
-3.95398e+07
-6.69067e+07
-4.26624e+07
-4.18142e+07
-6.84866e+07
-4.3644e+07
-2.12175e+07
-2.02374e+07
-1.56178e+07
-1.55803e+07
-9.9411e+07
-2.99691e+07
-1.57139e+07
-1.26154e+07
-3.09387e+07
-3.56365e+07
-6.44831e+07
-6.72317e+07
-2.90203e+07
-3.40469e+07
-2.67234e+07
-4.8136e+07
-3.68047e+07
-4.70038e+07
-4.36613e+07
-4.78621e+07
-5.85564e+07
-5.34087e+07
-5.30972e+07
-4.36793e+07
-4.81318e+07
-4.81346e+07
-2.84495e+07
-3.19846e+07
-3.06106e+07
-2.95545e+07
-3.61491e+07
-3.21763e+07
-3.4904e+07
-3.75068e+07
-3.36931e+07
-5.9735e+07
-5.33981e+07
-5.30631e+07
-4.38165e+07
-4.08105e+07
-4.62145e+07
-4.7811e+07
-4.19935e+07
-4.71715e+07
-7.78126e+07
-1.38262e+08
-1.02865e+08
-2.91273e+07
-1.49315e+08
-1.16269e+08
-1.85267e+08
-1.98838e+08
-1.43777e+08
-2.7609e+07
-3.18995e+07
-2.91255e+07
-2.37735e+07
-3.95516e+07
-2.94401e+07
-3.84819e+07
-4.83185e+07
-3.41895e+07
-5.06469e+08
-1.00329e+08
-3.07339e+08
-5.40568e+08
-4.3467e+08
-5.41548e+08
-7.09617e+07
-1.83285e+08
-2.06123e+08
-1.96929e+08
-2.36531e+08
-4.05615e+08
-4.49861e+08
-4.9745e+08
-9.87567e+07
-2.30844e+08
-2.53551e+08
-1.50389e+08
-1.66858e+08
-1.90416e+08
-2.77662e+08
-3.46929e+08
-2.65187e+08
-2.19401e+08
-3.25798e+08
-2.46584e+08
-7.72798e+07
-1.69468e+08
-1.88068e+08
-7.00104e+07
-5.429e+07
-1.17753e+08
-5.5651e+07
-1.59609e+08
-1.73385e+08
-2.00916e+08
-1.29146e+08
-2.55443e+08
-3.85484e+08
-2.92893e+08
-6.71977e+07
-2.00816e+08
-1.57994e+08
-5.41693e+07
-2.27327e+08
-1.06629e+08
-1.74588e+08
-1.29224e+08
-7.1272e+07
-1.84958e+08
-1.3023e+08
-2.17946e+08
-2.38089e+08
-1.75084e+08
-5.95623e+08
-4.36934e+08
-5.67332e+08
-5.33887e+08
-5.26776e+08
-5.51326e+08
-4.16174e+08
-4.99274e+08
-5.33291e+08
-2.11997e+08
-2.0866e+08
-2.36496e+08
-3.06789e+08
-3.53332e+08
-2.94958e+08
-2.50736e+08
-3.36991e+08
-2.77039e+08
-2.79301e+08
-2.07646e+08
-2.84795e+08
-4.33403e+08
-4.93513e+08
-4.62344e+08
-3.12019e+08
-4.58529e+08
-4.15578e+08
-3.18355e+07
-3.96899e+07
-7.32904e+07
-9.41212e+07
-8.43015e+07
-4.26327e+07
-3.97601e+07
-4.44437e+07
-1.03539e+08
-1.07786e+08
-9.75813e+07
-1.4499e+08
-1.39175e+08
-1.39809e+08
-1.30948e+08
-1.28444e+08
-1.3465e+08
-1.34542e+08
-1.29387e+08
-1.359e+08
-1.29535e+08
-1.09959e+08
-1.23654e+08
-1.42364e+08
-1.36761e+08
-1.33993e+08
-1.15583e+08
-1.30867e+08
-1.26142e+08
-5.14509e+07
-4.04236e+07
-4.25035e+07
-1.12269e+08
-1.21056e+08
-1.15968e+08
-1.14149e+08
-1.2159e+08
-1.1676e+08
-5.02424e+07
-7.98169e+07
-1.0637e+08
-1.45501e+08
-1.18664e+08
-6.39075e+07
-7.78369e+07
-6.78421e+07
-1.52482e+08
-1.47847e+08
-1.33811e+08
-1.98017e+08
-1.97645e+08
-1.91972e+08
-1.74444e+08
-1.75252e+08
-1.81473e+08
-1.89845e+08
-1.78095e+08
-1.86615e+08
-1.99242e+08
-1.71734e+08
-1.93955e+08
-2.18501e+08
-2.02162e+08
-2.06231e+08
-1.74099e+08
-1.91455e+08
-1.92278e+08
-9.81271e+07
-8.01637e+07
-8.84105e+07
-1.64698e+08
-1.71035e+08
-1.66421e+08
-1.5838e+08
-1.70305e+08
-1.6449e+08
-2.40382e+07
-3.3095e+07
-3.48212e+07
-3.58008e+07
-5.25022e+07
-4.59498e+07
-6.76617e+07
-6.3126e+07
-5.66949e+07
-1.25145e+08
-1.11222e+08
-1.17658e+08
-1.18007e+08
-1.04126e+08
-1.13256e+08
-1.02204e+08
-9.93645e+07
-1.08924e+08
-3.8206e+07
-3.93124e+07
-3.56783e+07
-1.06164e+08
-1.04048e+08
-9.81822e+07
-7.84949e+07
-9.48529e+07
-8.88055e+07
-6.04949e+07
-6.15823e+07
-6.95964e+07
-9.03589e+07
-9.45928e+07
-8.50041e+07
-7.16203e+07
-8.93782e+07
-7.93387e+07
-6.52061e+07
-7.97337e+07
-7.43634e+07
-7.62878e+07
-7.04778e+07
-8.45685e+07
-9.68979e+07
-9.68135e+07
-1.21272e+08
-1.09506e+08
-1.09149e+08
-1.65739e+08
-1.564e+08
-1.55669e+08
-1.44524e+08
-1.31948e+08
-1.44002e+08
-1.4605e+08
-1.32744e+08
-1.44557e+08
-9.46407e+07
-8.1154e+07
-8.4432e+07
-1.59905e+08
-1.54822e+08
-1.52639e+08
-1.32842e+08
-1.45054e+08
-1.43448e+08
-8.52138e+07
-9.65472e+07
-9.65432e+07
-1.0752e+08
-1.19749e+08
-1.07703e+08
-1.09347e+08
-1.20585e+08
-1.08421e+08
-6.58716e+07
-6.20841e+07
-7.58258e+07
-6.74171e+07
-6.68789e+07
-6.09206e+07
-7.29545e+07
-2.01327e+07
-1.77615e+07
-1.98102e+07
-1.99659e+07
-2.06272e+07
-1.85851e+07
-1.92866e+07
-1.89551e+07
-6.98792e+07
-2.74152e+08
-6.25853e+07
-1.10421e+08
-1.38319e+08
-1.7891e+08
-4.63163e+07
-3.00222e+07
-3.79398e+07
-2.0816e+07
-2.09246e+07
-2.08989e+07
-2.39191e+07
-1.95824e+07
-2.20568e+07
-2.22245e+07
-5.24746e+07
-5.77571e+07
-6.23276e+07
-6.00311e+07
-5.66369e+07
-5.36773e+07
-5.76845e+07
-3.16047e+07
-3.97178e+07
-4.00244e+07
-2.48497e+07
-2.43736e+07
-4.29909e+07
-4.91203e+07
-1.58087e+07
-3.30253e+08
-4.40591e+07
-3.85231e+07
-3.28356e+07
-2.22726e+07
-4.47103e+07
-2.23732e+07
-5.30965e+07
-4.44406e+08
-3.28468e+08
-2.86641e+08
-3.78073e+08
-3.53487e+08
-3.86617e+08
-4.12954e+08
-2.56807e+07
-3.95229e+07
-8.3564e+07
-5.38536e+07
-3.86264e+07
-3.29351e+07
-6.71317e+07
-6.64233e+07
-3.85527e+07
-1.44403e+08
-4.9172e+07
-1.05578e+08
-4.78783e+07
-1.08951e+08
-4.88414e+07
-1.40457e+08
-2.57756e+07
-8.33759e+07
-9.24699e+07
-3.79577e+07
-5.16551e+07
-3.53487e+07
-7.20557e+07
-4.26343e+07
-7.02846e+07
-1.98569e+08
-1.01407e+08
-1.009e+08
-1.62669e+08
-1.00872e+08
-1.64139e+08
-1.96375e+08
-3.85682e+07
-2.11935e+07
-1.91064e+07
-2.26753e+07
-2.41326e+07
-2.32378e+07
-3.16608e+07
-1.30538e+08
-4.44238e+07
-1.01649e+08
-4.66506e+07
-9.72646e+07
-1.35827e+08
-4.52199e+07
-5.76536e+07
-8.30231e+07
-1.01347e+08
-6.42083e+07
-6.09291e+07
-8.23792e+07
-6.43595e+07
-8.83419e+07
-9.38864e+07
-1.89349e+08
-9.98257e+07
-1.00424e+08
-1.6042e+08
-1.9328e+08
-9.95193e+07
-1.5751e+08
-1.46417e+07
-2.24273e+07
-2.50138e+07
-5.7529e+07
-7.65581e+07
-8.66229e+07
-2.43423e+07
-1.7832e+07
-2.24729e+07
-2.36811e+07
-2.02573e+07
-1.87501e+07
-2.12545e+07
-1.92508e+07
-4.23268e+07
-2.14847e+07
-2.7313e+07
-2.50631e+07
-2.10355e+07
-1.93337e+07
-2.94499e+07
-2.23232e+07
-3.1984e+07
-3.40464e+07
-2.92839e+07
-3.33986e+07
-3.26601e+07
-3.39725e+07
-3.14818e+07
-3.04931e+07
-3.15846e+07
-3.63161e+07
-4.1525e+07
-3.49807e+07
-3.65645e+07
-3.37258e+07
-3.75377e+07
-3.93737e+07
-1.29944e+08
-3.91788e+07
-1.10408e+08
-7.96921e+07
-8.97739e+07
-1.58624e+08
-7.36522e+07
-2.16554e+08
-4.92567e+07
-1.42733e+08
-8.82051e+07
-1.49448e+08
-1.99437e+08
-8.99214e+07
-9.10445e+07
-1.64464e+08
-2.04672e+08
-1.16679e+08
-1.54138e+08
-2.15794e+08
-1.29682e+08
-1.73401e+08
-2.52958e+08
-3.58279e+08
-2.04053e+08
-1.79409e+08
-2.6098e+08
-2.09015e+08
-3.09325e+08
-3.03904e+08
-3.53197e+07
-3.87069e+07
-1.37795e+08
-4.74208e+07
-1.10609e+08
-4.74891e+07
-1.06712e+08
-1.43293e+08
-4.60871e+07
-1.49778e+08
-5.11488e+07
-1.13299e+08
-4.85996e+07
-1.14886e+08
-1.47278e+08
-4.94322e+07
-6.23086e+07
-7.47538e+07
-1.69315e+08
-7.81637e+07
-8.37676e+07
-1.45228e+08
-7.84585e+07
-1.37138e+08
-1.78605e+08
-1.91759e+08
-9.25767e+07
-8.82826e+07
-1.51744e+08
-9.2066e+07
-1.5682e+08
-1.86066e+08
-7.5355e+07
-2.74602e+07
-5.86857e+07
-3.20738e+07
-5.26961e+07
-8.28972e+07
-3.01741e+07
-9.77127e+07
-3.37541e+07
-6.46545e+07
-3.40385e+07
-7.05445e+07
-9.03499e+07
-3.60291e+07
-6.99804e+07
-7.63306e+07
-1.39131e+08
-8.08851e+07
-8.41265e+07
-1.24227e+08
-8.10529e+07
-1.18386e+08
-1.46529e+08
-1.60719e+08
-8.97324e+07
-8.70462e+07
-1.29916e+08
-8.97738e+07
-1.3539e+08
-1.53737e+08
-3.42661e+07
-3.44111e+07
-3.42701e+07
-3.39049e+07
-3.27904e+07
-3.3648e+07
-3.42543e+07
-3.44004e+07
-3.26867e+07
-3.32604e+07
-3.36992e+07
-3.30319e+07
-3.61182e+07
-4.16918e+07
-3.78848e+07
-4.35352e+07
-3.56418e+07
-3.26453e+07
-3.5531e+07
-4.32022e+07
-3.58393e+07
-3.35507e+07
-3.27125e+07
-3.50777e+07
-7.11227e+07
-8.17618e+07
-7.21002e+07
-7.91901e+07
-6.18194e+07
-6.45911e+07
-7.68414e+07
-5.68941e+07
-7.01076e+07
-8.38046e+07
-7.62816e+07
-1.91728e+07
-1.51121e+07
-1.79735e+07
-1.73907e+07
-1.59687e+07
-1.70855e+07
-1.71602e+07
-2.01261e+07
-1.89134e+07
-1.80138e+07
-1.88931e+07
-1.68766e+07
-1.83066e+07
-1.4441e+07
-1.65294e+07
-1.59567e+07
-1.40255e+07
-1.63926e+07
-3.12966e+08
-3.86345e+07
-3.47518e+07
-7.85385e+07
-2.13736e+07
-1.29618e+08
-3.40545e+07
-3.39923e+07
-2.48605e+07
-3.14136e+07
-2.75574e+07
-1.71108e+07
-2.38936e+07
-2.34298e+07
-2.51437e+07
-3.02528e+07
-3.72154e+07
-6.67818e+07
-6.69413e+07
-6.1891e+07
-6.01015e+07
-6.53989e+07
-6.28479e+07
-6.11871e+07
-6.11733e+07
-6.34418e+07
-7.22618e+07
-7.13895e+07
-6.50184e+07
-5.88716e+07
-6.46251e+07
-6.17745e+07
-7.06975e+07
-6.61719e+07
-6.30122e+07
-6.35227e+07
-6.64797e+07
-1.81775e+07
-1.90502e+07
-2.11286e+07
-1.69588e+07
-2.03285e+07
-2.21891e+07
-2.53994e+07
-2.49414e+07
-2.54366e+07
-2.34144e+07
-2.37594e+07
-2.37566e+07
-1.95231e+07
-2.28271e+07
-2.34624e+07
-2.10443e+07
-2.18122e+07
-4.87236e+07
-5.96089e+07
-5.99734e+07
-5.28153e+07
-5.50156e+07
-4.87433e+07
-5.58468e+07
-4.64513e+07
-4.94428e+07
-4.99396e+07
-4.51838e+07
-5.33503e+07
-4.505e+07
-5.51859e+07
-4.69024e+07
-4.15903e+07
-5.07606e+07
-5.24214e+07
-5.08414e+07
-5.10342e+07
-5.27434e+07
-5.51004e+07
-5.67509e+07
-5.59084e+07
-5.78859e+07
-5.74375e+07
-5.58041e+07
-5.19666e+07
-5.04563e+07
-2.76147e+07
-2.92674e+07
-2.82904e+07
-2.83015e+07
-2.44736e+07
-2.12773e+07
-2.2861e+07
-2.41109e+07
-2.5976e+07
-2.53622e+07
-2.33833e+07
-2.68813e+07
-2.59632e+07
-2.67365e+07
-2.5863e+07
-2.71214e+07
-5.13049e+07
-4.91942e+07
-5.18914e+07
-4.92155e+07
-5.40983e+07
-5.61762e+07
-5.70131e+07
-5.12098e+07
-5.58833e+07
-5.87849e+07
-5.83257e+07
-5.56545e+07
-4.99276e+07
-4.45902e+07
-4.88718e+07
-4.74438e+07
-8.99461e+07
-6.42699e+07
-2.61995e+07
-2.43047e+07
-2.22573e+07
-5.29033e+07
-1.08353e+07
-4.73524e+07
-4.37625e+07
-8.56521e+07
-6.59588e+07
-2.5092e+07
-2.97175e+07
-2.74402e+07
-2.81526e+07
-2.36264e+07
-2.13425e+07
-2.0237e+07
-2.30604e+07
-2.30545e+07
-2.08638e+07
-2.11854e+07
-2.53627e+07
-2.57078e+07
-2.62747e+07
-2.4732e+07
-2.68546e+07
-1.62665e+09
-1.6422e+09
-1.24441e+09
-2.12181e+09
-1.67718e+09
-1.38513e+09
-2.50742e+09
-2.03691e+09
-2.73482e+09
-2.71473e+08
-2.68275e+08
-2.58989e+08
-2.84043e+08
-2.78073e+08
-2.8067e+08
-2.84319e+08
-2.9179e+08
-2.67757e+08
-2.55795e+08
-2.69521e+08
-2.52038e+08
-5.93278e+08
-9.38795e+08
-6.79057e+08
-3.17533e+08
-7.49438e+08
-3.41155e+08
-2.00703e+08
-4.20969e+08
-1.05156e+08
-3.89573e+08
-1.70475e+08
-4.73775e+08
-4.63056e+08
-1.23338e+08
-5.17255e+08
-2.13848e+08
-2.6026e+07
-3.51856e+08
-1.38648e+08
-1.16415e+08
-5.61427e+07
-3.50889e+07
-7.04321e+07
-6.64066e+07
-5.57027e+07
-3.83288e+07
-8.40567e+07
-1.21204e+08
-1.10993e+08
-9.45752e+08
-9.12628e+08
-9.21809e+08
-9.26477e+08
-8.76697e+08
-8.95189e+08
-9.65299e+08
-9.52834e+08
-8.54546e+08
-8.66814e+08
-8.45711e+08
-8.81521e+08
-3.692e+08
-3.56464e+08
-3.5195e+08
-3.74709e+08
-3.82749e+08
-3.84224e+08
-3.70627e+08
-3.53797e+08
-3.7162e+08
-3.51855e+08
-3.8157e+08
-3.83953e+08
-6.56588e+08
-6.58803e+08
-4.95021e+08
-3.62058e+08
-3.1666e+08
-4.40086e+08
-3.55022e+08
-4.31371e+08
-4.99519e+08
-6.3329e+08
-6.14204e+08
-2.77773e+07
-3.97627e+07
-1.75817e+08
-1.56146e+08
-9.81968e+07
-3.63497e+07
-8.69444e+07
-4.09881e+07
-7.74672e+07
-3.94893e+07
-1.10859e+08
-1.10141e+08
-1.33902e+08
-3.33357e+08
-3.37352e+08
-3.37797e+08
-3.32776e+08
-3.29424e+08
-3.22304e+08
-3.35433e+08
-3.4047e+08
-3.27353e+08
-3.20204e+08
-3.20489e+08
-3.27176e+08
-2.97711e+08
-2.98644e+08
-2.88445e+08
-3.07226e+08
-2.95649e+08
-2.88474e+08
-2.86215e+08
-2.65128e+08
-2.77909e+08
-2.74678e+08
-3.07115e+08
-3.14841e+08
-2.41702e+08
-2.39583e+08
-1.47502e+08
-5.02417e+07
-1.13737e+08
-4.99853e+07
-1.11695e+08
-4.95669e+07
-1.4971e+08
-2.30205e+08
-2.34978e+08
-3.4813e+07
-8.26736e+07
-2.0597e+08
-1.84672e+08
-1.11837e+08
-4.57365e+07
-5.81773e+07
-1.0258e+08
-5.03183e+07
-8.73603e+07
-1.29311e+08
-1.4004e+08
-1.62451e+08
-3.78368e+08
-3.85298e+08
-3.85563e+08
-3.78117e+08
-3.71489e+08
-3.61441e+08
-3.79824e+08
-3.88248e+08
-3.69983e+08
-3.61591e+08
-3.60786e+08
-3.70789e+08
-3.87623e+08
-3.79071e+08
-3.74287e+08
-3.91678e+08
-3.92672e+08
-3.90018e+08
-3.81108e+08
-3.60596e+08
-3.77264e+08
-3.6534e+08
-3.99418e+08
-4.01445e+08
-2.89915e+08
-2.89465e+08
-1.99701e+08
-1.00916e+08
-9.92132e+07
-1.64425e+08
-1.00333e+08
-1.64749e+08
-1.99731e+08
-2.82648e+08
-2.86075e+08
-1.01346e+08
-9.07188e+07
-4.56798e+07
-2.17935e+07
-3.51033e+07
-2.52891e+07
-2.95061e+07
-2.41255e+07
-5.29563e+07
-6.9546e+07
-7.97413e+07
-2.9351e+08
-2.82817e+08
-2.93079e+08
-2.83294e+08
-3.05193e+08
-3.13957e+08
-2.95064e+08
-2.85077e+08
-3.03487e+08
-3.12051e+08
-3.12232e+08
-3.03203e+08
-1.98846e+08
-2.07346e+08
-1.24742e+08
-4.24677e+07
-8.73583e+07
-4.18558e+07
-9.24802e+07
-4.35982e+07
-1.18469e+08
-2.2314e+08
-2.16221e+08
-1.65591e+08
-1.73559e+08
-1.62315e+08
-1.76927e+08
-1.57286e+08
-1.47286e+08
-1.68834e+08
-1.79534e+08
-1.54328e+08
-1.39794e+08
-1.43724e+08
-1.50301e+08
-6.02025e+07
-8.22135e+07
-1.58554e+08
-1.47653e+08
-1.08854e+08
-6.76127e+07
-7.11925e+07
-1.00364e+08
-6.77886e+07
-9.43307e+07
-1.16427e+08
-1.25751e+08
-1.36303e+08
-3.27926e+08
-3.17804e+08
-3.29752e+08
-3.15979e+08
-3.39809e+08
-3.51104e+08
-3.39712e+08
-3.51955e+08
-3.50468e+08
-3.41176e+08
-3.27935e+08
-3.15763e+08
-2.54774e+08
-2.62504e+08
-1.84723e+08
-9.84426e+07
-9.65551e+07
-1.49966e+08
-9.82103e+07
-1.54002e+08
-1.79445e+08
-2.76549e+08
-2.70676e+08
-1.85666e+08
-1.983e+08
-1.86136e+08
-1.97902e+08
-1.73478e+08
-1.62753e+08
-1.73358e+08
-1.61809e+08
-1.61991e+08
-1.73148e+08
-1.85972e+08
-1.97699e+08
-5.92282e+07
-3.67864e+07
-3.59096e+07
-3.62516e+07
-3.68665e+07
-3.89907e+07
-3.99545e+07
-3.68769e+07
-3.62128e+07
-3.91086e+07
-4.00378e+07
-3.87806e+07
-3.99466e+07
-3.34022e+07
-3.41915e+07
-3.37182e+07
-3.40057e+07
-3.21902e+07
-3.17987e+07
-3.24252e+07
-3.17051e+07
-3.26384e+07
-3.31419e+07
-3.27775e+07
-3.28328e+07
-3.30371e+07
-3.31902e+07
-3.36373e+07
-3.24896e+07
-3.65209e+07
-3.57258e+07
-3.67035e+07
-3.54195e+07
-3.81288e+07
-3.92516e+07
-3.96151e+07
-3.76824e+07
-3.83739e+07
-3.99597e+07
-3.86494e+07
-3.98161e+07
-3.62295e+07
-3.46089e+07
-3.51047e+07
-3.58183e+07
-3.74217e+07
-4.19399e+07
-3.73507e+07
-4.14639e+07
-3.43251e+07
-3.20789e+07
-3.2647e+07
-3.35333e+07
-3.48109e+07
-3.32521e+07
-3.51335e+07
-3.32204e+07
-3.65529e+07
-3.95397e+07
-4.06973e+07
-3.57275e+07
-6.52447e+07
-5.12566e+07
-4.87111e+07
-5.98601e+07
-8.49734e+07
-1.228e+08
-6.53812e+07
-4.70267e+07
-8.43259e+07
-1.03686e+08
-8.30567e+07
-1.14621e+08
-5.81453e+07
-4.96266e+07
-4.94043e+07
-5.95068e+07
-7.14207e+07
-8.49924e+07
-6.86556e+07
-8.72975e+07
-5.62549e+07
-4.61304e+07
-4.76999e+07
-5.4403e+07
-7.56016e+07
-9.64996e+07
-7.72621e+07
-9.3138e+07
-2.31625e+07
-1.73291e+07
-2.10435e+07
-1.92888e+07
-1.80012e+07
-1.68509e+07
-2.03008e+07
-1.85104e+07
-1.40924e+07
-1.65433e+07
-1.55298e+07
-1.4382e+07
-1.62029e+07
-1.3951e+07
-1.57849e+07
-1.54741e+07
-1.38465e+07
-1.58981e+07
-5.39455e+07
-2.22785e+07
-2.97105e+07
-4.32522e+07
-1.92195e+07
-2.94267e+07
-3.26401e+07
-2.28712e+07
-1.4361e+07
-1.68464e+07
-1.54456e+07
-1.45075e+07
-1.68192e+07
-1.40746e+07
-1.3833e+07
-1.42352e+07
-1.79206e+07
-1.60731e+07
-3.14124e+07
-3.48437e+07
-6.84225e+07
-6.79439e+07
-6.55578e+07
-6.28388e+07
-6.57816e+07
-6.27386e+07
-6.93124e+07
-6.96221e+07
-6.48088e+07
-6.18896e+07
-6.43243e+07
-6.21594e+07
-7.09804e+07
-7.11934e+07
-6.62886e+07
-6.31679e+07
-6.63061e+07
-6.30949e+07
-7.04546e+07
-7.02782e+07
-6.66574e+07
-6.31703e+07
-6.64562e+07
-6.32701e+07
-2.72961e+07
-3.11995e+07
-2.66217e+07
-2.73055e+07
-2.54067e+07
-2.8482e+07
-2.93357e+07
-2.63518e+07
-3.17851e+07
-3.1407e+07
-2.84671e+07
-2.9441e+07
-2.44249e+07
-2.52716e+07
-2.89545e+07
-2.26164e+07
-2.72576e+07
-3.90489e+07
-4.45679e+07
-4.32799e+07
-4.58253e+07
-4.20854e+07
-4.02943e+07
-4.24956e+07
-3.30594e+07
-3.43003e+07
-3.98845e+07
-3.05756e+07
-3.70557e+07
-3.57151e+07
-4.33773e+07
-4.32985e+07
-3.86596e+07
-4.00993e+07
-4.65783e+07
-4.80277e+07
-4.78064e+07
-4.63209e+07
-4.35329e+07
-4.23542e+07
-4.36429e+07
-4.22867e+07
-4.25884e+07
-4.37852e+07
-4.61893e+07
-4.75426e+07
-5.32621e+07
-5.10935e+07
-5.31213e+07
-5.10541e+07
-5.66902e+07
-5.93157e+07
-5.92671e+07
-5.6616e+07
-5.6355e+07
-5.84957e+07
-5.62603e+07
-5.87936e+07
-5.35035e+07
-5.09826e+07
-5.11879e+07
-5.34019e+07
-4.6265e+07
-4.82173e+07
-4.6409e+07
-4.82368e+07
-4.36629e+07
-4.14892e+07
-4.18759e+07
-4.33639e+07
-4.3749e+07
-4.22476e+07
-4.20259e+07
-4.38243e+07
-4.62394e+07
-4.80844e+07
-4.8296e+07
-4.59308e+07
-3.02629e+07
-3.0217e+07
-2.9313e+07
-3.11676e+07
-3.01933e+07
-3.10367e+07
-3.10221e+07
-3.00909e+07
-3.10617e+07
-3.26201e+07
-3.18641e+07
-3.18954e+07
-2.93231e+07
-2.79695e+07
-2.82195e+07
-2.90986e+07
-3.14793e+07
-3.09407e+07
-3.04126e+07
-3.23375e+07
-3.23697e+07
-3.25506e+07
-2.98109e+07
-3.39483e+07
-3.0085e+07
-2.6261e+07
-2.88001e+07
-2.86192e+07
-3.40147e+07
-3.61443e+07
-3.44155e+07
-3.53563e+07
-3.40537e+07
-3.18405e+07
-3.26798e+07
-3.31876e+07
-3.65807e+07
-3.88638e+07
-3.72313e+07
-3.82576e+07
-3.46783e+07
-3.40755e+07
-3.53392e+07
-3.33597e+07
-3.59917e+07
-3.69172e+07
-3.52326e+07
-3.77242e+07
-5.292e+07
-4.97338e+07
-5.23417e+07
-5.02247e+07
-5.64365e+07
-5.95688e+07
-5.93598e+07
-5.67081e+07
-5.63728e+07
-5.90323e+07
-5.60363e+07
-5.94484e+07
-5.30626e+07
-5.08831e+07
-5.34259e+07
-5.04766e+07
-4.33873e+07
-4.59053e+07
-4.52384e+07
-4.35298e+07
-3.85276e+07
-3.39859e+07
-3.71816e+07
-3.66523e+07
-4.16444e+07
-4.26047e+07
-4.38236e+07
-3.89008e+07
-3.99353e+07
-3.86165e+07
-3.83375e+07
-4.06652e+07
-4.47871e+07
-4.64902e+07
-4.71685e+07
-4.41835e+07
-4.25372e+07
-4.11302e+07
-4.30833e+07
-4.05441e+07
-4.51767e+07
-4.7939e+07
-4.56863e+07
-4.74726e+07
-4.21048e+07
-3.93586e+07
-4.00452e+07
-4.1354e+07
-1.14406e+08
-1.10919e+08
-8.83821e+07
-1.35853e+08
-1.32955e+08
-1.65723e+08
-1.57413e+08
-1.4394e+08
-1.40253e+08
-1.81022e+08
-1.55926e+08
-1.62288e+08
-1.10326e+08
-1.0337e+08
-8.59709e+07
-1.23132e+08
-1.33678e+08
-1.75407e+08
-9.7333e+07
-3.35995e+07
-4.3278e+07
-5.93899e+07
-6.97871e+07
-6.4562e+07
-6.6129e+07
-2.7438e+08
-2.37015e+08
-2.28207e+08
-1.57838e+08
-1.79832e+08
-2.04749e+08
-3.15516e+08
-4.02741e+08
-3.30987e+08
-3.6995e+08
-2.45846e+08
-2.22809e+08
-2.07361e+08
-2.73066e+08
-2.84984e+08
-3.21291e+08
-2.6222e+08
-3.49447e+08
-3.14124e+07
-3.2158e+07
-2.92872e+07
-3.41025e+07
-3.12948e+07
-3.12138e+07
-3.2503e+07
-3.01649e+07
-3.2956e+07
-3.79236e+07
-3.45123e+07
-3.62297e+07
-2.99271e+07
-2.7634e+07
-2.84968e+07
-2.90573e+07
-3.56746e+07
-3.21947e+07
-2.80351e+07
-3.78792e+07
-2.9593e+07
-3.24018e+07
-2.70759e+07
-4.30427e+07
-3.10963e+07
-2.30813e+07
-2.51564e+07
-2.41607e+07
-3.44698e+07
-5.55904e+07
-4.28323e+07
-5.14355e+07
-4.4917e+07
-3.5182e+07
-3.89158e+07
-4.22044e+07
-6.01398e+07
-7.83862e+07
-6.47427e+07
-7.49487e+07
-4.88315e+07
-4.41229e+07
-5.1299e+07
-4.14082e+07
-5.56475e+07
-6.37163e+07
-4.8663e+07
-6.75886e+07
-4.31538e+08
-5.73763e+08
-6.47387e+08
-3.66214e+08
-2.68706e+08
-2.15019e+08
-2.17125e+08
-1.64514e+08
-1.9233e+08
-2.25202e+08
-6.83742e+08
-1.70158e+09
-6.62928e+08
-7.61605e+08
-7.09881e+08
-6.7873e+08
-6.70377e+08
-5.98903e+08
-6.85807e+08
-6.71428e+08
-6.81838e+08
-5.83985e+08
-6.5688e+08
-5.77144e+08
-1.22317e+09
-1.39498e+09
-1.32497e+09
-1.31085e+09
-1.36288e+09
-1.10951e+09
-1.16648e+09
-1.21731e+09
-1.0181e+09
-1.25336e+09
-1.12864e+09
-1.10613e+09
-6.61944e+08
-7.47688e+08
-6.6786e+08
-7.43016e+08
-6.10727e+08
-5.15615e+08
-5.28557e+08
-5.73009e+08
-6.19451e+08
-5.58495e+08
-6.53232e+08
-5.55454e+08
-6.37513e+08
-6.97193e+08
-7.27122e+08
-6.1328e+08
-2.96667e+08
-3.61146e+08
-2.75832e+08
-3.78643e+08
-1.53402e+08
-1.26085e+08
-1.2778e+08
-1.54848e+08
-1.75467e+08
-1.42857e+08
-1.41128e+08
-1.70086e+08
-2.54993e+08
-3.1336e+08
-3.09087e+08
-2.62316e+08
-2.25881e+08
-2.5642e+08
-2.42109e+08
-2.37095e+08
-2.00543e+08
-1.85752e+08
-1.78049e+08
-2.06005e+08
-2.05415e+08
-1.99041e+08
-1.85698e+08
-2.21719e+08
-2.18432e+08
-2.41169e+08
-2.37741e+08
-2.23907e+08
-3.59806e+08
-3.11198e+08
-3.15478e+08
-3.44056e+08
-4.31858e+08
-4.87738e+08
-3.59829e+08
-3.32023e+08
-4.13461e+08
-4.77069e+08
-4.94075e+08
-4.16222e+08
-3.1924e+08
-2.91341e+08
-2.83053e+08
-3.39719e+08
-3.67596e+08
-4.15789e+08
-3.57774e+08
-4.44869e+08
-3.10527e+08
-2.48112e+08
-2.86038e+08
-2.60333e+08
-3.91275e+08
-4.75628e+08
-4.51829e+08
-3.94867e+08
-4.13645e+08
-5.1162e+08
-2.70708e+08
-6.23463e+07
-1.45777e+08
-7.62007e+07
-2.30832e+08
-2.07275e+08
-9.6211e+07
-3.68837e+08
-3.55558e+08
-7.87822e+07
-2.01231e+08
-1.77332e+08
-1.41049e+08
-7.06229e+07
-3.40572e+07
-5.06182e+07
-3.88279e+07
-5.29114e+07
-1.35408e+08
-1.73829e+08
-5.04355e+07
-8.8553e+07
-7.08833e+07
-5.02537e+07
-9.72357e+07
-9.12868e+08
-9.77705e+08
-8.17972e+08
-9.20635e+08
-9.87714e+08
-8.4551e+08
-9.86201e+08
-1.12723e+09
-9.88657e+08
-1.03206e+09
-1.08325e+09
-9.01436e+08
-5.16095e+08
-6.04923e+08
-4.7079e+08
-5.93896e+08
-5.17284e+08
-4.83836e+08
-4.61925e+08
-5.56151e+08
-4.90513e+08
-3.94385e+08
-4.24486e+08
-4.53555e+08
-5.44922e+08
-6.67685e+08
-5.83138e+08
-6.33579e+08
-2.07973e+08
-2.37516e+08
-1.85656e+08
-2.401e+08
-1.34303e+08
-1.15631e+08
-1.09529e+08
-1.38332e+08
-1.18809e+08
-8.58143e+07
-9.92821e+07
-1.15033e+08
-2.30666e+08
-2.7898e+08
-2.31354e+08
-2.69127e+08
-7.19658e+07
-1.95232e+08
-1.78922e+08
-1.64602e+08
-1.4511e+08
-1.96601e+08
-2.03837e+08
-2.40197e+08
-2.36164e+08
-2.09195e+08
-2.08301e+08
-2.52686e+08
-2.22521e+08
-2.38939e+08
-1.7474e+08
-1.4926e+08
-1.40164e+08
-1.81148e+08
-1.75627e+08
-2.28017e+08
-1.60187e+08
-9.30912e+07
-8.78016e+07
-9.86453e+07
-1.19534e+08
-1.07908e+08
-1.34509e+08
-3.51124e+08
-2.82844e+08
-2.72527e+08
-2.01631e+08
-2.27797e+08
-2.49681e+08
-3.5435e+08
-4.27915e+08
-3.6288e+08
-4.07636e+08
-2.91676e+08
-2.76643e+08
-2.54613e+08
-3.14483e+08
-3.27375e+08
-3.76134e+08
-3.12075e+08
-3.92727e+08
-7.62057e+08
-8.48497e+08
-8.6944e+08
-7.63581e+08
-6.3908e+08
-5.52796e+08
-6.44733e+08
-5.48909e+08
-6.31597e+08
-5.39941e+08
-7.89828e+08
-8.81699e+08
-8.84182e+08
-8.8447e+08
-9.09902e+08
-8.68819e+08
-7.97218e+08
-7.88901e+08
-7.72359e+08
-8.17427e+08
-8.65539e+08
-8.2072e+08
-8.40489e+08
-8.32864e+08
-8.17052e+08
-8.55489e+08
-8.32891e+08
-8.35647e+08
-7.32833e+08
-8.37669e+08
-7.37637e+08
-8.11143e+08
-6.09157e+08
-5.14285e+08
-5.16359e+08
-5.87666e+08
-6.13684e+08
-5.33263e+08
-6.32217e+08
-5.36125e+08
-7.07696e+08
-7.70573e+08
-8.00106e+08
-6.99782e+08
-3.13043e+08
-3.42613e+08
-3.34936e+08
-3.20171e+08
-2.90169e+08
-2.65393e+08
-2.61663e+08
-2.92791e+08
-2.91444e+08
-2.74913e+08
-2.64594e+08
-3.01912e+08
-3.11569e+08
-3.36854e+08
-3.35107e+08
-3.14243e+08
-4.02313e+08
-3.70387e+08
-3.82575e+08
-3.88376e+08
-4.42169e+08
-4.79829e+08
-4.29813e+08
-4.73892e+08
-4.83367e+08
-4.30537e+08
-4.06327e+08
-3.93631e+08
-3.62938e+08
-3.55026e+08
-3.39226e+08
-3.80114e+08
-3.92077e+08
-4.37283e+08
-3.86002e+08
-4.54875e+08
-3.50701e+08
-2.99937e+08
-3.30114e+08
-3.19635e+08
-4.11929e+08
-4.73539e+08
-4.59805e+08
-4.14529e+08
-6.29203e+08
-5.57137e+08
-4.14118e+08
-2.42204e+08
-2.75397e+08
-4.06352e+08
-4.64245e+08
-2.41919e+08
-3.61275e+08
-4.11483e+08
-4.90826e+08
-7.4384e+08
-7.13974e+08
-7.24891e+08
-7.25686e+08
-7.1517e+08
-7.62812e+08
-7.44371e+08
-7.26824e+08
-7.74211e+08
-7.86701e+08
-8.08552e+08
-7.65931e+08
-6.7757e+08
-6.56463e+08
-6.52781e+08
-6.94712e+08
-6.21257e+08
-6.7954e+08
-6.12318e+08
-6.95572e+08
-5.53777e+08
-4.90567e+08
-4.85355e+08
-5.773e+08
-5.36027e+08
-4.45597e+08
-4.56617e+08
-5.211e+08
-6.61004e+08
-7.53227e+08
-6.6953e+08
-7.22909e+08
-3.36822e+07
-3.93131e+07
-1.88215e+08
-1.93975e+08
-1.73708e+08
-2.08086e+08
-1.82118e+08
-1.82102e+08
-1.62598e+08
-2.00163e+08
-1.65757e+08
-1.26801e+08
-1.50515e+08
-1.4397e+08
-2.04242e+08
-2.38155e+08
-2.22449e+08
-2.20208e+08
-1.92754e+08
-2.07278e+08
-1.30594e+08
-4.52454e+07
-9.49366e+07
-4.27287e+07
-1.21663e+08
-1.01508e+08
-4.44825e+07
-2.28377e+08
-2.18799e+08
-2.41473e+08
-2.12176e+08
-2.2615e+08
-2.27318e+08
-2.68418e+08
-2.91277e+08
-2.81583e+08
-2.77477e+08
-2.54968e+08
-2.55161e+08
-2.41054e+08
-2.69458e+08
-2.54034e+08
-2.49906e+08
-2.39934e+08
-2.64348e+08
-3.42643e+08
-3.39821e+08
-3.41053e+08
-3.41559e+08
-3.46061e+08
-3.45753e+08
-3.42663e+08
-3.38855e+08
-3.40374e+08
-3.41049e+08
-3.46168e+08
-3.43658e+08
-3.2555e+08
-3.33441e+08
-3.29579e+08
-3.29658e+08
-3.14035e+08
-3.00295e+08
-3.06763e+08
-3.07883e+08
-3.19497e+08
-3.15128e+08
-3.22718e+08
-3.11496e+08
-3.20364e+08
-3.17315e+08
-3.23839e+08
-3.1363e+08
-3.32374e+08
-3.36121e+08
-3.36757e+08
-3.31455e+08
-3.22879e+08
-3.09855e+08
-3.18688e+08
-3.13622e+08
-3.30213e+08
-3.32883e+08
-3.35837e+08
-3.27481e+08
-3.24656e+08
-3.16354e+08
-3.2487e+08
-3.16563e+08
-2.64658e+08
-2.89199e+08
-2.76802e+08
-2.77712e+08
-2.3339e+08
-2.00491e+08
-2.18942e+08
-2.16429e+08
-2.48114e+08
-2.51496e+08
-2.62683e+08
-2.35567e+08
-2.50436e+08
-2.51781e+08
-2.35936e+08
-2.65716e+08
-3.25368e+08
-3.11294e+08
-3.1752e+08
-3.19439e+08
-3.3871e+08
-3.41981e+08
-3.32585e+08
-3.3365e+08
-3.37474e+08
-3.28702e+08
-3.31279e+08
-3.25294e+08
-3.03155e+08
-3.01845e+08
-2.92731e+08
-3.12075e+08
-3.04068e+08
-3.02194e+08
-2.94074e+08
-3.125e+08
-2.93239e+08
-2.68968e+08
-2.81453e+08
-2.80744e+08
-3.14248e+08
-3.27933e+08
-3.20921e+08
-3.21165e+08
-2.43283e+08
-2.42089e+08
-1.50961e+08
-5.14994e+07
-1.15024e+08
-5.01273e+07
-1.50883e+08
-1.15427e+08
-4.99243e+07
-2.34872e+08
-2.39944e+08
-2.77229e+08
-2.64936e+08
-2.6252e+08
-2.79418e+08
-2.8533e+08
-2.91388e+08
-2.97079e+08
-2.79198e+08
-2.89671e+08
-3.04954e+08
-3.02251e+08
-2.92912e+08
-2.72228e+08
-2.52652e+08
-2.57929e+08
-2.67059e+08
-2.79656e+08
-2.6625e+08
-2.65161e+08
-2.81045e+08
-2.90088e+08
-2.9833e+08
-2.85664e+08
-3.03428e+08
-2.77197e+08
-2.57236e+08
-2.71579e+08