/*--------------------------------*- C++ -*----------------------------------*\
| =========                 |                                                 |
| \\      /  F ield         | OpenFOAM: The Open Source CFD Toolbox           |
|  \\    /   O peration     | Version:  2012                                  |
|   \\  /    A nd           | Website:  www.openfoam.com                      |
|    \\/     M anipulation  |                                                 |
\*---------------------------------------------------------------------------*/
FoamFile
{
    version     2.0;
    format      ascii;
    class       volVectorField;
    location    "0.108/solid";
    object      sigmaMinDir;
}
// * * * * * * * * * * * * * * * * * * * * * * * * * * * * * * * * * * * * * //

dimensions      [1 -1 -2 0 0 0 0];


internalField   nonuniform List<vector> 
3125
(
(0.700139 0.647274 0.3014)
(0.783154 -0.620853 -0.0347933)
(0.532642 0.803052 0.267208)
(0.724744 -0.689018 0.000300956)
(0.124446 -0.26576 0.955973)
(0.610455 -0.576297 0.543348)
(0.0494931 0.997098 0.0578464)
(0.516727 0.817636 0.253897)
(0.699413 0.650126 0.296913)
(0.254455 0.959648 0.119703)
(0.0623367 0.996219 0.0605099)
(-0.549498 0.816531 0.177)
(0.356976 0.920535 0.158695)
(0.114546 -0.186366 0.97578)
(0.546876 0.529892 0.648184)
(0.895116 -0.435906 0.0935561)
(-0.657173 0.665848 0.353228)
(0.86616 -0.485299 -0.119382)
(-0.524841 0.325792 0.786385)
(-0.133019 0.974908 0.178496)
(-0.34496 0.432319 0.833128)
(0.940455 -0.220889 -0.258366)
(0.814721 -0.579068 0.0301645)
(0.635171 -0.57773 0.512626)
(-0.493218 0.864662 0.0953689)
(0.915505 0.400554 -0.0375087)
(0.673345 0.534359 0.510947)
(-0.100315 0.926979 -0.36145)
(-0.325777 0.105742 0.939515)
(-0.0537395 -0.22416 0.973069)
(-0.336855 0.123623 0.933406)
(-0.0945638 -0.0309262 0.995038)
(-0.321685 0.33049 0.887297)
(-0.0825016 -0.159789 0.983698)
(0.0886047 -0.449117 0.889069)
(0.915941 0.394886 -0.0715323)
(-0.104953 0.917894 -0.382694)
(0.892994 0.327357 -0.308866)
(-0.0349986 -0.146294 0.988622)
(-0.0536893 -0.224083 0.97309)
(-0.0358256 -0.138434 0.989723)
(-0.0689375 -0.0579263 0.995938)
(-0.0806779 -0.162443 0.983414)
(0.128424 -0.236478 0.963112)
(0.0996787 -0.231601 0.967691)
(0.0730294 -0.385414 0.919849)
(-0.0317769 -0.134444 0.990412)
(-0.0304492 -0.131093 0.990902)
(-0.0369626 0.99552 0.0870244)
(-0.16067 0.98547 0.0550841)
(0.0266578 0.992168 0.12203)
(-0.329772 0.912724 0.241215)
(0.171009 0.92707 0.333612)
(0.383881 0.901715 0.19886)
(0.638282 0.605601 0.47523)
(0.390471 0.917638 0.073977)
(0.668502 0.54716 0.503707)
(0.351521 -0.483305 0.801779)
(0.388625 -0.505131 0.770593)
(-0.20722 0.97714 0.0475017)
(-0.173648 0.983757 0.0454813)
(0.559596 0.791552 0.245556)
(0.569813 0.782566 0.250806)
(-0.201217 0.978319 0.0490213)
(-0.176138 0.982947 0.0528188)
(0.0481693 0.994866 0.0890074)
(0.106828 0.991751 0.0708426)
(-0.104489 0.99304 0.0543533)
(-0.161836 0.985685 0.0472643)
(0.09153 0.99357 0.0666414)
(-0.124211 0.99091 0.0516592)
(0.283534 0.647829 0.707055)
(-0.187425 0.373057 0.908681)
(0.0769344 0.389009 0.918016)
(0.126165 0.984227 0.124013)
(0.586351 0.741495 0.326157)
(0.262814 0.907269 0.328317)
(-0.366894 0.898165 0.242255)
(0.195655 0.322265 0.92621)
(-0.0129269 -0.078085 0.996863)
(0.0776185 0.331691 0.94019)
(0.22459 0.895099 0.385171)
(0.39189 0.591917 0.704313)
(0.239981 0.407495 0.881111)
(0.122865 0.395632 0.910153)
(-0.0666088 0.244271 0.967417)
(0.666538 0.648083 0.368395)
(0.147383 -0.473273 0.868499)
(0.0414175 0.32011 0.946475)
(0.325242 0.867857 0.375556)
(0.935519 0.351528 -0.0350968)
(0.925653 0.374289 -0.0554403)
(-0.448567 0.456767 0.768213)
(-0.511392 0.852412 0.108959)
(-0.416974 0.783606 0.460538)
(-0.247803 0.805152 0.538817)
(-0.205275 0.965314 0.161344)
(-0.355116 0.822868 0.4436)
(-0.424798 0.451818 0.784479)
(-0.291418 0.748733 0.595378)
(-0.382598 0.772472 0.50686)
(-0.516611 0.851872 0.0861749)
(-0.237642 0.960634 0.143904)
(-0.388634 0.829941 0.400202)
(0.777674 -0.559103 0.28745)
(0.764117 -0.562669 0.31548)
(0.443955 0.715453 0.539473)
(-0.0953818 0.976632 -0.192595)
(0.941275 -0.330963 0.0668239)
(0.90001 0.424962 0.096902)
(0.998422 -0.046984 0.0307564)
(0.988586 0.11763 0.0941351)
(0.568773 0.614688 0.546494)
(0.880736 0.444238 0.164187)
(0.966257 0.214633 0.142409)
(-0.0877077 0.972361 -0.216385)
(0.736756 -0.671253 0.0813038)
(0.88389 -0.464358 0.0557726)
(-0.0582644 -0.203178 0.977407)
(-0.056795 -0.208313 0.976412)
(-0.39339 0.321917 0.86117)
(-0.105419 -0.116367 0.987596)
(-0.22373 0.0732041 0.971898)
(-0.181756 0.0718051 0.980719)
(-0.116491 -0.0405895 0.992362)
(-0.196257 0.0483732 0.979359)
(-0.383527 0.330802 0.862251)
(-0.215696 0.118563 0.969236)
(-0.233568 0.0935537 0.967829)
(-0.100474 -0.125024 0.987053)
(-0.117766 -0.0510206 0.99173)
(-0.187982 0.0301665 0.981709)
(-0.136602 0.785231 -0.603947)
(0.991109 -0.109433 -0.0756847)
(0.734021 -0.66624 0.131671)
(0.997582 -0.0670362 0.0183565)
(0.91455 0.369451 -0.164634)
(0.99926 0.00522725 -0.0381017)
(-0.135044 0.811521 -0.568504)
(0.710005 -0.697833 0.0944491)
(0.707868 -0.69479 0.127243)
(0.939772 0.247193 -0.23606)
(0.912675 0.358487 -0.196242)
(0.995701 0.0601818 -0.0704098)
(-0.0495372 -0.203216 0.97788)
(-0.0503634 -0.208023 0.976826)
(-0.0635111 -0.166449 0.984003)
(0.0261821 -0.169578 0.985169)
(-0.0378351 -0.129106 0.990909)
(-0.0960627 -0.0617981 0.993455)
(0.00620809 -0.131125 0.991346)
(-0.0394893 -0.115228 0.992554)
(-0.0662551 -0.167591 0.983628)
(-0.100764 -0.0697362 0.992463)
(-0.0543326 -0.115539 0.991816)
(0.056043 -0.183314 0.981456)
(0.0329715 -0.155337 0.987311)
(-0.0195008 -0.131656 0.991104)
(-0.25908 0.961538 0.0912237)
(-0.2736 0.95891 0.0750663)
(-0.238257 0.963527 0.121859)
(-0.411109 0.900749 0.140147)
(-0.198833 0.964023 0.176423)
(0.685891 0.0568339 0.725481)
(-0.0538307 0.943451 0.327113)
(0.647081 0.366996 0.668282)
(0.570482 0.748703 0.337631)
(0.607149 0.446128 0.657526)
(-0.00222658 0.900387 -0.435084)
(0.810376 -0.41524 0.41336)
(-0.358114 0.675676 -0.644372)
(0.21049 -0.368227 0.905595)
(0.525919 -0.561125 0.639178)
(-0.262205 0.963529 0.053493)
(-0.082676 0.995539 0.0454594)
(0.660651 0.318791 0.679642)
(0.51325 0.825259 0.235632)
(0.683594 0.198799 0.702267)
(0.685839 0.0603466 0.725247)
(0.632266 0.7246 0.274216)
(0.688678 0.075064 0.721171)
(-0.268584 0.961661 0.0554067)
(-0.273241 0.960251 0.0570786)
(0.175574 0.978839 0.105111)
(0.17855 0.979452 0.093775)
(0.0905485 0.99258 0.081159)
(-0.0639972 0.996763 0.0486709)
(0.0720418 0.995456 0.0622724)
(-0.0486416 0.997519 0.0508975)
(-0.248367 0.733314 0.632902)
(-0.42755 0.700859 0.570962)
(-0.213167 0.658881 0.721412)
(0.277798 0.949954 0.142887)
(0.456342 0.864917 0.208974)
(0.365766 0.909239 0.198745)
(0.845596 -0.505202 -0.172448)
(0.276791 -0.587394 0.760496)
(0.120885 -0.00475075 0.992655)
(0.275331 -0.200902 0.940123)
(0.420519 0.543299 0.726629)
(0.51746 0.529497 0.672212)
(0.422272 0.498671 0.756977)
(0.389605 0.4933 0.777729)
(-0.537253 0.619177 -0.572695)
(0.969716 0.129496 0.207078)
(-0.438527 0.854053 -0.2798)
(-0.306935 0.833204 0.459958)
(0.662167 0.338934 0.668325)
(0.994786 -0.0750368 -0.0690677)
(0.793008 0.55445 -0.252434)
(-0.369091 0.576101 0.7293)
(-0.580604 0.774607 0.250765)
(-0.409695 0.706763 0.576746)
(-0.125835 0.977448 0.16959)
(-0.16683 0.969354 0.180335)
(-0.200352 0.965182 0.168172)
(-0.378797 0.436874 0.815876)
(-0.35003 0.544727 0.76207)
(-0.384776 0.551484 0.740144)
(-0.39194 0.916634 -0.0785202)
(-0.652067 0.734463 0.188077)
(-0.522804 0.832864 0.181695)
(0.818977 -0.550372 0.16238)
(0.698578 -0.575137 0.425683)
(-0.305083 0.738527 0.60125)
(-0.217799 0.973665 -0.0673806)
(0.678863 -0.671553 -0.296919)
(0.913871 0.406004 0.000285956)
(0.956866 0.289902 -0.0190772)
(0.955168 0.295709 0.0145151)
(0.659533 0.531626 0.531403)
(0.777503 0.508341 0.370242)
(0.786455 0.486209 0.380905)
(-0.0878028 0.949733 -0.300495)
(0.733105 -0.590327 0.337744)
(0.968694 -0.229504 0.094658)
(-0.0792637 -0.16678 0.982803)
(-0.0543744 -0.220912 0.973777)
(-0.333894 0.536891 0.774767)
(-0.151453 -0.0560325 0.986875)
(-0.283867 0.263569 0.921928)
(-0.12153 -0.00116164 0.992587)
(-0.104457 -0.0308222 0.994052)
(-0.131604 -0.00253152 0.991299)
(-0.351366 0.331977 0.875405)
(-0.288405 0.24515 0.925594)
(-0.312711 0.243911 0.917997)
(-0.0883611 -0.148893 0.984898)
(-0.123471 -0.182608 0.975402)
(-0.132452 -0.0897852 0.987114)
(0.124016 -0.627294 0.768845)
(0.0791833 -0.576775 0.813056)
(0.123518 -0.650883 0.749062)
(0.956511 0.287438 -0.0496524)
(0.915847 0.38801 -0.103305)
(0.954802 0.28661 -0.0787933)
(-0.120082 0.88391 -0.451978)
(0.877743 -0.419253 0.231938)
(-0.376568 0.7689 -0.51671)
(0.911388 0.28877 -0.29323)
(0.902775 0.33704 -0.26721)
(0.925946 0.286599 -0.245938)
(-0.0432132 -0.175989 0.983443)
(-0.0528402 -0.220653 0.97392)
(-0.0499277 -0.154973 0.986656)
(-0.0284902 -0.257792 0.96578)
(-0.0434101 -0.236525 0.970655)
(-0.0790646 -0.0561215 0.995288)
(-0.0440348 -0.0831001 0.995568)
(-0.0547341 -0.0793983 0.995339)
(-0.075182 -0.167396 0.983019)
(-0.106744 -0.156458 0.981899)
(-0.101998 -0.221636 0.96978)
(0.112606 -0.215369 0.970019)
(0.0934055 -0.207413 0.973784)
(0.0781077 -0.190199 0.978634)
(0.0459983 -0.528953 0.847404)
(-0.0136847 -0.239587 0.970778)
(-0.28147 0.957512 0.062808)
(-0.279949 0.957672 0.0670306)
(-0.14088 0.986094 0.0881545)
(-0.0937115 0.993247 0.0684051)
(-0.178504 0.981413 0.0704557)
(-0.217478 0.974343 0.0579598)
(-0.13486 0.989077 0.0594893)
(-0.203195 0.977168 0.0620863)
(-0.0940278 0.98804 0.122213)
(0.0881846 0.979266 0.182378)
(-0.033369 0.982627 0.182567)
(-0.406832 0.895614 0.179898)
(-0.0494867 0.942421 0.330747)
(-0.154339 0.958106 0.241273)
(0.144831 0.957534 0.249304)
(0.104409 0.934318 0.340806)
(0.0319523 0.967269 0.251734)
(0.130391 0.930487 0.342334)
(0.597858 0.71161 0.369023)
(0.601688 0.354734 0.715636)
(0.598709 0.446894 0.664706)
(0.151667 0.90053 -0.407483)
(0.87386 -0.0278694 0.485379)
(0.61169 0.284979 0.737985)
(0.572948 -0.383084 0.724553)
(0.243894 -0.400444 0.883267)
(0.493518 -0.551582 0.672456)
(-0.231795 0.971466 0.0502501)
(-0.128691 0.990664 0.0449815)
(0.519295 0.821145 0.236757)
(0.690287 0.114147 0.714475)
(0.68784 0.167369 0.706303)
(0.627207 0.730803 0.26933)
(0.690872 0.103079 0.715591)
(0.688776 0.0794993 0.720603)
(-0.280012 0.958096 0.0603728)
(-0.277118 0.959045 0.0586347)
(-0.232057 0.971321 0.0518212)
(-0.194229 0.979669 0.0502378)
(-0.230883 0.971529 0.0531349)
(-0.224876 0.972789 0.055783)
(-0.186353 0.981137 0.0514079)
(-0.228758 0.971965 0.0543561)
(0.119569 0.988269 0.0950153)
(-0.0219828 0.997344 0.0694358)
(0.0414608 0.996407 0.0738456)
(0.132026 0.988109 0.0788044)
(0.00110259 0.9982 0.0599624)
(0.0340575 0.997141 0.0674573)
(-0.0727591 0.995574 0.0594836)
(-0.0459919 0.997359 0.0562168)
(-0.0128734 0.997971 0.0623572)
(-0.11176 0.992606 0.0473573)
(-0.150072 0.987478 0.0486322)
(-0.0965808 0.994114 0.0490906)
(0.0809627 0.994651 0.0641413)
(-0.0196587 0.998248 0.0558019)
(-0.0348573 0.997978 0.0531524)
(-0.138188 0.989143 0.0500014)
(-0.066975 0.996351 0.0529007)
(-0.0825038 0.995293 0.0508355)
(0.0486603 0.7425 0.668076)
(0.184922 0.541896 0.819849)
(0.0426441 0.573316 0.818224)
(-0.336411 0.625769 0.703733)
(-0.216696 0.58044 0.784941)
(-0.202801 0.647577 0.734517)
(0.12277 0.448123 0.885502)
(0.00833817 0.367686 0.929913)
(0.0158889 0.4467 0.894543)
(0.210056 0.968922 0.130638)
(0.192596 0.964191 0.182327)
(0.286471 0.93963 0.187162)
(0.543776 0.796879 0.263234)
(0.463108 0.817437 0.342531)
(0.444652 0.856164 0.263188)
(0.253151 0.935477 0.246573)
(0.369582 0.868586 0.330103)
(0.357349 0.899691 0.250714)
(0.0191187 0.999814 -0.00269682)
(0.0507014 0.925488 0.375369)
(0.187671 0.826114 0.531333)
(0.0347007 0.579006 0.814585)
(0.146953 0.328053 0.933159)
(-0.0040347 0.505967 0.862543)
(0.0259463 0.0492922 0.998447)
(0.0726715 0.0961428 0.992711)
(0.206171 0.460617 0.863322)
(0.125967 0.0908753 0.987863)
(0.216367 0.494568 0.841777)
(0.108796 0.337153 0.935142)
(0.00431836 0.48753 0.873096)
(0.0108727 0.484934 0.874483)
(0.156161 0.90448 0.3969)
(0.162295 0.782612 0.600982)
(0.134165 0.796257 0.589894)
(0.463202 0.555213 0.690784)
(0.266306 0.520737 0.811119)
(0.333112 0.505216 0.796111)
(0.327801 0.447606 0.831983)
(0.213023 0.399145 0.891798)
(0.296701 0.439261 0.84795)
(0.186917 0.444915 0.87585)
(0.166384 0.39933 0.901583)
(0.243861 0.44232 0.863067)
(0.545441 -0.550649 0.631887)
(-0.229571 0.581338 0.780605)
(-0.268674 0.692981 0.669023)
(0.551124 0.662904 0.506776)
(0.554597 0.733658 0.392644)
(0.441061 0.729625 0.522602)
(-0.107163 0.714345 -0.69154)
(0.124374 -0.0128706 0.992152)
(0.246133 0.452188 0.857289)
(-0.140046 0.0499219 0.988886)
(0.42934 0.427209 0.795714)
(-0.0367072 0.29349 0.955257)
(-0.00179671 0.487814 0.872946)
(-0.0245106 0.428906 0.903017)
(0.455612 0.807329 0.375016)
(0.206785 0.779465 0.591332)
(0.319575 0.763425 0.561297)
(0.979129 0.20116 -0.0290149)
(0.903178 0.388527 -0.18253)
(-0.456358 0.468608 0.756402)
(-0.469001 0.593215 0.65432)
(-0.494201 0.632632 0.596274)
(-0.543223 0.815816 0.198376)
(-0.49206 0.748242 0.444984)
(-0.429144 0.721662 0.543175)
(-0.454827 0.702892 0.546878)
(-0.458173 0.805524 0.375777)
(-0.484632 0.740647 0.465376)
(-0.166646 0.891931 0.420343)
(-0.301993 0.800096 0.518312)
(-0.254442 0.876928 0.407746)
(-0.17661 0.969325 0.170934)
(-0.223079 0.965912 0.13134)
(-0.205871 0.966857 0.151013)
(-0.327584 0.813304 0.480859)
(-0.278128 0.899458 0.337075)
(-0.263001 0.891381 0.369147)
(-0.401303 0.445433 0.800341)
(-0.437753 0.578033 0.688658)
(-0.409278 0.564988 0.716436)
(-0.332161 0.654174 0.679504)
(-0.324498 0.752174 0.573529)
(-0.366255 0.66001 0.65593)
(-0.421765 0.68706 0.591661)
(-0.351577 0.762309 0.543396)
(-0.391626 0.673421 0.627004)
(-0.484831 0.874553 -0.00981386)
(-0.503796 0.750704 0.427355)
(-0.551912 0.792893 0.258288)
(-0.312373 0.943524 0.11039)
(-0.237861 0.965856 0.102684)
(-0.350339 0.934485 0.0632526)
(-0.439325 0.838742 0.321722)
(-0.299838 0.905249 0.301032)
(-0.39473 0.887096 0.239267)
(0.811265 -0.550625 0.196626)
(0.716933 -0.572568 0.397709)
(-0.134111 0.896339 0.422601)
(0.794833 0.508319 0.331439)
(0.840105 -0.541326 -0.034489)
(-0.163624 0.980894 -0.105235)
(0.973332 -0.224213 0.0485012)
(0.813103 -0.536967 -0.224787)
(0.987995 -0.0965734 0.120576)
(0.858504 -0.51064 0.0470882)
(0.876861 -0.480049 0.0258418)
(0.909596 0.413159 0.0439784)
(0.938088 0.331004 0.102117)
(0.949854 0.308067 0.0536002)
(0.974353 0.225023 -0.000295627)
(0.998945 -0.00915805 0.0449985)
(0.971806 0.234135 0.0278177)
(0.952751 0.285644 0.103307)
(0.99691 0.0448119 0.0645158)
(0.96559 0.252835 0.060914)
(0.621764 0.56458 0.542825)
(0.772467 0.518293 0.366971)
(0.774881 0.504531 0.380799)
(0.843698 0.473375 0.253158)
(0.914658 0.368307 0.166587)
(0.869086 0.42285 0.256684)
(0.907691 0.353206 0.226591)
(0.927059 0.33787 0.162498)
(0.874726 0.41464 0.250855)
(-0.0855081 0.956093 -0.280313)
(0.974198 -0.224996 0.0177276)
(0.951334 -0.272556 0.143792)
(0.712224 -0.692934 0.11216)
(0.776348 -0.626536 0.068819)
(0.744961 -0.660221 0.0956123)
(0.824084 -0.562926 0.0632433)
(0.826884 -0.559259 0.0590956)
(0.78388 -0.615836 0.0792402)
(-0.0697671 -0.179707 0.981243)
(-0.0545506 -0.218791 0.974246)
(-0.371163 0.297719 0.879546)
(-0.327882 0.212263 0.920564)
(-0.288919 0.172421 0.941699)
(-0.132984 -0.0774686 0.988086)
(-0.199941 0.0106877 0.97975)
(-0.243798 0.244361 0.938536)
(-0.269793 0.131464 0.953902)
(-0.190497 0.038964 0.980914)
(-0.230176 0.0918475 0.968805)
(-0.150429 0.0325702 0.988084)
(-0.194273 0.0684499 0.978556)
(-0.161312 0.0300063 0.986447)
(-0.111852 -0.0342371 0.993135)
(-0.139185 -0.0161891 0.990134)
(-0.137193 -0.00766192 0.990515)
(-0.198068 0.0607797 0.978302)
(-0.165312 0.0127904 0.986158)
(-0.165594 0.0233978 0.985916)
(-0.368856 0.33372 0.867511)
(-0.330317 0.230255 0.915354)
(-0.324376 0.240126 0.914942)
(-0.251807 0.175326 0.951764)
(-0.230942 0.115 0.966147)
(-0.271017 0.172396 0.947011)
(-0.278437 0.152435 0.948281)
(-0.235509 0.107048 0.965959)
(-0.278126 0.165502 0.946179)
(-0.0907095 -0.144079 0.9854)
(-0.173053 0.0272156 0.984536)
(-0.15221 -0.115703 0.981552)
(-0.114676 -0.0644341 0.991311)
(-0.137027 -0.0291731 0.990138)
(-0.127324 -0.0468688 0.990753)
(-0.162926 0.00203793 0.986636)
(-0.159856 -0.00282956 0.987136)
(-0.142825 -0.0253873 0.989422)
(0.130511 -0.676187 0.725078)
(-0.236807 0.733001 -0.637677)
(0.146858 -0.681921 0.716531)
(-0.570082 0.764742 -0.300294)
(0.859282 -0.502891 0.0934579)
(-0.619912 0.743859 -0.249767)
(-0.645052 0.738159 -0.197555)
(0.778023 -0.615291 0.126878)
(-0.637508 0.738444 -0.219737)
(0.97463 0.2223 -0.0260703)
(0.997931 -0.0641297 0.00453861)
(0.973229 0.224055 -0.0512293)
(0.915466 0.379434 -0.133983)
(0.948432 0.285511 -0.137696)
(0.952136 0.286045 -0.107775)
(0.999139 -0.039236 -0.0134978)
(0.96631 0.234967 -0.10505)
(0.970462 0.228581 -0.0771604)
(-0.124614 0.869468 -0.478013)
(-0.227994 0.749734 -0.621222)
(-0.491651 0.721367 -0.487759)
(-0.687043 0.715151 -0.128573)
(-0.696798 0.709229 -0.107088)
(-0.669727 0.728334 -0.144895)
(-0.651167 0.737613 -0.17863)
(-0.696038 0.708185 -0.118343)
(-0.658502 0.735069 -0.161397)
(0.920481 0.281786 -0.270761)
(0.968486 0.185206 -0.166535)
(0.938912 0.267178 -0.216935)
(0.909028 0.347489 -0.230043)
(0.943373 0.285031 -0.169718)
(0.936176 0.285354 -0.205299)
(0.986188 0.121627 -0.112429)
(0.960305 0.24335 -0.136364)
(0.95153 0.254299 -0.172984)
(-0.0450401 -0.184136 0.981868)
(-0.0525033 -0.218353 0.974457)
(-0.0539196 -0.158807 0.985836)
(-0.0666544 -0.222939 0.972551)
(-0.0586935 -0.256395 0.964788)
(-0.014293 -0.150514 0.988505)
(0.001441 -0.155759 0.987794)
(-0.033179 -0.141943 0.989319)
(-0.0617714 -0.124076 0.990348)
(-0.0195611 -0.142386 0.989618)
(-0.0487571 -0.133214 0.989887)
(-0.088591 -0.0576732 0.994397)
(-0.0769757 -0.0808303 0.993751)
(-0.066579 -0.0789682 0.994651)
(-0.0192108 -0.107254 0.994046)
(-0.00619648 -0.122968 0.992391)
(-0.0306787 -0.101449 0.994368)
(-0.0583684 -0.0984303 0.993431)
(-0.0230633 -0.118172 0.992725)
(-0.0449929 -0.0989155 0.994078)
(-0.0731152 -0.168202 0.983037)
(-0.0817426 -0.244894 0.966098)
(-0.0864954 -0.197425 0.976495)
(-0.103678 -0.0792722 0.991447)
(-0.0850631 -0.0863088 0.99263)
(-0.0935561 -0.0922071 0.991335)
(-0.0732072 -0.114309 0.990744)
(-0.0698168 -0.10139 0.992394)
(-0.0835649 -0.103757 0.991086)
(0.0853193 -0.198985 0.976281)
(0.0272185 -0.165242 0.985877)
(0.0532356 -0.177168 0.98274)
(0.0617596 -0.180551 0.981625)
(0.0195863 -0.144538 0.989305)
(0.0473489 -0.166758 0.98486)
(0.00238941 -0.148175 0.988958)
(5.51764e-05 -0.137277 0.990533)
(0.0251356 -0.156777 0.987314)
(-0.0152483 0.998896 0.0444406)
(-0.0861999 0.996146 0.0162121)
(0.737169 0.599335 0.312055)
(0.739725 0.561087 0.371468)
(-0.0999593 0.994942 0.00994517)
(-0.0124734 0.998902 0.0451662)
(0.754891 0.534879 0.379531)
(-0.691852 0.711297 0.124087)
(0.21762 0.963386 0.156617)
(0.57388 0.756375 0.313941)
(0.168249 0.979237 0.113077)
(0.540398 0.791327 0.285958)
(0.162417 0.978238 0.129115)
(0.248316 0.957921 0.143965)
(0.587282 0.738436 0.33138)
(0.790848 -0.121993 -0.599731)
(-0.635126 0.742253 -0.213718)
(0.830662 0.158728 -0.533672)
(-0.668658 0.731744 0.132086)
(0.921563 -0.30577 -0.239221)
(-0.568318 0.81252 0.129715)
(0.778668 -0.00800988 -0.627385)
(0.150363 -0.300756 0.941773)
(0.584262 -0.573178 0.574547)
(0.0818799 0.992532 0.0904248)
(0.562468 0.769881 0.301518)
(0.107682 0.989999 0.0911453)
(0.513228 0.822815 0.244076)
(0.114886 0.987678 0.106275)
(0.0507746 0.996336 0.0688198)
(0.553134 0.780152 0.292242)
(-0.0103527 0.998889 0.045975)
(-0.0908729 0.99578 0.0128451)
(0.719839 0.592431 0.361742)
(0.665104 0.689206 0.287456)
(-0.00859616 0.998911 0.0458629)
(-0.080611 0.99658 0.018152)
(0.707129 0.611336 0.355298)
(0.94963 -0.182092 0.255039)
(0.897267 -0.434023 0.0808491)
(-0.43218 0.787218 0.439896)
(-0.553952 0.782228 0.285054)
(0.871141 -0.486175 0.0689073)
(-0.362273 0.75994 0.539675)
(0.951607 -0.266236 0.153501)
(0.7231 -0.659629 -0.204979)
(-0.640092 0.744467 -0.189872)
(-0.673396 0.217954 0.706424)
(-0.440012 0.50326 0.74372)
(-0.372566 -0.0729392 0.925135)
(0.646626 -0.562964 -0.514729)
(-0.490813 0.616078 0.616077)
(0.746394 -0.0713707 -0.661667)
(-0.450627 0.0764373 0.889434)
(-0.484022 0.874649 -0.0266925)
(-0.426299 0.880385 -0.207826)
(0.80272 -0.550874 -0.228425)
(-0.65367 0.74904 0.107954)
(-0.45212 0.885246 -0.109208)
(-0.610556 0.791906 -0.0103278)
(-0.585872 0.800592 0.125725)
(0.823878 -0.560926 0.08116)
(0.657938 -0.577891 0.482866)
(0.949288 -0.292456 0.115422)
(0.919499 -0.383104 0.0880469)
(-0.517085 0.790034 0.329349)
(-0.396952 0.917316 0.030991)
(0.94979 -0.286499 0.125767)
(0.935043 -0.341948 0.0936291)
(-0.598396 0.769752 0.222272)
(0.92742 -0.348634 0.135452)
(-0.095583 0.935267 -0.340793)
(0.958081 -0.238905 0.15813)
(-0.374911 0.862482 -0.33995)
(0.959951 -0.234948 0.152622)
(-0.394881 0.862637 -0.316112)
(0.925475 -0.352448 0.13884)
(-0.140437 -0.104259 0.984585)
(-0.0539736 -0.223557 0.973195)
(-0.236198 -0.00511123 0.971692)
(-0.367544 0.365847 0.855025)
(-0.232643 -0.0714045 0.969938)
(-0.233532 0.0256967 0.97201)
(-0.309993 0.020411 0.95052)
(-0.297519 0.239899 0.924084)
(-0.176471 -0.0685675 0.981915)
(-0.104106 -0.0681569 0.992228)
(-0.0843475 -0.156645 0.984047)
(-0.0929157 -0.150999 0.984157)
(-0.101152 -0.0817757 0.991504)
(-0.0958827 -0.144396 0.984864)
(-0.101507 -0.0809315 0.991537)
(-0.102592 -0.0699272 0.992263)
(0.878846 -0.423158 0.22038)
(0.102189 -0.512737 0.852443)
(0.84214 -0.356433 0.404666)
(0.121968 -0.526159 0.841594)
(0.869793 -0.346281 0.351495)
(0.144431 -0.576857 0.803975)
(0.871908 -0.430113 0.23405)
(0.92065 -0.362029 0.146073)
(-0.110112 0.90783 -0.404624)
(0.955473 -0.245317 0.163985)
(-0.356653 0.860615 -0.363512)
(0.953199 -0.250112 0.169872)
(0.922576 -0.358502 0.142581)
(-0.341895 0.856325 -0.387061)
(-0.038262 -0.157304 0.986809)
(-0.0533972 -0.223471 0.973247)
(-0.0614884 -0.075125 0.995277)
(-0.0411396 -0.144872 0.988595)
(-0.0343789 -0.170274 0.984797)
(-0.0656598 -0.0668222 0.995602)
(-0.040634 -0.173737 0.983953)
(-0.0716119 -0.0705626 0.994933)
(-0.054197 -0.0733101 0.995835)
(-0.0998467 -0.072976 0.992323)
(-0.0788868 -0.164526 0.983213)
(-0.0899914 -0.15677 0.983527)
(-0.100733 -0.0825751 0.991481)
(-0.101275 -0.0715649 0.992281)
(-0.0873322 -0.161773 0.982956)
(-0.100247 -0.0831536 0.991482)
(0.787026 -0.374509 0.490238)
(0.0986307 -0.472073 0.876025)
(0.861339 -0.440084 0.253815)
(-0.0282085 -0.165666 0.985778)
(-0.0590936 -0.0626477 0.996285)
(-0.0466602 -0.0708332 0.996396)
(0.302486 0.911821 0.27764)
(0.618113 0.705277 0.347161)
(0.646946 0.626137 0.435217)
(0.646272 0.698507 0.307277)
(0.686889 0.524015 0.503579)
(0.667591 0.63981 0.380743)
(0.634879 0.719774 0.280811)
(0.67336 0.5713 0.469258)
(0.447122 0.893971 -0.0299494)
(0.792356 0.431155 0.431599)
(0.729854 0.418563 0.54048)
(0.739973 0.589369 0.324167)
(0.714985 0.452296 0.533127)
(0.729851 0.541179 0.417664)
(0.736541 0.565173 0.3716)
(0.755021 0.354333 0.551716)
(0.315039 -0.458336 0.831071)
(0.424698 -0.523734 0.738467)
(0.011004 0.998427 0.0549847)
(0.539927 0.806329 0.24148)
(-0.0618537 0.997818 0.0231086)
(0.590832 0.749171 0.299435)
(0.0100074 0.998555 0.0527966)
(-0.0482784 0.998364 0.0306302)
(0.576528 0.762374 0.293942)
(0.00150595 0.998744 0.0500733)
(0.593023 0.763028 0.257122)
(-0.0592143 0.997919 0.0255035)
(0.610856 0.729285 0.308218)
(0.00475869 0.99869 0.0509403)
(-0.0738807 0.997081 0.0192765)
(0.624991 0.714232 0.315055)
(0.076117 0.095679 0.992498)
(-0.208539 0.453213 0.866666)
(0.0383094 0.029106 0.998842)
(-0.218841 0.497074 0.839658)
(0.0209839 0.0431017 0.99885)
(0.0720205 0.0734688 0.994694)
(-0.211493 0.535426 0.817673)
(0.0842412 0.0248458 0.996136)
(-0.0301065 0.0893339 0.995547)
(0.0504182 -0.0134548 0.998638)
(-0.192847 0.446801 0.873601)
(0.0911521 -0.0220054 0.995594)
(0.0858474 0.0457655 0.995257)
(-0.254937 0.416256 0.872776)
(0.939328 0.342091 -0.02524)
(0.930611 0.357639 -0.0778327)
(0.706358 -0.695307 -0.132689)
(-0.511454 0.848875 0.133516)
(-0.580859 0.776056 0.245641)
(0.740953 -0.669267 -0.0554103)
(-0.567561 0.775775 0.275767)
(0.744762 -0.664534 -0.0610188)
(-0.684673 0.719587 0.115832)
(-0.642288 0.760599 0.0946336)
(-0.529001 0.846155 0.0646484)
(-0.593868 0.774355 0.218391)
(0.747496 -0.662078 -0.0538649)
(-0.601732 0.774282 0.195977)
(0.730073 -0.681375 -0.0521656)
(-0.671489 0.733571 0.104767)
(0.790158 -0.555668 0.258619)
(0.749509 -0.566193 0.343018)
(0.943646 -0.311227 0.112564)
(-0.108005 0.980083 -0.166648)
(0.966119 -0.228838 0.119364)
(-0.639793 0.759321 -0.118729)
(0.964816 -0.23639 0.115112)
(0.94253 -0.31384 0.114641)
(-0.676621 0.731706 -0.0824037)
(0.938847 -0.322854 0.119716)
(-0.0848202 0.967393 -0.238653)
(0.966479 -0.224987 0.123688)
(-0.599052 0.78612 -0.152158)
(0.966614 -0.221967 0.128019)
(0.940294 -0.319553 0.117188)
(-0.555894 0.810701 -0.1837)
(-0.0605852 -0.196867 0.978556)
(-0.0557038 -0.212546 0.975562)
(-0.130378 -0.0462596 0.990385)
(-0.111845 -0.106018 0.988054)
(-0.132638 -0.0607273 0.989302)
(-0.108368 -0.072502 0.991463)
(-0.143463 -0.0379567 0.988928)
(-0.111336 -0.0711686 0.991231)
(-0.123863 -0.0502079 0.991028)
(-0.115075 -0.0566544 0.99174)
(-0.0965681 -0.132339 0.986489)
(-0.123999 -0.0792139 0.989116)
(-0.106255 -0.0739253 0.991587)
(-0.117232 -0.0946408 0.988585)
(-0.104763 -0.0752388 0.991647)
(-0.118981 -0.0536504 0.991446)
(0.89875 -0.398984 0.181824)
(-0.136728 0.754405 -0.642011)
(0.927692 -0.296816 0.226471)
(-0.252706 0.776059 -0.577817)
(0.922507 -0.30365 0.238281)
(0.901156 -0.395847 0.176699)
(-0.238838 0.754155 -0.611724)
(0.907155 -0.386327 0.166796)
(-0.132405 0.833809 -0.535941)
(0.932605 -0.289256 0.215822)
(-0.26621 0.79445 -0.545877)
(0.936338 -0.283899 0.206572)
(0.90449 -0.390518 0.171446)
(-0.278376 0.810079 -0.516022)
(-0.0481539 -0.197734 0.979072)
(-0.0513438 -0.211988 0.975923)
(-0.0842169 -0.079061 0.993306)
(-0.0605428 -0.164633 0.984495)
(-0.0670038 -0.180573 0.981277)
(-0.092525 -0.0826421 0.992275)
(-0.0634573 -0.181059 0.981423)
(-0.0902831 -0.0816634 0.992562)
(-0.0871699 -0.0789776 0.993058)
(-0.0918262 -0.0780708 0.99271)
(-0.0687332 -0.168256 0.983344)
(-0.0704267 -0.179471 0.981239)
(-0.0943492 -0.0833073 0.992047)
(-0.073485 -0.17787 0.981306)
(-0.0958682 -0.0837851 0.991862)
(-0.0895669 -0.078606 0.992874)
(-0.213891 0.975995 0.0410326)
(-0.118586 0.991936 0.0447271)
(-0.144947 0.988402 0.0452873)
(-0.14979 0.988015 0.0372775)
(-0.219178 0.973844 0.0599107)
(-0.362343 0.93081 0.0479543)
(-0.3063 0.950705 0.0483686)
(-0.213671 0.975757 0.0473641)
(-0.14531 0.987559 0.0600968)
(-0.159551 0.986648 0.0326878)
(-0.260122 0.964841 0.0376646)
(-0.125995 0.990249 0.0594302)
(-0.0967016 0.98188 0.162972)
(-0.114047 0.993237 -0.0217613)
(-0.0992949 0.984015 0.147836)
(-0.32 0.947079 -0.0253377)
(-0.424618 0.904607 0.0372379)
(-0.208442 0.974098 0.0876668)
(-0.179851 0.972436 0.148399)
(-0.481047 0.876682 0.00474421)
(-0.300678 0.953519 0.0198506)
(-0.120492 0.988611 0.0901676)
(-0.130006 0.987101 0.0934386)
(-0.153033 0.988088 0.0161884)
(-0.020464 0.998842 0.0435351)
(0.73623 0.597921 0.316947)
(-0.0965546 0.995242 0.0130424)
(0.770663 0.505128 0.38849)
(-0.00554688 0.999683 0.0245638)
(0.814355 0.229643 0.533001)
(0.685402 0.0478524 0.726591)
(-0.00141653 0.999647 0.0265471)
(0.818763 0.203975 0.536676)
(0.684707 0.0392153 0.727762)
(0.822052 0.180627 0.540004)
(-0.418216 0.87337 0.249639)
(0.229923 0.953434 0.195189)
(0.656065 0.606887 0.448629)
(0.632035 0.405945 0.660106)
(0.171701 0.973175 0.153128)
(0.651278 0.606786 0.455684)
(0.292438 0.93666 0.192739)
(0.566635 0.763565 0.309668)
(0.410904 0.888347 0.204935)
(0.616405 0.690629 0.378253)
(0.331097 0.927292 0.174656)
(0.365074 0.902514 0.228449)
(0.604264 0.714358 0.352927)
(0.302152 0.920589 0.247428)
(0.618697 0.431693 0.656395)
(0.650973 0.584418 0.484448)
(0.377791 0.876054 0.299671)
(0.651034 0.597455 0.468191)
(-0.531063 0.711972 -0.459421)
(0.793046 -0.594731 0.131806)
(0.933907 -0.0413511 -0.355118)
(0.965992 0.0808465 -0.245609)
(0.685276 -0.624627 0.374483)
(0.957459 -0.0782246 -0.277764)
(0.822304 -0.503534 0.265083)
(0.719534 0.120973 -0.683839)
(-0.482307 0.798627 -0.359965)
(-0.64466 -0.311529 0.698114)
(-0.48954 0.77701 -0.395735)
(-0.524295 0.668621 -0.527314)
(0.256902 0.712555 -0.652892)
(-0.57264 0.633943 -0.519807)
(-0.571561 -0.384837 0.724719)
(0.179533 -0.334891 0.924995)
(0.555908 -0.56841 0.606528)
(-0.144443 0.988935 0.0338246)
(-0.139974 0.989537 0.0349809)
(-0.169008 0.985054 0.0332457)
(-0.205813 0.977844 0.0382392)
(-0.202547 0.978565 0.0372114)
(-0.133367 0.990514 0.0331036)
(-0.134601 0.990264 0.0354942)
(-0.140879 0.989428 0.0344419)
(-0.107901 0.993637 0.0322865)
(-0.0973104 0.995017 0.0217013)
(-0.114118 0.993072 0.0280322)
(-0.038948 0.999004 0.021775)
(-0.0710396 0.997468 0.00327067)
(-0.0738975 0.997266 -0.000177985)
(-0.0347909 0.998977 0.0288733)
(-0.0434556 0.998704 0.0264761)
(-0.0756841 0.996901 0.0214322)
(-0.103091 0.994204 0.0304969)
(-0.0866552 0.995937 0.0245008)
(-0.104367 0.99422 0.0251775)
(0.0898092 0.991499 0.0941542)
(0.660642 0.604753 0.444776)
(0.669394 0.279492 0.688328)
(0.124093 0.985185 0.118369)
(0.666636 0.598657 0.444079)
(0.0555433 0.995419 0.0778234)
(0.508673 0.827072 0.239173)
(-0.0132461 0.998972 0.0433535)
(0.549254 0.785688 0.28463)
(0.0197322 0.99812 0.0580292)
(0.0410552 0.996745 0.0693785)
(0.548451 0.785361 0.287072)
(0.0656433 0.994917 0.0763626)
(0.678447 0.233593 0.696522)
(0.696066 0.554542 0.456043)
(0.0502497 0.996671 0.0642058)
(0.680588 0.578829 0.449174)
(-0.000368279 0.999614 0.0277681)
(0.811168 0.247165 0.530015)
(0.687445 0.0599088 0.723762)
(0.000781366 0.999618 0.0276357)
(0.810631 0.25284 0.528157)
(-0.00666054 0.998875 0.0469449)
(0.663845 0.692184 0.283179)
(-0.0735268 0.997088 0.0202412)
(0.675702 0.65452 0.339163)
(-0.0861467 0.996174 0.0146988)
(-0.00472423 0.99887 0.047291)
(0.690516 0.63482 0.346686)