/*--------------------------------*- C++ -*----------------------------------*\
| =========                 |                                                 |
| \\      /  F ield         | OpenFOAM: The Open Source CFD Toolbox           |
|  \\    /   O peration     | Version:  2012                                  |
|   \\  /    A nd           | Website:  www.openfoam.com                      |
|    \\/     M anipulation  |                                                 |
\*---------------------------------------------------------------------------*/
FoamFile
{
    version     2.0;
    format      ascii;
    class       volVectorField;
    location    "0.108/solid";
    object      sigmaMaxDir;
}
// * * * * * * * * * * * * * * * * * * * * * * * * * * * * * * * * * * * * * //

dimensions      [1 -1 -2 0 0 0 0];


internalField   nonuniform List<vector> 
3125
(
(-0.337074 -0.0724903 0.938683)
(-0.0685484 -0.14181 0.987518)
(-0.302196 -0.114451 0.94635)
(0.428446 0.451004 0.782962)
(0.407938 0.891972 0.194864)
(0.145717 0.756006 0.638139)
(-0.249628 -0.04373 0.967354)
(-0.301852 -0.103527 0.947717)
(-0.332648 -0.071583 0.94033)
(-0.224342 -0.0618267 0.972547)
(-0.244905 -0.043506 0.96857)
(-0.070984 -0.25671 0.963878)
(-0.229773 -0.0781362 0.970103)
(0.319726 0.936899 0.141408)
(-0.180329 -0.681489 0.709263)
(0.0829928 0.369096 0.925678)
(0.747831 0.517428 0.415953)
(0.330936 0.37795 0.864659)
(0.620654 -0.48577 0.615481)
(0.160651 -0.156506 0.974524)
(0.726506 -0.439024 0.528627)
(0.304851 0.211849 0.92854)
(-0.070668 -0.0475243 0.996367)
(0.13585 0.736922 0.662186)
(-0.0668023 -0.146955 0.986885)
(0.0231697 0.0405831 0.998907)
(-0.175058 -0.55621 0.812395)
(-0.151774 0.344774 0.926335)
(0.787563 0.580143 0.207792)
(0.805998 0.565523 0.174789)
(0.333343 0.942795 -0.00456687)
(0.881637 -0.466816 0.0692778)
(0.781525 -0.436369 0.445871)
(0.0450391 0.985456 0.163852)
(-0.411799 0.796211 0.443249)
(0.0447887 0.0765454 0.99606)
(-0.158648 0.364438 0.917614)
(0.20434 0.316562 0.926301)
(0.825163 0.553848 0.111169)
(0.80528 0.566515 0.174887)
(0.203182 0.968665 0.142843)
(0.880264 -0.473307 0.033402)
(0.0475957 0.984877 0.166589)
(0.89859 -0.383128 -0.213892)
(0.436741 0.884028 0.16659)
(-0.464313 0.803124 0.37337)
(0.829195 0.549718 0.101226)
(0.237866 0.961931 0.13457)
(0.0352013 -0.0857328 0.995696)
(0.0283289 -0.0511818 0.998287)
(0.0314687 -0.122845 0.991927)
(0.0753375 -0.22925 0.970448)
(-0.0389131 -0.331981 0.942483)
(0.267539 -0.314737 0.910694)
(-0.402919 -0.263204 0.876573)
(0.918172 -0.394026 0.0412835)
(-0.435879 -0.260518 0.861475)
(0.256428 0.87339 0.414047)
(0.239637 0.862962 0.444826)
(0.0083743 -0.0467821 0.99887)
(-0.030647 -0.0515587 0.9982)
(-0.311334 -0.0738112 0.94743)
(-0.315565 -0.0734303 0.946059)
(0.0128061 -0.0474133 0.998793)
(0.0246944 -0.0492285 0.998482)
(-0.0024528 -0.0889927 0.996029)
(-0.229069 -0.0447844 0.972379)
(-0.00773721 -0.0554625 0.998431)
(-0.0253553 -0.0520333 0.998323)
(-0.232702 -0.0437283 0.971564)
(-0.0117161 -0.0535234 0.998498)
(-0.24424 -0.664214 0.706518)
(0.370083 0.883724 -0.286478)
(0.257644 0.881715 -0.395218)
(-0.00881856 -0.123894 0.992256)
(-0.284695 -0.188318 0.939939)
(-0.0793603 -0.318799 0.944494)
(-0.00867528 -0.263708 0.964564)
(0.144459 0.924689 -0.352252)
(0.789296 0.611257 0.0581155)
(0.222033 0.9136 -0.340641)
(-0.0856191 -0.375614 0.922813)
(-0.244302 -0.671111 0.699947)
(0.155816 0.879698 -0.44928)
(0.2349 0.879449 -0.413995)
(0.411138 0.890152 -0.196454)
(-0.372929 -0.138014 0.917538)
(0.733751 0.641131 0.224857)
(0.257911 0.911758 -0.319655)
(-0.117582 -0.356951 0.926693)
(0.0463259 -0.0235812 0.998648)
(0.0561726 0.0089615 0.998381)
(0.652856 -0.419561 0.630673)
(0.102379 -0.0654557 0.99259)
(0.346888 -0.331137 0.877506)
(0.337084 -0.449759 0.827098)
(0.172613 -0.126562 0.976825)
(0.29638 -0.350943 0.888255)
(0.678198 -0.415174 0.606364)
(0.456402 -0.438159 0.774412)
(0.383657 -0.366233 0.847751)
(0.107247 -0.0354727 0.993599)
(0.18707 -0.100113 0.977232)
(0.277491 -0.308754 0.909764)
(0.060432 0.521602 0.851046)
(0.0719698 0.560365 0.825113)
(-0.216063 -0.498818 0.839344)
(-0.104503 0.182584 0.977621)
(-0.10924 -0.111245 0.987771)
(-0.0546402 -0.110564 0.992366)
(-0.0280826 0.0565463 0.998005)
(-0.0860509 -0.0720206 0.993684)
(-0.224294 -0.523336 0.822078)
(-0.0870499 -0.188924 0.978126)
(-0.113605 -0.141085 0.983458)
(-0.110226 0.206414 0.972236)
(-0.0445545 0.0717871 0.996424)
(-0.0875913 -0.0472164 0.995037)
(0.812379 0.559385 0.164709)
(0.811707 0.559788 0.166643)
(0.760022 -0.413187 0.50164)
(0.058083 0.990714 0.122934)
(0.966742 -0.11011 0.230837)
(0.876263 -0.440757 0.194668)
(0.376382 0.922835 0.0819283)
(0.927457 -0.315046 0.201417)
(0.764644 -0.409838 0.497345)
(0.865832 -0.435692 0.245981)
(0.904603 -0.3441 0.251572)
(0.0497103 0.990204 0.130483)
(0.396802 0.913069 0.0940934)
(0.700128 0.705116 0.112396)
(-0.238994 0.565531 0.789339)
(0.110307 0.357696 0.9273)
(0.0221944 0.217313 0.97585)
(-0.0124512 0.0874687 0.996089)
(0.106951 0.171659 0.979334)
(0.0366132 0.173902 0.984082)
(-0.224774 0.533711 0.815248)
(-0.033051 0.100953 0.994342)
(0.00514736 0.185212 0.982685)
(0.146279 0.333327 0.931394)
(0.128723 0.203583 0.970559)
(0.0566755 0.205396 0.977037)
(0.807216 0.568432 0.159019)
(0.806085 0.568987 0.162731)
(0.0918076 0.980838 0.171839)
(0.469407 0.872186 0.137656)
(0.37908 0.915643 0.133774)
(0.343158 0.934827 0.0913329)
(0.885399 -0.460065 -0.0663974)
(0.339698 0.932617 0.121785)
(0.0844251 0.981317 0.172884)
(0.380558 0.918979 0.10321)
(0.371957 0.919454 0.127486)
(0.953512 0.301351 0.00183831)
(0.890714 -0.443534 -0.0995283)
(0.357846 0.924704 0.129877)
(0.095597 -0.0684566 0.993063)
(0.090973 -0.0518956 0.9945)
(0.100299 -0.100391 0.98988)
(0.131745 -0.0934179 0.986872)
(0.100325 -0.15905 0.98216)
(0.725668 0.0211124 -0.687722)
(0.0338289 -0.325676 0.944876)
(0.70677 0.0399953 -0.706312)
(-0.32574 -0.171117 0.929845)
(0.710473 0.0657427 -0.700646)
(-0.343574 0.40791 0.845911)
(0.0545614 0.755917 0.65239)
(0.186667 0.728023 0.65965)
(0.33646 0.897043 0.286545)
(0.180304 0.807974 0.560953)
(0.0687831 -0.036631 0.996959)
(-0.142818 -0.0569806 0.988107)
(0.707857 0.0369104 -0.705391)
(-0.302073 -0.0832791 0.94964)
(0.712521 0.0267309 -0.701142)
(0.72553 0.0211363 -0.687866)
(-0.326134 -0.0721278 0.942568)
(0.721933 0.0213855 -0.691632)
(0.0718517 -0.0373588 0.996715)
(0.0748249 -0.0379403 0.996475)
(-0.109337 -0.0867205 0.990215)
(-0.223911 -0.0523587 0.973202)
(-0.108348 -0.0711916 0.991561)
(-0.136309 -0.0570447 0.989023)
(-0.240611 -0.0432453 0.969658)
(-0.130407 -0.0568641 0.989829)
(-0.0574122 -0.66337 0.746086)
(-0.172268 -0.683194 0.709627)
(0.101834 0.749345 -0.654303)
(-0.117463 -0.114035 0.986508)
(-0.242583 -0.105027 0.964429)
(-0.136718 -0.158735 0.97781)
(0.0305673 -0.276689 0.960473)
(-0.0331071 0.785118 0.618461)
(0.735795 -0.670814 -0.0928152)
(0.657043 0.753196 -0.03147)
(0.11743 0.761555 -0.637373)
(-0.222916 -0.675027 0.703312)
(0.173863 0.775022 -0.607547)
(0.216813 0.771596 -0.598023)
(0.235715 0.762185 0.60292)
(-0.227645 0.172082 0.958418)
(0.293028 0.430194 0.853854)
(-0.491342 -0.552626 0.673192)
(0.308483 0.689496 -0.655311)
(0.059818 -0.119203 0.991066)
(0.151084 0.222431 0.963171)
(0.300414 -0.668629 0.680211)
(0.161489 -0.192314 0.967955)
(0.19753 -0.548509 0.812478)
(0.238089 -0.136198 0.961646)
(0.15976 -0.153906 0.975084)
(0.232187 -0.119985 0.965242)
(0.719517 -0.415438 0.556513)
(0.655094 -0.439163 0.614807)
(0.6411 -0.417208 0.64415)
(0.190844 0.1645 0.967739)
(0.310126 0.0320239 0.950156)
(0.139346 -0.12678 0.982094)
(-0.0127664 0.265432 0.964045)
(0.108709 0.67332 0.731316)
(-0.0516726 -0.643257 0.763905)
(-0.0804768 0.0508868 0.995457)
(-0.0475267 -0.443716 0.894906)
(-8.31787e-05 -0.000517091 1)
(0.00687565 0.0430489 0.999049)
(-0.0163743 0.00381144 0.999859)
(-0.21279 -0.545991 0.810317)
(-0.153903 -0.417026 0.89577)
(-0.184178 -0.404038 0.896009)
(-0.133099 0.28777 0.948406)
(-0.0737874 0.424631 0.902355)
(-0.0407601 0.229085 0.972553)
(0.809679 0.564337 0.161068)
(0.808399 0.562701 0.172795)
(-0.351617 0.69167 -0.63084)
(0.144926 0.986344 0.0782437)
(0.8625 -0.349901 0.365601)
(0.882559 -0.457742 0.107523)
(0.920026 -0.382568 0.0848157)
(0.918664 -0.376053 0.121001)
(0.783133 -0.408193 0.469128)
(0.820839 -0.434413 0.370822)
(0.830486 -0.398838 0.388872)
(0.0400238 0.987436 0.152867)
(0.785632 0.582503 0.208502)
(0.918032 0.36439 0.156327)
(-0.316513 0.709344 0.629802)
(0.0160152 0.816248 0.57748)
(0.00955439 0.755588 0.654978)
(0.0284661 0.0774256 0.996592)
(0.0655345 0.109383 0.991837)
(0.0492289 0.108944 0.992828)
(-0.181916 0.427973 0.885294)
(-0.0434917 0.412363 0.909981)
(-0.0725653 0.531572 0.843899)
(0.198524 0.315646 0.927877)
(0.177135 0.274784 0.945049)
(0.167315 0.272508 0.947494)
(0.815209 0.562842 0.136542)
(0.804421 0.568481 0.17244)
(0.138575 0.977258 0.160509)
(0.446616 0.861089 0.243022)
(0.551872 0.804209 0.220647)
(0.919238 -0.390384 0.0510106)
(0.87987 -0.475214 -0.000748807)
(0.918094 -0.395913 0.0189043)
(0.0600425 0.98326 0.172029)
(0.853073 0.492881 0.171276)
(0.656218 0.717684 0.23304)
(0.925911 -0.331505 -0.181088)
(0.898321 -0.404164 -0.172253)
(0.92909 -0.342073 -0.140636)
(0.0723981 0.847836 0.525293)
(0.468209 0.85632 0.217939)
(0.0837172 -0.0407006 0.995658)
(0.0870689 -0.0442066 0.995221)
(0.0671494 -0.0793202 0.994585)
(0.0343914 -0.065437 0.997264)
(0.0646915 -0.0597447 0.996115)
(0.0582016 -0.0463304 0.997229)
(0.0317021 -0.0557001 0.997944)
(0.0614986 -0.0505472 0.996826)
(0.0668542 -0.116213 0.990972)
(0.0187313 -0.184689 0.982619)
(0.0583691 -0.180441 0.981852)
(0.128027 -0.139087 0.981969)
(0.0258861 -0.329832 0.943685)
(0.0840336 -0.230585 0.969417)
(-0.00648543 -0.251037 0.967956)
(-0.00692023 -0.341988 0.939679)
(0.0350386 -0.252791 0.966886)
(0.113959 -0.357059 0.927104)
(-0.337626 -0.19399 0.921074)
(0.733294 0.109839 -0.67098)
(0.714188 0.0778422 -0.695612)
(-0.299101 0.434738 0.849436)
(-0.48083 0.0981397 0.871304)
(0.744968 0.106392 -0.658562)
(-0.31841 0.71056 0.627471)
(0.315616 0.893964 0.318144)
(0.193725 0.823464 0.533271)
(0.0410429 -0.0418441 0.998281)
(-0.0797861 -0.0555547 0.995263)
(-0.305764 -0.0801762 0.948726)
(0.717185 0.0226028 -0.696516)
(0.71318 0.0252703 -0.700526)
(-0.321789 -0.071761 0.944088)
(0.717646 0.022207 -0.696054)
(0.721532 0.0215803 -0.692045)
(0.0806645 -0.0391845 0.995971)
(0.0777372 -0.0384459 0.996232)
(0.0447316 -0.0425628 0.998092)
(0.0169676 -0.0478503 0.99871)
(0.0482423 -0.0431127 0.997905)
(0.0549146 -0.0445055 0.997499)
(0.0209076 -0.0483523 0.998611)
(0.0516116 -0.0436489 0.997713)
(-0.0497829 -0.0896135 0.994732)
(-0.00196076 -0.0694954 0.99758)
(-0.0486852 -0.0718067 0.99623)
(-0.226009 -0.0473989 0.972971)
(-0.115006 -0.059438 0.991585)
(-0.1109 -0.0633091 0.991813)
(-0.00426015 -0.0599514 0.998192)
(-0.0545227 -0.0586988 0.996786)
(-0.050878 -0.0629354 0.99672)
(-0.0738326 -0.0558183 0.995707)
(-0.0204941 -0.0522858 0.998422)
(-0.068432 -0.0558367 0.996092)
(-0.236483 -0.0433454 0.970668)
(-0.119779 -0.0577622 0.991119)
(-0.12494 -0.057119 0.990519)
(-0.0159775 -0.0527057 0.998482)
(-0.0588103 -0.0568696 0.996648)
(-0.0634616 -0.0561528 0.996403)
(-0.202319 -0.647676 0.734563)
(0.253965 0.779549 -0.572543)
(0.233149 0.790647 -0.566144)
(0.231817 0.779322 -0.582167)
(0.215104 0.812673 -0.541565)
(0.110149 0.76043 -0.64001)
(0.254761 0.848122 -0.464527)
(0.274434 0.893397 -0.355708)
(0.259201 0.862231 -0.435169)
(-0.0575037 -0.121144 0.990968)
(-0.0247562 -0.180972 0.983177)
(-0.0753862 -0.172638 0.982096)
(-0.268669 -0.131856 0.954165)
(-0.200501 -0.279828 0.93888)
(-0.170277 -0.207676 0.963263)
(-0.0520319 -0.24134 0.969045)
(-0.131285 -0.30288 0.943943)
(-0.105008 -0.228034 0.967974)
(0.0431132 0.00187038 0.999068)
(-0.075383 -0.371234 0.925475)
(-0.17113 -0.505171 0.845882)
(0.424122 0.729507 -0.5366)
(0.143259 0.926396 -0.348235)
(0.260922 0.833204 -0.487536)
(0.832703 0.551559 -0.048869)
(0.493981 0.861212 -0.119569)
(0.107309 0.866313 -0.487839)
(0.488888 0.86079 -0.141526)
(0.0991967 0.846602 -0.5229)
(0.191037 0.9161 -0.352513)
(0.276733 0.838423 -0.469538)
(0.242656 0.847115 -0.472774)
(-0.0689293 -0.390871 0.917861)
(-0.0795894 -0.59669 0.798515)
(-0.0828914 -0.584172 0.807386)
(-0.235298 -0.674428 0.699844)
(0.246677 0.776664 -0.579606)
(0.232472 0.774261 -0.588623)
(0.163055 0.840621 -0.516497)
(0.183684 0.880113 -0.437792)
(0.200945 0.839336 -0.50511)
(0.240271 0.84378 -0.479901)
(0.211212 0.878674 -0.428161)
(0.22067 0.841283 -0.493506)
(0.432081 0.83074 0.350967)
(0.254705 0.809959 -0.528291)
(0.404178 0.711564 -0.574732)
(-0.116794 -0.540073 0.833475)
(-0.241711 -0.309479 0.919673)
(-0.162247 -0.507884 0.846008)
(0.534518 0.627871 0.565746)
(0.540275 0.839567 -0.0568364)
(0.12116 0.863207 -0.490095)
(0.627369 0.77714 0.0496156)
(0.056995 0.866477 -0.495953)
(0.320737 0.908789 -0.266889)
(0.334847 0.822848 -0.459129)
(0.391471 0.83527 -0.386102)
(-0.171405 -0.333835 0.926917)
(-0.0889283 -0.58692 0.804746)
(-0.119029 -0.555324 0.823072)
(0.0503262 -0.101651 0.993546)
(0.125653 0.167306 0.977865)
(0.623761 -0.437753 0.64753)
(0.536888 -0.396759 0.744536)
(0.45958 -0.392087 0.796902)
(0.127512 -0.153372 0.979907)
(0.156299 -0.42691 0.890684)
(0.166139 -0.528037 0.832811)
(0.430775 -0.363818 0.825875)
(0.267789 -0.278027 0.922491)
(0.34224 -0.329065 0.880107)
(0.249802 -0.374206 0.893067)
(0.338938 -0.418059 0.842821)
(0.256418 -0.345358 0.902761)
(0.161449 -0.142783 0.976498)
(0.196548 -0.0873988 0.976591)
(0.202686 -0.108842 0.973176)
(0.317117 -0.384774 0.866825)
(0.221 -0.281585 0.933739)
(0.231016 -0.313304 0.921125)
(0.698576 -0.416297 0.581969)
(0.579269 -0.404466 0.707711)
(0.611757 -0.412643 0.674892)
(0.562036 -0.441275 0.699565)
(0.444174 -0.414157 0.79447)
(0.545994 -0.418375 0.725846)
(0.476446 -0.387252 0.789326)
(0.415201 -0.393267 0.820335)
(0.513222 -0.405714 0.756306)
(0.157505 0.0983434 0.982609)
(0.128211 -0.424264 0.896416)
(0.171849 -0.194942 0.965643)
(0.218117 -0.0418633 0.975024)
(0.189933 -0.0574254 0.980116)
(0.159166 -0.00715109 0.987226)
(0.225812 -0.243527 0.943241)
(0.213036 -0.244046 0.946075)
(0.193633 -0.174247 0.965476)
(0.0105021 0.349967 0.936703)
(0.10023 0.649215 0.753972)
(-0.162757 -0.440585 0.882833)
(-0.175381 -0.330449 0.927386)
(-0.128864 -0.260944 0.956714)
(-0.0864287 0.0920096 0.992)
(-0.0576323 -0.0343581 0.997746)
(-0.0354717 -0.431139 0.901588)
(-0.138037 -0.201441 0.969725)
(-0.0931758 -0.0650331 0.993524)
(-0.106922 -0.142333 0.984027)
(-0.0257652 -0.0495543 0.998439)
(-0.0721468 -0.101632 0.992202)
(-0.0423608 -0.0430612 0.998174)
(-0.010728 0.0477645 0.998801)
(-0.0447918 0.021646 0.998762)
(-0.0311433 0.0105179 0.99946)
(-0.080739 -0.0897173 0.992689)
(-0.0636787 -0.0198652 0.997773)
(-0.0540673 -0.0339465 0.99796)
(-0.221448 -0.538072 0.813289)
(-0.187628 -0.365795 0.911586)
(-0.189382 -0.389454 0.901366)
(-0.12172 -0.290613 0.949067)
(-0.106693 -0.177533 0.978314)
(-0.145478 -0.277471 0.949656)
(-0.14784 -0.236192 0.960394)
(-0.112492 -0.162781 0.980228)
(-0.149747 -0.261041 0.953642)
(-0.127363 0.268546 0.95481)
(-0.0352187 -0.0739656 0.996639)
(-0.0688765 0.266746 0.961303)
(-0.0686515 0.0902552 0.99355)
(-0.0567696 0.0392347 0.997616)
(-0.0728354 0.0619711 0.995417)
(-0.0841559 -0.0112566 0.996389)
(-0.0707087 0.000857763 0.997497)
(-0.0777912 0.0292079 0.996542)
(0.811381 0.562017 0.160619)
(0.809322 0.561777 0.171477)
(0.785658 -0.404202 0.468362)
(0.84105 -0.378213 0.386769)
(0.907861 -0.262834 0.326661)
(0.109854 0.989646 0.0923759)
(0.950599 0.244453 0.191325)
(0.959284 -0.0815411 0.270418)
(0.903469 -0.308127 0.297995)
(0.771556 0.623747 0.125062)
(0.969542 0.107284 0.22018)
(0.881308 -0.448452 0.148955)
(0.904106 -0.374543 0.205692)
(0.913724 -0.373178 0.160771)
(0.912986 -0.398144 0.0890998)
(0.809631 0.573865 0.123194)
(0.918471 -0.375444 0.124311)
(0.906555 -0.368171 0.206416)
(0.950425 -0.264956 0.162758)
(0.915869 -0.367102 0.162541)
(0.771394 -0.410785 0.486011)
(0.828805 -0.39328 0.398013)
(0.825601 -0.40023 0.397742)
(0.848156 -0.433643 0.304278)
(0.888419 -0.379947 0.257587)
(0.864773 -0.388479 0.318202)
(0.873801 -0.369628 0.315985)
(0.889982 -0.375571 0.258607)
(0.86413 -0.387021 0.321704)
(0.0406032 0.988121 0.148215)
(0.955882 0.24555 0.161229)
(0.8894 0.417094 0.187086)
(0.449381 0.88659 0.109612)
(0.426643 0.900363 0.085572)
(0.474693 0.874179 0.102358)
(0.600594 0.793582 0.0975384)
(0.488802 0.868566 0.0816456)
(0.518856 0.849376 0.0966919)
(-0.292705 0.672456 0.679799)
(-0.0243035 0.651671 0.758113)
(-0.0376288 0.720009 0.692944)
(0.0282586 0.383539 0.923092)
(0.0720691 0.299922 0.951237)
(-0.00488714 0.314641 0.949198)
(-0.0390286 0.22637 0.973259)
(0.0437389 0.254521 0.966078)
(-0.0255292 0.264804 0.963964)
(0.00828994 0.0805446 0.996717)
(0.0029589 0.116335 0.993206)
(0.0267826 0.110819 0.99348)
(0.0860602 0.140641 0.986313)
(0.0914803 0.169374 0.981297)
(0.070009 0.139144 0.987794)
(0.019046 0.14467 0.989297)
(0.0655866 0.169882 0.983279)
(0.0456312 0.140145 0.989079)
(-0.19117 0.451702 0.871447)
(-0.0627618 0.625383 0.77779)
(-0.0394315 0.541116 0.840023)
(-0.0646063 0.116123 0.991131)
(-0.0214977 0.128583 0.991466)
(-0.0602691 0.141164 0.98815)
(-0.0482987 0.194616 0.97969)
(-0.00904011 0.156166 0.987689)
(-0.0550488 0.166837 0.984447)
(0.175286 0.321536 0.930532)
(0.10981 0.282634 0.952922)
(0.141361 0.275319 0.950903)
(0.151978 0.23757 0.959408)
(0.114361 0.200813 0.972931)
(0.139414 0.23474 0.962009)
(0.0805508 0.24092 0.967196)
(0.0875207 0.201318 0.975608)
(0.112428 0.235918 0.965248)
(0.81258 0.564977 0.143228)
(0.804362 0.569045 0.170848)
(0.124829 0.978456 0.164446)
(0.645096 0.733969 0.212461)
(0.477327 0.841607 0.252698)
(0.526457 0.839348 0.135415)
(0.420614 0.896261 0.140712)
(0.487078 0.862061 0.14002)
(0.44442 0.885031 0.138602)
(0.394863 0.908243 0.138483)
(0.46166 0.875842 0.140606)
(0.894696 -0.443401 0.0539922)
(0.333202 0.937317 0.10205)
(0.856167 -0.516441 0.0163076)
(0.881656 -0.470685 -0.0337466)
(0.921457 -0.386193 -0.0421)
(0.918743 -0.394675 -0.0119207)
(0.333885 0.935895 0.112347)
(0.846106 -0.53123 -0.0435797)
(0.817813 -0.575129 -0.0202131)
(0.0649552 0.982779 0.172989)
(0.545671 0.800152 0.248998)
(0.75471 0.626848 0.193585)
(0.435558 0.892536 0.116911)
(0.372385 0.921294 0.112017)
(0.429477 0.894561 0.123737)
(0.434429 0.890554 0.13485)
(0.369927 0.921259 0.120147)
(0.429474 0.893706 0.129774)
(0.939679 -0.30969 -0.145241)
(0.494001 0.859621 0.130442)
(0.939666 -0.324149 -0.10934)
(0.895754 -0.423778 -0.134303)
(0.925684 -0.371271 -0.0725698)
(0.928901 -0.355191 -0.1048)
(0.394684 0.908813 0.135213)
(0.90349 -0.424545 -0.0588874)
(0.931058 -0.355942 -0.080224)
(-0.40721 -0.0467968 0.912135)
(-0.350337 -0.0455412 0.935516)
(-0.338383 -0.0723005 0.938227)
(-0.412484 -0.0580667 0.909112)
(-0.352011 -0.0447109 0.934928)
(-0.403437 -0.0463575 0.913832)
(-0.414958 -0.0586077 0.907951)
(-0.0517842 -0.220294 0.974058)
(-0.364718 -0.0685739 0.92859)
(-0.378497 -0.0949773 0.920717)
(-0.315576 -0.0551669 0.947295)
(-0.308269 -0.130023 0.942372)
(-0.365756 -0.0618441 0.928654)
(-0.315202 -0.0606288 0.947086)
(-0.381931 -0.108139 0.917843)
(0.526171 0.636013 0.564474)
(0.420784 0.564517 0.710114)
(0.380574 0.537768 0.752309)
(0.595829 0.421009 0.683915)
(0.348244 0.378706 0.857501)
(0.733593 0.428963 0.527098)
(0.561868 0.453931 0.691557)
(0.382947 0.895955 0.224982)
(0.156599 0.774268 0.613176)
(-0.367396 -0.0542807 0.928479)
(-0.377552 -0.0852792 0.922053)
(-0.317157 -0.052681 0.946909)
(-0.299723 -0.0946503 0.94932)
(-0.364732 -0.0575716 0.929331)
(-0.318009 -0.0491927 0.946811)
(-0.377428 -0.0780563 0.922743)
(-0.39869 -0.0462883 0.915917)
(-0.347198 -0.0437685 0.93677)
(-0.409919 -0.0577533 0.910292)
(-0.331618 -0.0723029 0.940639)
(-0.402095 -0.0454462 0.91447)
(-0.345946 -0.0450527 0.937172)
(-0.407614 -0.0581473 0.911301)
(-0.305913 -0.362152 0.88049)
(-0.101525 -0.0246254 0.994528)
(-0.0645656 -0.513564 0.855618)
(-0.0865669 -0.394649 0.914745)
(-0.142405 -0.11584 0.983007)
(-0.077265 -0.601498 0.795129)
(-0.20005 -0.157476 0.967048)
(0.180893 -0.105558 0.977822)
(0.31425 0.479205 0.819518)
(0.72371 -0.000746319 0.690104)
(-0.347743 0.668091 -0.657821)
(0.869987 0.31951 0.375548)
(0.381055 -0.346165 0.857302)
(0.291856 -0.549996 0.782511)
(0.661337 0.190636 0.725459)
(0.889688 0.12039 0.44041)
(0.264191 0.175145 0.948434)
(0.22821 0.326987 0.91706)
(0.339525 0.107266 0.934461)
(0.322622 0.146778 0.935078)
(0.261424 0.248574 0.932667)
(0.272598 0.22238 0.936075)
(0.323707 0.0889622 0.941966)
(-0.0582147 0.0586894 0.996577)
(0.126523 0.716907 0.685593)
(-0.131088 -0.0344792 0.990771)
(-0.0915152 0.00920235 0.995761)
(-0.0554469 -0.414892 0.90818)
(-0.0694796 -0.0637 0.995548)
(-0.153342 -0.0758439 0.985258)
(-0.0892674 0.0285082 0.9956)
(-0.0524992 -0.314498 0.947805)
(-0.111838 0.0870927 0.989903)
(-0.145278 0.325588 0.934284)
(-0.132323 0.120549 0.983849)
(-0.1017 0.32622 0.939807)
(-0.128315 0.115571 0.984976)
(-0.0985054 0.302337 0.948098)
(-0.113433 0.0918536 0.989291)
(0.799624 0.574471 0.174886)
(0.806595 0.56477 0.17447)
(0.935255 0.270124 0.228761)
(-0.308023 0.819597 -0.483096)
(0.909865 0.336304 0.242992)
(0.263355 0.963959 0.0377888)
(0.929541 0.216449 0.298503)
(0.363573 0.923453 -0.122679)
(0.927282 0.323028 0.18921)
(0.910815 0.394178 0.12264)
(0.0425789 0.986097 0.160621)
(0.344821 0.922386 0.174077)
(0.952035 0.281335 0.120329)
(0.353006 0.92018 0.169279)
(0.954544 0.272852 0.119991)
(0.909202 0.398064 0.122057)
(-0.137773 0.217145 0.966368)
(-0.372592 0.774821 0.510713)
(-0.267251 0.375915 0.887279)
(-0.00238713 0.847767 0.530364)
(-0.245591 0.314029 0.917099)
(-0.0396296 0.80847 0.587202)
(-0.135835 0.246765 0.959508)
(-0.116965 0.101185 0.987968)
(-0.165891 0.384603 0.908053)
(-0.136326 0.125884 0.982633)
(-0.104646 0.349851 0.930942)
(-0.140466 0.131194 0.981355)
(-0.115272 0.0965478 0.988631)
(-0.1075 0.373539 0.921365)
(0.821337 0.557523 0.120719)
(0.804792 0.56735 0.174426)
(0.884368 0.458184 0.0892209)
(0.177153 0.972698 0.149915)
(0.362304 0.916227 0.171066)
(0.834146 0.543898 0.0915168)
(0.353286 0.918658 0.176798)
(0.851082 0.515836 0.097842)
(0.882731 0.46265 0.0821002)
(0.905628 0.40644 0.121013)
(0.051357 0.984306 0.168829)
(0.336671 0.92461 0.178183)
(0.948685 0.29227 0.120726)
(0.907021 0.403131 0.121648)
(0.331352 0.925824 0.18181)
(0.945829 0.301315 0.120902)
(-0.288364 0.479176 0.828997)
(0.0492333 0.881554 0.469509)
(-0.130569 0.291057 0.947754)
(0.378841 0.910831 0.163911)
(0.817263 0.570063 0.0843214)
(0.881722 0.465864 0.0744081)
(0.33987 -0.37532 0.862336)
(-0.38717 -0.111209 0.915277)
(-0.373816 -0.237042 0.896701)
(-0.319245 -0.118257 0.940265)
(-0.461558 -0.220693 0.85922)
(-0.397488 -0.126127 0.908898)
(-0.321663 -0.0842153 0.943102)
(-0.438799 -0.202006 0.875585)
(-0.526405 0.290058 0.799227)
(-0.429728 -0.107701 0.896512)
(-0.492992 -0.225444 0.840318)
(-0.365484 -0.0522862 0.929348)
(-0.492104 -0.216086 0.843292)
(-0.418464 -0.129437 0.898963)
(-0.301415 -0.217572 0.928338)
(-0.525676 -0.175837 0.832314)
(0.27532 0.882141 0.382134)
(0.223299 0.851082 0.475182)
(-0.378198 -0.0467476 0.924544)
(-0.310545 -0.0758227 0.94753)
(-0.329981 -0.0422952 0.94304)
(-0.389875 -0.0598088 0.918923)
(-0.381789 -0.0449837 0.923154)
(-0.328964 -0.044848 0.943277)
(-0.387649 -0.0614716 0.919755)
(-0.386602 -0.0455985 0.921119)
(-0.316433 -0.0727867 0.945818)
(-0.332881 -0.0438256 0.94195)
(-0.392467 -0.0591816 0.91786)
(-0.383086 -0.045234 0.922604)
(-0.333941 -0.0429482 0.941615)
(-0.394692 -0.0590824 0.916912)
(0.483412 0.867038 -0.120658)
(0.330258 0.866729 -0.373779)
(0.705295 0.70731 -0.0476617)
(0.292466 0.854368 -0.429557)
(0.69588 0.716712 -0.0455461)
(0.492829 0.864415 -0.0995294)
(0.241178 0.839317 -0.487217)
(0.521003 0.851054 -0.0652874)
(0.43993 0.895525 -0.0670546)
(0.720945 0.692463 -0.0270687)
(0.372177 0.857092 -0.356199)
(0.718317 0.693885 -0.0504291)
(0.512421 0.854665 -0.0835002)
(0.439391 0.8539 -0.278908)
(0.0467256 -0.0547107 0.997408)
(0.0634799 0.0517175 0.996642)
(0.158109 -0.0277391 0.987032)
(0.103057 -0.0936603 0.990256)
(0.14329 -0.199573 0.969349)
(0.0926218 0.0201228 0.995498)
(0.144447 -0.235923 0.960976)
(0.093933 0.0138662 0.995482)
(0.14784 -0.0185072 0.988838)
(0.151041 0.00455539 0.988517)
(0.119221 -0.00132298 0.992867)
(0.14721 -0.162279 0.975702)
(0.0980303 0.0297484 0.994739)
(0.160446 -0.123186 0.979328)
(0.109087 0.0408457 0.993193)
(0.146171 -0.0074796 0.989231)
(0.0468854 0.475521 0.878454)
(0.082141 0.593696 0.800486)
(-0.104925 0.0412366 0.993625)
(-0.0986777 0.156232 0.982779)
(-0.103587 0.0798021 0.991414)
(-0.0724638 0.0941975 0.992913)
(-0.100259 0.0739617 0.992209)
(-0.104538 0.048894 0.993318)
(-0.0679299 0.0494048 0.996466)
(-0.105374 0.0616096 0.992522)
(-0.115983 0.228302 0.966657)
(-0.106881 0.0854536 0.990593)
(-0.0765873 0.132903 0.988166)
(-0.110264 0.0906653 0.989758)
(-0.104845 0.0556237 0.992932)
(-0.0808261 0.16723 0.982599)
(0.812465 0.559784 0.16292)
(0.811034 0.560246 0.16837)
(0.925347 0.352994 0.138304)
(0.0692561 0.991043 0.114178)
(0.475985 0.871593 0.117318)
(0.961484 0.245771 0.123064)
(0.503058 0.85774 0.1059)
(0.959689 0.25132 0.125838)
(0.923775 0.358859 0.133638)
(0.920493 0.369235 0.127901)
(0.0448236 0.989538 0.137136)
(0.450625 0.883597 0.127255)
(0.962027 0.244512 0.121317)
(0.428058 0.893415 0.136292)
(0.962282 0.244069 0.120179)
(0.921733 0.365253 0.13038)
(-0.132293 0.148605 0.980008)
(-0.254939 0.59947 0.75871)
(-0.177694 0.182459 0.967023)
(-0.116282 0.568511 0.814416)
(-0.185045 0.193843 0.963423)
(-0.130574 0.140818 0.981387)
(-0.113672 0.603911 0.788905)
(-0.126614 0.127418 0.983735)
(-0.212265 0.504305 0.837031)
(-0.171 0.172459 0.97006)
(-0.117057 0.535476 0.836399)
(-0.164852 0.163979 0.972592)
(-0.128478 0.133831 0.982641)
(-0.116913 0.504684 0.855351)
(0.808492 0.567877 0.154453)
(0.805047 0.569494 0.166058)
(0.89096 0.440408 0.110593)
(0.101319 0.980196 0.170145)
(0.318752 0.928074 0.192548)
(0.908538 0.400765 0.118095)
(0.321643 0.92722 0.191857)
(0.902225 0.415307 0.116236)
(0.892089 0.437477 0.113099)
(0.895833 0.428824 0.11659)
(0.0771285 0.981829 0.173388)
(0.318398 0.928181 0.192619)
(0.915759 0.383603 0.119307)
(0.317821 0.928487 0.192096)
(0.921994 0.368073 0.120207)
(0.894241 0.432582 0.114917)
(0.109249 -0.0178414 0.993854)
(0.0933311 -0.0337104 0.995064)
(0.103611 -0.0303564 0.994154)
(0.0902727 -0.0238789 0.995631)
(0.112573 -0.035753 0.993)
(0.122018 -0.00363481 0.992521)
(0.116025 -0.0131475 0.993159)
(0.111905 -0.0237174 0.993436)
(0.104474 -0.0450862 0.993505)
(0.091049 -0.0182634 0.995679)
(0.114285 -0.00796874 0.993416)
(0.0959329 -0.0474646 0.994255)
(0.0898016 -0.154464 0.983909)
(0.0781654 0.0308072 0.996464)
(0.103334 -0.13757 0.985087)
(0.136859 0.0726725 0.987921)
(0.134339 0.0222765 0.990685)
(0.110941 -0.0655083 0.991666)
(0.096871 -0.132617 0.986422)
(0.158145 0.0814509 0.984051)
(0.123144 0.0181751 0.992222)
(0.0993417 -0.0783655 0.991963)
(0.102713 -0.0803237 0.991463)
(0.0889092 -0.00254857 0.996036)
(-0.409908 -0.0480983 0.910858)
(-0.343263 -0.0736738 0.936345)
(-0.356166 -0.0467838 0.933251)
(-0.418122 -0.0592299 0.906458)
(-0.58698 -0.023142 0.809271)
(-0.540339 -0.0351565 0.840713)
(0.726542 0.0216415 -0.686781)
(-0.58511 -0.022357 0.810646)
(-0.541593 -0.0358151 0.839877)
(0.727556 0.0219668 -0.685697)
(-0.5431 -0.0362331 0.838886)
(-0.0147349 -0.281314 0.959503)
(-0.565863 -0.0322055 0.82387)
(-0.523211 -0.0626609 0.849897)
(0.706913 0.0469741 -0.705739)
(-0.568262 -0.029132 0.822332)
(-0.525526 -0.0725303 0.84768)
(-0.367946 -0.0758228 0.926751)
(-0.313373 -0.147878 0.938045)
(-0.315328 -0.07243 0.946215)
(-0.395773 -0.143552 0.907059)
(-0.314924 -0.0658889 0.946827)
(-0.369773 -0.08463 0.92526)
(-0.386956 -0.124096 0.913709)
(-0.56611 -0.0355434 0.823563)
(0.708128 0.055418 -0.703906)
(-0.535367 -0.0989785 0.8388)
(-0.564308 -0.0387367 0.824655)
(-0.529475 -0.0845179 0.844105)
(0.206667 0.634658 0.744646)
(0.516292 0.771055 0.372716)
(0.296698 0.643831 0.705302)
(0.170706 0.514052 0.840601)
(0.333842 0.726412 0.600729)
(0.285003 0.407196 0.867735)
(0.467625 0.863389 0.189435)
(0.524238 0.551206 0.649112)
(0.569605 0.5981 0.56376)
(0.493736 0.527523 0.691335)
(0.634531 0.628723 0.449531)
(0.299949 0.724571 0.620506)
(0.290416 0.587422 0.755376)
(0.4732 0.773367 0.421883)
(0.470569 0.569816 0.673702)
(0.359926 0.89744 0.255057)
(0.168173 0.791481 0.587602)
(0.0931735 -0.0204382 0.99544)
(0.0762454 -0.0244521 0.996789)
(0.103529 -0.0158018 0.994501)
(0.104279 -0.0169386 0.994404)
(0.103032 -0.016493 0.994541)
(0.0918877 -0.0208997 0.99555)
(0.0780637 -0.0251117 0.996632)
(0.095008 -0.021117 0.995253)
(0.0800519 -0.0236868 0.996509)
(-0.157257 -0.0369029 0.986868)
(-0.100424 -0.039603 0.994156)
(-0.176791 -0.028337 0.98384)
(-0.24984 -0.0209679 0.96806)
(-0.25234 -0.0185258 0.967461)
(-0.173155 -0.0344792 0.984291)
(-0.17806 -0.0338191 0.983438)
(-0.152311 -0.0327997 0.987788)
(-0.0959049 -0.0404527 0.994568)
(-0.152678 -0.037579 0.987561)
(-0.103416 -0.0360275 0.993985)
(-0.57019 -0.0263247 0.821091)
(-0.52214 -0.0555249 0.85105)
(0.710079 0.0316785 -0.703409)
(-0.567862 -0.0273161 0.82267)
(-0.521997 -0.0503351 0.851461)
(-0.368217 -0.0520285 0.928283)
(-0.302232 -0.0885823 0.94911)
(-0.321827 -0.0453095 0.945714)
(-0.380474 -0.0681331 0.922278)
(-0.320693 -0.0486552 0.945933)
(-0.371695 -0.0492175 0.927049)
(-0.378979 -0.0725636 0.922556)
(-0.570354 -0.0253834 0.821007)
(0.711142 0.0290997 -0.702446)
(-0.52336 -0.0429405 0.851029)
(-0.572876 -0.0238961 0.819293)
(-0.522492 -0.0463315 0.851384)
(-0.583339 -0.0227688 0.811909)
(-0.539148 -0.0350295 0.841482)
(0.723992 0.0217651 -0.689465)
(-0.585491 -0.0219464 0.810382)
(-0.53771 -0.0356807 0.842375)
(-0.396721 -0.0457329 0.916799)
(-0.327133 -0.0717447 0.942251)
(-0.341307 -0.0442287 0.938911)
(-0.402465 -0.0579249 0.913601)
(-0.34256 -0.0434714 0.93849)
(-0.393237 -0.0453372 0.918319)
(-0.404732 -0.0581375 0.912585)
(-0.583195 -0.0225626 0.812019)