/*--------------------------------*- C++ -*----------------------------------*\
| =========                 |                                                 |
| \\      /  F ield         | OpenFOAM: The Open Source CFD Toolbox           |
|  \\    /   O peration     | Version:  2012                                  |
|   \\  /    A nd           | Website:  www.openfoam.com                      |
|    \\/     M anipulation  |                                                 |
\*---------------------------------------------------------------------------*/
FoamFile
{
    version     2.0;
    format      ascii;
    class       volSymmTensorField;
    location    "0.108/solid";
    object      sigma;
}
// * * * * * * * * * * * * * * * * * * * * * * * * * * * * * * * * * * * * * //

dimensions      [1 -1 -2 0 0 0 0];


internalField   nonuniform List<symmTensor> 
3125
(
(-5.82814e+07 200540 2.16984e+07 -5.14235e+07 5.26469e+06 -1.10466e+08)
(-979295 -4.56681e+06 604707 -3.25646e+06 1.96367e+06 -1.88144e+07)
(-1.69242e+07 476710 5.76923e+06 -1.44956e+07 2.60908e+06 -3.26526e+07)
(-5.3952e+07 -3.52901e+07 -4.58513e+07 -5.75615e+07 -4.82731e+07 -1.21994e+08)
(1.46759e+07 -3.08458e+06 2.2967e+06 1.19864e+07 -7.08215e+06 3.66383e+07)
(1.19906e+07 -9.50657e+06 5.6501e+06 1.84731e+06 -1.49305e+07 3.81034e+06)
(-6.49007e+07 -378507 1.4613e+07 -5.55954e+07 2.88589e+06 -1.17694e+08)
(-1.86521e+07 453170 6.05355e+06 -1.60205e+07 2.49103e+06 -3.53026e+07)
(-5.34762e+07 72271.9 1.99778e+07 -4.71986e+07 4.80133e+06 -1.02501e+08)
(-2.16204e+07 501378 4.5538e+06 -1.79195e+07 1.59714e+06 -4.00715e+07)
(-5.65397e+07 -240198 1.24625e+07 -4.84192e+07 2.51982e+06 -1.02606e+08)
(-3.32647e+06 -2.65303e+06 1.00041e+06 -2.81705e+06 6.11354e+06 -2.48035e+07)
(-1.84841e+07 938956 4.27267e+06 -1.48621e+07 1.94136e+06 -3.50357e+07)
(1.57525e+08 -1.88791e+07 1.57199e+07 1.21061e+08 -3.61909e+07 3.13396e+08)
(1.92549e+07 9.35101e+06 3.98794e+07 -2.62783e+07 7.5382e+07 -1.96889e+07)
(-3.30433e+07 -1.6268e+07 -7.51581e+06 -6.92649e+07 -4.63719e+07 -1.70058e+08)
(1.43327e+06 -4.50521e+06 -2.88504e+06 2.86816e+06 441059 1.34967e+06)
(-4.74515e+07 -4.21665e+07 -6.35482e+07 -7.41333e+07 -6.58242e+07 -2.0855e+08)
(2.13135e+06 -1.96789e+06 -7.23724e+06 -151946 4.63111e+06 7.44783e+06)
(-1.97732e+08 -1.09758e+07 -7.01229e+07 -4.18002e+07 9.3448e+07 -5.85845e+08)
(-4.84963e+07 9.35756e+06 -8.10322e+07 -5.11518e+06 7.68312e+07 6.20605e+07)
(-6.99234e+07 -2.10637e+07 -7.70004e+07 -7.69802e+07 -4.83238e+07 -2.8279e+08)
(387489 -5.73352e+06 1.11423e+06 -3.54526e+06 338998 -1.9083e+07)
(1.16638e+07 -9.81561e+06 5.66662e+06 1.19529e+06 -1.48519e+07 1.40574e+06)
(-3.38828e+06 -2.13864e+06 1.45468e+06 -1.58411e+06 4.02453e+06 -2.88855e+07)
(1.33849e+07 7.6423e+06 -3.45496e+06 -1.07444e+06 -5.09754e+06 -1.21894e+08)
(1.701e+07 1.04818e+07 3.31732e+07 -1.97696e+07 5.9677e+07 -5.56278e+07)
(1.73397e+06 609951 5.36436e+06 9.45768e+06 -1.54763e+07 -2.57534e+07)
(715508 -5.69853e+06 -3.21732e+06 3.78786e+06 -1.06928e+06 1.08484e+07)
(1.29257e+06 -1.03491e+07 -6.52449e+06 1.21104e+07 -1.53502e+07 7.23674e+07)
(2.71817e+06 -1.47921e+06 -7.228e+06 -830569 2.66069e+06 2.03286e+07)
(-2.38076e+07 7.52252e+06 -1.63109e+07 -1.55239e+07 -4.43843e+06 1.48595e+08)
(-4.36645e+07 1.04967e+07 -7.19318e+07 -9.47975e+06 6.09569e+07 9.51766e+07)
(9.32579e+06 727598 -7.44566e+06 781498 -1.59766e+07 9.62928e+07)
(1.08253e+07 8000.48 1.8894e+06 1.33818e+07 -8.26579e+06 2.53793e+07)
(1.36272e+07 6.7907e+06 -6.36418e+06 -368434 -9.21454e+06 -1.15307e+08)
(2.30644e+06 619885 5.3256e+06 9.83636e+06 -1.56826e+07 -2.27714e+07)
(1.62418e+07 1.74776e+06 -1.52853e+07 609196 -1.77977e+07 -4.08866e+07)
(1.14036e+07 -4.36777e+06 -2.48145e+06 1.6077e+07 -7.13385e+06 6.20976e+07)
(1.83759e+06 -1.00878e+07 -6.46158e+06 1.24282e+07 -1.53909e+07 7.29463e+07)
(1.38412e+07 -490224 -2.13072e+06 1.13382e+07 -8.33622e+06 6.95673e+07)
(-2.18873e+07 6.66866e+06 -1.09944e+07 -1.40981e+07 -8.64954e+06 1.41287e+08)
(9.6396e+06 696190 -7.25422e+06 1.35311e+06 -1.61494e+07 9.62032e+07)
(-1.04631e+07 1.66578e+06 1.13123e+07 -53277 -1.77434e+07 6.54412e+07)
(1.47368e+07 -2.66475e+06 1.95234e+06 1.25836e+07 -6.25888e+06 3.81827e+07)
(1.13424e+07 -38312.8 1.56438e+06 1.35707e+07 -7.4041e+06 2.80225e+07)
(1.19819e+07 -4.01683e+06 -2.13905e+06 1.62749e+07 -6.28921e+06 6.0734e+07)
(1.40981e+07 -581134 -1.73991e+06 1.19512e+07 -7.46171e+06 6.7177e+07)
(-2.38314e+07 -19609.4 -1.00425e+06 -2.11731e+07 2.67132e+06 -5.19241e+07)
(-3.24638e+07 -230461 -1.07677e+06 -3.08313e+07 2.01429e+06 -6.98581e+07)
(-2.1611e+07 221386 -814219 -1.75693e+07 3.77905e+06 -4.76464e+07)
(-1.71456e+07 -5.56016e+06 -4.13162e+06 -3.94765e+06 1.21249e+07 -5.02619e+07)
(-1.32534e+07 4.38084e+06 2.9353e+06 8.33806e+06 1.96635e+07 -3.99251e+07)
(-1.22895e+07 8.04606e+06 686925 2.39917e+06 5.1759e+06 -1.78298e+07)
(-5.77726e+06 2.90638e+06 8.05458e+06 -4.99914e+06 6.26109e+06 -1.58195e+07)
(-1.55174e+07 1.03224e+07 648754 4.32549e+06 1.81269e+06 -1.70457e+07)
(-3.68971e+06 3.70682e+06 9.24295e+06 -4.25752e+06 6.55819e+06 -1.30822e+07)
(1.37602e+07 -6.2081e+06 4.39124e+06 7.36669e+06 -1.23148e+07 2.29631e+07)
(1.35979e+07 -6.67592e+06 4.63525e+06 6.6612e+06 -1.28932e+07 2.0677e+07)
(-5.51164e+07 -626332 -554160 -5.23179e+07 3.0682e+06 -1.17568e+08)
(-5.73718e+07 -758376 1.88863e+06 -5.38612e+07 3.40127e+06 -1.19928e+08)
(-3.04952e+07 150083 1.02771e+07 -2.67404e+07 2.77556e+06 -5.81407e+07)
(-3.31755e+07 251751 1.11154e+07 -2.9077e+07 2.98403e+06 -6.25014e+07)
(-4.96292e+07 -510330 -749926 -4.72109e+07 2.80817e+06 -1.06086e+08)
(-3.60814e+07 -279856 -1.0415e+06 -3.43725e+07 2.1399e+06 -7.75036e+07)
(-2.34379e+07 137020 78898.3 -2.07071e+07 2.66275e+06 -5.02674e+07)
(-3.28725e+07 50503.3 6.74843e+06 -2.80448e+07 1.55315e+06 -5.98478e+07)
(-3.26629e+07 -237627 269198 -3.06863e+07 2.13227e+06 -6.89838e+07)
(-5.12792e+07 -605381 1.40034e+06 -4.82481e+07 3.08108e+06 -1.07461e+08)
(-3.76199e+07 -12594.9 7.84019e+06 -3.21623e+07 1.71602e+06 -6.84011e+07)
(-3.65398e+07 -308044 459866 -3.44314e+07 2.28567e+06 -7.70109e+07)
(270740 -6.69681e+06 1.91127e+07 -1.82863e+07 4.9338e+07 -2.02382e+07)
(-806545 -9.54087e+06 -353338 -1.52769e+07 1.24727e+07 1.47035e+07)
(9.79577e+06 -1.91949e+07 2.09614e+07 -4.26778e+07 8.87052e+07 1.23514e+08)
(-2.10194e+07 523292 289367 -1.71774e+07 3.63179e+06 -4.57707e+07)
(-6.34427e+06 5.66521e+06 6.61766e+06 -2.65408e+06 6.08187e+06 -2.12226e+07)
(-1.27011e+07 5.87109e+06 4.55121e+06 5.42382e+06 1.69331e+07 -3.71839e+07)
(-3.21595e+07 -1.05728e+07 -2.40547e+06 -1.42779e+07 1.95399e+07 -8.07761e+07)
(3.50056e+07 -7.91352e+06 5.65848e+07 -1.00073e+08 1.37337e+08 2.301e+08)
(4.6292e+07 -2.1078e+07 -2.18563e+06 5.72761e+07 -2.64203e+06 8.72806e+07)
(2.09512e+07 -2.53473e+07 2.70207e+07 -7.62673e+07 1.13646e+08 1.9761e+08)
(-1.27802e+07 7.78462e+06 7.4122e+06 1.56946e+07 3.09293e+07 -4.52415e+07)
(4.65986e+06 -4.39069e+06 2.66813e+07 -2.09944e+07 5.87298e+07 -1.82232e+07)
(3.8507e+07 -1.24972e+06 5.40867e+07 -5.54992e+07 1.34676e+08 1.57954e+08)
(1.69963e+07 -1.72882e+07 3.09862e+07 -4.77893e+07 1.06074e+08 1.40574e+08)
(3.12507e+06 -1.13156e+07 1.10119e+06 -1.44456e+07 1.00971e+07 2.61549e+07)
(-1.29569e+06 1.13022e+07 1.05298e+07 -635819 7.96071e+06 -1.75428e+07)
(3.64739e+07 -1.93311e+07 -4.97131e+06 4.38818e+07 -1.05459e+07 6.43514e+07)
(1.18074e+07 -2.78597e+07 1.78919e+07 -6.81216e+07 9.37111e+07 1.72874e+08)
(-1.33831e+07 1.07409e+07 9.19205e+06 1.06328e+07 2.59586e+07 -4.20558e+07)
(1.03183e+07 7.49977e+06 -4.93175e+06 -6.45236e+06 1.85664e+06 -9.95406e+07)
(1.13573e+07 9.91831e+06 -7.48771e+06 -8.94322e+06 -1.55617e+06 -1.19708e+08)
(-1.59132e+07 -6.21867e+06 -5.52844e+07 -2.32311e+06 4.83484e+07 2.40705e+07)
(-3.7915e+06 -9.03009e+06 -1.35162e+07 7.45287e+06 9.9337e+06 -1.27011e+08)
(-3.20694e+07 -1.92574e+07 -7.17598e+07 2.07576e+07 8.9112e+07 -1.33219e+08)
(-9.15174e+07 -6.85378e+06 -9.33933e+07 1.20814e+07 1.78767e+08 -1.76258e+08)
(-1.6017e+08 -1.73518e+07 -6.84691e+07 -3.9683e+07 6.7231e+07 -5.14107e+08)
(-5.65573e+07 -2.63763e+07 -8.40799e+07 2.83585e+07 1.2957e+08 -1.98067e+08)
(-2.4724e+07 -4.09898e+06 -6.6489e+07 -2.95706e+06 5.84729e+07 3.27404e+07)
(-6.92877e+07 -745532 -9.67372e+07 1.71916e+07 1.41834e+08 -9.54515e+07)
(-4.31817e+07 -1.73846e+07 -8.28165e+07 2.21672e+07 1.07985e+08 -1.25453e+08)
(-4.48189e+06 -1.13294e+07 -1.65715e+07 9.37879e+06 7.06506e+06 -1.52222e+08)
(-1.47631e+08 -1.96125e+07 -7.00376e+07 -3.84826e+07 5.13424e+07 -4.84337e+08)
(-4.68233e+07 -2.80326e+07 -7.50681e+07 2.60039e+07 1.06206e+08 -2.02805e+08)
(7.42745e+06 -1.02416e+07 4.30605e+06 -2.96179e+06 -9.9171e+06 -1.45567e+07)
(8.15243e+06 -1.04396e+07 4.6268e+06 -2.58204e+06 -1.09774e+07 -1.3035e+07)
(767678 -4.96141e+06 1.74719e+07 -1.18493e+07 3.83687e+07 -5.12601e+07)
(-2.08467e+06 -26622.2 4.29934e+06 5.121e+06 -8.85155e+06 -4.01454e+07)
(3.85061e+06 -2.61222e+06 1.19748e+07 579888 1.18369e+07 -1.04431e+08)
(1.33239e+07 9.99565e+06 8.78835e+06 -5.37131e+06 1.39971e+07 -1.24019e+08)
(1.0397e+07 8482.57 3.50859e+06 6.21489e+06 -6.82856e+06 -1.13823e+08)
(7.66329e+06 8706.68 1.09391e+07 1.65434e+06 8.72022e+06 -1.17071e+08)
(4.68049e+06 -2.53995e+06 2.3576e+07 -1.40851e+07 4.61425e+07 -5.18494e+07)
(1.36584e+07 1.05684e+07 1.41207e+07 -7.83379e+06 2.30053e+07 -1.16371e+08)
(6.69658e+06 -216365 1.38809e+07 -1.0418e+06 1.61419e+07 -1.09817e+08)
(-1.68595e+06 135095 4.57217e+06 5.83913e+06 -1.01981e+07 -3.95837e+07)
(8.47666e+06 -1.84969e+06 5.29202e+06 7.70565e+06 -8.33906e+06 -1.06057e+08)
(5.08629e+06 -2.29482e+06 1.01912e+07 3.19868e+06 5.26072e+06 -1.10776e+08)
(-1.30521e+06 -1.04195e+07 -5.67354e+06 8.67534e+06 -1.0778e+07 5.49572e+07)
(-1.18821e+06 -1.0662e+07 -5.92314e+06 9.21075e+06 -1.17834e+07 5.86769e+07)
(-1.34921e+07 -4.53402e+06 -4.96378e+07 -6.7193e+06 3.74034e+07 6.22234e+07)
(6.2922e+06 405316 -7.86394e+06 -2.25902e+06 -9.69759e+06 7.84289e+07)
(-9.96661e+06 -2.23717e+06 -3.47098e+07 -1.4138e+07 1.12113e+07 1.32712e+08)
(-3.05329e+07 9.90634e+06 -3.64099e+07 -1.73003e+07 1.49648e+07 1.54171e+08)
(-1.1558e+07 170035 -1.96676e+07 -1.48727e+07 -6.9709e+06 1.53451e+08)
(-1.51213e+07 188155 -3.43094e+07 -1.66063e+07 8.56531e+06 1.48744e+08)
(-2.15344e+07 -2.29605e+06 -5.95659e+07 -7.72861e+06 4.58191e+07 7.029e+07)
(-3.32462e+07 1.05006e+07 -4.45307e+07 -1.67154e+07 2.40861e+07 1.48226e+08)
(-1.63637e+07 -23407.3 -4.00416e+07 -1.58651e+07 1.59853e+07 1.38356e+08)
(6.70183e+06 529713 -7.91452e+06 -2.09917e+06 -1.09927e+07 8.29152e+07)
(-6.46923e+06 -1.52828e+06 -1.91141e+07 -1.29514e+07 -8.7618e+06 1.51111e+08)
(-9.12297e+06 -1.92892e+06 -3.03929e+07 -1.47773e+07 4.69124e+06 1.43946e+08)
(6.95595e+06 373624 3.97676e+06 1.20244e+07 -1.35619e+07 3.85819e+06)
(1.41959e+07 -1.7443e+06 -4.3354e+06 8.48742e+06 -1.3831e+07 -2.20554e+07)
(1.25536e+07 -1.73088e+06 -1.2665e+06 8.95972e+06 -1.53351e+07 -5.66361e+07)
(1.11926e+07 -106748 1.49542e+06 6.88346e+06 -1.00622e+07 -1.06787e+08)
(1.46717e+07 4.35869e+06 -1.22424e+07 529512 -1.64203e+07 -8.62195e+07)
(1.31695e+07 -550611 -3.3329e+06 7.389e+06 -1.52505e+07 -7.62077e+07)
(6.37204e+06 420239 4.22233e+06 1.18017e+07 -1.41176e+07 466394)
(9.45129e+06 -1.79381e+06 3.82293e+06 8.39904e+06 -1.10735e+07 -9.88314e+07)
(1.18881e+07 -1.73164e+06 -108416 9.03894e+06 -1.50984e+07 -6.82712e+07)
(1.50312e+07 -1.1396e+06 -7.55176e+06 6.6689e+06 -1.4966e+07 -2.91075e+07)
(1.50678e+07 3.62302e+06 -1.34177e+07 592463 -1.7463e+07 -7.49274e+07)
(1.37107e+07 -709917 -4.59068e+06 7.27246e+06 -1.57831e+07 -6.44171e+07)
(6.87056e+06 -7.17216e+06 -4.84513e+06 1.45553e+07 -1.25281e+07 7.02438e+07)
(6.20893e+06 -7.59799e+06 -5.12238e+06 1.43327e+07 -1.31361e+07 7.11158e+07)
(1.20066e+07 131768 -4.8977e+06 6.65108e+06 -1.37916e+07 8.55848e+07)
(2.62868e+06 -1.51549e+06 1.92384e+06 3.39862e+06 -1.39773e+07 8.23767e+07)
(-983874 -1.47176e+06 -4.65019e+06 -3.29559e+06 -1.55711e+07 1.13577e+08)
(-1.03253e+07 51658.7 -1.55687e+07 -1.33505e+07 -1.02007e+07 1.48575e+08)
(-1.6678e+07 4.25094e+06 1.37483e+06 -8.48465e+06 -1.61055e+07 1.10938e+08)
(-6.42145e+06 -399837 -5.27724e+06 -7.25758e+06 -1.53763e+07 1.23059e+08)
(1.17425e+07 213716 -5.26166e+06 5.96537e+06 -1.43713e+07 8.7595e+07)
(-5.47302e+06 -1.48634e+06 -1.58293e+07 -1.14534e+07 -1.1454e+07 1.46996e+08)
(-2.16385e+06 -1.46673e+06 -7.17565e+06 -5.52479e+06 -1.53676e+07 1.23522e+08)
(-994215 -994093 4.60684e+06 1.93787e+06 -1.50717e+07 7.98567e+07)
(-1.50654e+07 3.51947e+06 4.47395e+06 -6.38562e+06 -1.72211e+07 9.94643e+07)
(-5.07214e+06 -566432 -2.43153e+06 -4.96525e+06 -1.5905e+07 1.12523e+08)
(-2.41732e+07 -352511 -2.92071e+06 -2.21448e+07 2.24787e+06 -5.3825e+07)
(-2.64056e+07 -238514 -2.98347e+06 -2.49594e+07 1.7921e+06 -5.85178e+07)
(-2.22969e+07 -574545 -2.92815e+06 -1.90304e+07 3.26199e+06 -4.99929e+07)
(-2.00057e+07 -1.8485e+06 -3.96682e+06 -1.59632e+07 3.31815e+06 -4.75658e+07)
(-2.07331e+07 -943645 -2.96944e+06 -1.47305e+07 5.5338e+06 -4.71079e+07)
(-7.63599e+07 -775366 3.52532e+07 -4.48027e+07 1.17697e+06 -7.25578e+07)
(-5.48594e+06 -152326 -548817 -1.6115e+06 6.11899e+06 -1.72198e+07)
(-1.8805e+07 -8676.09 9.08778e+06 -1.1122e+07 940667 -1.87404e+07)
(-1.29783e+07 1.08566e+06 5.53939e+06 -1.07257e+07 3.59986e+06 -2.56175e+07)
(-1.36935e+07 238954 7.62106e+06 -7.79842e+06 1.49858e+06 -1.33185e+07)
(-1.67136e+07 9.35077e+06 1.97205e+07 3.20791e+07 -4.84974e+07 -4.49733e+07)
(5.70143e+06 -5.02721e+06 4.2849e+06 -6.31246e+06 -6.99614e+06 -4.96529e+06)
(-3.03163e+06 -2.91227e+06 328820 -5.66395e+06 -7.52379e+06 -5.01725e+06)
(1.43121e+07 -4.38122e+06 3.24468e+06 1.00719e+07 -9.49837e+06 3.13198e+07)
(1.28164e+07 -8.41058e+06 5.39019e+06 3.87873e+06 -1.45548e+07 1.11285e+07)
(-5.07328e+07 -333390 -4.217e+06 -4.88675e+07 2.33081e+06 -1.11301e+08)
(-6.15669e+07 -896042 8.8613e+06 -5.58955e+07 3.75357e+06 -1.21735e+08)
(-2.05795e+07 -101113 9.73802e+06 -1.22022e+07 844943 -2.04726e+07)
(-2.29777e+07 213565 7.46883e+06 -2.00181e+07 2.38141e+06 -4.38143e+07)
(-2.68732e+07 -200313 1.23099e+07 -1.59773e+07 673949 -2.64587e+07)
(-7.07993e+07 -711691 3.2529e+07 -4.15513e+07 1.09633e+06 -6.73166e+07)
(-4.38874e+07 242007 1.54738e+07 -3.85889e+07 3.90728e+06 -8.29021e+07)
(-5.53637e+07 -529250 2.53908e+07 -3.26482e+07 902558 -5.31734e+07)
(-4.62771e+07 -280357 -4.02875e+06 -4.46455e+07 2.17062e+06 -1.01646e+08)
(-4.21421e+07 -235471 -3.82951e+06 -4.07011e+07 2.00977e+06 -9.26579e+07)
(-2.19989e+07 260595 2.61695e+06 -1.92758e+07 2.3248e+06 -4.50003e+07)
(-2.4981e+07 264002 5.09554e+06 -2.10446e+07 1.46073e+06 -4.58155e+07)
(-2.50855e+07 19949.4 2.85771e+06 -2.24762e+07 2.06629e+06 -5.07645e+07)
(-5.40758e+07 -691679 7.45667e+06 -4.91805e+07 3.32431e+06 -1.0725e+08)
(-4.93263e+07 -144233 1.06577e+07 -4.22338e+07 2.1972e+06 -8.95599e+07)
(-4.75347e+07 -536495 6.29111e+06 -4.32911e+07 2.92979e+06 -9.4523e+07)
(-5.10238e+06 -6.76223e+06 -2.50522e+06 -1.10251e+07 3.47389e+07 -1.99861e+07)
(-2.67348e+06 -4.70243e+06 -211010 -7.09737e+06 1.17171e+07 -9.22409e+06)
(-757911 -1.13208e+07 -4.58636e+06 -9.06672e+06 5.03781e+07 2.38845e+06)
(-1.91777e+07 698444 2.64274e+06 -1.60748e+07 2.92907e+06 -4.00414e+07)
(-1.52813e+07 1.72054e+06 4.36111e+06 -1.15698e+07 2.64399e+06 -3.04898e+07)
(-1.63791e+07 1.51902e+06 3.10725e+06 -1.2438e+07 4.17351e+06 -3.57266e+07)
(-4.38768e+08 -6.40255e+07 -4.64366e+07 -5.72268e+08 2.16961e+08 -1.25435e+09)
(1.07781e+08 -4.87532e+07 6.79396e+07 1.37309e+08 -1.83539e+08 2.3142e+08)
(5.21664e+07 4.15728e+06 1.09536e+07 5.16843e+07 -938271 1.40611e+08)
(8.03755e+07 -3.12518e+07 3.60525e+07 6.90643e+07 -2.44442e+07 2.10499e+08)
(5.63507e+06 3.53465e+07 7.32991e+07 -4.56333e+07 1.46723e+08 2.58335e+07)
(1.55847e+07 2.68768e+06 3.84125e+07 -2.44482e+07 7.0937e+07 -1.7211e+07)
(2.32839e+07 7.22025e+06 4.60165e+07 -3.36856e+07 9.34609e+07 2.70622e+07)
(1.83699e+07 465075 4.38162e+07 -3.27325e+07 8.8032e+07 2.86376e+07)
(1.24125e+07 -3.32942e+07 1.77513e+07 -2.49814e+06 -4.68307e+07 2.42168e+06)
(-1.92507e+07 1.10731e+07 2.60364e+07 -8.40733e+07 -6.91548e+06 -1.29812e+08)
(-1.80744e+07 -1.94441e+07 -1.2219e+07 -8.04449e+06 -3.07014e+07 -6.25638e+07)
(5.66784e+07 -4.95968e+07 -7.32463e+06 1.43794e+08 7.28682e+07 6.54027e+07)
(-3.1827e+07 1.06847e+07 3.53073e+07 -6.29683e+07 2.60525e+07 -3.89166e+07)
(4.47974e+06 -88462.9 -2.34243e+06 -278899 4.0797e+06 -3.35214e+07)
(429453 6.32251e+06 -4.04545e+07 -1.61601e+07 -5.45696e+07 -2.29215e+08)
(-2.1886e+06 -6.22513e+06 -1.942e+07 -787495 3.37303e+07 9.4276e+06)
(394.649 -3.93919e+06 -7.99952e+06 2.59624e+06 9.76735e+06 -3.99818e+07)
(-8.84222e+06 -1.08493e+07 -2.2972e+07 -4.22837e+06 4.92033e+07 -3.44012e+07)
(-1.07448e+08 -2.21843e+07 -8.27968e+07 1.58217e+08 8.86846e+07 -3.96115e+08)
(-1.85709e+08 -1.24394e+07 -6.89223e+07 -5.7222e+07 8.68234e+07 -5.69391e+08)
(-8.94449e+07 -3.33802e+07 -8.61095e+07 1.23324e+08 7.68319e+07 -3.99905e+08)
(-4.25635e+07 2.79913e+06 -8.01573e+07 -5.00497e+06 7.19066e+07 5.11365e+07)
(-5.38327e+07 7.29877e+06 -8.90804e+07 1.04561e+06 9.46361e+07 2.01893e+07)
(-4.76829e+07 658210 -8.78603e+07 1.69031e+06 8.87775e+07 8.55492e+06)
(-1.63811e+07 -3.29998e+07 -4.61682e+07 3.34452e+07 -4.65923e+07 -2.61913e+08)
(-1.18754e+08 -2.13232e+07 -7.56098e+07 -9.13864e+07 -1.84435e+06 -3.27866e+08)
(-3.65514e+07 -5.58191e+07 -3.62697e+07 2.08265e+07 4.17699e+07 -2.30852e+08)
(3.86648e+06 -8.39956e+06 2.62622e+06 -3.80045e+06 -4.51957e+06 -1.85323e+07)
(1.04347e+07 -1.04488e+07 5.47675e+06 -625324 -1.39275e+07 -5.43057e+06)
(-2.0526e+06 -6.36103e+06 -2.15574e+06 -1.09924e+07 3.18858e+07 -2.26656e+07)
(-3.17211e+06 -974358 2.83126e+06 1.69729e+06 -2.08645e+06 -3.72416e+07)
(-4.64659e+06 -3.66773e+06 278458 -1.18407e+07 1.58162e+07 -3.62755e+07)
(1.32309e+07 8.48092e+06 15966.6 -2.09094e+06 64778.4 -1.26001e+08)
(1.40354e+07 3.6869e+06 -1.07651e+06 2.65719e+06 -5.28049e+06 -1.19065e+08)
(1.3728e+07 4.14018e+06 2.22636e+06 1.69048e+06 -408216 -1.23146e+08)
(1.43383e+07 4.03508e+06 3.24737e+07 -1.73093e+07 5.60827e+07 -5.26541e+07)
(1.53184e+07 1.09456e+07 2.64661e+07 -1.49465e+07 4.56975e+07 -8.32433e+07)
(1.34982e+07 4.7741e+06 2.64794e+07 -1.20125e+07 4.2844e+07 -8.0086e+07)
(146345 516610 5.26015e+06 8.1567e+06 -1.40699e+07 -3.34449e+07)
(1.74592e+06 -654120 3.66148e+06 -5.87384e+06 -1.57674e+07 -3.15472e+07)
(1.93266e+06 -1.66106e+06 2.04694e+06 -7.44087e+06 -7.16713e+06 -3.57985e+07)
(-811142 -8.43643e+06 -4.35329e+06 6.1581e+06 -5.64521e+06 3.41057e+07)
(-94393 -1.08436e+07 -6.51115e+06 1.10109e+07 -1.45452e+07 6.87934e+07)
(-3.61324e+06 -5.92329e+06 -1.84381e+07 242475 3.10235e+07 1.92505e+07)
(4.39982e+06 -403844 -7.46998e+06 -2.06968e+06 -3.18447e+06 5.15981e+07)
(907916 -3.24105e+06 -1.70167e+07 2.81568e+06 1.51169e+07 4.96219e+07)
(-2.58648e+07 8.36512e+06 -2.22991e+07 -1.65985e+07 821810 1.53612e+08)
(-2.13805e+07 3.63226e+06 -1.80814e+07 -1.68974e+07 -4.84785e+06 1.49711e+08)
(-2.32579e+07 4.08922e+06 -2.38922e+07 -1.80581e+07 96372.5 1.53615e+08)
(-3.82597e+07 4.11222e+06 -7.14525e+07 -9.89008e+06 5.69283e+07 8.56062e+07)
(-3.97511e+07 1.09314e+07 -6.25095e+07 -1.30044e+07 4.69953e+07 1.19648e+08)
(-3.49504e+07 4.81171e+06 -6.24577e+07 -1.38333e+07 4.37474e+07 1.11748e+08)
(8.26657e+06 755655 -7.83163e+06 -759735 -1.46859e+07 9.39107e+07)
(5.56704e+06 -430461 -1.1274e+07 8.57957e+06 -1.6045e+07 8.95619e+07)
(3.06152e+06 -1.39254e+06 -1.1568e+07 7.2897e+06 -7.55795e+06 8.60893e+07)
(9.21715e+06 162395 2.83327e+06 1.28261e+07 -1.07427e+07 1.67389e+07)
(1.1378e+07 -927290 908342 7.06148e+06 -1.43797e+07 1.717e+07)
(1.02235e+07 -1.11407e+06 1.02208e+06 5.03753e+06 -1.48095e+07 9.25536e+06)
(1.43638e+07 3.20899e+06 -3.89536e+06 3.27169e+06 -9.14691e+06 -1.12462e+08)
(1.3936e+07 5.9517e+06 -8.76439e+06 96520.1 -1.24e+07 -1.06829e+08)
(1.46979e+07 2.7311e+06 -6.26353e+06 3.60541e+06 -1.21162e+07 -1.03938e+08)
(4.02608e+06 571477 5.01072e+06 1.0786e+07 -1.55886e+07 -1.31375e+07)
(4.0644e+06 -1.26957e+06 2.34471e+06 -4.52805e+06 -1.29433e+07 -2.69794e+07)
(4.31927e+06 -524152 3.47053e+06 -2.6462e+06 -1.8662e+07 -2.0148e+07)
(1.65072e+07 289777 -1.34627e+07 3.03141e+06 -1.67262e+07 -3.73846e+07)
(1.58608e+07 2.31486e+06 -1.49033e+07 606801 -1.80736e+07 -5.20118e+07)
(1.62434e+07 616511 -1.29009e+07 3.20941e+06 -1.70832e+07 -4.8618e+07)
(9.50378e+06 -5.53311e+06 -3.55168e+06 1.5435e+07 -9.61371e+06 6.59222e+07)
(3.60784e+06 -9.13479e+06 -6.04936e+06 1.33065e+07 -1.49172e+07 7.32527e+07)
(1.307e+07 -230979 -3.35044e+06 9.37977e+06 -1.08783e+07 7.66851e+07)
(1.01632e+07 -880662 -1.87534e+06 1.19621e+07 -1.43876e+07 6.18702e+07)
(9.23206e+06 -1.0265e+06 -3.07008e+06 1.13029e+07 -1.49061e+07 6.85169e+07)
(-1.95693e+07 3.15565e+06 -1.28843e+07 -1.53414e+07 -8.7827e+06 1.43343e+08)
(-2.00744e+07 5.83122e+06 -6.30713e+06 -1.2403e+07 -1.19228e+07 1.32252e+08)
(-1.7807e+07 2.67975e+06 -8.27085e+06 -1.34829e+07 -1.18157e+07 1.35088e+08)
(1.05851e+07 526776 -6.53396e+06 3.2506e+06 -1.59565e+07 9.39738e+07)
(4.66158e+06 -1.05138e+06 -9.5481e+06 8.55866e+06 -1.32427e+07 8.7802e+07)
(6.75934e+06 -357552 -9.04004e+06 9.60659e+06 -1.88528e+07 8.66743e+07)
(-7.87957e+06 286580 9.71168e+06 54761.5 -1.67244e+07 7.03908e+07)
(-1.19475e+07 2.23352e+06 9.41009e+06 -2.13639e+06 -1.79638e+07 7.64674e+07)
(-9.46714e+06 598363 7.67405e+06 -2.21721e+06 -1.70425e+07 8.13014e+07)
(1.19288e+07 -1.11425e+06 172496 7.92288e+06 -1.24216e+07 2.01567e+07)
(1.08611e+07 -1.05609e+06 -991174 1.22193e+07 -1.24696e+07 5.95927e+07)
(-3.17505e+07 -171297 -3.25475e+06 -3.05995e+07 1.64041e+06 -7.00356e+07)
(-2.89279e+07 -186434 -3.10025e+06 -2.77171e+07 1.63995e+06 -6.39258e+07)
(-2.40784e+07 -205993 -1.99681e+06 -2.16442e+07 2.54737e+06 -5.3073e+07)
(-2.63754e+07 -126929 -1.07399e+06 -2.44069e+07 2.16119e+06 -5.7098e+07)
(-2.64691e+07 -200028 -2.07784e+06 -2.4731e+07 2.02511e+06 -5.80224e+07)
(-3.21936e+07 -211743 -2.2399e+06 -3.08054e+07 1.85206e+06 -7.01869e+07)
(-2.92381e+07 -184622 -1.0896e+06 -2.75486e+07 1.99647e+06 -6.3067e+07)
(-2.91648e+07 -198886 -2.15617e+06 -2.77084e+07 1.85004e+06 -6.37237e+07)
(-2.20211e+07 -181924 -1.87872e+06 -1.8142e+07 3.69588e+06 -4.89927e+07)
(-1.94639e+07 790964 -345002 -1.26089e+07 6.14089e+06 -4.42003e+07)
(-2.00707e+07 21530 -1.5954e+06 -1.31306e+07 6.21834e+06 -4.57365e+07)
(-1.87187e+07 -3.50145e+06 -4.39282e+06 -1.17976e+07 5.67037e+06 -4.72319e+07)
(-1.74168e+07 -1.14135e+06 -1.38422e+06 6.19695e+06 2.0839e+07 -4.60147e+07)
(-2.03351e+07 -1.49291e+06 -2.86208e+06 -9.2619e+06 9.64232e+06 -4.67141e+07)
(-1.78942e+07 1.97552e+06 696959 -6.5615e+06 1.00983e+07 -4.28241e+07)
(-1.34821e+07 3.08367e+06 1.39001e+06 1.03119e+07 2.19133e+07 -4.18515e+07)
(-1.86939e+07 714318 -855447 -6.60567e+06 1.06537e+07 -4.4637e+07)
(-7.23417e+06 1.61251e+06 -845383 -713919 6.90757e+06 -1.63998e+07)
(-1.12326e+07 1.36428e+06 5.79835e+06 -9.28957e+06 4.07578e+06 -2.32833e+07)
(-7.40517e+06 596960 7.29675e+06 -4.00245e+06 2.28775e+06 -5.64354e+06)
(-1.21229e+07 347623 7.36901e+06 -6.75973e+06 1.75601e+06 -1.15001e+07)
(-9.47944e+06 1.31301e+07 1.54388e+07 8.21176e+06 -3.66382e+07 -4.82218e+07)
(1.02861e+07 -305873 1.26806e+07 -6.74187e+06 -831999 -5.53839e+06)
(-5.88402e+06 586882 7.42617e+06 -3.38636e+06 2.11441e+06 -3.62294e+06)
(-3.02233e+06 -1.75372e+06 4.74661e+06 -5.81784e+06 -3.8849e+06 -1.6546e+06)
(1.41669e+07 -4.84201e+06 3.5485e+06 9.38964e+06 -1.02593e+07 2.93367e+07)
(1.30344e+07 -7.99355e+06 5.23366e+06 4.57297e+06 -1.42516e+07 1.35689e+07)
(-5.30095e+07 -484114 -2.56515e+06 -5.06803e+07 2.71207e+06 -1.14688e+08)
(-5.95708e+07 -837215 4.96542e+06 -5.51369e+07 3.67033e+06 -1.2149e+08)
(-2.50639e+07 278399 8.05151e+06 -2.18403e+07 2.46722e+06 -4.71698e+07)
(-3.7318e+07 -327567 1.69925e+07 -2.21311e+07 691417 -3.63119e+07)
(-2.91288e+07 -233817 1.33254e+07 -1.73275e+07 660134 -2.86361e+07)
(-4.03231e+07 118750 1.42789e+07 -3.54785e+07 3.591e+06 -7.70493e+07)
(-4.02204e+07 -359156 1.83713e+07 -2.38437e+07 721030 -3.90859e+07)
(-5.13468e+07 -490019 2.34602e+07 -3.02968e+07 847641 -4.93766e+07)
(-3.48825e+07 -178501 -3.43376e+06 -3.36923e+07 1.72589e+06 -7.68466e+07)
(-3.83449e+07 -201082 -3.6283e+06 -3.70529e+07 1.85613e+06 -8.43887e+07)
(-4.80477e+07 -402012 -2.54063e+06 -4.60273e+07 2.50531e+06 -1.04133e+08)
(-4.46377e+07 -415560 -887786 -4.25255e+07 2.55575e+06 -9.55832e+07)
(-4.3487e+07 -333510 -2.48582e+06 -4.17166e+07 2.30123e+06 -9.43891e+07)
(-3.55733e+07 -238719 -2.32667e+06 -3.41308e+07 1.95453e+06 -7.74276e+07)
(-4.01309e+07 -340183 -981029 -3.82559e+07 2.32861e+06 -8.60678e+07)
(-3.93332e+07 -279380 -2.41118e+06 -3.77571e+07 2.11225e+06 -8.54907e+07)
(-2.28842e+07 240331 1.29456e+06 -2.01433e+07 2.55029e+06 -4.8024e+07)
(-2.6165e+07 -55202.2 54435.9 -2.39881e+07 2.21723e+06 -5.56625e+07)
(-2.58021e+07 4903.61 1.37117e+06 -2.3405e+07 2.19486e+06 -5.36275e+07)
(-2.86952e+07 129927 5.83638e+06 -2.43732e+07 1.46342e+06 -5.23667e+07)
(-3.23967e+07 -226400 3.82504e+06 -2.94722e+07 2.13294e+06 -6.49219e+07)
(-2.85202e+07 -124790 3.27341e+06 -2.58234e+07 2.03141e+06 -5.73708e+07)
(-2.92194e+07 -162126 130215 -2.72441e+07 2.08744e+06 -6.18856e+07)
(-3.27162e+07 -224913 1.89847e+06 -3.02931e+07 2.18853e+06 -6.74335e+07)
(-2.9053e+07 -130826 1.58609e+06 -2.67276e+07 2.11235e+06 -6.00727e+07)
(-5.28238e+07 -653582 4.09087e+06 -4.89829e+07 3.2873e+06 -1.08e+08)
(-4.58032e+07 -483330 1.01222e+06 -4.31611e+07 2.77545e+06 -9.61829e+07)
(-4.68392e+07 -510978 3.37328e+06 -4.34886e+07 2.9285e+06 -9.59615e+07)
(-4.30662e+07 -73898 9.13057e+06 -3.68592e+07 1.93334e+06 -7.82462e+07)
(-3.67929e+07 -318631 4.50275e+06 -3.3531e+07 2.33195e+06 -7.35248e+07)
(-4.18115e+07 -418013 5.31862e+06 -3.8107e+07 2.60343e+06 -8.33472e+07)
(-4.0906e+07 -387161 704360 -3.85704e+07 2.508e+06 -8.60569e+07)
(-3.68537e+07 -309193 2.2959e+06 -3.42141e+07 2.36958e+06 -7.57903e+07)
(-4.15408e+07 -400794 2.78307e+06 -3.85878e+07 2.62342e+06 -8.5267e+07)
(-2.00712e+06 -7.15686e+06 9.45311e+06 -1.45993e+07 3.73889e+07 -2.36696e+07)
(1.12895e+06 -9.33155e+06 2.04793e+07 -2.54114e+07 6.15854e+07 1.9253e+07)
(-1.7383e+06 -9.54893e+06 9.19991e+06 -1.99804e+07 4.70131e+07 1.29847e+07)
(-2.05787e+06 -5.61053e+06 -406512 -8.47391e+06 1.30595e+07 -2.57816e+06)
(5.78013e+06 -2.17677e+07 -7.93811e+06 -6.00622e+06 6.70855e+07 4.10421e+07)
(-3.30729e+06 -1.2823e+07 -6.03253e+06 -7.90031e+06 5.58713e+07 8.56403e+06)
(1.80554e+06 -1.34245e+07 2.09799e+07 -3.69773e+07 7.3269e+07 6.41387e+07)
(4.43911e+06 -1.80921e+07 8.31176e+06 -3.33288e+07 6.61681e+07 1.07369e+08)
(-1.87073e+06 -1.3539e+07 8.26811e+06 -2.84999e+07 5.59132e+07 5.49201e+07)
(-2.02472e+07 689264 1.44955e+06 -1.67664e+07 3.34181e+06 -4.32827e+07)
(-1.86755e+07 1.31981e+06 859304 -1.25885e+07 5.65941e+06 -4.20908e+07)
(-1.76607e+07 1.56986e+06 2.01532e+06 -1.26657e+07 4.98176e+06 -3.92899e+07)
(-1.18878e+07 3.25095e+06 5.10584e+06 -8.10063e+06 3.72407e+06 -2.64732e+07)
(-9.28483e+06 6.13736e+06 6.87604e+06 -1.33634e+06 1.07233e+07 -2.82531e+07)
(-1.37122e+07 3.12129e+06 4.35866e+06 -8.63161e+06 6.14237e+06 -3.24678e+07)
(-1.6896e+07 2.89182e+06 2.1027e+06 -7.30498e+06 8.95636e+06 -4.03002e+07)
(-1.15327e+07 6.71846e+06 5.94178e+06 1.44773e+06 1.3834e+07 -3.34893e+07)
(-1.54938e+07 3.3142e+06 3.33099e+06 -8.24822e+06 7.60452e+06 -3.68494e+07)
(-1.08509e+08 2.38726e+06 -1.63733e+07 1.85939e+07 -1.0511e+06 -4.87118e+08)
(-1.88273e+07 602000 4.69018e+06 1.2801e+07 3.46442e+07 -5.91651e+07)
(5.8765e+07 1.94673e+07 3.59027e+07 1.5579e+08 1.33547e+08 2.57871e+07)
(1.75205e+08 -4.0694e+07 4.64669e+07 2.48387e+08 2.4241e+08 4.12703e+08)
(3.18826e+07 -1.17191e+07 4.38508e+07 -9.75431e+07 1.36039e+08 2.29447e+08)
(1.53322e+08 -3.91311e+07 2.11908e+07 1.36194e+08 2.31009e+08 3.94906e+08)
(5.34188e+07 -1.84619e+07 2.43401e+06 6.91497e+07 2.59568e+06 1.11818e+08)
(4.52424e+07 -4.3974e+07 1.18539e+07 -6.53042e+06 1.82814e+07 1.46355e+08)
(3.06721e+07 4.45783e+06 2.65817e+07 -7.44737e+06 8.3975e+07 1.00788e+08)
(6.32712e+07 -3.84412e+07 1.93043e+07 1.52346e+07 2.06962e+07 1.82563e+08)
(2.47395e+07 7.41853e+06 3.08767e+07 -1.32308e+07 1.00942e+08 9.45798e+07)
(2.92354e+07 -2.104e+07 3.54309e+07 -8.29427e+07 1.29183e+08 2.17878e+08)
(1.13907e+08 -3.43293e+07 2.07061e+07 9.06355e+07 1.86668e+08 3.20291e+08)
(1.29855e+08 -3.31517e+07 2.25828e+07 9.51198e+07 2.06952e+08 3.5253e+08)
(-1.41471e+07 5.53972e+06 6.18533e+06 1.71508e+07 3.54413e+07 -4.95401e+07)
(4.89573e+07 1.63896e+07 1.99975e+07 1.14919e+08 1.09028e+08 5.4663e+07)
(4.77317e+07 1.34761e+07 1.89957e+07 1.20605e+08 1.19265e+08 4.59228e+07)
(9.4799e+06 -950918 3.3322e+07 -2.34234e+07 6.61084e+07 -1.74441e+07)
(6.16594e+06 -7.2268e+06 2.93276e+07 -2.87003e+07 7.30318e+07 2.48457e+07)
(1.16774e+07 -3.59692e+06 3.73617e+07 -3.14331e+07 8.20661e+07 2.78008e+07)
(2.64152e+07 3.94551e+06 5.12846e+07 -4.80064e+07 1.11411e+08 8.18219e+07)
(3.04435e+07 -7.06953e+06 4.96671e+07 -5.67385e+07 1.27842e+08 1.5604e+08)
(2.0678e+07 -2.77446e+06 4.79756e+07 -4.75301e+07 1.05204e+08 8.2396e+07)
(7.59964e+06 -1.14539e+07 3.089e+07 -4.1533e+07 8.70805e+07 7.4252e+07)
(2.42438e+07 -1.331e+07 4.06093e+07 -5.19995e+07 1.19541e+08 1.51907e+08)
(1.39136e+07 -7.55778e+06 4.0079e+07 -4.5048e+07 9.80239e+07 8.04905e+07)
(-3.08641e+06 -2.56408e+07 6.05372e+06 -2.3759e+07 -2.45511e+07 3.19217e+06)
(7.02732e+06 -2.70646e+07 -1.12112e+07 1.85515e+06 7.53224e+07 5.42921e+07)
(7.06497e+07 -4.33435e+07 31123.9 8.57178e+07 8.27035e+07 9.67138e+07)
(2.76376e+07 1.4447e+07 1.48264e+07 2.63889e+07 2.64864e+07 7.87796e+06)
(-7.31292e+06 1.24403e+07 1.1913e+07 -158837 1.55701e+07 -2.83414e+07)
(1.33312e+07 2.55173e+07 2.42871e+07 3.56744e+07 4.63806e+07 -931146)
(2.50613e+07 -1.35371e+07 -9.35872e+06 3.10721e+07 -2.25216e+07 3.30915e+07)
(3.13405e+07 -4.53509e+07 1.04477e+07 -1.07776e+07 3.99667e+06 1.18119e+08)
(1.91312e+07 4.38658e+06 2.61127e+07 -1.63096e+07 6.96585e+07 7.3902e+07)
(9.23575e+06 -7.89581e+07 -1.04986e+07 -2.53881e+07 -4.27081e+06 1.10243e+08)
(-4.3256e+06 1.34957e+07 3.04013e+07 -3.72079e+07 4.78325e+07 2.3363e+07)
(2.98535e+06 -2.95862e+07 2.57794e+06 -5.25784e+07 6.80008e+07 1.51659e+08)