/*--------------------------------*- C++ -*----------------------------------*\
| =========                 |                                                 |
| \\      /  F ield         | OpenFOAM: The Open Source CFD Toolbox           |
|  \\    /   O peration     | Version:  2012                                  |
|   \\  /    A nd           | Website:  www.openfoam.com                      |
|    \\/     M anipulation  |                                                 |
\*---------------------------------------------------------------------------*/
FoamFile
{
    version     2.0;
    format      ascii;
    class       volScalarField;
    location    "0.108/solid";
    object      sigmaMin;
}
// * * * * * * * * * * * * * * * * * * * * * * * * * * * * * * * * * * * * * //

dimensions      [1 -1 -2 0 0 0 0];


internalField   nonuniform List<scalar> 
3125
(
4.87551e+07
-2.61422e+06
1.33113e+07
2.04206e+07
-3.89061e+07
-2.59942e+07
5.54468e+07
1.49606e+07
4.49281e+07
1.75873e+07
4.82812e+07
-293585
1.41633e+07
-3.22154e+08
-7.55825e+07
2.59067e+07
-7.54864e+06
1.50673e+07
-1.41967e+07
2.31932e+07
-1.35481e+08
4.38222e+07
-4.50388e+06
-2.51651e+07
-79697.9
-1.68701e+07
-5.05007e+07
-1.54262e+07
-1.18437e+07
-7.62638e+07
-2.32894e+07
-1.50283e+08
-1.4396e+08
-9.95125e+07
-2.97431e+07
-1.70518e+07
-1.6304e+07
-2.21693e+07
-6.32411e+07
-7.68471e+07
-7.08105e+07
-1.42551e+08
-9.94659e+07
-7.13062e+07
-3.98817e+07
-3.1249e+07
-6.16564e+07
-6.82176e+07
2.09389e+07
3.06811e+07
1.70985e+07
-1.26564e+06
-1.62222e+07
-6.96604e+06
-2.97731e+06
-8.86398e+06
-6.30872e+06
-3.23116e+07
-3.14663e+07
5.2036e+07
5.35701e+07
2.57733e+07
2.79373e+07
4.69653e+07
3.42073e+07
2.04622e+07
2.79284e+07
3.05446e+07
4.8001e+07
3.20483e+07
3.42736e+07
-3.26314e+07
-1.9897e+07
-1.6286e+08
1.66527e+07
-4.50099e+06
-1.32522e+07
4.68866e+06
-2.89838e+08
-8.75158e+07
-2.39934e+08
-3.09571e+07
-4.59803e+07
-2.3497e+08
-1.90866e+08
-2.86286e+07
-1.55134e+07
-6.92546e+07
-2.05351e+08
-2.58914e+07
-1.33214e+07
-1.58162e+07
-8.50987e+07
-1.41401e+07
-8.33774e+07
-1.33824e+08
2.4756e+07
-1.09591e+08
-1.02422e+08
-1.30266e+08
-1.01632e+08
-1.69641e+07
2.59397e+07
-9.03441e+07
-1.63822e+07
-1.77501e+07
-1.40032e+07
-6.86916e+06
-5.61922e+06
-1.89898e+07
-1.05047e+07
-8.70597e+06
-2.45881e+07
-2.16214e+07
-8.69432e+06
-8.09638e+06
-1.07459e+07
-6.93495e+06
-5.75359e+07
-6.15354e+07
-9.88803e+07
-8.0411e+07
-1.41547e+08
-1.62014e+08
-1.56045e+08
-1.56043e+08
-1.14363e+08
-1.61082e+08
-1.49564e+08
-8.51132e+07
-1.53832e+08
-1.4991e+08
-2.23903e+07
-1.47195e+07
-1.38974e+07
-1.12273e+07
-1.86363e+07
-1.32937e+07
-2.16218e+07
-1.17229e+07
-1.35683e+07
-1.66283e+07
-1.93759e+07
-1.39925e+07
-7.30927e+07
-7.41774e+07
-8.82339e+07
-8.48338e+07
-1.15783e+08
-1.50715e+08
-1.13076e+08
-1.25054e+08
-9.0398e+07
-1.49408e+08
-1.25705e+08
-8.29348e+07
-1.02323e+08
-1.14684e+08
2.18365e+07
2.47511e+07
1.84757e+07
1.46033e+07
1.35231e+07
3.91361e+07
-518766
9.42436e+06
8.2751e+06
5.26453e+06
-5.54908e+07
-1.0463e+07
-3.05479e+06
-3.59361e+07
-2.8341e+07
4.86474e+07
5.56496e+07
1.06104e+07
1.92053e+07
1.42853e+07
3.64639e+07
3.6899e+07
2.88326e+07
4.44422e+07
4.05147e+07
1.89794e+07
2.08566e+07
2.23054e+07
4.89738e+07
4.21068e+07
4.31154e+07
-2.12473e+07
-5.31673e+06
-4.97551e+07
1.543e+07
1.00232e+07
1.09146e+07
3.91045e+08
-3.9791e+08
-1.41949e+08
-2.26281e+08
-1.77958e+08
-6.8235e+07
-1.14301e+08
-1.06425e+08
-6.9706e+07
1.2212e+07
-1.19976e+07
-2.0229e+08
-9.2776e+06
-4.64905e+06
-1.77276e+07
-4.59007e+07
-8.71085e+06
-4.22124e+07
-1.7646e+08
3.89289e+07
-1.4364e+08
-1.26856e+08
-1.28751e+08
-1.20379e+08
-5.15467e+07
7.29276e+07
-6.49775e+07
-1.00319e+07
-2.23745e+07
-1.75942e+07
-2.05964e+06
1.14014e+06
-1.69987e+07
-1.51738e+07
-1.50436e+07
-4.37558e+07
-3.50777e+07
-2.92745e+07
-1.25606e+07
-3.9595e+06
-2.52622e+06
-3.54148e+07
-7.24567e+07
-4.8695e+07
-5.29253e+07
-5.91832e+07
-1.56341e+08
-1.51761e+08
-1.56787e+08
-1.35874e+08
-1.51572e+08
-1.44648e+08
-9.68334e+07
-9.39928e+07
-8.83289e+07
-2.59608e+07
-2.74593e+07
-2.22924e+07
-1.55303e+07
-1.74461e+07
-1.60346e+07
-1.86795e+07
-5.29038e+06
-1.01516e+07
-2.09305e+07
-2.11362e+07
-1.98608e+07
-6.77987e+07
-7.69606e+07
-7.85633e+07
-6.5766e+07
-7.22864e+07
-1.44861e+08
-1.33526e+08
-1.36486e+08
-9.71908e+07
-9.09501e+07
-9.19337e+07
-7.52315e+07
-8.11962e+07
-8.52261e+07
-2.79197e+07
-6.26842e+07
3.04415e+07
2.75478e+07
2.13871e+07
2.42461e+07
2.45492e+07
3.0648e+07
2.74034e+07
2.75495e+07
1.76676e+07
1.1394e+07
1.1976e+07
9.06805e+06
-1.35704e+07
6.59325e+06
3.6335e+06
-1.86497e+07
3.80943e+06
-2.0534e+06
6.02978e+06
-1.62539e+06
3.68215e+06
-2.70016e+07
-1.73392e+07
-3.34884e+06
-4.15284e+06
-3.49678e+07
-2.90997e+07
5.04245e+07
5.48615e+07
2.09528e+07
1.97842e+07
1.55026e+07
3.40532e+07
2.12454e+07
2.68591e+07
3.35314e+07
3.68813e+07
4.57976e+07
4.2312e+07
4.15115e+07
3.39635e+07
3.80693e+07
3.75732e+07
1.9869e+07
2.38325e+07
2.32421e+07
2.42392e+07
2.93443e+07
2.56902e+07
2.71075e+07
3.01594e+07
2.6594e+07
4.87524e+07
4.29509e+07
4.32943e+07
3.67405e+07
3.33944e+07
3.79537e+07
3.83896e+07
3.40675e+07
3.84206e+07
-1.85729e+07
-6.45784e+07
-4.64054e+07
-9.22885e+06
-9.28413e+07
-5.94878e+07
-1.04126e+08
-1.33607e+08
-8.29878e+07
1.61664e+07
1.12547e+07
1.11948e+07
4.65206e+06
-6.63407e+06
5.12237e+06
4.16171e+06
-9.56397e+06
4.81273e+06
-1.86424e+07
-2.68853e+07
-2.46107e+08
-5.86987e+08
-2.84177e+08
-5.30317e+08
-1.12009e+08
-1.48993e+08
-1.5194e+08
-1.86928e+08
-1.61823e+08
-2.68575e+08
-4.24627e+08
-4.67574e+08
-3.36594e+07
-2.02042e+08
-2.11231e+08
-5.8034e+07
-8.13608e+07
-9.55135e+07
-1.61967e+08
-2.25123e+08
-1.53681e+08
-1.2508e+08
-2.12348e+08
-1.42052e+08
-2.98124e+07
-1.13684e+08
-1.82367e+08
-5.86482e+07
-1.75781e+07
-8.43203e+07
-5.49055e+07
-1.19377e+08
-1.18141e+08
-1.11514e+08
-6.54472e+07
-1.72452e+08
-3.69343e+08
-2.88407e+08
-2.07114e+07
-1.73042e+08
-1.26441e+08
-6.14818e+06
-1.8444e+07
-6.23891e+07
-7.71798e+07
-5.23433e+07
-9.71759e+06
-4.30544e+07
-4.18426e+07
-7.47343e+07
-5.62733e+07
-4.96182e+07
-2.26057e+08
-1.34803e+08
-2.02066e+08
2.66699e+07
-1.26709e+08
-1.35288e+08
-1.25361e+08
-1.61025e+08
-1.76663e+08
-1.1674e+08
-9.52142e+07
-1.09955e+08
-1.23294e+08
-1.24693e+08
-1.16516e+08
-9.26257e+07
-1.15978e+08
-1.07023e+08
-3.90141e+07
-4.49905e+07
-6.3036e+07
3.70604e+07
-1.14322e+08
-9.81655e+07
-6.23109e+07
-1.40879e+08
-1.05168e+08
-1.17524e+07
-2.13359e+07
-4.52689e+06
-5.61465e+06
-2.19266e+06
-3.19406e+06
2.43148e+06
-1.02625e+06
-4.64112e+06
-4.66249e+06
-3.28296e+06
-1.76088e+07
-1.60923e+07
-1.5268e+07
-1.23648e+07
-9.79538e+06
-1.19342e+07
-1.19461e+07
-9.15576e+06
-1.17316e+07
-3.4607e+07
-1.37572e+07
-2.15743e+07
-2.64413e+07
-1.79514e+07
-2.17677e+07
-9.80252e+06
-1.29432e+07
-1.5564e+07
-1.15034e+07
-541004
-24809.7
-1.03262e+07
-9.59231e+06
-9.03891e+06
-6.14509e+06
-8.29763e+06
-7.6283e+06
-4.19386e+07
-7.04175e+07
-8.07136e+07
-1.14647e+08
-1.01818e+08
-6.11529e+07
-7.71989e+07
-6.30101e+07
-1.29553e+08
-1.36326e+08
-1.21094e+08
-1.60355e+08
-1.59798e+08
-1.59567e+08
-1.55553e+08
-1.58995e+08
-1.59592e+08
-1.59673e+08
-1.59117e+08
-1.61073e+08
-1.27139e+08
-1.27535e+08
-1.38004e+08
-1.57543e+08
-1.57295e+08
-1.52135e+08
-1.39844e+08
-1.55208e+08
-1.47818e+08
-9.48852e+07
-7.86843e+07
-8.95488e+07
-1.54867e+08
-1.55705e+08
-1.55797e+08
-1.47029e+08
-1.54539e+08
-1.5337e+08
-2.4935e+07
-1.62857e+07
-2.22602e+07
-1.54971e+07
-1.43557e+07
-1.51945e+07
-1.44195e+07
-1.41518e+07
-1.48451e+07
-1.29286e+07
-1.19309e+07
-1.35703e+07
-1.79851e+07
-1.73233e+07
-1.66413e+07
-1.26166e+07
-1.50027e+07
-1.42652e+07
-1.94329e+07
-1.65499e+07
-1.00378e+07
-1.14582e+07
-1.25083e+07
-1.24254e+07
-1.38869e+07
-1.31165e+07
-1.32302e+07
-1.87096e+07
-1.55873e+07
-1.75982e+07
-2.02124e+07
-1.80804e+07
-1.8922e+07
-1.47394e+07
-1.57891e+07
-1.66429e+07
-6.92292e+07
-7.65328e+07
-8.10901e+07
-8.11923e+07
-7.61347e+07
-8.78931e+07
-9.50601e+07
-9.81914e+07
-1.18841e+08
-1.05465e+08
-1.08602e+08
-1.49368e+08
-1.43474e+08
-1.4147e+08
-1.23585e+08
-1.16846e+08
-1.27023e+08
-1.34777e+08
-1.22214e+08
-1.32285e+08
-9.58161e+07
-8.53733e+07
-8.79661e+07
-1.51148e+08
-1.42936e+08
-1.45199e+08
-1.2861e+08
-1.34888e+08
-1.37532e+08
-7.98206e+07
-9.33422e+07
-9.01565e+07
-9.16116e+07
-1.0629e+08
-9.56621e+07
-1.04012e+08
-1.11623e+08
-1.0084e+08
6.25601e+07
5.70732e+07
5.16847e+07
4.7203e+07
6.12031e+07
5.79489e+07
5.08205e+07
-926585
1.34132e+07
1.24098e+07
1.49089e+07
1.18901e+07
1.51299e+07
1.31876e+07
1.09215e+07
-1.55104e+07
-1.70354e+07
1.83786e+06
-442374
3.09126e+07
1.18677e+07
-8.37506e+06
-3.78823e+07
-2.6792e+07
1.84003e+07
1.38075e+07
1.67155e+07
1.62621e+07
1.6747e+07
1.83065e+07
1.52192e+07
4.98806e+07
5.27462e+07
4.38871e+07
4.24025e+07
5.37705e+07
4.92362e+07
4.08238e+07
4.65987e+06
5.46773e+06
-7.39334e+06
-1.09513e+06
4.6255e+06
-1.04887e+07
5.55624e+06
-5.97104e+06
-5.29529e+06
-2.74299e+07
-2.43973e+07
-3.30456e+07
-9.49592e+06
-2.11173e+07
-1.44937e+07
-4.71919e+07
2.22613e+06
-1.98088e+07
6.47129e+07
-3.34739e+06
-1.40282e+07
-3.66975e+06
2.93449e+07
-6.38845e+06
-2.42824e+07
6.15585e+06
6.00768e+06
-5.32986e+06
-389479
6.06186e+06
6.28422e+06
-4.21879e+06
-967321
-1.4518e+07
-731761
-1.51997e+07
65787.6
-1.41989e+07
-1.74668e+06
-2.02218e+07
-7.53561e+07
-9.33396e+07
-2.98227e+07
-5.46558e+07
-3.37245e+07
-7.06388e+07
-3.6986e+07
-7.49008e+07
-2.06858e+08
-9.9108e+07
-9.65253e+07
-1.74205e+08
-9.60644e+07
-1.75449e+08
-2.0495e+08
-1.19911e+07
-2.83528e+07
-1.29633e+07
-2.92131e+07
-1.21936e+07
-2.80635e+07
-1.24863e+07
-3.3478e+06
-1.71234e+07
-1.55057e+06
-1.61816e+07
-2.37985e+06
-2.56526e+06
-1.70938e+07
-6.47876e+07
-7.71322e+07
-1.14571e+08
-7.3414e+07
-6.88626e+07
-9.70681e+07
-7.14075e+07
-1.02808e+08
-1.07494e+08
-1.98459e+08
-9.90419e+07
-9.65258e+07
-1.72161e+08
-2.02112e+08
-9.61779e+07
-1.69435e+08
-1.38553e+07
-3.045e+07
-1.2993e+07
-6.63276e+07
-9.13993e+07
-1.00526e+08
-5.36325e+06
2.83846e+06
604478
-4.46386e+06
-1.07783e+06
25565.6
871696
1.5054e+06
-1.14548e+07
-6.5887e+06
-7.48812e+06
-5.62557e+06
-3.16599e+06
-2.12864e+06
-1.47851e+07
-6.19949e+06
-3.31656e+07
-3.06527e+07
2.756e+07
2.42602e+07
2.94624e+07
2.45609e+07
2.97014e+07
2.74934e+07
2.2821e+07
3.44023e+07
2.96456e+07
3.18128e+07
2.64133e+07
3.19499e+07
3.40543e+07
2.84062e+07
-1.16535e+08
-1.84236e+07
-1.04091e+08
-4.08957e+07
-8.16132e+07
-1.44978e+08
-3.76979e+07
-2.03337e+08
-2.00252e+07
-1.36875e+08
-5.09323e+07
-1.47158e+08
-1.90676e+08
-4.70693e+07
-1.07018e+07
-1.86981e+07
-5.1995e+06
-1.2612e+07
-2.60354e+07
-1.16624e+06
-2.36879e+07
-2.5454e+06
-3.74368e+06
-569747
-2.029e+07
-2.94673e+07
917649
-3.50194e+07
2.22182e+06
-1.41777e+06
-1.49252e+07
-1.90269e+07
4.75412e+06
-5.63635e+06
4.95392e+06
-6.78929e+06
5.43201e+06
4.18438e+06
-5.89906e+06
2.84557e+06
-9.27083e+06
4.37819e+06
-7.7951e+06
3.73481e+06
3.54122e+06
-8.82499e+06
-5.29691e+07
-6.49806e+07
-1.74825e+08
-7.48706e+07
-7.77903e+07
-1.54345e+08
-7.25343e+07
-1.45787e+08
-1.84582e+08
-1.98533e+08
-8.90673e+07
-8.22823e+07
-1.6128e+08
-8.61211e+07
-1.66721e+08
-1.92468e+08
-9.12221e+06
-2.31825e+07
-7.91922e+06
-2.27851e+07
-8.66223e+06
-8.48977e+06
-2.35483e+07
-7.12296e+06
-2.08876e+07
-7.16137e+06
-2.20046e+07
-6.3937e+06
-7.80045e+06
-2.12409e+07
-7.18883e+07
-7.51167e+07
-1.50652e+08
-8.59433e+07
-8.58662e+07
-1.37527e+08
-8.36534e+07
-1.31849e+08
-1.57727e+08
-1.71271e+08
-9.23935e+07
-8.79637e+07
-1.43024e+08
-8.98791e+07
-1.48288e+08
-1.64631e+08
2.50803e+07
2.46444e+07
2.45337e+07
2.48427e+07
2.06547e+07
2.25068e+07
2.49989e+07
2.46966e+07
2.01779e+07
2.1926e+07
2.25119e+07
2.01978e+07
-108879
1.63775e+07
624328
1.97831e+07
2.04891e+07
1.4373e+07
2.19093e+06
2.01171e+07
2.04245e+07
1.33383e+07
1.32886e+07
1.90546e+07
6.75732e+07
5.61483e+07
6.62715e+07
5.47835e+07
5.70554e+07
4.3232e+07
4.23274e+07
5.26026e+07
4.66625e+07
4.58662e+07
5.0481e+07
18586.9
1.15183e+07
1.08212e+07
8.11965e+06
1.30411e+07
9.47424e+06
1.16678e+07
1.00531e+07
8.93912e+06
7.6634e+06
1.11313e+07
9.67576e+06
9.39612e+06
9.95971e+06
6.74894e+06
6.57608e+06
8.25288e+06
8.07766e+06
-5.78835e+07
-1.14683e+07
-1.32473e+07
4.25909e+06
-834020
2.39295e+07
-1.22637e+07
1.69189e+06
-3.34055e+06
-6.68493e+06
1.83562e+06
-1.51578e+06
-1.82059e+06
-1.52909e+06
-1.60998e+06
-3.68919e+07
-2.75567e+07
5.34649e+07
5.43653e+07
4.8994e+07
4.79117e+07
5.21405e+07
4.9964e+07
4.97292e+07
4.90109e+07
5.10475e+07
6.67392e+07
6.55164e+07
6.11493e+07
5.79756e+07
6.29999e+07
5.87755e+07
6.70798e+07
6.0687e+07
5.79147e+07
5.87331e+07
6.01676e+07
1.59554e+07
1.2116e+07
1.18109e+07
1.44669e+07
1.34117e+07
2.0082e+07
1.79061e+07
2.17282e+07
1.80838e+07
2.00981e+07
2.18234e+07
1.66325e+07
1.74858e+07
1.30299e+07
1.6073e+07
1.90821e+07
1.47336e+07
4.50861e+07
4.01404e+07
3.36617e+07
4.88152e+07
3.72397e+07
4.62708e+07
3.9117e+07
4.254e+07
3.52933e+07
4.55436e+07
4.2953e+07
3.79464e+07
4.16942e+07
3.11353e+07
3.20282e+07
3.85423e+07
3.45142e+07
4.16692e+07
4.12938e+07
4.08811e+07
4.24027e+07
4.3926e+07
4.49177e+07
4.4819e+07
4.65849e+07
4.5687e+07
4.5371e+07
4.10756e+07
4.01689e+07
2.28522e+07
2.38565e+07
2.30725e+07
2.35207e+07
1.93719e+07
1.73415e+07
1.92463e+07
1.87007e+07
2.23626e+07
2.29879e+07
2.09814e+07
2.32658e+07
1.94705e+07
1.93378e+07
1.91443e+07
1.96813e+07
4.67905e+07
4.5032e+07
4.67891e+07
4.5284e+07
5.137e+07
5.46073e+07
5.34589e+07
5.0291e+07
5.15367e+07
5.30471e+07
5.32644e+07
5.10468e+07
4.67887e+07
4.36901e+07
4.74276e+07
4.49704e+07
-6.60615e+07
-3.53475e+07
-2.61163e+06
-2.79855e+06
-1.08415e+07
-1.94553e+07
3.3953e+06
-1.46847e+07
-2.42925e+07
-5.04701e+06
-1.34567e+07
8.33069e+06
1.03848e+07
7.30255e+06
1.01759e+07
1.47354e+07
1.53626e+07
1.33673e+07
1.50321e+07
9.51629e+06
8.21704e+06
1.0789e+07
9.71864e+06
1.51157e+07
1.45877e+07
1.47374e+07
1.52671e+07
-1.41667e+09
-1.82377e+09
-1.47406e+09
-3.28849e+09
-1.72999e+09
-1.19424e+09
-1.89558e+09
-1.65646e+09
-2.61459e+09
-1.78846e+08
-1.92026e+08
-1.6718e+08
-2.03072e+08
-1.44141e+08
-1.2652e+08
-1.85053e+08
-2.07762e+08
-1.36206e+08
-1.08446e+08
-1.18868e+08
-1.2614e+08
-6.64878e+08
-1.19161e+09
-8.92393e+08
-4.33957e+08
-6.24197e+08
-2.71775e+08
-1.20435e+08
-4.82317e+08
-4.93836e+07
-3.46872e+08
-8.90378e+07
-5.67951e+08
-5.17537e+08
-4.51105e+07
-6.66828e+08
2.34183e+07
-4.68595e+06
-1.14867e+07
-2.29051e+07
-3.87663e+07
-1.65731e+07
-8.44741e+06
-1.96237e+07
-6.88346e+06
-1.97955e+07
-8.59703e+06
-1.19663e+07
-9.0953e+07
-6.35113e+07
-9.39082e+06
3.44613e+06
1.84056e+07
-1.08185e+07
3.46724e+07
1.46392e+08
-2.58914e+07
-7.49293e+06
4.68938e+07
1.43318e+08
4.29836e+07
1.4323e+08
-1.48753e+08
-1.16655e+08
-1.42991e+08
-1.24355e+08
-1.90037e+08
-2.13047e+08
-1.85263e+08
-2.00749e+08
-2.07449e+08
-1.76848e+08
-1.5666e+08
-1.29783e+08
2.65104e+07
2.30479e+07
-2.13858e+06
-4.97729e+07
-6.57467e+07
1.16311e+07
-4.66907e+07
7.01296e+06
-321698
1.38389e+07
1.06741e+07
-8.25044e+06
-2.33634e+07
8.15804e+06
7.29031e+06
6.17735e+06
-1.08817e+06
6.36323e+06
-3.9758e+06
6.4058e+06
-3.8662e+06
5.97747e+06
1.56904e+06
4.09563e+06
-2.01689e+07
-1.92878e+07
-2.04959e+07
-1.86535e+07
-2.69796e+07
-2.65735e+07
-2.77614e+07
-2.86437e+07
-1.9396e+07
-1.80445e+07
-1.93133e+07
-1.8319e+07
-6.46789e+07
-5.13242e+07
-5.87019e+07
-5.77636e+07
-8.97593e+07
-1.02138e+08
-8.1394e+07
-8.45537e+07
-9.26111e+07
-7.29582e+07
-7.46752e+07
-6.64042e+07
8.59145e+06
7.74246e+06
-163442
-1.35601e+07
1.63495e+06
-1.20911e+07
843299
-1.3149e+07
619052
5.97721e+06
6.88637e+06
-2.81886e+07
-7.40915e+07
-2.04672e+08
-1.80212e+08
-1.14215e+08
-4.37369e+07
-5.25859e+07
-1.09271e+08
-4.47964e+07
-9.31454e+07
-1.32737e+08
-1.22569e+08
-1.51657e+08
-3.45394e+08
-3.52588e+08
-3.50556e+08
-3.47825e+08
-3.3209e+08
-3.24132e+08
-3.37896e+08
-3.4356e+08
-3.39716e+08
-3.3518e+08
-3.32106e+08
-3.42511e+08
-2.82582e+08
-2.92572e+08
-2.76865e+08
-2.96943e+08
-2.60304e+08
-2.41966e+08
-2.57274e+08
-2.31232e+08
-2.38706e+08
-2.51365e+08
-2.83797e+08
-2.97392e+08
-3.01644e+08
-3.01429e+08
-2.0772e+08
-9.82331e+07
-9.37445e+07
-1.75247e+08
-9.51729e+07
-1.75812e+08
-2.07457e+08
-2.9506e+08
-2.98332e+08
-7.52157e+06
-8.15558e+06
-1.14579e+07
-2.70995e+07
-1.07957e+07
-2.60585e+07
-1.14918e+07
-2.702e+07
-1.09309e+07
-9.97818e+06
-9.35072e+06
-2.0056e+07
-1.90535e+07
-1.8892e+07
-2.02432e+07
-2.62811e+07
-2.63612e+07
-2.65258e+07
-2.66894e+07
-1.94462e+07
-1.82706e+07
-1.93251e+07
-1.82508e+07
1.95775e+06
2.8554e+06
-4.14166e+06
-1.79168e+07
-3.9982e+06
-1.88387e+07
-3.18558e+06
-1.79903e+07
-4.88806e+06
4.92323e+06
4.02731e+06
-3.01238e+07
-2.72329e+07
-2.79414e+07
-2.96989e+07
-3.59652e+07
-3.6821e+07
-3.44779e+07
-3.37502e+07
-3.23609e+07
-3.04251e+07
-3.28677e+07
-2.96022e+07
-6.6306e+07
-7.71675e+07
-1.70423e+08
-1.59843e+08
-1.21748e+08
-7.59973e+07
-7.64476e+07
-1.14458e+08
-7.39425e+07
-1.086e+08
-1.28977e+08
-1.37757e+08
-1.48065e+08
-3.03304e+08
-2.96142e+08
-3.06933e+08
-2.92398e+08
-3.05904e+08
-3.15607e+08
-3.14045e+08
-3.2687e+08
-3.23563e+08
-3.17554e+08
-2.95293e+08
-2.84314e+08
-2.67454e+08
-2.75038e+08
-1.94101e+08
-9.8268e+07
-9.44643e+07
-1.62304e+08
-9.54612e+07
-1.66132e+08
-1.89133e+08
-2.89023e+08
-2.83317e+08
-1.64026e+08
-1.79118e+08
-1.67118e+08
-1.75863e+08
-1.45565e+08
-1.34684e+08
-1.50721e+08
-1.42319e+08
-1.39604e+08
-1.53637e+08
-1.5845e+08
-1.70031e+08
-1.1151e+07
2.79795e+07
2.77742e+07
2.78277e+07
2.82011e+07
3.04601e+07
3.10215e+07
2.79529e+07
2.76505e+07
3.07469e+07
3.1527e+07
3.08187e+07
3.11909e+07
2.44705e+07
2.4565e+07
2.46256e+07
2.45801e+07
1.97758e+07
2.04629e+07
2.06958e+07
1.97955e+07
1.99708e+07
2.13965e+07
2.00018e+07
2.10565e+07
2.42488e+07
2.44442e+07
2.44404e+07
2.41175e+07
2.83466e+07
2.77544e+07
2.82509e+07
2.77223e+07
3.10663e+07
3.21096e+07
3.19766e+07
3.11107e+07
3.10295e+07
3.17134e+07
3.09578e+07
3.19054e+07
2.82999e+07
2.75842e+07
2.76289e+07
2.83518e+07
1.1206e+06
1.40502e+07
629515
1.27969e+07
1.67527e+07
1.31533e+07
1.29616e+07
1.63684e+07
1.72629e+07
1.30902e+07
1.79293e+07
1.31243e+07
1.22487e+06
1.15623e+07
1.21957e+07
1.98046e+06
2.39415e+07
-2.67188e+07
-3.09978e+07
1.51646e+07
-1.01612e+08
5.23928e+07
2.62557e+07
-2.6698e+07
-1.04689e+08
1.35326e+07
-8.50817e+07
3.71121e+07
8.79159e+06
-2.53208e+07
-2.3117e+07
1.08907e+07
-6.84956e+07
6.0099e+06
-6.25631e+07
7.33187e+06
8.41734e+06
-1.97826e+07
-2.20987e+07
7.26776e+06
-7.15651e+07
9.29439e+06
-7.92553e+07
7.01609e+06
-3.69884e+06
5.097e+06
3.70999e+06
6.45421e+06
5.88392e+06
7.66047e+06
3.38264e+06
3.665e+06
2.46723e+06
-336431
125189
509246
1.45369e+06
4.45547e+06
4.98966e+06
1.92985e+06
6.45373e+06
3.24006e+06
-1.67405e+07
-9.0262e+06
-1.2658e+07
-3.75874e+07
-4.76497e+06
-8.55732e+06
-7.52106e+06
-8.25709e+06
-2.63777e+06
-2.00752e+06
-4.755e+06
-1.51092e+06
-3.19958e+06
-4.02063e+06
-3.3184e+06
-5.10094e+06
-3.91225e+06
-4.17791e+06
-3.40399e+07
-2.98702e+07
5.67657e+07
5.58038e+07
5.43469e+07
5.34828e+07
5.52758e+07
5.26976e+07
5.81767e+07
5.91871e+07
5.32012e+07
5.08667e+07
5.22577e+07
5.16259e+07
6.33791e+07
6.44187e+07
5.75046e+07
5.46985e+07
5.66053e+07
5.54989e+07
6.18862e+07
6.08029e+07
5.86782e+07
5.72488e+07
5.93712e+07
5.65487e+07
2.55277e+07
2.23368e+07
2.36171e+07
1.95823e+07
2.36187e+07
2.53844e+07
2.11587e+07
2.43244e+07
2.20681e+07
1.82649e+07
2.63217e+07
2.04601e+07
2.24558e+07
1.74517e+07
1.68448e+07
2.06901e+07
1.89116e+07
3.70701e+07
3.21206e+07
3.93957e+07
3.28406e+07
3.99251e+07
3.68018e+07
3.05588e+07
3.06265e+07
2.37585e+07
2.29492e+07
2.8328e+07
2.56074e+07
3.31056e+07
2.97636e+07
2.48115e+07
3.58106e+07
2.76259e+07
3.72384e+07
3.8525e+07
3.79373e+07
3.75287e+07
3.41573e+07
3.34506e+07
3.44588e+07
3.40428e+07
3.38624e+07
3.49154e+07
3.66864e+07
3.74977e+07
4.36805e+07
4.19462e+07
4.31073e+07
4.23661e+07
4.76023e+07
4.98123e+07
4.91082e+07
4.81747e+07
4.68191e+07
4.75224e+07
4.62463e+07
4.8266e+07
4.42721e+07
4.33178e+07
4.2912e+07
4.47924e+07
3.82782e+07
3.90314e+07
3.79895e+07
3.94591e+07
3.57659e+07
3.48358e+07
3.4691e+07
3.60029e+07
3.55526e+07
3.43361e+07
3.45106e+07
3.52513e+07
3.86255e+07
4.02093e+07
3.98438e+07
3.88882e+07
2.36353e+07
2.40783e+07
2.33898e+07
2.42733e+07
1.98161e+07
2.0284e+07
1.97898e+07
2.00649e+07
2.38288e+07
2.44152e+07
2.39902e+07
2.43664e+07
1.98247e+07
1.96104e+07
1.97487e+07
1.98786e+07
2.74361e+07
2.67721e+07
2.6565e+07
2.77979e+07
3.0036e+07
3.10936e+07
2.86234e+07
3.12692e+07
2.71336e+07
2.46364e+07
2.60541e+07
2.68454e+07
3.0534e+07
3.18809e+07
3.06802e+07
3.15544e+07
2.82618e+07
2.70859e+07
2.72965e+07
2.80507e+07
3.11643e+07
3.22418e+07
3.1186e+07
3.22735e+07
2.83457e+07
2.75446e+07
2.83788e+07
2.74453e+07
3.11002e+07
3.20948e+07
3.09487e+07
3.22646e+07
4.64135e+07
4.49201e+07
4.65953e+07
4.47148e+07
4.95977e+07
5.0787e+07
5.14142e+07
4.9056e+07
5.02954e+07
5.26039e+07
5.07045e+07
5.22084e+07
4.59055e+07
4.39319e+07
4.54838e+07
4.42845e+07
3.97659e+07
4.12438e+07
4.10957e+07
3.96873e+07
3.58084e+07
3.29724e+07
3.57919e+07
3.44038e+07
3.9362e+07
4.1244e+07
4.09636e+07
3.80027e+07
3.60435e+07
3.49353e+07
3.48776e+07
3.6304e+07
3.96998e+07
4.12343e+07
4.12121e+07
3.97478e+07
3.6408e+07
3.50543e+07
3.62795e+07
3.51301e+07
3.94803e+07
4.06703e+07
3.92834e+07
4.09267e+07
3.65227e+07
3.51204e+07
3.51877e+07
3.64298e+07
-6.88745e+07
-7.82917e+07
-5.16543e+07
-9.48544e+07
-5.21011e+07
-5.21517e+07
-6.57329e+07
-3.85251e+07
-8.49465e+07
-1.28231e+08
-1.11786e+08
-1.02292e+08
-3.7426e+07
-1.59183e+07
-2.47957e+07
-2.67947e+07
-1.14993e+08
-1.57815e+08
-8.1481e+07
-1.29172e+07
-3.29545e+07
-2.53762e+07
-5.28318e+07
-5.55419e+07
-3.05424e+07
-2.6382e+08
-2.20742e+08
-1.85432e+08
-1.36802e+08
-1.57712e+08
-1.67039e+08
-3.04553e+08
-3.34434e+08
-3.25846e+08
-3.12853e+08
-2.03681e+08
-1.94981e+08
-1.76016e+08
-2.2197e+08
-2.81332e+08
-2.66834e+08
-2.55683e+08
-2.9002e+08
4.82757e+06
1.06029e+07
5.98795e+06
1.11187e+07
1.58956e+07
1.33292e+07
1.6206e+07
1.36367e+07
3.71699e+06
1.15654e+07
2.67165e+06
1.10605e+07
1.57879e+07
1.42462e+07
1.54645e+07
1.39666e+07
3.7523e+06
-5.00352e+06
-1.65252e+06
4.68519e+06
-8.85076e+06
-1.18475e+07
-2.2899e+06
-1.10854e+07
2.54743e+06
4.7976e+06
1.64832e+06
666301
-1.74202e+07
-2.34202e+06
-2.69041e+07
-6.12323e+06
6.80566e+06
-8.70223e+06
-1.20855e+07
5.56932e+06
-5.13774e+07
6.46134e+06
-5.82696e+07
4.50155e+06
6.5858e+06
-1.7864e+07
7.68405e+06
-1.4977e+07
-4.49179e+07
1.6998e+06
-3.64651e+07
4.39397e+06
-6.80516e+08
9.45905e+07
-2.86146e+08
-4.77399e+08
1.55766e+08
-3.28207e+08
5.85271e+07
-2.18134e+08
-2.90641e+08
2.27682e+07
-1.06275e+09
9.61305e+07
-8.58958e+08
-7.4403e+08
-7.74254e+08
-8.36858e+08
-4.65767e+08
-6.37057e+08
-9.19305e+08
-6.64426e+08
-5.09158e+08
-6.04651e+08
-5.08479e+08
-6.23318e+08
-1.10983e+09
-1.6735e+09
-2.03596e+09
-1.21006e+09
-1.6503e+09
-1.53156e+09
-1.07934e+09
-1.51734e+09
-1.45698e+09
-1.56241e+09
-1.69405e+09
-1.0107e+09
-8.21821e+08
-7.06846e+08
-8.364e+08
-6.75437e+08
-4.71687e+08
-5.39042e+08
-5.59812e+08
-4.50732e+08
-4.86656e+08
-5.93683e+08
-5.04837e+08
-5.78514e+08
-7.97365e+08
-6.21813e+08
-6.56086e+08
-7.7071e+08
-3.99931e+08
-8.27874e+07
-4.74814e+08
3.17083e+07
2.60482e+07
-1.5973e+08
-1.76366e+08
2.48267e+07
2.55797e+07
-2.06021e+08
-1.79633e+08
2.91642e+07
-4.20666e+08
3.21403e+06
-2.86559e+07
-3.67285e+08
-1.44493e+08
-1.8325e+08
-1.57963e+08
-1.70226e+08
-9.23291e+07
-6.37024e+07
-7.9346e+07
-7.69386e+07
-1.32348e+08
-1.42987e+08
-1.16683e+08
-1.57964e+08
-1.04565e+08
-9.95243e+07
-1.16138e+08
-8.7638e+07
-2.94867e+08
-2.62508e+08
-2.74412e+08
-2.84481e+08
-4.16645e+08
-3.96652e+08
-2.93991e+08
-2.78878e+08
-4.11961e+08
-4.00539e+08
-4.07895e+08
-3.99233e+08
-2.64538e+08
-2.53656e+08
-2.40058e+08
-2.78059e+08
-3.62315e+08
-3.51696e+08
-3.45268e+08
-3.69391e+08
-2.53005e+08
-2.11081e+08
-2.37151e+08
-2.27354e+08
-3.76432e+08
-3.96248e+08
-3.81459e+08
-3.90091e+08
-4.70907e+08
-4.72503e+08
-2.81109e+08
-4.60186e+07
-1.5437e+08
-4.03419e+07
-2.25133e+08
-2.01705e+08
-6.48677e+07
-3.5082e+08
-3.65197e+08
-9.35829e+07
-6.803e+06
-7.77871e+07
-1.86874e+08
-4.27813e+07
-1.14421e+07
-3.76594e+07
-2.3099e+07
-2.19151e+07
-1.30909e+08
-1.89517e+08
-7.43929e+06
-2.13955e+07
-7.59316e+07
-4.67726e+07
-3.8812e+06
-8.30739e+08
-1.18682e+09
-1.15908e+09
-8.07814e+08
-1.25064e+09
-1.22332e+09
-8.92735e+08
-1.41565e+09
-1.45777e+09
-9.48681e+08
-1.34823e+09
-1.30082e+09
-6.43429e+08
-4.15704e+08
-6.21271e+08
-5.3781e+08
-4.0384e+08
-5.11725e+08
-4.83899e+08
-4.29345e+08
-3.74316e+08
-4.1655e+08
-4.52412e+08
-3.38468e+08
-6.97383e+08
-6.04063e+08
-7.28587e+08
-5.4816e+08
-3.01016e+08
8.24486e+06
-2.57184e+08
1.00181e+07
1.87505e+07
-1.52466e+08
-1.35572e+08
2.32668e+07
1.76473e+07
-1.01222e+08
-1.22449e+08
1.03489e+07
-3.22957e+08
-7.35297e+06
-3.64369e+08
-4.84256e+06
-8.31961e+06
-1.83239e+07
-6.52349e+07
-3.32104e+07
-5.13218e+07
-4.73599e+07
-1.06925e+08
-1.47479e+08
-1.23125e+08
-1.33578e+08
-7.93367e+07
-7.08767e+07
-5.7396e+07
-9.1005e+07
-9.37708e+07
-1.03708e+08
-7.60758e+07
-1.19191e+08
-9.11809e+06
-6.77997e+06
-7.24422e+06
-1.08752e+07
-2.04285e+07
-5.43344e+06
-9.15331e+06
-2.16812e+07
-4.09012e+06
-402644
3.26834e+06
-1.92682e+07
-2.04127e+07
-2.70355e+07
-1.32739e+07
-1.99872e+07
-1.33576e+07
-1.12582e+07
-7.92996e+06
-2.36304e+07
-4.32307e+07
-3.93823e+07
-3.12572e+07
-6.58247e+06
-9.39107e+06
-1.13053e+07
-8.18117e+06
-4.95056e+06
3.86391e+06
5.71624e+06
-2.21883e+07
-3.46536e+06
-1.23142e+07
-3.82627e+06
-9.35179e+06
-407228
7.14527e+06
-3.74252e+07
-3.33281e+06
-2.8279e+06
1.22116e+07
-8.97946e+06
5.64276e+06
3.39322e+07
1.26169e+08
3.60094e+07
1.29282e+08
-9.00999e+06
4.16678e+06
1.0196e+07
-1.79782e+06
4.01062e+07
1.37968e+08
3.8008e+07
1.36251e+08
-1.52858e+07
427377
-3.92048e+06
7.01241e+06
-6.31562e+06
-8.51138e+06
3.52897e+06
869216
347746
4.6824e+06
-6.64633e+06
-8.34241e+06
-4.50392e+06
5.74342e+06
-1.93572e+06
-1.57741e+07
-1.25006e+08
-1.09877e+08
-1.33233e+08
-9.97109e+07
-1.48618e+08
-1.60284e+08
-1.34657e+08
-1.72137e+08
-1.13866e+08
-7.97704e+07
-1.03596e+08
-9.19685e+07
-1.58103e+08
-1.92265e+08
-1.69399e+08
-1.82856e+08
-6.1473e+07
-8.30685e+07
-8.48292e+07
-5.70707e+07
-4.0296e+07
-1.9898e+07
-2.46549e+07
-1.69165e+07
-1.81227e+07
-3.40315e+07
-6.62417e+07
-9.50553e+07
-4.64682e+07
-7.26756e+07
-6.9349e+07
-5.2759e+07
-1.57386e+07
-1.11551e+07
-2.34952e+07
-1.64397e+07
-4.24952e+07
-5.44812e+07
-3.51951e+07
-5.86405e+07
-2.8353e+07
-1.81969e+07
-1.41054e+07
-2.04159e+07
1.71559e+07
2.25556e+07
861056
-2.59265e+07
-5.61724e+07
7.72063e+06
764462
-4.13839e+07
5.66768e+06
1.1063e+07
4.77397e+06
-8.07195e+06
-9.46483e+06
-2.57307e+07
1.38748e+07
2.93132e+07
1.16838e+08
3.02441e+07
1.10146e+08
-5.92917e+06
1.02688e+07
-8.95343e+06
-497664
2.78912e+07
7.46058e+07
1.78543e+07
9.74557e+07
901796
-1.18224e+07
-1.83944e+07
5.19151e+06
1.76959e+06
2.90162e+06
-1.01839e+07
-4.50034e+06
277593
-7.14143e+06
3.53664e+06
-5.2007e+06
-2.0259e+07
-768819
-3.78233e+06
2.04884e+06
-1.33908e+07
-2.02131e+07
-4.85014e+06
-211375
-1.25e+06
-3.86673e+06
-1.84357e+07
-3.40996e+07
-2.47972e+07
-2.8111e+07
-1.08154e+07
-7.49985e+06
-4.64833e+06
-1.42596e+07
-1.23012e+07
-1.60497e+07
-8.96346e+06
-1.85333e+07
9.9166e+06
1.00347e+07
5.24139e+06
-4.39731e+06
6.16505e+06
-4.44663e+06
5.68008e+06
5.83047e+06
-5.08548e+06
1.0555e+07
1.08958e+07
-602217
1.34651e+06
-556007
1.5678e+06
-2.87243e+06
-5.97867e+06
-6.07241e+06
-1.65331e+06
-4.06258e+06
-1.04119e+07
-6.06741e+06
-9.51277e+06
1.27937e+06
1.97682e+06
2.22471e+06
772859
-2.30585e+07
-2.03433e+07
-2.23036e+07
-2.1528e+07
-3.44477e+07
-3.6846e+07
-2.62064e+07
-2.55214e+07
-2.35903e+07
-2.76324e+07
-3.17288e+07
-3.02524e+07
-1.16482e+07
-1.40543e+07
-1.39994e+07
-1.21448e+07
-8.27074e+06
-6.16316e+06
-6.35739e+06
-8.58447e+06
-8.40023e+06
-6.01819e+06
-8.11373e+06
-5.64617e+06
-1.18147e+07
-1.36798e+07
-1.35528e+07
-1.16036e+07
-1.34781e+07
-1.5411e+07
-1.5705e+07
-1.25972e+07
-1.06938e+07
-7.96043e+06
-1.08915e+07
-6.90399e+06
-1.48052e+07
-1.90901e+07
-1.82643e+07
-1.6276e+07
-8.87283e+06
-5.79092e+06
-8.97211e+06
-6.44006e+06
-4.29163e+07
-4.41284e+07
-4.96456e+07
-3.68233e+07
-4.66578e+07
-4.50063e+07
-5.47375e+07
-3.65643e+07
-5.53839e+07
-7.46989e+07
-6.48519e+07
-6.56059e+07
-3.38144e+07
-2.21456e+07
-2.68601e+07
-2.97901e+07
-4.24984e+07
-4.24394e+07
-4.67277e+07
-3.77091e+07
-4.47311e+07
-4.10539e+07
-3.5095e+07
-2.90387e+07
-3.25628e+07
-3.20764e+07
-5.11144e+07
-5.66845e+07
-2.56602e+07
-3.43663e+07
-2.94172e+07
-3.12508e+07
-1.48666e+07
-9.38184e+06
-1.11133e+07
-1.40651e+07
-1.99196e+07
-1.68194e+07
-1.40235e+07
-2.18489e+07
-2.11997e+07
-2.32276e+07
-1.88632e+07
-2.48674e+07
9.18202e+06
9.95754e+06
2.12919e+06
-1.0413e+07
2.37467e+06
-1.09904e+07
1.39612e+06
3.07669e+06
-9.91357e+06
1.07795e+07
1.0185e+07
-412053
241007
-551617
419538
-2.44032e+06
-4.64476e+06
-4.12274e+06
-2.30942e+06
-1.27345e+06
-3.38985e+06
-3.90036e+06
-1.55914e+06
-883831
-1.94829e+06
-1.11656e+06
-1.63845e+06
1.3502e+06
666564
1.35495e+06
518856
-685804
-3.97267e+06
-1.45164e+06
-4.25178e+06
979366
2.09279e+06
1.75466e+06
1.56379e+06
-1.14676e+06
-3.70113e+06
-3.21468e+06
-669565
-4.77703e+07
-6.79358e+07
-2.07234e+08
-2.1637e+08
-1.91946e+08
-2.30133e+08
-1.91107e+08
-1.80099e+08
-1.64562e+08
-2.04335e+08
-1.77908e+08
-1.3466e+08
-1.63502e+08
-1.5136e+08
-2.19534e+08
-2.54306e+08
-2.42225e+08
-2.33432e+08
-2.27037e+08
-2.45683e+08
-1.62961e+08
-6.84706e+07
-5.98744e+07
-1.23346e+08
-1.49008e+08
-6.65792e+07
-1.35473e+08
-2.7467e+08
-2.61677e+08
-2.71136e+08
-2.39019e+08
-2.53545e+08
-2.5759e+08
-2.99036e+08
-3.21097e+08
-3.10265e+08
-3.10895e+08
-2.82451e+08
-2.77509e+08
-2.65095e+08
-2.93499e+08
-2.88059e+08
-2.86772e+08
-2.74001e+08
-3.00196e+08
-3.54821e+08
-3.54224e+08
-3.52671e+08
-3.55831e+08
-3.47122e+08
-3.46562e+08
-3.52634e+08
-3.50935e+08
-3.53045e+08
-3.51234e+08
-3.48805e+08
-3.45967e+08
-3.51234e+08
-3.55507e+08
-3.51349e+08
-3.54944e+08
-3.46098e+08
-3.37215e+08
-3.4287e+08
-3.40035e+08
-3.50651e+08
-3.49746e+08
-3.53792e+08
-3.47121e+08
-3.46432e+08
-3.3933e+08
-3.46194e+08
-3.39901e+08
-3.56093e+08
-3.56825e+08
-3.577e+08
-3.55815e+08
-3.49691e+08
-3.38976e+08
-3.4517e+08