/*--------------------------------*- C++ -*----------------------------------*\
| =========                 |                                                 |
| \\      /  F ield         | OpenFOAM: The Open Source CFD Toolbox           |
|  \\    /   O peration     | Version:  2012                                  |
|   \\  /    A nd           | Website:  www.openfoam.com                      |
|    \\/     M anipulation  |                                                 |
\*---------------------------------------------------------------------------*/
FoamFile
{
    version     2.0;
    format      ascii;
    class       volVectorField;
    location    "0.108/solid";
    object      U;
}
// * * * * * * * * * * * * * * * * * * * * * * * * * * * * * * * * * * * * * //

dimensions      [0 1 -1 0 0 0 0];


internalField   nonuniform List<vector> 
3125
(
(0.0259965 0.00960257 -0.0414321)
(-1.09727 15.723 -0.418548)
(0.00650815 0.0046633 -0.0121368)
(-0.0591325 -0.0542029 -0.0466005)
(-3.99634 27.8491 -0.561873)
(-2.82867 32.8721 -0.702408)
(0.0400782 0.0180434 -0.0847098)
(0.00637969 0.00438743 -0.0130677)
(0.0248059 0.00884495 -0.0386461)
(0.0101694 0.00872403 -0.0285894)
(0.0332974 0.0156309 -0.0737495)
(-0.951079 16.2509 -0.0494145)
(0.00963017 0.0100857 -0.025004)
(0.0449679 0.374162 0.0902973)
(-0.401546 26.7623 2.12595)
(0.0389438 0.0244369 0.000733008)
(-1.69122 15.7249 -1.67393)
(-0.147157 -0.0416258 -0.10272)
(-1.83487 16.253 -1.89625)
(-0.139055 0.216986 -0.345009)
(-2.41731 26.7322 -1.99713)
(-0.122625 0.00166089 -0.100846)
(-1.20292 17.3459 -0.436747)
(-2.73608 32.6111 -0.695569)
(-1.05342 17.8879 -0.0714702)
(-1.64054 50.2079 0.924775)
(-0.514037 31.1664 2.08223)
(-2.54208 33.3332 -0.55902)
(-1.80813 17.3471 -1.66827)
(-3.52435 32.6073 -0.95579)
(-1.95658 17.8888 -1.88551)
(-4.65268 50.1892 -0.16073)
(-2.75187 31.1372 -1.85212)
(-3.72729 33.3265 -0.95893)
(-3.77781 28.6654 -0.644938)
(-1.82415 51.0274 0.739709)
(-2.63217 33.6039 -0.584007)
(-3.02859 46.5761 -0.155451)
(-4.90958 27.8466 -0.0151475)
(-3.62858 32.8683 -0.891201)
(-5.13585 28.66 0.155259)
(-4.85694 51.0102 0.0826477)
(-3.83416 33.597 -0.87858)
(-5.87563 46.5687 1.30675)
(-4.05854 27.1057 -0.538137)
(-3.83962 27.9233 -0.62887)
(-4.97428 27.1035 0.032437)
(-5.20056 27.9181 0.207435)
(-0.00284671 0.0116204 -0.0360757)
(-0.00239335 0.0100642 -0.0486788)
(-0.00230278 0.0156714 -0.0329237)
(-0.0114773 0.0508216 -0.0301252)
(0.010302 0.0714194 -0.0285314)
(-0.410034 4.58826 -0.3381)
(0.0108236 0.0105237 -0.00642376)
(-0.327215 3.28042 -0.329359)
(0.013188 0.0119136 -0.0053672)
(-3.50534 31.9411 -0.682346)
(-3.42733 32.3157 -0.692134)
(0.00197821 0.0156444 -0.0819233)
(0.00854931 0.0180097 -0.0860217)
(0.0120725 0.00509919 -0.021756)
(0.012498 0.00544862 -0.0232685)
(0.000586196 0.0143301 -0.0739277)
(-0.00192442 0.0108392 -0.0540123)
(-0.000229331 0.0120681 -0.0359533)
(0.0161952 0.00939655 -0.042818)
(0.000876044 0.0110504 -0.0494734)
(0.00622083 0.016305 -0.0770821)
(0.0193168 0.010491 -0.0489754)
(0.00177882 0.0120022 -0.0552379)
(-0.454955 20.1468 1.39338)
(-0.291245 4.98882 -0.0390704)
(-0.105262 8.99942 1.10806)
(0.000442781 0.0156363 -0.03258)
(0.0205378 0.0255251 -0.0164805)
(0.0161077 0.0626396 -0.0274047)
(0.00236066 0.116585 -0.0275003)
(-0.111767 8.24266 1.35336)
(-0.00239418 0.126721 0.0491649)
(-0.0353823 6.26798 0.946102)
(0.0240346 0.166389 -0.0131803)
(-0.409467 21.6668 1.64619)
(-0.16345 12.7404 1.77685)
(-0.102733 9.8906 1.31104)
(-0.211014 3.65208 -0.0545376)
(0.0290717 0.044676 -0.00827794)
(-0.00548789 0.100334 0.0354828)
(-0.0330041 5.64082 0.789078)
(0.0324176 0.14461 -0.0134092)
(-0.911305 4.60162 -1.38267)
(-0.809041 3.29873 -1.27667)
(-2.22073 20.1317 -2.27146)
(-1.01057 5.00758 -1.56246)
(-1.25095 8.96998 -2.02648)
(-1.05799 8.21008 -1.81099)
(-0.147814 0.171 -0.319525)
(-0.964507 6.28371 -1.81255)
(-2.28786 21.6461 -2.25787)
(-1.38402 12.6615 -2.00801)
(-1.2833 9.84759 -2.06521)
(-0.897866 3.67649 -1.43755)
(-0.152258 0.144942 -0.30154)
(-0.941555 5.66185 -1.76359)
(-1.94294 27.0064 -0.579175)
(-2.04636 28.0524 -0.598426)
(-0.59903 23.7892 1.35306)
(-1.77143 27.6389 -0.296984)
(-1.08292 33.0904 0.991385)
(-1.10635 44.9045 1.50389)
(-1.68517 42.3871 0.492338)
(-1.16455 37.6103 1.05478)
(-0.54048 25.4739 1.60821)
(-0.940872 42.1535 1.68589)
(-0.997439 35.1512 1.23107)
(-1.8718 28.6971 -0.333219)
(-1.77956 40.0467 0.299384)
(-1.25489 35.4587 0.825017)
(-2.63173 27.004 -1.43431)
(-2.74775 28.0497 -1.38179)
(-2.53609 23.7721 -2.20115)
(-2.80899 27.6346 -1.56918)
(-3.42511 33.0711 -1.70024)
(-3.94006 44.8812 -0.938022)
(-4.5525 42.3672 -0.612948)
(-3.80669 37.5885 -1.38318)
(-2.61507 25.4521 -2.17007)
(-3.66813 42.1288 -1.19524)
(-3.52893 35.129 -1.62326)
(-2.92867 28.6922 -1.5008)
(-4.44235 40.0281 -0.732113)
(-3.69863 35.4392 -1.47283)
(-3.29329 32.7333 -0.690885)
(-3.05526 36.5601 -0.594879)
(-2.6133 39.9798 -0.386552)
(-1.85993 43.1271 0.313605)
(-2.36718 51.0087 0.258695)
(-2.37026 43.0843 -0.142716)
(-3.21678 33.1022 -0.687045)
(-1.95304 40.7479 0.134161)
(-2.4548 40.6471 -0.281179)
(-2.98708 38.9679 -0.506908)
(-2.54117 50.2953 0.129449)
(-2.53264 42.4198 -0.261342)
(-4.38234 31.9375 -0.391137)
(-4.29656 32.312 -0.450477)
(-4.60351 32.7267 -0.273738)
(-5.83087 36.5492 0.848952)
(-5.41147 39.9654 0.375504)
(-4.77156 43.1081 -0.360872)
(-5.37708 50.996 0.719785)
(-5.34128 43.0686 0.321967)
(-4.51632 33.0954 -0.343704)
(-4.66353 40.7299 -0.487086)
(-5.24494 40.6317 0.182438)
(-5.90554 38.9572 0.990391)
(-5.52141 50.284 0.895598)
(-5.50262 42.4053 0.517044)
(-0.00657158 0.00838289 -0.0330951)
(-0.00656194 0.00712262 -0.0360394)
(-0.00668789 0.0116534 -0.0305722)
(-0.00960185 0.0163414 -0.031574)
(-0.00689915 0.0185341 -0.0286669)
(0.0513495 0.00110864 -0.0088978)
(-0.787065 10.7541 -0.373289)
(0.0127554 0.000804328 -0.00235451)
(0.00614459 0.00612114 -0.00955698)
(0.0103787 0.0012303 -0.00147245)
(-0.0913582 -0.0944713 -0.239167)
(-0.00224049 -0.00870292 -0.0077795)
(-0.000375455 -0.00606123 -0.00106635)
(-3.79779 29.8744 -0.623909)
(-3.09619 33.1163 -0.710616)
(-0.00706259 0.0101086 -0.0686787)
(0.0260337 0.0190208 -0.0829706)
(0.0137751 0.00076229 -0.0025819)
(0.00851375 0.00433126 -0.0163338)
(0.0176834 0.000605402 -0.00334996)
(0.0474338 0.00103832 -0.00828817)
(0.0179797 0.00713722 -0.0309752)
(0.0368783 0.000846002 -0.00660227)
(-0.00714734 0.00943707 -0.0627159)
(-0.00713078 0.00874314 -0.0571641)
(0.00603022 0.010054 -0.0306336)
(0.0115731 0.00837751 -0.0327081)
(0.00677598 0.0094974 -0.0345907)
(0.0213398 0.0167364 -0.073108)
(0.0277153 0.0135906 -0.0642868)
(0.0175359 0.0147265 -0.0644448)
(-0.935565 18.4066 0.227126)
(-0.651283 11.2364 -0.0107729)
(-0.651855 13.1691 0.240931)
(0.00606357 0.0119303 -0.0271747)
(0.0104538 0.0128715 -0.0218789)
(0.00742357 0.0156708 -0.0242238)
(-0.24009 1.0837 0.67337)
(0.0638637 0.696574 -0.655402)
(0.0305839 0.174536 0.0718743)
(0.0743358 0.719642 -0.213288)
(-0.154446 0.455818 0.408515)
(-0.396336 24.9469 1.99302)
(-0.306189 22.1329 2.10393)
(-0.297122 20.5615 1.9652)
(-0.0312385 0.0574225 -0.191142)
(0.0837657 0.0271644 0.0433367)
(0.0125946 0.0293781 0.0108498)
(-0.105641 0.665586 -0.145261)
(0.0902841 0.171559 0.151103)
(-1.34665 10.759 -1.62976)
(-0.461872 -0.0197045 -0.643359)
(-1.84279 18.4033 -1.63935)
(-1.47448 11.2429 -1.85211)
(-1.45071 13.1681 -1.61366)
(-0.4113 1.37308 -0.775211)
(-0.159889 0.209637 -0.339467)
(-0.421346 1.27351 -0.780249)
(-2.37391 24.9189 -2.10696)
(-2.07352 22.0975 -2.08145)
(-2.02948 20.5291 -2.16785)
(-0.480729 0.192506 -0.714932)
(-0.0780119 0.000511374 -0.0995077)
(-0.384703 0.769547 -0.727115)
(-1.52176 21.9247 -0.49677)
(-2.44876 31.2525 -0.663588)
(-1.03145 20.1134 0.21196)
(-1.36265 22.5067 -0.157143)
(-1.32999 24.9206 0.13912)
(-1.4584 48.9262 1.11704)
(-1.62938 47.4523 0.798889)
(-1.45062 46.2064 0.992606)
(-0.511533 29.1368 1.95389)
(-0.642501 35.2441 1.98554)
(-0.641641 33.0312 1.86045)
(-2.26264 31.9432 -0.471282)
(-2.50144 36.3512 -0.273674)
(-2.21874 34.8336 -0.175896)
(-2.16162 21.924 -1.60333)
(-3.20058 31.249 -1.14668)
(-1.97452 20.1091 -1.62505)
(-2.32319 22.5049 -1.79349)
(-2.36278 24.9146 -1.52954)
(-4.43204 48.906 -0.414932)
(-4.64347 47.4325 -0.323579)
(-4.41676 46.1853 -0.58205)
(-2.71 29.1091 -1.982)
(-3.07315 35.2166 -1.66233)
(-3.03389 33.0045 -1.80809)
(-3.39485 31.937 -1.19917)
(-3.79402 36.3428 -0.722793)
(-3.46217 34.8253 -0.952037)
(-3.58117 30.6839 -0.679539)
(-3.76663 32.0348 -0.459423)
(-3.56445 34.0331 -0.472946)
(-1.8093 48.2523 0.612408)
(-2.00744 51.4118 0.565368)
(-1.98872 48.6314 0.436881)
(-2.89298 33.8744 -0.644219)
(-2.59247 36.6609 -0.303528)
(-2.85855 37.035 -0.378417)
(-2.98837 43.9651 -0.279763)
(-2.87256 48.04 -0.0775894)
(-2.83537 45.3839 -0.20422)
(-4.6995 29.8714 -0.167329)
(-3.92868 33.1124 -0.698348)
(-4.92458 30.6779 -0.0150823)
(-5.16761 32.0293 0.322824)
(-4.96405 34.0267 0.166243)
(-4.85397 48.2339 -0.0742058)
(-5.04539 51.3961 0.311994)
(-5.04871 48.6144 0.16243)
(-4.14127 33.8675 -0.641467)
(-3.8999 36.6525 -0.645764)
(-4.20276 37.0269 -0.421152)
(-5.91309 43.9562 1.21119)
(-5.77016 48.0314 1.18888)
(-5.80261 45.3738 1.08422)
(-3.83026 31.2949 -0.451075)
(-5.22902 31.2896 0.370776)
(-0.00677218 0.0069984 -0.0431874)
(-0.00664295 0.00680853 -0.0394043)
(-0.00500497 0.0103408 -0.0349648)
(-0.0029066 0.010042 -0.0397365)
(-0.00500618 0.00878311 -0.0382851)
(-0.00485948 0.00865044 -0.0463577)
(-0.00272634 0.0096996 -0.0439313)
(-0.00495183 0.00839697 -0.0420797)
(-0.0048246 0.0143443 -0.0320983)
(-0.000755087 0.0237178 -0.0305027)
(-0.00416431 0.0225249 -0.0298979)
(-0.0101462 0.0299636 -0.0297996)
(-0.00525254 0.0656149 -0.0278206)
(-0.0064769 0.0359002 -0.0270721)
(0.00287416 0.0424158 -0.0284695)
(0.00218728 0.0721565 -0.0284302)
(-0.00202235 0.0420621 -0.0279961)
(-0.687312 9.12158 -0.361506)
(0.00714764 0.00729314 -0.00870566)
(0.00915205 0.00176645 9.85694e-05)
(0.00988424 0.00143109 -0.00113273)
(-0.159542 0.375508 -0.309247)
(0.0229641 0.00536677 -0.00312441)
(0.00901644 0.00156142 0.000538267)
(0.0049977 -0.00341822 0.000643636)
(-3.72763 30.4676 -0.641286)
(-3.18177 33.0291 -0.709131)
(-0.00301246 0.0129165 -0.0757161)
(0.016554 0.0193914 -0.0865879)
(0.00873394 0.00446265 -0.0175007)
(0.0245884 0.000640809 -0.00457501)
(0.0191622 0.000598468 -0.00362492)
(0.0172606 0.00661146 -0.0289386)
(0.0265729 0.000669178 -0.00490918)
(0.0340933 0.000796599 -0.00615394)
(-0.00691514 0.00745938 -0.0473973)
(-0.00704429 0.008066 -0.0520571)
(-0.00368928 0.0119522 -0.0687582)
(-0.000481477 0.0130496 -0.066612)
(-0.00416796 0.010984 -0.062332)
(-0.00471636 0.00925716 -0.0511404)
(-0.0013004 0.0118662 -0.0599825)
(-0.00449713 0.0100651 -0.0564625)
(0.00268865 0.0115609 -0.0341045)
(-0.000208405 0.0107201 -0.0398707)
(0.00296182 0.0105936 -0.0381327)
(0.0136024 0.0086655 -0.037413)
(0.00974778 0.0104539 -0.0442688)
(0.00804987 0.009715 -0.0391118)
(0.000202565 0.0105344 -0.0443668)
(0.00484787 0.011282 -0.0480129)
(0.00372613 0.0106203 -0.042752)
(0.0130906 0.0173207 -0.0769592)
(0.00438686 0.0146953 -0.0689947)
(0.0103266 0.015431 -0.0683723)
(0.0231428 0.0118967 -0.0561118)
(0.0118489 0.0115791 -0.0501347)
(0.0144206 0.0130164 -0.0568311)
(0.00293195 0.0132465 -0.0617305)
(0.00629264 0.0123715 -0.0539779)
(0.0080975 0.013777 -0.0607414)
(-0.507846 18.6582 1.12264)
(-0.322901 16.3826 1.37586)
(-0.361343 15.057 1.11604)
(-0.555161 9.58669 -0.00802911)
(-0.314422 6.52775 0.151168)
(-0.56429 11.4301 0.230662)
(-0.206347 12.6149 1.28134)
(-0.113867 8.06646 0.900753)
(-0.23118 11.4745 1.04293)
(0.00321339 0.0143242 -0.0306176)
(0.00245536 0.0226274 -0.0299388)
(0.00520807 0.0197069 -0.0277861)
(0.0132353 0.0184775 -0.018926)
(0.0188731 0.0342695 -0.0195062)
(0.0109098 0.0237987 -0.0214665)
(0.00690609 0.0386736 -0.0276941)
(0.0195534 0.0486625 -0.0244494)
(0.00974509 0.0317654 -0.0253078)
(-0.0527781 0.0429641 -0.131846)
(0.00263149 0.178753 -0.0130038)
(-0.0554572 0.186639 -0.0185669)
(-0.0465544 4.29403 0.709056)
(-0.0824815 7.517 1.20666)
(0.0139044 3.83966 0.681962)
(-0.000353639 0.158101 0.0624522)
(-0.0299017 0.508563 -0.183071)
(0.0890365 0.426904 0.371493)
(0.0157218 0.604744 -0.170375)
(0.0567727 0.458643 0.398718)
(-0.056038 6.88574 1.08617)
(0.0151392 3.20664 0.54076)
(0.0155555 3.52471 0.621643)
(0.0135727 0.17255 -0.0129994)
(0.0429192 0.192264 0.00542565)
(0.0286009 0.206024 0.00642259)
(-0.391238 23.2583 1.84388)
(-0.292058 17.7161 1.62084)
(-0.285054 19.0997 1.81507)
(-0.227082 17.4009 1.99136)
(-0.142508 11.7237 1.62315)
(-0.214125 16.0994 1.84576)
(-0.190037 13.7383 1.51002)
(-0.118158 10.7879 1.48026)
(-0.194703 14.8898 1.69591)
(-0.0798355 0.620367 -0.158301)
(-0.246286 5.04316 0.100398)
(-0.0822125 1.48573 -0.0985632)
(0.0529901 0.00351486 -0.010397)
(0.0319219 0.0671226 -0.0114531)
(0.0541392 0.0483916 -0.0111909)
(-0.0116486 0.0693678 0.0188193)
(-0.0590234 0.430529 -0.18966)
(0.104517 0.378831 0.32983)
(-0.102743 0.254967 -0.212027)
(0.101966 0.315421 0.267376)
(-0.0399096 4.95546 0.638436)
(0.015517 2.84722 0.434717)
(0.0416526 2.39597 0.326759)
(0.0360639 0.107067 -0.0142038)
(0.0617288 0.160942 0.00103488)
(0.0711422 0.109411 -0.00847518)
(-1.23458 9.12782 -1.5907)
(-0.539533 0.446996 -0.828444)
(-2.15696 18.648 -2.29031)
(-1.89879 16.3667 -2.27238)
(-1.84966 15.0478 -2.27582)
(-1.35628 9.59495 -1.80722)
(-0.935251 6.53047 -1.39111)
(-1.31982 11.4309 -1.57996)
(-1.57439 12.6007 -2.19545)
(-1.22707 8.05164 -1.99609)
(-1.54004 11.4686 -2.18208)
(-0.726642 4.11556 -1.57488)
(-1.01857 7.52115 -1.82539)
(-0.693623 3.78915 -1.5452)
(-0.150342 0.18945 -0.331759)
(-0.400119 1.10537 -0.819499)
(-0.409848 1.20548 -0.829267)
(-0.991425 6.89234 -1.83372)
(-0.668533 3.17455 -1.49962)
(-0.683697 3.49571 -1.53561)
(-2.33816 23.2332 -2.20297)
(-1.95341 17.693 -2.27673)
(-1.9962 19.071 -2.24239)
(-1.72621 17.3607 -2.09218)
(-1.33991 11.6591 -2.04561)
(-1.68308 16.0638 -2.15309)
(-1.6166 13.7152 -2.21765)
(-1.31261 10.7328 -2.07291)
(-1.6522 14.8592 -2.20456)
(-0.578227 0.713894 -0.92421)
(-0.811189 5.05903 -1.29839)
(-0.479836 1.5297 -0.925391)
(-0.166316 0.112273 -0.283456)
(-0.399935 0.966903 -0.793678)
(-0.358824 0.766156 -0.789776)
(-0.923343 4.98076 -1.7169)
(-0.652281 2.82091 -1.44104)
(-0.628395 2.40646 -1.37557)
(-1.62787 23.3198 -0.51768)
(-2.35007 30.6021 -0.649424)
(-0.664806 22.156 1.07762)
(-0.753157 27.2084 1.26499)
(-0.830217 25.4475 0.990326)
(-1.46558 23.9147 -0.190395)
(-1.7298 30.2805 0.005674)
(-1.42886 26.389 0.108714)
(-0.915116 30.3277 1.14113)
(-1.17648 31.118 0.729902)
(-1.00141 28.4542 0.871377)
(-1.27964 47.1621 1.31196)
(-1.10382 42.3144 1.38155)
(-1.27479 44.4966 1.1888)
(-1.63595 44.8519 0.657769)
(-1.51009 41.229 0.678854)
(-1.45949 43.6474 0.850726)
(-1.11485 39.8905 1.23837)
(-1.33606 39.6385 0.868319)
(-1.28519 41.9958 1.04627)
(-0.512352 27.2487 1.8062)
(-0.683442 29.0371 1.51803)
(-0.647108 30.971 1.71421)
(-0.785503 38.9232 1.84974)
(-0.939889 39.6624 1.56366)
(-0.785112 36.5571 1.72667)
(-0.836414 32.2813 1.38877)
(-0.950368 37.3361 1.4197)
(-0.793766 34.3514 1.5817)
(-2.16679 31.2817 -0.438474)
(-1.82827 31.3923 -0.030933)
(-2.12314 34.1255 -0.140173)
(-1.88466 37.7949 0.0911401)
(-1.60459 38.9388 0.472817)
(-1.70901 36.741 0.249304)
(-1.35373 33.3998 0.574388)
(-1.42926 37.4107 0.649899)
(-1.53166 35.277 0.41211)
(-2.2797 23.3186 -1.56848)
(-3.08935 30.5988 -1.20832)
(-2.45837 22.1434 -2.23516)
(-2.84293 27.1903 -2.07498)
(-2.75307 25.4333 -2.12346)
(-2.44542 23.9122 -1.74644)
(-2.86736 30.273 -1.30925)
(-2.49146 26.3824 -1.48233)
(-3.1396 30.3088 -1.90425)
(-3.31722 31.1016 -1.77585)
(-3.03963 28.4387 -1.96666)
(-4.1946 47.1404 -0.675776)
(-3.91351 42.2908 -1.10662)
(-4.17351 44.4743 -0.844979)
(-4.61848 44.8317 -0.476305)
(-4.31862 41.2084 -0.87105)
(-4.3874 43.6261 -0.737129)
(-3.87756 39.8672 -1.26016)
(-4.06998 39.6171 -1.12993)
(-4.14046 41.9735 -1.00047)
(-2.67228 27.2233 -2.09655)
(-2.93216 29.0151 -2.02739)
(-2.99509 30.946 -1.93767)
(-3.37899 38.897 -1.4397)
(-3.63666 39.6377 -1.36005)
(-3.34324 36.5312 -1.59702)
(-3.23716 32.259 -1.84131)
(-3.59873 37.3121 -1.50888)
(-3.30433 34.3267 -1.73797)
(-3.28043 31.2758 -1.2776)
(-2.99032 31.3845 -1.24251)
(-3.34694 34.1172 -1.02778)
(-4.32219 37.778 -0.851508)
(-4.20762 38.9197 -0.981789)
(-4.08799 36.7239 -1.0918)
(-3.58493 33.3829 -1.56085)
(-3.9596 37.3914 -1.23083)
(-3.84206 35.2599 -1.33036)
(-3.51193 31.2737 -0.686258)
(-3.26852 36.0222 -0.456521)
(-3.49333 34.6112 -0.472002)
(-3.13997 34.174 -0.680018)
(-2.9139 37.9011 -0.543241)
(-3.00227 35.5072 -0.642107)
(-2.70865 37.5893 -0.514949)
(-2.76649 39.0527 -0.473908)
(-2.85842 36.6572 -0.587219)
(-1.81296 45.6252 0.472274)
(-2.03305 43.4709 0.146421)
(-1.98906 45.9906 0.298074)
(-2.1889 51.3936 0.404402)
(-2.34066 48.2526 0.129128)
(-2.16626 48.6201 0.275121)
(-2.20349 43.4461 -0.00635326)
(-2.33366 45.6171 -0.00572199)
(-2.16299 45.977 0.138055)
(-2.97651 33.7951 -0.659021)
(-3.19013 36.3699 -0.445496)
(-2.9437 36.9861 -0.399488)
(-2.05768 38.4515 -0.0582041)
(-2.12397 41.0632 -0.0193153)
(-2.22721 38.7312 -0.19551)
(-2.55324 38.2684 -0.425185)
(-2.29147 41.0193 -0.15838)
(-2.3926 38.6601 -0.318385)
(-2.96692 41.4345 -0.400657)
(-2.84153 40.3256 -0.443367)
(-2.8173 42.818 -0.329359)
(-2.70988 49.2927 0.0172988)
(-2.51089 47.5654 0.000206059)
(-2.67602 46.5965 -0.110974)
(-2.6899 41.4882 -0.361616)
(-2.5001 44.9461 -0.13193)
(-2.66151 44.0007 -0.239868)
(-4.62415 30.4644 -0.221153)
(-4.02426 33.0253 -0.635035)
(-4.84848 31.2674 -0.0764447)
(-4.65359 36.0149 -0.0745124)
(-4.89103 34.6046 0.109045)
(-5.73789 34.1634 0.697741)
(-5.70414 37.8889 0.709032)
(-5.60628 35.4955 0.55775)
(-5.30437 37.5756 0.227322)
(-5.56439 39.0394 0.551196)
(-5.4618 36.6445 0.400906)
(-4.83383 45.6061 -0.223008)
(-4.97594 43.453 -0.119008)
(-5.03377 45.9728 0.0187669)
(-5.21853 51.3794 0.524913)
(-5.39271 48.2383 0.587301)
(-5.2281 48.6045 0.383583)
(-5.16573 43.4293 0.109395)
(-5.38877 45.6018 0.45642)
(-5.21861 45.9604 0.245984)
(-4.23889 33.7882 -0.564641)
(-4.56917 36.3625 -0.140477)
(-4.29821 36.9781 -0.348056)
(-4.54416 38.435 -0.614696)
(-4.87106 41.046 -0.250929)
(-4.7536 38.7152 -0.385534)
(-5.13382 38.2539 0.0375487)
(-5.06485 41.003 -0.0269456)
(-4.9502 38.6447 -0.167312)
(-5.93054 41.4245 1.10987)
(-5.78442 40.3136 0.851453)
(-5.81502 42.8068 0.97541)
(-5.65222 49.2827 1.05197)
(-5.54294 47.5526 0.772326)
(-5.67939 46.585 0.938014)
(-5.65022 41.4749 0.693686)
(-5.54458 44.9321 0.648607)
(-5.68651 43.9881 0.8217)
(0.101963 0.0104234 -0.103919)
(0.0864795 0.0141801 -0.116305)
(0.0298411 0.0103528 -0.0447778)
(0.0340173 0.00780262 -0.0365353)
(0.0962641 0.0152946 -0.125438)
(0.0930699 0.00965746 -0.0962179)
(0.0377041 0.00844134 -0.0393998)
(-0.992503 14.0729 -0.401802)
(0.0244968 0.00637622 -0.0256263)
(0.00831789 0.00350456 -0.0104228)
(0.0248053 0.00824089 -0.0353409)
(0.00589598 0.00494887 -0.0112302)
(0.0259238 0.00573005 -0.0276921)
(0.023198 0.00903131 -0.0329056)
(0.00775797 0.00374103 -0.00960785)
(-0.0789972 -0.0459897 -0.00320487)
(-0.0796224 -0.132214 -0.149251)
(-0.0468364 -0.0392453 -0.0301295)
(-0.0574153 -0.0129991 -0.0134818)
(-0.0795399 -0.0540664 -0.051752)
(-0.0567644 -0.0452848 0.0047983)
(-0.05086 -0.0268404 -0.011095)
(-3.93212 28.561 -0.58412)
(-2.9196 33.0413 -0.707217)
(0.0292484 0.0049498 -0.0321814)
(0.00869037 0.00339068 -0.0112726)
(0.0252885 0.0075071 -0.0378672)
(0.00727901 0.00430983 -0.0141042)
(0.0271432 0.00524963 -0.0298413)
(0.0276582 0.00716417 -0.0406865)
(0.00952197 0.00332135 -0.0121736)
(0.0792124 0.00832909 -0.0830178)
(0.0816134 0.0130988 -0.108607)
(0.0315917 0.00714571 -0.0339405)
(0.0216151 0.00826345 -0.0358006)
(0.086628 0.00889702 -0.0895088)
(0.0734188 0.0122283 -0.100794)
(0.0285406 0.00669375 -0.0315171)
(-0.0733471 15.3112 1.74199)
(-0.319079 16.3768 1.29766)
(-0.949977 16.9823 0.0350658)
(-0.849668 14.5863 -0.0316556)
(-0.234089 14.714 1.32867)
(-0.85067 15.2977 0.0502967)
(-0.149371 16.9911 1.7111)
(-1.5752 14.0757 -1.67013)
(-0.276739 -0.151718 -0.293236)
(-2.47795 15.3128 -3.48314)
(-1.83209 16.9814 -1.7894)
(-2.46123 16.38 -3.21233)
(-1.71392 14.5897 -1.89516)
(-1.70712 15.2979 -1.78916)
(-2.32336 14.7203 -3.22545)
(-2.62654 16.9895 -3.46716)
(-0.419147 0.100487 -0.500335)
(-0.270909 -0.0320494 -0.297965)
(-0.0991367 0.00234433 -0.0986042)
(-0.188294 0.045915 -0.155545)
(-0.250141 0.0188982 -0.274673)
(-0.422372 0.0236614 -0.436578)
(-0.181936 0.0716215 -0.164056)
(-1.30907 18.9282 -0.456012)
(-2.64185 32.2556 -0.686754)
(-0.306758 20.2543 1.59468)
(-0.405553 18.0124 1.25089)
(-1.04996 18.6389 0.0153202)
(-1.15635 19.4838 -0.097115)
(-0.227328 18.6433 1.66122)
(-0.492879 19.6074 1.19035)
(-1.1513 20.2537 -0.00826879)
(-1.35592 33.9451 0.0312558)
(-2.45036 32.9675 -0.531757)
(-1.68386 33.4849 -0.259565)
(-2.532 34.3367 -0.463418)
(-1.60414 33.1156 -0.15482)
(-2.43959 33.9568 -0.435469)
(-1.43346 34.326 -0.0939809)
(-1.92563 18.9287 -1.65403)
(-3.41821 32.2518 -1.02009)
(-2.92178 20.2474 -3.36094)
(-1.95765 18.6371 -1.77831)
(-2.59923 18.013 -3.17612)
(-2.07858 19.4837 -1.86406)
(-2.77453 18.6389 -3.4256)
(-2.08287 20.251 -1.75695)
(-2.7373 19.6056 -3.11916)
(-4.71923 33.9238 -1.41755)
(-3.61841 32.961 -1.03941)
(-3.74645 34.329 -0.873285)
(-4.58496 33.4676 -1.22687)
(-3.63797 33.9492 -0.951649)
(-4.46387 33.0987 -1.3844)
(-4.84274 34.3044 -1.24181)
(-2.48681 30.523 -1.26818)
(-3.71406 29.3757 -0.658774)
(-2.80664 28.8668 -1.20759)
(-3.7809 29.8028 -0.576573)
(-2.74499 29.575 -1.19216)
(-3.71638 30.5105 -0.588202)
(-2.5493 29.8167 -1.29362)
(-1.58582 34.8043 -0.331146)
(-2.72077 33.7823 -0.606618)
(-1.76247 33.7592 -0.360243)
(-2.62263 34.6211 -0.489342)
(-1.84003 33.9412 -0.456501)
(-1.50995 34.6115 -0.214853)
(-2.71207 34.8125 -0.512921)
(-4.8422 28.5583 -0.0643113)
(-3.73075 33.0374 -0.826629)
(-6.30323 30.5064 0.836592)
(-5.06822 29.37 0.100778)
(-5.14008 29.7975 0.207916)
(-6.10863 28.8528 0.739569)
(-5.07348 30.5049 0.155319)
(-6.03884 29.5605 0.656518)
(-6.37178 29.8008 0.926289)
(-5.08129 34.7826 -0.89809)
(-3.9388 33.7753 -0.798699)
(-3.85291 34.6133 -0.795031)
(-4.70355 33.7417 -1.07129)
(-4.96357 34.5899 -1.06854)
(-3.95688 34.8048 -0.717311)
(-4.81941 33.9235 -0.918245)
(-2.86707 28.1265 -1.21756)
(-3.84348 29.0623 -0.56281)
(-2.61072 29.0775 -1.31285)
(-5.20366 29.0572 0.258241)
(-6.17487 28.113 0.81704)
(-6.43665 29.0623 1.00956)
(-0.49734 6.01501 -0.343293)
(0.0264456 0.0129238 -0.0162682)
(0.00985196 0.00984265 -0.0072167)
(0.0324179 0.0198975 -0.0209679)
(0.0101174 0.00649744 -0.00507617)
(0.0290343 0.0131937 -0.0147435)
(0.0296746 0.0197804 -0.0219181)
(0.00916729 0.00623781 -0.00583304)
(-0.257121 2.12049 -0.329468)
(0.0349232 0.0115168 -0.0110721)
(0.0143076 0.011566 -0.00444277)
(0.0367533 0.0252601 -0.0152494)
(0.0112764 0.00658325 -0.00429621)
(0.0305076 0.0144803 -0.0119688)
(0.0412272 0.0184509 -0.0150091)
(0.0119983 0.00562004 -0.00357491)
(-3.58138 31.5053 -0.670569)
(-3.34737 32.6247 -0.699876)
(0.0421179 0.00504313 -0.0464459)
(0.0104547 0.00487012 -0.0202001)
(0.0431049 0.00769743 -0.0618812)
(0.0157805 0.0040415 -0.0189558)
(0.0459246 0.00523448 -0.0499645)
(0.0388472 0.00738662 -0.0575868)
(0.0142611 0.00387366 -0.017635)
(0.0536006 0.0058807 -0.0576337)
(0.0144068 0.00578501 -0.0250694)
(0.0453715 0.00815798 -0.0660832)
(0.0169097 0.00434353 -0.020351)
(0.049123 0.00555144 -0.0535526)
(0.0503749 0.00865203 -0.0710557)
(0.0187044 0.00461794 -0.0218791)
(0.252572 7.07602 1.54548)
(-0.373019 6.44025 -0.0205056)
(0.201802 5.13189 1.08573)
(-0.308522 5.54453 0.0193083)
(0.145827 6.58201 1.18809)
(0.293594 5.59616 1.41658)
(-0.388509 7.02872 0.0428409)
(0.337749 2.97776 1.06299)
(-0.149676 2.45502 -0.0929784)
(0.251828 3.79564 0.968005)
(-0.233278 4.16619 -0.00515367)
(0.276694 2.59068 0.800208)
(0.332431 4.22879 1.27333)
(-0.169253 2.92419 -0.0489957)
(-1.01636 6.02489 -1.46836)
(-0.711915 2.14925 -1.15213)
(-1.72167 7.09959 -3.08195)
(-1.12391 6.45344 -1.66365)
(-0.969944 5.55729 -1.48142)
(-1.4935 5.1722 -2.67074)
(-1.09005 7.03702 -1.57496)
(-1.63346 6.61119 -2.85207)
(-1.56568 5.63214 -2.88633)
(-1.2458 3.06438 -2.36189)
(-0.788995 2.49665 -1.29073)
(-0.851384 4.18534 -1.3677)
(-1.35215 3.851 -2.44726)
(-0.735311 2.95796 -1.23412)
(-1.20813 2.67816 -2.18063)
(-1.40739 4.27735 -2.64651)
(-1.83862 25.8662 -0.559133)
(-2.14877 29.0015 -0.616679)
(-0.71384 27.3352 1.08169)
(-1.67013 26.4864 -0.260789)
(-1.01887 27.7669 0.630766)
(-1.76005 28.5164 -0.20046)
(-0.932018 26.6126 0.739642)
(-0.795805 28.5038 0.955607)
(-1.65909 27.3466 -0.165031)
(-0.95853 30.5555 0.69284)
(-1.97128 29.658 -0.369127)
(-1.10507 28.8272 0.518979)
(-1.8599 29.5916 -0.236194)
(-1.19054 29.7906 0.405342)
(-0.877245 29.5783 0.825665)
(-1.95941 30.5693 -0.271715)
(-2.51495 25.8642 -1.48333)
(-2.86278 28.9985 -1.3263)
(-3.64521 27.3196 -2.77767)
(-2.6885 26.4826 -1.63344)
(-2.82589 28.5103 -1.4682)
(-3.55895 27.7551 -2.46331)
(-2.7042 27.3408 -1.53094)
(-3.42369 26.602 -2.60023)
(-3.78617 28.487 -2.62413)
(-4.06323 30.5368 -2.29559)
(-3.04718 29.6528 -1.42899)
(-2.94671 29.5851 -1.40144)
(-3.69311 28.8143 -2.31945)
(-3.06589 30.5625 -1.33141)
(-3.82593 29.7768 -2.17004)
(-3.92567 29.5605 -2.46301)
(-2.15955 33.4175 -1.04249)
(-3.36799 32.3027 -0.691991)
(-2.35129 32.9168 -0.978234)
(-3.29049 33.8361 -0.607889)
(-2.41978 32.4892 -1.02891)
(-2.09104 33.8391 -0.976812)
(-3.36617 33.4129 -0.610856)
(-1.95131 34.4902 -0.824968)
(-3.13844 33.4049 -0.680455)
(-2.28167 33.2824 -0.921429)
(-3.21316 34.1969 -0.602169)
(-2.21088 33.5818 -0.858455)
(-2.02174 34.1981 -0.904363)
(-3.13384 34.4906 -0.593874)
(-4.46553 31.5018 -0.333108)
(-4.20825 32.621 -0.510967)
(-5.90478 33.3978 0.291499)
(-4.68791 32.2961 -0.205837)
(-4.61538 33.8292 -0.207202)
(-5.54646 32.8997 0.0400436)
(-4.69866 33.4061 -0.141377)
(-5.6372 32.4724 0.156866)
(-5.81411 33.819 0.162993)
(-5.62199 34.4694 -0.112581)
(-4.42647 33.398 -0.415592)
(-4.52919 34.1897 -0.275095)
(-5.45226 33.2651 -0.0822476)
(-4.44037 34.4834 -0.344871)
(-5.35472 33.5642 -0.209874)
(-5.71976 34.1776 0.0283324)
(-0.0161317 0.00903032 -0.0817859)
(-0.0147593 0.00797557 -0.0919133)
(-0.0170704 0.00686126 -0.0895881)
(-0.0143977 0.0102015 -0.0843499)
(-0.0186017 0.00741976 -0.0818322)
(-0.0161156 0.0123531 -0.0723908)
(-0.0170617 0.00795279 -0.079955)
(-0.0187681 0.00600055 -0.0875494)
(-0.0166957 0.00851324 -0.0836358)
(-0.0140445 0.0155139 -0.0764131)
(-0.0155602 0.0139493 -0.0740275)
(-0.0142577 0.0100537 -0.0853398)
(-0.018495 0.0189559 -0.0828423)
(-0.0140952 0.0537208 -0.0560123)
(-0.0135783 0.0238959 -0.0820954)
(-0.0147478 0.0507477 -0.0512474)
(-0.0148298 0.022479 -0.0633223)
(-0.0196725 0.0103615 -0.0788133)
(-0.0233059 0.0158238 -0.0814712)
(-0.0119411 0.0459456 -0.0487321)
(-0.0151894 0.0251778 -0.0649544)
(-0.0139582 0.0145947 -0.0812742)
(-0.0170296 0.0120392 -0.080408)
(-0.0139888 0.0274128 -0.0677497)
(0.110057 0.0113801 -0.112006)
(0.0314841 0.0113005 -0.0480853)
(0.102368 0.0166549 -0.134412)
(0.0408556 0.00928636 -0.0425215)
(0.114464 0.00445322 -0.0710815)
(0.0506517 0.00500475 -0.0305293)
(0.0558911 0.00119667 -0.0096106)
(0.105132 0.00413392 -0.0656978)
(0.0553416 0.00548318 -0.0330521)
(0.0609886 0.00129163 -0.0103908)
(0.060438 0.00600237 -0.0358103)
(-0.88892 12.4109 -0.386553)
(0.0265286 0.00357548 -0.0163956)
(0.0123918 0.00237183 -0.0081434)
(0.0118304 0.000918281 -0.00207855)
(0.0281993 0.0031268 -0.0178531)
(0.0115607 0.00255054 -0.0074336)
(0.0239739 0.00730918 -0.0236238)
(0.00637808 0.00559301 -0.0103602)
(0.0229764 0.0117903 -0.028492)
(0.00747622 0.00446866 -0.00805066)
(0.0235726 0.0105017 -0.0305678)
(0.0234448 0.00833019 -0.0217684)
(0.00767724 0.00406246 -0.00881292)
(0.0252996 0.00418356 -0.0149318)
(0.011035 0.00106047 -0.00178581)
(0.0104583 0.00308449 -0.00605395)
(0.0243679 0.00487845 -0.013557)
(0.0109318 0.00279267 -0.00673473)
(-0.157546 -0.25643 -0.256298)
(-0.0460633 -0.0310788 -0.0168656)
(-0.0203195 -0.0180167 -0.0175236)
(0.00677439 -0.0522446 -0.00499084)
(0.0014672 -0.00849702 -0.00348119)
(-0.0347556 -0.0400709 0.00217118)
(-0.00435672 -0.0222355 -0.0127817)
(-0.0115765 -0.0119968 -0.00449588)
(-0.0460792 -0.0268793 -0.011324)
(-0.0266612 -0.0138539 -0.00810344)
(-0.0232763 -0.0230107 -0.00563621)
(-0.00221275 -0.00970277 -0.00249164)
(-0.00630218 -0.00738228 -0.00405689)
(0.00107637 -0.0207341 -0.00319918)
(-0.0118633 -0.00986692 -0.00385121)
(-3.86593 29.2375 -0.604826)
(-3.00877 33.1215 -0.70995)
(-0.0264807 0.00872514 -0.169138)
(-0.0222087 0.0102016 -0.179204)
(-0.0289138 0.00734495 -0.161079)
(-0.0269707 0.00704151 -0.150151)
(-0.0287154 0.00747883 -0.163725)
(-0.0262502 0.00851795 -0.166398)
(-0.0211781 0.00952632 -0.163533)
(-0.02496 0.00817769 -0.154919)
(-0.0218041 0.00996811 -0.175368)
(0.0671261 0.0176098 -0.202515)
(0.0535255 0.0186069 -0.210604)
(0.0762588 0.0156273 -0.190959)
(0.0850947 0.00797248 -0.163566)
(0.0930017 0.00888037 -0.178688)
(0.0681814 0.0140538 -0.171732)
(0.0800479 0.0161374 -0.195583)
(0.0631589 0.0169712 -0.19742)
(0.0453424 0.0164195 -0.186564)
(0.0571629 0.0154378 -0.178267)
(0.0495042 0.0178765 -0.204558)
(0.0323139 0.00253853 -0.0209958)
(0.0132907 0.00227156 -0.008866)
(0.0149617 0.000662939 -0.0028094)
(0.0300272 0.00278043 -0.0193816)
(0.0144183 0.00221201 -0.00963766)
(0.0310961 0.00478584 -0.0346667)
(0.00736812 0.00427957 -0.0151455)
(0.0317717 0.0068619 -0.0468357)
(0.0112073 0.003386 -0.0141555)
(0.0287526 0.00691522 -0.0435757)
(0.033785 0.00470565 -0.0373522)
(0.01014 0.00335753 -0.0131359)
(0.0347699 0.00237336 -0.0227595)
(0.0162568 0.00062804 -0.00307525)
(0.0170488 0.00222037 -0.0113348)
(0.0376205 0.0022826 -0.0245985)
(0.0156393 0.00220424 -0.0104623)
(0.0894802 0.00358827 -0.0564642)
(0.0467605 0.00461878 -0.0283219)
(0.043555 0.000970895 -0.00767788)
(0.0972632 0.00385329 -0.0609609)
(0.0427982 0.0043044 -0.0262062)
(0.073641 0.00770197 -0.077168)
(0.0206555 0.00763333 -0.0334084)
(0.0624066 0.0105787 -0.0874505)
(0.0239299 0.0057415 -0.0272043)
(0.0693338 0.0113281 -0.0941521)
(0.067399 0.00719465 -0.0716117)
(0.0264692 0.00615043 -0.0292762)