/*--------------------------------*- C++ -*----------------------------------*\
| =========                 |                                                 |
| \\      /  F ield         | OpenFOAM: The Open Source CFD Toolbox           |
|  \\    /   O peration     | Version:  2012                                  |
|   \\  /    A nd           | Website:  www.openfoam.com                      |
|    \\/     M anipulation  |                                                 |
\*---------------------------------------------------------------------------*/
FoamFile
{
    version     2.0;
    format      ascii;
    class       volVectorField;
    location    "0.107/solid";
    object      D;
}
// * * * * * * * * * * * * * * * * * * * * * * * * * * * * * * * * * * * * * //

dimensions      [0 1 0 0 0 0 0];


internalField   nonuniform List<vector> 
3125
(
(-1.08734e-13 -1.53207e-13 1.1724e-11)
(8.56091e-12 -5.80008e-11 1.22161e-11)
(-2.43501e-12 -2.63396e-13 2.34652e-11)
(-1.10843e-13 -1.48204e-13 1.17732e-11)
(-2.46769e-12 -2.15351e-13 2.33083e-11)
(4.67092e-12 -6.18762e-11 3.12833e-11)
(6.55598e-12 -3.84634e-11 1.40566e-11)
(8.95008e-12 -1.30295e-10 3.50801e-11)
(-1.27616e-14 1.15099e-13 1.18209e-11)
(5.97233e-09 8.63212e-09 -3.36476e-08)
(1.75988e-06 -4.60946e-07 -7.2753e-07)
(7.43146e-06 -2.06742e-06 -1.4345e-06)
(-2.35869e-12 1.02192e-13 2.34288e-11)
(-2.26566e-12 1.63993e-16 2.36807e-11)
(-1.26296e-15 7.58622e-14 1.18905e-11)
(-4.09358e-10 2.11647e-08 -3.18194e-08)
(1.72894e-06 -4.35329e-07 -5.97606e-07)
(6.64421e-06 -1.8387e-06 -1.36652e-06)
(2.21969e-06 -5.8849e-07 -8.17472e-07)
(6.62459e-06 -1.81925e-06 -1.12385e-06)
(2.18951e-06 -5.63738e-07 -6.72771e-07)
(7.41339e-06 -2.04869e-06 -1.17831e-06)
(-1.20734e-12 -4.34939e-14 -1.97326e-12)
(-1.42587e-13 1.18952e-14 1.15593e-11)
(-1.24519e-12 4.27322e-15 -2.09787e-12)
(8.07878e-12 -9.3858e-12 2.69964e-12)
(-3.56564e-11 -9.30301e-10 1.75374e-11)
(1.84593e-10 -3.67876e-10 1.09384e-11)
(-1.18725e-12 -4.72279e-14 -1.93586e-12)
(-2.50612e-12 -2.32938e-14 2.30526e-11)
(-8.25652e-13 -6.02181e-12 2.59662e-11)
(1.01098e-12 -2.17451e-12 1.30064e-11)
(5.18756e-12 -5.47697e-12 1.81462e-12)
(-3.79634e-13 -9.57713e-15 -6.12067e-13)
(-2.25903e-12 -2.12435e-14 -2.65566e-12)
(-2.28654e-12 -8.00014e-15 -2.75026e-12)
(-1.35373e-13 5.73605e-15 1.15703e-11)
(-1.17945e-12 6.81389e-14 -1.91915e-12)
(-1.23194e-12 5.20062e-15 -2.06713e-12)
(-2.23899e-12 4.20005e-14 -2.60999e-12)
(-2.27589e-12 1.57998e-14 -2.72404e-12)
(2.04389e-06 -3.96589e-07 -2.09021e-06)
(7.82536e-07 -6.03154e-08 -1.16076e-06)
(3.61762e-12 -4.24642e-12 1.55403e-12)
(1.29413e-10 -2.23607e-10 3.97193e-12)
(-1.94386e-10 -1.35577e-09 -1.54458e-10)
(4.09044e-07 -8.40117e-08 -3.3068e-07)
(1.30175e-08 1.13222e-08 -4.20935e-08)
(6.10184e-07 -3.36328e-08 -9.10737e-07)
(2.01713e-10 -9.10657e-10 -2.95739e-11)
(2.0059e-06 -4.04404e-07 -1.87496e-06)
(6.71391e-07 -1.58707e-07 -4.37334e-07)
(7.43145e-07 -6.40765e-08 -1.03727e-06)
(1.75828e-08 1.55627e-08 -4.93823e-08)
(6.48919e-07 -3.12271e-08 -1.02044e-06)
(1.68841e-10 -5.6602e-10 -1.83974e-11)
(1.07883e-05 -2.98658e-06 -4.65665e-06)
(7.33106e-06 -1.95117e-06 -3.55601e-06)
(9.99476e-06 -2.82677e-06 -1.62365e-06)
(1.0308e-05 -2.85019e-06 -4.10912e-06)
(7.35918e-06 -1.94555e-06 -3.95983e-06)
(1.03322e-05 -2.84607e-06 -4.57579e-06)
(1.09117e-05 -3.10386e-06 -1.68184e-06)
(1.07647e-05 -2.9905e-06 -4.18172e-06)
(-2.23633e-12 -4.77312e-14 -2.60824e-12)
(-2.49221e-12 1.89626e-14 2.30726e-11)
(-1.45599e-12 -2.54401e-12 2.51521e-11)
(7.82604e-13 -1.26141e-12 1.28502e-11)
(-1.10883e-12 6.93667e-14 -1.76173e-12)
(-6.57334e-13 6.2968e-14 -1.01673e-12)
(1.75113e-12 -2.36161e-12 6.52489e-13)
(-1.65662e-12 1.02962e-13 -1.46754e-12)
(-2.178e-12 6.67589e-14 -2.47008e-12)
(-1.87558e-12 1.06278e-13 -1.85569e-12)
(2.02692e-06 -3.45846e-07 -2.00742e-06)
(7.69913e-07 -3.61621e-09 -1.11893e-06)
(3.87839e-07 -5.4786e-08 -2.71821e-07)
(1.6101e-08 3.06808e-08 -4.80519e-08)
(6.00489e-07 6.76077e-09 -8.82527e-07)
(1.99166e-06 -3.69432e-07 -1.80945e-06)
(6.43533e-07 -1.28877e-07 -3.56348e-07)
(7.32235e-07 -2.46283e-08 -1.00344e-06)
(2.15026e-08 3.97826e-08 -5.40929e-08)
(6.37647e-07 2.67558e-08 -9.85672e-07)
(2.27104e-06 -4.60861e-07 -2.2152e-06)
(4.17472e-06 -1.00838e-06 -3.03701e-06)
(4.50384e-06 -1.22712e-06 -1.14741e-06)
(6.9393e-06 -1.83482e-06 -3.47049e-06)
(4.45674e-06 -1.10719e-06 -2.82566e-06)
(2.2336e-06 -4.68802e-07 -1.98753e-06)
(3.86892e-06 -1.04837e-06 -1.06914e-06)
(4.14137e-06 -1.01586e-06 -2.72687e-06)
(6.968e-06 -1.82898e-06 -3.86463e-06)
(4.4895e-06 -1.09988e-06 -3.14692e-06)
(2.25395e-06 -4.10861e-07 -2.12745e-06)
(4.15861e-06 -9.63535e-07 -2.91718e-06)
(4.47937e-06 -1.20547e-06 -9.45962e-07)
(6.92854e-06 -1.80806e-06 -3.34941e-06)
(4.44377e-06 -1.07685e-06 -2.72777e-06)
(2.2193e-06 -4.3436e-07 -1.91816e-06)
(3.84284e-06 -1.02598e-06 -8.81655e-07)
(4.12812e-06 -9.85012e-07 -2.63239e-06)
(6.95482e-06 -1.79008e-06 -3.71106e-06)
(4.4737e-06 -1.05578e-06 -3.02276e-06)
(1.07787e-05 -2.95429e-06 -4.46712e-06)
(7.32062e-06 -1.92492e-06 -3.43168e-06)
(9.98099e-06 -2.81019e-06 -1.32772e-06)
(1.02998e-05 -2.82748e-06 -3.96267e-06)
(7.3464e-06 -1.90739e-06 -3.80218e-06)
(1.03222e-05 -2.81305e-06 -4.39016e-06)
(1.08992e-05 -3.08799e-06 -1.37299e-06)
(1.07568e-05 -2.96828e-06 -4.03218e-06)
(-3.19865e-12 -9.44669e-14 7.7994e-12)
(-1.23242e-13 -6.03776e-14 1.1646e-11)
(-3.23707e-12 -4.44188e-14 7.70208e-12)
(8.70755e-12 -3.1808e-11 9.3732e-12)
(1.22077e-11 -1.8986e-10 9.88348e-12)
(2.76801e-11 -1.19129e-10 4.55077e-12)
(-2.35556e-12 -3.39678e-13 2.37039e-11)
(-1.99764e-14 -2.3894e-13 1.20076e-11)
(-3.19365e-12 -9.52733e-14 7.83651e-12)
(-3.18173e-12 -1.46093e-13 7.9975e-12)
(-2.46686e-12 -1.4601e-13 2.31829e-11)
(1.92234e-12 -2.91889e-11 2.87672e-11)
(3.15367e-12 -1.18796e-11 1.37506e-11)
(5.07325e-12 -2.04327e-11 9.76161e-12)
(-1.51695e-13 -5.41663e-12 9.65017e-12)
(-7.33846e-14 6.14312e-14 1.17034e-11)
(-3.15153e-12 1.07791e-13 7.89143e-12)
(-3.22076e-12 6.50234e-14 7.74323e-12)
(2.20278e-06 -3.53343e-07 -2.83543e-06)
(1.59808e-06 -1.86833e-07 -2.32271e-06)
(-8.52802e-09 -1.538e-08 -2.52514e-09)
(7.29497e-08 3.40655e-08 -1.0992e-07)
(1.04594e-08 4.77011e-09 -5.05692e-08)
(1.2424e-07 1.74277e-08 -2.30299e-07)
(4.07463e-09 -6.65896e-09 -2.20935e-09)
(1.90603e-06 -4.56886e-07 -1.16104e-06)
(1.34753e-06 -3.46576e-07 -6.34345e-07)
(1.28923e-06 -2.84825e-07 -9.42819e-07)
(4.46818e-08 3.45961e-09 -4.22712e-08)
(3.56779e-07 3.39917e-08 -6.37133e-07)
(1.27761e-05 -3.55629e-06 -6.68373e-06)
(7.25772e-06 -1.98721e-06 -2.20322e-06)
(8.25325e-06 -2.30841e-06 -1.49999e-06)
(8.48903e-06 -2.35103e-06 -2.35634e-06)
(7.47803e-06 -1.91159e-06 -5.33966e-06)
(8.69641e-06 -2.28281e-06 -5.70829e-06)
(1.28309e-05 -3.6931e-06 -1.79104e-06)
(1.26062e-05 -3.60359e-06 -2.76125e-06)
(-2.39482e-12 9.22177e-14 2.32671e-11)
(-2.08131e-12 -2.60431e-13 2.40414e-11)
(2.21176e-13 -2.20173e-14 1.22351e-11)
(-3.12833e-12 1.01358e-13 7.95037e-12)
(-3.02743e-12 8.82155e-14 8.21577e-12)
(2.19734e-06 -3.0809e-07 -2.77923e-06)
(1.59386e-06 -1.39852e-07 -2.27811e-06)
(5.98915e-08 2.78794e-08 -1.0414e-07)
(2.15406e-09 1.61305e-08 -2.7266e-08)
(1.17617e-07 4.80675e-08 -2.20426e-07)
(1.88679e-06 -4.30573e-07 -1.08025e-06)
(1.31643e-06 -3.19922e-07 -5.19686e-07)
(1.27024e-06 -2.57123e-07 -8.7621e-07)
(5.91041e-08 5.60909e-08 -8.61799e-08)
(3.63893e-07 9.19329e-08 -6.53031e-07)
(2.42759e-06 -4.17047e-07 -3.00184e-06)
(3.17037e-06 -6.30935e-07 -3.48723e-06)
(5.89291e-06 -1.62236e-06 -1.29605e-06)
(6.8646e-06 -1.87207e-06 -2.15065e-06)
(5.73908e-06 -1.54508e-06 -1.98541e-06)
(2.13527e-06 -5.21088e-07 -1.23075e-06)
(2.72542e-06 -7.28978e-07 -9.04287e-07)
(2.89194e-06 -7.33684e-07 -1.43475e-06)
(7.08917e-06 -1.79395e-06 -5.21188e-06)
(5.97682e-06 -1.45961e-06 -4.81381e-06)
(2.42186e-06 -3.72387e-07 -2.94205e-06)
(3.16413e-06 -5.88115e-07 -3.41725e-06)
(5.87169e-06 -1.60218e-06 -1.067e-06)
(6.8515e-06 -1.85205e-06 -2.00217e-06)
(5.72465e-06 -1.52393e-06 -1.8491e-06)
(2.11621e-06 -4.95224e-07 -1.14539e-06)
(2.6964e-06 -7.05049e-07 -7.4513e-07)
(2.87361e-06 -7.09031e-07 -1.33621e-06)
(7.0841e-06 -1.75902e-06 -5.10596e-06)
(5.97118e-06 -1.42268e-06 -4.71642e-06)
(1.27739e-05 -3.52989e-06 -6.54295e-06)
(7.24512e-06 -1.96759e-06 -2.05069e-06)
(8.23667e-06 -2.2904e-06 -1.23041e-06)
(8.47771e-06 -2.33253e-06 -2.19186e-06)
(7.47318e-06 -1.87733e-06 -5.23093e-06)
(8.69221e-06 -2.25055e-06 -5.59129e-06)
(1.28209e-05 -3.67863e-06 -1.45695e-06)
(1.25985e-05 -3.58843e-06 -2.56213e-06)
(-6.03615e-12 -8.69151e-14 5.64339e-12)
(-1.21244e-12 -2.00001e-14 -2.04083e-12)
(-6.07675e-12 -3.03388e-14 5.54094e-12)
(-1.18346e-13 -8.5092e-14 1.16293e-11)
(-3.22173e-12 9.28972e-15 7.66319e-12)
(-3.23725e-12 -4.20998e-14 7.68489e-12)
(-1.21145e-12 -1.55183e-14 -2.03377e-12)
(-6.05393e-12 1.66523e-14 5.51684e-12)
(-6.0742e-12 -3.85311e-14 5.5248e-12)
(5.32658e-12 -2.44906e-11 7.68665e-12)
(2.89381e-11 -4.22305e-11 3.91935e-12)
(2.69804e-11 -9.36844e-11 4.54818e-12)
(1.12918e-11 -2.75202e-10 -8.27855e-12)
(9.50805e-11 -7.18745e-10 -3.45955e-11)
(4.48877e-11 -1.93976e-10 1.45274e-13)
(4.15172e-11 -7.87884e-11 2.94056e-12)
(1.27836e-10 -5.74874e-10 -2.09942e-11)
(4.23197e-11 -1.62438e-10 7.40954e-13)
(-3.16866e-12 -1.4828e-13 8.06589e-12)
(-6.0347e-12 -7.01671e-14 5.67561e-12)
(-1.12402e-12 -6.55696e-14 -1.77111e-12)
(-6.03456e-12 -1.26551e-13 5.81527e-12)
(-1.09174e-12 -7.09548e-14 -1.70178e-12)
(-6.02899e-12 -1.19101e-13 5.86813e-12)
(-2.4754e-12 -1.02896e-13 2.31058e-11)
(2.43538e-13 -1.34353e-11 2.71524e-11)
(2.40559e-12 -7.5895e-12 1.37548e-11)
(-2.33805e-12 -7.57924e-13 8.93007e-12)
(-9.98922e-13 -3.44046e-12 9.51781e-12)
(1.84952e-12 -1.52677e-11 7.88438e-12)
(1.22919e-12 -1.15946e-12 5.82626e-13)
(-3.31002e-12 -3.89922e-12 7.49075e-12)
(-5.30689e-12 -4.76464e-13 6.73241e-12)
(5.26708e-13 -6.50104e-13 5.69993e-14)
(-4.08701e-12 -2.41237e-12 7.33586e-12)
(-1.56967e-12 2.35873e-15 -2.93539e-12)
(-2.26909e-12 -2.63904e-14 -2.70069e-12)
(-1.56007e-12 -5.90378e-15 -2.94419e-12)
(-2.27055e-12 -2.11944e-15 -2.70083e-12)
(-1.57753e-12 -5.68776e-15 -2.94948e-12)
(-1.57301e-12 3.43531e-15 -2.95743e-12)
(-7.57758e-14 9.49773e-14 1.16708e-11)
(-3.21997e-12 1.04001e-14 7.67051e-12)
(-3.22572e-12 6.31462e-14 7.72492e-12)
(-6.00161e-12 1.07431e-13 5.73362e-12)
(-1.17967e-12 3.65902e-14 -1.95603e-12)
(-6.06152e-12 5.36897e-14 5.58067e-12)
(-6.05259e-12 1.25674e-16 5.52263e-12)
(-1.21635e-12 3.18693e-14 -2.04611e-12)
(-6.06732e-12 6.1566e-14 5.56343e-12)
(-1.55583e-12 -1.22003e-15 -2.91157e-12)
(-2.24331e-12 3.72712e-14 -2.63349e-12)
(-1.57217e-12 6.03791e-15 -2.95436e-12)
(-1.59459e-12 5.08051e-15 -2.96824e-12)
(-2.27646e-12 1.18777e-14 -2.7123e-12)
(-1.56402e-12 -3.69584e-15 -2.94498e-12)
(2.15576e-06 -3.63782e-07 -2.63598e-06)
(1.43255e-06 -2.26717e-07 -1.70358e-06)
(1.54911e-06 -1.96206e-07 -2.1561e-06)
(9.53515e-07 -2.94627e-08 -1.60803e-06)
(1.41986e-06 -1.4011e-07 -2.14739e-06)
(1.25237e-06 -1.78253e-07 -1.57081e-06)
(9.02489e-07 -3.66579e-08 -1.4852e-06)
(1.37028e-06 -1.49004e-07 -1.99176e-06)
(-8.28309e-13 -1.15763e-14 -1.9177e-12)
(1.67405e-11 -2.14229e-11 2.57793e-12)
(-1.99782e-13 -3.61579e-13 -1.46576e-12)
(2.55961e-11 -4.08803e-11 2.27562e-12)
(4.99898e-12 -6.20868e-12 -7.17958e-13)
(1.55961e-14 -6.96657e-13 -1.56864e-12)
(-3.53919e-09 -6.20616e-09 2.00483e-09)
(2.03773e-10 -1.34001e-09 -6.74998e-11)
(8.35961e-11 -5.52836e-09 -1.17319e-09)
(2.04569e-07 -2.72623e-08 -2.22292e-07)
(5.0872e-07 -7.19027e-08 -5.55955e-07)
(1.97163e-07 4.92944e-09 -3.0905e-07)
(1.51579e-08 -2.55655e-09 -6.67823e-08)
(1.92471e-07 3.0284e-08 -3.90748e-07)
(2.60436e-09 -1.83351e-08 -3.7628e-09)
(1.35316e-07 2.02706e-08 -2.65455e-07)
(5.89689e-09 -2.69071e-09 -8.99264e-10)
(5.29505e-07 -6.26647e-08 -6.41293e-07)
(2.81174e-07 2.37673e-08 -5.2128e-07)
(2.13684e-07 9.38454e-09 -3.59293e-07)
(2.31725e-10 -1.30218e-09 -6.85686e-11)
(1.85376e-09 -4.03837e-09 1.24079e-10)
(1.02707e-09 -3.78369e-09 -1.01115e-09)
(1.92669e-06 -4.44509e-07 -1.33613e-06)
(1.39319e-06 -2.33623e-07 -1.52655e-06)
(1.31075e-06 -2.7262e-07 -1.08567e-06)
(9.84128e-07 -2.4552e-07 -5.37592e-07)
(6.39293e-07 -1.06519e-07 -6.35641e-07)
(1.108e-06 -2.34572e-07 -8.68301e-07)
(1.21272e-06 -1.8462e-07 -1.40685e-06)
(6.60695e-07 -9.6241e-08 -7.33002e-07)
(1.12962e-06 -2.22618e-07 -9.99572e-07)
(8.19543e-07 -3.41061e-09 -1.4234e-06)
(4.65523e-07 3.67179e-08 -8.43647e-07)
(3.09372e-08 8.66123e-09 -5.87701e-08)
(2.20964e-07 2.37273e-08 -4.42631e-07)
(2.29914e-09 -1.57347e-08 -2.39545e-09)
(3.11506e-07 2.91162e-08 -5.77919e-07)
(4.12706e-10 -4.45496e-10 4.1453e-11)
(7.68317e-07 -1.00535e-08 -1.3116e-06)
(3.12581e-07 2.1012e-08 -5.86636e-07)
(4.16685e-07 3.15982e-08 -7.67455e-07)
(1.06293e-11 -1.39279e-11 -1.44276e-13)
(1.65577e-09 -3.21661e-09 1.08153e-10)
(1.2677e-10 -2.9159e-10 -3.62745e-13)
(1.08889e-05 -2.96126e-06 -6.27412e-06)
(1.22939e-05 -3.40327e-06 -6.58487e-06)
(1.26844e-05 -3.57751e-06 -4.96251e-06)
(1.27488e-05 -3.56136e-06 -6.22746e-06)
(1.0859e-05 -2.96747e-06 -5.84507e-06)
(1.22e-05 -3.42549e-06 -4.88866e-06)
(1.2266e-05 -3.40862e-06 -6.13516e-06)
(7.27284e-06 -1.97918e-06 -2.53706e-06)
(8.55803e-06 -2.31847e-06 -3.80275e-06)
(8.50321e-06 -2.34384e-06 -2.71316e-06)
(9.10816e-06 -2.56157e-06 -1.56304e-06)
(1.02446e-05 -2.8783e-06 -2.54616e-06)
(8.91599e-06 -2.47834e-06 -2.40494e-06)
(8.98366e-06 -2.44694e-06 -3.88176e-06)
(1.02576e-05 -2.87219e-06 -2.93185e-06)
(8.92994e-06 -2.47144e-06 -2.76948e-06)
(1.04351e-05 -2.81969e-06 -6.16577e-06)
(9.11919e-06 -2.41258e-06 -5.8263e-06)
(7.44271e-06 -1.92016e-06 -4.97309e-06)
(8.58446e-06 -2.31351e-06 -4.23459e-06)
(8.66312e-06 -2.2905e-06 -5.31702e-06)
(1.04045e-05 -2.82619e-06 -5.74394e-06)
(9.00953e-06 -2.44219e-06 -4.32257e-06)
(9.08659e-06 -2.41997e-06 -5.42713e-06)
(1.26629e-05 -3.58066e-06 -4.4563e-06)
(1.26179e-05 -3.59872e-06 -3.17982e-06)
(1.18575e-05 -3.3927e-06 -1.73763e-06)
(1.07025e-05 -3.01752e-06 -2.59086e-06)
(1.212e-05 -3.45277e-06 -2.72038e-06)
(1.21779e-05 -3.42882e-06 -4.39001e-06)
(1.07153e-05 -3.01168e-06 -2.98363e-06)
(1.21319e-05 -3.44765e-06 -3.13249e-06)
(-1.55426e-12 -7.77892e-15 -2.91962e-12)
(-2.20212e-12 -3.83715e-14 -2.48534e-12)
(-1.52647e-12 1.06728e-15 -2.89255e-12)
(-2.16974e-12 -6.3828e-14 -2.41542e-12)
(-1.51249e-12 -8.27007e-15 -2.87395e-12)
(-2.43862e-12 8.01489e-14 2.31444e-11)
(-1.82858e-12 -9.71263e-13 2.45203e-11)
(2.83093e-13 -2.32069e-13 1.23618e-11)
(-2.55542e-12 -4.00284e-13 8.77841e-12)
(-2.96622e-12 3.36726e-14 8.31897e-12)
(-5.98373e-12 8.769e-14 5.78553e-12)
(-1.02002e-12 9.24215e-14 -1.59576e-12)
(-5.9142e-12 1.05975e-13 6.02786e-12)
(-5.50097e-12 -2.08611e-13 6.58193e-12)
(-9.00776e-13 9.43817e-14 -1.36435e-12)
(-5.86575e-12 6.42483e-14 6.12064e-12)
(-9.86191e-13 7.21968e-15 -2.09771e-12)
(-6.61855e-13 -3.75419e-13 -4.48215e-13)
(-1.2501e-12 1.31006e-14 -2.48452e-12)
(-1.11863e-12 -1.82108e-13 -9.21006e-13)
(-1.39498e-12 2.18385e-14 -2.68494e-12)
(-1.23237e-12 5.54819e-15 -2.46785e-12)
(-1.56121e-12 9.77856e-15 -2.91872e-12)
(-2.13302e-12 7.04525e-14 -2.34277e-12)
(-1.49835e-12 -6.93593e-16 -2.84629e-12)
(-2.03814e-12 9.89884e-14 -2.13861e-12)
(-1.43502e-12 1.13683e-14 -2.72498e-12)
(-1.51884e-12 9.22323e-15 -2.8668e-12)
(2.14644e-06 -3.12731e-07 -2.56757e-06)
(1.4166e-06 -1.73665e-07 -1.63675e-06)
(1.54106e-06 -1.43068e-07 -2.10156e-06)
(9.51591e-07 1.99703e-08 -1.58158e-06)
(1.41615e-06 -9.25541e-08 -2.10698e-06)
(1.23702e-06 -1.2437e-07 -1.50973e-06)
(8.97225e-07 1.96648e-08 -1.45251e-06)
(1.36281e-06 -9.51394e-08 -1.94225e-06)
(1.9196e-07 5.89238e-09 -1.85427e-07)
(4.9409e-07 -4.10838e-08 -5.17816e-07)
(1.89687e-07 3.69761e-08 -2.93446e-07)
(4.8093e-09 1.91617e-08 -3.19928e-08)
(1.91576e-07 7.64075e-08 -3.89373e-07)
(1.3232e-07 5.57706e-08 -2.60113e-07)
(5.15848e-07 -2.82058e-08 -6.05374e-07)
(2.76255e-07 6.7729e-08 -5.14443e-07)
(2.07187e-07 4.59518e-08 -3.45742e-07)
(1.90826e-06 -4.14985e-07 -1.25834e-06)
(1.37964e-06 -1.96969e-07 -1.47341e-06)
(1.2927e-06 -2.4156e-07 -1.02178e-06)
(9.53851e-07 -2.17798e-07 -4.39096e-07)
(6.23055e-07 -7.6331e-08 -5.90705e-07)
(1.08934e-06 -2.06337e-07 -8.06785e-07)
(1.19962e-06 -1.47351e-07 -1.35816e-06)
(6.45503e-07 -6.25213e-08 -6.90449e-07)
(1.11197e-06 -1.90988e-07 -9.40654e-07)
(8.18291e-07 4.68117e-08 -1.40223e-06)
(4.69212e-07 9.08658e-08 -8.47249e-07)
(4.56129e-08 5.28739e-08 -7.64418e-08)
(2.18476e-07 9.04711e-08 -4.40598e-07)
(3.17278e-07 9.57713e-08 -5.90228e-07)
(7.63959e-07 4.73631e-08 -1.28523e-06)
(3.07357e-07 8.31349e-08 -5.79377e-07)
(4.18627e-07 9.36656e-08 -7.6912e-07)
(2.38124e-06 -4.27708e-07 -2.79154e-06)
(3.02095e-06 -6.75128e-07 -2.57872e-06)
(3.12608e-06 -6.41902e-07 -3.24489e-06)
(4.31463e-06 -9.65957e-07 -4.10118e-06)
(3.44027e-06 -7.09498e-07 -3.64432e-06)
(3.29323e-06 -7.53451e-07 -2.6961e-06)
(4.27311e-06 -9.76649e-07 -3.8178e-06)
(3.39667e-06 -7.20459e-07 -3.39152e-06)
(5.17897e-06 -1.41847e-06 -1.22302e-06)
(4.37148e-06 -1.15276e-06 -1.75114e-06)
(5.38263e-06 -1.44232e-06 -1.92879e-06)
(6.87996e-06 -1.86373e-06 -2.47613e-06)
(5.81825e-06 -1.50424e-06 -3.20409e-06)
(5.7554e-06 -1.53585e-06 -2.28605e-06)
(4.38908e-06 -1.14233e-06 -2.01608e-06)
(5.46323e-06 -1.40025e-06 -3.11198e-06)
(5.39922e-06 -1.43277e-06 -2.22043e-06)
(2.15564e-06 -5.08808e-07 -1.41679e-06)
(2.98523e-06 -6.83093e-07 -2.31473e-06)
(2.91121e-06 -7.21912e-07 -1.65118e-06)
(3.27564e-06 -8.82303e-07 -9.88135e-07)
(4.05459e-06 -1.06257e-06 -1.69036e-06)
(3.16642e-06 -8.11065e-07 -1.49986e-06)
(3.25811e-06 -7.61337e-07 -2.42033e-06)
(4.07248e-06 -1.05184e-06 -1.94565e-06)
(3.18538e-06 -7.99541e-07 -1.7266e-06)
(4.62705e-06 -1.05818e-06 -4.2486e-06)
(5.62473e-06 -1.35444e-06 -4.67619e-06)
(7.05316e-06 -1.8028e-06 -4.85389e-06)
(5.84867e-06 -1.49774e-06 -3.56806e-06)
(5.93875e-06 -1.46927e-06 -4.48255e-06)
(4.58622e-06 -1.06871e-06 -3.95533e-06)
(5.49424e-06 -1.39354e-06 -3.46553e-06)
(5.58597e-06 -1.36435e-06 -4.35419e-06)
(2.37166e-06 -3.77354e-07 -2.71884e-06)
(3.00395e-06 -6.27335e-07 -2.47675e-06)
(3.1161e-06 -5.93669e-07 -3.15998e-06)
(4.30836e-06 -9.25709e-07 -4.01858e-06)
(3.43396e-06 -6.6731e-07 -3.5711e-06)
(3.27639e-06 -7.06393e-07 -2.58958e-06)
(4.26333e-06 -9.31334e-07 -3.71775e-06)
(3.38667e-06 -6.72947e-07 -3.30272e-06)
(5.15614e-06 -1.39756e-06 -1.00773e-06)
(4.35522e-06 -1.13008e-06 -1.63137e-06)
(5.36769e-06 -1.42077e-06 -1.79662e-06)
(6.86704e-06 -1.84124e-06 -2.33313e-06)
(5.8065e-06 -1.47594e-06 -3.09282e-06)
(5.7412e-06 -1.51208e-06 -2.15475e-06)
(4.37318e-06 -1.11684e-06 -1.90065e-06)
(5.45116e-06 -1.37145e-06 -3.00402e-06)
(5.38457e-06 -1.40857e-06 -2.09307e-06)
(2.1373e-06 -4.79763e-07 -1.33458e-06)
(2.97114e-06 -6.50202e-07 -2.23426e-06)
(2.89349e-06 -6.94228e-07 -1.55618e-06)
(3.24802e-06 -8.59154e-07 -8.14736e-07)
(4.03784e-06 -1.03949e-06 -1.5748e-06)
(3.1485e-06 -7.86828e-07 -1.39699e-06)
(3.24418e-06 -7.28958e-07 -2.33629e-06)
(4.05616e-06 -1.02591e-06 -1.83425e-06)
(3.16798e-06 -7.72305e-07 -1.62744e-06)
(4.62086e-06 -1.01859e-06 -4.16298e-06)
(5.61892e-06 -1.31684e-06 -4.5817e-06)
(7.04516e-06 -1.76348e-06 -4.72564e-06)
(5.8343e-06 -1.45661e-06 -3.42692e-06)
(5.92997e-06 -1.42769e-06 -4.36465e-06)
(4.5766e-06 -1.02414e-06 -3.85163e-06)
(5.47949e-06 -1.35167e-06 -3.3286e-06)
(5.57694e-06 -1.32202e-06 -4.23978e-06)
(1.08858e-05 -2.93228e-06 -6.1437e-06)
(1.22915e-05 -3.37623e-06 -6.44665e-06)
(1.26763e-05 -3.54808e-06 -4.7577e-06)
(1.27445e-05 -3.53163e-06 -6.05685e-06)
(1.08536e-05 -2.93484e-06 -5.68707e-06)
(1.21915e-05 -3.39535e-06 -4.68762e-06)
(1.22614e-05 -3.37816e-06 -5.96766e-06)
(7.26036e-06 -1.95712e-06 -2.39019e-06)
(8.54858e-06 -2.29375e-06 -3.66884e-06)
(8.49197e-06 -2.32306e-06 -2.55483e-06)
(9.093e-06 -2.54428e-06 -1.28021e-06)
(1.02349e-05 -2.86129e-06 -2.36603e-06)
(8.90514e-06 -2.46023e-06 -2.23649e-06)
(8.97454e-06 -2.42272e-06 -3.74468e-06)
(1.02479e-05 -2.85308e-06 -2.75852e-06)
(8.91912e-06 -2.45108e-06 -2.60736e-06)
(1.04317e-05 -2.79006e-06 -6.038e-06)
(9.11522e-06 -2.38098e-06 -5.70657e-06)
(7.43499e-06 -1.88159e-06 -4.84145e-06)
(8.57288e-06 -2.27757e-06 -4.0648e-06)
(8.65627e-06 -2.25417e-06 -5.17533e-06)
(1.03988e-05 -2.79282e-06 -5.58915e-06)
(8.99835e-06 -2.40699e-06 -4.14878e-06)
(9.08002e-06 -2.38439e-06 -5.28213e-06)
(1.26562e-05 -3.56041e-06 -4.29466e-06)
(1.26101e-05 -3.58169e-06 -2.98831e-06)
(1.18463e-05 -3.37754e-06 -1.41606e-06)
(1.06933e-05 -3.0009e-06 -2.40686e-06)
(1.21118e-05 -3.43723e-06 -2.52501e-06)
(1.2171e-05 -3.40809e-06 -4.23136e-06)
(1.07061e-05 -2.993e-06 -2.80661e-06)
(1.21237e-05 -3.4302e-06 -2.94457e-06)
(2.33775e-06 -3.60876e-07 -3.35609e-06)
(2.12625e-06 -3.03051e-07 -3.15951e-06)
(1.16734e-07 -2.35435e-08 -1.38439e-07)
(2.60162e-07 -7.21426e-09 -3.69265e-07)
(7.57998e-06 -1.91386e-06 -6.28833e-06)
(7.97562e-06 -2.03509e-06 -6.43513e-06)
(2.34257e-06 -3.37206e-07 -3.33055e-06)
(2.13146e-06 -2.791e-07 -3.13576e-06)
(1.23281e-07 2.17957e-08 -1.46011e-07)
(2.74917e-07 2.70436e-08 -3.95837e-07)
(2.56078e-06 -4.22918e-07 -3.5503e-06)
(2.79524e-06 -4.89055e-07 -3.74205e-06)
(7.1931e-06 -1.79573e-06 -6.13864e-06)
(6.81515e-06 -1.68072e-06 -5.98605e-06)
(2.56525e-06 -3.99542e-07 -3.52303e-06)
(2.79941e-06 -4.65984e-07 -3.71309e-06)
(7.19607e-06 -1.77742e-06 -6.0894e-06)
(6.81809e-06 -1.66206e-06 -5.93813e-06)
(7.58299e-06 -1.8959e-06 -6.23779e-06)
(7.97867e-06 -2.01748e-06 -6.38331e-06)
(-4.82064e-12 -7.21589e-14 -9.40146e-12)
(-1.16992e-12 -4.39149e-14 -1.99496e-12)
(-4.8545e-12 -8.13048e-14 -9.61265e-12)
(-1.19616e-12 2.62106e-15 -2.07895e-12)
(-4.85824e-12 2.30284e-14 -9.53986e-12)
(-4.88026e-12 2.42228e-14 -9.70645e-12)
(6.91413e-12 -1.63606e-11 -5.72784e-12)
(1.23182e-11 -1.51961e-11 2.95307e-12)
(1.2421e-11 -2.5701e-11 -5.36629e-12)
(9.39615e-11 -2.5354e-10 -1.76057e-12)
(2.01147e-10 -5.02402e-10 1.35529e-11)
(1.1107e-10 -3.84809e-10 -1.51451e-11)
(-4.81427e-12 -3.89319e-14 -9.39489e-12)
(-1.13148e-12 -5.16101e-14 -1.89026e-12)
(-4.82511e-12 -4.29399e-14 -9.52726e-12)
(3.32489e-12 -9.75714e-12 -6.04671e-12)
(3.42424e-12 -3.30481e-12 1.52604e-12)
(8.38548e-13 -6.07134e-12 -6.64621e-12)
(-3.96985e-12 -2.04038e-13 -8.29314e-12)
(-2.08098e-13 -1.26215e-13 -5.83777e-13)
(-3.74415e-12 -4.27121e-13 -8.2815e-12)
(-3.26082e-12 -4.45044e-15 -4.82161e-12)
(-2.20154e-12 -1.99664e-14 -2.60712e-12)
(-3.19122e-12 -6.5279e-15 -4.72392e-12)
(-2.22356e-12 -7.83458e-15 -2.67772e-12)
(-3.27647e-12 -1.32585e-14 -4.87971e-12)
(-3.2103e-12 -8.97447e-15 -4.7797e-12)
(-4.7868e-12 9.76875e-14 -9.34218e-12)
(-1.12725e-12 6.41883e-14 -1.90146e-12)
(-4.82197e-12 9.87e-14 -9.55201e-12)
(-4.84906e-12 -1.13612e-14 -9.51738e-12)
(-1.20464e-12 7.32721e-15 -2.09881e-12)
(-4.88225e-12 -1.37754e-14 -9.70905e-12)
(-3.23829e-12 1.87302e-14 -4.77267e-12)
(-2.16863e-12 3.93101e-14 -2.53009e-12)
(-3.17434e-12 2.03358e-14 -4.67917e-12)
(-3.27632e-12 1.75154e-14 -4.87135e-12)
(-2.2317e-12 1.67621e-14 -2.69443e-12)
(-3.21178e-12 1.53011e-14 -4.78522e-12)
(2.08045e-06 -3.87012e-07 -2.27848e-06)
(1.82836e-06 -3.36052e-07 -1.96328e-06)
(2.04591e-06 -4.295e-07 -2.096e-06)
(1.83019e-06 -3.69444e-07 -1.96872e-06)
(1.86544e-06 -3.26665e-07 -2.14075e-06)
(1.09903e-06 -5.23754e-08 -1.93709e-06)
(1.24216e-06 -8.19844e-08 -2.14535e-06)
(7.82443e-07 -9.67264e-08 -1.16201e-06)
(9.27452e-07 -9.47979e-08 -1.29941e-06)
(8.21192e-07 -5.42502e-08 -1.27076e-06)
(9.27735e-07 -1.30669e-07 -1.30168e-06)
(9.66239e-07 -8.78428e-08 -1.42103e-06)
(-1.3998e-13 -1.37223e-12 -1.68536e-12)
(6.22383e-12 -7.19962e-12 1.83335e-12)
(1.20753e-12 -2.52634e-12 -1.3032e-12)
(6.54643e-11 -1.41979e-10 -4.32641e-13)
(7.15661e-11 -1.04198e-10 -4.3305e-14)
(3.57054e-11 -6.01787e-11 -1.51867e-12)
(5.31726e-08 -1.75372e-09 -1.49526e-07)
(8.30175e-09 8.75752e-09 -4.0128e-08)
(5.66803e-08 3.6872e-08 -1.35312e-07)
(1.23726e-08 -3.37869e-09 -5.10303e-08)
(6.5384e-08 -6.93985e-09 -1.54627e-07)
(4.69175e-08 3.59436e-08 -1.20048e-07)
(1.02251e-08 -1.05504e-08 -5.16293e-08)
(4.66817e-07 -5.48136e-08 -7.24572e-07)
(6.16136e-07 -7.12271e-08 -9.31186e-07)
(5.79534e-07 -4.27859e-08 -8.17099e-07)
(4.89187e-07 -8.54947e-09 -7.82468e-07)
(5.87604e-07 -7.99786e-08 -8.45474e-07)
(4.94442e-07 -4.7027e-08 -7.98758e-07)
(4.59599e-07 -1.63655e-08 -7.01102e-07)
(2.36685e-10 -1.28431e-09 -5.85429e-11)
(5.41892e-10 -1.18109e-09 4.54751e-11)
(5.37192e-10 -1.37006e-09 8.82711e-11)
(1.77057e-06 -3.89066e-07 -1.64397e-06)
(1.97596e-06 -4.17609e-07 -1.69003e-06)
(1.78986e-06 -3.43663e-07 -1.76061e-06)
(2.01465e-06 -4.36902e-07 -1.9209e-06)
(1.7985e-06 -3.76689e-07 -1.80387e-06)
(1.75948e-06 -3.56794e-07 -1.58661e-06)
(1.98713e-06 -4.49333e-07 -1.75088e-06)
(8.65673e-07 -1.46258e-07 -1.08273e-06)
(7.49697e-07 -1.00876e-07 -1.06163e-06)
(8.87694e-07 -9.96048e-08 -1.16217e-06)
(7.11932e-07 -7.43279e-08 -9.31882e-07)
(8.94769e-07 -1.35653e-07 -1.19013e-06)
(7.20805e-07 -1.10753e-07 -9.65234e-07)
(8.56199e-07 -1.1073e-07 -1.04493e-06)
(9.66112e-07 -2.79204e-08 -1.72708e-06)
(8.42427e-07 -8.73366e-09 -1.51515e-06)
(2.20599e-08 1.21206e-08 -5.37372e-08)
(6.82807e-08 3.26184e-08 -1.52791e-07)
(1.63005e-08 -5.06497e-09 -4.72699e-08)
(8.97321e-08 -5.36008e-08 -1.84912e-07)
(8.00638e-08 1.15357e-08 -1.73475e-07)
(1.16035e-08 -6.07351e-09 -2.31697e-08)
(6.48485e-07 -6.82022e-08 -1.02046e-06)
(6.87214e-07 -2.62067e-08 -1.11856e-06)
(5.26474e-07 -7.59822e-09 -8.77742e-07)
(5.25762e-07 -4.51375e-08 -8.76366e-07)
(5.63679e-07 -3.85123e-09 -9.63688e-07)
(1.15184e-10 -2.61913e-10 -7.91169e-12)
(4.20589e-10 -8.24767e-10 1.53137e-11)
(2.66446e-10 -4.48298e-10 4.1359e-12)
(1.09752e-05 -2.96804e-06 -7.38235e-06)
(1.14345e-05 -3.11307e-06 -7.5063e-06)
(1.0789e-05 -3.00747e-06 -4.67054e-06)
(1.08113e-05 -2.98124e-06 -5.06904e-06)
(1.12518e-05 -3.13e-06 -4.73574e-06)
(1.12524e-05 -3.15043e-06 -4.7502e-06)
(1.12743e-05 -3.12488e-06 -5.15507e-06)
(7.71753e-06 -2.10308e-06 -3.39936e-06)
(7.30899e-06 -1.96064e-06 -3.20768e-06)
(7.33738e-06 -1.97554e-06 -3.64136e-06)
(7.73155e-06 -2.07057e-06 -3.63988e-06)
(7.73766e-06 -2.09448e-06 -3.72744e-06)
(7.31687e-06 -1.98441e-06 -3.3208e-06)
(7.70992e-06 -2.07975e-06 -3.28335e-06)
(9.84564e-06 -2.74171e-06 -3.77e-06)
(1.03128e-05 -2.87136e-06 -4.20979e-06)
(9.85881e-06 -2.71282e-06 -4.03494e-06)
(1.02889e-05 -2.85767e-06 -3.70674e-06)
(9.86385e-06 -2.73444e-06 -4.13343e-06)
(1.0295e-05 -2.87838e-06 -3.83973e-06)
(9.83932e-06 -2.72057e-06 -3.6398e-06)
(1.05232e-05 -2.82589e-06 -7.25558e-06)
(1.00788e-05 -2.68667e-06 -7.12598e-06)
(7.38643e-06 -1.9383e-06 -4.31103e-06)
(7.36069e-06 -1.97023e-06 -3.96991e-06)
(7.75911e-06 -2.06518e-06 -4.05323e-06)
(7.76051e-06 -2.08938e-06 -4.0637e-06)
(7.78581e-06 -2.05817e-06 -4.41263e-06)
(1.0333e-05 -2.86743e-06 -4.58912e-06)
(1.03557e-05 -2.84049e-06 -4.98109e-06)
(9.88357e-06 -2.70849e-06 -4.49317e-06)
(9.88448e-06 -2.73032e-06 -4.50596e-06)
(9.90762e-06 -2.70268e-06 -4.89121e-06)
(1.1216e-05 -3.16051e-06 -3.97485e-06)
(1.07693e-05 -3.01122e-06 -4.28454e-06)
(1.12287e-05 -3.13372e-06 -4.25272e-06)
(1.0746e-05 -2.99771e-06 -3.77225e-06)
(1.12331e-05 -3.15399e-06 -4.3577e-06)
(1.07518e-05 -3.01799e-06 -3.90801e-06)
(1.12104e-05 -3.14067e-06 -3.83633e-06)
(-3.24109e-12 -3.70561e-14 -4.77821e-12)
(-2.17379e-12 -4.81377e-14 -2.52287e-12)
(-3.17307e-12 -3.31226e-14 -4.66824e-12)
(-4.74288e-12 6.3579e-14 -9.25597e-12)
(-1.091e-12 7.22475e-14 -1.80791e-12)
(-4.75937e-12 5.9224e-14 -9.39594e-12)
(-4.20913e-12 -3.02858e-14 -8.49032e-12)
(-6.90629e-13 1.05606e-13 -1.06167e-12)
(-4.36951e-12 6.98889e-14 -8.7896e-12)
(-1.07374e-12 -6.94663e-13 -2.28267e-12)
(7.25683e-13 -1.3385e-12 4.38792e-13)
(-1.59517e-12 -3.33507e-13 -2.51086e-12)
(-1.54309e-12 5.48074e-14 -1.4021e-12)
(-2.87552e-12 1.08351e-13 -3.96242e-12)
(-2.76437e-12 9.35155e-14 -3.8191e-12)
(-3.20572e-12 4.90893e-14 -4.68831e-12)
(-2.14839e-12 7.02576e-14 -2.46027e-12)
(-3.14922e-12 4.86191e-14 -4.61274e-12)
(-1.85397e-12 1.14677e-13 -1.82645e-12)
(-2.9962e-12 8.45733e-14 -4.20959e-12)
(-2.97307e-12 8.42254e-14 -4.18022e-12)
(2.064e-06 -3.3085e-07 -2.19179e-06)
(1.81162e-06 -2.84558e-07 -1.88562e-06)
(2.00385e-06 -3.24829e-07 -1.9169e-06)
(1.84927e-06 -2.69688e-07 -2.05952e-06)
(1.78844e-06 -2.63198e-07 -1.8005e-06)
(1.10689e-06 -2.70376e-08 -1.92529e-06)
(1.24962e-06 -5.68474e-08 -2.13139e-06)
(7.48847e-07 2.05349e-08 -1.06979e-06)
(9.13755e-07 -3.90844e-08 -1.25075e-06)
(8.09481e-07 8.4371e-09 -1.22789e-06)
(9.53405e-07 -2.62681e-08 -1.37085e-06)
(8.91811e-07 -1.55584e-08 -1.195e-06)
(4.61811e-08 8.82196e-08 -1.48417e-07)
(1.11803e-08 2.63199e-08 -4.30422e-08)
(5.909e-08 6.13864e-08 -1.50362e-07)
(1.98711e-08 5.5869e-08 -5.94664e-08)
(4.70921e-08 5.73226e-08 -1.32941e-07)
(5.86707e-08 9.54261e-08 -1.6724e-07)
(1.40357e-08 4.92961e-08 -5.22644e-08)
(4.36489e-07 5.3359e-08 -6.56665e-07)
(5.85195e-07 3.70894e-08 -8.53346e-07)
(5.68472e-07 -4.97409e-09 -7.87453e-07)
(4.80727e-07 3.2861e-08 -7.60577e-07)
(4.49872e-07 2.25047e-08 -6.77602e-07)
(5.53551e-07 2.53487e-08 -7.60735e-07)
(4.6698e-07 6.39426e-08 -7.37455e-07)
(1.72502e-06 -2.96422e-07 -1.46658e-06)
(1.96042e-06 -3.84955e-07 -1.62287e-06)
(1.77576e-06 -3.08149e-07 -1.69908e-06)
(1.97247e-06 -3.42889e-07 -1.74361e-06)
(1.74402e-06 -3.23621e-07 -1.52346e-06)
(1.75655e-06 -2.81217e-07 -1.63722e-06)
(1.94143e-06 -3.58139e-07 -1.56235e-06)
(8.25756e-07 -4.52647e-08 -9.67659e-07)
(7.1567e-07 5.08468e-09 -9.68798e-07)
(8.75914e-07 -6.09519e-08 -1.12309e-06)
(6.99547e-07 -3.73483e-08 -8.96428e-07)
(8.42921e-07 -7.45439e-08 -1.00427e-06)
(8.58439e-07 -3.18028e-08 -1.08332e-06)
(6.83319e-07 -7.59135e-09 -8.64563e-07)
(9.74348e-07 -2.39494e-09 -1.71756e-06)
(8.51019e-07 1.70116e-08 -1.5082e-06)
(2.97329e-08 4.50018e-08 -6.1739e-08)
(7.31322e-08 7.23382e-08 -1.67996e-07)
(2.40256e-08 6.43379e-08 -7.28543e-08)
(8.97869e-08 8.04317e-08 -1.86499e-07)
(7.24957e-08 1.02285e-07 -1.91328e-07)
(6.1784e-07 5.15768e-08 -9.43506e-07)
(6.76833e-07 3.78924e-08 -1.08329e-06)
(5.16748e-07 5.15065e-08 -8.51193e-07)
(5.54985e-07 6.16053e-08 -9.37187e-07)
(4.9869e-07 7.7246e-08 -8.16545e-07)
(2.30707e-06 -4.51165e-07 -2.41417e-06)
(2.2732e-06 -4.93293e-07 -2.2213e-06)
(2.5097e-06 -5.28765e-07 -2.33828e-06)