/*--------------------------------*- C++ -*----------------------------------*\
| =========                 |                                                 |
| \\      /  F ield         | OpenFOAM: The Open Source CFD Toolbox           |
|  \\    /   O peration     | Version:  2012                                  |
|   \\  /    A nd           | Website:  www.openfoam.com                      |
|    \\/     M anipulation  |                                                 |
\*---------------------------------------------------------------------------*/
FoamFile
{
    version     2.0;
    format      ascii;
    class       volVectorField;
    location    "0.107/solid";
    object      sigmaMaxDir;
}
// * * * * * * * * * * * * * * * * * * * * * * * * * * * * * * * * * * * * * //

dimensions      [1 -1 -2 0 0 0 0];


internalField   nonuniform List<vector> 
3125
(
(-0.0212704 0.999738 0.00840229)
(-0.191867 0.859962 0.472919)
(-0.0171016 0.999852 0.00211978)
(-0.0227434 0.999734 0.00373297)
(-0.0102396 0.999944 0.00266215)
(-0.214751 0.946663 0.24023)
(-0.225464 0.875818 0.426742)
(-0.208847 0.933739 0.290712)
(-0.00104543 0.999987 -0.0050866)
(-0.137007 -0.0339598 0.989988)
(-0.239198 -0.0121792 0.970894)
(-0.296888 -0.0193551 0.954716)
(-0.0216615 0.999765 -0.000234011)
(-0.0358168 0.999354 0.00303655)
(-0.0120482 0.999926 0.00160952)
(-0.00589758 -0.135486 0.990762)
(-0.281421 0.0276234 0.959187)
(-0.289924 -0.0188759 0.956863)
(-0.244792 -0.013559 0.969481)
(-0.355617 0.029109 0.934178)
(-0.291708 0.027009 0.956126)
(-0.364402 0.0297454 0.930767)
(-0.00892074 0.00408047 0.999952)
(-0.00355493 0.999991 -0.00251063)
(-0.00484038 -0.001433 0.999987)
(-0.554241 0.665759 0.499582)
(-0.0213855 0.820155 0.571741)
(-0.29418 0.84559 0.445461)
(-0.0108276 0.00307257 0.999937)
(-0.00947142 0.999955 -0.000170548)
(-0.203784 0.976831 0.0653667)
(-0.284563 0.954403 0.0902179)
(-0.553968 0.625234 0.54973)
(-0.106381 0.000899727 0.994325)
(0.408825 0.000615885 0.912613)
(0.402317 0.00221193 0.915498)
(-0.00311229 0.999992 0.00236296)
(-0.0135583 -0.00737129 0.999881)
(-0.00496029 0.000611696 0.999988)
(0.413633 -0.00409185 0.910434)
(0.402796 -0.00290379 0.915285)
(-0.0690788 -0.00372476 0.997604)
(-0.0665239 -0.00369603 0.997778)
(-0.667289 0.681347 0.300818)
(-0.353756 0.817267 0.454896)
(0.010712 0.817625 0.575651)
(-0.207166 -0.00646077 0.978284)
(-0.1566 -0.0793846 0.984467)
(-0.0810929 -0.00132773 0.996706)
(-0.353932 0.803701 0.478327)
(-0.0836123 -0.00204315 0.996496)
(-0.221392 -0.00404556 0.975177)
(-0.0790878 -0.00111646 0.996867)
(-0.194343 -0.0239594 0.980641)
(-0.0693797 -0.00401464 0.997582)
(-0.389383 0.785014 0.481802)
(-0.110368 -0.00712822 0.993865)
(-0.115639 -0.00440659 0.993282)
(-0.318456 -0.0206072 0.947714)
(-0.129711 -0.00495858 0.991539)
(-0.0965854 -0.00623363 0.995305)
(-0.108526 -0.00701648 0.994069)
(-0.325901 -0.0209763 0.945171)
(-0.131873 -0.00502988 0.991254)
(0.411104 0.00726509 0.91156)
(-0.00321561 0.999995 0.000608866)
(-0.168788 0.985061 0.034128)
(-0.234049 0.970391 0.0596867)
(-0.0167567 -0.00488855 0.999848)
(-0.0791955 -0.0105935 0.996803)
(0.70692 -0.669226 -0.228911)
(0.509415 -0.0308705 0.859967)
(0.418613 -0.00904307 0.90812)
(0.482191 -0.0229722 0.875765)
(-0.0702103 0.00704084 0.997507)
(-0.0621552 0.00674252 0.998044)
(-0.218827 0.0461538 0.974672)
(-0.135059 -0.144042 0.980312)
(-0.0777032 0.00741185 0.996949)
(-0.0855355 0.0067448 0.996312)
(-0.242336 0.0356914 0.969536)
(-0.0762989 0.00720596 0.997059)
(-0.146067 -0.115662 0.98249)
(-0.0642917 0.00690374 0.997907)
(-0.0706992 -0.0039033 0.99749)
(-0.0823563 -0.00507838 0.99659)
(-0.269637 -0.0171628 0.962809)
(-0.113745 -0.00431637 0.993501)
(-0.100747 -0.00356501 0.994906)
(-0.0854495 -0.0022491 0.99634)
(-0.263115 -0.0164588 0.964624)
(-0.0988745 -0.00343359 0.995094)
(-0.0949817 -0.00611589 0.99546)
(-0.0839555 -0.00522319 0.996456)
(-0.0724213 0.00715128 0.997348)
(-0.0869862 0.00800239 0.996177)
(-0.329139 0.0275208 0.94388)
(-0.120059 0.00779369 0.992736)
(-0.105778 0.00713537 0.994364)
(-0.087862 0.00674843 0.99611)
(-0.320121 0.0271438 0.946988)
(-0.103671 0.00706127 0.994587)
(-0.101379 0.00906406 0.994807)
(-0.0888688 0.00812926 0.99601)
(-0.118188 0.0105529 0.992935)
(-0.122107 0.00790854 0.992485)
(-0.391073 0.0318954 0.919807)
(-0.137235 0.00887332 0.990499)
(-0.103152 0.00920992 0.994623)
(-0.116191 0.0103648 0.993173)
(-0.400132 0.0326893 0.915874)
(-0.139554 0.00903663 0.990173)
(0.999285 0.00393162 0.0376039)
(-0.0125528 0.999921 0.000282175)
(0.99919 -0.0027437 0.0401386)
(-0.315507 0.841727 0.438123)
(-0.120242 0.828472 0.546971)
(-0.230201 0.81709 0.528556)
(-0.0153811 0.999874 0.00397472)
(-0.033587 0.999367 0.0117461)
(0.999305 -0.00460327 0.0370035)
(0.999388 0.00261414 0.0348684)
(-0.0135429 0.999908 0.00087835)
(-0.223543 0.958839 0.175092)
(-0.308192 0.914059 0.263654)
(-0.353247 0.85232 0.385705)
(-0.498331 0.844878 0.194545)
(0.00168653 0.999998 0.000592142)
(0.999269 -0.016327 0.0345792)
(0.999246 -0.00296467 0.0387126)
(-0.0296967 -0.00182571 0.999557)
(-0.0262061 -0.0015828 0.999655)
(0.0253414 0.594914 0.80339)
(-0.216368 -0.0583977 0.974564)
(-0.145617 0.0459569 0.988273)
(-0.133234 0.00783025 0.991054)
(-0.152286 0.67426 0.722622)
(-0.160297 -0.00145165 0.987068)
(-0.233801 -0.0102467 0.972231)
(-0.153453 0.000529526 0.988156)
(-0.247299 0.0700042 0.966407)
(-0.0749331 -0.00480888 0.997177)
(-0.0552362 -0.00376027 0.998466)
(-0.208337 -0.00552819 0.978042)
(-0.303959 -0.0198017 0.952479)
(-0.217425 -0.00577271 0.97606)
(-0.0447262 -0.00304321 0.998995)
(-0.0471061 -0.00321645 0.998885)
(-0.341257 -0.0216473 0.939721)
(-0.247934 -0.00633483 0.968756)
(-0.00769983 0.99997 0.000577604)
(-0.0746564 0.997189 0.00637696)
(-0.0639629 0.997937 0.00550418)
(0.999394 -0.0116573 0.0327864)
(0.998651 -0.0450588 0.0257983)
(-0.0282973 0.00276767 0.999596)
(-0.0242121 0.00240721 0.999704)
(-0.117018 0.0110705 0.993068)
(-0.049021 -0.195285 0.979521)
(-0.120864 0.0109875 0.992608)
(-0.170287 0.0122127 0.985319)
(-0.270361 0.0287728 0.962329)
(-0.160073 0.0136238 0.987011)
(-0.223995 -0.0214039 0.974355)
(-0.0724275 0.00559135 0.997358)
(-0.0308627 -0.0019175 0.999522)
(-0.0340836 -0.00218184 0.999417)
(-0.283058 -0.0183569 0.958927)
(-0.205153 -0.0053829 0.978715)
(-0.196456 -0.00504363 0.9805)
(-0.16297 -0.00197711 0.986629)
(-0.250639 -0.0147097 0.967969)
(-0.170791 -0.00311017 0.985302)
(-0.0439542 -0.00298462 0.999029)
(-0.041665 -0.00280566 0.999128)
(-0.0296815 0.002877 0.999555)
(-0.0335293 0.00316872 0.999433)
(-0.34684 0.0285215 0.93749)
(-0.223844 0.0121229 0.97455)
(-0.21397 0.0117139 0.97677)
(-0.173816 0.0119167 0.984706)
(-0.301482 0.0268245 0.953094)
(-0.183953 0.0114528 0.982868)
(-0.0448344 0.00403486 0.998986)
(-0.0423424 0.00383565 0.999096)
(-0.0563881 0.00507555 0.998396)
(-0.227343 0.0122522 0.973738)
(-0.373221 0.0304225 0.927244)
(-0.237575 0.0127947 0.971285)
(-0.0456576 0.00410272 0.998949)
(-0.0481528 0.00431616 0.998831)
(-0.418546 0.0343752 0.907545)
(-0.271466 0.0148986 0.962333)
(0.980621 0.00934862 0.195692)
(-0.00793248 -0.00135987 0.999968)
(0.979384 -0.00329183 0.20198)
(-0.0128084 0.999901 0.00590095)
(0.999189 -0.00483059 0.0399728)
(0.999185 0.00104245 0.0403481)
(-0.00718647 0.00366922 0.999967)
(0.979421 -0.0063868 0.201725)
(0.97928 0.00529676 0.202443)
(-0.367678 0.82759 0.424155)
(-0.474406 0.751052 0.459195)
(-0.278961 0.811597 0.513314)
(-0.0725725 0.824122 0.561743)
(-0.139122 0.820095 0.555058)
(-0.208623 0.810742 0.546968)
(-0.473973 0.748306 0.464099)
(-0.171244 0.828153 0.533702)
(-0.274293 0.800078 0.533515)
(0.999427 -0.00114734 0.0338304)
(0.980939 -0.00166666 0.194309)
(-0.0186889 0.00799708 0.999793)
(0.981942 0.0105983 0.188885)
(-0.0213487 0.00336468 0.999766)
(0.982445 0.00256379 0.186535)
(-0.00547275 0.999983 0.00192026)
(-0.222699 0.968456 0.111792)
(-0.31328 0.927462 0.204131)
(0.930875 -0.364678 -0.0219553)
(-0.58479 0.799436 0.137559)
(-0.394423 0.841104 0.370102)
(-0.365064 0.223832 0.903675)
(-0.554839 0.817745 0.153124)
(0.976571 -0.187545 0.105528)
(-0.264566 0.102647 0.958889)
(-0.682553 0.727297 0.0718304)
(0.238763 -0.000667683 0.971078)
(0.405582 0.00238457 0.914056)
(0.237219 0.000901975 0.971456)
(0.405135 0.000502221 0.914257)
(0.239069 0.0010479 0.971002)
(0.237811 -0.000609637 0.971311)
(0.00562946 0.999968 -0.00560975)
(0.999201 0.00348971 0.0398196)
(0.999204 -0.00533173 0.0395373)
(0.981604 -0.0173498 0.19014)
(-0.00961755 -0.000440707 0.999954)
(0.980008 -0.00155979 0.198952)
(0.9795 0.00453517 0.201392)
(-0.00845604 -0.00544118 0.999949)
(0.979606 -0.00927569 0.200713)
(0.238695 0.000513142 0.971094)
(0.408478 -0.0037255 0.91276)
(0.237835 -0.000918954 0.971305)
(0.2397 -0.000938788 0.970847)
(0.406111 -0.00179252 0.913822)
(0.237634 0.000637875 0.971354)
(-0.0382458 -0.0023235 0.999266)
(-0.0651153 -0.00328643 0.997872)
(-0.0345883 -0.00206861 0.9994)
(-0.0250826 -0.0017256 0.999684)
(-0.0252445 -0.00153616 0.99968)
(-0.0644006 -0.00320966 0.997919)
(-0.0346569 -0.00247642 0.999396)
(-0.0337214 -0.00204134 0.999429)
(0.198001 0.00141391 0.980201)
(-0.541862 0.728327 0.419435)
(0.0762168 0.106213 0.991418)
(-0.529842 0.724528 0.440825)
(-0.599172 0.618672 0.50817)
(-0.0481261 0.221853 0.973892)
(0.191111 0.828759 0.525961)
(-0.140028 0.808034 0.572252)
(-0.132153 0.745336 0.65346)
(-0.201276 0.0294087 0.979093)
(-0.142617 0.00600145 0.98976)
(-0.132996 0.0149852 0.991003)
(-0.151079 0.0675747 0.986209)
(-0.105399 -0.00517623 0.994417)
(-0.146537 0.619836 0.770929)
(-0.11896 -0.00136146 0.992898)
(-0.391035 0.73671 0.551679)
(-0.122599 0.00290009 0.992452)
(-0.0965619 -0.00571757 0.995311)
(-0.120114 0.00947704 0.992715)
(-0.210864 0.795529 0.56804)
(-0.120928 0.887499 0.44466)
(-0.191802 0.730223 0.655733)
(-0.135759 -0.00183141 0.99074)
(-0.0790467 -0.00142479 0.99687)
(-0.129674 -0.000349926 0.991557)
(-0.227799 -0.00838921 0.973672)
(-0.145113 0.00515133 0.989402)
(-0.151269 0.00140809 0.988492)
(-0.0781122 -0.00124861 0.996944)
(-0.124038 0.00259583 0.992274)
(-0.127938 0.000222109 0.991782)
(-0.0271443 -0.00198192 0.99963)
(-0.0517491 -0.00470182 0.998649)
(-0.271352 0.06356 0.960379)
(-0.104902 -0.00634072 0.994462)
(-0.221891 0.679494 0.699323)
(-0.0879366 -0.00736439 0.996099)
(-0.395329 0.806861 0.438965)
(-0.0374963 -0.00288275 0.999293)
(-0.0915516 -0.0112138 0.995737)
(-0.0646861 -0.00714709 0.99788)
(-0.59439 0.648506 0.475543)
(-0.184955 0.873332 0.450647)
(-0.587587 0.660839 0.46694)
(-0.0513982 -0.00350873 0.998672)
(-0.0542385 -0.00369532 0.998521)
(-0.118174 -0.00757711 0.992964)
(-0.0695935 -0.00481862 0.997564)
(-0.0648172 -0.00450244 0.997887)
(-0.116153 -0.00746235 0.993203)
(-0.0683532 -0.00473776 0.99765)
(-0.179176 -0.00524702 0.983803)
(-0.121469 -0.00465748 0.992584)
(-0.187465 -0.00554436 0.982256)
(-0.311142 -0.0202185 0.950148)
(-0.230375 -0.00605888 0.973083)
(-0.220761 -0.00589231 0.97531)
(-0.123473 -0.00473678 0.992337)
(-0.19918 -0.00586036 0.979945)
(-0.190371 -0.00561961 0.981696)
(-0.0505 -0.00344887 0.998718)
(-0.0479265 -0.00327453 0.998845)
(-0.0564718 -0.00390306 0.998397)
(-0.101526 -0.0065741 0.994811)
(-0.0594551 -0.00412809 0.998222)
(-0.0636967 -0.00442635 0.997959)
(-0.103226 -0.00668677 0.994635)
(-0.0604825 -0.00420261 0.99816)
(-0.141018 -0.00529958 0.989993)
(-0.215083 -0.00615815 0.976576)
(-0.3335 -0.0213233 0.942509)
(-0.233907 -0.0061576 0.97224)
(-0.244169 -0.00625478 0.969713)
(-0.138654 -0.00523245 0.990327)
(-0.202282 -0.00591985 0.979309)
(-0.211744 -0.00611219 0.977306)
(0.237956 0.00128493 0.971275)
(0.421507 0.00459111 0.906813)
(0.236018 -0.00031504 0.971749)
(0.425068 0.00730492 0.905132)
(0.235281 0.00123347 0.971927)
(-0.0101017 0.999948 -0.00106839)
(-0.117158 0.992958 0.0175848)
(-0.106559 0.99411 0.0197495)
(0.971299 -0.237827 -0.00405874)
(0.997781 -0.0629672 0.0216592)
(0.982388 -0.00793606 0.186683)
(-0.0322257 -0.0117747 0.999411)
(0.984304 -0.0323251 0.173493)
(0.983633 -0.127718 0.1271)
(-0.039706 -0.00581599 0.999194)
(0.985459 -0.0342732 0.166422)
(0.212011 -0.000880783 0.977267)
(0.740014 -0.0824939 0.667513)
(0.224306 -0.00209405 0.974517)
(0.638207 -0.037462 0.768953)
(0.231858 -0.00302926 0.972745)
(0.224041 -0.000401395 0.97458)
(0.238571 -0.00145731 0.971124)
(0.435095 -0.0103528 0.900325)
(0.235601 0.00030034 0.97185)
(0.444419 -0.0127951 0.895728)
(0.234799 -0.0010176 0.972043)
(0.236289 -0.0012521 0.971682)
(-0.0374334 0.0037864 0.999292)
(-0.0641466 0.0067714 0.997918)
(-0.0328413 0.00342403 0.999455)
(-0.0229191 0.00203167 0.999735)
(-0.0231061 0.00228589 0.99973)
(-0.0626329 0.00671699 0.998014)
(-0.0320019 0.00309577 0.999483)
(-0.0316797 0.00330982 0.999493)
(-0.183646 0.0537917 0.981519)
(-0.141521 0.0206608 0.98972)
(-0.124699 0.0170766 0.992048)
(-0.0715754 -0.188279 0.979504)
(-0.100921 0.00591886 0.994877)
(-0.111062 0.00901325 0.993773)
(-0.12007 0.0154984 0.992644)
(-0.0918872 0.00769831 0.99574)
(-0.112916 0.0124045 0.993527)
(-0.142549 0.0102239 0.989735)
(-0.0791998 0.00682994 0.996835)
(-0.133567 0.0111049 0.990978)
(-0.257643 0.031319 0.965733)
(-0.145639 0.0183524 0.989168)
(-0.156622 0.0144148 0.987553)
(-0.0775791 0.00689881 0.996962)
(-0.122749 0.0139999 0.992339)
(-0.130688 0.0116183 0.991355)
(-0.0251655 0.00210922 0.999681)
(-0.0507722 0.00338021 0.998705)
(-0.211889 -0.0467287 0.976176)
(-0.0973281 0.00786212 0.995221)
(-0.0810866 0.00581211 0.99669)
(-0.0347274 0.0031959 0.999392)
(-0.0833889 0.00750443 0.996489)
(-0.0613093 0.00411956 0.99811)
(-0.0395535 -0.00243417 0.999214)
(-0.0757584 -0.00443937 0.997116)
(-0.0433042 -0.00276785 0.999058)
(-0.0377209 -0.00248418 0.999285)
(-0.0350557 -0.00226294 0.999383)
(-0.0774387 -0.00460942 0.996986)
(-0.0477187 -0.00316567 0.998856)
(-0.0444686 -0.00287346 0.999007)
(-0.276293 -0.0177909 0.960909)
(-0.18494 -0.00438743 0.98274)
(-0.193378 -0.00486369 0.981112)
(-0.176418 -0.00515174 0.984302)
(-0.108153 -0.00402399 0.994126)
(-0.168497 -0.00478419 0.985691)
(-0.158126 -0.00419102 0.98741)
(-0.106306 -0.00391705 0.994326)
(-0.165835 -0.0046616 0.986142)
(-0.138105 -0.00220018 0.990415)
(-0.0912222 -0.00281796 0.995827)
(-0.145366 -0.00314364 0.989373)
(-0.256764 -0.0156515 0.966347)
(-0.181934 -0.00415211 0.983302)
(-0.173706 -0.00344516 0.984792)
(-0.093158 -0.00298715 0.995647)
(-0.155512 -0.00402565 0.987826)
(-0.147926 -0.0033831 0.988993)
(-0.0385441 -0.00255184 0.999254)
(-0.0409009 -0.00274387 0.999159)
(-0.0555032 -0.00382691 0.998451)
(-0.0902462 -0.00575343 0.995903)
(-0.0526311 -0.00359194 0.998608)
(-0.0487367 -0.00325582 0.998806)
(-0.0886805 -0.00562618 0.996044)
(-0.0516739 -0.0035109 0.998658)
(-0.0390439 0.00390084 0.99923)
(-0.0789602 0.00750554 0.99685)
(-0.0436161 0.00421755 0.999039)
(-0.0378446 0.00349133 0.999278)
(-0.0346906 0.00325523 0.999393)
(-0.0810479 0.00762814 0.996681)
(-0.0488838 0.00458674 0.998794)
(-0.0450204 0.00431444 0.998977)
(-0.338026 0.0279866 0.94072)
(-0.200781 0.0113835 0.97957)
(-0.210546 0.0116301 0.977515)
(-0.190528 0.0105689 0.981625)
(-0.113974 0.00748238 0.993456)
(-0.181685 0.0101919 0.983304)
(-0.169937 0.00985397 0.985406)
(-0.111948 0.00738874 0.993687)
(-0.178708 0.0101088 0.98385)
(-0.145671 0.0100351 0.989282)
(-0.094849 0.00682984 0.995468)
(-0.154886 0.00978642 0.987884)
(-0.310926 0.0268917 0.950054)
(-0.197349 0.0113619 0.980267)
(-0.187451 0.0113666 0.982208)
(-0.0971176 0.00687657 0.995249)
(-0.166936 0.009818 0.985919)
(-0.157975 0.00974436 0.987395)
(-0.0388039 0.00356387 0.99924)
(-0.0414911 0.00376968 0.999132)
(-0.0576644 0.00525263 0.998322)
(-0.0960906 0.00864981 0.995335)
(-0.0545063 0.00500318 0.998501)
(-0.0500727 0.00467238 0.998735)
(-0.0943172 0.00851688 0.995506)
(-0.0534332 0.0049215 0.998559)
(-0.0525404 0.00471438 0.998608)
(-0.0553924 0.00498137 0.998452)
(-0.126638 0.0113683 0.991884)
(-0.0724723 0.00658964 0.997349)
(-0.0675264 0.00612127 0.997699)
(-0.124453 0.0111548 0.992163)
(-0.0711912 0.00646711 0.997442)
(-0.193574 0.0106885 0.981027)
(-0.12839 0.00828539 0.991689)
(-0.202754 0.011172 0.979166)
(-0.382108 0.0311409 0.923593)
(-0.252013 0.0136357 0.967628)
(-0.241225 0.0129646 0.970383)
(-0.130542 0.00842277 0.991407)
(-0.215678 0.0119172 0.976392)
(-0.205949 0.0113266 0.978497)
(-0.0516309 0.00463032 0.998655)
(-0.0490012 0.00439086 0.998789)
(-0.0587125 0.00533844 0.998261)
(-0.108572 0.00967279 0.994042)
(-0.0618995 0.00561013 0.998067)
(-0.0663585 0.00601322 0.997778)
(-0.110427 0.00983721 0.993836)
(-0.0629865 0.00570595 0.997998)
(-0.149353 0.00975594 0.988736)
(-0.233188 0.013036 0.972344)
(-0.409285 0.0335159 0.911791)
(-0.255871 0.0138456 0.966612)
(-0.26736 0.0146476 0.963485)
(-0.146821 0.00956662 0.989117)
(-0.219084 0.012107 0.975631)
(-0.229524 0.0128089 0.973219)
(-0.0125016 -0.00135899 0.999921)
(-0.0118187 -0.001304 0.999929)
(-0.201212 -0.00501234 0.979535)
(-0.120954 0.0131223 0.992571)
(-0.019697 -0.00193767 0.999804)
(-0.0200442 -0.00197068 0.999797)
(-0.0116829 0.000882772 0.999931)
(-0.0109317 0.000811494 0.99994)
(-0.19863 0.00924458 0.980031)
(-0.11188 0.0183414 0.993552)
(-0.0131413 -0.001409 0.999913)
(-0.0137359 -0.00145432 0.999905)
(-0.0193537 -0.00190558 0.999811)
(-0.0190131 -0.0018743 0.999817)
(-0.012398 0.000952657 0.999923)
(-0.0130715 0.00101996 0.999914)
(-0.0194155 0.00165619 0.99981)
(-0.019053 0.00162238 0.999817)
(-0.0197771 0.00168933 0.999803)
(-0.0201392 0.001722 0.999796)
(0.248765 0.00591806 0.968546)
(-0.0115341 0.00583517 0.999916)
(0.244927 0.00882617 0.969501)
(-0.00835528 -0.00195455 0.999963)
(0.24623 -0.00379758 0.969204)
(0.243439 -0.00452053 0.969906)
(-0.499102 0.742541 0.446688)
(-0.529099 0.702703 0.47567)
(-0.468999 0.766927 0.438021)
(-0.416132 0.779694 0.46788)
(-0.259936 0.86616 0.426849)
(-0.376094 0.812604 0.445228)
(0.248959 -0.000352271 0.968514)
(-0.0165998 0.00288785 0.999858)
(0.246424 -0.00036276 0.969162)
(-0.501221 0.730122 0.464434)
(-0.541301 0.534483 0.649092)
(-0.491734 0.694497 0.525235)
(0.250432 0.00922561 0.96809)
(-0.142217 0.0129873 0.98975)
(0.240753 0.0210358 0.970358)
(0.295213 -0.000894621 0.955431)
(0.407235 0.00131353 0.913322)
(0.294875 -0.000475508 0.955536)
(0.402294 0.00159712 0.915509)
(0.29342 0.0021743 0.955981)
(0.293332 0.00150453 0.956009)
(0.249192 -0.008769 0.968415)
(-0.0146737 -0.00726989 0.999866)
(0.245659 -0.00927726 0.969312)
(0.246324 0.00291812 0.969183)
(-0.00884022 0.00120154 0.99996)
(0.243434 0.00439433 0.969907)
(0.296416 -0.00051742 0.955059)
(0.41111 -0.00375015 0.911578)
(0.295684 -0.000767794 0.955285)
(0.293539 -0.00240601 0.955944)
(0.402506 -0.00288799 0.915413)
(0.293481 -0.00219113 0.955962)
(-0.0580477 -0.00384426 0.998306)
(-0.0675598 -0.00355537 0.997709)
(-0.0701855 -0.00963281 0.997487)
(-0.0688896 -0.00942828 0.99758)
(-0.0566481 -0.00371107 0.998387)
(-0.00832204 -0.000968782 0.999965)
(-0.00849481 -0.000988924 0.999963)
(-0.069186 -0.00939399 0.99756)
(-0.0648321 -0.00331227 0.997891)
(-0.0561909 -0.0042435 0.998411)
(-0.0673371 -0.00915278 0.997688)
(-0.0543361 -0.00378232 0.998516)
(-0.320071 0.54291 0.776404)
(-0.618314 0.701049 0.355272)
(-0.617564 0.629504 0.471528)
(-0.460437 0.755631 0.465854)
(-0.430788 0.771215 0.468667)
(-0.509963 0.714638 0.47878)
(-0.145464 0.169236 0.974782)
(-0.134556 -0.0971161 0.986135)
(-0.144187 -0.0451122 0.988522)
(-0.165882 0.134247 0.976965)
(-0.159241 0.101556 0.982002)
(-0.132583 -0.0539165 0.989704)
(-0.131561 0.191705 0.972595)
(-0.0976331 -0.00994038 0.995173)
(-0.0826736 -0.0100919 0.996526)
(-0.0929017 -0.000190285 0.995675)
(-0.0848213 -0.00205085 0.996394)
(-0.0949434 -0.00968918 0.995436)
(-0.0866104 -0.0109663 0.996182)
(-0.0952059 -0.00015399 0.995458)
(-0.325828 0.826757 0.458595)
(-0.187199 0.881386 0.433722)
(-0.19189 0.881152 0.432144)
(-0.094748 -0.0100873 0.99545)
(-0.098486 -0.00184691 0.995137)
(-0.0818884 -0.00183234 0.99664)
(-0.0821118 -0.00995441 0.996573)
(-0.0807643 -0.00974854 0.996686)
(-0.0966274 -0.00158929 0.995319)
(-0.0961335 -0.0103406 0.995315)
(-0.0924176 -0.00930665 0.995677)
(-0.0804368 -0.00965369 0.996713)
(-0.0779181 -0.00104571 0.996959)
(-0.0919614 -6.9768e-05 0.995763)
(-0.0788923 -0.00939735 0.996839)
(-0.0935131 -0.00934928 0.995574)
(-0.0914424 -0.000288546 0.99581)
(-0.00878223 -0.000932471 0.999961)
(-0.010239 -0.00113725 0.999947)
(-0.212429 0.0190594 0.976991)
(-0.172347 -0.0156547 0.984912)
(-0.208952 0.17464 0.962206)
(-0.176871 0.129242 0.975712)
(-0.178337 0.0227394 0.983707)
(-0.221154 0.20465 0.953525)
(-0.0720179 -0.0100426 0.997353)
(-0.0594956 -0.00470537 0.998217)
(-0.0743953 -0.00548372 0.997214)
(-0.0770489 -0.010713 0.99697)
(-0.0651434 -0.00613472 0.997857)
(-0.441902 0.754506 0.485225)
(-0.24901 0.860202 0.445025)
(-0.347411 0.817703 0.458986)
(-0.0226692 -0.00223367 0.999741)
(-0.0230804 -0.00227619 0.999731)
(-0.109648 -0.0153364 0.993852)
(-0.0940245 -0.00708096 0.995545)
(-0.112251 -0.00723971 0.993654)
(-0.111504 -0.0155988 0.993642)
(-0.0956542 -0.00719578 0.995389)
(-0.129686 -0.0148229 0.991444)
(-0.134106 -0.00438573 0.990957)
(-0.110829 -0.0138812 0.993743)
(-0.117555 -0.00449294 0.993056)
(-0.112636 -0.0141145 0.993536)
(-0.127649 -0.0145779 0.991712)
(-0.136284 -0.00447287 0.99066)
(-0.140385 -0.0160554 0.989967)
(-0.124142 -0.0155729 0.992142)
(-0.127592 -0.00488534 0.991815)
(-0.150091 -0.00493233 0.98866)
(-0.122134 -0.0153159 0.992395)
(-0.142642 -0.0163134 0.98964)
(-0.147688 -0.00486176 0.989022)
(-0.0222681 -0.00219249 0.99975)
(-0.0218767 -0.00215233 0.999758)
(-0.0821381 -0.00617662 0.996602)
(-0.0960873 -0.013414 0.995283)
(-0.0982082 -0.00634856 0.995146)
(-0.0976788 -0.0136422 0.995124)
(-0.0835348 -0.00629115 0.996485)
(-0.107833 -0.0150785 0.994055)
(-0.0924318 -0.00696681 0.995695)
(-0.106724 -0.00690547 0.994265)
(-0.106057 -0.0148223 0.99425)
(-0.0908744 -0.00685436 0.995839)
(-0.147297 -0.0168369 0.988949)
(-0.126192 -0.0158292 0.99188)
(-0.134083 -0.00509875 0.990957)
(-0.152543 -0.00499969 0.988284)
(-0.128288 -0.0160908 0.991606)
(-0.144946 -0.0165695 0.989301)
(-0.155045 -0.00506509 0.987894)
(0.295926 0.00421704 0.955202)
(0.413799 0.00668976 0.910344)
(0.296611 0.00359217 0.954992)
(0.24997 -0.00163785 0.968252)
(-0.0233133 -0.0047851 0.999717)
(0.247891 -0.0007522 0.968788)
(0.254305 -0.00734851 0.967096)
(-0.0639434 -0.0149832 0.997841)
(0.251779 -0.0143475 0.967678)
(0.355055 0.0693656 0.932268)
(0.795642 -0.601637 -0.0706126)
(0.360325 0.0152317 0.932703)
(0.535487 -0.0352988 0.843806)
(0.317215 -0.0127841 0.948268)
(0.321462 -0.0129021 0.946835)
(0.297651 -0.00491639 0.954662)
(0.421156 -0.00974734 0.906936)
(0.29836 -0.00491153 0.954441)
(0.467359 -0.0202118 0.883837)
(0.312327 -0.0077541 0.949943)
(0.309306 -0.00719397 0.950935)
(-0.0581692 0.00659633 0.998285)
(-0.068046 0.00693862 0.997658)
(-0.0729964 0.0105714 0.997276)
(-0.0561274 0.0064788 0.998403)
(-0.0705374 0.0101759 0.997457)
(-0.00755602 0.000562782 0.999971)
(-0.00759555 0.00052246 0.999971)
(-0.0618122 0.00849526 0.998052)
(-0.0613701 0.00670554 0.998093)
(-0.0510103 0.00615361 0.998679)
(-0.0500017 0.00613852 0.99873)
(-0.0616884 0.00853848 0.998059)
(-0.0902255 -0.0268787 0.995559)
(-0.118482 -0.157248 0.980426)
(-0.121898 -0.0327277 0.992003)
(-0.114388 -0.100187 0.988371)
(-0.112477 -0.0482726 0.992481)
(-0.103777 -0.0146332 0.994493)
(-0.0906038 -0.115625 0.989152)
(-0.086207 0.0136947 0.996183)
(-0.0738616 0.0108419 0.99721)
(-0.0896354 0.00906071 0.995933)
(-0.0806996 0.00750838 0.99671)
(-0.091099 0.00937721 0.995798)
(-0.0858296 0.0131195 0.996223)
(-0.0758887 0.0114062 0.997051)
(-0.101059 0.013573 0.994788)
(-0.101371 0.00744786 0.994821)
(-0.0832729 0.00675619 0.996504)
(-0.0870902 0.0123032 0.996124)
(-0.098904 0.00751272 0.995069)
(-0.084393 0.0119753 0.996361)
(-0.104075 0.013846 0.994473)
(-0.0879982 0.012729 0.996039)
(-0.0733284 0.0107018 0.99725)
(-0.0759107 0.0070996 0.997089)
(-0.0894051 0.00861444 0.995958)
(-0.0898023 0.00834036 0.995925)
(-0.0738367 0.0107221 0.997213)
(-0.0865367 0.0127818 0.996167)
(-0.00824066 0.000577868 0.999966)
(-0.0100018 0.000857271 0.99995)
(-0.165393 -0.0913408 0.981989)
(-0.13257 -0.0134846 0.991082)
(-0.11989 -0.0743189 0.990002)
(-0.142307 -0.0110784 0.989761)
(-0.116112 0.00173445 0.993235)
(-0.063216 0.00852319 0.997963)
(-0.053571 0.00629423 0.998544)
(-0.0682818 0.0069693 0.997642)
(-0.0582028 0.00631323 0.998285)
(-0.0663362 0.00917722 0.997755)
(-0.0595276 -0.00399319 0.998219)
(-0.0716018 -0.00985145 0.997385)
(-0.0723718 -0.00408378 0.997369)
(-0.0730898 -0.010078 0.997274)
(-0.0610425 -0.00414851 0.998127)
(-0.0165403 -0.00166642 0.999862)
(-0.0161421 -0.00163558 0.999868)
(-0.0823222 -0.0114392 0.99654)
(-0.0807388 -0.00492833 0.996723)
(-0.0698667 -0.00505543 0.997544)
(-0.0807944 -0.0112174 0.996668)
(-0.0684571 -0.00491443 0.997642)
(-0.123655 -0.0141001 0.992225)
(-0.131952 -0.00429511 0.991247)
(-0.109047 -0.0136499 0.993943)
(-0.111869 -0.00422239 0.993714)
(-0.125639 -0.0143412 0.991972)
(-0.107286 -0.0134192 0.994138)
(-0.129823 -0.0041997 0.991528)
(-0.114011 -0.0129032 0.993396)
(-0.0969841 -0.0120515 0.995213)
(-0.117265 -0.00352003 0.993094)
(-0.102607 -0.00368888 0.994715)
(-0.112122 -0.0126546 0.993614)
(-0.0986842 -0.0122812 0.995043)
(-0.11935 -0.00364965 0.992846)
(-0.0993298 -0.0108631 0.994995)
(-0.100465 -0.00208783 0.994938)
(-0.0836005 -0.0101751 0.996447)
(-0.0873494 -0.00244779 0.996175)
(-0.0976771 -0.0105963 0.995162)
(-0.0851806 -0.0104063 0.996311)
(-0.102513 -0.00231472 0.994729)
(-0.108371 -0.0121587 0.994036)
(-0.0952841 -0.0118211 0.99538)
(-0.0969866 -0.00329396 0.99528)
(-0.115171 -0.00338236 0.99334)
(-0.0935837 -0.0115882 0.995544)
(-0.110241 -0.012411 0.993827)
(-0.113071 -0.00323467 0.993582)
(-0.0169206 -0.00169623 0.999855)
(-0.0172867 -0.00172549 0.999849)
(-0.0807577 -0.00605999 0.996715)
(-0.0945162 -0.0131901 0.995436)
(-0.0933935 -0.00599618 0.995611)
(-0.0929646 -0.0129619 0.995585)
(-0.0793914 -0.00594196 0.996826)
(-0.0838422 -0.0116582 0.996411)
(-0.0712547 -0.00519241 0.997445)
(-0.0855392 -0.00536212 0.99632)
(-0.0853555 -0.0118779 0.99628)
(-0.0726258 -0.00532499 0.997345)
(-0.0602419 0.00671937 0.998161)
(-0.0754726 0.0109629 0.997088)
(-0.0746336 0.0072668 0.997185)
(-0.0623017 0.00684526 0.998034)
(-0.0779255 0.0113445 0.996895)
(-0.0163017 0.00135026 0.999866)
(-0.0158436 0.00130356 0.999874)
(-0.0913692 0.0133707 0.995727)
(-0.085059 0.00787679 0.996345)
(-0.073532 0.00761069 0.997264)
(-0.071809 0.00748327 0.99739)
(-0.0892909 0.0130627 0.99592)
(-0.144263 0.0181758 0.989372)
(-0.139786 0.00826657 0.990147)
(-0.118025 0.00768513 0.992981)
(-0.124907 0.0171118 0.992021)
(-0.137472 0.00815636 0.990472)
(-0.122752 0.0168264 0.992295)
(-0.146741 0.0184786 0.989002)
(-0.13185 0.0167267 0.991129)
(-0.109669 0.0151234 0.993853)
(-0.123626 0.00762363 0.9923)
(-0.107855 0.0072149 0.99414)
(-0.125957 0.00769691 0.992006)
(-0.129311 0.0164369 0.991468)
(-0.111907 0.0154121 0.993599)
(-0.110069 0.0144107 0.993819)
(-0.103899 0.00740529 0.99456)
(-0.0898004 0.0126336 0.99588)
(-0.0902064 0.00676518 0.9959)
(-0.10709 0.014122 0.994149)
(-0.106446 0.00738436 0.994291)
(-0.0924863 0.0129639 0.99563)
(-0.124102 0.0158592 0.992143)
(-0.107389 0.0148318 0.994106)
(-0.101528 0.00699324 0.994808)
(-0.121268 0.00755865 0.992591)
(-0.118883 0.00750138 0.99288)
(-0.105059 0.0145344 0.99436)
(-0.126728 0.0161517 0.991806)
(-0.0167368 0.00139483 0.999859)
(-0.0171523 0.00143688 0.999852)
(-0.0861354 0.00865795 0.996246)
(-0.099616 0.0089226 0.994986)
(-0.10675 0.0156135 0.994163)
(-0.0846091 0.00852024 0.996378)
(-0.104876 0.0153414 0.994367)
(-0.093394 0.0136701 0.995535)
(-0.0752055 0.00773821 0.997138)
(-0.0907135 0.00825729 0.995843)
(-0.0768366 0.00786616 0.997013)
(-0.0953742 0.0139601 0.995344)
(-0.0227932 0.0019502 0.999738)
(-0.0231997 0.00198419 0.999729)
(-0.124566 0.0181994 0.992044)
(-0.100594 0.0100912 0.994876)
(-0.120228 0.0107466 0.992688)
(-0.102346 0.0102767 0.994696)
(-0.126726 0.018515 0.991765)
(-0.151756 0.0190908 0.988234)
(-0.142122 0.00838299 0.989814)
(-0.124175 0.00802892 0.992228)
(-0.127074 0.0174004 0.991741)
(-0.144479 0.00850645 0.989471)
(-0.149239 0.0187798 0.988623)
(-0.129259 0.0176929 0.991453)
(-0.164873 0.0207306 0.986097)
(-0.143027 0.0195618 0.989525)
(-0.134963 0.00871745 0.990812)
(-0.159372 0.00937998 0.987174)
(-0.156784 0.00921726 0.98759)
(-0.140633 0.0192334 0.989875)
(-0.167631 0.0210864 0.985624)
(-0.0223947 0.00191703 0.999747)
(-0.0220039 0.00188395 0.999756)
(-0.0876661 0.0087992 0.996111)
(-0.104938 0.0093597 0.994435)
(-0.108632 0.0158861 0.993955)
(-0.0892062 0.00894418 0.995973)
(-0.110528 0.0161602 0.993742)
(-0.122452 0.0178919 0.992313)
(-0.0988791 0.0099113 0.99505)
(-0.114233 0.010183 0.993402)
(-0.0971975 0.00973657 0.995217)
(-0.120378 0.017589 0.992572)
(-0.173319 0.0218176 0.984624)
(-0.14547 0.0198983 0.989162)
(-0.141922 0.00920665 0.989835)
(-0.162014 0.00954991 0.986742)
(-0.164709 0.00972808 0.986294)
(-0.147965 0.0202435 0.988785)
(-0.170448 0.021445 0.985133)
(0.999285 0.00714386 0.0371184)
(0.999576 0.00178465 0.0290694)
(0.995389 0.000536845 -0.0959149)
(0.999209 0.00837053 0.0388847)
(0.999335 0.00452808 0.0361838)
(0.995434 0.00468677 -0.0953402)
(0.999539 0.00550179 0.0298556)
(0.999263 -8.09755e-05 0.0383941)
(0.995476 -0.00583482 -0.0948309)
(0.999204 0.00156728 0.0398515)
(0.999513 0.00016943 0.031204)
(0.995502 -0.00264536 -0.0947027)
(0.999233 -0.000775695 0.0391563)
(0.999526 0.00297064 0.0306527)
(-0.286479 0.928491 0.236293)
(-0.250801 0.862708 0.439129)
(-0.372442 0.899077 0.230103)
(-0.285905 0.830467 0.478104)
(-0.293586 0.931915 0.212936)
(-0.345854 0.905203 0.246969)
(-0.2329 0.846349 0.47901)
(-0.240404 0.936901 0.253817)
(-0.288949 0.918315 0.270567)
(-0.256469 0.821422 0.509402)
(-0.183829 0.827417 0.530649)
(-0.318843 0.909896 0.265385)
(-0.239095 0.933124 0.268538)
(-0.195062 0.838046 0.509538)
(-0.171576 0.98516 0.00464433)
(0.00430372 0.999991 -0.000565162)
(0.0961545 0.995365 -0.00137525)
(-0.00309997 0.999988 0.00371272)