/*--------------------------------*- C++ -*----------------------------------*\
| =========                 |                                                 |
| \\      /  F ield         | OpenFOAM: The Open Source CFD Toolbox           |
|  \\    /   O peration     | Version:  2012                                  |
|   \\  /    A nd           | Website:  www.openfoam.com                      |
|    \\/     M anipulation  |                                                 |
\*---------------------------------------------------------------------------*/
FoamFile
{
    version     2.0;
    format      ascii;
    class       volScalarField;
    location    "0.107/solid";
    object      sigmaHyd;
}
// * * * * * * * * * * * * * * * * * * * * * * * * * * * * * * * * * * * * * //

dimensions      [1 -1 -2 0 0 0 0];


internalField   nonuniform List<scalar> 
3125
(
151.616
89.0343
165.751
152.324
164.599
142.442
128.487
100.135
152.649
-188935
-131355
-96943.6
165.23
166.739
153.552
-176984
-106244
-100480
-126838
-79336.2
-102735
-76052.6
-42.6624
149.697
-43.9772
-21.3255
-799.818
-1475.15
-42.3031
162.831
174.009
163.898
-18.4997
-29.6206
-38.6832
-39.9155
149.778
-41.7297
-43.9019
-37.7501
-39.8284
-369527
-416962
-3.37032
-966.131
-3181.5
-153325
-551715
-380833
-1292.43
-328686
-150103
-372162
-626988
-427152
-1171.51
-235565
-246396
-86417.3
-213545
-277443
-240740
-82937.6
-208913
-38.2218
162.93
172.978
162.27
-40.9111
-31.96
-5.3786
-24.765
-36.8435
-27.6827
-341345
-379754
-119920
-585172
-358351
-313195
-118235
-351065
-634899
-387518
-363821
-325526
-111236
-251139
-284548
-323559
-114918
-289346
-282747
-320146
-336518
-302186
-89249.3
-239281
-271806
-308550
-92571.3
-276425
-261473
-297157
-215789
-234634
-66336.7
-202401
-256353
-220799
-63159.3
-197861
100.06
150.683
98.7939
74.1243
-83.7529
-137.86
167.297
154.836
100.591
102.718
163.721
164.258
160.976
94.492
115.987
151.303
101.229
99.4366
-513819
-535355
-123840
-168679
-270307
-278795
-44222.2
-205974
-136556
-217363
-1.01538e+06
-648837
-301241
-153641
-93421.3
-144983
-387910
-365893
-76025.8
-119170
164.163
168.697
156.977
102.067
105.329
-456819
-472472
-132452
-336801
-257893
-191420
-109999
-201159
-751931
-565465
-506579
-484599
-104036
-156654
-165397
-202425
-122639
-192704
-395292
-417549
-451306
-433710
-82630.8
-144941
-153451
-188298
-99286.5
-179430
-353372
-374220
-263909
-142034
-72788.7
-133588
-346395
-325479
-56933.7
-108585
60.413
-43.6715
59.0317
150.35
98.2713
98.5578
-43.7372
58.7315
58.8411
48.1137
-116.037
-146.51
-417.633
-2103
-237.639
-165.803
-2224.04
-197.43
103.566
60.8709
-40.6549
62.708
-40.0793
63.4635
163.127
172.381
163.829
113.554
116.872
62.1711
-20.7615
77.7322
73.6356
-22.7733
77.8027
-110.038
-39.4882
-110.464
-39.6032
-110.686
-110.881
150.81
98.3563
99.0109
61.5252
-43.1072
59.6489
58.8082
-43.5204
59.2406
-109.213
-38.9625
-110.692
-111.216
-39.4011
-110.495
-471507
-387652
-492287
-565749
-542589
-394288
-523689
-499535
-71.3383
-55.7088
-59.4919
-96.3506
-103.115
-65.9471
-35207.3
-1777.3
-28403.1
-195869
-241431
-279884
-366815
-439291
-15896.7
-308911
1880.08
-276398
-411635
-316515
-927.629
-31192.3
-33477.6
-236389
-345112
-249276
-141891
-237295
-221532
-351128
-271547
-253963
-575054
-615427
-885979
-495155
-17834.9
-610343
-16980.8
-534029
-455743
-573749
-175.152
-26218.4
-764.883
-329688
-308305
-215088
-275816
-301966
-220173
-282309
-176472
-232234
-166428
-89913.7
-133442
-142003
-227539
-153134
-163061
-336877
-358602
-355478
-261617
-335248
-308574
-256373
-328546
-190590
-136766
-79472.1
-130501
-122063
-195139
-149811
-140033
-109.484
-36.5797
-108.432
-35.9244
-107.833
163.365
170.906
158.589
111.825
106.766
62.3183
-38.3813
65.2505
71.8597
-37.1287
66.5934
-78.0901
-13.8861
-92.0843
-17.0095
-100.064
-92.1636
-109.216
-34.2869
-106.719
-32.8709
-101.921
-107.127
-426826
-356180
-442777
-494866
-477592
-361461
-467059
-448216
-133010
-220854
-240660
-401661
-400907
-296149
-254764
-388394
-275427
-221363
-327740
-232377
-113506
-216574
-204624
-332963
-249753
-236309
-502478
-543891
-724087
-434616
-536889
-475457
-420119
-516700
-464689
-347192
-444264
-454865
-477199
-341743
-416919
-437442
-107616
-177292
-168443
-179877
-265418
-190019
-203711
-270191
-193457
-232436
-308677
-221304
-118703
-180392
-189475
-303813
-207200
-217689
-447397
-424999
-362258
-298719
-382690
-410068
-304062
-389524
-421386
-321988
-404399
-408164
-427518
-317089
-380270
-398509
-85936
-164916
-156374
-168056
-253240
-177929
-191139
-257891
-181246
-217867
-294789
-207729
-95913.1
-167851
-176454
-290213
-194460
-204380
-401506
-381116
-329251
-276829
-348606
-374036
-281934
-355019
-290959
-270612
-196010
-246384
-271437
-200913
-252594
-164751
-220741
-154944
-69546.2
-122373
-130711
-216133
-141986
-151671
-297809
-318529
-322783
-241033
-303404
-277781
-235949
-296967
-179923
-126100
-60023.2
-119540
-111357
-184371
-138764
-129254
-580501
-587610
-894780
-763624
-440077
-431592
-549086
-555201
-902261
-752198
-573122
-565512
-448584
-457102
-542635
-535892
-425500
-433777
-417220
-408945
-60.0722
-43.2665
-61.3687
-44.2348
-61.4489
-62.3463
-59.1543
-36.6187
-86.8122
-476.485
-2142.28
-576.561
-59.812
-42.0434
-60.2347
-50.4227
-17.4255
-45.3098
-48.7965
-27.8841
-47.8206
-77.3905
-38.5525
-76.6005
-39.4906
-78.4238
-77.4422
-59.216
-42.5408
-60.7005
-61.3763
-44.1653
-62.2668
-76.4572
-37.8189
-75.9369
-78.3761
-39.4325
-77.3896
-407050
-375364
-374615
-380822
-413408
-623937
-618420
-426274
-409040
-458087
-417314
-449595
-35.9251
-9.56753
-35.1567
-345.796
-563.996
-234.536
-607259
-496546
-461262
-551714
-622264
-437961
-441945
-383888
-404952
-346198
-389712
-371259
-415346
-356497
-1056.17
-6166.34
-8624.59
-320832
-298148
-333955
-345544
-351387
-303051
-315320
-354002
-395147
-364566
-339136
-386258
-363120
-331559
-629523
-636277
-702614
-521082
-625891
-750068
-655932
-610554
-436869
-468888
-435388
-446875
-478255
-854.193
-4378.98
-2594.99
-372884
-364625
-239587
-260028
-230413
-234467
-254386
-231965
-223170
-259262
-241664
-254423
-236347
-218888
-210245
-225685
-218193
-193444
-230437
-205941
-197650
-381184
-389510
-305897
-281184
-272154
-275929
-300101
-244730
-265693
-245932
-249886
-271379
-197373
-220946
-204302
-189253
-216227
-201650
-185080
-76.8922
-37.3092
-75.5078
-58.5362
-40.6243
-58.7613
-50.3607
-34.0897
-52.9124
-40.8115
-6.91191
-44.1622
-22.3577
-64.2243
-61.3164
-75.6071
-35.9978
-74.2893
-29.1991
-67.0955
-68.0506
-364836
-346199
-322301
-369728
-326660
-585508
-580794
-355976
-373133
-403216
-396503
-350101
-349946
-520995
-483070
-488303
-431002
-393218
-441300
-305193
-335895
-325368
-366562
-333064
-299758
-342893
-270427
-283765
-317914
-298321
-288153
-302485
-266653
-290347
-330207
-344502
-318984
-312839
-324794
-294962
-590454
-596882
-647584
-512485
-484498
-529070
-419626
-362341
-411213
-396095
-420468
-370481
-400813
-368600
-358214
-362733
-394668
-516671
-525061
-329261
-330917
-358711
-334714
-364645
-245150
-227463
-264116
-255891
-240742
-268983
-231763
-267429
-298508
-257730
-279756
-271947
-293542
-253384
-304946
-293401
-339912
-318531
-310046
-334442
-288762
-281077
-303500
-294154
-262090
-308522
-276494
-266461
-508224
-499741
-311712
-286459
-288059
-291745
-317538
-323837
-352791
-314777
-318441
-346885
-359925
-317925
-331695
-354977
-313513
-490910
-498798
-285862
-307187
-324004
-329316
-290606
-207167
-216359
-243932
-227812
-220569
-232379
-203060
-227593
-259567
-245838
-267176
-241635
-231630
-255082
-259082
-279462
-294155
-303946
-262875
-275211
-289969
-239635
-264024
-281033
-250038
-254231
-268448
-235647
-482916
-474845
-280307
-266595
-246819
-285831
-251756
-281075
-318644
-292103
-313242
-276250
-351565
-343492
-202708
-230937
-210806
-225547
-197899
-194855
-212154
-229994
-223245
-207955
-198954
-218683
-174491
-191536
-206961
-182995
-187119
-196020
-170462
-359675
-367821
-274781
-251238
-241879
-269258
-236942
-207543
-236353
-225830
-241793
-212402
-162469
-187073
-193342
-178889
-174802
-182634
-166454
126.526
128.132
100.247
99.5038
127.24
99.5601
127.646
126.254
98.8666
99.0578
127.049
99.0386
126.058
127.278
-61.224
87.8942
11.0929
34.5609
8.31475
-62.0018
50.695
-208.981
-374.118
-16.2012
-126.068
-159.386
-386.812
-25.9798
143.652
143.549
146.398
144.061
128.357
128.73
100.678
101.133
127.678
101.161
129.381
129.214
102.828
131.168
101.877
130.274
101.88
130.273
143.461
141.671
141.68
141.415
84.4812
40.3887
110.398
121.782
94.2772
116.566
53.1315
106.837
66.7504
78.6845
129.893
116.195
102.871
142.845
113.11
126.161
94.6106
139.184
-143.042
18.8886
-38.7878
-627.168
127.462
129.379
101.307
100.482
128.328
100.308
128.703
127.131
99.2836
127.763
99.8645
126.635
99.9074
128.163
-546646
-521017
-554091
-600901
-594420
-528190
-568665
-561429
-538289
-371215
-304534
-241570
-254361
-17397
-48856.5
-56057
-63397.3
-375430
-85252.9
-159885
-130519
-131924
-157000
-163820
-136874
-136536
-167032
-678340
-734734
-901556
-824950
-748391
-670371
-668246
-718897
-340074
-331978
-320949
-294212
-313476
-116641
-99041.8
-118615
-97450.1
-114673
-94242.1
-95822.2
-112708
-414680
-423124
-413123
-380549
-405294
-389706
-373211
-397489
-93157
-79752.7
-78194.7
-95092.4
144.144
141.712
142.086
141.737
144.128
144.418
147.203
144.493
129.827
130.214
101.991
102.896
129.041
102.791
131.142
130.946
105.113
133.819
104.015
132.455
103.603
132.406
-1.10913e+06
-253142
-195506
-94156.6
-94690.2
-98222.9
-98907.3
-61453.9
-35632
-22133
-24224.4
-31287.1
-32218.8
-32919.7
-32116.2
-73604.2
-74521.7
-76653
-75739.3
-91434.3
-90499.7
-87481.7
-88481
-20571
-21618.9
-23115
-22046.6
-31260.8
-30228.1
-29037.3
-30106.6
-484210
-462160
-489633
-566380
-560972
-467364
-499842
-494834
-107841
-125991
-94229.8
-160263
-97403.5
-71185.3
-70528.8
-94837.7
-93731.3
-72860.7
-73854.9
-92328.7
-94740.8
-75920.9
-74970.7
-96038
-633498
-670776
-817964
-625313
-675475
-583270
-610701
-629387
-539097
-499295
-531457
-549724
-557699
-491966
-515948
-523734
-122583
-100670
-120588
-102276
-124573
-105536
-103912
-126588
-151173
-127383
-153816
-125612
-148476
-121379
-123192
-146045
-474168
-465634
-420978
-402694
-428853
-444663
-410114
-436750
-478545
-445615
-472648
-521636
-528879
-439746
-460197
-466525
-69526.3
-52587
-53634.5
-67895.6
-71154.5
-56283.9
-55231
-72787.5
-89647.2
-71607.5
-70554.4
-91140
-88355.5
-68142.5
-69201.2
-86814.1
-450297
-442046
-375063
-360339
-382467
-397214
-367291
-389853
-72406.2
-71484.4
-69364.7
-70296.8
-57396
-59595.3
-58586.8
-20123.7
-19098.5
-17638.8
-18639.8
-11683.5
-10837.5
-319527
-311629
-279997
-257247
-272919
-64636.1
-50991.7
-66260.8
-49951.7
-63006.9
-47335.5
-48365.7
-61394.3
-392432
-400679
-367650
-339417
-360234
-345420
-332443
-352821
-45813.9
-35788.4
-34846.5
-47305.6
-2.65921
-21.8892
88.4299
59.7025
87.6048
-0.736715
-23.1124
-43.8532
-61.556
-62.154
-4.11816
87.0356
59.1828
-23.5039
86.9909
-2.47348
-23.8301
125.184
126.276
98.3792
98.2201
98.2267
125.257
126.288
125.451
98.6087
126.774
98.323
125.785
98.3568
126.491
-44.3187
-61.5831
-62.5251
-3.9944
-23.3816
86.6256
58.5131
86.2931
-2.38227
-24.1594
-4.27462
86.784
-23.5865
58.5374
-2.615
86.3987
-24.2806
-89.3778
-26.5787
30.1384
11.2315
-35.7335
-38.6062
-60.0805
-54.3752
-210.64
-111.629
-143.247
-311.62
-22.8906
-203.873
-103.224
-302.193
-84.3526
-2009.94
-1863.71
-3802.62
-714.617
-1445.21
-3556.52
-976.044
-1238.22
-566.646
-313.873
-632.207
-749.043
-1251.92
-592.499
-400.992
-255.72
-629.431
-998.423
-2413.66
-3720.47
-541.68
-1072.08
-3069.46
-490.013
-957.193
-423.834
-229.165
-630.576
-410.682
-1132.18
-682.998
-1.66732
-21.5762
88.8396
61.2034
89.1189
-0.561711
-21.8776
-41.5862
-58.5303
-59.8888
-1.26516
90.9019
61.8333
-20.2694
89.8434
0.918894
-21.4461
-58.041
91.6024
-19.6994
1.3281
141.456
140.091
141.81
140.36
145.16
147.258
141.275
135.794
137.741
141.889
110.648
115.079
111.245
137.535
143.367
136.174
108.604
144.626
116.347
133.704
110.221
144.394
-2.3063
-16.4506
60.0596
72.2113
80.9325
-15.8644
-9.01927
-19.7617
-43.7108
-44.7972
3.67055
97.5549
75.8332
-5.85236
91.4963
8.84539
-7.40185
9.60653
-10.215
100.26
75.1888
101.294
9.57881
-9.14759
-25.0181
-44.0237
-45.9158
10.392
101.106
76.7727
-5.94202
101.398
11.8677
-7.4615
2370.15
-6330.86
-2047.95
219.153
-109.665
-107.952
-107.946
-39.0416
-78.2936
-77.2283
-108.699
-110.402
-108.591
-39.5996
-78.4331
-77.7324
-110.467
-108.585
-108.673
-110.616
-109.075
-108.99
125.424
126.371
98.4662
98.3961
125.394
98.4215
126.53
125.758
99.127
127.322
98.6266
126.386
98.4763
126.881
-2.26978
-20.971
89.6053
60.6303
88.4197
0.20575
-22.3577
-43.2742
-60.9988
-61.4656
-2.96441
87.5111
59.9741
-22.9256
88.0022
-2.09481
-23.0893
-3.77232
-23.3131
86.714
58.6536
-2.29527
86.52
-24.0603
-44.1267
-61.3596
-62.4289
-4.42758
87.3581
58.7745
-23.2994
86.4935
-2.16773
-24.1567
-108.549
-107.852
-107.349
-38.6038
-77.8391
-76.8549
-108.428
-110.055
-108.141
-110.585
-108.468
-108.521
-39.3065
-78.2488
-77.4279
-109.043
-110.309
-108.77
-442695
-478354
-449356
-381394
-394049
-426703
-387278
-419951
-485272
-463099
-456151
-607044
-612873
-597793
-557636
-590216
-575827
-549933
-582975
-401248
-401233
-433838
-408895
-441279
-494815
-515145
-486220
-470366
-507016
-477900
-65.3054
-62.3926
-58.8801
-19.8633
-55.2659
-38.617
-61.0593
-60.8121
-57.6936
-237.418
-79.6683
-150.121
-236.964
-78.0411
-125.14
-69.7285
-66.2497
-88.6845
-9510.88
-2325.31
-3155.2
-7041.72
-4579.9
-11445.4
-5601.79
-12173.9
-41836
-20069.3
-5493.06
-11066.5
-5265.24
-9172.32
-197074
-177663
-198206
-132892
-193608
-177880
-232688
-216493
-508674
-457029
-473062
-392881
-417780
-435028
-408531
-403097
17151.1
-234833
-644690
14108.9
55930.3
55844.8
-366506
-216.226
112799
-390385
-402243
-436780
-381621
-413933
-428713
-363948
-10569.1
-546.751
-1718.66
-8550.71
-1920.39
-12989.3
-9755.68
-3323.85
-40546.8
-491.564
-2200.45
-53521.6
-879.752
-43265.4
769.233
-42417.3
2539.42
-326606
-339403
-363952
-313493
-357491
-332789
-308125
-182605
-143758
-186125
-156544
-175647
-144755
-172526
-141047
-346556
-357587
-370802
-319084
-378243
-339291
-325252
-658403
-644093
-605958
-585359
-615613
-644747
-599679
-627261
-788592
-768960
-853396
-733443
-703893
-483672
-500695
-536463
-487300
-528180
-410267
-25788.6
-238166
-607462
-576625
-577871
-5707.59
-25460.8
-36891.7
-505488
-544625
-515607
-452019
-468312
-502187
-462305
-495026
-560930
-542464
-532042
-415.132
-279.901
-964.87
-3799.13
-14755
-3592.97
-935.521
-4408.3
-2256.77
-348218
-356401
-351202
-322530
-343590
-328461
-315402
-336008
-210028
-219218
-237601
-214180
-232058
-269356
-258828
-252785
-283285
-295385
-277131
-225282
-224280
-243171
-229364
-248766
-288833
-264901
-271002
-227593
-236942
-244784
-210356
-223239
-249595
-214615
-106828
-87831.2
-104875
-89398.7
-108792
-92610
-110746
-91036.9
-214563
-222857
-239989
-206106
-218896
-235203
-201871
-406263
-397872
-358849
-344092
-366521
-381952
-351335
-374223
-333315
-348715
-326992
-266879
-265461
-288556
-270687
-294320
-341972
-314402
-320688
-289464
-315208
-295665
-251142
-260254
-282812
-255060
-277085
-321866
-308136
-301890
-180423
-186064
-202171
-172669
-197526
-184635
-168574
-100970
-86186.5
-102916
-84625.1
-99003.9
-81414.5
-97061.6
-82971
-193110
-199709
-206838
-176788
-211523
-188865
-180924
-109.183
-106.918
-106.929
-36.8625
-75.7611
-75.2494
-107.075
-108.201
-106.808
-75.0516
-107.496
141.179
140.449
141.825
140.367
150.189
146.601
147.017
147.779
135.794
140.169
110.23
110.039
137.091
108.675
138.463
134.815
106.035
135.322
108.273
133.526
107.507
136.802
0.0574653
-20.2747
90.2345
62.9414
90.9155
0.634989
-20.2975
-39.7037
-56.4763
-58.1625
0.181859
93.4488
63.9206
-18.0913
91.6942
3.09953
-19.6226
5.83389
-11.7647
99.3574
69.8694
9.00337
97.3547
-14.1797
-36.3774
-55.4955
-54.9891
3.66091
94.4069
67.9998
-17.0199
95.8593
3.5913
-16.1545
-71.7064
-83.4004
-76.4569
-11.213
-53.4276
-49.4249
-86.8766
-87.0787
-81.4902
-19.0159
-56.6893
-58.183
-97.3187
-94.9875
-93.2211
-89.5035
-93.3019
-90.7091
-107.973
-105.798
-105.581
-34.9209
-73.5861
-73.4303
-106.048
-105.888
-105.11
-31.6547
-72.3083
-70.555
-99.7601
-102.47
-100.291
-105.101
-104.219
-102.443
-23123.1
16929.2
165243
-108713
-140232
-82860.1
-83431.5
-193009
-100471
-117156
-105960
-100848
-30966
-25200.9
-15426.8
-25974.3
-31455.1
-32425.6
-32686.8
-32868
-81040.9
-80103.9
-77899.1
-78818.5
-82396.1
-83356.8
-85816.2
-84827.5
-26055.5
-24965.6
-23516.3
-24597.2
-26379.1
-27475.5
-28836.5
-27742.8
-397342
-432171
-402458
-351130
-379671
-335482
-374660
-331037
-437475
-412720
-407572
-571436
-576218
-520387
-488506
-514710
-504728
-482848
-509630
-367025
-384901
-340067
-390404
-344914
-436621
-460111
-429790
-418049
-453881
-423621
-97389.3
-77476.2
-72860.3
-98834.5
-89917.6
-65390
-86938.5
-72894.6
-332432
-446507
-366562
-365016
-402769
-321174
-375865
-310167
-376006
-351964
-359134
-341088
-317569
-349130
-274219
-322742
-297322
-310938
-292647
-306675
-278067
-98027
-77479
-77857.4
-98566.6
-97903.9
-76836.1
-96979.9
-77247.8
-286091
-338527
-302176
-315320
-307387
-319931
-281997
-618519
-604678
-526905
-512228
-535609
-564573
-524783
-546403
-687324
-591345
-559093
-478490
-461486
-396559
-503229
-409675
-575247
-501661
-543469
-444847
-485680
-454632
-406694
-446834
-390563
-431590
-378138
-498791
-483627
-466801
-436111
-457885
-429583
-352677
-351323
-382559
-356983
-388589
-451078
-416619
-423090
-541607
-533380
-484380
-462326
-492314
-508107
-469773
-500226
-336321
-345735
-376564
-340203
-370594
-390836
-423768
-397272
-410162
-430609
-403713
-132712
-112210
-110522
-134813
-130653
-107190
-128604
-108839
-249573
-260650
-278758
-240389
-254010
-273862
-236073
-262936
-274971
-283669
-244714
-258464
-288596
-249044
-299989
-313578
-323855
-279714
-329099
-295145
-284207
-139115
-113954
-115688
-136938
-141350
-119327
-143633
-117543
-285707
-298974
-318688
-275265
-313582
-290390
-270852
-482704
-491229
-476434
-439927
-468483
-452593
-432459
-460534
-339655
-369055
-346009
-293382
-302369
-329238
-297047
-323379
-375866
-358764
-352379
-384406
-403217
-377982
-309416
-307707
-335107
-313064
-340990
-396368
-365159
-371566
-392164
-415841
-386911
-326855
-344905
-304523
-349972
-309046
-410177
-376131
-381567
-514187
-506568
-433228
-414728
-440177
-453682
-421185
-447002
-312155
-339771
-299940
-334573
-295301
-353535
-386434
-359296
-370603
-392518
-364989
-77606.5
-61555.8
-60495.1
-79225.3
-76026.7
-57870.3
-74398.6
-58927.4
-211271
-248587
-228999
-241498
-224784
-215367
-236942
-223533
-262537
-233213
-246042
-237426
-219456
-250571
-255260
-299364
-266796
-281486
-270994
-285747
-251406
-82364.6
-63091.3
-64155.1
-80762.4
-83839.1
-66711.2
-85417.3
-65646.3
-243593
-285628
-262607
-277181
-258420
-272835
-247516
-458522
-466708
-426172
-394771
-419030
-404537
-387970
-411813
-305939
-335714
-311965
-271715
-296852
-261606
-291348
-256687
-342169
-323985
-317983
-347713
-367744
-341838
-287028
-302340
-266510
-307806
-271393
-361402
-329967
-335920
-65100.8
-66060
-68183.2
-67239.1
-63923.9
-62949.9
-60778.6
-61769.5
-14795.6
-15741.2
-17178.7
-16200.2
-14341.2
-13429.3
-12108.4
-12986.6
-327473
-335460
-308735
-284140
-301491
-287120
-277357
-294286
-191138
-209554
-183638
-204288
-178947
-240213
-228706
-222956
-252051
-265123
-246166
-205846
-214853
-188361
-220184
-193116
-258842
-234492
-240313
-190759
-225362
-199584
-209579
-203764
-186672
-214126
-56577.9
-42195.8
-43198.7
-55002.4
-58177.8
-45764.7
-59775.4
-44746.8
-178536
-211539
-195416
-205044
-191261
-182596
-200523
-384202
-375997
-316014
-304690
-323328
-338034
-311597
-330668
-299909
-316316
-293881
-246131
-258231
-227088
-263739
-232010
-309855
-281845
-287858
-257963
-284153
-263901
-230881
-252734
-222176
-247254
-217280
-290550
-275846
-269863
-146773
-175502
-162666
-169474
-158667
-165145
-150655
-51875.7
-40675.3
-39690.6
-53427.8
-50335.3
-37238.7
-48812.9
-38202.7
-158506
-188845
-166688
-173832
-170734
-178220
-154567
164.439
142.679
151.168
140.391
165.254
139.772
142.194
-21.6322
91.3042
64.5449
-56.4081
22.7024
-13.9876
65.3021
166.528
152.85
143.309
141.1
165.68
141.438
143.964
124.231
142.452
128.05
78.2554
101.246
77.1388
139.68
165.713
152.05
141.339
143.877
140.559
166.449
143.218
167.917
154.292
142.098
144.697
167.158
142.581
145.612
163.092
149.67
138.473
140.772
138.231
163.124
140.781
-2742.87
-1337.61
965.341
-1086
-4416.15
-2136.09
-1240.98
176.084
164.274
148.305
156.016
148.049
176.008
157.276
163.426
149.889
138.541
140.866
163.362
138.479
141.034
-5650.39
-366.41
-14940.1
-2990.08
-7372.76
11097.8
-3034.7
174.249
161.209
148.776
154.396
175.425
147.876
152.82
164.47
150.749
139.695
141.704
139.447
164.389
141.858
-238.632
-52.0287
-165.657
-83.5979
-410.394
-295.244
-39.8455
167.598
153.949
143.878
145.901
142.753
168.945
144.95
152.659
155.263
127.284
155.459
123.676
162.487
151.605
165.482
151.521
140.322
142.407
140.207
165.248
142.731
-224922
-188142
110741
-79905.7
-43262.2
-149036
-144519
-375850
-289381
-261790
-275938
-259108
-243262
-443159
-196225
-176255
-209525
-223130
-178845
-192617
-227244
-200338
-236494
-213359
-185738
-182694
-231715
-204538
-142005
-130890
-167549
-150804
-144512
-129049
-164588
-139390
-158598
-147807
-124104
-125942
-161544
-136898
-111682
-131939
-116445
-101656
-99844.1
-129067
-114127
169.403
155.705
145.489
148.406
143.945
171.096
146.94
-188378
-286132
-289711
-298263
-249800
-225508
-253560
-171435
-198434
-223267
-278560
-234370
-162336
-209294
-145025
-160744
-194531
-173051
-163395
-142831
-175628
-147050
-180842
-197804
-168915
-166215
-178240
-149194
-149663
-134018
-170611
-159505
-147140
-135867
-173589
-152312
-179672
-140873
-162533
-139014
-154858
-176671
-185801
-172678
-219140
-199158
-189042
-170336
-215456
-182576
-208376
-195802
-164767
-166920
-211795
-179594
-109359
-121420
-147734
-129968
-123889
-106985
-132655
-111587
-138152
-128719
-150651
-126222
-113962
-135466
-138543
-158185
-170414
-185339
-140792
-155536
-167843
-136479
-162580
-182308
-150505
-153123
-165169
-134189
-102393
-119077
-139252
-127162
-116633
-104752
-124482
-100164
-119021
-136357
-111871
-114285
-121688
-97816.1
-75652
-95046.7
-105942
-90872.1
-88618.1
-92534.7
-77840.8
163.551
149.975
139.385
141.406
164.124
138.698
141.05
-895.146
-302.796
-1414.24
-379.577
-915.623
-192.579
-413.418
174.248
165.053
142.838
158.068
171.734
143.995
158.046
164.086
150.29
139.818
141.957
164.855
138.986
141.438
-11857.1
-473.444
75767.7
-14222.1
-23394.4
-56252
-3574.49
-244216
-207849
-265275
-252681
-281784
-232631
-213551
-238373
-323563
-246061
-256777
-287741
-279167
-224883
-532478
-312772
-319155
-347631
-537566
-353896
-341738
-350689
-311013
-301752
-288010
-317962
-335124
-322819
-349917
-361032
-290047
-351230
-312865
-390177
-326404
-288760
-267132
-240457
-253967
-258659
-271632
-283668
-294101
-269020
-244725
-281275
-263605
-299890
-276299
-220034
-203349
-261306
-230872
-227249
-253029
-198065
-214411
-241555
-189854
-226368
-209439
-247554
-193263
-319612
-305311
-296609
-264409
-328830
-287388
-297874
-312897
-274637
-286411
-259349
-305923
-281282
-292234
-208712
-199714
-190316
-173135
-186859
-212621
-195895
-204811
-179961
-169749
-188277
-183400
-200926
-192076
-129221
-114296
-146698
-136233
-149618
-126746
-116128
-131812
-155567
-121020
-139195
-134295
-152635
-119186
-189327
-173176
-166277
-156413
-169679
-185484
-176927
-193183
-176521
-184479
-159759
-197049
-173101
-180701
-162682
-149381
-133567
-154615
-146041
-166448
-150960
-121704
-111267
-143697
-127730
-124171
-140793
-109442
-119135
-134915
-104622
-124812
-116684
-137802
-106443
-177832
-169428
-162873
-146556
-181652
-159491
-165706
-174022
-152744
-158298
-143260
-170229
-156105
-161989
173.393
159.534
146.725
149.913
172.377
147.162
151.255
-159660
-185911
-226518
-193098
-187855
-195546
-158306
-159365
-199524
-204696
-233840
-160340
-196638
-196647
-309441
-457581
-341006
-346064
-264731
-383359
-396833
-290389
-236604
-319366
-334977
-247279
-364090
-278870
-268051
-290867
-260839
-227762
-297975
-230535
-263954
-272033
-236589
-268201
-314546
-305678
-232973
-277347
-238285
-253005
-224910
-203607
-206557
-257011
-234889
-241698
-212495
-228576
-265411
-209522
-261125
-245151
-155076
-181185
-212198
-191173
-178332
-156849
-188585
-153188
-183405
-172061
-208409
-151216
-174525
-186089
-256024
-285181
-244829
-224653
-279570
-259911
-221569
-252293
-215495
-269852
-240528
-274643
-248667
-218531
-162821
-151008
-192035
-174390
-188959
-165452
-149100
-160110
-182781
-144038
-171322
-157531
-185812
-145916
-220474
-203551
-193796
-183230
-197276
-216541
-207387
-224421
-204285
-186650
-215092
-200779
-228380
-211241
-240369
-230602
-218527
-200301
-214937
-244410
-226716
-236351
-207820
-196843
-218961
-211361
-232357
-222828
-274170
-262790
-249522
-228656
-245279
-278829
-258570
-269660
-237218
-224911
-250371
-241178
-265271
-254431
-170922
-154217
-195242
-183329
-168217
-198386
-156174
-173779
-204936
-161457
-186478
-176596
-201685
-159422
-252595
-234514
-222165
-210646
-248484
-225831
-238431
-256757
-233342
-246351
-214183
-260975
-229562
-242383
-120751
-138410
-162107
-149094
-135863
-146431
-123114
-118555
-140959
-131036
-159179
-116179
-133559
-143637
-181844
-192467
-171332
-153945
-157121
-196219
-178205
-185486
-163499
-174646
-203741
-160325
-199982
-189122
-199981
-218791
-187852
-176162
-215033
-173027
-203572
-196372
-166693
-184532
-207507
-211267
-169851
-192754
-228085
-249083
-200630
-214461
-197659
-231491
-245226
-224657
-191634
-211063
-237615
-194645
-241403
-221208
-127633
-140705
-170668
-151867
-143275
-125285
-154509
-129768
-159869
-148172
-173618
-132090
-145578
-157254
-210697
-222553
-197750
-179308
-226310
-207148
-182408
-214228
-188573
-233836
-201078
-230074
-217729
-185515
-170927
-188713
-161485
-150743
-147570
-184972
-174562
-167297
-141222
-158194
-177509
-144379
-181233
-163678
-91076.7
-102438
-125102
-108228
-104789
-110849
-88777.5
-93276.4
-116246
-109521
-127960
-95598.9
-107137
-113599
-152885
-162723
-145190
-128656
-166396
-131763
-149322
-156469
-138048
-173791
-148441
-170090
-160066
-134911
-128363
-113327
-122995
-144604
-110338
-141045
-131796
-84336.6
-100102
-116836
-105510
-97780.1
-86600.1
-102921
-82188.8
-97686.3
-93172.3
-114032
-79955.3
-95459.9
-100240
-142245
-159060
-135588
-125541
-155421
-145772
-122467
-138739
-116359
-148191
-132396
-151794
-135257
-119390
)
;

boundaryField
{
    left
    {
        type            zeroGradient;
    }
    bottom
    {
        type            zeroGradient;
    }
    interface
    {
        type            zeroGradient;
    }
    procBoundary3to0
    {
        type            processor;
        value           nonuniform List<scalar> 
43
(
220.342
199.409
200.742
219.131
199.159
198.702
217.283
196.622
197.38
217.419
197.118
197.215
221.969
202.134
201.179
218.267
197.421
198.533
218.767
198.35
217.628
197.297
197.315
217.948
197.144
197.988
199.409
200.742
202.134
201.179
199.159
198.702
197.421
198.533
198.35
196.622
197.38
197.297
197.315
197.118
197.215
197.144
197.988
)
;
    }
    procBoundary3to1
    {
        type            processor;
        value           nonuniform List<scalar> 
23
(
169.075
155.895
103.573
132.086
104.389
-39.828
64.164
-35.1084
-105.618
146.358
103.573
132.086
131.034
103.573
-58.1729
0.569495
92.3184
-19.5381
-73.7058
-105.38
144.931
146.855
169.673
)
;
    }
    procBoundary3to2
    {
        type            processor;
        value           nonuniform List<scalar> 
328
(
201.289
6.77705
297.787
159.467
15.8413
553.658
-350.376
-124448
-63523.4
-47358.4
219.794
198.948
199.788
221.367
200.929
200.683
-63523.4
-63523.4
-60831.5
-60831.5
-60831.5
-42544.4
-42544.4
-42544.4
-48972.3
-48972.3
-48972.3
-61284.9
-61284.9
-61284.9
-31066.2
-31066.2
-31066.2
-41066
-41066
-41066
-47358.4
-47358.4
-36088.4
-29661.3
-29661.3
-29661.3
169.983
229.55
209.143
199.137
169.983
169.983
169.983
169.983
169.983
4885.98
-74665.2
-73651
-42527.4
-40917.2
228.023
203.137
207.205
4885.98
4885.98
4885.98
4885.98
4885.98
-74665.2
-74665.2
-73651
-73651
-47039.4
-47039.4
-47039.4
-47803.5
-47803.5
-47803.5
-53885.1
-53885.1
-53885.1
-55584.9
-55584.9
-55584.9
-35299.7
-35299.7
-35299.7
-36715.7
-36715.7
-36715.7
-42527.4
-42527.4
-40917.2
-40917.2
-25504.6
-25504.6
-25504.6
-24150.3
-24150.3
-24150.3
15.8413
221.505
230.826
136.549
15.8413
15.8413
15.8413
15.8413
15.8413
156337
-100269
-66235.2
-45747.9
-37697.1
198.271
223.454
201.717
203.262
156337
156337
156337
156337
156337
-100269
-100269
-66235.2
-66235.2
-56902
-56902
-56902
-44180.3
-44180.3
-44180.3
-50593.3
-50593.3
-50593.3
-59229.3
-59229.3
-59229.3
-32475.3
-32475.3
-32475.3
-39581.6
-39581.6
-39581.6
-45747.9
-45747.9
-37697.1
-37697.1
-28263.9
-28263.9
-28263.9
-21509.5
-21509.5
-21509.5
34.5202
228.601
182.988
214.333
34.5202
34.5202
34.5202
34.5202
34.5202
45122.1
-123189
-68786.3
-44137.7
-39307.5
225.798
204.795
203.511
45122.1
45122.1
45122.1
45122.1
45122.1
-123189
-123189
-68786.3
-68786.3
-59352.7
-59352.7
-59352.7
-45395.9
-45395.9
-45395.9
-52227.2
-52227.2
-52227.2
-57355.8
-57355.8
-57355.8
-33886.7
-33886.7
-33886.7
-38142.4
-38142.4
-38142.4
-44137.7
-44137.7
-39307.5
-39307.5
-26877
-26877
-26877
-22817.2
-22817.2
-22817.2
6.77705
297.787
230.826
136.549
553.658
-350.376
-1343.25
1439.25
198.948
199.788
198.271
200.929
200.683
201.717
203.262
-114905
-64470.4
-231557
-70120.7
-69818.4
-73335.7
-72725
-9405.43
-10474.7
-1687.6
4066.63
-10870
-10658.7
-10908.3
-11064.3
-56091.1
-55522.4
-56963
-57536.8
-67163.7
-67769.8
-65667.8
-65012.6
-4952.61
-4701.97
-5558.35
-5811.97
-10169.8
-10422.8
-9804.48
-9543.09
-54085.4
-54652.5
-53212.1
-52644.5
-44216.3
-45164.2
-45775.3
-3854.58
-4096.25
-3254.41
-3016.94
715.212
557.399
209.143
199.137
182.988
214.333
-12745.1
14595.5
4595.95
-4229
203.137
207.205
204.795
203.511
47494.9
-41081.6
-138416
190128
-62194.7
-102929
-139482
-102987
-86955.1
-74600.8