/*--------------------------------*- C++ -*----------------------------------*\
| =========                 |                                                 |
| \\      /  F ield         | OpenFOAM: The Open Source CFD Toolbox           |
|  \\    /   O peration     | Version:  2012                                  |
|   \\  /    A nd           | Website:  www.openfoam.com                      |
|    \\/     M anipulation  |                                                 |
\*---------------------------------------------------------------------------*/
FoamFile
{
    version     2.0;
    format      ascii;
    class       volVectorField;
    location    "0.107/solid";
    object      sigmaMidDir;
}
// * * * * * * * * * * * * * * * * * * * * * * * * * * * * * * * * * * * * * //

dimensions      [1 -1 -2 0 0 0 0];


internalField   nonuniform List<vector> 
3125
(
(0.996606 0.0218708 -0.0793613)
(0.97583 0.218527 -0.00147165)
(0.999066 0.0171722 -0.03965)
(0.996548 0.0229688 -0.079774)
(0.999182 0.0103359 -0.0390871)
(0.974583 0.223775 -0.0106022)
(0.967327 0.253373 -0.00893045)
(0.976474 0.215422 0.00958014)
(0.996601 0.000622837 -0.0823829)
(0.985235 -0.108255 0.132636)
(0.137152 0.989472 0.0462022)
(0.069039 0.996743 0.0416761)
(0.998948 0.0216343 -0.0404391)
(0.998485 0.0359123 -0.0416975)
(0.99647 0.0121403 -0.0830693)
(0.893753 -0.445107 -0.0555478)
(-0.0238294 0.999076 -0.0357636)
(0.0774018 0.996068 0.0431016)
(0.126886 0.990855 0.0458963)
(0.0085466 0.999574 -0.0278933)
(-0.0181938 0.999264 -0.0337783)
(0.0121784 0.999556 -0.0271758)
(6.21218e-05 0.999992 -0.00408007)
(0.996843 0.00334457 -0.0793278)
(0.00103145 0.999998 0.00143801)
(0.635328 0.726138 -0.262836)
(0.9982 0.0495647 -0.0337632)
(0.932594 0.355942 -0.0597831)
(0.00619183 0.999976 -0.00300564)
(0.999213 0.00945783 -0.0385131)
(0.977335 0.206891 -0.0448557)
(0.95248 0.292141 -0.0862271)
(0.501102 0.777709 -0.37956)
(-0.132474 0.991072 -0.0150699)
(-0.0175687 0.99982 0.00719554)
(0.00511088 0.999976 -0.00466201)
(0.996834 0.00329019 -0.0794471)
(-0.00913175 0.999932 0.00724784)
(-0.00191954 0.999998 -0.000621224)
(0.0245201 0.999677 -0.00664715)
(-0.001433 0.999992 0.00380316)
(0.982411 0.173647 0.068675)
(0.991961 0.107638 0.0665348)
(0.735566 0.666271 0.12258)
(0.910125 0.412928 -0.034097)
(0.994192 0.0529419 -0.0936964)
(0.954541 0.217737 0.203576)
(0.971252 -0.193326 0.138909)
(0.995186 0.0551019 0.0810427)
(0.927278 0.368264 0.0673581)
(0.826897 -0.558198 0.0682374)
(0.53718 0.834091 0.125415)
(0.996208 0.0362794 0.0790761)
(0.972962 -0.131902 0.189598)
(0.991865 0.106702 0.0694115)
(0.911419 0.40393 0.0784569)
(0.967932 0.226279 0.109111)
(-0.333182 0.942227 -0.0346092)
(0.0455279 0.998277 0.0370052)
(-0.225918 0.973834 -0.024684)
(0.970302 0.222227 0.0955509)
(0.968541 0.22452 0.107324)
(0.0384851 0.998631 0.0354326)
(-0.216524 0.975986 -0.0238533)
(-0.0132138 0.999911 -0.00200995)
(0.999252 0.00323669 -0.0385466)
(0.984314 0.170261 -0.0462298)
(0.966822 0.238773 -0.0907902)
(-0.0121313 0.999915 0.00468557)
(-0.106184 0.994344 0.00213106)
(0.707145 0.662096 0.248144)
(-0.0502627 0.996583 0.0655485)
(0.018991 0.999819 0.00120202)
(-0.0126738 0.999369 0.0331926)
(-0.174359 0.984495 -0.0192214)
(-0.378222 0.925235 -0.0298052)
(-0.111872 0.991107 -0.0720488)
(0.934498 -0.347383 0.0777046)
(0.928662 -0.363249 0.0750814)
(-0.154739 0.987754 -0.0199715)
(-0.0617001 0.996733 -0.0521146)
(-0.539019 0.840963 -0.0473257)
(0.93477 -0.341239 0.0988005)
(-0.66666 0.743808 -0.0480964)
(0.980542 0.183325 0.0702153)
(0.973072 0.215606 0.0815116)
(0.101786 0.993732 0.0462196)
(-0.358353 0.932854 -0.0369745)
(-0.590367 0.805127 -0.0568973)
(0.766597 -0.6389 0.0643038)
(0.10886 0.992963 0.0466354)
(-0.615555 0.785923 -0.0584509)
(0.970472 0.222161 0.0939624)
(0.972564 0.217293 0.0830815)
(-0.175515 0.984278 -0.0198024)
(-0.185097 0.982426 -0.0240546)
(-0.0025085 0.999546 -0.0300185)
(-0.135874 0.99043 -0.0242078)
(-0.152223 0.988072 -0.0232834)
(-0.153865 0.987884 -0.0202644)
(-0.0062057 0.999508 -0.030747)
(-0.153348 0.987905 -0.0229981)
(-0.17162 0.984808 -0.0264626)
(-0.184904 0.982451 -0.0245166)
(-0.13848 0.989997 -0.0270049)
(-0.132752 0.990853 -0.0242283)
(0.0227708 0.999429 -0.024975)
(-0.108738 0.993781 -0.0239685)
(-0.168528 0.985338 -0.0266019)
(-0.142578 0.989415 -0.0270058)
(0.0261479 0.999364 -0.0242456)
(-0.10516 0.994168 -0.0238942)
(-0.00407513 0.999985 0.00374037)
(0.996737 0.0125354 -0.0797425)
(0.00266647 0.999994 0.00197758)
(0.937381 0.348253 0.00597051)
(0.991252 0.130395 0.0204052)
(0.962798 0.270216 0.00160174)
(0.999073 0.0155284 -0.0401501)
(0.996141 0.0344275 -0.0807313)
(0.00445699 0.999982 0.00403487)
(-0.00281827 0.999979 0.00580656)
(0.999162 0.0135668 -0.0386094)
(0.972331 0.231874 -0.0283933)
(0.941782 0.332305 -0.0511916)
(0.925262 0.379212 0.0094265)
(0.863496 0.503783 0.0240111)
(0.996696 -0.00163287 -0.0812083)
(0.0164554 0.999859 -0.00343346)
(0.0030603 0.999992 -0.00241132)
(0.997329 0.066705 0.0297523)
(0.997262 0.0691256 0.0262528)
(0.788354 -0.506054 0.349868)
(0.972125 0.0794652 0.220588)
(0.979992 -0.130306 0.150456)
(0.990776 0.0259961 0.132991)
(0.981432 0.189438 0.0300676)
(-0.0728166 0.997292 -0.0103585)
(0.157971 0.986258 0.0483831)
(-0.0885991 0.995965 -0.0142925)
(0.554341 0.828255 0.0818561)
(0.995894 0.05058 0.0750806)
(0.997386 0.0464528 0.0553514)
(-0.0526037 0.9986 -0.00556095)
(0.0608688 0.997338 0.0401589)
(-0.0519104 0.998636 -0.00565722)
(0.997516 0.0543335 0.0448255)
(0.997541 0.0517969 0.0472096)
(0.0257518 0.999144 0.0323679)
(-0.0491085 0.998775 -0.00603723)
(0.999196 0.00771659 -0.0393374)
(0.996251 0.0748634 -0.0433521)
(0.994057 0.0641991 -0.0879149)
(0.0117608 0.999926 -0.00296753)
(0.0450789 0.998983 -0.000195457)
(0.0714074 0.997447 -0.000740273)
(0.0712399 0.997459 -0.000676425)
(-0.698005 0.710394 -0.0901685)
(0.964496 -0.264063 -0.00437655)
(0.987971 -0.0958414 0.12136)
(-0.0101357 0.999849 -0.0141445)
(-0.03148 0.998755 -0.038706)
(-0.0194102 0.999668 -0.0169465)
(0.958763 -0.184284 0.216363)
(0.989135 -0.127861 0.0725472)
(0.997349 0.0658753 0.030922)
(0.99739 0.0636129 0.0341533)
(0.0858163 0.995322 0.0443851)
(-0.0528776 0.998585 -0.00559175)
(-0.0538196 0.998535 -0.00564704)
(-0.0692209 0.997557 -0.00943476)
(0.120789 0.991596 0.046345)
(-0.0624589 0.998018 -0.00767624)
(0.997506 0.0551395 0.044052)
(0.997472 0.0574973 0.0417575)
(0.0713123 0.997454 -0.000753357)
(0.0707396 0.997495 -0.000789386)
(0.00485755 0.999579 -0.0286133)
(0.00656066 0.999919 -0.0109316)
(0.00412887 0.99993 -0.0110872)
(-0.00802437 0.999876 -0.0135167)
(-0.0138221 0.999376 -0.0324993)
(-0.00368432 0.999917 -0.012341)
(0.0657969 0.997832 -0.00107724)
(0.0673825 0.997727 -0.000974676)
(0.0602202 0.998184 -0.00167332)
(0.00719492 0.999915 -0.0109017)
(0.015771 0.999526 -0.0264462)
(0.00968272 0.999895 -0.0108032)
(0.0652682 0.997867 -0.00111516)
(0.0635848 0.997976 -0.0012471)
(0.0327116 0.999206 -0.0227609)
(0.0172828 0.999794 -0.0106032)
(-0.0101887 0.999943 0.00328668)
(-0.00309696 0.999994 0.00133534)
(0.00293231 0.999994 0.00207918)
(0.996749 0.0132371 -0.0794739)
(0.00484312 0.999988 -0.000216754)
(-0.0011132 0.999998 0.00173113)
(0.00414024 0.999985 -0.00363953)
(0.00650188 0.999979 9.21264e-05)
(-0.00572451 0.999982 0.00152753)
(0.919769 0.39094 0.0345175)
(0.817552 0.569316 -0.0865309)
(0.9458 0.324748 0.000538876)
(0.995132 0.0974837 -0.0144537)
(0.983561 0.179591 -0.0188211)
(0.968967 0.247169 0.00321493)
(0.838361 0.544671 -0.0220231)
(0.97357 0.225327 -0.0372618)
(0.94834 0.317023 0.0121454)
(0.000945365 0.999982 0.00598573)
(0.000896163 0.999991 0.00405315)
(0.00794372 0.999938 -0.00784974)
(-0.0118195 0.999916 0.00534013)
(0.00212679 0.999992 -0.00332003)
(-0.00372531 0.999976 0.0058766)
(0.999247 0.00554245 -0.0383918)
(0.972793 0.228267 -0.0395978)
(0.940719 0.332504 -0.0669977)
(0.365236 0.930355 0.0322908)
(0.809231 0.586695 0.030574)
(0.912178 0.407098 0.0469377)
(-0.137136 0.94715 -0.29)
(0.831951 0.544611 0.106095)
(0.182026 0.981474 0.0597949)
(-0.199475 0.966991 -0.158551)
(0.729828 0.673152 0.119235)
(-0.0154449 0.999871 0.00448499)
(-0.00200537 0.999997 -0.00171895)
(0.0146821 0.999882 -0.00451358)
(-0.0104965 0.999936 0.00410203)
(0.0193373 0.999796 -0.00583998)
(-0.0121856 0.999919 0.00361105)
(0.996712 -0.00606442 -0.0808021)
(-0.00347009 0.999994 -0.000561831)
(0.0054251 0.999983 -0.00225463)
(0.0181456 0.999832 -0.00244538)
(0.000565839 1 0.00044617)
(0.00205591 0.999995 -0.0022871)
(-0.00447566 0.99999 -0.000750827)
(-0.00644224 0.999965 0.00538678)
(0.00984732 0.99995 -0.00184975)
(0.0173253 0.999838 -0.00478688)
(0.0077273 0.99997 0.000623333)
(-0.0126047 0.999912 0.00403242)
(-0.015954 0.999861 0.00490585)
(0.0161651 0.999856 -0.00522266)
(0.01495 0.999879 -0.00431402)
(0.722045 0.691228 0.0292427)
(0.988196 0.138752 0.0649409)
(0.794641 0.606398 0.028757)
(0.997222 0.0701202 0.0251418)
(0.997222 0.0700598 0.0252901)
(0.989655 0.128261 0.0642799)
(0.959506 0.279632 0.0339665)
(0.839205 0.543018 0.0294244)
(-0.412912 0.907063 0.0820998)
(0.808734 0.587671 0.0243323)
(0.810586 -0.585619 0.000423631)
(0.819135 0.57186 0.0446533)
(0.763413 0.632734 0.1298)
(0.84681 -0.50802 0.157573)
(0.954521 -0.281834 0.0972572)
(0.985089 0.172036 -0.00187025)
(0.989919 0.0653562 0.125652)
(0.841754 0.516365 0.157533)
(0.989778 0.000542093 0.142617)
(0.990025 0.0489155 0.132125)
(0.975787 -0.149429 0.159721)
(0.9913 0.0787268 0.105479)
(0.941033 0.327589 -0.0845154)
(0.991228 0.0578365 0.118839)
(0.790082 0.576141 -0.20936)
(0.990993 0.054631 0.122259)
(0.992116 0.0797033 0.0967099)
(0.990477 0.0689176 0.119185)
(0.969071 0.246341 0.0147361)
(0.949263 0.234392 -0.209666)
(0.981097 0.160163 0.108614)
(-0.0777392 0.996935 -0.00880954)
(0.980749 -0.179232 0.0775122)
(-0.0932308 0.995574 -0.0118412)
(0.231434 0.97084 0.0625109)
(0.96718 -0.210068 0.142948)
(-0.0997642 0.994871 -0.0166841)
(0.992976 -0.0892358 0.0776895)
(0.991955 0.0258102 0.12393)
(-0.105756 0.994295 -0.013865)
(0.997197 0.0696952 0.0272165)
(0.997504 0.0478588 0.0519151)
(0.897184 -0.344556 0.2763)
(0.988937 0.104791 0.104987)
(0.973186 0.198913 0.115513)
(0.992172 0.088362 0.0882432)
(0.88246 0.466247 -0.062271)
(0.976621 0.211717 0.0372563)
(0.99126 0.0943557 0.0922025)
(0.992988 0.0986906 0.0650758)
(0.767116 0.634687 0.0932989)
(0.949927 0.276391 -0.145764)
(0.787162 0.600478 0.140719)
(0.9975 0.0483873 0.0515079)
(0.99742 0.0469007 0.0543522)
(0.96238 0.24551 0.116407)
(0.549717 0.834275 0.04238)
(0.596274 0.801663 0.0423477)
(0.964575 0.237623 0.11459)
(0.562499 0.825707 0.0424604)
(-0.0548908 0.998481 -0.0046717)
(-0.275302 0.960915 -0.0291817)
(-0.0543372 0.998511 -0.00473423)
(0.0530077 0.997848 0.0385918)
(-0.0508881 0.998687 -0.00582932)
(-0.051693 0.998647 -0.00566738)
(-0.260617 0.965041 -0.0278212)
(-0.0533275 0.998565 -0.00486745)
(-0.0538911 0.998536 -0.00473457)
(0.997522 0.0488808 0.0506083)
(0.997545 0.0509605 0.0480312)
(0.659349 0.75076 0.0402294)
(0.969791 0.222301 0.100442)
(0.639466 0.767712 0.041262)
(0.60608 0.794283 0.0422072)
(0.969591 0.222405 0.102122)
(0.631905 0.773931 0.0415482)
(-0.185998 0.982321 -0.0212357)
(-0.0514055 0.998665 -0.00502424)
(0.0318752 0.998918 0.0338783)
(-0.0506166 0.998701 -0.00585243)
(-0.0495 0.998756 -0.00602173)
(-0.192819 0.980992 -0.021813)
(-0.0528513 0.99859 -0.00488035)
(-0.0519685 0.998636 -0.00501396)
(0.0192686 0.999796 -0.00604335)
(-0.0270393 0.999606 0.00750759)
(-0.0126393 0.999914 0.00339401)
(-0.0203458 0.999792 0.00148592)
(0.0152145 0.999872 -0.00495201)
(0.999199 0.0100528 -0.0387433)
(0.992011 0.117844 -0.0450254)
(0.990177 0.107904 -0.0889195)
(0.237857 0.971039 0.0225059)
(0.0629153 0.998014 0.00307055)
(0.00851284 0.999961 -0.00228818)
(-0.0319542 0.999432 0.0107445)
(0.0323911 0.999472 0.00245131)
(0.123794 0.991567 0.0383394)
(-0.0316732 0.999488 0.00455907)
(0.0336192 0.999412 0.00674626)
(-0.198382 0.97914 0.04392)
(-0.244929 0.891254 0.381676)
(-0.0361945 0.99929 0.0104782)
(-0.252918 0.933175 0.255377)
(-0.0295843 0.999511 0.0101641)
(0.00707532 0.999974 -0.00121465)
(-0.017766 0.999825 0.00586487)
(0.0305701 0.999527 -0.00327994)
(0.0171895 0.999842 -0.00447616)
(0.0179055 0.999825 0.00539817)
(0.00760007 0.999971 -0.000788978)
(-0.00874309 0.999956 0.00341463)
(0.00143727 0.999992 -0.00373522)
(-0.181918 0.983142 -0.0183649)
(0.00675916 0.999972 -0.0032037)
(0.0665848 0.997781 -0.000501223)
(0.0708186 0.997489 -0.000643989)
(-0.193526 0.980916 -0.0187471)
(-0.0193431 0.999806 -0.00371611)
(0.0070665 0.99997 -0.00308743)
(-0.0712322 0.995148 -0.0678665)
(-0.103336 0.994012 -0.0355265)
(0.992064 -0.0140817 0.124944)
(0.961227 -0.275212 0.0173391)
(0.992753 -0.0649715 0.101092)
(0.992298 -0.0541865 0.111389)
(-0.0619209 0.997814 -0.023069)
(0.994463 -0.0504925 0.0921597)
(0.993592 -0.00355509 0.112968)
(-0.00401394 0.999932 -0.0109074)
(-0.170296 0.985184 -0.0202804)
(-0.0105962 0.999864 -0.0126327)
(-0.0447938 0.998013 -0.0443161)
(-0.0536719 0.998209 -0.0264225)
(-0.0249935 0.999515 -0.0185533)
(-0.186592 0.982206 -0.0213164)
(-0.0301265 0.999387 -0.0178259)
(-0.0139416 0.999811 -0.0135552)
(0.0550464 0.998484 -0.000720984)
(0.99274 -0.109007 0.0508379)
(0.949936 -0.24453 0.194488)
(0.988825 -0.112696 0.0975928)
(0.991294 -0.103611 0.0812518)
(-0.124872 0.992144 -0.00751186)
(0.989001 -0.121962 0.0836808)
(0.992785 -0.102991 0.0614073)
(0.713102 0.700421 0.0299341)
(0.976228 0.203329 0.0750767)
(0.703058 0.710393 0.0324421)
(0.997434 0.060793 0.0378022)
(0.997403 0.0628696 0.0351286)
(0.975222 0.207503 0.0767075)
(0.696521 0.716656 0.0355464)
(0.701582 0.711812 0.0332768)
(0.0940299 0.994531 0.04545)
(-0.0560887 0.998407 -0.00609787)
(-0.0543221 0.998507 -0.00575702)
(-0.055428 0.998452 -0.00470866)
(-0.453224 0.890224 -0.0457037)
(-0.0564163 0.998396 -0.00479814)
(-0.0594289 0.998219 -0.00528016)
(-0.489551 0.870602 -0.0489093)
(-0.0572745 0.998346 -0.00491231)
(-0.0741863 0.997211 -0.00812938)
(-0.677703 0.732883 -0.0600067)
(-0.0670876 0.997725 -0.00668682)
(0.115098 0.992258 0.0466534)
(-0.0570773 0.99835 -0.00634496)
(-0.060549 0.998139 -0.00718831)
(-0.664046 0.745289 -0.0598956)
(-0.060825 0.998133 -0.00550792)
(-0.0648585 0.997875 -0.00628756)
(0.997442 0.0601421 0.0386278)
(0.997464 0.0581809 0.0409913)
(0.66516 0.745638 0.0398337)
(0.971113 0.221289 0.0892782)
(0.68 0.732202 0.0384728)
(0.694085 0.718981 0.0362115)
(0.9714 0.220648 0.0877326)
(0.684187 0.728318 0.0379626)
(-0.000735773 0.999992 -0.00393257)
(-0.181108 0.983223 -0.0217485)
(-0.0066895 0.999967 -0.00451352)
(0.0694606 0.997584 -0.000854802)
(0.0704696 0.997514 -0.000802983)
(-0.182755 0.982904 -0.0223839)
(-0.0117371 0.999918 -0.00516635)
(-0.0083151 0.999954 -0.00469339)
(0.00116137 0.999569 -0.0293201)
(0.000990566 0.999934 -0.0114171)
(0.00346932 0.999932 -0.0111495)
(0.010816 0.999904 -0.0086664)
(-0.144337 0.989237 -0.0240096)
(0.00869294 0.999924 -0.00875795)
(0.00564094 0.999943 -0.00902655)
(-0.146756 0.988884 -0.0238863)
(0.00789515 0.99993 -0.00883997)
(-0.00239393 0.999942 -0.0104957)
(-0.154296 0.987791 -0.0214786)
(0.0011589 0.999952 -0.00972428)
(-0.00992401 0.999453 -0.0315378)
(0.000239623 0.999933 -0.0115416)
(-0.00261236 0.999924 -0.0120701)
(-0.154502 0.98775 -0.0219012)
(0.00477791 0.999947 -0.0091487)
(0.00220588 0.999952 -0.00951537)
(0.0690935 0.99761 -0.000874927)
(0.0678717 0.997694 -0.000945731)
(-0.0116298 0.999915 -0.00593276)
(-0.179461 0.983425 -0.0258716)
(-0.0129191 0.9999 -0.00571542)
(-0.0123929 0.999909 -0.00529921)
(-0.181448 0.983067 -0.0256014)
(-0.0130634 0.999899 -0.00562713)
(0.0613753 0.998114 -0.00148287)
(0.0605292 0.998165 -0.00162188)
(-0.121923 0.992174 -0.0269381)
(0.00327201 0.999974 -0.00636922)
(-0.002412 0.999977 -0.0062985)
(-0.126125 0.991648 -0.0269697)
(0.00176794 0.999978 -0.00635738)
(0.011573 0.999896 -0.00861055)
(-0.122787 0.992138 -0.0241858)
(0.0136707 0.99987 -0.00857745)
(0.0192865 0.999483 -0.0257205)
(0.0129773 0.999858 -0.0107101)
(0.010337 0.999888 -0.0107892)
(-0.119345 0.992559 -0.0241471)
(0.0166407 0.999825 -0.00852739)
(0.014434 0.999859 -0.00853585)
(0.0617579 0.99809 -0.00143479)
(0.0630904 0.998007 -0.00129216)
(-0.010954 0.999922 -0.00599158)
(-0.158116 0.987055 -0.0268747)
(-0.00839432 0.999946 -0.00614131)
(-0.00374522 0.999973 -0.00627553)
(-0.154393 0.987642 -0.0269308)
(-0.00736196 0.999954 -0.00618177)
(-0.0906932 0.995601 -0.0235233)
(0.0206786 0.999751 -0.00844427)
(0.0294445 0.99929 -0.0235152)
(0.0136774 0.999849 -0.0107011)
(0.0164953 0.999808 -0.0106224)
(-0.0943398 0.99526 -0.0236295)
(0.0174382 0.999812 -0.00849116)
(0.0198094 0.999768 -0.00848648)
(0.999833 0.0133016 0.0125186)
(0.999673 0.0226476 0.0118453)
(0.947151 0.254053 0.19586)
(0.982333 0.145427 0.117784)
(0.999805 0.00120557 0.0196994)
(0.999787 0.00495476 0.0200537)
(0.832605 0.553791 0.00923898)
(0.830098 0.557551 0.00862244)
(0.949907 -0.244372 0.19483)
(0.989722 -0.0875537 0.113065)
(0.999897 0.00568323 0.0131491)
(0.999905 -0.000588494 0.013735)
(0.99981 -0.00233805 0.0193492)
(0.999804 -0.00549696 0.0190026)
(0.835013 0.550143 0.00982915)
(0.837122 0.546917 0.0103855)
(0.841899 0.539413 0.0154554)
(0.842676 0.538206 0.0151851)
(0.841028 0.540764 0.0157227)
(0.840085 0.542219 0.0159882)
(0.968322 -0.0238748 -0.248561)
(0.00392356 0.999976 -0.00579026)
(0.969261 -0.0262775 -0.244627)
(-0.000784511 0.999998 0.00194806)
(0.969134 0.013588 -0.246159)
(0.969855 0.0123832 -0.243368)
(0.859983 0.48775 0.150095)
(0.719318 0.668791 -0.187884)
(0.870617 0.484868 0.0832382)
(0.890026 0.454644 0.0339525)
(0.957197 0.289405 -0.00435979)
(0.919329 0.387252 0.0697885)
(0.968467 0.00997935 -0.248943)
(0.00463699 0.999985 -0.00281123)
(0.969136 0.00749246 -0.246415)
(0.865011 0.408442 0.291429)
(0.26639 0.841213 -0.470529)
(0.759544 0.0471567 0.648744)
(0.819993 -0.533617 -0.207036)
(-0.165597 0.985509 -0.0367263)
(0.790345 -0.584562 -0.183418)
(-0.0478561 0.998731 0.0157219)
(-0.0173045 0.999831 0.00627784)
(-0.0443783 0.998914 0.0141921)
(0.0029828 0.999991 -0.0030552)
(0.0359988 0.999263 -0.0133219)
(0.025464 0.999632 -0.00938629)
(0.968245 -0.0185079 -0.249316)
(-0.00809936 0.999942 0.00715157)
(0.969319 -0.00638449 -0.245722)
(0.969091 -0.0148301 -0.246256)
(-0.000356963 0.999999 -0.00120474)
(0.969779 -0.0179942 -0.24332)
(0.0561035 0.998282 -0.0168716)
(0.0222261 0.999735 -0.00591087)
(0.0478551 0.998756 -0.0140096)
(-0.0282742 0.999537 0.0111978)
(0.000292793 0.999995 0.0030261)
(-0.0254463 0.999625 0.0101032)
(0.899779 0.432993 0.0539861)
(0.984403 0.16257 0.0672381)
(0.968852 -0.238722 0.0658652)
(0.976692 -0.204402 0.0655153)
(0.909224 0.412904 0.0531238)
(0.991513 0.129735 0.0083774)
(0.994506 0.104325 0.00855162)
(0.995988 0.0562393 0.0696066)
(0.991454 0.113234 0.0647898)
(0.978402 0.199008 0.0559106)
(0.997533 0.0192754 0.0675034)
(0.970712 0.234166 0.0537101)
(0.82377 -0.245285 0.511116)
(0.764731 0.640942 0.066181)
(0.75826 0.317258 0.569552)
(0.867684 0.493897 0.0564773)
(0.868006 0.496202 -0.0186726)
(0.829207 0.556459 0.0526295)
(0.989155 0.00464757 0.146802)
(0.93834 -0.332316 0.0953076)
(0.989545 -0.00983201 0.143888)
(0.968013 -0.16694 0.187301)
(0.983299 0.105101 0.148582)
(0.989307 -0.0684235 0.128802)
(0.9281 -0.320915 0.188797)
(0.986972 0.127524 0.0981024)
(0.981293 0.173628 0.0831682)
(0.99502 0.0362702 0.0928474)
(0.994255 0.0653448 0.0847737)
(0.989113 0.112024 0.0954307)
(0.981216 0.172075 0.0872036)
(0.994004 0.0540073 0.0950753)
(0.939121 0.338969 0.0561435)
(0.95927 0.259113 -0.112524)
(0.968331 0.241653 -0.0627561)
(0.9528 -0.290643 0.0877433)
(-0.230955 0.972737 -0.0210516)
(0.895172 -0.439745 0.0727428)
(0.742721 0.666155 0.0678498)
(0.837994 0.540748 0.0731941)
(-0.250466 0.967858 -0.0227703)
(0.831 -0.551256 0.0745358)
(0.991294 0.0933188 0.0928831)
(0.97799 0.192377 0.0807891)
(0.996901 0.0108087 0.0779249)
(0.995763 0.000321906 0.0919614)
(0.974941 0.207919 0.0791193)
(0.989477 0.110019 0.0939736)
(0.99291 -0.0762979 0.0911539)
(0.987629 0.156562 0.00881991)
(0.982941 0.183634 0.0102737)
(0.948654 -0.235779 0.210867)
(0.984992 -0.0122518 0.172166)
(0.968651 -0.0982277 0.22818)
(0.976523 -0.100802 0.190371)
(0.983093 -0.0380669 0.179106)
(0.869397 -0.401619 0.287839)
(0.994285 0.0782855 0.0725846)
(0.983148 0.172887 0.0594124)
(0.992025 0.101619 0.074567)
(0.991507 0.104253 0.077747)
(0.986776 0.148338 0.065332)
(0.877712 0.475404 0.0601103)
(0.945714 0.315051 -0.0798044)
(0.911322 0.40973 -0.0401616)
(0.999031 0.03768 0.0227373)
(0.99881 0.0429236 0.0231568)
(0.847339 -0.524142 0.0853954)
(0.803191 0.590318 0.0800564)
(0.967149 0.228732 0.110923)
(0.836816 -0.54078 0.0854155)
(0.793454 0.603268 0.0806099)
(-0.223095 0.974687 -0.0146097)
(-0.159245 0.987089 -0.0171821)
(0.12669 0.991548 0.0279799)
(-0.311096 0.949822 -0.0325291)
(0.111409 0.993415 0.0267431)
(-0.230708 0.972901 -0.0153945)
(-0.156242 0.987572 -0.017035)
(-0.194017 0.98093 -0.0116043)
(0.0392161 0.999019 0.0205877)
(-0.236122 0.971386 -0.0255913)
(-0.139471 0.990093 -0.016234)
(0.0492328 0.998557 0.02147)
(-0.189408 0.981835 -0.0111155)
(-0.142135 0.989712 -0.0163594)
(0.999225 0.032427 0.0223275)
(0.999383 0.0274364 0.0219275)
(0.848002 0.524922 0.0731441)
(0.900972 -0.426205 0.081238)
(0.970137 0.222249 0.097158)
(0.89623 -0.435945 0.0819952)
(0.844341 0.530654 0.0741308)
(0.856726 -0.508683 0.0852194)
(0.811583 0.578818 0.0793904)
(0.968976 0.22348 0.105561)
(0.865082 -0.494393 0.0849083)
(0.818833 0.568621 0.0786357)
(-0.181291 0.983376 -0.0102599)
(0.0300333 0.999353 0.0197694)
(-0.207918 0.977873 -0.0231012)
(-0.136755 0.990474 -0.0160977)
(0.0213794 0.999591 0.0189863)
(-0.185192 0.982644 -0.010675)
(-0.134042 0.990847 -0.0159571)
(0.0174412 0.9998 -0.0098173)
(-0.0157166 0.999876 -0.000203694)
(0.00774491 0.999951 -0.00616677)
(0.966368 -0.0619495 -0.249588)
(-0.0143693 0.999887 0.00445083)
(0.964881 -0.0895223 -0.246961)
(0.857703 -0.460313 -0.229037)
(-0.0814024 0.996634 0.0097487)
(0.893931 -0.379656 -0.23822)
(0.775765 -0.578336 -0.25242)
(0.563881 0.692987 0.44923)
(0.768345 -0.571835 -0.287491)
(-0.104049 0.988757 0.107393)
(-0.21121 0.973843 0.0837828)
(-0.384845 0.911823 0.143085)
(-0.00476636 0.999967 0.00663579)
(0.0202285 0.999794 0.00135179)
(-0.000480561 0.999986 0.00529613)
(0.0112612 0.999794 0.0169088)
(-0.0202657 0.999685 0.0148232)
(0.0289235 0.99958 -0.00184582)
(-0.235 0.971787 -0.0201145)
(-0.174361 0.984503 -0.0187396)
(0.286108 0.958137 0.0107854)
(-0.234094 0.972019 -0.0194677)
(0.286083 0.958148 0.0104562)
(0.828764 0.559567 0.00594741)
(0.823403 0.567425 0.00595792)
(0.358759 0.933321 0.0142747)
(-0.264489 0.964121 -0.02274)
(-0.428728 0.903016 -0.0274626)
(-0.326697 0.944869 -0.0221636)
(0.323203 0.946255 0.0118813)
(0.979713 -0.182011 0.0838754)
(0.942432 -0.328758 0.0611618)
(0.972986 -0.201367 0.112917)
(0.976647 -0.193478 0.0934188)
(0.969335 -0.224958 0.0989118)
(0.983096 -0.153149 0.100334)
(0.97647 -0.20549 0.0654219)
(0.946407 0.313517 0.0775895)
(0.187307 0.982296 0.00319374)
(0.980336 -0.175704 0.0898301)
(0.986691 -0.141025 0.0809508)
(0.995445 -0.0273608 0.0913244)
(0.184987 0.982736 0.00299564)
(0.544017 0.838471 0.0318148)
(0.118306 0.992976 -0.00152968)
(-0.0272707 0.999575 -0.0102623)
(-0.156983 0.987403 -0.0198128)
(0.124306 0.992243 -0.00138737)
(-0.028566 0.999538 -0.0103858)
(0.125047 0.99215 -0.00133302)
(0.118438 0.99296 -0.00143002)
(0.126635 0.991948 -0.00148876)
(0.15029 0.988642 0.000441451)
(-0.295839 0.954788 -0.0293213)
(-0.105361 0.99427 -0.0180578)
(-0.0557939 0.998352 -0.0133916)
(0.138655 0.990341 -0.000381697)
(0.138241 0.990398 -0.000698848)
(0.840301 0.542079 0.00661161)
(0.866501 0.499107 0.00823912)
(0.943107 -0.305855 0.130395)
(0.97149 -0.200052 0.127228)
(0.975233 -0.19551 0.103425)
(0.967344 -0.21345 0.136695)
(0.986924 -0.112354 0.115571)
(0.445459 0.895066 0.0205732)
(-0.635903 0.770784 -0.0389742)
(0.928486 -0.365437 0.0661015)
(0.870738 -0.48879 0.0538576)
(0.685727 0.726818 0.0389057)
(0.892507 0.447666 0.0550144)
(0.961634 -0.266179 0.0664062)
(0.978866 0.191479 0.0718132)
(0.955364 -0.287709 0.0671107)
(0.887015 0.458314 0.0561521)
(0.999732 -0.0162346 0.0165111)
(0.999748 -0.015637 0.0161146)
(0.932105 -0.354771 0.0729269)
(0.973671 0.213486 0.079927)
(0.870658 0.487779 0.0634518)
(0.935077 -0.347076 0.0718953)
(0.872644 0.48437 0.062266)
(-0.248318 0.968526 -0.017183)
(-0.162303 0.986589 -0.0173304)
(0.143096 0.989275 0.0292851)
(-0.386626 0.921386 -0.0396099)
(-0.239025 0.970878 -0.0162377)
(0.160407 0.986576 0.030628)
(-0.165316 0.986086 -0.0174685)
(-0.308638 0.9509 -0.023071)
(0.281797 0.958678 0.0390703)
(-0.184154 0.982728 -0.0182615)
(-0.56007 0.826637 -0.0547066)
(-0.323945 0.945758 -0.0245097)
(0.259755 0.964939 0.0376711)
(-0.181061 0.983304 -0.0181507)
(-0.550001 0.833907 -0.0458019)
(-0.21881 0.975562 -0.0200473)
(0.636357 0.76896 0.0612416)
(0.723703 -0.687342 0.0617688)
(-0.665638 0.744063 -0.0574111)
(0.544629 0.836852 0.0553044)
(-0.210713 0.977355 -0.0194411)
(-0.359029 0.932914 -0.0277307)
(0.304557 0.951635 0.0404557)
(-0.635342 0.769946 -0.0593637)
(-0.187251 0.98214 -0.0183662)
(0.328735 0.943493 0.0418842)
(-0.340558 0.939863 -0.0260395)
(-0.190268 0.981559 -0.0184572)
(0.999727 -0.0161537 0.016891)
(0.99973 -0.0155843 0.0172578)
(0.851319 0.519665 0.0721367)
(0.905397 -0.416876 0.0804431)
(0.970646 0.222061 0.0923889)
(0.90942 -0.408189 0.0796044)
(0.854351 0.514808 0.0711129)
(0.929194 -0.362117 0.0739495)
(0.868657 0.491183 0.0646114)
(0.97212 0.218678 0.0846383)
(0.926224 -0.369448 0.0749489)
(0.866578 0.494692 0.0657447)
(-0.237309 0.97121 -0.0208602)
(0.286705 0.957954 0.0111689)
(-0.177252 0.983953 -0.0204367)
(-0.240354 0.970444 -0.02166)
(0.287598 0.957681 0.0115828)
(0.844107 0.536017 0.0130384)
(0.843602 0.53682 0.0126675)
(0.292005 0.956315 0.0139533)
(-0.184796 0.982495 -0.0235435)
(-0.255991 0.966323 -0.0262497)
(-0.254519 0.966729 -0.0255778)
(0.291735 0.956402 0.0136116)
(0.12081 0.992675 -0.000620916)
(-0.0156264 0.999822 -0.0105534)
(-0.138864 0.990017 -0.0241674)
(0.123233 0.992377 -0.00160157)
(-0.0164683 0.999809 -0.010519)
(0.123087 0.992395 -0.00160162)
(0.120834 0.992672 -0.00061865)
(0.120624 0.992698 -0.000706522)
(0.122455 0.992473 -0.0015897)
(-0.0211117 0.999724 -0.0103109)
(-0.150738 0.988294 -0.0235262)
(-0.0204167 0.999738 -0.0103492)
(0.120534 0.992709 -0.000737099)
(0.122512 0.992466 -0.00159626)
(0.118871 0.992909 -0.00123213)
(-0.0262873 0.999603 -0.010189)
(0.123745 0.992313 -0.00143009)
(-0.153737 0.987896 -0.020636)
(0.118633 0.992937 -0.00132565)
(-0.0255088 0.999623 -0.0101549)
(0.123322 0.992366 -0.00146575)
(0.120137 0.992757 -0.000841726)
(0.122432 0.992476 -0.00158171)
(-0.154084 0.987798 -0.0226695)
(-0.0218107 0.999709 -0.0102775)
(-0.0224562 0.999695 -0.0102417)
(0.122439 0.992475 -0.00157046)
(0.120363 0.99273 -0.000787336)
(0.844438 0.535485 0.0133881)
(0.844551 0.535299 0.0137189)
(-0.248653 0.968131 -0.0299122)
(-0.174513 0.984304 -0.0262987)
(0.286199 0.958042 0.0156849)
(-0.251126 0.967502 -0.0295981)
(0.287529 0.957646 0.0155507)
(0.292056 0.956295 0.0142673)
(-0.25687 0.966072 -0.0268706)
(-0.184194 0.982574 -0.0249259)
(-0.257177 0.965975 -0.0274411)
(0.291799 0.956369 0.0145469)
(0.831248 0.555615 0.0178679)
(0.82978 0.557795 0.0181488)
(0.269729 0.9628 0.0162057)
(-0.215307 0.976033 -0.0316701)
(-0.134393 0.99056 -0.0270005)
(-0.210803 0.977012 -0.0317838)
(0.267649 0.96338 0.0162146)
(0.120663 0.992693 -0.00064757)
(-0.014766 0.999835 -0.010588)
(-0.129516 0.991281 -0.0242299)
(0.12341 0.992354 -0.00159829)
(-0.0139213 0.999847 -0.0106284)
(0.120791 0.992678 -0.000622598)
(0.123569 0.992335 -0.00159855)
(0.120288 0.992739 -0.000758333)
(0.124815 0.992179 -0.0015733)
(-0.112307 0.993383 -0.0240379)
(-0.00831284 0.999907 -0.010843)
(-0.00931515 0.999898 -0.010811)
(0.124591 0.992207 -0.00157786)
(0.120301 0.992737 -0.000778293)
(0.832727 0.553404 0.0175922)
(0.834105 0.551334 0.0173191)
(-0.245871 0.968832 -0.030197)
(-0.165215 0.985896 -0.0267137)
(0.284698 0.958487 0.0157961)
(-0.242807 0.969596 -0.0304548)
(0.28303 0.958979 0.0158849)
(0.271835 0.962208 0.0161953)
(-0.219707 0.975056 -0.0315446)
(-0.146581 0.98883 -0.0269917)
(-0.223999 0.974083 -0.0314066)
(0.273766 0.961661 0.0161608)
(0.120103 0.992761 -0.00085683)
(0.125065 0.992147 -0.00156575)
(-0.101565 0.994544 -0.0238128)
(-0.00729241 0.999914 -0.0108747)
(-0.00626807 0.999921 -0.0109092)
(0.125291 0.992119 -0.00156279)
(0.120236 0.992745 -0.000807435)
(-0.00722114 0.999972 0.00194848)
(-0.00188492 0.999992 0.00342231)
(-0.000259138 0.999996 0.00290778)
(-0.00850829 0.999958 0.00337889)
(-0.00461963 0.999986 0.00244695)
(-0.00436453 0.999984 0.00358814)
(-0.00558743 0.999981 0.00278563)
(5.20285e-05 1 0.000754943)
(0.00590752 0.999982 0.00048584)
(-0.00166492 0.999996 0.00241689)
(-0.000223838 0.999998 0.00174015)
(0.00278718 0.999995 0.00136535)
(0.000731789 0.999999 0.00113562)
(-0.00302694 0.999994 0.00179053)
(0.956127 0.292827 0.00856204)
(0.961329 0.275279 0.00823648)
(0.913062 0.399371 -0.0825855)
(0.946396 0.32297 0.00494312)
(0.953525 0.30129 -0.00392135)
(0.925072 0.372981 -0.0716032)
(0.965687 0.259473 0.011072)
(0.966419 0.255476 -0.0276774)
(0.947092 0.315452 -0.0592185)
(0.955223 0.295863 0.00384255)
(0.977116 0.212594 0.00700732)
(0.9338 0.349525 -0.0764783)
(0.969105 0.246576 0.00604293)
(0.974256 0.225435 0.00219013)
(0.984751 0.171638 -0.0283953)
(0.999567 -0.00431836 -0.0291171)
(0.994864 -0.0961498 -0.0316414)
(0.99956 0.00320807 -0.0294724)
(-0.000470781 0.999994 0.00352382)
(0.00305434 0.999988 0.00389304)
(0.006646 0.999977 0.00158892)
(0.00515499 0.999975 0.00481434)
(0.00123303 0.999996 0.00243485)
(0.00694528 0.999973 0.00247783)
(0.00412057 0.99998 0.00477513)
(-0.00640851 0.999971 0.0042047)
(0.000300835 0.999991 0.00423568)
(-2.72625e-05 0.999985 0.00545742)
(-0.00151954 0.999983 0.0056358)
(-0.00527618 0.999979 0.00376984)
(0.00010714 0.999991 0.0043482)
(0.00151109 0.999984 0.00553188)
(0.985441 -0.167531 -0.0289567)
(0.999082 0.0328051 -0.0275525)