/*--------------------------------*- C++ -*----------------------------------*\
| =========                 |                                                 |
| \\      /  F ield         | OpenFOAM: The Open Source CFD Toolbox           |
|  \\    /   O peration     | Version:  2012                                  |
|   \\  /    A nd           | Website:  www.openfoam.com                      |
|    \\/     M anipulation  |                                                 |
\*---------------------------------------------------------------------------*/
FoamFile
{
    version     2.0;
    format      ascii;
    class       volScalarField;
    location    "0.107/solid";
    object      sigmaMax;
}
// * * * * * * * * * * * * * * * * * * * * * * * * * * * * * * * * * * * * * //

dimensions      [1 -1 -2 0 0 0 0];


internalField   nonuniform List<scalar> 
3125
(
-105.034
239.382
-114.851
-105.572
-114.064
74.4961
101.233
290.476
-105.583
403263
435565
332296
-114.157
-114.778
-106.201
363061
365090
342654
422047
284269
354629
274801
75.1485
-103.733
77.2536
80.2221
5647.41
3515.7
74.5829
-112.833
-103.075
-105.699
56.6402
53.6371
65.6478
67.5858
-103.781
73.6563
77.1297
64.1493
67.4472
1.10558e+06
1.22846e+06
36.5578
2427.08
11544.5
490723
1.07481e+06
1.12296e+06
4426.72
996401
481225
1.10732e+06
1.22731e+06
1.24773e+06
3711.15
708115
749485
301612
651834
832183
723430
291473
638090
64.9129
-112.878
-111.814
-107.183
72.3248
57.6067
24.5636
42.9449
62.7088
47.7886
1.04934e+06
1.15139e+06
388779
1.13175e+06
1.06725e+06
958736
390154
1.05514e+06
1.27412e+06
1.16513e+06
1.08888e+06
975067
374563
763617
863595
981190
385686
878040
847915
959049
1.03435e+06
927621
313424
733698
831879
944633
323452
845962
803902
912186
666892
719773
247064
623563
788489
681876
238044
610047
-61.853
-104.34
-60.9378
142.472
1092.01
905.507
-115.94
-107.159
-62.2159
-63.6808
-113.438
-32.5914
-62.6595
54.741
-51.6861
-104.719
-62.6384
-61.387
1.48294e+06
1.5421e+06
241623
481430
556431
726062
112535
635739
450081
667120
2.04476e+06
1.78887e+06
867363
480966
322014
455629
1.12118e+06
1.05671e+06
271292
381082
-113.616
-115.199
-107.74
-63.2129
-65.4026
1.4225e+06
1.47499e+06
349796
650370
662709
596462
375197
623597
1.81834e+06
1.67921e+06
1.46277e+06
1.40085e+06
353120
489577
515341
625562
409280
596440
1.14276e+06
1.20771e+06
1.4042e+06
1.34687e+06
293852
457241
482326
587287
344077
560291
1.09777e+06
1.16132e+06
827094
448863
265446
424210
1.07658e+06
1.01322e+06
220369
352177
-31.2399
76.853
-30.1348
-104.086
-60.5995
-60.7809
76.9477
-29.9501
-29.9993
120.8
351.811
781.622
1987.09
6920.71
1400.87
540.964
6584.53
1149.58
-64.263
-31.5815
72.0413
-32.9537
71.1353
-33.5153
-113.052
-81.7289
-82.3175
-70.0836
-62.2658
52.558
39.0593
-31.8238
-41.2912
41.8066
-39.0873
183.069
66.9342
183.782
67.123
184.159
184.465
-104.369
-60.6594
-61.088
-32.0991
75.9334
-30.6209
-30.0078
76.6092
-30.3048
181.703
66.1066
184.143
185.015
66.7963
183.833
1.38171e+06
1.15692e+06
1.43974e+06
1.62203e+06
1.5616e+06
1.17459e+06
1.52078e+06
1.45934e+06
116.373
204.23
89.5475
343.548
247.989
94.5711
78177.2
8595.09
70390.2
526336
718292
748670
764681
1.17317e+06
49595.6
821721
59808.5
818752
1.15725e+06
853644
6636.64
60130
77818.4
725415
1.04319e+06
761032
464680
710692
677715
1.05914e+06
810100
773025
1.64479e+06
1.73187e+06
1.75613e+06
1.32058e+06
57869.1
1.67139e+06
33982.5
1.54415e+06
1.28413e+06
1.61948e+06
498.833
53334.9
4505.03
950624
888024
647542
807861
885050
662578
827017
547032
707346
517477
311792
422194
447151
693392
478548
507663
971680
1.03534e+06
1.04316e+06
785265
983390
904569
769724
963582
583743
430760
281365
413847
389289
597232
468886
440251
182.153
62.3592
180.396
61.3289
179.405
-113.124
-114.717
-108.51
-69.4453
-66.3578
-32.7077
68.3419
-34.9371
-40.0256
66.2749
-35.9639
128.469
23.3232
152.751
29.1031
166.362
153.104
181.675
58.6444
177.547
56.3676
169.514
178.181
1.32469e+06
1.09383e+06
1.37602e+06
1.54426e+06
1.49192e+06
1.10849e+06
1.4452e+06
1.3929e+06
381750
660928
663660
770631
1.09641e+06
771161
761579
1.09724e+06
767652
686246
1.00096e+06
717417
383613
655489
632278
1.01489e+06
754717
727471
1.56399e+06
1.64737e+06
1.66449e+06
1.20448e+06
1.55785e+06
1.46457e+06
1.20261e+06
1.53646e+06
1.3623e+06
1.03962e+06
1.30352e+06
1.31581e+06
1.3798e+06
1.02339e+06
1.22391e+06
1.28374e+06
363735
550496
524121
556994
806237
587010
627768
820520
597142
713910
936415
680600
397217
559540
586942
921710
638155
669776
1.29428e+06
1.22938e+06
1.06317e+06
895330
1.12342e+06
1.20385e+06
911208
1.14353e+06
1.30709e+06
988963
1.2526e+06
1.26607e+06
1.32706e+06
973704
1.1768e+06
1.23394e+06
303564
516418
490852
525043
775656
554389
594065
789689
564269
675779
902331
644729
333672
525127
551333
888235
604109
634468
1.24535e+06
1.18244e+06
1.02025e+06
850282
1.07926e+06
1.15746e+06
865766
1.09889e+06
908879
847373
607753
769292
845088
622410
788085
515308
678236
486407
256198
391787
415978
664484
448438
476829
929581
992204
1.00059e+06
742478
941822
864277
727238
922332
556694
402075
229143
383720
360054
569917
439044
411251
1.69645e+06
1.71669e+06
2.37865e+06
2.12746e+06
1.28699e+06
1.26196e+06
1.6711e+06
1.69053e+06
2.38962e+06
2.11283e+06
1.67536e+06
1.65353e+06
1.31206e+06
1.33716e+06
1.65076e+06
1.62962e+06
1.2934e+06
1.3183e+06
1.2685e+06
1.24364e+06
95.9953
76.2363
98.1018
77.7704
98.2284
99.6816
138.026
129.008
216.993
1521.06
4985.93
1898.05
95.5588
74.2947
96.2359
98.9696
43.1733
73.2923
74.8847
50.6797
71.9139
126.256
65.3893
124.936
66.8597
127.938
126.305
94.5148
75.0576
96.9544
98.12
77.6732
99.5492
124.714
64.211
123.844
127.861
66.7693
126.216
1.20011e+06
1.12246e+06
1.10801e+06
1.12546e+06
1.21809e+06
1.81832e+06
1.80319e+06
1.2377e+06
1.21077e+06
1.33159e+06
1.21853e+06
1.31228e+06
44.2845
64.2187
55.2596
1094.17
1445.27
674.289
1.22519e+06
967846
1.09261e+06
1.04746e+06
1.3026e+06
1.00734e+06
816826
1.08785e+06
1.16695e+06
1.02033e+06
1.13673e+06
1.06834e+06
1.18318e+06
1.03505e+06
4392.65
13440.4
18117.9
953725
905582
1.0118e+06
1.02626e+06
1.04271e+06
919801
938390
1.03564e+06
1.14897e+06
1.09138e+06
1.0078e+06
1.13054e+06
1.05383e+06
992747
1.83346e+06
1.85106e+06
1.36178e+06
1.26121e+06
1.16241e+06
1.51536e+06
1.47426e+06
1.11363e+06
1.25813e+06
1.35302e+06
1.26228e+06
1.27405e+06
1.37046e+06
2530.87
10149
6415.08
1.08872e+06
1.06435e+06
711784
768576
692867
696701
751941
694388
681159
773028
735395
758791
707250
668464
630701
674323
665633
593208
688281
618091
605633
1.1132e+06
1.13778e+06
903919
834412
816498
818912
886812
726934
785283
738802
742129
802054
593004
660409
624407
580833
646554
605524
568514
125.441
63.4214
123.148
93.3789
71.9782
93.6594
78.3302
61.2607
83.1
55.7609
17.904
65.2359
38.6917
104.253
99.189
123.328
61.305
121.131
50.3161
109.108
110.774
1.13439e+06
1.06425e+06
1.00761e+06
1.15003e+06
1.02154e+06
1.7871e+06
1.77268e+06
1.09932e+06
1.13738e+06
1.24242e+06
1.2271e+06
1.08727e+06
888393
1.0084e+06
1.09645e+06
1.10028e+06
978772
1.00395e+06
982803
921419
1.02003e+06
967234
1.07847e+06
976659
916348
1.02825e+06
847277
869431
972838
927154
882436
940191
835394
901174
1.01123e+06
1.04212e+06
957227
945615
1.00076e+06
909737
1.80163e+06
1.81889e+06
1.37836e+06
1.20282e+06
1.16639e+06
1.3019e+06
1.1012e+06
1.11015e+06
1.258e+06
1.17808e+06
1.27351e+06
1.12115e+06
1.18227e+06
1.09087e+06
1.07234e+06
1.07398e+06
1.16456e+06
1.51192e+06
1.53639e+06
976086
991126
1.05952e+06
992120
1.07694e+06
733106
693896
787313
777785
720156
801639
706671
798653
888667
784209
849196
811963
874015
771170
908760
891564
1.01015e+06
966134
923424
994329
877716
838868
903397
892534
797308
918215
825363
810471
1.48725e+06
1.46242e+06
921074
849965
863680
865555
938264
960126
1.04212e+06
943069
944234
1.02474e+06
1.11861e+06
993508
1.01929e+06
1.1027e+06
979246
1.49111e+06
1.51518e+06
891244
943025
1.00467e+06
1.02125e+06
906124
649963
664907
747655
708559
677480
722329
637587
712141
805185
753542
817805
740802
724597
791385
811204
856442
913959
930529
823356
843476
900634
749489
818964
860049
766309
779099
832713
737050
1.4668e+06
1.4423e+06
870607
819343
771187
887391
786200
876310
988017
896726
971310
861335
1.07148e+06
1.04726e+06
637991
721443
651985
705200
623516
612933
652367
705884
694816
639866
625240
681109
552086
599896
637143
565824
578033
613281
540088
1.0958e+06
1.12024e+06
853845
773110
756199
837113
741243
652544
737767
696932
754168
667173
516295
586580
596597
553673
541585
573339
528155
-78.5695
-81.9681
-61.9026
-61.4111
-79.1034
-61.3611
-81.5976
-78.3131
-60.9041
-61.0827
-81.1555
-60.9685
-78.1537
-81.3178
486.072
170.564
241.895
290.837
292.203
430.946
328.865
840.101
1203.69
507.115
995.255
694.283
1311.84
601.753
-99.6818
-99.2683
-101.634
-99.8143
-79.836
-82.3729
-62.1817
-62.5458
-79.4033
-62.44
-82.7944
-80.387
-63.609
-84.0134
-63.0585
-81.1172
-62.9141
-83.3875
-99.4992
-98.0849
-98.2339
-97.8767
174.769
213.938
32.7545
35.8916
64.3236
61.6494
127.957
-0.217046
146.197
54.1063
-0.850067
4.74563
-22.4293
-64.3788
-32.7787
-29.4804
6.84623
-41.6545
649.976
420.97
774.693
1732.67
-79.1108
-82.7658
-62.498
-62.0771
-79.7485
-61.7726
-82.2719
-78.8419
-61.1401
-81.609
-61.6428
-78.4828
-61.4984
-81.8802
1.58299e+06
1.50286e+06
1.60333e+06
1.75428e+06
1.73599e+06
1.52257e+06
1.64254e+06
1.62317e+06
942857
837345
711901
642990
532658
48275
126812
161473
155129
687186
203091
494483
403786
407635
487800
505258
421275
418322
512281
1.94615e+06
2.04979e+06
2.09545e+06
1.94872e+06
1.98925e+06
1.87714e+06
1.8135e+06
1.94982e+06
991960
968091
926006
846813
903956
372753
316786
377360
313848
366035
305125
308083
361438
1.21206e+06
1.23698e+06
1.19841e+06
1.09963e+06
1.1753e+06
1.12923e+06
1.07814e+06
1.15223e+06
305169
264525
261310
309855
-99.2248
-97.4919
-98.4541
-97.7531
-98.8719
-98.2975
-98.6326
-97.6029
-80.7489
-83.3459
-62.9298
-63.7303
-80.2525
-63.3535
-83.951
-81.4156
-64.7322
-85.7262
-64.4812
-82.3569
-63.7928
-84.7846
2.03626e+06
804951
718618
319654
321863
332347
331246
167613
125066
116714
110688
193805
193861
195839
196631
261288
262913
269021
267398
312248
309855
301334
303565
158646
159392
163788
163062
190396
189922
185596
186231
1.52547e+06
1.44038e+06
1.54391e+06
1.72639e+06
1.70898e+06
1.45786e+06
1.57893e+06
1.56172e+06
304438
284037
228538
382234
295997
220615
208015
308665
351274
275050
275696
348346
356892
281052
281155
359097
1.90772e+06
1.99384e+06
2.0352e+06
1.7327e+06
1.89855e+06
1.78423e+06
1.7476e+06
1.86251e+06
1.56218e+06
1.44235e+06
1.54094e+06
1.608e+06
1.63104e+06
1.42171e+06
1.49732e+06
1.5193e+06
388768
322606
384129
325544
395618
334401
331438
400312
472006
394966
478285
390993
463391
379516
383267
457580
1.38738e+06
1.36227e+06
1.22158e+06
1.16439e+06
1.24478e+06
1.29124e+06
1.18604e+06
1.26801e+06
1.50641e+06
1.38548e+06
1.48677e+06
1.58533e+06
1.60778e+06
1.36636e+06
1.44594e+06
1.4666e+06
272341
216509
217520
269133
278874
224662
223648
282118
338780
269005
267985
342078
332246
260581
261700
328842
1.36808e+06
1.3432e+06
1.17901e+06
1.11896e+06
1.20179e+06
1.2473e+06
1.14015e+06
1.22456e+06
256868
255221
249155
250846
213764
220127
218066
155043
154273
149941
150741
130016
129050
975339
951630
887954
806934
866268
259506
210475
262679
209462
253141
202506
203529
250002
1.19407e+06
1.21883e+06
1.15624e+06
1.05542e+06
1.13349e+06
1.08812e+06
1.0343e+06
1.11078e+06
204698
170396
169289
207649
26.242
48.9875
-58.5849
-30.6146
-57.9097
23.7436
50.7355
77.1874
98.4309
99.3404
28.1036
-57.5438
-30.1864
51.1869
-57.4449
25.9402
51.7285
-77.6133
-80.6639
-60.6108
-60.515
-60.4422
-77.6883
-80.6507
-77.7556
-60.738
-80.972
-60.5789
-77.9721
-60.5145
-80.7737
77.9132
98.482
99.9496
27.8468
50.9157
-57.2646
-29.7029
-56.953
25.6857
52.0981
28.2485
-57.3717
51.2779
-29.7059
26.0833
-57.0209
52.2844
313.245
135.79
176.016
249.052
340.876
181.755
237.607
198.925
554.249
313.899
472.468
1012.16
416.571
661.8
542.149
851.654
354.765
5256.61
6887.61
8937.63
3510.16
4180.49
8757.53
4155.67
3384.8
1768.25
1657.38
2520.71
2166.33
3258.33
2656.63
1055.62
771.321
1577.85
2823.66
5985.8
8448.92
2868.75
3353.13
7238.34
2131.75
2400.53
1418.32
898.893
2251.74
1188.26
2879.28
1916.67
25.092
48.5989
-58.8759
-31.7628
-59.0165
23.5567
49.1495
73.5684
93.4964
95.6552
24.6682
-60.3645
-32.2329
47.0075
-59.5392
21.951
48.6206
92.6962
-60.8649
46.3017
21.5066
-98.1408
-96.8614
-98.4901
-97.157
-77.1397
-72.1889
-37.7878
-43.7452
-76.0475
-89.7748
-63.6985
-69.7443
-60.0792
-80.7435
-88.6944
-67.0622
-41.821
-78.1004
-67.5945
-53.5088
-52.8897
-85.218
67.1934
86.3866
88.1263
7.42985
27.142
113.436
51.9059
39.723
58.0397
61.5436
41.2795
-31.7045
-17.2543
23.7098
-8.62958
23.456
34.0516
11.1228
32.0675
-61.7707
-42.0514
-59.138
11.0129
29.8417
45.7276
61.1082
66.8835
11.3785
-46.1108
-41.8751
23.341
-54.0737
13.5603
26.5925
60.0945
13495.3
4712.3
1033.47
181.118
179.613
178.285
66.1418
127.736
125.948
180.817
182.354
179.346
67.0274
127.97
126.771
182.429
180.654
179.473
182.709
181.449
179.999
-77.735
-80.7229
-60.6663
-60.6337
-77.768
-60.5531
-80.7896
-77.9014
-61.0407
-81.3033
-60.7808
-78.3148
-60.5532
-81.0036
25.7668
47.7202
-59.3639
-31.3294
-58.4591
22.6051
49.7134
76.2518
97.5003
98.1853
26.6782
-57.8888
-30.8121
50.3995
-58.1585
25.453
50.6989
27.5846
50.8319
-57.3266
-29.8099
25.5907
-57.1096
51.9616
77.6186
98.0971
99.7886
28.4505
-57.7627
-29.879
50.8916
-57.0774
25.5697
52.1375
179.271
179.422
177.298
65.4542
126.999
125.338
180.376
181.787
178.603
182.623
180.474
179.219
66.5572
127.66
126.273
181.382
182.197
179.638
1.29475e+06
1.40104e+06
1.31352e+06
1.13957e+06
1.16143e+06
1.2547e+06
1.14325e+06
1.23629e+06
1.42038e+06
1.35145e+06
1.33242e+06
1.77153e+06
1.7878e+06
1.71817e+06
1.60127e+06
1.6989e+06
1.6615e+06
1.58117e+06
1.68019e+06
1.1924e+06
1.18004e+06
1.27351e+06
1.199e+06
1.29249e+06
1.43132e+06
1.49978e+06
1.41092e+06
1.37084e+06
1.47914e+06
1.39044e+06
102.195
100.28
88.2262
109.245
128.04
78.3867
95.6831
89.57
82.8299
673.895
209.851
390.53
634.794
144.726
316.01
119.032
99.7863
185.772
22863
9914.63
9213.48
20107.6
11889.9
25333.7
18676.5
29099.1
88328.7
60650
23167.6
47114.7
17369.6
29503.7
566385
487126
574504
438144
570172
468729
625688
512760
1.17923e+06
1.15965e+06
1.23354e+06
1.0488e+06
1.09395e+06
1.13515e+06
1.03283e+06
753391
14667
443186
1.14912e+06
18369.8
43819.9
2125.35
769685
37743.6
-6957.76
1.0922e+06
1.15149e+06
1.20104e+06
1.05607e+06
1.11806e+06
1.20006e+06
1.04175e+06
24305.9
4401.44
6729.62
21470
5967.92
27623
21237.4
13267.6
78279.1
8166.34
11569.7
110587
15907.1
88898.4
9692.99
100233
6023.28
969404
1.02738e+06
1.07674e+06
948809
1.0595e+06
985587
934179
546634
445010
551481
456385
531309
435891
525468
434393
1.01909e+06
1.07528e+06
1.0943e+06
963439
1.11236e+06
1.00196e+06
978397
1.90395e+06
1.87106e+06
1.73865e+06
1.66917e+06
1.76204e+06
1.82689e+06
1.69997e+06
1.78966e+06
1.52402e+06
1.77172e+06
1.48829e+06
1.62472e+06
1.27779e+06
1.27666e+06
1.33586e+06
1.43831e+06
1.25478e+06
1.4005e+06
733312
63379.2
428118
1.65291e+06
1.55735e+06
1.53326e+06
26381.5
52390.1
94794.2
1.45402e+06
1.5671e+06
1.47447e+06
1.28466e+06
1.29225e+06
1.40164e+06
1.29705e+06
1.39567e+06
1.59742e+06
1.51638e+06
1.50209e+06
1236.46
997.185
2824.44
13497.9
33943
10994.4
2833.85
14122.9
6470.98
1.01597e+06
1.0401e+06
1.01536e+06
929660
992865
948179
908792
970467
632585
651824
702491
637005
686174
788809
757338
739603
829181
865615
811094
677687
666718
718895
681678
735379
846270
775168
793088
681563
721348
730447
643198
668788
744594
655809
343522
287679
338904
290718
350164
299402
354764
296409
643354
679485
716347
630630
656053
702286
618108
1.18722e+06
1.16246e+06
1.03797e+06
992821
1.06065e+06
1.10629e+06
1.01404e+06
1.08343e+06
976324
1.02318e+06
957732
800858
788046
852742
803454
869752
1.00326e+06
920695
939187
847345
924167
865582
754233
772691
835789
757379
818891
943840
902262
883890
543424
570328
605323
531898
591705
555738
519818
327662
282018
332300
278926
321076
270140
316416
273289
580531
610786
619009
544044
632752
568110
556249
180.33
177.885
176.616
62.7104
123.607
122.718
178.121
178.749
176.426
122.453
177.598
-97.8685
-97.1359
-98.1309
-97.0532
-89.7607
-90.4611
-96.8928
-95.1772
-83.6366
-89.4825
-65.7232
-68.4094
-83.1791
-65.865
-88.6533
-83.5619
-65.1471
-86.7139
-67.3002
-82.9482
-65.7315
-87.6479
22.9151
46.798
-59.8045
-33.1237
-60.1934
22.074
46.9021
70.4932
89.7837
92.5977
22.7803
-61.8342
-33.8584
43.8552
-60.6553
19.2218
46.0167
15.7538
34.6334
-63.1999
-38.4499
11.9189
-63.0382
38.2571
65.0615
88.0018
86.8301
18.4732
-62.3448
-37.0048
42.3659
-62.8418
18.5459
41.1022
114.944
137.79
124.205
18.7914
84.3949
76.2521
143.958
143.117
133.358
32.9801
90.673
93.6894
160.676
157.927
153.834
147.422
155.017
149.588
178.332
176.029
174.382
59.5732
119.994
119.712
176.382
174.917
173.619
54.2882
117.889
114.927
164.733
170.429
165.645
173.628
173.35
169.209
46965.8
-9163.3
-26515.3
217622
395638
334026
286311
432489
348438
364750
345985
342398
183091
167984
122307
151784
187195
193820
197508
194706
281705
279971
273604
275259
286616
288472
295702
293673
172721
172014
167518
168231
176544
177250
181784
181090
1.23244e+06
1.34202e+06
1.249e+06
1.07908e+06
1.18098e+06
1.04876e+06
1.16556e+06
1.03527e+06
1.35912e+06
1.28166e+06
1.2654e+06
1.74273e+06
1.75812e+06
1.64558e+06
1.52614e+06
1.62845e+06
1.59563e+06
1.50884e+06
1.61204e+06
1.12299e+06
1.19637e+06
1.06197e+06
1.21167e+06
1.07487e+06
1.34768e+06
1.42723e+06
1.33082e+06
1.29793e+06
1.40983e+06
1.31421e+06
351196
278330
263597
361746
330650
222614
311355
249021
903667
1.12237e+06
988375
1.02736e+06
1.00026e+06
909668
1.02153e+06
921869
1.0876e+06
988343
1.03635e+06
982836
921667
1.0317e+06
858939
986916
908350
965611
895409
953025
870323
365678
279605
285246
363057
364019
285501
363745
283331
891678
1.02869e+06
921089
977838
933674
989657
881266
1.87108e+06
1.83867e+06
1.66393e+06
1.58662e+06
1.68586e+06
1.74868e+06
1.61256e+06
1.71118e+06
1.51697e+06
1.57487e+06
1.42943e+06
1.23263e+06
1.31119e+06
1.13026e+06
1.34432e+06
1.13037e+06
1.60705e+06
1.43821e+06
1.48058e+06
1.36539e+06
1.48558e+06
1.38383e+06
1.18984e+06
1.30575e+06
1.13777e+06
1.28826e+06
1.1278e+06
1.5086e+06
1.42542e+06
1.40271e+06
1.27603e+06
1.34281e+06
1.25734e+06
1.05593e+06
1.04081e+06
1.12937e+06
1.0573e+06
1.14693e+06
1.32322e+06
1.21996e+06
1.23866e+06
1.58449e+06
1.5606e+06
1.40695e+06
1.33726e+06
1.42983e+06
1.47505e+06
1.3586e+06
1.45254e+06
1.00723e+06
1.02446e+06
1.11186e+06
1.00824e+06
1.09438e+06
1.14498e+06
1.24392e+06
1.16375e+06
1.20125e+06
1.26386e+06
1.18251e+06
419149
352684
349555
424082
412048
340401
407265
343417
746105
791992
830431
732342
759152
816009
719487
785420
834839
844903
745241
772256
859429
758181
894373
951217
963380
850475
978750
880223
864026
436530
359024
362312
431385
444128
372449
449564
368945
852500
907088
948184
837041
933138
866274
823713
1.41245e+06
1.43748e+06
1.38395e+06
1.27269e+06
1.36085e+06
1.31447e+06
1.25105e+06
1.33768e+06
994963
1.08323e+06
1.01364e+06
879483
896879
972763
881189
955492
1.10331e+06
1.05109e+06
1.03235e+06
1.1262e+06
1.18376e+06
1.10741e+06
927122
912612
990059
928397
1.00739e+06
1.16365e+06
1.06985e+06
1.08863e+06
1.21569e+06
1.2892e+06
1.19873e+06
1.00416e+06
1.07047e+06
950310
1.08665e+06
964840
1.27103e+06
1.16422e+06
1.18157e+06
1.56236e+06
1.53895e+06
1.35971e+06
1.28662e+06
1.3817e+06
1.42487e+06
1.30697e+06
1.40344e+06
958389
1.05417e+06
935672
1.03776e+06
920939
1.09325e+06
1.19601e+06
1.11119e+06
1.1467e+06
1.21507e+06
1.12901e+06
298655
239249
238190
301987
292003
230873
288717
231905
662367
761644
702726
749933
690089
674790
736124
699683
803740
715391
763750
728083
687231
777570
798964
916429
817634
873678
830538
887200
786659
312058
245594
246691
308679
318759
254202
322174
253074
761910
874141
804761
860081
791916
846423
774303
1.39291e+06
1.41766e+06
1.3375e+06
1.22448e+06
1.31512e+06
1.26999e+06
1.20351e+06
1.29261e+06
947572
1.03992e+06
965848
834806
920990
816266
904189
801230
1.05959e+06
1.00241e+06
984132
1.07521e+06
1.13801e+06
1.05709e+06
881251
937784
831302
954562
846329
1.11848e+06
1.02067e+06
1.0389e+06
236918
238734
244809
243062
232604
230713
224431
226405
141420
142286
146489
145655
138137
137240
133116
134046
999185
1.02316e+06
975914
888272
953754
909767
867768
931702
593189
657001
580607
641128
566491
750611
714662
697337
784972
825989
767253
637155
672974
594819
689041
609123
806987
732093
749625
600663
692037
614988
653819
627405
588440
667440
234471
188889
189941
231401
240630
196683
243735
195648
564147
650785
602619
640248
590300
576266
626734
1.16938e+06
1.14476e+06
998177
950374
1.02054e+06
1.06552e+06
971250
1.04299e+06
929314
980960
911085
757772
803771
711453
820419
726325
961367
874747
892893
802778
883552
820664
712054
787175
696633
770639
681871
902906
856656
838625
469618
543552
505724
534104
493915
521200
481164
222330
183310
182242
225363
216420
175706
213426
176794
504506
583220
517607
547096
529561
560176
492795
-113.955
-94.1816
-104.804
-82.772
-114.569
-82.3339
-93.8316
500.903
208.008
404.43
443.964
334.862
464.344
362.899
-115.391
-105.935
-94.6003
-83.2524
-114.85
-83.4819
-95.021
68.2208
23.8276
78.1821
169.538
149.367
126.834
11.1626
-114.609
-105.318
-83.2788
-94.8972
-82.741
-115.046
-94.4344
-115.595
-106.568
-83.787
-95.4463
-115.39
-84.1259
-96.03
-113.019
-103.767
-81.4115
-92.8669
-81.2655
-113.077
-92.8621
6663.12
4879.86
1723.93
6079.31
9177.33
6918.56
4759.26
-101.16
-101.167
-81.0401
-99.208
-75.2361
-107.812
-96.6092
-113.229
-103.894
-81.4374
-92.9195
-113.246
-81.3629
-92.9988
16074.4
10217.3
29051.8
11321.1
16814.3
-6370
14911.9
-114.334
-108.567
-85.927
-100.081
-112.07
-86.402
-99.999
-113.969
-104.465
-82.3203
-93.4372
-82.1223
-113.904
-93.57
977.172
752.382
1012.46
1030.21
1223.35
1283.72
693.827
-116.136
-106.694
-85.2175
-96.2728
-84.405
-117.053
-95.6502
-6.01334
-30.1228
-5.12068
-64.6594
23.0961
-43.5782
-38.1514
-114.523
-104.915
-82.6526
-93.8438
-82.5332
-114.393
-94.0793
488469
363434
-3454.05
182420
291656
292921
303435
850851
776965
644383
684532
592786
688878
966187
598318
553270
645970
673855
561139
588545
685122
609004
709134
656468
579648
571293
696967
619615
442764
419297
512276
472536
449969
413254
503658
435245
486305
463995
398872
404882
494867
428082
355732
409335
373050
334484
328596
401018
362774
-116.188
-107.408
-86.1157
-97.756
-85.0065
-116.698
-96.8552
459863
553227
636887
643616
542070
559233
539889
459043
571139
571851
660982
552332
467673
565959
479370
516743
605538
560563
523725
473109
568596
486167
583938
614644
539182
532523
576473
491759
464809
427753
521133
498075
457546
433841
529821
472466
547534
448537
506762
442386
479807
538757
569527
543388
662708
615733
578660
535896
652152
560295
631626
605916
519205
526307
641630
551717
368757
397629
465521
427446
403963
362386
435503
375922
451905
418230
473973
411804
382363
443782
459321
508065
552250
578270
465908
500970
543980
451980
527164
569180
485451
492471
535502
445299
348983
389841
440653
419240
383587
355280
411254
341944
395219
432346
369677
375851
403124
335722
272060
325411
344480
308039
302249
318035
277810
-113.341
-103.947
-82.1183
-93.2354
-113.716
-81.6147
-93.0147
3043.26
2475.11
3302.42
1881.46
2578.24
1727.66
2566.79
-89.5219
-94.942
-45.8451
-82.0267
-73.4897
-59.7653
-91.3254
-113.659
-104.151
-82.3083
-93.5455
-114.164
-81.7179
-93.228
28604.7
13794.6
22032.9
56260.3
54596.5
106916
22001.3
694669
625919
771462
732129
795961
678635
632402
685978
846071
651656
732244
753920
785436
640066
1.19974e+06
852222
798517
930033
1.17264e+06
955645
891282
991764
918992
870183
833978
895249
967941
934926
983719
947964
831901
956777
881474
1.03774e+06
935320
863299
815337
737084
761418
774219
828320
849202
877719
801096
748932
854853
787364
892705
841451
654246
618009
763059
698773
668096
746978
608101
642415
721591
589812
688799
631263
734965
598129
938713
908916
860725
796827
956692
843167
894682
923855
814870
868162
785521
907759
829811
881943
629623
613782
576321
537162
566248
641088
602491
618189
546173
527276
580015
556179
606803
591228
406058
370432
451901
430436
460368
398945
376394
413481
477566
390582
438848
420614
469057
384599
572844
535556
506399
488198
516282
561602
546601
584129
536168
568832
497937
595447
526224
557700
494970
457371
421366
481020
447685
505965
470277
384481
362312
443263
405672
391572
434846
356374
377138
417883
342426
397394
370076
426248
348340
539227
524547
496517
459315
550394
486697
513594
528094
467123
491829
449736
517010
476876
502681
-115.871
-108.343
-86.7287
-98.6502
-116.615
-86.9363
-99.3646
502477
572509
665320
606062
571349
604526
506821
492316
588747
569782
667970
480329
577599
596637
776445
889239
752055
754846
664252
864277
870219
787314
678712
765094
882440
672770
886880
793152
813816
864824
767117
707017
872449
706673
811583
811653
694900
770432
877858
877023
701527
807712
753105
778127
696684
650163
659497
789905
742446
763537
677365
707102
813333
668613
801646
773654
505501
565584
648291
605442
561466
506742
601849
501649
590853
547829
640731
497701
553268
597043
800219
856561
746179
704301
846457
806938
699372
792276
685604
824770
737248
836018
783286
693075
502918
478556
583708
541691
574651
510536
472186
495019
556575
457183
532798
487566
565470
463424
664147
625123
586465
566939
596617
652597
636493
675749
617095
576980
659368
606846
687394
647915
722718
705696
658823
617514
648286
734643
694036
710871
627433
607271
670877
637806
699103
682424
822104
802560
748980
702647
736909
835494
789972
809003
713599
691511
765288
725102
796161
777547
526471
487463
593086
568510
518625
602365
494011
534829
621603
509891
577751
542990
612016
503099
758812
717437
669500
648570
746672
680264
729244
771095
702285
753155
659146
783531
691208
741153
403359
447253
507896
485072
440615
476830
409934
396091
460246
426125
499285
389581
432650
468429
576970
594947
534775
495553
505080
606112
566013
587963
524265
544584
628556
514677
617321
598977
632151
673844
584106
562938
662474
553256
643234
621075
533917
574147
639831
651132
543556
610020
720710
766360
640631
665389
631032
731627
754635
709716
611631
655007
731318
621330
742947
698680
423888
455304
533755
493525
462067
417251
501818
431242
518648
477135
542581
437924
470235
510315
665426
685257
614161
572674
696702
654332
582387
676524
601873
719729
624308
708198
687608
592148
544196
583810
505648
486025
476569
572719
555082
533345
457746
495988
550651
467117
561660
522544
315737
342260
399765
363693
348280
371412
309686
322619
387177
361998
407918
328757
355899
379359
490433
507069
457842
420677
517886
429846
479847
501084
448384
539680
467332
528762
511785
439108
417726
375642
392995
453829
366857
443376
427893
296940
334711
375828
355853
328764
302896
348238
290250
333013
315424
367852
284392
321293
340512
458857
496299
429738
411530
485594
469316
402477
448462
384530
464356
420448
474940
438143
393453
)
;

boundaryField
{
    left
    {
        type            calculated;
        value           nonuniform List<scalar> 
670
(
-102.67
360.103
-120.43
155.128
-119.666
499.924
-103.2
167.589
-103.137
336118
-120.192
-119.643
-103.76
346930
-101.344
34.5062
32.3297
7329.77
4409.87
86.8114
-104.863
-118.399
31.6994
53.0005
12.8472
-101.192
31.4365
33.9769
-101.415
73.4181
71.1686
72.0849
73.9582
941363
7764.3
14848.2
5944.06
1.08453e+06
47.6152
3100.55
-115.97
-118.451
71.0946
48.2906
31.8126
68.2889
56.118
-103.723
17.8853
28.7842
1.22744e+06
1.08409e+06
-101.893
-52.0845
-53.1924
1468.88
1188.79
211.703
-121.591
-6.03076
-118.999
-53.5671
-55.1085
-104.778
94.2446
-43.9555
-43.344
-54.1135
-52.5074
-102.249
551397
120037
206343
1.27424e+06
-120.409
-119.173
-105.081
-57.1596
-54.7038
1.88049e+06
608579
-51.8007
-51.9245
-101.687
33.3994
-10.8476
-10.8955
-12.4594
-11.019
33.5222
8483.45
1924
2606.29
777.538
1645.07
7697.98
164.982
1006.26
459.563
-76.596
-118.656
28.8829
-14.4222
-12.8461
-15.0543
27.7113
-55.8035
12.268
-32.5241
70.0734
-25.8589
-32.0087
11.4156
-71.9112
-57.2827
-62.9242
32.0687
-11.5349
-13.6059
-10.9624
-11.3204
33.6148
-101.937
-52.3201
-51.8724
73.2932
181.271
183.605
179.774
182.32
71.6717
73.0271
180.988
181.133
181.739
182.2
73.0403
161214
80326.2
769873
12088.9
74258.8
65029
67845.8
81022.2
13050.7
57561.3
5403.47
441.919
1.74101e+06
23549.1
148678
277.603
99.4646
123.674
216.611
119.583
489.904
-119.611
-118.67
67.3043
176.587
179.821
177.92
68.7576
37.8802
152.389
166.876
134.48
156.679
29.0417
65.9113
175.362
180.848
169.11
178.035
61.7608
-62.0532
-58.088
-105.677
22.4955
-18.2059
-24.0786
-14.2551
-17.0995
26.1498
1.73737e+06
717804
2.91429e+06
2.97249e+06
34.2672
173.362
170.704
168.431
171.813
32.8083
2363.34
3263.54
5984.58
228.448
331.747
155.874
31.0111
170.382
168.309
29.1913
143.421
170.129
150.149
150.168
13.8785
31.2485
170.809
167.446
170.316
173.409
34.5996
72.5102
147.222
149.796
147.264
144.479
69.1824
70.7494
145.66
148.561
149.999
147.064
72.1607
1e+06
996876
856984
9441.98
19408.8
15676.1
12200.2
7871.55
3694.96
1.33207e+06
838778
1.12702e+06
87.941
72.2625
69.2887
1834.67
939.442
1621.2
147.416
144.258
69.067
46.7881
122.592
126.469
84.0953
89.4539
20.0683
67.8547
142.829
145.051
132.922
131.78
55.16
18.3769
158.23
153.429
165.965
168.241
29.6753
1.5365e+06
1.41135e+06
959876
1.1202e+06
1.27453e+06
-52.2399
-73.907
-73.6484
-74.6758
-74.2076
-52.6393
699.585
817.6
1344.7
254.084
467.823
402.083
-53.8845
-75.5195
-75.0316
-76.7463
-76.039
-54.4061
22.5728
29.5982
113.522
-52.9026
-23.3003
-20.1216
-53.3358
-74.8916
-75.495
-74.0671
-74.5077
-52.9491
158300
343840
367370
2.06537e+06
215774
-56.0165
-77.5371
-78.5274
-76.0963
-76.7635
-55.3068
2.09073e+06
536444
352364
-51.6525
-73.2338
-73.2412
-73.4853
-73.3193
-51.7146
170.885
174.465
34.9391
-10.3727
82.2112
80.693
80.3556
81.8347
-10.3906
-11.5217
80.4765
78.5766
80.5945
81.8999
-10.8746
34.1051
174.146
171.097
4983.16
5559.14
8850.85
2199.44
3498.49
3195.46
1219.97
2069.54
1381.27
2797.76
2506.37
1471.65
7093.04
4018.17
4418.03
326.302
317.113
180.478
902.969
530.528
576.579
261.589
492.186
780.88
166.453
170.467