/*--------------------------------*- C++ -*----------------------------------*\
| =========                 |                                                 |
| \\      /  F ield         | OpenFOAM: The Open Source CFD Toolbox           |
|  \\    /   O peration     | Version:  2012                                  |
|   \\  /    A nd           | Website:  www.openfoam.com                      |
|    \\/     M anipulation  |                                                 |
\*---------------------------------------------------------------------------*/
FoamFile
{
    version     2.0;
    format      ascii;
    class       volSymmTensorField;
    location    "0.107/solid";
    object      sigma;
}
// * * * * * * * * * * * * * * * * * * * * * * * * * * * * * * * * * * * * * //

dimensions      [1 -1 -2 0 0 0 0];


internalField   nonuniform List<symmTensor> 
3125
(
(111.515 0.0523335 10.1796 105.043 -0.903368 238.29)
(80.9409 38.4546 60.031 -84.0534 -266.85 270.215)
(122.045 0.111371 5.5014 114.854 -0.214384 260.355)
(112.053 0.109134 10.2612 105.575 -0.266057 239.342)
(121.219 0.0589389 5.38238 114.065 -0.329446 258.511)
(122.843 38.3144 25.4255 -40.27 -100.623 344.752)
(105.626 29.8906 47.9459 -7.33943 -176.909 287.175)
(103.947 74.8612 42.9058 -209.238 -207.151 405.695)
(112.174 0.061086 10.6543 105.586 0.695819 240.186)
(-117621 4983.64 39701.8 -51852.9 12744.2 -397332)
(3725.75 -4082.66 108176 11064.2 4596.83 -408856)
(769.865 -3800.9 103496 8395.4 5724.92 -299996)
(121.677 0.164252 5.59922 114.161 0.155418 259.853)
(122.802 0.269813 5.85755 114.788 -0.239305 262.626)
(112.865 0.0628983 10.807 106.202 -0.0877112 241.589)
(-95915.6 15683.7 3734.93 -77354 39163.5 -357683)
(16532.1 4469.98 111838 -3248.46 -9109.15 -332015)
(1009.31 -3919.69 104051 8564.98 5740.78 -311014)
(3896.22 -4181.79 107491 10425.8 4992.58 -394836)
(6346.46 3011.76 110536 -2402.47 -7636.47 -241953)
(14790.4 4125.18 112591 -2962.25 -8675.43 -320033)
(5831.79 2887.16 109778 -2408.89 -7574.76 -231581)
(-23.349 0.00150372 0.462106 -29.4945 -0.186285 -75.1436)
(110.184 0.0480606 10.0086 103.734 0.365579 235.172)
(-24.2699 -0.00670133 0.256455 -30.4094 0.0670963 -77.2523)
(-20.9509 23.2356 34.7916 -39.4525 -28.5531 -3.5731)
(-255.41 -26.233 239.314 -2658.15 -4289.03 514.106)
(-1155.84 542.227 529.163 -2626.76 -1329.34 -642.843)
(-23.0793 -0.0365542 0.557809 -29.2537 -0.139682 -74.5764)
(119.96 0.0683939 5.23888 112.834 0.0739883 255.698)
(130.234 5.03983 9.35631 104.819 -10.3541 286.974)
(120.283 2.82038 16.1656 107.498 -10.1358 263.913)
(-14.8724 15.0205 25.0063 -28.4439 -16.9328 -12.1828)
(-14.6338 0.936242 4.17206 -21.0372 0.0706685 -53.1908)
(-30.6709 0.0438851 -15.6687 -26.7499 -0.0459099 -58.6286)
(-31.5207 -0.0538747 -15.8487 -27.6049 -0.072922 -60.6209)
(110.229 -0.00364283 10.0344 103.782 -0.279596 235.321)
(-22.6947 0.0511824 0.691411 -28.8499 0.331014 -73.6445)
(-24.2233 0.0119311 0.262427 -30.354 -0.0285537 -77.1284)
(-30.0422 -0.00636605 -15.4957 -26.0997 0.173902 -57.1084)
(-31.4627 0.0546115 -15.8358 -27.5445 0.10256 -60.4779)
(-10551.8 -1665.32 75818.5 2285.13 4021.12 -1.10031e+06)
(-30790.4 -3418.96 79838.1 3023.11 4333.77 -1.22312e+06)
(-17.1706 14.4348 10.311 -15.3792 -15.949 22.4388)
(-823.97 447.763 442.23 -1702.96 -952.75 -371.464)
(-1752.77 -431.001 429.962 -6468.4 -7201.89 -1323.34)
(-13933.3 -4333.94 100938 23289.2 2476.85 -469331)
(-345292 4544.74 116411 -258924 66513.6 -1.05093e+06)
(-33847.6 -1982.77 88608.2 7092.15 1344.03 -1.11574e+06)
(-1013.51 1007.55 832.657 -2693.56 -2166.6 -170.225)
(-2176.48 682.871 83423.1 5516.52 2111.56 -989397)
(-7797.05 -3060.68 107468 14307.6 1360.88 -456821)
(-22791.1 -923.429 86041.9 6801.67 1174.53 -1.1005e+06)
(-408691 8759.51 162447 -277766 24935.6 -1.19451e+06)
(-42022.1 -4535.14 83836.2 2446.26 4715.76 -1.24188e+06)
(-1025.14 875.307 744.616 -2210.7 -1737.33 -278.689)
(-9071.86 -1125.8 77620 1835.46 4966.9 -699460)
(-4178.65 242.555 86770.3 4358.33 3372.58 -739368)
(275.714 -3407.51 101368 7900.7 5585.07 -267428)
(-3950.17 330.618 84756.2 4046.15 3323.24 -640730)
(-9869.09 -1485.11 79788.9 1948.15 5080.07 -824409)
(-9185.74 -1171.15 77968.4 1848.63 4991.41 -714883)
(157.168 -3270.6 100483 7733.53 5512.6 -256703)
(-3894.4 344.747 84373.3 4003.84 3304.02 -626848)
(-30.3497 -0.0830948 -15.587 -26.4344 -0.269197 -57.8812)
(120.023 0.0197803 5.24911 112.878 -0.0701956 255.888)
(128.236 2.54337 7.8104 112.403 -4.42948 278.293)
(118.977 1.93723 14.7515 108.009 -5.83071 259.824)
(-22.1365 0.0706768 0.841462 -28.2871 0.216497 -72.3096)
(-16.1212 0.673042 3.30315 -22.4191 0.427427 -57.3397)
(-14.9352 9.19484 2.85276 -11.7709 -9.00425 10.5703)
(-21.5094 0.624628 -12.6752 -17.3687 0.548107 -35.4168)
(-29.4248 0.0935595 -15.3419 -25.4724 0.327673 -55.6334)
(-23.3932 0.393331 -13.4217 -19.27 0.531505 -40.3848)
(18961.8 4773.41 75159.4 1002.19 -7077.78 -1.044e+06)
(6738.93 5563.67 72087 844.135 -7437.67 -1.14685e+06)
(11360.6 8115.33 89452.5 -3204.34 -16436.2 -367918)
(-369885 19496.4 107828 -287365 126755 -1.09827e+06)
(-13744.9 3776.62 82083.6 -509.032 -7636.4 -1.0608e+06)
(11930.5 3618.49 83309.3 26.7239 -6179.94 -951542)
(15220.1 6552.13 101082 -5496.74 -12522.6 -364427)
(-3674.89 3877.1 80434.1 -588.919 -7324.77 -1.04893e+06)
(-393435 30398.2 134510 -271563 122543 -1.2397e+06)
(-2953.27 5913.46 74833.8 651.107 -7684.11 -1.16025e+06)
(-10267.3 -1673.05 76442.5 2252.49 4151.16 -1.08345e+06)
(-10214.5 -1737.32 79724.8 2091.52 4835.79 -968455)
(2093.14 -4197.99 105409 9139.47 5664.12 -344942)
(-4176.06 235.756 86948.3 4405.35 3363.75 -753648)
(-3654.96 287.663 87081.2 4778.18 3140.75 -854766)
(-2100.8 642.05 83971.4 5407.87 2282.17 -973983)
(2589.53 -4248.79 105835 9377.47 5581.79 -356722)
(-3484.31 314.948 86898.6 4840.72 3077.69 -869395)
(-9947.76 -1526.03 79945.2 1962.66 5075.86 -840256)
(-10225.1 -1726.62 79933.2 2074.81 4892.51 -952289)
(18193.4 4726.8 76395.5 1005.47 -7080.58 -1.02875e+06)
(12889.1 4382.39 82090.2 949.557 -7076.63 -920396)
(8744.87 3398.42 112244 -2438.95 -7882.34 -274054)
(4783.94 2842.44 89287.5 229.736 -5418.1 -722857)
(6653.98 3137.46 89178.9 279.797 -5637.66 -822352)
(11417.6 3560.6 84304.5 89.6504 -6086.23 -937156)
(9937.81 3539.54 112598 -2491.43 -8003.29 -285160)
(7102.89 3185.39 88896.6 276.311 -5676.01 -836655)
(10113.8 3928.1 82919.5 857.04 -6932.16 -795389)
(12362 4328.01 82457.3 937.266 -7066.58 -904771)
(9096.39 3397.64 80426.4 783.188 -6691.63 -657248)
(4646.89 2804.93 89104.3 217.269 -5392.09 -708767)
(4748.55 2515.12 106976 -2434.2 -7413.49 -201324)
(4136.33 2552.24 86945.9 128.878 -5233.68 -611469)
(9935.93 3870.56 82768.3 846.196 -6907.6 -779841)
(9166.7 3458.44 80809 787.955 -6719.73 -672352)
(4484.45 2393.81 105871 -2435.26 -7363.5 -191527)
(4101.44 2516.08 86534.3 117.725 -5213.94 -597803)
(62.0045 -0.014654 -4.02594 69.297 -0.388891 168.879)
(110.813 0.0784066 10.1506 104.34 0.0900231 236.894)
(61.1088 0.0279604 -4.25444 68.4396 -0.183239 166.833)
(46.351 39.3966 60.2883 -41.8428 -164.959 217.865)
(4.38964 86.7334 109.652 -505.173 -869.788 249.524)
(-81.5924 118.949 174.955 -468.041 -624.469 136.052)
(123.111 0.0879248 5.63193 115.943 -0.497307 262.836)
(113.649 0.0929389 10.6511 107.177 -1.24666 243.681)
(62.3636 0.0486862 -3.98283 69.6827 -0.385926 169.727)
(63.814 0.00153506 -3.81942 71.1421 -0.603386 173.197)
(120.567 0.0919109 5.28669 113.44 -0.0546437 257.158)
(130.443 19.7573 16.7342 45.9484 -47.9211 316.383)
(119.938 11.3623 27.5629 81.9768 -53.6891 281.012)
(58.2942 27.7221 42.2636 5.10186 -106.85 220.08)
(72.1756 9.03369 13.2524 63.7182 -29.1136 212.068)
(111.2 -0.0170883 10.3995 104.719 -0.0964554 237.991)
(62.7695 0.107169 -3.73817 70.0609 0.407646 170.856)
(61.5468 0.0124423 -4.12573 68.8639 0.251435 167.899)
(-35166.8 -700.337 43011.7 -24638.3 2642.81 -1.48165e+06)
(-38252.4 -791.468 39422.2 -26754.5 2378.56 -1.54106e+06)
(-69854.1 12734.1 -14847.8 -124844 -86877.4 -176822)
(-79684.4 -14030.2 88352.9 33798 27758.5 -460151)
(-164888 10813.4 57188.9 -98945.4 -19680.8 -547089)
(-97657.6 -873.599 84487.6 -24069.6 -5663.84 -714659)
(-23297.3 7444.71 11859.5 -51237.1 -55626.4 -58132)
(1295.17 1196.75 103454 -279.446 1128.9 -618937)
(2405.41 -3899.2 108772 11807.9 3930.35 -423882)
(-998.123 1409.85 103443 -36.1937 -138.533 -651056)
(-588905 9469.54 371861 -515475 -108355 -1.94176e+06)
(-133081 -5180.59 124400 -33947.1 8073.81 -1.77948e+06)
(-23382.2 -420.681 46688.3 -15573 3184.61 -864768)
(-1789.36 472.517 102074 71.8932 2819.63 -459207)
(574.338 -3674.62 102869 8229.71 5692.98 -289068)
(-1972.42 465.632 101059 123.367 2799.18 -433101)
(-26780.2 -511.048 48995.8 -17977.6 3337.76 -1.11897e+06)
(-25918.3 -483.706 48609.2 -17356.9 3323.94 -1.05441e+06)
(-41.2939 -2994.95 98435.2 7387.02 5332.03 -235423)
(-1817.65 473.236 97068.4 529.969 2616.53 -356223)
(120.87 0.0527334 5.40743 113.616 -0.0417627 258.002)
(124.285 0.640372 6.23821 115.25 -0.50087 266.554)
(115.085 0.40537 11.8534 107.767 -0.0143016 248.079)
(63.3311 0.0750049 -3.57342 70.6099 0.343702 172.26)
(65.492 0.320824 -2.89917 72.5998 0.151423 177.894)
(33944.1 -1193.97 41233.4 16921.2 -4019.26 -1.42132e+06)
(37620.8 -1307.62 36637.5 19055.4 -3629.21 -1.47409e+06)
(-28069.9 14915.9 37744.2 -23956.9 -1874.78 -345328)
(-213580 14283 24707.1 -167043 97074.8 -629780)
(-83580.8 4598.7 70466 -36040.5 -6376.86 -654058)
(9241.95 1626.31 104660 -5215.6 -7047.25 -578287)
(17705.7 4941.97 110236 -3767.02 -9717.01 -343936)
(9047.16 2022.77 102574 -5675.32 -8201.2 -606848)
(-394918 29961.2 327890 -118888 44220.1 -1.74199e+06)
(-50437.4 9388.5 118228 24617.1 -8870.15 -1.67058e+06)
(-34351.3 -682.111 44104.5 -23987.6 2739.12 -1.4614e+06)
(-32276.2 -641.166 46671.6 -22270.1 2987.73 -1.39925e+06)
(1303.29 -4028.51 104542 8741.29 5738.02 -322151)
(-1802.73 480.95 102247 -31.7238 2793.3 -468129)
(-1419.95 512.197 102973 -75.211 2753.12 -494695)
(1425.37 1101.83 103567 -247.216 1435.07 -608452)
(3614.57 -4248.71 106847 10002.5 5271.5 -381534)
(726.473 867.768 103515 -347.419 2032.02 -578491)
(-27083.4 -520.282 49085 -18198 3336.78 -1.14059e+06)
(-28070.7 -548.942 49191.1 -18927.7 3315.33 -1.20565e+06)
(32682.5 -1143.31 42671 16318.7 -4122.6 -1.40292e+06)
(29340.4 -996.617 46172.8 14839.2 -4350.77 -1.34531e+06)
(6984.44 3138.79 111204 -2401.18 -7705.62 -252476)
(1913.69 1115.87 105449 -3784.31 -5384.47 -432953)
(2592.45 1150.92 106212 -3952.35 -5484.79 -458994)
(8784.39 1532.44 105198 -5043.73 -6775.66 -568636)
(13014 3884.38 112845 -2727.24 -8378.48 -308146)
(6804.29 1352.02 106121 -4738.7 -6220.5 -540357)
(23040.2 -653.956 50304.4 12337.4 -4513.01 -1.09549e+06)
(23868.8 -712.139 50231.8 12641.3 -4537.15 -1.15917e+06)
(21034.7 -489.899 47903.7 11605.6 -4291.37 -824367)
(1802.67 1108.09 105205 -3673.14 -5342.93 -424233)
(5407.25 2762.47 108929 -2419.14 -7517.9 -221354)
(1426.66 1077.51 104096 -3512.82 -5278.28 -398678)
(22822.7 -637.096 50251.7 12260.4 -4501.05 -1.07427e+06)
(22285.2 -590.222 49923.6 12074.4 -4458.99 -1.0108e+06)
(4022.26 2152.34 103405 -2417.92 -7262.73 -172405)
(1091.1 989.729 99638.5 -2855.08 -5128.92 -323990)
(34.1867 -0.0290917 -14.7653 41.8057 -0.358973 105.247)
(-23.9889 0.0186011 0.419382 -30.176 0.0636242 -76.8496)
(33.2324 0.0537233 -15.0189 40.9041 -0.0849832 102.959)
(110.548 0.0231278 10.1083 104.09 -0.651436 236.411)
(60.7683 0.0344578 -4.21534 68.0715 0.0416367 165.974)
(60.9532 -0.000755063 -4.26695 68.2673 -0.174723 166.453)
(-24.0509 -0.0241409 0.380242 -30.2164 -0.171647 -76.9443)
(33.0284 0.05097 -14.9442 40.6555 0.091469 102.511)
(33.1044 -0.0208678 -15.0201 40.7578 -0.180545 102.661)
(21.6623 38.6496 48.0825 -40.0908 -123.973 162.77)
(-114.958 87.9543 100.843 -211.705 -138.287 -21.4478)
(-109.453 123.351 170.262 -425.428 -496.141 95.3515)
(-212.835 63.5386 136.003 -1058.07 -1354.74 18.0006)
(-1266.85 465.317 729.6 -4159.56 -3962.96 -882.587)
(-123.373 163.484 244.936 -709.235 -962.821 119.691)
(-166.553 144.729 149.018 -308.393 -227.186 -22.4639)
(-1456.41 535.703 814.157 -4249.06 -3452.09 -966.635)
(-133.026 180.516 251.928 -580.297 -760.915 121.033)
(64.3894 0.0293027 -3.73442 71.7436 -0.611967 174.566)
(34.5004 0.0665742 -14.7353 42.1443 -0.245488 105.968)
(-21.8576 -0.0420947 0.938412 -28.0861 -0.352373 -72.0209)
(35.7639 -0.012581 -14.6088 43.4312 -0.522492 108.929)
(-21.4427 -0.00974768 1.06115 -27.6829 -0.146446 -71.1122)
(36.2772 0.0568305 -14.5474 43.9733 -0.443055 110.14)
(120.141 0.0287398 5.23605 113.053 -0.246203 256.186)
(131.527 10.0683 11.9791 86.6212 -22.325 298.994)
(121.351 8.0323 23.411 92.7402 -35.0282 277.396)
(70.9059 2.0299 1.14645 75.5389 -4.54699 194.217)
(72.868 6.26779 8.64596 70.068 -18.697 207.68)
(31.5853 26.422 29.6254 -5.11721 -79.657 160.045)
(-10.4732 4.21858 10.5032 -17.8726 -3.54354 -33.9386)
(44.2366 8.19987 1.18662 41.2983 -20.8857 147.662)
(42.7207 1.75374 -10.1118 48.7148 -3.03608 129.471)
(-11.0069 2.8381 8.1941 -17.9568 -1.77001 -39.3563)
(44.758 5.62983 -3.11836 45.6732 -13.187 142.977)
(-77.2739 0.0996178 -26.0122 -76.1681 0.0490081 -176.673)
(-31.2591 -0.0351593 -15.8296 -27.2955 -0.0878079 -59.9102)
(-77.4862 -0.102132 -25.9562 -76.461 -0.0747059 -177.444)
(-31.3427 0.0233434 -15.8553 -27.3699 -0.0321814 -60.097)
(-77.7334 -0.131522 -26.2027 -76.618 -0.0836756 -177.707)
(-77.8223 0.0812006 -26.1099 -76.7473 0.0477278 -178.073)
(110.825 0.0215466 10.3196 104.373 0.687254 237.232)
(60.827 -0.0276805 -4.20284 68.1233 0.0404728 166.119)
(61.2543 0.030261 -4.19747 68.577 0.245138 167.201)
(34.9138 0.103162 -14.5219 42.5543 0.421435 107.107)
(-23.6149 -0.003712 0.503198 -29.7783 0.0203061 -75.9285)
(33.6445 -0.0183005 -14.8943 41.3128 0.173971 103.989)
(33.0785 -0.0453446 -14.934 40.7043 -0.0203355 102.642)
(-23.8908 0.0373749 0.446014 -30.0662 0.253577 -76.604)
(33.3696 0.0478663 -14.9562 41.0397 0.262481 103.313)
(-76.6844 -0.104747 -25.8135 -75.5955 -0.0303221 -175.358)
(-30.9087 0.0406311 -15.7516 -26.9218 0.141752 -59.0569)
(-77.6991 0.0914547 -26.0639 -76.6151 0.0793389 -177.761)
(-78.1633 0.110619 -26.3814 -76.9823 0.0771539 -178.502)
(-31.206 -0.0183516 -15.8167 -27.2302 0.0857668 -59.7671)
(-77.5326 -0.0965138 -26.0055 -76.4821 -0.0468844 -177.471)
(-18502.8 -2329.59 52169.7 -16317.2 3085.65 -1.3797e+06)
(-13342.7 -1803.86 74617.1 2422.8 3700.51 -1.15204e+06)
(-20922.4 -2514.29 49098.8 -17904.9 2855.97 -1.43804e+06)
(-46951.3 -1248.13 39517.3 -29266.9 2718.02 -1.62103e+06)
(-39664.2 -850.935 38431.4 -27480.5 2335.92 -1.56062e+06)
(-15560.8 -1975.62 74791.7 2451.46 3658.3 -1.16975e+06)
(-31980 -3339.49 51620.1 -20104.6 3602.75 -1.51898e+06)
(-22407.2 -2624.74 48477.5 -18504.2 2854.35 -1.45769e+06)
(-50.5617 1.07721 -13.2955 -49.7658 -0.313677 -113.687)
(-79.491 57.7761 60.8238 -111.619 -86.1741 23.984)
(-46.151 3.82783 -3.74626 -43.6238 -5.21417 -88.7009)
(-126.568 98.1888 99.415 -181.69 -148.01 19.2062)
(-126.695 60.1265 69.8146 -120.15 -84.744 -62.5008)
(-55.2219 7.41795 0.254681 -50.2759 -9.7239 -92.3434)
(-23919 -6741.49 -9092.39 -56583.6 -31575.7 -25119.4)
(-825.093 626.699 1016.38 -4369.3 -5813.56 -137.49)
(-15555.6 5980.75 4267.89 -39254.1 -34304.3 -30399.7)
(-55554.9 -6193.2 96966.5 -26139 -16297.4 -505913)
(-22901.7 611.039 100197 2437.12 -4282.12 -703828)
(-82111.4 -944.261 89468.5 -21045.3 -11129.3 -736495)
(-201594 12633.3 85394.6 -150004 -40182.1 -748846)
(-144503 -10212.4 108977 -11776.4 4962.97 -1.16159e+06)
(-8230.59 -780.238 8489.92 -14368.7 -28471.2 -25090.7)
(-104205 -4910.18 85959.7 -11108 523.213 -811421)
(11228.3 15265.3 29966.3 -21279.3 -40631.6 15691.2)
(-26255.1 -681.429 97900.5 3713.23 -2487.54 -806651)
(-96533.9 -8289.86 102859 8863.5 5894.47 -1.14723e+06)
(-89451.1 -3224.9 92494.6 -17721.9 -8370.4 -842373)
(-350.229 800.002 1213.21 -2987.57 -4813.48 554.912)
(-23264.6 2216.84 5601.16 -50171.8 -19272.6 -20140.5)
(-21069.4 7990.52 7700.86 -43613 -35753.9 -35750.5)
(1549.24 926.15 99615.8 1046.04 1469.79 -711762)
(-4575.97 621.832 82357.3 5891.8 1548.71 -1.03665e+06)
(-1019.95 980.845 99393.6 1226.54 397.279 -748034)
(-250.117 -3807.77 108625 13816.1 3231.89 -439239)
(-16728.1 1068.84 101777 589.927 -3546.53 -695746)
(-2881.08 1436.46 103268 195.75 -745.849 -661911)
(-6761.87 468.636 82456.1 6055.51 1370.81 -1.05268e+06)
(-18581 59.2005 98942.5 1667.98 -2116.22 -797727)
(-3124.65 908.747 99315.4 1447.98 -56.2165 -760213)
(-51827.6 -1556.41 43253 -29720.8 3159.87 -1.64361e+06)
(-90727.6 -3207.46 85027.5 -28125.5 7855.35 -1.72743e+06)
(-551379 26572.9 338640 -451329 -78846.4 -1.65523e+06)
(-159751 -14516.6 122358 -18089.2 6773.4 -1.30763e+06)
(-7401.26 7393.69 8829.05 -22319 -32196.1 -23784.5)
(-141880 -9996.81 134952 -29758.4 11254.4 -1.65939e+06)
(-15444.2 6031.83 5608.41 -25440.8 -10268.3 -10057.4)
(-39173.3 -3838.64 56460 -20892.4 4250.25 -1.54202e+06)
(-102843 -11104.6 108486 9611.74 13548.9 -1.274e+06)
(-89427.2 -7161.26 99132.4 -18841.6 11000 -1.61298e+06)
(-233.463 133.211 150.029 -238.244 -188.867 -53.749)
(-18779.2 4521.17 5420.54 -43206.9 -17772 -16668.9)
(-1563.92 1480.72 1605.44 -1542.56 -2329.34 811.834)
(-24531 -445.647 47661.2 -16374.2 3259.45 -948159)
(-23676 -426.708 46948.8 -15777 3204.83 -885462)
(-8589.36 -946.872 76035.3 1781.93 4842.17 -638456)
(-13176.2 -1400.72 55433.2 -10296.2 3754.83 -803976)
(-13721.9 -1521.54 56589.7 -10820 3845.67 -881357)
(-8714.92 -990.829 76460.5 1795.14 4875.84 -653599)
(-13318.7 -1429.84 55743.1 -10430.1 3779.94 -823179)
(-1573.8 320.666 99343.7 1079.81 2981.71 -528923)
(-4123.56 274.548 86059.4 4221.44 3372.47 -696799)
(-1719.02 314.533 98435.1 1108.68 2987.19 -498674)
(411.44 -3542.89 102161 8065.06 5646.17 -278218)
(-1982.68 467.359 99487 281.554 2741.18 -398624)
(-1912.85 463.295 100782 226.067 2807.68 -424322)
(-4089.32 287.516 85768.8 4176.61 3365.52 -682704)
(-1749.27 317.623 96914.5 1180.3 2933.48 -458832)
(-1711.74 312.478 98115.9 1149.31 2973.23 -488619)
(-24810.7 -451.953 47876.7 -16571.9 3275.42 -969248)
(-25640.7 -474.961 48445.8 -17159.6 3315.13 -1.03301e+06)
(-14729 -1779.56 58163.4 -11854.2 3931.04 -1.03985e+06)
(-9601.82 -1353.85 79151.9 1903.89 5063.75 -777153)
(-14351.4 -1679.95 57709.9 -11455.8 3919.31 -979937)
(-13851.3 -1552.08 56844.9 -10947.8 3864.5 -900924)
(-9504.27 -1308.46 78888.6 1889.28 5051.63 -761503)
(-14228.3 -1647.1 57518.2 -11328.8 3909.52 -960081)
(-3643.03 398.892 82633.5 3829.42 3202.18 -571956)
(-1654.67 325.769 94509.3 1284.47 2796.16 -409928)
(53.1228 -3132.46 99506.9 7562.88 5428.29 -246032)
(-1899.63 467.192 99111.6 381.603 2735.89 -389985)
(-1911.77 473.847 97542.6 432.999 2633.07 -364711)
(-3710.04 386.284 83099.9 3873.29 3230.06 -585580)
(-1717.44 317.791 96498.3 1219.91 2907.39 -448936)
(-1698.5 325.401 95019.3 1247.22 2831.69 -419646)
(-76.8354 -0.13578 -25.8019 -75.7862 -0.10745 -175.831)
(-29.2544 0.00808744 -15.3879 -25.2792 -0.191492 -55.2055)
(-76.0055 0.0740343 -25.3543 -75.0532 0.0161707 -174.238)
(-28.8006 -0.0583256 -15.2754 -24.8197 -0.267259 -54.1531)
(-75.5435 -0.110757 -25.1424 -74.6378 -0.106148 -173.319)
(120.301 0.0781619 5.29334 113.125 0.206843 256.667)
(126.133 1.22567 6.84824 114.896 -1.97187 271.688)
(116.294 0.589201 12.343 108.603 -1.50516 250.871)
(69.799 1.44693 -0.137128 75.3994 -2.62216 190.278)
(66.4401 0.448257 -2.48765 73.4015 -0.172462 180.456)
(35.442 0.0321127 -14.3875 43.0817 0.272021 108.431)
(-20.3209 0.182088 1.55057 -26.537 0.4984 -68.286)
(37.3826 0.279709 -13.8227 44.9576 0.280102 113.411)
(41.6475 1.27289 -11.2729 48.2541 -1.58244 125.677)
(-19.4881 0.188468 1.86031 -25.6984 0.243672 -66.1995)
(38.252 0.343871 -13.4781 45.7583 -0.0191259 115.77)
(-55.0083 0.585764 -15.9363 -54.2499 -0.0601857 -125.012)
(-15.7918 2.55231 -8.03398 -11.2838 -1.34165 -14.5825)
(-64.428 0.188927 -20.329 -63.7535 0.147753 -148.071)
(-17.2183 1.64287 -9.78394 -12.7998 -0.569271 -21.0104)
(-70.0395 0.210632 -22.9582 -69.2645 0.252169 -160.889)
(-64.2683 -0.0215862 -20.422 -63.813 0.0417382 -148.409)
(-76.7108 0.131496 -25.7858 -75.5972 0.126881 -175.34)
(-27.7476 0.0751885 -14.9305 -23.6884 0.365622 -51.4248)
(-74.7817 -0.0958243 -24.9129 -73.8664 -0.00881129 -171.508)
(-26.8131 0.152689 -14.6614 -22.7121 0.404995 -49.0875)
(-71.427 -0.0119906 -23.6933 -70.5449 0.106504 -163.791)
(-75.153 0.0766906 -25.0538 -74.1391 0.115418 -172.089)
(30136.3 163.76 50751.2 12160.7 -5059.33 -1.32277e+06)
(19683.1 4946.55 71543.3 955.148 -7110.7 -1.08918e+06)
(32522.4 20.7224 46283.7 13635.2 -4760.15 -1.37449e+06)
(36592.2 -944.424 36243.2 22228.5 -3205.07 -1.54342e+06)
(38478.6 -1306.63 35374.1 19843.5 -3486.87 -1.4911e+06)
(18715.9 5034.26 70706.8 905.043 -7150.69 -1.10401e+06)
(26591.3 381.602 47123.4 15910.8 -4513.39 -1.44368e+06)
(32630 9.20543 45183.3 14177.1 -4659.25 -1.39145e+06)
(-7123.64 5922.15 69769.5 -24222.8 -18486.1 -367683)
(-9094.56 3004.5 93143.7 -6133.88 -13239.5 -647332)
(-54620.9 1827.69 76524.2 -13507.5 -10961.7 -653853)
(-256946 14866.1 40394.1 -201591 110466 -746446)
(-111639 6943.77 99854.2 -4834.44 -5789.78 -1.08625e+06)
(-94017.6 3652.79 75643.2 -31779.8 -6297.75 -762650)
(-10102.7 1698.66 90871.9 -3783.99 -11626.1 -750406)
(-76176.9 4158.92 94191.6 -523.37 -8095.18 -1.08848e+06)
(-59589.5 1213.05 80457.3 -8299.19 -9342.89 -758392)
(11135.9 1154.03 100430 -3513.51 -6886.38 -671711)
(11555 3785.4 80419.8 -247.501 -6555.77 -994528)
(10810.8 1394.27 98136.9 -3839.99 -7808.42 -704103)
(18056.9 5723.4 106974 -3850.32 -10788.9 -354724)
(-2443.66 2734.68 96099.7 -6155.94 -11644.7 -641123)
(7984.57 2226.44 101511 -5806.56 -8791.18 -616051)
(10111.4 3829.84 79734.8 -357.954 -6722.4 -1.00864e+06)
(-2216.41 1709.04 93057.6 -3981.91 -10380 -743060)
(9561.13 1503.75 97143.5 -3919.16 -8281.48 -714568)
(32615.5 -506.776 40193.2 22922.2 -3360.97 -1.56297e+06)
(-12558.3 3874.69 83097.5 24012.7 -5459.96 -1.64313e+06)
(-413811 37723.7 273280 -157121 80345 -1.60133e+06)
(-105158 11203.7 107420 -4786.99 -8381.71 -1.1939e+06)
(-79501.5 9836.02 120215 16855.6 -8382.54 -1.54802e+06)
(20040.7 864.811 51585.2 16345.9 -4705.68 -1.46276e+06)
(-66540.7 8143.72 95008.3 781.552 -8381.12 -1.1946e+06)
(-37008.2 5517.97 92081.4 17683 -6075.55 -1.53078e+06)
(-18031.1 -2290.24 53206.8 -15851.7 3189.4 -1.36019e+06)
(-10092.1 -1722.97 78213.2 2172.13 4507.37 -1.03366e+06)
(-17032.5 -2193.95 55756.9 -14663.9 3475.63 -1.3011e+06)
(-30114.8 -596.92 48530.9 -20506.5 3197.55 -1.31397e+06)
(-31680.9 -629.289 47287.1 -21777.5 3052.96 -1.37814e+06)
(-10121.9 -1734.82 78695.3 2149.2 4606.68 -1.01726e+06)
(-16129.7 -2072.12 57693 -13488.9 3737.19 -1.22114e+06)
(-16778.2 -2163.54 56389.6 -14332.4 3554.9 -1.28122e+06)
(1663.19 -4122.92 104988 8931.17 5714.29 -333442)
(-665.846 608.458 103474 -197.265 2571.31 -531012)
(-1353.61 532.509 103041 -177.069 2702.32 -503798)
(-1534.51 328.435 99557.6 1039.02 2979.55 -539134)
(-4077.59 232.211 87269.6 4554.71 3307.16 -796730)
(-1195.26 358.262 100143 1015.87 2915.31 -569877)
(-436.689 450.068 100464 970.908 2740.73 -611668)
(-4007.61 238.785 87296.1 4607.51 3276.04 -811174)
(-1075.39 377.511 100240 977.465 2890.86 -580272)
(1654.84 865.663 99781.5 1031.06 1708.93 -699993)
(-2589.56 482.925 85544 5130.96 2708.6 -928571)
(1020.43 680.309 100151 946.141 2265.51 -665878)
(3119.52 -4267.61 106303 9655.32 5456.01 -368883)
(-491.641 649.037 103440 -292.392 2481.58 -540391)
(500.333 796.836 103621 -269.477 2192.94 -568656)
(-2830.77 432.736 85976.5 5050.74 2820.97 -913658)
(-206.606 487.137 100433 938.587 2681.17 -622333)
(737.045 620.764 100292 964.342 2387.29 -654767)
(-29655.5 -586.912 48778.8 -20143.4 3231.19 -1.29239e+06)
(-28433.5 -558.224 49159.7 -19200.9 3300.52 -1.22736e+06)
(-14859.8 -1813.01 58268 -11995.2 3928.22 -1.05992e+06)
(-10132.8 -1634.48 80204.9 2009.47 5035.9 -888033)
(-15280.9 -1912.65 58396.9 -12464.8 3895.23 -1.12032e+06)
(-15941 -2041.03 57957.4 -13251.6 3781.42 -1.20101e+06)
(-10174.2 -1664.08 80212 2026.16 5010.27 -904038)
(-15433.5 -1945.19 58364.8 -12640.4 3875.14 -1.1405e+06)
(29116.1 218.083 52209.9 11750.7 -5140.02 -1.30503e+06)
(15654.9 4587.04 79541 991.975 -7090.29 -982609)
(26199.4 355.213 55828.6 10747.9 -5317.87 -1.25014e+06)
(26174.4 -841.787 48942.9 13537.2 -4502.65 -1.2642e+06)
(28412.4 -953.039 47054 14449.6 -4402.66 -1.32542e+06)
(14866.8 4538.47 80353.7 981.855 -7090.75 -967116)
(23220.8 459.899 58730.3 9869.54 -5427.01 -1.1739e+06)
(25347.1 389.765 56750.1 10485.1 -5356.93 -1.23136e+06)
(7772.45 3267.09 111775 -2411.48 -7785.4 -263169)
(3994.64 1209.67 106654 -4250.73 -5703.92 -494491)
(2831.8 1161.8 106321 -4067.44 -5541.33 -467886)
(3458.06 824.621 102570 -2549.98 -5465.5 -505076)
(5355.95 2960.91 89579.2 262.257 -5504.27 -765338)
(4149.4 845.009 103193 -2671.96 -5562.38 -535264)
(5624.6 885.901 103410 -2867.4 -5759.15 -576174)
(5614.4 3003.11 89575.6 270.064 -5535.56 -779556)
(4442.27 856.965 103293 -2732.6 -5614 -545449)
(10634.4 1094.24 101063 -3406.11 -6659.29 -660830)
(9433.8 3391.25 86850.4 215.288 -5869.18 -894015)
(8602.41 982.457 102424 -3181.52 -6201.43 -628609)
(11364.5 3696.23 112816 -2584.32 -8161.9 -296519)
(4422.42 1228.28 106596 -4375.12 -5788.56 -503600)
(6193.79 1312.21 106387 -4596.61 -6076.65 -530960)
(8778.76 3337.56 87508.6 239.153 -5813.14 -879656)
(6112.36 902.285 103314 -2935.21 -5833.85 -586558)
(7924.65 953.737 102768 -3099.41 -6078.23 -617966)
(25590.8 -811.144 49357.7 13306.3 -4520.6 -1.24342e+06)
(24221.5 -734.304 50112.1 12774.9 -4539.99 -1.18034e+06)
(19957.9 483.181 60081 9037.7 -5387.63 -1.01675e+06)
(10822.3 4101.42 83096.2 890.602 -7001.03 -842199)
(20878.1 493.108 60051.8 9255.33 -5427.28 -1.07595e+06)
(22646.3 473.564 59163.7 9712.84 -5436.64 -1.15447e+06)
(11133 4158.98 83044.5 901.975 -7020.6 -857838)
(21251.9 492.508 59936.7 9348.2 -5435.71 -1.09566e+06)
(21580.5 -528.78 48957.3 11824.4 -4374.42 -906282)
(21176.4 -499.878 48188.1 11665.2 -4313.56 -844678)
(8839 3154.43 78687 763.739 -6571.67 -597631)
(17488.4 334.712 57169.1 8463.54 -5114.43 -765104)
(18153.1 390.864 58423.6 8637.54 -5211.48 -841102)
(8900.16 3216.3 79153.1 767.32 -6602.9 -612407)
(17654.9 349.489 57506.5 8510.17 -5139.94 -783947)
(3297.07 814.781 102321 -2491.86 -5426.49 -495059)
(4352.35 2695.54 88349 178.28 -5319.05 -666753)
(2910.5 797.63 101313 -2374.96 -5357.5 -465367)
(5054.93 2639.47 107996 -2427.19 -7464.43 -211266)
(1184.35 1039.6 102332 -3240.79 -5204.6 -365062)
(1390.69 1070.51 103738 -3403.23 -5246.01 -390120)
(4282.93 2659.88 88036.1 164.809 -5296.47 -652847)
(2605.84 770.68 99622.7 -2197.96 -5276.27 -426367)
(2825.47 788.357 100946 -2317.49 -5326.76 -455521)
(21714.8 -539.82 49184.9 11875 -4393.02 -927018)
(22133 -576.646 49766.6 12022.7 -4443.05 -989743)
(19703.4 476.729 60005.8 8980.71 -5370.88 -997032)
(9527.88 3695.54 82100.2 818.634 -6829.21 -733444)
(19047.1 451.446 59590 8837.41 -5315.65 -938096)
(18321.5 404.36 58695.9 8677.63 -5234.07 -860342)
(9422.05 3637.21 81815.6 809.264 -6802.24 -718080)
(18854.1 441.036 59398.4 8796.15 -5295.79 -918553)
(4002.21 2366.21 84672.2 82.4503 -5136.33 -543853)
(2400.51 730.349 96991.4 -1955.39 -5189.15 -378744)
(4245.9 2273.66 104680 -2430.03 -7313 -181885)
(1188.46 1032.19 101874 -3130.89 -5178.26 -356679)
(1068.64 999.119 100194 -2965.85 -5151.46 -332173)
(4022.83 2404.94 85170.7 89.8671 -5156.06 -557225)
(2561.07 761.132 99155.5 -2139.31 -5250.79 -416713)
(2428.22 741.197 97552.6 -2015.17 -5211.32 -388176)
(-30829.3 -242.601 20824.2 -14484.9 2282.93 -1.69619e+06)
(-31421.1 -394.169 19918.7 -14953.6 2214.57 -1.71646e+06)
(-345318 -61385.7 417365 -46101.8 -673.835 -2.29292e+06)
(-196378 -22243.9 235615 3849.71 -30887.7 -2.09834e+06)
(-23294.6 -63.6245 24895.8 -10444.4 2472.75 -1.28649e+06)
(-22971 -109.535 24839.3 -10347.2 2464.83 -1.26146e+06)
(6873.29 -11475.3 19615 16738.2 -1624.15 -1.67087e+06)
(7476.18 -11696.1 18572.7 17250.1 -1513.81 -1.69033e+06)
(-335125 52976 415900 -66437.2 -11177.4 -2.30522e+06)
(-164472 16288.2 219097 -4647.51 -37083.8 -2.08747e+06)
(-30247.7 -121.257 21620.6 -14042.9 2339.4 -1.67508e+06)
(-29685.1 -23.4929 22306.9 -13635.1 2384.83 -1.65322e+06)
(-23626.6 -18.5509 24940.7 -10550.7 2480.25 -1.31157e+06)
(-23964.8 23.2681 24972.5 -10660.3 2487.15 -1.33668e+06)
(6332.79 -11248.2 20556.9 16267.4 -1727.69 -1.6505e+06)
(5847.22 -11024.1 21391.2 15818.5 -1822.54 -1.62934e+06)
(3972.54 -8617.18 25208.1 12430.4 -2330.44 -1.2929e+06)
(3926.87 -8749.95 25211.2 12558.2 -2326.29 -1.31782e+06)
(4029.62 -8488.21 25186.4 12311.9 -2332.05 -1.268e+06)
(4096.42 -8361.05 25148.1 12201.4 -2331.43 -1.24313e+06)
(-45.9619 -0.0546539 -12.8504 -41.562 -0.318564 -92.6928)
(-23.6337 -0.0212153 0.606899 -29.9379 -0.270427 -76.2278)
(-46.8222 -0.0923772 -12.954 -42.4591 -0.483224 -94.8248)
(-24.3183 0.00407318 0.446632 -30.6196 0.092196 -77.7665)
(-46.9109 0.0378773 -13.0373 -42.5204 0.208655 -94.9154)
(-47.5008 0.0493642 -13.0968 -43.1447 0.251117 -96.3933)
(-61.7594 35.7619 25.768 -85.4183 -47.4932 -30.2852)
(-37.6572 35.7023 48.8686 -69.2646 -48.5453 -2.93434)
(-87.9338 54.9203 42.0267 -138.421 -78.7664 -34.082)
(-428.527 378.44 341.051 -912.443 -677.64 -88.4848)
(-1625.66 734.889 555.051 -3864.16 -1828.75 -937.03)
(-523.129 446.06 347.299 -1209.11 -880.607 2.55711)
(-45.7781 -0.00588605 -12.7963 -41.3884 0.021216 -92.2695)
(-22.7485 -0.0270532 0.855858 -29.1017 -0.130978 -74.2801)
(-46.032 -0.00314289 -12.7651 -41.6819 0.0212188 -92.9901)
(-50.7035 23.7967 14.6792 -63.8524 -29.5251 -36.7121)
(-11.2669 9.88027 18.4722 -21.2924 -9.77788 -19.7173)
(-43.6598 15.8297 6.81157 -48.7199 -17.6711 -43.5495)
(-38.979 1.5639 -9.30319 -34.94 -0.785221 -72.4706)
(-13.5217 1.36065 5.32136 -20.2181 -0.204199 -49.9124)
(-38.6891 2.27079 -8.29255 -34.9458 -1.36481 -69.8269)
(-58.8004 0.0769037 -20.8427 -53.555 0.044312 -119.816)
(-30.5201 0.0311856 -15.5476 -26.6805 -0.0695755 -58.4568)
(-58.1868 0.0639067 -20.5986 -53.0352 0.016059 -118.579)
(-31.1661 -0.0365013 -15.6845 -27.3382 -0.0529064 -59.9675)
(-59.5088 -0.0913745 -21.0028 -54.2713 -0.139504 -121.491)
(-58.7573 -0.0638463 -20.7256 -53.6233 -0.0947939 -119.946)
(-45.406 0.13808 -12.6354 -40.9825 0.449204 -91.2594)
(-23.1402 0.0455438 0.762254 -29.4381 0.332361 -75.044)
(-46.3939 0.132338 -12.8126 -42.005 0.49238 -93.7025)