/*--------------------------------*- C++ -*----------------------------------*\
| =========                 |                                                 |
| \\      /  F ield         | OpenFOAM: The Open Source CFD Toolbox           |
|  \\    /   O peration     | Version:  2012                                  |
|   \\  /    A nd           | Website:  www.openfoam.com                      |
|    \\/     M anipulation  |                                                 |
\*---------------------------------------------------------------------------*/
FoamFile
{
    version     2.0;
    format      ascii;
    class       volVectorField;
    location    "0.107/solid";
    object      sigmaMinDir;
}
// * * * * * * * * * * * * * * * * * * * * * * * * * * * * * * * * * * * * * //

dimensions      [1 -1 -2 0 0 0 0];


internalField   nonuniform List<vector> 
3125
(
(0.0795243 -0.00668573 0.996811)
(0.104611 -0.461207 0.881104)
(0.0396805 -0.00143972 0.999211)
(0.0798386 -0.00190575 0.996806)
(0.0391125 -0.00225974 0.999232)
(0.0637942 -0.231847 0.970658)
(0.115946 -0.410786 0.904329)
(0.0536806 -0.285874 0.956763)
(0.0823787 0.00515543 0.996588)
(0.102667 0.993543 0.0482901)
(0.961235 -0.144211 0.23501)
(0.952413 -0.0782858 0.294584)
(0.0404245 0.00110973 0.999182)
(0.0417796 -0.00153848 0.999126)
(0.0830827 -0.000603005 0.996542)
(0.448521 0.885168 0.123716)
(0.959288 0.0329215 0.280503)
(0.953914 -0.0865592 0.287323)
(0.961237 -0.134249 0.240833)
(0.934593 0.0019353 0.355715)
(0.956335 0.027249 0.291001)
(0.931162 -0.00143233 0.364602)
(0.99996 -2.57215e-05 0.00892092)
(0.0793187 0.00278471 0.996845)
(0.999988 -0.0010384 0.00483889)
(0.537751 -0.171724 0.82543)
(0.0560292 -0.56999 0.819739)
(0.209111 -0.397847 0.893303)
(0.999922 -0.00615889 0.0108464)
(0.0385098 0.000535188 0.999258)
(0.0573402 -0.0547444 0.996853)
(0.108652 -0.0613938 0.992182)
(0.664843 -0.0652068 0.744131)
(0.985461 0.133325 0.105312)
(0.912444 0.0189751 -0.408762)
(0.915486 -0.0065546 -0.402296)
(0.0794543 -0.00210822 0.996836)
(0.999866 0.0090324 0.0136247)
(0.999986 0.0019226 0.0049591)
(0.910113 -0.0250734 -0.4136)
(0.915288 0.0028435 -0.402789)
(-0.173487 0.984801 -0.00833606)
(-0.107644 0.994183 -0.00349416)
(0.116906 -0.303068 0.945771)
(0.215706 -0.40195 0.889892)
(0.107085 -0.573311 0.81231)
(-0.214324 0.975986 -0.0389405)
(0.179296 0.977918 0.107377)
(-0.055028 0.99848 -0.00314704)
(0.122015 -0.467382 0.875595)
(0.556103 0.829705 0.0483617)
(0.813894 -0.551612 0.182488)
(-0.036254 0.999341 -0.00175703)
(0.124806 0.990973 0.0489458)
(-0.106723 0.994283 -0.00342099)
(0.133024 -0.469673 0.872761)
(-0.225669 0.974036 -0.0180743)
(0.935744 0.334945 0.110426)
(0.946844 -0.0549319 0.316969)
(0.965472 0.227208 0.127437)
(-0.221779 0.974975 -0.0154154)
(-0.223942 0.974444 -0.0175706)
(0.94462 -0.0479225 0.324647)
(0.96733 0.217776 0.129796)
(0.911493 0.0112189 -0.411163)
(0.0385483 -0.000484459 0.999257)
(0.0513499 -0.0257897 0.998348)
(0.102354 -0.036457 0.99408)
(0.999786 0.0120509 0.0168146)
(0.991188 0.105676 0.0798725)
(-0.0145035 -0.337292 0.941288)
(0.859052 0.0766156 -0.506122)
(0.907966 -0.0167429 -0.418709)
(0.875974 0.0271044 -0.481596)
(0.982176 0.175274 0.067894)
(0.923626 0.379335 0.054958)
(0.969329 0.124805 0.211718)
(0.329351 0.926594 0.181524)
(0.362698 0.931662 0.0213426)
(0.984246 0.155877 0.0834443)
(0.968228 0.0724497 0.239343)
(0.838831 0.541044 0.0602804)
(0.323836 0.932834 0.157961)
(0.742584 0.668357 0.0432182)
(-0.183139 0.983045 -0.00913359)
(-0.215284 0.976467 -0.0128149)
(0.957567 -0.110463 0.2662)
(0.926631 0.36023 0.107654)
(0.800823 0.593092 0.0832189)
(0.636417 0.769286 0.0563179)
(0.958603 -0.11728 0.259471)
(0.781867 0.618315 0.0798213)
(-0.221727 0.974991 -0.0151659)
(-0.216957 0.976093 -0.013163)
(0.981809 0.176484 0.0700275)
(0.978863 0.186482 0.0839763)
(0.944278 0.012248 0.32892)
(0.983425 0.137793 0.117851)
(0.982669 0.153828 0.10343)
(0.984178 0.155046 0.0857592)
(0.947356 0.0157195 0.319795)
(0.982719 0.154903 0.101334)
(0.979933 0.173412 0.0982837)
(0.97873 0.186345 0.0858061)
(0.983288 0.140693 0.115545)
(0.983599 0.134713 0.11994)
(0.920078 -0.0111777 0.391576)
(0.984552 0.110994 0.135417)
(0.980285 0.170366 0.100087)
(0.98294 0.144742 0.113484)
(0.916085 -0.0142468 0.400732)
(0.984615 0.107461 0.13779)
(-0.0375886 -0.00389094 0.999286)
(0.0797397 0.000719741 0.996815)
(-0.0401438 -0.00186895 0.999192)
(0.147552 -0.412572 0.898895)
(0.0544172 -0.544639 0.836903)
(0.141515 -0.509262 0.848897)
(0.0402068 -0.00335348 0.999186)
(0.0810845 -0.00898927 0.996667)
(-0.0370214 -0.00386714 0.999307)
(-0.0348525 -0.00590128 0.999375)
(0.0386178 -0.000354729 0.999254)
(0.0678237 -0.1639 0.984143)
(0.134406 -0.232528 0.963258)
(0.13823 -0.360208 0.922574)
(0.077722 -0.179954 0.9806)
(0.0812072 -0.000727146 0.996697)
(-0.0345183 0.00399996 0.999396)
(-0.0387051 0.00252797 0.999247)
(-0.0667298 0.997771 -0.000160078)
(-0.0691433 0.997607 -0.000233046)
(0.6147 0.624489 -0.481827)
(-0.0903257 0.995126 0.0395761)
(0.135692 0.990408 -0.0260627)
(-0.0247222 0.999631 -0.0112216)
(-0.116619 0.713783 -0.690589)
(0.984379 0.0735354 0.159969)
(0.959366 -0.164896 0.228969)
(0.984176 0.0897429 0.152787)
(0.794701 -0.555962 0.243632)
(-0.0507982 0.998708 0.00099902)
(-0.0465896 0.998913 0.00118457)
(0.976641 0.0526072 0.208336)
(0.950739 -0.0701829 0.301944)
(0.974696 0.0518977 0.217428)
(-0.0544152 0.998518 0.000605519)
(-0.0518909 0.998652 0.000768592)
(0.939617 -0.0352453 0.340408)
(0.967531 0.049071 0.247941)
(0.0393407 -0.000274249 0.999226)
(0.0437076 -0.00311654 0.99904)
(0.0880869 0.000151822 0.996113)
(-0.0327494 0.00335133 0.999458)
(-0.0257633 0.00135815 0.999667)
(0.997046 -0.0713576 0.0284226)
(0.997165 -0.0712024 0.0243221)
(0.706467 0.703718 0.0754015)
(0.259509 0.944529 0.201296)
(0.0964664 0.995336 0.000728399)
(0.985342 0.0123955 0.170138)
(0.962244 0.0407587 0.269119)
(0.986914 0.0218708 0.159755)
(0.174927 0.98264 0.0618002)
(0.127929 0.991776 0.00373004)
(-0.0659031 0.997826 -0.000120671)
(-0.0636503 0.997972 7.99573e-06)
(0.955256 -0.0948552 0.280159)
(0.9773 0.0528993 0.205148)
(0.979035 0.0538795 0.196439)
(0.9842 0.0698329 0.162708)
(0.960516 -0.128536 0.246756)
(0.983326 0.0628519 0.170647)
(-0.0552174 0.998474 0.000553567)
(-0.0575643 0.998342 0.000402935)
(0.997012 -0.0712582 0.0298111)
(0.996931 -0.070673 0.0336694)
(0.937912 0.00537033 0.346833)
(0.974603 -0.00394672 0.223906)
(0.976832 -0.00166062 0.214003)
(0.984745 0.0102511 0.173699)
(0.953372 0.0229718 0.300923)
(0.982928 0.00589137 0.183895)
(0.996825 -0.0656819 0.0450027)
(0.996828 -0.0672803 0.0425046)
(0.996591 -0.0600293 0.0565913)
(0.973788 -0.00452753 0.227412)
(0.927608 -0.00475324 0.373524)
(0.971321 -0.0068381 0.237674)
(0.996823 -0.0651487 0.0458279)
(0.996814 -0.0634504 0.0483297)
(0.907606 -0.0201607 0.419338)
(0.962293 -0.0137534 0.271667)
(-0.19565 -0.00521684 0.98066)
(0.999964 0.00308627 0.00793664)
(-0.201986 -0.00144405 0.979387)
(0.0795441 -0.00486383 0.996819)
(-0.0399713 0.000410172 0.999201)
(-0.0403462 -0.00177463 0.999184)
(0.999966 -0.00411394 0.00720155)
(-0.201721 0.00122136 0.979442)
(-0.202432 -0.00265477 0.979293)
(0.137253 -0.402816 0.904931)
(0.326416 -0.334365 0.884111)
(0.166261 -0.485643 0.858201)
(0.0666724 -0.55796 0.827185)
(0.115118 -0.543315 0.831599)
(0.132587 -0.530664 0.837148)
(0.269261 -0.378644 0.88551)
(0.151116 -0.513216 0.844851)
(0.159419 -0.509285 0.845703)
(-0.0338367 -0.00595032 0.99941)
(-0.194314 -0.00380176 0.980932)
(0.999794 -0.00779537 0.0187513)
(-0.188812 -0.00747623 0.981985)
(0.99977 -0.00205542 0.0213557)
(-0.186515 -0.00646833 0.982431)
(0.0384018 -0.00170871 0.999261)
(0.0638672 -0.0999322 0.992942)
(0.130012 -0.17104 0.976648)
(0.00865043 -0.0380775 0.999237)
(0.0562634 -0.129197 0.990022)
(0.111188 -0.356112 0.927805)
(0.920827 0.229795 0.315075)
(-0.00336592 -0.186257 0.982495)
(-0.114787 -0.0391851 0.992617)
(0.943512 0.233221 0.235357)
(-0.0383665 -0.133808 0.990264)
(0.970955 0.016069 -0.238722)
(0.914057 0.00113584 -0.405585)
(0.971345 -0.0153337 -0.237177)
(0.914197 0.0112584 -0.405114)
(0.97081 -0.0201727 -0.239)
(0.971235 0.0126947 -0.237784)
(0.0808335 0.00513643 0.996714)
(-0.0398213 0.000423205 0.999207)
(-0.0395246 0.00246732 0.999216)
(-0.190065 0.00585059 0.981754)
(0.999954 -0.000570104 0.0096173)
(-0.198948 0.0026504 0.980007)
(-0.201394 -0.000165929 0.97951)
(0.999943 0.00639636 0.00849079)
(-0.200685 0.00378851 0.979648)
(0.97094 -0.0179671 -0.238648)
(0.912735 -0.00679855 -0.408495)
(0.971224 0.0132021 -0.237802)
(0.970716 0.0166648 -0.239651)
(0.913681 -0.016893 -0.406081)
(0.97124 -0.0155469 -0.237596)
(-0.690788 0.722633 -0.0247589)
(-0.13867 0.990322 -0.00578725)
(-0.606093 0.795159 -0.0193305)
(-0.0701414 0.997537 -3.79862e-05)
(-0.0700763 0.997542 -0.000236733)
(-0.1282 0.991735 -0.00508362)
(-0.279547 0.960104 -0.00731504)
(-0.542768 0.839719 -0.0165982)
(0.888988 0.420993 -0.180183)
(0.228768 -0.352396 0.907459)
(0.580638 0.803598 -0.130729)
(0.219738 -0.384755 0.896482)
(0.241233 -0.465716 0.851419)
(0.529714 0.832284 -0.163418)
(-0.228836 -0.483454 0.84493)
(0.099959 -0.563457 0.820076)
(-0.0509455 -0.663478 0.746459)
(-0.500936 0.855863 -0.128687)
(0.000319365 0.999982 -0.00601741)
(-0.0464955 0.998691 -0.0213413)
(0.158161 0.986461 -0.0433629)
(-0.0788333 0.996883 -0.00316656)
(-0.304933 0.713084 -0.631289)
(-0.0575875 0.998325 -0.00553073)
(0.472083 -0.354004 0.807353)
(-0.053864 0.998502 -0.00957169)
(-0.0798825 0.996802 -0.00202381)
(-0.067286 0.997577 -0.0176647)
(0.128209 -0.553578 0.822869)
(0.290303 -0.396745 0.870814)
(0.0257115 -0.66417 0.747139)
(0.987687 0.0782153 0.135485)
(0.178561 0.983806 0.0155651)
(0.987164 0.0939791 0.129133)
(0.945804 -0.239581 0.219215)
(0.208578 0.977673 0.0255014)
(0.983445 0.10114 0.150352)
(0.0888661 0.99601 0.00821024)
(-0.0252891 0.999663 -0.00577638)
(0.986128 0.106661 0.127185)
(-0.0697233 0.997566 8.45371e-05)
(-0.0480383 0.998843 0.00221344)
(0.348466 0.936612 0.036471)
(-0.104876 0.994474 -0.0047222)
(-0.0606144 0.706202 -0.705411)
(-0.0886672 0.996061 -0.000463519)
(0.25491 -0.362751 0.896344)
(-0.211675 0.977327 -0.00512324)
(-0.0949874 0.995475 0.00247741)
(-0.0989465 0.995092 0.000713064)
(0.241316 -0.420253 0.874731)
(0.251855 -0.401122 0.880722)
(0.187395 -0.450242 0.873021)
(-0.0485037 0.998822 0.00101294)
(-0.0470322 0.998893 0.00114196)
(-0.244664 0.969365 -0.0217208)
(0.832447 -0.551327 0.0554113)
(0.80016 -0.597759 0.0492769)
(-0.236863 0.971329 -0.0204027)
(0.823968 -0.564079 0.0537748)
(0.982285 0.0548388 0.179192)
(0.953653 0.276805 0.118004)
(0.980767 0.0542605 0.187487)
(0.948884 -0.0623727 0.3094)
(0.97177 0.0508612 0.230381)
(0.973957 0.0516679 0.220767)
(0.957514 0.262055 0.120391)
(0.978511 0.0532275 0.199207)
(0.980232 0.053806 0.190395)
(-0.0489927 0.998799 0.000971839)
(-0.0510589 0.998695 0.000824132)
(0.749713 -0.660563 0.0398233)
(-0.221808 0.974956 -0.0161939)
(0.766517 -0.640782 0.0430046)
(0.792849 -0.607532 0.0479105)
(-0.221895 0.974931 -0.0164745)
(0.772682 -0.633256 0.0441537)
(0.972378 0.187131 0.13951)
(0.975242 0.0512821 0.215113)
(0.942211 -0.0413411 0.332459)
(0.970941 0.0505804 0.233915)
(0.968469 0.0494711 0.244175)
(0.971389 0.193978 0.137027)
(0.9779 0.052745 0.20231)
(0.975942 0.0518508 0.211773)
(0.971085 -0.0201531 -0.237883)
(0.906422 0.0276841 -0.421466)
(0.971667 0.0130833 -0.235993)
(0.904933 0.0190473 -0.425128)
(0.971808 -0.0159525 -0.235232)
(0.0387305 0.00145891 0.999249)
(0.0467806 -0.0121692 0.998831)
(0.0905269 -0.0100803 0.995843)
(-0.00141132 -0.0228254 0.999738)
(-0.0218095 -0.00170104 0.999761)
(-0.186657 0.00383708 0.982418)
(0.99897 0.0315891 0.0325836)
(-0.173481 0.0032068 0.984832)
(-0.130925 -0.0219778 0.991149)
(0.998709 0.0314666 0.0398699)
(-0.166556 -0.00105318 0.986032)
(0.95692 0.203183 -0.207414)
(-0.62641 -0.445939 0.639335)
(0.973846 0.0376224 -0.224071)
(0.727134 0.357465 -0.586084)
(0.9723 0.0311346 -0.231655)
(0.974554 -0.0071676 -0.224038)
(0.970963 0.0186522 -0.238503)
(0.899866 -0.0289501 -0.435206)
(0.971698 -0.0177602 -0.235559)
(0.89564 -0.0136394 -0.44457)
(0.972014 -0.00757285 -0.2348)
(0.971644 0.00930235 -0.236267)
(0.999298 -0.00129643 0.0374385)
(0.981219 0.182717 0.0618334)
(0.999438 -0.00665026 0.0328635)
(0.997518 -0.0665557 0.0230036)
(0.997222 -0.0707846 0.0232099)
(0.979094 0.194316 0.0601377)
(0.999301 0.0194521 0.0319358)
(0.999473 -0.0069651 0.0317022)
(0.980408 0.0823792 0.178924)
(0.984527 0.107301 0.138539)
(0.0161034 0.999755 -0.0151851)
(0.266307 0.942767 0.200677)
(0.065237 0.99787 0.000681)
(0.0548531 0.99849 -0.00292575)
(0.990832 0.0642353 0.118848)
(0.0509868 0.998695 -0.00301608)
(0.00493338 0.999917 -0.0119236)
(0.98978 0.00552757 0.142498)
(0.982205 0.171364 0.0768632)
(0.990983 0.0121879 0.133431)
(0.965201 0.0546765 0.255728)
(0.987881 0.0569386 0.144393)
(0.987342 0.0275883 0.156186)
(0.97937 0.187679 0.0749114)
(0.99198 0.0320838 0.122252)
(0.991326 0.0155926 0.130501)
(0.998167 -0.0550107 0.0252434)
(0.109037 0.994035 0.00217884)
(0.229616 0.968515 0.0962026)
(0.112924 0.993598 0.00319418)
(0.103741 0.994601 0.00264)
(0.991565 0.125057 0.0340555)
(0.122162 0.992506 0.00274839)
(0.10305 0.994674 0.00222449)
(-0.699944 0.713726 -0.0259683)
(-0.203076 0.9791 -0.01107)
(0.709813 -0.7038 0.028817)
(-0.0608434 0.998147 0.000184645)
(-0.0629103 0.998019 5.31283e-05)
(-0.207231 0.978224 -0.0115735)
(0.715948 -0.69742 0.0319929)
(0.7112 -0.702364 0.0296373)
(0.956463 -0.102912 0.273109)
(0.981148 0.0562484 0.184892)
(0.979619 0.0544094 0.193354)
(0.982753 0.0553886 0.17643)
(0.884811 0.455504 0.0981043)
(0.984086 0.0564175 0.168497)
(0.985629 0.0595156 0.158093)
(0.86547 0.491972 0.0944675)
(0.984489 0.0572955 0.165828)
(0.987635 0.0745979 0.137883)
(0.729656 0.680348 0.068765)
(0.987101 0.0673467 0.145246)
(0.959596 -0.123203 0.252975)
(0.981653 0.0572786 0.18187)
(0.982934 0.0608768 0.173591)
(0.741866 0.666735 0.0714132)
(0.98596 0.060941 0.155466)
(0.986869 0.0650746 0.147831)
(-0.0601958 0.998187 0.000227187)
(-0.0582445 0.998302 0.000357257)
(0.744635 -0.666341 0.0388397)
(-0.220896 0.975191 -0.0143832)
(0.731321 -0.681078 0.0360941)
(0.718241 -0.695022 0.032781)
(-0.220269 0.975337 -0.0141019)
(0.727473 -0.685231 0.0352329)
(0.999237 0.000888749 0.0390407)
(0.980288 0.182255 0.0762762)
(0.999026 0.00687993 0.0435865)
(0.996867 -0.069378 0.0379957)
(0.996911 -0.070399 0.0348338)
(0.979812 0.183962 0.0782682)
(0.998736 0.0119755 0.0488259)
(0.998951 0.00851789 0.0449825)
(0.941136 0.00881843 0.337913)
(0.979636 0.00132202 0.20078)
(0.977578 -0.00104382 0.210572)
(0.981622 -0.00896603 0.190624)
(0.982943 0.146129 0.111667)
(0.983318 -0.00695661 0.18176)
(0.985439 -0.00402467 0.169982)
(0.982818 0.148503 0.109619)
(0.98387 -0.00618787 0.178776)
(0.98933 0.0038972 0.145639)
(0.983461 0.155634 0.0926372)
(0.987932 0.0003613 0.15489)
(0.950382 0.0192343 0.310489)
(0.980333 0.00204283 0.197339)
(0.982271 0.00482844 0.187407)
(0.983208 0.155895 0.0948654)
(0.985956 -0.00318338 0.166974)
(0.987441 -0.000674882 0.157989)
(0.996855 -0.069007 0.0389574)
(0.996831 -0.0677735 0.0416513)
(0.998268 0.0119524 0.0575984)
(0.979061 0.18111 0.0929456)
(0.99843 0.0132113 0.0544362)
(0.998669 0.0126426 0.0500102)
(0.978867 0.183047 0.0911748)
(0.998486 0.0133453 0.0533635)
(0.996731 -0.061212 0.0527306)
(0.996628 -0.0603457 0.0555923)
(0.984428 0.124345 0.124261)
(0.997365 -0.00280174 0.072492)
(0.997715 0.00283176 0.0675101)
(0.984177 0.128493 0.122007)
(0.997461 -0.00131083 0.0712011)
(0.981017 -0.00968666 0.193678)
(0.984093 0.124871 0.126363)
(0.979134 -0.0116468 0.20288)
(0.923916 -0.00798483 0.382511)
(0.967637 -0.00985812 0.252154)
(0.970414 -0.0074282 0.241332)
(0.984233 0.121472 0.128565)
(0.976323 -0.0144087 0.215838)
(0.978456 -0.0123657 0.206083)
(0.996755 -0.0616008 0.0518183)
(0.996804 -0.0629507 0.0491806)
(0.998215 0.0112868 0.0586495)
(0.981433 0.160092 0.105637)
(0.998047 0.00875824 0.0618491)
(0.997789 0.00415333 0.0663342)
(0.981819 0.156415 0.107543)
(0.997987 0.00773659 0.0629416)
(0.984616 0.0931849 0.147811)
(0.972212 -0.0181376 0.233399)
(0.911931 -0.0172228 0.409982)
(0.966614 -0.0104827 0.256022)
(0.963455 -0.013053 0.26755)
(0.984654 0.0967824 0.145223)
(0.97555 -0.015153 0.219254)
(0.973101 -0.017331 0.229725)
(-0.0133175 0.999911 0.00119247)
(-0.0226615 0.999743 0.00103591)
(-0.249836 0.967177 -0.0463713)
(-0.142801 0.989282 -0.0304804)
(-0.00124351 0.999997 0.00191354)
(-0.00499327 0.999986 0.00187094)
(-0.553744 0.832656 -0.00720486)
(-0.55751 0.830142 -0.00676859)
(0.241293 0.969638 0.0397581)
(0.089063 0.995991 -0.00835736)
(-0.00570126 0.999983 0.00133417)
(0.000568462 0.999999 0.00146227)
(0.00230074 0.999995 0.00195047)
(0.00546034 0.999983 0.00197844)
(-0.550091 0.83507 -0.00761615)
(-0.54686 0.837186 -0.00800288)
(-0.539285 0.84204 -0.0118673)
(-0.538083 0.842811 -0.0116216)
(-0.54063 0.841173 -0.0121155)
(-0.542081 0.840235 -0.0123665)
(0.0216528 0.999697 -0.0116698)
(0.999926 -0.00385644 0.0115567)
(0.023317 0.999616 -0.0149909)
(0.999965 0.000768205 0.0083568)
(-0.0122348 0.9999 0.00702615)
(-0.0109103 0.999913 0.0073988)
(0.10642 -0.459057 0.88201)
(0.450151 -0.242749 0.859324)
(0.148545 -0.420387 0.895103)
(0.186246 -0.430554 0.883139)
(0.127308 -0.407446 0.904312)
(0.115705 -0.435558 0.892693)
(-0.00957744 0.99995 0.00282561)
(0.999851 -0.00458967 0.016613)
(-0.00717202 0.999972 0.00219789)
(-0.0230842 -0.547811 0.836284)
(0.797515 0.0817864 0.59773)
(0.425782 0.717949 -0.550689)
(0.514679 0.845676 -0.141199)
(0.975885 0.169123 0.138005)
(0.563376 0.811077 -0.157361)
(0.954232 0.0503645 -0.294795)
(0.913159 0.0183611 -0.407189)
(0.954505 0.0465899 -0.294534)
(0.915506 -0.00395987 -0.402286)
(0.955306 -0.038323 -0.293125)
(0.955671 -0.0270971 -0.293186)
(0.0201096 0.99979 0.00387853)
(0.99986 0.00799334 0.0147317)
(0.00846819 0.999937 0.00742422)
(0.0136544 0.999886 -0.00648092)
(0.999961 0.000367599 0.00883978)
(0.0163834 0.999828 -0.00864192)
(0.95341 -0.0585831 -0.295936)
(0.911315 -0.0226909 -0.411085)
(0.954086 -0.0498577 -0.295353)
(0.955529 0.0303156 -0.293335)
(0.915417 0.000949995 -0.402505)
(0.955626 0.0272908 -0.293315)
(-0.432467 0.901389 -0.0216753)
(-0.162437 0.986691 -0.00748327)
(0.237488 0.97104 0.0260876)
(0.20329 0.978842 0.0232897)
(-0.412435 0.910767 -0.0200161)
(-0.129738 0.991548 -0.000119097)
(-0.10433 0.994543 9.72668e-05)
(-0.0567559 0.998373 0.00546533)
(-0.113209 0.993563 -0.0040572)
(-0.198929 0.979989 -0.0070306)
(-0.0198486 0.999772 0.00783225)
(-0.234022 0.972189 -0.00905213)
(0.46793 0.803171 -0.368724)
(0.181313 -0.312608 0.932417)
(0.208939 0.709276 -0.673255)
(0.187408 -0.430218 0.883058)
(0.246954 -0.398762 0.883177)
(0.22881 -0.423846 0.876356)
(0.0203139 0.985565 -0.168077)
(0.318453 0.938155 0.135843)
(0.00322806 0.998934 0.0460582)
(0.188239 0.976785 -0.10226)
(-0.0881201 0.989262 -0.116596)
(0.0607745 0.996198 0.0624117)
(0.348314 0.927504 -0.135701)
(-0.127883 0.991786 -0.00263967)
(-0.173864 0.98476 -0.00445134)
(-0.036131 0.999342 -0.00318022)
(-0.065283 0.997861 -0.00350356)
(-0.112437 0.993658 -0.00105227)
(-0.172375 0.985023 -0.00414318)
(-0.0537766 0.998541 -0.00498875)
(0.109032 -0.448969 0.88687)
(0.21156 -0.394992 0.893993)
(0.159727 -0.406416 0.899618)
(0.288435 0.956778 0.037149)
(0.967967 0.231905 0.0962275)
(0.438134 0.898121 0.0376503)
(-0.664548 0.745747 -0.0473058)
(-0.539669 0.841128 -0.0355039)
(0.963291 0.251494 0.0939196)
(0.547902 0.834272 0.0615872)
(-0.0937798 0.995593 0.000601324)
(-0.192525 0.981274 -0.00603303)
(-0.0108574 0.999941 0.000200277)
(-0.000326958 1 3.98694e-05)
(-0.208005 0.978101 -0.00724133)
(-0.110411 0.993886 -0.00103733)
(0.0759519 0.997085 0.00726336)
(-0.156564 0.987668 -0.000454025)
(-0.183636 0.982994 -0.000762375)
(0.234373 0.97162 0.0320054)
(0.00937176 0.999802 0.0175313)
(0.134365 0.97972 -0.14864)
(0.122958 0.986476 -0.108379)
(0.0415194 0.999016 -0.0155662)
(0.44186 0.892648 -0.0891028)
(-0.0788072 0.99688 0.00434723)
(-0.172859 0.98493 -0.00565997)
(-0.101745 0.994808 -0.00212002)
(-0.10477 0.994493 0.00258945)
(-0.148421 0.988918 -0.00360967)
(0.185324 -0.452451 0.872321)
(0.208853 -0.400994 0.891955)
(0.2209 -0.404331 0.887535)
(-0.037721 0.999287 0.00137733)
(-0.0429648 0.999076 0.00128278)
(0.51961 0.851493 0.0704661)
(-0.588255 0.80714 -0.049817)
(-0.228084 0.973462 -0.0186735)
(0.536009 0.841019 0.0733522)
(-0.601066 0.797506 -0.0519956)
(0.966132 0.223081 0.129711)
(0.978088 0.16011 0.133073)
(0.985731 -0.128998 0.108134)
(0.94308 0.312759 0.113054)
(0.987371 -0.113701 0.110322)
(0.964614 0.230761 0.127553)
(0.978272 0.157104 0.135289)
(0.970901 0.193699 0.140823)
(0.991489 -0.0414638 0.123409)
(0.96331 0.237455 0.125095)
(0.978785 0.140326 0.149292)
(0.991292 -0.0514807 0.121203)
(0.971482 0.189032 0.14314)
(0.978768 0.14299 0.14686)
(-0.0324678 0.999472 0.0014687)
(-0.0274769 0.999621 0.00155078)
(-0.52359 0.851128 -0.0378783)
(0.423104 0.904527 0.0530385)
(-0.221787 0.974969 -0.0156677)
(0.432701 0.89987 0.0548092)
(-0.529255 0.847565 -0.0390162)
(0.504374 0.860822 0.0677707)
(-0.576879 0.815427 -0.047847)
(-0.222927 0.974684 -0.0171594)
(0.490291 0.869112 0.0652564)
(-0.566793 0.822571 -0.0460605)
(0.972336 0.180799 0.1479)
(0.991551 -0.0322841 0.125635)
(0.968913 0.209135 0.132176)
(0.978789 0.137609 0.151774)
(0.991507 -0.0236357 0.127891)
(0.971954 0.184758 0.145499)
(0.978771 0.134894 0.154305)
(0.955052 -0.0195651 -0.295793)
(0.910233 0.0142232 -0.413853)
(0.954967 -0.00922546 -0.296569)
(0.0603915 0.998078 -0.0139027)
(0.999625 0.0142614 0.0233794)
(0.0869139 0.995985 -0.021466)
(0.44685 0.887726 -0.110757)
(0.994628 0.0806033 0.0649478)
(0.370803 0.925017 -0.0827637)
(0.521655 0.812844 -0.259153)
(-0.22134 -0.397244 0.890621)
(0.528973 0.820227 -0.21775)
(0.83811 0.145304 -0.525793)
(0.924535 0.22686 -0.306217)
(0.865192 0.410381 -0.288151)
(0.954663 0.00652541 -0.297618)
(0.906763 -0.0177766 -0.421267)
(0.954453 0.00203882 -0.298353)
(0.883996 -0.00205063 -0.46749)
(0.949758 0.0238809 -0.312072)
(0.950523 -0.0280753 -0.309384)
(0.970253 0.235767 0.0549779)
(0.982328 0.175228 0.0657817)
(0.955413 -0.286116 0.0729651)
(0.970593 0.234812 0.0530403)
(0.955605 -0.286093 0.0704964)
(-0.559548 0.828785 -0.00469451)
(-0.567406 0.823425 -0.0047401)
(0.931381 -0.358942 0.0607383)
(0.962434 0.26538 0.0573947)
(0.901992 0.429563 0.0434249)
(0.943806 0.32739 0.0452396)
(0.944317 -0.323308 0.0611326)
(0.178948 0.982929 0.0427554)
(0.312705 0.931231 0.187148)
(0.196061 0.978969 0.0563898)
(0.181869 0.975976 0.119979)
(0.218492 0.973172 0.0720948)
(0.150837 0.988095 0.0302792)
(0.195696 0.971805 0.131522)
(-0.311258 0.949484 -0.0399882)
(0.979521 -0.18702 0.0745847)
(0.175804 0.984401 0.0068668)
(0.141169 0.989978 0.00397219)
(0.0281022 0.999582 -0.00684195)
(0.978986 -0.184545 0.0867748)
(0.835636 -0.544827 0.0698357)
(0.987821 -0.117535 0.101955)
(0.994475 0.0281698 0.101124)
(0.984084 0.158084 0.0811633)
(0.988415 -0.123703 0.087944)
(0.994687 0.0294523 0.0986437)
(0.988555 -0.12448 0.085228)
(0.987492 -0.117635 0.104982)
(0.988038 -0.126003 0.0889016)
(0.985919 -0.149909 0.0741039)
(0.952217 0.297204 0.0703783)
(0.990407 0.106549 0.0879852)
(0.994396 0.0567691 0.089189)
(0.987584 -0.138241 0.0746101)
(0.986611 -0.137651 0.0874728)
(-0.542057 0.840327 -0.00495267)
(-0.499075 0.86654 -0.00573479)
(0.288435 0.947687 0.13673)
(0.196552 0.979692 0.0396212)
(0.185869 0.977882 0.095918)
(0.20975 0.976891 0.041092)
(0.111794 0.993667 0.0113339)
(0.893068 -0.445852 0.0603792)
(0.769907 0.637065 0.0372892)
(0.365036 0.93081 0.0184818)
(0.488291 0.872379 0.0229517)
(0.72483 -0.686769 0.0545074)
(-0.447088 0.894192 -0.0230845)
(0.264828 0.963873 0.0285324)
(-0.191269 0.981488 -0.00986024)
(0.286249 0.957665 0.0306568)
(-0.457688 0.888781 -0.0242968)
(0.0162049 0.999867 0.0019345)
(0.0156085 0.999876 0.00188759)
(0.352709 0.934883 0.039868)
(-0.21318 0.976934 -0.012438)
(-0.486901 0.872953 -0.0296779)
(0.345113 0.93777 0.0385309)
(-0.483534 0.874849 -0.0288701)
(0.960754 0.248512 0.123264)
(0.977879 0.163169 0.13088)
(0.983683 -0.145422 0.105924)
(0.915426 0.388627 0.104707)
(0.962851 0.239147 0.125408)
(0.981203 -0.162753 0.103693)
(0.977659 0.166183 0.128711)
(0.944322 0.30923 0.112396)
(0.95456 -0.284237 0.0895805)
(0.975877 0.185023 0.115887)
(0.822066 0.562724 0.0868844)
(0.939408 0.324625 0.11014)
(0.960619 -0.262185 0.0920342)
(0.976203 0.181932 0.118018)
(0.829236 0.551798 0.0888065)
(0.970582 0.219716 0.0984664)
(0.766851 -0.639216 0.0578104)
(0.684561 0.72633 0.0618104)
(0.739855 0.668025 0.0797313)
(0.83434 -0.547331 0.065616)
(0.972158 0.211595 0.10068)
(0.927014 0.359893 0.105466)
(0.947716 -0.307004 0.0870754)
(0.766116 0.638101 0.0767672)
(0.975537 0.188119 0.113747)
(0.939774 -0.331189 0.0844861)
(0.933738 0.341326 0.107838)
(0.975199 0.191134 0.111601)
(0.0161227 0.999868 0.0019691)
(0.0155522 0.999877 0.00199442)
(-0.518396 0.854348 -0.036808)
(0.413913 0.908868 0.0513439)
(-0.221641 0.975014 -0.0149189)
(0.405355 0.912806 0.0497349)
(-0.513596 0.857285 -0.0357948)
(0.359956 0.93206 0.0411934)
(-0.490264 0.871041 -0.0304887)
(-0.218327 0.975782 -0.0134929)
(0.367184 0.929175 0.042536)
(-0.493728 0.869052 -0.0313128)
(0.969565 0.238129 0.056913)
(0.955042 -0.286712 0.0754424)
(0.981332 0.178278 0.072148)
(0.968684 0.241231 0.058815)
(0.954576 -0.287608 0.0778904)
(-0.535927 0.844206 -0.00987777)
(-0.536735 0.843696 -0.00960483)
(0.952042 -0.292033 0.091282)
(0.979089 0.186123 0.0821144)
(0.963879 0.25722 0.0691074)
(0.964398 0.255692 0.0675152)
(0.952322 -0.29176 0.0892089)
(0.982137 -0.119436 0.145402)
(0.990058 0.0169477 0.139632)
(0.983253 0.140741 0.115779)
(0.984486 -0.122049 0.126063)
(0.990369 0.0177574 0.137311)
(0.984775 -0.121942 0.12389)
(0.981767 -0.119415 0.147899)
(0.983903 -0.119461 0.132905)
(0.986396 -0.121528 0.110696)
(0.992104 0.0222238 0.123431)
(0.982672 0.152392 0.105505)
(0.991826 0.021557 0.125767)
(0.984251 -0.11941 0.130349)
(0.986138 -0.121549 0.112952)
(0.98679 -0.118001 0.111001)
(0.99424 0.027203 0.103663)
(0.988242 -0.123106 0.0906735)
(0.983986 0.154968 0.0880745)
(0.987146 -0.117797 0.108009)
(0.993991 0.0264441 0.106217)
(0.988048 -0.122648 0.093379)
(0.98497 -0.119089 0.125108)
(0.98665 -0.12154 0.108397)
(0.982828 0.155586 0.0992115)
(0.99238 0.0228954 0.121068)
(0.992654 0.0235138 0.118678)
(0.9869 -0.121584 0.106048)
(0.984608 -0.119277 0.127751)
(-0.535391 0.844543 -0.0101401)
(-0.5352 0.844661 -0.0103952)
(0.964755 0.250296 0.0812375)
(0.979603 0.176258 0.0964952)
(0.952205 -0.286203 0.106739)
(0.96425 0.25272 0.0797198)
(0.952013 -0.287541 0.104845)
(0.95183 -0.292084 0.0933046)
(0.963515 0.258156 0.0706662)
(0.978695 0.18569 0.0876118)
(0.963305 0.258517 0.0721992)
(0.951713 -0.291828 0.0952865)
(-0.555434 0.831438 -0.0142853)
(-0.557608 0.829976 -0.0145871)
(0.954845 -0.269602 0.124841)
(0.971352 0.217389 0.0960104)
(0.983607 0.136656 0.117649)
(0.972156 0.212937 0.0978267)
(0.955146 -0.267499 0.127041)
(0.981025 -0.119145 0.152951)
(0.989739 0.0161204 0.141974)
(0.983771 0.131518 0.122053)
(0.984186 -0.122188 0.12825)
(0.98941 0.0153103 0.144338)
(0.981396 -0.119324 0.150415)
(0.983881 -0.122307 0.130454)
(0.978952 -0.11849 0.16617)
(0.981817 -0.123282 0.14435)
(0.984465 0.114519 0.133091)
(0.987184 0.0099343 0.159279)
(0.987589 0.0108945 0.156682)
(0.982191 -0.123108 0.141933)
(0.978482 -0.118441 0.16895)
(-0.553231 0.832911 -0.0139897)
(-0.551167 0.834283 -0.0137029)
(0.96533 0.247563 0.0827703)
(0.980659 0.167099 0.101912)
(0.952442 -0.284693 0.108645)
(0.965964 0.244546 0.0843223)
(0.952721 -0.283015 0.110568)
(0.954522 -0.271728 0.122687)
(0.970542 0.221738 0.0942351)
(0.982581 0.148697 0.111465)
(0.96973 0.22598 0.0924975)
(0.954233 -0.273678 0.120578)
(0.977515 -0.118107 0.174685)
(0.981426 -0.123482 0.146817)
(0.984654 0.103912 0.140213)
(0.986762 0.00895758 0.16193)
(0.986322 0.00797901 0.164635)
(0.981024 -0.123654 0.149336)
(0.978003 -0.118311 0.17179)
(-0.0371035 -0.00221512 0.999309)
(-0.0290631 -0.00347565 0.999572)
(0.095916 -0.00286952 0.995385)
(-0.0388548 -0.00370706 0.999238)
(-0.0361722 -0.00261248 0.999342)
(0.0953555 -0.00315564 0.995438)
(-0.0298397 -0.00295116 0.99955)
(-0.0383942 -0.000752389 0.999262)
(0.0948264 -0.00104386 0.995493)
(-0.0398475 -0.00248131 0.999203)
(-0.0312037 -0.00174629 0.999512)
(0.0946986 -0.00162316 0.995505)
(-0.0391572 -0.00110609 0.999232)
(-0.0306472 -0.00188247 0.999528)
(0.0612433 -0.228379 0.971644)
(0.113777 -0.424213 0.898386)
(0.166147 -0.17934 0.969656)
(0.150308 -0.453889 0.87829)
(0.0678099 -0.201889 0.977058)
(0.15693 -0.2037 0.966374)
(0.11492 -0.465152 0.87774)
(0.0907751 -0.238639 0.966856)
(0.139732 -0.239141 0.960878)
(0.147557 -0.487578 0.86052)
(0.107015 -0.519793 0.847563)
(0.162346 -0.223432 0.961105)
(0.0605762 -0.261687 0.96325)
(0.113032 -0.496848 0.860445)
(0.0287711 0.000298439 0.999586)
(0.0291193 0.000439605 0.999576)
(0.031627 -0.00167428 0.999498)
(0.0294839 -0.00361972 0.999559)
(-0.0357787 -0.00353841 0.999353)
(-0.0286261 -0.00380403 0.999583)
(0.0960288 -0.00221984 0.995376)
(-0.0367704 -0.0046216 0.999313)
(-0.0358823 -0.00238904 0.999353)
(0.0957759 -0.0031317 0.995398)
(-0.0283077 -0.00465661 0.999588)
(-0.0357745 -0.00443136 0.99935)
(0.0963239 -0.00424496 0.995341)
(-0.0272693 -0.00545613 0.999613)
(-0.0360691 -0.00568694 0.999333)
(-0.0352795 -0.00395369 0.99937)
(0.0958719 -0.00433844 0.995384)
(-0.0279157 -0.00548755 0.999595)
(0.029046 -0.00191819 0.999576)
(0.027649 -0.00249291 0.999615)
(0.0286574 0.000531142 0.999589)
(0.0280904 0.000572097 0.999605)
(0.0697325 -0.0235201 0.997288)
(0.0913897 -0.0534015 0.994382)
(0.0666277 -0.0376833 0.997066)
(0.059095 -0.0253119 0.997931)
(0.0452125 -0.148726 0.987844)
(0.107641 -0.372035 0.921956)
(0.160834 -0.15383 0.97492)
(0.121669 -0.300627 0.945949)
(0.0513424 -0.178761 0.982552)
(0.158671 -0.125689 0.979299)
(0.0955982 -0.312609 0.945059)
(0.0315123 -0.120189 0.992251)
(0.142922 -0.0758571 0.986823)
(0.062061 -0.189184 0.979979)
(0.100567 -0.238314 0.965967)