/*--------------------------------*- C++ -*----------------------------------*\
| =========                 |                                                 |
| \\      /  F ield         | OpenFOAM: The Open Source CFD Toolbox           |
|  \\    /   O peration     | Version:  2012                                  |
|   \\  /    A nd           | Website:  www.openfoam.com                      |
|    \\/     M anipulation  |                                                 |
\*---------------------------------------------------------------------------*/
FoamFile
{
    version     2.0;
    format      ascii;
    class       volVectorField;
    location    "0.107/solid";
    object      U;
}
// * * * * * * * * * * * * * * * * * * * * * * * * * * * * * * * * * * * * * //

dimensions      [0 1 -1 0 0 0 0];


internalField   nonuniform List<vector> 
3125
(
(2.0955e-10 2.65221e-11 5.20976e-10)
(1.39413e-08 -2.73139e-08 1.11012e-10)
(3.56956e-10 2.90282e-11 8.71745e-10)
(2.18897e-10 2.26488e-11 5.56475e-10)
(3.79814e-10 3.52306e-11 9.09969e-10)
(1.50353e-08 -3.48483e-08 3.1117e-09)
(9.19073e-09 -1.9023e-08 8.27357e-10)
(3.02646e-08 -6.4826e-08 4.89353e-09)
(3.66443e-10 -1.6668e-11 7.68798e-10)
(3.64253e-06 3.195e-06 -1.09808e-05)
(0.000690599 8.33367e-05 -0.000234486)
(0.00283273 0.000480193 -0.00043175)
(6.0853e-10 -7.80934e-11 1.2885e-09)
(7.1046e-10 -2.48694e-10 1.38838e-09)
(4.0746e-10 -6.01884e-11 8.34132e-10)
(-3.18418e-06 1.04297e-05 -1.45127e-05)
(0.000589203 9.26324e-05 -0.000248689)
(0.00253785 0.000401629 -0.000415398)
(0.000866666 0.000101432 -0.000262375)
(0.00231269 0.000408688 -0.000490934)
(0.000749749 0.000110416 -0.000280659)
(0.00259251 0.000486986 -0.000519089)
(2.62176e-10 1.8102e-11 6.37984e-10)
(2.59662e-10 4.05005e-11 6.03395e-10)
(3.07974e-10 2.51938e-11 7.47211e-10)
(3.59781e-09 -2.98265e-09 1.4696e-09)
(1.53458e-07 -2.49879e-07 6.1506e-09)
(5.19966e-08 -8.78296e-08 1.97297e-09)
(2.63463e-10 1.67974e-11 6.33385e-10)
(4.4617e-10 5.38648e-11 1.00892e-09)
(2.52968e-09 -4.90689e-09 1.92612e-09)
(1.3354e-09 -1.88398e-09 9.97761e-10)
(2.70666e-09 -1.9346e-09 1.47949e-09)
(6.83055e-10 -1.10591e-10 1.23759e-09)
(2.48195e-10 1.40934e-11 5.57545e-10)
(2.88686e-10 2.00569e-11 6.52626e-10)
(2.69694e-10 4.12826e-11 6.39952e-10)
(3.89676e-10 3.02179e-11 9.38694e-10)
(3.2394e-10 2.68103e-11 7.76691e-10)
(3.5887e-10 2.41371e-11 8.18934e-10)
(2.97708e-10 2.12e-11 6.71917e-10)
(0.000777336 0.000412362 -0.000726987)
(0.000299599 0.000191779 -0.000399578)
(2.14833e-09 -1.36888e-09 1.3113e-09)
(3.47095e-08 -5.48679e-08 1.16378e-09)
(2.3217e-07 -3.52541e-07 -2.83125e-08)
(0.000167384 3.46419e-05 -0.000107511)
(5.19023e-06 4.27923e-06 -1.50393e-05)
(0.000231953 0.000146836 -0.000316592)
(6.31758e-08 -2.10171e-07 -7.28529e-09)
(0.000757326 0.00036668 -0.000657607)
(0.000269841 4.48415e-05 -0.00014167)
(0.000282306 0.000172504 -0.000361229)
(7.00742e-06 5.26902e-06 -1.70565e-05)
(0.000248578 0.000162409 -0.00035033)
(4.73263e-08 -1.35564e-07 -4.02505e-09)
(0.00402709 0.00181308 -0.00160412)
(0.00273367 0.00109602 -0.00124161)
(0.00379002 0.000785899 -0.000473591)
(0.00383167 0.00159346 -0.00142775)
(0.00275862 0.00120434 -0.00137243)
(0.00385862 0.00172646 -0.00157755)
(0.00413161 0.000912956 -0.000485303)
(0.00399989 0.00167663 -0.00145189)
(2.44034e-10 1.36258e-11 5.469e-10)
(4.75543e-10 5.22351e-11 1.07666e-09)
(1.64632e-09 -2.46856e-09 1.76375e-09)
(1.05271e-09 -1.26279e-09 1.02012e-09)
(4.11771e-10 2.87516e-11 9.77212e-10)
(6.24433e-10 -6.88245e-11 1.21153e-09)
(1.64964e-09 -8.7326e-10 1.29589e-09)
(5.5032e-10 -3.50997e-11 1.07518e-09)
(3.71529e-10 2.49819e-11 8.45183e-10)
(5.11778e-10 -1.40966e-11 1.04404e-09)
(0.000714115 0.000430823 -0.00076965)
(0.000269078 0.000212459 -0.000435301)
(0.000125646 4.57318e-05 -0.000114747)
(5.35446e-06 1.26523e-05 -1.93726e-05)
(0.000211499 0.000161583 -0.000340873)
(0.000707519 0.000379401 -0.000688012)
(0.000213446 5.5554e-05 -0.000149225)
(0.000258318 0.000186883 -0.000386344)
(7.3177e-06 1.63403e-05 -2.22442e-05)
(0.00022251 0.000183566 -0.000384823)
(0.000862801 0.000446625 -0.000770911)
(0.00157522 0.000720057 -0.00105741)
(0.00173312 0.000226296 -0.000358454)
(0.00258895 0.00103631 -0.00121251)
(0.00166994 0.000686055 -0.000990735)
(0.000842499 0.000397175 -0.000697336)
(0.00149331 0.000185246 -0.000336682)
(0.00155291 0.000644487 -0.000956418)
(0.0026136 0.00114103 -0.00134033)
(0.00169256 0.000765312 -0.00109535)
(0.000794812 0.000464813 -0.000814854)
(0.00147398 0.00073635 -0.00111432)
(0.00155392 0.000234154 -0.000403579)
(0.00247977 0.00104602 -0.00127284)
(0.00158643 0.000697076 -0.00103439)
(0.000788927 0.000409701 -0.000728752)
(0.00132961 0.000193376 -0.000373547)
(0.00147309 0.000655695 -0.000998129)
(0.00247509 0.00115515 -0.00142067)
(0.0015866 0.000781335 -0.00115471)
(0.00384818 0.00182479 -0.0017192)
(0.00262088 0.00110555 -0.00130471)
(0.00350559 0.00079191 -0.000600329)
(0.00369409 0.0016017 -0.00151237)
(0.00261552 0.00121819 -0.00145626)
(0.00368407 0.00173843 -0.00168846)
(0.00383276 0.00091871 -0.000626226)
(0.00385883 0.00168469 -0.00153984)
(2.13451e-10 2.37162e-11 4.98003e-10)
(2.30402e-10 3.18851e-11 5.49127e-10)
(2.28407e-10 2.89506e-11 5.2797e-10)
(7.68301e-09 -1.15859e-08 2.16831e-10)
(3.50456e-08 -6.96039e-08 -3.16714e-10)
(1.99542e-08 -3.48956e-08 -1.82698e-09)
(3.6227e-10 2.58022e-11 8.95809e-10)
(2.17252e-10 1.41294e-11 5.48557e-10)
(2.15974e-10 2.07883e-11 5.06448e-10)
(1.9892e-10 5.92818e-12 4.84624e-10)
(4.00737e-10 4.13941e-11 9.38872e-10)
(7.84579e-09 -1.84081e-08 2.54088e-09)
(3.94249e-09 -7.28807e-09 9.10472e-10)
(5.61054e-09 -8.08656e-09 5.23291e-10)
(2.3644e-09 -2.78914e-09 8.75751e-10)
(2.99872e-10 3.49903e-11 6.95615e-10)
(3.35873e-10 2.40607e-11 7.36514e-10)
(2.94771e-10 4.01718e-11 6.70558e-10)
(0.000827955 0.000592449 -0.00100477)
(0.000601946 0.000454107 -0.000821221)
(-4.84388e-08 -3.42206e-06 -7.47292e-07)
(3.05696e-05 1.82445e-05 -3.83369e-05)
(5.76096e-06 3.12665e-06 -1.64755e-05)
(4.84919e-05 3.13429e-05 -7.99781e-05)
(1.80026e-06 -1.25396e-06 -5.33043e-07)
(0.000726335 0.000194992 -0.000399179)
(0.00053198 6.85013e-05 -0.000205042)
(0.000493924 0.00014817 -0.000324011)
(1.61623e-05 1.96972e-06 -1.49544e-05)
(0.000133829 7.58678e-05 -0.000219901)
(0.00473181 0.00274842 -0.00235846)
(0.00272045 0.000703279 -0.000744199)
(0.00314008 0.000570025 -0.000446868)
(0.00317604 0.000861296 -0.000792112)
(0.00278198 0.00161093 -0.00189211)
(0.00323108 0.00185587 -0.00202085)
(0.00484541 0.00120728 -0.000505675)
(0.00469657 0.00150175 -0.000914101)
(5.41144e-10 -2.20008e-12 1.23264e-09)
(8.76188e-10 -6.13816e-10 1.49255e-09)
(5.42531e-10 -2.87075e-10 8.94835e-10)
(3.63731e-10 1.03103e-11 7.77843e-10)
(4.41891e-10 -6.94683e-11 8.31689e-10)
(0.000783315 0.000608797 -0.00104629)
(0.000567029 0.000471132 -0.00086062)
(1.39525e-05 2.35943e-05 -4.47486e-05)
(-2.79897e-07 6.85263e-06 -1.15719e-05)
(3.81032e-05 4.36062e-05 -8.9228e-05)
(0.000664283 0.000204555 -0.00041891)
(0.000445905 7.81586e-05 -0.000216147)
(0.000445191 0.000158233 -0.00034078)
(2.14585e-05 2.35897e-05 -3.4512e-05)
(0.000129024 9.9156e-05 -0.000253549)
(0.000911789 0.0006402 -0.00106426)
(0.00118822 0.000789759 -0.00123746)
(0.00225593 0.00033364 -0.000397765)
(0.00257455 0.000656246 -0.000727595)
(0.00215722 0.000530583 -0.00067465)
(0.000812754 0.000212164 -0.000423041)
(0.00105952 0.000123789 -0.000288684)
(0.00109623 0.000270275 -0.000492428)
(0.00263852 0.00153462 -0.00184736)
(0.00222781 0.00132061 -0.00170751)
(0.000863863 0.000656317 -0.00110664)
(0.00113037 0.000805163 -0.00128293)
(0.00204596 0.000340964 -0.000462285)
(0.00243903 0.000663514 -0.000785032)
(0.00203481 0.000538261 -0.000722298)
(0.000745638 0.000221563 -0.000444016)
(0.000927012 0.000132476 -0.000312104)
(0.00101564 0.000279233 -0.000518043)
(0.00254122 0.00154701 -0.00191373)
(0.00214024 0.00133376 -0.00176742)
(0.00459453 0.00275755 -0.00245898)
(0.00258002 0.000710404 -0.00080516)
(0.00288495 0.000576558 -0.000546727)
(0.00302275 0.000868013 -0.00086419)
(0.00268147 0.00162306 -0.00196079)
(0.00312106 0.00186724 -0.00209684)
(0.0045184 0.00121252 -0.000676059)
(0.00450428 0.00150725 -0.00102383)
(2.25885e-10 2.28452e-11 5.2076e-10)
(2.80298e-10 2.13089e-11 6.80596e-10)
(2.41713e-10 2.70524e-11 5.5222e-10)
(2.43435e-10 3.51466e-11 5.80577e-10)
(2.52827e-10 3.54762e-11 5.82157e-10)
(2.41855e-10 3.19084e-11 5.55814e-10)
(2.94498e-10 2.17222e-11 7.06517e-10)
(2.64373e-10 3.43782e-11 6.07608e-10)
(2.50589e-10 2.77517e-11 5.7055e-10)
(6.39328e-09 -8.46449e-09 4.98225e-10)
(1.00245e-08 -1.11408e-08 1.44585e-09)
(1.68055e-08 -2.63803e-08 -1.01046e-09)
(5.38564e-08 -9.80565e-08 -4.97192e-09)
(7.8837e-08 -1.59007e-07 -1.25345e-08)
(2.88228e-08 -5.24284e-08 -3.24452e-09)
(1.39002e-08 -1.9641e-08 1.09902e-09)
(6.72391e-08 -1.28125e-07 -8.92835e-09)
(2.36896e-08 -4.21095e-08 -2.21847e-09)
(2.35794e-10 1.4636e-11 5.6988e-10)
(2.2394e-10 2.22522e-11 5.17855e-10)
(2.44998e-10 1.14982e-11 5.94154e-10)
(2.02478e-10 7.49877e-12 4.88937e-10)
(2.5726e-10 1.39729e-11 5.99447e-10)
(2.13111e-10 1.36343e-11 5.05936e-10)
(4.3203e-10 4.67218e-11 9.8876e-10)
(4.31303e-09 -9.5931e-09 2.20377e-09)
(2.7888e-09 -5.01939e-09 1.0476e-09)
(9.12593e-10 -6.72775e-10 9.33121e-10)
(1.83222e-09 -1.95775e-09 9.36728e-10)
(4.70011e-09 -5.77215e-09 7.17588e-10)
(1.28999e-09 -5.85048e-10 1.38593e-09)
(2.01973e-09 -1.93544e-09 9.66217e-10)
(8.23751e-10 -4.4686e-10 9.74655e-10)
(1.07052e-09 -3.95771e-10 1.36258e-09)
(1.57331e-09 -1.35024e-09 9.9473e-10)
(1.1837e-10 1.24819e-12 1.25233e-10)
(2.62983e-10 1.65553e-11 5.95202e-10)
(1.25755e-10 1.48841e-12 1.3205e-10)
(2.70774e-10 1.67646e-11 6.11416e-10)
(1.38915e-10 1.84063e-12 1.50401e-10)
(1.29213e-10 1.61859e-12 1.36152e-10)
(3.05876e-10 3.66214e-11 6.9705e-10)
(2.68223e-10 3.68163e-11 6.14499e-10)
(2.93894e-10 3.50932e-11 6.68105e-10)
(3.42011e-10 2.62125e-11 7.63576e-10)
(3.56414e-10 3.09541e-11 8.61934e-10)
(3.06913e-10 3.58969e-11 6.97217e-10)
(2.7465e-10 3.4892e-11 6.29911e-10)
(3.53729e-10 3.08473e-11 8.46265e-10)
(3.00971e-10 3.8359e-11 6.83405e-10)
(1.73913e-10 2.33055e-12 1.97553e-10)
(3.30424e-10 2.38894e-11 7.53373e-10)
(1.60141e-10 2.11234e-12 1.76914e-10)
(1.43505e-10 1.86471e-12 1.55869e-10)
(3.22625e-10 2.46779e-11 7.32281e-10)
(1.55199e-10 2.0141e-12 1.70187e-10)
(0.000814634 0.000542432 -0.000927052)
(0.000546581 0.000314314 -0.000590801)
(0.00058684 0.000414856 -0.000756144)
(0.000359858 0.000278736 -0.000565244)
(0.000535155 0.000409365 -0.000758408)
(0.000478318 0.00028291 -0.000543978)
(0.000342624 0.000253418 -0.000517155)
(0.000519474 0.00037365 -0.000697563)
(3.05662e-10 -1.63279e-11 3.41999e-10)
(5.88103e-09 -5.59538e-09 1.33463e-09)
(4.19284e-10 -9.25807e-11 3.73022e-10)
(8.34537e-09 -1.02077e-08 1.17399e-09)
(1.72291e-09 -1.60028e-09 5.43448e-10)
(5.19642e-10 -1.77617e-10 3.93085e-10)
(3.85479e-07 -1.37491e-06 4.56585e-07)
(1.34479e-07 -2.74625e-07 -1.92078e-08)
(5.06022e-07 -1.01795e-06 -2.27529e-07)
(8.58942e-05 2.40863e-05 -7.23714e-05)
(0.000197194 8.04602e-05 -0.000190413)
(7.74933e-05 4.32932e-05 -0.000106276)
(7.49814e-06 2.15622e-06 -2.18489e-05)
(7.34135e-05 5.13755e-05 -0.000135234)
(1.21542e-06 -4.16569e-06 -8.39151e-07)
(5.26668e-05 3.62075e-05 -9.19701e-05)
(2.07529e-06 -4.11463e-07 -2.6212e-07)
(0.000204128 9.68704e-05 -0.000220281)
(0.000106883 7.35462e-05 -0.000180405)
(8.30523e-05 5.07392e-05 -0.000123508)
(1.11949e-07 -2.68769e-07 -1.93691e-08)
(5.55976e-07 -9.48538e-07 2.39076e-08)
(5.6826e-07 -6.98741e-07 -2.17718e-07)
(0.000732642 0.000237392 -0.000461875)
(0.000527502 0.000279973 -0.000534373)
(0.000500623 0.00018072 -0.000374864)
(0.000391479 5.60037e-05 -0.00017406)
(0.000247212 9.33225e-05 -0.000217822)
(0.00042512 0.000133866 -0.00029827)
(0.000459595 0.000252354 -0.000491984)
(0.00025416 0.000112911 -0.000252061)
(0.000432099 0.000163109 -0.000344883)
(0.000309307 0.000236472 -0.000499213)
(0.000175263 0.000114508 -0.000292877)
(1.19714e-05 3.90534e-06 -2.00052e-05)
(8.46964e-05 5.29061e-05 -0.000150095)
(9.29057e-07 -3.81726e-06 -5.03654e-07)
(0.000117667 6.74905e-05 -0.000197184)
(1.21262e-07 -1.27908e-07 1.11699e-08)
(0.000291685 0.000214526 -0.000455467)
(0.000119793 7.86914e-05 -0.000199654)
(0.000157833 0.00010262 -0.000263463)
(3.20936e-09 -3.62048e-09 7.51867e-10)
(4.62947e-07 -8.14357e-07 2.63631e-08)
(3.63298e-08 -8.03324e-08 3.53686e-10)
(0.00403811 0.00232115 -0.00221728)
(0.00455463 0.00263684 -0.00232447)
(0.00472685 0.0021916 -0.00170382)
(0.00473572 0.00259647 -0.00217723)
(0.00403972 0.0021823 -0.00204768)
(0.00454817 0.00209209 -0.00167987)
(0.00455797 0.00248813 -0.00214606)
(0.0027229 0.00080052 -0.000866003)
(0.00318657 0.00129164 -0.0013251)
(0.00317806 0.000967831 -0.000922588)
(0.00345936 0.000671746 -0.000460796)
(0.00382492 0.00111378 -0.000850193)
(0.00333418 0.000919768 -0.000807088)
(0.00334356 0.00136257 -0.00135168)
(0.00382614 0.00123253 -0.000991628)
(0.00333584 0.00102941 -0.000940495)
(0.00387115 0.00222214 -0.00217979)
(0.0033868 0.00194308 -0.00206194)
(0.00277891 0.00149951 -0.00174847)
(0.00321238 0.00141063 -0.0014645)
(0.00322978 0.00173398 -0.00186706)
(0.00387218 0.00208662 -0.00201323)
(0.00336966 0.0014851 -0.00149379)
(0.00338609 0.00181774 -0.00190487)
(0.00469856 0.00204153 -0.00154257)
(0.0046967 0.0016354 -0.00106812)
(0.00448357 0.00105331 -0.00049598)
(0.00399425 0.00118476 -0.000863618)
(0.00451707 0.00141752 -0.00090215)
(0.00452014 0.0019454 -0.00152078)
(0.00399513 0.00130655 -0.00100776)
(0.00451753 0.00154821 -0.00105368)
(1.16577e-10 1.42759e-12 1.23031e-10)
(2.2819e-10 1.01435e-11 5.24087e-10)
(1.08635e-10 1.1432e-12 1.18951e-10)
(2.3055e-10 1.15829e-11 5.18368e-10)
(1.08631e-10 1.19885e-12 1.44149e-10)
(5.04121e-10 4.47533e-11 1.15382e-09)
(1.16613e-09 -1.24992e-09 1.62667e-09)
(6.33368e-10 -4.67225e-10 9.30439e-10)
(7.65926e-10 -4.69455e-10 9.39269e-10)
(4.96239e-10 -1.25833e-10 8.74788e-10)
(3.62154e-10 1.8453e-11 7.94032e-10)
(4.62699e-10 1.50387e-11 1.06424e-09)
(4.34881e-10 -3.07871e-11 8.60705e-10)
(6.98353e-10 -3.05724e-10 9.63773e-10)
(4.97549e-10 2.72638e-12 1.10832e-09)
(4.77263e-10 -6.68645e-11 8.92782e-10)
(2.893e-10 -9.22758e-12 3.32787e-10)
(8.82947e-10 -2.53468e-10 1.20905e-09)
(2.56719e-10 -3.79324e-13 3.03662e-10)
(7.59854e-10 -1.64578e-10 1.17828e-09)
(2.25199e-10 1.98843e-12 2.67992e-10)
(2.46521e-10 6.60721e-13 2.93011e-10)
(1.78738e-10 2.30979e-12 2.04194e-10)
(4.1265e-10 2.08764e-11 9.26216e-10)
(1.94449e-10 2.45062e-12 2.24307e-10)
(4.32766e-10 1.53127e-11 9.56837e-10)
(2.18306e-10 2.21587e-12 2.58625e-10)
(2.00721e-10 2.46561e-12 2.3253e-10)
(0.000760939 0.000560955 -0.00097376)
(0.000497581 0.000333628 -0.000630283)
(0.000545002 0.000434164 -0.000800252)
(0.000337469 0.00029674 -0.000602071)
(0.00050342 0.000426616 -0.000797189)
(0.000434011 0.000302531 -0.000582541)
(0.000316172 0.000273938 -0.000558109)
(0.000481536 0.000393231 -0.000740915)
(5.86726e-05 3.67513e-05 -7.96627e-05)
(0.000170781 9.17011e-05 -0.000204145)
(6.31777e-05 5.55564e-05 -0.000118044)
(8.83908e-07 8.0519e-06 -1.34765e-05)
(6.63931e-05 6.8831e-05 -0.000153661)
(4.38681e-05 5.0206e-05 -0.000104773)
(0.000179251 0.000109448 -0.000237522)
(9.64055e-05 9.01171e-05 -0.000201401)
(7.01774e-05 6.46862e-05 -0.000138262)
(0.000673226 0.000248127 -0.000485343)
(0.000488928 0.000293311 -0.000562289)
(0.000454395 0.000192012 -0.000395439)
(0.000320428 6.60482e-05 -0.000182985)
(0.000216151 0.000104281 -0.000231978)
(0.000381298 0.000144121 -0.000314291)
(0.000424729 0.000265919 -0.000519195)
(0.00022506 0.000125171 -0.000269868)
(0.000390314 0.000174608 -0.000364694)
(0.000289989 0.000254821 -0.000535232)
(0.000166266 0.000135526 -0.000327095)
(1.62998e-05 2.236e-05 -3.1035e-05)
(7.53815e-05 7.78883e-05 -0.000175687)
(0.000111679 9.35101e-05 -0.000231872)
(0.000268995 0.000235487 -0.000495393)
(0.000106513 0.000102002 -0.000229369)
(0.000147319 0.00012637 -0.000300288)
(0.000899073 0.000586555 -0.000982363)
(0.00114413 0.000555678 -0.000898193)
(0.00117733 0.000725178 -0.00114317)
(0.00161283 0.00100794 -0.00145569)
(0.0012885 0.000842076 -0.0012934)
(0.00124604 0.000594505 -0.000939121)
(0.00160437 0.000928762 -0.00134536)
(0.00127821 0.000773838 -0.00119503)
(0.00198752 0.000275469 -0.0003788)
(0.0016487 0.00039581 -0.000598139)
(0.0020246 0.000493622 -0.000656342)
(0.00257737 0.000750324 -0.000846242)
(0.00217439 0.00087245 -0.00112138)
(0.00216051 0.00061521 -0.00078398)
(0.00165284 0.00046763 -0.000694126)
(0.00204297 0.000822616 -0.00108971)
(0.00202826 0.000575037 -0.000762291)
(0.000818681 0.000257884 -0.000489774)
(0.00112297 0.000494973 -0.000812438)
(0.00110165 0.000325816 -0.000570389)
(0.0012686 0.000151397 -0.000313442)
(0.00153041 0.000367297 -0.000578054)
(0.00119913 0.000292157 -0.00051437)
(0.00122459 0.000530067 -0.000849445)
(0.00153494 0.000435859 -0.000670437)
(0.00120416 0.000350993 -0.000596153)
(0.00172856 0.00106656 -0.00150793)
(0.00209768 0.00125395 -0.00165902)
(0.00263486 0.00142673 -0.00170721)
(0.00219817 0.00096633 -0.00123972)
(0.00222236 0.0012234 -0.00157816)
(0.0017207 0.000983751 -0.0013937)
(0.00206646 0.000912862 -0.00120473)
(0.00209163 0.00116032 -0.00153338)
(0.000841387 0.000604819 -0.00103012)
(0.00106186 0.000573052 -0.000946805)
(0.00110762 0.000742646 -0.00119473)
(0.0015417 0.00102235 -0.00150661)
(0.00122732 0.000857238 -0.00134008)
(0.001159 0.00061161 -0.000989582)
(0.00151863 0.000945144 -0.00140367)
(0.00120449 0.000791041 -0.0012481)
(0.00179286 0.000283061 -0.000433158)
(0.00154456 0.000404048 -0.000634542)
(0.00190715 0.000501446 -0.000700958)
(0.00244744 0.000758491 -0.000905799)
(0.00207614 0.000882723 -0.00117394)
(0.00204347 0.000623844 -0.000834165)
(0.00155332 0.000476893 -0.000733564)
(0.00194838 0.000833077 -0.00113987)
(0.00191565 0.00058383 -0.000809591)
(0.000754721 0.000268444 -0.000514445)
(0.00105813 0.000506929 -0.000847557)
(0.0010244 0.000335879 -0.000599515)
(0.00112046 0.000159803 -0.000343057)
(0.0014313 0.000375683 -0.000611988)
(0.00111345 0.000300963 -0.000541841)
(0.00115598 0.000541837 -0.000886034)
(0.00143992 0.000445282 -0.000707525)
(0.00112236 0.000360893 -0.000627052)
(0.00165412 0.00108073 -0.00156046)
(0.00201337 0.00126736 -0.00171695)
(0.00251757 0.00144089 -0.00178462)
(0.00207351 0.000981265 -0.00131028)
(0.00211679 0.00123839 -0.00164759)
(0.00163097 0.00099986 -0.001454)
(0.00194645 0.000928069 -0.00127228)
(0.00199 0.00117559 -0.00160035)
(0.00391269 0.00233127 -0.0023065)
(0.00442027 0.00264622 -0.00242212)
(0.00453066 0.00220226 -0.00183609)
(0.00456995 0.00260709 -0.00229687)
(0.0038884 0.00219399 -0.00215334)
(0.00435625 0.00210301 -0.00180778)
(0.00439577 0.00249902 -0.00226216)
(0.00258859 0.00080853 -0.000928912)
(0.00306305 0.00130061 -0.00139701)
(0.00303108 0.000975377 -0.000996137)
(0.00318946 0.000678018 -0.000573819)
(0.00365421 0.00111996 -0.000938357)
(0.00317606 0.000926343 -0.000883091)
(0.00321649 0.00137136 -0.00142668)
(0.00366246 0.00123947 -0.00108054)
(0.00318456 0.0010368 -0.00101778)
(0.00374875 0.00223251 -0.00226627)
(0.00327365 0.0019542 -0.00214048)
(0.00265774 0.0015134 -0.00182873)
(0.00305567 0.00142367 -0.00155942)
(0.00309712 0.00174704 -0.00195635)
(0.00372453 0.00209859 -0.00211551)
(0.00320844 0.00149787 -0.00159259)
(0.00324964 0.00183053 -0.00199732)
(0.00454387 0.00204887 -0.00164419)
(0.00451262 0.00164158 -0.00117759)
(0.00417053 0.00105881 -0.000651483)
(0.00381882 0.00119079 -0.000956009)
(0.00432935 0.00142316 -0.00100745)
(0.00436882 0.00195292 -0.00161892)
(0.00382724 0.00131333 -0.00110069)
(0.00433753 0.00155454 -0.00115895)
(0.000868153 0.000732905 -0.00121008)
(0.000790047 0.000676399 -0.00113902)
(4.39299e-05 2.72635e-06 -4.70254e-05)
(9.77626e-05 3.31181e-05 -0.000128728)
(0.00279584 0.00192136 -0.0022655)
(0.00294091 0.00200992 -0.00231807)
(0.000845964 0.000741037 -0.00123198)
(0.00076939 0.000684663 -0.00116056)
(4.37869e-05 1.94804e-05 -5.69984e-05)
(9.81e-05 4.72283e-05 -0.000151177)
(0.000950476 0.000790449 -0.00128026)
(0.00103698 0.000849087 -0.00134951)
(0.00265394 0.00183534 -0.00221188)
(0.00251527 0.00175179 -0.00215718)
(0.000926721 0.000798445 -0.00130255)
(0.00101163 0.000856942 -0.00137222)
(0.00260589 0.00184102 -0.00224438)
(0.0024688 0.00175763 -0.00218874)
(0.00274623 0.00192689 -0.00229898)
(0.00288976 0.00201529 -0.00235255)
(3.02979e-10 2.11274e-11 7.36474e-10)
(2.7613e-10 1.91732e-11 6.58178e-10)
(3.18704e-10 2.24807e-11 7.51834e-10)
(3.09662e-10 2.3852e-11 7.38009e-10)
(3.5268e-10 3.13234e-11 8.54152e-10)
(3.54822e-10 3.02382e-11 8.38261e-10)
(5.11641e-09 -5.20967e-09 1.62817e-09)
(4.99463e-09 -4.49565e-09 1.49318e-09)
(7.08974e-09 -7.67479e-09 1.65161e-09)
(2.91299e-08 -5.99775e-08 -3.46795e-10)
(6.37308e-08 -1.17176e-07 4.39699e-09)
(3.90825e-08 -8.91999e-08 -9.91083e-10)
(3.02e-10 2.13145e-11 7.29122e-10)
(2.58481e-10 1.4468e-11 6.19618e-10)
(2.98232e-10 1.81554e-11 7.0741e-10)
(3.80948e-09 -3.42076e-09 1.64611e-09)
(2.06007e-09 -1.30132e-09 1.44974e-09)
(2.87618e-09 -2.34044e-09 1.61347e-09)
(8.49291e-10 -2.29979e-10 1.39812e-09)
(7.85387e-10 -1.7169e-10 1.28578e-09)
(9.92262e-10 -3.46927e-10 1.44367e-09)
(2.15045e-10 8.77507e-12 4.51692e-10)
(2.53005e-10 1.43707e-11 5.71238e-10)
(2.16939e-10 8.67485e-12 4.59244e-10)
(2.83059e-10 1.8992e-11 6.39984e-10)
(2.47878e-10 1.33173e-11 5.25995e-10)
(2.42266e-10 1.2755e-11 5.14333e-10)
(4.45146e-10 3.51781e-11 1.06456e-09)
(3.86963e-10 3.05272e-11 9.19853e-10)
(4.42364e-10 3.54681e-11 1.03711e-09)
(3.67242e-10 3.10383e-11 8.81629e-10)
(3.32835e-10 2.91668e-11 7.95485e-10)
(3.80494e-10 3.42799e-11 8.99562e-10)
(3.05526e-10 1.74792e-11 6.58629e-10)
(3.49604e-10 2.48657e-11 7.9867e-10)
(2.97385e-10 1.72574e-11 6.42255e-10)
(2.54776e-10 1.33115e-11 5.41044e-10)
(3.03535e-10 2.24754e-11 6.89718e-10)
(2.59808e-10 1.42165e-11 5.53441e-10)
(0.000792382 0.000455194 -0.000791464)
(0.000696121 0.000378956 -0.000682321)
(0.000809107 0.00039278 -0.000688254)
(0.000725115 0.000359964 -0.000645145)
(0.000711244 0.000418429 -0.000742941)
(0.000410129 0.000357005 -0.000696595)
(0.000463122 0.00040789 -0.000772014)
(0.000312273 0.000176432 -0.000371026)
(0.000354846 0.000221655 -0.000448333)
(0.000314649 0.000211204 -0.000436158)
(0.000370137 0.000205691 -0.000418318)
(0.000370053 0.000244383 -0.00048904)
(1.16433e-09 -4.78624e-10 1.06069e-09)
(2.92534e-09 -2.12341e-09 1.33591e-09)
(1.52094e-09 -7.6361e-10 1.08573e-09)
(1.89496e-08 -3.42626e-08 3.52592e-10)
(1.95164e-08 -2.61857e-08 1.08161e-09)
(1.05637e-08 -1.48031e-08 8.33475e-10)
(2.26347e-05 7.66636e-06 -4.48583e-05)
(3.10687e-06 3.54051e-06 -1.45227e-05)
(2.14563e-05 1.85762e-05 -4.90994e-05)
(5.89943e-06 -1.83152e-07 -1.53732e-05)
(2.63529e-05 6.49781e-06 -4.72623e-05)
(1.73406e-05 1.76348e-05 -4.4321e-05)
(5.60416e-06 -1.63545e-06 -1.54226e-05)
(0.000189216 9.58204e-05 -0.000224932)
(0.000246893 0.000133784 -0.000294937)
(0.000220775 0.000130129 -0.000283576)
(0.000186006 0.000121693 -0.000271501)
(0.00023791 0.000118038 -0.000264799)
(0.000198107 0.000108622 -0.000250865)
(0.000175165 0.000108173 -0.000242916)
(8.31848e-08 -2.84015e-07 -1.09859e-08)
(1.49187e-07 -2.7954e-07 7.96162e-09)
(1.66733e-07 -3.08017e-07 1.84311e-08)
(0.000706268 0.000286046 -0.000531563)
(0.000746777 0.000323046 -0.000591221)
(0.000676407 0.000337047 -0.000617199)
(0.000797164 0.00035363 -0.000629124)
(0.000713052 0.000323996 -0.000589714)
(0.000665651 0.000296803 -0.000554819)
(0.000790868 0.000312481 -0.000567114)
(0.000349168 0.000163617 -0.000343727)
(0.000300181 0.000159458 -0.000338684)
(0.000336988 0.000198648 -0.000405373)
(0.00027096 0.000152519 -0.00032391)
(0.000357885 0.000185602 -0.000382012)
(0.000291286 0.000140597 -0.000304509)
(0.000325583 0.000175333 -0.000363744)
(0.000360898 0.000307179 -0.000620531)
(0.000315059 0.000258474 -0.000543777)
(8.87002e-06 4.68007e-06 -1.81339e-05)
(2.61533e-05 1.69343e-05 -5.31613e-05)
(6.62233e-06 -5.039e-07 -1.42735e-05)
(3.35909e-05 -5.4747e-06 -5.38551e-05)
(3.19391e-05 1.22374e-05 -5.79624e-05)
(4.57252e-06 -1.02173e-06 -7.08766e-06)
(0.000258731 0.000147675 -0.00032333)
(0.000263365 0.000178578 -0.00038271)
(0.00020172 0.000133681 -0.000300489)
(0.000209476 0.00011956 -0.000275188)
(0.000216005 0.000146636 -0.000328572)
(3.15077e-08 -6.46975e-08 -7.12568e-10)
(1.10089e-07 -2.04614e-07 2.88378e-09)
(7.00928e-08 -1.15295e-07 1.51675e-09)
(0.00403969 0.00270585 -0.00265647)
(0.00420779 0.00281676 -0.00270064)
(0.00412581 0.00177937 -0.00150415)
(0.00404015 0.00193705 -0.00174753)
(0.00419823 0.00190287 -0.00163003)
(0.00429949 0.0018686 -0.001527)
(0.0042112 0.0020299 -0.00177584)
(0.00298017 0.00104813 -0.00108279)
(0.00272677 0.000996132 -0.00111508)
(0.00282685 0.00108304 -0.00118158)
(0.00288157 0.00115843 -0.00127007)
(0.0029778 0.00114545 -0.00120741)
(0.00282878 0.000988758 -0.00106006)
(0.00287487 0.00105533 -0.0011405)
(0.00378208 0.0013881 -0.00118691)
(0.00394589 0.0015804 -0.00134809)
(0.00366618 0.00151343 -0.001403)
(0.00382615 0.00147141 -0.00128116)
(0.00377745 0.00150039 -0.0013263)
(0.00395101 0.00146516 -0.00120589)
(0.00366047 0.00139449 -0.0012591)
(0.00387424 0.00259792 -0.00261126)
(0.00371152 0.0024929 -0.00256502)
(0.00277228 0.00130318 -0.00149455)
(0.00283656 0.00117511 -0.00129592)
(0.0029068 0.00127032 -0.00140382)
(0.00298738 0.00124054 -0.00132451)
(0.00292038 0.00137237 -0.00152881)
(0.00395479 0.00169331 -0.00148062)
(0.00387174 0.00184736 -0.00171851)
(0.00369284 0.00164296 -0.00155031)
(0.00378643 0.00161037 -0.00145639)
(0.00370604 0.00176076 -0.00168875)
(0.00429681 0.00162881 -0.0012421)
(0.00411706 0.00166356 -0.00136924)
(0.00417074 0.00176298 -0.00147544)
(0.00399456 0.00155148 -0.00130267)
(0.00429085 0.00174989 -0.00138976)
(0.0041226 0.00154539 -0.00122428)
(0.00416562 0.00163475 -0.00132363)
(2.11682e-10 9.91637e-12 4.42917e-10)
(2.36721e-10 1.2583e-11 5.37155e-10)
(2.02674e-10 9.57967e-12 4.30607e-10)
(4.67728e-10 2.82208e-11 1.10309e-09)
(4.27837e-10 2.75036e-11 1.00413e-09)
(4.91555e-10 2.53245e-11 1.13014e-09)
(7.57778e-10 -1.52402e-10 1.36467e-09)
(5.71838e-10 -3.71308e-11 1.17283e-09)
(6.84171e-10 -9.32053e-11 1.31775e-09)
(9.34891e-10 -2.96415e-10 1.04101e-09)
(1.29345e-09 -5.77611e-10 1.26777e-09)
(7.74589e-10 -1.88321e-10 1.01605e-09)
(6.03565e-10 -6.56111e-11 1.11139e-09)
(4.26767e-10 -2.09285e-13 8.60062e-10)
(4.53379e-10 -9.67086e-12 8.87041e-10)
(3.1476e-10 1.72406e-11 6.78923e-10)
(3.81619e-10 2.45709e-11 8.70778e-10)
(3.22827e-10 1.73903e-11 6.98517e-10)
(4.78591e-10 -9.79811e-13 1.01342e-09)
(4.05209e-10 6.16499e-12 8.35111e-10)
(3.86299e-10 1.01725e-11 8.09581e-10)
(0.000725822 0.000475622 -0.000841362)
(0.000637649 0.000397695 -0.000723826)
(0.000674694 0.000430863 -0.000777437)
(0.000649681 0.00043916 -0.000791631)
(0.000600898 0.000398627 -0.0007319)
(0.000397612 0.000365932 -0.000716132)
(0.000449403 0.000416714 -0.000791908)
(0.000248685 0.00021918 -0.000446409)
(0.000319796 0.000241952 -0.000485059)
(0.000282516 0.000234062 -0.000478704)
(0.00033313 0.000266813 -0.00053268)
(0.000296613 0.000247623 -0.000495578)
(1.3771e-05 4.23112e-05 -6.63549e-05)
(3.53296e-06 1.09179e-05 -1.74284e-05)
(1.99268e-05 3.0155e-05 -6.019e-05)
(6.72228e-06 2.42265e-05 -2.60217e-05)
(1.55241e-05 2.79178e-05 -5.33595e-05)
(1.88716e-05 4.5453e-05 -7.38332e-05)
(4.29351e-06 2.16673e-05 -2.31314e-05)
(0.000141436 0.000135468 -0.000282379)
(0.000193132 0.000173308 -0.000359394)
(0.000199882 0.000143946 -0.000304995)
(0.000168954 0.000136899 -0.000294875)
(0.000157765 0.00012246 -0.000263496)
(0.000180233 0.000156488 -0.000324434)
(0.000153733 0.000149276 -0.00031305)
(0.000575073 0.000319749 -0.000604724)
(0.000695863 0.000334924 -0.000618613)
(0.000630349 0.000349967 -0.00064669)
(0.000663887 0.000387832 -0.000709236)
(0.000618561 0.000308871 -0.000581272)
(0.000589865 0.000358733 -0.000667398)
(0.000648932 0.000345653 -0.000642857)
(0.000271019 0.000200379 -0.000407065)
(0.000236788 0.000198067 -0.000405173)
(0.000309432 0.000212722 -0.000431217)
(0.000246438 0.000165993 -0.000346046)
(0.000297412 0.000188507 -0.000386568)
(0.000284742 0.000223416 -0.000450305)
(0.000223422 0.000178165 -0.000366026)
(0.000349531 0.000316226 -0.000639691)
(0.000304837 0.000267718 -0.000562592)
(1.03466e-05 1.89236e-05 -2.561e-05)
(2.47077e-05 3.46939e-05 -6.83466e-05)
(8.66619e-06 2.80037e-05 -3.17147e-05)
(3.0592e-05 3.89965e-05 -7.66932e-05)
(2.47919e-05 4.95373e-05 -8.42003e-05)
(0.000204956 0.000191383 -0.000396508)
(0.000235946 0.000201964 -0.000423913)
(0.000179998 0.000155365 -0.000333684)
(0.00019325 0.000170633 -0.000368315)
(0.000165353 0.000164386 -0.000345926)
(0.00087776 0.000492816 -0.000839201)
(0.000897346 0.000426458 -0.000730551)
(0.000952458 0.000481855 -0.000814088)
(0.000989774 0.000461106 -0.000772026)
(0.00096733 0.0005314 -0.000886146)
(0.00164071 0.00122873 -0.0017443)
(0.0015303 0.0011617 -0.00168106)
(0.00162902 0.000695877 -0.0010035)
(0.00146164 0.000676581 -0.00101873)
(0.00158958 0.000789593 -0.00115103)
(0.00151272 0.000652966 -0.000966988)
(0.00147609 0.000742807 -0.00110889)
(0.00253548 0.000878041 -0.00101263)
(0.00258184 0.000939638 -0.00108908)
(0.00267907 0.00102333 -0.00115505)
(0.00244745 0.000979199 -0.00118278)
(0.00268053 0.000932091 -0.00103668)
(0.0025345 0.00096622 -0.00112781)
(0.00244015 0.000885761 -0.0010625)
(0.00186084 0.000643786 -0.0008821)
(0.00173836 0.000673053 -0.000948944)
(0.00166139 0.000612255 -0.000890554)
(0.00179069 0.000729526 -0.00102439)
(0.0017365 0.000603426 -0.000853886)
(0.00186223 0.00071653 -0.000980624)
(0.00178235 0.000652425 -0.000920716)
(0.000972778 0.000368075 -0.000636011)
(0.000832172 0.000350156 -0.000626993)
(0.000885533 0.000384129 -0.000667768)
(0.00093187 0.000428644 -0.000736385)
(0.000879726 0.000339787 -0.000601931)
(0.000978101 0.000415601 -0.000705639)
(0.000921768 0.000378248 -0.000662136)
(0.00149888 0.000528338 -0.000795301)
(0.00161817 0.000631478 -0.000916502)
(0.00143962 0.000604708 -0.000921432)
(0.00154413 0.000573999 -0.000859784)
(0.00150174 0.000591693 -0.000883295)