/*--------------------------------*- C++ -*----------------------------------*\
| =========                 |                                                 |
| \\      /  F ield         | OpenFOAM: The Open Source CFD Toolbox           |
|  \\    /   O peration     | Version:  2012                                  |
|   \\  /    A nd           | Website:  www.openfoam.com                      |
|    \\/     M anipulation  |                                                 |
\*---------------------------------------------------------------------------*/
FoamFile
{
    version     2.0;
    format      ascii;
    class       volVectorField;
    location    "0.105/solid";
    object      D;
}
// * * * * * * * * * * * * * * * * * * * * * * * * * * * * * * * * * * * * * //

dimensions      [0 1 0 0 0 0 0];


internalField   nonuniform List<vector> 
3124
(
(1.91033e-11 5.57885e-11 4.23163e-11)
(-5.8262e-15 2.53431e-13 -8.89369e-13)
(3.56112e-12 -4.06127e-13 2.34368e-11)
(6.97704e-11 2.35975e-10 -4.2035e-12)
(1.91314e-12 7.44333e-13 4.20355e-11)
(1.35659e-13 1.8097e-13 -1.80823e-12)
(4.56983e-12 -4.80281e-13 2.37136e-11)
(7.2195e-11 2.39926e-10 -3.62546e-12)
(1.79126e-12 2.7271e-13 4.2596e-11)
(-2.27963e-13 8.84475e-12 1.92602e-11)
(1.27725e-11 3.965e-11 5.3098e-11)
(8.83063e-11 2.30875e-10 3.4151e-11)
(-9.61226e-13 -9.17176e-12 3.42281e-11)
(8.0255e-13 -4.3552e-13 1.78451e-11)
(-4.9625e-12 7.4379e-12 1.66244e-11)
(4.13153e-12 -5.31266e-12 3.27985e-11)
(4.60362e-13 1.98407e-11 5.238e-11)
(3.23327e-12 -4.89263e-12 2.72111e-11)
(8.7294e-12 -2.71043e-12 2.79643e-11)
(8.51375e-11 2.375e-10 1.8422e-11)
(-1.08575e-12 -6.73942e-13 3.42222e-11)
(-1.25917e-12 -5.76326e-13 3.40048e-11)
(7.60601e-13 -4.09946e-13 1.77462e-11)
(4.61792e-10 5.02191e-10 4.14775e-11)
(3.11398e-11 4.23093e-11 3.65604e-11)
(2.2067e-11 6.37755e-11 3.89137e-11)
(6.15755e-11 1.5188e-10 9.94495e-11)
(1.91518e-10 5.88268e-10 2.01732e-10)
(1.97122e-11 3.07663e-11 2.91744e-11)
(1.15641e-10 1.30458e-10 8.31381e-11)
(2.26536e-12 -1.08281e-12 8.9045e-12)
(1.82447e-12 -1.98414e-12 2.1691e-11)
(2.36381e-12 -6.88772e-13 9.16343e-12)
(3.73148e-10 4.16288e-10 -3.72412e-13)
(5.89547e-11 1.60223e-10 -2.63889e-12)
(2.24255e-10 9.25344e-10 -6.62897e-12)
(6.75533e-11 2.33899e-10 -3.62537e-12)
(3.91382e-10 4.28548e-10 2.58504e-12)
(2.16372e-10 9.17052e-10 -3.9256e-12)
(5.61013e-11 1.5833e-10 -3.04018e-12)
(2.17197e-11 6.83829e-11 3.87319e-11)
(6.22999e-12 -1.17169e-11 4.7678e-11)
(-2.69634e-12 1.68404e-12 -6.26034e-12)
(-3.09063e-12 8.72816e-12 9.26462e-13)
(-1.12748e-11 1.34432e-11 3.14576e-12)
(8.02659e-12 -7.05476e-15 2.82756e-11)
(2.85361e-12 -1.52274e-12 1.03067e-11)
(7.23288e-12 -1.03287e-13 2.04382e-11)
(4.09312e-10 4.41332e-10 1.25315e-11)
(7.55308e-11 2.42812e-10 9.91947e-13)
(5.98857e-11 1.62401e-10 -1.93281e-12)
(2.28382e-10 9.37094e-10 -5.38262e-12)
(3.91524e-10 4.28807e-10 2.96455e-12)
(2.41705e-10 9.61008e-10 8.21463e-12)
(6.30168e-11 1.64687e-10 -2.09901e-13)
(8.71203e-13 -3.01183e-12 4.15807e-11)
(-1.68551e-12 -4.10771e-13 3.27574e-11)
(4.51933e-13 -2.75032e-13 1.69159e-11)
(1.65551e-13 -1.05145e-13 2.193e-12)
(2.78603e-12 9.48132e-12 9.70955e-12)
(-4.32563e-12 1.13749e-11 6.51268e-11)
(2.90146e-11 3.09126e-11 3.53793e-11)
(6.30987e-11 4.46941e-11 3.0189e-11)
(8.31926e-12 4.54328e-11 4.90263e-11)
(4.60828e-12 -4.67996e-12 5.98493e-11)
(2.30426e-10 8.34246e-10 3.10339e-12)
(3.00924e-11 4.26082e-11 3.77542e-11)
(4.67005e-10 5.01514e-10 3.6529e-11)
(8.86176e-11 2.07935e-10 6.94363e-11)
(2.42721e-10 9.00905e-10 3.98191e-11)
(9.1799e-11 1.68272e-10 2.04689e-11)
(2.12657e-10 7.68858e-10 1.11633e-10)
(4.49044e-10 4.68527e-10 2.70528e-11)
(9.90581e-11 1.62443e-10 5.02799e-11)
(2.71977e-10 1.14546e-09 2.18527e-11)
(2.25212e-10 9.57892e-10 7.44464e-11)
(-5.73652e-12 2.86111e-12 6.7258e-11)
(-4.14365e-12 -9.67978e-12 5.52379e-11)
(3.54931e-11 3.78712e-11 5.49392e-11)
(5.23314e-11 4.83436e-11 7.51067e-12)
(5.54755e-11 5.11644e-11 2.05941e-11)
(7.89932e-13 -8.31338e-13 6.13591e-12)
(6.21077e-13 -4.14811e-13 6.12809e-12)
(2.09541e-12 -2.11827e-12 2.0813e-11)
(7.21342e-13 -2.39843e-13 3.24702e-12)
(1.80667e-12 -9.63671e-13 7.01787e-12)
(-5.95304e-13 -2.2817e-13 1.85549e-12)
(2.02435e-13 -5.64132e-13 4.7542e-12)
(3.65909e-11 4.59104e-11 -9.53211e-14)
(3.3836e-11 4.51563e-11 -1.2502e-12)
(2.57545e-10 1.18798e-09 -2.59494e-12)
(2.4999e-10 1.18408e-09 -2.1711e-12)
(3.7124e-10 4.15604e-10 -6.16257e-13)
(6.55418e-11 2.32858e-10 -3.79789e-12)
(2.14293e-10 9.1801e-10 -6.21417e-12)
(5.28213e-11 1.56859e-10 -3.1193e-12)
(2.48004e-10 1.18712e-09 -3.99814e-12)
(3.33016e-11 4.49435e-11 -6.64754e-13)
(2.67886e-11 4.82699e-11 5.02529e-11)
(1.87801e-11 1.17098e-12 4.38749e-11)
(-6.56337e-12 2.63657e-12 -1.69645e-12)
(-1.34704e-11 1.0535e-11 5.5376e-11)
(-1.65606e-11 1.32423e-11 1.3663e-11)
(7.17342e-13 8.0884e-12 -3.21481e-12)
(-8.6468e-12 1.62884e-11 1.02136e-11)
(-1.14481e-11 3.18844e-12 5.83634e-11)
(3.46531e-11 1.34423e-11 4.44057e-12)
(-1.22125e-11 1.32754e-11 1.96995e-11)
(-4.84534e-12 -3.5577e-12 3.36472e-11)
(-1.74905e-12 -2.42915e-12 4.45282e-11)
(6.11135e-12 6.22422e-12 2.25932e-11)
(1.3101e-12 -1.2142e-12 7.30813e-12)
(4.73221e-12 5.04407e-13 1.55068e-11)
(-5.28145e-12 -6.10169e-12 3.84713e-11)
(3.52021e-12 5.63885e-12 1.49397e-11)
(4.54705e-11 4.08351e-12 2.13764e-12)
(4.14912e-10 4.44136e-10 1.41597e-11)
(8.01954e-11 2.4148e-10 8.63512e-12)
(2.45378e-10 9.06356e-10 3.05147e-11)
(8.38851e-11 1.6851e-10 1.03753e-11)
(4.50889e-10 4.68764e-10 2.49237e-11)
(2.44332e-10 9.49803e-10 1.71329e-11)
(7.2828e-11 1.67157e-10 3.52748e-12)
(3.71099e-11 4.60305e-11 -3.59079e-13)
(4.15103e-11 4.66184e-11 1.00016e-12)
(2.62419e-10 1.20718e-09 -3.02909e-12)
(2.78634e-10 1.25133e-09 9.34121e-12)
(2.7665e-10 1.1466e-09 2.05428e-11)
(2.80328e-10 1.22959e-09 1.71387e-11)
(5.13925e-11 4.85756e-11 5.9283e-12)
(4.3145e-11 4.70817e-11 1.10804e-12)
(3.04054e-13 -3.12699e-12 3.77931e-11)
(-1.60604e-12 -4.4802e-13 3.30475e-11)
(4.49645e-13 -2.71039e-13 1.69957e-11)
(5.79483e-13 -2.00938e-13 3.01567e-12)
(2.23632e-13 -1.06622e-13 2.31105e-12)
(-1.05772e-12 -7.26897e-14 8.20658e-13)
(-7.23924e-13 -1.68021e-13 1.58795e-12)
(-9.98979e-13 -9.66542e-14 9.45944e-13)
(2.28297e-10 9.89021e-10 -6.81671e-12)
(-6.94868e-12 -2.79844e-12 -3.59027e-12)
(-3.01236e-13 -3.5552e-13 8.2469e-14)
(-1.13886e-13 -2.55447e-13 1.78432e-11)
(2.3262e-12 -4.90283e-13 2.34937e-11)
(-3.1617e-13 -3.88882e-13 1.82731e-11)
(3.4528e-12 8.52725e-13 4.24268e-11)
(-5.15708e-12 1.12299e-11 -4.33015e-11)
(2.16492e-13 1.20309e-14 -8.56746e-13)
(-4.95834e-13 -3.41753e-13 7.49737e-14)
(4.70879e-13 2.66897e-12 -3.9551e-12)
(7.35131e-12 -6.64674e-13 2.53872e-11)
(-1.51602e-13 -5.18052e-13 1.77045e-11)
(-3.04073e-13 -9.40518e-13 1.90916e-11)
(2.32913e-12 -1.86454e-13 4.34695e-11)
(5.42709e-11 1.07218e-11 1.32467e-10)
(4.45771e-12 9.22283e-12 1.61515e-11)
(-6.88642e-13 1.82637e-11 4.16128e-11)
(-3.86193e-13 -5.79067e-12 5.39485e-11)
(-1.22813e-12 2.71186e-12 1.80256e-10)
(1.13815e-11 1.96096e-11 3.62735e-11)
(3.53771e-12 -2.43662e-12 4.34071e-11)
(-1.24374e-11 1.28486e-10 2.70073e-10)
(2.45776e-11 4.43422e-11 6.20233e-11)
(4.24524e-11 -2.54724e-11 2.18127e-10)
(1.58385e-11 2.12942e-11 6.02985e-11)
(-3.40458e-11 3.1178e-10 1.43764e-10)
(4.33754e-11 6.9451e-11 1.70358e-10)
(3.40199e-11 4.06602e-11 6.30243e-11)
(8.96892e-12 1.1239e-11 2.40764e-10)
(1.16491e-11 5.86578e-12 9.95066e-11)
(-5.52174e-12 -1.12522e-11 4.70359e-11)
(-5.15835e-12 -1.13671e-11 3.97437e-11)
(6.11759e-12 6.76544e-12 1.73367e-10)
(4.79256e-12 9.04811e-12 1.2654e-10)
(-6.57434e-12 -1.18448e-11 5.60271e-11)
(1.17659e-12 -9.38433e-13 1.83216e-11)
(-2.22398e-12 -3.25264e-13 1.28752e-11)
(-2.05273e-12 -7.28305e-13 1.33413e-11)
(-7.01349e-12 4.40005e-11 6.08214e-11)
(-2.45938e-11 -2.83771e-11 2.18868e-10)
(7.75243e-11 3.2139e-10 1.21138e-10)
(-9.77801e-12 5.47492e-12 8.42147e-11)
(-7.45643e-12 5.71891e-12 1.10428e-11)
(-1.11478e-11 1.53047e-11 3.51458e-11)
(-1.28139e-12 -5.28147e-12 4.96575e-11)
(-1.96839e-12 3.03584e-12 1.61224e-10)
(-1.598e-11 1.25175e-11 2.39272e-11)
(-2.91852e-12 -2.031e-12 2.37833e-11)
(1.5766e-11 1.50107e-11 1.47875e-10)
(1.57996e-11 6.91073e-12 1.00257e-10)
(-2.08621e-12 -7.54427e-12 4.19031e-11)
(7.9456e-12 -7.44865e-13 3.28106e-11)
(6.70221e-12 7.37584e-12 1.61199e-10)
(3.84459e-11 1.68872e-11 1.05366e-10)
(-3.26061e-13 -1.86121e-12 3.90943e-11)
(3.73495e-12 1.06329e-11 7.32425e-11)
(1.35748e-11 6.31097e-12 9.26228e-11)
(-2.33002e-12 -6.65874e-12 2.98924e-11)
(6.8087e-12 -2.52931e-12 2.27308e-11)
(3.69794e-12 1.01408e-11 1.14496e-10)
(1.98884e-11 1.04123e-11 7.85213e-11)
(8.65628e-14 -1.65845e-12 2.41178e-11)
(6.5042e-11 1.84289e-11 7.76756e-11)
(1.88844e-11 6.95654e-12 9.43606e-11)
(1.45449e-11 4.68054e-13 2.94689e-11)
(1.24312e-11 -1.60903e-12 2.43195e-11)
(4.58962e-11 1.57809e-11 1.06248e-10)
(2.72946e-11 1.10935e-11 7.49197e-11)
(2.05318e-11 4.66127e-13 2.56288e-11)
(-8.35067e-13 -1.07918e-12 3.44518e-11)
(-1.38024e-12 -5.27787e-13 3.37064e-11)
(6.00275e-13 -3.21089e-13 1.74304e-11)
(-2.25162e-12 -2.94033e-13 1.27851e-11)
(-2.34301e-12 -2.24904e-13 1.24642e-11)
(1.35509e-10 2.50619e-10 1.49203e-10)
(3.15812e-10 5.54936e-10 1.03079e-10)
(3.32563e-10 3.66067e-10 -4.27564e-12)
(2.91327e-10 3.64272e-10 8.86062e-11)
(2.01764e-10 2.36289e-10 1.2799e-10)
(2.39015e-10 3.99065e-10 1.37857e-10)
(2.26352e-10 4.14599e-10 1.02265e-10)
(5.43907e-11 1.35112e-10 1.21555e-10)
(4.44941e-11 6.97492e-11 9.42416e-11)
(1.70781e-11 3.00943e-11 3.0215e-11)
(1.98712e-11 4.33805e-11 3.17145e-11)
(6.14139e-11 1.01782e-10 9.08305e-11)
(7.97209e-11 1.59028e-10 9.50176e-11)
(1.34571e-11 3.74851e-11 3.62084e-11)
(-5.93208e-12 -4.85487e-12 -5.92782e-12)
(-2.64324e-12 -4.35071e-13 1.58354e-11)
(1.79292e-12 -5.96752e-14 7.9018e-12)
(-3.3491e-12 -3.40592e-13 1.56807e-11)
(2.09221e-12 -7.72215e-13 2.33715e-11)
(-7.77294e-13 -1.45686e-12 1.65308e-11)
(-3.59272e-13 -6.10842e-13 1.80929e-11)
(1.59048e-12 1.0131e-14 7.8874e-12)
(-3.30723e-12 -1.34159e-12 1.41067e-11)
(-3.15036e-12 -4.75677e-13 1.54812e-11)
(1.71563e-10 4.63278e-10 -4.99455e-12)
(3.82976e-10 4.22616e-10 9.25202e-13)
(2.61852e-10 6.14302e-10 -2.91549e-12)
(2.12258e-10 3.26009e-10 -4.03288e-12)
(2.17227e-10 3.28852e-10 -3.30697e-12)
(2.66703e-10 6.15545e-10 -3.11894e-12)
(1.67663e-10 4.61795e-10 -4.91952e-12)
(1.74568e-10 4.64686e-10 -4.24161e-12)
(3.84841e-10 4.23401e-10 1.09712e-12)
(2.23093e-10 3.33539e-10 -9.59075e-13)
(2.73952e-10 6.22982e-10 -2.53427e-12)
(1.76805e-10 4.69053e-10 -3.83895e-12)
(2.20709e-10 3.30738e-10 -2.7648e-12)
(2.70944e-10 6.17557e-10 -1.86649e-12)
(4.32633e-12 3.71244e-12 4.21953e-11)
(-5.99048e-12 8.14127e-12 -4.37381e-11)
(6.94401e-13 4.8985e-13 -6.51324e-12)
(-8.4563e-12 6.04346e-12 -5.97442e-12)
(-7.95219e-13 4.00483e-12 -2.94083e-11)
(-7.86227e-12 9.66824e-12 -1.99774e-11)
(-3.12768e-12 3.43788e-12 -9.68092e-12)
(8.88227e-12 6.10137e-13 -3.38071e-11)
(1.42272e-12 1.33294e-11 -3.56217e-11)
(1.42485e-11 2.92317e-11 -1.47684e-11)
(-3.1832e-12 1.47378e-11 -1.62819e-12)
(5.35131e-12 2.65031e-11 -2.38236e-12)
(-8.88921e-13 3.95833e-12 -3.34985e-12)
(-2.94661e-12 1.20125e-11 -3.4631e-11)
(-1.24794e-11 2.40593e-11 -1.0638e-12)
(-1.02225e-11 1.01064e-11 -1.73036e-12)
(-3.92218e-12 1.21779e-11 -1.8807e-12)
(-8.14415e-12 1.13641e-11 -8.81563e-12)
(3.39127e-12 2.43448e-11 -8.75325e-12)
(-5.19829e-12 9.45574e-12 -5.45702e-12)
(7.62038e-12 -5.08911e-13 2.60935e-11)
(-1.60365e-13 1.12047e-12 2.17812e-11)
(-2.98551e-13 -6.67422e-13 1.97613e-11)
(-2.06043e-12 -5.40748e-13 1.59148e-11)
(6.91347e-12 -1.43902e-12 1.75145e-11)
(-1.6724e-12 -7.07704e-13 1.65935e-11)
(-4.1676e-13 1.00666e-13 1.91571e-11)
(7.33941e-12 -1.01143e-12 1.76436e-11)
(-1.80565e-12 -5.55547e-13 1.69423e-11)
(1.82246e-10 4.84894e-10 6.72242e-13)
(3.95306e-10 4.32121e-10 7.37291e-12)
(2.87823e-10 6.53465e-10 5.93185e-12)
(2.33873e-10 3.42507e-10 3.45264e-12)
(1.8891e-10 4.88123e-10 3.01111e-12)
(2.25947e-10 3.38095e-10 2.38443e-12)
(2.8065e-10 6.4943e-10 2.96766e-12)
(1.79289e-10 4.8045e-10 -1.31561e-12)
(3.94673e-10 4.31633e-10 6.07313e-12)
(2.23582e-10 3.34734e-10 1.81349e-13)
(2.75722e-10 6.30985e-10 -1.04703e-12)
(1.78074e-10 4.73473e-10 -2.55229e-12)
(2.23794e-10 3.36791e-10 1.999e-12)
(2.77237e-10 6.40891e-10 -5.27753e-13)
(1.55877e-12 -1.37059e-12 4.38377e-11)
(-1.73822e-12 -3.49936e-13 3.24854e-11)
(3.73098e-13 -2.00433e-13 1.66984e-11)
(-2.42208e-12 -1.85133e-13 1.20438e-11)
(-5.25403e-12 -1.67058e-13 9.61376e-12)
(3.57466e-10 3.10835e-10 5.4004e-11)
(1.79544e-10 1.53e-10 1.20471e-10)
(-1.10232e-11 -4.87953e-12 1.16213e-10)
(3.94428e-12 8.26349e-12 1.08985e-11)
(2.48902e-12 1.69186e-11 2.93699e-11)
(2.48234e-11 2.96713e-11 2.80427e-11)
(-3.2348e-11 5.15362e-11 1.56229e-10)
(6.88153e-12 1.50962e-11 2.74617e-11)
(1.79057e-11 -4.98968e-13 1.3747e-11)
(4.93651e-11 1.98697e-11 1.79969e-10)
(-2.49675e-12 1.62036e-11 5.61668e-11)
(4.71074e-12 1.0406e-11 2.46867e-10)
(1.20436e-11 1.73159e-11 6.79486e-11)
(2.63986e-11 2.21184e-11 2.82316e-10)
(5.8231e-13 6.48709e-12 1.99873e-10)
(1.49683e-11 2.17909e-11 5.42456e-11)
(1.57786e-11 3.93108e-11 1.71388e-10)
(8.27505e-11 8.69157e-11 6.33232e-11)
(1.42462e-11 2.05472e-11 3.02131e-11)
(2.96774e-11 2.93534e-11 5.6406e-11)
(9.08539e-11 9.33262e-11 1.07984e-10)
(3.92056e-11 2.89251e-11 2.6714e-10)
(2.33388e-11 2.52541e-11 3.99681e-11)
(2.75073e-10 2.15127e-10 1.55835e-11)
(2.94263e-11 5.05155e-11 4.26449e-11)
(1.97142e-11 1.6382e-10 9.29295e-11)
(3.99904e-10 7.18331e-10 4.04258e-11)
(1.85284e-10 3.76937e-10 1.17834e-10)
(1.07505e-10 1.36138e-10 2.11795e-10)
(2.07742e-11 1.5424e-11 4.15162e-11)
(3.15718e-12 8.0824e-11 2.74761e-10)
(7.66447e-12 4.28969e-11 3.58803e-11)
(1.04174e-10 2.09432e-10 1.22536e-10)
(3.9701e-11 -1.67678e-10 2.26526e-10)
(3.24455e-11 5.03379e-11 4.11869e-11)
(1.12198e-11 8.96742e-11 2.9052e-10)
(7.74865e-12 4.20706e-12 6.29098e-11)
(8.43745e-12 2.99895e-11 1.98261e-10)
(9.72146e-12 1.58556e-11 7.54497e-11)
(2.39603e-11 4.97406e-11 3.07935e-10)
(1.22846e-11 3.27834e-11 1.84714e-10)
(1.67527e-11 3.04022e-11 7.35868e-11)
(3.39483e-10 7.50004e-10 5.50001e-11)
(1.11346e-10 2.53066e-10 1.18381e-10)
(1.71511e-10 3.7973e-10 1.39513e-10)
(5.15725e-11 1.30071e-10 2.32465e-10)
(8.88109e-11 1.15776e-10 4.07727e-11)
(1.78434e-11 3.80406e-11 3.10481e-11)
(2.61131e-11 4.25529e-11 6.28917e-11)
(7.70567e-11 1.2389e-10 1.43501e-10)
(3.28769e-11 5.43045e-11 2.95841e-10)
(2.76676e-11 5.39423e-11 5.23557e-11)
(2.36941e-10 4.711e-10 5.92974e-11)
(3.32628e-10 6.15144e-10 6.12904e-11)
(4.51309e-10 4.79651e-10 3.75878e-11)
(3.03572e-10 3.69287e-10 5.94731e-11)
(2.42684e-10 4.42424e-10 8.60259e-11)
(3.29695e-10 6.38749e-10 4.40992e-11)
(2.95174e-10 3.70238e-10 4.13804e-11)
(2.32857e-10 4.78307e-10 4.41395e-11)
(4.52544e-10 4.7825e-10 3.41592e-11)
(3.25455e-10 6.4442e-10 2.80636e-11)
(2.8158e-10 3.61537e-10 2.71525e-11)
(3.26712e-10 6.43933e-10 3.39538e-11)
(2.86644e-10 3.64438e-10 3.42007e-11)
(2.27878e-10 4.81842e-10 3.22845e-11)
(4.07383e-10 7.55078e-10 2.45255e-11)
(4.19215e-10 7.9004e-10 2.56806e-11)
(2.62697e-10 1.12835e-09 3.06874e-11)
(3.68915e-10 8.91489e-10 2.20096e-11)
(3.63203e-10 8.82924e-10 2.80377e-11)
(3.43373e-10 7.95455e-10 4.56603e-11)
(2.53541e-10 1.0825e-09 3.70206e-11)
(3.61182e-10 8.72475e-10 3.06099e-11)
(4.25773e-10 7.91732e-10 2.15847e-11)
(4.20951e-10 7.93432e-10 2.39034e-11)
(1.23806e-11 1.34413e-11 2.68647e-10)
(-7.01533e-12 -6.39377e-12 6.04465e-11)
(4.88447e-12 1.09069e-11 2.49602e-10)
(4.8285e-12 8.03718e-12 7.36021e-11)
(2.37985e-11 2.15954e-11 2.90538e-10)
(5.28717e-12 7.23016e-12 1.99296e-10)
(-2.49667e-12 -2.72007e-12 6.95977e-11)
(1.1719e-11 1.56479e-11 2.61007e-10)
(-5.334e-12 -1.13949e-11 4.69128e-11)
(6.55533e-12 2.58896e-11 1.82151e-10)
(1.76668e-12 2.45353e-12 7.2824e-11)
(2.04313e-11 3.90047e-11 3.03982e-10)
(4.06016e-12 1.29209e-11 1.42506e-10)
(-3.44415e-12 -7.49027e-12 6.53206e-11)
(1.63211e-11 1.83006e-11 2.83879e-10)
(8.37492e-11 9.42475e-11 1.52903e-10)
(2.11008e-11 2.11288e-11 7.10146e-11)
(1.74493e-11 2.43755e-11 7.25182e-11)
(3.22062e-11 2.94109e-11 2.86565e-10)
(3.02759e-11 4.4217e-11 2.98982e-10)
(6.8071e-12 7.48423e-12 7.47208e-11)
(3.4264e-10 2.91018e-10 4.6732e-11)
(3.317e-10 2.84022e-10 3.5144e-11)
(2.25511e-10 1.86267e-10 1.88312e-11)
(5.26187e-11 4.87313e-11 9.96942e-12)
(2.23324e-10 1.86982e-10 2.5312e-11)
(3.1941e-10 2.73893e-10 2.37304e-11)
(3.25939e-10 2.78368e-10 3.06977e-11)
(2.17701e-10 1.92142e-10 5.37268e-11)
(5.55153e-11 4.8199e-11 1.23501e-11)
(2.37538e-10 1.94948e-10 2.63689e-11)
(2.2566e-14 -1.84656e-13 -2.25978e-13)
(5.30608e-13 -9.70637e-14 5.54322e-12)
(-4.29448e-13 -1.59864e-14 -8.06048e-13)
(2.82576e-13 -1.50149e-14 5.28659e-12)
(-3.52269e-13 -3.41726e-14 -9.22818e-13)
(-4.02861e-13 -2.07698e-14 -7.66298e-13)
(1.28013e-12 -1.23873e-12 1.8624e-11)
(-1.0674e-12 -1.61031e-12 1.57413e-11)
(-1.92871e-12 -9.99742e-13 1.36428e-11)
(-5.15553e-12 -2.75795e-13 1.04054e-11)
(1.23957e-12 -5.64212e-13 4.14129e-12)
(-5.06052e-12 -6.72771e-13 1.08668e-11)
(-3.79132e-12 -1.56152e-12 1.33371e-11)
(1.53361e-12 -7.92508e-13 4.81504e-12)
(-4.94505e-12 -9.43967e-13 1.11542e-11)
(-6.99058e-13 -2.26114e-14 -1.65593e-12)
(-2.5151e-13 -4.23173e-13 2.67926e-12)
(-5.35609e-13 -1.98803e-14 -1.43607e-12)
(-3.36136e-13 -2.88335e-14 -9.9495e-13)
(-3.51645e-14 -5.66761e-13 3.26081e-12)
(-5.01329e-13 -3.3301e-14 -1.38125e-12)
(2.45098e-10 2.41746e-10 -2.19536e-12)
(2.52982e-10 2.45679e-10 -2.10641e-12)
(1.75384e-10 1.69534e-10 -5.80369e-13)
(3.57031e-11 4.57246e-11 -1.02358e-12)
(1.73225e-10 1.68586e-10 -1.61087e-12)
(2.58362e-10 2.48596e-10 -9.58407e-14)
(2.54525e-10 2.4644e-10 -1.40073e-12)
(1.65935e-10 1.6531e-10 -2.29043e-12)
(3.51002e-11 4.54778e-11 -6.35018e-13)
(1.70911e-10 1.67412e-10 -1.88068e-12)
(3.7499e-10 7.67718e-10 -2.18855e-12)
(3.80622e-10 7.67314e-10 -1.98042e-13)
(3.37054e-10 9.00827e-10 -5.78566e-13)
(2.54127e-10 1.17854e-09 -1.30133e-12)
(3.31158e-10 8.88696e-10 -7.16365e-13)
(3.88885e-10 7.77405e-10 1.72984e-12)
(3.82404e-10 7.66422e-10 6.67563e-14)
(3.24811e-10 8.93617e-10 -2.55944e-12)
(2.51956e-10 1.1797e-09 -1.22658e-12)
(3.29524e-10 8.8979e-10 -8.38396e-13)
(2.57532e-10 6.1362e-10 -4.45606e-12)
(2.0839e-10 3.24437e-10 -3.77998e-12)
(1.6445e-10 4.61234e-10 -5.42903e-12)
(3.73289e-10 7.68507e-10 -2.25596e-12)
(3.23287e-10 8.94763e-10 -2.85228e-12)
(2.43419e-10 2.4112e-10 -2.69668e-12)
(1.63423e-10 1.64267e-10 -2.18355e-12)
(2.86219e-12 1.5229e-11 4.29862e-11)
(1.46818e-11 -1.71745e-10 2.24504e-10)
(4.52976e-12 3.2978e-11 5.62664e-11)
(1.04727e-11 4.40246e-11 1.82015e-10)
(-1.03395e-11 6.83051e-12 6.14651e-11)
(-7.83098e-12 4.05985e-12 4.70124e-12)
(-1.37171e-11 7.76447e-12 1.45164e-12)
(-8.69839e-12 3.83431e-12 -1.10514e-11)
(-8.41838e-12 8.61612e-12 -6.43997e-12)
(-1.62855e-11 9.95908e-12 1.19887e-11)
(-3.04123e-12 -6.66145e-13 1.40908e-11)
(-9.70813e-12 8.21569e-12 9.78522e-11)
(-1.34923e-11 1.40897e-11 4.70481e-11)
(6.08805e-13 1.00164e-11 2.29625e-10)
(-1.85703e-11 1.17111e-11 4.22576e-11)
(-1.16566e-12 6.02097e-12 1.79557e-10)
(-6.5231e-12 1.25837e-11 1.5152e-10)
(-1.8681e-11 1.32425e-11 3.37569e-11)
(-1.02732e-11 9.05199e-12 7.50369e-11)
(-4.6222e-12 1.9073e-11 4.0408e-11)
(-1.61522e-11 1.11078e-11 7.10381e-12)
(-1.97211e-11 1.22882e-11 2.72948e-11)
(-8.54054e-12 1.12503e-11 3.82204e-12)
(-7.23097e-12 1.38468e-11 1.23711e-10)
(-1.92451e-11 1.22795e-11 1.97443e-11)
(2.02669e-11 3.97609e-11 -1.91828e-11)
(-1.16562e-12 8.16606e-12 2.64735e-14)
(7.60426e-12 3.38346e-11 -1.23057e-11)
(4.72819e-12 1.09172e-11 8.2732e-12)
(6.41079e-11 5.55961e-11 5.49751e-11)
(7.28092e-13 2.48825e-11 3.38268e-11)
(-2.34292e-12 1.70319e-11 2.03386e-12)
(-9.84652e-13 2.07393e-11 1.34156e-11)
(4.77861e-12 3.23884e-11 8.26343e-13)
(3.6757e-11 4.51927e-11 5.82691e-11)
(7.63569e-12 1.53524e-11 1.7259e-10)
(-7.43593e-12 -4.72959e-12 5.29074e-11)
(1.43604e-12 1.03754e-11 2.34132e-10)
(-1.59082e-11 6.68682e-12 4.71331e-11)
(5.2554e-12 7.52621e-12 1.86358e-10)
(-4.20438e-12 1.44688e-11 1.62457e-10)
(-9.48506e-12 7.93448e-13 4.62523e-11)
(1.99476e-11 2.31948e-11 1.2266e-10)
(1.38686e-11 4.94725e-12 2.93906e-11)
(1.16394e-10 3.95736e-11 6.43018e-11)
(1.17277e-11 1.63838e-11 2.3597e-11)
(5.16758e-11 4.3811e-11 6.89679e-11)
(5.09035e-11 2.10082e-11 9.5094e-11)
(1.55117e-12 6.77632e-12 3.18704e-11)
(-3.26781e-12 2.01037e-11 9.69323e-11)
(-9.39955e-14 2.24107e-11 5.09778e-11)
(-1.69216e-11 9.50986e-12 3.22744e-11)
(-2.82639e-12 1.37134e-11 2.24353e-11)
(-4.61862e-12 1.51041e-11 1.34332e-10)
(3.07593e-11 3.79601e-11 7.16436e-11)
(-1.04337e-11 7.40602e-12 3.34541e-11)
(8.54264e-12 9.70359e-11 1.25957e-10)
(-1.05486e-11 1.74581e-11 4.90883e-11)
(-1.48363e-12 2.24994e-12 2.16026e-11)
(1.58718e-11 5.444e-11 1.65358e-10)
(-3.16448e-12 4.22433e-12 2.0101e-11)
(6.55819e-12 9.24636e-11 1.18493e-10)
(1.29889e-13 1.28854e-12 1.89336e-11)
(-2.03222e-12 8.06997e-13 1.57644e-11)
(4.06616e-12 7.69919e-11 9.00676e-11)
(-2.35876e-12 3.27513e-12 1.86378e-11)
(1.63073e-12 -1.80704e-13 1.15992e-12)
(4.14509e-12 -1.42692e-12 1.36338e-11)
(3.37782e-12 -2.09441e-13 2.32755e-12)
(4.54745e-12 -9.96488e-13 1.40402e-11)
(4.47638e-12 4.04763e-14 4.16407e-12)
(5.12581e-12 -2.83253e-13 3.81122e-12)
(-1.77025e-12 2.24242e-11 7.89189e-11)
(-2.5745e-12 -7.26782e-12 3.25705e-11)
(-2.33874e-12 1.17161e-11 1.05099e-10)
(-4.69491e-12 6.02648e-12 3.12857e-11)
(3.48895e-12 1.40532e-11 1.29309e-10)
(-2.20386e-12 3.52638e-11 9.66568e-11)
(-2.48306e-12 2.21183e-12 2.6014e-11)
(4.81398e-12 3.33764e-11 5.89763e-11)
(5.06755e-12 -3.98233e-12 1.01803e-11)
(2.13705e-11 1.07458e-11 6.13478e-11)
(5.85803e-13 -1.78829e-12 1.00696e-11)
(3.09764e-12 4.27927e-11 6.01961e-11)
(-1.82803e-12 9.78437e-13 1.3743e-11)
(1.99376e-12 7.04278e-13 2.94399e-12)
(2.75067e-12 7.23405e-11 8.31166e-11)
(-4.1758e-13 -1.25885e-12 9.63916e-12)
(8.47561e-11 2.17386e-11 7.21825e-11)
(2.48124e-11 4.52284e-12 2.68959e-11)
(1.31564e-10 2.84321e-11 6.79348e-11)
(6.19842e-11 -2.70787e-12 -6.27045e-12)
(6.30943e-11 1.82627e-11 5.92525e-11)
(1.78645e-10 2.01396e-11 2.42922e-11)
(3.26087e-11 1.17075e-12 2.34743e-11)
(6.92852e-11 2.05804e-11 6.22997e-11)
(6.87622e-12 -4.54738e-12 1.07645e-11)
(2.97123e-11 1.16656e-11 6.11148e-11)
(1.45255e-11 -1.12406e-12 1.17809e-11)
(9.05515e-11 2.45387e-11 5.87463e-11)
(6.31461e-11 -4.75883e-12 -7.75559e-12)
(1.90996e-10 2.3326e-11 -1.15768e-12)
(3.94468e-11 -5.76229e-12 1.966e-11)
(2.08743e-10 4.85257e-10 1.11447e-11)
(4.38225e-10 4.59523e-10 1.88354e-11)
(2.98803e-10 6.52178e-10 1.09061e-11)
(2.44966e-10 3.47218e-10 4.88578e-12)
(1.97666e-10 4.87513e-10 6.46109e-12)
(3.10845e-10 6.48276e-10 1.43453e-11)
(2.59273e-10 3.53133e-10 9.29039e-12)
(2.17256e-10 4.83201e-10 1.67415e-11)
(4.42799e-10 4.62103e-10 1.99351e-11)
(3.24596e-10 6.43235e-10 2.24488e-11)
(2.77239e-10 3.59242e-10 2.12812e-11)
(2.23734e-10 4.81775e-10 2.40141e-11)
(3.20306e-10 6.44883e-10 1.90796e-11)
(2.69776e-10 3.5677e-10 1.41414e-11)
(2.72221e-10 2.53095e-10 4.78708e-12)
(2.59485e-10 2.47565e-10 3.74184e-12)
(1.75053e-10 1.69111e-10 1.15618e-13)
(3.84023e-11 4.60572e-11 4.67259e-13)
(1.76046e-10 1.68316e-10 1.005e-12)
(2.58446e-10 2.48585e-10 9.05125e-13)
(2.58831e-10 2.47755e-10 2.62608e-12)
(1.8486e-10 1.70583e-10 2.62473e-12)
(3.94899e-11 4.62141e-11 3.11306e-13)
(1.76987e-10 1.67506e-10 1.92653e-12)
(4.13159e-10 8.23014e-10 9.64231e-12)
(4.03496e-10 8.1605e-10 4.6824e-12)
(3.39339e-10 9.07986e-10 -4.90191e-13)
(2.68474e-10 1.23126e-09 -2.08168e-12)
(3.48209e-10 9.39459e-10 1.52664e-12)
(3.9124e-10 7.82961e-10 1.97752e-12)
(3.99999e-10 8.07989e-10 4.0992e-12)
(3.60152e-10 9.5302e-10 1.01192e-11)
(2.74712e-10 1.25083e-09 2.22307e-12)
(3.51445e-10 9.4843e-10 2.60735e-12)
(4.16228e-10 8.17971e-10 1.06351e-11)
(4.24364e-10 7.99316e-10 1.50427e-11)
(3.70193e-10 8.90016e-10 2.06915e-11)
(2.79143e-10 1.15997e-09 2.20116e-11)
(3.70393e-10 9.00949e-10 1.84955e-11)
(4.26706e-10 7.90367e-10 2.02333e-11)
(4.26554e-10 7.95093e-10 1.63641e-11)
(3.62693e-10 9.45994e-10 1.19693e-11)
(2.80229e-10 1.19321e-09 2.19119e-11)
(3.6872e-10 9.10652e-10 1.745e-11)
(2.77317e-10 2.55279e-10 6.37142e-12)
(2.99912e-10 2.66245e-10 1.06786e-11)
(2.22297e-10 1.85241e-10 1.48376e-11)
(4.8981e-11 4.82075e-11 3.34529e-12)
(2.15118e-10 1.82859e-10 9.98739e-12)
(3.17162e-10 2.72698e-10 2.04357e-11)
(3.0491e-10 2.68144e-10 1.32127e-11)
(1.92851e-10 1.73996e-10 4.26434e-12)
(4.6153e-11 4.78141e-11 2.52138e-12)
(2.0628e-10 1.80068e-10 6.82991e-12)
(-3.81797e-13 -2.01426e-12 3.52678e-11)
(-1.4839e-12 -5.06813e-13 3.33882e-11)
(5.9327e-13 -3.42576e-13 1.73364e-11)
(-2.40689e-12 -1.83993e-13 1.2115e-11)
(-2.3562e-12 -2.2172e-13 1.23864e-11)
(-5.16417e-12 -2.60763e-13 1.03132e-11)
(4.06514e-13 -1.20889e-13 2.7118e-12)
(-5.20781e-12 -1.83621e-13 1.00019e-11)
(-5.24404e-12 -1.5035e-13 9.67821e-12)
(3.37537e-13 -1.13857e-13 2.57744e-12)
(-5.21374e-12 -1.919e-13 9.92869e-12)
(-9.20053e-13 -2.45598e-15 -1.94868e-12)
(-7.41361e-13 -9.28139e-15 -1.70984e-12)
(-8.55502e-13 -1.13373e-13 1.29949e-12)
(-8.02188e-13 -1.26907e-14 -1.8132e-12)
(-9.23686e-13 -8.173e-14 1.15841e-12)
(-8.90912e-13 -1.36965e-14 -1.91653e-12)
(-8.25261e-13 -2.58429e-15 -1.84019e-12)
(6.01259e-13 1.44409e-12 2.53584e-12)
(-1.52087e-12 4.26407e-14 -5.49753e-13)
(4.44173e-13 1.135e-12 9.70052e-13)
(-2.7794e-13 3.97571e-13 -3.62988e-12)
(1.25648e-12 2.67206e-12 3.55631e-12)
(-1.09787e-12 2.07926e-13 9.51899e-13)
(-1.08553e-12 1.05201e-13 -1.98728e-12)
(-7.3307e-14 1.50893e-12 -4.20089e-12)
(2.4767e-13 6.02076e-14 -1.59345e-12)
(8.87431e-13 8.49578e-13 -8.15456e-13)
(-1.25378e-12 -2.16368e-13 -1.07561e-11)
(8.48656e-13 1.45651e-12 -2.81938e-12)
(1.01644e-12 9.68019e-13 -1.52583e-12)
(-1.74714e-12 8.78858e-14 -8.1837e-12)
(6.86538e-12 6.02805e-11 1.34778e-10)
(6.27831e-13 1.52608e-11 4.91924e-11)
(1.25663e-12 6.49922e-11 1.39698e-10)
(-6.3648e-13 1.14303e-11 5.10301e-11)
(-3.87241e-12 3.94601e-11 1.46168e-10)
(1.21315e-11 5.06399e-11 1.45324e-10)
(-9.96554e-13 1.50305e-11 4.45176e-11)
(3.31398e-10 4.47728e-10 9.36968e-11)
(4.29004e-10 5.7154e-10 4.86458e-11)
(4.47088e-10 4.8456e-10 1.37126e-11)
(4.12146e-10 4.49162e-10 5.10725e-11)
(3.99065e-10 4.28934e-10 5.11158e-11)
(4.09633e-10 5.3815e-10 3.75176e-11)
(3.57957e-10 4.92573e-10 6.49524e-11)
(4.28427e-11 1.54269e-10 1.24214e-10)
(1.67304e-11 4.68272e-11 4.41048e-11)
(1.05903e-10 2.87999e-10 1.21117e-10)
(1.93125e-11 4.90762e-11 3.82879e-11)
(5.29064e-11 1.4274e-10 1.39576e-10)
(9.1403e-11 1.54801e-10 1.08953e-10)
(1.13773e-11 4.30375e-11 3.93354e-11)
(-6.66718e-13 -1.19028e-12 3.78247e-12)
(2.20007e-12 -6.53953e-13 8.67527e-12)
(-1.11307e-12 -7.50108e-13 2.82791e-12)
(1.69991e-12 -3.38857e-13 7.86044e-12)
(-6.4597e-13 -1.21592e-12 3.48021e-12)
(-1.09431e-12 -7.14628e-13 3.0813e-12)
(2.73111e-10 4.56283e-10 -2.85755e-12)
(3.76807e-10 4.18783e-10 2.65737e-13)
(3.50493e-10 5.09523e-10 -1.6495e-12)
(3.01393e-10 3.64673e-10 -1.90857e-12)
(3.05003e-10 3.67021e-10 -1.00951e-12)
(3.5408e-10 5.11604e-10 -1.2998e-12)
(2.70341e-10 4.55058e-10 -3.04556e-12)
(2.84214e-10 4.63485e-10 -7.67105e-13)
(3.88974e-10 4.26543e-10 1.90551e-12)
(3.1861e-10 3.75885e-10 1.53122e-12)
(3.67947e-10 5.21928e-10 1.8444e-12)
(2.85071e-10 4.65321e-10 -3.25722e-14)
(3.17342e-10 3.74154e-10 3.38156e-13)
(3.65476e-10 5.18947e-10 1.07229e-12)
(2.68583e-11 5.0039e-11 4.28059e-11)
(8.61598e-11 1.51573e-10 1.34594e-10)
(-1.21117e-11 2.67276e-11 -3.95268e-12)
(-3.51082e-12 2.49405e-11 -2.28518e-12)
(-2.45903e-12 9.88969e-12 -8.12918e-13)
(-4.21222e-12 2.62962e-11 -1.84023e-12)
(-6.41676e-12 9.83209e-12 -4.97775e-13)
(1.29112e-13 -1.47606e-12 5.34574e-12)
(3.89946e-12 -1.85627e-12 1.25377e-11)
(1.39458e-12 -1.49637e-12 7.35623e-12)
(4.76147e-12 -1.64046e-12 1.40091e-11)
(8.10768e-12 4.67025e-14 2.02336e-11)
(4.03297e-12 -5.23663e-13 8.73115e-12)
(2.93198e-10 4.81228e-10 5.49955e-12)
(4.02071e-10 4.3619e-10 1.07819e-11)
(3.85665e-10 5.44709e-10 9.40673e-12)
(3.30952e-10 3.85879e-10 9.408e-12)
(2.98901e-10 4.83668e-10 6.3169e-12)
(3.23761e-10 3.81163e-10 7.46122e-12)
(3.78507e-10 5.3996e-10 8.62519e-12)
(2.85416e-10 4.69488e-10 1.52011e-12)
(3.93126e-10 4.30297e-10 4.05622e-12)
(3.1791e-10 3.75568e-10 1.70849e-12)
(3.68149e-10 5.23993e-10 2.48442e-12)
(2.85457e-10 4.67393e-10 7.2141e-13)
(3.18252e-10 3.76939e-10 3.1599e-12)
(3.69669e-10 5.26483e-10 3.41017e-12)
(-3.42521e-12 -1.39288e-13 -4.79173e-12)
(1.84114e-13 -1.05009e-13 2.13671e-12)
(-3.4829e-12 -1.48371e-13 -5.04832e-12)
(4.44542e-10 3.98136e-10 4.8758e-11)
(4.37164e-10 3.91387e-10 1.99939e-11)
(4.72893e-10 6.23341e-10 3.14077e-11)
(4.554e-10 5.95807e-10 -9.31392e-12)
(3.57512e-10 5.02801e-10 4.575e-11)
(4.35847e-10 5.84453e-10 3.39339e-11)
(4.56373e-10 4.88721e-10 4.1575e-11)
(4.07924e-10 4.42059e-10 4.05124e-11)
(3.60354e-10 4.9961e-10 5.3123e-11)
(4.24076e-10 5.69491e-10 3.73821e-11)
(3.97681e-10 4.31487e-10 4.12804e-11)
(3.43429e-10 4.97486e-10 2.86006e-11)
(4.50102e-10 4.70993e-10 2.92025e-11)
(4.21049e-10 5.58803e-10 2.6142e-11)
(3.80293e-10 4.11567e-10 2.6733e-11)
(4.21384e-10 5.60743e-10 2.74021e-11)
(3.81777e-10 4.1411e-10 2.93274e-11)
(3.43047e-10 4.96242e-10 2.65128e-11)
(4.93042e-10 6.40588e-10 2.47177e-11)
(4.82549e-10 6.27076e-10 3.379e-11)
(4.92385e-10 6.17191e-10 2.50448e-11)
(4.91232e-10 6.18458e-10 2.66443e-11)
(4.39198e-10 3.889e-10 4.39089e-11)
(4.3081e-10 3.80325e-10 4.5887e-11)
(4.09283e-10 3.56228e-10 2.74247e-11)
(4.11645e-10 3.59548e-10 3.03272e-11)
(-6.51542e-13 -5.73328e-13 2.03479e-12)
(7.51197e-13 -4.9009e-13 6.06161e-12)
(-7.17963e-13 -3.15222e-13 1.96504e-12)
(3.37392e-13 -2.05583e-13 5.419e-12)
(-9.70001e-13 -3.22986e-13 1.58596e-12)
(-9.05315e-13 -1.96698e-13 1.59103e-12)
(-3.09124e-12 -2.01929e-13 -4.35106e-12)
(8.78469e-13 -3.09427e-13 3.4283e-12)
(-3.00393e-12 -2.63141e-13 -4.39607e-12)
(-1.56478e-12 -1.55938e-12 1.11445e-13)
(2.12273e-12 -1.06061e-12 6.96198e-12)
(-1.73504e-12 -1.55663e-12 -1.3055e-12)
(-1.94138e-12 -1.45327e-13 -1.37203e-12)
(-4.72741e-13 -2.79123e-13 2.06262e-12)
(-1.84359e-12 -1.67204e-13 -1.1823e-12)
(-1.25387e-12 -3.73668e-13 7.62368e-13)
(3.83432e-13 -6.51564e-13 4.75209e-12)
(-1.30594e-12 -3.94953e-13 5.25132e-13)