/*--------------------------------*- C++ -*----------------------------------*\
| =========                 |                                                 |
| \\      /  F ield         | OpenFOAM: The Open Source CFD Toolbox           |
|  \\    /   O peration     | Version:  2012                                  |
|   \\  /    A nd           | Website:  www.openfoam.com                      |
|    \\/     M anipulation  |                                                 |
\*---------------------------------------------------------------------------*/
FoamFile
{
    version     2.0;
    format      ascii;
    class       volVectorField;
    location    "0.105/solid";
    object      D_0;
}
// * * * * * * * * * * * * * * * * * * * * * * * * * * * * * * * * * * * * * //

dimensions      [0 1 0 0 0 0 0];


internalField   nonuniform List<vector> 
3124
(
(1.98936e-11 5.50419e-11 4.16247e-11)
(-4.13437e-14 2.08864e-13 -9.67237e-13)
(3.51654e-12 -3.25008e-13 2.28783e-11)
(7.06231e-11 2.34816e-10 -3.57171e-12)
(1.85667e-12 8.4881e-13 4.0917e-11)
(1.09588e-13 1.42576e-13 -1.88114e-12)
(4.52433e-12 -4.06919e-13 2.3124e-11)
(7.33427e-11 2.38596e-10 -2.85001e-12)
(1.7644e-12 3.95924e-13 4.15493e-11)
(-2.43006e-13 8.71646e-12 1.89221e-11)
(1.30319e-11 3.89015e-11 5.18893e-11)
(9.09864e-11 2.28497e-10 3.43718e-11)
(-7.8815e-13 -9.26811e-12 3.35659e-11)
(7.60138e-13 -3.98607e-13 1.75406e-11)
(-4.95702e-12 7.31992e-12 1.6276e-11)
(4.2284e-12 -5.44368e-12 3.22642e-11)
(7.99751e-13 1.94204e-11 5.10114e-11)
(3.3662e-12 -5.10977e-12 2.6584e-11)
(8.79371e-12 -2.9573e-12 2.74345e-11)
(8.75512e-11 2.35329e-10 1.90543e-11)
(-1.16337e-12 -6.12592e-13 3.36697e-11)
(-1.33254e-12 -5.20944e-13 3.34937e-11)
(7.1476e-13 -3.75034e-13 1.74526e-11)
(4.62389e-10 4.96216e-10 4.00811e-11)
(3.13125e-11 4.17281e-11 3.59652e-11)
(2.29001e-11 6.30798e-11 3.82672e-11)
(6.35232e-11 1.50007e-10 9.81393e-11)
(1.97233e-10 5.82503e-10 1.99227e-10)
(1.99059e-11 3.03462e-11 2.8666e-11)
(1.15763e-10 1.28823e-10 8.2002e-11)
(2.15231e-12 -1.07046e-12 8.47227e-12)
(1.77709e-12 -1.92812e-12 2.12817e-11)
(2.23263e-12 -6.83477e-13 8.7748e-12)
(3.72857e-10 4.13405e-10 6.63601e-13)
(5.89728e-11 1.59097e-10 -2.04553e-12)
(2.27225e-10 9.2213e-10 -5.31719e-12)
(6.81857e-11 2.32847e-10 -3.10842e-12)
(3.91686e-10 4.2508e-10 3.93474e-12)
(2.18408e-10 9.14247e-10 -2.89763e-12)
(5.598e-11 1.57308e-10 -2.5382e-12)
(2.2794e-11 6.761e-11 3.80169e-11)
(6.29043e-12 -1.15028e-11 4.63447e-11)
(-2.66086e-12 1.61918e-12 -6.52633e-12)
(-3.40527e-12 8.7615e-12 8.44185e-13)
(-1.13067e-11 1.33375e-11 2.63335e-12)
(8.06058e-12 6.74815e-15 2.75902e-11)
(2.7338e-12 -1.51098e-12 9.87027e-12)
(7.08946e-12 -1.37519e-13 1.99255e-11)
(4.10868e-10 4.36738e-10 1.3977e-11)
(7.70868e-11 2.41189e-10 1.88985e-12)
(6.01474e-11 1.61138e-10 -1.2437e-12)
(2.31704e-10 9.33706e-10 -3.9611e-12)
(3.91983e-10 4.25269e-10 4.36735e-12)
(2.46583e-10 9.55611e-10 9.99735e-12)
(6.36004e-11 1.63222e-10 5.36385e-13)
(7.88535e-13 -2.91405e-12 4.0828e-11)
(-1.73382e-12 -3.69976e-13 3.23848e-11)
(4.20824e-13 -2.48213e-13 1.67022e-11)
(1.05999e-13 -9.39556e-14 2.00806e-12)
(2.84133e-12 9.31351e-12 9.51548e-12)
(-4.25622e-12 1.1266e-11 6.43134e-11)
(2.90052e-11 3.05094e-11 3.4818e-11)
(6.26509e-11 4.38954e-11 2.96225e-11)
(9.0939e-12 4.4903e-11 4.83076e-11)
(4.69738e-12 -5.01825e-12 5.86667e-11)
(2.3566e-10 8.26918e-10 2.56646e-12)
(3.01413e-11 4.21343e-11 3.71752e-11)
(4.67944e-10 4.95297e-10 3.53544e-11)
(9.12414e-11 2.05577e-10 6.8886e-11)
(2.50031e-10 8.93622e-10 4.05638e-11)
(9.29478e-11 1.66239e-10 2.05909e-11)
(2.19511e-10 7.61536e-10 1.10451e-10)
(4.51406e-10 4.62515e-10 2.73614e-11)
(9.99583e-11 1.60413e-10 4.97356e-11)
(2.79426e-10 1.1369e-09 2.24384e-11)
(2.32016e-10 9.49549e-10 7.34717e-11)
(-5.60031e-12 2.78243e-12 6.64298e-11)
(-3.98508e-12 -9.86781e-12 5.41731e-11)
(3.5376e-11 3.74405e-11 5.41791e-11)
(5.23158e-11 4.74296e-11 7.58059e-12)
(5.52884e-11 5.02462e-11 2.02205e-11)
(6.955e-13 -8.21886e-13 5.80508e-12)
(5.01682e-13 -4.10129e-13 5.8029e-12)
(2.04336e-12 -2.06659e-12 2.04192e-11)
(6.28991e-13 -2.2641e-13 2.97321e-12)
(1.68847e-12 -9.52603e-13 6.66326e-12)
(-6.77616e-13 -2.1777e-13 1.62533e-12)
(9.436e-14 -5.55919e-13 4.45367e-12)
(3.62276e-11 4.53483e-11 2.21009e-13)
(3.34058e-11 4.46815e-11 -1.00157e-12)
(2.60665e-10 1.18431e-09 -1.40359e-12)
(2.52112e-10 1.18083e-09 -1.16904e-12)
(3.70876e-10 4.12773e-10 3.71309e-13)
(6.60175e-11 2.31895e-10 -3.36409e-12)
(2.16104e-10 9.15312e-10 -5.2572e-12)
(5.26047e-11 1.5592e-10 -2.6992e-12)
(2.49884e-10 1.18401e-09 -3.06637e-12)
(3.28409e-11 4.44947e-11 -4.42891e-13)
(2.75689e-11 4.76918e-11 4.94851e-11)
(1.87586e-11 1.20367e-12 4.26546e-11)
(-6.52075e-12 2.56494e-12 -1.98719e-12)
(-1.33872e-11 1.04879e-11 5.46353e-11)
(-1.65446e-11 1.31581e-11 1.31033e-11)
(3.76825e-13 7.9994e-12 -3.27695e-12)
(-8.72354e-12 1.61555e-11 9.67233e-12)
(-1.13401e-11 3.183e-12 5.76623e-11)
(3.45227e-11 1.33173e-11 4.19843e-12)
(-1.22346e-11 1.31844e-11 1.91141e-11)
(-4.60649e-12 -3.48197e-12 3.28951e-11)
(-1.59508e-12 -2.55945e-12 4.32295e-11)
(6.02106e-12 6.00638e-12 2.21357e-11)
(1.20468e-12 -1.20211e-12 6.95828e-12)
(4.59543e-12 4.79547e-13 1.50837e-11)
(-5.06171e-12 -6.213e-12 3.74399e-11)
(3.41712e-12 5.44688e-12 1.45526e-11)
(4.52851e-11 3.96557e-12 1.91749e-12)
(4.1664e-10 4.39398e-10 1.55554e-11)
(8.21991e-11 2.39552e-10 9.44644e-12)
(2.52366e-10 8.99455e-10 3.16029e-11)
(8.49945e-11 1.66641e-10 1.08557e-11)
(4.53255e-10 4.62897e-10 2.54428e-11)
(2.4976e-10 9.4388e-10 1.86038e-11)
(7.37218e-11 1.65476e-10 4.19929e-12)
(3.68121e-11 4.54307e-11 -1.59326e-14)
(4.13681e-11 4.5896e-11 1.36961e-12)
(2.65883e-10 1.20339e-09 -1.81682e-12)
(2.83909e-10 1.24435e-09 1.12144e-11)
(2.83823e-10 1.13852e-09 2.14281e-11)
(2.8613e-10 1.22206e-09 1.81552e-11)
(5.13782e-11 4.76874e-11 6.10465e-12)
(4.30885e-11 4.63088e-11 1.45768e-12)
(2.22852e-13 -3.04362e-12 3.71007e-11)
(-1.66069e-12 -4.04231e-13 3.26433e-11)
(4.19587e-13 -2.43051e-13 1.67732e-11)
(4.92122e-13 -1.88098e-13 2.7514e-12)
(1.60937e-13 -9.51006e-14 2.1173e-12)
(-1.11128e-12 -6.42593e-14 6.66724e-13)
(-8.01919e-13 -1.58081e-13 1.36779e-12)
(-1.05532e-12 -8.80223e-14 7.84528e-13)
(2.30879e-10 9.86129e-10 -5.91538e-12)
(-7.03945e-12 -2.8886e-12 -3.68788e-12)
(-3.87382e-13 -4.89476e-13 6.80734e-14)
(-1.95152e-13 -2.16035e-13 1.73985e-11)
(2.29016e-12 -4.16741e-13 2.30122e-11)
(-4.09387e-13 -3.52881e-13 1.7861e-11)
(3.40786e-12 9.49861e-13 4.12343e-11)
(-5.55866e-12 1.11548e-11 -4.45838e-11)
(2.2704e-13 -1.84666e-14 -9.03993e-13)
(-5.80981e-13 -5.04991e-13 2.87235e-14)
(4.83844e-13 2.58009e-12 -4.13113e-12)
(7.32349e-12 -6.14283e-13 2.47429e-11)
(-2.23959e-13 -4.76676e-13 1.72356e-11)
(-3.80004e-13 -9.11555e-13 1.85699e-11)
(2.27437e-12 -4.45581e-14 4.2542e-11)
(5.39724e-11 1.0473e-11 1.30499e-10)
(4.41879e-12 9.0818e-12 1.58606e-11)
(-7.12979e-13 1.80592e-11 4.09724e-11)
(-3.80072e-13 -5.68369e-12 5.29073e-11)
(-1.18336e-12 2.68631e-12 1.77644e-10)
(1.12991e-11 1.93716e-11 3.57153e-11)
(3.52356e-12 -2.40587e-12 4.25205e-11)
(-1.14662e-11 1.27111e-10 2.66633e-10)
(2.47554e-11 4.3603e-11 6.1015e-11)
(4.26376e-11 -2.56447e-11 2.13959e-10)
(1.59404e-11 2.07469e-11 5.91325e-11)
(-3.27176e-11 3.08242e-10 1.41373e-10)
(4.33687e-11 6.83657e-11 1.66864e-10)
(3.40387e-11 4.00261e-11 6.20832e-11)
(9.03782e-12 1.09247e-11 2.3707e-10)
(1.16951e-11 5.37552e-12 9.74734e-11)
(-5.31658e-12 -1.12757e-11 4.62801e-11)
(-4.97509e-12 -1.14472e-11 3.89465e-11)
(6.17729e-12 6.51226e-12 1.70683e-10)
(4.89271e-12 8.52368e-12 1.23776e-10)
(-6.4081e-12 -1.18794e-11 5.51121e-11)
(1.12598e-12 -8.97396e-13 1.7979e-11)
(-2.28427e-12 -3.03606e-13 1.26183e-11)
(-2.11981e-12 -7.00957e-13 1.30483e-11)
(-6.35726e-12 4.31503e-11 5.97449e-11)
(-2.35276e-11 -2.86253e-11 2.1407e-10)
(7.78965e-11 3.17459e-10 1.18727e-10)
(-9.77095e-12 5.4839e-12 8.17551e-11)
(-7.4339e-12 5.60793e-12 1.06974e-11)
(-1.11271e-11 1.51366e-11 3.45027e-11)
(-1.27423e-12 -5.16973e-12 4.86029e-11)
(-1.95403e-12 3.02693e-12 1.58638e-10)
(-1.5933e-11 1.23749e-11 2.33027e-11)
(-2.91127e-12 -1.91733e-12 2.27258e-11)
(1.56799e-11 1.47589e-11 1.4613e-10)
(1.58165e-11 6.41931e-12 9.84753e-11)
(-1.94011e-12 -7.5929e-12 4.13312e-11)
(7.92469e-12 -8.99139e-13 3.23015e-11)
(6.75583e-12 7.12469e-12 1.59028e-10)
(3.83006e-11 1.63739e-11 1.03612e-10)
(-3.27504e-13 -1.93136e-12 3.85798e-11)
(3.85409e-12 9.51657e-12 7.13348e-11)
(1.36162e-11 5.6829e-12 9.0621e-11)
(-2.16802e-12 -6.83697e-12 2.91594e-11)
(6.89221e-12 -2.91516e-12 2.21443e-11)
(3.8037e-12 9.48055e-12 1.11878e-10)
(1.99019e-11 9.05053e-12 7.6785e-11)
(1.78677e-13 -2.0449e-12 2.34358e-11)
(6.4791e-11 1.70961e-11 7.62425e-11)
(1.88909e-11 6.33028e-12 9.25765e-11)
(1.4502e-11 2.06364e-13 2.89538e-11)
(1.24646e-11 -2.0226e-12 2.38137e-11)
(4.57295e-11 1.51337e-11 1.04464e-10)
(2.72592e-11 9.75931e-12 7.3362e-11)
(2.04696e-11 3.07273e-14 2.51451e-11)
(-9.16361e-13 -1.01174e-12 3.38534e-11)
(-1.44814e-12 -4.77107e-13 3.32332e-11)
(5.62527e-13 -2.89383e-13 1.71689e-11)
(-2.31282e-12 -2.73442e-13 1.25349e-11)
(-2.3968e-12 -2.03308e-13 1.22412e-11)
(1.37087e-10 2.47793e-10 1.4721e-10)
(3.17957e-10 5.49559e-10 1.01425e-10)
(3.32096e-10 3.61677e-10 -5.35323e-12)
(2.91749e-10 3.6002e-10 8.71075e-11)
(2.01978e-10 2.33345e-10 1.26071e-10)
(2.40245e-10 3.94998e-10 1.35896e-10)
(2.28306e-10 4.10248e-10 1.00797e-10)
(5.56001e-11 1.3341e-10 1.19872e-10)
(4.54682e-11 6.85131e-11 9.25209e-11)
(1.72649e-11 2.96631e-11 2.97109e-11)
(2.02508e-11 4.28569e-11 3.11871e-11)
(6.19961e-11 1.00329e-10 8.93851e-11)
(8.07877e-11 1.57228e-10 9.35097e-11)
(1.386e-11 3.69986e-11 3.565e-11)
(-6.00198e-12 -4.92266e-12 -5.98998e-12)
(-2.74198e-12 -4.12075e-13 1.54112e-11)
(1.67667e-12 -4.76903e-14 7.50971e-12)
(-3.43887e-12 -3.08949e-13 1.52818e-11)
(2.03875e-12 -7.03831e-13 2.29103e-11)
(-8.56233e-13 -1.41964e-12 1.61865e-11)
(-4.48978e-13 -5.72634e-13 1.76947e-11)
(1.46533e-12 2.12135e-14 7.50341e-12)
(-3.39642e-12 -1.31182e-12 1.378e-11)
(-3.23418e-12 -4.41162e-13 1.50995e-11)
(1.72009e-10 4.61085e-10 -3.95914e-12)
(3.82876e-10 4.1949e-10 2.10932e-12)
(2.62358e-10 6.11637e-10 -1.84792e-12)
(2.11819e-10 3.2388e-10 -3.10739e-12)
(2.1688e-10 3.26586e-10 -2.28472e-12)
(2.67386e-10 6.12791e-10 -1.9683e-12)
(1.67944e-10 4.5971e-10 -3.98148e-12)
(1.75186e-10 4.6247e-10 -3.14431e-12)
(3.84791e-10 4.20164e-10 2.33498e-12)
(2.23068e-10 3.31029e-10 2.11148e-13)
(2.75127e-10 6.20036e-10 -1.13145e-12)
(1.77654e-10 4.66659e-10 -2.61773e-12)
(2.20485e-10 3.28386e-10 -1.6752e-12)
(2.71858e-10 6.14799e-10 -6.49453e-13)
(4.32965e-12 3.74197e-12 4.09526e-11)
(-6.15729e-12 8.07892e-12 -4.49006e-11)
(7.33149e-13 4.05313e-13 -6.76051e-12)
(-8.41674e-12 5.90514e-12 -6.41055e-12)
(-7.75513e-13 3.99851e-12 -3.03194e-11)
(-7.95969e-12 9.65201e-12 -2.16977e-11)
(-3.11525e-12 3.26246e-12 -1.00921e-11)
(8.85709e-12 6.89008e-13 -3.47304e-11)
(9.12542e-13 1.31485e-11 -3.69452e-11)
(1.3296e-11 2.9104e-11 -1.51556e-11)
(-3.45937e-12 1.46011e-11 -2.05031e-12)
(4.56522e-12 2.61658e-11 -3.67173e-12)
(-8.91682e-13 3.86277e-12 -3.54328e-12)
(-3.32745e-12 1.18354e-11 -3.60685e-11)
(-1.26893e-11 2.38316e-11 -2.4717e-12)
(-1.02161e-11 1.00096e-11 -2.22358e-12)
(-4.03728e-12 1.20555e-11 -2.34274e-12)
(-8.28347e-12 1.12801e-11 -1.05853e-11)
(2.82324e-12 2.40238e-11 -1.0191e-11)
(-5.24986e-12 9.31879e-12 -5.90462e-12)
(7.61637e-12 -4.63566e-13 2.54334e-11)
(-2.07519e-13 1.09087e-12 2.12188e-11)
(-3.78294e-13 -6.48486e-13 1.92254e-11)
(-2.14583e-12 -5.16277e-13 1.54834e-11)
(6.77552e-12 -1.4314e-12 1.70617e-11)
(-1.74072e-12 -6.80388e-13 1.6116e-11)
(-4.76554e-13 8.08702e-14 1.86303e-11)
(7.19997e-12 -1.00589e-12 1.71723e-11)
(-1.88115e-12 -5.37254e-13 1.64473e-11)
(1.84014e-10 4.81809e-10 2.11801e-12)
(3.96384e-10 4.28062e-10 8.87463e-12)
(2.90468e-10 6.48919e-10 7.51854e-12)
(2.3504e-10 3.39175e-10 4.7818e-12)
(1.91087e-10 4.84604e-10 4.45201e-12)
(2.26786e-10 3.35078e-10 3.73165e-12)
(2.82857e-10 6.45432e-10 4.56849e-12)
(1.80724e-10 4.77599e-10 8.3314e-14)
(3.95567e-10 4.27705e-10 7.56321e-12)
(2.23804e-10 3.32109e-10 1.41569e-12)
(2.77165e-10 6.27735e-10 4.1042e-13)
(1.79159e-10 4.7091e-10 -1.25986e-12)
(2.24323e-10 3.33941e-10 3.31148e-12)
(2.79027e-10 6.37296e-10 1.01547e-12)
(1.47865e-12 -1.25252e-12 4.30175e-11)
(-1.78051e-12 -3.11784e-13 3.21422e-11)
(3.50636e-13 -1.75874e-13 1.65104e-11)
(-2.4639e-12 -1.66377e-13 1.1863e-11)
(-5.29742e-12 -1.50325e-13 9.44165e-12)
(3.56786e-10 3.0674e-10 5.27918e-11)
(1.79191e-10 1.50873e-10 1.18612e-10)
(-1.05901e-11 -5.02127e-12 1.14489e-10)
(3.93776e-12 8.11715e-12 1.06837e-11)
(2.63246e-12 1.65957e-11 2.89117e-11)
(2.46405e-11 2.92128e-11 2.74804e-11)
(-3.16161e-11 5.06833e-11 1.54203e-10)
(6.90677e-12 1.48528e-11 2.70147e-11)
(1.75913e-11 -5.74016e-13 1.3397e-11)
(4.9161e-11 1.95388e-11 1.77609e-10)
(-2.48107e-12 1.60565e-11 5.54073e-11)
(4.73117e-12 1.02655e-11 2.43951e-10)
(1.2026e-11 1.71036e-11 6.71006e-11)
(2.64159e-11 2.18049e-11 2.79012e-10)
(6.22415e-13 6.40666e-12 1.97144e-10)
(1.48955e-11 2.15477e-11 5.35249e-11)
(1.60498e-11 3.87246e-11 1.69147e-10)
(8.31074e-11 8.56179e-11 6.1882e-11)
(1.43465e-11 2.02101e-11 2.97127e-11)
(2.95688e-11 2.89993e-11 5.56551e-11)
(9.09226e-11 9.19258e-11 1.0633e-10)
(3.9234e-11 2.85138e-11 2.63933e-10)
(2.3268e-11 2.49214e-11 3.93877e-11)
(2.73701e-10 2.12228e-10 1.49032e-11)
(2.92562e-11 4.9722e-11 4.1895e-11)
(2.04382e-11 1.61598e-10 9.14405e-11)
(4.02797e-10 7.11588e-10 3.91939e-11)
(1.86916e-10 3.72976e-10 1.15979e-10)
(1.07573e-10 1.34804e-10 2.09425e-10)
(2.11151e-11 1.51523e-11 4.08915e-11)
(5.75328e-12 7.99704e-11 2.71507e-10)
(8.24464e-12 4.23924e-11 3.531e-11)
(1.05692e-10 2.07169e-10 1.20788e-10)
(4.04457e-11 -1.6605e-10 2.23899e-10)
(3.2586e-11 4.975e-11 4.05748e-11)
(1.18008e-11 8.86725e-11 2.87018e-10)
(7.7835e-12 3.82187e-12 6.17409e-11)
(8.53854e-12 2.95642e-11 1.93574e-10)
(9.75388e-12 1.54653e-11 7.44455e-11)
(2.41238e-11 4.9115e-11 3.04368e-10)
(1.24573e-11 3.1965e-11 1.81484e-10)
(1.68229e-11 2.98852e-11 7.2611e-11)
(3.43219e-10 7.43056e-10 5.37632e-11)
(1.15426e-10 2.5104e-10 1.16666e-10)
(1.73544e-10 3.75842e-10 1.37538e-10)
(5.2022e-11 1.28734e-10 2.29908e-10)
(8.93187e-11 1.14288e-10 3.94918e-11)
(1.81461e-11 3.75876e-11 3.05349e-11)
(2.60801e-11 4.20568e-11 6.20921e-11)
(7.85085e-11 1.22303e-10 1.41524e-10)
(3.30613e-11 5.36464e-11 2.92505e-10)
(2.77387e-11 5.33459e-11 5.16595e-11)
(2.40024e-10 4.66104e-10 5.88387e-11)
(3.35545e-10 6.08942e-10 6.01684e-11)
(4.53107e-10 4.73164e-10 3.69922e-11)
(3.04507e-10 3.64755e-10 5.843e-11)
(2.45202e-10 4.37727e-10 8.48904e-11)
(3.33191e-10 6.32177e-10 4.36127e-11)
(2.96693e-10 3.65549e-10 4.09182e-11)
(2.3618e-10 4.73327e-10 4.41282e-11)
(4.54553e-10 4.71839e-10 3.38051e-11)
(3.29401e-10 6.38118e-10 2.85818e-11)
(2.83587e-10 3.57104e-10 2.75107e-11)
(3.30561e-10 6.37415e-10 3.39559e-11)
(2.88494e-10 3.59819e-10 3.41027e-11)
(2.31266e-10 4.77057e-10 3.27769e-11)
(4.10716e-10 7.47809e-10 2.35107e-11)
(4.23342e-10 7.82266e-10 2.53704e-11)
(2.70237e-10 1.11944e-09 3.08958e-11)
(3.74233e-10 8.84038e-10 2.26094e-11)
(3.6846e-10 8.74972e-10 2.80011e-11)
(3.47635e-10 7.8803e-10 4.46271e-11)
(2.60845e-10 1.07343e-09 3.68199e-11)
(3.66281e-10 8.64477e-10 3.03527e-11)
(4.30206e-10 7.84466e-10 2.21157e-11)
(4.25262e-10 7.85736e-10 2.37836e-11)
(1.24284e-11 1.31475e-11 2.64768e-10)
(-6.81493e-12 -6.44436e-12 5.96217e-11)
(4.90848e-12 1.07485e-11 2.46754e-10)
(4.88868e-12 7.86818e-12 7.2666e-11)
(2.38216e-11 2.12921e-11 2.87056e-10)
(5.35283e-12 7.00994e-12 1.96475e-10)
(-2.37732e-12 -2.82579e-12 6.86175e-11)
(1.17871e-11 1.52951e-11 2.57192e-10)
(-5.15622e-12 -1.15047e-11 4.59917e-11)
(6.6345e-12 2.54351e-11 1.78042e-10)
(1.80727e-12 2.21608e-12 7.17965e-11)
(2.05423e-11 3.84727e-11 3.00293e-10)
(4.16729e-12 1.23806e-11 1.39533e-10)
(-3.34763e-12 -7.59721e-12 6.43167e-11)
(1.63713e-11 1.79619e-11 2.79956e-10)
(8.39577e-11 9.30862e-11 1.50659e-10)
(2.10416e-11 2.08371e-11 7.00916e-11)
(1.73893e-11 2.4035e-11 7.15794e-11)
(3.22495e-11 2.90203e-11 2.83087e-10)
(3.03905e-11 4.36648e-11 2.95425e-10)
(6.81795e-12 7.2862e-12 7.37048e-11)
(3.42409e-10 2.87005e-10 4.56858e-11)
(3.32267e-10 2.79925e-10 3.4689e-11)
(2.25736e-10 1.835e-10 1.89947e-11)
(5.25562e-11 4.78038e-11 9.91588e-12)
(2.23439e-10 1.84147e-10 2.51638e-11)
(3.20379e-10 2.70042e-10 2.40325e-11)
(3.26663e-10 2.74319e-10 3.04449e-11)
(2.17417e-10 1.89313e-10 5.28082e-11)
(5.53985e-11 4.72859e-11 1.21512e-11)
(2.37367e-10 1.92048e-10 2.59539e-11)
(-2.41431e-14 -1.83439e-13 -3.02341e-13)
(4.28033e-13 -9.63282e-14 5.22755e-12)
(-4.86773e-13 -1.66494e-14 -9.0157e-13)
(1.65796e-13 -1.40963e-14 4.96409e-12)
(-4.1648e-13 -3.34555e-14 -1.02147e-12)
(-4.65013e-13 -2.40102e-14 -8.68333e-13)
(1.23472e-12 -1.1973e-12 1.82698e-11)
(-1.1438e-12 -1.5742e-12 1.54142e-11)
(-1.99955e-12 -9.81581e-13 1.33347e-11)
(-5.21854e-12 -2.5872e-13 1.01624e-11)
(1.13408e-12 -5.4714e-13 3.83176e-12)
(-5.13024e-12 -6.49745e-13 1.05915e-11)
(-3.88023e-12 -1.53202e-12 1.30247e-11)
(1.41942e-12 -7.7355e-13 4.48306e-12)
(-5.01852e-12 -9.2512e-13 1.08695e-11)
(-7.44028e-13 -2.17909e-14 -1.72489e-12)
(-3.4491e-13 -4.10425e-13 2.41895e-12)
(-5.87319e-13 -1.88724e-14 -1.5147e-12)
(-3.98359e-13 -2.7813e-14 -1.0894e-12)
(-1.36003e-13 -5.52893e-13 2.98203e-12)
(-5.55681e-13 -3.21993e-14 -1.4636e-12)
(2.44042e-10 2.39771e-10 -1.37465e-12)
(2.52019e-10 2.43516e-10 -1.16228e-12)
(1.74416e-10 1.67751e-10 2.37727e-13)
(3.53185e-11 4.51917e-11 -7.26266e-13)
(1.72173e-10 1.66889e-10 -8.46736e-13)
(2.57695e-10 2.462e-10 9.92143e-13)
(2.53625e-10 2.44232e-10 -4.21083e-13)
(1.64776e-10 1.63795e-10 -1.64865e-12)
(3.46744e-11 4.49774e-11 -3.64522e-13)
(1.69755e-10 1.65804e-10 -1.17654e-12)
(3.75777e-10 7.6469e-10 -1.12111e-12)
(3.81786e-10 7.64181e-10 9.7494e-13)
(3.39229e-10 8.97378e-10 7.90282e-13)
(2.569e-10 1.17501e-09 -1.69253e-13)
(3.329e-10 8.85536e-10 4.81786e-13)
(3.90621e-10 7.73958e-10 3.14039e-12)
(3.83737e-10 7.63316e-10 1.26291e-12)
(3.25976e-10 8.90607e-10 -1.50439e-12)
(2.54374e-10 1.1763e-09 -1.55476e-13)
(3.3109e-10 8.8664e-10 3.23532e-13)
(2.57878e-10 6.11036e-10 -3.46698e-12)
(2.07856e-10 3.22378e-10 -2.93191e-12)
(1.64619e-10 4.59205e-10 -4.55978e-12)
(3.73982e-10 7.65517e-10 -1.23485e-12)
(3.24351e-10 8.91801e-10 -1.83988e-12)
(2.42312e-10 2.39178e-10 -1.9119e-12)
(1.62184e-10 1.62819e-10 -1.59973e-12)
(3.53006e-12 1.48781e-11 4.23161e-11)
(1.57342e-11 -1.69929e-10 2.21702e-10)
(4.8272e-12 3.25697e-11 5.47611e-11)
(1.07186e-11 4.29836e-11 1.769e-10)
(-1.03353e-11 6.83255e-12 5.89855e-11)
(-7.78494e-12 3.95581e-12 4.38263e-12)
(-1.36485e-11 7.62022e-12 9.65544e-13)
(-8.67353e-12 3.83448e-12 -1.19145e-11)
(-8.48561e-12 8.61934e-12 -8.24351e-12)
(-1.62025e-11 9.82376e-12 1.14185e-11)
(-3.03292e-12 -5.59325e-13 1.30595e-11)
(-9.70591e-12 8.17161e-12 9.5472e-11)
(-1.34377e-11 1.39989e-11 4.63225e-11)
(6.27542e-13 9.89916e-12 2.26848e-10)
(-1.84993e-11 1.16723e-11 4.15816e-11)
(-1.14928e-12 5.96323e-12 1.76891e-10)
(-6.53942e-12 1.24655e-11 1.49152e-10)
(-1.86149e-11 1.31805e-11 3.30812e-11)
(-1.02873e-11 9.01284e-12 7.2661e-11)
(-4.83069e-12 1.88828e-11 3.84927e-11)
(-1.61076e-11 1.10304e-11 6.55785e-12)
(-1.96719e-11 1.22298e-11 2.6679e-11)
(-8.64e-12 1.11811e-11 1.96423e-12)
(-7.27928e-12 1.37177e-11 1.21466e-10)
(-1.91774e-11 1.22204e-11 1.91287e-11)
(1.93841e-11 3.96201e-11 -1.91048e-11)
(-1.29493e-12 8.06642e-12 -2.08218e-13)
(6.73405e-12 3.3411e-11 -1.35314e-11)
(4.61195e-12 1.08141e-11 7.99479e-12)
(6.34773e-11 5.507e-11 5.33473e-11)
(4.02365e-13 2.46118e-11 3.19516e-11)
(-2.5281e-12 1.68241e-11 1.55031e-12)
(-1.18071e-12 2.05459e-11 1.28754e-11)
(4.25238e-12 3.19864e-11 -5.51531e-13)
(3.62165e-11 4.47156e-11 5.65017e-11)
(7.56372e-12 1.51493e-11 1.70683e-10)
(-7.28607e-12 -4.73904e-12 5.22768e-11)
(1.45394e-12 1.02454e-11 2.31488e-10)
(-1.58667e-11 6.68065e-12 4.64819e-11)
(5.31206e-12 7.31337e-12 1.84126e-10)
(-4.23764e-12 1.433e-11 1.60055e-10)
(-9.47171e-12 7.9248e-13 4.56776e-11)
(1.98037e-11 2.29159e-11 1.20745e-10)
(1.38005e-11 4.79197e-12 2.88278e-11)
(1.15883e-10 3.90255e-11 6.27821e-11)
(1.16163e-11 1.62582e-11 2.30348e-11)
(5.12183e-11 4.33965e-11 6.71754e-11)
(5.06897e-11 2.05028e-11 9.3216e-11)
(1.4878e-12 6.68977e-12 3.13073e-11)
(-3.39476e-12 1.99311e-11 9.50355e-11)
(-3.48194e-13 2.218e-11 4.89878e-11)
(-1.69092e-11 9.45785e-12 3.16452e-11)
(-2.89355e-12 1.3621e-11 2.18529e-11)
(-4.6829e-12 1.49525e-11 1.3199e-10)
(3.03514e-11 3.75828e-11 6.9761e-11)
(-1.04658e-11 7.36412e-12 3.28502e-11)
(8.58139e-12 9.49756e-11 1.22731e-10)
(-1.00944e-11 1.7284e-11 4.77969e-11)
(-1.49455e-12 2.2024e-12 2.10507e-11)
(1.6031e-11 5.3095e-11 1.60771e-10)
(-3.01203e-12 4.12743e-12 1.95859e-11)
(6.60257e-12 9.03415e-11 1.15633e-10)
(8.83734e-14 1.24751e-12 1.84118e-11)
(-1.98401e-12 6.88177e-13 1.53933e-11)
(4.16653e-12 7.52114e-11 8.81828e-11)
(-2.23476e-12 3.15998e-12 1.8167e-11)
(1.5594e-12 -1.79153e-13 1.05769e-12)
(4.0247e-12 -1.42006e-12 1.32586e-11)
(3.32499e-12 -2.08635e-13 2.23036e-12)
(4.4211e-12 -9.92477e-13 1.36512e-11)
(4.41422e-12 4.72843e-14 4.05192e-12)
(5.07035e-12 -2.79966e-13 3.70945e-12)
(-1.71353e-12 2.12953e-11 7.68317e-11)
(-2.37956e-12 -7.42173e-12 3.17276e-11)
(-2.0308e-12 1.10573e-11 1.0186e-10)
(-4.62736e-12 5.70501e-12 3.05104e-11)
(3.60691e-12 1.33662e-11 1.26476e-10)
(-2.20865e-12 3.41846e-11 9.47401e-11)
(-2.38859e-12 1.8474e-12 2.52817e-11)
(4.87045e-12 3.13705e-11 5.71564e-11)
(5.10114e-12 -4.35769e-12 9.94462e-12)
(2.13727e-11 9.00417e-12 5.98569e-11)
(6.25902e-13 -1.9694e-12 9.7598e-12)
(3.13825e-12 4.07693e-11 5.8251e-11)
(-1.81091e-12 8.58178e-13 1.33932e-11)
(1.91773e-12 6.61479e-13 2.82178e-12)
(2.85826e-12 7.05312e-11 8.10502e-11)
(-3.77026e-13 -1.39648e-12 9.33496e-12)
(8.44131e-11 2.04134e-11 7.06927e-11)
(2.47218e-11 4.25133e-12 2.63399e-11)
(1.30791e-10 2.76636e-11 6.66078e-11)
(6.16862e-11 -2.98001e-12 -6.41965e-12)
(6.27886e-11 1.75689e-11 5.75541e-11)
(1.778e-10 1.88612e-11 2.34285e-11)
(3.24983e-11 6.93566e-13 2.29907e-11)
(6.90201e-11 1.88951e-11 6.11994e-11)
(6.89731e-12 -4.95741e-12 1.05424e-11)
(2.96654e-11 9.98771e-12 5.97326e-11)
(1.4459e-11 -1.60149e-12 1.15823e-11)
(9.0202e-11 2.28746e-11 5.75482e-11)
(6.28384e-11 -5.14619e-12 -7.85341e-12)
(1.90076e-10 2.17395e-11 -1.81992e-12)
(3.93296e-11 -6.80637e-12 1.93898e-11)
(2.11603e-10 4.81181e-10 1.2369e-11)
(4.40334e-10 4.54282e-10 1.99754e-11)
(3.01851e-10 6.47236e-10 1.23669e-11)
(2.4641e-10 3.43701e-10 6.15216e-12)
(2.00171e-10 4.83758e-10 7.82947e-12)
(3.14248e-10 6.42999e-10 1.56465e-11)
(2.60962e-10 3.49334e-10 1.04013e-11)
(2.20363e-10 4.78957e-10 1.78052e-11)
(4.45031e-10 4.56739e-10 2.09545e-11)
(3.28516e-10 6.37333e-10 2.33014e-11)
(2.79241e-10 3.55016e-10 2.19235e-11)
(2.27057e-10 4.77211e-10 2.47996e-11)
(3.24006e-10 6.39346e-10 2.01819e-11)
(2.71651e-10 3.52812e-10 1.50791e-11)
(2.72603e-10 2.50059e-10 5.97717e-12)
(2.59486e-10 2.44841e-10 4.95948e-12)
(1.74281e-10 1.67245e-10 9.88807e-13)
(3.81402e-11 4.54234e-11 8.26887e-13)
(1.75431e-10 1.66364e-10 1.91954e-12)
(2.57898e-10 2.46143e-10 2.02627e-12)
(2.58672e-10 2.45096e-10 3.83112e-12)
(1.84639e-10 1.68396e-10 3.54966e-12)
(3.93123e-11 4.55332e-11 6.8441e-13)
(1.76622e-10 1.65446e-10 2.86219e-12)
(4.16306e-10 8.17509e-10 1.1104e-11)
(4.06016e-10 8.11628e-10 6.18845e-12)
(3.41628e-10 9.04415e-10 9.0593e-13)
(2.72286e-10 1.22742e-09 -7.85972e-13)
(3.51018e-10 9.35324e-10 3.04767e-12)
(3.93075e-10 7.7937e-10 3.39391e-12)
(4.02317e-10 8.03776e-10 5.58612e-12)
(3.63955e-10 9.4725e-10 1.16288e-11)
(2.79075e-10 1.24607e-09 3.97746e-12)
(3.54477e-10 9.44042e-10 4.16094e-12)
(4.19575e-10 8.12252e-10 1.20568e-11)
(4.28278e-10 7.93046e-10 1.62179e-11)
(3.7546e-10 8.8275e-10 2.14495e-11)
(2.85854e-10 1.15254e-09 2.30633e-11)
(3.75227e-10 8.94378e-10 1.96047e-11)
(4.3114e-10 7.833e-10 2.092e-11)
(4.30642e-10 7.88697e-10 1.74359e-11)
(3.66718e-10 9.39985e-10 1.34214e-11)
(2.86395e-10 1.18605e-09 2.30015e-11)
(3.73348e-10 9.04214e-10 1.86475e-11)
(2.77836e-10 2.52166e-10 7.52402e-12)
(3.00678e-10 2.62807e-10 1.16284e-11)
(2.22491e-10 1.8255e-10 1.52516e-11)
(4.89912e-11 4.73509e-11 3.59906e-12)
(2.15332e-10 1.80282e-10 1.06028e-11)
(3.18111e-10 2.68912e-10 2.08981e-11)
(3.05768e-10 2.64642e-10 1.40655e-11)
(1.92857e-10 1.71676e-10 5.12899e-12)
(4.61121e-11 4.70015e-11 2.83344e-12)
(2.06342e-10 1.77603e-10 7.59563e-12)
(-4.62908e-13 -1.94247e-12 3.4623e-11)
(-1.54519e-12 -4.59895e-13 3.29504e-11)
(5.54027e-13 -3.12119e-13 1.70846e-11)
(-2.451e-12 -1.64693e-13 1.19262e-11)
(-2.40752e-12 -2.00818e-13 1.21721e-11)
(-5.2286e-12 -2.44437e-13 1.00721e-11)
(3.29885e-13 -1.08778e-13 2.47865e-12)
(-5.26358e-12 -1.64372e-13 9.78871e-12)
(-5.28981e-12 -1.33174e-13 9.49836e-12)
(2.64606e-13 -1.01986e-13 2.35464e-12)
(-5.26695e-12 -1.7328e-13 9.72419e-12)
(-9.48968e-13 -1.75596e-15 -1.9939e-12)
(-7.84361e-13 -8.47099e-15 -1.77591e-12)
(-9.24061e-13 -1.04076e-13 1.10551e-12)
(-8.39699e-13 -1.19571e-14 -1.87119e-12)
(-9.89044e-13 -7.29071e-14 9.7281e-13)
(-9.21553e-13 -1.30093e-14 -1.9643e-12)
(-8.60943e-13 -1.8496e-15 -1.89548e-12)
(4.18186e-13 1.21832e-12 2.29905e-12)
(-1.57131e-12 -2.40708e-14 -6.49397e-13)
(3.66088e-13 1.02412e-12 8.44825e-13)
(-3.57632e-13 3.39971e-13 -3.83934e-12)
(1.09524e-12 2.49552e-12 3.2632e-12)
(-1.20791e-12 5.77294e-14 8.42235e-13)
(-1.17482e-12 3.51391e-14 -2.21348e-12)
(-2.53959e-13 1.34154e-12 -4.55335e-12)
(2.35716e-13 2.31601e-14 -1.66187e-12)
(8.34912e-13 7.55659e-13 -9.35464e-13)
(-1.3264e-12 -2.70454e-13 -1.09827e-11)
(7.00981e-13 1.28301e-12 -3.17218e-12)
(9.87782e-13 8.82358e-13 -1.64786e-12)
(-1.84701e-12 2.67713e-14 -8.39831e-12)
(7.1564e-12 5.90417e-11 1.31418e-10)
(9.59586e-13 1.49599e-11 4.78412e-11)
(1.696e-12 6.39548e-11 1.35879e-10)
(-4.25455e-13 1.11185e-11 4.97719e-11)
(-3.60508e-12 3.86735e-11 1.42466e-10)
(1.24623e-11 4.95496e-11 1.41377e-10)
(-7.21015e-13 1.4697e-11 4.33782e-11)
(3.32128e-10 4.42893e-10 9.20475e-11)
(4.30251e-10 5.65634e-10 4.72636e-11)
(4.47168e-10 4.78858e-10 1.24157e-11)
(4.12354e-10 4.43731e-10 4.96891e-11)
(3.98876e-10 4.23812e-10 4.96728e-11)
(4.10372e-10 5.32592e-10 3.61953e-11)
(3.58992e-10 4.8727e-10 6.35521e-11)
(4.47156e-11 1.52444e-10 1.22436e-10)
(1.7559e-11 4.62306e-11 4.33905e-11)
(1.08034e-10 2.84932e-10 1.19267e-10)
(1.99191e-11 4.85304e-11 3.76876e-11)
(5.55246e-11 1.40952e-10 1.37484e-10)
(9.29679e-11 1.53104e-10 1.07317e-10)
(1.19931e-11 4.2506e-11 3.87193e-11)
(-8.12466e-13 -1.17666e-12 3.2216e-12)
(2.08805e-12 -6.39376e-13 8.25581e-12)
(-1.25094e-12 -7.27628e-13 2.29604e-12)
(1.5801e-12 -3.3464e-13 7.50205e-12)
(-7.91128e-13 -1.20588e-12 3.02478e-12)
(-1.22666e-12 -7.07292e-13 2.65024e-12)
(2.73045e-10 4.53695e-10 -1.7922e-12)
(3.76574e-10 4.15827e-10 1.34616e-12)
(3.50509e-10 5.06669e-10 -5.92083e-13)
(3.00928e-10 3.62077e-10 -9.05435e-13)
(3.04587e-10 3.64352e-10 4.1161e-14)
(3.54156e-10 5.08688e-10 -1.98244e-13)
(2.70213e-10 4.52526e-10 -2.02769e-12)
(2.84551e-10 4.6063e-10 5.2543e-13)
(3.89127e-10 4.23128e-10 3.20874e-12)
(3.1866e-10 3.72735e-10 2.85696e-12)
(3.68596e-10 5.18553e-10 3.23778e-12)
(2.8554e-10 4.62342e-10 1.30556e-12)
(3.17239e-10 3.71067e-10 1.61673e-12)
(3.66043e-10 5.15896e-10 2.41614e-12)
(2.77994e-11 4.94375e-11 4.20183e-11)
(8.91734e-11 1.49632e-10 1.32261e-10)
(-1.26693e-11 2.66724e-11 -4.42553e-12)
(-3.97826e-12 2.49066e-11 -2.60794e-12)
(-2.72875e-12 9.86612e-12 -1.01164e-12)
(-4.83634e-12 2.61785e-11 -2.35905e-12)
(-6.66277e-12 9.84152e-12 -6.5385e-13)
(-1.31342e-14 -1.46868e-12 4.80616e-12)
(3.7693e-12 -1.8463e-12 1.20869e-11)
(1.25066e-12 -1.49134e-12 6.82656e-12)
(4.62087e-12 -1.66412e-12 1.33915e-11)
(7.97248e-12 1.71178e-14 1.97402e-11)
(3.88727e-12 -5.61506e-13 8.1198e-12)
(2.94893e-10 4.77215e-10 6.99227e-12)
(4.03479e-10 4.31782e-10 1.22553e-11)
(3.87675e-10 5.39982e-10 1.08828e-11)
(3.32338e-10 3.81738e-10 1.08319e-11)
(3.00763e-10 4.79472e-10 7.77807e-12)
(3.24986e-10 3.77198e-10 8.91949e-12)
(3.8037e-10 5.3545e-10 1.01276e-11)
(2.86199e-10 4.66275e-10 2.93377e-12)
(3.93714e-10 4.26634e-10 5.48905e-12)
(3.1812e-10 3.72365e-10 3.06793e-12)
(3.68987e-10 5.20529e-10 3.90641e-12)
(2.86079e-10 4.64303e-10 2.09622e-12)
(3.18618e-10 3.73624e-10 4.56102e-12)
(3.7063e-10 5.22863e-10 4.85293e-12)
(-3.49116e-12 -1.25187e-13 -5.00913e-12)
(1.27894e-13 -9.40851e-14 1.96084e-12)
(-3.54538e-12 -1.34573e-13 -5.25574e-12)
(4.44142e-10 3.92731e-10 4.73172e-11)
(4.36363e-10 3.86241e-10 1.86961e-11)
(4.74523e-10 6.16959e-10 3.01386e-11)
(4.56492e-10 5.89762e-10 -1.04621e-11)
(3.59276e-10 4.97024e-10 4.47881e-11)
(4.37503e-10 5.78242e-10 3.27989e-11)
(4.57539e-10 4.82227e-10 4.05498e-11)
(4.08486e-10 4.36455e-10 3.93379e-11)
(3.61772e-10 4.9407e-10 5.19243e-11)
(4.25946e-10 5.62909e-10 3.64012e-11)
(3.98626e-10 4.25666e-10 4.02845e-11)
(3.46192e-10 4.91763e-10 2.88707e-11)
(4.52313e-10 4.64744e-10 2.93039e-11)
(4.24056e-10 5.52545e-10 2.65723e-11)
(3.82474e-10 4.06191e-10 2.71115e-11)
(4.24195e-10 5.54098e-10 2.76101e-11)
(3.83876e-10 4.08531e-10 2.94824e-11)
(3.45856e-10 4.90685e-10 2.70004e-11)
(4.95027e-10 6.33861e-10 2.36751e-11)
(4.84703e-10 6.1993e-10 3.28864e-11)
(4.95508e-10 6.10369e-10 2.53704e-11)
(4.94073e-10 6.11168e-10 2.67811e-11)
(4.39107e-10 3.83299e-10 4.26737e-11)
(4.31097e-10 3.74653e-10 4.47981e-11)
(4.1086e-10 3.50996e-10 2.77071e-11)
(4.13143e-10 3.54187e-10 3.0385e-11)
(-7.31558e-13 -5.68888e-13 1.79667e-12)
(6.51415e-13 -4.82364e-13 5.73214e-12)
(-8.09197e-13 -3.11868e-13 1.71343e-12)
(2.25428e-13 -2.00976e-13 5.1156e-12)
(-1.07571e-12 -3.18524e-13 1.32412e-12)
(-1.00755e-12 -1.93365e-13 1.3392e-12)
(-3.19204e-12 -1.86476e-13 -4.66458e-12)
(7.81553e-13 -2.94721e-13 3.14345e-12)
(-3.10908e-12 -2.45784e-13 -4.71961e-12)
(-1.70037e-12 -1.54228e-12 -3.10161e-13)
(1.9954e-12 -1.04529e-12 6.58909e-12)
(-1.87709e-12 -1.5349e-12 -1.73274e-12)
(-2.01211e-12 -1.38701e-13 -1.5528e-12)
(-5.58292e-13 -2.68046e-13 1.82364e-12)
(-1.91701e-12 -1.60164e-13 -1.37004e-12)
(-1.35019e-12 -3.66957e-13 5.20215e-13)
(2.70793e-13 -6.40255e-13 4.44092e-12)
(-1.40255e-12 -3.86653e-13 2.81181e-13)