/*--------------------------------*- C++ -*----------------------------------*\
| =========                 |                                                 |
| \\      /  F ield         | OpenFOAM: The Open Source CFD Toolbox           |
|  \\    /   O peration     | Version:  2012                                  |
|   \\  /    A nd           | Website:  www.openfoam.com                      |
|    \\/     M anipulation  |                                                 |
\*---------------------------------------------------------------------------*/
FoamFile
{
    version     2.0;
    format      ascii;
    class       volVectorField;
    location    "0.105/solid";
    object      D_0_0_0;
}
// * * * * * * * * * * * * * * * * * * * * * * * * * * * * * * * * * * * * * //

dimensions      [0 1 0 0 0 0 0];


internalField   nonuniform List<vector> 
3124
(
(1.92864e-11 5.47528e-11 4.12949e-11)
(-1.07688e-13 1.25676e-13 -1.08544e-12)
(3.43093e-12 -3.27856e-13 2.20182e-11)
(7.17086e-11 2.32426e-10 -4.32294e-12)
(1.74668e-12 7.75534e-13 3.93221e-11)
(6.07974e-14 7.50397e-14 -1.98786e-12)
(4.41666e-12 -4.27082e-13 2.22495e-11)
(7.39474e-11 2.36344e-10 -3.72816e-12)
(1.71163e-12 3.68543e-13 3.99221e-11)
(-3.65332e-13 8.55749e-12 1.84874e-11)
(1.29948e-11 3.83933e-11 5.12168e-11)
(8.85138e-11 2.27128e-10 3.33699e-11)
(-7.06568e-13 -9.45132e-12 3.27258e-11)
(6.7526e-13 -3.99125e-13 1.66177e-11)
(-5.00902e-12 7.15947e-12 1.58067e-11)
(4.22414e-12 -5.69334e-12 3.15778e-11)
(8.22591e-13 1.89734e-11 5.01336e-11)
(3.39781e-12 -5.54181e-12 2.58045e-11)
(8.74127e-12 -3.45482e-12 2.67686e-11)
(8.58113e-11 2.33707e-10 1.79252e-11)
(-1.30139e-12 -6.14384e-13 3.19879e-11)
(-1.46906e-12 -5.19801e-13 3.18118e-11)
(6.30171e-13 -3.74811e-13 1.65299e-11)
(4.54013e-10 4.91011e-10 3.93361e-11)
(3.039e-11 4.13246e-11 3.55676e-11)
(2.22879e-11 6.28377e-11 3.80096e-11)
(6.16727e-11 1.49228e-10 9.7371e-11)
(1.9233e-10 5.80574e-10 1.97929e-10)
(1.92745e-11 2.99596e-11 2.83033e-11)
(1.12657e-10 1.27556e-10 8.10647e-11)
(1.95215e-12 -1.08998e-12 7.74442e-12)
(1.6812e-12 -1.94767e-12 2.03777e-11)
(1.97656e-12 -7.09571e-13 7.97296e-12)
(3.72274e-10 4.06384e-10 -7.80845e-13)
(5.84649e-11 1.56886e-10 -2.79773e-12)
(2.30658e-10 9.15292e-10 -7.00843e-12)
(6.96367e-11 2.30338e-10 -3.73818e-12)
(3.89722e-10 4.18573e-10 1.9211e-12)
(2.23337e-10 9.06837e-10 -4.20005e-12)
(5.57582e-11 1.54995e-10 -3.17066e-12)
(2.23226e-11 6.74275e-11 3.78108e-11)
(6.26793e-12 -1.13845e-11 4.4997e-11)
(-2.60092e-12 1.51428e-12 -6.9573e-12)
(-4.03047e-12 8.77035e-12 8.19826e-13)
(-1.13559e-11 1.31466e-11 1.82174e-12)
(8.03584e-12 -8.9732e-14 2.68785e-11)
(2.5333e-12 -1.53081e-12 9.16766e-12)
(6.85489e-12 -2.32531e-13 1.91994e-11)
(4.06326e-10 4.30989e-10 1.14433e-11)
(7.70591e-11 2.39102e-10 8.79573e-13)
(5.92768e-11 1.59048e-10 -2.11291e-12)
(2.34478e-10 9.27033e-10 -5.78056e-12)
(3.89753e-10 4.18833e-10 2.27717e-12)
(2.46778e-10 9.49636e-10 7.79409e-12)
(6.2257e-11 1.61271e-10 -4.11596e-13)
(6.44482e-13 -2.94579e-12 3.91995e-11)
(-1.8522e-12 -3.56088e-13 3.07288e-11)
(3.45164e-13 -2.38355e-13 1.57964e-11)
(-1.15588e-13 -8.52038e-14 1.292e-12)
(2.63786e-12 9.2066e-12 9.40732e-12)
(-4.41637e-12 1.1073e-11 6.31707e-11)
(2.83085e-11 3.00447e-11 3.4322e-11)
(6.04829e-11 4.34297e-11 2.92766e-11)
(8.61299e-12 4.46695e-11 4.80839e-11)
(4.47212e-12 -5.44162e-12 5.7477e-11)
(2.30779e-10 8.25282e-10 1.6283e-12)
(2.94405e-11 4.15591e-11 3.66488e-11)
(4.59168e-10 4.90054e-10 3.45825e-11)
(8.85242e-11 2.04449e-10 6.80619e-11)
(2.44875e-10 8.89713e-10 3.84287e-11)
(8.97984e-11 1.64651e-10 1.98148e-11)
(2.13759e-10 7.59037e-10 1.08937e-10)
(4.43245e-10 4.57471e-10 2.52723e-11)
(9.66458e-11 1.5892e-10 4.89061e-11)
(2.74129e-10 1.1323e-09 2.05158e-11)
(2.26227e-10 9.466e-10 7.21295e-11)
(-5.63281e-12 2.6513e-12 6.52606e-11)
(-4.06139e-12 -1.01292e-11 5.30012e-11)
(3.46466e-11 3.68173e-11 5.33447e-11)
(5.03165e-11 4.69113e-11 7.17018e-12)
(5.32317e-11 4.97035e-11 1.99334e-11)
(5.24677e-13 -8.38167e-13 5.24453e-12)
(2.69852e-13 -4.34611e-13 5.14388e-12)
(1.9523e-12 -2.08366e-12 1.95074e-11)
(3.83212e-13 -2.21146e-13 2.20493e-12)
(1.44296e-12 -9.65957e-13 5.89441e-12)
(-8.97337e-13 -2.12935e-13 9.87756e-13)
(-1.28884e-13 -5.68503e-13 3.81102e-12)
(3.51494e-11 4.44034e-11 -2.15492e-13)
(3.24767e-11 4.36328e-11 -1.32774e-12)
(2.64136e-10 1.1763e-09 -3.1009e-12)
(2.57165e-10 1.17213e-09 -2.46155e-12)
(3.70433e-10 4.05695e-10 -9.99886e-13)
(6.77318e-11 2.29284e-10 -3.88819e-12)
(2.2138e-10 9.07776e-10 -6.43622e-12)
(5.25886e-11 1.53515e-10 -3.22821e-12)
(2.5531e-10 1.17516e-09 -4.23964e-12)
(3.19612e-11 4.34133e-11 -7.41645e-13)
(2.72792e-11 4.7479e-11 4.93545e-11)
(1.85171e-11 1.06942e-12 4.16051e-11)
(-6.49349e-12 2.45738e-12 -2.46088e-12)
(-1.34479e-11 1.03801e-11 5.35223e-11)
(-1.65423e-11 1.29812e-11 1.22089e-11)
(-3.22975e-13 7.75925e-12 -3.26608e-12)
(-8.83706e-12 1.59192e-11 8.79619e-12)
(-1.13692e-11 3.1785e-12 5.66135e-11)
(3.41655e-11 1.30603e-11 3.86355e-12)
(-1.22849e-11 1.30142e-11 1.8152e-11)
(-4.3621e-12 -3.49001e-12 3.21077e-11)
(-1.68957e-12 -2.78311e-12 4.19416e-11)
(5.89836e-12 5.65656e-12 2.16507e-11)
(1.02731e-12 -1.21127e-12 6.39038e-12)
(4.39163e-12 4.17562e-13 1.45088e-11)
(-5.03847e-12 -6.43911e-12 3.63355e-11)
(3.2531e-12 5.14228e-12 1.40722e-11)
(4.48634e-11 3.71824e-12 1.63789e-12)
(4.1169e-10 4.33744e-10 1.29954e-11)
(8.13581e-11 2.37676e-10 8.33236e-12)
(2.48142e-10 8.95161e-10 2.93054e-11)
(8.23702e-11 1.64958e-10 9.93744e-12)
(4.45407e-10 4.57791e-10 2.32332e-11)
(2.48908e-10 9.38201e-10 1.62714e-11)
(7.17654e-11 1.63664e-10 3.23004e-12)
(3.56439e-11 4.45366e-11 -4.85654e-13)
(3.99329e-11 4.51514e-11 8.32126e-13)
(2.68652e-10 1.19566e-09 -3.60697e-12)
(2.83977e-10 1.23724e-09 9.08776e-12)
(2.79439e-10 1.13342e-09 1.93184e-11)
(2.85091e-10 1.21535e-09 1.59263e-11)
(4.94711e-11 4.7125e-11 5.63114e-12)
(4.15117e-11 4.56227e-11 9.20881e-13)
(7.79844e-14 -3.06865e-12 3.54411e-11)
(-1.78533e-12 -3.92768e-13 3.09763e-11)
(3.42703e-13 -2.33079e-13 1.58639e-11)
(2.48198e-13 -1.82303e-13 1.9899e-12)
(-6.35579e-14 -8.68276e-14 1.39469e-12)
(-1.30866e-12 -5.71555e-14 7.68846e-14)
(-1.01876e-12 -1.5325e-13 7.37109e-13)
(-1.25536e-12 -8.13512e-14 1.88811e-13)
(2.38184e-10 9.78052e-10 -6.99171e-12)
(-7.18708e-12 -3.04174e-12 -3.84514e-12)
(-5.75264e-13 -7.86216e-13 3.96758e-14)
(-3.48612e-13 -2.31197e-13 1.66934e-11)
(2.20869e-12 -4.29266e-13 2.21501e-11)
(-5.9237e-13 -3.67036e-13 1.71083e-11)
(3.29824e-12 8.50385e-13 3.97083e-11)
(-6.10087e-12 1.11666e-11 -4.65875e-11)
(2.49303e-13 -6.90309e-14 -9.69087e-13)
(-7.39641e-13 -7.97945e-13 -4.48209e-14)
(5.08631e-13 2.45868e-12 -4.39917e-12)
(7.25747e-12 -6.83992e-13 2.39215e-11)
(-3.5596e-13 -4.87406e-13 1.6522e-11)
(-5.15216e-13 -9.43391e-13 1.78651e-11)
(2.17747e-12 -3.95013e-14 4.09465e-11)
(5.25343e-11 1.03568e-11 1.28343e-10)
(4.21119e-12 8.9346e-12 1.55305e-11)
(-9.58699e-13 1.77799e-11 4.01343e-11)
(-4.59073e-13 -5.52671e-12 5.15159e-11)
(-1.48918e-12 2.66856e-12 1.74066e-10)
(1.0871e-11 1.90939e-11 3.50693e-11)
(3.28554e-12 -2.31931e-12 4.13963e-11)
(-1.18641e-11 1.26114e-10 2.63919e-10)
(2.45832e-11 4.31102e-11 6.0581e-11)
(4.2772e-11 -2.64885e-11 2.12166e-10)
(1.57297e-11 2.02534e-11 5.83551e-11)
(-3.31127e-11 3.07272e-10 1.40092e-10)
(4.31927e-11 6.74407e-11 1.64675e-10)
(3.37218e-11 3.9526e-11 6.14843e-11)
(8.73883e-12 1.03606e-11 2.32078e-10)
(1.14875e-11 4.45055e-12 9.50173e-11)
(-5.17898e-12 -1.132e-11 4.52694e-11)
(-4.91567e-12 -1.15911e-11 3.79658e-11)
(5.97885e-12 6.02426e-12 1.67002e-10)
(4.71474e-12 7.61389e-12 1.20531e-10)
(-6.38342e-12 -1.19293e-11 5.39117e-11)
(1.04566e-12 -9.00852e-13 1.70589e-11)
(-2.44007e-12 -3.02538e-13 1.18565e-11)
(-2.26862e-12 -7.03332e-13 1.23033e-11)
(-6.35281e-12 4.27101e-11 5.95269e-11)
(-2.30325e-11 -2.95763e-11 2.12272e-10)
(7.79416e-11 3.17071e-10 1.18099e-10)
(-9.90058e-12 5.47566e-12 7.83866e-11)
(-7.44259e-12 5.45223e-12 1.02252e-11)
(-1.12214e-11 1.4879e-11 3.36191e-11)
(-1.33118e-12 -5.00978e-12 4.71742e-11)
(-2.2371e-12 3.00956e-12 1.55012e-10)
(-1.59402e-11 1.21467e-11 2.2441e-11)
(-2.9327e-12 -1.75892e-12 2.12668e-11)
(1.5323e-11 1.42424e-11 1.43632e-10)
(1.5575e-11 5.49379e-12 9.63195e-11)
(-1.86603e-12 -7.68829e-12 4.0575e-11)
(7.72599e-12 -1.20103e-12 3.16032e-11)
(6.57699e-12 6.62167e-12 1.56184e-10)
(3.78092e-11 1.53439e-11 1.01197e-10)
(-4.92395e-13 -2.05794e-12 3.78582e-11)
(3.72293e-12 7.56867e-12 6.90211e-11)
(1.34017e-11 4.50816e-12 8.82013e-11)
(-2.13089e-12 -7.18922e-12 2.8275e-11)
(6.86234e-12 -3.68018e-12 2.14153e-11)
(3.63926e-12 8.34766e-12 1.08864e-10)
(1.96658e-11 6.53946e-12 7.4738e-11)
(1.41527e-13 -2.77256e-12 2.25981e-11)
(6.42334e-11 1.43701e-11 7.44732e-11)
(1.8636e-11 5.14119e-12 9.04655e-11)
(1.4283e-11 -3.25903e-13 2.82562e-11)
(1.23762e-11 -2.88861e-12 2.31836e-11)
(4.52444e-11 1.38457e-11 1.02e-10)
(2.69594e-11 7.21391e-12 7.15902e-11)
(2.02438e-11 -9.11659e-13 2.45094e-11)
(-1.05312e-12 -1.01674e-12 3.21724e-11)
(-1.58236e-12 -4.72654e-13 3.15529e-11)
(4.79472e-13 -2.84888e-13 1.62486e-11)
(-2.46183e-12 -2.68869e-13 1.17795e-11)
(-2.54267e-12 -1.99426e-13 1.14875e-11)
(1.33188e-10 2.4572e-10 1.45582e-10)
(3.11272e-10 5.45694e-10 1.0016e-10)
(3.25883e-10 3.56997e-10 -5.19998e-12)
(2.85007e-10 3.56278e-10 8.58166e-11)
(1.97108e-10 2.30622e-10 1.24456e-10)
(2.35183e-10 3.91822e-10 1.34494e-10)
(2.22464e-10 4.07157e-10 9.95433e-11)
(5.35229e-11 1.32247e-10 1.18589e-10)
(4.38853e-11 6.78138e-11 9.12219e-11)
(1.6641e-11 2.92956e-11 2.93662e-11)
(1.95576e-11 4.24718e-11 3.08565e-11)
(5.99526e-11 9.91981e-11 8.83768e-11)
(7.85617e-11 1.55965e-10 9.24846e-11)
(1.32411e-11 3.66728e-11 3.52906e-11)
(-6.11442e-12 -5.0335e-12 -6.08969e-12)
(-2.92989e-12 -4.42754e-13 1.47257e-11)
(1.42465e-12 -5.24814e-14 6.75506e-12)
(-3.61584e-12 -3.14092e-13 1.45474e-11)
(1.94696e-12 -7.21304e-13 2.20409e-11)
(-1.01384e-12 -1.42248e-12 1.54351e-11)
(-6.24801e-13 -5.79309e-13 1.69353e-11)
(1.20259e-12 3.12906e-14 6.74924e-12)
(-3.57175e-12 -1.31431e-12 1.30728e-11)
(-3.39876e-12 -4.37459e-13 1.43697e-11)
(1.72614e-10 4.55997e-10 -5.28851e-12)
(3.81815e-10 4.12701e-10 4.2356e-13)
(2.63626e-10 6.04852e-10 -3.27821e-12)
(2.11034e-10 3.18809e-10 -4.31876e-12)
(2.1581e-10 3.2165e-10 -3.62856e-12)
(2.68301e-10 6.06169e-10 -3.53748e-12)
(1.68871e-10 4.54478e-10 -5.18495e-12)
(1.75469e-10 4.57451e-10 -4.57715e-12)
(3.83544e-10 4.13458e-10 5.62589e-13)
(2.21327e-10 3.263e-10 -1.39291e-12)
(2.7511e-10 6.13666e-10 -2.98501e-12)
(1.77503e-10 4.61784e-10 -4.18879e-12)
(2.19109e-10 3.2352e-10 -3.13014e-12)
(2.72346e-10 6.08294e-10 -2.35058e-12)
(4.26581e-12 3.55048e-12 3.95489e-11)
(-6.35709e-12 7.97942e-12 -4.67466e-11)
(8.15473e-13 2.62731e-13 -7.13579e-12)
(-8.36277e-12 5.67654e-12 -7.10308e-12)
(-7.09483e-13 3.97037e-12 -3.18034e-11)
(-8.13022e-12 9.55158e-12 -2.44544e-11)
(-3.0771e-12 2.991e-12 -1.07277e-11)
(8.95981e-12 6.41305e-13 -3.61491e-11)
(1.90422e-13 1.30307e-11 -3.9034e-11)
(1.11657e-11 2.88685e-11 -1.63352e-11)
(-3.76838e-12 1.43823e-11 -2.64479e-12)
(3.5035e-12 2.55806e-11 -5.71702e-12)
(-8.87933e-13 3.74622e-12 -3.83554e-12)
(-3.86643e-12 1.16835e-11 -3.83343e-11)
(-1.30186e-11 2.34329e-11 -4.69163e-12)
(-1.02163e-11 9.84764e-12 -2.99991e-12)
(-4.19397e-12 1.18479e-11 -3.05913e-12)
(-8.5171e-12 1.10852e-11 -1.34014e-11)
(1.92967e-12 2.34756e-11 -1.24351e-11)
(-5.30931e-12 9.13461e-12 -6.60065e-12)
(7.55877e-12 -5.38469e-13 2.46346e-11)
(-3.33032e-13 9.8297e-13 2.05515e-11)
(-5.24161e-13 -6.9123e-13 1.85294e-11)
(-2.30404e-12 -5.43992e-13 1.48192e-11)
(6.56541e-12 -1.45084e-12 1.64234e-11)
(-1.85662e-12 -6.97392e-13 1.54625e-11)
(-6.00851e-13 -5.22508e-15 1.79749e-11)
(6.99104e-12 -1.02345e-12 1.65216e-11)
(-2.01283e-12 -5.6243e-13 1.57904e-11)
(1.82402e-10 4.77277e-10 2.30844e-13)
(3.92932e-10 4.2198e-10 6.49198e-12)
(2.87798e-10 6.43186e-10 5.19633e-12)
(2.31413e-10 3.35029e-10 2.81303e-12)
(1.88766e-10 4.80269e-10 2.4946e-12)
(2.23762e-10 3.3074e-10 1.81128e-12)
(2.80978e-10 6.39497e-10 2.32291e-12)
(1.79635e-10 4.72979e-10 -1.71682e-12)
(3.92438e-10 4.21528e-10 5.24507e-12)
(2.21693e-10 3.27474e-10 -3.02818e-13)
(2.76603e-10 6.21497e-10 -1.58839e-12)
(1.78604e-10 4.66115e-10 -2.93897e-12)
(2.21766e-10 3.29485e-10 1.46992e-12)
(2.77839e-10 6.31222e-10 -1.1117e-12)
(1.34083e-12 -1.27323e-12 4.1431e-11)
(-1.89205e-12 -2.951e-13 3.0499e-11)
(2.83417e-13 -1.62195e-13 1.56174e-11)
(-2.60059e-12 -1.56348e-13 1.11247e-11)
(-5.4413e-12 -1.40299e-13 8.74964e-12)
(3.48881e-10 3.03059e-10 5.20792e-11)
(1.75018e-10 1.49144e-10 1.17025e-10)
(-1.08601e-11 -4.84446e-12 1.12741e-10)
(3.73119e-12 8.01107e-12 1.05095e-11)
(2.36502e-12 1.64514e-11 2.84972e-11)
(2.37405e-11 2.881e-11 2.71534e-11)
(-3.16233e-11 5.01513e-11 1.51693e-10)
(6.57641e-12 1.46726e-11 2.65945e-11)
(1.68219e-11 -4.49907e-13 1.32e-11)
(4.78641e-11 1.92378e-11 1.74756e-10)
(-2.71513e-12 1.58213e-11 5.43766e-11)
(4.35868e-12 1.00056e-11 2.3967e-10)
(1.16194e-11 1.67719e-11 6.59894e-11)
(2.56562e-11 2.13301e-11 2.74547e-10)
(2.78354e-13 6.29822e-12 1.93361e-10)
(1.44051e-11 2.12067e-11 5.26311e-11)
(1.53199e-11 3.81194e-11 1.66479e-10)
(8.10957e-11 8.44961e-11 6.10539e-11)
(1.38399e-11 1.99638e-11 2.93163e-11)
(2.88748e-11 2.84971e-11 5.47911e-11)
(8.84897e-11 9.08922e-11 1.04903e-10)
(3.82196e-11 2.79663e-11 2.59784e-10)
(2.26498e-11 2.45335e-11 3.87907e-11)
(2.67056e-10 2.09551e-10 1.50384e-11)
(2.79302e-11 4.90526e-11 4.13527e-11)
(1.91773e-11 1.59598e-10 9.02319e-11)
(3.96186e-10 7.07242e-10 3.82271e-11)
(1.83047e-10 3.69943e-10 1.14748e-10)
(1.06702e-10 1.33682e-10 2.08311e-10)
(2.08831e-11 1.48465e-11 4.07083e-11)
(3.99437e-12 7.95835e-11 2.70641e-10)
(7.70589e-12 4.20699e-11 3.50357e-11)
(1.03224e-10 2.05784e-10 1.19684e-10)
(4.05461e-11 -1.6642e-10 2.23832e-10)
(3.21536e-11 4.92686e-11 4.02603e-11)
(1.13908e-11 8.77486e-11 2.84164e-10)
(7.45158e-12 3.37076e-12 6.07678e-11)
(8.31769e-12 2.88779e-11 1.88589e-10)
(9.36631e-12 1.50235e-11 7.34345e-11)
(2.364e-11 4.82511e-11 3.00404e-10)
(1.2085e-11 3.10133e-11 1.78926e-10)
(1.64471e-11 2.93842e-11 7.18314e-11)
(3.37075e-10 7.39416e-10 5.27037e-11)
(1.11503e-10 2.49953e-10 1.15938e-10)
(1.69858e-10 3.73275e-10 1.36322e-10)
(5.1204e-11 1.27553e-10 2.28081e-10)
(8.72502e-11 1.12794e-10 3.88277e-11)
(1.75725e-11 3.72015e-11 3.01934e-11)
(2.54625e-11 4.14627e-11 6.12554e-11)
(7.63046e-11 1.2143e-10 1.40065e-10)
(3.23821e-11 5.27802e-11 2.88585e-10)
(2.71869e-11 5.27619e-11 5.1122e-11)
(2.33439e-10 4.62713e-10 5.74538e-11)
(3.28069e-10 6.0466e-10 5.88597e-11)
(4.44074e-10 4.68004e-10 3.5608e-11)
(2.9712e-10 3.61052e-10 5.73883e-11)
(2.38772e-10 4.34577e-10 8.35692e-11)
(3.255e-10 6.27613e-10 4.21607e-11)
(2.89234e-10 3.61842e-10 3.97556e-11)
(2.29757e-10 4.69843e-10 4.26231e-11)
(4.45637e-10 4.66731e-10 3.22445e-11)
(3.22399e-10 6.33294e-10 2.66824e-11)
(2.76713e-10 3.53395e-10 2.59285e-11)
(3.23059e-10 6.32739e-10 3.22619e-11)
(2.81213e-10 3.56125e-10 3.27484e-11)
(2.2531e-10 4.7343e-10 3.10884e-11)
(4.03651e-10 7.42975e-10 2.25028e-11)
(4.15716e-10 7.77014e-10 2.39246e-11)
(2.64325e-10 1.11523e-09 2.92124e-11)
(3.67956e-10 8.78861e-10 2.05599e-11)
(3.61428e-10 8.70161e-10 2.63593e-11)
(3.41044e-10 7.83975e-10 4.34861e-11)
(2.54731e-10 1.06967e-09 3.53325e-11)
(3.59158e-10 8.59744e-10 2.88484e-11)
(4.23368e-10 7.78921e-10 2.00681e-11)
(4.17721e-10 7.80498e-10 2.21838e-11)
(1.20445e-11 1.26167e-11 2.59429e-10)
(-6.70292e-12 -6.52612e-12 5.84776e-11)
(4.56299e-12 1.04479e-11 2.426e-10)
(4.6548e-12 7.59498e-12 7.14091e-11)
(2.31642e-11 2.07906e-11 2.82322e-10)
(5.1556e-12 6.58328e-12 1.9255e-10)
(-2.46466e-12 -3.00038e-12 6.72938e-11)
(1.1439e-11 1.46734e-11 2.5217e-10)
(-5.1546e-12 -1.16765e-11 4.4914e-11)
(6.40766e-12 2.46613e-11 1.73565e-10)
(1.52356e-12 1.91353e-12 7.06166e-11)
(2.00662e-11 3.7675e-11 2.95965e-10)
(3.98885e-12 1.1467e-11 1.36112e-10)
(-3.49069e-12 -7.75046e-12 6.30711e-11)
(1.59201e-11 1.73637e-11 2.74765e-10)
(8.21366e-11 9.17391e-11 1.48299e-10)
(2.05144e-11 2.03957e-11 6.89599e-11)
(1.69205e-11 2.35623e-11 7.04739e-11)
(3.14226e-11 2.8429e-11 2.78516e-10)
(2.97374e-11 4.28584e-11 2.91099e-10)
(6.48898e-12 6.97465e-12 7.24347e-11)
(3.34579e-10 2.83723e-10 4.49507e-11)
(3.24332e-10 2.76686e-10 3.364e-11)
(2.19719e-10 1.81239e-10 1.7936e-11)
(5.05587e-11 4.73014e-11 9.56193e-12)
(2.17414e-10 1.81928e-10 2.42362e-11)
(3.13004e-10 2.66832e-10 2.25347e-11)
(3.18851e-10 2.71136e-10 2.9296e-11)
(2.1157e-10 1.87127e-10 5.19316e-11)
(5.33256e-11 4.68028e-11 1.18956e-11)
(2.31006e-10 1.89744e-10 2.53163e-11)
(-1.47916e-13 -1.89387e-13 -4.95317e-13)
(1.93012e-13 -1.1001e-13 4.58146e-12)
(-6.01516e-13 -1.70569e-14 -1.09554e-12)
(-9.86997e-14 -3.04222e-16 4.28408e-12)
(-5.47798e-13 -3.3391e-14 -1.22188e-12)
(-5.87979e-13 -3.11005e-14 -1.06956e-12)
(1.15228e-12 -1.20095e-12 1.73494e-11)
(-1.2998e-12 -1.57765e-12 1.46622e-11)
(-2.14892e-12 -9.78016e-13 1.25934e-11)
(-5.38423e-12 -2.55374e-13 9.43748e-12)
(8.7698e-13 -5.40372e-13 3.05422e-12)
(-5.29604e-12 -6.48234e-13 9.88867e-12)
(-4.05708e-12 -1.53451e-12 1.23169e-11)
(1.15416e-12 -7.6445e-13 3.68388e-12)
(-5.18799e-12 -9.21184e-13 1.01689e-11)
(-8.63058e-13 -2.12895e-14 -1.90877e-12)
(-5.71571e-13 -4.04903e-13 1.77049e-12)
(-7.11376e-13 -1.82638e-14 -1.70469e-12)
(-5.29362e-13 -2.75341e-14 -1.28824e-12)
(-3.70532e-13 -5.46475e-13 2.31582e-12)
(-6.81764e-13 -3.152e-14 -1.65594e-12)
(2.41942e-10 2.35148e-10 -2.48568e-12)
(2.49547e-10 2.39039e-10 -2.43815e-12)
(1.71425e-10 1.64608e-10 -8.91537e-13)
(3.42829e-11 4.42108e-11 -1.12164e-12)
(1.69347e-10 1.63656e-10 -1.88428e-12)
(2.54628e-10 2.41947e-10 -5.34394e-13)
(2.51007e-10 2.39792e-10 -1.76382e-12)
(1.62322e-10 1.60416e-10 -2.51042e-12)
(3.37086e-11 4.39569e-11 -7.25606e-13)
(1.67143e-10 1.62489e-10 -2.11845e-12)
(3.77717e-10 7.56721e-10 -2.55504e-12)
(3.83166e-10 7.5648e-10 -6.92959e-13)
(3.40444e-10 8.89987e-10 -1.12699e-12)
(2.60991e-10 1.16673e-09 -1.72798e-12)
(3.34978e-10 8.7785e-10 -1.20617e-12)
(3.90928e-10 7.66548e-10 1.15744e-12)
(3.84889e-10 7.55684e-10 -4.73699e-13)
(3.28879e-10 8.82573e-10 -2.90236e-12)
(2.58986e-10 1.1678e-09 -1.57702e-12)
(3.33401e-10 8.78879e-10 -1.29546e-12)
(2.59439e-10 6.04135e-10 -4.76113e-12)
(2.07291e-10 3.17235e-10 -4.04702e-12)
(1.65773e-10 4.53903e-10 -5.66823e-12)
(3.76079e-10 7.57486e-10 -2.6021e-12)
(3.27418e-10 8.83707e-10 -3.17367e-12)
(2.4032e-10 2.3452e-10 -2.96438e-12)
(1.5989e-10 1.5937e-10 -2.37844e-12)
(3.47184e-12 1.46e-11 4.22478e-11)
(1.59395e-11 -1.70831e-10 2.22132e-10)
(4.95628e-12 3.17985e-11 5.35309e-11)
(1.10387e-11 4.20503e-11 1.73015e-10)
(-1.04448e-11 6.81032e-12 5.56786e-11)
(-7.76451e-12 3.80655e-12 3.92635e-12)
(-1.36058e-11 7.38738e-12 2.13884e-13)
(-8.68784e-12 3.82324e-12 -1.34795e-11)
(-8.62622e-12 8.54226e-12 -1.11028e-11)
(-1.61676e-11 9.60808e-12 1.06084e-11)
(-3.04907e-12 -4.07853e-13 1.16083e-11)
(-9.85296e-12 8.07879e-12 9.21507e-11)
(-1.35181e-11 1.38161e-11 4.5278e-11)
(3.2329e-13 9.68601e-12 2.22612e-10)
(-1.85014e-11 1.15487e-11 4.05231e-11)
(-1.45506e-12 5.86396e-12 1.73038e-10)
(-6.73654e-12 1.22294e-11 1.45241e-10)
(-1.8605e-11 1.30196e-11 3.20992e-11)
(-1.0435e-11 8.91504e-12 6.94588e-11)
(-5.18654e-12 1.85502e-11 3.5367e-11)
(-1.6089e-11 1.08733e-11 5.71543e-12)
(-1.96556e-11 1.20705e-11 2.57014e-11)
(-8.83224e-12 1.10026e-11 -9.48022e-13)
(-7.48714e-12 1.34653e-11 1.1777e-10)
(-1.91534e-11 1.20668e-11 1.82233e-11)
(1.68205e-11 3.90276e-11 -2.05418e-11)
(-1.45125e-12 7.86254e-12 -5.48896e-13)
(5.54385e-12 3.25758e-11 -1.55107e-11)
(4.39532e-12 1.06471e-11 7.55323e-12)
(6.23666e-11 5.41566e-11 5.07689e-11)
(-1.22841e-13 2.41535e-11 2.88835e-11)
(-2.80478e-12 1.64497e-11 7.83575e-13)
(-1.49267e-12 2.02295e-11 1.20019e-11)
(3.44366e-12 3.12541e-11 -2.76947e-12)
(3.53136e-11 4.393e-11 5.36365e-11)
(7.25324e-12 1.47387e-11 1.67765e-10)
(-7.22599e-12 -4.73678e-12 5.13931e-11)
(1.15893e-12 9.99513e-12 2.27499e-10)
(-1.59383e-11 6.65898e-12 4.54324e-11)
(5.13137e-12 6.89382e-12 1.81183e-10)
(-4.46158e-12 1.40498e-11 1.55959e-10)
(-9.60779e-12 8.16058e-13 4.48041e-11)
(1.93688e-11 2.23397e-11 1.17834e-10)
(1.35178e-11 4.47454e-12 2.79731e-11)
(1.14517e-10 3.77929e-11 6.05074e-11)
(1.13289e-11 1.60105e-11 2.21451e-11)
(5.03387e-11 4.26213e-11 6.43339e-11)
(5.00676e-11 1.94721e-11 9.04861e-11)
(1.2536e-12 6.5255e-12 3.04414e-11)
(-3.76893e-12 1.96091e-11 9.19072e-11)
(-7.78383e-13 2.17869e-11 4.57005e-11)
(-1.69506e-11 9.34715e-12 3.06024e-11)
(-3.04307e-12 1.34679e-11 2.09063e-11)
(-4.91684e-12 1.46543e-11 1.28002e-10)
(2.96157e-11 3.69301e-11 6.67143e-11)
(-1.06084e-11 7.3017e-12 3.18757e-11)
(8.44595e-12 9.23684e-11 1.1998e-10)
(-9.74622e-12 1.6828e-11 4.67121e-11)
(-1.57697e-12 2.05141e-12 2.04157e-11)
(1.61364e-11 5.17635e-11 1.57249e-10)
(-2.95425e-12 3.9109e-12 1.91161e-11)
(6.46144e-12 8.76442e-11 1.13066e-10)
(-1.63584e-14 1.10997e-12 1.77797e-11)
(-2.02705e-12 4.67459e-13 1.49872e-11)
(4.04963e-12 7.27273e-11 8.61436e-11)
(-2.20889e-12 2.93654e-12 1.77187e-11)
(1.4583e-12 -1.8443e-13 9.2615e-13)
(3.84002e-12 -1.42979e-12 1.27169e-11)
(3.23733e-12 -2.07943e-13 2.07623e-12)
(4.22908e-12 -1.00429e-12 1.31016e-11)
(4.32253e-12 5.72824e-14 3.88909e-12)
(4.98153e-12 -2.75729e-13 3.55151e-12)
(-1.95052e-12 1.94299e-11 7.43618e-11)
(-2.34282e-12 -7.71979e-12 3.07684e-11)
(-2.04189e-12 1.00362e-11 9.84853e-11)
(-4.73937e-12 5.1272e-12 2.96461e-11)
(3.45121e-12 1.22303e-11 1.23295e-10)
(-2.53643e-12 3.25164e-11 9.26002e-11)
(-2.43332e-12 1.18564e-12 2.44153e-11)
(4.71334e-12 2.80483e-11 5.50936e-11)
(5.07994e-12 -5.13808e-12 9.67387e-12)
(2.11616e-11 5.82471e-12 5.8185e-11)
(6.06629e-13 -2.32593e-12 9.38269e-12)
(2.94123e-12 3.74987e-11 5.60293e-11)
(-1.87768e-12 6.43549e-13 1.29961e-11)
(1.79613e-12 5.83551e-13 2.6386e-12)
(2.73501e-12 6.79569e-11 7.87239e-11)
(-3.90449e-13 -1.67019e-12 8.96344e-12)
(8.37464e-11 1.76927e-11 6.87399e-11)
(2.44477e-11 3.70839e-12 2.55301e-11)
(1.29079e-10 2.60728e-11 6.4794e-11)
(6.11524e-11 -3.59893e-12 -6.61628e-12)
(6.20485e-11 1.62109e-11 5.50509e-11)
(1.76541e-10 1.63064e-11 2.19818e-11)
(3.22347e-11 -3.68783e-13 2.23231e-11)
(6.84589e-11 1.54443e-11 6.00775e-11)
(6.86024e-12 -5.8346e-12 1.02902e-11)
(2.93809e-11 6.808e-12 5.82131e-11)
(1.42731e-11 -2.68989e-12 1.13494e-11)
(8.9541e-11 1.94515e-11 5.6168e-11)
(6.22792e-11 -5.99502e-12 -7.96053e-12)
(1.88573e-10 1.85553e-11 -2.66259e-12)
(3.90525e-11 -9.13682e-12 1.91333e-11)
(2.07753e-10 4.77165e-10 1.03854e-11)
(4.34113e-10 4.48923e-10 1.74452e-11)
(2.98307e-10 6.41658e-10 9.99401e-12)
(2.42155e-10 3.39654e-10 4.16802e-12)
(1.97171e-10 4.79522e-10 5.83627e-12)
(3.09772e-10 6.37654e-10 1.32768e-11)
(2.55954e-10 3.45449e-10 8.45482e-12)
(2.15786e-10 4.75072e-10 1.58592e-11)
(4.38361e-10 4.5144e-10 1.8474e-11)
(3.22275e-10 6.32452e-10 2.11715e-11)
(2.72887e-10 3.51329e-10 2.01845e-11)
(2.21685e-10 4.73535e-10 2.29833e-11)
(3.18621e-10 6.34227e-10 1.78675e-11)
(2.65975e-10 3.49009e-10 1.31874e-11)
(2.67879e-10 2.46459e-10 4.1226e-12)
(2.55519e-10 2.40988e-10 3.16287e-12)
(1.71049e-10 1.64227e-10 -2.34938e-13)
(3.69117e-11 4.45745e-11 3.24501e-13)
(1.72011e-10 1.63481e-10 6.26751e-13)
(2.54663e-10 2.41947e-10 4.32394e-13)
(2.54917e-10 2.4117e-10 2.08467e-12)
(1.80592e-10 1.65776e-10 2.17197e-12)
(3.79622e-11 4.47429e-11 1.60928e-13)
(1.72888e-10 1.62716e-10 1.50332e-12)
(4.13588e-10 8.10817e-10 8.6458e-12)
(4.04612e-10 8.04637e-10 3.86283e-12)
(3.42533e-10 8.97116e-10 -1.08075e-12)
(2.7429e-10 1.21973e-09 -2.65717e-12)
(3.50855e-10 9.28273e-10 8.60456e-13)
(3.93091e-10 7.72054e-10 1.33482e-12)
(4.01295e-10 7.96709e-10 3.31832e-12)
(3.62015e-10 9.40619e-10 9.24226e-12)
(2.80179e-10 1.23857e-09 1.90165e-12)
(3.53912e-10 9.37069e-10 1.91663e-12)
(4.1638e-10 8.05646e-10 9.57818e-12)
(4.23604e-10 7.86843e-10 1.37403e-11)
(3.69597e-10 8.77478e-10 1.92899e-11)
(2.82549e-10 1.14686e-09 2.08462e-11)
(3.7075e-10 8.88563e-10 1.72024e-11)
(4.24702e-10 7.7771e-10 1.87482e-11)
(4.25503e-10 7.82662e-10 1.49844e-11)
(3.64279e-10 9.33454e-10 1.10093e-11)
(2.84212e-10 1.17987e-09 2.07623e-11)
(3.69362e-10 8.98225e-10 1.6215e-11)
(2.72817e-10 2.48622e-10 5.65196e-12)
(2.94677e-10 2.59429e-10 9.81357e-12)
(2.16784e-10 1.80241e-10 1.40475e-11)
(4.71622e-11 4.67571e-11 3.09879e-12)
(2.09952e-10 1.77922e-10 9.30571e-12)
(3.10961e-10 2.657e-10 1.93225e-11)
(2.99456e-10 2.61307e-10 1.22759e-11)
(1.88374e-10 1.69172e-10 3.73809e-12)
(4.44348e-11 4.63547e-11 2.30335e-12)
(2.01431e-10 1.75151e-10 6.24084e-12)
(-6.02569e-13 -1.95561e-12 3.29456e-11)
(-1.67552e-12 -4.51766e-13 3.12747e-11)
(4.71602e-13 -3.06913e-13 1.61659e-11)
(-2.59003e-12 -1.55557e-13 1.11836e-11)
(-2.55223e-12 -1.95602e-13 1.14197e-11)
(-5.38845e-12 -2.36644e-13 9.36382e-12)
(9.32581e-14 -1.03159e-13 1.73071e-12)
(-5.41844e-12 -1.60248e-13 9.0799e-12)
(-5.43624e-12 -1.24026e-13 8.80184e-12)
(3.05782e-14 -9.55758e-14 1.6121e-12)
(-5.41983e-12 -1.67752e-13 9.01716e-12)
(-1.05383e-12 -1.00326e-15 -2.15859e-12)
(-9.0185e-13 -7.96496e-15 -1.95779e-12)
(-1.1348e-12 -9.90668e-14 4.87314e-13)
(-9.53099e-13 -1.14052e-14 -2.04774e-12)
(-1.19786e-12 -6.74747e-14 3.58225e-13)
(-1.02841e-12 -1.23296e-14 -2.13176e-12)
(-9.72664e-13 -1.25108e-15 -2.06975e-12)
(9.03146e-14 8.05962e-13 1.89361e-12)
(-1.65966e-12 -1.51289e-13 -8.06809e-13)
(2.07534e-13 7.93221e-13 6.42338e-13)
(-4.88362e-13 2.35863e-13 -4.14182e-12)
(8.14054e-13 2.16299e-12 2.80414e-12)
(-1.41631e-12 -2.57243e-13 6.52514e-13)
(-1.32112e-12 -9.25662e-14 -2.55971e-12)
(-5.17182e-13 1.07316e-12 -5.048e-12)
(2.1421e-13 -3.90594e-14 -1.75901e-12)
(7.28325e-13 5.84396e-13 -1.11633e-12)
(-1.4418e-12 -3.64697e-13 -1.13014e-11)
(4.56055e-13 9.89113e-13 -3.68054e-12)
(9.34049e-13 7.35728e-13 -1.8255e-12)
(-1.99612e-12 -7.63166e-14 -8.68667e-12)
(7.2097e-12 5.74318e-11 1.28717e-10)
(1.06662e-12 1.44355e-11 4.68437e-11)
(1.8054e-12 6.32175e-11 1.33421e-10)
(-5.41049e-13 1.07188e-11 4.88183e-11)
(-3.76712e-12 3.78136e-11 1.3966e-10)
(1.25762e-11 4.81699e-11 1.38568e-10)
(-6.62598e-13 1.41502e-11 4.24456e-11)
(3.25042e-10 4.38746e-10 9.08672e-11)
(4.22358e-10 5.60709e-10 4.63621e-11)
(4.39101e-10 4.73542e-10 1.21277e-11)
(4.03805e-10 4.38972e-10 4.88589e-11)
(3.90766e-10 4.19018e-10 4.90431e-11)
(4.02847e-10 5.27674e-10 3.56263e-11)
(3.51275e-10 4.82881e-10 6.25278e-11)
(4.25862e-11 1.51382e-10 1.21421e-10)
(1.69798e-11 4.60268e-11 4.31222e-11)
(1.06082e-10 2.83966e-10 1.18423e-10)
(1.92385e-11 4.82267e-11 3.73753e-11)
(5.36213e-11 1.40201e-10 1.36682e-10)
(9.08421e-11 1.52162e-10 1.06365e-10)
(1.13671e-11 4.22289e-11 3.83993e-11)
(-1.07371e-12 -1.2049e-12 2.27128e-12)
(1.87501e-12 -6.53118e-13 7.51566e-12)
(-1.50861e-12 -7.3681e-13 1.36578e-12)
(1.36314e-12 -3.57113e-13 6.78646e-12)
(-1.07984e-12 -1.22987e-12 2.06925e-12)
(-1.4804e-12 -7.34515e-13 1.76705e-12)
(2.72886e-10 4.4747e-10 -3.22651e-12)
(3.75844e-10 4.08876e-10 -1.74367e-13)
(3.50669e-10 4.99547e-10 -2.03712e-12)
(3.00088e-10 3.55787e-10 -2.28279e-12)
(3.036e-10 3.58133e-10 -1.41051e-12)
(3.54167e-10 5.01637e-10 -1.71742e-12)
(2.70199e-10 4.46233e-10 -3.39328e-12)
(2.83423e-10 4.54705e-10 -1.2643e-12)
(3.87404e-10 4.1654e-10 1.27549e-12)
(3.16503e-10 3.66925e-10 9.47922e-13)
(3.67315e-10 5.11875e-10 1.23585e-12)
(2.84183e-10 4.56491e-10 -5.64469e-13)
(3.15307e-10 3.65172e-10 -2.09423e-13)
(3.65006e-10 5.09146e-10 5.06715e-13)
(2.73113e-11 4.92133e-11 4.18057e-11)
(8.75418e-11 1.48942e-10 1.3169e-10)
(-1.34558e-11 2.65919e-11 -5.07029e-12)
(-5.23684e-12 2.47452e-11 -2.94337e-12)
(-3.11578e-12 9.79864e-12 -1.2088e-12)
(-5.7172e-12 2.59158e-11 -2.99013e-12)
(-7.00441e-12 9.84857e-12 -8.56876e-13)
(-2.56751e-13 -1.50914e-12 3.93326e-12)
(3.5604e-12 -1.86743e-12 1.13913e-11)
(1.01355e-12 -1.53587e-12 6.00892e-12)
(4.40186e-12 -1.75648e-12 1.2596e-11)
(7.7723e-12 -5.05945e-14 1.90786e-11)
(3.66324e-12 -6.53265e-13 7.29985e-12)
(2.91481e-10 4.71922e-10 4.7195e-12)
(3.99322e-10 4.2593e-10 9.76369e-12)
(3.83718e-10 5.34028e-10 8.39879e-12)
(3.27855e-10 3.76647e-10 8.46582e-12)
(2.96977e-10 4.74267e-10 5.48068e-12)
(3.2087e-10 3.72003e-10 6.58532e-12)
(3.76808e-10 5.29415e-10 7.67493e-12)
(2.84336e-10 4.60565e-10 9.29289e-13)
(3.9119e-10 4.20266e-10 3.31821e-12)
(3.15722e-10 3.6661e-10 1.09029e-12)
(3.67436e-10 5.13968e-10 1.8284e-12)
(2.84472e-10 4.58514e-10 1.5746e-13)
(3.15964e-10 3.67948e-10 2.50889e-12)
(3.68783e-10 5.1637e-10 2.70562e-12)
(-3.73156e-12 -1.14933e-13 -5.84798e-12)
(-9.02362e-14 -8.48744e-14 1.25247e-12)
(-3.78221e-12 -1.23608e-13 -6.08649e-12)
(4.35154e-10 3.88035e-10 4.6618e-11)
(4.27699e-10 3.81431e-10 1.85576e-11)
(4.67101e-10 6.11731e-10 2.94139e-11)
(4.49461e-10 5.84462e-10 -1.07339e-11)
(3.51098e-10 4.92553e-10 4.36495e-11)
(4.29215e-10 5.73175e-10 3.18927e-11)
(4.48563e-10 4.77007e-10 3.95226e-11)
(3.99656e-10 4.31717e-10 3.85263e-11)
(3.53766e-10 4.89668e-10 5.08482e-11)
(4.17435e-10 5.57772e-10 3.53012e-11)
(3.89729e-10 4.20973e-10 3.92576e-11)
(3.38509e-10 4.87168e-10 2.71284e-11)
(4.43743e-10 4.59577e-10 2.73795e-11)
(4.16351e-10 5.47364e-10 2.45516e-11)
(3.74451e-10 4.01668e-10 2.52024e-11)
(4.16043e-10 5.48713e-10 2.57224e-11)
(3.75535e-10 4.0393e-10 2.77184e-11)
(3.38469e-10 4.86098e-10 2.51436e-11)
(4.87054e-10 6.28439e-10 2.29336e-11)
(4.76427e-10 6.14404e-10 3.18541e-11)
(4.8783e-10 6.04742e-10 2.32107e-11)
(4.85881e-10 6.05304e-10 2.47949e-11)
(4.29825e-10 3.78672e-10 4.19531e-11)
(4.21765e-10 3.70162e-10 4.38293e-11)
(4.02392e-10 3.46673e-10 2.57578e-11)
(4.04395e-10 3.49866e-10 2.85912e-11)
(-8.82375e-13 -5.85207e-13 1.38358e-12)
(4.55268e-13 -5.01714e-13 5.13937e-12)
(-9.92621e-13 -3.29315e-13 1.24541e-12)
(2.71077e-14 -2.14913e-13 4.54026e-12)
(-1.28362e-12 -3.36226e-13 8.01765e-13)
(-1.18961e-12 -2.07693e-13 8.90612e-13)
(-3.45794e-12 -1.82826e-13 -5.55439e-12)
(5.31674e-13 -2.90349e-13 2.3716e-12)
(-3.37861e-12 -2.44732e-13 -5.60762e-12)
(-1.9815e-12 -1.55234e-12 -1.23146e-12)
(1.72194e-12 -1.04857e-12 5.75698e-12)
(-2.17909e-12 -1.53414e-12 -2.69353e-12)
(-2.20065e-12 -1.35408e-13 -2.04727e-12)
(-7.79735e-13 -2.63573e-13 1.18326e-12)
(-2.10677e-12 -1.5688e-13 -1.86701e-12)
(-1.55048e-12 -3.73383e-13 8.49491e-15)