/*--------------------------------*- C++ -*----------------------------------*\
| =========                 |                                                 |
| \\      /  F ield         | OpenFOAM: The Open Source CFD Toolbox           |
|  \\    /   O peration     | Version:  2012                                  |
|   \\  /    A nd           | Website:  www.openfoam.com                      |
|    \\/     M anipulation  |                                                 |
\*---------------------------------------------------------------------------*/
FoamFile
{
    version     2.0;
    format      ascii;
    class       volScalarField;
    location    "0.105/solid";
    object      sigmaDiff;
}
// * * * * * * * * * * * * * * * * * * * * * * * * * * * * * * * * * * * * * //

dimensions      [1 -1 -2 0 0 0 0];


internalField   nonuniform List<scalar> 
3124
(
-313.673
-12.4158
-268.18
-858.848
-263.907
-17.8458
-274.798
-877.869
-269.365
-212.167
-584.22
-833.219
-255.612
-202.49
-184.512
-253.054
-398.619
-192.461
-215.133
-851.523
-213.703
-212.614
-201.388
-374.47
-299.255
-638.632
-556.602
-743.871
-393.929
-508.678
-77.6917
-248.101
-70.9711
-276.607
-518.836
-877.117
-852.238
-289.295
-877.019
-510.774
-668.295
-345.823
-68.3205
-95.844
-101.332
-373.488
-93.3312
-214.894
-307.247
-889.4
-526.852
-899.907
-289.233
-949.259
-537.311
-262.872
-204.852
-192.206
-18.4593
-171.269
-573.948
-467.771
-473.792
-520.512
-519.111
-877.629
-563.357
-410.52
-768.825
-868.678
-589.087
-847.409
-338.419
-617.077
-658.803
-634.028
-577.463
-465.31
-631.484
-446.791
-507.586
-82.0485
-74.9399
-238.112
-22.2346
-60.1176
-28.4558
-66.3973
-373
-360.615
-692.323
-691.491
-276.35
-851.657
-881.987
-504.557
-692.659
-356.202
-581.321
-663.839
-60.199
-481.134
-156.494
-92.0279
-129.26
-501.048
-241.245
-188.702
-405.561
-342.436
-227.875
-95.9673
-211.93
-290.444
-209.315
-274.868
-309.77
-873.991
-850.82
-571.814
-341.882
-926.95
-555.432
-373.922
-387.836
-704.954
-738.099
-661.22
-724.722
-447.394
-399.174
-237.809
-206.734
-193.167
-21.0175
-18.4857
-21.5909
-26.6969
-22.0153
-1001.07
-51.1962
-13.4878
-229.59
-266.553
-236.912
-266.152
-105.468
-28.1142
-18.6617
-81.7867
-301.891
-227.068
-244.982
-275.634
-363.607
-184.641
-385.297
-354.131
-430.378
-353.128
-305.396
-947.287
-894.775
-774.929
-561.578
-725.497
-609.117
-726.099
-563.57
-207.096
-377.706
-301.945
-377.38
-280.134
-467.827
-206.914
-169.231
-174.815
-892.591
-777.902
-705.01
-194.517
-131.266
-322.585
-328.057
-370.934
-225.983
-162.822
-338.476
-212.137
-339.063
-260.894
-351.347
-230.531
-322.709
-134.624
-186.835
-208.615
-157.828
-247.869
-148.577
-152.729
-144.565
-193.284
-230.726
-182.418
-234.827
-140.584
-203.709
-214.936
-210.926
-198.212
-167.829
-164.063
-635.956
-623.358
-1187.94
-517.814
-672.438
-737.448
-643.618
-446.684
-1025.94
-321.535
-408.239
-465.394
-572.643
-406.857
-139.457
-197.835
-65.1705
-197.077
-265.628
-214
-233.928
-69.0193
-176.522
-194.808
-565.323
-283.73
-501.399
-370.291
-371.367
-497.732
-565.233
-566.818
-283.275
-377.84
-501.119
-572.913
-374.503
-496.241
-280.31
-121.208
-54.393
-101.19
-103.854
-75.6955
-92.8103
-251.179
-132.016
-108.431
-89.2765
-75.327
-91.971
-111.78
-68.4
-95.0162
-81.375
-46.0832
-101.707
-95.1226
-310.586
-293.919
-254.557
-196.879
-156.336
-202.011
-252.441
-165.651
-207.168
-605.971
-296.707
-555.456
-402.673
-612.625
-398.011
-550.719
-595.965
-295.097
-384.812
-514.877
-583.546
-390.932
-533.181
-277.026
-203.183
-189.947
-158.602
-121.341
-430.694
-705.895
-1227.25
-141.264
-220.583
-266.44
-496.715
-224.476
-339.738
-501.648
-507.572
-568.618
-630.276
-708.639
-472.967
-517.184
-1221.19
-1285.01
-274.917
-587.132
-502.498
-744.937
-400.612
-415.42
-354.859
-951.567
-473.021
-859.983
-1266.2
-882.232
-1157.39
-436.751
-792.669
-4418.28
-659.515
-918.446
-540.784
-515.064
-720.34
-772.771
-591.982
-711.11
-514.104
-1624.16
-886.045
-1059.02
-1470.39
-498.601
-708.905
-768.859
-829.881
-670.417
-635.544
-587.908
-348.451
-487.697
-640.507
-548.787
-444.273
-620.137
-357.418
-525.355
-420.987
-537.494
-429.93
-606.648
-497.013
-458.05
-655.489
-530.428
-532.681
-536.684
-634.394
-523.934
-467.296
-470.097
-633.659
-507.178
-572.007
-664.158
-705.492
-438.061
-609.594
-619.109
-376.033
-487.042
-669.263
-749.834
-320.152
-573.839
-679.485
-1266.64
-688.258
-719.713
-743.211
-785.48
-690.159
-500.122
-407.309
-387.281
-463.542
-411.576
-394.058
-408.572
-489.089
-473.813
-385.293
-10.032
-70.447
-29.651
-71.2994
-32.9152
-28.485
-210.243
-204.154
-178.937
-130.762
-29.4951
-135.649
-166.326
-33.8366
-139.597
-61.8975
-37.5288
-53.6225
-36.5864
-43.2628
-50.9175
-315.204
-322.658
-336.052
-370.647
-335.114
-330.479
-327.019
-330.052
-366.135
-329.386
-462.121
-456.72
-545.187
-687.854
-539.607
-464.572
-461.353
-547.637
-688.11
-538.86
-503.141
-369.135
-565.956
-460.009
-547.387
-311.238
-323.856
-896.079
-4471.6
-626.528
-238.865
-140.945
-79.8037
-95.9585
-63.7106
-54.489
-138.668
-98.8732
-224.307
-417.726
-522.295
-374.581
-411.82
-343.239
-304.759
-170.723
-116.236
-120.223
-256.156
-38.9417
-280.452
-198.025
-127.63
-114.714
-115.312
-175.399
-262.942
-104.518
-103.96
-138.835
-97.5745
-179.369
-410.176
-446.187
-529.526
-412.684
-410.655
-366.038
-393.745
-290.036
-240.96
-338.443
-222.388
-244.684
-211.496
-262.828
-282.802
-126.896
-288.96
-197.701
-303.53
-192.276
-284.386
-263.437
-522.422
-298.725
-330.324
-312.387
-240.456
-262.839
-223.14
-173.583
-288.254
-54.5575
-170.928
-126.747
-184.481
-183.29
-185.638
-165.426
-245.047
-293.278
-223.53
-284.099
-207.598
-183.619
-89.776
-145.217
-110.74
-130.459
-94.7104
-204.12
-129.37
-155.764
-142.351
-153.94
-231.84
-311.301
-325.892
-191.54
-257.76
-221.455
-134.953
-161.15
-111.829
-218.685
-158.737
-355.715
-324.899
-241.564
-606.778
-327.753
-546.794
-406.285
-610.795
-529.777
-410.552
-600.217
-328.727
-516.588
-418.74
-601.139
-517.076
-414.952
-334.937
-323.471
-341.44
-375.306
-342.837
-330.523
-324.274
-353.143
-378.141
-352.476
-499.791
-494.483
-550.984
-721.66
-583.064
-470.595
-493.281
-595.675
-734.356
-589.564
-502.278
-480.579
-530.053
-673.441
-539.11
-469.254
-473.022
-592.213
-697.838
-548.839
-346.434
-373.618
-384.747
-430.976
-379.417
-394.607
-383.317
-367.001
-419.103
-368.356
-220.743
-208.833
-197.06
-159.597
-162.865
-129.529
-19.1957
-126.043
-122.188
-18.9469
-125.032
-73.4368
-64.0403
-24.1126
-68.1779
-23.5078
-72.1988
-69.2282
-35.3264
-11.1639
-16.3194
-30.8749
-37.1744
-18.8016
-17.4603
-31.427
-21.6251
-20.9733
-48.196
-32.3427
-25.8415
-36.6896
-314.919
-390.076
-362.376
-408.098
-396.377
-359.317
-361.347
-613.709
-418.751
-519.289
-384.057
-447.98
-480.906
-532.178
-497.148
-509.296
-754.894
-500.176
-624.28
-642.933
-461.782
-81.8361
-70.4711
-73.1548
-72.3099
-65.6664
-73.03
-415.274
-279.681
-336.705
-314.893
-313.991
-336.256
-415.398
-417.952
-285.148
-322.654
-345.13
-423.822
-322.83
-343.049
-534.902
-657.691
-98.5229
-88.8132
-110.842
-87.9533
-107.769
-95.026
-114.786
-108.561
-190.764
-188.572
-147.359
-455.089
-300.275
-372.163
-343.524
-459.583
-341.693
-370.752
-433.404
-292.052
-328.279
-348.908
-427.539
-326.656
-351.337
-11.5683
-19.0788
-12.6274
-287.956
-451.91
-396.997
-585.9
-496.468
-446.905
-360.127
-431.034
-537.885
-430.648
-406.107
-461.721
-345.152
-390.349
-375.616
-394.918
-373.79
-456.202
-521.234
-408.683
-400.74
-403.647
-365.876
-339.204
-306.325
-313.919
-43.2089
-76.7419
-39.105
-74.2982
-34.1854
-36.4051
-8.49946
-24.2417
-7.57587
-50.6237
-49.9614
-33.3375
-23.9001
-30.5462
-21.5958
-27.4424
-59.6745
-22.7615
-242.59
-244.392
-254.883
-251.821
-341.778
-346.739
-357.177
-351.744
-414.267
-334.563
-272.715
-310.901
-416.041
-333.539
-310.556
-343.066
-338.251
-241.314
-238.759
-75.4856
-77.4066
-107.541
-74.6289
-91.5767
-194.105
-212.389
-281.046
-380.567
-337.788
-271.135
-379.728
-249.054
-316.868
-229.303
-251.842
-258.354
-55.7922
-117.267
-73.2356
-205.545
-164.264
-157.874
-236.321
-172.212
-205.955
-458.4
-317.722
-377.284
-351.167
-457.249
-375.815
-351.911
-450.949
-333.625
-388.737
-370.095
-455.701
-385.311
-371.703
-269.478
-264.195
-253.388
-255.482
-385.726
-373.654
-358.175
-359.192
-380.081
-394.729
-399.516
-393.417
-273.09
-278.655
-309.67
-302.71
-8.84619
-20.5681
-9.16614
-11.0303
-19.0554
-10.7829
-21.2308
-33.6678
-33.4314
-25.7305
-25.7502
-26.0262
-22.3791
-32.6008
-30.9414
-10.8565
-54.8604
-66.639
-22.2673
-14.6117
-17.8768
-30.6252
-23.3633
-257.868
-263.107
-230.096
-234.171
-261.908
-236.365
-259.153
-258.878
-239.904
-237.083
-257.365
-240.216
-257.794
-258.201
-243.523
-243.126
-258.747
-241.186
-160.181
-270.168
-238.78
-28.8034
-16.1696
-26.3649
-19.4912
-64.1577
-21.566
-77.6649
-86.8847
-141.56
-65.3985
-59.4649
-104.46
-128.592
-46.9547
-89.6107
-163.215
-61.1139
-292.368
-272.884
-224.894
-229.823
-273.703
-227.236
-287.048
-308.946
-243.936
-313.489
-236.81
-320.929
-235.532
-301.521
-249.578
-257.175
-266.569
-266.807
-380.051
-511.697
-400.064
-322.884
-325.375
-448.335
-397.151
-284.191
-347.708
-306.824
-356.276
-275.967
-313.241
-348.046
-381.469
-431.775
-418.645
-364.059
-372.65
-436.876
-362.017
-275.369
-356.617
-251.786
-327.843
-259.915
-310.659
-320.853
-949.939
-837.722
-959.741
-876.639
-810.914
-1208.3
-834.559
-406.98
-497.386
-458.676
-557.065
-399.611
-494.067
-465.038
-270.73
-225.229
-257.357
-214.717
-261.061
-226.875
-278.657
-358.155
-433.492
-311.498
-390.909
-334.878
-349.755
-429.009
-305.742
-358.622
-237.346
-291.831
-251.679
-312.28
-349.42
-199.894
-196.324
-170.245
-170.572
-198.158
-171.908
-197.69
-201.133
-175.84
-202.318
-172.365
-203.933
-173.184
-199.688
-234.472
-258.308
-198.204
-157.402
-181.148
-253.656
-215.761
-216.205
-323.216
-279.078
-282.964
-248.245
-242.748
-282.613
-289.615
-319.158
-370.123
-317.848
-335.029
-317.738
-271.472
-172.365
-145.272
-175.762
-225.851
-135.741
-196.447
-230.978
-307.055
-350.275
-290.499
-344.382
-295.854
-355.891
-305.026
-262.316
-225.228
-251.663
-224.156
-251.326
-242.771
-254.267
-314.293
-343.221
-294.175
-359.305
-310.468
-289.714
-361.415
-261.851
-259.268
-238.433
-243.213
-246.578
-263.893
-261.444
-170.319
-188.343
-185.998
-171.039
-182.757
-175.658
-158.297
-170.801
-214.935
-203.589
-230.101
-195.432
-171.073
-211.977
-148.899
-95.494
-163.456
-132.535
-151.606
-125.787
-121.278
-186.26
-170.576
-141.718
-165.171
-172.38
-184.199
-158.254
-202.417
-196.18
-211.17
-169.31
-216.987
-187.128
-183.554
-211.578
-205.704
-232.889
-224.269
-224.592
-205.534
-210.989
-175.379
-132.946
-153.58
-144.503
-166.823
-155.725
-147.563
-197.062
-198.105
-199.917
-197.861
-197.59
-195.287
-193.866
-195.736
-195.756
-194.881
-169.243
-166.543
-197.384
-167.573
-193.713
-194.996
-165.098
-191.311
-165.214
-193.535
-166.612
-192.384
-633.65
-388.284
-756.164
-763.108
-898.791
-454.243
-447.998
-504.18
-352.363
-602.003
-635.511
-760.568
-398.433
-354.564
-154.823
-135.116
-129.142
-212.839
-198.642
-215.202
-135.057
-123.486
-65.1479
-70.504
-69.4733
-127.261
-212.527
-198.465
-120.124
-214.297
-128.408
-120.45
-248.801
-240.11
-215.505
-222.447
-224.913
-241.653
-247.134
-253.501
-236.768
-255.297
-229.168
-256.522
-231.515
-252.214
-73.032
-76.2837
-77.0349
-121.247
-106.918
-190.452
-184.682
-199.092
-119.955
-115.382
-130.808
-209.122
-121.859
-190.654
-130.91
-204.183
-120.158
-413.921
-279.267
-316.734
-338.22
-415.763
-316.343
-337.684
-417.057
-286.384
-321.152
-340.987
-415.718
-319.931
-340.641
-570.986
-247.777
-248.841
-301.56
-118.553
-96.6395
-87.2547
-91.0508
-111.5
-115.022
-105.618
-128.487
-248.397
-121.451
-168.725
-179.343
-170.811
-140.466
-108.948
-184.618
-90.2516
-121.808
-141.303
-112.403
-97.5408
-120.632
-83.8085
-119.37
-106.646
-103.852
-92.7491
-119.911
-89.3838
-118.017
-120.894
-94.8308
-74.3772
-78.6637
-77.8742
-96.5417
-79.2839
-83.7248
-119.766
-116.198
-94.0439
-101.164
-124.49
-108.621
-117.439
-81.2746
-85.4427
-78.3246
-112.689
-67.611
-97.0679
-90.196
-71.1151
-69.0211
-46.6665
-67.0339
-72.9474
-80.938
-58.2277
-78.4708
-72.9908
-133.073
-97.0957
-99.6495
-84.5174
-85.9013
-354.478
-357.702
-324.242
-279.336
-279.878
-401.231
-347.093
-343.114
-254.1
-324.566
-266.471
-331.851
-269.781
-333.971
-147.756
-135.994
-212.129
-196.777
-210.426
-149.928
-139.736
-137.571
-121.94
-117.412
-148.422
-221.768
-198.881
-138.528
-215.183
-148.376
-140.328
-163.974
-200.483
-299.615
-233.071
-251.981
-233.648
-164.427
-178.318
-124.593
-132.741
-160.252
-225.739
-218.685
-139.159
-245.406
-142.094
-146.574
-455.252
-299.85
-338.328
-363.841
-449.996
-338.014
-367.847
-437.261
-290.818
-331.232
-360.118
-445.654
-330.816
-354.093
-238.15
-253.781
-266.51
-259.46
-190.038
-187.84
-186.681
-187.828
-186.946
-185.368
-159.808
-157.658
-158.725
-188.008
-184.524
-186.34
-156.911
-182.948
-156.712
-185.49
-157.86
-183.656
-61.6184
-55.7476
-134.538
-120.3
-133.352
-62.9445
-55.0244
-19.4056
-13.2431
-60.7245
-119.36
-132.439
-54.4291
-1209.97
-409.354
-505.403
-316.79
-539.111
-284.111
-363.195
-496.849
-342.929
-443.311
-753.539
-740.213
-663.519
-462.439
-1300.93
-609.678
-226.939
-1463.83
-337.853
-892.313
-235.731
-297.427
-808.976
-247.902
-445.197
-187.299
-273.377
-176.312
-388.457
-168.809
-588.178
-637.609
-569.638
-524.209
-549.523
-604.996
-603.371
-610.833
-571.321
-618.434
-542.46
-591.142
-618.786
-562.853
-649.508
-684.527
-662.127
-697.793
-624.412
-674.265
-666.157
-560.561
-492.73
-491.595
-517.614
-524.826
-557.849
-518.227
-495.871
-1351.14
-661.9
-523.379
-1123.01
-374.993
-610.245
-455.997
-471.908
-995.851
-1188.06
-279.426
-1233.23
-735.946
-330.143
-810.082
-565.805
-400.767
-283.201
-1038.49
-295.841
-658.962
-674.838
-841.96
-714.813
-1036.88
-693.155
-770.686
-637.897
-1856.14
-536.064
-730.103
-371.213
-366.105
-305.385
-363.082
-559.354
-124.442
-705.605
-267.89
-318.219
-368.455
-462.053
-389.348
-435.968
-557.78
-390.562
-478.283
-613.562
-1713.26
-347.657
-1633.95
-613.396
-1023.15
-574.749
-503.151
-548.938
-1607.52
-2599.48
-1002.21
-886.26
-2509.87
-584.959
-333.245
-880.913
-1027.93
-580.944
-812.802
-1365.36
-359.255
-802.741
-3874.61
-1294.28
-3709.46
-1048.01
-3934.37
-1191.3
-780.209
-866.015
-851.391
-878.978
-830.611
-790.497
-845.843
-634.704
-472.853
-637.786
-435.657
-605.162
-590.63
-463.138
-753.729
-808.221
-748.48
-796.225
-767.123
-826.345
-722.308
-1700.07
-568.392
-209.355
-1898.63
-1079.35
-4072.48
-5214.91
-2880.58
-844.635
-1672.44
-880.525
-972.276
-1345.73
-738.041
-858.161
-679.211
-512.015
-1444.85
-1321.16
-338.387
-1549.2
-810.314
-522.574
-1347
-1020.21
-388.643
-368.344
-1516.77
-405.757
-861.824
-871.913
-795.697
-812.489
-909.714
-855.128
-827.06
-485.243
-364.992
-404.521
-384.859
-470.502
-410.916
-388.151
-463.507
-345.366
-403.613
-383.654
-473.51
-398.874
-382.114
-460.474
-461.582
-468.934
-447.584
-414.175
-399.374
-438.992
-411.606
-464.687
-424.759
-436.096
-426.981
-560.575
-640.823
-640.59
-555.091
-534.539
-618.356
-543.033
-622.81
-421.125
-659.051
-574.197
-589.894
-554.602
-572.785
-483.369
-599.643
-422.627
-401.525
-423.783
-469.899
-419.189
-426.341
-419.215
-418.767
-431.091
-466.629
-425.912
-417.517
-631.194
-675.464
-571.926
-642.217
-578.588
-626.625
-683.28
-608.041
-576.492
-621.119
-550.049
-626.091
-602.745
-555.161
-664.757
-692.513
-667.971
-716.085
-680.703
-652.529
-709.976
-566.951
-504.986
-466.872
-506.445
-513.52
-567.483
-516.81
-582.938
-671.022
-513.227
-618.902
-520.183
-572.316
-673.345
-510.39
-477.758
-580.993
-406.393
-581.184
-505.745
-395.245
-637.072
-714.017
-696.287
-767.968
-702.817
-631.937
-724.211
-451.602
-400.777
-320.818
-351.907
-396.398
-448.625
-354.375
-756.457
-706.761
-717.333
-691.468
-727.478
-726.646
-735.043
-771.439
-749.454
-897.836
-935.06
-818.274
-840.642
-809.802
-762.7
-721.891
-791.374
-744.379
-766.433
-757.891
-734.69
-782.376
-745.468
-796.703
-797.721
-806.145
-752.566
-760.82
-325.537
-339.147
-403.815
-388.752
-420.224
-457.631
-428.458
-363.8
-421.676
-396.412
-371.746
-343.431
-421.198
-345.691
-384.329
-394.448
-365.305
-401.592
-404.573
-369.494
-306.969
-327.181
-309.174
-333.605
-357.029
-390.069
-396.663
-356.694
-305.967
-347.039
-312.412
-330.015
-328.859
-318.582
-384.576
-347.967
-388.797
-377.69
-340.92
-379.762
-379.456
-380.729
-387.121
-352.88
-390.891
-348.599
-386.718
-386.177
-371.694
-374.853
-414.457
-346.524
-304.826
-376.62
-320.206
-361.414
-381.073
-396.481
-383.607
-419.796
-322.065
-347.18
-308.104
-360.554
-6.54736
-16.1228
-8.84862
-71.4555
-35.875
-35.2272
-25.9497
-13.3564
-12.3002
-75.0724
-35.6709
-38.3851
-18.5972
-26.7869
-13.2639
-13.4861
-28.4805
-12.0323
-222.774
-231.202
-205.948
-194.077
-232.766
-194.711
-221.723
-214.053
-179.35
-206.659
-185.216
-207.502
-186.096
-213.017
-69.7046
-61.0549
-144.309
-131.769
-145.68
-69.0825
-61.2566
-26.5519
-8.76322
-7.76485
-69.5068
-149.699
-133.326
-63.5927
-146.935
-73.0277
-62.1262
-89.8234
-95.1637
-181.913
-155.184
-102.53
-169.195
-81.6888
-40.8586
-12.1068
-21.1599
-80.8237
-153.007
-145.949
-66.6752
-160.5
-73.9983
-72.4116
-57.1407
-57.0719
-53.0376
-33.5165
-18.8711
-19.8258
-55.3391
-48.5497
-50.5531
-25.2781
-41.1278
-30.9551
-50.7414
-17.9298
-19.0308
-44.454
-44.494
-36.9422
-248.201
-244.518
-316.572
-290.819
-313.443
-318.878
-288.748
-319.896
-315.544
-317.365
-322.137
-293.34
-314.536
-289.552
-320.309
-319.352
-306.103
-339.819
-342.352
-302.924
-260.008
-251.192
-260.18
-249.628
-305.78
-343.567
-342.685
-305.791
-259.736
-245.713
-257.014
-248.577
-250.367
-253.252
-325.378
-298.686
-324.997
-329.003
-296.547
-326.808
-328.215
-324.737
-325.19
-297.378
-324.647
-295.322
-323.807
-326.479
-298.983
-336.855
-336.326
-300.907
-252.801
-239.25
-249.808
-241.792
-300.357
-335.135
-337.167
-296.346
-254.313
-244.329
-255.281
-243.243
-350.344
-344.116
-389.729
-458.976
-405.145
-388.316
-407.32
-407.618
-389.017
-460.867
-390.41
-404.443
-604.256
-708.483
-608.498
-703.313
-602.925
-702.817
-602.07
-702.712
-348.766
-353.175
-396.219
-462.924
-412.697
-395.62
-407.655
-404.442
-393.293
-458.06
-391.437
-408.548
-598.868
-699.616
-599.397
-698.232
-599.991
-698.035
-599.425
-700.46
-387.147
-406.44
-460.566
-386.983
-404.716
-597.613
-698
-598.264
-697.332
-309.66
-286.395
-315.741
-304.365
-312.902
-283.487
-313.139
-248.433
-238.097
-247.957
-238.41
-293.224
-331.746
-293.9
-330.895
-247.404
-237.397
-1359.14
-3831.22
-1227.43
-652.081
-1939.61
-4282.55
-2939.17
-685.471
-685.026
-661.226
-671.393
-671.146
-636.346
-615.02
-625.206
-621.968
-1329.64
-303.622
-716.112
-1054.8
-763.955
-770.899
-783.796
-775.281
-793.863
-797.533
-788.092
-791.94
-703.039
-706.445
-735.834
-723.726
-791.713
-778.554
-749.412
-767.18
-87.1631
-84.0542
-138.367
-106.601
-128.079
-98.6841
-61.419
-69.3257
-49.859
-73.631
-66.5584
-88.3005
-64.3418
-42.2069
-78.1332
-97.8865
-120.59
-54.8439
-94.151
-63.4607
-86.2267
-334.574
-290.912
-266.698
-246.16
-308.861
-335.516
-274.669
-448.266
-518.706
-492.483
-463.041
-506.36
-428.712
-474.553
-403.637
-354.044
-436.503
-461.856
-376.707
-461.587
-398.682
-382.979
-301.03
-410.831
-356.63
-369.565
-318.7
-412.024
-156.668
-110.134
-210.968
-182.015
-145.095
-128.731
-205.599
-128.786
-134.603
-83.9581
-145.829
-105.111
-118.948
-150.962
-97.0218
-66.2324
-51.2367
-62.1396
-77.4601
-94.9151
-81.0928
-189.592
-241.837
-204.105
-279.906
-171.005
-249.271
-223.266
-122.505
-99.4028
-84.3375
-94.6893
-92.645
-69.9817
-73.3265
-83.4271
-114.566
-93.9781
-114.342
-87.0802
-86.8369
-107.182
-88.3991
-118.249
-77.168
-96.1163
-83.1311
-80.986
-88.3984
-105.939
-84.7307
-385.365
-374.656
-173.285
-168.77
-202.773
-134.987
-178.443
-229.082
-165.31
-276.766
-260.424
-327.039
-230.006
-286.191
-236.21
-279.268
-144.677
-157.016
-191.585
-147.643
-134.564
-198.663
-104.07
-125.07
-92.503
-113.79
-116.733
-92.6622
-123.698
-110.359
-182.483
-126.806
-178.236
-120.18
-174.348
-141.744
-129.272
-105.671
-114.688
-125.66
-154.514
-115.924
-437.283
-411.01
-417.151
-394.517
-409.654
-441.764
-408.911
-496.986
-525.912
-512.131
-478.143
-515.183
-490.932
-474.758
-466.893
-401.439
-429.833
-471.749
-427.509
-475.931
-450.74
-450.922
-380.059
-433.937
-376.244
-434.408
-444.211
-404.386
-246.008
-217.113
-261.803
-310.722
-270.728
-218.365
-232.834
-244.131
-352.687
-331.884
-248.564
-305.492
-236.027
-265.675
-246.681
-196.884
-314.462
-234.475
-294.723
-230.54
-214.892
-228.746
-239.023
-220.073
-189.907
-235.949
-207.64
-227.308
-178.962
-147.458
-162.689
-144.482
-173.245
-155.333
-172.137
-236.333
-312.292
-222.729
-298.59
-238.623
-210.333
-330.095
-173.953
-166.677
-158.41
-193.981
-165.397
-142.253
-194.327
-428.513
-294.32
-299.35
-301.644
-339.204
-331.052
-379.696
-508.852
-370.551
-294.31
-287.515
-374.141
-420.334
-357.88
-384.869
-357.894
-364.233
-537.446
-384.384
-850.099
-418.108
-447.166
-295.792
-332.67
-291.618
-318.632
-366.86
-341.13
-284.738
-249.501
-216.766
-278.704
-229.449
-341.545
-245.488
-382.394
-234.944
-260.72
-263.539
-216.499
-375.059
-282.854
-262.822
-212.035
-217.176
-240.307
-234.258
-211.782
-244.158
-228.261
-198.314
-194.004
-198.484
-204.149
-224.882
-174.864
-315.878
-276.38
-271.967
-260.521
-343.818
-251.686
-265.58
-18.7371
-67.7299
-31.5859
-144.894
-121.431
-97.4972
-106.058
-72.8241
-51.8578
-199.038
-137.194
-150.948
-130.062
-202.121
-119.776
-96.0899
-207.322
-111.753
-197.099
-229.668
-239.787
-263.907
-213.454
-258.566
-164.413
-65.5892
-71.314
-76.7829
-93.1185
-71.2587
-64.3141
-69.093
-94.1363
-146.307
-113.156
-131.397
-100.245
-105.491
-121.264
-70.6997
-76.8826
-103.515
-87.2884
-85.2413
-61.1222
-76.7308
-84.8504
-108.227
-124.49
-105.366
-93.5368
-86.8958
-108.846
-105.996
-122.179
-100.818
-99.538
-128.057
-123.583
-83.8319
-151.667
-201.921
-194.402
-182.957
-188.297
-164.753
-180.132
-148.144
-143.993
-183.561
-129.58
-137.033
-171.031
-174.699
-154.1
-148.304
-143.098
-111.237
-117.451
-162.399
-125.409
-141.452
-98.6848
-154.799
-216.204
-155.41
-196.378
-162.679
-170.685
-209.314
-202.484
-253.392
-373.262
-264.97
-314.723
-283.529
-316.547
-235.027
-104.151
-115.297
-146.818
-145.383
-129.306
-115.679
-124.777
-120.237
-164.75
-125.07
-179.833
-136.261
-109.747
-172.314
-83.9538
-103.934
-107.979
-83.09
-112.537
-75.5764
-90.4259
-143.284
-172.716
-200.814
-196.608
-155.913
-173.035
-181.393
-201.494
-193.001
-173.47
-159.037
-212.363
-202.635
-152.427
-266.662
-251.645
-310.123
-263.136
-328.532
-266.008
-255.158
-453.718
-318.893
-379.761
-359.292
-454.007
-379.047
-357.073
-451.812
-335.654
-381.669
-365.994
-451.407
-383.102
-365.713
-260.655
-263.348
-331.038
-312.482
-321.992
-343.92
-308.095
-337.942
-338.787
-329.661
-336.963
-309.907
-319.96
-305.476
-326.165
-337.573
-310.155
-352.277
-349.93
-311.711
-264.206
-251.991
-260.439
-257.475
-310.45
-346.634
-307.745
-349.113
-264.094
-263.716
-266.197
-257.898
-258.442
-254.393
-328.623
-302.829
-324.473
-331.306
-298.215
-328.082
-331.202
-325.831
-333.193
-300.842
-321.68
-301.488
-330.183
-331.518
-320.189
-357.444
-360.091
-315.245
-274.769
-279.469
-276.134
-270.85
-319.133
-363.795
-359.888
-323.918
-271.771
-262.748
-267.397
-272.205
-372.36
-374.75
-424.23
-504.421
-445.738
-426.934
-443.049
-439.254
-417.907
-500.848
-422.974
-443.097
-616.866
-709.02
-610.415
-717.372
-617.429
-726.922
-715.933
-625.424
-365.467
-363.271
-401.493
-476.954
-416.19
-404.761
-421.665
-432.032
-416.599
-481.537
-408.399
-427.73
-629.731
-725.225
-734.475
-628.876
-629.12
-724.418
-726.306
-623.547
-396.871
-387.051
-429.522
-490.465
-439.066
-422.678
-439.724
-429.535
-425.556
-489.168
-426.466
-430.653
-576.415
-660.9
-573.056
-665.343
-587.648
-692.862
-678.148
-597.404
-390.359
-394.732
-423.978
-421.015
-468.646
-423.985
-422.374
-426.171
-421.916
-472.083
-424.67
-423.327
-618.747
-729.102
-716.214
-627.781
-615.774
-693.789
-712.743
-602.114
-291.5
-280.901
-351.56
-321.909
-351.708
-351.308
-321.246
-345.395
-355.422
-354.904
-361.568
-329.938
-357.558
-324.41
-362.905
-355.842
-354.65
-381.312
-385.711
-345.576
-307.873
-332.718
-309.36
-323.099
-353.397
-388.159
-356.059
-386.697
-306.653
-306.799
-298.828
-321.966
-296.114
-306.211
-372.835
-343.591
-376.021
-384.36
-379.331
-341.924
-372.607
-373.238
-367.962
-339.475
-383.243
-336.742
-368.298
-371.008
-336.234
-376.538
-374.074
-343.415
-285.599
-277.361
-281.514
-289.937
-337.46
-370.88
-329.441
-375.118
-291.374
-304.969
-295.576
-290.934
-228.627
-214.427
-201.882
-207.849
-189.933
-191.613
-194.068
-191.539
-190.054
-186.428
-160.686
-160.573
-188.785
-161.793
-187.457
-191.118
-164.189
-189.998
-161.743
-192.673
-162.843
-188.803
-66.9477
-60.4039
-143.29
-128.198
-141.607
-68.5998
-59.5258
-20.0122
-9.52716
-9.37364
-66.0034
-139.344
-126.97
-58.3729
-140.563
-65.8884
-58.7752
-63.3817
-56.2196
-135.297
-122.916
-63.2873
-136.167
-56.4995
-19.1738
-9.89028
-10.4933
-63.9574
-138.498
-123.923
-57.8195
-137.175
-65.3951
-57.083
-20.9168
-34.5431
-68.488
-72.0877
-67.4433
-73.309
-68.6841
-59.3688
-63.545
-59.0629
-24.6232
-29.2875
-27.6675
-65.3308
-63.6122
-60.9723
-22.9489
-30.3845
-30.1496
-67.3238
-68.7023
-64.561
-64.8194
-68.3183
-63.8642
-760.385
-755.434
-753.914
-754.661
-755.523
-754.702
-752.963
-754.411
-754.868
-754.101
-753.175
-279.711
-280.293
-266.322
-295.424
-290.948
-285.786
-273.298
-331.403
-283.331
-293.031
-311.643
-309.859
-329.309
-308.703
-218.71
-203.392
-225.391
-208.744
-226.019
-217.037
-210.093
-214.769
-200.217
-223.872
-207.237
-216.411
-223.141
-206.058
-670.358
-691.168
-759.896
-845.401
-816.08
-748.755
-735.039
-269.391
-257.869
-266.172
-252.629
-273.747
-262.739
-259.48
-726.872
-949.657
-708.739
-867.061
-735.442
-942.539
-702.416
-726.954
-714.907
-869.64
-944.504
-940.391
-706.95
-727.326
-1114.42
-396.446
-341.818
-458.633
-383.181
-388.048
-452.416
-371.013
-766.529
-964.28
-728.968
-926.914
-747.671
-977.993
-756.315
-778.173
-784.601
-976.642
-948.019
-985.264
-784.995
-780.794
-205.6
-191.175
-214.863
-197.379
-214.164
-206.827
-196.522
-1099.63
-1091.54
-1092.53
-1089.05
-766.746
-883.63
-881.217
-702.835
-714.197
-886.815
-757.915
-769.635
-702.747
-854.95
-879.409
-747.912
-713.963
-882.385
-243.158
-225.601
-257.444
-243.759
-253.874
-247.682
-234.226
-719.412
-946.879
-730.474
-249.812
-244.726
-297.502
-202.667
-255.185
-268.292
-228.421
-465.982
-431.386
-576.686
-407.87
-451.67
-790.477
-410.55
-273.246
-284.334
-321.074
-276.447
-296.498
-296.242
-334.018
-753.831
-884.327
-689.933
-855.164
-751.84
-899.358
-695.519
-765.071
-764.063
-955.89
-887.596
-777.851
-924.935
-726.778
-208.96
-194.149
-216.125
-198.481
-207.475
-216.785
-199.505
-1094.6
-276.8
-266.641
-280.344
-268.733
-281.357
-274.84
-270.523
-39.1494
-24.1541
-45.8251
-19.8085
-32.4272
-36.8415
-26.7793
-347.528
-293.914
-353.304
-334.843
-342.78
-363.169
-323.187
-219.975
-204.758
-229.969
-214.891
-227.957
-222.914
-212.226
-214.162
-199.07
-221.112
-203.726
-221.608
-212.733
-204.693
-272.527
-263.137
-279.103
-266.587
-274.179
-277.896
-264.112
-394.221
-319.79
-362.407
-344.841
-371.009
-369.745
-354.678
-205.208
-190.408
-212.848
-195.126
-204.388
-213.146
-195.683
-888.389
-586.008
-601.086
-405.715
-630.586
-609.165
-365.756
-1047.75
-1100.4
-723.644
-1008.23
-835.944
-668.859
-1230.03
-540.561
-645.712
-535.852
-524.781
-658.281
-525.977
-536.631
-529.668
-511.718
-654.157
-534.812
-657.733
-523.001
-520.975
-481.465
-590.131
-479.991
-513.708
-481.396
-616.796
-476.058
-512.701
-490.335
-519.769
-645.411
-635.46
-495.186
-495.729
-233.854
-216.988
-233.802
-219.267
-226.723
-239.47
-225.534
-570.361
-679.009
-539.958
-557.978
-669.224
-552.509
-575.17
-568.25
-549.601
-537.278
-669.768
-668.176
-551.181
-568.874
-573.695
-686.384
-544.136
-561.165
-681.399
-560.366
-575.567
-572.425
-554.534
-543.632
-672.615
-678.48
-555.76
-569.189
-575.869
-687.696
-563.072
-547.98
-575.803
-688.225
-563.001
-575.258
-547.371
-688.26
-262.238
-303.492
-250.056
-374.4
-270.389
-242.072
-364.224
-247.655
-245.262
-259.736
-285.205
-287.729
-245.064
-237.989
-295.842
-401.308
-233.803
-387.831
-348.247
-264.173
-398.956
-590.009
-684.094
-561.668
-565.224
-701.445
-580.639
-574.621
-597.143
-597.091
-568.202
-731.242
-708.841
-586.493
-609.612
-625.481
-748.609
-600.105
-615.647
-753.823
-618.041
-622.348
-624.376
-610.612
-597.962
-739.959
-753.376
-617.5
-616.571
-542.456
-641.652
-522.43
-526.589
-542.637
-635.232
-524.005
-549.497
-536.328
-529.374
-654.718
-637.583
-527.532
-559.605
-603.869
-741.138
-577.095
-605.522
-717.54
-616.21
-593.8
-591.132
-556.142
-568.128
-669.866
-702.602
-573.981
-572.627
-210.091
-195.574
-219.542
-202.349
-211.936
-218.469
-201.032
)
;

boundaryField
{
    left
    {
        type            calculated;
        value           nonuniform List<scalar> 
703
(
-298.647
-263.564
-15.3099
-276.833
-277.846
-270.494
-24.3557
-579.823
-284.13
-243.36
-198.21
-223.265
-224.147
-212.559
-394.376
-231.064
-215.299
-270.471
-197.305
-612.649
-350.099
-290.037
-244.383
-103.582
-99.6892
-362.563
-653.307
-215.901
-273.613
-116.604
-241.462
-365.578
-73.1126
-174.755
-96.5464
-30.7437
-188.049
-511.257
-653.563
-470.991
-557.743
-759.502
-484.862
-176.327
-545.392
-554.173
-43.7565
-84.5421
-235.248
-63.4218
-33.7797
-78.1282
-78.1046
-387.831
-569.2
-217.672
-248.742
-199.976
-93.4803
-313.643
-197.142
-432.879
-256.866
-350.975
-412.285
-491.194
-246.299
-84.8267
-323.668
-247.654
-494.393
-85.8193
-197.475
-30.6912
-32.4559
-30.7268
-188.84
-31.9543
-40.637
-262.839
-232.867
-224.536
-17.4905
-108.122
-281.876
-282.562
-221.523
-239.217
-302.503
-19.3762
-84.4036
-18.4936
-553.147
-792.782
-866.346
-404.421
-492.054
-340.124
-224.964
-405.389
-391.72
-170.731
-176.067
-203.27
-827.143
-221.631
-225.083
-230.97
-170.202
-175.743
-204.209
-232.094
-251.05
-353.489
-291.334
-165.076
-272.109
-327.87
-352.052
-193.789
-166.111
-169.709
-322.44
-370.73
-399.876
-211.73
-230.403
-262.016
-86.1179
-214.701
-198.837
-214.897
-218.874
-86.9326
-157.262
-284.361
-214.2
-285.796