/*--------------------------------*- C++ -*----------------------------------*\
| =========                 |                                                 |
| \\      /  F ield         | OpenFOAM: The Open Source CFD Toolbox           |
|  \\    /   O peration     | Version:  2012                                  |
|   \\  /    A nd           | Website:  www.openfoam.com                      |
|    \\/     M anipulation  |                                                 |
\*---------------------------------------------------------------------------*/
FoamFile
{
    version     2.0;
    format      ascii;
    class       volVectorField;
    location    "0.105/solid";
    object      sigmaMaxDir;
}
// * * * * * * * * * * * * * * * * * * * * * * * * * * * * * * * * * * * * * //

dimensions      [1 -1 -2 0 0 0 0];


internalField   nonuniform List<vector> 
3124
(
(-0.590998 -0.485066 0.64454)
(-0.388598 -0.197085 0.900083)
(0.467843 0.882656 -0.0451714)
(0.997233 -0.0711195 0.0216574)
(0.12225 0.992421 -0.0124919)
(-0.129892 -0.000967658 0.991528)
(0.649162 0.756418 -0.0801232)
(0.99679 -0.0730343 0.0328001)
(0.0418667 0.999102 -0.00645214)
(0.989992 0.128041 -0.0593369)
(0.127388 0.978286 -0.163492)
(0.666608 -0.106527 0.737757)
(-0.548675 0.832299 0.0789569)
(-0.036517 0.999281 0.010241)
(0.915209 0.3945 -0.0822359)
(-0.607975 0.789202 0.0867578)
(0.681479 0.727264 -0.0816947)
(-0.466184 0.882499 0.0621835)
(-0.517442 0.850625 0.0932237)
(0.9441 -0.0992444 0.314364)
(-0.0248881 0.999681 0.00426967)
(-0.0215567 0.999758 0.00440541)
(-0.0270022 0.999561 0.0121561)
(-0.0322766 0.0848909 0.995867)
(0.730528 0.39384 -0.557871)
(0.310778 0.839076 -0.446506)
(-0.223943 -0.253114 0.94116)
(-0.151876 -0.288208 0.945447)
(0.48531 0.636567 -0.59938)
(-0.147059 -0.232346 0.961451)
(0.964077 0.0443651 -0.261892)
(-0.263128 0.963276 0.0535089)
(-0.387986 0.910152 0.145224)
(0.0119695 -0.00150965 0.999927)
(-0.00602153 0.00679903 0.999959)
(0.441925 0.0746322 0.893942)
(0.997448 -0.0682466 0.0209853)
(0.00632736 -0.00794363 0.999948)
(0.150566 0.0153184 0.988481)
(0.0166764 0.00403553 0.999853)
(0.314602 0.823292 -0.472457)
(-0.109065 0.981979 -0.154344)
(0.197665 0.151598 0.968476)
(0.0795341 -0.633247 0.769852)
(0.383778 -0.602975 0.699382)
(0.800876 -0.589794 -0.103638)
(0.874268 0.448844 -0.184915)
(-0.118615 0.992326 0.0349274)
(0.0270132 -0.00322446 0.99963)
(0.99381 -0.0776068 0.0794903)
(-0.0132775 0.00464378 0.999901)
(0.452318 0.0799661 0.888264)
(0.00542802 -0.00820683 0.999952)
(0.118849 0.000339021 0.992912)
(0.0594394 -0.0106486 0.998175)
(-0.0452963 0.998753 0.0209976)
(-0.014614 0.999888 0.00327414)
(-0.0235793 0.99968 0.00911528)
(-0.509485 0.0483896 0.859118)
(0.621477 0.629976 -0.465722)
(0.9603 0.278903 0.00611766)
(0.659703 0.556493 -0.505082)
(0.380962 -0.341635 0.859159)
(0.288421 0.83307 -0.472025)
(0.662846 0.748409 0.0227995)
(-0.184568 -0.468114 0.864178)
(0.483266 0.704744 -0.519414)
(0.0224748 0.116267 0.992964)
(0.17877 -0.125946 0.975797)
(0.0332281 0.00978255 0.9994)
(0.178553 -0.0793846 0.980723)
(-0.0901527 -0.145604 0.985227)
(-0.0174162 0.0123955 0.999771)
(0.298313 -0.139984 0.944147)
(-0.0207366 0.0147415 0.999676)
(-0.0423349 -0.0259287 0.998767)
(0.716871 0.697109 0.0116387)
(0.739879 0.669356 0.0673891)
(0.657511 0.68311 -0.317868)
(0.377796 -0.305587 0.874006)
(0.520186 -0.391335 0.75912)
(0.992807 0.110001 -0.0472547)
(0.99953 0.0198553 -0.0233367)
(-0.299851 0.951849 0.0638167)
(-0.693196 0.103444 0.713287)
(-0.415167 0.881471 0.225044)
(0.973002 0.0893528 0.212799)
(0.995485 0.0949159 -0.000136282)
(0.0514845 -0.027946 0.998283)
(-0.0626049 0.0419606 0.997156)
(0.012189 0.00999801 0.999876)
(0.00646165 -0.00601952 0.999961)
(0.00964269 -0.0036285 0.999947)
(0.997766 -0.0649304 0.0157327)
(0.208971 0.0263403 0.977567)
(0.00871722 0.00543577 0.999947)
(0.00601063 -0.00283448 0.999978)
(0.0347991 -0.0125196 0.999316)
(0.454606 0.74724 -0.484733)
(0.765332 -0.642495 -0.0383022)
(0.53411 0.0388999 0.84452)
(0.921447 -0.374868 0.102027)
(-0.614615 0.651103 -0.445324)
(0.0612231 -0.535082 0.842579)
(-0.410934 0.769187 -0.489372)
(-0.614609 0.787054 -0.0529361)
(-0.416486 0.905437 0.08199)
(-0.569751 0.764393 -0.301806)
(-0.57872 0.815455 0.0107982)
(0.936651 0.350227 0.00518639)
(-0.280164 0.95975 0.0197158)
(0.973381 0.222396 -0.0553962)
(0.0197928 0.999581 -0.0211006)
(0.97011 0.239001 0.0420217)
(0.952659 0.275974 -0.127586)
(-0.166004 0.985729 -0.0279443)
(0.0314375 0.00169087 0.999504)
(0.981615 -0.0880116 0.169372)
(0.0498999 0.00934253 0.998711)
(0.132796 -0.0497497 0.989894)
(-0.0108821 0.00870584 0.999903)
(0.0361318 -0.0273551 0.998973)
(0.128954 -0.0325367 0.991117)
(-0.0468146 0.0259859 0.998566)
(0.145182 -0.10004 0.984334)
(0.0156928 0.0177114 0.99972)
(0.0126938 -0.00976573 0.999872)
(-0.00768688 0.00958194 0.999925)
(0.00921075 -0.0268435 0.999597)
(0.410032 -0.311509 0.857226)
(0.076108 -0.0639797 0.995045)
(-0.0510358 0.998441 0.0225859)
(-0.0204308 0.999787 0.00297824)
(-0.0361699 0.999323 0.0067142)
(-0.671075 0.0931221 0.735518)
(-0.531766 0.0395639 0.845966)
(0.909861 0.0171807 0.414557)
(0.968437 0.0468782 0.24481)
(0.91896 0.0423939 0.392065)
(0.998256 0.049504 0.0321728)
(0.58422 0.530527 0.614189)
(0.493729 0.869366 -0.0208245)
(0.997052 -0.0350405 -0.0682614)
(0.040285 0.999182 0.00341212)
(0.998025 -0.0126101 -0.0615433)
(0.136507 0.990465 -0.0185452)
(-0.0859606 0.0248256 0.995989)
(-0.120108 0.308158 0.943723)
(0.410424 0.909884 -0.0605257)
(-0.0552032 -0.239095 0.969426)
(0.915102 0.371533 -0.156687)
(0.99217 -0.106219 -0.0656915)
(0.991361 -0.118914 -0.055341)
(-0.0140008 0.999902 -0.000228675)
(0.786743 -0.606563 -0.114526)
(0.909203 0.271891 -0.315317)
(0.994838 0.101372 -0.00457175)
(-0.0301441 0.897844 -0.43928)
(0.997211 -0.0644396 0.0376628)
(0.958012 0.21731 -0.187053)
(0.961536 0.0241424 -0.273617)
(0.525657 0.840775 -0.129546)
(0.0948889 0.866202 -0.490602)
(-0.0294273 0.99956 -0.00371161)
(0.352321 0.927689 -0.123545)
(0.937381 0.347014 -0.0299733)
(0.102758 0.992491 0.0663441)
(0.238929 0.925728 -0.293156)
(0.718351 0.691278 0.0781417)
(-0.299809 0.953467 0.0318742)
(-0.308667 0.947949 0.0782092)
(0.770722 -0.63641 -0.0311481)
(-0.366313 0.928923 0.0540106)
(0.640423 0.765649 0.0603263)
(0.466892 0.879545 0.0917204)
(-0.0855934 0.995962 0.0270726)
(0.999775 -0.00686764 -0.020072)
(0.999627 0.0103276 -0.0252801)
(0.0195165 0.866752 -0.498358)
(0.100433 0.99491 -0.00823961)
(0.948689 -0.316211 0.000762676)
(0.982332 -0.121323 0.142492)
(0.911654 0.410228 0.02449)
(0.990411 0.0952173 0.100099)
(-0.0331248 0.896513 -0.441778)
(0.992824 -0.0917923 0.076643)
(0.974744 0.0155174 0.222788)
(0.00702354 0.874071 -0.485747)
(-0.544636 0.838112 0.030659)
(-0.386169 0.921846 0.0327541)
(-0.570616 0.818863 0.0621317)
(-0.604184 0.793967 0.0676592)
(-0.533069 0.843844 0.0613585)
(-0.388824 0.921305 0.00362731)
(-0.648022 0.761379 0.0192214)
(0.79803 0.598872 0.0670878)
(-0.255388 0.966402 -0.0290472)
(0.976167 -0.216546 0.0143661)
(-0.160935 0.986231 0.0380566)
(0.714735 0.697587 0.0502562)
(-0.103655 0.993303 0.0510381)
(0.652324 0.757656 -0.0207477)
(-0.247446 0.961693 0.117968)
(-0.334015 0.942549 -0.00596769)
(-0.50427 0.85922 0.0863322)
(-0.444184 0.887942 0.119412)
(-0.338254 0.940331 -0.0369056)
(-0.236855 0.970468 0.0457275)
(-0.471013 0.870154 0.144843)
(-0.0224393 0.999727 0.00650085)
(-0.0239495 0.999707 0.00356471)
(-0.0391636 0.9992 0.00805149)
(0.999823 -0.000162829 -0.0187947)
(0.999855 -0.00695041 -0.0155292)
(-0.250959 -0.365611 0.896297)
(-0.0249318 -0.113035 0.993278)
(-0.396459 -0.311084 0.86374)
(0.0284137 -0.115868 0.992858)
(-0.341886 -0.284985 0.895487)
(-0.276704 -0.433608 0.857566)
(-0.0282329 -0.233904 0.97185)
(-0.517129 -0.486107 0.70447)
(-0.518714 -0.434413 0.736357)
(0.65454 0.61199 -0.443899)
(0.376401 0.760872 -0.528579)
(0.679887 0.37162 -0.632181)
(0.369763 0.68134 -0.631706)
(0.417415 0.768754 -0.484543)
(0.425781 0.611411 0.666999)
(0.978092 0.204795 -0.0373561)
(-0.00280542 0.999992 -0.00294059)
(0.998879 -0.0445317 -0.0160415)
(-0.00867713 0.999891 0.0119292)
(0.997918 0.0395431 -0.0509577)
(0.997914 -0.0243065 -0.0598101)
(-0.25081 0.967127 0.041942)
(0.994461 0.104771 -0.00838785)
(0.995418 -0.0937472 -0.0188342)
(0.0602614 0.00101105 0.998182)
(0.0124355 -0.00477911 0.999911)
(0.0220487 -0.000898693 0.999756)
(0.0133611 0.00542499 0.999896)
(0.0176649 -0.000792921 0.999844)
(0.0175985 -0.00315699 0.99984)
(0.0299934 0.0109534 0.99949)
(0.00568521 0.0125789 0.999905)
(0.0117228 -0.00399134 0.999923)
(-0.00199575 -0.000767248 0.999998)
(-0.00054918 0.00807534 0.999967)
(0.0175055 0.00564258 0.999831)
(0.00381298 0.00541312 0.999978)
(0.0121375 0.00244207 0.999923)
(0.180391 0.98312 -0.0305618)
(-0.128497 -0.0185453 0.991537)
(-0.0686374 0.220492 0.972971)
(0.248578 -0.209947 0.945585)
(0.000339457 0.160573 0.987024)
(0.154246 -0.220998 0.962999)
(0.0549866 -0.134705 0.989359)
(-0.151027 0.0299141 0.988077)
(-0.141081 -0.0527829 0.98859)
(-0.200377 0.0802015 0.976431)
(0.0963038 -0.612887 0.78428)
(-0.374131 0.0880689 0.923185)
(0.0605216 -0.384142 0.921288)
(-0.052445 -0.193502 0.979697)
(0.555175 -0.473368 0.683889)
(0.337501 -0.401342 0.85148)
(0.0887506 -0.554301 0.827571)
(0.24045 -0.139762 0.960547)
(-0.413296 0.0887757 0.906259)
(0.112097 -0.401061 0.909167)
(0.904592 0.395091 -0.160052)
(-0.0603448 0.996775 -0.0528997)
(0.983865 0.171273 -0.0517225)
(0.971587 0.231612 -0.0487278)
(0.763865 0.615552 -0.19392)
(0.996615 -0.0591419 -0.0570953)
(0.166243 0.984365 -0.0582074)
(0.816454 0.529826 -0.229535)
(0.93864 0.341515 -0.0481867)
(0.0403003 0.01756 0.999033)
(0.00916938 -0.00930911 0.999915)
(0.0481155 -0.00113419 0.998841)
(0.0467623 -0.00252762 0.998903)
(0.137168 0.0042902 0.990538)
(0.0102164 0.00170826 0.999946)
(0.0223623 0.0112275 0.999687)
(0.0216489 0.00912198 0.999724)
(0.00590795 -0.0116296 0.999915)
(-0.0158794 0.0037179 0.999867)
(-0.00484428 0.0151492 0.999874)
(-0.0318991 0.017389 0.99934)
(-0.00849237 -0.00468411 0.999953)
(-0.00127469 0.0158038 0.999874)
(-0.0341181 0.999398 0.00622552)
(-0.0146862 0.99989 0.00215609)
(-0.0273991 0.999614 0.0045146)
(0.999924 0.0030576 -0.0119137)
(0.997403 0.0110992 0.0711654)
(0.182782 -0.0142975 0.983049)
(-0.469282 -0.237706 0.850453)
(0.797324 0.0855451 -0.597458)
(0.308482 0.696823 -0.647516)
(-0.518299 0.805645 -0.286883)
(0.677768 0.45332 -0.578905)
(0.117481 -0.422185 0.898865)
(0.411093 0.780793 -0.470495)
(0.78754 -0.0687984 -0.612411)
(0.981395 0.124908 -0.145812)
(0.988094 0.153809 0.00369334)
(0.99573 0.0893168 0.0233157)
(0.895398 0.437799 -0.0812113)
(0.928753 0.370005 -0.0226865)
(0.997775 -0.0546966 0.0381249)
(0.949557 0.286736 -0.126978)
(0.752912 0.411667 -0.513473)
(-0.593841 -0.505363 0.626068)
(0.642838 0.545879 -0.537378)
(0.829118 0.49435 -0.261115)
(0.739887 0.280577 -0.611427)
(0.866847 0.492731 -0.0761089)
(0.857413 0.360503 -0.36726)
(-0.482806 -0.146588 0.863371)
(-0.119088 -0.369497 0.921569)
(0.139542 -0.477263 0.86761)
(-0.0886588 0.109504 0.990025)
(-0.487708 -0.25426 0.83516)
(0.600911 0.710568 -0.366058)
(-0.129689 -0.672022 0.729086)
(0.0147034 -0.345268 0.938389)
(0.201302 0.790616 -0.578277)
(0.363995 0.712022 -0.600444)
(0.0344624 0.911218 -0.410481)
(0.229057 0.785006 -0.575585)
(0.401591 0.911735 -0.0863937)
(0.617603 0.785553 -0.0383847)
(0.460602 0.886444 0.045413)
(0.462973 0.883587 -0.0702186)
(0.570723 0.820591 -0.0301028)
(0.589928 0.803013 0.0845887)
(0.41297 0.899713 -0.141325)
(-0.0137933 -0.0192104 0.99972)
(-0.085708 -0.00256833 0.996317)
(-0.247941 -0.52069 0.81695)
(0.637746 0.730533 -0.244134)
(-0.517938 -0.59668 0.612955)
(0.349904 0.702292 -0.619962)
(0.490791 0.830299 -0.264061)
(-0.589429 -0.261858 0.764201)
(0.521558 0.849484 -0.0797111)
(0.339014 0.845371 -0.412817)
(0.140261 -0.020074 0.989911)
(0.0817285 0.00818097 0.996621)
(-0.0176775 0.0451216 0.998825)
(0.135617 0.00913905 0.990719)
(0.119101 -0.0714731 0.990306)
(0.0647932 0.0235381 0.997621)
(0.0833119 0.0097742 0.996476)
(0.121678 -0.00708012 0.992544)
(-0.0165765 0.0359684 0.999215)
(0.0177909 0.0224134 0.99959)
(0.0255244 -0.000680588 0.999674)
(0.0379206 0.0282809 0.99888)
(0.0588387 0.00561831 0.998252)
(0.0768686 0.00580927 0.997024)
(-0.0157273 0.0364879 0.99921)
(-0.0411549 0.0539908 0.997693)
(-0.0335544 0.000788116 0.999437)
(-0.0207514 0.0317639 0.99928)
(0.00893751 0.0194621 0.999771)
(0.029121 -0.00403635 0.999568)
(-0.0698686 -0.0520554 0.996197)
(-0.00491189 0.0267172 0.999631)
(-0.0330037 0.0278295 0.999068)
(-0.0145322 0.0346454 0.999294)
(0.758996 0.6501 0.0359846)
(0.163807 0.985318 0.0481174)
(0.990013 0.139244 0.0220275)
(0.794978 0.605409 -0.0386044)
(0.891792 0.452442 -0.00157714)
(0.9831 0.176377 0.0490534)
(0.64749 0.761802 0.0203516)
(0.723047 0.688312 0.0585544)
(0.794168 0.601033 0.0897606)
(0.603324 0.789331 0.113831)
(0.540155 0.841492 -0.011153)
(0.642151 0.766577 -0.00159217)
(0.692079 0.721045 0.0334806)
(0.572111 0.818864 0.0463728)
(0.739608 0.672981 0.00875666)
(0.620048 0.586866 -0.520701)
(0.764865 0.628597 -0.14088)
(0.609547 0.7803 -0.13994)
(0.855648 0.51639 -0.0347624)
(0.60334 0.795601 -0.0547653)
(0.667995 0.742614 -0.0480234)
(0.152079 0.00445989 0.988358)
(0.074227 -0.00018129 0.997241)
(0.0185754 -0.0445133 0.998836)
(0.466839 -0.360348 0.807596)
(0.0667929 -0.064341 0.99569)
(0.0318277 -0.0244997 0.999193)
(0.0497201 -0.0158705 0.998637)
(0.17035 -0.0429292 0.984448)
(0.436029 -0.35697 0.826106)
(0.0162143 -0.0597411 0.998082)
(-0.240294 0.165631 0.956465)
(0.99949 0.00019679 -0.0319301)
(0.201231 0.0057289 0.979527)
(0.996398 -0.0792317 -0.0302301)
(0.144882 0.014723 0.989339)
(0.200352 0.0135238 0.979631)
(-0.132718 0.990595 0.0332861)
(0.995524 0.0835873 -0.0440957)
(0.999264 0.0255944 -0.0285834)
(0.998388 -0.001994 0.0567138)
(0.738617 -0.260898 -0.621593)
(0.998096 0.0376234 0.0488792)
(0.98191 0.189215 0.00714344)
(0.748508 -0.365248 -0.55347)
(0.996964 0.0651895 0.0425696)
(0.186906 0.00516332 0.982364)
(0.98878 0.097877 0.11285)
(0.164844 0.00396507 0.986312)
(0.137192 0.0108158 0.990485)
(0.99177 0.102542 0.0766659)
(0.157495 0.00880881 0.987481)
(0.0124474 0.00408741 0.999914)
(0.00135463 -0.00253191 0.999996)
(0.00809418 -0.013098 0.999881)
(-0.0678121 0.0434094 0.996753)
(-0.00766951 0.00988219 0.999922)
(-0.00750781 -0.00877412 0.999933)
(0.0103196 0.00342618 0.999941)
(-0.00475056 0.0105786 0.999933)
(0.0474206 -0.0206627 0.998661)
(0.0130681 -0.0105968 0.999858)
(-0.0144196 -0.00265038 0.999893)
(0.0298077 -0.00834012 0.999521)
(0.0276869 0.0153708 0.999498)
(0.00881706 -0.000123381 0.999961)
(-0.0105812 -0.00657371 0.999922)
(0.0351044 0.00544799 0.999369)
(-0.0125187 -0.00330614 0.999916)
(-0.0101469 -0.00734491 0.999922)
(0.00652987 -0.00676108 0.999956)
(0.0280725 -0.0104843 0.999551)
(0.0143439 -0.000830249 0.999897)
(0.0146335 -0.000568612 0.999893)
(0.0605384 0.00258074 0.998163)
(0.0317356 -0.00573199 0.99948)
(0.0296705 -0.00598526 0.999542)
(0.000437903 -0.00252177 0.999997)
(0.0104115 -0.00949385 0.999901)
(-0.104593 -0.670575 0.734432)
(0.0404359 0.912205 -0.407735)
(-0.200545 0.968307 -0.148876)
(0.789403 -0.60424 0.108335)
(0.968534 -0.154631 0.195015)
(0.900339 0.202314 0.385304)
(0.559054 -0.304344 0.771255)
(0.481543 0.0575914 0.874528)
(0.416946 -0.234707 0.878105)
(0.872412 -0.19022 0.450236)
(0.0394159 0.854355 -0.518192)
(0.973055 -0.195003 0.123035)
(0.990925 -0.0773508 0.109932)
(0.997456 -0.0619094 0.0353389)
(0.805625 -0.565403 0.176885)
(0.993157 -0.0940859 0.0691835)
(0.864109 -0.492934 0.101647)
(0.928667 -0.299861 0.218316)
(0.94702 -0.273776 0.167929)
(0.765198 -0.596146 0.243068)
(0.630702 -0.483437 0.607045)
(0.712087 -0.644457 0.278582)
(0.66439 -0.19503 0.721491)
(0.8213 -0.553973 0.136309)
(0.816929 -0.445957 0.365718)
(-0.0453588 0.0550953 0.99745)
(0.0322485 -0.662535 0.748337)
(-0.364148 0.193311 0.911058)
(-0.214137 0.895646 -0.389826)
(-0.639565 0.767016 -0.0514179)
(0.696605 -0.660404 0.28037)
(0.137571 -0.673997 0.725812)
(-0.456993 0.843866 -0.281155)
(0.480346 -0.538197 0.69254)
(0.713302 -0.696391 0.0789902)
(-0.635756 0.771725 0.0159366)
(-0.507692 0.861417 0.0144905)
(0.994567 -0.101603 0.0226762)
(-0.692595 0.712325 -0.113601)
(-0.608879 0.791454 0.0535361)
(0.812136 -0.577671 0.0820443)
(-0.651619 0.757363 -0.0423697)
(-0.551029 0.83302 -0.0494423)
(-0.456853 0.889035 0.030033)
(-0.27823 0.960044 -0.0300732)
(-0.483306 0.871383 -0.0843006)
(-0.621402 0.783141 0.0234702)
(-0.379922 0.924613 0.0273894)
(-0.545322 0.836851 -0.0479895)
(-0.671023 0.730524 -0.126741)
(0.749357 -0.633052 0.194189)
(-0.637334 0.74569 -0.194298)
(-0.563695 0.805602 -0.182355)
(0.798175 -0.592896 0.10673)
(-0.686974 0.724324 0.0584921)
(-0.606821 0.785038 -0.124432)
(0.99996 0.00559343 0.00698323)
(-0.540185 0.804297 -0.247601)
(-0.0973436 0.992441 -0.074729)
(0.843532 -0.519975 0.134461)
(0.429677 0.902403 -0.0323445)
(0.996912 0.078518 0.000634623)
(0.230627 0.97035 -0.0723384)
(0.955877 -0.277299 0.0969818)
(0.998339 0.0165912 0.0551769)
(0.495484 0.868475 -0.015711)
(0.851467 0.151252 -0.502122)
(0.973795 0.199859 -0.108537)
(0.861305 0.0493688 -0.505684)
(0.980969 0.151116 -0.121918)
(0.891976 -0.189815 -0.410304)
(0.873336 0.00860573 -0.487042)
(0.94362 0.330655 -0.0157424)
(0.993569 0.108747 0.0315377)
(0.869196 0.486005 0.0910955)
(0.996697 0.0661231 0.0471469)
(0.760441 0.649106 -0.0197653)
(0.985983 0.147917 0.0771901)
(0.952326 0.304986 0.00762905)
(0.935356 0.353606 -0.00842625)
(0.96083 -0.0746299 -0.266902)
(-0.0670111 0.983798 0.166287)
(0.998769 0.0207409 -0.0450601)
(0.966478 0.256706 -0.00473354)
(0.98109 -0.172169 0.0884337)
(0.944245 -0.148847 -0.293678)
(0.99567 0.0867547 0.0333894)
(0.999847 -0.014757 0.00943489)
(-0.180033 0.983331 0.0254418)
(-0.344731 0.934538 0.0883086)
(-0.180101 0.981632 -0.0629446)
(-0.458577 0.214715 0.862325)
(-0.267652 0.963506 0.00431518)
(-0.0769251 0.995185 0.0607432)
(-0.116856 0.993004 -0.0169495)
(-0.22308 0.927197 0.3009)
(0.921295 -0.238271 -0.307315)
(-0.200268 0.960133 0.19503)
(0.89339 0.0656345 -0.444463)
(-0.170216 0.947609 0.270304)
(-0.436459 0.237348 0.867854)
(0.0120159 -0.0392909 0.999156)
(-0.616142 -0.468014 0.633507)
(0.149678 -0.01231 0.988658)
(0.0230213 0.000774502 0.999735)
(0.0688007 -0.00921963 0.997588)
(0.0602436 0.000514506 0.998184)
(0.137474 0.00536749 0.990491)
(0.0637785 -0.0125012 0.997886)
(0.0643799 -0.00943413 0.997881)
(0.0959506 -0.00244087 0.995383)
(0.0154908 0.00159398 0.999879)
(0.0199569 0.0099164 0.999752)
(0.0317385 -0.0112764 0.999433)
(0.0883261 -0.00795033 0.99606)
(0.0434792 -0.0038478 0.999047)
(0.0418992 -0.00813413 0.999089)
(0.0246502 -0.015763 0.999572)
(0.0105722 -0.0133357 0.999855)
(-0.00883141 0.00360673 0.999954)
(0.0851971 -0.0550069 0.994845)
(0.0101102 -0.0239903 0.999661)
(0.00139906 -0.00440441 0.999989)
(-0.007268 -0.0202619 0.999768)
(0.0288931 -0.0337462 0.999013)
(-0.000618703 -0.00747453 0.999972)
(0.00397198 -0.00774746 0.999962)
(0.0380676 -0.0115645 0.999208)
(-0.000753893 0.0156785 0.999877)
(-0.00995545 0.0207582 0.999735)
(0.0176014 0.0188196 0.999668)
(0.0365744 0.0264894 0.99898)
(-0.00757223 0.010059 0.999921)
(0.0458368 0.0128293 0.998867)
(0.0423499 -0.0181493 0.998938)
(0.0164509 0.00908362 0.999823)
(-0.000974367 0.0228323 0.999739)
(-0.00668963 -0.0104089 0.999923)
(0.0263238 -0.00776134 0.999623)
(0.00588739 0.0223007 0.999734)
(2.74718e-05 -0.0151634 0.999885)
(0.00489386 -0.0210174 0.999767)
(-0.00104372 0.0162762 0.999867)
(-0.0104144 -0.00130301 0.999945)
(0.00708381 -0.0260258 0.999636)
(0.00500177 -0.0320605 0.999473)
(0.0370696 -0.0328803 0.998772)
(0.0411128 -0.00887005 0.999115)
(0.0337373 -0.0246063 0.999128)
(0.044536 -0.0591578 0.997255)
(0.254905 -0.20009 0.946038)
(0.0259597 -0.0339721 0.999086)
(0.0221205 -0.0332758 0.999201)
(0.0405004 -0.0203437 0.998972)
(0.0221707 -0.0188417 0.999577)
(0.288879 -0.20698 0.934724)
(0.044758 -0.0476774 0.99786)
(-0.0333042 0.999369 0.0123805)
(-0.0196359 0.999799 0.00410817)
(-0.0292242 0.999513 0.0109482)
(0.999903 -0.00577646 -0.0126483)
(0.999887 -0.00257709 -0.0147808)
(0.998255 0.00704725 0.0586278)
(-0.61348 0.0410325 0.788643)
(0.997937 -0.00379858 0.0640957)
(0.997563 -0.00153708 0.0697575)
(-0.593127 0.0669121 0.802323)
(0.997832 0.0066013 0.065477)
(0.209306 -0.000193957 0.97785)
(0.192133 0.00101177 0.981368)
(0.948212 0.0399093 0.315122)
(0.196903 0.0026449 0.980419)
(0.941646 0.0238339 0.33576)
(0.206428 0.00292111 0.978457)
(0.199483 6.7648e-05 0.979901)
(0.638177 0.525606 -0.562555)
(0.935778 0.275595 -0.219927)
(-0.573093 -0.520006 0.633371)
(-0.216023 -0.0315343 0.975879)
(-0.603147 -0.453034 0.656486)
(0.87067 0.464449 -0.161927)
(0.0704036 -0.192632 0.978742)
(0.0263115 -0.162966 0.986281)
(0.0848599 0.151501 0.984808)
(-0.236089 -0.339419 0.910526)
(0.061652 0.0671996 0.995833)
(-0.192319 -0.293542 0.936401)
(-0.0522885 -0.158583 0.98596)
(0.215836 0.27855 0.935855)
(0.998354 0.0540355 -0.0192351)
(0.229286 0.960448 -0.158012)
(0.999404 -0.0343957 0.00286957)
(0.780627 0.620533 -0.0745729)
(0.859288 0.511428 -0.00803152)
(-0.683554 0.722005 -0.107063)
(0.454169 0.879149 -0.144315)
(0.0121942 -0.131955 0.991181)
(0.0469363 0.112131 0.992584)
(-0.0229674 0.0234496 0.999461)
(0.0799591 0.103079 0.991454)
(-0.0157133 -0.0831042 0.996417)
(-0.145713 -0.0860682 0.985576)
(0.0666025 -0.000527721 0.997779)
(-0.565093 -0.459033 0.685535)
(0.593299 0.640299 -0.487866)
(0.292654 0.753532 -0.588679)
(0.330543 0.823501 -0.461072)
(0.743332 0.308555 -0.593508)
(0.419409 0.667915 -0.614805)
(0.428323 0.754071 -0.497911)
(0.972787 0.218781 -0.0762904)
(0.958176 -0.064813 -0.278745)
(0.989651 0.122917 -0.0740381)
(-0.271047 0.95946 0.0772661)
(0.989972 0.102244 -0.0974778)
(0.992495 -0.0848766 -0.0880328)
(0.0455721 0.00330615 0.998956)
(0.0122034 -0.00182757 0.999924)
(0.00961192 -0.00070329 0.999954)
(0.00225118 -0.00287824 0.999993)
(0.0230409 0.000457209 0.999734)
(0.0154221 -0.00406098 0.999873)
(0.00202366 0.00466791 0.999987)
(-0.0184691 0.00567914 0.999813)
(0.00956399 -0.0052437 0.999941)
(0.00640987 -0.00586792 0.999962)
(0.00545354 -0.0039844 0.999977)
(0.00811761 0.00046352 0.999967)
(-0.0048575 -0.00470734 0.999977)
(0.00323641 -0.0011941 0.999994)
(0.624653 0.598006 -0.502193)
(0.805773 0.267971 -0.528129)
(-0.0512736 -0.503866 0.862259)
(-0.0780821 -0.460107 0.884423)
(0.184496 -0.663558 0.725018)
(0.0815493 -0.582641 0.808628)
(0.221903 -0.65396 0.723253)
(0.931417 0.353947 -0.0847571)
(0.793513 0.588418 -0.155244)
(0.882324 0.45602 -0.116405)
(0.0711111 0.997445 0.00683407)
(-0.609167 0.773646 0.17432)
(0.974085 0.0411202 -0.222413)
(0.0267493 0.0140543 0.999543)
(0.0245056 -0.00140048 0.999699)
(0.0295621 -0.00671239 0.99954)
(0.0421042 -0.00522471 0.9991)
(0.0846655 0.00595299 0.996392)
(0.014607 -0.00557501 0.999878)
(0.0229368 0.00406879 0.999729)
(0.000836399 0.000968464 0.999999)
(0.00282829 -0.00942556 0.999952)
(-0.0128029 -0.00636117 0.999898)
(-0.002887 -0.00260491 0.999992)
(-0.0348342 0.00290516 0.999389)
(0.00276065 -0.00514154 0.999983)
(0.00164508 -0.00393012 0.999991)
(0.619932 0.044072 0.783417)
(-0.484274 0.0516057 0.873393)
(0.571203 0.052398 0.819135)
(0.0324709 0.0989312 0.994564)
(0.0170798 -0.0445729 0.99886)
(-0.0820562 0.0756703 0.993751)
(-0.14288 0.0343398 0.989144)
(0.110589 0.0629569 0.99187)
(0.0241779 0.0880464 0.995823)
(0.00332707 0.0786247 0.996899)
(0.0560435 0.0880429 0.994539)
(0.113265 0.0403137 0.992747)
(0.032216 0.097539 0.99471)
(0.0405613 0.0635606 0.997153)
(0.0286809 0.0131933 0.999502)
(-0.0189099 0.0184283 0.999651)
(-0.0163529 0.0208449 0.999649)
(-0.0118665 0.00638888 0.999909)
(-0.0178106 0.0187537 0.999665)
(-0.00129894 0.0114398 0.999934)
(-0.00311555 0.0160846 0.999866)
(-0.0204348 0.113169 0.993366)
(-0.0255523 0.096047 0.995049)
(-0.0273087 0.0235481 0.99935)
(-0.0248047 0.0276975 0.999309)
(0.0588726 0.108289 0.992375)
(0.0309105 0.0514063 0.998199)
(-0.00131249 0.00223642 0.999997)
(-0.00286111 0.00380295 0.999989)
(0.986195 0.164604 0.0180332)
(0.99746 0.0602635 -0.0379809)
(0.997468 0.0560187 0.0438142)
(0.99793 -0.0562774 -0.0311216)
(0.990482 0.0855071 0.107862)
(0.996481 0.034001 0.0766096)
(0.846646 0.0717257 0.5273)
(0.706242 -0.106413 -0.699927)
(0.85148 0.0653467 0.5203)
(0.933209 0.357335 -0.0378504)
(-0.609886 0.721544 0.32774)
(0.963515 0.263678 -0.0459632)
(0.546134 0.0395586 0.836763)
(0.979962 0.0925705 0.176365)
(0.587655 0.0467695 0.807759)
(0.973588 0.115682 0.196834)
(0.999205 0.0382566 0.0111792)
(0.954668 0.0984314 0.280927)
(0.0125887 0.000608298 0.999921)
(0.0128955 -0.00237154 0.999914)
(0.00106459 -0.013214 0.999912)
(0.00704759 -0.00513043 0.999962)
(0.00572867 0.000712686 0.999983)
(0.0124943 -0.00459837 0.999911)
(0.0132689 -0.00719774 0.999886)
(0.00710431 -0.00153966 0.999974)
(-0.0045684 0.00632732 0.99997)
(0.0114166 -0.00551179 0.99992)
(0.0100458 -0.000874753 0.999949)
(0.0189863 -0.00281998 0.999816)
(0.037983 0.000593374 0.999278)
(0.00699105 0.00114989 0.999975)
(-0.00102758 -0.00256962 0.999996)
(0.0105965 -0.00533756 0.99993)
(0.00406493 0.00153716 0.999991)
(0.00935202 -0.00701595 0.999932)
(0.0099991 -0.0002892 0.99995)
(0.578132 -0.440229 0.686995)
(0.122594 -0.379442 0.917058)
(0.107302 -0.588704 0.801195)
(0.31592 -0.547115 0.775151)
(0.13445 -0.492544 0.859839)
(-0.553474 0.821935 0.134496)
(-0.470953 0.882027 -0.0152356)
(0.9793 0.202201 -0.00931592)
(0.821383 0.56873 -0.0433115)
(0.863092 0.504912 0.011625)
(0.998979 0.0202613 0.0403697)
(0.793698 0.608294 0.00457185)
(0.993648 0.109215 0.0271253)
(0.704288 0.703998 -0.091461)
(0.780729 -0.610559 -0.132967)
(-0.177354 0.93232 -0.315159)
(-0.453434 0.873968 -0.174868)
(0.97166 0.234254 -0.0316475)
(0.96571 0.249868 -0.0704997)
(0.974729 0.21202 -0.0703576)
(0.991143 -0.0110408 -0.132339)
(0.263049 0.963057 -0.0576682)
(0.986448 0.0494306 -0.15645)
(-0.155915 0.925228 -0.345895)
(0.835304 0.526694 -0.157674)
(-0.106259 0.9201 -0.376995)
(0.101187 0.00581279 0.99485)
(0.0311018 0.00238868 0.999513)
(0.0314529 0.00192165 0.999503)
(0.0291843 -0.00407663 0.999566)
(0.0580303 0.0129993 0.99823)
(0.0388678 -0.00199868 0.999242)
(0.0517445 4.27223e-05 0.99866)
(0.00993162 0.00625281 0.999931)
(-0.00148533 0.00588855 0.999982)
(-0.00732222 0.0120783 0.9999)
(0.00313342 0.000933117 0.999995)
(0.0244619 0.00422469 0.999692)
(-0.00237215 0.0105394 0.999942)
(0.00133574 -0.00171656 0.999998)
(0.0316977 -0.011755 0.999428)
(0.0275263 -0.00538839 0.999607)
(0.000933409 -0.00746483 0.999972)
(-0.00226779 -0.0130997 0.999912)
(0.0190155 -0.00319584 0.999814)
(0.0129899 0.00380047 0.999908)
(0.00585295 -0.00388931 0.999975)
(0.0131893 -0.00766988 0.999884)
(0.0128376 0.00539753 0.999903)
(0.0196674 0.00180212 0.999805)
(-0.0138903 0.017416 0.999752)
(-0.0126816 0.015334 0.999802)
(0.0384552 -0.00186847 0.999259)
(0.0399915 -0.00362307 0.999193)
(0.00112514 -0.0063792 0.999979)
(0.00915095 -0.00485823 0.999946)
(0.820319 0.0787631 0.566456)
(-0.645656 0.0914906 0.758128)
(0.766334 0.085036 0.63679)
(0.641093 0.0185631 0.767239)
(-0.547005 0.0393813 0.836203)
(0.639679 0.0196333 0.768392)
(0.905669 0.0193856 0.423542)
(0.434449 0.00382578 0.900688)
(0.432832 0.00453888 0.901463)
(0.517215 0.0168368 0.85569)
(0.964338 0.0435066 0.261074)
(0.508246 0.0146831 0.861087)
(0.930139 0.0403739 0.364981)
(0.4425 0.0153021 0.896638)
(0.453099 0.0143992 0.891344)
(0.830632 0.421243 0.364149)
(0.626231 0.618324 0.474879)
(0.529537 0.536067 0.657437)
(0.730977 0.630952 0.259947)
(0.837819 0.503548 0.210946)
(0.557523 0.74321 -0.369874)
(0.672989 0.432487 -0.600034)
(0.604892 0.788552 0.110869)
(0.988991 -0.141439 -0.0434973)
(0.989935 -0.135598 -0.040514)
(0.985725 0.0931803 -0.140229)
(0.997724 0.0065026 -0.0671154)
(0.996797 -0.0789323 -0.0128264)
(0.987903 0.0719761 -0.137356)
(0.990241 -0.129733 -0.050921)
(0.99233 -0.107711 -0.060662)
(0.992232 0.00708825 -0.124201)
(0.997766 0.0182057 -0.0642704)
(0.997589 -0.0369969 -0.0587075)
(0.989748 0.0599522 -0.129634)
(0.996095 -0.056763 -0.0676185)
(0.994917 -0.0830196 -0.0569958)
(0.242184 0.969876 -0.0262205)
(0.223435 0.974636 -0.0127373)
(0.0999606 0.994901 -0.0134316)
(0.507096 0.861759 -0.014996)
(-0.167206 -0.178096 0.969703)
(-0.256036 0.200679 0.945608)
(-0.32501 0.107266 0.939608)
(-0.242325 -0.35998 0.90094)
(0.456958 0.691105 -0.559967)
(0.55117 0.626678 -0.550896)
(-0.432617 -0.555904 0.709798)
(-0.562484 -0.313314 0.765144)
(-0.434609 -0.451268 0.779405)
(0.164472 0.267407 0.949443)
(-0.223771 -0.0355014 0.973995)
(-0.134477 -0.182022 0.974055)
(-0.140883 -0.049503 0.988788)
(-0.269581 -0.323924 0.906862)
(-0.315192 0.0962103 0.944138)
(-0.218704 -0.130022 0.96709)
(-0.289219 -0.123119 0.949312)
(-0.511869 0.0808231 0.855253)
(-0.491092 0.207835 0.845951)
(0.289043 0.0625339 0.955271)
(0.993422 0.104884 0.0459645)
(0.995391 -0.0916577 -0.028218)
(0.985599 0.101727 -0.135082)
(0.978883 -0.194922 -0.0615848)
(0.999396 0.0255356 0.023559)
(0.987762 0.098587 -0.12086)
(0.999411 -0.0282858 -0.0194508)
(0.989228 0.136862 0.0519257)
(0.977685 0.181922 -0.105054)
(0.998984 0.0413853 -0.0178108)
(0.989547 -0.132139 -0.0577513)
(0.984468 0.168202 0.0503062)
(0.983335 0.144618 -0.11017)
(0.999552 0.0248616 -0.016635)
(0.308074 0.951038 -0.0248502)
(0.152586 0.987969 -0.0251825)
(-0.0569671 0.998362 0.00529363)
(0.0456268 0.99892 -0.00879058)
(0.978565 0.134936 -0.155572)
(0.995415 -0.0526866 -0.0798318)
(0.950817 -0.111353 -0.289045)
(0.346118 0.921674 -0.175268)
(0.92952 0.0840619 -0.359062)
(0.988888 0.0820127 -0.123993)
(0.994832 0.0202284 -0.0994963)
(0.999091 -0.0333758 -0.0265062)
(0.0493868 0.770096 -0.636013)
(0.998697 -0.0437329 0.0263071)
(-0.0563941 0.898327 -0.435692)
(0.984258 0.175266 -0.0227583)
(0.999517 0.0199283 -0.0238527)
(-0.0327452 0.765476 -0.64263)
(0.999764 -0.0217102 0.000266868)
(0.991156 -0.131013 0.0211043)
(0.995636 0.0892966 0.0271106)
(0.998089 -0.0529237 0.0318827)
(0.988618 0.150437 0.00172212)
(0.999955 -0.0045569 0.00827523)