/*--------------------------------*- C++ -*----------------------------------*\
| =========                 |                                                 |
| \\      /  F ield         | OpenFOAM: The Open Source CFD Toolbox           |
|  \\    /   O peration     | Version:  2012                                  |
|   \\  /    A nd           | Website:  www.openfoam.com                      |
|    \\/     M anipulation  |                                                 |
\*---------------------------------------------------------------------------*/
FoamFile
{
    version     2.0;
    format      ascii;
    class       volScalarField;
    location    "0.105/solid";
    object      sigmaEq;
}
// * * * * * * * * * * * * * * * * * * * * * * * * * * * * * * * * * * * * * //

dimensions      [1 -1 -2 0 0 0 0];


internalField   nonuniform List<scalar> 
3124
(
299.962
10.7576
265.53
830.82
256.498
16.1722
271.705
850.081
263.506
207.515
529.192
821.932
245.814
199.379
179.702
238.034
392.439
184.378
203.408
836.327
209.47
208.243
198.169
333.485
277.508
577.475
531.239
645.387
346.914
473.897
77.3077
243.86
69.9276
255.669
485.86
868.848
823.947
269.065
872.159
478.387
609.499
318.453
61.7337
83.065
87.9745
354.512
92.7071
208.855
282.307
863.759
493.289
888.118
268.159
928.197
502.739
257.754
200.401
188.746
16.1339
164.083
563.215
414.678
459.265
477.424
500.746
813.201
491.837
377.601
748.616
818.672
548.001
748.495
316.239
566.516
571.834
558.351
572.179
452.07
569.118
433.846
468.169
79.7292
73.0956
234.556
20.4454
58.7087
26.276
64.6016
355.547
342.035
599.569
598.87
255.518
822.806
877.702
472.553
599.908
337.345
526.508
649.171
52.1339
474.349
140.79
81.5296
112.37
492.955
213.349
168.953
372.528
325.414
224.931
93.438
209.567
276.258
207.825
248.053
285.039
853.177
811.546
533.42
320.455
901.689
518.361
356.274
371.118
610.51
639.212
573.687
627.697
430.896
384.849
233.208
202.275
189.706
19.1974
16.2289
19.0004
24.4615
19.4654
979.171
48.4562
12.073
226.702
263.353
233.446
257.234
93.5948
26.4737
16.3524
75.4252
300.16
224.777
244.131
270.599
335.861
176.208
369.948
325.857
401.871
336.101
277.425
823.384
775.648
683.664
520.075
636.376
571.538
645.593
542.7
194.059
369.519
300.511
373.605
266.764
458.821
204.465
165.716
170.914
774.052
683.676
613.741
180.666
125.427
310.846
301.527
349.662
216.427
151.653
304.857
193.828
323.671
241.467
339.326
199.646
300.89
123.949
173.03
205.543
152.085
236.198
134.032
150.609
128.678
174.767
216.308
173.724
203.366
122.506
195.487
210.857
206.487
194.822
164.38
160.7
558.728
541.546
1053.67
454.206
582.425
641.517
557.405
410.405
913.768
298.77
365.451
413.857
499.447
376.05
130.384
194.256
64.8923
193.493
261.8
211.416
230.831
68.5565
174.049
191.694
523.045
263.619
437.188
322.943
324.467
433.338
525.045
524.015
263.432
330.509
435.953
529.578
327.681
431.646
269.173
113.586
48.9741
91.0769
95.461
70.6149
88.4365
249.051
119.322
95.6359
77.3255
65.4663
82.5209
101.087
62.1193
84.01
72.9235
42.3474
88.7494
88.4317
307.447
285.803
253.11
194.003
155.409
201.724
243.954
165.1
206.421
564.152
271.093
484.7
350.143
566.087
345.686
481.417
554.193
271.65
335.785
448.54
540.937
340.11
465.512
271.968
198.737
186.467
155.298
117.636
374.089
611.337
1090.72
133.48
211.488
242.06
467.413
216.398
294.902
465.734
491.948
550.607
606.107
667.167
446.218
494.343
1071.3
1127.1
259.521
543.501
435.176
687.695
372.325
362.415
310.338
867.473
423.694
746.795
1098.06
766.625
1050
383.649
720.378
4064.31
572.986
810.924
512.671
484.957
678.395
719.431
557.647
662.813
457.908
1543.2
846.096
925.762
1289.61
433.599
643.287
666.174
753.435
593.177
556.897
511.96
322.004
431.402
557.249
476.213
393.482
549.424
332.911
455.024
371.896
465.655
379.474
541.029
453.852
410.593
569.594
465.536
470.064
487.99
553.856
463.511
414.842
419.689
609.874
500.505
557.606
641.241
670.726
437.675
591.695
591.342
370.285
457.402
636.714
701.691
303.643
552.773
647.392
1102.24
646.165
668.65
693.116
723.88
655.093
433.292
357.608
336.285
440.113
357.259
347.047
359.192
423.592
451.529
335.519
8.69183
68.6401
28.8679
69.5297
32.0408
27.6615
207.962
201.158
174.969
126.99
27.5403
131.617
163.321
32.1116
135.561
60.448
35.449
52.321
35.581
41.2723
49.6838
280.862
286.692
292.193
352.924
291.276
293.478
289.971
286.959
348.327
286.424
401.315
397.587
472.738
595.699
467.853
404.684
401.578
474.445
595.925
467.186
439.356
321.428
526.686
399.428
474.195
278.017
281.817
779.798
4129.31
604.585
216.397
130.635
73.5917
83.2715
58.5179
48.6394
128.749
94.239
211.715
407.686
508.428
364.737
392.435
329.512
295.735
160.888
101.895
106.364
243.469
35.6269
265.646
187.402
110.684
99.4241
99.8633
160.752
229.011
90.5753
90.5544
120.291
84.6987
164.277
381.619
433.378
518.775
398.201
401.98
350.771
374.511
253.376
216.38
298.483
195.932
214.898
185.992
235.02
251.944
110.218
271.756
174.591
285.107
171.639
260.63
228.172
488.858
288.563
292.167
306.667
208.666
253.904
210.959
156.982
284.568
51.9752
167.956
119.517
181.766
176.468
176.308
145.861
235.583
274.689
214.128
267.484
182.034
175.703
80.9486
141.345
97.9358
123.532
93.8099
193.362
124.551
146.399
135.04
135.17
214.552
284.868
303.093
174.567
228.07
219.038
117.764
155.2
96.8841
207.794
138.481
326.583
296.486
227.567
549.017
305.547
475.174
355.098
559.351
459.086
361.098
539.895
307.265
447.417
370.273
538.186
447.801
366.599
300.919
291.401
296.892
357.58
298.337
293.87
291.443
307.27
361.11
306.526
434.399
429.175
477.618
624.989
505.117
409.344
428.344
516.254
635.987
510.704
436.986
422.87
465.225
583.995
471.462
416.877
418.714
513.489
604.71
478.761
309.193
330.027
334.151
418.983
329.396
347.283
337.526
318.784
403.587
320.104
216.579
204.393
193.653
156.278
159.529
125.797
17.2089
122.334
118.481
16.8907
121.338
71.7518
62.5568
21.7004
66.596
21.0525
70.5317
67.627
32.9132
10.0439
14.3505
28.5729
33.9616
16.434
15.1245
29.4668
20.4448
18.5674
46.3965
28.4555
23.7423
34.9411
298.826
383.741
344.84
391.18
373.291
340.742
353.553
534.898
374.032
459.404
355.976
411.666
440.978
470.864
460.727
472.532
655.024
449.923
566.035
558.891
431.711
78.6526
70.0988
69.9267
71.161
64.3789
71.6057
360.509
259.228
304.526
289.34
289.215
303.893
360.957
362.272
265.266
297.8
312.662
367.484
297.723
311.902
494.981
604.12
85.4479
77.0922
96.2421
76.1844
93.4079
91.7882
113.88
105.577
184.312
187.77
145.906
397.027
274.184
333.431
314.736
399.701
312.153
332.587
376.434
270.642
301.956
316.303
370.85
300.593
317.078
11.2919
16.6077
12.377
277.681
406.54
355.798
522.774
433.985
405.013
332.227
398.941
474.244
391.289
375.441
400.315
322.86
357.269
348.352
359.739
347.214
395.632
466.418
382.092
375.371
378.467
355.345
324.037
299.014
306.224
40.9028
74.4543
36.6677
72.7552
31.8595
34.2829
7.63897
22.3234
6.91154
49.3373
48.6101
31.9923
22.9828
28.4674
20.5256
24.9387
57.7817
20.1871
236.447
238.849
248.774
246.022
315.904
319.71
330
325.968
360.489
301.583
251.52
285.959
361.7
300.968
285.306
316.069
312.176
235.116
231.947
67.3612
68.0292
93.7063
65.1648
80.0046
174.822
184.095
258.49
361.834
319.667
263.815
356.012
222.183
312.813
225.656
222.825
234.186
53.6875
114.606
71.2229
203.025
162.894
155.448
209.902
169.958
182.573
397.125
294.24
340.424
321.886
397.034
339.294
324.256
391.344
312.859
355.192
343.871
395.474
353.389
344.187
259.389
252.287
247.373
249.174
352.69
343.028
330.945
331.91
350.994
362.143
373.737
368.844
263.831
271.615
302.298
295.51
7.99049
18.6275
8.46543
10.7717
16.7821
10.5526
18.6583
33.0433
32.8037
24.9056
23.5134
25.2171
19.9217
31.9605
30.2673
9.41003
49.9216
60.5423
19.656
12.7379
15.6145
27.9524
20.4275
254.524
259.018
226.385
230.82
257.733
232.805
255.816
256.099
236.747
233.547
254.995
236.806
255.502
255.495
239.639
236.583
248.915
237.126
152.201
237.469
209.573
25.1728
14.0064
23.6306
16.8896
56.2416
18.8036
74.0472
77.1733
128.863
61.8824
52.554
95.2853
112.889
43.3688
78.6586
150.371
54.6087
286.115
268.115
220.987
228.218
268.233
223.42
281.921
301.854
240.812
307.788
235.537
315.226
231.288
295.793
244.79
252.171
261.853
262.818
348.896
462.42
361.638
299.996
296.585
411.148
364.754
266.195
314.052
286.327
331.046
259.62
292.653
316.298
356.804
411.828
393.615
339.658
346.601
412.605
345.411
253.039
311.573
242.53
308.248
228.757
285.096
294.436
822.907
748.04
845.508
759.747
709.737
1048.37
735.204
402.123
483.64
440.471
531.148
387.91
479.871
450.384
262.53
209.561
246.199
206.342
243.365
218.39
271.842
351.907
427.737
302.45
376.138
317.701
343
419.452
300.827
343.293
229.419
283.478
247.146
303.21
339.006
195.859
193.14
166.473
166.915
194.249
167.983
194.378
196.97
171.675
198.705
168.574
199.689
169.113
196.218
216.347
241.847
188.82
144.246
166.576
237.906
200.117
202.305
291.866
260.675
260.556
233.742
224.781
254.921
269.61
298.095
349.07
298.03
312.457
301.523
251.915
158.979
131.945
159.564
208.603
123.602
181.004
209.322
278.667
323.109
255.986
308.662
267.122
327.779
270.061
237.531
206.975
234.364
200.308
231.861
220.42
230.734
288.608
323.22
278.403
342.34
291.397
266.908
335.903
235.172
225.939
208.895
213.225
220.59
234.552
229.825
160.769
173.247
177.814
156.867
173.733
161.962
150.795
167.365
202.036
196.911
221.968
191.593
163.038
199.614
137.799
88.5157
149.353
121.061
138.583
118.782
111.725
164.447
151.066
123.489
144.627
149.286
160.032
139.234
182.487
178.777
187.519
150.739
195.467
169.891
161.13
187.597
178.797
203.427
195.394
199.342
178.535
183.787
155.809
115.174
135.249
128.007
149.458
135.419
129.588
195.543
196.688
198.43
196.228
196.045
193.559
192.095
193.973
191.949
191.771
165.552
163.101
193.532
163.914
190.62
191.203
161.531
188.284
161.793
189.777
162.978
189.318
555.248
338.112
661.144
660.894
786.062
398.985
392.611
441.247
309.998
521.461
551.961
660.63
352.641
310.207
147.701
132.68
124.168
211.377
194.797
214.278
132.696
118.317
65.0602
67.83
66.4151
124.84
212.04
194.641
115.591
213.567
126.423
115.418
246.47
237.83
212.736
219.887
222.288
238.92
245.098
251.443
233.999
253.2
226.403
254.537
228.91
250.241
72.2709
73.8758
75.2727
120.38
103.479
189.92
182.259
198.904
118.67
112.309
129.749
208.625
117.94
187.979
129.194
204.062
116.872
359.173
258.907
292.176
306.446
360.501
291.209
306.213
361.479
266.693
295.8
309.934
360.368
295.474
309.105
497.672
236.651
243.996
280.716
107.444
90.7227
81.3664
88.064
103.124
110.418
96.695
119.95
232.086
117.602
165.754
171.63
154.463
127.057
102.71
162.536
88.9875
114.343
136.674
105.82
87.6247
104.911
75.8418
105.295
94.1033
90.157
80.9331
119.173
77.5807
105.318
118.887
82.2538
65.3957
68.2433
67.9365
88.3414
68.7235
73.7594
103.95
104.016
81.5762
88.9388
109.19
95.3282
101.727
76.1019
77.9356
70.91
104.309
60.877
90.9011
82.3986
67.6707
63.5292
41.04
61.9954
65.4325
76.3365
53.141
72.3953
65.667
117.023
84.9041
94.1396
74.0407
76.4047
349.052
351.62
307.798
278.06
276.352
382.904
342.496
340.804
249.852
318.284
265.292
325.234
267.183
329.707
145.83
131.496
210.331
195.027
208.541
147.59
136.311
136.394
119.593
114.61
146.29
218.689
197.825
136.577
212.963
146.292
137.567
160.549
192.875
281.061
230.139
246.583
218.742
161.015
178.092
122.445
131.172
155.405
222.431
216.744
136.779
238.387
139.822
144.361
397.388
274.35
308.756
326.163
392.55
308.54
328.837
380.181
268.018
303.323
323.233
388.269
303.702
319.392
235.764
251.368
263.528
257.85
188.234
185.977
184.928
185.961
183.216
182.393
156.337
154.319
155.222
184.296
181.526
182.586
153.428
179.97
153.363
181.735
154.342
180.654
57.7678
50.04
134.02
116.529
132.806
59.2397
49.2271
16.8482
13.1372
56.7836
115.562
131.889
48.5908
1071.88
355.824
443.043
301.32
467.424
259.204
350.571
443.351
304.448
390.856
665.924
641.674
575.873
407.465
1176.34
528.117
207.277
1272.09
306.948
779.527
215.287
259.242
702.591
221.323
385.743
176.712
254.282
152.696
340.974
155.465
551.073
591.124
523.487
477.799
506.697
569.496
558.89
583.148
560.536
595.176
522.446
566.021
598.162
543.417
612.704
636.776
632.095
654.443
594.55
629.041
634.06
532.428
469.306
463.992
493.368
494.169
531.258
496.77
468.42
1178.22
611.668
476.517
979.859
337.149
547.799
415.649
418.825
866.776
1032.88
261.756
1073.35
648.728
308.636
701.872
496.001
362.574
262.127
914.307
267.074
600.418
626.234
754.493
652.403
898.291
626.931
686.218
561.17
1819.25
472.363
643.722
322.169
328.605
266.458
325.405
508.12
110.075
618.376
238.434
275.903
347.09
417.785
344.612
394.816
494.989
352.19
474.126
542.861
1592.1
328.054
1476.58
542.548
918.317
503.271
456.696
482.099
1393.78
2284.32
868.014
778.644
2176.76
528.723
293.721
770.457
944.181
505.722
703.911
1241.36
313.728
723.793
3521.11
1268.11
3212.77
971.763
3418.2
1062.76
714.603
782.198
786.158
779.803
755.815
742.192
758.775
601.501
452.884
604.362
407.924
580.378
563.079
437.064
698.864
745.556
704.864
730.841
726.242
755.403
676.796
1508.08
495.399
182.648
1840.87
940.861
3945.33
5042.74
2644.78
746.322
1470.83
785.322
845.551
1172.22
664.687
752.505
600.383
454.329
1269.23
1155.78
309.324
1373.37
707.892
466.464
1194.12
884.029
341.055
328.513
1334.12
362.767
755.911
781.262
714.849
728.988
804.863
760.072
730.677
423.225
340.987
368.922
357.076
408.411
372.555
362.345
401.724
320.207
365.664
355.46
410.826
363.881
353.419
433.311
430.954
424.9
417.222
399.229
374.707
406.559
394.191
419.413
397.654
407.639
406.997
529.985
592.916
593.761
526.326
505.008
575.458
511.964
574.514
398.741
629.289
546.171
521.074
525.12
526.149
450.639
564.781
392.566
377.022
396.196
416.961
400.277
398.034
399.383
400.491
402.685
414.951
398.274
398.316
607.996
648.331
555.523
612.005
563.178
607.2
647.608
594.124
569.931
602.15
539.459
608.261
587.698
553.268
640.755
661.876
641.417
676.161
651.232
630.071
671.797
552.323
496.869
455.756
500.195
504.313
555.784
508.45
551.284
636.873
489.176
585.894
502.347
542.614
628.679
486.338
449.683
547.338
379.597
548.95
475.279
382.947
601.203
672.581
655.861
708.522
657.985
596.809
671.351
429.951
381.047
312.693
331.666
385.924
423.436
342.311
699.057
669.978
677.296
652.621
680.436
679.785
683.021
686.085
662.935
795.475
824.448
721.159
735.283
731.725
695.99
680.207
721.324
687.555
695.024
699.337
683.166
709.939
696.679
715.982
724.768
722.95
690.516
698.778
309.723
325.872
383.2
372.477
383.593
397.516
398.955
351.518
388.059
373.362
352.27
330.539
369.386
336.496
360.683
371.76
316.363
353.89
355.818
320.025
266.032
310.651
268.172
311.213
309.215
342.548
348.573
308.976
265.033
319.338
270.557
310.446
314.476
304.677
357.82
327.629
343.104
352.663
324.851
355.96
352.348
358.93
365.299
337.866
344.787
331.977
365.157
362.98
322.057
331.15
366.806
300.15
264.651
342.747
277.43
332.482
330.495
349.035
332.393
368.306
278.957
321.812
266.977
329.914
6.18016
15.4608
8.22187
69.4159
33.6294
32.8623
25.2502
12.5069
11.5717
73.4554
33.464
36.2977
17.7832
25.9471
12.4079
12.6148
27.7298
11.1113
218.922
228.419
202.615
190.565
229.397
190.918
218.423
209.936
175.129
202.936
181.358
203.237
181.987
209.384
66.0356
55.4153
143.784
127.876
145.115
65.5055
55.504
24.5869
7.58957
6.88362
65.6602
149.051
129.343
57.7604
146.333
69.3264
56.2985
87.1857
90.8608
180.738
151.636
100.261
168.21
76.6981
39.1933
10.745
19.7536
77.4968
152.326
142.047
60.9341
159.541
70.3759
66.8689
55.9418
55.6531
51.873
31.5069
17.2821
18.5223
53.9786
47.489
49.4172
24.4364
40.0238
30.0563
48.7498
15.8258
16.4863
43.2503
43.4947
36.0243
242.654
238.972
290.753
269.852
279.397
294.873
268.421
295.535
290.175
291.212
297.367
272.394
280.043
269.046
293.745
295.043
265.094
296.778
299.032
262.347
225.186
245.173
225.336
243.814
264.815
300.005
299.302
264.824
224.953
239.535
222.588
242.067
244.591
246.874
298.004
277.669
288.62
303.51
275.449
301.384
300.646
297.366
299.955
275.615
288.217
274.335
296.704
300.937
258.929
294.23
293.756
260.599
219
231.401
216.409
233.959
260.118
292.684
294.539
256.643
220.265
237.871
221.091
236.272
323.381
318.512
354.919
398.896
374.994
354.156
377.342
379.224
356.104
400.669
356.6
376.035
570.363
649.804
574.247
645.122
569.15
644.216
568.211
644.485
323.149
326.52
363.386
402.985
384.972
362.587
381.164
377.961
360.2
399.073
359.076
381.471
564.218
640.709
564.493
639.844
565.589
640.237
565.386
641.848
352.19
375.376
399.706
351.643
373.641
562.459
639.187
563.213
638.349
285.038
266.394
292.184
272.477
287.769
263.701
289.991
215.268
230.131
214.824
229.664
253.949
289.774
254.527
289.085
214.423
228.35
1310.4
3318.39
1100.56
566.649
1812.53
4111.38
2736.82
612.697
612.533
593.234
596.489
629.219
552.205
545.97
571.995
547.834
1320.27
292.931
632.288
917.231
676.229
682.019
692.253
685.024
700.092
703.066
695.134
698.375
629.85
633.251
657.516
647.848
699.133
688.913
667.012
680.946
78.2657
75.6778
127.65
96.8881
115.204
92.5609
53.7546
60.0507
43.5656
63.9655
62.1153
77.1795
55.9369
36.6383
68.2948
87.5719
111.25
49.8297
83.0562
54.995
78.9015
319.935
276.28
254.564
236.469
292.27
321.892
266.716
437.658
507.127
476.867
450.69
489.227
414.866
463.261
391.015
335.196
413.375
443.273
359.43
442.575
381.62
369.417
289.322
398.292
342.909
357.655
312.403
396.27
148.554
101.003
200.564
171.235
134.691
123.896
194.346
117.503
117.025
72.7128
132.579
92.2605
107.309
134.077
86.4281
58.7209
46.1591
54.3299
67.4915
84.9842
73.0336
182.593
230.236
188.71
263.326
158.815
238.609
206.495
110.878
89.5733
76.5651
82.3221
80.9332
64.4236
66.7323
78.0357
99.2212
82.5373
99.2735
79.5678
76.4459
92.8906
78.5835
106.766
68.4014
83.822
74.582
70.2198
79.0585
91.8389
76.4341
337.863
327.063
150.418
159.645
175.622
120.199
155.259
198.55
150.268
240
225.887
283.23
200.827
248.032
205.753
241.893
129.287
136.97
172.165
130.932
117.79
177.177
92.2078
108.321
81.9084
99.2665
103.496
86.1907
107.391
100.321
160.564
120.475
157.421
110.248
153.907
124.188
112.353
91.5516
99.8214
109.039
135.926
100.403
412.34
388.075
393.988
360.593
381.578
422.854
381.833
477.998
519.269
503.953
467.74
505.944
480.774
464.567
445.798
385.306
415.105
464.704
402.541
464.761
438.163
427.346
360.983
420.501
363.579
419.206
428.007
380.321
215.62
191.266
226.852
272.12
234.876
195.943
203.588
212.954
310.656
287.936
223.214
264.834
212.411
231.19
215.887
178.461
273.05
203.439
255.289
208.443
188.237
201.367
207.441
190.59
178.99
204.348
190.855
198.995
155.748
128.854
145.046
125.178
154.202
134.578
151.214
212.903
292.632
203.056
282.074
220.862
189.676
307.151
150.65
147.354
139.362
168.668
143.363
124.93
169.948
382.49
270.098
259.421
266.216
295.94
302.379
341.633
442.774
358.91
287.397
279.306
357.384
366.751
346.695
343.475
312.088
320.117
465.53
334.545
738.903
387.826
399.093
275.057
324.249
285.38
293.598
332.213
329.213
258.398
231.206
188.398
245.192
208.679
304.748
216.208
331.85
230.954
250.462
256.463
209.35
326.106
266.065
232.7
195.16
190.651
231.6
208.938
190.718
221.952
199.985
175.039
168.051
172.711
180.952
196.528
152.762
282.156
255.238
263.622
256.823
307.882
228.751
248.026
17.8091
63.6777
30.6597
141.917
118.831
95.0984
99.9991
71.7222
51.027
196.654
134.718
148.751
128.609
193.105
119.318
95.0557
197.339
110.836
178.156
213.582
229.03
248.704
196.742
248.865
145.756
56.8661
66.4169
66.502
80.7435
65.5765
55.7542
63.5551
85.9827
138.604
111.286
128.039
98.7003
99.7616
113.37
64.2264
69.7816
95.3926
76.0386
80.6937
55.5108
71.2954
75.023
96.489
120.098
102.567
87.8182
75.4195
100.727
92.8759
116.518
88.1688
87.0827
110.929
107.773
77.004
140.606
185.805
170.066
172.147
172.199
143.282
166.039
146.249
127.973
162.778
113.024
126.978
148.149
151.312
134.257
128.484
124.043
109.005
103.162
154.515
120.391
123.171
87.326
145.983
189.15
148.641
173.217
141.732
148.037
182.517
180.67
219.526
330.335
231.774
282.697
246.444
275.781
203.665
92.2843
102.632
127.162
130.395
114.705
101.402
115.341
113.476
155.428
119.111
170.658
128.388
103.759
166.195
72.7835
92.3285
94.8326
74.1962
98.0296
66.0452
84.5781
134.026
167.114
189.837
186.4
149.523
160.149
177.101
195.827
179.099
153.694
145.99
199.709
190.321
142.64
241.334
243.865
280.207
244.288
293.247
251.122
231.925
392.938
296.408
345.794
332.351
393.4
344.572
329.046
392.107
314.113
348.861
338.135
391.345
350.205
339.227
248.171
252.322
307.503
292.376
290.491
319.689
287.639
314.502
313.919
306.357
313.267
288.417
289.086
285.372
303.745
313.98
268.634
307.714
305.666
270.008
228.86
246.89
225.574
250.611
268.874
302.678
266.516
304.877
228.76
256.744
230.579
253.462
250.288
246.313
301.946
281.137
289.709
305.847
278.059
301.339
306.104
300.673
309.131
281.238
288.341
280.813
304.696
306.993
277.416
312.311
314.755
273.097
237.963
270.439
239.14
267.407
276.441
318.085
314.595
280.561
235.413
259.515
231.618
264.172
340.659
342.997
385.24
437.841
410.183
386.56
407.322
403.833
378.524
434.782
382.674
406.687
581.706
650.423
576.011
657.619
582.133
665.941
656.487
589.276
336.534
334.394
367.132
414.771
387.738
369.616
391.414
398.455
378.373
418.198
371.573
395.672
592.948
666.144
672.636
591.668
591.806
663.847
666.26
587.327
367.302
359.208
391.907
428.044
406.52
387.675
409.115
406.902
393.759
428.264
393.261
404.933
548.38
611.507
544.22
615.007
558.885
639.216
626.96
567.994
363.912
368.36
395.991
403.093
416.315
395.499
404.555
406.638
392.351
418.653
395.159
405.565
584.305
669.125
659.018
591.544
582.606
640.804
656.216
570.778
283.798
274.252
324.502
300.18
313.26
326.282
300.846
320.017
329.423
326.945
334.828
309.081
317.1
303.456
333.643
329.83
307.145
334.015
338.3
299.328
266.996
312.439
268.279
308.361
306.075
340.731
308.381
339.26
265.797
295.087
259.107
303.949
288.148
296.051
344.435
323.644
349.999
338.743
350.722
320.527
346.013
343.349
340.76
316.541
337.79
316.167
339.014
343.758
291.202
329.735
327.294
297.425
247.35
272.902
243.812
278.219
292.254
324.26
285.31
328.17
252.472
289.808
256.139
282.854
225.396
211.718
199.806
205.096
188.143
189.709
192.412
189.672
186.334
183.44
157.199
157.212
185.076
158.267
184.446
187.378
160.652
186.999
158.383
188.928
159.297
185.791
63.3494
54.79
142.788
124.435
141.103
65.0832
53.8564
17.9821
8.98868
8.84059
62.3711
138.851
123.209
52.7326
140.061
62.3119
53.0944
59.6667
50.5315
134.789
119.166
59.6094
135.663
50.7767
16.9757
9.3593
10.1101
60.2588
138.009
120.182
52.1741
136.674
61.8036
51.3735
18.3082
33.9387
67.1198
70.3903
66.056
71.597
67.2784
58.1366
62.0212
57.7957
22.3196
28.5845
26.9192
63.7762
62.3056
59.6749
20.5295
29.7
29.4473
65.9652
67.064
63.2062
63.4949
66.7017
62.5131
673.595
669.386
667.832
668.665
667.503
667.058
666.5
667.364
666.592
665.764
664.823
277.531
275.782
263.746
287.772
287.744
280.323
269.971
325.759
281.035
287.353
301.147
305.554
318.124
302.242
217.106
200.483
218.821
206.281
219.39
215.323
207.465
212.909
196.928
217.351
204.879
214.649
216.67
203.745
602.05
598.57
663.052
761.776
744.832
651.713
645.822
266.605
253.537
260.81
250.884
269.11
259.921
258.162
721.215
909.765
664.029
861.241
728.612
902.179
658.153
720.217
671.579
864.639
903.506
900.302
662.894
723.083
1039.84
390.789
333.641
429.869
370.097
371.386
425.475
362.578
757.911
924.403
683.144
912.302
741.667
939.875
708.454
767.74
729.222
946.379
930.397
949.725
767.229
729.294
203.663
187.717
208.439
195.249
207.759
204.927
194.377
1025.67
1017.36
1017.45
1014.87
708.011
871.63
817.708
628.838
633.057
860.136
710.019
696.698
609.132
780.576
796.821
664.306
624.541
834.386
240.92
222.749
251.883
241.446
251.313
241.358
231.377
677.165
905.547
725.368
217.256
235.688
259.729
186.272
221.002
233.15
218.986
403.68
406.581
558.922
383.385
417.338
720.682
387.818
243.504
274.159
281.131
270.75
258.537
256.555
309.691
719.821
877.597
621.417
822.792
712.113
886.736
630.459
735.551
704.696
930.895
859.123
755.352
906.558
664.334
207.029
190.738
209.69
196.332
205.56
210.42
197.327
1019.07
275.273
263.789
277.126
267.023
277.302
273.056
268.207
34.4228
22.2492
44.4325
17.7532
28.4947
34.1052
23.9083
341.873
290.569
342.569
327.374
328.752
355.856
315.8
218.448
202.062
223.173
211.851
221.29
221.448
209.389
212.278
195.753
214.702
201.505
215.196
210.811
202.422
270.064
258.746
275.398
265.331
271.986
273.501
262.968
382.743
315.745
348.006
336.778
364.415
363.39
347.694
203.27
186.971
206.462
193.01
202.452
206.778
193.541
781.838
510.68
539.626
358.105
558.717
547.656
317.744
930.694
976.955
669.97
951.75
732.891
596.997
1131.88
484.469
559.211
470.389
472.347
570.168
472.732
481.47
474.836
462.64
567.225
470.243
569.805
470.447
468.78
438.047
524.881
445.479
466.673
444.624
544.857
443.292
466.664
445.176
464.654
559.731
554.904
452.848
445.393
232.036
214.576
227.096
216.045
225.153
233.036
222.362
505.922
590.786
468.202
492.427
582.313
487.976
509.934
504.018
485.195
465.943
582.79
581.346
486.714
504.345
507.09
597.936
471.52
492.725
593.345
492.384
508.37
506.401
488.468
471.145
585.324
590.668
489.121
504.037
508.169
599.196
493.952
474.657
508.305
599.908
493.698
507.515
474.117
600.002
244.991
288.779
229.004
334.862
235.928
232.405
330.349
219.861
234.807
225.11
264.422
249.208
228.634
220.06
277.245
367.495
216.435
345.646
316.235
246.198
358.69
522.115
595.387
486.778
498.276
610.556
514.502
505.794
527.846
523.689
492.304
636.629
617.241
515.156
538.037
550.998
650.776
519.876
539.196
655.98
540.813
548.725
549.84
534.397
517.997
644.338
655.69
540.056
543.423
487.97
555.695
472.126
462.149
487.843
550.128
473.674
494.074
482.62
464.093
567.143
552.174
476.56
502
534.981
643.949
501.1
531.703
622.683
544.269
523.131
525.52
496.177
494.039
580.44
609.364
508.741
511.414
208.158
192.158
213.141
200.164
210.022
212.08
198.845
)
;

boundaryField
{
    left
    {
        type            calculated;
        value           nonuniform List<scalar> 
703
(
295.559
260.609
13.3628
269.442
271.581
267.495
22.6363
518.957
273.616
237.25
194.535
219.731
220.659
202.66
388.407
217.016
209.555
253.793
193.53
546.298
322.625
266.072
239.274
102.057
98.8252
335.809
586.321
212.534
267.856
115.732
235.444
344.967
66.7731
151.345
83.6809
30.3617
184.078
493.687
576.47
453.79
552.504
678.389
466.719
164.857
489.322
545.636
43.0552
82.1424
230.83
61.1575
30.5172
75.9038
76.1391
361.031
524.41
214.25
243.641
196.814
91.287
298.372
193.93
399.832
252.032
333.676
381.427
478.108
217.688
73.6039
312.704
219.736
485.738
77.076
171.49
26.6971
28.9925
26.8107
184.861
31.6503
40.0479
258.941
229.699
222.08
15.7827
96.6115
272.769
276.801
219.633
238.434
299.696
17.3698
78.2964
16.5303
512.097
707.365
765.004
393.99
476.046
333.343
213.689
383.371
387.635
166.082
171.214
200.196
730.589
218.1
221.588
229.257
167.377
168.292
192.564
220.142
234.775
341.046
271.478
158.176
251.239
306.711
337.304
189.86
161.471
165.09
303.643
351.303
364.906
209.12
227.575
257.467
85.186
208.742
192.861
209.348
212.147
86.3015
147.225
272.703
210.876
280.234
203.934
214.387
207.368
251.323
218.809
208.593
307.569
246.64
279.402
109.096
84.5259
63.1499
98.1459
103.35
127.962
81.107
103.814
151.54
181.605
156.579
644.166
668.471
504.486
392.453
737.603
709.777
375.296
619.268
361.144
609.851
572.645
499.497
659.331
621.953
646.003
397.443
546.241
605.403
251.994
272.579
154.701
627.013
477.515
290.525
486.621
516.016
589.938
55.2887
164.096
159.596
186.168
166.681
63.0732
203.506
174.721
199.879
43.6482
51.0629
39.6359
60.3939
51.9522
37.5163
68.1917
38.3077
13.7656
39.1229
36.0169
65.6217
554.954
344.975
216.241
226.603
175.07
260.358
233.93
89.9219
164.254
170.141
227.483
187.371
255.809
107.646
149.01
199.243
161.968
140.065
286.435
313.031
418.415
218.342
290.303
251.602
234.312
178.876
568.018
254.206
221.233
226.563
534.432
397.548
344.521
425.043
185.256
260.77
304.884
106.777
201.313
145.908
194.841
243.075
218.722
312.942
286.302
193.487
433.313
382.63
413.872
96.1461
160.372
115.944
150.393
72.2446
27.8628
66.2741
62.6196
70.7365
67.4452
27.4859
157.396
160.561
188.927
34.5812
154.719
152.169
158.634
155.497
36.0777
22.0485
21.6902
16.8314
20.7001
27.4837
23.9966
380.499
342.107
378.993
431.451
384.08
424.725
86.2828
42.4945
44.0044
49.7184
43.2947
95.7777
461.512
141.963
74.5834
60.4103
151.659
92.0362
234.924
121.725
110.355
60.8522
62.912
30.3553
46.2281
55.4076
55.8343
36.4485
35.3603
83.871
60.3963
34.5009
35.1922
45.3934
42.9829
31.6818
74.4086
37.608
38.6938
37.1184
35.7941
67.7206
199.364
140.743
146.152
49.1522
63.1626
112.021
156.346
172.226
200.474
235.015
233.265
194.175
360.308
303.774
269.155
89.7844
112.108
313.345
26.2071
53.4041
54.8299
28.613
46.5149
47.6912
53.4336
51.4717
26.6102
32.8027
60.8264
60.4534
55.8673
57.9018
39.3442
229.653
251.346
250.444
253.78
250.806
226.529
27.7839
14.9963
44.4158
37.7814
91.5788
223.091
275.948
262.197
299.952
289.019
230.472
67.3468
52.6775
63.4029
11.4042
28.4334
30.3688
167.455
193.064
191.519
197.252
194.515
168.744
162.699
188.195
186.934
190.556
189.113
163.67
217.34
241.37
234.424
249.124
246.13
223.283
50.7685
52.9617
95.119
204.482
155.226
157.228
148.01
149.154
199.64
212.916
163.919
161.615
159.551
160.635
213.433
86.3439
42.2118
44.0519
149.28
79.5452
73.7933
168.77
209.806
159.216
158.942
165.204
160.609
206.083
237.674
173.635
207.848
156.135
167.15
229.522
233.347
87.902
72.5183
258.477
319.83
309.425
341.558
328.99
267.93
105.53
172.669
99.0213
105.293
72.4718
150.883
125.439
125.591
125.218
150.295
29.0561
64.2627
154.837
179.923
179.181
181.561
180.591
155.619
51.6334
57.1299
50.4544
162.148
130.885
131.974
129.567
130.489
160.908
177.774
137.218
141.641
132.254
134.311
171.614
69.3077
44.7958
50.902
181.098
207.503
201.046
225.678
216.023
189.479
38.4995
36.2228
48.8964
43.5759
50.4283
58.815
41.8735
45.9657
43.3124
53.6589
64.7672
70.0183
61.7937
62.8255
53.1856
34.4193
41.0609
40.7919
36.0379
34.4469
65.9714
33.2821
28.3474
29.6418
21.5481
22.0162
17.4595
30.9825
29.6188
35.9947
30.6805
28.8474
37.0971
74.914
38.1374
35.0815
120.086
135.336
195.466
285.173
118.548
102.765
127.24
124.397
268.586
92.0463
25.8641
19.0908
68.5312
50.1085
150.639
138.29
85.0303
108.348
150.494
136.125
133.423
159.071
114.116
130.755
147.091
129.88
176.918
140.885
115.487
164.185
111.441
111.597
132.515
263.369
327.498
354.039
333.554
333.438