/*--------------------------------*- C++ -*----------------------------------*\
| =========                 |                                                 |
| \\      /  F ield         | OpenFOAM: The Open Source CFD Toolbox           |
|  \\    /   O peration     | Version:  2012                                  |
|   \\  /    A nd           | Website:  www.openfoam.com                      |
|    \\/     M anipulation  |                                                 |
\*---------------------------------------------------------------------------*/
FoamFile
{
    version     2.0;
    format      ascii;
    class       volScalarField;
    location    "0.105/solid";
    object      sigmaMid;
}
// * * * * * * * * * * * * * * * * * * * * * * * * * * * * * * * * * * * * * //

dimensions      [1 -1 -2 0 0 0 0];


internalField   nonuniform List<scalar> 
3124
(
-190.541
4.36821
-208.658
-552.691
-215.963
6.60719
-209.532
-558.03
-219.643
-123.382
-280.425
-518.242
-230.367
-164.144
-108.795
-229.895
-318.638
-194.125
-199.126
-543.885
-177.506
-176.214
-163.089
-925.896
-172.487
-252.082
-335.837
-675.329
-173.443
-310.789
-59.8916
-196.569
-53.7264
-596.313
-515.09
-678.143
-548.29
-629.316
-666.287
-509.587
-229.914
-193.096
11.8628
24.6256
-49.494
-246.469
-70.3637
-139.96
-628.994
-560.446
-519.672
-687.736
-621.185
-711.723
-525.623
-212.416
-170.07
-156.721
-3.43003
-104.161
-346.807
-195.407
-266.368
-222.085
-339.882
-690.241
-197.673
-847.941
-484.823
-730.21
-527.05
-759.843
-710.412
-520.41
-1109.48
-1107.51
-357.916
-316.281
-304.627
-339.108
-371.836
-57.2548
-49.0995
-186.923
-11.1124
-44.69
-14.2586
-42.3378
-343.181
-341.084
-1106.26
-1102.74
-597.935
-544.792
-664.191
-504.26
-1104.37
-339.35
-227.837
-437.143
-10.5073
-300.09
-99.592
13.8097
-91.3194
-320.114
-163.158
-146.372
-300.826
-282.922
-168.093
-66.7544
-129.691
-256.247
-145.745
-169.662
-633.334
-555.474
-721.851
-535.229
-724.36
-714.097
-533.633
-344.08
-342.866
-1124.42
-1173.82
-1099.94
-1158.23
-347.495
-343.391
-195.179
-171.503
-157.686
-9.7031
-4.08125
-5.1551
-12.3882
-5.95865
-673.583
64.6708
3.80629
-165.623
-208.186
-164.708
-213.257
48.9824
21.4957
7.23902
26.1206
-214.02
-166.646
-177.248
-221.667
-427.081
-115.558
-238.816
-143.902
-313.913
-208.757
-108.006
-635.836
-53.7129
-194.969
-310.182
-1190.52
-342.893
-317.022
-381.389
-196.869
-282.289
-242.23
-268.716
-225.171
-316.818
-167.406
-116.841
-122.096
-34.3147
-205.217
-1188.21
-159.578
-78.9721
-206.222
-132.429
-292.461
-146.067
-67.6018
-322.61
-213.917
-269.445
-232.005
-265.985
-308.997
-258.212
-190.887
-202.049
-198.928
-161.907
-226.963
-218.538
-161.662
-316.101
-219.823
-202.827
-170.76
-328.5
-230.196
-177.681
-179.091
-174.685
-161.011
-115.672
-112.786
-532.72
-798.749
-458.273
-693.324
-466.555
-485.1
-592.203
-361.025
-157.192
-183.777
-197.09
-297.375
-293.309
-230.131
126.492
-139.626
-50.7241
-135.723
-207.878
-149.11
-162.576
-53.435
-121.183
-133.97
-590.31
-620.166
-718.566
-665.438
-672.639
-723.815
-583.379
-596.858
-618.328
-684.176
-733.283
-598.669
-682.76
-728.911
-219.124
36.4616
13.0847
16.5813
44.5262
2.05013
23.1472
44.9601
34.2651
-52.3342
8.79834
-35.7486
25.5365
30.3213
-52.4009
-11.8429
-17.2506
-14.3904
-16.7692
6.08405
-222.741
-200.024
-184.74
-141.21
-113.241
-147.83
-171.793
-119.433
-154.048
-594.955
-602.319
-760.858
-682.522
-605.502
-674.386
-750.26
-594.299
-613.171
-683.007
-737.763
-598.065
-675.11
-742.608
-222.625
-168.741
-155.086
-108.74
-79.2266
-695.87
-273.391
19.5213
-108.183
-171.682
-64.4685
-451.194
-145.963
-75.9005
-401.474
-305.891
-377.163
-368.114
-435.508
-325.333
-300.108
-24.484
-21.8694
-157.968
-297.673
-155.224
-430.291
-199.883
-350.645
-253.828
-858.001
-1033.28
-642.8
-211.281
-61.9396
-622.236
-193.174
-547.384
1356.25
-229.213
-532.038
-337.567
-342.364
-406.208
-506.374
-343.552
-383.161
-922.48
-1417.52
-780.801
-424.39
35.4091
-164.576
-351.182
-529.586
-448.875
-259.841
-671.878
-855.638
-724.458
-778.39
-688.985
-830.844
-746.313
-669.722
-735.109
-803.178
-746.006
-814.119
-745.096
-661.958
-988.072
-941.539
-1122.69
-965.499
-985.666
-998.736
-1077.31
-990.864
-893.326
-922.141
-417.802
-335.087
-376.856
-395.625
-444.518
-295.855
-380.211
-414.653
-277.375
-315.424
-397.654
-488.991
-250.101
-364.8
-441.605
19.0384
-388.16
-406.248
-445.454
-453.051
-411.731
-720.697
-695.121
-622.181
-348.644
-636.266
-691.711
-691.007
-689.735
-336.574
-599.199
3.67857
-48.0926
19.6676
-48.3313
22.0345
18.9389
-170.587
-142.638
-125.523
-86.8508
-18.136
-91.9959
-114.386
-22.2163
-95.4935
41.8443
-22.3546
36.0294
24.3329
-26.4717
34.2313
-623.527
-629.827
-585.88
-343.229
-584.105
-638.46
-633.338
-577.305
-341.247
-578.55
-792.874
-796.57
-913.271
-1098.25
-905.195
-808.087
-801.303
-900.512
-1098.72
-901.926
-712.707
-655.211
-576.177
-789.98
-899.191
-620.054
-571.993
-46.1402
1347.1
-378.155
-464.74
-124.845
-41.8098
-23.5614
-0.104763
-14.9362
-80.1622
-45.1582
-171.916
-260.713
-354.383
-237.665
-301.006
-257.392
-193.406
-140.957
-115.473
-57.1153
-166.095
-37.2528
-223.369
-121.353
-38.0548
-13.7719
-26.2442
-107.998
-280.97
-126.626
-45.9576
-131.857
-47.4518
-257.963
-348.836
-307.787
-359.855
-270.161
-293.088
-281.445
-275.376
-302.063
-224.986
-357.102
-195.929
-283.635
-320.678
-242.392
-259.554
-147.725
-204.65
-183.412
-247.803
-260.864
-229.877
-381.002
-328.348
-215.312
-484.354
-234.731
-381.252
-195.643
-205.693
-345.608
-216.818
-32.5658
-116.531
-71.7689
-125.444
-112.179
-108.988
-228.213
-226.499
-239.445
-200.384
-256.279
-261.702
-180.522
-220.994
-129.778
-190.192
-145.305
-253.511
-190.847
-87.5513
-334.712
-152.616
-326.953
-192.305
-433.098
-145.475
-333.625
-368.202
-163.144
-279.907
-135.294
-209.186
-144.279
-287.114
-122.575
-240.963
-139.69
-644.022
-697.813
-774.764
-708.69
-623.349
-786.828
-730.037
-656.033
-704.617
-798.682
-751.791
-663.633
-793.516
-748.224
-653.888
-644.509
-590.902
-343
-592.717
-638.98
-643.102
-601.867
-343.018
-600.209
-858.279
-843.746
-922.362
-1148.38
-944.245
-815.051
-834.13
-965.334
-1168.2
-953.138
-863.319
-875.755
-963.633
-1103.7
-959.197
-889.311
-882.528
-963.999
-1128.8
-961.525
-663.211
-677.192
-626.593
-343.878
-623.485
-691.449
-685.541
-612.18
-346.2
-614.977
-183.519
-173.078
-159.897
-109.494
-111.883
-85.7461
-6.94937
-82.9664
-79.9218
-6.24528
-82.1505
49.7876
43.3186
-9.08862
46.151
-8.20402
48.9367
46.8838
-11.6855
5.63339
0.842226
13.3517
-13.7298
2.22473
14.2319
12.0005
9.96332
6.75308
28.8623
6.86295
13.2174
20.3237
-269.28
-252.813
-384.339
-302.87
-309.544
-254.958
-249.659
-813.087
-928.485
-893.746
-890.142
-820.208
-804.106
-827.499
-365.113
-296.141
-179.05
-233.039
-504.956
-362.631
-254.751
-54.168
-55.4079
-48.4459
-54.0909
-42.1232
-45.7707
-623.203
-607.934
-691.736
-673.58
-675.321
-689.721
-617.626
-642.833
-622.966
-692.715
-706.52
-642.016
-695.612
-711.311
-278.142
-453.168
39.328
35.6938
16.9897
15.5086
44.4174
-64.1894
-84.7658
-74.8774
-116.362
-135.882
-104.245
-633.045
-605.272
-722.059
-700.608
-643.71
-697.421
-726.224
-637.335
-624.123
-696.048
-712.79
-640.887
-690.937
-708.77
8.03145
-2.5953
9.38862
-893.66
-873.231
-1081.16
-1009.87
-797.09
-850.712
-768.831
-849.664
-827.312
-884.211
-842.787
-720.49
-717.783
-792.42
-776.478
-784.541
-768.259
-723.649
-1022.94
-938.85
-862.41
-861.548
-803.209
-751.847
-686.016
-693.62
-26.9381
-53.4922
-23.3123
-48.6474
-16.6854
-18.7481
2.32093
-12.4912
2.03681
-29.8345
-37.0677
-19.2047
14.6855
-16.4814
12.4364
-10.2138
-38.1549
-5.95027
-575.181
-583.954
-606.381
-604.337
-738.603
-745.106
-764.239
-758.185
-609.166
-682.019
-588.301
-666.645
-612.346
-684.81
-666.621
-738.183
-733.186
-572.796
-566.656
-24.2136
20.0174
12.6714
-3.09897
15.326
-157.725
-236.264
-284.602
-293.173
-268.724
-217.455
-278.603
-285.493
-234.449
-162.238
-97.4756
-115.132
-36.6206
-80.5808
-48.6871
-139.947
-100.937
-106.779
-75.2508
-117.047
-58.3491
-676.857
-664.83
-745.798
-718.412
-659.338
-743.467
-726.23
-726.661
-714.069
-783.154
-769.307
-725.759
-790.462
-774.508
-593.042
-576.458
-597.389
-598.984
-798.687
-781.99
-764.478
-766.132
-799.915
-821.19
-855.018
-849.904
-606.337
-631.578
-699.748
-693.557
3.09777
-8.55779
4.33818
7.45317
-4.56789
7.38959
-4.77899
23.2634
23.167
16.4818
-11.4437
16.8726
-6.89549
22.4012
21.1581
20.388
48.8162
74.5754
17.912
19.7389
-1.99531
-13.4913
5.30958
-184.277
-188.926
-161.577
-165.699
-184.701
-165.736
-186.474
-185.505
-167.525
-165.609
-183.608
-168.061
-184.137
-184.906
-189.577
-179.682
-177.773
-189.839
44.6264
74.732
85.8922
-0.395192
-1.20375
1.0369
-2.61551
-18.891
2.62388
50.4043
22.8571
30.119
27.6295
13.5751
37.793
28.4298
15.1467
33.5894
72.0311
20.7194
-196.746
-193.405
-158.51
-169.09
-188.951
-158.44
-199.008
-207.238
-164.337
-211.46
-173.69
-209.933
-163.744
-206.373
-195.908
-201.497
-208.816
-212.155
-231.644
-309.714
-237.261
-269.315
-189.3
-244.085
-248.45
-179.528
-98.2627
-255.659
-141.447
-174.442
-260.039
-95.6002
-257.716
-354.668
-249.07
-276.744
-246.504
-269.519
-294.481
-178.137
-171.455
-71.8604
-148.219
-152.928
-244.072
-96.1765
-449.039
-1128.06
-520.793
-475.178
-587.901
-403.284
-422.388
-301.428
-337.233
-310.168
-331.212
-272.641
-315.141
-313.185
-237.202
-244.789
-216.267
-190.191
-249.434
-237.968
-219.028
-278.162
-299.856
-233.392
-290.689
-289.156
-248.474
-285.07
-251.092
-261.884
-194.071
-255.019
-248.017
-231.051
-259.813
-139.903
-138.455
-117.433
-118.103
-138.23
-118.891
-139.777
-141.236
-122.436
-143.987
-119.824
-143.684
-120.137
-141.633
-171.561
-207.795
-151.358
-134.412
-155.255
-169.833
-180.543
-148.978
-89.9059
-240.247
-113.936
-159.15
-210.778
-84.2571
-213.52
-244.487
-231.067
-258.604
-228.734
-211.959
-216.618
-120.158
-135.924
-59.7829
-93.375
-107.398
-178.157
-68.1666
-281.78
-304.642
-309.046
-291.994
-284.929
-280.236
-290.992
-258.674
-246.377
-226.988
-241.314
-246.074
-254.099
-249.375
-287.069
-278.909
-237.3
-276.997
-277.933
-254.905
-290.466
-259.224
-312.369
-280.513
-277.828
-264.337
-283.194
-275.927
-210.999
-215.571
-190.324
-210.453
-209.247
-209.651
-186.697
-206.265
-222.576
-192.665
-215.379
-209.447
-190.676
-222.067
-192.276
-163.058
-220.575
-180.666
-189.322
-167.363
-179.405
-238.216
-334.278
-278.142
-244.762
-286.694
-258.687
-231.055
-233.316
-223.549
-248.837
-222.865
-233.998
-226.757
-246.839
-252.573
-335.144
-296.263
-271.819
-248.986
-294.643
-274.392
-222.79
-243.627
-229.2
-206.748
-214.365
-245.269
-218.896
-155.429
-156.193
-157.679
-155.532
-155.719
-153.614
-152.366
-153.701
-135.87
-137.219
-116.492
-114.673
-137.365
-115.042
-136.252
-135.151
-113.118
-134.335
-113.672
-133.931
-114.244
-135.215
-630.271
-948.725
-534.169
-709.553
-360.977
-812.138
-897.467
-290.277
-288.264
-350.998
-487.909
-283.917
-263.39
-250.211
107.123
-96.8189
-83.6817
-161.334
-138.392
-161.498
-96.8465
-79.1348
-51.3303
-44.9737
-45.2918
-89.6513
-156.462
-137.148
-75.9007
-159.205
-89.8651
-76.3668
-175.911
-169.544
-150.262
-154.852
-156.817
-170.476
-174.681
-179.827
-165.398
-181.517
-159.377
-182.52
-161.66
-178.716
-55.3402
-49.2487
-49.2871
-84.2919
-66.5634
-141.399
-126.839
-146.403
-85.0649
-72.3355
-92.0506
-153.654
-77.759
-131
-92.4964
-149.688
-76.2413
-628.617
-608.446
-683.343
-696.631
-633.233
-682.083
-699.719
-641.458
-627.384
-690.351
-706.477
-638.285
-691.02
-703.331
-124.377
-274.078
-201.565
-176.035
24.4609
27.9694
-2.26638
28.6983
9.86501
63.6974
9.98962
18.5139
24.0695
-12.1823
-16.8406
8.24428
28.2245
-6.71512
10.3514
-23.0815
-23.8613
33.7871
32.1687
-33.142
11.7153
68.6543
10.0548
55.5978
18.7362
3.61803
-57.4697
-55.0403
-5.29519
36.2615
-32.7838
7.45183
-28.7029
-54.8585
-8.92788
-38.406
0.353941
3.16458
37.1202
26.1023
21.8453
22.2834
18.3837
18.791
31.6682
-2.04811
18.3914
-16.0101
14.6071
-5.60831
9.11989
5.43273
-22.3144
5.70718
-9.0986
-17.8098
1.54911
-14.0264
-33.2321
-20.4082
-35.5764
41.8339
-10.1733
-0.501956
-3.90173
-36.8495
-237.273
-226.621
-178.012
-200.139
-191.71
-219.399
-233.055
-214.405
-173.569
-219.858
-186.521
-221.245
-168.656
-220.912
-108.784
-90.3286
-162.499
-142.703
-161.71
-109.895
-94.6608
-100.156
-85.5392
-82.0748
-111.028
-169.347
-145.828
-96.1692
-166.744
-109.694
-97.122
-124.958
-121.742
-181.226
-172.803
-195.812
-130.784
-118.042
-126.645
-87.6626
-90.0627
-111.383
-175.61
-157.428
-98.9778
-178.003
-106.977
-99.2901
-626.532
-607.541
-689.51
-714.143
-626.407
-686.293
-712.352
-633.344
-611.907
-685.134
-708.898
-627.725
-693.382
-712.575
-188.103
-199.438
-211.771
-207.38
-149.552
-147.659
-146.779
-147.393
-128.907
-130.029
-109.229
-108.055
-108.352
-129.784
-129.389
-128.384
-107.055
-128.119
-107.369
-127.7
-107.695
-128.715
-33.2347
-19.7258
-99.5102
-78.4776
-98.5229
-35.0241
-18.645
-1.76487
10.1925
-32.0792
-77.7793
-97.7924
-17.8453
-360.746
-933.688
-922.13
-819.215
-586.793
-907.69
-726.272
-706.283
-930.373
-938.501
-644.413
-730.727
-446.943
-846.358
-278.843
-970.245
-306.466
-167.631
-368.497
36.4923
-321.27
-370.335
-367.107
-144.805
-0.317688
-113.755
-249.16
-218.042
-152.974
-118.531
-314.275
-383.841
-340.565
-306.83
-309.842
-391.022
-298.977
-349.846
-335.068
-402.927
-359.403
-383.68
-345.247
-340.949
-368.706
-390.92
-425.678
-364.237
-408.205
-362.953
-362.913
-316.045
-367.402
-305.048
-351.79
-325.929
-382.809
-304.496
-343.324
-8.73208
-359.707
-317.283
22.3595
-407.126
-247.054
-335.177
-317.275
-190.515
6.78066
-319.474
10.5278
-313.163
-311.503
-402.231
-517.291
-286.849
-268.261
-139.71
-298.591
-358.915
-405.712
-371.538
-335.489
-76.5779
-321.601
-306.024
-669.849
811.429
-627.781
-190.128
-395.801
-218.691
-500.548
-196.184
-296.181
-863.119
-590.696
-614.739
-236.749
-253.609
151.098
-304.785
-1115.56
-867.175
-1055.96
-944.571
-992.754
-99.1778
-1047.12
-236.496
-875.598
-445.487
-1143.16
-999.017
-534.799
244.143
561.559
-384.79
-515.861
520.233
-421.978
-424.88
-271.33
-252.747
-388.293
-406.808
-625.337
-361.126
-393.165
1038.62
-838.762
-593.435
-866.792
-284.628
-263.115
-394.029
-499.517
-487.347
-422.81
-382.685
-489.737
-417.816
-348.65
-302.144
-446.444
-252.356
-370.328
-330.304
-312.301
-387.61
-484.605
-494.698
-423.356
-485.494
-423.085
-377.837
-777.393
-1765.15
-1327.57
-258.373
-1119.28
1408.66
2283.41
-1705.98
-395.089
151.064
-531.453
-317.107
-28.2427
-421.38
-351.46
-374.57
-361.73
-162.081
-29.4719
-341.75
115.6
-371.958
-360.443
-82.5058
-353.968
-291.818
-276.475
84.4806
-357.302
-328.393
-441.034
-455.857
-386.351
-373.068
-364.605
-371.184
-759.458
-766.09
-829.761
-799.68
-745.913
-805.428
-798.466
-724.522
-707.539
-788.81
-774.9
-731.051
-804.233
-779.571
-1012.4
-1050.38
-990.043
-1029.01
-1041.91
-895.138
-925.097
-1013.3
-945.856
-967.065
-959.231
-1021.67
-1315.06
-1434.86
-1437.61
-1302.88
-1323.07
-1422.62
-1307.57
-1462.44
-1255.23
-1084.02
-1183.34
-1464.89
-1271.63
-1474.41
-1303.43
-1296.25
-893.293
-873.086
-918.333
-896.576
-958.303
-919.824
-966.119
-991.178
-940.286
-911.331
-936.905
-980.351
-368.497
-434.357
-377.495
-375.439
-359.409
-407.808
-385.442
-354.19
-342.305
-403.998
-364.402
-356.435
-393.691
-340.12
-381.662
-436.975
-425.518
-392.583
-381.316
-417.431
-393.535
-336.141
-337.329
-328.095
-340.298
-327.232
-375.947
-327.506
-358.38
-444.752
-340.743
-363.762
-343.096
-376.347
-381.479
-326.04
-305.949
-401.15
-275.649
-336.882
-343.673
-293.325
-379.875
-467.851
-458.644
-415.763
-384.329
-411.035
-405.219
-301.115
-284.998
-270.324
-253.346
-282.738
-311.517
-283
-415.732
-443.055
-453.624
-399.854
-435.263
-405.426
-407.473
-357.174
-360.855
-373.894
-374.37
-318.412
-311.368
-437.116
-390.264
-444.069
-432.343
-384.812
-373.096
-431.782
-394.944
-414.455
-463.529
-419.586
-404.003
-400.806
-434.483
-412.311
-703.061
-729.707
-868.594
-803.213
-832.335
-698.109
-876.332
-800.934
-827.14
-837.719
-813.71
-755.217
-675.442
-754.958
-817.677
-809.878
-527.476
-690.217
-681.251
-535.67
-444.295
-202.987
-449.922
-205.629
-527.047
-696.864
-691.147
-537.092
-442.32
-212.006
-448.796
-200.818
-687.387
-675.293
-791.577
-734.845
-684.82
-794.083
-728.421
-794.384
-785.509
-790.998
-801.676
-743.053
-687.211
-739.827
-796.335
-796.957
-508.96
-712.747
-685.847
-536.29
-468.387
-228.394
-442.871
-222.098
-555.336
-692.407
-536.208
-668.809
-446.19
-210.232
-454.571
-210.72
-2.20927
9.1169
2.74963
-49.3556
-19.9466
-19.8405
16.8599
6.77987
5.77362
-50.1997
-19.3389
-21.0461
11.4217
17.4129
7.59791
7.22191
18.9801
6.26037
-157.223
-163.631
-143.476
-136.053
-164.234
-135.576
-157.591
-151.167
-125.027
-147.476
-130.113
-146.516
-129.757
-151.944
-41.7842
-25.6073
-108.008
-87.9956
-109.445
-41.3221
-25.8473
-14.5211
-1.2293
1.5045
-41.4631
-113.731
-89.6305
-29.1329
-110.958
-45.8142
-26.8551
-60.4742
-56.734
-136.22
-106.993
-70.5517
-127.732
-46.1491
-28.8901
-4.16086
-10.2735
-52.9006
-116.4
-100.528
-32.2645
-122.033
-46.2113
-38.1445
38.9032
38.3739
36.0142
-19.0402
8.09181
10.2838
37.2316
32.7056
34.2276
16.3506
27.4073
20.319
-31.8875
4.54628
-0.40015
29.5148
29.804
24.4676
-595.357
-588.286
-679.372
-634.751
-621.442
-691.49
-634.804
-695.264
-674.304
-684.019
-702.01
-643.926
-624.514
-639.606
-687.001
-699.443
-491.151
-619.212
-621.044
-489.151
-422.874
-206.349
-425.785
-204.826
-491.784
-623.737
-622.926
-493.811
-422.518
-205.582
-421.016
-205.282
-599.408
-605.056
-697.698
-652.495
-633.018
-710.916
-651.616
-710.794
-697.481
-695.383
-705.416
-649.309
-631.376
-648.834
-691.341
-708.5
-484.149
-617.65
-613.963
-488.255
-416.383
-207.399
-415.152
-206.488
-483.156
-605.385
-608.544
-480.127
-417.674
-206.198
-420.533
-205.732
-752.826
-746.077
-815.934
-793.375
-881.637
-814.887
-884.122
-884.547
-818.84
-797.3
-821.002
-880.891
-1336.57
-1488.28
-1347.42
-1477.79
-1330.97
-1471.95
-1330.18
-1472.04
-752.551
-758.227
-831.739
-806.219
-893.244
-830.405
-884.081
-879.1
-825.065
-800.506
-823.483
-884.021
-1349.77
-1491.82
-1354.6
-1487.17
-1343.25
-1475.38
-1337.37
-1481.89
-810.784
-883.886
-789.326
-811.278
-881.955
-1360.24
-1495.09
-1358.21
-1496.3
-668.757
-629.028
-688.127
-615.535
-671.099
-625.827
-686.313
-413.635
-208.181
-414.937
-208.419
-477.615
-604.104
-479.721
-601.351
-413.332
-209.133
-871.037
-656.043
-250.296
-1783.24
-151.169
1403.12
-1662.56
-1408.66
-1408.33
-1396.66
-1430.79
-1073.44
-1428.14
-1447.93
-1279.27
-379.692
647.169
-342.039
-230.452
-344.691
-1462.53
-1476.97
-1510.65
-1495.26
-1532.52
-1538.81
-1527.98
-1536.67
-1393.29
-1390.5
-1408.32
-1394.96
-1516.12
-1493.66
-1436.59
-1463.78
-84.403
-79.9253
-102.751
-99.0657
-104.06
-85.3327
-57.8264
-33.1376
-52.6669
-31.2966
6.20499
-18.2581
-41.502
-27.399
-51.0258
-99.2882
-40.5893
-24.5865
-73.1858
-57.2997
-31.07
-211.151
-218.234
-199.774
-191.796
-209.337
-244.408
-194.003
-291.775
-302.079
-332.389
-322.244
-303.855
-293.42
-296.468
-257.795
-253.521
-277.015
-323.868
-258.659
-273.871
-279.259
-243.63
-219.673
-297.771
-240.473
-262.061
-227.787
-251.627
-127.832
-97.26
-169.222
-135.382
-122.888
-119.058
-141.214
-112.029
-116.697
-84.2968
-145.946
-95.6931
-116.237
-130.283
-80.5448
-72.3016
-50.0057
-52.669
-70.0714
-95.2549
-66.8973
-161.23
-188.355
-172.193
-187.47
-140.686
-173.455
-179.12
-37.5635
-72.6394
-55.99
-18.2705
-48.4114
-23.7331
-59.4968
-17.0645
1.62005
-21.4989
-11.5244
-3.58873
-30.2013
8.75593
-52.3926
-7.22276
-64.4765
-28.0508
-24.2865
-94.5831
-30.2183
-13.472
-46.7653
-354.583
-385.966
-209.7
-95.9905
-195.527
-85.7254
-183.315
-229.282
-134.858
-304.626
-234.316
-327.621
-241.566
-312.567
-227.448
-271.123
-114.848
-96.2818
-163.016
-126.611
-82.0795
-158.685
-125.118
-110.757
-97.5588
-178.938
-91.5783
-156.03
-131.834
-165.492
-199.574
-223.165
-194.96
-172.209
-184.478
-170.749
-89.0957
-24.2097
-53.9848
-63.3768
-104.202
-53.6549
-288.255
-334.287
-337.797
-295.595
-294.906
-348.844
-282.838
-323.652
-310.104
-351.684
-336.799
-316.7
-311.593
-340.347
-314.75
-306.615
-307.645
-331.019
-316.945
-303.961
-335.036
-288.602
-298.096
-321.7
-260.544
-270.117
-335.854
-280.243
-311.623
-292.617
-317.996
-287.298
-292.676
-318.239
-294.307
-292.826
-331.283
-348.53
-349.584
-315.115
-337.687
-298.295
-278.311
-265.926
-305.708
-247.033
-259.469
-309.3
-267.617
-307.906
-332.004
-288.442
-336.217
-283.838
-340.074
-305.715
-187.097
-156.01
-173.281
-193.277
-163.593
-170.468
-196.623
-224.963
-245.427
-197.439
-209.635
-209.198
-204.73
-228.405
-223.348
-203.36
-232.908
-218.016
-205.223
-203.068
-248.106
-164.798
-584.441
-410.395
-382.078
-435.371
-633.685
-143.517
-169
-255.699
-210.734
-228.395
-288.933
-97.7719
-270.09
-144.291
-411.869
-439.126
-239.738
-450.911
-316.276
-716.74
-268.223
-314.024
-256.995
-222.359
-337.328
-191.555
-260.709
-143.289
-529.74
-358.432
-363.307
-463.326
-149.87
-331.411
-35.6689
-167.672
-218.625
-214.746
-179.229
-111.26
-185.741
-133.73
-135.117
-283.035
-211.206
-288.86
-133.313
-154.209
-214.823
-360.38
-318.237
-274.715
-384.805
-305.154
-323.295
-146.828
-296.196
-207.89
-211.99
-182.246
-295.42
-181.557
-15.3319
-37.1742
-25.9706
-98.5347
-81.36
-64.7106
-59.5887
-56.5669
-40.559
-134.371
-92.0257
-100.91
-88.4507
-120.223
-88.7076
-72.8061
-118.441
-83.0057
-247.619
-238.853
-222.755
-208.086
-234.87
-231.266
-182.881
-157.389
-190.163
-186.898
-206.023
-173.83
-159.144
-186.81
-139.457
-86.7847
-150.165
-127.99
-152.683
-135.775
-115.389
-147.564
-160.907
-166.476
-143.267
-160.306
-137.467
-149.217
-151.31
-184.458
-134.43
-102.922
-166.554
-155.902
-125.372
-241.783
-275.057
-206.879
-226.034
-225.411
-240.466
-218.571
-123.418
-118.522
-268.167
-180.64
-122.883
-257.841
-107.421
-104.632
-51.2854
-53.3344
-264.174
-298.009
-282.577
-268.876
-291.959
-250.787
-257.52
-124.73
-207.427
-160.838
-89.8624
-228.655
-148.417
-99.9227
-272.251
-349.305
-285.371
-255.592
-275.184
-270.195
-253.939
-288.984
-421.639
-326.002
-551.948
-296.671
-451.085
-283.508
-218.999
-255.598
-235.42
-228.725
-212.678
-207.086
-232.308
-168.041
-82.6432
-160.03
-143.425
-173.049
-150.811
-91.2929
-203.01
-226.971
-189.298
-165.665
-205.946
-177.206
-181.007
-179.845
-184.931
-146.195
-132.144
-175.783
-177.372
-109.812
-255.584
-275.932
-260.338
-237.981
-270.102
-232.962
-260.193
-285.174
-267.195
-398.225
-279.04
-361.213
-309.385
-252.72
-692.92
-674.272
-765.263
-750.019
-706.311
-765.896
-743.635
-723.508
-718.38
-780.982
-763.865
-717.516
-779.079
-765.585
-563.944
-574.316
-695.358
-662.772
-647.034
-726.137
-656.315
-719.889
-704.572
-688.35
-710.107
-653.089
-643.066
-648.123
-683.276
-712.85
-499.327
-623.259
-623.187
-502.796
-428.468
-205.565
-425.716
-207.144
-497.413
-622.481
-495.111
-622.184
-428.813
-209.065
-432.675
-205.159
-586.421
-584.361
-695.636
-654.831
-637.509
-711.338
-649.444
-695.748
-711.42
-692.169
-709.297
-647.405
-637.088
-650.852
-690.453
-711.666
-509.03
-621.939
-625.04
-504.713
-436.306
-208.717
-437.753
-203.2
-509.904
-640
-632.967
-514.307
-434.996
-204.88
-432.569
-209.022
-777.794
-779.06
-875.621
-856.785
-967.047
-876.872
-962.26
-952.68
-862.335
-850.225
-867.588
-960.941
-1382.45
-1502.44
-1362.6
-1520.79
-1404.3
-1560.23
-1540.21
-1425.86
-769.076
-769.26
-838.139
-819
-900.91
-842.545
-910.837
-932.652
-856.037
-826.303
-847.289
-923.736
-1463.57
-1586.41
-1596.32
-1458.09
-1463.64
-1580
-1590.21
-1448.23
-835.852
-823.723
-889.617
-865.049
-955.848
-886.051
-958.114
-945.925
-896.525
-870.117
-897.546
-945.643
-1284.93
-1418.72
-1285.91
-1415.04
-1286.53
-1440.55
-1420.32
-1306.33
-841.737
-845.408
-910.205
-951.691
-887.939
-908.202
-946.963
-948.069
-902.059
-886.166
-903.51
-944.044
-1409.3
-1570.7
-1541.23
-1439.73
-1378.67
-1471.09
-1508.37
-1338.07
-668.731
-649.387
-731.12
-678.624
-662.038
-736.516
-683.561
-715.357
-746.849
-745.189
-766.735
-706.778
-670.086
-698.068
-757.217
-758.696
-538.773
-682.34
-686.848
-531.687
-452.72
-211.206
-454.101
-205.532
-540.076
-696.73
-542.678
-692.885
-452.151
-203.869
-447.385
-209.694
-680.561
-693.406
-780.88
-729.385
-790.656
-686.399
-783.713
-729.271
-788.205
-777.024
-775.984
-720.53
-683.365
-721.209
-766.916
-782.059
-521.147
-676.669
-666.942
-530.302
-439.282
-201.187
-438.085
-206.831
-520.449
-644.85
-514.223
-654.459
-441.709
-208.925
-446.635
-200.769
-177.707
-168.372
-158.325
-161.814
-149.616
-150.382
-152.735
-150.419
-131.299
-130.827
-109.864
-110.234
-130.391
-110.607
-131.602
-132.09
-112.439
-133.358
-111.071
-133.252
-111.385
-132.523
-38.7484
-24.8203
-106.853
-84.7219
-105.299
-40.6904
-23.7597
-7.32093
5.1293
5.14525
-37.6251
-103.388
-83.7615
-22.681
-104.327
-37.9385
-22.9152
-35.0604
-20.2736
-100.098
-80.5712
-35.3132
-100.722
-20.4573
-5.27609
5.71732
6.91175
-35.6158
-102.675
-81.3356
-22.0732
-101.539
-37.4417
-21.0707
-3.96765
24.0641
47.0452
48.8057
46.3325
49.6821
47.2074
40.523
42.9078
40.3354
-10.0165
19.585
18.339
44.1816
43.5077
41.6997
-7.66148
20.5331
20.5015
46.2139
46.4744
44.2936
44.3881
46.2429
43.7804
-1449.33
-1440.58
-1433.81
-1435.19
-1448.63
-1445.77
-1437.14
-1440.88
-1451.58
-1452.22
-1451.47
-218.674
-200.2
-208.208
-197.189
-229.916
-196.744
-197.389
-260.935
-210.621
-204.972
-199.501
-245.931
-200.771
-210.21
-172.477
-164.713
-150.506
-150.153
-151.512
-170.797
-151.411
-168.6
-162.554
-149.067
-148.927
-170.044
-148.025
-148.015
-490.749
-722.901
-291.483
-543.627
-588.145
-487.723
-548.768
-207.281
-200.829
-182.279
-180.575
-187.518
-203.775
-185.636
-566.775
-580.88
-708.393
-671.367
-569.344
-580.199
-703.748
-561.974
-697.689
-667.962
-572.895
-574.778
-700.376
-556.068
-565.036
-297.081
-245.399
-150.748
-253.213
-266.726
-292.818
-242.513
-571.02
-582.041
-716.172
-697.791
-569.896
-579.168
-726.531
-573.509
-747.826
-572.509
-706.105
-576.2
-583.702
-738.251
-161.379
-156.242
-141.458
-141.767
-140.765
-162.308
-141.149
-563.553
-563.872
-558.283
-559.58
-633.297
-551.898
-743.743
-777.434
-792.434
-555.854
-628.305
-631.952
-814.554
-544.13
-749.856
-624.681
-810.12
-562.178
-191.191
-181.328
-173.723
-174.591
-197.941
-167.843
-168.658
-694.096
-568.591
-551.553
-243.097
-140.25
-258.762
-150.357
-272.524
-254.833
-152.698
-159.833
-279.811
-340.674
-295.287
-335.149
-411.931
-310.148
-227.294
-115.51
-299.515
-163.837
-248.924
-358.385
-116.512
-622.612
-561.419
-769.641
-716.18
-629.971
-567.641
-763.792
-612.56
-754.165
-571.994
-714.828
-596.889
-571.607
-759.301
-163.892
-158.138
-142.411
-142.586
-162.827
-142.767
-143.345
-554.455
-213.886
-208.489
-196.207
-194.16
-198.571
-210.372
-195.497
16.5462
18.4665
28.7828
-16.1167
3.38751
25.7067
-2.29564
-273.637
-214.519
-203.825
-221.185
-210.243
-278.978
-216.917
-173.884
-166.089
-155.2
-155.514
-153.146
-176.588
-153.239
-167.981
-161.444
-146.231
-146.149
-146.696
-166.817
-146.971
-209.109
-206.537
-195.384
-192.234
-209.83
-193.376
-189.601
-283.76
-230.495
-223.95
-229.388
-289.498
-198.046
-229.616
-161.029
-155.381
-139.859
-139.922
-160.405
-139.953
-140.471
-711.465
-909.913
-887.944
-1028.38
-790.772
-969.983
-1090.55
-910.616
-470.35
-957.838
-369.237
-682.274
-1011.21
-841.074
-1100.68
-1022.02
-970.778
-1066.71
-1027.67
-1076.45
-1092.24
-1110.2
-1087.55
-1043.32
-979.225
-1037.73
-1104.31
-1087.6
-1105.75
-1059.07
-1068.07
-1016.49
-1055.53
-1046.71
-1121.79
-1091.88
-1090.98
-997.322
-1035.43
-1031.14
-1099.37
-1105.39
-184.759
-173.974
-157.863
-158.89
-179.668
-161.238
-163.196
-1088.45
-993.288
-910.841
-1045.13
-989.062
-1036.29
-1096.69
-1083
-1030.78
-905.531
-983.233
-984.253
-1032.68
-1083.4
-1096.95
-986.543
-901.103
-1045.25
-986.483
-1043.45
-1100.78
-1092.39
-1036.48
-902.494
-983.316
-984.696
-1038.41
-1087.32
-1104.57
-987.1
-1047.85
-898.263
-1103.35
-986.734
-1047.98
-1103.57
-896.323
-985.277
-210.656
-144.257
-265.72
-103.834
-312.72
-188.283
-114.895
-267.28
-220.092
-365.407
-329.281
-392.997
-196.267
-241.716
-147.231
-82.5021
-218.404
-90.5965
-196.046
-190.016
-75.9301
-1126.3
-1004.02
-927.238
-1057.36
-1012.12
-1110.7
-1072.12
-1146.29
-1107.81
-937.404
-1036.05
-1026.26
-1090.94
-1165.06
-1199.39
-1060.33
-963.583
-1140.65
-1060.19
-1143.03
-1193.95
-1196.7
-1129.03
-958.889
-1049.01
-1056.41
-1140.39
-1185.27
-1075.41
-1015.96
-1054.37
-960.055
-1079.53
-1012.88
-1050.29
-1076.51
-1055.82
-960.861
-1016.16
-1014.1
-1049.07
-1087.81
-1160.51
-1052.86
-964.305
-1127.81
-1048.31
-1179.8
-1113.46
-1134.43
-1073.08
-960.543
-1027.65
-1034.04
-1090.37
-1109.82
-164.779
-159.293
-145.121
-145.139
-166.14
-144.126
-144.313
)
;

boundaryField
{
    left
    {
        type            calculated;
        value           nonuniform List<scalar> 
703
(
-204.906
-206.887
7.13872
-225.604
-227.458
-206.431
11.0617
-238.596
-235.211
-111.489
-162.975
-181.011
-182.502
-204.253
-307.645
-208.825
-97.8811
-237.762
-162.017
-197.961
-244.097
-191.224
-195.506
-77.8855
-76.7681
-217.197
-173.71
-174.249
-219.617
-86.7569
-156.841
-233.447
12.5008
-57.0379
-5.07502
-22.8235
-155.479
-319.881
-269.612
-289.561
-339.111
-318.354
-308.341
-86.2107
-254.38
-321.925
-31.9661
-62.2194
-185.811
-37.8929
-13.5459
-53.4461
-50.7432
-183.621
-305.116
-175.789
-201.407
-123.824
-63.5266
-257.373
-131.253
-317.99
-186.372
-283.929
-58.1615
-286.715
-104.637
-14.8232
-57.0423
-149.883
-303.891
22.6392
-99.8245
-3.83976
-11.0217
-4.97346
-156.363
-23.687
-29.9197
-207.899
-162.534
-163.152
5.83822
74.8512
-225.95
-229.535
-163.435
-172.599
-209.233
11.7178
25.2246
11.1981
-293.488
-317.851
-207.725
-279.255
-312.115
-245.371
-116.68
-194.75
-200.268
-114.231
-119.708
-166.576
-198.295
-179.271
-184.26
-202.049
-171.368
-170.035
-182.476
-193.123
-218.007
-183.314
-137.997
-70.9731
-241.692
-258.224
-266.692
-159.684
-110.137
-113.246
-204.395
-242.283
-230.137
-146.535
-160.55
-207.637
-68.0104
-139.418
-126.834
-146.072
-141.787
-68.2886
128.595
-224.01
-172.783
-230.791
-143.893
-154.748
-148.255
-177.876
-160.312
-146.093
-218.108
-179.837
-196.313
6.39536
20.106
19.6407
-23.3165
-1.1227
-22.1622
24.4605
1.65178
-85.2452
-153.692
-106.23
-377.174
-367.733
-326.48
-260.653
-307.067
-341.067
-421.595
-354.516