/*--------------------------------*- C++ -*----------------------------------*\
| =========                 |                                                 |
| \\      /  F ield         | OpenFOAM: The Open Source CFD Toolbox           |
|  \\    /   O peration     | Version:  2012                                  |
|   \\  /    A nd           | Website:  www.openfoam.com                      |
|    \\/     M anipulation  |                                                 |
\*---------------------------------------------------------------------------*/
FoamFile
{
    version     2.0;
    format      ascii;
    class       volVectorField;
    location    "0.107/solid";
    object      D_0;
}
// * * * * * * * * * * * * * * * * * * * * * * * * * * * * * * * * * * * * * //

dimensions      [0 1 0 0 0 0 0];


internalField   nonuniform List<vector> 
3125
(
(7.05039e-11 2.08261e-10 -4.09459e-12)
(6.08938e-11 1.96839e-10 -4.66391e-12)
(4.11598e-11 1.73495e-10 2.98209e-11)
(7.13327e-11 2.09548e-10 -4.28244e-12)
(6.26459e-11 1.98756e-10 -4.66166e-12)
(4.05646e-11 1.78778e-10 1.9417e-11)
(7.47174e-11 2.15309e-10 -5.69284e-12)
(6.77545e-11 2.04696e-10 -4.0765e-12)
(5.35477e-11 1.89724e-10 -2.331e-12)
(7.38786e-11 2.13434e-10 -5.19397e-12)
(6.66902e-11 2.03377e-10 -4.18478e-12)
(5.01073e-11 1.8701e-10 2.9825e-13)
(3.40715e-10 3.50658e-10 -4.18413e-12)
(5.13726e-11 1.3679e-10 -3.34333e-12)
(2.27002e-10 8.34176e-10 -8.79254e-12)
(6.96483e-11 2.07078e-10 -3.97872e-12)
(3.4782e-10 3.56114e-10 -4.40147e-12)
(2.23995e-10 8.28185e-10 -7.10285e-12)
(5.01794e-11 1.35797e-10 -3.29898e-12)
(2.94324e-10 3.20883e-10 1.63727e-12)
(3.89069e-11 1.2746e-10 -3.47932e-12)
(2.04292e-10 7.95585e-10 -8.12518e-12)
(5.88754e-11 1.94689e-10 -4.4353e-12)
(3.0986e-10 3.30458e-10 -1.6353e-12)
(1.9675e-10 7.83568e-10 -4.78734e-12)
(3.63413e-11 1.25754e-10 -3.21668e-12)
(2.54657e-10 2.78184e-10 1.08633e-10)
(5.843e-12 1.12269e-10 1.79501e-11)
(1.55505e-10 7.07791e-10 1.10841e-10)
(4.96585e-11 1.59314e-10 4.14599e-11)
(2.15538e-10 2.95206e-10 6.34176e-11)
(1.89533e-10 6.19473e-10 1.98884e-10)
(1.45389e-11 1.06079e-10 2.36245e-11)
(2.51444e-10 9.04921e-10 -8.05262e-12)
(2.54023e-10 9.11969e-10 -9.43769e-12)
(3.55307e-10 3.6206e-10 -4.89857e-12)
(7.21828e-11 2.10814e-10 -4.39009e-12)
(5.24851e-11 1.37818e-10 -3.54729e-12)
(2.27987e-10 8.36372e-10 -7.79343e-12)
(3.48204e-10 3.56328e-10 -4.64119e-12)
(2.30959e-10 8.43221e-10 -9.24543e-12)
(5.36768e-11 1.38879e-10 -3.6703e-12)
(2.50611e-10 9.02619e-10 -8.99421e-12)
(2.48069e-10 8.96318e-10 -7.40633e-12)
(2.32443e-10 8.6598e-10 -7.76942e-12)
(2.37531e-10 8.75482e-10 -9.02519e-12)
(3.22386e-10 3.38339e-10 -3.17277e-12)
(6.41747e-11 2.00457e-10 -4.50444e-12)
(4.11253e-11 1.28994e-10 -3.61288e-12)
(2.06466e-10 7.98727e-10 -7.25967e-12)
(3.10889e-10 3.30812e-10 -2.10227e-12)
(2.12082e-10 8.07999e-10 -8.6747e-12)
(4.30733e-11 1.30369e-10 -3.51823e-12)
(2.30566e-10 8.62752e-10 -8.56886e-12)
(2.23892e-10 8.50342e-10 -5.32953e-12)
(1.92769e-10 7.70712e-10 1.00753e-10)
(1.97237e-10 7.99986e-10 4.2876e-11)
(2.36142e-10 2.96854e-10 3.19743e-11)
(4.2856e-11 1.81735e-10 1.09957e-11)
(6.69913e-12 1.1435e-10 1.25682e-11)
(1.54738e-10 7.17977e-10 8.97515e-11)
(2.14792e-10 2.93774e-10 5.86391e-11)
(1.62552e-10 7.38419e-10 3.96498e-11)
(1.18981e-11 1.15792e-10 7.82689e-12)
(1.94224e-10 7.55706e-10 1.26878e-10)
(2.25809e-10 6.40234e-10 2.4202e-10)
(2.35722e-10 8.54985e-10 -1.03317e-11)
(5.74866e-11 1.42613e-10 -4.65497e-12)
(3.6443e-10 3.69704e-10 -5.87854e-12)
(2.68826e-10 1.10689e-09 -9.60585e-12)
(3.24196e-11 3.91486e-11 -1.96886e-12)
(2.86573e-11 3.74795e-11 -1.00326e-12)
(2.72466e-11 3.70102e-11 -1.47919e-12)
(2.59345e-10 1.08078e-09 -7.36613e-12)
(2.56067e-10 1.07377e-09 -6.7172e-12)
(3.40249e-10 3.50477e-10 -3.9738e-12)
(6.87345e-11 2.05926e-10 -3.96291e-12)
(2.1932e-10 8.19953e-10 -7.2828e-12)
(4.7684e-11 1.33815e-10 -3.31714e-12)
(2.22876e-10 8.2654e-10 -8.29786e-12)
(3.32699e-10 3.45022e-10 -3.91172e-12)
(4.89568e-11 1.34825e-10 -3.21594e-12)
(2.5098e-10 1.06329e-09 -6.75823e-12)
(2.54869e-10 1.0716e-09 -6.8891e-12)
(2.55074e-11 3.64014e-11 -1.4593e-12)
(2.70051e-11 3.6863e-11 -9.20983e-13)
(2.03191e-11 3.48049e-11 -8.20517e-13)
(1.75714e-11 3.41665e-11 -9.64186e-13)
(2.34604e-10 1.03193e-09 -5.39456e-12)
(2.26273e-10 1.01668e-09 -2.12583e-12)
(2.9277e-10 3.20416e-10 2.57252e-12)
(5.64742e-11 1.92312e-10 -3.74479e-12)
(1.83295e-10 7.64707e-10 4.26641e-12)
(2.91731e-11 1.2179e-10 -1.49007e-12)
(1.93764e-10 7.79548e-10 -4.58079e-12)
(2.70487e-10 3.08593e-10 1.06201e-11)
(3.32254e-11 1.23871e-10 -2.57322e-12)
(2.11244e-10 9.91993e-10 9.04879e-12)
(2.22981e-10 1.01116e-09 -5.08949e-13)
(1.22827e-11 3.31993e-11 4.69323e-14)
(1.69371e-11 3.39637e-11 -2.77293e-13)
(-8.93607e-12 3.01998e-11 4.83353e-12)
(1.72001e-12 2.64349e-11 5.29201e-12)
(1.729e-10 9.17758e-10 1.3964e-10)
(2.05266e-10 8.15637e-10 2.39257e-10)
(2.6467e-10 2.66079e-10 1.1929e-10)
(4.1357e-11 7.06792e-11 3.42311e-11)
(2.20242e-10 5.62499e-10 2.36065e-10)
(8.93117e-12 4.2502e-11 7.5089e-12)
(2.39831e-10 7.49297e-10 2.72603e-10)
(1.32484e-11 2.50715e-11 5.20355e-12)
(2.57419e-10 9.24516e-10 -1.04313e-11)
(2.56453e-10 9.20627e-10 -1.11639e-11)
(2.54622e-10 9.1334e-10 -8.47896e-12)
(3.55848e-10 3.62336e-10 -5.13001e-12)
(7.3046e-11 2.12001e-10 -4.6644e-12)
(2.34628e-10 8.51129e-10 -1.10351e-11)
(5.6435e-11 1.41243e-10 -4.23169e-12)
(3.64196e-10 3.69462e-10 -5.62878e-12)
(2.31922e-10 8.44469e-10 -8.15289e-12)
(5.50714e-11 1.39994e-10 -3.97502e-12)
(2.88939e-11 3.7636e-11 -1.58385e-12)
(3.03428e-11 3.81508e-11 -1.1533e-12)
(2.60406e-10 1.0839e-09 -7.43447e-12)
(2.637e-10 1.09291e-09 -7.79827e-12)
(2.67569e-10 1.10099e-09 -9.18252e-12)
(2.64706e-10 1.09427e-09 -7.61921e-12)
(3.21769e-11 3.89509e-11 -1.35108e-12)
(3.0574e-11 3.8333e-11 -1.77587e-12)
(2.43916e-10 8.87837e-10 -7.63066e-12)
(2.4715e-10 8.94619e-10 -8.51413e-12)
(2.42802e-10 8.85635e-10 -8.80336e-12)
(2.38949e-10 8.77923e-10 -7.89083e-12)
(3.23111e-10 3.3859e-10 -3.44528e-12)
(6.55106e-11 2.01977e-10 -4.34919e-12)
(2.18017e-10 8.17835e-10 -8.51785e-12)
(4.63121e-11 1.32746e-10 -3.33891e-12)
(3.3214e-10 3.44801e-10 -3.69838e-12)
(2.13731e-10 8.10382e-10 -7.47183e-12)
(4.47803e-11 1.31603e-10 -3.481e-12)
(2.0809e-11 3.49987e-11 -1.39285e-12)
(2.30514e-11 3.55774e-11 -9.35055e-13)
(2.36966e-10 1.03624e-09 -5.75891e-12)
(2.43117e-10 1.04792e-09 -6.69823e-12)
(2.49587e-10 1.06037e-09 -6.90821e-12)
(2.44898e-10 1.05116e-09 -6.61444e-12)
(2.52124e-11 3.62518e-11 -9.29319e-13)
(2.34228e-11 3.57445e-11 -1.46382e-12)
(2.0515e-10 1.10167e-09 -2.90402e-12)
(2.1265e-10 8.30424e-10 4.09612e-12)
(2.21387e-10 8.46218e-10 -5.00194e-12)
(1.93524e-10 1.07608e-09 8.64287e-12)
(2.02464e-10 1.09605e-09 -1.26554e-12)
(2.0957e-10 8.25211e-10 7.51899e-12)
(1.99975e-10 8.06406e-10 3.1853e-11)
(1.68302e-10 9.95275e-10 1.2533e-10)
(1.75757e-10 1.03479e-09 5.57601e-11)
(1.90114e-10 1.06892e-09 1.38644e-11)
(1.79297e-10 1.04382e-09 4.14195e-11)
(2.38976e-10 2.96705e-10 2.87654e-11)
(4.63807e-11 1.84321e-10 4.60632e-12)
(1.7927e-10 7.5993e-10 7.34643e-12)
(2.40811e-11 1.19608e-10 5.27564e-13)
(2.68025e-10 3.08084e-10 1.2468e-11)
(1.66706e-10 7.43431e-10 2.99499e-11)
(1.81284e-11 1.17527e-10 3.60084e-12)
(-8.6213e-12 3.08906e-11 4.32079e-12)
(5.14461e-13 3.18892e-11 3.39973e-12)
(1.7382e-10 9.30181e-10 1.11787e-10)
(1.8648e-10 9.56793e-10 5.19737e-11)
(2.06696e-10 9.85382e-10 1.39191e-11)
(1.91745e-10 9.63763e-10 3.91779e-11)
(1.07857e-11 3.29503e-11 9.89928e-13)
(2.92681e-12 3.21235e-11 2.23533e-12)
(1.68019e-10 9.75071e-10 1.59177e-10)
(1.96921e-10 8.33396e-10 2.87426e-10)
(6.69925e-11 6.85558e-11 4.85617e-11)
(2.57016e-10 5.71557e-10 2.91648e-10)
(2.29748e-10 7.50971e-10 3.31946e-10)
(1.41071e-10 1.73868e-10 1.36643e-10)
(3.7917e-11 1.13668e-11 5.05574e-11)
(2.15867e-10 1.81912e-10 2.34644e-10)
(2.03416e-11 1.65459e-11 2.40198e-11)
(4.51735e-11 7.04475e-12 6.33797e-11)
(2.48981e-10 1.70534e-10 2.75716e-10)
(1.5932e-10 4.05946e-10 -6.37852e-12)
(3.4413e-10 3.53267e-10 -4.15386e-12)
(2.46093e-10 5.38666e-10 -5.78959e-12)
(1.92039e-10 2.76921e-10 -5.20753e-12)
(1.93719e-10 2.78227e-10 -4.98847e-12)
(2.47646e-10 5.4035e-10 -6.61776e-12)
(1.57999e-10 4.04471e-10 -6.0278e-12)
(1.60461e-10 4.06834e-10 -6.20249e-12)
(3.44585e-10 3.53483e-10 -4.3802e-12)
(1.9662e-10 2.80362e-10 -5.15971e-12)
(2.50541e-10 5.43599e-10 -6.90341e-12)
(1.61643e-10 4.08431e-10 -6.60425e-12)
(1.95043e-10 2.78982e-10 -5.36199e-12)
(2.49113e-10 5.41773e-10 -5.99945e-12)
(1.31653e-10 3.80837e-10 -5.37756e-12)
(3.02031e-10 3.25707e-10 -1.76855e-14)
(2.09781e-10 5.03009e-10 -2.19627e-12)
(1.56757e-10 2.55402e-10 -2.76902e-12)
(1.60568e-10 2.57816e-10 -3.18548e-12)
(2.13471e-10 5.06537e-10 -3.9477e-12)
(1.28543e-10 3.77857e-10 -4.41445e-12)
(1.34198e-10 3.82565e-10 -5.57853e-12)
(3.03291e-10 3.26138e-10 -6.70974e-13)
(1.66697e-10 2.6132e-10 -4.11027e-12)
(2.19901e-10 5.12557e-10 -5.29414e-12)
(1.36798e-10 3.85235e-10 -6.16384e-12)
(1.63459e-10 2.59114e-10 -4.03505e-12)
(2.16787e-10 5.09413e-10 -4.02114e-12)
(8.4228e-11 3.42211e-10 7.83157e-11)
(2.28919e-10 2.94606e-10 8.50767e-11)
(1.80653e-10 4.34806e-10 1.35049e-10)
(1.05708e-10 2.21457e-10 7.02657e-11)
(8.89338e-11 2.31314e-10 5.89264e-11)
(1.61492e-10 4.54087e-10 1.14112e-10)
(1.02112e-10 3.24568e-10 9.56728e-11)
(7.66709e-11 3.47357e-10 6.70429e-11)
(2.21575e-10 2.93811e-10 7.89003e-11)
(8.5411e-11 2.36961e-10 4.36422e-11)
(1.4491e-10 4.65748e-10 8.07569e-11)
(7.38835e-11 3.51998e-10 5.51808e-11)
(8.40564e-11 2.33817e-10 5.05964e-11)
(1.49751e-10 4.61798e-10 9.74618e-11)
(1.6503e-10 4.12176e-10 -6.76002e-12)
(3.51717e-10 3.5914e-10 -4.8829e-12)
(2.56231e-10 5.50751e-10 -7.52119e-12)
(2.02463e-10 2.84747e-10 -5.79099e-12)
(1.66359e-10 4.13778e-10 -7.242e-12)
(2.00684e-10 2.8325e-10 -5.8571e-12)
(2.54637e-10 5.48937e-10 -6.63442e-12)
(1.63901e-10 4.1116e-10 -6.88907e-12)
(3.51328e-10 3.58929e-10 -4.65863e-12)
(1.97849e-10 2.81118e-10 -5.57737e-12)
(2.51872e-10 5.45241e-10 -6.32817e-12)
(1.62709e-10 4.09435e-10 -6.46151e-12)
(1.99395e-10 2.82478e-10 -5.41393e-12)
(2.53234e-10 5.47262e-10 -7.24475e-12)
(1.43159e-10 3.9044e-10 -6.27565e-12)
(3.1744e-10 3.34938e-10 -2.94955e-12)
(2.30161e-10 5.22451e-10 -6.29283e-12)
(1.76609e-10 2.67164e-10 -4.75232e-12)
(1.45103e-10 3.92528e-10 -6.51154e-12)
(1.74163e-10 2.65413e-10 -5.02529e-12)
(2.27838e-10 5.20018e-10 -5.4685e-12)
(1.4126e-10 3.89103e-10 -6.47753e-12)
(3.16568e-10 3.34625e-10 -2.60388e-12)
(1.69179e-10 2.62465e-10 -4.7355e-12)
(2.22714e-10 5.1505e-10 -4.99376e-12)
(1.38979e-10 3.86746e-10 -6.1174e-12)
(1.7201e-10 2.64396e-10 -4.58851e-12)
(2.25397e-10 5.17812e-10 -5.99366e-12)
(8.14081e-11 3.54064e-10 3.01145e-11)
(2.23817e-10 2.93753e-10 4.2182e-11)
(1.59197e-10 4.71283e-10 3.35476e-11)
(1.05805e-10 2.38235e-10 2.05281e-11)
(8.67713e-11 3.55935e-10 2.21956e-11)
(9.88294e-11 2.37059e-10 2.59068e-11)
(1.53055e-10 4.68943e-10 4.37688e-11)
(7.74062e-11 3.53556e-10 3.70246e-11)
(2.21897e-10 2.94651e-10 4.61298e-11)
(8.83251e-11 2.36608e-10 3.75126e-11)
(1.44896e-10 4.66434e-10 6.73897e-11)
(7.44663e-11 3.5222e-10 4.67329e-11)
(9.34132e-11 2.37173e-10 3.15536e-11)
(1.48067e-10 4.67681e-10 5.39776e-11)
(1.75362e-10 4.25267e-10 -8.75158e-12)
(3.68054e-10 3.73098e-10 -5.75591e-12)
(2.67238e-10 5.66646e-10 -8.35027e-12)
(2.13649e-10 2.93817e-10 -7.45489e-12)
(1.73902e-10 4.23681e-10 -8.83363e-12)
(3.67639e-10 3.72791e-10 -5.69841e-12)
(2.64189e-10 5.60553e-10 -8.20536e-12)
(2.10506e-10 2.91019e-10 -6.93424e-12)
(2.6548e-10 5.63917e-10 -9.16952e-12)
(2.12017e-10 2.92756e-10 -6.87052e-12)
(1.72728e-10 4.20953e-10 -8.27979e-12)
(3.80052e-10 7.10941e-10 -7.77251e-12)
(2.70308e-10 1.11383e-09 -9.94994e-12)
(3.31436e-10 8.2323e-10 -8.53272e-12)
(3.34206e-10 8.31974e-10 -8.53469e-12)
(2.71798e-10 1.11963e-09 -9.22977e-12)
(3.35182e-10 8.34317e-10 -8.6684e-12)
(3.75863e-10 7.01618e-10 -7.57226e-12)
(3.78902e-10 7.08965e-10 -7.39923e-12)
(2.43591e-10 2.15783e-10 -5.45464e-12)
(1.60852e-10 1.46273e-10 -4.40767e-12)
(3.32985e-11 3.93607e-11 -1.52036e-12)
(1.63168e-10 1.47119e-10 -4.4495e-12)
(2.40056e-10 2.13897e-10 -5.20338e-12)
(2.4293e-10 2.1549e-10 -5.79718e-12)
(3.36199e-11 3.95945e-11 -2.08094e-12)
(1.64091e-10 1.47619e-10 -4.69968e-12)
(2.18714e-10 2.02018e-10 -3.74626e-12)
(2.21657e-10 2.03508e-10 -4.23298e-12)
(1.48466e-10 1.39834e-10 -3.19705e-12)
(2.82342e-11 3.73394e-11 -1.48347e-12)
(1.46979e-10 1.39023e-10 -3.29232e-12)
(2.24874e-10 2.05287e-10 -4.40243e-12)
(2.22225e-10 2.03771e-10 -3.89647e-12)
(1.43858e-10 1.37746e-10 -3.22261e-12)
(2.79799e-11 3.71878e-11 -1.00948e-12)
(1.46126e-10 1.38573e-10 -3.12631e-12)
(3.56082e-10 6.76048e-10 -5.63469e-12)
(3.58581e-10 6.79037e-10 -5.3999e-12)
(3.191e-10 8.03415e-10 -6.44386e-12)
(2.58315e-10 1.07794e-09 -6.98696e-12)
(3.17025e-10 7.99895e-10 -6.38206e-12)
(3.61714e-10 6.82968e-10 -5.66714e-12)
(3.59354e-10 6.79632e-10 -5.82368e-12)
(3.1409e-10 7.96229e-10 -6.19281e-12)
(2.57239e-10 1.07579e-09 -6.92216e-12)
(3.16321e-10 7.99157e-10 -6.1053e-12)
(1.55518e-10 4.02056e-10 -5.99639e-12)
(2.44578e-10 5.37267e-10 -6.47534e-12)
(3.36823e-10 3.47903e-10 -4.04213e-12)
(1.90696e-10 2.76204e-10 -4.82486e-12)
(1.5682e-10 4.036e-10 -6.251e-12)
(2.43011e-10 5.35493e-10 -5.72936e-12)
(1.89024e-10 2.74869e-10 -5.11458e-12)
(1.54286e-10 4.01095e-10 -6.28023e-12)
(3.36329e-10 3.47702e-10 -3.83875e-12)
(2.39778e-10 5.31995e-10 -5.72177e-12)
(1.85834e-10 2.72759e-10 -5.13831e-12)
(2.41442e-10 5.33924e-10 -6.45676e-12)
(1.87632e-10 2.74127e-10 -4.80631e-12)
(1.52855e-10 3.99428e-10 -6.07074e-12)
(3.5526e-10 6.75386e-10 -5.22397e-12)
(3.52666e-10 6.72152e-10 -5.52224e-12)
(2.52356e-10 1.06615e-09 -6.90754e-12)
(3.07689e-10 7.87227e-10 -6.07885e-12)
(3.10227e-10 7.91052e-10 -5.91522e-12)
(3.13344e-10 7.95436e-10 -5.95343e-12)
(2.53649e-10 1.06894e-09 -6.79242e-12)
(3.11012e-10 7.92035e-10 -6.13948e-12)
(3.48982e-10 6.67755e-10 -5.41575e-12)
(3.51785e-10 6.71348e-10 -5.12258e-12)
(2.18143e-10 2.0178e-10 -4.07828e-12)
(2.1538e-10 2.0033e-10 -3.66655e-12)
(1.3816e-10 1.35282e-10 -3.16269e-12)
(2.62905e-11 3.65793e-11 -9.69753e-13)
(1.4055e-10 1.36122e-10 -3.00038e-12)
(2.11629e-10 1.98576e-10 -3.65044e-12)
(2.14778e-10 2.00089e-10 -4.02132e-12)
(1.43039e-10 1.37324e-10 -2.96998e-12)
(2.65736e-11 3.67308e-11 -1.41188e-12)
(1.41457e-10 1.36538e-10 -3.11865e-12)
(1.78372e-10 1.84382e-10 -9.11517e-13)
(1.84772e-10 1.86963e-10 -2.24649e-12)
(1.21302e-10 1.28709e-10 -2.44702e-12)
(1.93936e-11 3.46022e-11 -1.20606e-12)
(1.18036e-10 1.27422e-10 -2.38386e-12)
(1.91422e-10 1.89721e-10 -3.13542e-12)
(1.86042e-10 1.87368e-10 -2.21428e-12)
(1.1189e-10 1.25375e-10 -1.61506e-12)
(1.8842e-11 3.44015e-11 -6.54197e-13)
(1.16164e-10 1.26794e-10 -1.85974e-12)
(3.14692e-10 6.31197e-10 2.98098e-13)
(3.20911e-10 6.37877e-10 -1.37144e-12)
(2.88691e-10 7.6269e-10 -4.23268e-12)
(2.32072e-10 1.02702e-09 -4.54184e-12)
(2.83945e-10 7.56407e-10 -3.31758e-12)
(3.28002e-10 6.4527e-10 -3.08001e-12)
(3.22759e-10 6.39365e-10 -2.25251e-12)
(2.76619e-10 7.47558e-10 -8.37198e-13)
(2.293e-10 1.02199e-09 -3.62235e-12)
(2.82267e-10 7.54619e-10 -2.61712e-12)
(1.21707e-10 3.72686e-10 -2.28123e-12)
(2.05812e-10 4.99825e-10 -1.55639e-12)
(2.83534e-10 3.14999e-10 5.24253e-12)
(1.53264e-10 2.53974e-10 -1.54788e-12)
(1.2549e-10 3.75958e-10 -3.826e-12)
(2.01346e-10 4.9592e-10 8.93429e-13)
(1.48595e-10 2.51285e-10 -6.46483e-13)
(1.17899e-10 3.70633e-10 -1.07161e-12)
(2.81528e-10 3.14457e-10 6.57039e-12)
(1.91072e-10 4.88277e-10 6.0189e-12)
(1.38347e-10 2.46902e-10 2.77743e-12)
(1.96485e-10 4.92406e-10 2.4276e-12)
(1.4417e-10 2.49727e-10 1.08323e-12)
(1.13191e-10 3.67208e-10 1.45274e-12)
(3.12493e-10 6.29548e-10 1.50763e-12)
(3.05047e-10 6.22107e-10 4.40501e-12)
(2.15515e-10 9.98554e-10 4.91368e-12)
(2.57421e-10 7.26999e-10 1.00227e-11)
(2.65488e-10 7.35441e-10 4.84921e-12)
(2.74629e-10 7.45589e-10 2.01823e-13)
(2.19418e-10 1.00495e-09 1.93335e-12)
(2.67877e-10 7.37665e-10 3.27234e-12)
(2.93498e-10 6.12314e-10 1.095e-11)
(3.02381e-10 6.20256e-10 6.11566e-12)
(1.76842e-10 1.83952e-10 -7.56563e-13)
(1.69077e-10 1.81063e-10 1.14333e-12)
(9.48495e-11 1.20531e-10 1.51348e-12)
(1.44719e-11 3.34927e-11 1.67231e-13)
(1.01702e-10 1.22392e-10 7.13375e-13)
(1.57079e-10 1.77431e-10 4.30817e-12)
(1.67036e-10 1.8061e-10 1.54764e-12)
(1.09732e-10 1.24719e-10 -7.87711e-13)
(1.55426e-11 3.37286e-11 -5.46223e-13)
(1.0492e-10 1.23103e-10 -3.68547e-13)
(1.03864e-10 1.46247e-10 4.96063e-11)
(8.31387e-11 1.56068e-10 3.84795e-11)
(3.99932e-11 1.09106e-10 1.7056e-11)
(-9.39661e-12 2.89758e-11 4.35355e-12)
(3.53325e-11 1.01991e-10 1.76301e-11)
(9.50904e-11 1.66881e-10 3.10852e-11)
(8.37729e-11 1.5902e-10 3.60429e-11)
(5.07369e-11 8.78603e-11 2.30071e-11)
(-4.92424e-12 2.73541e-11 4.88862e-12)
(3.88408e-11 9.36319e-11 1.94084e-11)
(2.7861e-10 5.35508e-10 1.77173e-10)
(2.50789e-10 5.70202e-10 1.40169e-10)
(2.09922e-10 6.87706e-10 1.06158e-10)
(1.76017e-10 8.97601e-10 1.70909e-10)
(2.15747e-10 6.74361e-10 1.40775e-10)
(2.40618e-10 5.82348e-10 9.75244e-11)
(2.45831e-10 5.74868e-10 1.2834e-10)
(2.50359e-10 6.21323e-10 1.93867e-10)
(1.8573e-10 8.65259e-10 2.0476e-10)
(2.20634e-10 6.66425e-10 1.53846e-10)
(1.55834e-10 2.67486e-10 1.36499e-10)
(2.07185e-10 4.00576e-10 1.60051e-10)
(3.1854e-10 2.22846e-10 1.59792e-10)
(1.28862e-10 2.12059e-10 8.31114e-11)
(1.23818e-10 2.9647e-10 1.1249e-10)
(2.47856e-10 3.63961e-10 2.00446e-10)
(1.61122e-10 1.92165e-10 1.01299e-10)
(1.80781e-10 2.39788e-10 1.63667e-10)
(3.30144e-10 5.15606e-10 3.44321e-10)
(3.07057e-10 4.38934e-10 2.68253e-10)
(2.57222e-10 2.60828e-10 2.67457e-10)
(1.2681e-10 1.61717e-10 1.17054e-10)
(1.06939e-11 1.31475e-11 9.62191e-12)
(1.23024e-10 1.03826e-10 6.53954e-11)
(1.6283e-11 1.67502e-11 1.96368e-11)
(1.68278e-10 2.1873e-10 1.39853e-10)
(3.5954e-10 2.24451e-10 1.69943e-10)
(3.12511e-10 3.8723e-10 2.51717e-10)
(1.71574e-10 1.3304e-10 8.3769e-11)
(2.9161e-10 5.16574e-10 1.91762e-10)
(3.53842e-10 4.42512e-10 2.47788e-10)
(3.36859e-10 5.94759e-10 3.35145e-10)
(3.5447e-10 5.0177e-10 2.82211e-10)
(2.65203e-10 6.00053e-10 2.09305e-10)
(2.94283e-10 6.66607e-10 3.02534e-10)
(3.32988e-10 5.18514e-10 2.64162e-10)
(3.78897e-10 4.28422e-10 2.65569e-10)
(1.17858e-10 1.41647e-10 5.27956e-11)
(1.66831e-10 1.14154e-10 6.76204e-11)
(1.074e-11 1.08787e-11 9.71996e-12)
(1.34135e-10 8.09046e-11 5.55583e-11)
(1.90231e-10 1.00538e-10 7.10039e-11)
(7.23747e-11 8.46903e-11 2.53873e-11)
(2.00982e-11 2.10431e-11 7.71948e-12)
(9.12779e-11 7.20807e-11 2.97961e-11)
(1.69226e-10 4.16191e-10 -7.77179e-12)
(3.60054e-10 3.65792e-10 -5.22325e-12)
(2.57935e-10 5.52078e-10 -6.94359e-12)
(2.04036e-10 2.85642e-10 -6.31771e-12)
(1.67679e-10 4.14625e-10 -7.1825e-12)
(2.59795e-10 5.53779e-10 -7.94174e-12)
(2.0612e-10 2.87319e-10 -6.28428e-12)
(1.70521e-10 4.17199e-10 -7.74107e-12)
(3.60621e-10 3.66144e-10 -5.50056e-12)
(2.62965e-10 5.57857e-10 -8.64634e-12)
(2.09387e-10 2.90111e-10 -6.53177e-12)
(1.71718e-10 4.1937e-10 -8.32935e-12)
(2.61495e-10 5.55352e-10 -7.49858e-12)
(2.07707e-10 2.88338e-10 -6.70191e-12)
(2.31705e-10 2.08966e-10 -4.92824e-12)
(2.28734e-10 2.0727e-10 -4.28871e-12)
(1.49176e-10 1.40274e-10 -3.47869e-12)
(2.96359e-11 3.78186e-11 -1.1163e-12)
(1.51367e-10 1.41088e-10 -3.42422e-12)
(2.25394e-10 2.05541e-10 -4.07877e-12)
(2.28184e-10 2.07022e-10 -4.61779e-12)
(1.53947e-10 1.42458e-10 -3.60092e-12)
(2.9891e-11 3.79883e-11 -1.61088e-12)
(1.52192e-10 1.41529e-10 -3.61669e-12)
(3.68174e-10 6.91867e-10 -6.291e-12)
(3.65691e-10 6.8868e-10 -6.45948e-12)
(3.19775e-10 8.04478e-10 -6.74744e-12)
(2.61544e-10 1.08727e-09 -7.76832e-12)
(3.21932e-10 8.08823e-10 -6.79931e-12)
(3.62476e-10 6.83809e-10 -6.11748e-12)
(3.64879e-10 6.87726e-10 -5.99799e-12)
(3.24816e-10 8.13203e-10 -6.97115e-12)
(2.62658e-10 1.09045e-09 -7.71291e-12)
(3.22638e-10 8.09988e-10 -7.08281e-12)
(3.68996e-10 6.92337e-10 -6.74591e-12)
(3.71584e-10 6.94907e-10 -6.6172e-12)
(3.30645e-10 8.21148e-10 -8.1482e-12)
(2.66552e-10 1.09692e-09 -8.31889e-12)
(3.28434e-10 8.16078e-10 -7.6771e-12)
(3.74962e-10 6.99982e-10 -7.09075e-12)
(3.72378e-10 6.95226e-10 -7.07578e-12)
(3.25542e-10 8.1373e-10 -7.25387e-12)
(2.65668e-10 1.09526e-09 -7.92779e-12)
(3.27728e-10 8.15634e-10 -7.31259e-12)
(2.32367e-10 2.09289e-10 -4.62792e-12)
(2.36004e-10 2.11352e-10 -5.32216e-12)
(1.6035e-10 1.45836e-10 -4.10356e-12)
(3.16607e-11 3.8766e-11 -1.8528e-12)
(1.58658e-10 1.44839e-10 -4.17761e-12)
(2.39607e-10 2.13634e-10 -5.54541e-12)
(2.36687e-10 2.1174e-10 -4.9984e-12)
(1.54911e-10 1.43036e-10 -3.94873e-12)
(3.13877e-11 3.85599e-11 -1.3253e-12)
(1.57633e-10 1.44165e-10 -3.94999e-12)
(1.48521e-10 3.95576e-10 -6.45691e-12)
(3.27528e-10 3.41675e-10 -3.4985e-12)
(2.32284e-10 5.24367e-10 -5.64618e-12)
(1.78486e-10 2.68065e-10 -5.13749e-12)
(1.46759e-10 3.937e-10 -6.24835e-12)
(2.34351e-10 5.26548e-10 -6.4112e-12)
(1.8068e-10 2.69627e-10 -4.82492e-12)
(1.5e-10 3.96657e-10 -6.16394e-12)
(3.28169e-10 3.41919e-10 -3.72913e-12)
(2.38082e-10 5.30342e-10 -6.44134e-12)
(1.84318e-10 2.71969e-10 -4.80666e-12)
(1.51529e-10 3.98416e-10 -6.36231e-12)
(2.36251e-10 5.28312e-10 -5.71131e-12)
(1.82364e-10 2.70473e-10 -5.14337e-12)
(2.02387e-10 1.94403e-10 -3.83207e-12)
(1.98317e-10 1.92518e-10 -3.35919e-12)
(1.2289e-10 1.29303e-10 -2.87417e-12)
(2.18922e-11 3.52159e-11 -9.5819e-13)
(1.26335e-10 1.30468e-10 -2.81415e-12)
(1.92512e-10 1.90085e-10 -2.97882e-12)
(1.97369e-10 1.92194e-10 -3.61501e-12)
(1.3024e-10 1.32045e-10 -2.88521e-12)
(2.23439e-11 3.54017e-11 -1.40975e-12)
(1.27779e-10 1.31003e-10 -3.03174e-12)
(3.39327e-10 6.57354e-10 -4.59389e-12)
(3.35438e-10 6.5284e-10 -4.60657e-12)
(2.90108e-10 7.64224e-10 -4.71408e-12)
(2.39199e-10 1.04032e-09 -6.27838e-12)
(2.94211e-10 7.6969e-10 -5.12452e-12)
(3.29566e-10 6.46543e-10 -3.74834e-12)
(3.34077e-10 6.5171e-10 -4.07069e-12)
(2.98956e-10 7.7585e-10 -5.54912e-12)
(2.41235e-10 1.04416e-09 -6.43371e-12)
(2.95435e-10 7.71053e-10 -5.47448e-12)
(3.40501e-10 6.58313e-10 -5.05097e-12)
(3.43951e-10 6.62345e-10 -4.87605e-12)
(3.06838e-10 7.8621e-10 -5.84991e-12)
(2.48153e-10 1.05722e-09 -6.75077e-12)
(3.04106e-10 7.82257e-10 -5.99378e-12)
(3.48041e-10 6.66928e-10 -5.01646e-12)
(3.44995e-10 6.63202e-10 -5.28965e-12)
(3.00025e-10 7.7701e-10 -5.82341e-12)
(2.46599e-10 1.05423e-09 -6.80652e-12)
(3.03151e-10 7.81206e-10 -5.75196e-12)
(2.03199e-10 1.94691e-10 -3.5373e-12)
(2.06992e-10 1.96416e-10 -3.94613e-12)
(1.3723e-10 1.34841e-10 -2.94251e-12)
(2.4671e-11 3.61027e-11 -1.42113e-12)
(1.35333e-10 1.33959e-10 -3.11771e-12)
(2.10975e-10 1.98315e-10 -3.98788e-12)
(2.07726e-10 1.96693e-10 -3.61285e-12)
(1.31422e-10 1.3253e-10 -3.14473e-12)
(2.43188e-11 3.59353e-11 -9.86117e-13)
(1.34209e-10 1.33485e-10 -2.98616e-12)
(1.96738e-10 1.08295e-09 4.31037e-12)
(1.9969e-10 1.08963e-09 1.20049e-12)
(1.70057e-10 1.01096e-09 9.68091e-11)
(1.72634e-10 1.02399e-09 7.39958e-11)
(1.86599e-10 1.06089e-09 2.08526e-11)
(1.82986e-10 1.05246e-09 2.97393e-11)
(9.79241e-11 3.59951e-10 1.1141e-11)
(2.52496e-10 3.01787e-10 2.08058e-11)
(1.65759e-10 4.73745e-10 2.63417e-11)
(1.12299e-10 2.39008e-10 1.58096e-11)
(9.19833e-11 3.57174e-10 1.6996e-11)
(1.72509e-10 4.77194e-10 1.8851e-11)
(1.19757e-10 2.41194e-10 1.16938e-11)
(1.03111e-10 3.61804e-10 7.59985e-12)
(2.55336e-10 3.02141e-10 1.83143e-11)
(1.85291e-10 4.84693e-10 8.87148e-12)
(1.32891e-10 2.45329e-10 5.33431e-12)
(1.08599e-10 3.65161e-10 3.64118e-12)
(1.79017e-10 4.80587e-10 1.40854e-11)
(1.26038e-10 2.42568e-10 8.12892e-12)
(1.23389e-10 1.70714e-10 1.67288e-11)
(1.10868e-10 1.69039e-10 2.24852e-11)
(4.11463e-11 1.11446e-10 1.58472e-11)
(-5.56433e-12 3.13085e-11 4.5025e-12)
(4.8571e-11 1.13429e-10 1.4716e-11)
(9.71877e-11 1.67385e-10 2.95852e-11)
(1.07927e-10 1.69187e-10 2.42524e-11)
(6.26062e-11 1.15104e-10 1.06244e-11)
(-3.02657e-12 3.16196e-11 3.51356e-12)
(5.35842e-11 1.13619e-10 1.24014e-11)
(2.61813e-10 5.92187e-10 4.10335e-11)
(2.51112e-10 5.86941e-10 5.78376e-11)
(2.10611e-10 6.89828e-10 9.57964e-11)
(1.76987e-10 9.40095e-10 8.76816e-11)
(2.16401e-10 6.95482e-10 6.88422e-11)
(2.41386e-10 5.83006e-10 8.83107e-11)
(2.48002e-10 5.85915e-10 6.47074e-11)
(2.28849e-10 7.04052e-10 4.23358e-11)
(1.81423e-10 9.48951e-10 6.80257e-11)
(2.19172e-10 6.97388e-10 6.12299e-11)
(2.6547e-10 5.93543e-10 3.60836e-11)
(2.76582e-10 6.0053e-10 2.44942e-11)
(2.54609e-10 7.24741e-10 1.2408e-11)
(2.01923e-10 9.78194e-10 2.04349e-11)
(2.45345e-10 7.1607e-10 2.06236e-11)
(2.90372e-10 6.10458e-10 1.33942e-11)
(2.80121e-10 6.02384e-10 2.09822e-11)
(2.32126e-10 7.05949e-10 3.70345e-11)
(1.96938e-10 9.70889e-10 2.85629e-11)
(2.42185e-10 7.13748e-10 2.42317e-11)
(1.26687e-10 1.70806e-10 1.51353e-11)
(1.39686e-10 1.73495e-10 1.01467e-11)
(9.06669e-11 1.19818e-10 3.14032e-12)
(8.21603e-12 3.26658e-11 1.0193e-12)
(8.27948e-11 1.17859e-10 4.39465e-12)
(1.54488e-10 1.77001e-10 5.08806e-12)
(1.42767e-10 1.73816e-10 8.94956e-12)
(6.82658e-11 1.15439e-10 8.15719e-12)
(6.20137e-12 3.24157e-11 2.06721e-12)
(7.75556e-11 1.17283e-10 6.46708e-12)
(1.70849e-10 9.4447e-10 1.98148e-10)
(1.7909e-10 8.98941e-10 2.41701e-10)
(3.49905e-10 5.13782e-10 3.80085e-10)
(2.92549e-10 2.51162e-10 3.12219e-10)
(3.44346e-10 5.93153e-10 3.67056e-10)
(2.82536e-10 6.56605e-10 3.73756e-10)
(2.4916e-10 3.91812e-10 -5.30748e-12)
(3.42093e-10 3.51783e-10 -3.98395e-12)
(3.23553e-10 4.37412e-10 -4.81795e-12)
(2.72918e-10 3.06366e-10 -4.70856e-12)
(2.74157e-10 3.07445e-10 -4.15058e-12)
(3.24883e-10 4.38444e-10 -4.83323e-12)
(2.48298e-10 3.91094e-10 -5.23001e-12)
(1.53108e-10 4.97276e-10 -6.6123e-12)
(1.90492e-10 6.01391e-10 -8.64267e-12)
(2.31439e-10 7.14013e-10 -7.63923e-12)
(2.26053e-10 8.31817e-10 -7.3683e-12)
(1.54127e-10 4.99111e-10 -7.6318e-12)
(1.89602e-10 5.99326e-10 -6.64874e-12)
(2.30272e-10 7.11894e-10 -7.29374e-12)
(2.53241e-10 3.95291e-10 -5.60005e-12)
(3.46423e-10 3.55005e-10 -4.51288e-12)
(2.79559e-10 3.11295e-10 -4.52892e-12)
(3.30254e-10 4.43183e-10 -5.20501e-12)
(2.54023e-10 3.95942e-10 -5.68303e-12)
(2.78448e-10 3.10302e-10 -5.05155e-12)
(3.28912e-10 4.42041e-10 -5.13783e-12)
(1.52197e-10 4.96346e-10 -7.3524e-12)
(2.27777e-10 7.08519e-10 -7.04923e-12)
(2.25035e-10 8.30113e-10 -8.37035e-12)
(1.87888e-10 5.96542e-10 -6.44133e-12)
(1.88825e-10 5.98321e-10 -8.33552e-12)
(2.29054e-10 7.10317e-10 -7.24884e-12)
(1.51091e-10 4.94725e-10 -6.41597e-12)
(2.1074e-10 3.63279e-10 -1.78103e-12)
(2.97482e-10 3.23001e-10 1.22505e-12)
(2.79692e-10 4.03895e-10 5.7981e-13)
(2.29563e-10 2.80389e-10 4.30037e-14)
(2.32389e-10 2.82387e-10 3.20145e-14)
(2.82747e-10 4.0596e-10 -2.71349e-14)
(2.08648e-10 3.61879e-10 -1.17218e-12)
(1.30705e-10 4.70002e-10 -6.42895e-12)
(1.71623e-10 5.72881e-10 -8.86815e-12)
(2.05037e-10 6.78291e-10 -6.585e-12)
(2.01997e-10 7.91595e-10 -6.51466e-12)
(1.33e-10 4.731e-10 -7.57017e-12)
(1.69552e-10 5.69439e-10 -6.82924e-12)
(2.02353e-10 6.74635e-10 -5.97749e-12)
(2.19711e-10 3.69627e-10 -3.71478e-12)
(3.07264e-10 3.28694e-10 -1.45558e-12)
(2.4394e-10 2.88894e-10 -2.36969e-12)
(2.94473e-10 4.14507e-10 -2.75467e-12)
(2.2135e-10 3.70716e-10 -3.98585e-12)
(2.4173e-10 2.87284e-10 -2.6606e-12)
(2.91977e-10 4.1272e-10 -2.42908e-12)
(1.6397e-10 3.22331e-10 9.96598e-11)
(2.4581e-10 2.87557e-10 9.98234e-11)
(2.44489e-10 3.50681e-10 1.25222e-10)
(1.91581e-10 2.45249e-10 9.19395e-11)
(1.80158e-10 2.53833e-10 8.61514e-11)
(2.35876e-10 3.61077e-10 1.15554e-10)
(1.74921e-10 3.13351e-10 1.07236e-10)
(1.37836e-10 3.36301e-10 6.74121e-11)
(2.15266e-10 2.94316e-10 6.82878e-11)
(1.53212e-10 2.59958e-10 5.56576e-11)
(2.04628e-10 3.73656e-10 7.10831e-11)
(1.37343e-10 3.36198e-10 6.18501e-11)
(1.5297e-10 2.59334e-10 5.94619e-11)
(2.04437e-10 3.72921e-10 7.73606e-11)
(2.39998e-10 6.34002e-10 -6.68388e-12)
(2.52384e-10 9.07597e-10 -9.27693e-12)
(2.40854e-10 6.3626e-10 -9.37016e-12)
(2.42306e-10 6.39397e-10 -9.65862e-12)
(2.53233e-10 9.09762e-10 -8.27651e-12)
(2.41559e-10 6.37462e-10 -6.91892e-12)
(2.59437e-10 4.0108e-10 -6.21306e-12)
(3.5369e-10 3.60791e-10 -4.99881e-12)
(3.37245e-10 4.49854e-10 -5.82198e-12)
(2.8658e-10 3.16516e-10 -5.08514e-12)
(2.60396e-10 4.0178e-10 -6.3377e-12)
(2.85234e-10 3.15368e-10 -5.58876e-12)
(3.35695e-10 4.48604e-10 -5.7078e-12)
(1.56011e-10 5.02279e-10 -7.92777e-12)
(1.91255e-10 6.02639e-10 -6.96378e-12)
(2.32595e-10 7.16026e-10 -7.73261e-12)
(2.28978e-10 8.39007e-10 -9.14693e-12)
(1.54994e-10 5.00242e-10 -6.91547e-12)
(1.9216e-10 6.04893e-10 -8.92692e-12)
(2.33782e-10 7.18458e-10 -8.0269e-12)
(2.55472e-10 3.97322e-10 -5.76259e-12)
(3.49493e-10 3.57462e-10 -4.46022e-12)
(2.80003e-10 3.11359e-10 -5.13589e-12)
(3.3056e-10 4.43604e-10 -5.27244e-12)
(2.54709e-10 3.96555e-10 -5.66533e-12)
(2.81134e-10 3.12445e-10 -4.59472e-12)
(3.31804e-10 4.44678e-10 -5.30318e-12)
(2.3927e-10 6.32717e-10 -9.10223e-12)
(2.49776e-10 9.00105e-10 -7.6945e-12)
(2.38444e-10 6.3058e-10 -6.39766e-12)
(2.48983e-10 8.98294e-10 -8.58035e-12)
(2.36914e-10 6.27715e-10 -6.20143e-12)
(2.37751e-10 6.29528e-10 -8.82097e-12)
(2.30921e-10 3.77721e-10 -4.8828e-12)
(3.20384e-10 3.36944e-10 -3.22267e-12)
(3.06312e-10 4.23446e-10 -4.14511e-12)
(2.55649e-10 2.95722e-10 -3.57314e-12)
(2.3215e-10 3.78559e-10 -4.96414e-12)
(2.53974e-10 2.94455e-10 -4.06683e-12)
(3.04392e-10 4.22036e-10 -4.03874e-12)
(1.36824e-10 4.77474e-10 -7.78554e-12)
(1.73268e-10 5.74672e-10 -7.2116e-12)
(2.07517e-10 6.81224e-10 -6.82176e-12)
(2.08472e-10 8.0216e-10 -8.58283e-12)
(1.34831e-10 4.74757e-10 -6.87619e-12)
(1.75065e-10 5.77671e-10 -9.0116e-12)
(2.09844e-10 6.84402e-10 -7.14546e-12)
(2.24287e-10 3.72764e-10 -4.32725e-12)
(3.13226e-10 3.32497e-10 -2.09883e-12)
(2.44984e-10 2.8899e-10 -3.14577e-12)
(2.95387e-10 4.15184e-10 -3.03161e-12)
(2.22775e-10 3.71646e-10 -4.10477e-12)
(2.47077e-10 2.90593e-10 -2.7616e-12)
(2.97644e-10 4.16797e-10 -3.22196e-12)
(1.38409e-10 4.78937e-10 -6.94831e-12)
(2.13994e-10 6.89806e-10 -7.31214e-12)
(1.78065e-10 5.81915e-10 -8.9006e-12)
(2.1036e-10 8.04926e-10 -7.5217e-12)
(1.76498e-10 5.79246e-10 -7.21077e-12)
(1.40133e-10 4.81347e-10 -7.73527e-12)
(2.11991e-10 6.86988e-10 -7.1662e-12)
(1.52976e-10 3.37501e-10 3.11602e-11)
(2.31017e-10 2.94958e-10 3.51184e-11)
(2.24457e-10 3.76444e-10 3.29852e-11)