/*--------------------------------*- C++ -*----------------------------------*\
| =========                 |                                                 |
| \\      /  F ield         | OpenFOAM: The Open Source CFD Toolbox           |
|  \\    /   O peration     | Version:  2012                                  |
|   \\  /    A nd           | Website:  www.openfoam.com                      |
|    \\/     M anipulation  |                                                 |
\*---------------------------------------------------------------------------*/
FoamFile
{
    version     2.0;
    format      ascii;
    class       volVectorField;
    location    "0.107/solid";
    object      D_0_0_0;
}
// * * * * * * * * * * * * * * * * * * * * * * * * * * * * * * * * * * * * * //

dimensions      [0 1 0 0 0 0 0];


internalField   nonuniform List<vector> 
3125
(
(6.62702e-11 2.10017e-10 -2.04138e-12)
(5.71504e-11 2.0055e-10 -4.05164e-12)
(3.84425e-11 1.77725e-10 3.16571e-11)
(6.72717e-11 2.1083e-10 -1.7688e-12)
(5.87434e-11 2.02321e-10 -3.98991e-12)
(3.76654e-11 1.83045e-10 2.07019e-11)
(7.36588e-11 2.13378e-10 1.30808e-13)
(6.34558e-11 2.07467e-10 -2.90091e-12)
(5.01629e-11 1.93768e-10 -1.78567e-12)
(7.15065e-11 2.12568e-10 -4.76748e-13)
(6.24516e-11 2.06389e-10 -3.19144e-12)
(4.6842e-11 1.91142e-10 9.15493e-13)
(3.3291e-10 3.55398e-10 -1.54556e-12)
(4.73525e-11 1.37913e-10 -1.45341e-12)
(2.16893e-10 8.40476e-10 -4.20012e-12)
(6.53385e-11 2.09229e-10 -2.28687e-12)
(3.39429e-10 3.58983e-10 -4.15171e-13)
(2.13461e-10 8.36314e-10 -3.6757e-12)
(4.62236e-11 1.37283e-10 -1.75886e-12)
(2.90765e-10 3.30057e-10 2.3858e-12)
(3.61691e-11 1.30417e-10 -2.93509e-12)
(1.94781e-10 8.07951e-10 -6.81846e-12)
(5.52835e-11 1.98529e-10 -3.87962e-12)
(3.05313e-10 3.38931e-10 -8.23896e-13)
(1.87722e-10 7.96531e-10 -3.57831e-12)
(3.38322e-11 1.28845e-10 -2.7375e-12)
(2.53991e-10 2.87745e-10 1.16306e-10)
(4.37545e-12 1.1588e-10 1.95792e-11)
(1.48241e-10 7.21077e-10 1.15908e-10)
(4.72384e-11 1.63374e-10 4.41714e-11)
(2.13913e-10 3.05631e-10 6.72606e-11)
(1.83036e-10 6.31046e-10 2.07907e-10)
(1.34488e-11 1.0962e-10 2.60508e-11)
(2.40883e-10 9.11201e-10 -3.1459e-12)
(2.45241e-10 9.15505e-10 -2.81177e-12)
(3.47058e-10 3.62028e-10 1.59243e-12)
(6.84364e-11 2.11519e-10 -1.2946e-12)
(4.84725e-11 1.38508e-10 -1.20732e-12)
(2.18133e-10 8.4206e-10 -2.71487e-12)
(3.39817e-10 3.58951e-10 -4.12528e-13)
(2.22497e-10 8.46219e-10 -2.31278e-12)
(4.97795e-11 1.39045e-10 -7.57863e-13)
(2.39676e-10 9.09526e-10 -4.53886e-12)
(2.36449e-10 9.05064e-10 -4.05013e-12)
(2.21053e-10 8.78711e-10 -6.3773e-12)
(2.25818e-10 8.87502e-10 -7.39747e-12)
(3.16644e-10 3.45884e-10 -2.08965e-12)
(6.01332e-11 2.03859e-10 -3.75715e-12)
(3.81325e-11 1.31799e-10 -3.01922e-12)
(1.96795e-10 8.10878e-10 -5.88246e-12)
(3.06209e-10 3.39202e-10 -1.27068e-12)
(2.01976e-10 8.19424e-10 -7.05889e-12)
(3.98546e-11 1.33014e-10 -2.86426e-12)
(2.19302e-10 8.75721e-10 -7.24108e-12)
(2.12999e-10 8.64074e-10 -4.109e-12)
(1.83406e-10 7.84732e-10 1.05087e-10)
(1.87465e-10 8.14227e-10 4.54047e-11)
(2.34064e-10 3.07101e-10 3.3793e-11)
(3.983e-11 1.85988e-10 1.1942e-11)
(5.02706e-12 1.17946e-10 1.37069e-11)
(1.47308e-10 7.31513e-10 9.39551e-11)
(2.13112e-10 3.04218e-10 6.21231e-11)
(1.54658e-10 7.52211e-10 4.21158e-11)
(1.00821e-11 1.19337e-10 8.66859e-12)
(1.85053e-10 7.69555e-10 1.32119e-10)
(2.17532e-10 6.51916e-10 2.51403e-10)
(2.33293e-10 8.51619e-10 1.2973e-12)
(5.53376e-11 1.40411e-10 9.79599e-13)
(3.58924e-10 3.64839e-10 5.36478e-12)
(2.66506e-10 1.10309e-09 1.72646e-12)
(3.04972e-11 3.82179e-11 7.23169e-13)
(2.6418e-11 3.80057e-11 -9.1349e-14)
(2.52323e-11 3.7767e-11 -8.2358e-13)
(2.4895e-10 1.08865e-09 -2.89599e-12)
(2.45251e-10 1.08376e-09 -3.40052e-12)
(3.32522e-10 3.55399e-10 -1.47916e-12)
(6.44104e-11 2.08412e-10 -2.55754e-12)
(2.08767e-10 8.29858e-10 -4.89962e-12)
(4.39604e-11 1.35871e-10 -2.27079e-12)
(2.12304e-10 8.35114e-10 -5.18417e-12)
(3.25798e-10 3.51308e-10 -2.21449e-12)
(4.51055e-11 1.3662e-10 -1.9523e-12)
(2.4016e-10 1.07544e-09 -4.46835e-12)
(2.44007e-10 1.08219e-09 -3.87751e-12)
(2.37523e-11 3.73782e-11 -1.03138e-12)
(2.50163e-11 3.76853e-11 -3.37145e-13)
(1.92982e-11 3.60833e-11 -5.96184e-13)
(1.68781e-11 3.55233e-11 -7.95144e-13)
(2.24897e-10 1.0471e-09 -4.12885e-12)
(2.17093e-10 1.03261e-09 -9.40779e-13)
(2.8931e-10 3.29656e-10 3.32891e-12)
(5.29902e-11 1.96258e-10 -3.21683e-12)
(1.74812e-10 7.78134e-10 5.62353e-12)
(2.69026e-11 1.25074e-10 -1.01552e-12)
(1.84873e-10 7.92559e-10 -3.37605e-12)
(2.67704e-10 3.18306e-10 1.1574e-11)
(3.084e-11 1.27064e-10 -2.13045e-12)
(2.02595e-10 1.0084e-09 1.04378e-11)
(2.13941e-10 1.02713e-09 7.11415e-13)
(1.16733e-11 3.46083e-11 2.44843e-13)
(1.62337e-11 3.53315e-11 -1.169e-13)
(-9.01385e-12 3.17659e-11 5.44218e-12)
(1.96807e-12 2.80041e-11 6.41749e-12)
(1.65493e-10 9.33811e-10 1.45555e-10)
(1.98535e-10 8.2946e-10 2.49721e-10)
(2.64317e-10 2.75333e-10 1.27712e-10)
(4.01289e-11 7.26456e-11 3.62047e-11)
(2.14234e-10 5.72911e-10 2.46835e-10)
(8.76638e-12 4.41865e-11 9.14487e-12)
(2.33541e-10 7.61736e-10 2.85001e-10)
(1.37965e-11 2.65738e-11 6.6928e-12)
(2.55807e-10 9.21429e-10 4.62195e-13)
(2.52766e-10 9.19005e-10 -1.27066e-12)
(2.46754e-10 9.15913e-10 -1.17174e-12)
(3.47786e-10 3.61941e-10 1.76703e-12)
(6.98285e-11 2.12e-10 -8.44402e-13)
(2.30454e-10 8.49156e-10 -5.19762e-13)
(5.33621e-11 1.39993e-10 2.98723e-13)
(3.58102e-10 3.6515e-10 4.96555e-12)
(2.2418e-10 8.4654e-10 -4.71716e-13)
(5.14591e-11 1.39522e-10 -3.40862e-13)
(2.66666e-11 3.80616e-11 -5.52279e-13)
(2.79663e-11 3.82194e-11 3.13508e-13)
(2.50285e-10 1.09095e-09 -2.48613e-12)
(2.55012e-10 1.09684e-09 -1.04152e-12)
(2.63368e-10 1.09903e-09 1.05722e-12)
(2.56791e-10 1.09697e-09 -1.22996e-13)
(2.9986e-11 3.82853e-11 1.0252e-12)
(2.82912e-11 3.82396e-11 -1.09707e-13)
(2.32008e-10 8.98362e-10 -5.26672e-12)
(2.35401e-10 9.03812e-10 -5.44996e-12)
(2.30888e-10 8.96475e-10 -6.62987e-12)
(2.27165e-10 8.89715e-10 -6.14535e-12)
(3.17253e-10 3.46034e-10 -2.31338e-12)
(6.13583e-11 2.05197e-10 -3.49599e-12)
(2.07527e-10 8.28061e-10 -6.3383e-12)
(4.27375e-11 1.35024e-10 -2.46379e-12)
(3.25345e-10 3.51219e-10 -2.08635e-12)
(2.03504e-10 8.21571e-10 -5.73029e-12)
(4.13721e-11 1.34076e-10 -2.73358e-12)
(1.96899e-11 3.62464e-11 -1.16105e-12)
(2.16225e-11 3.67371e-11 -6.64711e-13)
(2.27093e-10 1.05113e-09 -4.44078e-12)
(2.32782e-10 1.06195e-09 -5.14252e-12)
(2.3883e-10 1.07295e-09 -4.80834e-12)
(2.34435e-10 1.06488e-09 -4.948e-12)
(2.34969e-11 3.72722e-11 -5.44823e-13)
(2.19445e-11 3.68725e-11 -1.16935e-12)
(1.93552e-10 1.11961e-09 -1.66417e-12)
(2.02192e-10 8.44269e-10 5.4793e-12)
(2.10609e-10 8.59706e-10 -3.76877e-12)
(1.82336e-10 1.09224e-09 1.01146e-11)
(1.91002e-10 1.11314e-09 -9.7826e-15)
(1.99226e-10 8.3941e-10 9.02714e-12)
(1.90093e-10 8.20714e-10 3.40409e-11)
(1.58182e-10 1.01203e-09 1.30346e-10)
(1.65353e-10 1.05255e-09 5.86398e-11)
(1.79003e-10 1.08601e-09 1.5465e-11)
(1.68804e-10 1.06215e-09 4.38522e-11)
(2.36842e-10 3.06919e-10 3.04356e-11)
(4.32348e-11 1.88523e-10 5.35203e-12)
(1.70933e-10 7.73494e-10 8.81962e-12)
(2.19643e-11 1.22984e-10 1.0744e-12)
(2.65319e-10 3.17841e-10 1.34783e-11)
(1.5867e-10 7.57205e-10 3.2091e-11)
(1.61671e-11 1.20994e-10 4.26422e-12)
(-8.74533e-12 3.24476e-11 4.82768e-12)
(2.15719e-13 3.34009e-11 3.73363e-12)
(1.66242e-10 9.46582e-10 1.16632e-10)
(1.7847e-10 9.73617e-10 5.47411e-11)
(1.98208e-10 1.00199e-09 1.54787e-11)
(1.83606e-10 9.80628e-10 4.15393e-11)
(1.02294e-11 3.43784e-11 1.20687e-12)
(2.57937e-12 3.36152e-11 2.5276e-12)
(1.58071e-10 9.91773e-10 1.65287e-10)
(1.88035e-10 8.47349e-10 2.9833e-10)
(6.54428e-11 7.05842e-11 5.05886e-11)
(2.49193e-10 5.81886e-10 3.02891e-10)
(2.21345e-10 7.62704e-10 3.44917e-10)
(1.39362e-10 1.76946e-10 1.46065e-10)
(3.74e-11 1.14414e-11 5.33919e-11)
(2.12519e-10 1.85055e-10 2.45089e-10)
(2.00746e-11 1.6645e-11 2.66279e-11)
(4.45822e-11 7.10414e-12 6.62867e-11)
(2.45105e-10 1.73627e-10 2.8613e-10)
(1.51196e-10 4.10091e-10 -3.16611e-12)
(3.3601e-10 3.57238e-10 -1.01027e-12)
(2.37189e-10 5.447e-10 -2.60322e-12)
(1.8444e-10 2.80526e-10 -2.6101e-12)
(1.85966e-10 2.81371e-10 -2.04364e-12)
(2.38669e-10 5.45826e-10 -3.08237e-12)
(1.49938e-10 4.0912e-10 -3.15908e-12)
(1.52306e-10 4.10669e-10 -2.68151e-12)
(3.36426e-10 3.57245e-10 -1.04981e-12)
(1.88684e-10 2.82679e-10 -1.49585e-12)
(2.41518e-10 5.47929e-10 -2.52154e-12)
(1.53525e-10 4.11685e-10 -2.64832e-12)
(1.87221e-10 2.81844e-10 -2.13891e-12)
(2.40101e-10 5.46758e-10 -2.06958e-12)
(1.25977e-10 3.88876e-10 -4.40578e-12)
(2.98077e-10 3.34589e-10 7.37386e-13)
(2.03957e-10 5.13742e-10 -1.17131e-12)
(1.52527e-10 2.62306e-10 -1.99134e-12)
(1.56122e-10 2.64555e-10 -2.35038e-12)
(2.07441e-10 5.17067e-10 -2.91193e-12)
(1.23057e-10 3.86086e-10 -3.48051e-12)
(1.28331e-10 3.90494e-10 -4.56418e-12)
(2.99215e-10 3.34941e-10 9.18555e-14)
(1.61729e-10 2.67758e-10 -3.19436e-12)
(2.13395e-10 5.22673e-10 -4.18265e-12)
(1.30712e-10 3.9297e-10 -5.10143e-12)
(1.58794e-10 2.65748e-10 -3.18586e-12)
(2.10533e-10 5.19762e-10 -2.94002e-12)
(8.09852e-11 3.50882e-10 8.35332e-11)
(2.27635e-10 3.04753e-10 9.0786e-11)
(1.77639e-10 4.45238e-10 1.43102e-10)
(1.04382e-10 2.28807e-10 7.60619e-11)
(8.71193e-11 2.39042e-10 6.3664e-11)
(1.58065e-10 4.65133e-10 1.20755e-10)
(9.93319e-11 3.32722e-10 1.02051e-10)
(7.31243e-11 3.5624e-10 7.13721e-11)
(2.202e-10 3.04087e-10 8.40708e-11)
(8.29343e-11 2.44846e-10 4.68229e-11)
(1.40993e-10 4.7739e-10 8.52614e-11)
(7.00851e-11 3.61031e-10 5.86935e-11)
(8.18695e-11 2.4165e-10 5.45023e-11)
(1.4604e-10 4.7321e-10 1.02949e-10)
(1.5723e-10 4.13909e-10 -1.3516e-12)
(3.43314e-10 3.60396e-10 5.11063e-13)
(2.47895e-10 5.52063e-10 -6.72657e-13)
(1.94736e-10 2.84878e-10 -1.03482e-14)
(1.58883e-10 4.14652e-10 -1.13078e-12)
(1.92843e-10 2.84177e-10 -7.85209e-13)
(2.46004e-10 5.51203e-10 -5.2753e-13)
(1.55947e-10 4.13336e-10 -1.98279e-12)
(3.42859e-10 3.60486e-10 4.19296e-13)
(1.89915e-10 2.83101e-10 -1.54496e-12)
(2.42911e-10 5.48993e-10 -1.44076e-12)
(1.5463e-10 4.12322e-10 -2.11354e-12)
(1.91446e-10 2.8381e-10 -8.23848e-13)
(2.44394e-10 5.50227e-10 -1.77875e-12)
(1.3644e-10 3.97703e-10 -5.04347e-12)
(3.12147e-10 3.42872e-10 -1.99711e-12)
(2.22707e-10 5.31642e-10 -4.89505e-12)
(1.70625e-10 2.72938e-10 -3.6038e-12)
(1.382e-10 3.99558e-10 -5.19273e-12)
(1.6844e-10 2.71414e-10 -3.98324e-12)
(2.20615e-10 5.29482e-10 -4.15473e-12)
(1.34735e-10 3.96496e-10 -5.30822e-12)
(3.11408e-10 3.42655e-10 -1.68651e-12)
(1.63966e-10 2.68792e-10 -3.80327e-12)
(2.15968e-10 5.24973e-10 -3.82046e-12)
(1.32683e-10 3.9436e-10 -5.01041e-12)
(1.66509e-10 2.70518e-10 -3.57803e-12)
(2.18407e-10 5.27488e-10 -4.7687e-12)
(7.72129e-11 3.63166e-10 3.22149e-11)
(2.21924e-10 3.04128e-10 4.45633e-11)
(1.54746e-10 4.83075e-10 3.57328e-11)
(1.0286e-10 2.45982e-10 2.21265e-11)
(8.246e-11 3.64988e-10 2.39716e-11)
(9.60083e-11 2.44886e-10 2.77701e-11)
(1.48732e-10 4.80772e-10 4.63664e-11)
(7.33207e-11 3.62659e-10 3.94636e-11)
(2.20049e-10 3.05043e-10 4.87439e-11)
(8.57051e-11 2.44499e-10 4.01541e-11)
(1.40824e-10 4.78196e-10 7.1126e-11)
(7.05159e-11 3.61311e-10 4.96969e-11)
(9.06754e-11 2.45027e-10 3.37458e-11)
(1.43863e-10 4.79486e-10 5.70595e-11)
(1.74464e-10 4.1929e-10 4.17232e-12)
(3.6547e-10 3.65199e-10 8.44393e-12)
(2.66752e-10 5.58998e-10 6.49546e-12)
(2.11323e-10 2.87576e-10 5.19668e-12)
(1.71418e-10 4.18668e-10 2.94102e-12)
(3.64104e-10 3.65581e-10 7.71807e-12)
(2.59986e-10 5.56177e-10 3.776e-12)
(2.05524e-10 2.87153e-10 3.21295e-12)
(2.62936e-10 5.57811e-10 4.21421e-12)
(2.08217e-10 2.87436e-10 4.59545e-12)
(1.68724e-10 4.17528e-10 2.17498e-12)
(3.79688e-10 7.02952e-10 6.76024e-12)
(2.703e-10 1.10787e-09 2.58654e-12)
(3.2772e-10 8.19351e-10 3.14892e-12)
(3.33381e-10 8.25067e-10 5.18754e-12)
(2.74629e-10 1.11137e-09 4.57801e-12)
(3.35559e-10 8.26565e-10 5.7662e-12)
(3.71754e-10 6.97343e-10 4.11335e-12)
(3.77435e-10 7.01755e-10 6.38974e-12)
(2.39625e-10 2.10166e-10 5.80997e-12)
(1.55616e-10 1.43282e-10 2.62878e-12)
(3.14392e-11 3.8171e-11 1.49072e-12)
(1.58262e-10 1.43332e-10 3.45613e-12)
(2.34009e-10 2.10366e-10 3.74789e-12)
(2.382e-10 2.10285e-10 4.8623e-12)
(3.21872e-11 3.80641e-11 1.31259e-12)
(1.60398e-10 1.43023e-10 4.14281e-12)
(2.11468e-10 2.04894e-10 -1.57269e-12)
(2.14068e-10 2.05863e-10 -1.64424e-12)
(1.42035e-10 1.40926e-10 -7.81432e-13)
(2.61017e-11 3.79478e-11 -6.65758e-13)
(1.40846e-10 1.40424e-10 -1.15052e-12)
(2.16997e-10 2.06921e-10 -1.14785e-12)
(2.1464e-10 2.06022e-10 -1.17609e-12)
(1.3804e-10 1.39607e-10 -1.50803e-12)
(2.586e-11 3.78769e-11 -2.81381e-13)
(1.40007e-10 1.40174e-10 -1.2002e-12)
(3.47345e-10 6.83609e-10 -2.60019e-12)
(3.49724e-10 6.85633e-10 -1.82821e-12)
(3.09798e-10 8.09431e-10 -1.86512e-12)
(2.47722e-10 1.08659e-09 -2.94728e-12)
(3.07627e-10 8.07043e-10 -2.48572e-12)
(3.52849e-10 6.88206e-10 -1.216e-12)
(3.5049e-10 6.85989e-10 -2.05756e-12)
(3.04725e-10 8.04619e-10 -3.03109e-12)
(2.4651e-10 1.08512e-09 -3.26332e-12)
(3.06919e-10 8.06575e-10 -2.40743e-12)
(1.47614e-10 4.07394e-10 -3.63684e-12)
(2.35775e-10 5.43728e-10 -3.60333e-12)
(3.29446e-10 3.53476e-10 -1.93507e-12)
(1.83213e-10 2.8005e-10 -2.43996e-12)
(1.48838e-10 4.08517e-10 -3.62316e-12)
(2.34334e-10 5.42432e-10 -3.12916e-12)
(1.81729e-10 2.79108e-10 -3.00839e-12)
(1.46494e-10 4.06663e-10 -4.11419e-12)
(3.29046e-10 3.53432e-10 -1.84259e-12)
(2.31387e-10 5.39706e-10 -3.57921e-12)
(1.78878e-10 2.77533e-10 -3.41578e-12)
(2.32903e-10 5.41228e-10 -4.10533e-12)
(1.80479e-10 2.78572e-10 -2.86077e-12)
(1.45196e-10 4.05366e-10 -4.11693e-12)
(3.46573e-10 6.83164e-10 -2.34242e-12)
(3.44168e-10 6.80756e-10 -3.05826e-12)
(2.41496e-10 1.07782e-09 -4.40451e-12)
(2.98705e-10 7.97592e-10 -3.94101e-12)
(3.01055e-10 8.00703e-10 -3.44982e-12)
(3.04006e-10 8.04057e-10 -2.94744e-12)
(2.42775e-10 1.0801e-09 -4.05093e-12)
(3.01801e-10 8.01496e-10 -3.55335e-12)
(3.40801e-10 6.77255e-10 -3.39355e-12)
(3.43361e-10 6.80142e-10 -2.77772e-12)
(2.10931e-10 2.04743e-10 -2.00486e-12)
(2.08527e-10 2.03735e-10 -1.91854e-12)
(1.33046e-10 1.37848e-10 -2.04608e-12)
(2.44349e-11 3.75104e-11 -4.96659e-13)
(1.35143e-10 1.38501e-10 -1.74886e-12)
(2.05205e-10 2.02424e-10 -2.23555e-12)
(2.07978e-10 2.03567e-10 -2.34826e-12)
(1.3727e-10 1.39348e-10 -1.42476e-12)
(2.46864e-11 3.76082e-11 -8.84575e-13)
(1.35986e-10 1.38787e-10 -1.73998e-12)
(1.75083e-10 1.90025e-10 -2.95926e-13)
(1.81128e-10 1.92417e-10 -1.58121e-12)
(1.18132e-10 1.32274e-10 -1.87254e-12)
(1.85331e-11 3.59118e-11 -9.94226e-13)
(1.15289e-10 1.31124e-10 -1.84632e-12)
(1.87137e-10 1.94903e-10 -2.40304e-12)
(1.82294e-10 1.92789e-10 -1.54243e-12)
(1.09589e-10 1.29242e-10 -1.15264e-12)
(1.80783e-11 3.57386e-11 -4.58599e-13)
(1.13635e-10 1.30564e-10 -1.34755e-12)
(3.09143e-10 6.4421e-10 1.28812e-12)
(3.15033e-10 6.50526e-10 -3.7052e-13)
(2.81278e-10 7.75741e-10 -3.06984e-12)
(2.22527e-10 1.0425e-09 -3.32079e-12)
(2.76864e-10 7.69859e-10 -2.21657e-12)
(3.21642e-10 6.57421e-10 -2.01061e-12)
(3.16767e-10 6.51931e-10 -1.2407e-12)
(2.69951e-10 7.6144e-10 2.37166e-13)
(2.19942e-10 1.03779e-09 -2.43913e-12)
(2.75299e-10 7.68175e-10 -1.53264e-12)
(1.16473e-10 3.81151e-10 -1.34981e-12)
(2.00168e-10 5.10723e-10 -5.48301e-13)
(2.80382e-10 3.2447e-10 6.04801e-12)
(1.49173e-10 2.60966e-10 -7.6417e-13)
(1.20134e-10 3.84279e-10 -2.90577e-12)
(1.95867e-10 5.06984e-10 1.93244e-12)
(1.44657e-10 2.58415e-10 1.2988e-13)
(1.12788e-10 3.79174e-10 -1.11792e-13)
(2.78461e-10 3.23975e-10 7.4031e-12)
(1.85906e-10 4.99578e-10 7.18877e-12)
(1.34694e-10 2.54218e-10 3.66008e-12)
(1.91165e-10 5.03581e-10 3.49873e-12)
(1.40357e-10 2.56925e-10 1.91918e-12)
(1.08226e-10 3.75859e-10 2.48316e-12)
(3.07039e-10 6.42651e-10 2.50416e-12)
(2.99853e-10 6.35486e-10 5.45858e-12)
(2.06712e-10 1.01486e-09 6.2151e-12)
(2.51374e-10 7.41521e-10 1.13332e-11)
(2.5921e-10 7.49767e-10 6.01435e-12)
(2.68046e-10 7.59575e-10 1.28215e-12)
(2.10488e-10 1.02112e-09 3.19105e-12)
(2.61531e-10 7.51935e-10 4.40874e-12)
(2.88624e-10 6.2593e-10 1.21802e-11)
(2.97269e-10 6.33682e-10 7.19895e-12)
(1.73595e-10 1.8962e-10 -1.37584e-13)
(1.66036e-10 1.86872e-10 1.77718e-12)
(9.28927e-11 1.24617e-10 2.05147e-12)
(1.37976e-11 3.48844e-11 3.50539e-13)
(9.95545e-11 1.264e-10 1.212e-12)
(1.54359e-10 1.83403e-10 5.04336e-12)
(1.64046e-10 1.86439e-10 2.2097e-12)
(1.0744e-10 1.28623e-10 -3.33909e-13)
(1.48489e-11 3.51067e-11 -3.79782e-13)
(1.02712e-10 1.27073e-10 9.4012e-14)
(1.03738e-10 1.52471e-10 5.47788e-11)
(8.22019e-11 1.62609e-10 4.22467e-11)
(3.91117e-11 1.13614e-10 1.88629e-11)
(-9.3969e-12 3.05541e-11 5.08593e-12)
(3.47028e-11 1.06585e-10 1.98342e-11)
(9.34789e-11 1.73376e-10 3.36015e-11)
(8.26357e-11 1.65575e-10 3.94381e-11)
(5.09273e-11 9.24091e-11 2.64172e-11)
(-4.83165e-12 2.89337e-11 5.79219e-12)
(3.85696e-11 9.82704e-11 2.21236e-11)
(2.75512e-10 5.47551e-10 1.86789e-10)
(2.47234e-10 5.8332e-10 1.47451e-10)
(2.04948e-10 7.02208e-10 1.11264e-10)
(1.68763e-10 9.13174e-10 1.7812e-10)
(2.10985e-10 6.88303e-10 1.47626e-10)
(2.36779e-10 5.96154e-10 1.02442e-10)
(2.42179e-10 5.88219e-10 1.34948e-10)
(2.46176e-10 6.33808e-10 2.03801e-10)
(1.78684e-10 8.80159e-10 2.1348e-10)
(2.15983e-10 6.80112e-10 1.61382e-10)
(1.54236e-10 2.73596e-10 1.45966e-10)
(2.04779e-10 4.10084e-10 1.6965e-10)
(3.1937e-10 2.3044e-10 1.70652e-10)
(1.28188e-10 2.189e-10 9.02879e-11)
(1.21618e-10 3.03864e-10 1.20236e-10)
(2.46128e-10 3.72187e-10 2.11782e-10)
(1.61117e-10 1.97893e-10 1.09985e-10)
(1.78724e-10 2.44143e-10 1.7432e-10)
(3.24656e-10 5.23764e-10 3.59262e-10)
(3.04494e-10 4.46901e-10 2.81872e-10)
(2.53158e-10 2.6533e-10 2.79177e-10)
(1.25647e-10 1.64744e-10 1.26213e-10)
(1.08528e-11 1.3266e-11 1.1967e-11)
(1.2376e-10 1.06606e-10 7.34899e-11)
(1.60999e-11 1.68588e-11 2.2188e-11)
(1.66912e-10 2.23006e-10 1.5019e-10)
(3.60923e-10 2.31505e-10 1.8146e-10)
(3.10949e-10 3.94996e-10 2.64893e-10)
(1.72475e-10 1.36963e-10 9.28159e-11)
(2.88755e-10 5.28096e-10 2.02245e-10)
(3.51973e-10 4.52045e-10 2.60982e-10)
(3.31167e-10 6.03915e-10 3.50751e-10)
(3.51888e-10 5.10919e-10 2.96625e-10)
(2.61251e-10 6.11978e-10 2.20131e-10)
(2.88592e-10 6.77583e-10 3.16977e-10)
(3.30011e-10 5.28364e-10 2.77798e-10)
(3.77459e-10 4.37282e-10 2.79525e-10)
(1.18074e-10 1.4769e-10 5.86012e-11)
(1.68192e-10 1.1862e-10 7.55369e-11)
(1.106e-11 1.09764e-11 1.20454e-11)
(1.35565e-10 8.35207e-11 6.32798e-11)
(1.91951e-10 1.04224e-10 7.95875e-11)
(7.31042e-11 8.89707e-11 2.98325e-11)
(2.08471e-11 2.21635e-11 1.01312e-11)
(9.24406e-11 7.55998e-11 3.54426e-11)
(1.62633e-10 4.15472e-10 -1.47958e-13)
(3.52505e-10 3.63827e-10 3.08071e-12)
(2.50041e-10 5.52543e-10 7.11685e-13)
(1.96589e-10 2.8528e-10 8.35723e-14)
(1.60534e-10 4.14963e-10 -4.42062e-13)
(2.52489e-10 5.53085e-10 6.44944e-13)
(1.9901e-10 2.85985e-10 1.0005e-12)
(1.64535e-10 4.15834e-10 6.67939e-13)
(3.53423e-10 3.63736e-10 3.32234e-12)
(2.57459e-10 5.54733e-10 2.10144e-12)
(2.03485e-10 2.8699e-10 2.63176e-12)
(1.66705e-10 4.16728e-10 1.16567e-12)
(2.54977e-10 5.53635e-10 2.09143e-12)
(2.01136e-10 2.86403e-10 1.37106e-12)
(2.23743e-10 2.08671e-10 3.10635e-13)
(2.20792e-10 2.0788e-10 6.63026e-14)
(1.42802e-10 1.41122e-10 -7.75314e-13)
(2.73044e-11 3.8142e-11 3.80671e-14)
(1.44719e-10 1.4157e-10 -3.68253e-13)
(2.17555e-10 2.07049e-10 -6.47361e-13)
(2.20158e-10 2.0779e-10 -4.97455e-13)
(1.4723e-10 1.42187e-10 2.77995e-13)
(2.76034e-11 3.81845e-11 -3.03218e-13)
(1.45695e-10 1.41707e-10 -1.87403e-13)
(3.60133e-10 6.93494e-10 7.15242e-13)
(3.57165e-10 6.91934e-10 -5.67307e-13)
(3.10544e-10 8.10187e-10 -1.91815e-12)
(2.5178e-10 1.09337e-09 -2.28002e-12)
(3.12994e-10 8.13161e-10 -1.10313e-12)
(3.53651e-10 6.88763e-10 -1.41674e-12)
(3.56243e-10 6.91337e-10 -4.25756e-13)
(3.16652e-10 8.155e-10 1.37245e-13)
(2.53368e-10 1.09556e-09 -1.62986e-12)
(3.13862e-10 8.13954e-10 -1.07076e-12)
(3.61197e-10 6.93546e-10 6.64091e-13)
(3.64717e-10 6.94142e-10 2.19696e-12)
(3.26165e-10 8.17954e-10 2.9249e-12)
(2.60829e-10 1.0967e-09 9.10817e-13)
(3.22123e-10 8.15331e-10 1.70239e-12)
(3.70154e-10 6.96332e-10 3.96959e-12)
(3.65941e-10 6.93958e-10 2.24452e-12)
(3.17662e-10 8.15564e-10 2.53314e-13)
(2.58725e-10 1.09654e-09 3.96228e-13)
(3.20947e-10 8.15446e-10 1.56785e-12)
(2.2459e-10 2.08796e-10 9.17026e-13)
(2.28465e-10 2.0975e-10 1.34197e-12)
(1.54338e-10 1.43481e-10 2.15585e-12)
(2.94787e-11 3.8304e-11 2.66737e-13)
(1.52584e-10 1.4314e-10 1.37233e-12)
(2.33064e-10 2.10425e-10 2.90994e-12)
(2.29468e-10 2.09887e-10 2.05888e-12)
(1.48479e-10 1.42376e-10 4.17856e-13)
(2.90435e-11 3.83045e-11 5.4363e-13)
(1.51082e-10 1.42965e-10 9.83329e-13)
(1.41267e-10 4.02178e-10 -4.93001e-12)
(3.21239e-10 3.48683e-10 -2.18655e-12)
(2.24625e-10 5.3332e-10 -4.1301e-12)
(1.72311e-10 2.73704e-10 -3.93364e-12)
(1.39688e-10 4.00578e-10 -4.84513e-12)
(2.2649e-10 5.3519e-10 -4.77828e-12)
(1.74273e-10 2.75013e-10 -3.48375e-12)
(1.42603e-10 4.0309e-10 -4.5219e-12)
(3.21775e-10 3.48814e-10 -2.35075e-12)
(2.29857e-10 5.38364e-10 -4.49705e-12)
(1.77521e-10 2.76919e-10 -3.20477e-12)
(1.43995e-10 4.04544e-10 -4.55699e-12)
(2.28208e-10 5.36683e-10 -3.92521e-12)
(1.75787e-10 2.75707e-10 -3.71809e-12)
(1.96946e-10 1.99009e-10 -2.88825e-12)
(1.93312e-10 1.97384e-10 -2.52799e-12)
(1.195e-10 1.32798e-10 -2.28087e-12)
(2.06378e-11 3.64339e-11 -7.17619e-13)
(1.22572e-10 1.33829e-10 -2.18536e-12)
(1.88111e-10 1.95234e-10 -2.24024e-12)
(1.92464e-10 1.97099e-10 -2.79804e-12)
(1.26012e-10 1.35201e-10 -2.17181e-12)
(2.10216e-11 3.65906e-11 -1.15648e-12)
(1.2386e-10 1.34298e-10 -2.37186e-12)
(3.32018e-10 6.68404e-10 -3.22851e-12)
(3.28471e-10 6.64366e-10 -3.38228e-12)
(2.82591e-10 7.77173e-10 -3.52557e-12)
(2.2916e-10 1.05493e-09 -4.89558e-12)
(2.8636e-10 7.82217e-10 -3.83829e-12)
(3.23087e-10 6.58599e-10 -2.65572e-12)
(3.27229e-10 6.63345e-10 -2.88368e-12)
(2.90708e-10 7.87803e-10 -4.08145e-12)
(2.31044e-10 1.05851e-09 -4.97121e-12)
(2.8749e-10 7.83474e-10 -4.14911e-12)
(3.33092e-10 6.6925e-10 -3.63345e-12)
(3.36223e-10 6.72735e-10 -3.26558e-12)
(2.97921e-10 7.96745e-10 -3.80776e-12)
(2.37475e-10 1.07021e-09 -4.81558e-12)
(2.95413e-10 7.93395e-10 -4.20455e-12)
(3.39945e-10 6.76586e-10 -3.08617e-12)
(3.37177e-10 6.73466e-10 -3.60904e-12)
(2.91688e-10 7.88837e-10 -4.30108e-12)
(2.36022e-10 1.06759e-09 -5.01626e-12)
(2.94546e-10 7.92495e-10 -4.03691e-12)
(1.97685e-10 1.99256e-10 -2.56759e-12)
(2.01071e-10 2.00693e-10 -2.82451e-12)
(1.32208e-10 1.37518e-10 -1.92566e-12)
(2.30496e-11 3.71608e-11 -1.07099e-12)
(1.3059e-10 1.36797e-10 -2.20352e-12)
(2.0461e-10 2.02224e-10 -2.62819e-12)
(2.01745e-10 2.0092e-10 -2.45294e-12)
(1.27074e-10 1.35608e-10 -2.37737e-12)
(2.27427e-11 3.70298e-11 -6.66912e-13)
(1.29573e-10 1.36416e-10 -2.14331e-12)
(1.85513e-10 1.09888e-09 5.68494e-12)
(1.88372e-10 1.10581e-09 2.5025e-12)
(1.59817e-10 1.02782e-09 1.00942e-10)
(1.62294e-10 1.04108e-09 7.74263e-11)
(1.75689e-10 1.0787e-09 2.26672e-11)
(1.72312e-10 1.07073e-09 3.18213e-11)
(9.3351e-11 3.68853e-10 1.25075e-11)
(2.50119e-10 3.11794e-10 2.21234e-11)
(1.6118e-10 4.85481e-10 2.82322e-11)
(1.09243e-10 2.46699e-10 1.71958e-11)
(8.75532e-11 3.66183e-10 1.85637e-11)
(1.67788e-10 4.88817e-10 2.04798e-11)
(1.16543e-10 2.48767e-10 1.29161e-11)
(9.84128e-11 3.70638e-10 8.83624e-12)
(2.52891e-10 3.12098e-10 1.95397e-11)
(1.80279e-10 4.96083e-10 1.0147e-11)
(1.29375e-10 2.5271e-10 6.31455e-12)
(1.03764e-10 3.73881e-10 4.74713e-12)
(1.74157e-10 4.92104e-10 1.55328e-11)
(1.22692e-10 2.50067e-10 9.20645e-12)
(1.21372e-10 1.77048e-10 1.80097e-11)
(1.09037e-10 1.7548e-10 2.4093e-11)
(4.02053e-11 1.15944e-10 1.7348e-11)
(-5.74614e-12 3.28538e-11 4.9396e-12)
(4.75428e-11 1.17898e-10 1.59862e-11)
(9.55291e-11 1.73885e-10 3.18693e-11)
(1.06126e-10 1.7564e-10 2.60043e-11)
(6.13771e-11 1.19495e-10 1.15705e-11)
(-3.25748e-12 3.31496e-11 3.88809e-12)
(5.24993e-11 1.18072e-10 1.34859e-11)
(2.57547e-10 6.06288e-10 4.33541e-11)
(2.47012e-10 6.01056e-10 6.08754e-11)
(2.05571e-10 7.04448e-10 1.00427e-10)
(1.6926e-10 9.56685e-10 9.16644e-11)
(2.11184e-10 7.10328e-10 7.23106e-11)
(2.3749e-10 5.96916e-10 9.27704e-11)
(2.43954e-10 5.99978e-10 6.80386e-11)
(2.23403e-10 7.18986e-10 4.47634e-11)
(1.73549e-10 9.65677e-10 7.13359e-11)
(2.13904e-10 7.12289e-10 6.43944e-11)
(2.61149e-10 6.07638e-10 3.82178e-11)
(2.72064e-10 6.14442e-10 2.61841e-11)
(2.48639e-10 7.39289e-10 1.37883e-11)
(1.93558e-10 9.94893e-10 2.22326e-11)
(2.3958e-10 7.30806e-10 2.22906e-11)
(2.85573e-10 6.24113e-10 1.46942e-11)
(2.75538e-10 6.16255e-10 2.25566e-11)
(2.26621e-10 7.20875e-10 3.9274e-11)
(1.88677e-10 9.87733e-10 3.06132e-11)
(2.36488e-10 7.28531e-10 2.60144e-11)
(1.24626e-10 1.77124e-10 1.63206e-11)
(1.37365e-10 1.7966e-10 1.11224e-11)
(8.88248e-11 1.23949e-10 3.73113e-12)
(7.73888e-12 3.41143e-11 1.25504e-12)
(8.11649e-11 1.22073e-10 5.04554e-12)
(1.51829e-10 1.82992e-10 5.86701e-12)
(1.40392e-10 1.79958e-10 9.85996e-12)
(6.69444e-11 1.19787e-10 8.98027e-12)
(5.77885e-12 3.38862e-11 2.33237e-12)
(7.60389e-11 1.21547e-10 7.2003e-12)
(1.61174e-10 9.60828e-10 2.05611e-10)
(1.69777e-10 9.14581e-10 2.50748e-10)
(3.43412e-10 5.21532e-10 3.95253e-10)
(2.87812e-10 2.55587e-10 3.24149e-10)
(3.37626e-10 6.01198e-10 3.82976e-10)
(2.74678e-10 6.66182e-10 3.88906e-10)
(2.40804e-10 3.96484e-10 -2.31321e-12)
(3.34173e-10 3.56274e-10 -1.19835e-12)
(3.15406e-10 4.4285e-10 -1.98588e-12)
(2.64932e-10 3.10674e-10 -2.0769e-12)
(2.66061e-10 3.11509e-10 -1.35877e-12)
(3.16619e-10 4.43614e-10 -1.8476e-12)
(2.40045e-10 3.96003e-10 -2.39419e-12)
(1.44744e-10 5.01653e-10 -2.93373e-12)
(1.81825e-10 6.05997e-10 -4.48995e-12)
(2.21973e-10 7.19445e-10 -3.05678e-12)
(2.15747e-10 8.38831e-10 -3.21262e-12)
(1.45859e-10 5.02867e-10 -3.52062e-12)
(1.80757e-10 6.04589e-10 -2.92099e-12)
(2.20706e-10 7.18006e-10 -3.16914e-12)
(2.44643e-10 3.98719e-10 -1.6569e-12)
(3.38116e-10 3.58193e-10 -7.73956e-13)
(2.71011e-10 3.13865e-10 -5.79255e-13)
(3.21638e-10 4.46647e-10 -9.93432e-13)
(2.45399e-10 3.99079e-10 -1.51338e-12)
(2.69979e-10 3.13189e-10 -1.34166e-12)
(3.20385e-10 4.45844e-10 -1.17017e-12)
(1.43796e-10 5.01035e-10 -3.99294e-12)
(2.18159e-10 7.15729e-10 -3.67448e-12)
(2.14604e-10 8.37642e-10 -4.60315e-12)
(1.78852e-10 6.02668e-10 -3.36105e-12)
(1.79876e-10 6.0389e-10 -4.92297e-12)
(2.19446e-10 7.16944e-10 -3.5159e-12)
(1.42681e-10 4.99943e-10 -3.39617e-12)
(2.05967e-10 3.72234e-10 -8.96729e-13)
(2.93798e-10 3.32079e-10 1.96827e-12)
(2.75401e-10 4.14004e-10 1.43396e-12)
(2.25668e-10 2.88652e-10 8.06487e-13)
(2.28377e-10 2.90556e-10 8.02849e-13)
(2.78327e-10 4.15962e-10 8.24982e-13)
(2.03991e-10 3.70918e-10 -2.93712e-13)
(1.23873e-10 4.7861e-10 -5.33509e-12)
(1.63419e-10 5.82207e-10 -7.67959e-12)
(1.97118e-10 6.89701e-10 -5.33858e-12)
(1.92649e-10 8.04218e-10 -5.24115e-12)
(1.25985e-10 4.81509e-10 -6.42813e-12)
(1.615e-10 5.78981e-10 -5.68173e-12)
(1.94635e-10 6.86267e-10 -4.77261e-12)
(2.14312e-10 3.78119e-10 -2.75191e-12)
(3.02884e-10 3.37286e-10 -6.69032e-13)
(2.39066e-10 2.96516e-10 -1.52054e-12)
(2.89248e-10 4.2388e-10 -1.81937e-12)
(2.15813e-10 3.79109e-10 -3.0041e-12)
(2.37026e-10 2.95024e-10 -1.83872e-12)
(2.8692e-10 4.22213e-10 -1.51609e-12)
(1.62075e-10 3.31691e-10 1.06469e-10)
(2.44864e-10 2.97346e-10 1.06786e-10)
(2.43035e-10 3.60796e-10 1.33396e-10)
(1.90852e-10 2.53935e-10 9.90354e-11)
(1.79106e-10 2.62723e-10 9.25581e-11)
(2.34143e-10 3.71475e-10 1.22981e-10)
(1.73321e-10 3.22421e-10 1.14736e-10)
(1.35101e-10 3.46363e-10 7.15853e-11)
(2.13714e-10 3.04724e-10 7.25286e-11)
(1.51213e-10 2.69399e-10 5.91996e-11)
(2.02206e-10 3.84927e-10 7.52101e-11)
(1.34518e-10 3.46317e-10 6.563e-11)
(1.51054e-10 2.68758e-10 6.33674e-11)
(2.02097e-10 3.84152e-10 8.19112e-11)
(2.31086e-10 6.38626e-10 -2.24608e-12)
(2.42288e-10 9.13e-10 -3.85295e-12)
(2.32356e-10 6.40074e-10 -4.41291e-12)
(2.34896e-10 6.41745e-10 -3.58868e-12)
(2.43731e-10 9.14391e-10 -2.29527e-12)
(2.33501e-10 6.40818e-10 -1.49597e-12)
(2.51109e-10 4.01888e-10 3.29762e-14)
(3.4539e-10 3.6122e-10 1.08161e-12)
(3.28989e-10 4.50256e-10 9.31536e-13)
(2.78197e-10 3.16434e-10 1.29436e-12)
(2.52188e-10 4.02161e-10 2.82454e-13)
(2.76796e-10 3.15748e-10 3.96512e-13)
(3.27395e-10 4.49498e-10 6.4358e-13)
(1.48077e-10 5.04914e-10 -2.85763e-12)
(1.82792e-10 6.06879e-10 -2.41617e-12)
(2.23282e-10 7.20849e-10 -2.65154e-12)
(2.19486e-10 8.43833e-10 -3.51557e-12)
(1.46847e-10 5.03631e-10 -2.39892e-12)
(1.84018e-10 6.08332e-10 -3.83887e-12)
(2.24707e-10 7.22455e-10 -2.36282e-12)
(2.46836e-10 3.99904e-10 -1.08638e-12)
(3.41048e-10 3.59739e-10 1.91692e-14)
(2.71479e-10 3.13759e-10 -9.60415e-13)
(3.22004e-10 4.4681e-10 -8.08002e-13)
(2.46106e-10 3.99462e-10 -1.25247e-12)
(2.72556e-10 3.14504e-10 -1.53725e-13)
(3.23187e-10 4.47516e-10 -5.81511e-13)
(2.30083e-10 6.37711e-10 -5.03742e-12)
(2.38552e-10 9.07726e-10 -3.64981e-12)
(2.28997e-10 6.36235e-10 -2.7434e-12)
(2.37527e-10 9.06434e-10 -4.89849e-12)
(2.27156e-10 6.34237e-10 -3.16956e-12)
(2.28137e-10 6.35492e-10 -5.46425e-12)
(2.24447e-10 3.8539e-10 -3.66848e-12)
(3.14799e-10 3.44628e-10 -2.19379e-12)
(2.99974e-10 4.31855e-10 -2.92919e-12)
(2.49602e-10 3.02516e-10 -2.45628e-12)
(2.25556e-10 3.86106e-10 -3.70628e-12)
(2.4808e-10 3.01387e-10 -3.00485e-12)
(2.98213e-10 4.30594e-10 -2.87398e-12)
(1.29461e-10 4.85529e-10 -6.52558e-12)
(1.64935e-10 5.8389e-10 -5.96105e-12)
(1.99395e-10 6.92442e-10 -5.51557e-12)
(1.98647e-10 8.14068e-10 -7.14949e-12)
(1.27651e-10 4.83037e-10 -5.67885e-12)
(1.66592e-10 5.86662e-10 -7.70037e-12)
(2.01525e-10 6.95372e-10 -5.77751e-12)
(2.18464e-10 3.8097e-10 -3.29442e-12)
(3.08376e-10 3.40766e-10 -1.24729e-12)
(2.39984e-10 2.9656e-10 -2.28075e-12)
(2.90051e-10 4.24474e-10 -2.07339e-12)
(2.17112e-10 3.79964e-10 -3.09828e-12)
(2.41908e-10 2.98046e-10 -1.86614e-12)
(2.92138e-10 4.25957e-10 -2.24188e-12)
(1.30899e-10 4.86863e-10 -5.61814e-12)
(2.05309e-10 7.00288e-10 -5.76375e-12)
(1.69356e-10 5.90531e-10 -7.42442e-12)
(2.0039e-10 8.1663e-10 -5.99264e-12)
(1.67911e-10 5.88116e-10 -5.82262e-12)
(1.32465e-10 4.89025e-10 -6.31782e-12)
(2.03485e-10 6.97745e-10 -5.71219e-12)
(1.49729e-10 3.47555e-10 3.31754e-11)
(2.29009e-10 3.05262e-10 3.71012e-11)
(2.21572e-10 3.87631e-10 3.4957e-11)
(1.71361e-10 2.69686e-10 2.93817e-11)
(1.53263e-10 3.48238e-10 2.95208e-11)