/*--------------------------------*- C++ -*----------------------------------*\
| =========                 |                                                 |
| \\      /  F ield         | OpenFOAM: The Open Source CFD Toolbox           |
|  \\    /   O peration     | Version:  2012                                  |
|   \\  /    A nd           | Website:  www.openfoam.com                      |
|    \\/     M anipulation  |                                                 |
\*---------------------------------------------------------------------------*/
FoamFile
{
    version     2.0;
    format      ascii;
    class       volVectorField;
    location    "0.107/solid";
    object      D_0_0;
}
// * * * * * * * * * * * * * * * * * * * * * * * * * * * * * * * * * * * * * //

dimensions      [0 1 0 0 0 0 0];


internalField   nonuniform List<vector> 
3125
(
(6.85075e-11 2.09123e-10 -3.33203e-12)
(5.91166e-11 1.98402e-10 -4.43896e-12)
(4.00366e-11 1.75223e-10 3.05909e-11)
(6.93697e-11 2.10237e-10 -3.33239e-12)
(6.08305e-11 2.00267e-10 -4.4223e-12)
(3.93456e-11 1.80534e-10 1.9951e-11)
(7.369e-11 2.14792e-10 -3.42903e-12)
(6.58083e-11 2.05917e-10 -3.63017e-12)
(5.19689e-11 1.9141e-10 -2.09819e-12)
(7.24234e-11 2.13323e-10 -3.39213e-12)
(6.4774e-11 2.04693e-10 -3.80784e-12)
(4.86205e-11 1.88731e-10 5.71072e-13)
(3.37003e-10 3.52838e-10 -3.22095e-12)
(4.94704e-11 1.37361e-10 -2.64312e-12)
(2.22167e-10 8.37306e-10 -7.05414e-12)
(6.76531e-11 2.08074e-10 -3.35577e-12)
(3.43759e-10 3.57653e-10 -2.92465e-12)
(2.19108e-10 8.31907e-10 -5.81234e-12)
(4.83322e-11 1.36495e-10 -2.73067e-12)
(2.92166e-10 3.24682e-10 1.92692e-12)
(3.74549e-11 1.28684e-10 -3.29286e-12)
(1.99861e-10 8.0087e-10 -7.63124e-12)
(5.7143e-11 1.96304e-10 -4.21724e-12)
(3.07365e-10 3.34004e-10 -1.3248e-12)
(1.92503e-10 7.89104e-10 -4.29315e-12)
(3.49437e-11 1.27025e-10 -3.03385e-12)
(2.54216e-10 2.82097e-10 1.11838e-10)
(5.24457e-12 1.13768e-10 1.86185e-11)
(1.52344e-10 7.13114e-10 1.12988e-10)
(4.86278e-11 1.60987e-10 4.26193e-11)
(2.14757e-10 2.99541e-10 6.50324e-11)
(1.8664e-10 6.24329e-10 2.02693e-10)
(1.40541e-11 1.07537e-10 2.46338e-11)
(2.46327e-10 9.08111e-10 -6.17727e-12)
(2.49415e-10 9.14039e-10 -6.88992e-12)
(3.51122e-10 3.62523e-10 -2.4565e-12)
(7.0306e-11 2.11282e-10 -3.21015e-12)
(5.05557e-11 1.38232e-10 -2.66918e-12)
(2.23204e-10 8.39286e-10 -5.86276e-12)
(3.44121e-10 3.57785e-10 -3.07156e-12)
(2.26554e-10 8.45066e-10 -6.59423e-12)
(5.1764e-11 1.39097e-10 -2.56904e-12)
(2.45395e-10 9.06039e-10 -7.30044e-12)
(2.42707e-10 9.00303e-10 -6.1423e-12)
(2.2728e-10 8.7141e-10 -7.24498e-12)
(2.32264e-10 8.80692e-10 -8.42394e-12)
(3.19529e-10 3.41586e-10 -2.76509e-12)
(6.23239e-11 2.01914e-10 -4.23618e-12)
(3.9625e-11 1.3017e-10 -3.41126e-12)
(2.01984e-10 8.03937e-10 -6.74597e-12)
(3.08356e-10 3.3433e-10 -1.78462e-12)
(2.07468e-10 8.12962e-10 -8.08113e-12)
(4.15217e-11 1.31495e-10 -3.28939e-12)
(2.25442e-10 8.68256e-10 -8.05978e-12)
(2.18912e-10 8.56146e-10 -4.82715e-12)
(1.88775e-10 7.76397e-10 1.026e-10)
(1.92999e-10 8.05926e-10 4.39603e-11)
(2.35e-10 3.01112e-10 3.27178e-11)
(4.15367e-11 1.83503e-10 1.13829e-11)
(5.98697e-12 1.15848e-10 1.30536e-11)
(1.51517e-10 7.23508e-10 9.15312e-11)
(2.13968e-10 2.98123e-10 6.00915e-11)
(1.59059e-10 7.44197e-10 4.07038e-11)
(1.1064e-11 1.17268e-10 8.18663e-12)
(1.9035e-10 7.61082e-10 1.29116e-10)
(2.22368e-10 6.4484e-10 2.45988e-10)
(2.33252e-10 8.54512e-10 -5.83893e-12)
(5.61193e-11 1.41942e-10 -2.45912e-12)
(3.61036e-10 3.68425e-10 -1.5903e-12)
(2.66326e-10 1.10646e-09 -5.23121e-12)
(3.14227e-11 3.89064e-11 -9.24816e-13)
(2.76119e-11 3.77626e-11 -6.72355e-13)
(2.63101e-11 3.73727e-11 -1.24284e-12)
(2.54346e-10 1.08469e-09 -5.65845e-12)
(2.51023e-10 1.07835e-09 -5.44676e-12)
(3.36579e-10 3.52722e-10 -3.06441e-12)
(6.67601e-11 2.0704e-10 -3.43939e-12)
(2.14519e-10 8.24326e-10 -6.37747e-12)
(4.5965e-11 1.34728e-10 -2.92279e-12)
(2.18002e-10 8.30407e-10 -7.12514e-12)
(3.29411e-10 3.47813e-10 -3.28876e-12)
(4.71747e-11 1.35636e-10 -2.74542e-12)
(2.46025e-10 1.06867e-09 -5.89265e-12)
(2.49837e-10 1.07638e-09 -5.73726e-12)
(2.46815e-11 3.68451e-11 -1.29972e-12)
(2.60833e-11 3.72487e-11 -7.09368e-13)
(1.96646e-11 3.53421e-11 -7.48749e-13)
(1.69624e-11 3.47232e-11 -8.98601e-13)
(2.30054e-10 1.03841e-09 -4.90988e-12)
(2.21906e-10 1.02347e-09 -1.63433e-12)
(2.90661e-10 3.24242e-10 2.86496e-12)
(5.4805e-11 1.93967e-10 -3.52749e-12)
(1.79413e-10 7.70356e-10 4.85192e-12)
(2.79778e-11 1.23146e-10 -1.27618e-12)
(1.89579e-10 7.85124e-10 -4.07758e-12)
(2.68843e-10 3.12617e-10 1.09975e-11)
(3.1908e-11 1.25184e-10 -2.3813e-12)
(2.07271e-10 9.98954e-10 9.64188e-12)
(2.18691e-10 1.018e-09 3.2519e-15)
(1.18528e-11 3.37879e-11 1.3174e-13)
(1.63429e-11 3.45265e-11 -2.08877e-13)
(-8.97657e-12 3.0865e-11 5.08512e-12)
(1.79225e-12 2.70827e-11 5.75791e-12)
(1.69713e-10 9.24139e-10 1.42132e-10)
(2.02183e-10 8.21801e-10 2.43821e-10)
(2.64369e-10 2.69869e-10 1.22792e-10)
(4.08386e-11 7.15036e-11 3.50647e-11)
(2.17654e-10 5.66968e-10 2.40521e-10)
(8.83318e-12 4.31955e-11 8.19385e-12)
(2.37101e-10 7.54488e-10 2.77705e-10)
(1.34383e-11 2.56908e-11 5.82828e-12)
(2.55128e-10 9.24242e-10 -6.21635e-12)
(2.53469e-10 9.20856e-10 -7.35791e-12)
(2.50292e-10 9.15033e-10 -5.67223e-12)
(3.51706e-10 3.62674e-10 -2.5296e-12)
(7.13267e-11 2.12205e-10 -3.21097e-12)
(2.31576e-10 8.51172e-10 -6.99603e-12)
(5.47631e-11 1.40945e-10 -2.49655e-12)
(3.60601e-10 3.68405e-10 -1.59122e-12)
(2.27729e-10 8.45959e-10 -5.21713e-12)
(5.32352e-11 1.39979e-10 -2.59605e-12)
(2.78432e-11 3.78843e-11 -1.20606e-12)
(2.92161e-11 3.82722e-11 -6.04525e-13)
(2.55463e-10 1.08751e-09 -5.54661e-12)
(2.59132e-10 1.09526e-09 -5.2171e-12)
(2.64427e-10 1.10123e-09 -5.24495e-12)
(2.60364e-10 1.09615e-09 -4.75133e-12)
(3.10845e-11 3.88104e-11 -4.38893e-13)
(2.94725e-11 3.83976e-11 -1.15056e-12)
(2.38543e-10 8.92455e-10 -6.72735e-12)
(2.4177e-10 8.98741e-10 -7.35947e-12)
(2.37441e-10 8.90391e-10 -7.97537e-12)
(2.33655e-10 8.8306e-10 -7.24068e-12)
(3.20215e-10 3.41807e-10 -3.02025e-12)
(6.36261e-11 2.03372e-10 -4.03322e-12)
(2.1325e-10 8.22344e-10 -7.69247e-12)
(4.46513e-11 1.33745e-10 -3.01098e-12)
(3.28894e-10 3.47646e-10 -3.10488e-12)
(2.09074e-10 8.15267e-10 -6.82671e-12)
(4.31748e-11 1.32673e-10 -3.20843e-12)
(2.01461e-11 3.55288e-11 -1.317e-12)
(2.23292e-11 3.60836e-11 -8.38507e-13)
(2.32363e-10 1.04262e-09 -5.26156e-12)
(2.38367e-10 1.05403e-09 -6.12124e-12)
(2.44667e-10 1.06593e-09 -6.1191e-12)
(2.40103e-10 1.05717e-09 -5.99569e-12)
(2.43994e-11 3.67117e-11 -7.86061e-13)
(2.26876e-11 3.6241e-11 -1.35707e-12)
(1.99821e-10 1.10897e-09 -2.38578e-12)
(2.07961e-10 8.36373e-10 4.69327e-12)
(2.1648e-10 8.51993e-10 -4.48647e-12)
(1.88422e-10 1.08333e-09 9.29553e-12)
(1.97239e-10 1.10331e-09 -7.46297e-13)
(2.04952e-10 8.31221e-10 8.18632e-12)
(1.95678e-10 8.12279e-10 3.28038e-11)
(1.63893e-10 1.00189e-09 1.27439e-10)
(1.71239e-10 1.04223e-09 5.7013e-11)
(1.85063e-10 1.07625e-09 1.4578e-11)
(1.74773e-10 1.05124e-09 4.24891e-11)
(2.37793e-10 3.00954e-10 2.9447e-11)
(4.49727e-11 1.86075e-10 4.92558e-12)
(1.75491e-10 7.65595e-10 7.99339e-12)
(2.30164e-11 1.21007e-10 7.70219e-13)
(2.6644e-10 3.12126e-10 1.28715e-11)
(1.63104e-10 7.49261e-10 3.0875e-11)
(1.71791e-11 1.18968e-10 3.88666e-12)
(-8.69056e-12 3.15525e-11 4.53775e-12)
(3.21592e-13 3.25247e-11 3.53747e-12)
(1.70539e-10 9.36893e-10 1.13838e-10)
(1.82913e-10 9.63832e-10 5.31485e-11)
(2.02824e-10 9.92383e-10 1.4613e-11)
(1.88084e-10 9.70853e-10 4.01986e-11)
(1.04063e-11 3.35481e-11 1.08077e-12)
(2.69869e-12 3.27502e-11 2.3546e-12)
(1.63732e-10 9.8098e-10 1.61734e-10)
(1.93343e-10 8.38873e-10 2.92178e-10)
(6.63466e-11 6.94086e-11 4.94216e-11)
(2.53704e-10 5.75906e-10 2.96339e-10)
(2.2623e-10 7.55721e-10 3.37395e-10)
(1.40289e-10 1.75192e-10 1.40535e-10)
(3.77038e-11 1.14029e-11 5.17274e-11)
(2.1446e-10 1.83264e-10 2.39001e-10)
(2.02196e-11 1.65903e-11 2.50957e-11)
(4.49324e-11 7.0699e-12 6.45832e-11)
(2.47343e-10 1.71785e-10 2.80046e-10)
(1.55481e-10 4.07914e-10 -5.18526e-12)
(3.40248e-10 3.55181e-10 -2.99873e-12)
(2.41904e-10 5.41448e-10 -4.60227e-12)
(1.88453e-10 2.78591e-10 -4.25362e-12)
(1.9004e-10 2.79737e-10 -3.90752e-12)
(2.43391e-10 5.42941e-10 -5.30316e-12)
(1.54207e-10 4.06602e-10 -4.96244e-12)
(1.56578e-10 4.08699e-10 -4.892e-12)
(3.40668e-10 3.55326e-10 -3.15321e-12)
(1.9281e-10 2.81588e-10 -3.80213e-12)
(2.46196e-10 5.45807e-10 -5.26253e-12)
(1.57735e-10 4.10107e-10 -5.12228e-12)
(1.91304e-10 2.80397e-10 -4.17838e-12)
(2.44806e-10 5.44205e-10 -4.53361e-12)
(1.28702e-10 3.84251e-10 -5.00783e-12)
(2.99716e-10 3.29395e-10 2.73457e-13)
(2.06735e-10 5.07559e-10 -1.78691e-12)
(1.54302e-10 2.58286e-10 -2.46405e-12)
(1.58029e-10 2.60637e-10 -2.87176e-12)
(2.10342e-10 5.11004e-10 -3.54712e-12)
(1.25664e-10 3.81347e-10 -4.04153e-12)
(1.31189e-10 3.85933e-10 -5.20311e-12)
(3.00935e-10 3.29797e-10 -3.7697e-13)
(1.64027e-10 2.64032e-10 -3.78388e-12)
(2.16623e-10 5.16861e-10 -4.88193e-12)
(1.33731e-10 3.88529e-10 -5.78014e-12)
(1.6086e-10 2.61895e-10 -3.72951e-12)
(2.13582e-10 5.13805e-10 -3.61152e-12)
(8.28055e-11 3.45726e-10 8.0504e-11)
(2.28237e-10 2.9876e-10 8.74947e-11)
(1.79248e-10 4.39095e-10 1.3844e-10)
(1.05027e-10 2.24458e-10 7.26744e-11)
(8.80928e-11 2.34467e-10 6.08888e-11)
(1.59931e-10 4.58547e-10 1.16928e-10)
(1.00845e-10 3.27907e-10 9.83486e-11)
(7.51679e-11 3.5094e-10 6.88522e-11)
(2.20868e-10 2.98031e-10 8.10936e-11)
(8.44085e-11 2.40248e-10 4.49715e-11)
(1.43194e-10 4.70423e-10 8.26424e-11)
(7.23049e-11 3.55664e-10 5.66577e-11)
(8.31237e-11 2.37039e-10 5.22024e-11)
(1.48105e-10 4.66359e-10 9.97732e-11)
(1.61155e-10 4.13278e-10 -4.70965e-12)
(3.47548e-10 3.60088e-10 -2.86758e-12)
(2.51976e-10 5.5182e-10 -4.92225e-12)
(1.98601e-10 2.85161e-10 -3.60332e-12)
(1.62556e-10 4.14551e-10 -4.91907e-12)
(1.96811e-10 2.83969e-10 -3.94537e-12)
(2.50312e-10 5.5037e-10 -4.319e-12)
(1.59996e-10 4.12434e-10 -5.03367e-12)
(3.47151e-10 3.59993e-10 -2.76466e-12)
(1.94008e-10 2.82226e-10 -4.07538e-12)
(2.47508e-10 5.47244e-10 -4.49093e-12)
(1.58785e-10 4.10982e-10 -4.82724e-12)
(1.95511e-10 2.83349e-10 -3.68856e-12)
(2.48871e-10 5.48967e-10 -5.18193e-12)
(1.39934e-10 3.93563e-10 -5.83232e-12)
(3.14727e-10 3.38309e-10 -2.58953e-12)
(2.26604e-10 5.26436e-10 -5.78107e-12)
(1.73683e-10 2.69655e-10 -4.33336e-12)
(1.41822e-10 3.95577e-10 -6.03095e-12)
(1.71311e-10 2.6798e-10 -4.65119e-12)
(2.24351e-10 5.24093e-10 -4.9877e-12)
(1.38085e-10 3.92271e-10 -6.05971e-12)
(3.13894e-10 3.38025e-10 -2.25656e-12)
(1.66455e-10 2.65137e-10 -4.4056e-12)
(2.19368e-10 5.19282e-10 -4.56166e-12)
(1.35861e-10 3.89992e-10 -5.72155e-12)
(1.69215e-10 2.67001e-10 -4.22544e-12)
(2.2198e-10 5.21957e-10 -5.54582e-12)
(7.95168e-11 3.57835e-10 3.10044e-11)
(2.22809e-10 2.98054e-10 4.3161e-11)
(1.57099e-10 4.76199e-10 3.44693e-11)
(1.04348e-10 2.41457e-10 2.12028e-11)
(8.47789e-11 3.59712e-10 2.2951e-11)
(9.74758e-11 2.40303e-10 2.66955e-11)
(1.51053e-10 4.73829e-10 4.48571e-11)
(7.56105e-11 3.57294e-10 3.80541e-11)
(2.20928e-10 2.98958e-10 4.72073e-11)
(8.72081e-11 2.3989e-10 3.86438e-11)
(1.43088e-10 4.71192e-10 6.89494e-11)
(7.27908e-11 3.55934e-10 4.79873e-11)
(9.21538e-11 2.40421e-10 3.24894e-11)
(1.46157e-10 4.72502e-10 5.52622e-11)
(1.73704e-10 4.23326e-10 -3.69909e-12)
(3.65651e-10 3.70499e-10 -3.04305e-13)
(2.65541e-10 5.64183e-10 -2.54602e-12)
(2.11538e-10 2.91734e-10 -2.49563e-12)
(1.71712e-10 4.22183e-10 -4.24508e-12)
(3.64901e-10 3.70494e-10 -5.58018e-13)
(2.61214e-10 5.59519e-10 -3.59045e-12)
(2.07486e-10 2.89968e-10 -3.01043e-12)
(2.63068e-10 5.62155e-10 -3.97158e-12)
(2.09393e-10 2.91087e-10 -2.39321e-12)
(1.70017e-10 4.20137e-10 -4.22728e-12)
(3.7836e-10 7.08495e-10 -2.16966e-12)
(2.68612e-10 1.11254e-09 -5.08861e-12)
(3.28557e-10 8.22615e-10 -4.05623e-12)
(3.32321e-10 8.30082e-10 -3.23481e-12)
(2.71098e-10 1.11733e-09 -3.84201e-12)
(3.33707e-10 8.32023e-10 -3.07869e-12)
(3.7288e-10 7.00788e-10 -3.10862e-12)
(3.76826e-10 7.06874e-10 -2.09465e-12)
(2.40949e-10 2.13926e-10 -1.05034e-12)
(1.58054e-10 1.45386e-10 -1.6724e-12)
(3.23205e-11 3.90138e-11 -3.43435e-13)
(1.60477e-10 1.459e-10 -1.35347e-12)
(2.36681e-10 2.12933e-10 -1.74284e-12)
(2.40004e-10 2.138e-10 -1.63113e-12)
(3.28023e-11 3.91098e-11 -7.48949e-13)
(1.6185e-10 1.4605e-10 -1.22679e-12)
(2.15279e-10 2.03349e-10 -2.96035e-12)
(2.18044e-10 2.04656e-10 -3.29492e-12)
(1.45405e-10 1.40433e-10 -2.31626e-12)
(2.72351e-11 3.76509e-11 -1.18862e-12)
(1.44053e-10 1.39731e-10 -2.51874e-12)
(2.21081e-10 2.06189e-10 -3.20751e-12)
(2.18591e-10 2.04882e-10 -2.91123e-12)
(1.41111e-10 1.38616e-10 -2.60507e-12)
(2.69938e-11 3.75266e-11 -7.48782e-13)
(1.43231e-10 1.39347e-10 -2.43269e-12)
(3.51958e-10 6.79506e-10 -4.49323e-12)
(3.54362e-10 6.82172e-10 -4.0505e-12)
(3.14595e-10 8.06471e-10 -4.71012e-12)
(2.53285e-10 1.08211e-09 -5.43853e-12)
(3.12544e-10 8.0333e-10 -4.90497e-12)
(3.57409e-10 6.8566e-10 -3.98708e-12)
(3.5511e-10 6.82697e-10 -4.39978e-12)
(3.09689e-10 8.0006e-10 -4.99527e-12)
(2.52195e-10 1.08016e-09 -5.51812e-12)
(3.11855e-10 8.02677e-10 -4.70228e-12)
(1.51844e-10 4.04442e-10 -5.11313e-12)
(2.40456e-10 5.40198e-10 -5.40468e-12)
(3.33326e-10 3.50402e-10 -3.27486e-12)
(1.87176e-10 2.77962e-10 -3.94458e-12)
(1.53086e-10 4.05826e-10 -5.2736e-12)
(2.38961e-10 5.38604e-10 -4.7578e-12)
(1.85598e-10 2.76776e-10 -4.33447e-12)
(1.5067e-10 4.03573e-10 -5.46732e-12)
(3.32874e-10 3.50264e-10 -3.11095e-12)
(2.35871e-10 5.3542e-10 -4.91783e-12)
(1.82564e-10 2.74884e-10 -4.4948e-12)
(2.37462e-10 5.37182e-10 -5.57622e-12)
(1.84274e-10 2.76118e-10 -4.08061e-12)
(1.49299e-10 4.02058e-10 -5.33487e-12)
(3.51168e-10 6.78917e-10 -4.1405e-12)
(3.48684e-10 6.75996e-10 -4.60205e-12)
(2.47371e-10 1.07133e-09 -5.95762e-12)
(3.03519e-10 7.91826e-10 -5.27942e-12)
(3.05964e-10 7.95354e-10 -4.98952e-12)
(3.08968e-10 7.99345e-10 -4.81594e-12)
(2.48638e-10 1.07391e-09 -5.74717e-12)
(3.06721e-10 7.96252e-10 -5.16637e-12)
(3.4515e-10 6.71969e-10 -4.66497e-12)
(3.47839e-10 6.75261e-10 -4.24715e-12)
(2.1473e-10 2.03141e-10 -3.32432e-12)
(2.12138e-10 2.01863e-10 -3.02631e-12)
(1.35731e-10 1.36423e-10 -2.74702e-12)
(2.5425e-11 3.70056e-11 -7.9466e-13)
(1.38002e-10 1.37188e-10 -2.53723e-12)
(2.08566e-10 2.0029e-10 -3.12433e-12)
(2.11558e-10 2.01652e-10 -3.40429e-12)
(1.40328e-10 1.38252e-10 -2.4079e-12)
(2.56938e-11 3.71372e-11 -1.21861e-12)
(1.38875e-10 1.37553e-10 -2.61468e-12)
(1.76193e-10 1.86698e-10 -6.72546e-13)
(1.82461e-10 1.89209e-10 -2.0016e-12)
(1.1937e-10 1.30177e-10 -2.25261e-12)
(1.87568e-11 3.51462e-11 -1.1382e-12)
(1.16169e-10 1.28926e-10 -2.20164e-12)
(1.88978e-10 1.91882e-10 -2.87303e-12)
(1.83709e-10 1.89601e-10 -1.97319e-12)
(1.10127e-10 1.26935e-10 -1.43595e-12)
(1.82125e-11 3.49521e-11 -5.88118e-13)
(1.14324e-10 1.28318e-10 -1.67866e-12)
(3.11792e-10 6.36722e-10 6.97777e-13)
(3.17877e-10 6.43248e-10 -9.8078e-13)
(2.85073e-10 7.68268e-10 -3.79359e-12)
(2.27581e-10 1.03362e-09 -4.0645e-12)
(2.80435e-10 7.62144e-10 -2.89063e-12)
(3.24809e-10 6.50444e-10 -2.67629e-12)
(3.19685e-10 6.44703e-10 -1.86165e-12)
(2.7327e-10 7.53483e-10 -3.99441e-13)
(2.24881e-10 1.02869e-09 -3.14687e-12)
(2.78798e-10 7.60398e-10 -2.19058e-12)
(1.19001e-10 3.76258e-10 -1.88377e-12)
(2.02857e-10 5.04435e-10 -1.14554e-12)
(2.81615e-10 3.18923e-10 5.55465e-12)
(1.5089e-10 2.56893e-10 -1.2248e-12)
(1.22686e-10 3.79483e-10 -3.44516e-12)
(1.98497e-10 5.00583e-10 1.3246e-12)
(1.46338e-10 2.54258e-10 -3.1847e-13)
(1.15295e-10 3.74221e-10 -6.55837e-13)
(2.7967e-10 3.18398e-10 6.89412e-12)
(1.88465e-10 4.93005e-10 6.51757e-12)
(1.36342e-10 2.49948e-10 3.15355e-12)
(1.93754e-10 4.97093e-10 2.87801e-12)
(1.42025e-10 2.52723e-10 1.44167e-12)
(1.10708e-10 3.70834e-10 1.90257e-12)
(3.09641e-10 6.35106e-10 1.91313e-12)
(3.02351e-10 6.27745e-10 4.84179e-12)
(2.11418e-10 1.00549e-09 5.45669e-12)
(2.54491e-10 7.33097e-10 1.05858e-11)
(2.62383e-10 7.41483e-10 5.33999e-12)
(2.71324e-10 7.51548e-10 6.45213e-13)
(2.15211e-10 1.01186e-09 2.464e-12)
(2.6472e-10 7.43701e-10 3.74815e-12)
(2.91035e-10 6.18011e-10 1.14723e-11)
(2.99742e-10 6.25897e-10 6.56838e-12)
(1.74696e-10 1.86278e-10 -5.0828e-13)
(1.67123e-10 1.83459e-10 1.40274e-12)
(9.35554e-11 1.2221e-10 1.73936e-12)
(1.39711e-11 3.40715e-11 2.48065e-13)
(1.00221e-10 1.24025e-10 9.27646e-13)
(1.55422e-10 1.79903e-10 4.60801e-12)
(1.65136e-10 1.8301e-10 1.82083e-12)
(1.08013e-10 1.26295e-10 -6.00566e-13)
(1.49934e-11 3.42988e-11 -4.71883e-13)
(1.03334e-10 1.2472e-10 -1.70508e-13)
(1.03671e-10 1.48777e-10 5.17615e-11)
(8.26776e-11 1.58775e-10 4.00353e-11)
(3.97004e-11 1.11084e-10 1.78089e-11)
(-9.41146e-12 2.96398e-11 4.64528e-12)
(3.50609e-11 1.03939e-10 1.85269e-11)
(9.44855e-11 1.69686e-10 3.21513e-11)
(8.32645e-11 1.61762e-10 3.74416e-11)
(5.06964e-11 8.97119e-11 2.44257e-11)
(-4.90761e-12 2.80107e-11 5.25519e-12)
(3.86561e-11 9.55485e-11 2.05247e-11)
(2.77155e-10 5.40509e-10 1.81194e-10)
(2.49134e-10 5.7542e-10 1.43242e-10)
(2.07708e-10 6.93541e-10 1.08313e-10)
(1.72872e-10 9.03704e-10 1.73941e-10)
(2.13613e-10 6.79921e-10 1.43671e-10)
(2.38857e-10 5.87858e-10 9.96024e-11)
(2.44143e-10 5.80133e-10 1.31126e-10)
(2.48443e-10 6.26574e-10 1.98039e-10)
(1.82673e-10 8.71066e-10 2.085e-10)
(2.18548e-10 6.71872e-10 1.57035e-10)
(1.55056e-10 2.70056e-10 1.40422e-10)
(2.06047e-10 4.04545e-10 1.6405e-10)
(3.18774e-10 2.25957e-10 1.6422e-10)
(1.28443e-10 2.1486e-10 8.60871e-11)
(1.22779e-10 2.99541e-10 1.15724e-10)
(2.47027e-10 3.67437e-10 2.05122e-10)
(1.60987e-10 1.94514e-10 1.04881e-10)
(1.79849e-10 2.41653e-10 1.68065e-10)
(3.27843e-10 5.19163e-10 3.50563e-10)
(3.05936e-10 4.42389e-10 2.73851e-10)
(2.55512e-10 2.62775e-10 2.72334e-10)
(1.26245e-10 1.63004e-10 1.20843e-10)
(1.07428e-11 1.31931e-11 1.06111e-11)
(1.23226e-10 1.0497e-10 6.87681e-11)
(1.61931e-11 1.6796e-11 2.0692e-11)
(1.67618e-10 2.20554e-10 1.44125e-10)
(3.60034e-10 2.27354e-10 1.74614e-10)
(3.11788e-10 3.90593e-10 2.57126e-10)
(1.71828e-10 1.34647e-10 8.74838e-11)
(2.90283e-10 5.21395e-10 1.96131e-10)
(3.52988e-10 4.4662e-10 2.53215e-10)
(3.34439e-10 5.98741e-10 3.41626e-10)
(3.53332e-10 5.05763e-10 2.88141e-10)
(2.63421e-10 6.05079e-10 2.13832e-10)
(2.91821e-10 6.71393e-10 3.08555e-10)
(3.3167e-10 5.22791e-10 2.69796e-10)
(3.78241e-10 4.32268e-10 2.71291e-10)
(1.17815e-10 1.44102e-10 5.52126e-11)
(1.67278e-10 1.15965e-10 7.08805e-11)
(1.08552e-11 1.09143e-11 1.07085e-11)
(1.34624e-10 8.19799e-11 5.8801e-11)
(1.90831e-10 1.02045e-10 7.45212e-11)
(7.25713e-11 8.64392e-11 2.72415e-11)
(2.03703e-11 2.15052e-11 8.74202e-12)
(9.1656e-11 7.35187e-11 3.21727e-11)
(1.65684e-10 4.16367e-10 -4.86893e-12)
(3.56026e-10 3.65574e-10 -2.07331e-12)
(2.53795e-10 5.52831e-10 -4.03656e-12)
(2.00241e-10 2.85886e-10 -3.89256e-12)
(1.63965e-10 4.15195e-10 -4.62048e-12)
(2.55821e-10 5.5411e-10 -4.67651e-12)
(2.02407e-10 2.87209e-10 -3.51339e-12)
(1.67165e-10 4.17154e-10 -4.52416e-12)
(3.56695e-10 3.65782e-10 -2.14792e-12)
(2.59554e-10 5.57315e-10 -4.53364e-12)
(2.0605e-10 2.89353e-10 -3.01001e-12)
(1.68675e-10 4.18859e-10 -4.66843e-12)
(2.5776e-10 5.55332e-10 -3.84401e-12)
(2.04159e-10 2.88028e-10 -3.62263e-12)
(2.2776e-10 2.0916e-10 -2.94741e-12)
(2.24844e-10 2.07801e-10 -2.65714e-12)
(1.46109e-10 1.40788e-10 -2.48616e-12)
(2.85386e-11 3.80307e-11 -6.89738e-13)
(1.48169e-10 1.41466e-10 -2.28687e-12)
(2.21597e-10 2.064e-10 -2.81586e-12)
(2.24267e-10 2.0761e-10 -3.07601e-12)
(1.50686e-10 1.42562e-10 -2.13907e-12)
(2.88006e-11 3.81548e-11 -1.12337e-12)
(1.49031e-10 1.41802e-10 -2.33215e-12)
(3.63982e-10 6.93165e-10 -3.63981e-12)
(3.614e-10 6.90619e-10 -4.24051e-12)
(3.15271e-10 8.07432e-10 -4.9182e-12)
(2.56687e-10 1.09051e-09 -5.67798e-12)
(3.17469e-10 8.11249e-10 -4.64388e-12)
(3.58164e-10 6.86407e-10 -4.34392e-12)
(3.60566e-10 6.89818e-10 -3.90089e-12)
(3.20534e-10 8.14815e-10 -4.27604e-12)
(2.57924e-10 1.09329e-09 -5.39406e-12)
(3.1821e-10 8.12276e-10 -4.80593e-12)
(3.64865e-10 6.93484e-10 -3.93932e-12)
(3.67713e-10 6.9534e-10 -3.26469e-12)
(3.27506e-10 8.20798e-10 -3.91249e-12)
(2.62904e-10 1.09776e-09 -4.77814e-12)
(3.24701e-10 8.16601e-10 -4.10096e-12)
(3.71743e-10 6.99397e-10 -2.86889e-12)
(3.68637e-10 6.95493e-10 -3.52695e-12)
(3.21338e-10 8.15171e-10 -4.40452e-12)
(2.61626e-10 1.09662e-09 -4.74015e-12)
(3.23845e-10 8.1634e-10 -3.93108e-12)
(2.28473e-10 2.09421e-10 -2.53103e-12)
(2.32145e-10 2.1109e-10 -2.78786e-12)
(1.57262e-10 1.45192e-10 -1.6917e-12)
(3.05784e-11 3.87004e-11 -1.04716e-12)
(1.55569e-10 1.44441e-10 -2.0597e-12)
(2.3605e-10 2.12795e-10 -2.28737e-12)
(2.32929e-10 2.114e-10 -2.30841e-12)
(1.51736e-10 1.43005e-10 -2.30041e-12)
(3.0254e-11 3.85679e-11 -6.20186e-13)
(1.54381e-10 1.43939e-10 -2.0769e-12)
(1.4513e-10 3.98473e-10 -5.89082e-12)
(3.2448e-10 3.44744e-10 -3.00934e-12)
(2.28657e-10 5.28274e-10 -5.08735e-12)
(1.75501e-10 2.70515e-10 -4.69646e-12)
(1.43426e-10 3.967e-10 -5.73314e-12)
(2.30652e-10 5.30344e-10 -5.80511e-12)
(1.77616e-10 2.71989e-10 -4.32597e-12)
(1.46556e-10 3.99493e-10 -5.54933e-12)
(3.25081e-10 3.4495e-10 -3.21657e-12)
(2.34244e-10 5.33896e-10 -5.71286e-12)
(1.81111e-10 2.74165e-10 -4.20663e-12)
(1.48028e-10 4.01128e-10 -5.68319e-12)
(2.32483e-10 5.32007e-10 -5.043e-12)
(1.7924e-10 2.72782e-10 -4.61261e-12)
(1.99667e-10 1.96387e-10 -3.48296e-12)
(1.9572e-10 1.94581e-10 -3.0579e-12)
(1.20932e-10 1.3075e-10 -2.67296e-12)
(2.12066e-11 3.57385e-11 -8.76316e-13)
(1.24304e-10 1.31878e-10 -2.59258e-12)
(1.90048e-10 1.92234e-10 -2.71625e-12)
(1.94791e-10 1.9427e-10 -3.31785e-12)
(1.28101e-10 1.33394e-10 -2.62539e-12)
(2.16464e-11 3.59162e-11 -1.32133e-12)
(1.2572e-10 1.32395e-10 -2.79737e-12)
(3.35835e-10 6.62156e-10 -4.08653e-12)
(3.32058e-10 6.57797e-10 -4.151e-12)
(2.86458e-10 7.69763e-10 -4.26776e-12)
(2.34545e-10 1.04661e-09 -5.76189e-12)
(2.90458e-10 7.75082e-10 -4.647e-12)
(3.26336e-10 6.51682e-10 -3.33748e-12)
(3.30733e-10 6.56701e-10 -3.62808e-12)
(2.95074e-10 7.81059e-10 -5.00629e-12)
(2.36533e-10 1.05037e-09 -5.89049e-12)
(2.91652e-10 7.7641e-10 -4.98339e-12)
(3.36974e-10 6.63083e-10 -4.52481e-12)
(3.40308e-10 6.6692e-10 -4.27868e-12)
(3.02698e-10 7.9088e-10 -5.08726e-12)
(2.43272e-10 1.06295e-09 -6.02807e-12)
(3.00061e-10 7.87178e-10 -5.32928e-12)
(3.44245e-10 6.71209e-10 -4.30009e-12)
(3.41315e-10 6.67738e-10 -4.66631e-12)
(2.96112e-10 7.82182e-10 -5.25991e-12)
(2.41761e-10 1.06011e-09 -6.14128e-12)
(2.9914e-10 7.86187e-10 -5.11614e-12)
(2.00458e-10 1.96665e-10 -3.17945e-12)
(2.04116e-10 1.98291e-10 -3.52717e-12)
(1.34831e-10 1.36025e-10 -2.56176e-12)
(2.3891e-11 3.65762e-11 -1.29113e-12)
(1.33035e-10 1.35204e-10 -2.7775e-12)
(2.07934e-10 2.00053e-10 -3.47966e-12)
(2.04828e-10 1.98553e-10 -3.18037e-12)
(1.29251e-10 1.33856e-10 -2.864e-12)
(2.35521e-11 3.6421e-11 -8.68593e-13)
(1.31942e-10 1.34761e-10 -2.67276e-12)
(1.91665e-10 1.09019e-09 4.90398e-12)
(1.94585e-10 1.09686e-09 1.74749e-12)
(1.65581e-10 1.01825e-09 9.85703e-11)
(1.68109e-10 1.03143e-09 7.5471e-11)
(1.81727e-10 1.06825e-09 2.1667e-11)
(1.78329e-10 1.05984e-09 3.06598e-11)
(9.57381e-11 3.63682e-10 1.17299e-11)
(2.51153e-10 3.05946e-10 2.13415e-11)
(1.63568e-10 4.78661e-10 2.71459e-11)
(1.10755e-10 2.42216e-10 1.63931e-11)
(8.9897e-11 3.60945e-10 1.76655e-11)
(1.70222e-10 4.82064e-10 1.95491e-11)
(1.181e-10 2.4435e-10 1.22092e-11)
(1.00836e-10 3.65503e-10 8.13612e-12)
(2.53943e-10 3.06277e-10 1.88099e-11)
(1.828e-10 4.89453e-10 9.41996e-12)
(1.31002e-10 2.48401e-10 5.75144e-12)
(1.06219e-10 3.68808e-10 4.12334e-12)
(1.76633e-10 4.85406e-10 1.47079e-11)
(1.24279e-10 2.45691e-10 8.5854e-12)
(1.22283e-10 1.73348e-10 1.72583e-11)
(1.09925e-10 1.71726e-10 2.31577e-11)
(4.07554e-11 1.13382e-10 1.64855e-11)
(-5.67737e-12 3.19603e-11 4.69023e-12)
(4.80416e-11 1.15305e-10 1.52588e-11)
(9.65197e-11 1.70175e-10 3.05635e-11)
(1.07025e-10 1.71882e-10 2.49895e-11)
(6.18881e-11 1.16931e-10 1.10148e-11)
(-3.17453e-12 3.22639e-11 3.67154e-12)
(5.29831e-11 1.15482e-10 1.28567e-11)
(2.59777e-10 5.98084e-10 4.20158e-11)
(2.49197e-10 5.92762e-10 5.91216e-11)
(2.08365e-10 6.95718e-10 9.77472e-11)
(1.73622e-10 9.46925e-10 8.93718e-11)
(2.14049e-10 7.01577e-10 7.03084e-11)
(2.39596e-10 5.88569e-10 9.01921e-11)
(2.46123e-10 5.91677e-10 6.61147e-11)
(2.2633e-10 7.10308e-10 4.33679e-11)
(1.77962e-10 9.55924e-10 6.94378e-11)
(2.16788e-10 7.03543e-10 6.25694e-11)
(2.63395e-10 5.99449e-10 3.69876e-11)
(2.74371e-10 6.06359e-10 2.52175e-11)
(2.51734e-10 7.30852e-10 1.30057e-11)
(1.98126e-10 9.85236e-10 2.12508e-11)
(2.42608e-10 7.22264e-10 2.13488e-11)
(2.87965e-10 6.1616e-10 1.39502e-11)
(2.77866e-10 6.08185e-10 2.16551e-11)
(2.29565e-10 7.12217e-10 3.79898e-11)
(1.93196e-10 9.77971e-10 2.94784e-11)
(2.39491e-10 7.1996e-10 2.50046e-11)
(1.25543e-10 1.73437e-10 1.56223e-11)
(1.38355e-10 1.76052e-10 1.05451e-11)
(8.9482e-11 1.21514e-10 3.38545e-12)
(7.89798e-12 3.32731e-11 1.11587e-12)
(8.17759e-11 1.19599e-10 4.66053e-12)
(1.52889e-10 1.79478e-10 5.40654e-12)
(1.4139e-10 1.76364e-10 9.3207e-12)
(6.74707e-11 1.17244e-10 8.49417e-12)
(5.92366e-12 3.30328e-11 2.1748e-12)
(7.6626e-11 1.19043e-10 6.76599e-12)
(1.66731e-10 9.49917e-10 2.01311e-10)
(1.75156e-10 9.04097e-10 2.45583e-10)
(3.47182e-10 5.17072e-10 3.86402e-10)
(2.90556e-10 2.52944e-10 3.17218e-10)
(3.41534e-10 5.96585e-10 3.7367e-10)
(2.79273e-10 6.60857e-10 3.80099e-10)
(2.45199e-10 3.93984e-10 -4.20346e-12)
(3.38319e-10 3.53872e-10 -2.96431e-12)
(3.19686e-10 4.39902e-10 -3.7723e-12)
(2.69122e-10 3.08347e-10 -3.74747e-12)
(2.70301e-10 3.09336e-10 -3.12971e-12)
(3.20952e-10 4.40837e-10 -3.72842e-12)
(2.44386e-10 3.93343e-10 -4.18319e-12)
(1.49143e-10 4.99385e-10 -5.24066e-12)
(1.8636e-10 6.03689e-10 -7.08008e-12)
(2.26885e-10 7.16748e-10 -5.91154e-12)
(2.2118e-10 8.35193e-10 -5.80006e-12)
(1.50158e-10 5.01017e-10 -6.08894e-12)
(1.85436e-10 6.01846e-10 -5.25821e-12)
(2.25719e-10 7.14855e-10 -5.74637e-12)
(2.49093e-10 3.97044e-10 -4.1365e-12)
(3.42409e-10 3.56657e-10 -3.12987e-12)
(2.75417e-10 3.12684e-10 -3.06694e-12)
(3.26079e-10 4.45014e-10 -3.63355e-12)
(2.49839e-10 3.97604e-10 -4.12993e-12)
(2.74354e-10 3.11803e-10 -3.6831e-12)
(3.24788e-10 4.43988e-10 -3.65862e-12)
(1.48245e-10 4.9856e-10 -6.10482e-12)
(2.23276e-10 7.11827e-10 -5.78534e-12)
(2.20149e-10 8.33644e-10 -6.95378e-12)
(1.83711e-10 5.99333e-10 -5.29521e-12)
(1.84648e-10 6.00936e-10 -7.06784e-12)
(2.24521e-10 7.13436e-10 -5.8518e-12)
(1.47167e-10 4.97109e-10 -5.29384e-12)
(2.08068e-10 3.67042e-10 -1.43599e-12)
(2.95267e-10 3.26761e-10 1.51253e-12)
(2.7725e-10 4.0813e-10 9.17321e-13)
(2.2722e-10 2.83816e-10 3.39922e-13)
(2.29993e-10 2.85776e-10 3.30648e-13)
(2.80247e-10 4.1015e-10 3.06293e-13)
(2.06027e-10 3.65676e-10 -8.23388e-13)
(1.27377e-10 4.73655e-10 -6.01589e-12)
(1.67815e-10 5.76859e-10 -8.42546e-12)
(2.01219e-10 6.83168e-10 -6.1181e-12)
(1.97618e-10 7.96982e-10 -6.02227e-12)
(1.29616e-10 4.76673e-10 -7.15021e-12)
(1.65791e-10 5.73505e-10 -6.39049e-12)
(1.98598e-10 6.79604e-10 -5.5155e-12)
(2.16838e-10 3.73211e-10 -3.35841e-12)
(3.04815e-10 3.3228e-10 -1.15347e-12)
(2.41279e-10 2.9209e-10 -2.05116e-12)
(2.9171e-10 4.18463e-10 -2.40273e-12)
(2.18439e-10 3.74267e-10 -3.6236e-12)
(2.39114e-10 2.9052e-10 -2.3521e-12)
(2.89262e-10 4.16718e-10 -2.08366e-12)
(1.63035e-10 3.26151e-10 1.02519e-10)
(2.45252e-10 2.91563e-10 1.02746e-10)
(2.43725e-10 3.54832e-10 1.28642e-10)
(1.91111e-10 2.488e-10 9.49034e-11)
(1.79566e-10 2.57471e-10 8.88422e-11)
(2.34995e-10 3.65325e-10 1.18674e-10)
(1.74103e-10 3.17074e-10 1.10376e-10)
(1.36676e-10 3.40398e-10 6.91604e-11)
(2.14517e-10 2.9864e-10 7.00827e-11)
(1.52409e-10 2.6392e-10 5.71486e-11)
(2.03511e-10 3.78249e-10 7.28219e-11)
(1.36144e-10 3.40351e-10 6.34439e-11)
(1.52205e-10 2.63284e-10 6.10996e-11)
(2.03359e-10 3.77481e-10 7.92769e-11)
(2.35704e-10 6.36345e-10 -4.99921e-12)
(2.47393e-10 9.10441e-10 -7.19551e-12)
(2.36673e-10 6.38288e-10 -7.47269e-12)
(2.38441e-10 6.40828e-10 -7.32716e-12)
(2.48412e-10 9.12281e-10 -5.97405e-12)
(2.37503e-10 6.39302e-10 -4.83593e-12)
(2.55232e-10 4.01861e-10 -3.84791e-12)
(3.49507e-10 3.61427e-10 -2.7176e-12)
(3.33027e-10 4.50535e-10 -3.27282e-12)
(2.82336e-10 3.1692e-10 -2.67748e-12)
(2.56207e-10 4.02405e-10 -3.82742e-12)
(2.80991e-10 3.1595e-10 -3.3348e-12)
(3.31482e-10 4.49472e-10 -3.3154e-12)
(1.52106e-10 5.03762e-10 -6.00191e-12)
(1.87168e-10 6.04805e-10 -5.24147e-12)
(2.2806e-10 7.18544e-10 -5.81126e-12)
(2.24286e-10 8.4159e-10 -6.99875e-12)
(1.51042e-10 5.02015e-10 -5.21157e-12)
(1.88155e-10 6.0675e-10 -6.98582e-12)
(2.29296e-10 7.20659e-10 -5.87457e-12)
(2.51252e-10 3.98776e-10 -4.01247e-12)
(3.45367e-10 3.58791e-10 -2.79564e-12)
(2.75849e-10 3.12693e-10 -3.58598e-12)
(3.26387e-10 4.45349e-10 -3.60412e-12)
(2.50513e-10 3.98136e-10 -4.01795e-12)
(2.76941e-10 3.13657e-10 -2.94091e-12)
(3.27584e-10 4.46284e-10 -3.53784e-12)
(2.34904e-10 6.35196e-10 -7.57042e-12)
(2.44493e-10 9.03756e-10 -6.16407e-12)
(2.34019e-10 6.33275e-10 -5.03436e-12)
(2.4365e-10 9.02095e-10 -7.1935e-12)
(2.32429e-10 6.30677e-10 -5.07791e-12)
(2.33292e-10 6.32319e-10 -7.57525e-12)
(2.27747e-10 3.81028e-10 -4.43563e-12)
(3.17577e-10 3.40236e-10 -2.835e-12)
(3.03209e-10 4.2708e-10 -3.69239e-12)
(2.52653e-10 2.98652e-10 -3.1571e-12)
(2.28936e-10 3.81827e-10 -4.50015e-12)
(2.51026e-10 2.97429e-10 -3.67197e-12)
(3.0134e-10 4.25718e-10 -3.60512e-12)
(1.33349e-10 4.80923e-10 -7.33054e-12)
(1.69421e-10 5.78607e-10 -6.75129e-12)
(2.03639e-10 6.86028e-10 -6.33901e-12)
(2.03945e-10 8.07282e-10 -8.05562e-12)
(1.31404e-10 4.78285e-10 -6.44061e-12)
(1.71177e-10 5.81528e-10 -8.53398e-12)
(2.05908e-10 6.89118e-10 -6.64483e-12)
(2.21301e-10 3.76246e-10 -3.94781e-12)
(3.10643e-10 3.35976e-10 -1.77422e-12)
(2.42291e-10 2.9217e-10 -2.82201e-12)
(2.92593e-10 4.19111e-10 -2.67206e-12)
(2.19831e-10 3.75169e-10 -3.73479e-12)
(2.44339e-10 2.93735e-10 -2.42636e-12)
(2.94799e-10 4.20677e-10 -2.85513e-12)
(1.34892e-10 4.82346e-10 -6.46518e-12)
(2.09945e-10 6.94363e-10 -6.74492e-12)
(1.74106e-10 5.85647e-10 -8.35862e-12)
(2.05787e-10 8.09983e-10 -6.96016e-12)
(1.72575e-10 5.83064e-10 -6.7035e-12)
(1.36567e-10 4.84675e-10 -7.21663e-12)
(2.07999e-10 6.91636e-10 -6.63511e-12)
(1.51382e-10 3.41685e-10 3.20021e-11)
(2.29923e-10 2.99238e-10 3.59301e-11)