/*--------------------------------*- C++ -*----------------------------------*\
| =========                 |                                                 |
| \\      /  F ield         | OpenFOAM: The Open Source CFD Toolbox           |
|  \\    /   O peration     | Version:  2012                                  |
|   \\  /    A nd           | Website:  www.openfoam.com                      |
|    \\/     M anipulation  |                                                 |
\*---------------------------------------------------------------------------*/
FoamFile
{
    version     2.0;
    format      ascii;
    class       volScalarField;
    location    "0.107/solid";
    object      epsilonEq;
}
// * * * * * * * * * * * * * * * * * * * * * * * * * * * * * * * * * * * * * //

dimensions      [0 0 0 0 0 0 0];


internalField   nonuniform List<scalar> 
3125
(
1.67334e-08
1.5914e-08
1.42894e-08
1.6828e-08
1.60559e-08
1.46344e-08
1.72355e-08
1.64846e-08
1.53747e-08
1.70857e-08
1.63896e-08
1.51723e-08
4.5475e-09
9.3202e-09
1.81596e-08
1.66512e-08
4.65475e-09
1.80858e-08
9.24725e-09
3.91079e-09
8.62795e-09
1.75547e-08
1.57525e-08
4.16779e-09
1.73423e-08
8.49444e-09
2.45657e-09
7.83717e-09
1.53798e-08
1.32763e-08
3.04854e-09
1.3204e-08
7.52356e-09
2.04822e-08
2.0611e-08
4.75655e-09
1.69175e-08
9.39575e-09
1.82062e-08
4.6439e-09
1.83268e-08
9.47327e-09
2.04309e-08
2.03433e-08
1.98237e-08
1.99904e-08
4.33771e-09
1.61801e-08
8.74544e-09
1.7614e-08
4.16067e-09
1.77677e-08
8.84853e-09
1.97593e-08
1.95293e-08
1.75558e-08
1.83717e-08
3.13073e-09
1.48089e-08
7.87126e-09
1.57078e-08
3.01074e-09
1.63377e-08
7.84722e-09
1.71428e-08
1.47474e-08
1.84804e-08
9.74958e-09
4.88295e-09
1.23228e-08
7.03063e-09
6.52321e-09
6.36453e-09
1.20147e-08
1.19448e-08
4.55944e-09
1.65722e-08
1.79603e-08
9.10289e-09
1.80644e-08
4.45016e-09
9.17647e-09
1.1828e-08
1.19194e-08
6.15418e-09
6.31724e-09
5.54446e-09
5.25931e-09
1.14241e-08
1.11907e-08
3.91228e-09
1.55715e-08
1.69705e-08
8.18344e-09
1.7261e-08
3.54138e-09
8.34498e-09
1.07119e-08
1.10897e-08
4.76232e-09
5.16484e-09
3.79711e-09
3.51567e-09
8.20273e-09
6.82962e-09
2.08936e-09
1.31081e-08
1.22305e-08
6.12318e-09
6.52208e-09
3.67337e-09
2.07977e-08
2.06873e-08
2.06137e-08
4.74593e-09
1.69896e-08
1.83704e-08
9.65156e-09
4.8965e-09
1.83238e-08
9.55735e-09
6.56911e-09
6.73519e-09
1.20532e-08
1.2159e-08
1.22411e-08
1.21752e-08
6.98477e-09
6.79299e-09
2.0204e-08
2.03185e-08
2.0161e-08
2.00353e-08
4.32775e-09
1.62894e-08
1.79218e-08
9.02404e-09
4.46095e-09
1.78087e-08
8.93989e-09
5.6215e-09
5.85257e-09
1.1489e-08
1.16417e-08
1.17916e-08
1.16853e-08
6.10214e-09
5.91391e-09
1.3038e-08
1.91207e-08
1.94413e-08
1.25375e-08
1.29368e-08
1.90009e-08
1.85491e-08
1.00151e-08
1.13505e-08
1.2374e-08
1.1668e-08
3.12411e-09
1.49794e-08
1.68629e-08
8.02513e-09
3.53382e-09
1.64812e-08
7.89994e-09
3.85552e-09
4.06884e-09
8.60842e-09
9.64357e-09
1.05478e-08
9.91328e-09
4.62555e-09
4.16293e-09
9.46954e-09
7.85784e-09
1.50627e-08
1.38498e-08
7.64806e-09
1.10068e-08
1.28193e-08
1.58715e-08
8.34898e-09
1.45527e-08
1.70036e-08
1.04934e-08
4.60712e-09
8.55693e-09
6.04515e-09
6.06019e-09
8.5697e-09
1.0481e-08
1.05175e-08
4.59673e-09
6.101e-09
8.60887e-09
1.05347e-08
6.08799e-09
8.59004e-09
1.00231e-08
4.05278e-09
7.98171e-09
5.54292e-09
5.58804e-09
8.03967e-09
9.97835e-09
1.00769e-08
4.04879e-09
5.68034e-09
8.151e-09
1.01144e-08
5.64542e-09
8.10361e-09
8.91785e-09
3.04625e-09
5.80529e-09
4.72733e-09
5.0729e-09
6.33077e-09
8.23269e-09
9.27902e-09
3.02807e-09
5.15055e-09
6.86793e-09
9.42412e-09
5.20161e-09
6.69805e-09
1.06251e-08
4.68933e-09
8.72525e-09
6.19354e-09
1.06365e-08
6.1809e-09
8.70981e-09
1.0593e-08
4.70147e-09
6.13152e-09
8.64222e-09
1.05682e-08
6.14978e-09
8.67358e-09
1.0233e-08
4.25212e-09
8.31887e-09
5.82521e-09
1.02585e-08
5.80306e-09
8.28737e-09
1.01926e-08
4.26096e-09
5.72917e-09
8.20314e-09
1.01607e-08
5.76054e-09
8.24254e-09
9.4825e-09
3.00997e-09
7.17474e-09
5.01038e-09
9.51326e-09
4.9929e-09
7.09439e-09
9.48707e-09
3.04077e-09
5.07049e-09
6.96184e-09
9.46302e-09
5.03177e-09
7.01648e-09
1.09016e-08
4.94633e-09
9.02998e-09
6.43427e-09
1.08439e-08
4.95794e-09
8.85587e-09
6.35285e-09
8.94462e-09
6.38278e-09
1.07828e-08
8.13348e-09
1.2419e-08
9.5508e-09
9.70787e-09
1.25055e-08
9.75256e-09
7.99106e-09
8.09449e-09
5.70639e-09
5.85762e-09
7.10041e-09
5.83872e-09
5.64635e-09
5.67189e-09
7.16694e-09
5.94996e-09
5.22613e-09
5.25888e-09
5.50635e-09
6.48266e-09
5.50874e-09
5.32275e-09
5.28592e-09
5.45839e-09
6.43252e-09
5.43996e-09
7.66939e-09
7.68347e-09
9.31051e-09
1.19874e-08
9.27704e-09
7.73164e-09
7.71212e-09
9.24183e-09
1.19618e-08
9.26103e-09
1.04435e-08
8.53606e-09
4.50083e-09
6.01984e-09
1.04584e-08
8.51813e-09
6.00828e-09
1.04155e-08
4.51217e-09
8.46571e-09
5.96196e-09
8.48924e-09
5.97993e-09
1.03955e-08
7.64392e-09
7.62045e-09
1.18586e-08
9.13318e-09
9.1734e-09
9.22676e-09
1.18922e-08
9.19159e-09
7.56501e-09
7.59289e-09
5.19871e-09
5.16599e-09
5.33789e-09
6.22446e-09
5.32209e-09
5.1026e-09
5.138e-09
5.38883e-09
6.27515e-09
5.39169e-09
4.49398e-09
4.58443e-09
4.90156e-09
5.45978e-09
4.89679e-09
4.71458e-09
4.63657e-09
4.77038e-09
5.37267e-09
4.76741e-09
6.9895e-09
7.08529e-09
8.78768e-09
1.13557e-08
8.69379e-09
7.21357e-09
7.13745e-09
8.54166e-09
1.12737e-08
8.65462e-09
9.86718e-09
7.90664e-09
3.74212e-09
5.47822e-09
9.91849e-09
7.83501e-09
5.42534e-09
9.80219e-09
3.73776e-09
7.65904e-09
5.28573e-09
7.74275e-09
5.35073e-09
9.74678e-09
6.92781e-09
6.80039e-09
1.085e-08
8.10463e-09
8.2908e-09
8.49676e-09
1.09806e-08
8.34481e-09
6.56943e-09
6.73061e-09
4.43131e-09
4.31962e-09
4.42289e-09
4.92605e-09
4.43073e-09
4.11178e-09
4.24648e-09
4.61753e-09
5.04746e-09
4.60455e-09
3.28195e-09
3.61169e-09
3.59739e-09
3.60361e-09
3.51495e-09
3.57256e-09
3.55253e-09
3.15031e-09
3.43332e-09
3.27782e-09
4.17851e-09
4.86654e-09
6.6419e-09
7.75724e-09
6.13384e-09
5.36233e-09
4.96823e-09
5.3055e-09
7.25686e-09
6.03309e-09
7.44674e-09
5.08709e-09
1.321e-09
3.97041e-09
7.93617e-09
4.62457e-09
3.65558e-09
1.07207e-08
1.26544e-08
7.48817e-09
1.61137e-08
9.43835e-09
5.04533e-09
4.58328e-09
7.47265e-09
8.95331e-09
3.41921e-09
5.08797e-09
3.59503e-09
3.97038e-09
3.44042e-09
9.86759e-09
5.0746e-09
5.10297e-09
6.6454e-09
5.01108e-09
3.13735e-09
3.03203e-09
2.55354e-09
4.40521e-09
4.18305e-09
3.22836e-09
2.89278e-09
3.63481e-09
3.01995e-09
1.06542e-08
4.82874e-09
8.73545e-09
6.22279e-09
1.06519e-08
8.73119e-09
6.2416e-09
1.06804e-08
4.81972e-09
8.77705e-09
6.30287e-09
1.07124e-08
8.74359e-09
6.28113e-09
5.44673e-09
5.409e-09
5.57706e-09
6.63603e-09
5.5601e-09
5.34989e-09
5.38117e-09
5.62749e-09
6.68748e-09
5.63373e-09
7.84602e-09
7.82298e-09
9.3309e-09
1.20914e-08
9.38498e-09
7.76142e-09
7.79522e-09
9.44008e-09
1.21311e-08
9.4062e-09
7.87461e-09
7.86724e-09
9.50924e-09
1.22005e-08
9.45941e-09
7.9411e-09
7.91402e-09
9.45357e-09
1.21782e-08
9.44037e-09
5.47969e-09
5.53001e-09
5.7647e-09
6.93815e-09
5.77048e-09
5.61538e-09
5.56828e-09
5.70866e-09
6.87614e-09
5.68594e-09
1.03147e-08
4.40289e-09
8.3547e-09
5.86072e-09
1.02926e-08
8.38073e-09
5.88257e-09
1.03458e-08
4.39318e-09
8.43558e-09
5.93155e-09
1.03654e-08
8.41256e-09
5.9156e-09
4.91858e-09
4.86513e-09
5.0166e-09
5.71758e-09
5.00667e-09
4.76081e-09
4.82436e-09
5.10621e-09
5.78884e-09
5.10601e-09
7.40403e-09
7.35706e-09
8.81946e-09
1.15418e-08
8.89166e-09
7.25889e-09
7.31712e-09
8.98065e-09
1.15963e-08
8.9192e-09
7.43778e-09
7.47358e-09
9.11354e-09
1.17579e-08
9.06985e-09
7.53558e-09
7.50505e-09
9.00325e-09
1.17193e-08
9.04874e-09
4.95337e-09
4.99871e-09
5.26112e-09
6.052e-09
5.26285e-09
5.07199e-09
5.02993e-09
5.19612e-09
5.99367e-09
5.1818e-09
1.26796e-08
1.28209e-08
1.05134e-08
1.09707e-08
1.21803e-08
1.19386e-08
9.58049e-09
3.31522e-09
7.26709e-09
5.03104e-09
9.53612e-09
7.35659e-09
5.08426e-09
9.63046e-09
3.32271e-09
7.55829e-09
5.21083e-09
9.68468e-09
7.4647e-09
5.14525e-09
3.62516e-09
3.57678e-09
3.78115e-09
3.92663e-09
3.74889e-09
3.57652e-09
3.55067e-09
3.8437e-09
3.96696e-09
3.85953e-09
5.92339e-09
5.64722e-09
6.65593e-09
8.98078e-09
7.02193e-09
5.35239e-09
5.63494e-09
7.40472e-09
9.33338e-09
7.05886e-09
5.97741e-09
6.21852e-09
8.04538e-09
1.03634e-08
7.80603e-09
6.49383e-09
6.28962e-09
7.45805e-09
1.01475e-08
7.74209e-09
3.68676e-09
3.80675e-09
4.22368e-09
4.4595e-09
4.20664e-09
4.02947e-09
3.88546e-09
4.00954e-09
4.32389e-09
4.01051e-09
8.89018e-09
8.27987e-09
1.3379e-08
1.72765e-08
1.01273e-08
7.77859e-09
6.90775e-09
4.57797e-09
5.56924e-09
5.26725e-09
5.24968e-09
5.55632e-09
6.90484e-09
1.47898e-08
1.87519e-08
1.37793e-08
1.81236e-08
1.48196e-08
1.87218e-08
1.37556e-08
6.94256e-09
4.60534e-09
5.32333e-09
5.63109e-09
6.9738e-09
5.32204e-09
5.62425e-09
1.47646e-08
1.37275e-08
1.81014e-08
1.86651e-08
1.86832e-08
1.37359e-08
1.47437e-08
6.41926e-09
3.98624e-09
4.91986e-09
4.62576e-09
4.61909e-09
4.92698e-09
6.38064e-09
1.42236e-08
1.80882e-08
1.32773e-08
1.74874e-08
1.42784e-08
1.80328e-08
1.32256e-08
6.52087e-09
4.09095e-09
4.80016e-09
5.11955e-09
6.56924e-09
4.7946e-09
5.10169e-09
4.7959e-09
2.81571e-09
2.80428e-09
3.00456e-09
3.29411e-09
3.13202e-09
4.27854e-09
5.52303e-09
3.00428e-09
3.65177e-09
3.76378e-09
5.6851e-09
3.64241e-09
3.70806e-09
2.13851e-08
2.05328e-08
2.14285e-08
2.15028e-08
2.05811e-08
2.14792e-08
7.04147e-09
4.70042e-09
5.73583e-09
5.42909e-09
7.06905e-09
5.42762e-09
5.72927e-09
1.4894e-08
1.88039e-08
1.38223e-08
1.82566e-08
1.48561e-08
1.8841e-08
1.38639e-08
6.99108e-09
4.67411e-09
5.36836e-09
5.66557e-09
6.98318e-09
5.35097e-09
5.65346e-09
2.13292e-08
2.03881e-08
2.12919e-08
2.03605e-08
2.12261e-08
2.12497e-08
6.67431e-09
4.27635e-09
5.30239e-09
4.98375e-09
6.71098e-09
4.98181e-09
5.2908e-09
1.4377e-08
1.81611e-08
1.33338e-08
1.76669e-08
1.43303e-08
1.82069e-08
1.3375e-08
6.60385e-09
4.21501e-09
4.87276e-09
5.17494e-09
6.58053e-09
4.86031e-09
5.17201e-09
1.44214e-08
1.34604e-08
1.83102e-08
1.77191e-08
1.82705e-08
1.44613e-08
1.34245e-08
5.72329e-09
3.03621e-09
3.98521e-09
3.75429e-09
5.82465e-09
3.73677e-09
3.93649e-09
5.71685e-09
3.03624e-09
3.6881e-09
3.78639e-09
5.64434e-09
3.65871e-09
3.79891e-09
7.20981e-09
4.92384e-09
5.9105e-09
5.62488e-09
5.90387e-09
5.60457e-09
7.18206e-09
6.16462e-09
6.19369e-09
4.49785e-09
4.52301e-09
4.15154e-09
4.16902e-09
4.24653e-09
4.20615e-09
5.80647e-09
5.82995e-09
5.90957e-09
5.86912e-09
6.87159e-09
5.53617e-09
4.51019e-09
5.22342e-09
6.89931e-09
5.52922e-09
5.22321e-09
1.46642e-08
1.85287e-08
1.79965e-08
1.3624e-08
1.36512e-08
1.85593e-08
1.46326e-08
1.46944e-08
1.37067e-08
1.86289e-08
1.80329e-08
1.47203e-08
1.36853e-08
1.8604e-08
6.82913e-09
4.48317e-09
5.46869e-09
5.165e-09
5.45765e-09
5.14863e-09
6.82102e-09
5.80722e-09
5.7674e-09
5.6992e-09
5.724e-09
4.14746e-09
4.10719e-09
4.05102e-09
4.07198e-09
3.51737e-09
3.57686e-09
3.74879e-09
3.68482e-09
5.09737e-09
5.16616e-09
5.37083e-09
5.30426e-09
6.30003e-09
4.84591e-09
3.81269e-09
4.53088e-09
6.36722e-09
4.81596e-09
4.51757e-09
6.15817e-09
3.64018e-09
4.53306e-09
4.26091e-09
4.55735e-09
4.26435e-09
6.09764e-09
5.0812e-09
4.9886e-09
4.66771e-09
4.76926e-09
3.49799e-09
3.41384e-09
3.16724e-09
3.24757e-09
2.65546e-09
2.92723e-09
2.81483e-09
2.76676e-09
2.92376e-09
3.27162e-09
3.78584e-09
3.66984e-09
3.27301e-09
2.44349e-09
1.49043e-09
2.53786e-09
3.95371e-09
1.945e-09
2.35001e-09
1.12442e-08
1.25815e-08
1.41695e-08
1.09054e-08
1.16527e-08
1.379e-08
1.02532e-08
1.09047e-08
9.07631e-09
1.36978e-08
1.1901e-08
1.0901e-08
8.63945e-09
1.38283e-08
8.30443e-09
5.69942e-09
8.83267e-09
5.93717e-09
8.82801e-09
5.36077e-09
8.06315e-09
2.7117e-09
2.33915e-09
2.37277e-09
1.63929e-09
2.16368e-08
2.0621e-08
2.15796e-08
2.15294e-08
2.06044e-08
2.15356e-08
7.07212e-09
4.78614e-09
5.77595e-09
5.4805e-09
7.07267e-09
5.76135e-09
5.46378e-09
7.11069e-09
4.83545e-09
5.86158e-09
5.56343e-09
7.1575e-09
5.853e-09
5.56292e-09
4.35045e-09
4.3049e-09
4.25146e-09
4.26877e-09
6.02168e-09
5.97414e-09
5.90846e-09
5.93036e-09
6.01914e-09
6.05441e-09
6.15978e-09
6.1082e-09
4.35918e-09
4.38212e-09
4.49407e-09
4.44512e-09
2.10687e-08
2.02416e-08
2.11063e-08
2.11868e-08
2.0282e-08
2.11547e-08
2.10159e-08
2.01146e-08
2.09745e-08
6.73198e-09
4.36816e-09
5.34498e-09
5.0403e-09
6.71936e-09
5.3366e-09
5.02486e-09
1.45669e-08
1.848e-08
1.35885e-08
1.78818e-08
1.45995e-08
1.84471e-08
1.35608e-08
6.78188e-09
4.40786e-09
5.43258e-09
5.11708e-09
6.8136e-09
5.42399e-09
5.11585e-09
1.45328e-08
1.34995e-08
1.83646e-08
1.78442e-08
1.44988e-08
1.83971e-08
1.35259e-08
3.91983e-09
3.86921e-09
3.76044e-09
3.80113e-09
5.56189e-09
5.51089e-09
5.37901e-09
5.42472e-09
5.56531e-09
5.59747e-09
5.69862e-09
5.65544e-09
3.92668e-09
3.95448e-09
4.04566e-09
4.00206e-09
5.86542e-09
3.21301e-09
4.05636e-09
3.84132e-09
5.79882e-09
4.08736e-09
3.84038e-09
5.99639e-09
3.41334e-09
4.4416e-09
4.14559e-09
6.09016e-09
4.39329e-09
4.11986e-09
2.80698e-09
2.73137e-09
2.77394e-09
2.79005e-09
4.11045e-09
3.97645e-09
3.74858e-09
3.8381e-09
4.11789e-09
4.23734e-09
4.64428e-09
4.51755e-09
2.80655e-09
2.87149e-09
3.14051e-09
3.03721e-09
1.53837e-08
1.59197e-08
1.60146e-08
1.56094e-08
1.38126e-08
1.61242e-08
1.28878e-08
1.05764e-08
1.22632e-08
1.36144e-08
1.08671e-08
1.20557e-08
1.4265e-08
1.50685e-08
1.34793e-08
9.47587e-09
9.64967e-09
1.08861e-08
1.4889e-08
1.61345e-08
6.90599e-09
4.55687e-09
5.27351e-09
5.58288e-09
6.93428e-09
5.27139e-09
5.57676e-09
6.94353e-09
4.62736e-09
5.3179e-09
5.61746e-09
6.94012e-09
5.30008e-09
5.60358e-09
6.42005e-09
3.96525e-09
4.6787e-09
4.99676e-09
6.47725e-09
4.66947e-09
4.97372e-09
6.52067e-09
4.11294e-09
4.76221e-09
5.0611e-09
6.49034e-09
4.75185e-09
5.06288e-09
4.87494e-09
2.8938e-09
3.5605e-09
3.49984e-09
5.26638e-09
3.45897e-09
3.31945e-09
5.5479e-09
3.06423e-09
3.66888e-09
3.62515e-09
5.34294e-09
3.64879e-09
3.69665e-09
7.04393e-09
4.72269e-09
5.42277e-09
5.71922e-09
7.03831e-09
5.40382e-09
5.70743e-09
6.99351e-09
4.65053e-09
5.37451e-09
5.6829e-09
7.02821e-09
5.37357e-09
5.67477e-09
6.67501e-09
4.29897e-09
4.96529e-09
5.26866e-09
6.65761e-09
4.9502e-09
5.26257e-09
6.60437e-09
4.19219e-09
4.90084e-09
5.21971e-09
6.64734e-09
4.8969e-09
5.20563e-09
5.76739e-09
3.06637e-09
3.71355e-09
3.87406e-09
5.70297e-09
3.69609e-09
3.89696e-09
5.65261e-09
2.98448e-09
3.66396e-09
3.8359e-09
5.74942e-09
3.66484e-09
3.80188e-09
7.32849e-09
5.00309e-09
6.01078e-09
5.71181e-09
7.30918e-09
6.00947e-09
5.69573e-09
7.22612e-09
4.89143e-09
5.95449e-09
5.63765e-09
7.28464e-09
5.93573e-09
5.63791e-09
6.25604e-09
6.30624e-09
7.51856e-09
8.15362e-09
7.07104e-09
7.08522e-09
7.55307e-09
1.15011e-08
1.30907e-08
1.31388e-08
1.14635e-08
1.15204e-08
1.32247e-08
1.1573e-08
1.31507e-08
1.16276e-08
1.32295e-08
1.15894e-08
1.32794e-08
6.24305e-09
6.18916e-09
6.96196e-09
8.01152e-09
7.39372e-09
6.96898e-09
7.42795e-09
7.48341e-09
7.03041e-09
8.04771e-09
6.99779e-09
7.45146e-09
4.5615e-09
4.60062e-09
5.87946e-09
6.01031e-09
5.39188e-09
5.64743e-09
5.34268e-09
5.86728e-09
6.01682e-09
5.23256e-09
6.01766e-09
6.00387e-09
5.24742e-09
4.38454e-09
4.76248e-09
4.33466e-09
4.80688e-09
5.24971e-09
5.98243e-09
6.01354e-09
5.20267e-09
4.39722e-09
4.87915e-09
4.40841e-09
4.85774e-09
4.55776e-09
4.50294e-09
5.78857e-09
5.29972e-09
5.58028e-09
5.91651e-09
5.25249e-09
5.92028e-09
5.78858e-09
5.78545e-09
5.9572e-09
5.31543e-09
5.57018e-09
5.26658e-09
5.83821e-09
5.91381e-09
5.33825e-09
6.07733e-09
6.10993e-09
5.29518e-09
4.91478e-09
4.43618e-09
4.1963e-09
4.15652e-09
5.36754e-09
4.92631e-09
5.1679e-09
5.50214e-09
4.88258e-09
5.50125e-09
5.37395e-09
5.3649e-09
5.52367e-09
4.93671e-09
5.16311e-09
4.88821e-09
5.40086e-09
5.49169e-09
4.89408e-09
5.62293e-09
5.65045e-09
4.86245e-09
4.05575e-09
4.32899e-09
4.0407e-09
4.32794e-09
4.89278e-09
5.65449e-09
5.65106e-09
4.88537e-09
4.04728e-09
4.28299e-09
4.02135e-09
4.30704e-09
4.20232e-09
4.22068e-09
5.42752e-09
4.99047e-09
5.22767e-09
5.59064e-09
4.94264e-09
5.55604e-09
5.47012e-09
5.42401e-09
5.5555e-09
4.97914e-09
5.22704e-09
4.93459e-09
5.42538e-09
5.5567e-09
4.82174e-09
5.58584e-09
5.58391e-09
4.83382e-09
3.98052e-09
4.16443e-09
3.93554e-09
4.20231e-09
4.83855e-09
5.56902e-09
5.59511e-09
4.79105e-09
3.99399e-09
4.25827e-09
4.002e-09
4.24119e-09
5.85952e-09
5.81785e-09
6.60679e-09
7.66484e-09
7.04422e-09
6.60141e-09
7.06389e-09
7.0867e-09
6.62618e-09
7.68117e-09
6.61948e-09
7.06585e-09
1.11396e-08
1.27795e-08
1.11607e-08
1.2753e-08
9.96549e-09
1.19975e-08
9.29353e-09
9.65467e-09
1.19634e-08
9.63978e-09
9.98118e-09
9.95454e-09
9.61449e-09
9.28239e-09
1.19469e-08
1.19593e-08
9.63034e-09
9.94232e-09
1.11283e-08
1.27312e-08
1.11159e-08
1.27457e-08
5.85698e-09
5.88158e-09
6.678e-09
7.72477e-09
7.13544e-09
6.6693e-09
7.1152e-09
7.09287e-09
6.65782e-09
7.70565e-09
6.65016e-09
7.1126e-09
9.90988e-09
1.19205e-08
9.24593e-09
9.57502e-09
1.19276e-08
9.59019e-09
9.89883e-09
1.10703e-08
1.2675e-08
1.10606e-08
1.2685e-08
9.91897e-09
9.60577e-09
9.25333e-09
1.19427e-08
1.19254e-08
9.59509e-09
9.9281e-09
1.10831e-08
1.27138e-08
1.10981e-08
1.26976e-08
6.87321e-09
4.53167e-09
5.52148e-09
5.21917e-09
6.86775e-09
5.50964e-09
5.20105e-09
6.82903e-09
4.46141e-09
5.48708e-09
5.17345e-09
6.86044e-09
5.47923e-09
5.17208e-09
6.57849e-09
7.0362e-09
7.63624e-09
6.56832e-09
7.01783e-09
5.75436e-09
5.77782e-09
6.99435e-09
7.6204e-09
6.5548e-09
6.55171e-09
7.01325e-09
1.09478e-08
1.25419e-08
1.25568e-08
1.09324e-08
9.79446e-09
1.17995e-08
9.1445e-09
9.45488e-09
1.18193e-08
9.47561e-09
9.77792e-09
9.80843e-09
9.5042e-09
1.18547e-08
9.15602e-09
1.18225e-08
9.8247e-09
9.48772e-09
1.09616e-08
1.25954e-08
1.09823e-08
1.25724e-08
9.87031e-09
1.19151e-08
9.56247e-09
9.21311e-09
9.88399e-09
1.18886e-08
9.54995e-09
1.10256e-08
1.26598e-08
1.10444e-08
1.26372e-08
9.8591e-09
9.52132e-09
9.20333e-09
1.18646e-08
1.18853e-08
9.5397e-09
9.84259e-09
1.10136e-08
1.26103e-08
1.0998e-08
1.26283e-08
5.75437e-09
5.71355e-09
6.49907e-09
7.56489e-09
6.93688e-09
6.49592e-09
6.95846e-09
6.98463e-09
6.52548e-09
7.58395e-09
6.51516e-09
6.96329e-09
4.10343e-09
4.12316e-09
5.30826e-09
4.88283e-09
5.46926e-09
5.10791e-09
5.3497e-09
4.83828e-09
5.43678e-09
5.30777e-09
5.43689e-09
4.87485e-09
5.10815e-09
4.82941e-09
5.30737e-09
5.43812e-09
4.69387e-09
5.46053e-09
5.45787e-09
4.7063e-09
3.85339e-09
3.97182e-09
3.80726e-09
4.01339e-09
4.70975e-09
5.43852e-09
5.46827e-09
4.66052e-09
3.86786e-09
4.07283e-09
3.87614e-09
4.05394e-09
4.09947e-09
4.05869e-09
5.24931e-09
4.81717e-09
5.05062e-09
5.37734e-09
4.77571e-09
5.38039e-09
5.25103e-09
5.24677e-09
5.4033e-09
4.8292e-09
5.04639e-09
4.78344e-09
5.28368e-09
5.37209e-09
4.76859e-09
5.49868e-09
5.52676e-09
4.73592e-09
3.93224e-09
4.14208e-09
3.91732e-09
4.14196e-09
4.76731e-09
5.5306e-09
4.76147e-09
5.52723e-09
3.92241e-09
4.09708e-09
3.89626e-09
4.12168e-09
3.63606e-09
3.56323e-09
4.66638e-09
4.26455e-09
4.4752e-09
4.765e-09
4.23611e-09
4.79491e-09
4.6309e-09
4.66982e-09
4.84036e-09
4.31192e-09
4.47938e-09
4.26575e-09
4.73122e-09
4.7947e-09
4.26167e-09
4.95617e-09
5.00751e-09
4.20436e-09
3.44776e-09
3.44059e-09
3.44751e-09
3.42017e-09
4.25661e-09
5.02463e-09
5.00722e-09
4.27013e-09
3.42742e-09
3.33754e-09
3.38455e-09
3.38396e-09
3.65114e-09
3.7013e-09
4.8088e-09
4.43616e-09
4.61522e-09
4.97664e-09
4.39178e-09
4.9337e-09
4.86752e-09
4.80398e-09
4.90644e-09
4.40025e-09
4.60991e-09
4.36693e-09
4.77468e-09
4.9302e-09
4.12031e-09
4.88683e-09
4.86569e-09
4.15417e-09
3.30722e-09
3.15254e-09
3.24833e-09
3.21383e-09
4.13812e-09
4.81581e-09
4.87436e-09
4.06379e-09
3.33118e-09
3.30172e-09
3.35203e-09
3.26442e-09
5.24123e-09
5.16257e-09
5.89658e-09
7.01402e-09
6.30986e-09
5.91667e-09
6.3668e-09
6.4445e-09
5.99319e-09
7.05563e-09
5.9634e-09
6.39339e-09
1.04673e-08
1.21115e-08
1.05121e-08
1.20672e-08
9.35155e-09
1.14494e-08
8.75325e-09
9.07335e-09
1.13932e-08
9.03861e-09
9.38658e-09
1.04352e-08
1.19899e-08
1.03898e-08
1.20337e-08
5.25315e-09
5.30973e-09
6.12855e-09
7.19037e-09
6.58298e-09
6.10438e-09
6.54177e-09
6.47566e-09
6.0527e-09
7.15616e-09
6.06681e-09
6.52102e-09
1.02534e-08
1.17946e-08
1.01989e-08
1.18444e-08
1.02943e-08
1.19442e-08
1.03484e-08
1.1891e-08
6.30046e-09
3.83042e-09
4.74498e-09
4.45995e-09
6.24993e-09
4.76114e-09
4.45841e-09
6.15485e-09
3.62567e-09
4.66032e-09
4.35214e-09
6.23658e-09
4.62096e-09
4.33181e-09
5.82602e-09
6.27033e-09
6.88797e-09
5.7872e-09
6.20799e-09
4.90312e-09
4.98834e-09
6.10118e-09
6.83909e-09
5.6994e-09
5.73103e-09
6.17045e-09
9.71407e-09
1.11968e-08
1.12914e-08
9.61893e-09
9.78555e-09
1.14618e-08
9.87633e-09
1.13696e-08
1.00745e-08
1.17346e-08
1.01447e-08
1.16649e-08
1.00206e-08
1.15321e-08
9.94399e-09
1.16084e-08
4.88216e-09
4.7718e-09
5.45883e-09
6.62087e-09
5.83909e-09
5.49945e-09
5.92396e-09
6.04938e-09
5.61733e-09
6.67777e-09
5.56814e-09
5.9726e-09
3.35634e-09
3.42813e-09
4.50345e-09
4.16163e-09
4.68506e-09
4.32116e-09
4.57759e-09
4.11488e-09
4.63281e-09
4.49482e-09
4.58448e-09
4.10086e-09
4.31098e-09
4.07589e-09
4.44409e-09
4.6241e-09
3.78198e-09
4.53912e-09
4.50314e-09
3.83938e-09
3.0086e-09
2.71249e-09
2.93027e-09
2.80384e-09
3.80476e-09
4.43097e-09
4.51316e-09
3.69801e-09
3.0434e-09
2.928e-09
3.07822e-09
2.86639e-09
3.33193e-09
3.23612e-09
4.29601e-09
3.90357e-09
4.11696e-09
4.38018e-09
3.88419e-09
4.42769e-09
4.2365e-09
4.30359e-09
4.49037e-09
3.98014e-09
4.12627e-09
3.93078e-09
4.38407e-09
4.43416e-09
3.98422e-09
4.63369e-09
4.70402e-09
3.90383e-09
3.20584e-09
3.11714e-09
3.21391e-09
3.08515e-09
3.97562e-09
4.73292e-09
4.00423e-09
4.70392e-09
3.17855e-09
2.9739e-09
3.1213e-09
3.04133e-09
2.99411e-09
2.90514e-09
2.83141e-09
2.77916e-09
3.22956e-09
2.62495e-09
3.00113e-09
2.67526e-09
2.73285e-09
2.88492e-09
3.0347e-09
3.17092e-09
3.24827e-09
3.06305e-09
3.01597e-09
2.79497e-09
3.18903e-09
3.33973e-09
3.52539e-09
3.20037e-09
2.42349e-09
2.36808e-09
2.42244e-09
2.34499e-09
3.11672e-09
3.58433e-09
3.50688e-09
3.09124e-09
2.44856e-09
2.15704e-09
2.45887e-09
2.29549e-09
2.85653e-09
2.87057e-09
3.32081e-09
3.23498e-09
3.43449e-09
3.54838e-09
3.2035e-09
3.44999e-09
3.4372e-09
3.2301e-09
3.20649e-09
3.21612e-09
3.49803e-09
3.19723e-09
3.12039e-09
3.39109e-09
3.12592e-09
3.12208e-09
2.90274e-09
3.08504e-09
2.67445e-09
1.61916e-09
2.84278e-09
1.58975e-09
3.05308e-09
2.65881e-09
2.76119e-09
3.04617e-09
2.59763e-09
1.96758e-09
2.46145e-09
1.75728e-09
3.57236e-09
3.29831e-09
3.23879e-09
4.42028e-09
3.44182e-09
3.49784e-09
3.70886e-09
4.04706e-09
3.92986e-09
4.60363e-09
3.75966e-09
3.8758e-09
6.58773e-09
7.89044e-09
6.78891e-09
7.551e-09
6.37913e-09
6.9912e-09
6.19583e-09
7.32047e-09
3.58666e-09
3.72902e-09
4.3009e-09
5.17183e-09
4.4042e-09
4.2244e-09
4.33368e-09
4.16786e-09
4.09238e-09
5.19025e-09
4.18666e-09
4.26814e-09
5.7658e-09
6.33701e-09
5.66954e-09
6.53688e-09
5.87235e-09
6.81218e-09
6.01274e-09
6.54246e-09
3.05646e-09
1.41622e-09
2.38944e-09
2.45885e-09
3.11979e-09
1.63124e-09
1.73472e-09
1.03683e-08
1.28466e-08
1.25055e-08
1.12936e-08
1.47852e-08
1.32283e-08
9.55615e-09
9.6317e-09
1.16723e-08
1.43573e-08
1.56885e-08
1.40497e-08
7.48854e-09
9.26174e-09
7.57129e-09
5.17076e-09
5.83652e-09
6.26329e-09
6.02204e-09
5.0891e-09
6.38521e-09
8.42633e-09
6.53038e-09
7.11926e-09
8.46725e-09
6.83401e-09
6.50604e-09
3.45055e-09
3.1552e-09
4.08139e-09
7.58284e-09
3.54717e-09
5.49431e-09
5.24187e-09
3.25699e-09
4.86005e-09
2.9584e-09
3.15232e-09
3.74453e-09
2.5557e-09
2.81586e-09
2.27029e-09
2.05859e-09
2.04723e-09
3.64873e-09
2.61757e-09
2.47361e-09
2.43359e-09
8.16673e-09
6.44295e-09
5.30136e-09
5.00624e-09
6.90831e-09
5.32336e-09
7.49344e-09
4.49866e-09
5.70331e-09
6.49404e-09
5.66439e-09
6.4452e-09
5.96207e-09
6.92244e-09
5.59026e-09
7.01002e-09
3.99978e-09
1.76645e-09
2.81619e-09
1.28518e-09
1.83108e-09
2.33963e-09
2.3082e-09
2.4674e-09
2.76498e-09
2.75843e-09
2.5107e-09
2.66232e-09
3.13543e-09
2.8394e-09
2.69208e-09
2.64048e-09
1.68827e-09
2.04345e-09
2.49654e-09
4.6124e-09
3.06866e-09
4.59827e-09
3.41966e-09
3.2987e-09
4.14529e-09
4.54502e-09
3.75476e-09
3.05097e-09
2.64769e-09
3.08781e-09
4.48681e-09
3.03886e-09
3.18774e-09
2.40047e-09
2.43591e-09
2.93131e-09
2.37374e-09
2.30536e-09
1.77494e-09
2.4521e-09
2.0493e-09
2.56473e-09
2.52139e-09
2.68389e-09
2.54011e-09
1.98753e-09
2.65335e-09
1.84566e-09
2.22537e-09
1.36975e-08
1.37423e-08
1.38381e-08
1.37711e-08
1.38678e-08
1.34094e-08
1.34264e-08
1.34709e-08
1.34429e-08
1.35408e-08
1.35201e-08
1.34882e-08
1.35085e-08
1.36727e-08
1.36286e-08
1.36025e-08
1.36221e-08
1.35583e-08
1.35648e-08
1.35856e-08
1.35743e-08
7.06617e-09
4.76534e-09
5.79194e-09
5.49501e-09
7.09486e-09
5.78846e-09
5.49018e-09
7.1076e-09
4.86239e-09
5.83935e-09
5.55113e-09
7.1009e-09
5.82233e-09
5.5337e-09
4.29996e-09
4.32051e-09
5.55141e-09
5.10254e-09
5.34563e-09
5.71917e-09
5.05317e-09
5.68185e-09
5.59723e-09
5.55002e-09
5.68453e-09
5.09268e-09
5.34606e-09
5.04484e-09
5.5509e-09
5.6845e-09
4.94513e-09
5.71322e-09
5.70941e-09
4.95671e-09
4.10267e-09
4.35376e-09
4.05688e-09
4.39357e-09
4.96121e-09
5.69333e-09
4.91487e-09
5.71968e-09
4.11594e-09
4.45178e-09
4.12369e-09
4.43474e-09
4.29632e-09
4.25529e-09
5.49018e-09
5.03365e-09
5.29054e-09
5.62414e-09
4.99003e-09
5.49594e-09
5.62443e-09
5.48843e-09
5.64961e-09
5.04495e-09
5.28489e-09
4.99646e-09
5.52666e-09
5.61588e-09
5.02215e-09
5.75356e-09
5.78045e-09
4.98861e-09
4.18412e-09
4.52014e-09
4.16885e-09
4.52238e-09
5.02009e-09
5.78538e-09
5.77965e-09
5.01641e-09
4.17185e-09
4.47745e-09
4.14481e-09
4.50058e-09
5.96042e-09
5.98619e-09
6.78875e-09
7.84163e-09
7.24657e-09
6.7796e-09
7.22616e-09
7.203e-09
6.76321e-09
7.8246e-09
6.76112e-09
7.22181e-09
1.11932e-08
1.2795e-08
1.11779e-08
1.28134e-08
1.00183e-08
1.20092e-08
9.34567e-09
9.67155e-09
1.20356e-08
9.99975e-09
9.69353e-09
1.00341e-08
9.73097e-09
9.36003e-09
1.20883e-08
1.20442e-08
9.71115e-09
1.00559e-08
1.12056e-08
1.28553e-08
1.28252e-08
1.12288e-08
5.96001e-09
5.91948e-09
6.70818e-09
7.7616e-09
7.14476e-09
6.7036e-09
7.16511e-09
7.19096e-09
6.7342e-09
7.78207e-09
6.72244e-09
7.17068e-09
1.12733e-08
1.29206e-08
1.28985e-08
1.12905e-08
1.12593e-08
1.28659e-08
1.2888e-08
1.12428e-08
6.09321e-09
6.03664e-09
6.82338e-09
7.85954e-09
7.25208e-09
6.8141e-09
7.27729e-09
7.3042e-09
6.83962e-09
7.88232e-09
6.84024e-09
7.27258e-09
1.14014e-08
1.3069e-08
1.1436e-08
1.30252e-08
1.13851e-08
1.29997e-08
1.30163e-08
1.13709e-08
6.08688e-09
6.12469e-09
6.91764e-09
7.37172e-09
7.92992e-09
6.90622e-09
7.33783e-09
7.30321e-09
6.88881e-09
7.8941e-09
6.87359e-09
7.33678e-09
1.13141e-08
1.29372e-08
1.29432e-08
1.13084e-08
1.13317e-08
1.29698e-08
1.29611e-08
1.13425e-08
4.42056e-09
4.37163e-09
5.62121e-09
5.15263e-09
5.42163e-09
5.75717e-09
5.10929e-09
5.62642e-09
5.75817e-09
5.62127e-09
5.7858e-09
5.17121e-09
5.4189e-09
5.11481e-09
5.66239e-09
5.74666e-09
5.17392e-09
5.89428e-09
5.92513e-09
5.13811e-09
4.3306e-09
4.73076e-09
4.31707e-09
4.72885e-09
5.17087e-09
5.93264e-09
5.16418e-09
5.9246e-09
4.32177e-09
4.67377e-09
4.29158e-09
4.70131e-09
4.4351e-09
4.46059e-09
5.70653e-09
5.24178e-09
5.87237e-09
5.51147e-09
5.75674e-09
5.19017e-09
5.8305e-09
5.69947e-09
5.8254e-09
5.22218e-09
5.50984e-09
5.17982e-09
5.69824e-09
5.83085e-09
5.08506e-09
5.84928e-09
5.84437e-09
5.10248e-09
4.23918e-09
4.54406e-09
4.19182e-09
4.58279e-09
5.1048e-09
5.83079e-09
5.05281e-09
5.85807e-09
4.25666e-09
4.64444e-09
4.26691e-09
4.62778e-09
1.3393e-08
1.33676e-08
1.33456e-08
1.33608e-08
1.32939e-08
1.33028e-08
1.33302e-08
1.33154e-08
1.31583e-08
1.31715e-08
1.32102e-08
1.31903e-08
1.32764e-08
1.32562e-08
1.32288e-08
1.32454e-08
1.2769e-08
1.27945e-08
1.2859e-08
1.28283e-08
1.2969e-08
1.29407e-08
1.28925e-08
1.29178e-08
1.31378e-08
1.31137e-08
1.30812e-08
1.3099e-08
1.29973e-08
1.30131e-08
1.30572e-08
1.30358e-08
6.73158e-09
4.34587e-09
5.3719e-09
5.05503e-09
6.76597e-09
5.36209e-09
5.05263e-09
6.78313e-09
4.4295e-09
5.41134e-09
5.10704e-09
6.77369e-09
5.40127e-09
5.09049e-09
3.85161e-09
3.88619e-09
5.02249e-09
4.62767e-09
4.82537e-09
5.18445e-09
4.58429e-09
5.14774e-09
5.07154e-09
5.0205e-09
5.13494e-09
4.60765e-09
4.82355e-09
4.56819e-09
5.00607e-09
5.14723e-09
4.36239e-09
5.13325e-09
5.12155e-09
4.38611e-09
3.5297e-09
3.47432e-09
3.47555e-09
3.52856e-09
4.37936e-09
5.08716e-09
4.31662e-09
5.13154e-09
3.5506e-09
3.6082e-09
3.566e-09
3.57787e-09
3.84271e-09
3.78647e-09
4.92454e-09
4.51237e-09
4.72847e-09
5.03487e-09
4.47774e-09
4.90687e-09
5.05215e-09
4.92424e-09
5.08498e-09
4.54062e-09
4.72786e-09
4.49582e-09
4.97241e-09
5.04715e-09
4.47172e-09
5.1871e-09
5.22666e-09
4.42669e-09
3.64433e-09
3.71755e-09
3.63695e-09
3.70659e-09
4.4688e-09
5.23584e-09
5.2265e-09
4.47197e-09
3.62848e-09
3.64067e-09
3.59365e-09
3.67728e-09
5.48073e-09
5.51921e-09
6.32766e-09
7.38904e-09
6.78488e-09
6.31131e-09
6.75667e-09
6.71403e-09
6.28102e-09
7.36484e-09
6.28549e-09
6.74497e-09
1.05797e-08
1.21489e-08
1.05465e-08
1.21794e-08
9.45292e-09
1.14649e-08
8.84409e-09
9.10484e-09
1.15024e-08
9.42201e-09
9.14044e-09
9.47882e-09
9.19183e-09
8.864e-09
1.15551e-08
1.15089e-08
9.16291e-09
9.50678e-09
1.06058e-08
1.22441e-08
1.22091e-08
1.06412e-08
5.47529e-09
5.41702e-09
6.17905e-09
7.26996e-09
6.60702e-09
6.18656e-09
6.64516e-09
6.695e-09
6.23737e-09
7.29977e-09
6.2185e-09
6.65966e-09
9.58405e-09
1.1651e-08
8.95746e-09
9.29001e-09
1.16107e-08
9.26727e-09
9.60725e-09
1.07181e-08
1.23534e-08
1.23216e-08
1.07486e-08
9.56343e-09
9.21873e-09
8.94085e-09
1.15692e-08
1.1604e-08
9.24833e-09
9.53637e-09
1.06976e-08
1.22733e-08
1.23021e-08
1.06687e-08
5.63511e-09
5.5879e-09
6.3653e-09
7.44134e-09
6.80035e-09
6.36606e-09
6.82771e-09
6.86172e-09
6.40207e-09
7.46311e-09
6.38937e-09
6.8358e-09
1.08901e-08
1.25226e-08
1.09139e-08
1.24964e-08
9.7413e-09
1.179e-08
9.43814e-09
9.09549e-09
9.75873e-09
1.17558e-08
9.42134e-09
1.08756e-08
1.24636e-08
1.24834e-08
1.08562e-08
9.72686e-09
9.38701e-09
9.08291e-09
1.17281e-08
1.17512e-08
9.40866e-09
9.70815e-09
5.63656e-09
5.66548e-09
6.46766e-09
6.92595e-09
7.52571e-09
6.45577e-09
6.90384e-09
6.87429e-09
6.437e-09
7.50629e-09
6.43546e-09
6.89729e-09
9.6519e-09
1.16613e-08
9.01767e-09
9.31134e-09
1.16839e-08
9.63157e-09
9.33612e-09
1.07929e-08
1.23784e-08
1.23974e-08
1.07725e-08
1.0811e-08
1.24419e-08
1.24174e-08
1.08353e-08
9.66889e-09
9.36931e-09
9.0309e-09
1.17187e-08
1.16865e-08
9.34996e-09
9.68717e-09
3.98664e-09
3.94057e-09
5.10665e-09
4.68573e-09