/*--------------------------------*- C++ -*----------------------------------*\
| =========                 |                                                 |
| \\      /  F ield         | OpenFOAM: The Open Source CFD Toolbox           |
|  \\    /   O peration     | Version:  2012                                  |
|   \\  /    A nd           | Website:  www.openfoam.com                      |
|    \\/     M anipulation  |                                                 |
\*---------------------------------------------------------------------------*/
FoamFile
{
    version     2.0;
    format      ascii;
    class       volSymmTensorField;
    location    "0.107/solid";
    object      epsilon;
}
// * * * * * * * * * * * * * * * * * * * * * * * * * * * * * * * * * * * * * //

dimensions      [0 0 0 0 0 0 0];


internalField   nonuniform List<symmTensor> 
3125
(
(-2.32012e-09 2.15675e-09 -1.31398e-11 2.35789e-08 -1.9277e-10 4.77266e-12)
(-2.44978e-09 1.75444e-09 -3.93851e-11 2.23571e-08 -1.9693e-10 6.99687e-12)
(-2.99348e-09 1.2917e-09 -3.41553e-10 1.98109e-08 1.58324e-09 8.90796e-10)
(-2.30618e-09 2.18848e-09 -1.27991e-11 2.37225e-08 -2.03343e-10 5.65564e-12)
(-2.428e-09 1.82888e-09 -3.27418e-11 2.25631e-08 -1.99289e-10 -5.07121e-12)
(-2.96923e-09 1.06681e-09 -2.69005e-10 2.04066e-08 1.07155e-09 6.57835e-10)
(-2.21457e-09 2.30467e-09 -7.10873e-12 2.43662e-08 -2.8688e-10 1.68634e-11)
(-2.3643e-09 2.04315e-09 -1.82946e-11 2.31981e-08 -1.83276e-10 -9.84355e-12)
(-2.57032e-09 1.44527e-09 -8.81656e-11 2.15822e-08 -6.75036e-11 1.22514e-10)
(-2.23117e-09 2.28211e-09 -7.32987e-12 2.41396e-08 -2.58986e-10 2.56264e-11)
(-2.37787e-09 1.99903e-09 -2.03065e-11 2.30562e-08 -1.87238e-10 -1.09958e-11)
(-2.65043e-09 1.31176e-09 -1.1776e-10 2.12878e-08 6.78725e-11 2.10891e-10)
(5.95803e-09 -8.61307e-11 -3.44988e-12 7.44514e-09 -2.00921e-11 4.7718e-12)
(2.25143e-09 2.36219e-09 1.52429e-12 1.43546e-08 -1.51055e-10 9.89043e-12)
(-4.92492e-10 -3.65947e-09 -2.34924e-11 2.62546e-08 -1.1956e-10 2.76233e-11)
(-2.3358e-09 2.1222e-09 -1.48314e-11 2.3452e-08 -1.81982e-10 8.13828e-14)
(6.14168e-09 -2.60269e-11 8.57521e-12 7.62717e-09 -1.22678e-11 2.20431e-11)
(-5.62937e-10 -3.65378e-09 -3.63382e-11 2.60975e-08 -8.92136e-11 7.71995e-12)
(2.21185e-09 2.30543e-09 -3.60131e-12 1.42528e-08 -1.42348e-10 6.948e-12)
(5.14146e-09 -1.80674e-10 -9.20162e-11 6.58805e-09 6.18297e-11 1.45676e-10)
(1.87158e-09 1.76879e-09 -2.07021e-11 1.34144e-08 -1.293e-10 1.87164e-11)
(-8.86884e-10 -3.69454e-09 -7.71625e-11 2.51066e-08 -1.21192e-10 4.24105e-11)
(-2.47707e-09 1.66749e-09 -4.92563e-11 2.21243e-08 -1.80945e-10 2.81857e-11)
(5.46542e-09 -7.71714e-11 -4.47858e-11 6.91922e-09 3.35635e-11 7.09452e-11)
(-1.01642e-09 -3.71567e-09 -1.1507e-10 2.47403e-08 -1.09655e-10 1.29683e-10)
(1.79846e-09 1.64421e-09 -3.17628e-11 1.32412e-08 -1.0778e-10 3.65803e-11)
(4.30061e-09 2.50476e-10 -8.20028e-10 5.71539e-09 7.13999e-10 2.11974e-09)
(4.26913e-10 2.17906e-10 -3.07944e-10 1.20175e-08 1.02151e-09 4.0123e-10)
(-2.35413e-09 -3.08561e-09 -8.08893e-10 2.20707e-08 9.13205e-10 2.66426e-09)
(-2.95028e-09 2.09572e-09 -3.86724e-10 1.80611e-08 2.33131e-09 1.59354e-09)
(4.19494e-09 -3.26448e-10 -8.04162e-10 5.67076e-09 8.64975e-10 1.08931e-09)
(-2.1794e-09 -1.22279e-09 -9.35834e-10 1.97848e-08 -2.53029e-10 3.99137e-09)
(1.06038e-10 5.29715e-10 3.76693e-11 1.13595e-08 1.38707e-09 6.5735e-10)
(-2.68348e-09 -1.4032e-09 -4.50218e-11 2.92063e-08 -1.41302e-10 2.39139e-11)
(-2.62487e-09 -1.39249e-09 -3.88925e-11 2.9435e-08 -9.67795e-11 2.23458e-11)
(6.29683e-09 -2.15729e-11 9.04545e-12 7.79418e-09 -1.85317e-11 2.97022e-11)
(-2.28731e-09 2.22117e-09 -1.29286e-11 2.38623e-08 -2.09524e-10 9.21486e-12)
(2.29097e-09 2.41374e-09 1.46867e-12 1.44626e-08 -1.58977e-10 1.22958e-11)
(-4.71564e-10 -3.66174e-09 -3.11479e-11 2.63353e-08 -1.3417e-10 2.58963e-11)
(6.11259e-09 -7.12574e-11 5.57112e-12 7.6034e-09 -2.78889e-11 1.4123e-11)
(-3.94876e-10 -3.66186e-09 -2.21064e-11 2.6558e-08 -8.59226e-11 1.93673e-11)
(2.33342e-09 2.46928e-09 4.80963e-13 1.45734e-08 -1.70454e-10 1.65694e-11)
(-2.69958e-09 -1.40273e-09 -4.71596e-11 2.91208e-08 -1.33071e-10 2.61258e-11)
(-2.7586e-09 -1.40268e-09 -4.34764e-11 2.89479e-08 -9.6137e-11 8.61633e-12)
(-2.98411e-09 -1.47895e-09 -8.84466e-11 2.80293e-08 -1.3341e-10 2.51081e-11)
(-2.91462e-09 -1.44957e-09 -7.71263e-11 2.83139e-08 -1.2668e-10 -2.61131e-12)
(5.67261e-09 -6.32289e-11 -1.96838e-11 7.1382e-09 1.25842e-11 2.49007e-11)
(-2.40958e-09 1.89343e-09 -2.75686e-11 2.27451e-08 -1.96256e-10 -1.05444e-11)
(1.93685e-09 1.87555e-09 -1.6917e-11 1.3569e-08 -1.37553e-10 7.30085e-12)
(-8.52503e-10 -3.68759e-09 -7.63783e-11 2.5212e-08 -1.19983e-10 2.66671e-11)
(5.42513e-09 -1.42432e-10 -4.32684e-11 6.886e-09 1.66599e-11 4.96426e-11)
(-7.64408e-10 -3.67341e-09 -5.37332e-11 2.54888e-08 -1.1191e-10 -1.22338e-12)
(1.99423e-09 1.96778e-09 -1.0362e-11 1.37065e-08 -1.40499e-10 1.26157e-12)
(-3.01177e-09 -1.48887e-09 -1.00519e-10 2.79212e-08 -1.40149e-10 4.11786e-11)
(-3.1211e-09 -1.52563e-09 -1.22231e-10 2.75424e-08 -1.28089e-10 1.3281e-10)
(-4.37441e-09 -1.19029e-09 -6.59494e-10 2.46548e-08 7.36591e-10 2.7743e-09)
(-3.97278e-09 -1.50835e-09 -3.43659e-10 2.57703e-08 3.05992e-10 1.49297e-09)
(4.35334e-09 -2.32757e-10 -4.8241e-10 5.78924e-09 4.56585e-10 7.09991e-10)
(-2.87156e-09 1.07456e-09 -2.03826e-10 2.07199e-08 6.24777e-10 4.82694e-10)
(7.61482e-10 3.62094e-10 -2.84838e-10 1.22462e-08 7.97673e-10 3.4488e-10)
(-2.30724e-09 -3.3512e-09 -7.06025e-10 2.2401e-08 8.52199e-10 2.3065e-09)
(4.07701e-09 -4.33402e-10 -7.79252e-10 5.54152e-09 8.11865e-10 1.01137e-09)
(-1.92793e-09 -3.6901e-09 -4.1466e-10 2.31693e-08 3.70403e-10 1.32616e-09)
(1.0071e-09 5.6634e-10 -2.37916e-10 1.23269e-08 5.23218e-10 3.03332e-10)
(-4.43676e-09 -9.65833e-10 -8.48875e-10 2.41246e-08 7.56105e-10 3.30679e-09)
(-4.1794e-09 4.89496e-10 -1.46535e-09 2.08993e-08 -6.69412e-10 5.33856e-09)
(-2.16355e-10 -3.69557e-09 -2.85579e-11 2.68857e-08 -2.45962e-10 5.35018e-11)
(2.48097e-09 2.63741e-09 1.80192e-11 1.49761e-08 -2.23429e-10 2.45843e-11)
(6.48182e-09 -5.16372e-11 2.83588e-11 7.98389e-09 -4.15279e-11 2.59552e-11)
(1.0171e-08 -1.68072e-09 -1.57467e-11 2.10998e-08 -1.14261e-10 2.85e-11)
(3.93014e-09 4.66909e-09 8.96591e-11 7.81763e-09 -2.11095e-10 1.52397e-11)
(3.66519e-09 4.24876e-09 -6.86078e-11 7.44812e-09 -1.14185e-10 6.81398e-12)
(3.60207e-09 4.10929e-09 7.61462e-11 7.3476e-09 -1.31127e-10 7.49914e-12)
(9.74297e-09 -1.65705e-09 -2.19671e-11 2.0548e-08 -3.89331e-11 1.31484e-11)
(9.63297e-09 -1.65159e-09 -3.2618e-11 2.04156e-08 -2.23948e-11 3.07358e-12)
(5.9888e-09 -4.08324e-11 3.005e-13 7.4705e-09 -4.12757e-12 1.23279e-11)
(-2.35103e-09 2.08398e-09 -1.66742e-11 2.33301e-08 -1.80666e-10 -6.31833e-12)
(-6.45713e-10 -3.66142e-09 -4.32023e-11 2.58517e-08 -1.10483e-10 -4.37171e-12)
(2.13371e-09 2.18621e-09 -5.03627e-12 1.40525e-08 -1.38363e-10 -2.71359e-13)
(-5.84889e-10 -3.65663e-09 -3.23369e-11 2.6048e-08 -9.40757e-11 -2.1646e-13)
(5.81082e-09 -9.80178e-11 -9.07902e-12 7.2899e-09 -1.41084e-11 1.4363e-12)
(2.17313e-09 2.24634e-09 -1.71769e-12 1.41544e-08 -1.39342e-10 2.40902e-12)
(9.48328e-09 -1.65216e-09 -3.78606e-11 2.02018e-08 -3.48318e-11 -3.92301e-12)
(9.59895e-09 -1.65291e-09 -3.03966e-11 2.03692e-08 -2.463e-11 1.97256e-12)
(3.49954e-09 3.91729e-09 7.35723e-11 7.22601e-09 -1.23749e-10 5.18512e-12)
(3.56562e-09 4.06628e-09 -6.9003e-11 7.31952e-09 -1.00899e-10 4.35776e-12)
(3.17739e-09 3.32968e-09 -7.3649e-11 6.91897e-09 -7.34922e-11 1.08326e-11)
(3.05281e-09 3.04114e-09 5.6495e-11 6.79413e-09 -4.95463e-11 2.70421e-11)
(9.0328e-09 -1.65934e-09 -7.48035e-11 1.95547e-08 -3.03462e-11 6.92727e-11)
(8.80255e-09 -1.66459e-09 -1.1381e-10 1.92347e-08 -2.32688e-11 1.69539e-10)
(5.19038e-09 -9.92189e-11 -9.97373e-11 6.62636e-09 8.28632e-11 1.80212e-10)
(-2.51466e-09 1.56502e-09 -6.52088e-11 2.18646e-08 -1.43731e-10 6.39019e-11)
(-1.29895e-09 -3.74691e-09 -1.96196e-10 2.41239e-08 -2.92375e-11 4.1167e-10)
(1.59168e-09 1.307e-09 -8.54678e-11 1.28438e-08 -7.67022e-14 1.06089e-10)
(-1.07148e-09 -3.72581e-09 -1.24136e-10 2.4602e-08 -1.0178e-10 1.76189e-10)
(4.75272e-09 -2.3685e-10 -2.06208e-10 6.18727e-09 1.67008e-10 3.4211e-10)
(1.71028e-09 1.49392e-09 -5.0017e-11 1.30497e-08 -6.93134e-11 6.33156e-11)
(8.36627e-09 -1.67013e-09 -2.11306e-10 1.86788e-08 1.80644e-11 4.87475e-10)
(8.712e-09 -1.66871e-09 -1.2596e-10 1.91073e-08 -1.64987e-11 2.25319e-10)
(2.78154e-09 2.47508e-09 1.75783e-11 6.62153e-09 8.06946e-11 5.70221e-11)
(2.97674e-09 2.93563e-09 -8.18667e-11 6.75789e-09 -9.48551e-12 2.75743e-11)
(1.7277e-09 5.52151e-10 -1.26688e-10 6.19586e-09 5.28556e-10 3.70071e-12)
(1.84871e-09 1.36901e-09 3.25713e-10 5.2335e-09 5.22869e-10 1.17584e-11)
(6.87067e-09 -1.38612e-09 -1.21844e-09 1.65817e-08 4.90943e-10 3.37616e-09)
(6.53217e-09 -5.96669e-10 -1.15199e-09 1.51638e-08 -2.32915e-10 4.22548e-09)
(3.91733e-09 2.6089e-10 -9.15943e-10 5.34001e-09 5.38419e-10 2.45762e-09)
(-2.46343e-09 4.76079e-09 -5.85031e-10 1.55282e-08 4.14258e-09 1.70314e-09)
(-2.26261e-09 -1.70512e-10 -7.34092e-10 1.83945e-08 -9.91189e-10 4.61949e-09)
(2.60916e-10 1.36571e-09 2.06771e-10 8.92803e-09 1.29588e-09 4.40055e-10)
(6.12754e-09 -1.33392e-10 -5.92441e-10 1.44287e-08 -9.76266e-10 3.94862e-09)
(1.51252e-09 1.883e-09 1.92465e-10 5.00492e-09 5.12925e-10 1.48164e-10)
(-2.46665e-09 -1.42742e-09 -5.94323e-11 2.98089e-08 -2.42753e-10 4.60136e-11)
(-2.48611e-09 -1.43296e-09 -5.07218e-11 2.96416e-08 -2.05845e-10 6.91314e-11)
(-2.59137e-09 -1.39837e-09 -2.34231e-11 2.94645e-08 -7.92119e-11 3.84274e-11)
(6.26894e-09 -6.99696e-11 3.42307e-12 7.7697e-09 -3.6599e-11 2.14115e-11)
(-2.25777e-09 2.25445e-09 -1.10198e-11 2.39841e-08 -2.23165e-10 1.98665e-11)
(-2.41467e-10 -3.69596e-09 -1.52252e-11 2.67163e-08 -1.94501e-10 7.8027e-11)
(2.43456e-09 2.60093e-09 1.23405e-11 1.48233e-08 -2.06961e-10 2.31141e-11)
(6.52785e-09 1.2881e-11 2.93067e-11 8.01415e-09 -2.74834e-11 4.02932e-11)
(-3.56492e-10 -3.664e-09 -2.37713e-11 2.658e-08 -6.82675e-11 3.54179e-11)
(2.38293e-09 2.53863e-09 -3.44081e-12 1.46897e-08 -1.86194e-10 2.2111e-11)
(3.70146e-09 4.28823e-09 7.92505e-11 7.47891e-09 -1.47987e-10 9.72175e-12)
(3.76863e-09 4.43111e-09 -6.79595e-11 7.59002e-09 -1.35881e-10 1.00755e-11)
(9.78664e-09 -1.6586e-09 -2.52668e-11 2.06183e-08 -5.02347e-11 1.61327e-11)
(9.92033e-09 -1.66122e-09 -2.22242e-11 2.08136e-08 -1.57757e-11 2.54157e-11)
(1.00968e-08 -1.68297e-09 -1.14593e-11 2.09553e-08 -7.57875e-11 2.7424e-11)
(9.95755e-09 -1.66345e-09 -2.4314e-11 2.08404e-08 -1.93261e-12 2.36777e-11)
(3.88416e-09 4.63444e-09 -6.42744e-11 7.77815e-09 -1.69665e-10 1.17549e-11)
(3.80984e-09 4.47972e-09 8.16259e-11 7.63079e-09 -1.75656e-10 1.41994e-11)
(-2.82159e-09 -1.42226e-09 -5.42929e-11 2.86927e-08 -1.19399e-10 -5.74723e-12)
(-2.77606e-09 -1.40604e-09 -5.32659e-11 2.88963e-08 -1.04702e-10 4.22698e-14)
(-2.83763e-09 -1.4256e-09 -6.11357e-11 2.86178e-08 -1.23384e-10 -6.00138e-12)
(-2.89459e-09 -1.44229e-09 -6.63756e-11 2.83938e-08 -1.18361e-10 -4.08216e-12)
(5.63763e-09 -1.17238e-10 -2.10115e-11 7.10905e-09 -3.10954e-12 1.13562e-11)
(-2.39307e-09 1.94968e-09 -2.33977e-11 2.2907e-08 -1.90586e-10 -1.15375e-11)
(-6.66863e-10 -3.66281e-09 -3.84344e-11 2.57805e-08 -1.09213e-10 -4.72676e-12)
(2.09102e-09 2.12095e-09 -4.8135e-12 1.39442e-08 -1.39885e-10 -9.56998e-13)
(5.8423e-09 -5.03205e-11 -6.51865e-12 7.31578e-09 1.23694e-12 1.10084e-11)
(-7.38827e-10 -3.66836e-09 -5.56008e-11 2.55668e-08 -1.08351e-10 -3.07303e-12)
(2.04488e-09 2.04865e-09 -9.3892e-12 1.38299e-08 -1.39482e-10 -5.02618e-13)
(3.23601e-09 3.40825e-09 6.46813e-11 6.95433e-09 -1.02469e-10 1.17823e-11)
(3.33502e-09 3.63218e-09 -7.08506e-11 7.06655e-09 -9.17793e-11 3.99401e-12)
(9.09634e-09 -1.65681e-09 -7.09437e-11 1.96493e-08 -3.2417e-11 4.7372e-11)
(9.26297e-09 -1.6539e-09 -5.09242e-11 1.98868e-08 -2.95856e-11 1.2072e-11)
(9.4419e-09 -1.65232e-09 -3.6193e-11 2.01385e-08 -3.156e-11 -2.86457e-12)
(9.31001e-09 -1.65185e-09 -5.04767e-11 1.99571e-08 -2.98945e-11 4.4373e-12)
(3.4598e-09 3.8687e-09 -6.9839e-11 7.19716e-09 -9.69521e-11 2.8672e-12)
(3.3813e-09 3.69215e-09 7.01735e-11 7.09716e-09 -1.17835e-10 6.23608e-12)
(8.07219e-09 -2.04002e-09 -1.19404e-10 2.20938e-08 -4.98865e-11 1.66881e-10)
(-3.36848e-09 -1.57255e-09 -1.78636e-10 2.68927e-08 -5.82547e-11 4.36463e-10)
(-3.16844e-09 -1.53824e-09 -1.39381e-10 2.73997e-08 -1.26586e-10 1.82011e-10)
(7.64754e-09 -2.0334e-09 -1.84692e-10 2.14902e-08 -2.59752e-11 5.17047e-10)
(7.9831e-09 -2.04028e-09 -1.34288e-10 2.1963e-08 -4.8997e-11 2.27326e-10)
(-3.4615e-09 -1.57775e-09 -2.02952e-10 2.67059e-08 -2.33161e-11 5.68634e-10)
(-3.82649e-09 -1.5451e-09 -2.85763e-10 2.6027e-08 1.99352e-10 1.1903e-09)
(5.9966e-09 -1.7704e-09 -8.28469e-10 1.92351e-08 2.36116e-10 3.52702e-09)
(6.74317e-09 -1.96947e-09 -4.08021e-10 2.03818e-08 1.04606e-10 1.8067e-09)
(7.50231e-09 -2.03336e-09 -2.10299e-10 2.13211e-08 -1.4224e-11 6.72905e-10)
(6.95817e-09 -1.99516e-09 -3.33597e-10 2.06516e-08 6.54023e-11 1.41942e-09)
(4.28975e-09 -3.29801e-10 -4.42765e-10 5.73119e-09 4.00958e-10 6.50982e-10)
(-2.75465e-09 1.17771e-09 -1.54987e-10 2.09975e-08 2.91954e-10 3.3258e-10)
(-1.39922e-09 -3.75252e-09 -2.19745e-10 2.39511e-08 1.39921e-11 5.3203e-10)
(1.43324e-09 1.0788e-09 -1.2829e-10 1.26368e-08 1.12641e-10 1.65782e-10)
(4.80489e-09 -1.4103e-10 -2.26295e-10 6.22909e-09 1.98956e-10 3.94052e-10)
(-1.78237e-09 -3.72332e-09 -3.56755e-10 2.33714e-08 2.50458e-10 1.0746e-09)
(1.23604e-09 8.21147e-10 -1.82563e-10 1.24541e-08 2.85978e-10 2.36931e-10)
(1.86952e-09 6.1123e-10 -3.79603e-11 6.33235e-09 5.47289e-10 4.07687e-11)
(2.20558e-09 1.30214e-09 -1.846e-10 6.44831e-09 4.03321e-10 7.57808e-11)
(6.99216e-09 -1.48807e-09 -1.03351e-09 1.69088e-08 4.48851e-10 2.86593e-09)
(7.54529e-09 -1.63036e-09 -5.48768e-10 1.77256e-08 2.10703e-10 1.56722e-09)
(8.23086e-09 -1.67038e-09 -2.48365e-10 1.85118e-08 4.08549e-11 6.23991e-10)
(7.72867e-09 -1.64588e-09 -4.46327e-10 1.79414e-08 1.50929e-10 1.255e-09)
(2.66303e-09 2.28552e-09 -1.23126e-10 6.58316e-09 1.42253e-10 5.82581e-11)
(2.3551e-09 1.5583e-09 -4.47114e-11 6.4674e-09 3.30164e-10 8.78995e-11)
(5.76707e-09 -1.63391e-09 -1.07456e-09 1.87431e-08 2.22608e-10 4.26389e-09)
(5.29018e-09 -8.10044e-10 -1.90068e-09 1.66482e-08 -7.30752e-10 5.69975e-09)
(-2.9534e-09 7.19308e-09 -8.78173e-10 1.49822e-08 5.74966e-09 2.47616e-09)
(-4.15997e-09 1.29198e-09 -1.47067e-09 1.92357e-08 -1.58349e-09 6.10436e-09)
(5.04127e-09 -4.50088e-10 -1.74406e-09 1.58652e-08 -1.49941e-09 5.23173e-09)
(-4.00451e-09 3.18104e-09 -2.15656e-10 1.38678e-08 3.65957e-10 3.47368e-09)
(-2.05742e-09 8.87832e-09 -4.33536e-10 7.37804e-09 4.56532e-09 4.50857e-09)
(-7.53785e-09 6.13535e-09 -6.68888e-10 1.69039e-08 3.35787e-10 6.71376e-09)
(-1.25291e-09 4.66846e-09 -1.29478e-10 8.66582e-09 2.23164e-09 2.07032e-09)
(-2.07996e-09 1.01685e-08 -5.36769e-10 6.10936e-09 5.89467e-09 5.31751e-09)
(-8.12794e-09 7.32773e-09 -8.73305e-10 1.70434e-08 5.12549e-10 7.79915e-09)
(2.29709e-09 -2.19361e-09 -8.44651e-11 1.62959e-08 1.07428e-11 5.69711e-12)
(6.06569e-09 -3.19751e-11 2.34346e-12 7.54914e-09 -8.6293e-12 1.74398e-11)
(5.74819e-09 -2.44034e-09 -1.83448e-11 1.39402e-08 -5.24291e-11 1.87106e-11)
(6.1869e-09 -9.03054e-10 1.86056e-11 1.02607e-08 -1.00039e-10 2.0168e-11)
(6.22278e-09 -9.0504e-10 -1.97648e-11 1.02793e-08 -3.13741e-11 1.51633e-11)
(5.78265e-09 -2.43756e-09 -1.4093e-12 1.39726e-08 -3.38378e-11 2.34605e-11)
(2.26521e-09 -2.20799e-09 4.87055e-11 1.6262e-08 -2.1897e-10 1.93874e-11)
(2.32546e-09 -2.18645e-09 5.36205e-11 1.63558e-08 -2.28472e-10 2.68224e-11)
(6.03888e-09 -7.53274e-11 -6.944e-13 7.52555e-09 -2.52031e-11 9.78881e-12)
(6.30554e-09 -8.83798e-10 -9.78156e-12 1.03587e-08 -3.86125e-11 2.06068e-11)
(5.8554e-09 -2.43374e-09 9.5866e-12 1.40574e-08 -4.5578e-11 3.04837e-11)
(2.35606e-09 -2.17807e-09 -7.53074e-11 1.63942e-08 -2.1094e-12 1.26686e-11)
(6.273e-09 -8.79913e-10 2.36269e-11 1.03414e-08 -1.07934e-10 2.34999e-11)
(5.81899e-09 -2.4303e-09 -1.19153e-11 1.40191e-08 -5.8818e-11 2.64334e-11)
(1.73373e-09 -2.38336e-09 -1.44458e-10 1.52765e-08 2.36693e-11 5.63286e-11)
(5.33767e-09 -8.82428e-11 -6.7143e-11 6.78197e-09 5.24642e-11 1.14503e-10)
(5.00997e-09 -2.48654e-09 -9.41065e-11 1.29192e-08 -9.07492e-12 1.41368e-10)
(5.3128e-09 -1.11911e-09 -4.01895e-11 9.42507e-09 -2.83576e-11 1.10734e-10)
(5.38099e-09 -1.1195e-09 -7.57516e-11 9.46648e-09 2.09546e-11 7.78439e-11)
(5.08026e-09 -2.48522e-09 -6.47901e-11 1.30068e-08 -3.52324e-12 1.12299e-10)
(1.67239e-09 -2.41085e-09 -1.50324e-11 1.5196e-08 -1.83251e-10 1.08096e-10)
(1.78237e-09 -2.36919e-09 8.0698e-12 1.5389e-08 -2.06321e-10 6.21582e-11)
(5.29443e-09 -1.60022e-10 -6.3372e-11 6.74778e-09 3.34648e-11 8.75421e-11)
(5.52897e-09 -1.07697e-09 -5.66576e-11 9.60975e-09 -3.39111e-13 4.47142e-11)
(5.20817e-09 -2.47468e-09 -4.27471e-11 1.31856e-08 -1.75747e-11 6.56394e-11)
(1.83412e-09 -2.34705e-09 -1.24959e-10 1.54588e-08 1.04307e-11 2.20467e-11)
(5.47181e-09 -1.07615e-09 -1.73175e-11 9.57568e-09 -5.77907e-11 6.76982e-11)
(5.14667e-09 -2.47497e-09 -6.69793e-11 1.31102e-08 -3.08453e-11 8.42424e-11)
(-2.5253e-10 -1.69051e-09 -5.2747e-10 1.33437e-08 1.45365e-09 1.59109e-09)
(4.45956e-09 -2.41105e-11 -7.69885e-10 6.01172e-09 9.75876e-10 1.43626e-09)
(3.093e-09 -1.26808e-09 -5.17765e-10 1.10663e-08 6.61773e-10 2.47467e-09)
(2.3387e-09 -4.49508e-10 -1.09008e-10 8.55926e-09 1.05685e-09 1.29349e-09)
(2.52572e-09 -9.37063e-10 -5.20124e-10 8.72238e-09 1.28059e-09 1.07019e-09)
(3.30248e-09 -1.77654e-09 -6.37234e-10 1.13569e-08 1.07953e-09 2.10095e-09)
(-3.16394e-10 -1.05573e-09 -2.14537e-10 1.27482e-08 1.01816e-09 1.98576e-09)
(-1.12731e-10 -2.14361e-09 -4.98101e-10 1.37641e-08 1.26129e-09 1.34854e-09)
(4.2498e-09 -2.79539e-10 -7.86058e-10 5.77946e-09 9.68793e-10 1.27671e-09)
(3.26697e-09 -1.41955e-09 -7.35123e-10 8.60551e-09 1.14431e-09 7.6726e-10)
(3.49385e-09 -2.40706e-09 -8.40354e-10 1.15232e-08 1.10749e-09 1.62672e-09)
(8.05748e-11 -2.44457e-09 -7.27295e-10 1.38228e-08 1.35811e-09 1.19442e-09)
(2.88307e-09 -1.21456e-09 -6.48282e-10 8.80736e-09 1.17331e-09 8.71446e-10)
(3.38987e-09 -2.15634e-09 -8.14209e-10 1.15066e-08 1.16341e-09 1.83267e-09)
(2.43705e-09 -2.1747e-09 5.3918e-11 1.65754e-08 -2.44187e-10 3.46483e-11)
(6.17726e-09 -7.96896e-11 6.70922e-12 7.67629e-09 -3.12173e-11 1.52132e-11)
(6.00263e-09 -2.44446e-09 2.03418e-13 1.42751e-08 -3.96796e-11 3.75962e-11)
(6.47279e-09 -8.63062e-10 -1.3927e-11 1.05293e-08 -4.77573e-11 3.19061e-11)
(2.47524e-09 -2.1593e-09 -8.56944e-11 1.66112e-08 -3.02355e-12 2.08298e-11)
(6.43654e-09 -8.62544e-10 2.6876e-11 1.05105e-08 -1.19941e-10 3.35691e-11)
(5.96027e-09 -2.44737e-09 -8.35936e-12 1.42373e-08 -7.02392e-11 3.29523e-11)
(2.40972e-09 -2.17627e-09 -7.35922e-11 1.6507e-08 -1.03138e-11 1.37873e-11)
(6.21167e-09 -2.96777e-11 1.2243e-11 7.7014e-09 -1.40089e-11 2.36091e-11)
(6.35292e-09 -8.66683e-10 2.89093e-11 1.04229e-08 -1.13675e-10 2.89363e-11)
(5.88977e-09 -2.43661e-09 -2.80065e-12 1.41177e-08 -7.18836e-11 3.13944e-11)
(2.38131e-09 -2.17886e-09 6.03469e-11 1.64621e-08 -2.42154e-10 3.20193e-11)
(6.38725e-09 -8.8091e-10 -7.12873e-12 1.0443e-08 -4.2454e-11 2.32202e-11)
(5.9232e-09 -2.44771e-09 1.28973e-11 1.41705e-08 -5.46379e-11 3.31893e-11)
(1.95747e-09 -2.30776e-09 3.15331e-11 1.57063e-08 -2.19192e-10 1.64686e-11)
(5.53877e-09 -1.29808e-10 -3.06712e-11 7.00443e-09 4.21518e-12 2.52632e-11)
(5.41186e-09 -2.46195e-09 -1.9427e-11 1.34739e-08 -2.86812e-11 2.08915e-11)
(5.77556e-09 -1.01397e-09 -3.57099e-11 9.84659e-09 -1.80021e-11 1.16923e-11)
(1.99634e-09 -2.29193e-09 -1.02824e-10 1.57583e-08 6.73106e-12 -8.04536e-12)
(5.73305e-09 -1.01134e-09 4.82899e-12 9.82224e-09 -8.28359e-11 2.26601e-11)
(5.36588e-09 -2.46114e-09 -3.88588e-11 1.34181e-08 -4.69673e-11 2.61333e-11)
(1.92113e-09 -2.31722e-09 -1.12961e-10 1.56186e-08 6.30994e-12 1.22727e-12)
(5.57723e-09 -7.00549e-11 -3.03525e-11 7.03501e-09 2.07474e-11 4.20977e-11)
(5.60888e-09 -1.03992e-09 -5.84109e-12 9.70568e-09 -7.23846e-11 4.12021e-11)
(5.26456e-09 -2.467e-09 -5.05188e-11 1.32739e-08 -4.01422e-11 4.84564e-11)
(1.87601e-09 -2.3357e-09 2.14403e-11 1.55579e-08 -2.14888e-10 3.43358e-11)
(5.66229e-09 -1.04405e-09 -4.67176e-11 9.73627e-09 -1.12616e-11 2.21417e-11)
(5.31619e-09 -2.46828e-09 -2.99041e-11 1.3339e-08 -2.5863e-11 3.74347e-11)
(5.57482e-10 -2.69394e-09 -4.14922e-10 1.40863e-08 5.71768e-10 8.58676e-10)
(4.119e-09 -3.90193e-10 -6.16396e-10 5.56907e-09 5.94431e-10 8.2518e-10)
(3.97375e-09 -2.58583e-09 -5.16696e-10 1.18052e-08 4.90134e-10 9.43709e-10)
(4.0627e-09 -1.44954e-09 -4.5345e-10 8.59391e-09 5.80755e-10 5.70454e-10)
(7.1394e-10 -2.68121e-09 -5.15657e-10 1.41443e-08 6.26083e-10 7.35256e-10)
(3.91146e-09 -1.45332e-09 -4.60579e-10 8.58327e-09 6.3596e-10 6.31782e-10)
(3.84085e-09 -2.58301e-09 -6.26641e-10 1.17067e-08 6.02909e-10 1.09885e-09)
(4.16683e-10 -2.66522e-09 -6.41885e-10 1.39892e-08 9.78592e-10 9.63492e-10)
(4.20914e-09 -2.92353e-10 -6.60546e-10 5.65164e-09 6.59975e-10 8.84217e-10)
(3.55047e-09 -1.44199e-09 -5.83207e-10 8.60505e-09 9.43789e-10 7.15407e-10)
(3.60354e-09 -2.51361e-09 -8.12189e-10 1.15701e-08 9.51417e-10 1.43841e-09)
(2.53068e-10 -2.5976e-09 -5.27562e-10 1.39704e-08 9.72794e-10 1.07492e-09)
(3.71996e-09 -1.47838e-09 -5.88872e-10 8.53863e-09 8.59952e-10 6.76145e-10)
(3.71558e-09 -2.5713e-09 -7.06992e-10 1.16082e-08 7.85374e-10 1.26936e-09)
(2.73279e-09 -2.15368e-09 4.60096e-11 1.71308e-08 -2.95865e-10 4.5367e-11)
(6.5218e-09 -1.09572e-10 2.02357e-11 8.0643e-09 -4.53647e-11 -2.22896e-12)
(6.33185e-09 -2.47555e-09 -6.9117e-12 1.4805e-08 -9.73104e-11 2.29644e-11)
(6.83954e-09 -8.37958e-10 2.83345e-11 1.09531e-08 -1.59107e-10 4.90999e-11)
(2.69394e-09 -2.14712e-09 -4.837e-11 1.70238e-08 -7.59027e-11 2.45726e-11)
(6.57653e-09 -3.35365e-11 3.31135e-11 8.09441e-09 -2.46098e-11 1.62386e-11)
(6.24284e-09 -2.42867e-09 3.79216e-11 1.45462e-08 -1.28141e-10 5.03782e-11)
(6.74985e-09 -7.92714e-10 6.42211e-11 1.08222e-08 -1.53097e-10 4.52547e-11)
(6.27753e-09 -2.46815e-09 4.67705e-11 1.46705e-08 -1.09269e-10 4.02342e-11)
(6.77915e-09 -8.46739e-10 2.77471e-11 1.08506e-08 -7.59728e-11 3.63933e-11)
(2.67129e-09 -2.12389e-09 9.33629e-11 1.69408e-08 -3.16132e-10 5.76723e-11)
(7.84007e-09 -1.42107e-09 1.96649e-10 1.37942e-08 -1.07153e-10 4.46153e-11)
(1.02549e-08 -1.67371e-09 -1.63257e-11 2.12707e-08 -1.1337e-10 2.85805e-11)
(8.84332e-09 -2.19251e-09 2.15141e-10 1.597e-08 -1.46538e-10 5.66128e-11)
(8.92548e-09 -2.21597e-09 -1.98997e-10 1.62015e-08 -6.99699e-11 1.45278e-11)
(1.03419e-08 -1.6703e-09 -1.68602e-11 2.1414e-08 -6.06521e-11 1.77894e-11)
(8.95857e-09 -2.21211e-09 1.99826e-10 1.62843e-08 -1.38512e-10 1.60615e-11)
(7.72887e-09 -1.38533e-09 2.03769e-10 1.35482e-08 -1.01312e-10 3.82053e-11)
(7.81052e-09 -1.41195e-09 -2.20768e-10 1.3707e-08 -1.69561e-12 2.47609e-11)
(8.32804e-09 1.66205e-09 -3.01419e-11 7.78711e-09 -1.42346e-10 1.41715e-11)
(7.92079e-09 2.44163e-09 8.49567e-11 7.47698e-09 -1.94349e-10 1.55297e-11)
(3.9497e-09 4.72644e-09 -7.35439e-11 7.86665e-09 -1.89127e-10 1.01072e-11)
(7.9021e-09 2.41595e-09 -7.18612e-12 7.51619e-09 -6.02109e-11 2.33887e-11)
(8.20537e-09 1.67865e-09 -1.70652e-11 7.70557e-09 -1.34913e-10 1.59254e-11)
(8.27573e-09 1.63613e-09 1.05968e-10 7.75218e-09 -6.49258e-11 7.66577e-12)
(4.00496e-09 4.78018e-09 9.59326e-11 7.91729e-09 -2.32896e-10 1.54849e-11)
(8.0503e-09 2.4761e-09 8.20856e-11 7.58834e-09 -2.05957e-10 1.20278e-11)
(7.57905e-09 1.48391e-09 -4.3964e-11 7.2103e-09 -9.04788e-11 -2.26418e-12)
(7.64095e-09 1.48093e-09 6.53435e-11 7.25185e-09 -3.21464e-11 -4.54952e-12)
(7.44577e-09 2.27435e-09 -2.3056e-11 7.08473e-09 -1.89811e-11 1.25695e-11)
(3.65913e-09 4.21463e-09 8.63758e-11 7.41608e-09 -1.37522e-10 5.75198e-12)
(7.44766e-09 2.27822e-09 6.83958e-11 7.06206e-09 -1.41112e-10 7.59419e-12)
(7.72843e-09 1.52174e-09 7.17388e-11 7.32591e-09 -3.76735e-11 2.60929e-14)
(7.67741e-09 1.50478e-09 -4.41795e-11 7.27897e-09 -9.82933e-11 2.09706e-13)
(7.37925e-09 2.25434e-09 5.81703e-11 6.9906e-09 -1.33842e-10 6.82602e-13)
(3.62183e-09 4.17033e-09 -7.9402e-11 7.38497e-09 -1.08615e-10 3.50929e-12)
(7.35638e-09 2.2378e-09 -3.5789e-11 7.01794e-09 -1.34131e-11 1.28264e-11)
(7.20735e-09 -1.39512e-09 1.83615e-10 1.29696e-08 -6.14915e-11 1.43078e-11)
(7.26879e-09 -1.3864e-09 -2.21382e-10 1.2991e-08 4.95874e-11 1.30099e-11)
(8.43595e-09 -2.18239e-09 -2.07555e-10 1.55204e-08 1.20949e-11 2.06203e-11)
(9.70056e-09 -1.6525e-09 -2.59295e-11 2.04962e-08 -3.28144e-11 8.25337e-12)
(8.37504e-09 -2.17342e-09 1.82925e-10 1.54699e-08 -6.33978e-11 2.2661e-11)
(7.34377e-09 -1.38708e-09 -2.17599e-10 1.30775e-08 4.07041e-11 1.62896e-11)
(7.28264e-09 -1.38705e-09 1.88446e-10 1.30491e-08 -6.20066e-11 1.73149e-11)
(8.29898e-09 -2.17984e-09 1.77216e-10 1.53961e-08 -6.25238e-11 1.37815e-11)
(9.66445e-09 -1.65192e-09 -2.79071e-11 2.045e-08 -1.66179e-11 7.16302e-12)
(8.35685e-09 -2.17657e-09 -2.15915e-10 1.54298e-08 3.18258e-11 1.47862e-11)
(2.21022e-09 -2.22764e-09 4.97989e-11 1.61676e-08 -2.21048e-10 9.80797e-12)
(5.71398e-09 -2.44849e-09 -1.77514e-12 1.38919e-08 -3.36663e-11 1.53517e-11)
(5.88634e-09 -9.32109e-11 -5.90464e-12 7.36842e-09 -1.75256e-11 1.30655e-12)
(6.13889e-09 -9.2758e-10 -1.85997e-11 1.02007e-08 -2.81355e-11 1.02273e-11)
(2.23901e-09 -2.21613e-09 -8.51506e-11 1.62037e-08 1.17573e-11 -2.83397e-12)
(5.68041e-09 -2.44801e-09 -1.73061e-11 1.38536e-08 -5.56997e-11 1.1593e-11)
(6.10961e-09 -9.24661e-10 2.08194e-11 1.01844e-08 -9.83147e-11 1.21993e-11)
(2.18492e-09 -2.23294e-09 -8.67258e-11 1.61042e-08 8.6008e-12 -9.48683e-12)
(5.91801e-09 -4.67559e-11 -2.37338e-12 7.39355e-09 -1.64904e-12 9.7432e-12)
(5.6116e-09 -2.44814e-09 -1.98426e-11 1.37531e-08 -5.46868e-11 1.01768e-11)
(6.02468e-09 -9.4048e-10 1.69558e-11 1.01017e-08 -9.50206e-11 1.16047e-11)
(5.64577e-09 -2.45202e-09 -3.03468e-12 1.37968e-08 -3.66774e-11 1.14577e-11)
(6.06063e-09 -9.46965e-10 -2.25817e-11 1.01217e-08 -2.62899e-11 4.36989e-12)
(2.1547e-09 -2.24313e-09 4.74868e-11 1.6063e-08 -2.21006e-10 8.21306e-12)
(7.19409e-09 -1.39513e-09 -2.25276e-10 1.29151e-08 5.01547e-11 8.73572e-12)
(7.13568e-09 -1.39719e-09 1.80499e-10 1.28813e-08 -6.22925e-11 1.17448e-11)
(9.52114e-09 -1.65199e-09 -3.4323e-11 2.02585e-08 -3.04917e-11 -1.34844e-12)
(8.14768e-09 -2.17637e-09 1.73205e-10 1.52007e-08 -6.87487e-11 9.65022e-12)
(8.20696e-09 -2.18011e-09 -2.20441e-10 1.52616e-08 1.95347e-11 3.60438e-12)
(8.28211e-09 -2.18315e-09 -2.19144e-10 1.53579e-08 2.85556e-11 6.66688e-12)
(9.56013e-09 -1.65168e-09 -3.36403e-11 2.03188e-08 -3.65445e-11 -5.65488e-13)
(8.22501e-09 -2.1785e-09 1.76806e-10 1.53044e-08 -7.10127e-11 1.06594e-11)
(7.06108e-09 -1.39607e-09 1.76231e-10 1.27832e-08 -6.01329e-11 9.58575e-12)
(7.1219e-09 -1.39542e-09 -2.29359e-10 1.28224e-08 4.66213e-11 5.20591e-12)
(7.54126e-09 1.45897e-09 6.35215e-11 7.18446e-09 -2.68855e-11 -6.96096e-12)
(7.49389e-09 1.44351e-09 -4.44297e-11 7.14198e-09 -8.6859e-11 -8.33262e-12)
(7.21869e-09 2.1885e-09 5.60838e-11 6.85735e-09 -1.24396e-10 -3.78754e-12)
(3.52109e-09 3.98173e-09 -7.94098e-11 7.26223e-09 -1.00011e-10 4.53019e-13)
(7.19831e-09 2.17271e-09 -3.86752e-11 6.88456e-09 -5.969e-12 6.52493e-12)
(7.39006e-09 1.42295e-09 -4.53666e-11 7.07474e-09 -8.29901e-11 -6.82773e-12)
(7.45476e-09 1.41918e-09 6.06459e-11 7.11604e-09 -2.31778e-11 -1.23395e-11)
(7.287e-09 2.21194e-09 -2.81291e-11 6.94828e-09 -8.31298e-12 6.22418e-12)
(3.55894e-09 4.02875e-09 8.35572e-11 7.29055e-09 -1.24852e-10 2.97634e-12)
(7.29044e-09 2.21464e-09 6.48699e-11 6.92799e-09 -1.28441e-10 5.1308e-13)
(6.55827e-09 1.12988e-09 -8.62194e-11 6.5168e-09 8.45414e-12 8.87419e-11)
(6.67594e-09 1.14868e-09 1.13413e-11 6.59163e-09 3.23531e-11 5.19164e-11)
(6.66461e-09 1.94061e-09 -4.99007e-11 6.47683e-09 2.92803e-11 3.44805e-11)
(3.15514e-09 3.24709e-09 6.80519e-11 6.87822e-09 -8.19528e-11 1.56889e-11)
(6.67087e-09 1.94471e-09 4.1801e-11 6.44485e-09 -6.70821e-11 3.49017e-11)
(6.84116e-09 1.21936e-09 2.64684e-11 6.70446e-09 9.24745e-12 2.48882e-11)
(6.74416e-09 1.19101e-09 -6.99735e-11 6.63516e-09 -2.84925e-11 4.97383e-11)
(6.52745e-09 1.87554e-09 2.46158e-11 6.33521e-09 -3.01139e-11 5.81992e-11)
(3.08791e-09 3.15545e-09 -8.35813e-11 6.84103e-09 -5.11031e-11 1.63691e-11)
(6.50526e-09 1.86198e-09 -6.70401e-11 6.37297e-09 5.45059e-11 5.93011e-11)
(6.39391e-09 -1.41152e-09 7.91041e-11 1.19514e-08 -1.20425e-11 1.86076e-10)
(6.52043e-09 -1.40323e-09 -2.97082e-10 1.20412e-08 7.79478e-11 1.20913e-10)
(7.72596e-09 -2.17919e-09 -2.59999e-10 1.46312e-08 3.39272e-11 6.37903e-11)
(8.95998e-09 -1.65928e-09 -8.55193e-11 1.94576e-08 -3.56042e-11 9.47e-11)
(7.62055e-09 -2.17325e-09 1.14573e-10 1.45234e-08 -5.02176e-11 1.12673e-10)
(6.65732e-09 -1.40062e-09 -2.72844e-10 1.22183e-08 6.85218e-11 6.95427e-11)
(6.54875e-09 -1.40581e-09 1.12206e-10 1.21419e-08 -3.08062e-11 1.15453e-10)
(7.46153e-09 -2.17877e-09 8.25795e-11 1.43204e-08 -3.27183e-11 1.85254e-10)
(8.88238e-09 -1.66249e-09 -9.71204e-11 1.93454e-08 -2.43891e-11 1.3042e-10)
(7.584e-09 -2.17965e-09 -2.81762e-10 1.44436e-08 4.00977e-11 1.16823e-10)
(1.53578e-09 -2.46223e-09 -5.52804e-11 1.49786e-08 -1.42704e-10 1.78011e-10)
(4.93123e-09 -2.49904e-09 -9.86858e-11 1.28025e-08 2.37615e-11 1.82181e-10)
(4.96357e-09 -2.05967e-10 -1.38502e-10 6.40124e-09 1.02488e-10 2.28856e-10)
(5.20679e-09 -1.16998e-09 -1.04803e-10 9.30325e-09 5.70908e-11 1.28343e-10)
(1.61334e-09 -2.42906e-09 -1.75976e-10 1.50695e-08 5.22483e-11 1.10812e-10)
(4.84391e-09 -2.50196e-09 -1.38896e-10 1.27001e-08 2.43733e-11 2.28395e-10)
(5.12614e-09 -1.17319e-09 -7.99514e-11 9.25629e-09 1.76652e-11 1.70934e-10)
(1.45778e-09 -2.48487e-09 -2.29973e-10 1.48387e-08 1.08756e-10 1.99511e-10)
(5.01345e-09 -1.17367e-10 -1.51504e-10 6.43902e-09 1.28326e-10 2.71818e-10)
(4.63842e-09 -2.52122e-09 -2.09569e-10 1.24517e-08 8.98476e-11 3.61171e-10)
(4.88437e-09 -1.23702e-09 -1.44969e-10 9.06607e-09 9.62463e-11 2.62095e-10)
(4.74534e-09 -2.51666e-09 -1.56466e-10 1.25652e-08 7.12291e-11 2.92529e-10)
(4.99322e-09 -1.23112e-09 -1.60116e-10 9.12013e-09 1.19634e-10 2.02639e-10)
(1.35494e-09 -2.52491e-09 -1.16954e-10 1.47401e-08 -6.41696e-11 2.8878e-10)