/*--------------------------------*- C++ -*----------------------------------*\
| =========                 |                                                 |
| \\      /  F ield         | OpenFOAM: The Open Source CFD Toolbox           |
|  \\    /   O peration     | Version:  2012                                  |
|   \\  /    A nd           | Website:  www.openfoam.com                      |
|    \\/     M anipulation  |                                                 |
\*---------------------------------------------------------------------------*/
FoamFile
{
    version     2.0;
    format      ascii;
    class       volScalarField;
    location    "0.107/solid";
    object      sigmaHyd;
}
// * * * * * * * * * * * * * * * * * * * * * * * * * * * * * * * * * * * * * //

dimensions      [1 -1 -2 0 0 0 0];


internalField   nonuniform List<scalar> 
3125
(
691.065
647.214
575.516
696.215
654.224
588.095
720.477
676.779
621.867
712.856
671.689
612.568
435.758
540.017
838.166
686.278
448.204
830.125
535.327
385.944
497.402
788.519
639.452
404.806
775.242
489.978
394.412
417.484
727.377
542.892
356.038
701.896
393.995
862.768
872.057
458.923
701.485
544.891
841.412
446.228
850.93
550.009
859.538
851.434
814.784
825.393
417.161
660.563
504.178
792.551
401.725
803.504
510.314
810.894
798.008
749.278
756.942
352.708
595.757
433.959
728.009
345.472
733.445
443.212
747.324
716.901
868.491
568.152
470.979
1017.23
382.298
361.404
356.108
984.885
976.68
437.828
681.616
819.053
526.041
827.544
425.82
530.723
964.638
974.028
348.749
353.909
328.484
320.904
931.346
916.72
389.901
630.951
755.189
472.601
770.467
366.668
481.756
894.809
911.45
307.453
317.271
257.636
230.554
871.926
842.447
380.736
479.956
674.422
312.942
796.407
216.632
890.117
884.801
874.626
456.951
706.753
862.969
561.631
473.925
853.414
555.579
363.678
369.484
988.686
999.68
1010.08
1001.7
379.407
372.282
840.623
848.91
837.66
828.592
414.636
666.328
816.038
521.114
427.995
806.808
515.912
331.569
338.181
935.772
947.76
961.27
951.325
346.444
340.753
985.817
778.723
793.431
963.781
980.635
773.924
760.201
934.659
940.28
958.631
943.447
346.838
603.703
750.227
462.665
371.411
736.566
452.631
267.886
283.714
869.924
872.24
889.415
875.065
302.395
289.588
935.156
898.238
471.411
688.352
849.49
433.451
319.449
522.594
308.205
303.775
543.226
604.459
443.049
640.482
535.201
536.812
642.808
602.763
608.011
441.162
542.257
648.156
609.794
540.732
645.596
554.662
397.609
587.294
482.58
485.073
591.48
551.734
560.09
394.217
493.461
599.93
562.736
491.244
596.087
477.174
386.995
540.605
396.222
400.344
544.71
468.571
487.496
367.444
410.792
540.923
490.679
408.261
543.696
619.031
450.735
660.249
553.605
620.986
551.87
657.492
615.242
452.942
546.153
651.262
613.451
547.738
654.123
574.608
408.475
614.466
508.1
576.763
506.283
611.329
570.082
411.266
499.062
604.075
567.719
501.173
607.511
503.831
341.681
543.486
429.88
506.79
426.611
541.009
499.505
349.212
418.305
539.891
497.199
420.379
539.278
647.042
473.976
687.695
579.857
641.625
477.333
677.281
572.562
682.12
574.149
639.267
704.565
1025.51
808.272
817.098
1032.65
820.915
692.747
700.124
524.203
500.932
384.36
501.855
517.623
521.156
387.976
508.647
480.58
483.868
472.65
360.131
471.813
489.267
486.089
467.042
357.835
467.582
656.217
658.867
779.25
981.663
775.698
664.222
661.346
770.538
978.952
773.547
597.596
637.69
430.822
531.369
599.296
635.231
529.953
594.088
432.943
629.682
524.485
632.255
526.067
592.342
653.834
650.934
967.794
759.135
762.846
768.516
971.046
765.051
645.249
648.358
478.36
475.395
457.348
350.473
457.905
469.884
473.15
462.849
352.705
462.116
427.824
432.883
428.218
326.594
427.395
441.041
436.444
419.928
323.223
420.47
602.271
607.182
728.68
926.648
723.341
615.717
611.198
713.933
921.642
719.694
542.502
582.269
376.794
475.747
545.795
577.602
472.984
536.119
381.039
567.167
461.907
572.101
465.27
532.475
597.838
592.461
900.246
693.1
699.49
710.005
905.975
703.665
582.099
587.595
423.732
418.085
401.425
310.607
402.087
406.41
413.296
412.046
314.975
411.306
309.539
314.311
330.857
248.287
321.94
343.884
324.532
294.25
233.805
301.302
591.822
586.268
677.713
871.416
684.198
569.825
583.509
673.788
862.408
684.042
458.192
530.94
360.94
381.076
465.743
534.459
377.074
474.089
625.767
616.75
568.252
391.729
231.52
306.616
297.078
436.99
487.665
588.042
337.606
577.803
565.452
673.056
629.13
655.762
735.832
627.828
583.173
313.101
303.305
198.849
283.166
312.689
284.293
198.384
274.695
627.408
467.276
663.3
558.362
625.209
665.808
560.673
632.097
465.36
672.475
567.819
634.443
669.039
565.897
500.717
497.109
476.943
365.47
477.628
491.465
494.762
483.087
367.944
482.181
676.666
673.442
781.71
992.666
786.159
666.944
670.621
792.306
996.6
788.573
679.244
681.353
804.036
1005.48
799.179
688.303
684.64
794.246
1003.02
796.566
503.494
508.11
495.353
377.718
494.277
515.166
511.152
488.113
374.609
488.942
582.897
422.662
617.882
512.709
580.931
620.719
514.509
586.78
420.407
626.62
520.407
588.657
623.918
518.827
455.429
451.634
434.492
333.724
435.162
444.3
448.645
441.61
336.586
440.783
630.411
626.719
731.904
939.806
736.708
619.314
623.385
744.014
943.906
739.61
633.324
636.708
756.776
957.905
753.006
642.606
639.468
746.619
954.521
750.523
458.062
461.764
452.847
345.115
452.098
467.515
464.203
446.739
342.623
447.322
969.174
975.076
935.05
937.526
953.197
947.745
515.743
361.255
547.271
437.478
512.069
551.394
441.375
521.982
356.196
561.595
453.512
525.834
556.609
449.815
373.527
365.598
348.779
272.93
350.625
352.135
360.271
364.655
279.67
363.455
561.24
560.275
674.928
868.942
671.063
566.121
560.295
672.544
870.08
670.896
563.935
567.612
688.907
884.029
682.808
577.263
571.942
674.794
878.969
679.125
379.182
387.452
390.552
299.09
389.717
400.919
393.21
377.025
293.457
377.806
932.774
920.905
632.889
585.977
687.601
776.061
532.272
440.038
524.824
503.451
503.053
524.286
530.617
684.154
719.729
761.438
835.253
686.01
717.941
758.812
539.058
444.178
510.726
531.718
539.479
511.747
533.143
680.645
753.7
832.594
712.747
714.396
756.006
678.922
481.59
393.258
474.266
452.186
450.869
472.768
479.296
636.467
673.166
711.872
784.272
639.138
670.53
707.912
492.02
398.71
462.912
484.741
492.927
464.457
486.688
446.353
402.183
450.822
406.15
404.429
448.572
437.767
431.495
353.888
395.575
427.896
431.637
399.576
435.375
698.985
866.004
700.699
706.077
869.189
704.398
550.153
454.157
542.916
521.935
550.689
522.895
544.426
691.513
723.425
764.789
844.773
689.615
725.297
767.935
542.963
450.354
514.311
535.407
541.25
513.9
534.91
695.372
856.554
693.729
853.865
688.749
690.254
506.025
412.201
498.74
477.112
506.668
478.406
500.389
646.45
678.067
716.178
796.365
644.053
680.425
719.765
497.432
407.644
468.224
490.041
495.449
467.299
489.024
650.897
726.921
687.013
800.033
684.881
653.09
723.689
435.259
343.982
427.898
403.041
435.977
406.14
432.367
431.728
350.203
399.73
430.952
429.55
396.52
425.406
568.822
475.438
561.162
540.739
560.453
539.743
566.8
591.587
594.615
440.066
443.593
404.2
407.649
415.432
413.516
554.569
557.341
565.597
563.045
528.508
521.17
433.783
499.872
528.894
522.607
500.953
670.356
702.436
821.97
742.616
745.346
704.194
668.557
673.79
750.919
709.325
824.846
675.525
748.406
707.663
521.863
430.203
514.41
492.961
513.822
492.455
520.198
554.745
552.353
543.785
546.569
404.802
402.794
394.11
397.657
353.698
359.416
370.887
367.254
500.829
505.468
518.195
514.535
475.058
467.635
382.275
445.599
476.237
470.092
447.552
462.244
375.613
455.076
432.286
452.969
430.661
459.522
501.238
496.585
480.079
485.771
355.482
350.687
333.773
340.863
340.398
332.95
309.722
307.49
499.601
508.243
467.546
467.359
418.786
439.187
347.447
389.953
430.353
442.047
397.429
466.311
425.424
511.529
456.476
488.614
510.283
401.889
522.664
623.346
569.054
654.018
527.714
612.367
568.234
403.922
352.803
390.965
287.196
421.162
335.56
353.615
491.226
479.165
331.887
285.576
718.99
880.472
716.592
710.078
877.183
711.98
554.975
462.395
547.39
526.248
552.959
546.752
526.13
564.076
469.14
556.55
536.411
564.783
558.266
537.786
426.051
423.602
414.853
418.19
577.534
574.542
565.43
568.155
577.251
581.021
591.505
588.125
425.914
430.158
441.757
439.505
678.963
843.441
680.529
685.393
846.243
683.922
675.4
834.632
673.756
510.51
419.565
503.088
481.453
508.744
502.356
480.789
663.024
698.781
739.442
813.013
664.942
696.93
736.663
517.878
423.649
510.567
489.156
518.377
512.059
490.277
659.193
730.454
691.125
809.925
657.191
693.082
733.379
383.68
380.921
369.626
374.328
532.078
529.144
517.948
521.679
531.894
535.006
543.957
541.367
382.723
386.685
394.79
392.53
441.414
356.07
435.491
410.461
438.624
432.357
408.395
454.548
362.192
447.023
424.316
455.877
450.183
426.652
314.606
308.788
303.808
307.599
462.233
457.364
459.45
461.218
459.956
465.57
480.856
475.213
311.798
319.12
335.926
329.738
418.765
508.52
531.672
572.164
664.377
586.174
462.583
411.371
437.379
433.25
316.333
417.695
494.582
493.671
464.804
374.306
318.743
390.169
450.847
513.531
533.706
438.832
505.287
526.399
534.156
506.226
527.831
537.661
445.524
508.925
530.146
535.971
508.579
529.602
483.906
390.769
454.665
476.582
484.972
456.38
478.748
489.917
400.859
460.602
482.538
487.79
459.502
481.354
442.055
390.016
398.452
441.699
440.927
405.612
452.722
436.895
365.467
401.783
442.814
434.819
397.09
434.309
548.483
455.309
519.738
540.99
546.678
519.325
540.488
544.356
448.855
515.933
537.045
544.808
517.072
538.48
504.304
413.947
475.192
496.901
502.438
474.374
496.047
499.336
405.696
470.36
492.052
500.15
471.748
493.844
433.916
349.483
402.647
429.739
431.5
399.984
425.757
430.496
342.627
396.892
423.878
430.769
400.585
429.535
575.986
480.259
568.787
546.846
573.591
568.139
546.324
570.325
472.741
563.251
541.677
570.979
564.914
543.568
599.459
603.675
727.013
706.157
674.177
675.465
729.93
1114.22
1250.32
1255.86
1108.65
1120.2
1267.34
1125.56
1261.31
1135.74
1272.3
1131.94
1276.42
598.401
595.448
663.349
694.271
711.392
664.696
715.287
722.581
669.847
698.671
668.607
718.946
442.237
447.578
557.867
570.307
513.319
521.737
511.638
553.405
573.378
425.83
530.777
528.45
429.14
357.908
228.157
356.256
228.982
423.849
523.472
524.812
422.066
359.876
232.557
363.212
230.59
444.863
442.707
551.665
507.107
514.88
563.367
505.109
565.632
548.899
553.32
568.352
508.759
516.24
507.632
553.622
567.975
432.11
531.323
533.378
430.475
233.37
364.018
410.085
408.148
510.545
469.897
477.893
522.069
468.359
524.169
507.868
512.393
526.747
472.439
479.288
470.513
512.603
526.207
395.15
491.048
491.888
394.724
333.625
215.317
335.386
214.203
395.64
495.289
493.526
397.402
333.053
213.979
332.981
213.823
409.778
413.387
518.572
477.839
484.805
532.817
476.042
532.285
519.122
516.667
528.281
475.435
483.313
473.898
513.571
530.485
390.929
490.424
488.281
393.992
328.032
210.819
327.041
211.071
389.329
483.908
484.97
387.874
329.78
213.653
332.566
212.171
560.284
557.59
626.488
656.776
676.04
626.923
677.852
680.527
629.194
659.088
629.473
678.621
1077.93
1219.2
1079.59
1217.27
912.493
911.373
778.59
871.513
910.559
869.793
913.989
910.729
866.838
776.578
907.239
908.653
868.292
909.413
1075.9
1213.52
1074.07
1215.31
559.918
562.89
634.639
664.314
685.651
634.784
683.645
680.846
631.804
661.844
632.154
682.726
906.268
902.302
771.376
862.375
903.572
863.756
905.083
1071.43
1209.12
1069.99
1210.37
907.419
866.067
773.179
905.481
905.071
864.772
908.313
1072.37
1212.22
1073.08
1211.45
527.124
435.11
519.677
498.276
525.498
519.142
497.775
523.289
428.785
515.957
494.624
523.75
517.406
495.712
624.035
675.395
653.915
624.158
673.75
549.263
551.997
670.869
651.619
621.12
621.707
672.691
1058.84
1195.46
1197.23
1056.73
894.418
890.22
760.12
850.02
891.766
851.833
892.778
896.17
855.225
894.483
762.208
893.733
897.642
853.436
1060.39
1200.6
1061.87
1199.12
902.651
900.529
861.265
767.979
903.806
899.939
859.886
1067.67
1207.78
1068.81
1206.45
900.981
856.762
766.09
896.598
898.132
858.4
899.395
1065.81
1202.56
1063.63
1204.62
549.387
546.843
615.485
645.883
664.917
616.013
666.918
670.003
618.562
648.379
618.602
667.938
399.195
402.831
506.492
466.902
520.61
474.033
507.045
465.224
520.107
504.808
516.276
464.774
472.614
463.031
501.748
518.355
380.748
478.593
476.394
383.839
319.456
206.378
318.465
206.622
379.136
471.975
473.082
377.679
321.198
209.218
324.021
207.675
399.932
397.96
498.985
459.354
467.337
510.042
457.723
512.176
496.205
500.796
514.789
461.696
468.736
459.963
501.047
514.262
384.981
479.158
479.952
384.587
325.052
210.532
326.713
209.544
385.455
483.454
387.269
481.63
324.485
209.561
324.519
209.304
363.554
359.45
453.134
418.208
426.226
461.397
416.093
464.235
448.885
455.803
469.174
421.415
428.5
420.155
457.707
467.642
348.07
434.194
436.017
346.617
295.067
196.295
297.347
195.105
349.17
442.013
439.257
351.906
293.726
194.701
292.978
194.702
362.069
367.406
465.048
429.655
436.74
478.533
428.297
477.192
466.864
462.57
471.559
426.711
434.597
424.67
458.38
474.262
341.618
433.463
430.25
345.535
286.841
191.85
285.366
192.077
339.595
423.212
425.441
337.295
289.162
194.48
292.342
193.035
510.074
505.843
572.449
603.001
620.663
573.062
623.972
628.756
577.373
607.044
577.294
625.583
1021
1160.4
1023.38
1158.41
859.488
858.558
727.752
819.09
857.394
816.717
861.459
1018.31
1152.59
1015.03
1155.17
509.844
514.057
585.953
615.639
637.266
585.907
634.568
630.046
581.424
612.021
582.125
632.964
1007.64
1141.59
1004.45
1143.89
1010.01
1149.22
1012.59
1147.19
472.446
385.011
465.11
442.824
469.926
463.386
441.353
465.129
372.511
457.65
435.446
466.468
460.407
437.548
568.021
619.401
597.735
567.971
616.073
490.894
496.131
610.646
593.308
562.578
563.305
614.217
983.691
1116.9
1119.2
980.322
986.327
1125.2
989.305
1122.96
999.276
1138.21
1002.13
1136
996.167
1129.15
992.301
1132.1
491.27
485.95
552.106
582.815
600.064
552.577
603.772
609.134
557.644
587.487
557.611
605.427
344.428
350.96
445.436
412.225
458.764
419.472
448.123
411.199
456.844
442.469
449.87
408.767
416.795
406.489
437.422
453.068
322.177
411.27
406.849
327.477
270.417
186.054
267.701
186.931
319.243
396.495
400.211
315.166
273.98
189.89
277.995
188.1
346.396
340.858
430.109
397.613
405.793
435.832
395.35
439.505
424.651
433.512
446.665
401.781
408.863
400.841
436.711
444.214
331.521
412.327
415.004
329.086
282.433
191.836
284.976
190.73
333.034
422.802
336.361
419.417
280.505
190.125
279.114
190.333
322.995
323.932
279.914
331.924
309.182
277.684
327.912
264.362
305.072
280.005
286.282
329.708
310.03
330.962
294.044
269.802
233.279
283.445
299.028
239.672
194.729
143.529
196.587
136.467
238.362
318.99
310.491
237.349
189.345
121.691
192.675
128.747
309.451
312.27
346.162
343.14
339.058
356.229
341.948
344.705
358.152
328.719
306.895
336.94
329.1
335.051
310.493
327.271
247.16
269.895
250.211
236.691
197.182
113.083
211.076
108.857
242.036
249.907
241.792
254.768
199.799
117.081
191.839
113.574
492.405
490.815
563.256
590.318
625.969
562.694
630.575
621.933
554.5
593.074
564.229
626.818
975.332
1092.54
969.719
1094.31
977.46
1091.51
979.259
1094.16
476.837
476.344
536.437
573.993
597.424
542.466
603.257
615.208
552.599
578.678
545.077
608.505
960.019
1040.34
949.135
1059.99
971.856
1085.04
976.331
1074.54
430.62
381.523
470.355
413.43
440.891
435.53
382.993
533.183
505.709
560.554
639.081
648.199
639.285
595.614
628.17
611.872
537.157
598.87
580.069
363.143
377.191
352.659
264.853
257.197
281.818
324.609
293.992
316.094
339.992
278.972
321.695
499.566
404.652
462.732
518.617
460.197
498.221
563.175
558.349
536.833
367.544
385.871
423.839
552.277
616.946
572.351
540.101
595.502
476.498
470.812
546.915
559.023
537.481
533.172
566.339
666.28
661.82
653.903
691.053
640.718
662.744
739.719
679.271
881.421
1007.57
921.939
958.436
820.976
820.692
743.991
890.13
564.887
586.255
578.405
282.122
332.86
298.922
314.1
282.619
308.939
324.858
338.223
299.789
357.664
275.433
345.453
312.449
295.029
253.192
286.903
276.745
213.079
220.157
157.183
201.29
281.506
259.204
243.241
129.706
163.243
400.653
316.531
354.124
316.37
216.093
199.186
252.785
192.238
195.82
118.331
200.739
111.402
241.369
255.249
247.637
256.314
174.985
90.0181
146.133
95.8318
1257.76
1262.84
1273.82
1268.59
1279.27
1228.52
1230.9
1235.54
1233.34
1243.38
1242.26
1238.1
1240.51
1253.28
1249.7
1244.9
1246.99
1243.96
1244.67
1244.62
1244.45
557.003
461.588
549.682
529.472
557.807
551.351
530.168
562.363
470.925
554.574
534.14
560.262
553.719
533.876
419.368
423.249
530.736
489.099
495.986
545.685
487.163
544.943
531.61
528.631
540.567
486.314
494.295
484.675
525.357
542.868
401.19
502.23
500.077
404.269
336.809
215.774
335.709
216.147
399.54
495.724
398.086
496.789
338.546
218.943
341.44
217.327
420.279
418.443
522.737
480.772
488.78
534.318
479.23
520.045
536.496
524.58
539.01
483.114
490.146
481.361
524.702
538.558
405.744
502.831
503.853
405.101
342.998
220.717
344.748
219.691
406.426
508.027
505.959
408.415
342.156
219.369
341.961
219.288
571.101
574.077
646.838
676.804
698.557
647.099
696.901
693.865
643.592
674.323
644.32
695.811
1084.2
1221.43
1081.61
1223.9
918.011
913.724
782.913
873.154
915.559
915.94
875.314
920.364
879.874
785.235
919.038
917.936
877.592
922.453
1086.5
1228.65
1226.31
1088.61
571.035
568.468
637.317
667.709
686.559
637.929
688.755
692.405
640.79
670.406
640.639
690.134
1095.47
1236.39
1235.32
1096.15
1093.66
1231.09
1233.64
1091.2
585.125
581.159
649.814
679.514
698.851
649.907
700.803
703.114
652.312
682.257
653.224
700.704
1100.92
1245.89
1104.23
1242.26
1097.96
1237.74
1239.53
1096.29
584.123
588.301
659.419
709.11
688.296
659.425
705.665
701.949
655.846
684.611
655.669
704.838
1097.16
1237
1237.48
1096.71
1096.97
1237.18
1237.5
1096.53
434.385
431.565
536.104
492.733
500.961
547.548
491.588
532.805
550.199
538.84
553.958
496.821
502.991
494.39
539.625
552.912
418.449
517.913
519.243
417.554
353.768
227.377
355.958
225.905
419.247
523.26
421.19
521.378
352.9
224.973
352.398
225.122
434.956
439.244
547.56
503.637
561.716
510.352
548.258
501.965
561.079
545.073
556.089
500.606
508.476
499.388
541.47
558.81
413.052
516.975
514.443
416.544
346.49
221.068
345.237
221.443
411.131
508.711
409.211
510.292
348.568
224.409
351.735
222.695
1226.26
1224.33
1220.48
1222.36
1216.1
1217.39
1219.26
1218.38
1202.51
1204.28
1207.58
1206.15
1214.78
1213.46
1209.58
1211.59
1170.49
1172.45
1176.66
1174.98
1185.77
1184.12
1179.28
1181.53
1200.51
1198.88
1194.68
1196.65
1187.88
1189.53
1192.67
1191.38
512.103
417.987
504.827
483.319
512.7
506.373
484.466
516.377
425.11
508.93
487.382
514.674
508.295
486.814
376.541
381.03
481.107
443.992
451.103
494.816
442.47
493.901
482.266
479.039
489.183
441.47
449.333
439.578
475.425
491.567
356.814
451.338
448.55
360.431
299.232
196.597
297.868
196.945
354.879
442.563
352.857
444.339
301.366
199.565
304.447
197.997
377.643
374.531
471.256
434.346
442.349
480.714
432.488
467.661
483.263
473.569
487.195
437.233
444.24
435.708
474.693
486.108
362.378
452.031
453.359
361.407
306.569
201.382
308.586
200.238
363.235
458.115
455.834
365.523
305.495
199.87
305.075
199.821
525.277
528.717
600.608
630.381
651.896
600.623
649.772
646.069
596.904
627.446
597.555
648.431
1028.09
1163.2
1025.41
1165.22
865.818
861.521
733.108
820.98
863.364
863.759
823.371
868.097
827.656
735.886
866.972
865.946
825.377
869.924
1030.05
1169.49
1167.81
1032.07
525.453
522.057
589.535
620.026
638.362
590.135
641.043
645.034
593.614
623.338
593.57
642.386
876.256
874.75
743.265
835.403
873.851
833.516
877.836
1039.14
1178.64
1176.97
1040.92
874.057
829.477
740.805
869.7
871.482
831.603
872.107
1036.85
1172.11
1174.43
1034.12
538.217
535.341
603.541
633.998
652.818
604.096
655.019
658.315
606.911
636.73
606.968
656.133
1053.5
1193.42
1055.09
1191.81
889.677
888.054
848.615
756.145
891.084
887.292
846.956
1051.48
1187.62
1189.62
1049.21
887.802
843.603
754.013
883.694
885.251
845.348
886.186
538.015
541.039
612.865
664.108
642.664
612.942
662.196
659.11
609.718
640.122
610.26
661.086
881.318
877.123
747.66
836.935
878.693
879.654
838.847
1044.68
1180.76
1182.44
1042.55
1046.19
1185.6
1184.34
1047.62
883.088
842.24
749.921
881.484
880.75
840.426
884.506
389.38
386.979
486.074
447.741
455.748
496.58
446.026
483.01
498.835
488.067
501.948
450.319
457.309
448.619
488.669
501.191
374.429
466.614
467.616
373.812
316.349
206.064
318.119
205.025
375.034
471.526
377.008
469.541
315.618
204.815
315.407
204.705
388.625
392.543
494.556
456.131
508.46
463.237
495.334
454.479
507.792
492.684
503.615
453.799
461.674
452.053
489.404
505.822
369.666
465.986
463.559
372.955
310.039
201.644
308.957
201.877
367.935
458.586
366.296
459.92
311.931
204.456
314.843
202.925
1167.67
1165.74
1159.89
1162.47
1148.79
1151.14
1156.55
1154.42
1124.29
1126.73
1132.66
1130.29
1145.45
1143.32
1136.62
1139.52
1096.52
1096.21
1096.19
1094.95
1100.9
1100.29
1097.17
1098.91
1121
1118.89
1112.35
1115.06
1102.55
1103.82
1108.5
1106.62
443.991
351.827
436.426
412.983
445.155
440.12
415.603
451.563
365.647
444.71
421.1
448.708
442.273
419.319
304.458
310.638
389.846
364.408
369.706
398.306
364.114
394.721
394.312
386.315
385.232
361.05
366.415
358.288
380.772
389.231
247.408
337.14
331.223
255.267
202.348
147.267
198.835
151.758
242.491
319.092
240.192
323.407
208.075
161.921
215.744
156.479
308.7
304.544
370.587
351.402
352.944
364.269
348.367
362.756
370.149
375.063
380.817
353.833
356.767
353.824
379.742
376.836
265.606
339.075
343.551
259.208
229.855
174.021
235.867
170.64
269.692
356.941
350.997
277.13
224.734
164.797
219.194
168.14
455.248
459.495
529.61
561.803
583.56
530.902
582.18
582.043
529.163
560.398
528.136
582.323
961.425
1090.01
965.713
1088.87
960.177
1088.65
1087.86
958.288
459.082
456.119
534.646
564.058
591.932
530.786
587.939
583.208
527.67
561.759
530.459
584.912
960.428
1093.18
1092.73
960.569
959.602
1089.6
1091.25
959.127
470.266
464.559
533.282
564.268
583.325
532.929
585.625
589.267
536.776
567.742
537.304
586.266
975.554
1113.28
978.175
1111.25
972.706
1104.62
1107.4
969.303
469.229
475.205
547.023
598.938
577.261
547.193
595.397
590.357
541.681
572.758
542.11
593.777
962.803
1095.04
1096.16
961.142
964.464
1100.84
1099.08
966.665
324.95
318.547
401.174
372.443
379.759
402.54
370.058
395.334
406.693
404.865
415.691
376.914
383.222
376.369
409.205
412.307
304.852
379.295
383.546
300.166
262.306
185.768
266.266
183.944
307.7
395.325
313.181
390.251
258.553
181.999
255.55
183.042
322.512
330.076
419.624
389.744
432.054
396.606
423.734
389.001
429
415.924
419.82
385.28
393.159
382.916
409.941
423.808
290.142
377.479
371.655
297.438
242.785
175.087
238.458
177.002
286.141
358.652
280.149
363.493
247.762
181.36
253.304
178.718
1099.91
1099.92
1096.19
1101.8
1043.62
1067.75
1092.88
1077.72
660.608
606.547
670.726
713.411
1014.95
960.062
807.408
898.416
631.088
698.813
779.859
662.344
665.217
703.163
628.163
569.723
606.928
655.073
724.101
572.53
602.567
656.532
556.901
645.452
716.432
581.117
588.665
653.118
549.433
695.193
774.116
730.884
848.063
729.057
697.136
771.426
655.992
818.436
658.038
664.241
821.988
662.392
651.199
806.742
648.93
802.474
641.281
643.737
595.956
751.466
597.185
603.114
753.671
601.325
579.745
613.232
654.059
729.139
578.643
615.416
653.094
583.984
656.298
621.638
730.627
619.087
585.981
654.31
589.234
742.428
586.644
732.753
578.189
573.251
718.291
749.392
874.537
791.385
797.22
752.181
715.542
723.502
879.9
803.059
757.579
612.906
643.948
760.377
678.477
683.402
647.352
609.516
619.103
693.664
656.599
765.421
622.312
688.909
653.372
724.128
895.651
726.742
900.617
732.179
707.998
744.147
785.764
858.779
710.611
741.627
782.059
703.342
776.855
734.93
855.763
701.19
736.911
778.949
668.262
831.599
669.993
624.241
783.719
627.062
635.664
788.562
632.954
618.394
768.857
615.641
607.783
764.426
610.266
599.844
638.003
673.041
745.151
603.199
634.583
668.285
593.961
659.657
626.077
740.726
591.053
629.247
663.405
946.076
940.811
810.559
898.568
944.227
903.264
941.336
951.757
914.071
951.971
814.762
949.147
956.928
909.093
920.171
956.567
923.237
962.547
856.776
811.762
724.673
852.408
854.452
814.398
854.429
846.736
842.521
715.313
801.467
844.604
804.364
844.341
849.525
809.573
718.731
849.05
847.781
806.78
851.741
824.526
820.583
694.522
778.884
822.709
781.987
822.118
827.665
787.807
827.736
698.371
826.335
830.081
784.625
839.257
838.918
799.218
708.934
841.576
837.541
796.318
835.999
790.423
705.248
831.709
833.983
793.554
833.306
821.012
802.139
679.69
773.123
802.926
779.447
816.201
825.265
789.293
683.187
804.191
806.144
783.554
828.206
824.174
782.75
678.756
788.095
793.354
792.689
817.158
828.671
791.796
684.233
803.507
799.039
794.604
829.592
778.799
764.424
778.197
645.408
801.654
744.521
757.54
741.658
706.557
629.659
691.794
713.246
728.876
710.234
928.337
925.595
791.786
886.619
925.122
885.501
929.181
926.733
882.193
789.83
921.54
923.288
884.047
924.841
934.211
936.474
894.797
802.892
937.142
934.804
891.543
931.619
887.812
799.921
930.556
932.059
889.44
930.462
930.303
927.056
794.875
887.218
927.994
929.904
887.995
930.438
888.477
796.643
928.934
928.965
887.778
930.33
807.277
799.229
673.894
768.211
799.037
811.176
763.497
804.941
759.197
671.67
796.72
797.269
761.37
803.116
803.58
799.375
672.361
760.113
799.271
759.555
803.56
802.816
759.191
671.462
797.144
798.069
758.879
803.07
817.224
816.746
776.669
687.881
819.295
815.526
773.789
814.094
768.362
684.26
809.922
811.971
771.166
811.875
805.434
801.504
675.702
760.731
802.825
804.592
762.19
807.522
766.129
678.388
806.34
805.497
763.825
809.051
)
;

boundaryField
{
    left
    {
        type            zeroGradient;
    }
    bottom
    {
        type            zeroGradient;
    }
    interface
    {
        type            zeroGradient;
    }
    procBoundary5to1
    {
        type            processor;
        value           nonuniform List<scalar> 
55
(
728.367
728.367
728.367
575.769
883.262
575.769
575.769
575.769
575.769
1035.62
390.797
904.137
650.141
691.64
582.883
965.737
959.101
822.953
509.991
364.932
233.721
579.067
479.748
574.497
552.031
604.584
449.485
709.759
679.914
730.731
822.953
1136.97
1277.71
1282.96
561.794
524.798
515.87
577.072
433.618
364.932
537.353
364.932
233.721
1282.96
726.292
806.323
760.07
822.953
959.101
734.659
924.226
965.737
965.737
822.953
959.101
)
;
    }
    procBoundary5to4
    {
        type            processor;
        value           nonuniform List<scalar> 
526
(
685.736
644.134
567.324
690.698
690.698
690.698
685.736
685.736
650.714
650.714
650.714
644.134
644.134
584.348
584.348
584.348
567.324
567.324
714.438
672.04
620.291
714.438
714.438
707.139
707.139
707.139
672.04
672.04
667.207
667.207
667.207
620.291
620.291
611.439
611.439
611.439
681.079
636.83
526.541
695.75
695.75
695.75
1058.25
822.029
1069.28
830.65
1054.38
818.73
681.079
681.079
1045.95
810.955
656.672
656.672
656.672
1004.97
776.535
1016.93
786.187
1000.57
772.686
636.83
636.83
760.968
594.006
594.006
594.006
714.074
721.752
711.852
526.541
526.541
526.541
526.541
688.416
1087.65
1054.38
1045.95
676.619
1033.87
1043.3
1000.57
628.868
722.096
1087.65
849.051
1087.65
1087.65
700.994
700.994
700.994
1080.62
843.792
1071.46
833.452
1058.25
1058.25
1058.25
1069.28
1069.28
1069.28
1080.62
1080.62
1080.62
1071.46
1071.46
1071.46
1054.38
1054.38
1045.95
1045.95
676.619
676.619
1033.87
800.769
1043.3
808.401
1033.87
1033.87
1043.3
1043.3
662.109
662.109
662.109
1030.48
797.776
1020.46
789.371
1004.97
1004.97
1004.97
1016.93
1016.93
1016.93
1030.48
1030.48
1030.48
1020.46
1020.46
1020.46
1000.57
1000.57
990.669
1138.13
1134.87
1135.34
986.275
988.502
1133.16
628.868
628.868
743.017
756.453
1114.38
1110.88
1112.24
965.154
967.327
1110.01
1129.97
1132.92
1128.13
982.918
1130.46
981.805
602.584
602.584
602.584
738.238
725.287
1076.64
1074.78
1072.62
934.892
933.873
1072.8
1085.37
1087.75
1084.25
941.88
942.405
1085.16
1106.11
1109.28
1104.96
961.345
1107.11
960.425
1091.6
1088.27
1088.8
944.978
946.171
1087.32
1075.07
1077.02
1072.86
932.206
934.847
1072.67
1024.83
1002.46
1026.18
891.136
897.528
1008.03
425.309
662.422
921.426
968.174
941.927
855.774
974.39
841.488
300.952
566.54
1095.49
1102.47
1050.96
1048.17
1036.97
1040.24
995.825
990.669
1095.49
1095.49
1095.49
1102.47
1102.47
1062.15
1062.15
1062.15
1062.15
1066.11
1066.11
1066.11
1066.11
1075.7
1075.7
1075.7
1075.7
1072.97
1072.97
1072.97
1072.97
1050.96
1050.96
1050.96
1048.17
1048.17
1048.17
1036.97
1036.97
1036.97
1040.24
1040.24
1040.24
1008.9
1008.9
1008.9
1008.9
1013.01
1013.01
1013.01
1013.01
1026.98
1026.98
1026.98
1026.98
1023.57
1023.57
1023.57
1023.57
995.825
995.825
995.825
990.669
990.669
990.669
1116.68
1120
1115.32
971.775
970.745
1117.66
1127.03
1122.86
1124.45
975.655
978.204
1121.22
1076.41
1079.62
1074.55
934.992
936.24
1076.01
1084.61
1080.63
1081.34
938.496
939.287
1079.21
1103.75
1099.24
1101.1
954.16
956.512
1097.99
1093.21
1096.91
1091.86
949.993
949.527
1094.12
1074.34
1066.02
1069.62
930.21
929.995
1065.19
1044.04
1059.49
1045.2
918.185
917.23
1056.17
636.755
608.49
687.101
687.101
706.015
849.398
759.354
872.552
742.324
787.312
806.172
671.314
669.444
824.872
674.682
676.501
828.058
664.326
666.153
815.911
661.115
813.089
659.457
686.817
689.459
839.631
682.432
680.311
835.93
651.756
650.034
803.216
654.787
656.402
806.016
645.005
646.828
795.019
521.345
377.102
300.952
468.491
464.581
566.54
543.887
569.275
542.674
645.983
636.755
658.571
608.49
620.107
468.491
543.887
1247.67
1242.64
1251.81
1256.62
1260.52
1214.94
1212.36
1216.82
1218.92
1225.51
1226.57
1223.65
1221
1235.36
1238.67
1232.01
1229.9
1228.04
1227.26
1228.7
1228.68
1208.36
1210.28
1206.14
1204.08
1201.06
1199.67
1202.04
1202.79
1188.67
1186.58
1190.02
1191.52
1197.28
1198.59
1195.43
1193.12
1158.22
1155.6
1159.91
1161.9
1168.85
1170.74
1166.64
1163.78
1183.15
1184.96
1181.06
1178.63
1174.29
1172.25
1175.63
1177.06
1151.29
1153.73
1148.71
1145.31
1138.13
1134.87
1140.31
1143.04
1114.38
1110.88
1116.68
1120
1129.97
1132.92
1127.03
1122.86
1076.64
1074.78
1076.41
1079.62
1085.37
1087.75