/*--------------------------------*- C++ -*----------------------------------*\
| =========                 |                                                 |
| \\      /  F ield         | OpenFOAM: The Open Source CFD Toolbox           |
|  \\    /   O peration     | Version:  2012                                  |
|   \\  /    A nd           | Website:  www.openfoam.com                      |
|    \\/     M anipulation  |                                                 |
\*---------------------------------------------------------------------------*/
FoamFile
{
    version     2.0;
    format      ascii;
    class       volVectorField;
    location    "0.107/solid";
    object      sigmaMaxDir;
}
// * * * * * * * * * * * * * * * * * * * * * * * * * * * * * * * * * * * * * //

dimensions      [1 -1 -2 0 0 0 0];


internalField   nonuniform List<vector> 
3125
(
(0.996596 -0.0824324 -0.0011167)
(0.99749 -0.0701185 0.00987322)
(0.991937 -0.0634667 0.109692)
(0.99653 -0.0832166 -0.00167037)
(0.99734 -0.0725432 0.00711903)
(0.995034 -0.0492166 0.0865213)
(0.996285 -0.0858191 -0.00721733)
(0.996861 -0.0791639 0.00148141)
(0.997778 -0.059404 0.0301845)
(0.996307 -0.0856426 -0.00606517)
(0.996962 -0.0778631 0.00224563)
(0.997655 -0.0546112 0.0412494)
(0.000618659 0.00270755 0.999996)
(-0.0142302 0.01287 0.999816)
(0.990333 0.133212 0.0386786)
(0.996676 -0.0814734 -1.77936e-05)
(-0.00139441 0.00160831 0.999998)
(0.990046 0.133364 0.0449741)
(-0.0105974 0.0117047 0.999875)
(0.0180784 -0.00908525 0.999795)
(0.00224024 0.00935524 0.999954)
(0.988353 0.138011 0.0641222)
(0.997639 -0.0672077 0.0141234)
(0.00823221 -0.00480766 0.999955)
(0.987201 0.139834 0.0766827)
(0.0117707 0.00669529 0.999908)
(0.312048 -0.185303 0.93182)
(0.644488 -0.0765917 0.760769)
(0.985098 0.117486 0.125612)
(0.984895 -0.11141 0.132552)
(0.21179 -0.156253 0.964743)
(0.987529 0.0561382 0.147087)
(0.996223 -0.0550397 0.0671526)
(0.998863 0.0439473 0.0184769)
(0.998933 0.0433529 0.0158945)
(-0.0014351 0.00238272 0.999996)
(0.996459 -0.0840534 -0.00190366)
(-0.0149192 0.0134895 0.999798)
(0.989896 0.133014 0.0491197)
(-0.000870665 0.00366653 0.999993)
(0.990528 0.132288 0.0367912)
(-0.0154611 0.0143273 0.999778)
(0.99885 0.0440247 0.0189941)
(0.998883 0.0441536 0.0168458)
(0.998393 0.0476303 0.0307085)
(0.998538 0.04636 0.0278007)
(0.00346573 -0.00173827 0.999992)
(0.997201 -0.0746009 0.00505765)
(-0.00125878 0.0103152 0.999946)
(0.988325 0.137401 0.0658393)
(0.00798822 -0.00227032 0.999966)
(0.989245 0.136015 0.0537902)
(-0.00572893 0.011072 0.999922)
(0.998256 0.0480863 0.0342324)
(0.998023 0.0496856 0.0384916)
(0.995498 0.0384835 0.0866201)
(0.997023 0.0497958 0.0588702)
(0.122468 -0.0817322 0.989101)
(0.996574 -0.0470651 0.0680136)
(0.448237 -0.0720969 0.891003)
(0.985262 0.127038 0.114541)
(0.206233 -0.14454 0.967769)
(0.98568 0.140388 0.0934083)
(0.315634 -0.0555796 0.947252)
(0.994064 0.0307244 0.104369)
(0.98892 -0.0152231 0.147668)
(0.987952 0.132981 0.0791628)
(-0.0287448 0.0199983 0.999387)
(-0.00435087 0.00518986 0.999977)
(0.00248371 0.00562045 0.999981)
(-0.177644 0.131931 0.975211)
(0.00277517 0.0137554 0.999902)
(-0.112134 0.0802604 0.990446)
(0.0026165 0.00210706 0.999994)
(0.00362555 0.00139044 0.999992)
(-4.65011e-05 0.000553175 1)
(0.996766 -0.0803541 0.000836955)
(0.989637 0.134425 0.0504925)
(-0.00918178 0.0112722 0.999894)
(0.990172 0.133612 0.0413073)
(0.00159583 0.00195717 0.999997)
(-0.0112318 0.0116263 0.999869)
(0.00435272 0.00207972 0.999988)
(0.00342336 0.00148711 0.999993)
(-0.100325 0.0712727 0.992399)
(0.00992141 0.00827522 0.999917)
(0.024443 -0.00114581 0.999701)
(-0.0472525 0.0285286 0.998475)
(0.00877081 0.00230413 0.999959)
(0.0136443 0.00241146 0.999904)
(0.0196414 -0.012543 0.999728)
(0.997753 -0.063663 0.0208644)
(0.985985 0.142295 0.0871014)
(0.0628548 -0.0064407 0.998002)
(0.987104 0.140596 0.0765366)
(0.045117 -0.0266418 0.998626)
(0.0284602 0.00206097 0.999593)
(0.027107 0.00149554 0.999631)
(0.0152739 0.00222329 0.999881)
(0.00716301 -0.0149891 0.999862)
(0.0464037 -0.0188226 0.998745)
(0.0988687 -0.0924639 0.990795)
(-0.121141 -0.0664589 0.990408)
(0.298456 -0.00403758 0.954415)
(0.387194 0.0389754 0.921174)
(0.42768 -0.171927 0.887429)
(0.913361 -0.282951 0.292762)
(0.994202 0.0132744 0.106703)
(0.9885 -0.146733 -0.0365718)
(0.241622 0.0909871 0.966095)
(0.00604264 -0.106182 0.994328)
(0.998649 0.044282 0.0271967)
(0.998744 0.0446017 0.0228359)
(0.999003 0.0435209 0.00997683)
(-0.000495039 0.00471887 0.999989)
(0.996375 -0.0850035 -0.00323487)
(0.989769 0.133585 0.0501186)
(-0.0248534 0.0183396 0.999523)
(-0.00452399 0.00345385 0.999984)
(0.990507 0.132414 0.0369191)
(-0.014952 0.0152763 0.999772)
(-0.128269 0.0929041 0.987378)
(-0.00976738 0.0236224 0.999673)
(0.00304141 0.00268312 0.999992)
(0.00240568 0.00095111 0.999997)
(0.00176697 0.00376338 0.999991)
(0.00249652 0.000292334 0.999997)
(-0.0330947 0.0415374 0.998589)
(-0.150503 0.110706 0.982391)
(0.99877 0.0450603 0.0206885)
(0.99881 0.044319 0.0203702)
(0.998711 0.0452582 0.0229984)
(0.998646 0.0460259 0.0242458)
(0.00374486 0.000499953 0.999993)
(0.997074 -0.0763597 0.00346758)
(0.989843 0.134727 0.0453855)
(-0.00929295 0.0114421 0.999891)
(0.00111648 -0.000161642 0.999999)
(0.989177 0.135566 0.0561249)
(-0.00646358 0.0110407 0.999918)
(-0.0732106 0.0505691 0.996034)
(0.0161476 0.0046878 0.999859)
(0.00826984 0.00235262 0.999963)
(0.00585773 0.00197599 0.999981)
(0.00416584 0.00190864 0.99999)
(0.00577485 0.0019763 0.999981)
(0.0128489 0.006564 0.999896)
(-0.0888634 0.0626681 0.99407)
(0.0160707 0.00376963 0.999864)
(0.997574 0.0517754 0.0465274)
(0.997838 0.0502511 0.0423552)
(0.0269713 0.00385203 0.999629)
(0.0183512 0.00397593 0.999824)
(0.997422 0.0520437 0.0493977)
(0.997246 0.0510929 0.0537607)
(0.302102 0.0194041 0.953078)
(0.0830743 0.0031903 0.996538)
(0.0318852 0.0038272 0.999484)
(0.0609493 0.00292554 0.998137)
(0.111876 -0.0698964 0.991261)
(0.99731 -0.0499673 0.0536234)
(0.986009 0.142741 0.0860871)
(0.115069 -0.0188988 0.993178)
(0.0499641 -0.0327282 0.998215)
(0.985591 0.141764 0.0922696)
(0.199163 -0.0361683 0.979299)
(0.0495233 -0.0905889 0.994656)
(0.136212 -0.0894075 0.986637)
(0.227874 -0.00685471 0.973667)
(0.0896014 -0.00393442 0.99597)
(0.0327682 0.000776846 0.999463)
(0.0678726 -0.00232521 0.997691)
(0.0940735 -0.0544618 0.994074)
(0.0650698 -0.0671564 0.995618)
(0.481977 0.0393508 0.8753)
(0.741437 0.0826444 0.665914)
(0.864812 -0.378842 0.329513)
(0.990264 -0.0452834 0.131634)
(0.705717 0.108328 0.700163)
(0.98474 -0.170637 0.0341937)
(0.814251 -0.535788 0.223441)
(0.971954 -0.230583 0.0462264)
(0.903511 -0.387338 0.183405)
(0.772467 -0.582686 0.252531)
(0.963897 -0.260677 0.0543148)
(0.041483 0.00492608 0.999127)
(-0.000381411 0.00114411 0.999999)
(0.00519314 0.00467616 0.999976)
(-0.00160709 0.00962585 0.999952)
(0.00367671 0.00338075 0.999988)
(0.00137292 0.00266568 0.999996)
(-0.00971978 0.0121559 0.999879)
(-0.0114618 0.0124525 0.999857)
(0.000157088 0.00335489 0.999994)
(0.00210681 0.00391499 0.99999)
(-0.0003107 0.00319537 0.999995)
(0.0367281 0.00501116 0.999313)
(-0.00233539 0.01026 0.999945)
(0.00412049 0.00491895 0.999979)
(0.106051 0.0150458 0.994247)
(0.0127203 -0.00769802 0.999889)
(0.0218486 0.00496089 0.999749)
(0.00860178 0.00407767 0.999955)
(0.0141654 -0.000542534 0.9999)
(0.0145796 0.00308296 0.999889)
(0.0374183 0.0181094 0.999136)
(0.0175423 0.0161658 0.999715)
(0.0120221 -0.00473464 0.999917)
(0.0105699 0.00122548 0.999943)
(0.00984966 0.0031972 0.999946)
(0.0838633 0.0120694 0.996404)
(0.00451607 0.00658877 0.999968)
(0.015855 0.00537963 0.99986)
(0.979366 0.101062 0.17501)
(0.21631 -0.188161 0.958022)
(0.500817 0.00701044 0.865525)
(0.0380255 -0.138684 0.989606)
(0.218324 -0.130187 0.967153)
(0.35243 -0.0401606 0.934976)
(0.995512 0.0754623 0.0571068)
(0.975899 0.131339 0.174274)
(0.211877 -0.179425 0.960685)
(0.2061 -0.101217 0.973282)
(0.335516 -0.0230239 0.941753)
(0.944636 0.132832 0.300031)
(0.21859 -0.106282 0.970012)
(0.362765 -0.0300489 0.931396)
(-0.0102895 0.0134047 0.999857)
(-0.00103621 0.00406391 0.999991)
(0.00119181 0.00299156 0.999995)
(0.00280259 0.00477967 0.999985)
(0.0395157 0.00532412 0.999205)
(-0.00268446 0.0112248 0.999933)
(0.00371599 0.00558489 0.999977)
(0.0354748 0.00530494 0.999356)
(-0.00196976 0.00181697 0.999996)
(-0.0031074 0.0106756 0.999938)
(0.0028018 0.00558748 0.99998)
(-0.0136781 0.0129188 0.999823)
(0.00170399 0.0042183 0.99999)
(-0.000628828 0.00375585 0.999993)
(0.000436624 0.0140304 0.999901)
(0.00555087 -0.000500703 0.999984)
(0.00499438 0.00304587 0.999983)
(0.00663736 0.00251461 0.999975)
(0.0605981 0.00837966 0.998127)
(0.00066333 0.00852054 0.999963)
(0.00971483 0.00529202 0.999939)
(0.070535 0.0100575 0.997459)
(0.00544643 -0.00291221 0.999981)
(0.0024978 0.00775781 0.999967)
(0.0121934 0.0053091 0.999912)
(0.00728829 0.0149344 0.999862)
(0.00866911 0.0020909 0.99996)
(0.00719806 0.00327991 0.999969)
(0.933339 0.164848 0.318911)
(0.162814 -0.105816 0.980966)
(0.158012 -0.00688472 0.987413)
(0.10483 -0.0524313 0.993107)
(0.866747 0.143023 0.477802)
(0.110414 -0.0585191 0.992161)
(0.208665 -0.00471386 0.977976)
(0.919739 0.147001 0.363966)
(0.173357 -0.119725 0.977555)
(0.148419 -0.0887496 0.984934)
(0.303178 -0.0138861 0.952833)
(0.954646 0.156362 0.253382)
(0.145009 -0.0790429 0.986268)
(0.248391 -0.0115882 0.968591)
(-0.00360347 0.0168549 0.999851)
(-0.00300775 0.00558264 0.99998)
(0.00393663 0.00724169 0.999966)
(-0.00239408 0.0144029 0.999893)
(0.0241412 0.00751208 0.99968)
(-0.00503184 0.00302542 0.999983)
(-0.0028433 0.00836249 0.999961)
(-0.00796463 0.0136151 0.999876)
(-0.00486729 0.00664689 0.999966)
(-0.00326464 0.00676909 0.999972)
(-0.0227685 0.0158465 0.999615)
(-0.0242385 0.00528356 0.999692)
(0.00250197 0.00553392 0.999982)
(-0.0229553 0.00604097 0.999718)
(0.0242081 0.00763275 0.999678)
(0.0021184 0.00300003 0.999993)
(-0.0209274 0.00566488 0.999765)
(-0.0255904 0.00487035 0.999661)
(0.0288825 0.00310298 0.999578)
(-3.58201e-05 0.0183115 0.999832)
(-0.0208526 0.0328152 0.999244)
(-0.03629 0.0458281 0.99829)
(-0.00172194 0.00859016 0.999962)
(-0.0015814 0.0178816 0.999839)
(-0.0150991 0.0115683 0.999819)
(-0.195228 0.145688 0.969877)
(-0.020612 0.0338607 0.999214)
(0.00348345 0.011825 0.999924)
(-0.0097899 0.006427 0.999931)
(0.00252941 0.00187045 0.999995)
(-0.126116 0.0897779 0.987945)
(-0.0169733 0.0254582 0.999532)
(-0.0107314 0.00737018 0.999915)
(0.00323861 0.0128309 0.999912)
(-0.0152147 0.024033 0.999595)
(0.0142733 0.00664704 0.999876)
(0.00475252 0.000396528 0.999989)
(-0.0251063 0.00204054 0.999683)
(0.0303588 -0.000575694 0.999539)
(0.0253637 0.00279024 0.999674)
(0.00298939 0.00184274 0.999994)
(-0.021609 0.00106254 0.999766)
(0.0296638 3.51952e-05 0.99956)
(-0.0255226 0.00203925 0.999672)
(-0.0210924 0.00107447 0.999777)
(0.0030712 0.00106106 0.999995)
(0.0262857 0.00164701 0.999653)
(-0.0101905 0.0122715 0.999873)
(0.00146494 0.00268458 0.999995)
(0.00104121 0.00239205 0.999997)
(0.00350085 0.00307955 0.999989)
(0.0429685 0.0051497 0.999063)
(0.00518612 0.00494093 0.999974)
(-0.00197576 0.00948405 0.999953)
(0.0452347 0.00573377 0.99896)
(0.000403492 0.000225887 1)
(0.00572685 0.0049992 0.999971)
(-0.0013667 0.00928858 0.999956)
(0.00183877 0.00298764 0.999994)
(0.00419619 0.00299118 0.999987)
(-0.00904655 0.0124977 0.999881)
(0.0312071 -0.00051051 0.999513)
(-0.024894 0.00213538 0.999688)
(0.00392086 0.00182471 0.999991)
(-0.0208584 0.00153592 0.999781)
(0.0275472 0.00265517 0.999617)
(0.0269737 0.0019758 0.999634)
(0.00388372 0.00211416 0.99999)
(-0.0210744 0.00163988 0.999777)
(-0.0245689 0.00202025 0.999696)
(0.0321518 -0.000135053 0.999483)
(-0.0095093 0.00566694 0.999939)
(0.00372927 0.011392 0.999928)
(-0.0146599 0.0227878 0.999633)
(0.0183479 0.0037085 0.999825)
(0.00565491 -0.000918484 0.999984)
(0.00403417 0.0109061 0.999932)
(-0.00908198 0.00505896 0.999946)
(0.00387466 -3.71083e-05 0.999992)
(-0.111507 0.0784085 0.990666)
(-0.016073 0.0236576 0.999591)
(0.0139817 -0.00377192 0.999895)
(-0.000881065 -0.00479225 0.999988)
(0.00971091 -0.00746901 0.999925)
(-0.066 0.0430831 0.996889)
(-0.0102754 0.0135784 0.999855)
(-0.00375811 -0.000698374 0.999993)
(0.010003 0.00251699 0.999947)
(-0.00568806 0.00649652 0.999963)
(0.0370838 -0.00965989 0.999265)
(0.0140873 -0.0127826 0.999819)
(-0.0128575 -0.000519031 0.999917)
(0.0460304 -0.00111226 0.998939)
(0.0346851 0.00285934 0.999394)
(0.0101518 0.0027085 0.999945)
(-0.0148969 0.00123762 0.999888)
(0.0411212 -0.000893791 0.999154)
(-0.0173163 0.000536917 0.99985)
(-0.0111695 0.000592848 0.999937)
(0.0115252 0.00226621 0.999931)
(0.0385444 0.00306506 0.999252)
(0.0823182 0.0232885 0.996334)
(0.0220745 0.00248839 0.999753)
(0.0285236 -0.0156296 0.999471)
(0.0197716 -0.00369906 0.999798)
(0.146137 0.020242 0.989057)
(0.0325231 0.00456964 0.999461)
(0.0161624 0.000142914 0.999869)
(0.231382 0.0319399 0.972338)
(0.0313816 -0.0201721 0.999304)
(0.0506612 0.00313997 0.998711)
(0.0295034 -0.00677788 0.999542)
(0.0359606 0.00157333 0.999352)
(0.0310227 -0.00911951 0.999477)
(0.192918 0.0379929 0.980479)
(0.0530489 -0.00210122 0.99859)
(-0.00509875 -0.001967 0.999985)
(0.0218921 0.00180804 0.999759)
(0.00586368 -0.00219125 0.99998)
(0.0539871 0.00249492 0.998539)
(0.0442207 0.0027196 0.999018)
(0.0183307 0.00258574 0.999829)
(-0.00487876 2.02079e-05 0.999988)
(0.00781608 -0.00491095 0.999957)
(0.0651521 -0.00327654 0.99787)
(0.00399826 -0.0115687 0.999925)
(0.0221015 -0.0141689 0.999655)
(0.0130556 -0.0229174 0.999652)
(0.0728188 -0.0367143 0.996669)
(0.0300548 -0.0355273 0.998917)
(0.0349712 -0.0307818 0.998914)
(0.0134599 -0.0231966 0.99964)
(0.0185994 -0.0210577 0.999605)
(-0.0262383 0.0105463 0.9996)
(0.000713493 -0.00480865 0.999988)
(-0.0370741 -0.198035 0.979494)
(0.234165 -0.141562 0.961835)
(0.111887 -0.159163 0.980892)
(-0.010093 -0.0813539 0.996634)
(0.0909557 -0.136095 0.986512)
(0.156058 -0.158031 0.975024)
(0.211841 -0.136752 0.967689)
(-0.0281733 -0.144058 0.989168)
(0.00305227 -0.0827016 0.99657)
(0.0832188 -0.14991 0.985191)
(0.272859 -0.014984 0.961937)
(0.368369 -0.0554412 0.928025)
(0.298272 -0.0231096 0.954201)
(0.365816 0.0048413 0.930675)
(0.259299 -0.0319387 0.965269)
(0.335042 -0.0421596 0.94126)
(0.285699 -0.0552055 0.956728)
(0.18518 0.0087575 0.982666)
(0.408127 0.01936 0.91272)
(0.331575 -0.0262281 0.943064)
(0.998039 -0.0550002 -0.0298699)
(0.960201 0.0673724 0.271062)
(-0.558474 -0.117124 0.821211)
(0.10792 -0.177935 0.978106)
(0.997896 0.0134898 0.063413)
(0.976826 0.000793579 -0.214035)
(-0.599206 -0.13322 0.789433)
(0.992517 -0.118142 0.030871)
(0.999625 -0.0244886 -0.0122257)
(0.991451 0.0624834 -0.114543)
(0.98295 -0.178507 0.0440922)
(0.984457 -0.175228 0.0118462)
(0.925379 -0.352667 0.138922)
(0.889664 -0.37254 -0.264031)
(0.921888 -0.354843 0.155594)
(0.990856 -0.128536 0.0410265)
(-0.434679 0.116596 0.893006)
(0.979646 0.025345 -0.199124)
(-0.535497 0.0808073 0.840663)
(0.38209 0.00425102 0.924115)
(0.807043 -0.0192918 -0.590178)
(0.999154 0.0107107 -0.0396938)
(0.898062 0.0570837 -0.436148)
(0.228921 0.0360867 0.972776)
(-0.376556 0.138176 0.916031)
(0.774606 -0.030274 -0.631719)
(0.948957 0.0276246 -0.314194)
(0.0814402 -0.213567 0.973528)
(0.0269029 -0.214627 0.976326)
(0.90208 -0.412226 0.127757)
(-0.609589 0.420714 0.671864)
(-0.0566825 -0.199044 0.97835)
(-0.0188915 -0.151228 0.988318)
(0.865312 -0.491705 0.097267)
(-0.128533 -0.00713395 0.99168)
(0.0384371 0.0054477 0.999246)
(-0.00158975 0.00338768 0.999993)
(0.00562618 0.00478493 0.999973)
(-0.000789302 0.0119154 0.999929)
(-0.00466418 0.0137527 0.999895)
(0.00140216 0.00276875 0.999995)
(0.00338847 0.00575868 0.999978)
(-0.0121671 0.0145648 0.99982)
(-0.00142646 0.00548561 0.999984)
(-0.00448088 0.00514646 0.999977)
(-0.00216198 0.00664008 0.999976)
(0.0236415 0.006342 0.9997)
(0.00209753 0.00566282 0.999982)
(-0.00349041 0.0131067 0.999908)
(-0.0111664 0.00924889 0.999895)
(0.002249 0.0142263 0.999896)
(-0.0165427 0.0262266 0.999519)
(0.00496662 0.0137734 0.999893)
(0.00315495 0.00238161 0.999992)
(0.00238381 0.0134959 0.999906)
(-0.0112879 0.00777396 0.999906)
(0.00144708 0.00402476 0.999991)
(-0.143721 0.10384 0.984155)
(-0.0179134 0.0275782 0.999459)
(0.028944 -0.000760129 0.999581)
(-0.0254343 0.00296808 0.999672)
(-0.0220088 0.00236229 0.999755)
(0.00285928 0.00253224 0.999993)
(0.0255831 0.00357268 0.999666)
(-0.0256269 0.00275232 0.999668)
(0.0298639 0.000599764 0.999554)
(0.0255487 0.00108679 0.999673)
(0.00291054 0.00236744 0.999993)
(-0.0216363 0.00255194 0.999763)
(-0.02539 0.00203672 0.999676)
(0.0271837 -0.00136598 0.99963)
(0.0225939 0.00548762 0.99973)
(0.00179069 0.00172351 0.999997)
(-0.0221764 0.000153444 0.999754)
(0.0271322 0.00183375 0.99963)
(-0.0260282 0.00182582 0.99966)
(-0.0210386 0.000149853 0.999779)
(0.00175225 -0.000162495 0.999998)
(0.0240696 -0.000131485 0.99971)
(0.00245339 0.0156269 0.999875)
(-0.0117568 0.0111988 0.999868)
(-0.00195401 0.00825425 0.999964)
(-0.172214 0.126295 0.97693)
(-0.0201443 0.0316206 0.999297)
(-0.0148217 0.0119241 0.999819)
(0.00130653 0.0176632 0.999843)
(-0.0172512 0.0289186 0.999433)
(-0.0119977 0.0273339 0.999554)
(0.00185096 0.00575822 0.999982)
(0.0544621 0.00724349 0.99849)
(0.00222234 -0.000790122 0.999997)
(0.00809223 0.00503683 0.999955)
(-8.99386e-05 0.00878045 0.999961)
(-0.00378116 0.0132324 0.999905)
(0.00385664 0.00298564 0.999988)
(0.00592469 0.00274452 0.999979)
(-0.00686526 0.0128389 0.999894)
(0.00264186 0.00146795 0.999995)
(0.00245591 0.0029299 0.999993)
(0.00463965 0.00297669 0.999985)
(0.0487865 0.00637289 0.998789)
(0.00675425 0.0050288 0.999965)
(-0.00101301 0.00920415 0.999957)
(-0.00702287 0.00308799 0.999971)
(0.0061432 0.00818905 0.999948)
(-0.0114804 0.0172927 0.999785)
(0.0246156 0.000241982 0.999697)
(0.00897025 -0.0048817 0.999948)
(0.00761452 0.00598916 0.999953)
(-0.00565237 0.00154841 0.999983)
(0.00631423 -0.00282088 0.999976)
(-0.0864544 0.0595381 0.994475)
(-0.0139055 0.0199545 0.999704)
(0.0357506 -0.000575466 0.999361)
(-0.0218659 0.00143572 0.99976)
(-0.0171219 0.00129978 0.999853)
(0.00722537 0.00209484 0.999972)
(0.0323763 0.00292252 0.999471)
(-0.0201223 0.00105626 0.999797)
(0.0382135 -0.000494628 0.999269)
(0.0304658 0.00254142 0.999533)
(0.00669522 0.00245977 0.999975)
(-0.018554 0.00149783 0.999827)
(-0.0230894 0.00164495 0.999732)
(0.0341892 -0.000427611 0.999415)
(0.0280109 0.00246288 0.999605)
(0.00475129 0.00215208 0.999986)
(-0.0203273 0.00133712 0.999792)
(0.0327694 -0.00039802 0.999463)
(-0.0240099 0.00178205 0.99971)
(-0.0194999 0.00131053 0.999809)
(0.0050282 0.00167301 0.999986)
(0.0292174 0.00242407 0.99957)
(0.00512346 0.00937834 0.999943)
(-0.00779833 0.00397345 0.999962)
(0.00480641 -0.00101502 0.999988)
(-0.1 0.0697837 0.992537)
(-0.015354 0.0224108 0.999631)
(-0.00853624 0.00478037 0.999952)
(0.00460135 0.0104026 0.999935)
(-0.0136863 0.0210973 0.999684)
(0.0201722 0.00290629 0.999792)
(0.00677071 -0.00213108 0.999975)
(0.0238203 0.00406784 0.999708)
(0.0205609 0.00450495 0.999778)
(0.18611 0.0103661 0.982474)
(0.120021 0.00600212 0.992753)
(0.0381877 0.0043054 0.999261)
(0.0478305 0.00359635 0.998849)
(0.697417 0.110429 0.708107)
(0.0793407 -0.0522182 0.995479)
(0.130413 -0.00177191 0.991458)
(0.076779 -0.0341697 0.996462)
(0.856982 0.152962 0.492122)
(0.0960952 -0.00319386 0.995367)
(0.0719788 -0.0319653 0.996894)
(0.505071 0.0888329 0.858494)
(0.0717504 -0.0435247 0.996473)
(0.0583566 -0.000408491 0.998296)
(0.0474394 -0.0180386 0.998711)
(0.410454 0.0595996 0.909932)
(0.0806909 0.00150157 0.996738)
(0.048723 -0.0174161 0.99866)
(0.077573 -0.102038 0.991751)
(0.108245 -0.125308 0.986195)
(0.0783807 -0.140528 0.986969)
(0.141179 -0.096587 0.985261)
(0.105431 -0.149307 0.983154)
(0.138396 -0.151462 0.978727)
(0.111017 -0.139369 0.983998)
(0.085471 -0.119073 0.9892)
(0.0773586 -0.0854707 0.993333)
(0.0693789 -0.116316 0.990786)
(0.168893 -0.0171519 0.985485)
(0.140248 -0.0250825 0.989799)
(0.202045 -0.028216 0.97897)
(0.166997 -0.0055676 0.985942)
(0.213155 -0.0104796 0.976962)
(0.229969 -0.0412322 0.972324)
(0.249998 -0.0261185 0.967894)
(0.140148 -0.0058359 0.990113)
(0.122054 -0.00406389 0.992515)
(0.116837 -0.0155918 0.993029)
(0.0700442 -0.016252 0.997411)
(0.116193 -0.00996709 0.993177)
(0.0695304 0.000766483 0.99758)
(0.0410735 0.000701974 0.999156)
(0.0241569 -0.00461531 0.999698)
(0.084124 -0.00614944 0.996436)
(0.0304491 -0.00885752 0.999497)
(0.0569777 -0.0104159 0.998321)
(0.0517973 -0.000895686 0.998657)
(0.0956431 -0.00110974 0.995415)
(0.079082 -0.0877112 0.993002)
(0.0490789 -0.0674678 0.996514)
(0.0435988 -0.0563982 0.997456)
(0.036925 -0.0414542 0.998458)
(0.0284148 -0.0481603 0.998435)
(0.0280799 -0.0411788 0.998757)
(0.053543 -0.0549161 0.997054)
(0.0493006 -0.0810721 0.995488)
(0.1212 -0.0744809 0.98983)
(0.0640689 -0.0853255 0.994291)
(0.646999 0.0613935 0.760015)
(0.728661 0.0742093 0.680842)
(0.998366 -0.0471022 0.0323476)
(0.977621 -0.204722 0.0484269)
(0.999708 -0.0121506 0.0209062)
(0.784936 0.111733 0.609418)
(0.0290658 0.00561508 0.999562)
(-0.000542529 0.00246681 0.999997)
(-0.00249316 0.00305448 0.999992)
(-0.0118992 0.00203698 0.999927)
(0.0107432 0.00560293 0.999927)
(0.00313545 -3.04536e-05 0.999995)
(-0.0217551 0.00480522 0.999752)
(0.995712 0.0896027 -0.0229881)
(0.999236 0.0389355 0.0032969)
(0.0170305 0.00801136 0.999823)
(0.990201 0.133199 0.0419435)
(0.99233 0.0898104 0.084945)
(0.99909 0.0394066 0.0163146)
(0.0175653 0.00755555 0.999817)
(-0.0220984 0.00686497 0.999732)
(0.000473321 0.00355593 0.999994)
(0.00816692 0.00320149 0.999962)
(0.00116798 -0.000570997 0.999999)
(0.0233275 0.00370448 0.999721)
(-0.0121446 0.00236137 0.999923)
(-0.00314015 0.00420115 0.999986)
(0.992027 0.0905442 0.0876606)
(0.0207734 0.00771135 0.999754)
(0.990372 0.133256 0.0374907)
(0.999053 0.0399747 0.0171531)
(0.999217 0.0393863 0.00364536)
(0.0196206 0.00740358 0.99978)
(0.995731 0.0906862 -0.0171962)
(0.0496403 0.00684162 0.998744)
(0.0154904 -0.00740794 0.999853)
(0.0109397 -0.00562807 0.999924)
(-0.000698502 -0.00971392 0.999953)
(0.0252255 -0.00318618 0.999677)
(0.016826 -0.00684969 0.999835)
(-0.0117766 0.000339339 0.999931)
(0.994631 0.101298 0.0211642)
(0.9988 0.0463425 0.0158301)
(0.0643859 0.0185791 0.997752)
(0.98787 0.138514 0.070184)
(0.990209 0.100451 0.0969274)
(0.998456 0.0476418 0.0285591)
(0.0747674 0.0209851 0.99698)
(-0.014982 0.00565993 0.999872)
(0.0111279 -0.00268633 0.999934)
(0.0169165 -0.00281863 0.999853)
(0.00931039 -0.00530356 0.999943)
(0.0355766 0.00343906 0.999361)
(-0.00515286 -0.00359207 0.99998)
(0.00534279 -0.000173965 0.999986)
(0.312449 -0.0808432 0.946488)
(0.248384 -0.192789 0.949283)
(0.281204 -0.119484 0.952181)
(0.207016 -0.194648 0.958779)
(0.211567 -0.189753 0.958766)
(0.236939 -0.156792 0.958789)
(0.274487 -0.063037 0.959522)
(0.222702 -0.0604274 0.973012)
(0.221167 -0.157841 0.962378)
(0.184886 -0.150757 0.971128)
(0.20544 -0.128793 0.970158)
(0.293316 -0.0455591 0.954929)
(0.162552 -0.156242 0.974251)
(0.206782 -0.128236 0.969947)
(0.998916 -0.0429646 0.0179152)
(0.998815 0.0436257 0.0215826)
(0.999031 -0.0432773 -0.00802289)
(0.999001 -0.0435784 -0.00990727)
(0.998915 0.0434062 0.0168723)
(0.998906 -0.0433743 0.0174769)
(-0.0201897 0.00803773 0.999764)
(0.000315972 0.00460884 0.999989)
(0.00129211 -0.000386072 0.999999)
(0.00836356 0.00385114 0.999958)
(0.0250769 0.00422555 0.999677)
(-0.0118721 0.00332435 0.999924)
(-0.00285608 0.00502425 0.999983)
(0.991875 0.0892521 0.0906494)
(0.999097 0.039005 0.0168699)
(0.0172006 0.0086425 0.999815)
(0.99009 0.132712 0.0459331)
(0.995682 0.0888992 -0.0267263)
(0.999255 0.038422 0.00376577)
(0.018138 0.00885665 0.999796)
(0.0256494 0.00589419 0.999654)
(-0.00235801 0.00329291 0.999992)
(-0.0131459 0.00308552 0.999909)
(-0.00403432 0.0037316 0.999985)
(-0.0233381 0.00546516 0.999713)
(0.00859353 0.00647716 0.999942)
(0.00127518 0.000701943 0.999999)
(0.999044 -0.0429295 -0.00819757)
(0.998914 0.0439712 0.015404)
(0.998936 -0.042765 0.0172877)
(0.998868 0.0439584 0.0181772)
(0.998944 -0.0424258 0.0176145)
(0.999052 -0.0427276 -0.00828741)
(-0.0190243 0.0060546 0.999801)
(0.00568483 0.000407024 0.999984)
(0.00541448 -0.00307854 0.999981)
(0.0128826 0.000105996 0.999917)
(0.0301155 0.0035042 0.99954)
(-0.00890653 -0.000659199 0.99996)
(0.00107372 0.00201633 0.999997)
(0.990641 0.0984086 0.0945809)
(0.998607 0.0460163 0.0258294)
(0.0558429 0.0165749 0.998302)
(0.988789 0.136898 0.0596302)
(0.995002 0.0990722 0.012507)
(0.99891 0.0448447 0.0129836)
(0.0502031 0.0152911 0.998622)
(0.038491 0.00674535 0.999236)
(0.00630976 -0.00168216 0.999979)
(-0.00768329 -0.00290364 0.999966)
(0.00299154 -0.000662444 0.999995)
(-0.0184905 0.00301805 0.999824)
(0.0171243 0.00206367 0.999851)
(0.00900463 -0.00289195 0.999955)
(0.995258 0.0971538 0.0046945)
(0.0393435 0.0126444 0.999146)
(0.998996 0.0435905 0.010366)
(0.988809 0.136384 0.0604593)
(0.99873 0.0445811 0.0234853)
(0.991117 0.0966733 0.091333)
(0.0435427 0.0138024 0.998956)
(0.113239 -0.0187547 0.993391)
(0.140168 -0.085941 0.986391)
(0.110783 -0.0609581 0.991973)
(0.111546 -0.0755128 0.990886)
(0.177381 -0.00673003 0.984119)
(0.0919999 -0.0842876 0.992185)
(0.116551 -0.0621766 0.991237)
(0.28641 -0.0200387 0.957898)
(0.195192 -0.136485 0.971222)
(0.144346 -0.141387 0.979374)
(0.186911 -0.115342 0.975582)
(0.185721 -0.0569487 0.980951)
(0.17245 -0.126023 0.976923)
(0.188091 -0.107535 0.976247)
(0.0170644 0.00714572 0.999829)
(-0.00600503 0.00488609 0.99997)
(-0.00790763 0.00501639 0.999956)
(-0.0169848 0.00498347 0.999843)
(-0.00294009 0.00233765 0.999993)
(0.00339899 0.00844669 0.999959)
(-0.0287143 0.00700307 0.999563)
(-0.00573398 0.00574441 0.999967)
(0.000976717 0.000394428 0.999999)
(-0.00462308 0.0114809 0.999923)
(-0.00657485 0.00845608 0.999943)
(0.00052247 0.00782376 0.999969)
(-0.00086081 0.00440964 0.99999)
(-0.00263688 0.000731197 0.999996)
(0.000151601 0.00688981 0.999976)
(-0.00259 0.00395505 0.999989)
(0.00466449 -0.00174525 0.999988)
(0.00349582 -0.00186432 0.999992)
(-0.00353883 0.00465733 0.999983)
(-0.021348 0.00627464 0.999752)
(0.00249835 -0.00141988 0.999996)
(0.00183848 0.00264166 0.999995)
(0.00978765 0.002203 0.99995)
(0.0257842 0.0033293 0.999662)
(-0.00188912 0.00362475 0.999992)
(-0.0112468 0.00139324 0.999936)
(0.991838 0.0927627 0.0874815)
(0.998957 0.0415364 0.0189419)
(0.98993 0.13414 0.0452216)
(0.0256177 0.00953873 0.999626)
(0.0248915 0.00930998 0.999647)
(0.999149 0.0408157 0.00590499)
(0.995602 0.0928933 -0.0121206)
(0.995662 0.091796 -0.0152119)
(0.0218524 0.00816388 0.999728)
(0.999186 0.040062 0.00476199)
(0.989827 0.133815 0.0483258)
(0.991923 0.0916579 0.087679)
(0.0228732 0.00879616 0.9997)
(0.999005 0.0407154 0.0181902)
(0.030023 0.00572458 0.999533)
(0.00028351 0.00172456 0.999998)
(-0.00191086 0.00248344 0.999995)
(-0.0115163 0.00130933 0.999933)
(0.00378859 -0.000489062 0.999993)
(0.0115285 0.00498761 0.999921)
(-0.0219146 0.00446022 0.99975)
(0.00466927 -0.00264689 0.999986)
(-0.00244616 0.00403481 0.999989)
(-0.00173175 0.00336191 0.999993)
(0.00560775 -0.00236237 0.999981)
(-0.0013031 -0.000751898 0.999999)
(0.00129281 0.00561373 0.999983)
(0.00135796 0.00694399 0.999975)
(-8.21084e-05 0.00346156 0.999994)
(0.0158041 -0.00783251 0.999844)
(0.014183 -0.00873272 0.999861)
(0.00610897 -0.00804781 0.999949)
(0.00975236 -0.00094286 0.999952)
(0.0125371 -0.00473464 0.99991)
(0.0194025 -0.00959647 0.999766)
(0.0124439 -0.00686674 0.999899)
(0.00540395 -4.82923e-05 0.999985)
(-0.00398334 0.00343805 0.999986)
(0.0188383 -0.0107867 0.999764)
(0.0244281 -0.0108348 0.999643)
(0.0265629 -0.0103139 0.999594)
(0.0481157 0.00221333 0.998839)
(0.0160302 -0.0060106 0.999853)
(0.00469962 -0.0116084 0.999922)
(0.0807376 0.00575948 0.996719)
(0.0393049 -0.0228305 0.998966)
(0.0333615 -0.0185381 0.999271)
(0.0199239 -0.0272039 0.999431)
(0.037697 -0.0177966 0.999131)
(0.0464368 -0.0178337 0.998762)
(0.0121587 -0.00598507 0.999908)
(0.0226337 -0.0127064 0.999663)
(0.0164967 -0.00618164 0.999845)
(0.0356215 -0.0181846 0.9992)
(0.0403357 -0.0217412 0.99895)
(0.0163947 -0.0189856 0.999685)
(0.0217774 -0.0120947 0.99969)
(0.0393449 -0.0317581 0.998721)
(0.0359038 -0.0295553 0.998918)
(0.240524 -0.245215 0.939158)
(0.205811 -0.233937 0.950219)
(0.167764 -0.189505 0.967441)
(0.17832 -0.179085 0.967538)
(0.28621 -0.125357 0.949931)
(0.257955 -0.163019 0.952304)
(0.222852 -0.144445 0.964092)
(0.222605 -0.140418 0.964743)
(0.972054 0.111821 0.206414)
(0.372787 -0.122068 0.919853)
(0.486088 -0.216866 0.846574)
(0.362085 -0.185344 0.913533)
(0.601132 -0.00830496 0.799107)
(0.375035 -0.137092 0.916818)
(0.298143 -0.273371 0.914538)
(0.984351 -0.162491 0.068186)
(0.887049 -0.369661 0.276577)
(0.971783 -0.169594 0.163937)
(0.955872 -0.196043 0.218805)
(0.988082 -0.108328 0.109356)
(0.97036 -0.217502 0.10533)
(0.93488 -0.28193 0.215672)
(0.996619 -0.0792805 0.0215542)
(0.994053 0.0934773 0.0558677)
(0.989675 -0.0853374 0.11516)
(0.999407 -0.0341357 0.00451193)
(0.996725 -0.0270884 0.0761968)
(0.996138 0.0305686 -0.0823043)
(0.990248 -0.126558 0.0582398)
(0.989599 -0.143135 0.0143832)
(-0.536218 -0.0863953 0.839647)
(0.980206 -0.145752 0.133984)
(0.954534 -0.264344 0.137796)
(0.996654 -0.0760791 0.0298765)
(0.972432 -0.205016 -0.111107)
(0.95828 -0.235195 0.162426)
(0.332871 -0.136377 0.933058)
(0.352777 -0.12044 0.927924)
(0.353894 -0.245942 0.90237)
(0.280282 -0.334024 0.899928)
(0.999027 -0.0432003 -0.00888117)
(0.998938 0.0443462 0.0125199)
(0.998936 -0.0432213 0.0160703)
(0.998937 -0.0435196 0.015216)
(0.998973 0.0438364 0.0114473)
(0.998987 -0.0434761 -0.0115799)
(0.0293856 0.0071578 0.999543)
(-0.00152989 0.00473113 0.999988)
(-0.00302098 0.00433223 0.999986)
(-0.0120397 0.00393588 0.99992)
(-0.0193297 0.00671213 0.999791)
(0.00242461 0.00133365 0.999996)
(0.00980574 0.00776801 0.999922)
(-0.0241762 0.00901304 0.999667)
(-0.00218167 0.00557708 0.999982)
(-0.00221831 0.00115793 0.999997)
(0.00349226 0.00508966 0.999981)
(0.0160399 0.00471833 0.99986)
(-0.0059184 0.00553007 0.999967)