/*--------------------------------*- C++ -*----------------------------------*\
| =========                 |                                                 |
| \\      /  F ield         | OpenFOAM: The Open Source CFD Toolbox           |
|  \\    /   O peration     | Version:  2012                                  |
|   \\  /    A nd           | Website:  www.openfoam.com                      |
|    \\/     M anipulation  |                                                 |
\*---------------------------------------------------------------------------*/
FoamFile
{
    version     2.0;
    format      ascii;
    class       volScalarField;
    location    "0.107/solid";
    object      sigmaMin;
}
// * * * * * * * * * * * * * * * * * * * * * * * * * * * * * * * * * * * * * //

dimensions      [1 -1 -2 0 0 0 0];


internalField   nonuniform List<scalar> 
3125
(
-1191.2
-1122.54
-998.775
-1199.2
-1133.86
-1022.49
-1235.83
-1169.39
-1080.58
-1223.67
-1161.43
-1064.87
-525.184
-817.88
-1382.67
-1183.92
-539.124
-1372.39
-811.025
-465.524
-754.773
-1314.56
-1109.85
-487.955
-1294.69
-743.427
-448.799
-652.32
-1178.73
-933.101
-425.269
-1081.59
-619.594
-1475.36
-1488.6
-551.552
-1207.19
-824.994
-1387.33
-537.134
-1400.51
-832.413
-1470.56
-1459.76
-1407.09
-1422.87
-503.032
-1143.97
-765.006
-1320.41
-485.112
-1336.08
-774.184
-1401.19
-1381.03
-1260.63
-1299.56
-420.604
-1036.07
-669.721
-1190.71
-415.211
-1219.03
-678.142
-1242.98
-1124.52
-1422.74
-858.724
-565.639
-1344.82
-592.653
-556.478
-546.273
-1305.74
-1296.05
-527.261
-1176.87
-1357.5
-797.446
-1369.15
-513.69
-804.314
-1281.35
-1292.84
-532.473
-542.693
-493.469
-476.982
-1239.09
-1219.47
-468.964
-1095.78
-1262.76
-716.994
-1287.36
-440.808
-730.832
-1187.76
-1212.06
-447.897
-470.429
-367.493
-333.034
-1107.88
-1039.44
-426.92
-862.087
-1020.89
-496.606
-986.946
-326.346
-1512.45
-1503.76
-1491.28
-549.545
-1214.64
-1413.9
-849.315
-568.532
-1402.91
-840.481
-560.074
-571.007
-1310.48
-1323.93
-1335.6
-1326.15
-588.492
-575.475
-1444.68
-1456.48
-1440.4
-1427.46
-500.606
-1153.04
-1353.31
-790.18
-515.829
-1340.63
-782.486
-498.884
-512.692
-1244.94
-1260.29
-1277.13
-1264.83
-528.636
-517.093
-1354.03
-1348.35
-1373.62
-1320.72
-1346.54
-1339.44
-1309.55
-1231.33
-1270.82
-1312.09
-1281.27
-415.593
-1049.74
-1254.24
-702.524
-444.668
-1227.38
-688.959
-379.246
-401.408
-1116.82
-1143.43
-1179.05
-1151.9
-438.394
-410.607
-1216.04
-1124.02
-900.047
-1061.97
-1070.4
-732.882
-646.393
-912.599
-542.823
-667.176
-946.908
-917.421
-533.221
-881.777
-684.11
-685.804
-884.318
-915.448
-921.687
-531.303
-691.703
-890.482
-923.895
-690.095
-887.515
-854.511
-478.903
-815.669
-625.391
-628.418
-821.134
-850.418
-861.526
-475.883
-637.924
-832.063
-865.141
-635.323
-827.178
-742.487
-454.827
-713.986
-536.596
-549.754
-733.384
-712.304
-764.199
-436.988
-559.134
-744.852
-771.903
-559.901
-742.814
-935.742
-542.467
-905.402
-704.429
-937.924
-702.674
-902.4
-930.997
-544.636
-696.137
-894.437
-928.553
-697.99
-898.128
-880.397
-493.266
-850.388
-654.317
-883.197
-652.285
-846.554
-874.674
-495.875
-644.155
-837.392
-871.495
-646.613
-841.713
-787.789
-409.85
-754.701
-569.804
-791.74
-567.241
-750.426
-783.203
-416.777
-563.252
-746.234
-780.059
-563.206
-746.953
-971.488
-570.306
-940.371
-735.029
-964.368
-573.318
-925.054
-725.594
-932.541
-728.095
-960.261
-911.303
-1355.57
-1057.36
-1070.38
-1364.73
-1075.4
-895.474
-905.535
-655.195
-651.33
-596.932
-651.428
-647.965
-650.932
-602.434
-661.343
-599.439
-603.19
-613.624
-553.893
-612.883
-610.591
-606.438
-606.773
-550.142
-606.656
-853.017
-855.437
-1023.65
-1301.92
-1019.53
-861.727
-858.841
-1013.84
-1298.66
-1016.93
-909.248
-878.548
-519.491
-679.947
-911.306
-875.701
-678.453
-904.902
-521.58
-868.914
-672.378
-872.044
-674.15
-902.651
-849.793
-846.762
-1285.22
-1000.12
-1004.56
-1011.38
-1289.26
-1007.31
-839.901
-843.253
-596.156
-592.312
-593.651
-536.411
-593.609
-585.254
-589.008
-600.517
-540.129
-599.869
-526.226
-533.189
-551.868
-488.894
-551.065
-545.161
-538.63
-540
-482.868
-540.163
-785.64
-791.73
-962.333
-1232.93
-955.306
-802.84
-797.405
-942.886
-1226.16
-950.606
-838.074
-808.982
-453.833
-617.8
-842.709
-802.764
-614.443
-829.76
-457.351
-788.542
-601.976
-795.253
-605.975
-824.657
-779.261
-772.216
-1195.97
-913.575
-923.144
-937.762
-1204.37
-928.725
-757.54
-765.168
-519.858
-511.452
-511.346
-456.213
-511.744
-494.279
-504.071
-527.331
-464.424
-526.502
-398.786
-409.198
-411.614
-352.275
-399.799
-421.426
-413.614
-365.823
-333.212
-373.357
-712.493
-721.658
-866.566
-1094.55
-860.622
-719.013
-724.21
-828.502
-1070.85
-855.846
-671.973
-682.905
-400.525
-499.392
-698.552
-667.229
-486.629
-761.426
-970.091
-825.676
-959.327
-657.011
-379.087
-443.21
-510.069
-683.45
-589.513
-733.753
-445.188
-692.815
-665.248
-947.429
-777.232
-805.246
-933.286
-771.769
-676.619
-393.092
-374.603
-326.874
-408.055
-406.605
-356.567
-306.788
-362.027
-944.681
-560.899
-908.43
-709.442
-942.578
-910.457
-711.641
-950.12
-558.857
-917.967
-719.52
-953.311
-913.712
-717.316
-625.334
-620.756
-619.942
-563.974
-619.98
-613.814
-617.368
-627.356
-567.929
-626.644
-876.699
-873.471
-1026.72
-1315.4
-1032.39
-865.469
-869.698
-1039.62
-1320.29
-1035.42
-880.12
-880.897
-1051.86
-1330.1
-1046.08
-889.275
-885.571
-1041.87
-1327.29
-1042.99
-629.395
-634.978
-643.239
-585.293
-642.452
-644.427
-639.46
-634.747
-580.413
-634.766
-890.895
-509.564
-854.62
-659.398
-888.378
-858.029
-661.409
-895.702
-507.376
-865.151
-667.878
-898.067
-861.946
-666.174
-565.281
-560.128
-561.637
-504.062
-561.8
-550.119
-555.637
-571.172
-509.062
-570.413
-821.438
-817.252
-966.44
-1250.13
-972.501
-807.905
-812.616
-981.692
-1255.45
-976.179
-825.467
-829.116
-997.19
-1273.03
-992.65
-836.272
-832.913
-984.941
-1268.78
-989.567
-569.223
-573.687
-586.87
-525.695
-586.208
-581.72
-577.294
-579.009
-521.477
-579.017
-1329.19
-1338.34
-1245
-1259.01
-1302.48
-1291.63
-802.939
-431.358
-760.405
-576.459
-797.984
-766.4
-580.429
-810.807
-427.313
-780.84
-593.079
-816.127
-773.891
-588.9
-447.813
-439.744
-436.231
-386.119
-436.817
-428.728
-433.71
-455.098
-394.265
-454.693
-723.368
-717.912
-865.466
-1125.12
-869.335
-717.037
-716.297
-879.061
-1134.46
-870.751
-728.275
-735.456
-907.848
-1169.97
-897.593
-750.309
-742.163
-882.896
-1160.55
-892.234
-455.604
-466.249
-493.919
-429.801
-493.051
-485.865
-474.764
-473.921
-419.589
-474.266
-1195.18
-1162.1
-989.185
-995.705
-961.449
-1007.35
-724.407
-529.737
-643.125
-608.716
-607.461
-642.853
-722.732
-1127.63
-1278.27
-1173.61
-1378.67
-1130.39
-1275.51
-1170.3
-731.729
-534.405
-616.312
-651.474
-732.861
-617.558
-652.225
-1123.35
-1164.41
-1375.33
-1268.55
-1270.81
-1166.94
-1120.99
-663.887
-473.486
-581.617
-547.338
-545.081
-581.172
-660.784
-1062.62
-1211.05
-1109.6
-1308.23
-1066.98
-1206.57
-1104.15
-676.297
-480.954
-559.995
-596.258
-678.262
-561.827
-597.062
-587.611
-465.207
-520.889
-479.557
-483.553
-527.117
-564.626
-595.319
-423.687
-479.05
-520.717
-599.716
-483.79
-525.692
-1329.85
-1480.14
-1332.96
-1340.66
-1484.81
-1338.18
-745.129
-546.013
-664.543
-629.223
-746.154
-630.448
-665.38
-1138.15
-1283.53
-1178.22
-1392.21
-1135.1
-1286.59
-1182.57
-736.792
-541.561
-621.201
-655.233
-734.836
-619.915
-655.063
-1324.56
-1466.26
-1321.71
-1462.72
-1314.69
-1316.98
-693.434
-497.306
-613.205
-577.181
-694.885
-578.736
-613.971
-1077.33
-1218.18
-1115.54
-1325.85
-1073.5
-1222.05
-1120.31
-683.454
-491.521
-567.222
-601.682
-680.979
-565.369
-601.355
-1083.14
-1129.93
-1231.87
-1331.12
-1228.44
-1086.55
-1125.67
-604.084
-411.792
-522.416
-485.184
-607.006
-488.625
-524.792
-600.686
-418.441
-483.967
-522.507
-596.884
-478.881
-518.12
-767.222
-570.623
-684.791
-651.813
-684.852
-649.787
-764.112
-713.866
-717.807
-511.309
-515.368
-470.842
-474.485
-483.281
-480.774
-671
-674.617
-684.214
-680.494
-719.936
-639.446
-522.556
-603.87
-720.918
-640.215
-605.166
-1110.01
-1254.03
-1361.52
-1150.34
-1153.86
-1256.78
-1107.25
-1114.36
-1161.03
-1264.06
-1365.5
-1116.89
-1157.91
-1261.58
-712.435
-518.361
-631.008
-596.556
-630.761
-595.194
-710.595
-671.619
-668.087
-658.303
-661.933
-471.334
-468.802
-459.503
-463.2
-413.011
-418.714
-432.394
-428.261
-604.536
-611.063
-627.409
-621.989
-654.869
-574.786
-460.27
-538.376
-657.506
-575.678
-540.581
-639.359
-450.452
-556.181
-521.977
-555.589
-519.398
-635.425
-605.359
-598.353
-576.146
-584.426
-413.925
-408.677
-389.551
-396.373
-403.57
-403.076
-368.332
-365.98
-570.007
-582.994
-546.118
-544.035
-516.312
-502.731
-385.869
-448.24
-547.361
-495.393
-459.118
-778.474
-781.812
-904.49
-780.094
-825.325
-870.704
-700.619
-819.34
-888.419
-940.389
-977.009
-838.019
-853.522
-923.111
-645.465
-523.761
-655.067
-464.368
-682.816
-495.69
-592.55
-560.457
-544.579
-384.091
-324.544
-1357.86
-1497.39
-1353.61
-1345.45
-1493.58
-1347.66
-750.169
-555.407
-669.038
-635.034
-748.386
-668.636
-633.981
-759.42
-562.815
-679.866
-645.669
-761.383
-680.642
-647.418
-495.301
-492.178
-482.767
-486.381
-698.17
-693.792
-683.571
-687.072
-697.205
-702.213
-714.137
-709.243
-495.263
-499.956
-513.158
-510.052
-1300.08
-1448.65
-1302.86
-1310.18
-1452.69
-1307.68
-1294.94
-1435.95
-1291.96
-699.135
-505.898
-617.62
-583.079
-697.109
-617.346
-581.527
-1099.72
-1248.92
-1146.14
-1349.07
-1102.63
-1245.99
-1142.57
-707.443
-510.798
-627.123
-591.406
-708.635
-627.877
-592.755
-1094.84
-1134.59
-1237.62
-1344.84
-1091.8
-1240.64
-1138.27
-447.306
-444.042
-431.648
-436.427
-644.641
-640.314
-626.731
-631.811
-644.038
-648.179
-658.908
-655.111
-446.647
-450.72
-460
-457.229
-612.995
-424.828
-529.585
-494.52
-608.942
-528.088
-491.267
-628.408
-434.388
-547.952
-511.321
-631.735
-549.05
-513.82
-367.999
-362.746
-361.814
-364.461
-548.644
-540.45
-537.101
-540.801
-545.911
-554.523
-577.341
-568.604
-365.666
-371.937
-390.574
-384.15
-837.016
-926.601
-913.275
-969.076
-1021.91
-967.497
-802.386
-698.27
-759.154
-764.926
-606.045
-723.815
-860.073
-860.938
-810.149
-630.795
-581.466
-677.293
-798.323
-892.979
-725.751
-528.323
-610.095
-645.407
-726.766
-611.242
-646.2
-730.386
-535.957
-615.013
-649.187
-728.653
-613.787
-648.885
-666.146
-471.07
-549.778
-586.141
-668.456
-551.774
-586.959
-674.256
-483.1
-557.87
-592.272
-671.494
-555.84
-591.942
-586.329
-454.593
-482.786
-528.34
-596.078
-489.842
-533.519
-600.761
-434.822
-489.036
-530.994
-593.041
-481.598
-525.541
-743.587
-547.367
-627.548
-661.842
-741.657
-626.232
-661.684
-738.256
-539.832
-622.331
-657.805
-739.547
-623.701
-658.465
-691.776
-499.154
-575.625
-610.142
-689.546
-573.898
-609.85
-685.321
-489.483
-569.057
-605.192
-687.072
-570.723
-605.969
-603.802
-416.816
-485.659
-521.611
-600.101
-481.53
-519.096
-598
-410.988
-478.798
-516.764
-600.478
-483.153
-520.64
-777.862
-577.199
-694.951
-659.617
-775.044
-695.087
-658.098
-769.319
-567.709
-689.026
-652.278
-771.722
-689.311
-654.486
-723.645
-729.33
-873.575
-912.999
-820.031
-821.503
-877.277
-1324.05
-1512.05
-1518.59
-1317.74
-1330.38
-1531.81
-1336.79
-1524.18
-1348.05
-1536.61
-1343.49
-1541.65
-722.625
-718.219
-806.38
-897.389
-854.412
-807.92
-859.388
-868.322
-814.602
-903.226
-812.732
-863.666
-514.65
-520.327
-678.822
-691.519
-621.09
-651.119
-617.546
-673.794
-694.725
-566.524
-680.654
-678.006
-570.355
-474.771
-370.833
-471.931
-373.176
-565.005
-672.765
-674.663
-562.168
-477.255
-378.899
-481.109
-376.143
-516.975
-513.952
-671.387
-613.105
-643.194
-683.299
-609.379
-685.543
-668.563
-672.789
-688.575
-614.258
-644.046
-612.358
-674.117
-687.489
-575.428
-682.58
-685.27
-572.706
-380.58
-482.512
-477.289
-474.759
-621.589
-568.157
-595.164
-633.898
-565.211
-636.009
-618.892
-623.41
-638.917
-570.578
-596.409
-567.607
-624.342
-637.741
-526.932
-632.085
-633.504
-525.774
-441.195
-345.183
-442.75
-343.93
-527.445
-637.166
-635.177
-529.243
-440.358
-342.353
-439.738
-343.022
-477.071
-480.963
-630.967
-577.113
-603.836
-646.433
-574.304
-645.172
-632.459
-628.938
-641.129
-574.841
-602.181
-571.847
-625.639
-643.441
-520.834
-630.554
-628.351
-524.39
-433.194
-335.63
-431.095
-337.11
-519.557
-623.807
-625.302
-516.994
-435.589
-341.392
-438.855
-339.306
-678.119
-674.19
-763.825
-853.218
-814.184
-764.07
-816.454
-819.419
-766.608
-856.066
-766.992
-817.011
-1282.03
-1475.78
-1284.06
-1473.42
-1142.81
-1246.97
-1022.73
-1101.43
-1245.34
-1099.37
-1144.66
-1140.87
-1095.95
-1020.39
-1241.62
-1243.34
-1097.71
-1139.3
-1279.8
-1469.41
-1277.76
-1471.37
-677.179
-681.046
-772.887
-862.055
-825.233
-773.074
-822.693
-819.572
-769.948
-858.931
-770.032
-821.928
-1135.74
-1236.2
-1014.6
-1091.05
-1237.61
-1092.71
-1134.33
-1274.53
-1464.07
-1272.95
-1465.41
-1136.98
-1095.17
-1016.6
-1239.75
-1239.03
-1093.69
-1138.01
-1275.62
-1467.72
-1276.52
-1466.76
-718.626
-524.05
-637.191
-602.739
-716.886
-636.965
-601.38
-713.833
-516.755
-633.425
-597.78
-714.992
-634.149
-599.08
-760.707
-813.597
-850.081
-760.836
-811.497
-664.763
-668.323
-808.241
-847.234
-757.578
-758.032
-810.523
-1259.99
-1448.16
-1450.11
-1257.63
-1121.61
-1221.19
-1001.25
-1076.29
-1223.23
-1078.56
-1119.6
-1123.6
-1082.55
-1226.77
-1003.68
-1225.29
-1125.43
-1080.37
-1261.72
-1454.18
-1263.54
-1452.35
-1131.37
-1234.29
-1089.77
-1010.68
-1132.81
-1233.11
-1088.13
-1270.1
-1462.41
-1271.54
-1460.74
-1129.51
-1084.42
-1008.51
-1229.16
-1231.22
-1086.46
-1127.53
-1268.03
-1456.46
-1265.55
-1458.79
-665.304
-661.584
-750.933
-840.296
-801.273
-751.319
-803.815
-807.369
-754.311
-843.471
-754.343
-804.749
-465.243
-469.057
-616.237
-563.838
-631.724
-589.611
-617.742
-561.23
-630.521
-614.526
-626.658
-561.903
-588.052
-558.682
-611.192
-628.844
-507.075
-615.75
-613.464
-510.662
-420.642
-325.37
-418.526
-326.938
-505.75
-608.751
-610.393
-503.162
-423.08
-331.358
-426.39
-329.161
-465.844
-463.329
-607.439
-555.223
-581.254
-619.27
-552.219
-621.511
-604.517
-609.203
-624.451
-557.446
-582.51
-554.765
-610.219
-623.313
-513.26
-617.244
-618.63
-512.105
-428.844
-334.768
-430.335
-333.675
-513.791
-622.408
-515.699
-620.35
-427.927
-332.34
-427.396
-332.907
-423.655
-419.044
-548.697
-502.166
-523.808
-557.409
-498.844
-561.029
-543.253
-551.367
-566.821
-505.727
-526.215
-503.799
-554.789
-564.287
-462.057
-559.078
-562.061
-459.275
-383.609
-299.044
-386.114
-297.142
-463.324
-568.683
-565.352
-466.608
-381.348
-294.187
-379.59
-295.599
-422.841
-428.238
-563.69
-516.679
-538.345
-579.195
-514.615
-576.889
-566.989
-561.142
-570.615
-513.561
-535.912
-510.202
-555.883
-573.977
-451.963
-556.609
-552.825
-456.886
-370.365
-285.487
-367.46
-287.542
-449.982
-544.652
-548.157
-445.997
-374.008
-292.85
-378.014
-290.19
-617.011
-610.713
-697.58
-786.275
-746.848
-698.307
-751.359
-757.399
-703.818
-791.661
-703.525
-753.109
-1214.57
-1405.78
-1217.68
-1403.22
-1078.15
-1181.22
-960.894
-1038.13
-1178.8
-1035.04
-1080.82
-1211.38
-1396.23
-1207.35
-1399.34
-616.369
-622.188
-714.735
-802.861
-768.124
-714.538
-764.512
-758.926
-709.218
-798.131
-709.969
-762.817
-1197.88
-1382.03
-1193.82
-1384.89
-1200.85
-1391.88
-1204.28
-1389.17
-652.364
-462.767
-569.594
-535.428
-648.802
-569.174
-533.042
-642.059
-447.709
-561.895
-525.445
-645.149
-562.812
-527.759
-691.576
-745.257
-779.114
-691.207
-740.631
-591.142
-598.616
-733.518
-773.138
-684.404
-685.387
-738.478
-1165.6
-1348
-1351.48
-1160.75
-1169.28
-1360.15
-1173.68
-1356.75
-1186.74
-1377.39
-1190.7
-1374.31
-1182.82
-1365.44
-1177.7
-1369.34
-591.903
-583.826
-669.952
-758.427
-718.829
-670.752
-724.179
-731.503
-677.673
-764.913
-677.204
-726.258
-401.983
-408.432
-537.272
-493.266
-553.037
-512.67
-541.891
-491.642
-549.901
-534.197
-541.804
-489.199
-509.55
-485.786
-527.459
-546.067
-422.947
-525.658
-520.304
-429.786
-343.618
-265.081
-339.088
-268.65
-419.83
-508.285
-513.829
-413.483
-349.278
-276.053
-354.504
-272.27
-402.909
-396.974
-517.307
-473.605
-493.095
-523.211
-470.46
-528.175
-509.853
-520.803
-536.572
-478.839
-496.463
-477.321
-526.128
-532.835
-437.419
-529.095
-533.38
-433.184
-363.089
-284.296
-366.092
-282.133
-439.245
-542.148
-443.481
-537.885
-359.748
-277.957
-356.994
-280.154
-390.512
-392.357
-345.911
-394.322
-396.033
-325.427
-394.151
-307.893
-366.852
-344.824
-335.778
-392.18
-396.521
-395.168
-356.297
-316.967
-318.344
-354.925
-378.271
-323.728
-256.265
-213.124
-258.531
-205.675
-322.808
-404.175
-391.871
-321.366
-250.554
-185.442
-253.885
-196.561
-372.298
-372.992
-399.597
-397.634
-410.174
-416.994
-395.032
-402.236
-415.086
-383.215
-358.599
-394.882
-405.231
-389.223
-368.375
-383.189
-324.831
-331.625
-302.468
-317.172
-268.412
-156.356
-287.757
-153.313
-317.783
-301.849
-291.677
-329.206
-267.4
-174.939
-255.308
-164.076
-568.922
-563.436
-641.327
-713.8
-706.553
-642.84
-715.835
-714.194
-643.127
-723.838
-650.769
-715.293
-1107.1
-1264.02
-1103.7
-1258.95
-1103.9
-1241.99
-1103.85
-1251.93
-553.118
-554.325
-632.86
-720.194
-695.602
-638.292
-700.67
-709.95
-645.858
-723.157
-639.097
-704.894
-1072.95
-1170.91
-1061.81
-1194.47
-1089.43
-1228.7
-1095.39
-1211.77
-520.182
-419.304
-541.842
-486.681
-531.366
-483.292
-428.218
-811.847
-838.18
-887.724
-948.249
-1022.11
-981.724
-853.861
-896.763
-922.177
-901.088
-990.088
-940.697
-578.88
-634.566
-568.118
-414.822
-427.241
-463.757
-502.358
-442.572
-500.877
-575.611
-468.285
-523.846
-733.871
-598.958
-649.955
-621.796
-554.688
-618.043
-775.521
-663.386
-695.786
-521.392
-482.481
-567.466
-627.537
-694.65
-684.51
-611.465
-668.493
-542.031
-530.556
-599.838
-668.412
-614.542
-605.422
-632.126
-901.741
-854.338
-806.653
-831.414
-843.129
-810.008
-928.638
-771.563
-991.982
-1140.51
-1030.97
-1092.76
-934.182
-978.095
-853.98
-1041.68
-682.679
-627.595
-661.848
-317.446
-377.416
-347.002
-360.147
-331.042
-379.718
-386.082
-393.281
-359.88
-439.449
-348.017
-415.558
-380.024
-327.527
-298.296
-346.207
-413.634
-302.794
-355.265
-252.044
-296.252
-405.481
-393.2
-354.545
-196.756
-230.148
-492.537
-444.952
-440.278
-402.871
-284.773
-266.272
-333.568
-260.3
-261.386
-169.987
-268.135
-172.58
-309.577
-311.708
-314.934
-320.092
-234.172
-154.685
-195.339
-159.085
-1571.72
-1577.88
-1591.36
-1584.5
-1597.7
-1537.56
-1540.29
-1545.92
-1543.12
-1555.25
-1553.77
-1548.93
-1551.81
-1566.63
-1562.05
-1556.92
-1559.34
-1556.08
-1556.76
-1556.55
-1556.41
-751.884
-554.332
-671.894
-637.744
-753.053
-672.975
-638.75
-757.656
-564.921
-676.842
-644.023
-755.478
-676.259
-642.725
-487.956
-492.141
-645.647
-590.664
-618.164
-661.761
-587.718
-660.229
-647.561
-643.473
-655.925
-588.119
-616.328
-584.892
-639.973
-658.278
-534.385
-645.333
-643.082
-537.939
-445.606
-346.269
-443.4
-347.949
-533.084
-638.55
-530.568
-640.052
-447.943
-352.496
-451.299
-350.269
-488.802
-486.334
-636.422
-581.327
-609.49
-648.636
-578.344
-633.727
-650.827
-638.228
-653.652
-583.483
-610.64
-580.729
-639.092
-652.575
-540.929
-646.895
-648.456
-539.483
-454.362
-356.319
-455.944
-355.236
-541.648
-652.878
-650.551
-543.817
-453.108
-353.563
-452.315
-354.304
-690.171
-694.041
-787.121
-877.208
-840.182
-787.471
-838.069
-834.709
-783.724
-874.185
-784.344
-837.12
-1289.23
-1478.35
-1286.36
-1481.14
-1149.5
-1249.65
-1028.21
-1103.4
-1252.2
-1146.96
-1106.1
-1152.18
-1111.63
-1030.98
-1256.99
-1254.81
-1108.83
-1154.82
-1291.71
-1486.7
-1483.81
-1294.23
-690.503
-686.761
-776.319
-866.064
-826.13
-776.79
-828.893
-833.129
-780.194
-869.524
-779.97
-830.273
-1301.9
-1495.46
-1494.08
-1302.82
-1299.86
-1489.32
-1492.27
-1297.07
-706.979
-701.276
-790.817
-879.586
-840.235
-790.518
-842.68
-845.031
-792.895
-882.909
-794.245
-841.945
-1308.93
-1507.19
-1312.86
-1502.78
-1305.68
-1498.03
-1499.98
-1303.79
-704.932
-710.471
-801.211
-851.845
-889.488
-801.233
-847.427
-843.198
-797.474
-884.597
-796.731
-846.891
-1304.09
-1496.36
-1496.81
-1303.61
-1304.06
-1496.77
-1497.18
-1303.67
-504.753
-501.064
-652.502
-595.813
-625.297
-664.429
-593.196
-649.154
-667.128
-655.33
-671.307
-599.851
-627.293
-596.227
-656.927
-669.474
-557.869
-665.112
-667.073
-556.131
-469.432
-369.281
-471.407
-367.599
-558.59
-671.378
-560.564
-669.181
-468.344
-365.01
-467.193
-366.151
-505.454
-510.428
-665.895
-607.967
-680.779
-637.259
-667.644
-605.31
-679.33
-663.209
-674.287
-605.114
-635.231
-602.381
-659.389
-677.182
-550.189
-663.101
-660.491
-554.34
-459.428
-357.244
-456.97
-358.926
-548.655
-654.657
-545.467
-656.67
-462.278
-363.732
-465.978
-361.399
-1534.94
-1532.48
-1528.22
-1530.42
-1523.13
-1524.51
-1526.74
-1525.68
-1506.79
-1508.76
-1512.8
-1511.04
-1521.44
-1519.73
-1515.25
-1517.63
-1467.3
-1469.58
-1474.99
-1472.83
-1486.35
-1484.19
-1478.38
-1481.09
-1504.33
-1502.25
-1497.4
-1499.7
-1489.08
-1490.94
-1494.85
-1493.24
-700.681
-504.163
-620.426
-584.55
-702.019
-621.165
-585.933
-706.011
-512.405
-624.587
-590.062
-704.121
-624.33
-588.62
-439.589
-444.183
-584.512
-535.261
-558.629
-599.932
-532.94
-598.206
-586.871
-582.406
-593.172
-532.78
-556.663
-529.486
-578.132
-595.929
-473.943
-580.572
-577.466
-478.326
-390.083
-300.351
-387.385
-302.365
-472.192
-570.786
-468.728
-573.464
-393.275
-307.514
-397.041
-304.94
-440.298
-436.661
-572.518
-523.595
-547.103
-582.626
-520.438
-568.225
-585.632
-574.796
-590.114
-526.562
-548.967
-524.26
-577.041
-588.24
-482.334
-582.59
-584.784
-480.311
-401.37
-312.702
-403.421
-311.129
-483.299
-589.95
-587.292
-485.892
-399.65
-308.756
-398.429
-309.858
-635.894
-640.517
-732.881
-821.547
-786.03
-732.828
-783.244
-778.846
-728.618
-817.797
-729.214
-781.908
-1223.44
-1409.39
-1220.22
-1411.77
-1086.44
-1184.61
-967.971
-1040.55
-1187.3
-1083.75
-1043.68
-1089.15
-1048.95
-971.293
-1192.09
-1190.05
-1046.05
-1091.55
-1225.75
-1417.13
-1415
-1228.34
-636.494
-631.505
-719.48
-808.436
-769.368
-720.054
-772.911
-777.722
-724.313
-812.741
-724.176
-774.252
-1099.37
-1202.16
-980.608
-1058.61
-1200.36
-1056.24
-1101.43
-1236.67
-1428.06
-1425.97
-1238.95
-1096.81
-1051.24
-977.688
-1195.21
-1197.81
-1053.99
-1094.27
-1234.05
-1420.38
-1423.07
-1230.81
-652.087
-647.878
-736.7
-825.907
-787.003
-737.158
-789.839
-793.678
-740.491
-829.378
-740.534
-790.871
-1253.72
-1445.67
-1255.7
-1443.7
-1115.78
-1218.76
-1074.6
-996.301
-1117.56
-1217.21
-1072.57
-1251.45
-1439.03
-1441.27
-1248.83
-1113.66
-1068.55
-993.812
-1212.93
-1215.05
-1070.75
-1111.63
-651.428
-655.411
-747.561
-800.469
-836.525
-747.628
-798.015
-794.468
-744.116
-833.315
-744.515
-796.983
-1105.77
-1204.82
-986.131
-1060.49
-1206.91
-1103.68
-1062.92
-1243.39
-1430.73
-1432.61
-1240.93
-1245.13
-1436.53
-1434.97
-1246.93
-1107.81
-1066.92
-988.762
-1210.46
-1209.03
-1064.69
-1109.59
-453.848
-450.907
-591.365
-540.745
-565.598
-602.643
-537.685
-587.957
-605.119
-593.319
-608.651
-543.279
-567.05
-540.687
-594.82
-607.21
-498.957
-601.337
-603.041
-497.478
-416.049
-324.363
-417.724
-323.054
-499.633
-607.272
-501.76
-604.998
-414.879
-321.235
-414.018
-322.069
-453.319
-457.392
-601.48
-550.551
-616.884
-575.212
-603.279
-548.011
-615.485
-599.549
-611.143
-548.327
-573.472
-545.161
-595.842
-613.574
-491.923
-599.64
-597.037
-495.814
-406.646
-313.773
-404.365
-315.451
-490.443
-591.643
-487.571
-593.633
-409.369
-320.116
-412.855
-317.792
-1463.52
-1460.97
-1453.62
-1456.87
-1439.27
-1442.15
-1449.21
-1446.43
-1403.86
-1407.54
-1416.5
-1412.67
-1434.47
-1431.33
-1422.13
-1426.28
-1319.58
-1326.46
-1337.34
-1329.39
-1358.84
-1354.31
-1342.34
-1349.37
-1398.73
-1395.02
-1384.45
-1389.21
-1363.76
-1367.99
-1378.08
-1373.52
-614.893
-421.166
-533.847
-497.058
-618.233
-535.347
-499.859
-625.784
-437.295
-542.158
-507.709
-621.571
-541.423
-504.953
-359.88
-364.524
-459.384
-426.382
-438.701
-471.834
-425.658
-466.904
-466.55
-455.525
-455.874
-421.019
-435.809
-418.628
-447.421
-461.302
-329.991
-429.334
-422.606
-337.774
-263.58
-216.626
-260.283
-220.311
-326.22
-408.693
-324.224
-415.405
-269.682
-227.124
-276.184
-223.332
-364.315
-360.892
-433.233
-406.288
-421.712
-428.92
-405.076
-421.815
-437.02
-438.213
-448.909
-411.78
-424.067
-411.386
-445.589
-443.827
-349.279
-433.76
-439.915
-341.891
-290.282
-236.902
-295.857
-233.428
-353.195
-454.029
-446.912
-361.599
-284.376
-228.638
-279.322
-231.382
-536.162
-543.175
-635.347
-722.665
-690.928
-635.861
-687.887
-685.15
-631.721
-719.666
-631.327
-686.798
-1103.24
-1267.76
-1104.8
-1273.04
-1106.43
-1283.48
-1276.85
-1107.74
-540.409
-534.669
-633.029
-717.113
-691.041
-629.366
-687.658
-684.916
-628.248
-715.782
-630.437
-685.623
-1120.05
-1303.63
-1299.76
-1122.92
-1116.06
-1288.46
-1294.72
-1112.46
-561.842
-552.764
-641.212
-729.416
-691.834
-641.367
-695.88
-702.252
-647.707
-734.851
-647.53
-697.43
-1152.86
-1342.37
-1157.24
-1338.76
-1148.48
-1328.31
-1333
-1143.05
-560.436
-569.303
-662.821
-717.051
-749.93
-662.411
-711.778
-704.301
-654.779
-743.495
-655.714
-709.463
-1130.23
-1308.81
-1312.52
-1126.18
-1134.03
-1322.25
-1318.15
-1138.53
-378.175
-371.844
-476.777
-437.563
-454.09
-478.763
-434.989
-468.452
-484.43
-480.683
-494.907
-443.902
-457.658
-442.859
-487.657
-490.088
-399.072
-485.035
-491.302
-392.106
-331.292
-262.855
-336.18
-259.029
-402.408
-504.318
-409.442
-497.96
-325.395
-252.282
-320.856
-255.883
-376.746
-383.771
-501.455
-462.002
-516.997
-477.769
-508.125
-460.7
-512.451
-497.521
-501.634
-456.027
-473.849
-453.04
-489.129
-507.12
-378.387
-480.296
-473.244
-387.426
-303.938
-238.364
-298.857
-241.831
-374.133
-458.647
-366.132
-465.417
-310.868
-249.825
-317.259
-245.265
-1318.05
-1310.1
-1292.83
-1307.67
-1226.48
-1255.38
-1286
-1261.79
-1050.63
-1016.97
-858.836
-882.154
-1205.71
-1148.19
-982.065
-1103.62
-1055.35
-1091.39
-1301.58
-1193.67
-1198.65
-1097.42
-1050.49
-944.216
-1076.92
-1000.44
-1158.36
-956.489
-1056.08
-991.25
-911.958
-939.982
-1126.18
-974.559
-1015.7
-969.593
-881.045
-1142.83
-1190.46
-1294.21
-1396.89
-1291.78
-1145.39
-1187.37
-1263.98
-1412.45
-1267.86
-1277.75
-1417.78
-1274.29
-1256.77
-1394.7
-1252.26
-1387.94
-1239.23
-1244.24
-1129.45
-1275.22
-1141.07
-1162.34
-1287.91
-1153.81
-973.705
-1094.44
-1006.74
-1200.72
-969.445
-1104.05
-1010.68
-981.387
-1022.93
-1121.31
-1209.87
-1113.86
-985.769
-1016.95
-1107.39
-1215.63
-1083.65
-1175.33
-1003.39
-1037.14
-1174.21
-1319.27
-1432.72
-1211.13
-1220.63
-1324.62
-1168.95
-1181.09
-1441
-1229.49
-1332.22
-1028.33
-1163.42
-1271.18
-1061.46
-1068.76
-1169.71
-1022.54
-1037.01
-1083.97
-1184.96
-1279.41
-1042.46
-1077.07
-1179.17
-1366.02
-1521.67
-1371.37
-1529.39
-1379.02
-1157.6
-1311.08
-1202.32
-1407.96
-1161.72
-1306.97
-1197.41
-1152.18
-1193.07
-1298.96
-1404.79
-1149.82
-1301.06
-1194.34
-1283.53
-1431.61
-1286.57
-1208.4
-1356.97
-1214.79
-1230.36
-1365.47
-1224.53
-1198.21
-1329.58
-1191.17
-1173.1
-1319.59
-1180.65
-1007.73
-1153.72
-1053.03
-1245.14
-1013.57
-1146.95
-1045.42
-999.02
-1030.07
-1130.4
-1236.19
-993.716
-1137.4
-1036.97
-1182.58
-1281.42
-1060.92
-1132.51
-1287.07
-1138.58
-1176.52
-1189.25
-1152.58
-1298.71
-1066.25
-1292.99
-1196.13
-1146.12
-1160.72
-1304.52
-1164.66
-1202.9
-1074.88
-1028.68
-957.149
-1172.34
-1175.58
-1032.21
-1071.7
-1061.67
-1158.93
-944.842
-1015.14
-1162.29
-1019.09
-1058.32
-1065.15
-1025.8
-949.035
-1168.44
-1165.75
-1022.09
-1068.22
-1030.72
-1127.02
-916.008
-983.651
-1131.1
-988.252
-1026.86
-1034.97
-996.389
-1138.73
-920.962
-1135.2
-1038.72
-991.859
-1051.25
-1154.73
-1012.1
-935.868
-1054.63
-1151.6
-1008.12
-1047.11
-1000.09
-931.223
-1143.48
-1147.58
-1004.52
-1043.14
-980.831
-1069.31
-864.027
-944.42
-1063.93
-949.054
-978.868
-981.229
-953.636
-865.611
-1054.7
-1065.14
-950.258
-981.104
-969.612
-1006.45
-838.946
-943.107
-1026.05
-948.172
-964.034
-975.599
-952.087
-848.635
-1049.81
-1034.92
-952.511
-978.214
-928.558
-985.65
-933.118
-789.247
-949.037
-956.698
-911.736
-892.096
-848.919
-770.343
-888.314
-925.154
-879.799
-854.347
-1161.77
-1264.97
-1039.13
-1119.65
-1264.17
-1118.42
-1162.8
-1160.03
-1114.56
-1036.93
-1259.92
-1262.31
-1116.84
-1157.65
-1167.81
-1276.2
-1127.73
-1050.05
-1171.51
-1272.95
-1123.65
-1164.93
-1119.37
-1046.49
-1268.4
-1269.99
-1121.31
-1163.66
-1163.98
-1266.39
-1041.96
-1120.18
-1266.86
-1163.63
-1120.96
-1163.93
-1120.7
-1043.75
-1266.96
-1267.4
-1120.1
-1163.55
-976.863
-1068.04
-867.788
-942.088
-1072.69
-977.679
-939.193
-977.921
-939.647
-866.539
-1076.59
-1072.06
-939.72
-979.389
-988.975
-1090.13
-876.45
-950.049
-1086.21
-947.541
-991.483
-985.576
-942.628
-874.255
-1078.61
-1083.98
-944.559
-982.676
-1018.92
-1122.39
-980.23
-905.463
-1022.62
-1118.64
-975.809
-1014.33
-967.271
-900.58
-1109.68
-1114.44
-971.852
-1010.16
-997.884
-1093.27
-885.638
-952.559
-1097.6
-994.816
-955.928
-1001.86
-963.337
-889.647
-1105.06
-1101.02
-959.197
-1005.47
)
;

boundaryField
{
    left
    {
        type            calculated;
        value           nonuniform List<scalar> 0();
    }
    bottom
    {
        type            calculated;
        value           nonuniform List<scalar> 
214
(
-1138.46
-1066.33
-941.38
-1146.81
-1077.99
-964.25
-1185.9
-1115.13
-1023.78
-1173.83
-1106.79
-1007.9
-826.288
-819.173
-1130.64
-762.415
-751.429
-1053.41
-662.219
-624.702
-886.626
-1155.3
-841.45
-833.672
-1088.47
-781.622
-772.475
-978.479
-688.575
-678.696
-561.22
-869.225
-517.499
-527.103
-505.067
-514.463
-1123.04
-812.238
-805.166
-459.105
-471.999
-439.231
-454.487
-1039.18
-739.41
-726.242
-344.154
-399.745
-321.926
-849.623
-502.477
-899.636
-859.269
-849.939
-1163.88
-544.551
-557.057
-530.352
-540.786
-797.778
-789.976
-1097.97
-491.529
-501.824
-476.213
-487.927
-712.527
-699.545
-992.513
-420.861
-433.493
-411.195
-417.246
-618.186
-498.686
-644.235
-566.131
-571.258
-521.302
-524.529
-508.864
-512.021
-463.746
-468.221
-444.631
-450.126
-360.113
-387.196
-306.619
-293.525
-473.336
-351.481
-549.384
-553.63
-534.336
-537.839
-495.579
-499.064
-480.715
-484.711
-423.858
-429.042
-412.918
-416.381
-761.494
-677.393
-765.087
-457.584
-577.287
-648.847
-845.006
-564.959
-542.653
-383.938
-386.678
-377.593
-379.529
-388.171
-343.973
-346.123
-339.585
-340.732