/*--------------------------------*- C++ -*----------------------------------*\
| =========                 |                                                 |
| \\      /  F ield         | OpenFOAM: The Open Source CFD Toolbox           |
|  \\    /   O peration     | Version:  2012                                  |
|   \\  /    A nd           | Website:  www.openfoam.com                      |
|    \\/     M anipulation  |                                                 |
\*---------------------------------------------------------------------------*/
FoamFile
{
    version     2.0;
    format      ascii;
    class       volVectorField;
    location    "0.107/solid";
    object      sigmaMinDir;
}
// * * * * * * * * * * * * * * * * * * * * * * * * * * * * * * * * * * * * * //

dimensions      [1 -1 -2 0 0 0 0];


internalField   nonuniform List<vector> 
3125
(
(0.0824207 0.996564 -0.00813297)
(0.0702064 0.997493 -0.00886312)
(0.0546696 0.995179 0.0814272)
(0.0831995 0.996496 -0.00852234)
(0.0726051 0.997321 -0.00885926)
(0.0447135 0.99758 0.0532358)
(0.0857316 0.99625 -0.011666)
(0.0791731 0.99683 -0.00787891)
(0.0595323 0.998221 -0.00337102)
(0.0855751 0.996275 -0.0106384)
(0.0778789 0.99693 -0.00810531)
(0.0545379 0.998507 0.00290083)
(-0.0576211 0.998335 -0.0026674)
(0.184973 0.982692 -0.0100169)
(-0.133145 0.991087 -0.00431775)
(0.0814708 0.996646 -0.00772769)
(-0.0175219 0.999845 -0.0016325)
(-0.133359 0.991063 -0.0031439)
(0.181811 0.983287 -0.00958351)
(-0.122705 0.99238 0.0112366)
(0.14814 0.98892 -0.0095839)
(-0.138022 0.99042 -0.00427612)
(0.0673287 0.997697 -0.0082775)
(-0.0530127 0.99858 0.00523748)
(-0.139966 0.990149 -0.00367869)
(0.13947 0.990192 -0.00827204)
(0.0669465 0.982646 0.172991)
(0.0163 0.99612 0.0864775)
(-0.124642 0.990906 0.0506884)
(0.0936643 0.986637 0.133318)
(-0.270156 0.939313 0.211441)
(-0.0548671 0.998413 -0.012688)
(0.0462389 0.990924 0.126217)
(-0.0438664 0.999026 -0.0047595)
(-0.043307 0.999057 -0.00322338)
(-0.0144169 0.999893 -0.00240316)
(0.0840337 0.996425 -0.00872889)
(0.187639 0.982182 -0.0104518)
(-0.132939 0.991113 -0.00480712)
(-0.0476452 0.998857 -0.00370385)
(-0.132266 0.99121 -0.00304295)
(0.190539 0.981617 -0.0111204)
(-0.043947 0.999024 -0.00448842)
(-0.044105 0.999022 -0.00324553)
(-0.0475112 0.99886 -0.00459681)
(-0.0462571 0.99892 -0.00433253)
(-0.043047 0.999071 0.00188585)
(0.0746426 0.997173 -0.00863609)
(0.155331 0.987812 -0.00999451)
(-0.137423 0.990503 -0.00421626)
(-0.096224 0.995355 0.00302853)
(-0.135998 0.990701 -0.00398395)
(0.161356 0.986845 -0.0100028)
(-0.0479485 0.998838 -0.00483565)
(-0.0495514 0.998762 -0.00443405)
(-0.0416243 0.998529 0.0347498)
(-0.0506589 0.998628 0.0132598)
(-0.181654 0.977922 0.1033)
(0.0450912 0.998524 0.0302721)
(0.0296508 0.997393 0.0657892)
(-0.132954 0.990075 0.045551)
(-0.313677 0.927069 0.205306)
(-0.142746 0.989577 0.0190208)
(0.0488227 0.997912 0.0422838)
(-0.0348129 0.998687 0.0375799)
(0.0220829 0.998746 -0.0449266)
(-0.132704 0.991117 -0.00878136)
(0.198321 0.980039 -0.0139069)
(-0.0344115 0.999394 -0.00533655)
(-0.148628 0.98888 -0.00518889)
(0.554611 0.83203 -0.0115329)
(0.544604 0.838592 -0.0130478)
(0.54087 0.841078 -0.00692151)
(-0.148252 0.988948 -0.00169588)
(-0.148083 0.988975 -0.00083823)
(-0.0275265 0.999621 -0.000554245)
(0.0803582 0.996736 -0.0077179)
(-0.134398 0.99092 -0.003934)
(0.174878 0.984544 -0.00949328)
(-0.133588 0.991031 -0.00334994)
(-0.0658254 0.997829 -0.00184788)
(0.178389 0.983915 -0.00943688)
(-0.148956 0.988843 -0.00140817)
(-0.148354 0.988934 -0.000962787)
(0.533977 0.845472 -0.00673904)
(0.5389 0.84228 -0.0123177)
(0.505059 0.86301 -0.0113597)
(0.487869 0.872915 -0.00185281)
(-0.152165 0.988355 -0.000942726)
(-0.153839 0.988096 -0.000283756)
(-0.0694952 0.997486 0.0138803)
(0.0638158 0.997939 -0.00673902)
(-0.142834 0.989747 -3.76945e-05)
(0.113889 0.993493 -0.000761205)
(-0.140755 0.990039 -0.00333762)
(-0.162579 0.986121 0.0336533)
(0.12848 0.991696 -0.00570275)
(-0.156031 0.987748 0.00275333)
(-0.154706 0.98796 0.000166463)
(0.439873 0.898001 0.0103109)
(0.47887 0.877867 -0.00570476)
(0.117186 0.989827 0.08068)
(0.334696 0.936593 0.103786)
(-0.143896 0.98837 0.0491791)
(-0.0667409 0.99767 -0.014159)
(0.0757099 0.985109 0.154364)
(0.217063 0.946744 0.237823)
(-0.00568699 0.997453 -0.0710993)
(0.15054 0.977764 0.145999)
(-0.00937272 0.995767 -0.0914375)
(0.397725 0.912569 0.0950346)
(-0.0440783 0.998996 -0.0080425)
(-0.0444557 0.998988 -0.00686227)
(-0.0434965 0.99905 -0.00264921)
(-0.0464766 0.998908 -0.00473678)
(0.0849705 0.996341 -0.00924245)
(-0.1334 0.991037 -0.00702822)
(0.197392 0.980237 -0.0130775)
(0.00859764 0.999957 -0.00341486)
(-0.132416 0.991191 -0.00238655)
(0.194353 0.980857 -0.0120807)
(0.546195 0.837621 -0.00785743)
(0.549486 0.83538 -0.0143713)
(-0.148037 0.988979 -0.00220333)
(-0.147476 0.989065 -0.000585931)
(-0.149722 0.988722 -0.00345642)
(-0.147797 0.989018 7.98544e-05)
(0.553351 0.832789 -0.016302)
(0.551071 0.834403 -0.00960427)
(-0.0449856 0.998979 -0.004062)
(-0.0442561 0.999014 -0.00353055)
(-0.0451733 0.99897 -0.00420009)
(-0.045941 0.998936 -0.0040466)
(-0.0789275 0.99688 -0.000202823)
(0.0763862 0.997044 -0.00831442)
(-0.134688 0.99088 -0.00392036)
(0.170968 0.985229 -0.00968533)
(-0.0340922 0.999419 0.000199611)
(-0.135566 0.990761 -0.0038283)
(0.166502 0.985992 -0.0098106)
(0.51037 0.859933 -0.00614591)
(0.521072 0.853423 -0.0124165)
(-0.151532 0.988452 -0.00107235)
(-0.150344 0.988633 -0.00107288)
(-0.149256 0.988798 -0.00126549)
(-0.149864 0.988706 -0.00108856)
(0.531502 0.846966 -0.01239)
(0.524543 0.851357 -0.0067805)
(-0.141097 0.989995 -0.00146459)
(-0.0517457 0.998659 -0.00184389)
(-0.0501105 0.998734 -0.00437587)
(-0.142388 0.989811 2.76199e-05)
(-0.14151 0.989936 -0.00133928)
(-0.0520834 0.998643 -0.000484906)
(-0.0516264 0.99863 0.00858133)
(-0.1315 0.991083 0.0215044)
(-0.140342 0.990066 0.00852973)
(-0.142627 0.989776 0.000760022)
(-0.141428 0.989932 0.00573451)
(-0.231575 0.968225 0.0944081)
(0.0492999 0.99869 0.0136985)
(-0.143435 0.989658 0.00189318)
(0.0948839 0.995457 0.00794901)
(-0.102826 0.993983 0.0377363)
(-0.14356 0.989555 0.0130935)
(0.0722054 0.997144 0.0221427)
(0.130861 0.987882 0.0834564)
(0.268683 0.961926 0.0500746)
(-0.148954 0.98796 0.041816)
(-0.155182 0.987724 0.0178626)
(-0.156541 0.987662 0.00436463)
(-0.155755 0.987712 0.0128979)
(0.417449 0.908642 0.0102763)
(0.317144 0.947394 0.0431763)
(-0.124865 0.991879 0.0241639)
(-0.0613138 0.996579 -0.0554146)
(0.284788 0.910604 0.299493)
(0.0617356 0.990395 -0.123722)
(-0.0192503 0.990809 -0.133894)
(0.169665 0.985058 0.0295718)
(0.438694 0.820003 0.367618)
(0.230136 0.973045 0.0148374)
(0.345446 0.911498 0.223244)
(0.4447 0.780198 0.439924)
(0.259735 0.965385 0.0238661)
(-0.151276 0.988491 0.00140724)
(-0.0215411 0.999767 -0.00115206)
(-0.265425 0.964126 -0.0031301)
(-0.207129 0.978265 -0.00974998)
(-0.208297 0.978062 -0.00254077)
(-0.265246 0.964178 -0.00220604)
(-0.152214 0.988255 -0.0134943)
(-0.150495 0.988511 -0.0140363)
(-0.0504701 0.99872 -0.00334269)
(-0.20416 0.978932 -0.00340242)
(-0.264604 0.964352 -0.00316369)
(-0.149879 0.988704 0.0005506)
(-0.202704 0.979183 -0.0105204)
(-0.264344 0.964422 -0.00365479)
(-0.168439 0.985707 0.00304997)
(-0.0611268 0.998094 0.00846183)
(-0.276994 0.960871 0.00128548)
(-0.246631 0.969108 -0.00183032)
(-0.248107 0.968724 0.00404051)
(-0.2764 0.961042 0.00106707)
(-0.170362 0.985315 -0.0114787)
(-0.166733 0.985916 -0.013017)
(-0.1084 0.994089 0.00601036)
(-0.240466 0.970657 0.00135225)
(-0.274095 0.961703 -0.000375031)
(-0.165152 0.986266 0.00195358)
(-0.239132 0.970972 -0.00531774)
(-0.27449 0.96159 -0.000821077)
(-0.123624 0.984651 0.123205)
(-0.10659 0.970836 0.214744)
(-0.156826 0.984152 0.0827725)
(-0.0717059 0.987391 0.141129)
(-0.152294 0.974374 0.165537)
(-0.210022 0.9702 0.120839)
(-0.0806061 0.992314 0.0938942)
(-0.150578 0.983306 0.102156)
(-0.241634 0.942865 0.229389)
(-0.24945 0.95634 0.152278)
(-0.271095 0.955052 0.119931)
(-0.172612 0.978815 0.110115)
(-0.200304 0.967997 0.151199)
(-0.246514 0.96078 0.127011)
(-0.148669 0.988776 -0.0147861)
(-0.0529505 0.998589 -0.00411308)
(-0.263722 0.964595 -0.00257135)
(-0.199779 0.979832 -0.00412344)
(-0.14771 0.989031 0.000571609)
(-0.198932 0.979945 -0.0115345)
(-0.263847 0.964555 -0.00440657)
(-0.149173 0.988811 4.63476e-05)
(-0.0199244 0.9998 -0.00185586)
(-0.199959 0.979742 -0.0110813)
(-0.264175 0.964464 -0.00464885)
(-0.14951 0.988649 -0.0148198)
(-0.203458 0.979076 -0.00378339)
(-0.264649 0.964337 -0.00378835)
(-0.161214 0.986823 -0.0137765)
(-0.0875645 0.996158 0.000984854)
(-0.270718 0.962657 -0.00158009)
(-0.229019 0.973421 -0.000927718)
(-0.160081 0.987103 0.00143167)
(-0.227629 0.973714 -0.00814587)
(-0.2709 0.962604 -0.00246253)
(-0.162414 0.986721 0.0015359)
(-0.0479536 0.998845 0.00317008)
(-0.232691 0.972526 -0.00696369)
(-0.272557 0.962138 -0.00178486)
(-0.16374 0.986411 -0.0135399)
(-0.234609 0.97209 1.30723e-06)
(-0.272314 0.962208 -0.00119586)
(-0.1891 0.98086 0.0464123)
(-0.278589 0.948846 0.148589)
(-0.289193 0.955806 0.052943)
(-0.283714 0.955533 0.0803957)
(-0.189896 0.98048 0.0509839)
(-0.277695 0.956692 0.0873306)
(-0.288723 0.955121 0.0662067)
(-0.18782 0.979004 0.0792147)
(-0.237259 0.958273 0.159438)
(-0.260879 0.957171 0.12556)
(-0.281647 0.953918 0.103518)
(-0.181272 0.980335 0.0779958)
(-0.27635 0.953899 0.11708)
(-0.287608 0.953954 0.085169)
(-0.144815 0.989309 -0.0171991)
(-0.0705662 0.99749 -0.00578099)
(-0.261314 0.965235 -0.00596145)
(-0.192205 0.981246 -0.0145945)
(-0.145047 0.989417 -0.00393222)
(-0.0221452 0.99975 -0.00313615)
(-0.261566 0.965145 -0.00881508)
(-0.184662 0.98269 -0.014852)
(-0.262713 0.964843 -0.00769217)
(-0.195828 0.980611 -0.00727736)
(-0.144194 0.989368 -0.0189684)
(-0.221089 0.975197 -0.0105146)
(-0.146953 0.98913 -0.00510619)
(-0.272524 0.962073 -0.0120711)
(-0.27013 0.962823 -0.000809903)
(-0.145984 0.989283 -0.00265865)
(-0.268499 0.963216 -0.0110781)
(-0.22062 0.975304 -0.0103994)
(-0.221574 0.975138 0.00337521)
(0.761524 0.648029 -0.0118411)
(0.738211 0.674536 -0.00674656)
(0.555362 0.831414 -0.0179788)
(0.734683 0.678396 -0.00456262)
(0.757153 0.653153 -0.0104837)
(0.761002 0.648737 0.00398639)
(0.557086 0.830359 -0.0125936)
(0.738981 0.673683 -0.00758546)
(0.749303 0.662145 -0.0104408)
(0.751791 0.659394 0.00312224)
(0.734546 0.678552 -0.00312718)
(0.54437 0.838818 -0.00673477)
(0.736204 0.676743 -0.0047351)
(0.752084 0.65906 0.00321383)
(0.751928 0.659155 -0.0108937)
(0.736732 0.676166 -0.00504314)
(0.542521 0.839937 -0.0133283)
(0.733285 0.679911 -0.0037546)
(-0.223754 0.974616 -0.00760879)
(-0.223927 0.974578 0.00736261)
(-0.272691 0.962092 0.00423335)
(-0.147992 0.988988 -0.00138005)
(-0.271515 0.962409 -0.00689137)
(-0.223613 0.974656 0.00660181)
(-0.222514 0.974899 -0.00766971)
(-0.272074 0.962252 -0.00677411)
(-0.148075 0.988976 -0.000594596)
(-0.272495 0.962141 0.00558)
(-0.153877 0.987995 -0.013694)
(-0.266506 0.963831 -0.00219708)
(-0.0625113 0.998042 -0.00232229)
(-0.212573 0.977143 -0.002265)
(-0.153071 0.988214 0.00148961)
(-0.26658 0.963807 -0.00337967)
(-0.211404 0.977351 -0.00968738)
(-0.154617 0.987974 0.00133065)
(-0.0316393 0.999499 -0.000213007)
(-0.267417 0.963575 -0.00328574)
(-0.214433 0.976694 -0.00936557)
(-0.267513 0.963551 -0.00238686)
(-0.21645 0.976292 -0.00201203)
(-0.155377 0.98776 -0.0137519)
(-0.225179 0.974288 0.00752822)
(-0.224589 0.974423 -0.00767409)
(-0.1487 0.988882 -0.0012214)
(-0.273074 0.961966 -0.00717498)
(-0.273393 0.96189 0.00497912)
(-0.273058 0.961982 0.0054667)
(-0.148397 0.988927 -0.00151443)
(-0.272486 0.962132 -0.00732192)
(-0.225215 0.97428 -0.00750386)
(-0.225914 0.974119 0.0073989)
(0.748833 0.66275 0.00336532)
(0.748541 0.663008 -0.0103452)
(0.73552 0.677487 -0.00465752)
(0.536067 0.844076 -0.0129682)
(0.732133 0.681152 -0.00351458)
(0.74491 0.667086 -0.0102811)
(0.747871 0.663835 0.00343402)
(0.733604 0.679571 -0.00281727)
(0.538314 0.842722 -0.00610787)
(0.735282 0.677749 -0.00421746)
(0.713696 0.700417 -0.00733752)
(0.719933 0.694033 0.00396033)
(0.724008 0.689789 -0.00187887)
(0.501266 0.865283 -0.00420863)
(0.727302 0.686315 -0.001846)
(0.72663 0.687021 0.00321058)
(0.723131 0.690653 -0.00897232)
(0.724974 0.688776 -0.000350966)
(0.494428 0.869162 -0.00994656)
(0.719569 0.69442 -0.00126047)
(-0.232873 0.972504 -0.0024896)
(-0.233478 0.97229 0.0118411)
(-0.277998 0.960557 0.0069)
(-0.152486 0.988305 -0.00112887)
(-0.277348 0.960755 -0.00532128)
(-0.231597 0.972756 0.0104018)
(-0.230869 0.972974 -0.00452087)
(-0.279258 0.960209 -0.00368865)
(-0.153235 0.98819 -0.000473421)
(-0.279525 0.960107 0.00783718)
(-0.174618 0.984599 -0.00858704)
(-0.279145 0.960242 0.00377348)
(-0.140631 0.98987 0.0194929)
(-0.256734 0.966443 0.00865271)
(-0.172427 0.985008 0.00531766)
(-0.279843 0.960034 0.0047169)
(-0.255513 0.966797 0.00399206)
(-0.177004 0.984161 0.0097924)
(-0.0836858 0.996233 0.0227381)
(-0.282838 0.959101 0.011332)
(-0.264257 0.964346 0.0143393)
(-0.282176 0.959324 0.00864348)
(-0.266118 0.96379 0.0170539)
(-0.179378 0.983776 -0.00282657)
(-0.236168 0.971603 0.0145906)
(-0.234998 0.971996 0.000713727)
(-0.155579 0.987822 0.00162033)
(-0.282115 0.959373 0.00375653)
(-0.283416 0.95891 0.0129273)
(-0.281744 0.959439 0.00985929)
(-0.154993 0.987916 0.000286686)
(-0.280742 0.959782 -0.00138909)
(-0.237417 0.971385 0.00662637)
(-0.238804 0.970886 0.0187797)
(0.70858 0.70561 0.00533028)
(0.700274 0.713854 -0.00536445)
(0.712841 0.701293 0.00676761)
(0.456229 0.889862 -0.000553272)
(0.705733 0.708466 0.00396347)
(0.672378 0.740207 -0.000729809)
(0.69205 0.721811 0.00743134)
(0.71461 0.699521 0.00143958)
(0.4705 0.882395 0.00304029)
(0.719125 0.694875 0.00282836)
(0.0497855 0.978584 0.199736)
(-0.1279 0.976258 0.174822)
(0.474135 0.876037 0.0880661)
(0.140876 0.986629 0.0819638)
(0.456776 0.885967 0.0801101)
(0.0895715 0.985315 0.145363)
(-0.0908167 0.983123 0.158814)
(0.375055 0.915743 0.144047)
(0.21726 0.972825 0.0800657)
(0.32236 0.939516 0.115731)
(-0.138793 0.988806 0.0547717)
(-0.245769 0.956901 0.154722)
(-0.27876 0.954012 0.110242)
(-0.132656 0.990047 0.0469924)
(-0.248326 0.963646 0.0985924)
(-0.271123 0.952431 0.139166)
(-0.245394 0.960839 0.128723)
(-0.137854 0.990304 0.0171526)
(-0.110346 0.993491 0.0282687)
(-0.235317 0.96572 0.109594)
(0.0588785 0.986923 0.150053)
(-0.0822771 0.995638 0.0439899)
(0.27097 0.909916 0.314052)
(-0.0365717 0.982476 0.182766)
(-0.0216993 0.991196 0.130614)
(0.00584356 0.999521 0.0303751)
(0.114171 0.96176 0.248962)
(0.116503 0.991912 0.0503785)
(0.0227263 0.991529 -0.127881)
(-0.0732913 0.992992 -0.0927092)
(0.177789 0.983871 0.0197441)
(0.175067 0.984464 0.0134826)
(0.334907 0.932375 0.136064)
(0.402653 0.912757 0.0688827)
(0.325887 0.927334 0.183984)
(0.125532 0.989694 0.0689011)
(0.556941 0.814036 0.164812)
(-0.0322178 0.998989 -0.0313504)
(0.387582 0.907911 0.159616)
(-0.0993362 0.994384 0.0364979)
(0.00240797 0.999565 -0.0293811)
(-0.0154031 0.992671 -0.119865)
(-0.0959527 0.993088 -0.0675973)
(-0.111226 0.993738 -0.0106897)
(0.0116214 0.989441 -0.144472)
(-0.0908381 0.983171 -0.158501)
(-0.0175267 0.999236 0.0349192)
(0.102229 0.973411 0.204989)
(0.598603 0.785666 0.156219)
(0.396303 0.908442 0.132956)
(0.629142 0.772387 0.0871664)
(0.681416 0.708489 0.18362)
(0.468766 0.871776 0.142356)
(0.478764 0.868261 0.130033)
(0.652207 0.752686 0.089948)
(-0.144706 0.989475 0.000171838)
(0.00594527 0.999977 -0.00337817)
(-0.262194 0.96501 -0.00314244)
(-0.191454 0.98143 -0.0118461)
(-0.146306 0.989136 -0.0142872)
(-0.261709 0.965144 -0.0023053)
(-0.190202 0.981732 -0.0050091)
(-0.143618 0.989501 -0.0161622)
(-0.0271792 0.999615 -0.00552236)
(-0.261539 0.965173 -0.00613929)
(-0.185305 0.982657 -0.00692572)
(-0.143413 0.989659 -0.00288678)
(-0.260681 0.965412 -0.00492026)
(-0.181375 0.983321 -0.0135224)
(0.755546 0.655091 0.00237811)
(0.755555 0.654992 -0.0110185)
(0.73761 0.675205 -0.00550891)
(0.54757 0.836639 -0.0142445)
(0.734374 0.678733 -0.00393342)
(0.752373 0.658651 -0.0106836)
(0.755183 0.655505 0.0034289)
(0.735044 0.678009 -0.00379252)
(0.549291 0.835593 -0.00794962)
(0.737317 0.675525 -0.00542483)
(-0.223196 0.974747 0.00720416)
(-0.222685 0.974853 -0.0085601)
(-0.271869 0.962299 -0.00825874)
(-0.147684 0.989032 -0.00208221)
(-0.272035 0.962281 0.00352274)
(-0.222643 0.974864 -0.00839156)
(-0.223648 0.974651 0.00609717)
(-0.272119 0.962246 0.00590844)
(-0.147376 0.989079 -0.00191265)
(-0.271193 0.962489 -0.00832581)
(-0.221511 0.975128 -0.0076127)
(-0.221854 0.975052 0.00736545)
(-0.27417 0.961681 0.000917452)
(-0.149237 0.9888 -0.00143697)
(-0.27234 0.962181 -0.00618867)
(-0.221628 0.975122 0.00422667)
(-0.219337 0.97562 -0.0074928)
(-0.271235 0.962495 -0.00585195)
(-0.148684 0.988885 0.00042122)
(-0.273381 0.961882 0.00670859)
(0.755368 0.655189 -0.0120933)
(0.756995 0.653419 0.00158251)
(0.733913 0.679231 -0.00417263)
(0.553686 0.832665 -0.0100401)
(0.736343 0.676577 -0.00656524)
(0.756668 0.65379 0.00341983)
(0.756573 0.653789 -0.0125385)
(0.737878 0.6749 -0.00679174)
(0.552188 0.833563 -0.0161667)
(0.733447 0.679726 -0.00527168)
(-0.157961 0.987444 0.00145256)
(-0.0390078 0.999239 0.000876211)
(-0.269507 0.962995 -0.00266965)
(-0.222789 0.974829 -0.00857981)
(-0.159016 0.987181 -0.0136653)
(-0.269341 0.963043 -0.00183657)
(-0.22446 0.974482 -0.00134465)
(-0.157032 0.987498 -0.0137579)
(-0.0719738 0.997406 -0.001274)
(-0.268272 0.963341 -0.00216365)
(-0.219833 0.975536 -0.00188395)
(-0.156142 0.987734 0.00132453)
(-0.268248 0.963345 -0.00303277)
(-0.218579 0.975776 -0.009203)
(0.737571 0.675262 0.00309476)
(0.735676 0.677258 -0.010066)
(0.73046 0.682947 -0.00342476)
(0.514578 0.857347 -0.012878)
(0.726069 0.687615 -0.00315645)
(0.72902 0.684425 -0.00965072)
(0.733839 0.679316 0.00309612)
(0.728863 0.684654 -0.00267095)
(0.518967 0.854773 -0.00605805)
(0.731281 0.682068 -0.0034425)
(-0.22861 0.973479 0.00873874)
(-0.227936 0.973655 -0.00638345)
(-0.27625 0.961067 -0.00597999)
(-0.151065 0.988523 -0.000979324)
(-0.276467 0.961004 0.00614568)
(-0.229384 0.97332 -0.00564495)
(-0.229968 0.973154 0.009276)
(-0.2756 0.961254 0.00595621)
(-0.15055 0.988601 -0.0014238)
(-0.275023 0.961415 -0.00654395)
(-0.226962 0.97388 -0.00684423)
(-0.227258 0.9738 0.00819096)
(-0.274119 0.961681 0.0053119)
(-0.149224 0.988802 -0.001419)
(-0.273232 0.961924 -0.00684167)
(-0.226597 0.973957 0.0078173)
(-0.225745 0.97416 -0.00715819)
(-0.274275 0.961629 -0.00660985)
(-0.149566 0.988751 -0.000902158)
(-0.274484 0.961575 0.00569123)
(0.73879 0.67386 -0.0101054)
(0.742451 0.669893 0.00312821)
(0.731769 0.681547 -0.00282544)
(0.530426 0.847709 -0.00615934)
(0.733729 0.679431 -0.00396234)
(0.744113 0.668046 0.00315857)
(0.743236 0.668948 -0.0103794)
(0.733522 0.679652 -0.00430093)
(0.527382 0.849527 -0.0131102)
(0.72978 0.683673 -0.00348426)
(-0.142049 0.989859 -0.000643145)
(-0.141809 0.989893 -0.00154405)
(-0.135695 0.990633 0.0152525)
(-0.138558 0.990296 0.0107639)
(-0.142551 0.989787 0.00118316)
(-0.142119 0.989844 0.00324155)
(-0.186689 0.981938 0.030737)
(-0.1355 0.988794 0.0626669)
(-0.28803 0.956802 0.0395964)
(-0.278647 0.958854 0.0543503)
(-0.18828 0.981853 0.0226908)
(-0.287685 0.957228 0.0308453)
(-0.281431 0.958223 0.0510455)
(-0.18422 0.982862 0.0066788)
(-0.192409 0.979678 0.0566455)
(-0.285053 0.95836 0.0170552)
(-0.274617 0.961073 0.0304032)
(-0.181951 0.983149 0.0176797)
(-0.285726 0.958066 0.0216876)
(-0.272681 0.961634 0.0300741)
(0.490197 0.870108 0.0511798)
(0.388069 0.918644 0.0741307)
(0.585292 0.80792 0.0685527)
(0.166725 0.983334 0.0725079)
(0.582625 0.810478 0.0606047)
(0.187749 0.974329 0.124232)
(0.330046 0.939094 0.095772)
(0.638176 0.768981 0.0374235)
(0.218687 0.97351 0.0667342)
(0.640547 0.766591 0.0451421)
(-0.251632 0.965965 0.0599368)
(-0.251833 0.965899 0.0601599)
(-0.278607 0.95663 0.0850725)
(-0.152004 0.987883 0.0313246)
(-0.286702 0.95525 0.0727998)
(-0.259394 0.960362 0.102075)
(-0.261468 0.960677 0.0934585)
(-0.286839 0.956862 0.0462414)
(-0.153985 0.987806 0.0229809)
(-0.283692 0.957693 0.0484154)
(-0.244374 0.969121 0.0329524)
(-0.245897 0.968532 0.0384876)
(-0.285338 0.958236 0.0191515)
(-0.156454 0.987669 0.00573765)
(-0.283107 0.959022 0.0112686)
(-0.242087 0.969895 0.0264238)
(-0.240548 0.970507 0.0159288)
(-0.283307 0.958672 0.0261715)
(-0.156271 0.987673 0.00899114)
(-0.286444 0.95767 0.0285903)
(0.532473 0.84583 0.0323058)
(0.597684 0.801348 0.0248181)
(0.693318 0.720556 0.0104368)
(0.392644 0.919386 0.0236505)
(0.699341 0.71464 0.0145684)
(0.657997 0.752916 0.0125433)
(0.62235 0.782679 0.00968778)
(0.678814 0.733844 0.0261464)
(0.357644 0.933483 0.0264494)
(0.671904 0.740362 0.0202391)
(-0.114238 0.993308 0.0170116)
(-0.0940915 0.995533 -0.00780936)
(0.0512026 0.988748 -0.140557)
(0.204636 0.978815 0.00676937)
(0.0148282 0.990991 -0.133107)
(-0.0208657 0.987814 -0.154235)
(-0.385469 0.922701 0.00602556)
(-0.025699 0.999667 -0.00247994)
(-0.140724 0.990043 -0.00337494)
(0.0914933 0.995805 -0.000939801)
(0.0843073 0.996419 -0.00648907)
(-0.150354 0.988632 0.000501537)
(-0.385303 0.922701 -0.0128192)
(-0.089735 0.995954 -0.00478996)
(-0.0389325 0.999241 -0.00095128)
(-0.228881 0.973447 -0.00390138)
(-0.133156 0.991088 -0.00381948)
(-0.0894654 0.995959 -0.00786665)
(-0.0392284 0.999169 -0.011103)
(-0.22885 0.973456 -0.00333579)
(-0.384572 0.922976 -0.0148386)
(-0.0468799 0.998894 -0.00352983)
(0.0837836 0.996476 -0.00387462)
(-0.149393 0.988778 0.000739077)
(-0.384388 0.923155 0.00554854)
(0.101451 0.99484 -0.00111718)
(-0.137438 0.9905 -0.00459288)
(-0.0902782 0.995892 -0.00700298)
(-0.229224 0.97337 -0.00274489)
(-0.133234 0.99108 -0.00310238)
(-0.0397973 0.999152 -0.010565)
(-0.0393863 0.999224 -8.39277e-05)
(-0.229056 0.973409 -0.00271309)
(-0.0907719 0.995863 -0.00427138)
(-0.395504 0.918367 0.0133666)
(-0.0659824 0.997785 0.00841487)
(-0.163639 0.986493 0.00734277)
(0.0399531 0.999154 0.00973407)
(0.0192661 0.999811 0.00270045)
(-0.180874 0.983458 0.00978138)
(-0.395241 0.918564 -0.00496666)
(-0.101216 0.994852 -0.00488657)
(-0.0463268 0.998925 -0.00135443)
(-0.234536 0.972103 -0.00296669)
(-0.138551 0.990346 -0.00436375)
(-0.100163 0.99494 -0.00784898)
(-0.047318 0.998809 -0.0119104)
(-0.235042 0.971981 -0.00283223)
(-0.393578 0.919224 -0.0111007)
(-0.0997581 0.995005 0.00378326)
(0.0285785 0.999589 0.00233437)
(-0.174115 0.984701 0.00684389)
(-0.39323 0.919376 0.0108349)
(0.0540209 0.998532 0.00386524)
(-0.158188 0.987408 0.00101696)
(-0.221491 0.962709 0.155346)
(0.0722645 0.980951 0.180312)
(-0.0328641 0.990438 0.13399)
(0.192025 0.96903 0.155268)
(0.135753 0.977169 0.163439)
(-0.119642 0.97467 0.188956)
(-0.183813 0.976009 0.116703)
(-0.358689 0.922987 0.139417)
(-0.304835 0.92618 0.221959)
(-0.155989 0.971135 0.180456)
(-0.292839 0.937795 0.186508)
(-0.37878 0.91158 0.159837)
(-0.0935797 0.980492 0.172856)
(-0.267398 0.946222 0.182106)
(0.0431463 0.99902 -0.00988069)
(-0.0435364 0.999041 -0.0045895)
(0.0432557 0.99906 -0.00285049)
(0.0435599 0.999049 -0.00207722)
(-0.0433403 0.999051 -0.00424861)
(0.0435457 0.999006 -0.00955125)
(-0.384532 0.922987 -0.0151859)
(-0.0488467 0.998796 -0.0045879)
(-0.149067 0.988827 0.000574369)
(0.0862575 0.996262 -0.00455836)
(-0.383789 0.923403 0.0057242)
(0.103435 0.994634 -0.00207867)
(-0.136911 0.990569 -0.00536798)
(-0.0888657 0.996009 -0.00829749)
(-0.0388081 0.999176 -0.0118433)
(-0.228644 0.9735 -0.00448148)
(-0.132637 0.991154 -0.00468743)
(-0.0890798 0.996009 -0.00564084)
(-0.0384176 0.999261 -0.00125663)
(-0.228426 0.973551 -0.00448012)
(-0.384257 0.923216 0.00441589)
(-0.017957 0.999833 -0.00333473)
(0.100765 0.994909 -0.00174532)
(-0.136892 0.990577 -0.00424877)
(-0.383537 0.923419 -0.0140017)
(0.0922358 0.995711 -0.00724243)
(-0.147529 0.989058 -0.000506136)
(0.0429085 0.999075 -0.0027266)
(-0.043914 0.999027 -0.00403116)
(0.0429301 0.999035 -0.00929723)
(-0.043906 0.99903 -0.00326944)
(0.0425841 0.999055 -0.00870741)
(0.0427134 0.999086 -0.00187916)
(-0.390705 0.920424 -0.0130083)
(-0.0808604 0.996725 5.39878e-05)
(-0.164972 0.98629 0.00392965)
(0.0482639 0.998834 -0.000727697)
(-0.390378 0.920615 0.00853435)
(0.0694928 0.997582 0.00127659)
(-0.151748 0.988418 -0.00183005)
(-0.0981045 0.995145 -0.00787175)
(-0.0457229 0.998884 -0.0118373)
(-0.233792 0.972282 -0.00306509)
(-0.136896 0.990577 -0.00413578)
(-0.0990156 0.995073 -0.0050715)
(-0.0448327 0.998994 -0.00121441)
(-0.233291 0.972402 -0.00316155)
(-0.391753 0.920027 0.00887987)
(-0.0510561 0.998694 0.00200215)
(0.0596256 0.998215 0.00335669)
(-0.154839 0.987939 0.00111767)
(-0.391426 0.920155 -0.0100165)
(0.0446699 0.998998 -0.00282696)
(-0.168721 0.985654 0.00436993)
(-0.09713 0.995259 -0.00505942)
(-0.232288 0.972642 -0.00316215)
(-0.0435829 0.999049 -0.00095928)
(-0.136377 0.990648 -0.00426148)
(-0.0443158 0.998949 -0.0116979)
(-0.0963752 0.995315 -0.00767885)
(-0.232634 0.972559 -0.00329757)
(-0.4031 0.912972 0.0631866)
(-0.254785 0.959547 0.119808)
(-0.245449 0.965521 0.0867442)
(-0.112713 0.989713 0.0881117)
(-0.405297 0.910741 0.0792802)
(-0.0742821 0.993054 0.0912492)
(-0.227143 0.969918 0.0875473)
(-0.392936 0.909377 0.136511)
(-0.259867 0.947679 0.185403)
(-0.109203 0.981418 0.157777)
(-0.268436 0.949293 0.163663)
(-0.381269 0.915925 0.125358)
(-0.146757 0.977425 0.151994)
(-0.283241 0.945818 0.158755)
(-0.381939 0.924187 -8.64458e-05)
(-0.00414704 0.999979 -0.00491104)
(-0.12876 0.991658 -0.00599299)
(0.120484 0.992711 -0.00290121)
(-0.144223 0.989541 -0.00273725)
(0.102391 0.994706 -0.00875036)
(-0.379867 0.924878 -0.0173922)
(0.317228 0.948342 -0.00362881)
(0.319624 0.947544 -0.00068592)
(0.107795 0.994113 -0.0109158)
(0.218992 0.975703 -0.00681117)
(-0.00914768 0.999928 -0.00781866)
(0.104822 0.994482 -0.00429512)
(0.111393 0.993776 -0.000432917)
(0.0588921 0.998241 -0.00688678)
(0.306372 0.951907 -0.00297137)
(0.312881 0.949792 0.000198199)
(0.316331 0.948649 0.000662757)
(0.309792 0.950798 -0.00333194)
(-0.386895 0.922017 -0.0140482)
(-0.154071 0.988058 0.00178786)
(-0.0579681 0.998315 -0.00253065)
(0.0726933 0.99735 -0.00290881)
(-0.386457 0.922282 0.00689624)
(-0.143045 0.989709 -0.00385771)
(0.0902157 0.995922 -0.000372946)
(-0.0924746 0.995688 -0.00734893)
(-0.0413304 0.999083 -0.0111424)
(-0.134107 0.99096 -0.00377734)
(-0.23043 0.973083 -0.00338014)
(-0.230183 0.973142 -0.00333151)
(-0.0408135 0.999167 -0.000477304)
(-0.0929563 0.995659 -0.00473389)
(-0.0918748 0.99576 -0.00456636)
(-0.229587 0.973284 -0.00292954)
(-0.0400618 0.999197 -0.00013054)
(-0.133789 0.991003 -0.00379613)
(-0.0913944 0.99579 -0.00702337)
(-0.229773 0.973239 -0.00330613)
(-0.0405212 0.999119 -0.0109201)
(-0.387382 0.921897 0.00635589)
(-0.0330902 0.999451 -0.00171424)
(-0.144727 0.989468 -0.00273385)
(0.083064 0.996544 -0.00034824)
(-0.155072 0.987903 0.00107066)
(0.0742443 0.997223 -0.00583014)
(-0.386988 0.921999 -0.0125962)
(0.31173 0.95017 0.00105945)
(0.305113 0.952311 -0.00309608)
(0.303168 0.952933 -0.00267868)
(0.309581 0.950873 0.000510266)
(0.0564753 0.998404 0.000824292)
(-0.00287039 0.99998 -0.00561)
(-0.0517655 0.998636 -0.00686439)
(0.0602575 0.998177 -0.00345033)
(-0.238144 0.971163 0.0113721)
(-0.112032 0.993652 0.0102677)
(-0.0894803 0.995952 0.0085623)
(-0.173087 0.984903 0.00261676)
(0.28295 0.959134 0.000993879)
(0.296101 0.955151 0.00342177)
(0.300997 0.953621 0.002803)
(0.290325 0.956927 -0.00152271)
(-0.397997 0.917374 -0.0047394)
(-0.188303 0.982009 0.0141432)
(-0.128679 0.991589 0.013892)
(-0.00155723 0.999945 0.0103589)
(-0.397675 0.917367 0.0171238)
(-0.168851 0.985604 0.00863204)
(0.0301482 0.99948 0.0114616)
(-0.400523 0.915884 0.0271514)
(-0.0930713 0.995309 0.0264089)
(-0.178771 0.983593 0.0242157)
(0.0079403 0.999603 0.0270503)
(-0.199287 0.979623 0.0249681)
(-0.0195478 0.999633 0.0187581)
(-0.399646 0.916611 0.0103461)
(0.294167 0.955738 0.00548777)
(0.279575 0.960123 0.00132326)
(0.265111 0.964184 0.00809612)
(0.284272 0.958698 0.00938682)
(-0.159246 0.987008 0.0213564)
(-0.249672 0.968178 0.0171523)
(-0.309594 0.949923 0.042403)
(-0.199118 0.979309 0.036132)
(0.34355 0.926437 0.153908)
(0.269883 0.946918 0.17467)
(-0.241082 0.943667 0.226654)
(-0.203794 0.955255 0.214371)
(0.200389 0.977312 0.0685939)
(0.17546 0.977177 0.11975)
(0.0563467 0.989217 0.135185)
(0.00394242 0.989695 0.14314)
(-0.146029 0.976468 0.158699)
(-0.0108164 0.99067 0.13585)
(-0.0827529 0.952945 0.291631)
(0.154378 0.978422 0.137321)
(-0.197705 0.967317 0.158778)
(0.149771 0.984972 0.0860172)
(0.311079 0.93363 0.177665)
(0.152399 0.979255 0.133544)
(0.279862 0.907003 0.314679)
(0.141533 0.975241 0.169922)
(0.154124 0.968695 0.194618)
(0.0903794 0.983373 0.15751)
(0.200155 0.967576 0.154062)
(0.228587 0.943005 0.241847)
(0.0771435 0.993263 0.0864692)
(-0.0919521 0.995333 -0.0292793)
(0.0793783 0.995305 0.0553842)
(0.0344281 0.992766 -0.115021)
(0.0209041 0.996509 0.0808202)
(-0.0376545 0.995586 -0.0859661)
(0.124532 0.991518 0.0372044)
(0.140362 0.982627 0.121421)
(0.0943609 0.982377 0.161343)
(0.123075 0.978707 0.16427)
(0.241802 0.95692 0.160734)
(0.0707126 0.985903 0.151644)
(0.219125 0.966353 0.134709)
(0.203348 0.960325 0.190854)
(0.270725 0.961652 0.0439748)
(0.314671 0.949194 0.00356927)
(0.374865 0.92122 0.104064)
(-0.0492511 0.931266 0.360995)
(0.0431552 0.999055 -0.0052108)
(-0.0442873 0.999007 -0.00494018)
(0.0433983 0.998999 -0.010831)
(0.0436582 0.999007 -0.00890014)
(-0.043805 0.999036 -0.00297675)
(0.0434509 0.999053 -0.00241578)
(-0.381558 0.924334 0.00459821)
(-0.00724289 0.999963 -0.00474209)
(-0.132272 0.991202 -0.00469377)
(0.108064 0.994141 -0.00261197)
(-0.381981 0.92407 -0.0135889)
(-0.143525 0.989646 -0.000971855)
(0.10241 0.994704 -0.00873175)
(-0.379514 0.92502 -0.0175183)
(-0.0250953 0.999669 -0.00563009)
(-0.14233 0.989818 -0.00146188)
(0.103727 0.994591 -0.00542448)
(-0.380026 0.924974 0.00173148)
(-0.125469 0.992078 -0.00622904)
(0.127619 0.991819 -0.00295471)
(0.122875 0.992421 -0.00157689)
(0.0484038 0.998794 -0.00817627)
(0.0378511 0.999242 -0.00912537)
(0.145663 0.98932 -0.00528363)
(0.317194 0.948361 0.000255405)