/*--------------------------------*- C++ -*----------------------------------*\
| =========                 |                                                 |
| \\      /  F ield         | OpenFOAM: The Open Source CFD Toolbox           |
|  \\    /   O peration     | Version:  2012                                  |
|   \\  /    A nd           | Website:  www.openfoam.com                      |
|    \\/     M anipulation  |                                                 |
\*---------------------------------------------------------------------------*/
FoamFile
{
    version     2.0;
    format      ascii;
    class       volScalarField;
    location    "0.107/solid";
    object      sigmaMid;
}
// * * * * * * * * * * * * * * * * * * * * * * * * * * * * * * * * * * * * * //

dimensions      [1 -1 -2 0 0 0 0];


internalField   nonuniform List<scalar> 
3125
(
-478.526
-448.236
-422.755
-482.113
-452.723
-426.012
-499.201
-468.201
-434.267
-494.205
-464.64
-430.557
-480.271
-428.074
-581.128
-475.075
-494.532
-574.99
-424.186
-420.811
-392.553
-547.336
-443.513
-444.101
-540.884
-386.228
-410.288
-309.979
-584.585
-416.909
-373.177
-609.824
-287.246
-598.027
-604.414
-506.612
-485.866
-432.142
-583.346
-492.203
-589.715
-436.414
-595.861
-589.728
-564.904
-571.401
-458.902
-456.947
-398.304
-549.658
-440.468
-556.334
-403.471
-562.714
-556.584
-602.804
-569.277
-374.963
-426.844
-327.611
-573.949
-360.309
-548.318
-338.855
-618.288
-662.035
-602.95
-451.809
-520.467
-1001.79
-290.462
-277.38
-275.867
-966.683
-957.737
-482.742
-471.656
-566.981
-416.549
-572.955
-468.93
-420.407
-944.864
-954.86
-272.666
-273.934
-264.297
-262.878
-908.119
-891.002
-425.491
-438.735
-535.694
-370.602
-538.993
-395.499
-379.061
-862.726
-884.584
-259.932
-261.018
-228.8
-200.908
-814.467
-792.723
-394.346
-369.279
-605.775
-224.052
-739.661
-170.737
-617.614
-614.627
-606.665
-504.321
-489.825
-599.803
-446.186
-523.938
-591.919
-441.044
-279.618
-281.423
-970.629
-982.267
-994.548
-984.756
-286.858
-284.18
-581.82
-587.733
-579.77
-573.556
-455.909
-460.911
-564.868
-412.466
-471.522
-558.574
-408.141
-266.221
-267.652
-913.132
-926.495
-941.274
-930.408
-270.811
-269.483
-915.993
-552.461
-554.928
-888.037
-909.722
-553.155
-562.391
-827.502
-845.866
-880.15
-853.944
-367.619
-428.081
-535.905
-360.702
-401.148
-542.933
-349.898
-239.281
-252.905
-812.07
-823.925
-854.97
-830.75
-258.276
-255.792
-831.545
-844.056
-380.996
-658.969
-792.702
-404.286
-331.349
-564.143
-266.837
-331.614
-611.456
-477.416
-488.676
-595.706
-550.395
-552.543
-598.383
-475.055
-480.715
-486.472
-559.046
-604.351
-483.025
-557.078
-601.54
-424.24
-435.26
-535.447
-484.946
-488.677
-540.48
-419.689
-429.22
-431.251
-499.51
-550.436
-433.13
-496.299
-545.917
-374.321
-406.116
-468.15
-343.526
-350.706
-469.207
-381.275
-375.498
-383.288
-374.069
-464.425
-375.26
-364.336
-467.529
-491.868
-497.238
-617.125
-572.172
-494.599
-569.907
-613.914
-488.459
-499.908
-563.388
-607.547
-486.261
-565.33
-610.398
-445.219
-448.616
-566.989
-517.88
-448.223
-515.403
-563.441
-441.101
-451.943
-506.308
-555.2
-437.688
-509.288
-559.122
-376.701
-358.881
-473.769
-407.468
-378.158
-400.956
-469.191
-377.401
-368.51
-385.793
-464.684
-376.695
-391.28
-465.174
-520.478
-523.56
-645.95
-601.702
-515.62
-527.74
-636.426
-594.424
-640.404
-595.791
-513.454
-713.438
-1010.16
-806.36
-814.955
-1017.77
-818.685
-702.198
-709.584
-554.157
-504.446
-289.93
-506.012
-546.144
-551.577
-294.06
-512.356
-509.698
-513.591
-476.731
-277.713
-475.831
-518.518
-515.342
-471.12
-275.582
-472.001
-661.044
-664.837
-774.158
-963.214
-769.985
-670.797
-666.97
-764.03
-960.253
-767.908
-469.623
-592.587
-474.677
-545.986
-471.877
-589.88
-544.178
-466.472
-477.225
-583.905
-537.651
-586.666
-539.724
-464.142
-659.004
-655.18
-948.198
-751.547
-755.921
-762.093
-951.636
-757.991
-648.982
-653.023
-507.982
-505.038
-461.992
-272.413
-462.907
-499.332
-503.267
-467.411
-274.296
-466.659
-458.435
-464.219
-435.314
-264.555
-434.225
-471.883
-467.08
-427.329
-262.618
-428.422
-598.663
-606.246
-717.589
-902.672
-710.614
-616.298
-609.647
-699.122
-896.832
-707.045
-408.751
-529.313
-408.993
-476.296
-414.242
-523.445
-471.969
-402.988
-414.037
-509.78
-456.249
-516.369
-461.827
-396.232
-594.937
-586.14
-870.171
-671.635
-681.906
-695.254
-877.637
-686.082
-572.139
-582.05
-455.197
-449.227
-410.825
-259.681
-412.318
-437.451
-445.316
-420.917
-261.361
-419.73
-300.926
-312.17
-352.48
-221.891
-344.598
-369.186
-330.66
-311.913
-207.452
-323.225
-560.886
-565.885
-638.318
-817.102
-641.287
-547.35
-555.743
-628.804
-812.589
-647.448
-407.469
-467.125
-342.776
-333.826
-392.505
-502.93
-326.579
-455.553
-592.063
-583.782
-618.801
-344.818
-186.901
-251.95
-251.153
-406.237
-447.301
-554.558
-290.393
-547.125
-538.362
-632.118
-585.604
-609.626
-660.94
-593.418
-546.192
-310.608
-291.921
-163.233
-231.358
-286.224
-289.759
-154.394
-251.907
-502.29
-516.198
-620.992
-577.792
-498.853
-624.526
-581.12
-506.907
-514.13
-632.193
-589.721
-509.681
-628.59
-587.32
-529.94
-526.292
-480.666
-279.326
-481.748
-520.248
-524.407
-486.888
-281.813
-485.923
-684.089
-679.734
-776.445
-974.714
-781.273
-673.051
-677.35
-788.141
-978.826
-783.552
-686.478
-690.737
-802.492
-989.607
-796.876
-698.605
-693.704
-790.171
-986.639
-794.241
-532.085
-537.253
-499.053
-287.256
-497.709
-544.093
-539.635
-491.422
-283.888
-492.672
-454.743
-465.357
-570.8
-523.309
-452.001
-573.984
-525.756
-458.278
-462.683
-580.565
-532.913
-460.818
-577.552
-530.815
-485.823
-481.937
-440.653
-266.013
-441.787
-474.462
-479.558
-447.608
-267.917
-446.644
-633.056
-627.931
-720.692
-917.662
-726.828
-619.315
-625.121
-735.05
-922.207
-729.604
-635.498
-640.184
-749.326
-937.605
-744.786
-646.768
-642.516
-737.533
-933.919
-742.412
-487.888
-492.24
-458.03
-271.137
-457.202
-497.489
-494.176
-452.042
-269.228
-453.006
-895.543
-902.913
-830.649
-837.843
-871.518
-862.496
-381.857
-387.302
-480.422
-418.961
-377.61
-487.02
-426.129
-383.785
-381.128
-502.07
-444.713
-391.072
-494.907
-438.248
-405.172
-395.697
-367.621
-244.592
-370.097
-378.912
-390.373
-381.381
-250.178
-379.574
-543.179
-535.209
-631.379
-813.12
-633.562
-538.16
-538.691
-640.16
-817.75
-631.608
-543.907
-554.214
-667.414
-846.75
-656.23
-568.24
-557.338
-641.916
-838.368
-652.557
-410.212
-419.643
-402.335
-258.427
-400.789
-432.931
-424.558
-390.302
-256.62
-391.853
-842.898
-851.736
-614.781
-656.006
-664.629
-687.267
-503.45
-485.257
-567.85
-552.88
-552.961
-566.469
-501.646
-474.437
-498.588
-582.719
-579.098
-475.498
-497.752
-580.046
-511.227
-489.675
-561.696
-575.026
-511.929
-562.388
-577.121
-471.57
-574.602
-577.003
-493.746
-494.676
-577.154
-470.456
-444.206
-429.944
-508.313
-492.092
-491.769
-505.584
-441.254
-442.255
-466.34
-531.817
-545.154
-443.311
-465.734
-527.517
-456.748
-436.477
-506.481
-520.441
-458.293
-507.457
-523.323
-399.393
-419.38
-456.115
-414.745
-416.141
-453.958
-391.265
-371.064
-368.368
-415.282
-437.165
-372.664
-417.772
-446.458
-484.54
-600.236
-485.206
-489.191
-602.36
-488.308
-523.064
-500.885
-587.519
-574.417
-524.2
-574.992
-589.703
-479.246
-501.558
-585.856
-585.548
-478.304
-502.322
-588.847
-515.428
-496.99
-565.191
-579.888
-513.808
-565.286
-578.499
-481.618
-593.829
-480.904
-591.765
-477.09
-477.904
-473.372
-452.785
-537.17
-523.281
-474.456
-524.173
-539.616
-447.71
-469.995
-536.258
-551.96
-446.612
-470.739
-540.079
-463.445
-447.655
-511.872
-527.647
-461.111
-511.708
-525.554
-450.843
-547.457
-474.997
-554.203
-474.21
-451.975
-544.067
-377.937
-362.744
-444.043
-428.703
-381.484
-430.644
-449.817
-372.751
-368.336
-419.737
-443.403
-368.332
-418.175
-436.447
-544.223
-525.67
-609.425
-595.219
-607.439
-594.814
-543.101
-650.605
-653.485
-503.687
-507.431
-461.999
-465.783
-474.887
-472.348
-608.562
-611.072
-620.396
-617.923
-499.045
-563.009
-477.829
-549.387
-499.782
-565.108
-550.187
-463.903
-486.171
-569.039
-563.397
-566.153
-486.968
-462.889
-466.585
-571.748
-490.717
-571.063
-467.663
-569.147
-489.884
-491.706
-474.089
-556.065
-540.953
-554.597
-540.97
-489.937
-608.198
-605.871
-596.475
-599.043
-462.59
-459.894
-450.126
-454.161
-399.623
-407.219
-421.674
-416.587
-546.3
-550.918
-566.18
-562.451
-435.571
-499.147
-415.734
-485.241
-437.772
-502.705
-486.388
-419.193
-407.068
-483.287
-466.318
-479.898
-466.098
-415.056
-545.597
-540.731
-520.278
-526.187
-401.743
-394.799
-372.502
-382.448
-350.845
-343.664
-333.065
-329.249
-509.702
-525.95
-499.283
-497.442
-379.896
-439.068
-348.039
-403.228
-388.679
-435.846
-396.139
-420.94
-354.881
-455.441
-336.256
-401.651
-505.952
-316.019
-493.717
-544.739
-535.809
-624.283
-461.972
-574.043
-576.866
-336.002
-269.855
-277.576
-214.464
-325.809
-268.412
-266.816
-493.606
-468.46
-347.694
-292.074
-498.955
-611.815
-498.049
-492.878
-609.105
-494.077
-529.381
-510.62
-593.431
-578.619
-526.81
-591.939
-579.102
-540.634
-518.225
-603.458
-591.049
-541.261
-606.128
-591.939
-487.231
-484.089
-474.391
-477.969
-633.669
-630.786
-620.797
-623.297
-634.164
-637.588
-649.907
-646.654
-487.259
-491.738
-505.098
-502.235
-469.825
-583.88
-470.489
-474.099
-585.854
-473.381
-466.873
-577.785
-466.228
-478.699
-461.776
-543.012
-527.605
-476.733
-541.33
-527.539
-459.039
-483.156
-560.288
-562.869
-460.114
-482.366
-557.419
-487.087
-466.206
-550.94
-537.193
-487.964
-553.133
-537.982
-456.136
-551.022
-478.352
-560.738
-455.031
-479.197
-554.109
-437.512
-433.723
-420.224
-426.107
-582.465
-579.532
-566.779
-570.377
-582.94
-585.857
-596.072
-593.517
-436.453
-441.156
-450.834
-447.768
-389.418
-380.195
-455.274
-436.702
-384.151
-450.852
-436.274
-407.618
-388.983
-471.9
-457.776
-410.858
-476.229
-458.95
-344.303
-335.215
-326.482
-332.361
-495.214
-489.953
-491.07
-493.492
-493.821
-499.74
-519.662
-513.571
-340.904
-351.647
-375.068
-365.825
-378.59
-499.423
-593.653
-588.91
-667.017
-653.266
-452.416
-385.278
-430.945
-473.827
-300.954
-431.433
-504.626
-538.296
-474.328
-352.222
-292.671
-381.373
-520.174
-584.059
-505.001
-483.586
-555.514
-568.956
-505.916
-556.115
-571.039
-509.753
-491.521
-559.07
-573.932
-507.943
-559.221
-572.545
-446.76
-426.624
-496.5
-510.408
-448.635
-497.524
-513.613
-454.446
-439.4
-502.59
-518.548
-451.83
-502.332
-516.225
-390.657
-407.975
-413.056
-449.74
-389.178
-415.986
-462.738
-380.198
-383.042
-416.261
-453.849
-377.926
-415.091
-443.298
-521.232
-502.549
-571.342
-586.038
-519.368
-571.413
-584.636
-516.802
-494.968
-567.648
-580.886
-517.434
-568.464
-583.081
-471.526
-455.186
-520.244
-535.778
-469.392
-520.067
-533.91
-465.498
-445.029
-515.384
-529.238
-466.866
-516.277
-531.923
-377.373
-370.099
-425.487
-445.451
-372.379
-424.279
-440.052
-369.643
-358.522
-419.422
-436.267
-372.598
-422.172
-443.409
-550.458
-531.026
-617.282
-602.191
-547.855
-615.525
-602.365
-545.308
-522.139
-610.218
-597.187
-545.413
-613.061
-598.692
-659.232
-663.329
-802.213
-715.818
-734.646
-736.199
-805.337
-1246.49
-1373.01
-1378.97
-1240.56
-1252.71
-1391.21
-1258.58
-1384.65
-1269.28
-1396.56
-1265.1
-1401.24
-657.678
-654.693
-723.64
-703.985
-786.714
-724.984
-790.439
-797.598
-730.313
-707.456
-728.739
-794.137
-506.59
-512.779
-608.569
-625.306
-563.898
-551.775
-562.871
-604.415
-628.431
-415.774
-542.994
-540.597
-418.782
-351.76
-163.343
-349.868
-158.536
-413.76
-535.09
-536.883
-411.593
-353.321
-162.03
-356.159
-164.073
-509.414
-506.481
-600.743
-556.735
-543.841
-616.718
-555.288
-619.143
-598.054
-602.62
-622.758
-559.565
-545.57
-557.723
-603.455
-621.77
-422.342
-543.85
-546.286
-420.629
-166.937
-357.242
-468.67
-466.134
-556.014
-516.37
-507.083
-571.298
-515.099
-573.353
-553.592
-557.803
-576.296
-519.427
-508.512
-517.143
-558.347
-575.45
-385.319
-500.673
-501.762
-384.685
-329.081
-151.249
-330.445
-154.013
-385.68
-504.882
-503.367
-386.922
-328.607
-154.521
-328.261
-150.763
-468.456
-472.332
-564.403
-525.255
-513.723
-582.855
-523.08
-582.046
-565.232
-562.537
-578.075
-522.29
-512.452
-521.053
-559.756
-580.18
-381.083
-499.943
-497.819
-383.739
-324.45
-153.197
-323.33
-150.458
-379.743
-493.051
-494.562
-377.995
-325.565
-151.154
-327.772
-152.974
-614.334
-611.763
-681.584
-662.063
-745.465
-682.078
-747.38
-750.475
-684.883
-664.16
-684.783
-748.481
-1205.04
-1337.61
-1206.98
-1335.31
-962.415
-856.22
-773.134
-909.099
-855.192
-907.305
-964.004
-960.478
-904.027
-771.186
-851.788
-853.257
-905.654
-959.06
-1202.88
-1331.14
-1200.9
-1333.2
-614.613
-617.3
-691.084
-670.098
-756.412
-690.861
-754.377
-751.214
-687.663
-667.929
-688.092
-753.177
-955.228
-846.25
-765.239
-898.584
-847.668
-900.159
-953.936
-1197.45
-1325.97
-1195.86
-1327.44
-956.618
-902.9
-767.042
-850.019
-849.227
-901.445
-957.673
-1198.64
-1329.72
-1199.61
-1328.63
-497.576
-479.687
-562.019
-547.051
-495.872
-560.623
-547.011
-493.199
-472.157
-557.093
-543.47
-493.999
-559.25
-544.242
-678.996
-744.472
-658.3
-678.745
-742.765
-602.625
-605.122
-739.545
-656.277
-675.512
-676.166
-741.441
-1183.11
-1310.54
-1312.6
-1180.8
-942.195
-833.456
-752.863
-885.021
-835.094
-886.974
-940.46
-944.154
-890.616
-838.112
-754.861
-837.044
-945.73
-888.748
-1184.9
-1316.4
-1186.67
-1314.57
-951.153
-844.489
-897.225
-761.152
-952.429
-843.575
-895.728
-1193.01
-1324.5
-1194.41
-1322.82
-949.324
-892.334
-759.321
-840.178
-841.772
-894.105
-947.677
-1190.99
-1318.48
-1188.65
-1320.84
-602.215
-599.748
-669.215
-650.073
-732.887
-669.82
-734.954
-738.354
-672.843
-652.212
-672.521
-736.248
-456.137
-460.193
-551.555
-513.543
-569.607
-503.381
-552.333
-511.497
-568.865
-549.889
-565.079
-510.894
-502.178
-509.447
-547.177
-567.063
-371.465
-487.589
-485.421
-374.166
-317.277
-152.272
-316.134
-150.398
-370.135
-480.62
-482.165
-368.337
-318.353
-151.011
-320.607
-151.852
-456.894
-454.238
-543.643
-505.071
-496.898
-558.238
-503.737
-560.342
-541.113
-545.426
-563.339
-507.98
-498.343
-505.86
-545.987
-562.502
-375.684
-488.271
-489.318
-375.085
-321.711
-150.649
-322.911
-152.357
-375.953
-492.497
-377.209
-490.941
-321.343
-153.135
-321.137
-150.475
-412.34
-406.507
-493.948
-459.831
-457.289
-505.111
-458.244
-507.99
-489.998
-496.737
-513.428
-464.221
-459.534
-462.21
-498.836
-511.583
-341.22
-441.635
-443.78
-339.409
-297.098
-153.424
-298.93
-153.423
-341.661
-449.444
-446.911
-343.958
-296.509
-154.749
-295.562
-153.974
-410.604
-417.437
-506.893
-473.344
-467.392
-523.691
-471.341
-522.084
-508.855
-504.335
-516.32
-469.38
-465.463
-467.843
-500.503
-519.009
-334.691
-440.783
-437.607
-338.329
-291.455
-156.548
-289.792
-156.041
-333.593
-430.271
-432.954
-330.747
-292.468
-155.338
-295.109
-155.126
-556.434
-552.108
-618.171
-600.894
-679.77
-619.366
-683.533
-689.423
-624.847
-604.401
-623.969
-685.892
-1138.35
-1269.79
-1141.34
-1266.96
-902.368
-799.222
-715.833
-849.516
-797.391
-846.82
-904.69
-1135.18
-1259.93
-1131.29
-1263.38
-557.16
-561.289
-635.2
-614.815
-699.932
-634.479
-696.963
-691.496
-629.241
-611.646
-630.391
-694.754
-1121.85
-1246.19
-1117.9
-1249.52
-1124.87
-1256.22
-1128.22
-1253.19
-432.653
-419.406
-496.594
-480.159
-429.162
-493.606
-479.841
-422.406
-402.972
-486.211
-472.363
-425.18
-490.127
-473.451
-613.305
-677.549
-592.784
-612.263
-673.702
-533.991
-539.33
-666.698
-588.939
-605.563
-607.107
-670.914
-1089.91
-1212.45
-1216.6
-1085.14
-1093.67
-1225.14
-1097.98
-1221.15
-1110.86
-1242.31
-1114.72
-1238.78
-1106.92
-1229.86
-1102.01
-1234.28
-533.113
-527.483
-591.664
-575.379
-652.196
-593.193
-656.769
-664.014
-600.071
-579.335
-598.814
-659.591
-387.202
-396.086
-485.334
-453.954
-501.907
-450.908
-488.128
-452.069
-499.717
-482.203
-492.491
-449.169
-448.469
-447.447
-477.557
-495.712
-316.945
-418.062
-413.633
-322.146
-279.544
-163.347
-276.435
-163.336
-315.674
-402.889
-407.177
-310.517
-281.048
-161.601
-284.526
-161.26
-389.543
-381.408
-468.699
-436.783
-437.804
-477.139
-434.947
-480.822
-463.722
-472.248
-488.589
-442.242
-440.807
-440.336
-475.53
-485.819
-326.575
-419.263
-422.347
-323.508
-287.474
-157.734
-289.555
-157.632
-326.918
-429.745
-329.883
-426.586
-286.819
-159.774
-285.198
-159.304
-340.542
-336.467
-293.227
-348.613
-302.946
-308.048
-347.602
-300.99
-320.858
-297.261
-327.708
-360.599
-305.664
-355.79
-319.778
-306.258
-228.664
-308.507
-320.064
-237.827
-197.495
-121.087
-198.528
-112.794
-230.905
-333.227
-327.544
-229.339
-193.913
-99.4326
-197.722
-105.219
-328.481
-334.793
-392.261
-385.439
-368.067
-401.542
-384.788
-390.451
-404.141
-370.864
-351.293
-374.78
-353.584
-376.514
-345.266
-372.913
-253.833
-300.034
-284.409
-236.03
-193.548
-110.557
-205.062
-101.586
-248.758
-276.359
-274.12
-263.459
-199.573
-98.2785
-192.792
-101.421
-519.132
-512.709
-574.312
-570.444
-641.584
-581.282
-649.856
-644.151
-577.519
-566.18
-583.602
-647.917
-1037.01
-1148.11
-1035.57
-1146.73
-1038.65
-1142.8
-1036.42
-1147.58
-504.417
-506.819
-562.475
-545.879
-624.911
-566.377
-629.118
-638.501
-575.119
-556.718
-570.189
-633.307
-1017.02
-1094.73
-1003.14
-1116.37
-1026.69
-1139.09
-1034.15
-1127.46
-402.862
-379.465
-439.196
-384.336
-416.403
-420.884
-382.678
-513.531
-508.281
-555.972
-604.516
-667.876
-641.757
-574.297
-586.139
-597.243
-554.706
-629.862
-588.706
-309.551
-339.166
-307.193
-224.207
-208.335
-231.508
-263.715
-250.115
-267.428
-301.49
-227.977
-280.308
-467.383
-364.148
-416.898
-474.262
-417.796
-460.131
-527.669
-520.618
-495.132
-318.816
-350.226
-373.751
-555.385
-624.775
-521.739
-528.692
-595.834
-459.797
-454.488
-547.442
-507.809
-512.035
-511.714
-560.86
-607.183
-580.489
-615.88
-667.147
-578.069
-642.62
-750.78
-718.402
-939.226
-1064.43
-980.298
-1011.72
-884.299
-859.311
-798.639
-940.626
-525.803
-594.299
-548.144
-277.84
-338.407
-319.167
-335.865
-306.892
-311.009
-342.46
-355.208
-315.308
-357.011
-277.75
-345.126
-314.459
-312.423
-266.595
-296.867
-225.792
-186.099
-176.719
-143.583
-177.928
-227.973
-214.057
-202.589
-150.137
-166.869
-364.899
-287.246
-336.865
-308.438
-200.508
-190.74
-242.485
-176.347
-182.094
-103.696
-192.575
-86.0717
-238.1
-270.616
-252.27
-260.543
-151.644
-97.8819
-143.517
-82.7012
-1330.36
-1335.62
-1346.65
-1341.21
-1351.93
-1297.02
-1299.57
-1304.48
-1302.08
-1312.85
-1311.47
-1307.06
-1309.57
-1325.84
-1322
-1316.67
-1319.03
-1313.76
-1314.8
-1315.84
-1315.17
-531.807
-509.434
-595.544
-582.99
-533.579
-597.881
-583.131
-538.846
-520.532
-602.087
-587.571
-536.501
-600.246
-588.003
-479.69
-483.885
-577.679
-537.503
-524.858
-597.068
-535.133
-596.035
-578.82
-575.615
-591.659
-534.067
-523.405
-532.784
-572.671
-593.894
-391.169
-512.37
-510.217
-393.856
-332.249
-155.33
-330.97
-151.301
-389.679
-505.43
-387.897
-506.947
-333.441
-152.391
-335.77
-155.323
-480.556
-478.122
-569.107
-528.062
-517.672
-584.626
-526.834
-566.625
-586.798
-570.937
-589.798
-531.033
-519.139
-528.864
-571.447
-588.967
-395.757
-513.133
-514.445
-394.957
-337.472
-153.629
-338.722
-156.979
-396.237
-518.404
-516.534
-397.597
-336.834
-157.372
-336.41
-152.334
-627.098
-629.83
-704.56
-683.302
-770.583
-704.376
-768.795
-765.371
-700.6
-681.011
-701.395
-767.381
-1211.99
-1339.94
-1209.23
-1342.66
-968.268
-858.521
-777.856
-910.929
-860.3
-966.17
-913.152
-970.765
-917.731
-780.033
-863.974
-862.65
-915.453
-972.888
-1214.49
-1347.82
-1345.15
-1216.88
-626.509
-624.026
-693.846
-674.148
-757.653
-694.48
-759.84
-763.646
-697.719
-676.406
-697.245
-761.409
-1224.27
-1356.56
-1355.11
-1225.21
-1222.25
-1350.41
-1353.24
-1219.64
-642.199
-638.474
-707.826
-687.526
-771.365
-708.104
-773.566
-776.748
-711.458
-690.293
-711.815
-774.094
-1232.06
-1368.38
-1235.78
-1364.22
-1228.91
-1359.11
-1361.27
-1227.02
-642.306
-646.071
-719.757
-784.033
-697.645
-719.336
-780.634
-776.372
-715.373
-694.472
-715.398
-779.413
-1226.7
-1357.36
-1358.1
-1226.09
-1226.89
-1358.38
-1358.29
-1226.76
-496.549
-493.136
-583.581
-540.953
-529.603
-599.231
-540.171
-580.534
-601.854
-586.197
-606.044
-545.751
-531.575
-542.873
-587.38
-604.637
-407.825
-529.17
-530.809
-406.725
-347.174
-158.427
-349.063
-161.108
-408.617
-534.659
-410.091
-532.968
-346.288
-161.044
-345.483
-156.067
-497.43
-501.784
-595.531
-553.368
-614.635
-538.686
-596.639
-551.153
-613.574
-593.055
-608.473
-549.428
-536.978
-548.662
-589.694
-611.16
-402.355
-528.053
-525.433
-405.378
-340.655
-158.433
-339.345
-153.197
-400.725
-519.245
-398.607
-521.329
-342.044
-156.243
-344.624
-158.549
-1294.66
-1292.52
-1288.4
-1290.41
-1283.02
-1284.52
-1286.96
-1285.77
-1268.16
-1270.16
-1273.87
-1272.17
-1281.55
-1280.03
-1275.95
-1278.07
-1231.82
-1234.32
-1239.3
-1237.12
-1249.43
-1247.4
-1242.1
-1244.67
-1266.03
-1264.12
-1259.6
-1261.79
-1251.71
-1253.71
-1257.45
-1255.78
-480.389
-459.627
-544.271
-530.492
-481.434
-546.571
-531.255
-485.485
-468.23
-549.76
-534.519
-483.613
-548.227
-534.489
-428.876
-434.323
-524.313
-488.954
-481.277
-541.534
-486.94
-540.375
-525.643
-522.224
-535.614
-485.689
-479.723
-484.199
-518.964
-537.95
-348.808
-459.25
-456.487
-352.09
-300.913
-153.337
-299.409
-152.562
-347.447
-450.127
-345.002
-452.369
-302.04
-152.527
-304.553
-152.477
-430.119
-425.823
-513.787
-477.869
-472.808
-526.307
-476.448
-510.477
-528.875
-516.135
-533.251
-481.629
-474.716
-479.537
-517.503
-531.847
-354.414
-460.081
-461.709
-353.173
-306.331
-151.587
-307.893
-151.949
-354.859
-466.152
-464.116
-356.646
-305.726
-152.824
-305.098
-151.626
-575.319
-578.586
-652.388
-631.985
-717.417
-651.901
-715.151
-710.85
-647.743
-629.418
-648.632
-713.4
-1147.06
-1272.85
-1143.91
-1275.49
-909.807
-802.137
-722.573
-851.901
-804.385
-907.466
-854.611
-912.478
-859.5
-725.294
-808.566
-806.969
-856.99
-914.571
-1149.45
-1280.61
-1278.28
-1151.98
-574.757
-571.368
-639.05
-620.961
-701.675
-639.96
-704.59
-709.27
-644.233
-623.837
-643.629
-706.435
-921.748
-817.013
-733.729
-868.331
-815.663
-866.25
-923.54
-1160.09
-1291.31
-1289.07
-1162.3
-919.267
-861.706
-731.331
-811.25
-813.301
-864.083
-917.124
-1157.51
-1283.45
-1286.3
-1154.44
-589.493
-586.674
-655.496
-636.813
-718.807
-656.21
-721.156
-724.942
-659.635
-639.205
-659.25
-722.651
-1176.97
-1308.39
-1178.88
-1306.34
-936.97
-831.347
-883.364
-748.248
-938.519
-830.266
-881.58
-1174.76
-1301.61
-1303.99
-1172.26
-934.885
-877.852
-746.18
-826.532
-828.223
-879.782
-933.143
-589.928
-592.735
-666.464
-731.697
-645.949
-666.125
-729.701
-726.177
-662.608
-643.723
-663.285
-728.27
-927.514
-819.334
-739.051
-870.207
-821.133
-925.684
-872.345
-1166.72
-1293.6
-1295.68
-1164.31
-1168.55
-1299.44
-1297.72
-1170.35
-929.569
-876.173
-741.26
-824.365
-823.198
-874.2
-931.174
-444.386
-441.134
-529.802
-492.525
-485.745
-543.626
-491.145
-527.012
-545.863
-531.779
-549.355
-495.755
-487.337
-493.611
-532.654
-548.302
-365.679
-475.218
-476.49
-364.832
-314.384
-150.769
-315.715
-151.729
-366.017
-480.076
-367.479
-478.36
-313.932
-152.452
-313.482
-150.703
-443.587
-448.11
-538.759
-502.007
-556.395
-492.947
-539.753
-499.944
-555.485
-536.899
-551.323
-499.073
-491.607
-497.659
-533.967
-553.447
-360.903
-474.469
-472.077
-363.824
-309.496
-152.23
-308.288
-150.918
-359.568
-466.735
-357.572
-468.51
-310.585
-151.265
-312.928
-151.589
-1228.75
-1226.2
-1219.47
-1222.66
-1205.6
-1208.87
-1215.75
-1212.74
-1173.33
-1177.39
-1185.71
-1182.03
-1201.74
-1198.61
-1190.34
-1194.23
-1102.25
-1104.26
-1111.93
-1107.87
-1130.31
-1126.63
-1117.01
-1121.71
-1168.58
-1164.47
-1154.17
-1158.99
-1134.95
-1138.96
-1148.45
-1144.14
-391.946
-374.572
-457.043
-442.574
-395.572
-461.94
-443.94
-404.371
-393.595
-468.905
-451.337
-399.581
-465.207
-451.1
-329.309
-338.592
-429.181
-402.757
-404.439
-438.297
-402.228
-435.198
-432.749
-426.355
-427
-401.406
-401.298
-396.636
-422.557
-429.955
-241.982
-346.267
-341.329
-251.759
-208.38
-126.131
-201.988
-134.012
-239.445
-331.083
-233.269
-334.98
-212.608
-149.012
-222.86
-140.617
-334.445
-327.774
-414.639
-395.851
-387.769
-409.134
-389.207
-408.851
-413.675
-418.132
-422.966
-393.846
-391.798
-394.246
-421.51
-419.805
-265.282
-347.335
-351.926
-255.632
-239.723
-165.943
-246.954
-161.918
-266.733
-363.863
-358.629
-274.971
-235.843
-153.356
-226.977
-159.486
-487.449
-491.851
-560.294
-538.983
-623.125
-559.773
-620.215
-616.955
-556.589
-540.09
-557.066
-618.861
-1033.06
-1146.29
-1033.2
-1148.92
-1033.6
-1154.44
-1149.58
-1035.52
-491.323
-487.986
-559.838
-541.388
-620.839
-557.642
-618.65
-616.714
-555.511
-534.777
-556.504
-616.813
-1045.11
-1170.81
-1166.59
-1048.38
-1042.17
-1157.46
-1163.05
-1038.33
-505.9
-499.697
-564.322
-548.266
-624.59
-565.481
-628.363
-634.843
-571.578
-550.334
-570.368
-630.569
-1077.26
-1207.93
-1081.62
-1203.65
-1073.02
-1193.33
-1198.61
-1067.71
-506.139
-512.442
-585.927
-649.648
-565.003
-584.603
-645.121
-637.528
-577.116
-561.402
-578.882
-642.114
-1055.38
-1174.48
-1178.88
-1051.12
-1058.91
-1188.14
-1183.38
-1063.45
-359.553
-349.808
-439.076
-410.884
-413.431
-442.702
-407.762
-434.423
-446.302
-442.532
-455.382
-415.191
-416.741
-413.881
-446.494
-452.001
-302.771
-385.552
-390.281
-296.701
-271.867
-165.593
-275.444
-165.187
-303.473
-401.599
-308.914
-396.73
-270.185
-167.201
-266.489
-167.487
-356.621
-367.442
-457.46
-428.937
-472.634
-429.142
-461.451
-427.242
-469.387
-453.721
-460.139
-423.586
-425.946
-421.29
-448.501
-463.942
-286.944
-383.768
-378.164
-294.594
-256.131
-166.13
-249.959
-168.484
-285.618
-365.211
-277.419
-370.446
-258.969
-169.077
-264.654
-167.603
-1100.54
-1099.85
-1094.04
-1097.35
-1042.19
-1064.08
-1088.08
-1077.22
-700.639
-656.067
-589.835
-713.902
-1009.83
-955.263
-812.987
-894.352
-438.937
-517.612
-543.028
-461.7
-462.065
-522.485
-438.016
-446.761
-480.305
-520.199
-594.969
-442.296
-489.007
-529.059
-446.481
-542.499
-604.217
-518.999
-494.84
-536.083
-462.396
-482.117
-595.266
-506.348
-587.691
-505.389
-483.324
-592.237
-454.597
-567.164
-455.123
-459.139
-569.309
-458.534
-451.033
-560.615
-450.688
-558.655
-447.101
-447.13
-477.223
-589.74
-465.658
-452.321
-577.897
-460.181
-438.171
-476.889
-512.148
-564.288
-441.708
-470.37
-504.305
-436.135
-492.493
-461.384
-555.151
-466.576
-433.166
-497.748
-484.125
-634.668
-502.648
-650.813
-561.375
-514.956
-497.807
-520.311
-605.876
-613.527
-618.53
-520.815
-497.114
-501.432
-608.24
-624.354
-524.599
-431.554
-456.052
-536.443
-495.016
-500.503
-455.207
-431.518
-434.208
-512.016
-458.12
-537.433
-434.797
-506.577
-458.207
-502.657
-620.455
-503.151
-622.869
-507.232
-492.288
-516.657
-608.795
-596.972
-493.543
-515.6
-605.176
-488.331
-598.61
-510.094
-594.258
-486.815
-511.424
-601.614
-462.434
-575.716
-463.119
-442.856
-552.932
-441.407
-443.686
-553.581
-444.209
-441.235
-554.602
-444.192
-449.501
-558.037
-444.583
-430.536
-454.094
-490.065
-536.878
-429.709
-456.137
-487.543
-430.217
-489.121
-459.498
-539.508
-432.08
-456.048
-487.279
-999.814
-888.178
-808.641
-940.44
-891.278
-944.993
-995.168
-1005.54
-955.169
-899.027
-812.477
-896.082
-1010.61
-950.399
-960.792
-903.693
-964.125
-1016.21
-899.202
-841.033
-712.778
-791.827
-794.43
-844.075
-896.481
-887.146
-780.162
-701.605
-828.574
-783.086
-832.019
-884.237
-890.532
-838.241
-705.022
-788.487
-786.297
-835.039
-893.211
-858.549
-751.972
-675.035
-799.288
-756.014
-803.395
-855.103
-862.741
-811.066
-762.868
-678.989
-759.687
-866.065
-807.087
-877.723
-776.571
-825.528
-692.85
-880.707
-773.965
-822.031
-873.675
-814.654
-689.109
-766.846
-770.354
-818.519
-870.244
-830.663
-718.252
-635.897
-771.563
-712.385
-777.038
-826.776
-835.704
-785.755
-644.518
-716.486
-724.752
-780.945
-837.608
-828.781
-697.581
-642.838
-773.728
-718.357
-784.233
-815.08
-835.676
-787.746
-643.265
-726.217
-715.234
-788.6
-839.349
-766.182
-680.738
-756.273
-589.535
-793.821
-657.802
-729.771
-728.672
-684.109
-574.469
-639.882
-624.315
-699.81
-696.098
-979.156
-871.116
-787.068
-925.075
-870.183
-923.718
-980.19
-977.339
-920.079
-785.092
-866.45
-868.252
-922.066
-975.403
-987.712
-883.961
-936.602
-801.006
-990.72
-882.209
-933.358
-984.857
-929.084
-798.146
-877.763
-879.368
-931.026
-983.476
-981.903
-872.752
-791.466
-926.11
-874.076
-981.251
-927.301
-982.492
-928.862
-793.456
-875.935
-875.357
-927.753
-982.746
-819.044
-707.898
-634.773
-767.483
-714.134
-821.74
-763.893
-817.154
-761.532
-629.844
-712.78
-707.125
-762.536
-816.833
-821.352
-720.148
-636.159
-767.829
-715.145
-765.722
-823.217
-819.191
-762.552
-636.165
-709.734
-715.984
-763.657
-817.752
-847.695
-748.201
-795.757
-664.019
-851.015
-744.447
-791.767
-843.268
-783.775
-660.276
-736.133
-740.959
-787.864
-839.663
-828.557
-721.073
-646.18
-770.17
-726.345
-825.931
-773.211
-832.225
-780.07
-648.756
-732.855
-728.435
-776.402
-835.378
)
;

boundaryField
{
    left
    {
        type            calculated;
        value           nonuniform List<scalar> 0();
    }
    bottom
    {
        type            calculated;
        value           nonuniform List<scalar> 
214
(
-456.134
-424.392
-399.834
-459.847
-429.025
-401.865
-477.856
-445.188
-410.232
-472.948
-441.471
-406.533
-450.116
-445.485
-452.466
-407.013
-399.179
-419.572
-303.153
-292.879
-403.745
-463.804
-459.873
-454.851
-433.413
-420.413
-414.083
-402.772
-334.826
-318.933
-372.606
-477.535
-351.745
-354.947
-345.988
-349.19
-448.82
-440.93
-436.284
-322.203
-328.434
-307.455
-317.797
-414.737
-390.188
-379.28
-223.53
-218.844
-203.172
-376.407
-240.337
-393.622
-471.389
-465.428
-468.219
-364.446
-368.813
-357.611
-361.211
-431.369
-426.116
-437.56
-339.632
-343.359
-331.975
-336.71
-366.083
-350.991
-404.062
-278.538
-300.65
-230.921
-267.378
-249.989
-228.72
-227.189
-372.74
-377.233
-352.088
-354.719
-346.412
-348.953
-323.581
-327.535
-310.76
-316.112
-211.157
-213.398
-152.7
-174.205
-221.358
-175.475
-364.923
-368.562
-357.936
-360.855
-340.211
-343.049
-332.898
-336.14
-286.877
-295.704
-242.478
-256.256
-341.87
-319.048
-357.426
-222.244
-271.092
-282.801
-382.935
-236.466
-242.843
-134.754
-136.361
-134.406
-133.187
-137.114
-125.616
-127.123
-125.843
-124.579
-126.494