/*--------------------------------*- C++ -*----------------------------------*\
| =========                 |                                                 |
| \\      /  F ield         | OpenFOAM: The Open Source CFD Toolbox           |
|  \\    /   O peration     | Version:  2012                                  |
|   \\  /    A nd           | Website:  www.openfoam.com                      |
|    \\/     M anipulation  |                                                 |
\*---------------------------------------------------------------------------*/
FoamFile
{
    version     2.0;
    format      ascii;
    class       volVectorField;
    location    "0.105/fluid";
    object      cellMotionU;
}
// * * * * * * * * * * * * * * * * * * * * * * * * * * * * * * * * * * * * * //

dimensions      [0 1 -1 0 0 0 0];


internalField   nonuniform List<vector> 
16422
(
(6.03888e-05 -1.80345e-05 -3.76679e-06)
(7.2339e-05 -1.25552e-05 -4.11219e-06)
(0.000152247 -2.23808e-05 -1.31573e-05)
(0.000266362 -1.78011e-05 -4.63804e-05)
(0.000361378 4.98285e-06 -7.4906e-05)
(0.000430136 3.74125e-05 -9.05237e-05)
(0.000478363 7.11461e-05 -9.52718e-05)
(0.000510714 9.89513e-05 -9.26261e-05)
(0.000526187 0.000118233 -8.51327e-05)
(0.000519931 0.00012857 -7.45172e-05)
(0.000488263 0.000127677 -6.22079e-05)
(0.000432573 0.00011615 -4.94907e-05)
(0.000354792 9.58214e-05 -3.67993e-05)
(0.000255526 6.71243e-05 -2.42882e-05)
(0.000129345 3.14446e-05 -1.13228e-05)
(1.07118e-05 6.18154e-07 -1.06752e-05)
(6.25717e-05 2.47319e-06 -4.13827e-06)
(0.000148573 -6.27595e-06 -1.83818e-05)
(0.00025563 -4.06431e-06 -4.86298e-05)
(0.000360155 1.12479e-05 -7.66918e-05)
(0.000448139 3.46473e-05 -9.45053e-05)
(0.000516482 5.9646e-05 -0.000101832)
(0.000565713 8.05906e-05 -0.000100889)
(0.000592588 9.46586e-05 -9.4004e-05)
(0.000590958 0.000101464 -8.30937e-05)
(0.000557638 0.000100272 -6.97565e-05)
(0.000494814 9.17563e-05 -5.54102e-05)
(0.000407175 7.64735e-05 -4.12625e-05)
(0.00029447 5.35166e-05 -2.72581e-05)
(0.00014861 2.42695e-05 -1.25247e-05)
(-3.08882e-05 9.31579e-06 -2.02443e-05)
(3.43802e-05 4.84139e-06 -1.2372e-05)
(0.000125499 1.71198e-06 -2.26257e-05)
(0.000234031 3.5723e-06 -4.7876e-05)
(0.000347074 1.0679e-05 -7.45281e-05)
(0.000449944 2.15342e-05 -9.39269e-05)
(0.00053488 3.34603e-05 -0.000103652)
(0.000598006 4.35225e-05 -0.000104551)
(0.000633362 5.01825e-05 -9.86321e-05)
(0.000634583 5.26988e-05 -8.77469e-05)
(0.000599736 5.13809e-05 -7.37934e-05)
(0.0005334 4.71273e-05 -5.87557e-05)
(0.000438983 3.96974e-05 -4.36405e-05)
(0.000316926 2.79156e-05 -2.86038e-05)
(0.000160571 1.25487e-05 -1.31796e-05)
(4.63295e-05 -1.31362e-05 -5.29232e-06)
(9.8847e-05 -1.58693e-05 -3.9981e-06)
(0.000223445 -3.22868e-05 -1.99879e-05)
(0.000369613 -3.67412e-05 -5.1275e-05)
(0.000480183 -2.4157e-05 -7.61972e-05)
(0.000556276 -7.29784e-07 -8.99311e-05)
(0.000603773 2.70053e-05 -9.40424e-05)
(0.000627722 5.25325e-05 -9.1393e-05)
(0.000628129 7.30094e-05 -8.39095e-05)
(0.000604967 8.67003e-05 -7.35897e-05)
(0.000555702 9.02572e-05 -6.1021e-05)
(0.000485289 8.46387e-05 -4.82633e-05)
(0.000394947 7.19437e-05 -3.58319e-05)
(0.000282542 5.11949e-05 -2.35409e-05)
(0.000141366 2.34447e-05 -1.077e-05)
(3.42589e-05 -6.98908e-06 -1.48405e-05)
(0.000107804 -1.2012e-05 -1.14507e-05)
(0.000227422 -2.19989e-05 -2.63093e-05)
(0.000364916 -2.41846e-05 -5.34295e-05)
(0.000487872 -1.51131e-05 -7.82248e-05)
(0.000583566 2.59549e-06 -9.4145e-05)
(0.000649834 2.41424e-05 -0.000100575)
(0.000689011 4.42622e-05 -9.94236e-05)
(0.000701201 5.9123e-05 -9.26669e-05)
(0.000682342 6.82524e-05 -8.16969e-05)
(0.000633504 7.08236e-05 -6.86144e-05)
(0.000554673 6.70215e-05 -5.41187e-05)
(0.000452846 5.75796e-05 -4.02579e-05)
(0.000324094 4.08801e-05 -2.63372e-05)
(0.000162328 1.84027e-05 -1.20737e-05)
(1.92869e-05 -2.47321e-07 -2.47139e-05)
(9.7372e-05 -5.88891e-06 -2.10743e-05)
(0.000216378 -9.89796e-06 -3.12553e-05)
(0.000351003 -9.79698e-06 -5.3238e-05)
(0.000480324 -5.0159e-06 -7.65808e-05)
(0.000589351 3.76213e-06 -9.38348e-05)
(0.000670851 1.46212e-05 -0.000102401)
(0.000723341 2.47139e-05 -0.000102896)
(0.000744204 3.18925e-05 -9.70223e-05)
(0.00072942 3.56061e-05 -8.62413e-05)
(0.000679004 3.65322e-05 -7.24545e-05)
(0.000597511 3.46297e-05 -5.75137e-05)
(0.000488144 2.98852e-05 -4.27551e-05)
(0.000349631 2.12667e-05 -2.80569e-05)
(0.000174707 9.46484e-06 -1.28672e-05)
(0.000101023 -1.95531e-05 -1.39104e-05)
(0.00017648 -3.24505e-05 -1.39845e-05)
(0.000305141 -4.39758e-05 -2.75023e-05)
(0.000444893 -4.83413e-05 -4.79884e-05)
(0.000558545 -4.19888e-05 -6.42537e-05)
(0.000640781 -2.62379e-05 -7.35249e-05)
(0.000690056 -3.89868e-06 -7.57504e-05)
(0.000710692 1.88143e-05 -7.30007e-05)
(0.000703144 3.7776e-05 -6.66356e-05)
(0.000668632 5.18069e-05 -5.78813e-05)
(0.000610992 5.8412e-05 -4.79756e-05)
(0.000531483 5.81577e-05 -3.77596e-05)
(0.000431054 5.22355e-05 -2.80595e-05)
(0.000306607 3.81101e-05 -1.82215e-05)
(0.000153379 1.75353e-05 -8.34669e-06)
(0.000106726 -1.49074e-05 -2.00953e-05)
(0.000184571 -2.62696e-05 -2.06766e-05)
(0.000311171 -3.50043e-05 -3.17956e-05)
(0.000451082 -3.80021e-05 -4.95491e-05)
(0.000578043 -3.28864e-05 -6.58534e-05)
(0.000679775 -2.05527e-05 -7.64269e-05)
(0.000748253 -2.86013e-06 -8.03236e-05)
(0.000782761 1.58567e-05 -7.86543e-05)
(0.000785264 3.08927e-05 -7.31548e-05)
(0.000755336 4.12894e-05 -6.44516e-05)
(0.000694699 4.68033e-05 -5.37132e-05)
(0.000606921 4.69929e-05 -4.23312e-05)
(0.000492527 4.2365e-05 -3.14165e-05)
(0.000351103 3.11015e-05 -2.06525e-05)
(0.000173715 1.37488e-05 -9.23714e-06)
(9.52614e-05 -7.95666e-06 -2.56178e-05)
(0.000177194 -1.45149e-05 -2.62149e-05)
(0.000301963 -1.86909e-05 -3.40843e-05)
(0.000443899 -1.98853e-05 -4.87708e-05)
(0.000579514 -1.69769e-05 -6.45483e-05)
(0.000692517 -1.02848e-05 -7.61821e-05)
(0.000774952 -9.54444e-07 -8.17539e-05)
(0.000822426 8.85049e-06 -8.14825e-05)
(0.000833401 1.66366e-05 -7.6546e-05)
(0.000806246 2.17726e-05 -6.7768e-05)
(0.000745636 2.43119e-05 -5.68716e-05)
(0.000653241 2.45032e-05 -4.52206e-05)
(0.000530935 2.21778e-05 -3.37354e-05)
(0.000376937 1.61972e-05 -2.19605e-05)
(0.000185185 6.9373e-06 -9.80412e-06)
(0.000201669 -2.98214e-05 -1.31489e-05)
(0.000268472 -4.30291e-05 -1.5381e-05)
(0.000371276 -5.06771e-05 -2.15427e-05)
(0.000487955 -5.35534e-05 -2.98245e-05)
(0.00059567 -5.00286e-05 -3.64219e-05)
(0.000679874 -3.88374e-05 -3.99605e-05)
(0.000732667 -2.05975e-05 -4.04837e-05)
(0.000753568 -4.68662e-07 -3.83065e-05)
(0.00074304 1.67077e-05 -3.41111e-05)
(0.000704715 2.94775e-05 -2.90715e-05)
(0.000642888 3.77958e-05 -2.41005e-05)
(0.00055864 4.16644e-05 -1.92567e-05)
(0.000452451 4.00479e-05 -1.41901e-05)
(0.000322151 3.06647e-05 -9.21321e-06)
(0.000161167 1.43641e-05 -4.17061e-06)
(0.000193497 -2.3973e-05 -1.55538e-05)
(0.000265971 -3.53231e-05 -1.75467e-05)
(0.000376891 -4.24449e-05 -2.26594e-05)
(0.000504237 -4.50959e-05 -3.00913e-05)
(0.000627166 -4.19191e-05 -3.67714e-05)
(0.000729366 -3.25784e-05 -4.096e-05)
(0.000799513 -1.74818e-05 -4.21654e-05)
(0.000833373 -2.94822e-07 -4.06001e-05)
(0.000831394 1.42966e-05 -3.70343e-05)
(0.000796841 2.48574e-05 -3.23519e-05)
(0.00073049 3.18904e-05 -2.70167e-05)
(0.000636994 3.47881e-05 -2.15828e-05)
(0.000515414 3.30438e-05 -1.5924e-05)
(0.000366475 2.50945e-05 -1.03952e-05)
(0.000182305 1.15097e-05 -4.69509e-06)
(0.000170829 -1.36313e-05 -1.67031e-05)
(0.000249157 -1.99355e-05 -1.84149e-05)
(0.000366315 -2.40834e-05 -2.2316e-05)
(0.000502511 -2.54167e-05 -2.87512e-05)
(0.000636777 -2.33563e-05 -3.55285e-05)
(0.000750313 -1.7916e-05 -4.04278e-05)
(0.000833181 -9.65207e-06 -4.2443e-05)
(0.000878449 -3.1452e-07 -4.16816e-05)
(0.00088382 7.73718e-06 -3.89093e-05)
(0.000849855 1.36499e-05 -3.45664e-05)
(0.000783664 1.70878e-05 -2.89549e-05)
(0.000686362 1.82696e-05 -2.30669e-05)
(0.000555579 1.73559e-05 -1.7121e-05)
(0.000392072 1.31211e-05 -1.11179e-05)
(0.00019183 5.76205e-06 -4.87014e-06)
(6.44277e-05 -1.97884e-05 -2.5614e-06)
(6.25333e-05 -1.84339e-05 -9.16784e-06)
(6.60087e-05 -1.95016e-05 -2.61694e-06)
(6.69161e-05 -1.81513e-05 -8.61769e-06)
(5.54147e-05 -1.25488e-05 -3.12618e-06)
(6.77434e-05 -1.16209e-05 -3.02497e-06)
(6.62733e-05 -1.74507e-05 -5.98022e-06)
(0.00010999 -2.18759e-05 -5.87582e-06)
(5.76827e-05 -1.78904e-05 -3.7824e-06)
(6.09319e-05 -1.25541e-05 -6.67533e-06)
(2.2245e-05 -2.62441e-06 -7.7966e-06)
(4.78613e-05 3.59477e-06 -2.93922e-06)
(7.54263e-05 -3.73242e-05 -1.35693e-05)
(6.40464e-05 -3.76273e-05 -1.3561e-05)
(7.17315e-05 -1.73826e-05 -5.65818e-06)
(0.000123314 -2.3172e-05 -6.65895e-06)
(8.41182e-05 -1.41841e-05 -2.74887e-06)
(0.000165707 -2.66289e-05 -1.02158e-05)
(6.50343e-05 -1.29865e-05 -6.2682e-06)
(2.38275e-05 -4.36138e-06 -8.15378e-06)
(5.38407e-05 6.88875e-07 -3.57463e-06)
(4.91513e-05 -1.29942e-05 -4.02086e-06)
(7.16933e-05 -1.10956e-05 -3.17364e-06)
(3.011e-05 -8.24996e-06 -1.06211e-05)
(7.45058e-05 -7.5502e-06 -6.43305e-06)
(5.06421e-05 -1.30588e-05 -4.20791e-06)
(7.47242e-05 -1.32554e-05 -2.88444e-06)
(7.67204e-05 -1.81114e-05 -1.07228e-05)
(0.000125047 -2.58249e-05 -8.86275e-06)
(6.32383e-05 -3.75243e-05 -1.35841e-05)
(6.37224e-05 -3.95112e-05 -1.43976e-05)
(6.05737e-05 -1.94658e-05 -8.72531e-06)
(6.41673e-05 -3.7427e-05 -1.34878e-05)
(6.47511e-05 -2.49963e-05 -1.18247e-05)
(6.17369e-05 -2.12059e-05 -1.10146e-05)
(6.37409e-05 -3.94246e-05 -1.43598e-05)
(7.53137e-05 -3.85108e-05 -1.40856e-05)
(6.45295e-05 -3.96068e-05 -1.43772e-05)
(7.56095e-05 -3.75783e-05 -1.36999e-05)
(6.22584e-05 -1.96994e-05 -8.6704e-06)
(6.41944e-05 -1.61165e-05 -2.17221e-06)
(6.49723e-05 -3.75303e-05 -1.3475e-05)
(6.07749e-05 -1.43335e-05 -6.53774e-06)
(7.53084e-05 -3.85703e-05 -1.41115e-05)
(7.01481e-05 -2.53591e-05 -1.1412e-05)
(6.64328e-05 -2.11922e-05 -1.07073e-05)
(6.79631e-05 -1.55594e-05 -7.13483e-06)
(6.45479e-05 -3.95205e-05 -1.43397e-05)
(7.04952e-05 -1.95657e-05 -9.5312e-06)
(6.68911e-05 -1.70012e-05 -9.18544e-06)
(8.29574e-05 -3.1368e-05 -1.46396e-05)
(7.58657e-05 -1.58085e-05 -2.30891e-06)
(7.86377e-05 -2.61957e-05 -1.35473e-05)
(7.83969e-05 -3.30394e-05 -1.39482e-05)
(6.1068e-05 -1.40546e-05 -2.11891e-06)
(6.27453e-05 -1.22516e-05 -3.41237e-06)
(5.821e-05 -1.15888e-05 -4.44749e-06)
(7.73108e-05 -1.57965e-05 -2.31439e-06)
(6.34448e-05 -1.21752e-05 -6.04947e-06)
(6.30188e-05 -1.25333e-05 -5.57425e-06)
(7.66861e-05 -2.85286e-05 -1.33183e-05)
(6.69099e-05 -1.32892e-05 -4.78888e-06)
(6.5825e-05 -1.21007e-05 -3.21871e-06)
(6.1094e-05 -1.17086e-05 -4.13686e-06)
(6.49861e-05 -1.47638e-05 -5.54063e-06)
(6.30909e-05 -1.38743e-05 -6.12713e-06)
(6.10869e-05 -1.24434e-05 -4.66507e-06)
(7.00852e-05 -3.76857e-05 -1.3386e-05)
(6.9466e-05 -3.77785e-05 -1.34213e-05)
(6.90986e-05 -3.24451e-05 -1.48243e-05)
(6.48627e-05 -1.70347e-05 -1.9579e-06)
(6.47325e-05 -2.16727e-05 -6.16469e-06)
(6.04603e-05 -2.91441e-05 -1.09025e-05)
(6.3647e-05 -2.27791e-05 -7.54721e-06)
(7.038e-05 -3.46467e-05 -1.52462e-05)
(6.57977e-05 -3.0441e-05 -1.36341e-05)
(6.68394e-05 -2.88041e-05 -1.31894e-05)
(7.05178e-05 -3.9578e-05 -1.42261e-05)
(6.96303e-05 -1.87756e-05 -1.07334e-05)
(7.54567e-05 -2.76023e-05 -1.34575e-05)
(6.99184e-05 -3.96843e-05 -1.42589e-05)
(7.23465e-05 -3.34112e-05 -1.47072e-05)
(7.50829e-05 -3.24135e-05 -1.43106e-05)
(6.97635e-05 -2.21205e-05 -7.80429e-06)
(7.13162e-05 -3.7669e-05 -1.34295e-05)
(6.9977e-05 -2.63942e-05 -1.04266e-05)
(6.83261e-05 -2.80582e-05 -1.07573e-05)
(7.05398e-05 -1.5543e-05 -7.08655e-06)
(7.01787e-05 -2.19547e-05 -6.46232e-06)
(6.60779e-05 -1.68453e-05 -2.04375e-06)
(6.60679e-05 -2.182e-05 -6.32493e-06)
(7.01468e-05 -1.70913e-05 -2.15095e-06)
(6.89797e-05 -2.2933e-05 -7.79029e-06)
(7.05319e-05 -3.77222e-05 -1.34285e-05)
(6.34047e-05 -2.9685e-05 -1.09144e-05)
(6.50278e-05 -2.28996e-05 -7.65856e-06)
(6.61042e-05 -2.93504e-05 -1.08726e-05)
(7.11595e-05 -2.13809e-05 -6.39688e-06)
(7.14196e-05 -1.36214e-05 -1.89717e-06)
(7.11071e-05 -1.67112e-05 -2.17772e-06)
(7.13008e-05 -1.59608e-05 -5.96792e-06)
(7.17062e-05 -2.30525e-05 -1.18374e-05)
(7.08792e-05 -3.95726e-05 -1.42387e-05)
(7.22637e-05 -2.2111e-05 -1.16451e-05)
(7.04832e-05 -2.18568e-05 -1.12073e-05)
(7.7358e-05 -2.96696e-05 -1.41327e-05)
(7.29214e-05 -2.64563e-05 -1.2887e-05)
(6.89713e-05 -2.04069e-05 -9.93341e-06)
(7.14413e-05 -2.73173e-05 -1.25859e-05)
(7.01086e-05 -3.96397e-05 -1.42461e-05)
(7.3718e-05 -3.55113e-05 -1.51889e-05)
(6.88559e-05 -3.07877e-05 -1.35987e-05)
(6.95391e-05 -2.94613e-05 -1.31575e-05)
(7.65447e-05 -3.4287e-05 -1.48765e-05)
(7.15809e-05 -2.98213e-05 -1.33863e-05)
(7.61449e-05 -2.65443e-05 -8.37796e-06)
(6.63241e-05 -1.30025e-05 -8.07011e-06)
(7.10052e-05 -1.44244e-05 -7.65094e-06)
(7.57897e-05 -2.49772e-05 -7.51852e-06)
(7.07168e-05 -1.24665e-05 -3.07259e-06)
(7.14785e-05 -1.4772e-05 -5.70862e-06)
(6.14061e-05 -1.26836e-05 -7.27064e-06)
(6.03666e-05 -1.12716e-05 -6.52657e-06)
(5.96352e-05 -1.15302e-05 -5.26225e-06)
(6.77708e-05 -1.32313e-05 -6.37181e-06)
(7.81462e-05 -2.65266e-05 -8.49918e-06)
(7.10205e-05 -1.69528e-05 -9.32535e-06)
(6.87139e-05 -1.60365e-05 -8.50436e-06)
(7.53984e-05 -1.32481e-05 -8.09115e-06)
(7.3422e-05 -1.59541e-05 -7.87495e-06)
(6.63198e-05 -1.46404e-05 -7.20626e-06)
(6.77228e-05 -1.29944e-05 -4.69357e-06)
(7.72894e-05 -2.49646e-05 -7.59625e-06)
(7.01342e-05 -1.14607e-05 -1.68891e-06)
(7.17732e-05 -1.30222e-05 -2.86328e-06)
(6.68578e-05 -1.17667e-05 -2.31906e-06)
(7.19735e-05 -1.41531e-05 -5.94837e-06)
(7.37603e-05 -1.56271e-05 -5.76214e-06)
(6.17033e-05 -1.43201e-05 -5.15186e-06)
(6.42122e-05 -1.55501e-05 -8.1839e-06)
(6.64708e-05 -1.68337e-05 -8.78008e-06)
(6.3065e-05 -1.41911e-05 -7.23529e-06)
(6.61327e-05 -1.61173e-05 -8.13131e-06)
(6.19997e-05 -1.36622e-05 -6.09262e-06)
(6.41663e-05 -1.4682e-05 -6.94899e-06)
(6.51154e-05 -2.91377e-05 -9.99301e-06)
(7.32547e-05 -3.73033e-05 -1.33785e-05)
(7.12089e-05 -2.81588e-05 -1.18695e-05)
(7.08363e-05 -3.14992e-05 -1.23024e-05)
(6.79972e-05 -2.79177e-05 -1.01084e-05)
(6.43598e-05 -1.8712e-05 -4.7644e-06)
(6.18534e-05 -1.84268e-05 -4.89302e-06)
(5.79713e-05 -3.02324e-05 -1.0189e-05)
(6.62802e-05 -3.77798e-05 -1.34868e-05)
(6.17427e-05 -3.41932e-05 -1.26112e-05)
(5.64552e-05 -3.00331e-05 -1.02458e-05)
(6.33421e-05 -3.42585e-05 -1.25576e-05)
(7.17201e-05 -1.89931e-05 -4.52579e-06)
(7.56214e-05 -1.69818e-05 -4.5916e-06)
(5.85701e-05 -1.77768e-05 -4.98651e-06)
(6.10563e-05 -1.83943e-05 -4.90812e-06)
(5.35997e-05 -2.95858e-05 -1.03651e-05)
(6.07987e-05 -3.70934e-05 -1.36577e-05)
(6.0256e-05 -3.39702e-05 -1.26562e-05)
(5.50913e-05 -2.98458e-05 -1.0297e-05)
(5.86576e-05 -3.36638e-05 -1.27136e-05)
(6.67995e-05 -3.4405e-05 -1.49706e-05)
(6.12848e-05 -3.9094e-05 -1.44634e-05)
(6.62623e-05 -3.5651e-05 -1.46343e-05)
(7.52337e-05 -4.10177e-05 -1.6977e-05)
(6.44432e-05 -3.54106e-05 -1.46809e-05)
(7.32024e-05 -4.07788e-05 -1.70142e-05)
(6.91549e-05 -3.54144e-05 -1.50035e-05)
(6.56845e-05 -1.79432e-05 -4.15526e-06)
(6.81802e-05 -1.84223e-05 -4.22732e-06)
(5.65084e-05 -2.94332e-05 -1.00622e-05)
(6.17336e-05 -3.6996e-05 -1.35321e-05)
(6.18911e-05 -3.41494e-05 -1.25712e-05)
(6.03113e-05 -3.37889e-05 -1.25899e-05)
(5.79686e-05 -2.96915e-05 -1.00619e-05)
(6.86071e-05 -3.59375e-05 -1.5411e-05)
(6.13035e-05 -3.90069e-05 -1.44247e-05)
(7.55832e-05 -4.1797e-05 -1.70581e-05)
(6.74633e-05 -3.61119e-05 -1.48047e-05)
(7.35299e-05 -4.14924e-05 -1.70764e-05)
(6.5679e-05 -3.58848e-05 -1.48171e-05)
(7.07567e-05 -3.69122e-05 -1.54149e-05)
(7.26579e-05 -2.3241e-05 -1.2384e-05)
(7.3635e-05 -3.89623e-05 -1.41488e-05)
(7.0098e-05 -2.28214e-05 -1.16046e-05)
(7.45475e-05 -2.27099e-05 -1.25772e-05)
(7.4552e-05 -2.79833e-05 -1.33796e-05)
(8.2945e-05 -3.05092e-05 -1.52299e-05)
(6.82557e-05 -2.01538e-05 -1.0565e-05)
(7.23235e-05 -3.56396e-05 -1.47968e-05)
(6.67582e-05 -3.97299e-05 -1.43113e-05)
(6.7902e-05 -3.60121e-05 -1.45958e-05)
(7.71189e-05 -4.1616e-05 -1.69524e-05)
(6.96537e-05 -3.61802e-05 -1.45215e-05)
(7.06828e-05 -3.59299e-05 -1.4964e-05)
(7.90543e-05 -4.184e-05 -1.68802e-05)
(6.76095e-05 -2.94846e-05 -1.01707e-05)
(7.43948e-05 -3.73904e-05 -1.35164e-05)
(7.16542e-05 -3.06012e-05 -1.20148e-05)
(7.07189e-05 -3.33081e-05 -1.22176e-05)
(7.07624e-05 -2.87376e-05 -1.03936e-05)
(7.14001e-05 -1.88469e-05 -4.30811e-06)
(6.89946e-05 -1.86308e-05 -4.23609e-06)
(6.08242e-05 -3.00952e-05 -1.00775e-05)
(6.73701e-05 -3.77224e-05 -1.34447e-05)
(6.3402e-05 -3.43176e-05 -1.25571e-05)
(5.93638e-05 -2.99125e-05 -1.00677e-05)
(6.49713e-05 -3.43675e-05 -1.2544e-05)
(7.85142e-05 -1.91245e-05 -4.53269e-06)
(8.11847e-05 -1.7058e-05 -4.54588e-06)
(7.58074e-05 -2.5734e-05 -1.33949e-05)
(7.39526e-05 -3.90261e-05 -1.42047e-05)
(7.55304e-05 -2.65827e-05 -1.29935e-05)
(7.26779e-05 -2.62762e-05 -1.24005e-05)
(8.32078e-05 -3.27604e-05 -1.54008e-05)
(7.58321e-05 -2.94546e-05 -1.37824e-05)
(7.16107e-05 -2.39222e-05 -1.16178e-05)
(7.39723e-05 -3.66239e-05 -1.53115e-05)
(6.6953e-05 -3.96842e-05 -1.42894e-05)
(7.74191e-05 -4.23127e-05 -1.70239e-05)
(6.90802e-05 -3.6377e-05 -1.47779e-05)
(7.2247e-05 -3.72641e-05 -1.53927e-05)
(7.93507e-05 -4.23658e-05 -1.69536e-05)
(7.07986e-05 -3.63734e-05 -1.47251e-05)
(7.10001e-05 -1.34836e-05 -9.33613e-06)
(7.33247e-05 -1.99013e-05 -1.12509e-05)
(7.58409e-05 -3.25421e-05 -1.14011e-05)
(7.08617e-05 -1.79033e-05 -1.04666e-05)
(7.73522e-05 -2.13797e-05 -1.09948e-05)
(6.77998e-05 -1.49337e-05 -9.203e-06)
(7.49733e-05 -2.01953e-05 -1.0656e-05)
(7.38627e-05 -1.30575e-05 -4.11087e-06)
(7.57554e-05 -1.96545e-05 -4.56498e-06)
(7.43292e-05 -1.44746e-05 -2.63311e-06)
(7.82614e-05 -1.64411e-05 -4.7242e-06)
(7.34051e-05 -1.13666e-05 -2.65199e-06)
(7.47975e-05 -1.67986e-05 -4.18768e-06)
(5.85226e-05 -1.14733e-05 -6.39381e-06)
(6.74244e-05 -1.61209e-05 -1.00447e-05)
(6.57995e-05 -1.43478e-05 -9.59129e-06)
(6.53605e-05 -1.3972e-05 -9.06506e-06)
(6.525e-05 -1.47196e-05 -9.22024e-06)
(6.46542e-05 -1.3671e-05 -8.55892e-06)
(6.30433e-05 -1.33998e-05 -8.0783e-06)
(7.4015e-05 -1.69737e-05 -9.77551e-06)
(7.71653e-05 -3.25321e-05 -1.15239e-05)
(7.47457e-05 -2.38919e-05 -1.15906e-05)
(7.19074e-05 -2.0945e-05 -1.06932e-05)
(7.96857e-05 -2.30854e-05 -1.12847e-05)
(7.60845e-05 -2.18199e-05 -1.08097e-05)
(7.07625e-05 -1.91234e-05 -9.82759e-06)
(7.50854e-05 -1.31644e-05 -3.67003e-06)
(7.73619e-05 -1.96423e-05 -4.60521e-06)
(7.56478e-05 -1.4582e-05 -2.54553e-06)
(7.42062e-05 -1.17236e-05 -2.12879e-06)
(8.23584e-05 -1.60859e-05 -4.47609e-06)
(7.64777e-05 -1.69511e-05 -4.14312e-06)
(6.28788e-05 -1.56149e-05 -7.59884e-06)
(6.78779e-05 -1.81684e-05 -1.02254e-05)
(7.01257e-05 -2.05285e-05 -1.07794e-05)
(6.69399e-05 -1.68195e-05 -9.4906e-06)
(6.87206e-05 -1.89888e-05 -1.02359e-05)
(6.44915e-05 -1.55945e-05 -8.51707e-06)
(6.79183e-05 -1.78467e-05 -9.37732e-06)
(6.35771e-05 -2.97828e-05 -9.99686e-06)
(7.24624e-05 -3.74021e-05 -1.33649e-05)
(6.75722e-05 -3.37749e-05 -1.23811e-05)
(6.21432e-05 -3.00798e-05 -1.00456e-05)
(6.91441e-05 -3.30277e-05 -1.23224e-05)
(6.49726e-05 -2.67726e-05 -8.78855e-06)
(7.47522e-05 -1.93969e-05 -8.02744e-06)
(7.11194e-05 -2.49792e-05 -8.05426e-06)
(6.85739e-05 -2.59873e-05 -9.0167e-06)
(6.31944e-05 -2.73283e-05 -8.78039e-06)
(6.78016e-05 -2.54778e-05 -8.14043e-06)
(6.17627e-05 -2.75013e-05 -8.81306e-06)
(7.0267e-05 -2.53796e-05 -8.0574e-06)
(6.31932e-05 -1.9845e-05 -5.3121e-06)
(6.10739e-05 -2.40817e-05 -7.63987e-06)
(6.35403e-05 -2.43816e-05 -7.54049e-06)
(6.07308e-05 -1.95457e-05 -5.42015e-06)
(6.5089e-05 -1.89197e-05 -4.74054e-06)
(6.7601e-05 -1.90782e-05 -4.66761e-06)
(6.39235e-05 -1.99584e-05 -5.28517e-06)
(6.66907e-05 -2.44003e-05 -7.41845e-06)
(6.42774e-05 -2.44127e-05 -7.5087e-06)
(6.63725e-05 -2.01649e-05 -5.20886e-06)
(5.93337e-05 -3.02511e-05 -1.01369e-05)
(6.70792e-05 -3.78085e-05 -1.34699e-05)
(6.63005e-05 -3.41144e-05 -1.24434e-05)
(6.08067e-05 -3.02232e-05 -1.00824e-05)
(6.47811e-05 -3.42623e-05 -1.25044e-05)
(5.7489e-05 -2.7505e-05 -8.97307e-06)
(6.14634e-05 -2.54079e-05 -8.39966e-06)
(6.39322e-05 -2.56333e-05 -8.28336e-06)
(5.60305e-05 -2.7319e-05 -9.0254e-06)
(5.89113e-05 -2.7624e-05 -8.91959e-06)
(6.7087e-05 -2.54779e-05 -8.14844e-06)
(6.03463e-05 -2.75722e-05 -8.85037e-06)
(6.46683e-05 -2.5719e-05 -8.2507e-06)
(7.02239e-05 -2.00088e-05 -5.06176e-06)
(7.40295e-05 -2.01734e-05 -7.27854e-06)
(7.06088e-05 -2.41262e-05 -7.29058e-06)
(7.35146e-05 -1.82514e-05 -5.07195e-06)
(7.08525e-05 -1.9204e-05 -4.55249e-06)
(6.83534e-05 -1.92142e-05 -4.62637e-06)
(6.94959e-05 -2.0166e-05 -5.08968e-06)
(6.74191e-05 -2.44932e-05 -7.38639e-06)
(6.9833e-05 -2.43501e-05 -7.30539e-06)
(6.71133e-05 -2.0241e-05 -5.18123e-06)
(5.75048e-05 -1.89251e-05 -5.52539e-06)
(6.03124e-05 -2.3909e-05 -7.65644e-06)
(5.99807e-05 -1.9483e-05 -5.44831e-06)
(5.78779e-05 -2.29679e-05 -7.70392e-06)
(5.99807e-05 -3.69114e-05 -1.36838e-05)
(5.31882e-05 -2.67883e-05 -9.15132e-06)
(6.07099e-05 -2.50764e-05 -8.39391e-06)
(5.45942e-05 -2.70838e-05 -9.07683e-06)
(5.82685e-05 -2.44336e-05 -8.48256e-06)
(6.0467e-05 -3.8915e-05 -1.44874e-05)
(6.42973e-05 -1.9194e-05 -4.73221e-06)
(6.6081e-05 -2.41534e-05 -7.14563e-06)
(6.36503e-05 -2.3736e-05 -7.09135e-06)
(6.67529e-05 -1.96076e-05 -4.79107e-06)
(6.28925e-05 -2.34707e-05 -7.06462e-06)
(6.09165e-05 -3.68141e-05 -1.3549e-05)
(5.70941e-05 -2.6747e-05 -8.71166e-06)
(6.60389e-05 -2.5394e-05 -7.96952e-06)
(6.36045e-05 -2.49889e-05 -7.91215e-06)
(5.85076e-05 -2.70398e-05 -8.72757e-06)
(6.28444e-05 -2.47286e-05 -7.87123e-06)
(6.04857e-05 -3.88277e-05 -1.44484e-05)
(7.47337e-05 -2.95115e-05 -1.34166e-05)
(7.28524e-05 -3.91273e-05 -1.41581e-05)
(7.36297e-05 -3.38876e-05 -1.42067e-05)
(8.3464e-05 -3.85364e-05 -1.65164e-05)
(7.47629e-05 -3.2308e-05 -1.39403e-05)
(7.57506e-05 -3.27143e-05 -1.42903e-05)
(8.44052e-05 -3.71265e-05 -1.61549e-05)
(7.36661e-05 -3.55146e-05 -1.47085e-05)
(6.75381e-05 -3.97481e-05 -1.42972e-05)
(7.26133e-05 -3.5492e-05 -1.43533e-05)
(8.23662e-05 -4.06067e-05 -1.66967e-05)
(7.1169e-05 -3.61249e-05 -1.44661e-05)
(7.51349e-05 -3.48424e-05 -1.45242e-05)
(8.07864e-05 -4.17196e-05 -1.6822e-05)
(6.62671e-05 -2.98559e-05 -1.01486e-05)
(7.36426e-05 -3.74292e-05 -1.34688e-05)
(6.92972e-05 -3.39494e-05 -1.24998e-05)
(6.49556e-05 -3.00507e-05 -1.01332e-05)
(7.04976e-05 -3.35992e-05 -1.24359e-05)
(6.86554e-05 -2.69512e-05 -8.99096e-06)
(7.92587e-05 -1.98347e-05 -8.19681e-06)
(7.62089e-05 -2.5287e-05 -8.24299e-06)
(7.23464e-05 -2.63947e-05 -9.29608e-06)
(6.69312e-05 -2.73498e-05 -8.91001e-06)
(7.30344e-05 -2.58927e-05 -8.14781e-06)
(6.55559e-05 -2.75342e-05 -8.8729e-06)
(7.54004e-05 -2.56505e-05 -8.21095e-06)
(6.99075e-05 -2.00683e-05 -4.88485e-06)
(6.68363e-05 -2.42208e-05 -7.15694e-06)
(6.7529e-05 -1.97759e-05 -4.82007e-06)
(6.92574e-05 -2.46104e-05 -7.25954e-06)
(7.21871e-05 -1.90333e-05 -4.33662e-06)
(7.45679e-05 -1.91746e-05 -4.42969e-06)
(7.06549e-05 -2.01669e-05 -4.91563e-06)
(7.23457e-05 -2.47491e-05 -7.32238e-06)
(6.99927e-05 -2.46234e-05 -7.26986e-06)
(7.29999e-05 -2.03065e-05 -4.9923e-06)
(6.21895e-05 -3.01341e-05 -1.00902e-05)
(6.81643e-05 -3.77516e-05 -1.34374e-05)
(6.79447e-05 -3.42188e-05 -1.25167e-05)
(6.36256e-05 -3.01544e-05 -1.01109e-05)
(6.64338e-05 -3.43944e-05 -1.25292e-05)
(6.13635e-05 -2.74291e-05 -8.77132e-06)
(6.68024e-05 -2.55287e-05 -7.97158e-06)
(5.99391e-05 -2.7324e-05 -8.74675e-06)
(6.92188e-05 -2.58222e-05 -8.04124e-06)
(6.27688e-05 -2.75677e-05 -8.80004e-06)
(7.23271e-05 -2.59638e-05 -8.11569e-06)
(6.41816e-05 -2.76511e-05 -8.83412e-06)
(6.99679e-05 -2.59067e-05 -8.05003e-06)
(7.67126e-05 -2.02305e-05 -5.09918e-06)
(7.89294e-05 -2.05679e-05 -7.42564e-06)
(7.61441e-05 -2.43722e-05 -7.44642e-06)
(7.9111e-05 -1.84131e-05 -5.10357e-06)
(7.774e-05 -1.93046e-05 -4.51663e-06)
(7.53581e-05 -1.92992e-05 -4.44289e-06)
(7.60285e-05 -2.03491e-05 -5.08832e-06)
(7.30708e-05 -2.4711e-05 -7.33211e-06)
(7.5394e-05 -2.45347e-05 -7.41787e-06)
(7.37461e-05 -2.03676e-05 -5.02286e-06)
(7.74214e-05 -3.0999e-05 -1.42459e-05)
(7.31934e-05 -3.91482e-05 -1.41939e-05)
(8.39523e-05 -3.92313e-05 -1.66474e-05)
(7.51179e-05 -3.41275e-05 -1.45306e-05)
(8.49243e-05 -3.81457e-05 -1.63016e-05)
(7.62358e-05 -3.30343e-05 -1.43041e-05)
(7.77441e-05 -3.38059e-05 -1.48965e-05)
(7.53655e-05 -3.63326e-05 -1.52359e-05)
(6.77328e-05 -3.97029e-05 -1.42756e-05)
(8.27271e-05 -4.11832e-05 -1.67974e-05)
(7.38901e-05 -3.56015e-05 -1.46265e-05)
(8.10769e-05 -4.22568e-05 -1.68932e-05)
(7.23636e-05 -3.63185e-05 -1.46837e-05)
(7.69189e-05 -3.58942e-05 -1.50755e-05)
(7.36633e-05 -1.61679e-05 -9.00907e-06)
(7.56864e-05 -3.0785e-05 -1.05224e-05)
(8.90737e-05 -1.8695e-05 -9.82496e-06)
(7.68845e-05 -2.11367e-05 -8.64652e-06)
(7.97902e-05 -2.23979e-05 -1.01561e-05)
(7.77297e-05 -1.70035e-05 -8.30017e-06)
(7.67379e-05 -2.1805e-05 -9.90297e-06)
(7.43223e-05 -1.56454e-05 -5.4245e-06)
(7.5771e-05 -2.0968e-05 -5.30981e-06)
(7.95381e-05 -1.99548e-05 -7.82248e-06)
(7.57073e-05 -2.02545e-05 -7.15823e-06)
(7.73201e-05 -1.8343e-05 -5.28519e-06)
(7.56073e-05 -1.63566e-05 -6.95593e-06)
(7.53564e-05 -1.91034e-05 -5.59943e-06)
(7.71126e-05 -1.80695e-05 -9.34325e-06)
(7.73755e-05 -3.07708e-05 -1.06662e-05)
(9.27511e-05 -1.8796e-05 -9.9583e-06)
(7.87729e-05 -2.16549e-05 -8.7514e-06)
(8.31184e-05 -2.31193e-05 -1.04016e-05)
(7.81957e-05 -2.26077e-05 -1.00226e-05)
(8.13734e-05 -1.79e-05 -8.50375e-06)
(7.71285e-05 -1.58887e-05 -5.31629e-06)
(7.7333e-05 -2.09561e-05 -5.3595e-06)
(8.44777e-05 -2.0377e-05 -7.95978e-06)
(7.76193e-05 -2.05355e-05 -7.24923e-06)
(8.21391e-05 -1.82652e-05 -5.24516e-06)
(7.72777e-05 -1.93024e-05 -5.63224e-06)
(7.90875e-05 -1.68661e-05 -7.04204e-06)
(5.99497e-05 -1.67669e-05 -6.43863e-06)
(5.89075e-05 -1.61252e-05 -3.47597e-06)
(5.98767e-05 -1.48959e-05 -5.69046e-06)
(5.23505e-05 -1.13592e-05 -5.01204e-06)
(4.94711e-05 -1.41237e-05 -4.49682e-06)
(5.28242e-05 -1.18292e-05 -5.37828e-06)
(4.85148e-05 -1.37124e-05 -4.5327e-06)
(7.86812e-05 -1.33056e-05 -3.71978e-06)
(3.77646e-05 -9.313e-06 -1.20375e-05)
(8.48603e-05 -1.10313e-05 -8.39956e-06)
(7.92493e-05 -1.74358e-05 -1.20427e-05)
(0.000128289 -2.52746e-05 -1.02143e-05)
(8.47154e-05 -1.41884e-05 -1.72618e-05)
(0.000137325 -2.22632e-05 -1.58941e-05)
(6.4676e-05 -1.81829e-05 -2.61638e-06)
(6.24717e-05 -2.00224e-05 -4.96549e-06)
(6.36767e-05 -2.05298e-05 -5.16387e-06)
(6.83416e-05 -2.06528e-05 -5.38273e-06)
(6.71176e-05 -1.80486e-05 -2.75268e-06)
(6.42416e-05 -1.99447e-05 -5.05398e-06)
(6.69236e-05 -1.89935e-05 -2.6029e-06)
(6.53843e-05 -1.93103e-05 -4.92934e-06)
(6.62445e-05 -2.0531e-05 -5.34116e-06)
(6.91973e-05 -1.7846e-05 -2.78373e-06)
(5.71722e-05 -1.66526e-05 -6.63959e-06)
(4.80384e-05 -1.37059e-05 -4.52504e-06)
(5.08125e-05 -1.12886e-05 -5.53928e-06)
(7.43859e-05 -3.53694e-05 -1.26018e-05)
(7.47702e-05 -3.72208e-05 -1.34675e-05)
(7.74976e-05 -3.38873e-05 -1.36307e-05)
(7.7621e-05 -3.73786e-05 -1.38425e-05)
(7.50462e-05 -3.52452e-05 -1.25986e-05)
(6.40595e-05 -3.56614e-05 -1.26967e-05)
(6.48529e-05 -3.77082e-05 -1.35395e-05)
(6.27909e-05 -3.66115e-05 -1.31872e-05)
(6.32502e-05 -3.55704e-05 -1.27242e-05)
(6.35977e-05 -3.6691e-05 -1.31664e-05)
(5.42539e-05 -1.36784e-05 -3.40074e-06)
(5.48516e-05 -1.1487e-05 -4.24953e-06)
(5.80206e-05 -1.247e-05 -4.87627e-06)
(5.15387e-05 -1.09943e-05 -4.84307e-06)
(4.29403e-05 -1.24884e-05 -5.66204e-06)
(4.61551e-05 -1.28205e-05 -4.87657e-06)
(5.14959e-05 -1.09687e-05 -5.05379e-06)
(6.16284e-05 -3.53297e-05 -1.27829e-05)
(6.24281e-05 -3.73998e-05 -1.36079e-05)
(6.20115e-05 -3.65017e-05 -1.32107e-05)
(6.24401e-05 -3.54595e-05 -1.27531e-05)
(6.12003e-05 -3.63774e-05 -1.32368e-05)
(7.26499e-05 -3.94493e-05 -1.6605e-05)
(6.2913e-05 -3.93919e-05 -1.44186e-05)
(6.58502e-05 -3.79212e-05 -1.46959e-05)
(8.05383e-05 -4.51866e-05 -1.82046e-05)
(6.49854e-05 -3.77915e-05 -1.47146e-05)
(7.94902e-05 -4.52567e-05 -1.82334e-05)
(7.37903e-05 -3.97639e-05 -1.65226e-05)
(6.37755e-05 -3.53064e-05 -1.26212e-05)
(6.33593e-05 -3.73022e-05 -1.35015e-05)
(6.31755e-05 -3.64527e-05 -1.31182e-05)
(6.23641e-05 -3.63267e-05 -1.31324e-05)
(6.45822e-05 -3.54366e-05 -1.26143e-05)
(7.30887e-05 -3.98898e-05 -1.66467e-05)
(6.29316e-05 -3.93051e-05 -1.43805e-05)
(8.05621e-05 -4.54863e-05 -1.81665e-05)
(6.62137e-05 -3.79936e-05 -1.46721e-05)
(7.95141e-05 -4.54662e-05 -1.81752e-05)
(6.5348e-05 -3.7862e-05 -1.46829e-05)
(7.4189e-05 -4.01831e-05 -1.65675e-05)
(7.80205e-05 -2.55253e-05 -1.38079e-05)
(7.50261e-05 -3.86158e-05 -1.41148e-05)
(7.3948e-05 -2.89967e-05 -1.29813e-05)
(7.97727e-05 -2.95103e-05 -1.41809e-05)
(7.69128e-05 -3.26733e-05 -1.40328e-05)
(8.81692e-05 -3.59096e-05 -1.62444e-05)
(7.30428e-05 -2.44793e-05 -1.22384e-05)
(7.5595e-05 -3.99123e-05 -1.65418e-05)
(6.53345e-05 -3.96779e-05 -1.43584e-05)
(6.66578e-05 -3.8031e-05 -1.46741e-05)
(8.15406e-05 -4.5509e-05 -1.81777e-05)
(6.75326e-05 -3.81008e-05 -1.46494e-05)
(7.46142e-05 -4.00221e-05 -1.65015e-05)
(8.25774e-05 -4.56904e-05 -1.81583e-05)
(7.59861e-05 -3.55241e-05 -1.28245e-05)
(7.53276e-05 -3.75688e-05 -1.36757e-05)
(7.56421e-05 -3.47279e-05 -1.33378e-05)
(6.88856e-05 -3.40385e-05 -1.22478e-05)
(7.64253e-05 -3.54722e-05 -1.28384e-05)
(6.93174e-05 -1.91894e-05 -5.24499e-06)
(6.69345e-05 -1.76232e-05 -2.50495e-06)
(6.94842e-05 -1.50174e-05 -2.49524e-06)
(6.33474e-05 -1.56858e-05 -4.27144e-06)
(6.57169e-05 -1.78257e-05 -4.73489e-06)
(7.04506e-05 -1.68744e-05 -2.73425e-06)
(6.88908e-05 -1.63481e-05 -4.92885e-06)
(6.6185e-05 -3.56374e-05 -1.26038e-05)
(6.57744e-05 -3.76113e-05 -1.34635e-05)
(6.3953e-05 -3.65588e-05 -1.31082e-05)
(6.53853e-05 -3.55471e-05 -1.26085e-05)
(6.47523e-05 -3.66381e-05 -1.3099e-05)
(7.80474e-05 -2.74762e-05 -1.4028e-05)
(7.5145e-05 -3.88003e-05 -1.42083e-05)
(7.90586e-05 -3.14968e-05 -1.41831e-05)
(7.43718e-05 -3.13837e-05 -1.31867e-05)
(8.62876e-05 -3.74848e-05 -1.59827e-05)
(7.54179e-05 -3.42984e-05 -1.38598e-05)
(7.40602e-05 -2.71854e-05 -1.26611e-05)
(7.59854e-05 -4.02976e-05 -1.65869e-05)
(6.53528e-05 -3.95921e-05 -1.43212e-05)
(8.15525e-05 -4.57549e-05 -1.81354e-05)
(6.70129e-05 -3.80977e-05 -1.46518e-05)
(7.4993e-05 -4.03834e-05 -1.65405e-05)
(8.25899e-05 -4.58737e-05 -1.81011e-05)
(6.78862e-05 -3.81536e-05 -1.46276e-05)
(7.65815e-05 -2.45055e-05 -1.20182e-05)
(7.90815e-05 -2.95427e-05 -1.3398e-05)
(7.59481e-05 -3.6634e-05 -1.33121e-05)
(7.44227e-05 -2.31436e-05 -1.21762e-05)