/*--------------------------------*- C++ -*----------------------------------*\
| =========                 |                                                 |
| \\      /  F ield         | OpenFOAM: The Open Source CFD Toolbox           |
|  \\    /   O peration     | Version:  2012                                  |
|   \\  /    A nd           | Website:  www.openfoam.com                      |
|    \\/     M anipulation  |                                                 |
\*---------------------------------------------------------------------------*/
FoamFile
{
    version     2.0;
    format      ascii;
    class       surfaceScalarField;
    location    "0.105/fluid";
    object      meshPhi;
}
// * * * * * * * * * * * * * * * * * * * * * * * * * * * * * * * * * * * * * //

dimensions      [0 3 -1 0 0 0 0];
oriented        oriented;


internalField   nonuniform List<scalar> 
46886
(
-1.39508e-06
-2.05439e-06
-3.82202e-05
2.03345e-06
5.35138e-06
-1.26258e-06
-1.41529e-06
-1.27775e-06
-3.2804e-06
3.5466e-05
-5.91e-06
5.75213e-06
-3.39293e-05
3.43469e-06
-4.4521e-06
-2.86037e-06
2.87653e-05
4.35607e-06
-2.70493e-05
2.88914e-06
-2.93282e-06
-2.49491e-06
2.22827e-05
-2.08381e-05
2.50585e-06
2.89454e-06
-1.73732e-06
-2.24109e-06
1.69013e-05
-1.57155e-05
2.24436e-06
1.72631e-06
-8.60568e-07
-2.11215e-06
1.25025e-05
-1.15377e-05
2.10296e-06
8.60381e-07
-2.64981e-07
-2.06569e-06
8.91429e-06
-8.12544e-06
2.04269e-06
2.65297e-07
1.07267e-07
-2.0267e-06
5.97559e-06
-5.32824e-06
1.99606e-06
-1.1053e-07
3.19099e-07
-1.97446e-06
3.57503e-06
-3.05623e-06
1.93587e-06
-3.25699e-07
4.14388e-07
-1.96203e-06
1.70072e-06
-1.32029e-06
1.91509e-06
-4.22394e-07
4.2468e-07
-1.84757e-06
3.91671e-07
-1.54448e-07
1.79059e-06
-4.32558e-07
3.81529e-07
-1.62243e-06
-3.66822e-07
4.77704e-07
1.58899e-06
-3.87848e-07
3.08779e-07
-1.34718e-06
-6.50355e-07
6.60039e-07
1.33089e-06
-3.13039e-07
2.17211e-07
-9.74935e-07
-5.95826e-07
5.45098e-07
9.66868e-07
-2.20075e-07
1.07803e-07
-5.02816e-07
-3.15894e-07
2.16118e-07
4.99246e-07
-1.09304e-07
-4.84945e-06
-8.90728e-07
-3.25388e-05
8.86391e-07
4.55852e-06
-2.9522e-06
-3.52196e-06
3.08586e-05
2.89344e-06
-3.00285e-05
3.39932e-06
-2.94234e-06
-2.79243e-06
2.70162e-05
-2.59045e-05
2.67041e-06
2.90044e-06
-2.18335e-06
-2.34042e-06
2.24576e-05
-2.13009e-05
2.20499e-06
2.16662e-06
-1.33187e-06
-2.04735e-06
1.78899e-05
-1.67928e-05
1.90481e-06
1.33095e-06
-6.07165e-07
-1.87992e-06
1.36609e-05
-1.26777e-05
1.73598e-06
6.12206e-07
-7.83395e-08
-1.79938e-06
9.91697e-06
-9.06121e-06
1.65715e-06
8.09676e-08
2.64692e-07
-1.74051e-06
6.67735e-06
-5.94462e-06
1.6009e-06
-2.67709e-07
4.61409e-07
-1.65802e-06
3.93494e-06
-3.33412e-06
1.51727e-06
-4.69076e-07
5.41802e-07
-1.58627e-06
1.77039e-06
-1.33694e-06
1.43326e-06
-5.51611e-07
5.30352e-07
-1.47693e-06
2.97533e-07
-3.51797e-08
1.33585e-06
-5.40066e-07
4.62387e-07
-1.33979e-06
-5.32903e-07
6.50321e-07
1.21384e-06
-4.69433e-07
3.64471e-07
-1.14854e-06
-8.09344e-07
8.07181e-07
1.0478e-06
-3.69033e-07
2.51004e-07
-8.58371e-07
-7.00687e-07
6.26921e-07
7.91793e-07
-2.54398e-07
1.22908e-07
-4.5012e-07
-3.44923e-07
2.36327e-07
4.16007e-07
-1.25334e-07
-3.22956e-07
-3.2528e-06
-2.9785e-05
2.62943e-06
3.28513e-07
-1.39637e-06
-2.53233e-06
2.84455e-05
-2.78491e-05
2.05945e-06
1.38759e-06
-1.69511e-06
-1.9457e-06
2.56921e-05
-2.48651e-05
1.57009e-06
1.68814e-06
-1.40573e-06
-1.52824e-06
2.21352e-05
-2.11624e-05
1.21288e-06
1.40715e-06
-8.71707e-07
-1.26134e-06
1.81469e-05
-1.71312e-05
9.85659e-07
8.8041e-07
-3.26675e-07
-1.12342e-06
1.41213e-05
-1.31442e-05
8.71174e-07
3.37178e-07
1.11407e-07
-1.06978e-06
1.03245e-05
-9.43035e-06
8.29577e-07
-1.0468e-07
4.09568e-07
-1.03898e-06
6.90462e-06
-6.12171e-06
8.0861e-07
-4.09235e-07
5.78986e-07
-9.7562e-07
3.96846e-06
-3.32761e-06
7.58966e-07
-5.84848e-07
6.34145e-07
-8.94816e-07
1.67935e-06
-1.23127e-06
6.93579e-07
-6.43675e-07
5.98767e-07
-8.35419e-07
1.66706e-07
1.04609e-07
6.50621e-07
-6.08381e-07
5.13134e-07
-7.82045e-07
-7.1113e-07
8.41697e-07
6.19953e-07
-5.21577e-07
4.00272e-07
-6.85795e-07
-1.01192e-06
1.00585e-06
5.44338e-07
-4.07191e-07
2.7451e-07
-5.12538e-07
-8.70445e-07
7.82554e-07
3.98237e-07
-2.80589e-07
1.34885e-07
-2.63268e-07
-4.44818e-07
3.11213e-07
2.01133e-07
-1.38578e-07
-1.54513e-06
-5.41709e-06
-4.08869e-05
5.33726e-06
1.33798e-06
3.77976e-05
-4.37179e-06
-3.72967e-06
-3.61767e-05
3.77385e-06
3.78654e-06
-3.66753e-06
-2.94691e-06
3.06492e-05
-2.87676e-05
2.95765e-06
3.34756e-06
-2.55539e-06
-2.28955e-06
2.3419e-05
-2.17803e-05
2.30118e-06
2.38465e-06
-1.56336e-06
-1.79573e-06
1.73187e-05
-1.59813e-05
1.80869e-06
1.47387e-06
-7.90306e-07
-1.49203e-06
1.23768e-05
-1.13027e-05
1.50075e-06
7.47705e-07
-2.40307e-07
-1.3411e-06
8.41314e-06
-7.55634e-06
1.34175e-06
2.24973e-07
1.17586e-07
-1.26272e-06
5.26688e-06
-4.59321e-06
1.25778e-06
-1.18042e-07
3.26067e-07
-1.22707e-06
2.80889e-06
-2.29427e-06
1.20806e-06
-3.18772e-07
4.19682e-07
-1.2274e-06
9.77757e-07
-6.19848e-07
1.20534e-06
-4.08675e-07
4.26436e-07
-1.19656e-06
-2.30467e-07
4.3928e-07
1.17535e-06
-4.13579e-07
3.78724e-07
-1.08799e-06
-8.63618e-07
9.3641e-07
1.08229e-06
-3.66267e-07
3.0373e-07
-9.27524e-07
-1.00804e-06
9.91113e-07
9.35218e-07
-2.93633e-07
2.14804e-07
-6.82897e-07
-8.60384e-07
7.89395e-07
6.88638e-07
-2.08642e-07
1.0836e-07
-3.47631e-07
-4.81767e-07
3.47682e-07
3.45815e-07
-1.06042e-07
-4.74862e-06
-7.78992e-07
-3.55372e-05
7.18923e-07
4.44026e-06
-2.42903e-06
-3.60893e-06
3.3524e-05
2.21014e-06
-3.25382e-05
3.43033e-06
-2.53685e-06
-2.77978e-06
2.89748e-05
-2.76568e-05
2.63397e-06
2.35525e-06
-1.95351e-06
-2.14522e-06
2.35974e-05
-2.22533e-05
2.02133e-06
1.83801e-06
-1.22594e-06
-1.67954e-06
1.83328e-05
-1.70833e-05
1.57497e-06
1.16235e-06
-5.73766e-07
-1.37958e-06
1.35631e-05
-1.24716e-05
1.28805e-06
5.46088e-07
-7.53641e-08
-1.21718e-06
9.44718e-06
-8.52501e-06
1.13263e-06
7.01572e-08
2.61833e-07
-1.13079e-06
6.00682e-06
-5.25086e-06
1.05055e-06
-2.54352e-07
4.62317e-07
-1.05402e-06
3.2128e-06
-2.60838e-06
9.67364e-07
-4.48607e-07
5.47448e-07
-1.00024e-06
1.05948e-06
-6.4733e-07
8.83855e-07
-5.32043e-07
5.32902e-07
-9.64351e-07
-3.33373e-07
5.70259e-07
8.47138e-07
-5.16067e-07
4.57884e-07
-9.19305e-07
-1.04798e-06
1.12574e-06
8.15274e-07
-4.42458e-07
3.59091e-07
-8.48104e-07
-1.20872e-06
1.18795e-06
7.70454e-07
-3.48435e-07
2.49293e-07
-6.54231e-07
-1.02494e-06
9.31708e-07
6.13953e-07
-2.43538e-07
1.25326e-07
-3.33518e-07
-5.66211e-07
4.1559e-07
3.19003e-07
-1.22569e-07
-3.09215e-07
-3.11045e-06
-3.21899e-05
2.49863e-06
2.91771e-07
-1.24529e-06
-2.46776e-06
3.06013e-05
-2.98811e-05
1.98929e-06
1.1668e-06
-1.53746e-06
-1.8773e-06
2.7272e-05
-2.62816e-05
1.50641e-06
1.45129e-06
-1.30591e-06
-1.40785e-06
2.30688e-05
-2.19463e-05
1.1194e-06
1.24166e-06
-8.35513e-07
-1.07302e-06
1.85185e-05
-1.73804e-05
8.45596e-07
7.99437e-07
-3.33581e-07
-8.64677e-07
1.40463e-05
-1.29789e-05
6.77479e-07
3.21802e-07
8.72684e-08
-7.5641e-07
9.94088e-06
-8.99372e-06
5.92197e-07
-8.23119e-08
3.87652e-07
-7.02529e-07
6.35717e-06
-5.55238e-06
5.51066e-07
-3.73314e-07
5.69586e-07
-6.2249e-07
3.34874e-06
-2.69461e-06
4.87878e-07
-5.51843e-07
6.36111e-07
-5.16668e-07
1.02021e-06
-5.73317e-07
4.0732e-07
-6.19298e-07
5.96913e-07
-4.96294e-07
-4.25506e-07
6.7389e-07
4.0023e-07
-5.80346e-07
5.13587e-07
-4.87917e-07
-1.27438e-06
1.41373e-06
3.86606e-07
-5.00703e-07
4.05907e-07
-4.7166e-07
-1.58213e-06
1.54397e-06
3.73226e-07
-3.97947e-07
2.80288e-07
-4.25393e-07
-1.30562e-06
1.18573e-06
3.40385e-07
-2.7353e-07
1.41591e-07
-2.25349e-07
-7.41571e-07
5.54753e-07
1.78135e-07
-1.38827e-07
-8.43462e-07
-4.45777e-06
-3.4621e-05
4.43061e-06
7.14758e-07
-2.29533e-06
-3.45633e-06
3.25378e-05
3.46141e-06
-3.14852e-05
1.91159e-06
-2.33342e-06
-2.62002e-06
2.76291e-05
-2.62116e-05
2.63248e-06
2.01152e-06
-1.78096e-06
-1.91076e-06
2.18776e-05
-2.04634e-05
1.92868e-06
1.5667e-06
-1.13484e-06
-1.35037e-06
1.64239e-05
-1.51654e-05
1.37056e-06
1.00703e-06
-5.79053e-07
-9.74334e-07
1.16769e-05
-1.06163e-05
9.9173e-07
5.14188e-07
-1.65207e-07
-7.92527e-07
7.73574e-06
-6.87765e-06
7.99944e-07
1.43726e-07
1.1261e-07
-6.94463e-07
4.58596e-06
-3.91677e-06
7.01017e-07
-1.06494e-07
2.76124e-07
-6.46221e-07
2.16497e-06
-1.66992e-06
6.50911e-07
-2.53577e-07
3.44923e-07
-6.5948e-07
4.39831e-07
-1.14446e-07
6.65456e-07
-3.13159e-07
3.43036e-07
-6.78617e-07
-6.68138e-07
8.65578e-07
6.96536e-07
-3.09934e-07
3.03449e-07
-6.49796e-07
-1.26187e-06
1.32374e-06
6.76153e-07
-2.74657e-07
2.44364e-07
-6.12125e-07
-1.35177e-06
1.31403e-06
6.39997e-07
-2.21614e-07
1.75652e-07
-4.74818e-07
-1.12315e-06
1.03876e-06
4.88786e-07
-1.59555e-07
9.17114e-08
-2.18392e-07
-6.92237e-07
5.3287e-07
2.11918e-07
-8.40675e-08
-5.10362e-07
-4.00676e-06
-3.34044e-05
3.74944e-06
4.40514e-07
-1.52533e-06
-3.20102e-06
3.16264e-05
-3.07813e-05
3.01179e-06
1.31139e-06
-1.72915e-06
-2.44612e-06
2.7677e-05
-2.65062e-05
2.30273e-06
1.51339e-06
-1.40619e-06
-1.8019e-06
2.27871e-05
-2.15181e-05
1.69489e-06
1.24572e-06
-9.08306e-07
-1.29376e-06
1.77351e-05
-1.65061e-05
1.21751e-06
8.09174e-07
-4.2771e-07
-9.41228e-07
1.29862e-05
-1.18841e-05
8.87114e-07
3.80578e-07
-4.62379e-08
-7.45783e-07
8.81756e-06
-7.88338e-06
7.02421e-07
3.79103e-08
2.17787e-07
-6.58529e-07
5.34603e-06
-4.59358e-06
6.22823e-07
-1.99966e-07
3.75582e-07
-6.05388e-07
2.58713e-06
-1.99283e-06
5.63838e-07
-3.4088e-07
4.39554e-07
-5.84259e-07
5.24334e-07
-1.66193e-07
5.1955e-07
-3.9509e-07
4.19729e-07
-6.36113e-07
-7.33817e-07
9.68525e-07
5.72928e-07
-3.7566e-07
3.61326e-07
-6.5371e-07
-1.46146e-06
1.53969e-06
6.09184e-07
-3.24655e-07
2.90702e-07
-6.33998e-07
-1.6371e-06
1.61372e-06
5.94228e-07
-2.62188e-07
2.08003e-07
-4.77768e-07
-1.42196e-06
1.29271e-06
4.51714e-07
-1.87637e-07
1.03922e-07
-2.25875e-07
-7.83537e-07
5.95702e-07
2.29716e-07
-9.46245e-08
-2.16674e-07
-2.58768e-06
-3.18161e-05
2.05966e-06
1.88404e-07
-8.78772e-07
-2.0989e-06
3.02104e-05
-2.94957e-05
1.67261e-06
7.74684e-07
-1.12118e-06
-1.60227e-06
2.69109e-05
-2.5929e-05
1.27467e-06
9.96468e-07
-9.78785e-07
-1.16896e-06
2.27201e-05
-2.15908e-05
9.25631e-07
8.74649e-07
-6.38374e-07
-8.34199e-07
1.81291e-05
-1.69756e-05
6.57883e-07
5.71808e-07
-2.58065e-07
-6.09341e-07
1.35854e-05
-1.24974e-05
4.8016e-07
2.30515e-07
7.09034e-08
-4.85829e-07
9.40467e-06
-8.44489e-06
3.83937e-07
-6.62178e-08
3.10799e-07
-4.37089e-07
5.80045e-06
-5.00388e-06
3.46753e-07
-2.82828e-07
4.58732e-07
-3.88205e-07
2.85309e-06
-2.22152e-06
3.1085e-07
-4.15144e-07
5.15924e-07
-3.42467e-07
6.14224e-07
-1.78412e-07
2.7959e-07
-4.65651e-07
4.88868e-07
-3.84603e-07
-9.09424e-07
1.19675e-06
3.19509e-07
-4.4296e-07
4.22845e-07
-4.20641e-07
-1.8699e-06
2.01579e-06
3.39852e-07
-3.83767e-07
3.36865e-07
-4.23674e-07
-2.13165e-06
2.05075e-06
3.50064e-07
-3.05235e-07
2.28619e-07
-3.60971e-07
-1.6264e-06
1.44552e-06
3.04825e-07
-2.0589e-07
1.14141e-07
-1.91216e-07
-8.36571e-07
6.1914e-07
1.57761e-07
-1.01466e-07
-3.90401e-07
-3.41562e-06
-2.90326e-05
3.44739e-06
2.94721e-07
-1.00799e-06
-2.7928e-06
2.75131e-05
-2.67898e-05
2.82009e-06
7.57236e-07
-1.1338e-06
-2.13059e-06
2.40948e-05
-2.30684e-05
2.15516e-06
8.61434e-07
-9.20981e-07
-1.51699e-06
1.97653e-05
-1.86278e-05
1.54092e-06
7.04135e-07
-6.01307e-07
-1.00146e-06
1.52129e-05
-1.41026e-05
1.02322e-06
4.59918e-07
-3.05269e-07
-6.27861e-07
1.09213e-05
-9.92716e-06
6.43687e-07
2.3249e-07
-7.96943e-08
-4.40528e-07
7.188e-06
-6.36507e-06
4.47377e-07
5.95204e-08
7.25035e-08
-3.71047e-07
4.15792e-06
-3.51533e-06
3.81195e-07
-5.62368e-08
1.59836e-07
-3.20106e-07
1.84566e-06
-1.37872e-06
3.42064e-07
-1.21712e-07
1.92976e-07
-3.0941e-07
2.03092e-07
1.13536e-07
3.37838e-07
-1.46696e-07
1.89915e-07
-3.17766e-07
-8.69939e-07
1.0625e-06
3.57879e-07
-1.44851e-07
1.684e-07
-3.46688e-07
-1.47013e-06
1.54078e-06
3.89592e-07
-1.28068e-07
1.36177e-07
-4.05371e-07
-1.57343e-06
1.52639e-06
4.44038e-07
-1.03487e-07
9.76161e-08
-3.45485e-07
-1.32417e-06
1.22823e-06
3.63047e-07
-7.40091e-08
5.30734e-08
-1.34437e-07
-8.76759e-07
6.96837e-07
1.17208e-07
-4.0803e-08
-2.4395e-07
-3.20633e-06
-3.0438e-05
3.00879e-06
1.8331e-07
-7.33799e-07
-2.6284e-06
2.88693e-05
-2.81635e-05
2.46796e-06
5.56034e-07
-8.79851e-07
-2.01555e-06
2.55794e-05
-2.45961e-05
1.89387e-06
6.71485e-07
-7.42307e-07
-1.45205e-06
2.13896e-05
-2.02633e-05
1.36559e-06
5.68368e-07
-4.85481e-07
-9.78663e-07
1.68208e-05
-1.56761e-05
9.235e-07
3.7126e-07
-2.25649e-07
-6.28344e-07
1.23368e-05
-1.12744e-05
5.98082e-07
1.71639e-07
-1.64043e-08
-4.33581e-07
8.29601e-06
-7.38432e-06
4.15414e-07
1.14807e-08
1.27968e-07
-3.74643e-07
4.91294e-06
-4.18372e-06
3.607e-07
-9.81606e-08
2.09833e-07
-3.71424e-07
2.27334e-06
-1.72312e-06
3.63981e-07
-1.58331e-07
2.37261e-07
-3.82118e-07
2.81061e-07
8.51484e-08
3.81206e-07
-1.78805e-07
2.2146e-07
-4.55701e-07
-9.37139e-07
1.16744e-06
4.66075e-07
-1.67244e-07
1.92273e-07
-4.97558e-07
-1.69502e-06
1.79884e-06
5.1172e-07
-1.43827e-07
1.57453e-07
-5.09189e-07
-1.89237e-06
1.84629e-06
5.07949e-07
-1.18609e-07
1.12133e-07
-3.92362e-07
-1.57987e-06
1.44829e-06
3.91315e-07
-8.47992e-08
5.83424e-08
-1.48528e-07
-9.49049e-07
7.25522e-07
1.71913e-07
-4.45255e-08
-1.03062e-07
-2.05609e-06
-3.04747e-05
1.62385e-06
7.6347e-08
-4.55631e-07
-1.688e-06
2.89158e-05
-2.82442e-05
1.33305e-06
3.47694e-07
-5.97256e-07
-1.29744e-06
2.58299e-05
-2.49131e-05
1.02486e-06
4.57364e-07
-5.29159e-07
-9.34647e-07
2.18844e-05
-2.08056e-05
7.3698e-07
4.05473e-07
-3.45619e-07
-6.35225e-07
1.74745e-05
-1.63558e-05
5.00991e-07
2.64173e-07
-1.36164e-07
-4.21136e-07
1.3043e-05
-1.19741e-05
3.34178e-07
1.03163e-07
4.63544e-08
-3.01628e-07
8.92925e-06
-7.98592e-06
2.42017e-07
-3.65902e-08
1.78541e-07
-2.67073e-07
5.39819e-06
-4.62656e-06
2.1533e-07
-1.37158e-07
2.5527e-07
-2.76649e-07
2.57613e-06
-1.98041e-06
2.24019e-07
-1.94598e-07
2.80528e-07
-3.20922e-07
4.1658e-07
3.55525e-08
2.70288e-07
-2.1189e-07
2.67345e-07
-4.17663e-07
-1.20878e-06
1.52729e-06
3.59795e-07
-2.01206e-07
2.33888e-07
-4.52594e-07
-2.21722e-06
2.33542e-06
3.84499e-07
-1.76543e-07
1.87379e-07
-4.40758e-07
-2.34105e-06
2.23477e-06
3.78468e-07
-1.41781e-07
1.25309e-07
-3.4144e-07
-1.74795e-06
1.54065e-06
2.91025e-07
-9.52514e-08
5.93404e-08
-1.75173e-07
-8.39234e-07
6.08027e-07
1.49058e-07
-4.47064e-08
4.2152e-07
1.37272e-06
-1.39628e-06
-9.05814e-06
7.03297e-06
-3.34685e-05
3.31789e-06
-3.05056e-06
3.45408e-05
-1.4202e-06
-9.58984e-06
4.24584e-07
-3.65578e-05
3.45756e-06
-3.19091e-06
3.81576e-05
6.89511e-06
5.4895e-06
1.80432e-06
-5.47652e-06
-4.33239e-05
-7.31126e-07
-3.91714e-07
-6.52745e-07
-4.27323e-07
-3.95206e-05
3.88152e-06
4.7788e-06
-5.64976e-06
-3.73102e-06
4.1322e-05
6.67724e-06
3.14156e-06
-2.95809e-06
-3.21262e-05
5.18335e-06
-2.72958e-05
2.86391e-06
-2.80471e-06
2.89527e-05
-1.24267e-06
-3.45939e-05
5.19087e-06
5.97015e-06
-3.27037e-05
3.36579e-05
3.53299e-06
1.10036e-06
4.73667e-06
-4.94688e-06
-3.14958e-05
3.28386e-06
-2.99718e-05
3.68146e-06
-3.71779e-06
3.06327e-05
-4.84136e-07
1.37965e-07
-6.65885e-08
1.90806e-07
-5.6126e-08
-3.55801e-07
5.61495e-08
1.26369e-07
-3.09817e-06
6.51244e-06
-3.47617e-05
-2.8919e-05
2.96014e-06
-2.90376e-06
3.08619e-05
5.05569e-06
3.65602e-06
4.81679e-06
-5.52357e-06
-3.55585e-06
-3.74708e-05
-3.09361e-05
3.12772e-06
4.14384e-06
-4.51977e-06
-3.08471e-06
3.3105e-05
3.67735e-05
5.82053e-06
3.67276e-06
-5.07848e-06
-3.37019e-05
1.09068e-06
-3.18439e-05
3.78702e-06
-3.83934e-06
3.26447e-05
3.20701e-06
-1.77814e-06
-4.18014e-05
5.43934e-06
4.23045e-06
-3.84535e-05
-4.88819e-06
3.99864e-05
3.99519e-06
9.38278e-07
4.85102e-06
-1.00791e-06
-5.1054e-06
-3.68376e-05
2.60257e-06
-3.45773e-05
3.89824e-06
-2.85481e-06
-4.00725e-06
3.55406e-05
-5.43688e-06
-4.20092e-05
1.5028e-06
3.98518e-06
-3.85649e-05
-3.89324e-06
4.01279e-05
3.97138e-06
4.74867e-06
9.00547e-07
-1.06484e-06
-4.73417e-06
-3.63823e-05
3.85078e-06
-3.39786e-05
2.21209e-06
-2.69323e-06
-3.80916e-06
3.50228e-05
-3.50593e-07
-5.6062e-08
1.23841e-07
1.18169e-07
-1.18072e-07
1.70304e-08
-5.26397e-07
-9.04837e-06
1.4206e-06
1.01239e-06
9.06332e-06
-9.56781e-07
-3.50464e-07
5.60365e-08
-5.59736e-08
2.4072e-07
7.77596e-06
8.97845e-06
9.00392e-06
-3.38355e-05
6.97802e-06
-8.95983e-07
-8.03996e-07
3.72559e-06
9.13233e-06
1.1819e-07
-1.1809e-07
-5.57024e-07
1.19024e-07
8.80059e-08
-1.18919e-07
1.00504e-09
-4.95559e-07
1.18246e-07
1.79014e-08
-5.34422e-07
-4.92321e-07
1.399e-07
-8.5098e-08
2.51868e-07
-9.54494e-06
1.03178e-06
9.5785e-06
-9.72256e-07
1.41439e-06
4.1085e-07
1.44228e-06
-4.18675e-07
-1.46505e-06
-1.08685e-05
-3.55679e-07
5.60591e-08
2.43689e-07
-1.06836e-05
1.30545e-06
1.07036e-06
-9.97055e-07
-1.36636e-06
1.07598e-05
5.96557e-08
-7.58306e-08
-5.49987e-07
5.48337e-08
7.67329e-06
9.98839e-06
9.50072e-06
9.51954e-06
9.98114e-06
-3.71301e-05
6.87075e-06
-8.37415e-07
-9.12324e-07
-8.21343e-07
-9.2643e-07
3.86054e-06
9.6689e-06
1.00126e-05
1.01867e-05
-3.35075e-06
4.0892e-05
6.44449e-06
-3.87918e-05
3.5919e-06
1.18269e-07
-5.6519e-07
1.20295e-07
7.20937e-06
1.04226e-05
1.07599e-05
1.04312e-05
1.0719e-05
-3.95213e-05
6.34926e-06
-8.56785e-07
-9.14549e-07
-9.32483e-07
-8.6501e-07
3.95931e-06
1.0969e-05
1.04192e-05
1.06628e-05
-8.64626e-07
1.77285e-08
1.0787e-07
7.8599e-07
9.03047e-08
8.70728e-08
-7.3937e-07
3.95279e-08
5.16132e-08
-2.5867e-08
-9.05273e-07
1.01387e-07
-9.17243e-07
8.12644e-07
1.70218e-07
9.34766e-08
1.44374e-06
4.0123e-07
-1.45288e-06
-1.09846e-05
-4.44673e-05
-8.33507e-07
-5.29761e-07
-4.80753e-07
-9.16588e-07
2.01929e-06
-4.1963e-06
-4.50227e-06
-4.26314e-05
4.73196e-06
3.36299e-06
-7.35298e-07
3.42916e-08
-4.34402e-05
-1.10479e-06
-8.94262e-07
-1.01876e-06
-9.63298e-07
4.554e-06
1.11239e-05
1.09439e-05
1.09204e-05
1.11515e-05
-1.47423e-06
-1.04628e-06
-1.1902e-06
-4.35926e-05
-1.16974e-06
-1.43543e-06
-1.2659e-06
-1.35932e-06
3.73923e-06
-9.5409e-07
4.32237e-08
1.04595e-07
-3.51584e-06
4.18709e-05
-3.97492e-05
3.73602e-06
-6.18916e-06
4.21222e-05
-4.004e-05
5.12195e-06
-5.3697e-06
-3.97313e-06
4.2124e-06
4.36087e-06
1.07943e-05
1.0921e-05
1.08516e-05
1.08582e-05
-4.04682e-05
-9.0562e-07
-8.98069e-07
-8.80362e-07
-9.27605e-07
4.05761e-06
-1.58245e-06
-1.58138e-06
-1.63929e-06
-1.52365e-06
4.76155e-06
-5.62327e-08
-3.98104e-07
5.61801e-08
1.45988e-07
-3.92596e-07
-5.62991e-08
1.43462e-07
6.3985e-07
2.09162e-06
2.24008e-06
2.27085e-06
2.20658e-06
2.30464e-06
9.68833e-08
3.70623e-07
-4.01778e-07
-9.70893e-08
-2.33011e-06
-2.33575e-06
2.64716e-07
2.7167e-07
-2.64328e-07
2.30315e-06
-2.39124e-07
-9.2849e-06
1.87657e-06
-1.09602e-07
-2.47834e-07
-2.46248e-07
-1.07723e-07
8.8434e-07
2.26235e-06
2.33313e-06
2.25841e-06
2.33347e-06
3.21126e-07
2.62657e-07
-3.21515e-07
-2.70495e-07
-2.32725e-06
7.60771e-07
2.10614e-06
2.22763e-06
2.26184e-06
2.19727e-06
2.29261e-06
-9.10368e-06
2.10443e-06
-2.13765e-07
-2.68331e-07
-2.66268e-07
-2.15282e-07
2.05299e-06
-1.1834e-07
1.18201e-07
2.41671e-08
-5.98432e-07
-2.0866e-06
7.80605e-07
2.01413e-06
2.73432e-06
2.74411e-06
2.69948e-06
2.77632e-06
-2.08757e-06
6.93198e-07
2.68527e-06
2.5978e-06
2.63257e-06
2.64918e-06
-1.18496e-07
2.32392e-08
-5.90302e-07
2.10214e-06
6.48436e-07
2.43926e-06
2.34043e-06
2.3751e-06
2.40443e-06
6.61039e-07
2.5082e-06
2.53473e-06
2.57021e-06
2.47303e-06
-3.2225e-07
2.70284e-06
2.71904e-07
-2.83182e-07
-2.69058e-06
3.23615e-07
-5.62241e-08
-3.97263e-07
5.61734e-08
2.67552e-07
-1.82691e-06
-1.14471e-05
1.63077e-06
-7.65515e-08
-1.85152e-07
-2.43683e-07
-6.33966e-08
8.81251e-07
2.88244e-06
2.84849e-06
2.82972e-06
2.90728e-06
-1.87311e-06
-1.09808e-05
-9.0242e-08
-2.63336e-07
-9.70946e-08
-2.59735e-07
9.08582e-07
2.79279e-06
2.68851e-06
2.70304e-06
2.76445e-06
2.87699e-06
3.04046e-07
2.62375e-07
-3.1744e-07
-2.66269e-07
-2.85906e-06
-2.6263e-06
2.66517e-07
2.79772e-07
-2.43189e-07
-2.66267e-07
2.59063e-06
3.74001e-07
-4.06044e-07
-2.4009e-06
9.75773e-08
-2.40529e-06
2.73586e-07
2.65497e-07
2.37285e-06
-2.4002e-07
9.68372e-08
3.83696e-07
-2.6224e-06
-9.77858e-08
-4.19411e-07
2.69947e-07
-2.80325e-07
-3.23463e-07
-2.61448e-06
-3.92109e-07
-5.62007e-08
2.6449e-07
1.88113e-06
-9.847e-06
-1.04416e-07
-2.5204e-07
-1.06212e-07
-2.54017e-07
8.97924e-07
2.47523e-06
2.39844e-06
2.40332e-06
2.47397e-06
2.64704e-07
3.22733e-07
-2.72812e-07
-2.39667e-06
-1.0408e-05
-1.02757e-07
-2.60286e-07
-1.00425e-07
-2.58425e-07
9.09563e-07
2.5471e-06
2.61814e-06
2.62288e-06
2.5404e-06
2.8169e-07
-2.44487e-07
2.66872e-06
2.66678e-07
1.08201e-07
3.87881e-07
-4.11513e-07
-1.00337e-07
-2.92178e-06
3.87617e-07
-2.70334e-06
-4.24788e-07
9.78929e-08
2.53819e-07
2.76401e-07
-2.64379e-07
-2.40445e-07
2.85368e-06
-8.28107e-07
1.06572e-05
2.02256e-06
-2.04132e-06
-1.18417e-07
1.18091e-07
-6.29532e-07
1.30316e-07
-2.10263e-06
8.57983e-07
2.03214e-06
2.75347e-06
2.77198e-06
2.71395e-06
2.80353e-06
-2.05432e-06
-1.10472e-05
1.8914e-06
-2.37677e-07
-2.40254e-07
-2.77156e-07
-2.25669e-07
-2.10303e-06
2.68851e-06
2.58965e-06
2.64679e-06
2.62515e-06
-2.09521e-06
-2.35266e-07
-2.87299e-07
-2.84812e-07
-2.31548e-07
1.90938e-06
-2.06807e-06
-7.96168e-07
1.0162e-05
-1.18506e-07
-6.21752e-07
1.28981e-07
7.76472e-07
2.11745e-06
2.42753e-06
2.33149e-06
2.36318e-06
2.39545e-06
-9.64192e-06
2.11235e-06
-2.20685e-07
-2.73652e-07
-2.18866e-07
-2.75945e-07
2.49663e-06
2.52583e-06
2.46396e-06
2.55971e-06
-2.24509e-07
-2.83109e-07
-2.81371e-07
-2.26883e-07
8.16769e-07
7.37549e-08
-1.16848e-06
2.15211e-07
1.80435e-07
1.14412e-05
-1.12843e-05
9.55448e-07
-3.98113e-07
-3.84344e-07
-3.8596e-07
-4.31625e-07
1.16158e-05
1.1268e-06
-3.62493e-07
-3.91137e-07
-3.47611e-07
-4.08779e-07
7.21217e-08
7.55612e-07
-5.45216e-08
1.19941e-07
-1.18105e-05
1.46594e-06
-1.80086e-07
-1.54185e-07
-1.43145e-07
-2.1034e-07
1.27947e-06
-2.35456e-07
-3.31785e-07
-2.92338e-07
-2.61652e-07
1.8184e-06
8.04436e-07
2.80749e-06
2.80119e-06
2.80874e-06
2.80565e-06
-1.11015e-05
8.24866e-07
-4.52065e-07
-4.26417e-07
-4.27058e-07
-4.6043e-07
8.47638e-07
-1.28153e-06
-1.05396e-06
-1.12569e-05
1.12637e-05
8.10634e-07
-1.16673e-06
3.79259e-07
1.68563e-07
1.12952e-05
1.51588e-06
-1.13941e-05
-1.76264e-07
-1.58278e-07
-1.11764e-07
-1.75597e-07
1.13896e-05
8.72348e-07
-1.12408e-05
-4.07893e-07
-3.8677e-07
-4.33199e-07
-3.92828e-07
2.8463e-06
-2.2374e-07
-2.5895e-07
-2.33092e-07
-2.7715e-07
2.81659e-06
2.84094e-06
2.83031e-06
-3.23373e-07
-3.5328e-07
-3.67301e-07
1.15779e-05
-3.70296e-07
-3.86038e-07
-4.07725e-07
-3.50957e-07
-1.11858e-05
1.12765e-05
-1.21678e-06
1.26294e-06
-2.11211e-07
-2.38125e-07
-2.61518e-07
-1.99847e-07
7.51471e-07
9.64875e-08
1.11038e-07
3.77264e-07
-3.79845e-07
1.02365e-07
-2.83928e-06
1.50155e-06
-1.17521e-05
-1.68054e-07
-1.38959e-07
-1.23724e-07
-1.95908e-07
1.45315e-06
-1.5113e-07
-1.02837e-07
-1.09947e-07
-1.4025e-07
2.81998e-07
2.47298e-07
-2.55731e-07
2.82534e-06
-2.28855e-07
-3.22238e-07
-2.4948e-07
-2.90598e-07
-1.75605e-06
-8.70369e-07
1.10544e-05
8.476e-07
1.83187e-06
2.8198e-06
2.82377e-06
2.83236e-06
2.81508e-06
-1.11583e-05
1.69133e-06
-2.08193e-07
-2.04845e-07
-2.13683e-07
-1.96331e-07
-1.11254e-05
8.6292e-07
-4.57116e-07
-4.28222e-07
-4.62677e-07
-4.32028e-07
-3.06556e-06
4.56762e-07
-4.69178e-07
2.88306e-06
1.31343e-07
1.582e-07
1.20657e-07
1.66724e-07
-4.19058e-07
-5.50285e-08
5.3449e-08
1.65085e-07
-5.17018e-07
3.22017e-06
-2.98377e-06
3.50506e-07
8.74778e-08
-3.25326e-08
-4.34522e-08
1.40523e-07
-2.90339e-06
-5.58339e-07
6.55179e-08
-3.38243e-08
-4.00552e-08
5.50983e-08
3.96025e-07
2.9779e-06
1.51508e-07
1.96623e-07
1.85888e-07
1.81003e-07
-5.82662e-07
4.22607e-08
-4.24552e-08
5.7423e-07
5.3831e-08
-4.20686e-08
-5.58251e-07
4.23818e-08
5.50196e-07
5.41623e-08
-4.70048e-07
-2.60399e-06
4.70433e-07
2.44118e-06
1.05267e-07
1.38911e-07
1.07039e-07
1.37751e-07
-3.71694e-07
5.61552e-08
-5.62084e-08
1.33739e-07
2.53034e-06
5.74346e-07
-5.71804e-07
-2.45165e-06
4.988e-08
-1.57296e-08
4.87472e-08
-1.58119e-08
-4.69146e-07
2.37203e-06
1.05082e-07
1.34947e-07
1.03294e-07
1.36068e-07
-2.52304e-06
5.73353e-07
4.91681e-08
-1.74139e-08
-1.70545e-08
5.03208e-08
-6.72144e-07
-4.39069e-08
6.62039e-07
5.24491e-08
4.3428e-08
1.99149e-08
-7.03899e-07
-3.81867e-08
4.95816e-08
7.18647e-07
-5.25798e-07
4.22362e-08
5.18302e-07
5.454e-08
-5.50128e-07
-4.2306e-08
5.42219e-07
5.42207e-08
4.684e-07
-2.38362e-06
2.23456e-06
1.01238e-07
1.29403e-07
9.94824e-08
1.30494e-07
-3.35007e-07
-5.58945e-08
5.59449e-08
1.16365e-07
2.45695e-06
-5.72281e-07
-2.38053e-06
4.83909e-08
-1.43764e-08
4.94901e-08
-1.40034e-08
2.30336e-06
1.01402e-07
1.33269e-07
1.03137e-07
1.32159e-07
-2.30993e-06
4.91233e-08
-1.25494e-08
-1.27148e-08
4.80381e-08
2.24314e-06
1.22971e-07
5.46886e-07
-1.17656e-07
1.17815e-07
1.45697e-08
-5.02588e-07
-5.89511e-07
-2.31084e-06
5.89121e-07
1.8956e-08
-6.3976e-09
-6.35608e-09
1.88723e-08
-5.31987e-07
-1.22898e-07
1.50032e-07
5.31248e-07
5.64193e-07
5.59257e-07
5.52513e-07
5.70904e-07
1.93167e-08
-4.9578e-09
-5.27133e-09
1.93794e-08
1.4915e-07
5.54135e-07
5.36206e-07
5.42899e-07
5.47578e-07
5.45603e-07
-5.09118e-07
1.12876e-07
5.00314e-07
-1.04536e-07
4.09558e-08
4.08635e-08
-5.33236e-07
1.1591e-07
-4.10642e-08
5.2399e-07
-1.06695e-07
-2.37325e-06
4.6867e-07
2.2065e-06
2.93963e-09
2.649e-08
1.51893e-09
2.72449e-08
-3.34863e-07
-5.58111e-08
5.58625e-08
2.32043e-07
-5.73136e-07
2.4466e-06
-2.36956e-06
5.73027e-07
-4.67742e-08
-1.13889e-07
-1.13151e-07
-4.60211e-08
-2.29882e-06
-4.57301e-08
-1.11081e-07
-1.11562e-07
-4.65091e-08
4.6962e-07
2.27514e-06
2.7765e-09
2.92986e-08
4.16678e-09
2.85588e-08
-1.98474e-07
2.22386e-06
5.51487e-07
-1.17688e-07
1.17845e-07
-5.32876e-07
1.1556e-07
-5.33508e-07
2.00441e-07
5.3287e-07
5.57693e-07
5.53053e-07
5.46273e-07
5.64391e-07
-5.92672e-07
-2.29174e-06
5.92581e-07
-6.53259e-08
-1.0219e-07
-1.01786e-07
-6.57023e-08
5.47645e-07
5.30023e-07
5.36685e-07
5.41048e-07
-6.47441e-08
-9.98592e-08
-1.00421e-07
-6.44414e-08
5.50485e-07
2.76028e-06
1.32895e-07
5.40204e-07
-5.43008e-07
-1.05102e-07
1.0612e-07
4.75075e-08
-6.14872e-07
-5.61843e-07
-2.80915e-06
5.16099e-07
1.33113e-08
-1.61597e-08
-3.08788e-08
2.00627e-08
-5.42351e-07
-1.5195e-07
2.19262e-07
5.51808e-07
6.77308e-07
6.6616e-07
6.60122e-07
6.87954e-07
-5.73644e-07
1.20708e-08
-2.63793e-08
-3.22902e-08
1.2796e-08
1.91523e-07
-5.37251e-07
6.74084e-07
6.5745e-07
6.56587e-07
6.71596e-07
5.2279e-07
2.44786e-06
-5.4876e-07
1.228e-07
5.46795e-07
1.18286e-07
-1.18349e-07
2.01647e-08
-5.5834e-07
5.91576e-07
-2.37981e-06
1.85179e-08
-7.57692e-09
-7.81775e-09
1.84885e-08
-1.22592e-07
5.3388e-07
1.50961e-07
5.87777e-07
5.6903e-07
5.81121e-07
5.7585e-07
5.90193e-07
1.8193e-08
-8.79746e-09
-8.84978e-09
1.81691e-08
1.52149e-07
5.32464e-07
5.97897e-07
5.92367e-07
5.85529e-07
6.04749e-07
-3.0598e-06
4.63681e-07
-4.70942e-07
2.85976e-06
2.12558e-08
4.58982e-08
1.41967e-08
5.13053e-08
-4.21402e-07
-5.56695e-08
5.71448e-08
2.78878e-07
-5.38204e-07
3.19954e-06
-2.96872e-06
3.58511e-07
-2.50941e-08
-8.72959e-08
-1.13935e-07
2.06301e-09
-2.92693e-06
-5.64836e-07
-3.69969e-08
-1.28108e-07
-1.25167e-07
-4.4871e-08
4.2431e-07
2.95733e-06
3.42789e-08
6.79407e-08
5.64395e-08
6.10536e-08
-5.65544e-07
4.10355e-08
1.1922e-07
-1.09478e-07
-4.12316e-08
5.55753e-07
-5.4129e-07
1.16273e-07
4.11608e-08
5.31898e-07
-1.0734e-07
-4.70182e-07
-2.59349e-06
4.70682e-07
2.41265e-06
5.18608e-09
3.33667e-08
6.54612e-09
3.26304e-08
-3.71305e-07
5.61665e-08
-5.61237e-08
2.52509e-07
2.51996e-06
5.75125e-07
-2.44045e-06
-4.63434e-08
-1.156e-07
-4.71019e-08
-1.16124e-07
2.34366e-06
5.38813e-09
3.06005e-08
3.98078e-09
3.13327e-08
-2.51157e-06
5.74556e-07
-4.74157e-08
-1.18559e-07
-1.17766e-07
-4.66867e-08
-6.54776e-07
-4.11752e-08
1.31689e-07
-1.19182e-07
6.43117e-07
4.02041e-08
2.64934e-08
-6.86242e-07
1.37445e-07
-3.47363e-08
-1.4243e-07
6.9931e-07
-2.38457e-07
2.79008e-06
5.43369e-07
-5.47492e-07
-1.01023e-07
9.57603e-08
-6.71636e-07
1.28797e-07
-5.45137e-07
2.35378e-07
5.57833e-07
6.96698e-07
6.90665e-07
6.79035e-07
7.07983e-07
-5.54159e-07
-2.85623e-06
5.12638e-07
-6.94106e-08
-7.04498e-08
-9.17719e-08
-5.99371e-08
-5.38356e-07
6.87502e-07
6.60084e-07
6.66762e-07
6.76493e-07
-5.75203e-07
-7.47303e-08
-1.11875e-07
-1.07028e-07
-7.52409e-08
5.26748e-07
-5.53614e-07
-2.05207e-07
2.42819e-06
5.51832e-07
1.18456e-07
-1.18398e-07
-5.89476e-07
1.23924e-07
2.02919e-07
5.35462e-07
5.8119e-07
5.62815e-07
5.74548e-07
5.69571e-07
-2.3605e-06
5.94788e-07
-6.67586e-08
-1.03697e-07
-6.63832e-08
-1.04336e-07
5.34145e-07
5.9122e-07
5.8604e-07
5.79204e-07
5.97958e-07
5.93698e-07
-6.73815e-08
-1.06204e-07
-1.05762e-07
-6.77913e-08
-3.97694e-07
-2.88495e-06
3.51202e-07
2.82834e-06
2.91904e-06
3.83474e-07
-2.98519e-06
1.04876e-07
6.8078e-10
1.4487e-07
2.84485e-08
9.39441e-08
9.69722e-07
-8.79395e-07
-2.21055e-07
1.66636e-07
-2.51897e-07
2.85875e-06
-2.85255e-06
1.71417e-07
-7.57622e-08
-8.43453e-08
-9.7949e-08
-7.52009e-08
2.76536e-06
1.13945e-07
1.41487e-07
1.41167e-07
1.10315e-07
-2.90304e-06
2.68288e-07
2.95462e-06
-9.76913e-08
-1.4012e-07
-1.18209e-07
-1.18802e-07
2.82808e-06
2.90618e-07
-2.84705e-06
-4.54021e-08
-3.66185e-08
-4.81032e-08
-3.63824e-08
8.12623e-08
-8.1734e-07
8.32233e-07
-1.0869e-07
6.54196e-08
-2.758e-07
-3.18795e-06
3.88185e-07
-6.21976e-08
-3.68425e-08
-4.49969e-08
-5.70182e-08
-6.44652e-07
3.11541e-08
4.52804e-08
6.42104e-07
-5.37195e-08
-3.74959e-08
-3.66906e-08
3.60297e-07
-3.22423e-06
-6.15386e-08
-6.49948e-08
-5.68498e-08
-6.41784e-08
-4.86535e-07
2.85166e-06
1.83308e-07
-2.861e-06
4.56156e-07
3.19457e-08
5.77035e-09
2.68211e-08
2.49731e-08
-1.67e-07
5.02412e-07
1.99592e-07
7.14757e-07
7.02541e-07
7.05633e-07
7.0991e-07
-1.62395e-07
-2.84348e-06
1.58612e-07
-1.21331e-07
-9.8779e-08
-1.06852e-07
-1.19215e-07
1.90849e-07
-4.13771e-07
-1.4447e-07
-2.84033e-06
2.80145e-06
9.39872e-07
-7.93248e-07
-7.76488e-08
1.54538e-07
2.8747e-06
3.88087e-07
-2.94956e-06
-1.43555e-08
-5.86734e-08
8.88002e-09
-4.24047e-08
2.79089e-06
1.52186e-07
-2.83759e-06
-8.03855e-08
-8.37862e-08
-7.78809e-08
-9.71548e-08
2.74114e-06
-4.69958e-09
2.18328e-08
2.47659e-08
-1.51326e-08
2.92959e-06
-1.00934e-07
-1.36736e-07
-1.17e-07
-1.20524e-07
-2.87108e-06
2.78342e-06
-4.04322e-07
-2.80837e-06
4.05406e-07
-3.48735e-08
-3.54913e-08
-4.07755e-08
-3.46289e-08
-8.13749e-07
8.28226e-07
6.37734e-08