/*--------------------------------*- C++ -*----------------------------------*\
| =========                 |                                                 |
| \\      /  F ield         | OpenFOAM: The Open Source CFD Toolbox           |
|  \\    /   O peration     | Version:  2012                                  |
|   \\  /    A nd           | Website:  www.openfoam.com                      |
|    \\/     M anipulation  |                                                 |
\*---------------------------------------------------------------------------*/
FoamFile
{
    version     2.0;
    format      ascii;
    class       volScalarField;
    location    "0.105/fluid";
    object      p;
}
// * * * * * * * * * * * * * * * * * * * * * * * * * * * * * * * * * * * * * //

dimensions      [0 2 -2 0 0 0 0];


internalField   nonuniform List<scalar> 
16422
(
-0.00663649
0.101602
0.0382721
0.0143494
0.00569293
0.00232759
0.000855023
0.000147534
-0.000213829
-0.000393078
-0.000460646
-0.000453932
-0.000396336
-0.000297146
-0.000152694
-0.0359379
0.00823313
0.0113566
0.00629532
0.00294177
0.00127086
0.000398602
-7.75827e-05
-0.000341934
-0.00047407
-0.000513141
-0.000487106
-0.00041437
-0.000302517
-0.000150118
-0.0374371
-0.015552
-0.00436267
-0.000799839
8.65327e-05
0.000103661
-9.87612e-05
-0.000305346
-0.000456549
-0.000536567
-0.000546438
-0.0005016
-0.000416402
-0.000294039
-0.000138347
-0.0357508
0.0197476
0.0118556
0.00404206
0.000701157
-0.000510375
-0.000894899
-0.000974781
-0.000946307
-0.000875006
-0.000778795
-0.000665348
-0.000535504
-0.000382322
-0.000190987
-0.037976
-0.0089792
-0.000991524
-0.000674142
-0.00106227
-0.00121462
-0.00120674
-0.00113566
-0.00104615
-0.000944567
-0.000829866
-0.000701187
-0.000558092
-0.000390916
-0.000191674
-0.0386193
-0.020759
-0.0100517
-0.00516958
-0.00301126
-0.00204292
-0.00156907
-0.00130668
-0.0011363
-0.000997484
-0.000861051
-0.000717328
-0.000562862
-0.0003855
-0.000182716
-0.0419504
-0.0182392
-0.00892266
-0.00587618
-0.00437553
-0.00335137
-0.00259062
-0.00203057
-0.00162032
-0.00131176
-0.00106635
-0.000856093
-0.000659651
-0.000456835
-0.000225039
-0.0402305
-0.0224943
-0.0123831
-0.00761838
-0.00514459
-0.00368918
-0.00275518
-0.00212811
-0.00169245
-0.00137085
-0.00111478
-0.000894034
-0.000685079
-0.000468384
-0.000226907
-0.0397096
-0.0258429
-0.0157716
-0.00964896
-0.00615711
-0.00415906
-0.00297628
-0.00224217
-0.00175935
-0.00141444
-0.00114434
-0.000911498
-0.000691617
-0.000463938
-0.000217001
-0.0428949
-0.0285933
-0.0181356
-0.0116511
-0.0077262
-0.00530054
-0.00375709
-0.00274962
-0.00207299
-0.00160141
-0.0012551
-0.000980023
-0.000739071
-0.000504012
-0.000246365
-0.0411428
-0.0283398
-0.0184586
-0.0119548
-0.00790531
-0.00539763
-0.00382053
-0.00280344
-0.00212469
-0.00165278
-0.00130156
-0.0010195
-0.000766173
-0.000516417
-0.000249266
-0.0403164
-0.0288059
-0.0193479
-0.0126698
-0.00833828
-0.00562928
-0.00394493
-0.00287715
-0.00217547
-0.00168989
-0.00133059
-0.00103834
-0.000773121
-0.00051319
-0.000238577
0.0472464
0.228255
0.0438837
0.210246
-0.0157444
0.0638249
0.16334
0.0620087
-0.0050706
0.134826
-0.0261814
0.0238833
0.639182
1.08868
0.150035
0.0572474
0.0543465
0.0272197
0.12288
-0.0279199
0.0196627
-0.0270114
0.0412342
-0.0354318
-0.00220166
-0.0313713
0.0281257
-0.0418615
-0.0165701
1.08649
0.915974
0.262028
1.016
0.312274
0.29083
0.858117
0.593378
0.918911
0.537852
0.25243
0.0086099
1.01432
0.167896
0.554779
0.288993
0.270471
0.166176
0.858418
0.2384
0.210503
0.599782
-0.0365815
0.52913
0.610094
-0.00812722
-0.00192136
0.0382775
-0.0354753
0.0944244
0.0678112
0.526638
0.112364
0.084794
0.0628591
0.142572
0.123392
0.0959933
1.06689
1.08449
0.525597
0.105692
0.387017
0.601845
0.454652
0.530231
0.556876
0.430218
0.884573
0.340351
0.443067
0.898252
0.517798
0.493775
0.396522
0.968351
0.386249
0.504606
0.274182
0.360601
0.107064
0.385535
0.104054
0.421932
0.987855
0.593522
0.452165
0.564167
0.33762
0.0251689
0.0921577
0.230006
0.352408
0.807713
0.344905
0.362082
0.44934
0.462865
0.284143
0.391523
0.822886
0.520178
0.546149
0.417812
0.494014
0.516377
0.142124
0.156601
0.12508
0.111684
-0.00340069
0.0726354
0.251163
0.167534
0.153512
0.104848
0.137093
0.261869
0.155747
0.23129
0.124363
0.134155
0.0584281
0.109197
0.00991431
-0.000734954
-0.00598157
0.174321
0.073027
0.140915
0.250523
0.248343
0.166377
0.213092
0.153583
0.145066
0.643769
0.956997
0.542701
0.671245
0.506497
0.326159
0.301017
0.825945
1.10117
0.856983
0.820275
0.858571
0.277795
0.169589
0.264979
0.292894
0.79644
1.06032
0.851052
0.810572
0.840152
0.662903
0.899014
0.730611
0.715403
0.724416
0.712006
0.66557
0.304039
0.312689
0.751147
1.00157
0.803958
0.800167
0.7558
0.6519
0.848654
0.714137
0.702406
0.712112
0.700491
0.652018
0.507275
0.788949
0.460406
0.39092
0.563017
0.541259
0.413149
0.659735
0.922136
0.73246
0.713737
0.73031
0.663723
0.709766
0.565663
0.855901
0.497749
0.604279
0.45532
0.321409
0.314628
0.753816
1.01609
0.803156
0.756651
0.798336
0.242721
0.150439
0.486548
0.708404
0.383902
0.429909
0.54196
0.518356
0.400652
0.64146
0.854769
0.711098
0.700153
0.6478
0.705681
0.694217
0.24933
0.354186
0.263618
0.270697
0.342857
0.266442
0.243448
0.0385023
0.0134866
-0.0128185
0.135124
-0.0142608
0.0328607
0.248725
0.343727
0.338868
0.279304
0.31799
0.264336
0.261557
0.241275
0.249568
0.331595
0.264616
0.317873
0.23845
0.25912
0.0393231
0.0137461
-0.0138022
-0.0108169
0.124685
0.0305872
0.245566
0.331626
0.331414
0.276999
0.312971
0.260524
0.259301
0.739175
1.001
0.806125
0.784348
0.761006
0.555184
0.405937
0.59597
0.441848
0.653682
0.690455
0.703218
0.632581
0.427807
0.643599
0.65944
0.405561
0.33094
0.340038
0.432515
0.654478
0.66094
0.437325
0.823009
1.09629
0.836429
0.810896
0.851736
0.738743
0.697751
0.711485
0.731239
0.738276
0.702072
0.72904
0.711929
0.366819
0.375527
0.555183
0.221616
0.304244
0.33611
0.394136
0.644418
0.58995
0.432715
0.369551
0.636623
0.397035
0.610006
1.05381
0.702809
0.691403
0.719047
0.665576
0.89232
0.395884
0.618379
0.609719
0.404432
0.605459
0.999059
0.665901
0.665817
0.657379
0.671514
0.653293
0.844694
0.567346
0.822452
0.674235
0.648837
0.635538
0.600925
0.603083
0.647339
0.918908
0.703507
0.680671
0.720519
0.630691
0.697575
0.653879
0.897735
0.733969
0.696299
0.691114
0.475427
0.363958
0.529607
0.384814
0.567756
0.624384
0.616186
0.564173
0.411544
0.61975
0.406919
0.619109
0.320585
0.31433
0.410903
0.596503
0.61573
0.401325
0.74366
1.00783
0.766476
0.725671
0.786053
0.671299
0.666748
0.673443
0.664621
0.662305
0.638611
0.646212
0.660395
0.324869
0.337525
0.493752
0.197119
0.268437
0.306412
0.350349
0.583551
0.52629
0.393147
0.549059
0.739595
0.643235
0.631446
0.601722
0.593941
0.5805
0.627328
0.849201
0.674343
0.661737
0.69215
0.681188
0.609504
0.222487
0.216274
0.247159
0.158432
0.303513
0.180005
0.204104
0.0911136
0.0360681
0.266219
0.119676
0.167366
0.139906
0.0767372
0.214943
0.205583
0.225766
0.153751
0.278473
0.198822
0.173725
0.0885894
0.0355006
0.240573
0.115911
0.152001
0.074054
0.1344
0.0923952
-0.011593
0.0665573
0.0348451
-0.00314241
0.0507789
-0.0116828
0.0167985
-0.0374676
-0.00897907
-0.0410718
-0.017463
-0.0403308
-0.0228826
0.089671
0.145356
0.237039
0.219383
0.0888714
0.139917
0.0384785
0.128368
0.233222
0.0838103
0.101754
0.00146578
0.0593358
0.692713
0.787083
0.662518
0.74248
0.557877
1.01133
1.09604
1.06262
1.00591
1.06925
-0.021924
0.0110132
0.0371747
0.0134591
-0.0289384
-0.0211608
-0.00264641
0.99299
1.07601
1.06169
1.0008
1.05083
0.817374
0.910623
0.854048
0.921298
0.847658
0.912571
0.824322
0.929534
1.00942
1.00328
0.996368
0.932568
0.795784
0.85516
0.903899
0.8088
0.895836
0.805035
0.801043
0.546173
0.677215
0.525684
0.610803
0.588371
0.648416
0.496006
0.822236
0.921458
0.855596
0.917152
0.856439
0.822748
0.921933
0.618445
0.703108
0.611584
0.677648
0.48256
0.187194
0.024333
0.0452188
0.0786917
0.107391
0.0669486
0.134556
0.934129
1.01801
1.00059
0.933119
1.00384
0.540528
0.62247
0.608647
0.502683
0.661351
0.556135
0.492164
0.796527
0.858718
0.89897
0.807848
0.798145
0.902744
0.806673
0.35498
0.532634
0.340803
0.374696
0.4306
0.371375
0.351416
0.0195326
-0.0187368
-0.0266701
0.0243581
-0.0146332
-0.00422175
0.335675
0.432227
0.470688
0.36409
0.388255
0.352868
0.347729
0.342066
0.321878
0.516739
0.365697
0.402779
0.343521
0.357052
0.0384902
-0.0191593
0.0112105
0.0457793
0.0217356
-0.0144636
0.0774732
0.0181325
-0.0177224
-0.0265997
-0.0136876
0.0255169
-0.00448824
0.324214
0.45997
0.42818
0.354312
0.3908
0.339258
0.339374
0.965693
1.05461
1.03356
0.983407
1.01944
0.610343
0.34178
0.880392
0.900112
1.00579
1.08784
1.0542
0.998348
1.05653
0.904623
0.896638
0.917101
0.904871
0.880199
0.885435
0.280425
0.170458
0.103013
0.209328
0.206974
0.165454
0.284891
0.364003
0.385395
0.297785
0.48901
0.295593
0.485089
0.368287
0.8356
0.834145
0.754882
0.868589
0.814064
0.871937
0.795625
0.772116
0.8642
0.795947
0.906812
0.830026
0.893445
0.837217
0.790749
0.89461
0.862643
0.954436
0.94924
0.881634
0.934531
0.523209
0.289441
0.77772
0.799425
0.364372
0.465468
0.373534
0.278538
0.28847
0.478988
0.35475
0.288571
0.17373
0.209944
0.108419
0.20986
0.287427
0.176742
0.3699
0.382726
0.297322
0.489668
0.295652
0.370217
0.487643
0.285466
0.198814
0.106229
0.176226
0.205398
0.176614
0.280129
0.90917
0.993663
0.971535
0.898804
0.976057
0.840408
0.838627
0.824375
0.807914
0.303409
0.439195
0.257779
0.310883
0.401284
0.334823
0.237104
0.194029
0.106205
0.0523079
0.0976208
0.131434
0.129807
0.127314
0.244431
0.182327
0.170562
0.0815343
0.158539
0.267458
0.1653
0.243481
0.269144
0.245027
0.16816
0.33933
0.193872
0.152347
0.723285
0.790246
0.847199
0.75138
0.837463
0.732819
0.739983
0.764784
0.833183
0.869546
0.76838
0.87143
0.777265
0.758585
0.206423
0.155843
0.193335
0.160553
0.24088
0.192176
0.176263
0.148657
0.0858474
0.141182
0.135681
0.118821
0.170526
0.109869
0.192997
0.147867
0.17898
0.156382
0.217941
0.170371
0.181423
0.138857
0.083351
0.128184
0.132544
0.10808
0.106967
0.160384
0.0494812
0.0278697
-0.006878
0.0666812
0.000662589
0.0758868
0.0370048
0.0945619
0.124547
0.182494
0.122824
0.118098
0.140135
0.0802575
0.777717
0.883639
0.911103
0.840954
0.854481
0.689744
0.54501
0.5619
0.699209
0.777855
0.851818
0.852712
0.778681
0.424584
0.319623
0.38063
0.372067
0.371798
0.364152
0.433659
0.206268
0.217104
0.418461
0.311736
0.355469
0.345613
0.4075
0.367069
0.353828
0.234063
0.224949
1.01383
1.09544
1.07379
1.06732
1.01645
1.00284
0.983872
0.996617
0.990124
1.00673
0.997465
1.00901
0.995647
0.355181
0.351756
0.310569
0.242212
0.258113
0.395484
0.333083
0.0682816
0.169817
0.226148
0.206432
0.270668
0.208223
0.00176985
0.222986
0.0597596
0.202645
0.300436
0.380103
0.276203
0.317663
0.305828
0.33061
0.3676
0.314876
0.197794
0.188403
0.388756
0.285472
0.348691
0.335636
0.39969
0.338601
0.325824
0.168389
0.179886
0.985424
1.07117
1.03691
1.04676
0.976073
0.982384
0.975721
0.990075
0.968273
0.973513
0.947359
0.963161
0.957953
0.816048
0.905519
0.839069
0.906549
0.843662
0.913789
0.813289
0.435335
0.379946
0.350878
0.308789
0.386189
0.430078
0.352981
0.25696
0.254371
0.247724
0.252397
0.437189
0.311733
0.391154
0.360045
0.440927
0.387817
0.357125
0.926672
1.00849
0.98983
0.995952
0.922039
0.915555
0.90853
0.917885
0.906972
0.912152
0.898219
0.907234
0.902711
0.795809
0.852767
0.891566
0.801221
0.897785
0.803603
0.794294
0.621392
0.736609
0.70708
0.792791
0.654597
0.751031
0.674586
0.818859
0.921878
0.857182
0.920546
0.855649
0.915361
0.821436
0.681049
0.766561
0.831533
0.762725
0.755594
0.606168
0.482985
0.494855
0.610002
0.677307
0.745569
0.746264
0.676263
0.445487
0.36978
0.320929
0.397872
0.395363
0.368416
0.447726
0.25898
0.263081
0.4458
0.319019
0.391674
0.363273
0.441996
0.396694
0.364616
0.267256
0.264633
0.93226
1.01381
1.00154
0.998503
0.930625
0.920229
0.910802
0.919138
0.91122
0.919037
0.907519
0.916519
0.911066
0.329363
0.272957
0.333046
0.208798
0.219583
0.369243
0.314339
0.0736529
0.164667
0.218641
0.197591
0.250227
0.180204
-0.0115528
0.219002
0.0545124
0.169895
0.286576
0.609883
0.643521
0.7904
0.650436
0.763399
0.604012
0.656731
0.791914
0.856654
0.900038
0.802739
0.895428
0.803536
0.792981
0.328642
0.271859
0.361297
0.271726
0.388949
0.312833
0.295975
0.0428496
-0.00409568
0.0533542
0.0345208
0.0387766
0.0146239
0.0726886
0.0347927
0.0359835
-0.0190995
0.0215801
0.0263761
0.0521805
0.0980607
0.056983
0.101427
0.0509228
0.0675416
0.0595805
0.316149
0.258687
0.331267
0.264288
0.360057
0.306811
0.280235
0.0393743
-0.00361797
0.0507719
0.033283
0.0385832
0.0141114
0.0662686
0.0329111
0.0403009
0.0241377
0.0283154
0.0501408
0.0934236
0.0522085
0.0990628
0.0497071
0.0651075
0.058867
0.939617
1.02848
0.962445
0.904673
0.989606
0.962501
0.974207
0.95582
0.980176
0.937372
0.898171
0.902511
0.932974
0.529531
0.501697
0.677187
0.268856
0.716238
0.802083
0.573919
0.803028
0.728436
0.669539
0.77321
0.926447
0.905564
0.800854
0.868376
0.835421
0.760934
0.847187
0.885758
0.710757
0.617842
0.530911
0.422672
0.524138
0.51733
0.526899
0.623788
0.665706
0.712123
0.652405
0.585262
0.593712
0.720114
0.657245
0.672888
0.602871
0.657348
0.731894
0.599597
0.678348
0.727102
0.610403
0.414902
0.5
0.511661
0.508676
0.520225
0.601638
0.444208
0.337141
0.38331
0.378852
0.436931
0.39143
0.383133
0.255695
0.251392
0.44513
0.339668
0.395901
0.389036
0.391903
0.387344
0.449263
0.24005
0.247704
0.631671
0.534566
0.436668
0.529833
0.537502
0.6283
0.533876
0.684632
0.73186
0.660372
0.602807
0.60689
0.735919
0.681926
0.684668
0.605584
0.662839
0.735376
0.60776
0.682284
0.736798
0.632659
0.438687
0.535453
0.536576
0.538169
0.536484
0.631231
1.01258
1.09724
1.0673
1.01473
1.06766
1.00186
0.985328
0.993631
0.994146
1.00728
0.999206
1.00884
0.997631
0.801452
0.931396
0.936077
0.801783
0.912543
0.912298
0.81266
0.944816
0.943738
0.814267
0.814737
0.934754
0.803397
0.944728
0.916651
0.917918
0.81144
0.949063
0.945531
0.821594
0.49793
0.457152
0.460568
0.326006
0.416177
0.54538
0.414158
0.448642
0.300452
0.450912
0.330915
0.475401
0.409411
0.277897
0.52483
0.51333
0.618846
0.506339
0.558216
0.580541
0.46541
0.43604
0.281708
0.208206
0.287136
0.367837
0.365337
0.279249
0.435514
0.320323
0.374298
0.347614
0.427436
0.379935
0.368666
0.254816
0.254701
0.444404
0.331673
0.390701
0.387106
0.444764
0.389882
0.381016
0.245349
0.250021
0.600899
0.485818
0.413199
0.492598
0.506787
0.579562
0.51199
0.663813
0.723721
0.632794
0.594885
0.710758
0.674883
0.584498
0.646131
0.545489
0.614776
0.662692
0.691315
0.568483
0.620553
0.616236
0.425594
0.529521
0.532589
0.625327
0.520754
0.525162
0.572209
0.380227
0.476065
0.459065
0.469708
0.486866
0.560742
0.638914
0.703268
0.577617
0.630792
0.648233
0.570978
0.694189
0.582943
0.390073
0.490292
0.503561
0.480668
0.592413
0.496605
0.628341
0.550483
0.621816
0.672517
0.561547
0.616955
0.683724
1.0314
0.967026
0.93558
0.95278
0.781555
0.921155
0.914167
0.789417
0.868078
0.855559
0.767804
0.892873
0.902116
0.763995
0.879375
0.74901
0.833635
0.906058
0.810775
0.583192
0.490405
0.493694
0.400373
0.493942
0.578667
0.49831
0.631599
0.680274
0.618622
0.567079
0.566612
0.677838
0.634022
0.627743
0.558344
0.669469
0.615446
0.623181
0.563141
0.673942
0.587121
0.404034
0.500972
0.502496
0.498096
0.502001
0.589753
0.489228
0.573754
0.553916
0.664221
0.618139
0.98801
0.917681
0.892524
0.90231
0.732542
0.858906
0.858173
0.734017
0.830207
0.824354
0.725474
0.849911
0.852386
0.728126
0.817041
0.842739
0.71965
0.891839
0.798376
0.793155
0.732412
0.84856
0.74701
0.834026
0.713146
0.772923
0.844121
0.807004
0.91456
0.85238
0.909489
0.813565
0.846274
0.909517
0.836637
0.928809
0.879355
0.802591
0.905421
0.850031
0.863155
0.843081
0.869127
0.824974
0.787109
0.791941
0.820456
0.435376
0.43779
0.580656
0.218167
0.622264
0.70188
0.474425
0.697116
0.623565
0.569323
0.668722
0.81736
0.793928
0.698145
0.764567
0.732386
0.655917
0.736074
0.774214
0.606954
0.595354
0.508224
0.412383
0.506752
0.50782
0.594916
0.508533
0.638368
0.682728
0.568947
0.622801
0.636471
0.571418
0.68429
0.59434
0.410343
0.503997
0.504747
0.505673
0.592325
0.507412
0.639267
0.569523
0.683923
0.622467
0.638369
0.571855
0.68519
0.445545
0.370381
0.394867
0.321218
0.444797
0.368505
0.397092
0.265623
0.266719
0.267218
0.268683
0.440849
0.318737
0.363445
0.39128
0.367184
0.392363
0.43925
0.590901
0.507798
0.505213
0.409882
0.502936
0.593414
0.505675
0.627862
0.663276
0.606251
0.550757
0.558989
0.67187
0.620198
0.633109
0.567157
0.612834
0.681728
0.564232
0.636404
0.677696
0.586542
0.407276
0.491813
0.497738
0.498993
0.502784
0.580063
0.919263
1.0057
0.99192
0.924987
0.989672
0.896768
0.877278
0.885257
0.889862
0.906065
0.904145
0.911792
0.897701
0.733632
0.863108
0.861245
0.740103
0.841962
0.835771
0.738706
0.858421
0.86315
0.73463
0.719234
0.82853
0.703915
0.842853
0.829006
0.835397
0.720958
0.857486
0.848148
0.736473
0.440806
0.41025
0.407387
0.286533
0.366729
0.48526
0.369084
0.395563
0.26729
0.403769
0.298437
0.419083
0.368534
0.247018
0.461285
0.457327
0.545523
0.450727
0.490393
0.512369
0.415589
0.387303
0.247341
0.184289
0.25932
0.324438
0.328041
0.25112
0.413449
0.309412
0.35603
0.285363
0.402482
0.331859
0.36412
0.260059
0.255471
0.23968
0.247399
0.425161
0.298559
0.356916
0.381817
0.430043
0.346675
0.376873
0.540343
0.441608
0.433949
0.369537
0.454962
0.518244
0.462406
0.595162
0.651439
0.569853
0.539639
0.635842
0.609146
0.526762
0.576099
0.486881
0.550881
0.586918
0.615163
0.50966
0.550509
0.557534
0.383159
0.482231
0.489394
0.570004
0.470416
0.478046
0.703711
0.771247
0.817593
0.686623
0.689088
0.819882
0.711444
0.77658
0.842917
0.888109
0.795768
0.783978
0.887102
0.788076
0.225015
0.172666
0.32133
0.237361
0.264787
0.247127
0.201155
0.12577
0.0605726
0.0760433
0.0589821
0.100858
0.0979577
0.0845396
0.170041
0.21319
0.239008
0.203246
0.189205
0.20057
0.183615
0.137551
0.12657
0.117544
0.207918
0.0989487
0.164459
0.157936
0.210202
0.163912
0.29275
0.229491
0.248357
0.224659
0.193984
0.116937
0.0588458
0.0708228
0.0574641
0.0932889
0.089842
0.082356
0.158289
0.193892
0.216308
0.188819
0.17172
0.186791
0.170848
0.127335
0.118329
0.106731
0.188814
0.0920654
0.149426
0.146945
0.0465741
0.0212126
0.0167681
0.00864426
0.00699166
0.00376338
0.0030689
0.00164199
0.00131657
0.000616117
0.000448482
7.73186e-05
-1.3134e-05
-0.000211561
-0.000258299
-0.000352166
-0.000370538
-0.000394624
-0.000394156
-0.000371434
-0.000357636
-0.000298998
-0.000273922
-0.000180542
-0.00014318
-2.04394e-05
0.111606
0.0533417
0.0266507
0.0211601
0.0417152
0.0201975
0.0182737
0.0110721
0.0160352
0.00823412
0.00932134
0.00549398
0.00665991
0.00359175
0.00457484
0.00260066
0.00292906
0.00156092
0.00214015
0.00114276
0.00124744
0.000570502
0.000903295
0.000368363
0.000408039
4.76487e-05
0.000235818
-6.45669e-05
-4.02044e-05
-0.000232537
-0.000139136
-0.000302478
-0.000277554
-0.000366891
-0.000340229
-0.000411881
-0.000383808
-0.000404293
-0.000424035
-0.000432647
-0.000402791
-0.000377184
-0.000427749
-0.000393191
-0.000362541
-0.000301999
-0.000375992
-0.000310329
-0.000276367
-0.000181368
-0.000283582
-0.000185649
-0.00014342
-2.03268e-05
-0.000146222
-2.05009e-05
-0.0355029
0.00451848
-0.0376126
-0.0173444
0.0107905
0.0144103
-0.01242
-0.003283
0.0133692
0.00893959
-0.0016373
0.000927656
0.00756247
0.00446167
0.00126431
0.00142925
0.00374145
0.00218086
0.00134197
0.000968045
0.00180545
0.000968154
0.000834357
0.000459769
0.000761078
0.000288404
0.000347963
5.97452e-05
0.000168894
-0.00010569
-2.11196e-05
-0.000219278
-0.000174639
-0.000326182
-0.00027168
-0.000389018
-0.000361079
-0.000426178
-0.000416134
-0.000464585
-0.000436668
-0.000441381
-0.000471367
-0.000467877
-0.000435371
-0.000397797
-0.000459901
-0.00041743
-0.000379479
-0.000309504
-0.000398121
-0.000326334
-0.000280802
-0.000178225
-0.000297403
-0.000193446
-0.00013997
-1.90814e-05
-0.000150259
-2.14292e-05
-0.0372287
-0.0194203
-0.0379766
-0.023741
-0.0146766
-0.00516624
-0.0196401
-0.010071
-0.00333664
-0.000401034
-0.00778332
-0.00316168
4.88806e-05
0.000678465
-0.00221911
-0.000570552
0.000730314
0.000646477
-0.000290243
9.43519e-05
0.000575182
0.000322821
0.000126522
7.71387e-05
0.00023672
-9.17495e-07
3.43096e-05
-0.000121398
-7.09347e-05
-0.00024708
-0.000173677
-0.000316329
-0.000294632
-0.00040132
-0.000356738
-0.000450587
-0.000425586
-0.000466107
-0.000473764
-0.000510256
-0.000470524
-0.000459838
-0.000514196
-0.000503031
-0.000449599
-0.000401792
-0.000492977
-0.000446032
-0.000380591
-0.000302423
-0.000426677
-0.000352837
-0.000271439
-0.000165478
-0.000323143
-0.00021981
-0.000127049
-1.62674e-05
-0.000178356
-2.44015e-05
0.0431255
0.0193672
0.0211295
0.00965702
0.0151453
0.00752182
0.00738763
0.00312064
0.00600404
0.00307687
0.00226099
0.000647343
0.00245589
0.00119947
0.000323819
-0.000280289
0.0009182
0.00032418
-0.000400372
-0.000620136
0.000185005
-0.000116489
-0.00066207
-0.000731329
-0.000188166
-0.000340208
-0.00074115
-0.000743701
-0.000374421
-0.00043742
-0.00073777
-0.000703012
-0.000447471
-0.00045112
-0.00068675
-0.000626708
-0.00044514
-0.000408705
-0.000603397
-0.000524213
-0.000391119
-0.000322422
-0.000494728
-0.000394845
-0.000294378
-0.000192425
-0.00035751
-0.000229185
-0.000152225
-2.16688e-05
-0.000180249
-2.56681e-05
0.0488934
0.0227529
0.0185677
0.0395174
0.0233989
0.00257275
0.00585876
0.0182497
0.0160357
0.0095872
0.01876
0.00892391
0.00539442
0.00323806
0.00713034
0.00800682
0.00455546
0.00683548
0.00284935
0.0025745
0.000999146
0.00291908
0.00373298
0.00198817
0.0020486
0.000541538
0.000618289
-0.000153785
0.00112546
0.00158731
0.000733899
0.000237833
-0.000330314
-0.000317136
-0.000626443
0.000282175
0.000532909
9.26289e-05
-0.000443459
-0.000650356
-0.000687971
-0.0007971
-0.000144426
-1.42553e-05
-0.00025088
-0.000689772
-0.000753651
-0.000816412
-0.000840813
-0.000360402
-0.000308035
-0.000427906
-0.000762258
-0.000761506
-0.00084088
-0.000820893
-0.000451936
-0.000453825
-0.000496396
-0.000754564
-0.000716893
-0.00080898
-0.000759561
-0.000460876
-0.000500603
-0.000489564
-0.000699588
-0.000636842
-0.000738799
-0.000666502
-0.000414723
-0.000479342
-0.000431552
-0.000612691
-0.000531152
-0.00063963
-0.000550694
-0.000325754
-0.000410695
-0.000335035
-0.000500963
-0.000399187
-0.000518242
-0.000411285
-0.000193473
-0.000305256
-0.00019835
-0.000361216
-0.000230798
-0.000372116
-0.000237303
-2.15856e-05
-0.000155907
-2.19036e-05
-0.000181347
-2.56515e-05
-0.000185843
-2.62023e-05
0.00218159
-0.0378037
-0.0181938
-0.0370183
-0.00965794
-0.0387176
-0.0221913
0.0121952
-0.0133912
-0.00435373
-0.00440859
0.00199272
-0.0178888
-0.00901275
0.00750884
-0.00268835
-7.03039e-06
0.00234905
0.00162904
-0.00715158
-0.00369325
0.00357167
0.000376797
0.00070146
0.00122128
0.000242858
-0.0030436
-0.00193692
0.00159115
0.00066816
0.00044094
1.22809e-05
-0.00046056
-0.00173371
-0.00136217
0.000569028
0.000350079
8.71337e-05
-0.000562653
-0.000755746
-0.00128771
-0.00113955
1.70881e-05
7.06657e-06
-0.000199831
-0.000793724
-0.000857461
-0.00110673
-0.00103326
-0.000289988
-0.000257956
-0.00039835
-0.000867384
-0.000873263
-0.00101446
-0.000963842
-0.00045079
-0.00043471
-0.000511644
-0.000869405
-0.00084107
-0.000947832
-0.000895154
-0.000510477
-0.000527654
-0.000548438
-0.000827109
-0.000773018
-0.000875695
-0.000809431
-0.000498391
-0.000547654
-0.000525326
-0.000751078
-0.00067565
-0.000784917
-0.000703612
-0.000436347
-0.000512173
-0.000456745
-0.000647894
-0.000556164
-0.000674376
-0.000578781
-0.000334229
-0.000433769
-0.000351937
-0.000522487
-0.000410304
-0.000544297
-0.000430973
-0.000191174
-0.000319931
-0.000207004
-0.000368944
-0.000231875
-0.000389416
-0.000246487
-2.05591e-05
-0.000162167
-2.31661e-05
-0.000181517
-2.50869e-05
-0.000192996
-2.80173e-05
-0.0201665
-0.0381102
-0.0242091
-0.0382995
-0.0234353
-0.0386723
-0.0261751
-0.00620018
-0.0201953
-0.0107892
-0.0193302
-0.0104407
-0.0225035
-0.0136483
-0.00130549
-0.00852438
-0.00389877
-0.00849731
-0.00476252
-0.0114281
-0.00665476
-1.31623e-05
-0.00293689
-0.00119749
-0.00398925
-0.0024936
-0.00557897
-0.00341052
0.000135248
-0.000881664
-0.000388889
-0.00218838
-0.00160473
-0.00294385
-0.0020208
-4.30818e-05
-0.000322435
-0.000276631
-0.00148415
-0.00124467
-0.00182355
-0.0014332
-0.000257517
-0.000291114
-0.00037268
-0.00119252
-0.00108045
-0.00134853
-0.00117605
-0.000424737
-0.000403958
-0.000491619
-0.00105333
-0.000985649
-0.0011359
-0.00104295
-0.000523248
-0.00051656
-0.00057117
-0.000965857
-0.000904419
-0.00101849
-0.000949237
-0.000549548
-0.000583132
-0.000592545
-0.000882555
-0.000809431
-0.000924726
-0.00084947
-0.000516939
-0.000589442
-0.000559837
-0.000782696
-0.000694811
-0.000823039
-0.000736368
-0.000441126
-0.000545069
-0.000484069
-0.000663608
-0.000562945
-0.000705591
-0.000603469
-0.000328265
-0.000461192
-0.000377908
-0.000526739
-0.000407312
-0.00056798
-0.000456437
-0.00017933
-0.000345741
-0.000233531
-0.00036302
-0.000221251
-0.000416124
-0.000275595
-1.78082e-05
-0.000189499
-2.58933e-05
-0.000172171
-2.26358e-05
-0.000222462
-3.05141e-05
0.0282258
0.01701
-0.0118375
-0.00541822
0.0135162
0.00607346
-0.004631
-0.00369473
0.00449604
0.00147997
-0.00356899
-0.00326487
0.000874754
-0.000230135
-0.00315626
-0.00279457
-0.00043993
-0.000798097
-0.00266882
-0.00229862
-0.000858789
-0.000942828
-0.00218277
-0.00186673
-0.000950431
-0.000938178
-0.00177316
-0.00152409
-0.000926796
-0.000878243
-0.00145133
-0.00125629
-0.000858764
-0.000791023
-0.00119799
-0.001038
-0.000766085
-0.000684898
-0.000988726
-0.000848107
-0.000655845
-0.000562368
-0.000802789
-0.000669128
-0.000528924
-0.000418664
-0.000624508
-0.000485272
-0.000378287
-0.000241403
-0.000436439
-0.000275974
-0.000189674
-2.70338e-05
-0.000216751
-3.10321e-05
-0.0102162
-0.0344618
-0.037125
-0.0153472
-0.0199491
-0.0235274
-0.037483
0.0144861
-0.00406696
0.00125425
-0.0127305
-0.00590665
-0.0186173
-0.0104682
0.00548839
0.00146695
0.000834791
-0.00501642
-0.00389978
-0.00887839
-0.00596663
0.00125794
0.000517744
-0.000322137
-0.00373431
-0.00334298
-0.00538225
-0.00417819
-0.000316438
-0.00052922
-0.000923019
-0.00321673
-0.00282442
-0.00388438
-0.00317181
-0.000839538
-0.000995852
-0.00110096
-0.00269365
-0.00231531
-0.00297565
-0.00247443
-0.000968919
-0.0011114
-0.00110069
-0.0021984
-0.00188115
-0.0023328
-0.00196905
-0.000958446
-0.00108902
-0.00103898
-0.00178765
-0.00153873
-0.00186612
-0.00159987
-0.000895194
-0.00101944
-0.00095178
-0.0014661
-0.00127088
-0.00152341
-0.0013195
-0.000804608
-0.00092718
-0.000846621
-0.00121235
-0.00105077
-0.00125855
-0.00109035
-0.000695118
-0.000817641
-0.000725142
-0.00100097
-0.000858734
-0.00103826
-0.000889678
-0.000569597
-0.000692765
-0.000590002
-0.000812874
-0.000677313
-0.000841746
-0.000699924
-0.000423312
-0.000553679
-0.000436469
-0.000632034
-0.000490759
-0.00065255
-0.000506956
-0.00024323
-0.000394295
-0.000250103
-0.00044132
-0.000278639
-0.000456307
-0.000286392
-2.70401e-05
-0.000195716
-2.75532e-05
-0.000218718
-3.11855e-05
-0.000224065
-3.18e-05
-0.0140009
-0.0390472
-0.0236964
-0.0398335
-0.0240743
-0.0398219
-0.0276984
-0.00176647
-0.0195914
-0.0107954
-0.0199812
-0.0117137
-0.0241965
-0.0158497
-0.000571071
-0.00885939
-0.0050888
-0.0100159
-0.00677222
-0.013762
-0.0091873
-0.000986024
-0.00432901
-0.00290242
-0.00607241
-0.00457079
-0.00810605
-0.00573877
-0.00119538
-0.00260591
-0.00200237
-0.00420448
-0.00334335
-0.00516558
-0.00387125
-0.00121705
-0.00186545
-0.00156449
-0.0031154
-0.0025517
-0.00354697
-0.00279103
-0.00115557
-0.00149073
-0.00131664
-0.00239721
-0.00200806
-0.00259539
-0.00212562
-0.00106906
-0.00127081
-0.00115349
-0.00189995
-0.00162332
-0.00200037
-0.00168996
-0.000970932
-0.00111959
-0.00102264
-0.00154472
-0.00133595
-0.00160409
-0.00138068
-0.000859838
-0.00099128
-0.000895809
-0.00127385
-0.00110293
-0.00131524
-0.00113759
-0.000734354
-0.00086345
-0.000762498
-0.0010501
-0.000899087
-0.00108295
-0.000927207
-0.000595661
-0.000727951
-0.000619041
-0.000850511
-0.000706053
-0.000877797
-0.000731614
-0.000435352
-0.000580727
-0.000457007
-0.000657285
-0.000505562
-0.000682435
-0.000530143
-0.000245337
-0.00041235
-0.000259194
-0.000452707
-0.000282344
-0.000476405
-0.000296895
-2.64801e-05
-0.000203234
-2.94533e-05
-0.000220317
-3.08929e-05
-0.000232962
-3.39001e-05
-0.0246738
-0.038881
-0.0269311
-0.0394797
-0.0281042
-0.0394576
-0.0291298
-0.0120383
-0.0233908
-0.0147378
-0.0247431
-0.0165843
-0.0259843
-0.0179601
-0.00604611
-0.0125292
-0.00768222
-0.0144977
-0.00977547
-0.0157963
-0.0107276
-0.00339688
-0.00655699
-0.00421215
-0.00861973
-0.00605188
-0.00945116
-0.00657263
-0.00222074
-0.00368559
-0.00259643
-0.00542655
-0.00401816
-0.00586459
-0.00427407
-0.0016601
-0.00235013
-0.00183186
-0.00366788
-0.00285846
-0.00387936
-0.0029806
-0.00135995
-0.00171148
-0.00144792
-0.00265123
-0.00215769
-0.00275385
-0.00222267
-0.00117366
-0.00138268
-0.00122857
-0.0020273
-0.00170554
-0.00208466
-0.0017515
-0.00103106
-0.0011871
-0.00107403
-0.00161695
-0.00138682
-0.00165983
-0.00142352
-0.000895497
-0.00103822
-0.000933516
-0.00131958
-0.00113671
-0.00135486
-0.00116698
-0.000753737
-0.000899705
-0.000795164
-0.00108018
-0.000918904
-0.00111273
-0.000958387
-0.000603046
-0.00075864
-0.000643628
-0.00086776
-0.000715142
-0.00090798
-0.000758238
-0.000432918
-0.000604098
-0.000482907
-0.000663686
-0.000504146
-0.000707252
-0.000557275
-0.000235241
-0.000439587
-0.000289066
-0.000448544
-0.00027276
-0.000505461
-0.000326932
-2.40508e-05
-0.000232761
-3.16398e-05
-0.000210857
-2.83694e-05
-0.000261463
-3.54616e-05
-0.0428192
-0.0225416
-0.0434718
-0.031083
-0.0179904
-0.0101363
-0.027484
-0.01894
-0.00874886
-0.006298
-0.0167893
-0.0119193
-0.0057899
-0.00465095
-0.0107025
-0.0078845
-0.00434709
-0.00356503
-0.00715823
-0.00542735
-0.00333999
-0.00275041
-0.00496925
-0.00385622
-0.0025811
-0.00214319
-0.00355675
-0.00282158
-0.00201899
-0.00169811
-0.00262189
-0.00212525
-0.0016069
-0.00136776
-0.00198845
-0.00164208
-0.00129802
-0.00111069
-0.00154427
-0.00129009
-0.0010542
-0.000895939
-0.00121577
-0.0010148
-0.000845865
-0.000699993
-0.000953333
-0.00077927
-0.000651983
-0.0005035