/*--------------------------------*- C++ -*----------------------------------*\
| =========                 |                                                 |
| \\      /  F ield         | OpenFOAM: The Open Source CFD Toolbox           |
|  \\    /   O peration     | Version:  2012                                  |
|   \\  /    A nd           | Website:  www.openfoam.com                      |
|    \\/     M anipulation  |                                                 |
\*---------------------------------------------------------------------------*/
FoamFile
{
    version     2.0;
    format      ascii;
    class       surfaceScalarField;
    location    "0.105/fluid";
    object      phi;
}
// * * * * * * * * * * * * * * * * * * * * * * * * * * * * * * * * * * * * * //

dimensions      [0 3 -1 0 0 0 0];
oriented        oriented;


internalField   nonuniform List<scalar> 
46886
(
1.71592e-05
9.14476e-06
0.00159687
-1.40422e-05
-2.95279e-05
1.80881e-05
1.5368e-05
1.61526e-05
2.71604e-05
-0.0015641
9.39866e-06
-1.03706e-05
0.0015641
-2.7215e-05
7.72996e-06
1.1737e-05
-0.00155712
-7.63758e-06
0.001555
-1.06899e-05
5.50469e-06
9.31289e-06
-0.00154994
0.00154855
-8.73219e-06
-5.49896e-06
3.60663e-06
7.79929e-06
-0.00154521
0.00154426
-7.51564e-06
-3.62539e-06
2.19045e-06
6.75297e-06
-0.00154177
0.00154102
-6.55185e-06
-2.22049e-06
1.23283e-06
6.02515e-06
-0.00153911
0.00153854
-5.89791e-06
-1.25457e-06
5.79432e-07
5.49831e-06
-0.00153697
0.00153649
-5.40131e-06
-5.91759e-07
1.58358e-07
5.05873e-06
-0.00153512
0.0015347
-4.97242e-06
-1.62042e-07
-7.92798e-08
4.70874e-06
-0.00153357
0.00153324
-4.63183e-06
7.70077e-08
-1.78611e-07
4.26762e-06
-0.00153241
0.00153218
-4.18942e-06
1.78893e-07
-1.93166e-07
3.60215e-06
-0.00153166
0.00153155
-3.57267e-06
1.92024e-07
-1.66371e-07
2.84997e-06
-0.00153129
0.00153124
-2.83984e-06
1.64652e-07
-1.19307e-07
1.96829e-06
-0.00153114
0.00153112
-1.97136e-06
1.20157e-07
-4.54858e-08
9.54789e-07
-0.00153105
0.00153103
-9.57184e-07
4.61199e-08
8.7324e-06
-5.08294e-07
0.00157446
4.88264e-07
-7.00493e-06
3.18973e-06
1.27836e-05
-0.00156876
-3.12457e-06
0.00156664
-1.10943e-05
4.07373e-06
9.64386e-06
-0.00156019
0.00155825
-8.27688e-06
-4.05181e-06
3.344e-06
7.47578e-06
-0.0015533
0.00155188
-6.62044e-06
-3.35388e-06
2.24161e-06
6.28841e-06
-0.00154828
0.00154721
-5.68686e-06
-2.25878e-06
1.28229e-06
5.49366e-06
-0.00154432
0.00154344
-4.99649e-06
-1.3032e-06
5.88088e-07
5.04755e-06
-0.001541
0.00154026
-4.61269e-06
-6.04696e-07
1.22845e-07
4.65824e-06
-0.00153821
0.00153759
-4.27596e-06
-1.31388e-07
-1.6941e-07
4.28563e-06
-0.00153586
0.00153534
-3.92937e-06
1.67182e-07
-3.13426e-07
4.00467e-06
-0.001534
0.00153361
-3.67023e-06
3.14399e-07
-3.39412e-07
3.61254e-06
-0.00153268
0.00153245
-3.31384e-06
3.39495e-07
-2.88157e-07
3.14175e-06
-0.00153192
0.00153178
-2.88353e-06
2.90042e-07
-2.22454e-07
2.5349e-06
-0.0015315
0.00153145
-2.34293e-06
2.21424e-07
-1.46736e-07
1.81054e-06
-0.00153133
0.00153132
-1.68951e-06
1.52167e-07
-5.86959e-08
8.7817e-07
-0.00153125
0.0015312
-8.21425e-07
6.02e-08
-7.41515e-07
3.66432e-06
0.00156883
-3.01643e-06
7.59178e-07
1.2214e-06
5.47823e-06
-0.00156636
0.00156512
-4.21052e-06
-1.20965e-06
2.02419e-06
5.10987e-06
-0.00156094
0.00155948
-3.85026e-06
-2.03167e-06
1.84275e-06
4.22409e-06
-0.00155525
0.00155392
-3.22892e-06
-1.85769e-06
1.23134e-06
3.54538e-06
-0.00155016
0.00154898
-2.72736e-06
-1.25176e-06
5.93568e-07
3.13175e-06
-0.00154569
0.00154468
-2.41459e-06
-6.15224e-07
8.92098e-08
2.92475e-06
-0.00154187
0.00154101
-2.25947e-06
-1.09062e-07
-2.36762e-07
2.74797e-06
-0.00153864
0.00153793
-2.13331e-06
2.25116e-07
-4.27366e-07
2.53474e-06
-0.00153603
0.00153547
-1.96621e-06
4.24849e-07
-4.94798e-07
2.32751e-06
-0.00153402
0.00153364
-1.79468e-06
4.99459e-07
-4.58873e-07
2.1028e-06
-0.00153276
0.00153255
-1.62304e-06
4.59783e-07
-3.58996e-07
1.84108e-06
-0.00153201
0.00153187
-1.43192e-06
3.59129e-07
-2.61483e-07
1.52648e-06
-0.00153155
0.00153149
-1.19066e-06
2.64638e-07
-1.70168e-07
1.11687e-06
-0.00153137
0.00153136
-8.72043e-07
1.75083e-07
-6.82534e-08
5.3816e-07
-0.00153129
0.00153124
-4.21239e-07
7.16232e-08
5.15122e-06
9.0119e-06
0.00157669
-7.77575e-06
-2.78606e-06
-0.00156973
7.35022e-06
9.73734e-06
0.00156758
-8.57705e-06
-7.00291e-06
7.0339e-06
8.54983e-06
-0.00156016
0.00155792
-7.88786e-06
-6.4178e-06
5.0661e-06
7.36752e-06
-0.00155224
0.00155065
-6.9474e-06
-4.75834e-06
3.3775e-06
6.34151e-06
-0.00154665
0.00154551
-6.10174e-06
-3.20386e-06
2.12111e-06
5.57989e-06
-0.00154253
0.00154165
-5.41193e-06
-2.02117e-06
1.21111e-06
5.01916e-06
-0.00153936
0.00153868
-4.9143e-06
-1.16031e-06
5.80467e-07
4.60404e-06
-0.00153688
0.00153634
-4.53414e-06
-5.61199e-07
1.65374e-07
4.25802e-06
-0.00153487
0.00153442
-4.18495e-06
-1.63246e-07
-6.52162e-08
3.93893e-06
-0.00153325
0.00153292
-3.88064e-06
6.21375e-08
-1.62162e-07
3.60079e-06
-0.00153211
0.0015319
-3.55879e-06
1.55779e-07
-1.75422e-07
3.10502e-06
-0.00153144
0.00153134
-3.09821e-06
1.67908e-07
-1.51982e-07
2.46279e-06
-0.0015311
0.00153104
-2.47459e-06
1.45041e-07
-1.17414e-07
1.66696e-06
-0.00153093
0.00153092
-1.68569e-06
1.12975e-07
-4.68773e-08
7.69888e-07
-0.00153093
0.00153094
-7.67554e-07
4.70414e-08
5.77683e-06
-5.89073e-07
0.001571
4.89204e-07
-5.04133e-06
2.79798e-06
7.72211e-06
-0.00156757
-2.58068e-06
0.001566
-6.69042e-06
3.70007e-06
6.88733e-06
-0.00156085
0.00155911
-6.01943e-06
-3.44412e-06
3.09015e-06
5.76691e-06
-0.00155429
0.00155285
-5.17172e-06
-2.91449e-06
2.11069e-06
5.0425e-06
-0.00154899
0.00154779
-4.55146e-06
-2.00043e-06
1.23899e-06
4.4868e-06
-0.00154455
0.00154356
-4.05663e-06
-1.18457e-06
5.91025e-07
4.16103e-06
-0.00154087
0.00154006
-3.78315e-06
-5.69934e-07
1.37905e-07
3.91674e-06
-0.00153784
0.00153718
-3.58736e-06
-1.37541e-07
-1.5427e-07
3.63576e-06
-0.00153538
0.00153485
-3.34597e-06
1.45149e-07
-2.98456e-07
3.37391e-06
-0.00153352
0.00153316
-3.08261e-06
2.84863e-07
-3.16147e-07
3.0805e-06
-0.00153227
0.00153206
-2.81784e-06
3.01326e-07
-2.71016e-07
2.74965e-06
-0.00153159
0.00153149
-2.51736e-06
2.57435e-07
-2.14069e-07
2.28023e-06
-0.00153123
0.00153119
-2.11178e-06
2.02156e-07
-1.42269e-07
1.6226e-06
-0.00153111
0.0015311
-1.52693e-06
1.37736e-07
-6.16964e-08
7.34925e-07
-0.00153109
0.00153108
-7.08627e-07
6.17661e-08
-7.29715e-07
3.18822e-06
0.00156775
-2.55226e-06
6.90389e-07
1.07506e-06
4.03942e-06
-0.00156567
0.00156462
-3.09123e-06
-9.96437e-07
1.86544e-06
3.84081e-06
-0.00156085
0.00155949
-2.91238e-06
-1.75547e-06
1.73042e-06
3.3015e-06
-0.00155541
0.00155408
-2.53994e-06
-1.63663e-06
1.188e-06
2.83992e-06
-0.00155022
0.00154899
-2.19039e-06
-1.12891e-06
6.0637e-07
2.53206e-06
-0.00154554
0.00154447
-1.94495e-06
-5.82643e-07
1.35092e-07
2.38735e-06
-0.00154154
0.00154064
-1.84402e-06
-1.33582e-07
-1.93734e-07
2.31732e-06
-0.00153821
0.00153748
-1.79875e-06
1.80152e-07
-3.99873e-07
2.12923e-06
-0.00153545
0.00153486
-1.64754e-06
3.81503e-07
-4.77987e-07
1.92955e-06
-0.00153336
0.00153299
-1.50098e-06
4.56753e-07
-4.27052e-07
1.77e-06
-0.00153224
0.00153205
-1.38744e-06
4.08296e-07
-3.41746e-07
1.59811e-06
-0.00153156
0.0015314
-1.24567e-06
3.34375e-07
-2.64888e-07
1.34988e-06
-0.00153104
0.00153099
-1.05559e-06
2.6252e-07
-1.76961e-07
1.04457e-06
-0.00153093
0.00153097
-8.35234e-07
1.73836e-07
-7.8171e-08
5.16761e-07
-0.00153106
0.00153108
-4.15932e-07
7.68149e-08
7.82508e-07
4.71652e-06
0.00156824
-4.53765e-06
-5.74427e-07
4.21114e-06
5.95621e-06
-0.00156515
-5.60644e-06
0.00156368
-3.46552e-06
4.52767e-06
6.10102e-06
-0.00155869
0.00155699
-5.74518e-06
-3.86616e-06
3.58416e-06
5.62028e-06
-0.00155223
0.00155078
-5.34418e-06
-3.14024e-06
2.48679e-06
4.95602e-06
-0.0015469
0.00154576
-4.76143e-06
-2.204e-06
1.59958e-06
4.40981e-06
-0.00154272
0.00154181
-4.26639e-06
-1.4216e-06
9.25021e-07
4.0416e-06
-0.0015394
0.00153869
-3.93829e-06
-8.23275e-07
4.53662e-07
3.80826e-06
-0.00153677
0.00153619
-3.73704e-06
-4.06751e-07
1.3567e-07
3.52394e-06
-0.00153463
0.00153417
-3.48314e-06
-1.16186e-07
-5.21827e-08
3.25168e-06
-0.00153299
0.00153266
-3.22635e-06
4.62041e-08
-1.19477e-07
2.95367e-06
-0.00153182
0.0015316
-2.95824e-06
1.03879e-07
-1.29492e-07
2.57673e-06
-0.0015311
0.001531
-2.60607e-06
1.14888e-07
-1.17582e-07
2.11127e-06
-0.00153079
0.00153077
-2.15802e-06
1.03355e-07
-9.17061e-08
1.46061e-06
-0.00153073
0.00153073
-1.49092e-06
8.18005e-08
-4.49871e-08
5.98715e-07
-0.00153074
0.00153077
-5.94654e-07
4.22222e-08
-2.41703e-07
4.04445e-06
0.0015663
-3.66169e-06
2.07774e-07
1.85553e-06
4.8787e-06
-0.00156426
0.00156319
-4.33022e-06
-1.56768e-06
2.52844e-06
4.80671e-06
-0.00155938
0.001558
-4.29813e-06
-2.18789e-06
2.18848e-06
4.35319e-06
-0.00155391
0.00155258
-3.93189e-06
-1.91546e-06
1.54352e-06
3.90506e-06
-0.00154881
0.00154761
-3.52763e-06
-1.3617e-06
9.28332e-07
3.51508e-06
-0.00154432
0.00154331
-3.18376e-06
-8.23064e-07
4.46391e-07
3.313e-06
-0.00154054
0.0015397
-3.0108e-06
-3.91553e-07
1.11499e-07
3.21268e-06
-0.00153743
0.00153676
-2.95104e-06
-9.82935e-08
-1.09701e-07
3.07626e-06
-0.00153497
0.00153445
-2.84139e-06
9.62389e-08
-2.20311e-07
2.83018e-06
-0.00153318
0.00153287
-2.59884e-06
1.91984e-07
-2.20588e-07
2.63684e-06
-0.00153205
0.00153182
-2.43575e-06
1.93197e-07
-2.00926e-07
2.43259e-06
-0.00153126
0.00153115
-2.28155e-06
1.69384e-07
-1.60391e-07
2.08259e-06
-0.00153093
0.0015309
-1.96851e-06
1.42581e-07
-1.16419e-07
1.45633e-06
-0.00153086
0.00153087
-1.37931e-06
1.04451e-07
-5.71493e-08
6.13382e-07
-0.00153093
0.00153095
-6.10026e-07
5.10291e-08
-5.53337e-07
2.43014e-06
0.00156518
-1.90536e-06
5.0731e-07
7.00222e-07
2.79997e-06
-0.00156354
0.00156269
-2.14113e-06
-5.92577e-07
1.29601e-06
2.74961e-06
-0.00155954
0.00155837
-2.10703e-06
-1.12524e-06
1.23238e-06
2.4611e-06
-0.00155467
0.00155342
-1.8997e-06
-1.07942e-06
8.71856e-07
2.19465e-06
-0.0015497
0.00154851
-1.6902e-06
-7.68518e-07
4.57649e-07
1.99942e-06
-0.0015451
0.00154404
-1.54259e-06
-4.04267e-07
1.03831e-07
1.90847e-06
-0.00154109
0.0015402
-1.4847e-06
-8.74667e-08
-1.49233e-07
1.91628e-06
-0.00153775
0.00153702
-1.49089e-06
1.35883e-07
-3.03617e-07
1.84309e-06
-0.00153501
0.00153443
-1.43342e-06
2.74241e-07
-3.59853e-07
1.7137e-06
-0.00153302
0.00153266
-1.35362e-06
3.18394e-07
-3.17205e-07
1.65816e-06
-0.00153179
0.00153157
-1.33411e-06
2.78245e-07
-2.64077e-07
1.57439e-06
-0.00153099
0.00153083
-1.24362e-06
2.37195e-07
-2.13925e-07
1.37658e-06
-0.00153059
0.00153061
-1.09619e-06
1.88606e-07
-1.41424e-07
1.00807e-06
-0.00153082
0.00153093
-8.28509e-07
1.232e-07
-5.8111e-08
4.85148e-07
-0.00153117
0.00153118
-3.99219e-07
4.94244e-08
2.14526e-07
3.32178e-06
0.00156195
-3.3167e-06
-1.3416e-07
1.66984e-06
4.25095e-06
-0.00156029
0.00155938
-4.10047e-06
-1.19651e-06
2.07809e-06
4.57253e-06
-0.00155607
0.00155486
-4.37333e-06
-1.54409e-06
1.78943e-06
4.40516e-06
-0.00155117
0.00154997
-4.21326e-06
-1.34928e-06
1.29713e-06
4.00609e-06
-0.00154654
0.00154548
-3.84729e-06
-9.82197e-07
8.436e-07
3.60516e-06
-0.00154259
0.00154172
-3.47915e-06
-6.4224e-07
4.95273e-07
3.37844e-06
-0.00153934
0.00153863
-3.2808e-06
-3.75922e-07
2.34273e-07
3.2754e-06
-0.00153667
0.00153609
-3.21796e-06
-1.79265e-07
6.6763e-08
3.05933e-06
-0.00153453
0.00153407
-3.04491e-06
-5.27317e-08
-2.46834e-08
2.7608e-06
-0.00153284
0.0015325
-2.76548e-06
1.31241e-08
-6.12003e-08
2.43876e-06
-0.00153163
0.0015314
-2.47394e-06
4.52289e-08
-6.29584e-08
2.15375e-06
-0.00153085
0.00153073
-2.20974e-06
4.71713e-08
-5.49578e-08
1.84031e-06
-0.00153055
0.00153056
-1.91241e-06
3.70403e-08
-4.74045e-08
1.3108e-06
-0.00153055
0.00153056
-1.34959e-06
3.70667e-08
-2.72992e-08
4.98444e-07
-0.00153056
0.0015306
-4.7808e-07
1.94691e-08
-1.43152e-07
3.01013e-06
0.00156255
-2.77121e-06
1.28663e-07
8.04881e-07
3.49609e-06
-0.00156109
0.00156032
-3.17059e-06
-5.77651e-07
1.18305e-06
3.59161e-06
-0.00155746
0.00155638
-3.25613e-06
-8.76168e-07
1.07884e-06
3.42768e-06
-0.00155295
0.00155178
-3.09895e-06
-8.06515e-07
7.88062e-07
3.14649e-06
-0.00154832
0.0015472
-2.84517e-06
-5.97661e-07
4.88931e-07
2.86931e-06
-0.00154402
0.00154304
-2.60611e-06
-3.76096e-07
2.2435e-07
2.74764e-06
-0.0015403
0.00153946
-2.50188e-06
-1.68363e-07
5.38158e-08
2.78115e-06
-0.0015372
0.00153654
-2.5557e-06
-4.063e-08
-6.38562e-08
2.72283e-06
-0.0015348
0.00153431
-2.52863e-06
4.92032e-08
-1.04699e-07
2.52444e-06
-0.00153295
0.00153262
-2.37199e-06
7.63518e-08
-1.00386e-07
2.37483e-06
-0.00153183
0.00153161
-2.2628e-06
7.52853e-08
-8.18566e-08
2.21049e-06
-0.00153109
0.00153098
-2.13707e-06
5.67379e-08
-7.24401e-08
1.94419e-06
-0.00153079
0.0015308
-1.88223e-06
4.89398e-08
-5.79378e-08
1.36644e-06
-0.0015308
0.00153082
-1.32819e-06
4.10429e-08
-2.89352e-08
5.25265e-07
-0.00153085
0.00153088
-5.48471e-07
2.19878e-08
-3.35527e-07
1.81354e-06
0.00156272
-1.40035e-06
2.6761e-07
2.90212e-07
2.02163e-06
-0.00156133
0.00156064
-1.55534e-06
-2.03925e-07
5.99154e-07
2.04823e-06
-0.00155803
0.00155703
-1.58252e-06
-4.3742e-07
6.02838e-07
1.92538e-06
-0.00155372
0.00155257
-1.48255e-06
-4.51298e-07
4.42296e-07
1.76657e-06
-0.00154908
0.00154794
-1.36215e-06
-3.33363e-07
2.31253e-07
1.6467e-06
-0.00154464
0.0015436
-1.27301e-06
-1.78535e-07
4.22904e-08
1.58856e-06
-0.00154069
0.00153981
-1.24181e-06
-3.1585e-08
-8.95513e-08
1.64954e-06
-0.00153738
0.00153665
-1.28196e-06
7.17098e-08
-1.77744e-07
1.65e-06
-0.00153472
0.00153418
-1.27792e-06
1.367e-07
-1.93682e-07
1.63304e-06
-0.0015328
0.00153242
-1.2873e-06
1.4898e-07
-1.62775e-07
1.65798e-06
-0.00153149
0.00153126
-1.35195e-06
1.17579e-07
-1.31745e-07
1.61806e-06
-0.00153075
0.00153069
-1.31927e-06
9.27972e-08
-1.03351e-07
1.41627e-06
-0.00153069
0.00153078
-1.15386e-06
7.39196e-08
-6.69628e-08
1.01156e-06
-0.00153106
0.00153115
-8.29584e-07
4.86542e-08
-2.48814e-08
4.63682e-07
-0.00153132
0.00153129
-3.84411e-07
1.5491e-08
-1.49793e-06
-1.78263e-05
2.25584e-05
0.000418915
-2.04324e-05
0.00153968
-3.91161e-05
3.94588e-05
-0.00153656
2.14536e-05
0.000417808
-1.14182e-06
0.00154414
-3.587e-05
3.96541e-05
-0.00154215
-2.74673e-05
-1.2652e-05
-1.31782e-05
9.90794e-06
0.00158623
6.51443e-06
6.94619e-06
7.50308e-06
5.67037e-06
0.00156703
-1.40947e-05
-1.59474e-05
2.50268e-05
9.52226e-06
-0.00157225
-1.69554e-05
-2.94765e-05
2.8027e-05
0.0015425
-1.19196e-05
0.00154316
-1.44248e-05
1.29096e-05
-0.00154165
1.88894e-05
0.00159549
-3.27287e-05
-1.00491e-05
0.00156222
-0.00156005
-4.08426e-05
-3.15117e-06
-8.97156e-06
1.26232e-05
0.00158531
-8.55743e-06
0.00156399
-1.401e-05
2.15668e-05
-0.00157095
6.96752e-06
-1.70485e-06
-9.96873e-08
-5.16265e-06
8.26062e-08
5.41167e-06
-9.98088e-08
-5.39441e-06
2.84013e-05
-2.17491e-05
0.00154648
0.00154641
-1.29262e-05
1.17394e-05
-0.00154551
-1.27728e-05
-1.32187e-05
-1.49389e-05
2.19176e-05
9.33416e-06
0.00156303
0.00155602
-1.04615e-05
-1.10534e-05
1.26462e-05
9.35881e-06
-0.00155763
-0.00156289
-1.14564e-05
-3.66529e-05
1.19582e-05
0.00158427
-3.31764e-06
0.00156509
-1.29491e-05
1.94961e-05
-0.0015714
-9.18801e-06
8.97308e-06
0.0015814
-1.07915e-05
-6.59912e-06
0.00157018
7.72864e-06
-0.00157319
-1.28556e-05
-2.84969e-06
-6.22577e-06
3.36526e-06
7.22198e-06
0.00157648
-7.51088e-06
0.00156709
-9.08454e-06
8.85533e-06
1.06541e-05
-0.00157032
9.0545e-06
0.00158022
-8.10288e-06
-1.01709e-05
0.00156867
9.9464e-06
-0.00157161
-1.32916e-05
-5.32523e-06
-1.7894e-06
2.8283e-06
5.06652e-06
0.00157164
-6.66327e-06
0.00156631
-5.25126e-06
7.15487e-06
6.40932e-06
-0.00156828
5.55065e-06
9.28594e-08
-5.56084e-06
-3.11937e-07
3.12152e-07
-5.7445e-06
1.1297e-05
0.000397854
-5.34937e-06
-1.80472e-05
-0.000403356
2.41472e-05
5.77144e-06
-6.73798e-08
7.75985e-08
-5.782e-06
-2.07604e-05
-0.000360996
-0.000379348
0.00151439
-2.45041e-05
2.98447e-05
1.84226e-05
-6.01649e-05
-0.000386185
-2.68621e-07
2.71499e-07
1.18265e-05
-6.05968e-06
-1.23965e-06
9.13501e-07
-1.95864e-06
9.25299e-06
-3.40023e-07
-5.59859e-06
1.10405e-05
7.86729e-06
-2.68672e-06
1.80495e-07
-5.36288e-06
0.000397724
-1.70895e-05
-0.000402819
2.31271e-05
-6.36142e-06
-3.31714e-06
-6.40333e-06
4.36244e-07
1.24057e-05
0.000414585
5.64805e-06
-8.20742e-08
-5.63369e-06
0.000400548
-9.00187e-06
-1.01599e-05
1.42249e-05
8.50558e-06
-0.00040419
-1.36688e-06
7.4775e-07
1.02702e-05
-1.78468e-06
-2.3066e-05
-0.00038128
-0.000362231
-0.000380238
-0.000363412
0.00152066
-3.55311e-05
1.78084e-05
2.92231e-05
1.81066e-05
2.85303e-05
-5.45725e-05
-0.00038668
-0.000398781
-0.000388284
4.11767e-05
-0.00155859
-3.39519e-05
0.00155312
-3.05866e-05
-2.96601e-07
1.16065e-05
-5.93226e-06
-2.12619e-05
-0.000383507
-0.000368988
-0.000366386
-0.000388441
0.00153131
-3.97431e-05
1.5909e-05
1.84559e-05
2.51437e-05
1.34372e-05
-4.42995e-05
-0.000394083
-0.000399181
-0.000390605
2.97782e-05
2.47837e-07
-6.55552e-06
-2.37383e-05
-1.43594e-06
-3.15661e-07
1.49625e-05
-1.5387e-06
-4.84618e-07
1.78851e-08
3.00677e-05
-1.06086e-06
3.18695e-05
-2.87098e-05
-4.1216e-06
-1.4782e-06
-6.54557e-06
-6.51389e-06
1.18715e-05
0.000405362
0.0015912
1.2795e-05
9.59382e-06
1.12342e-05
1.34664e-05
-2.09289e-05
3.11581e-05
8.82935e-06
0.00157874
-1.48033e-05
-1.77698e-05
1.53063e-05
-1.58488e-06
0.00157565
6.43164e-06
1.17526e-05
1.30669e-05
4.15132e-06
-2.84574e-05
-0.000397679
-0.000402748
-0.000400547
-0.000396159
1.40168e-05
7.49381e-06
1.47511e-05
0.00157492
1.08328e-05
1.16751e-05
1.4706e-05
6.69989e-06
-2.4527e-05
3.04522e-05
6.60617e-07
-1.09493e-06
8.08121e-06
-0.00156346
0.00156191
-1.65408e-05
2.32556e-05
-0.00157206
0.0015673
-1.74986e-05
2.9348e-05
9.63603e-06
-1.52574e-05
-1.76279e-05
-0.000390869
-0.000386684
-0.000389161
-0.000387766
0.00155353
2.66106e-06
1.09856e-05
7.71005e-06
2.25891e-06
-2.26835e-05
4.97706e-06
9.88561e-06
9.22649e-06
4.19258e-06
-2.19508e-05
1.38548e-07
5.45986e-06
-1.81079e-07
-5.41703e-06
5.70126e-06
1.53361e-07
-5.7158e-06
-1.53521e-06
-7.22356e-06
-9.24281e-05
-7.56841e-05
-7.5533e-05
-9.2669e-05
-2.54543e-07
-9.59504e-06
1.31789e-05
2.78013e-07
0.000123065
0.000112208
-1.02002e-06
-1.00333e-05
8.74784e-07
-0.000114493
1.24631e-05
0.000403941
-5.42708e-06
1.14483e-05
1.64304e-05
1.63916e-05
1.14807e-05
-3.51192e-05
-0.000107184
-0.000104514
-0.000104774
-0.000107236
-1.16076e-06
-1.05069e-05
9.95116e-07
1.4702e-05
0.000108179
-2.45633e-05
-6.11926e-06
-9.26546e-05
-7.5893e-05
-7.57637e-05
-9.28851e-05
0.000385074
-5.49814e-06
1.01531e-05
1.44954e-05
1.44873e-05
1.01358e-05
-5.33211e-06
4.91963e-07
-5.59763e-07
-5.62069e-06
1.11499e-05
8.13776e-06
-5.98973e-06
-7.57569e-06
-9.51305e-05
-7.50773e-05
-7.77556e-05
-9.57807e-05
1.04059e-05
-2.33984e-06
-9.47257e-05
-7.70599e-05
-9.39906e-05
-7.79914e-05
4.85897e-07
-5.87771e-06
1.1587e-05
-8.73851e-06
-1.29447e-06
-9.29938e-05
-7.58254e-05
-9.27095e-05
-7.60356e-05
-1.08307e-06
-9.3009e-05
-7.65648e-05
-9.35704e-05
-7.61924e-05
1.80822e-06
-0.000112409
-9.2154e-06
1.25977e-05
0.00010886
-1.64388e-06
1.01641e-07
5.68986e-06
-1.34064e-07
-5.65777e-06
1.24778e-05
0.000414629
-1.4312e-05
8.94431e-06
8.29876e-06
1.41866e-05
5.28458e-06
-2.09874e-05
-0.00010989
-0.000104433
-0.000106236
-0.000108093
8.53595e-06
0.000410272
9.85016e-06
1.49946e-05
9.58599e-06
1.54051e-05
-2.86146e-05
-0.000108141
-0.000105546
-0.000107572
-0.000106406
-0.000108388
-3.5635e-06
-3.65172e-06
1.82088e-06
7.54651e-06
0.000106234
0.000112275
-1.49128e-06
-9.28689e-06
1.1262e-05
1.40148e-06
-0.000114161
-9.50349e-06
1.30051e-05
0.00012281
-1.91352e-07
0.00011206
-9.88498e-06
-1.17654e-06
-0.000114316
1.2296e-05
3.73518e-07
-8.84598e-06
0.000121982
-6.80499e-08
1.19143e-05
-9.83548e-06
1.36757e-05
1.68336e-06
0.000108559
5.90733e-06
1.19727e-07
-5.92575e-06
-6.89662e-06
0.000404593
1.11483e-05
1.62338e-05
1.12703e-05
1.61818e-05
-3.42122e-05
-0.000107167
-0.000104483
-0.000107184
-0.000105001
-1.03609e-05
-1.40722e-06
1.45484e-05
0.000108118
0.000405925
1.07783e-05
1.58707e-05
1.06777e-05
1.58773e-05
-3.31002e-05
-0.00010699
-0.000105152
-0.00010719
-0.000105156
-8.71874e-06
1.01385e-05
-0.000114204
-1.11836e-06
-1.53514e-06
-2.00329e-06
7.49715e-06
-1.80168e-06
0.0001173
-8.74898e-06
0.000121975
1.11917e-05
1.30816e-06
-3.36569e-06
-3.11525e-06
1.40081e-06
6.10641e-06
-0.000109416
2.56852e-05
-0.00039111
-8.65001e-06
6.28655e-06
3.4624e-07
-3.71413e-07
1.1678e-05
-5.9647e-06
7.22299e-06
-2.52692e-05
-9.09646e-06
-9.6102e-05
-7.66052e-05
-7.854e-05
-9.67903e-05
9.83722e-06
0.000398639
-1.1683e-05
9.25974e-06
7.90309e-06
1.2532e-05
6.43494e-06
7.97747e-06
-9.49769e-05
-7.70368e-05
-7.80112e-05
-9.39488e-05
6.87543e-06
1.02171e-05
1.34906e-05
1.38223e-05
9.57323e-06
-1.04583e-05
5.90099e-06
2.39158e-05
-0.000387153
3.66552e-07
1.20615e-05
-6.17626e-06
-2.42015e-05
-7.23877e-06
-9.31874e-05
-7.60133e-05
-9.29206e-05
-7.61964e-05
0.000385911
-6.33376e-06
9.97052e-06
1.43384e-05
1.00214e-05
1.42771e-05
-9.31954e-05
-7.6689e-05
-7.63579e-05
-9.37302e-05
9.82416e-06
1.40128e-05
1.40537e-05
9.81531e-06
-2.39008e-05
-2.36238e-07
3.65726e-05
-7.9372e-06
-4.50039e-06
-0.000390147
0.000386019
-1.1692e-06
5.16206e-06
2.62737e-06
3.51592e-06
5.44895e-06
-0.000399751
-2.01366e-06
5.95496e-06
8.74343e-06
6.81329e-06
7.29558e-06
-2.59637e-07
-2.13111e-05
4.55983e-07
-2.78602e-06
0.000410399
-1.93052e-06
6.36038e-06
7.93381e-06
7.00112e-06
7.73464e-06
-1.87038e-06
6.58508e-06
8.63161e-06
6.71579e-06
8.21853e-06
-8.51566e-06
-2.43902e-06
-9.56358e-05
-9.79206e-05
-9.55711e-05
-9.48403e-05
0.000386613
-5.65323e-07
3.03144e-06
2.00273e-06
3.22339e-06
2.09655e-06
-1.82341e-06
1.49661e-05
5.3987e-06
0.000393258
-0.000396335
-2.40757e-05
3.68414e-05
-8.51047e-06
-4.49422e-06
-0.000387831
-9.257e-06
0.000390817
1.99637e-06
9.07554e-08
-1.04016e-06
2.59238e-06
-0.00038959
-1.87709e-06
0.000385922
4.9552e-06
2.54443e-06
5.23752e-06
3.39464e-06
-9.91569e-05
2.85609e-06
2.09103e-06
2.47739e-06
3.77882e-06
-9.75701e-05
-9.93761e-05
-9.80692e-05
8.02886e-06
4.3553e-06
7.20937e-06
-0.000399377
5.73299e-06
8.54531e-06
7.06031e-06
6.62888e-06
0.000392953
-0.000400011
7.36643e-06
-8.70103e-06
4.06225e-06
4.26244e-06
4.5847e-06
4.90314e-06
-2.14819e-05
-8.2238e-08
-2.77136e-06
-1.75038e-06
5.69398e-06
-4.14901e-06
0.000104039
-1.29993e-05
0.00040992
6.13528e-06
7.93779e-06
6.77137e-06
7.71916e-06
-1.03725e-05
2.93165e-06
4.32572e-06
2.69037e-06
4.161e-06
-2.05118e-06
-4.88358e-06
4.57732e-06
-0.000100165
6.41669e-06
8.47639e-06
8.10646e-06
6.54833e-06
5.74043e-06
2.29332e-06
-0.000391357
-2.53299e-06
-8.89629e-06
-9.6126e-05
-9.91491e-05
-9.66185e-05
-9.50436e-05
0.000388846
-5.62473e-06
3.13956e-06
3.1438e-07
3.01546e-08
3.30298e-06
0.000387026
-2.38421e-06
3.03853e-06
2.08712e-06
2.31307e-06
3.1911e-06
0.000103099
-1.70391e-05
1.25857e-05
-9.60802e-05
1.88461e-06
1.04723e-06
1.89591e-06
1.06333e-06
5.80813e-06
1.2714e-07
-1.0273e-08
-5.92466e-06
1.27953e-05
-0.000108833
0.000102141
-6.03942e-06
1.52246e-06
3.18453e-06
4.4396e-06
-1.56754e-06
9.98994e-05
1.04692e-05
3.50726e-06
5.86975e-06
6.01159e-06
3.49674e-06
-1.4276e-05
-0.000101682
1.04239e-07
-2.87789e-06
-2.44111e-06
-5.94542e-07
1.9119e-05
-1.24805e-06
1.1265e-06
-1.74475e-05
3.41786e-06
7.48155e-07
1.92205e-05
-8.49083e-07
-1.74917e-05
3.40796e-06
2.87814e-06
9.79834e-05
-3.7011e-06
-9.08637e-05
1.54227e-06
7.86362e-07
1.60255e-06
7.45326e-07
5.61066e-06
-1.05415e-07
1.1536e-07
-5.62038e-06
-9.7975e-05
-2.88722e-06
2.50424e-06
9.71467e-05
3.0711e-06
5.2531e-06
2.96655e-06
5.34614e-06
2.47076e-06
-9.11867e-05
1.61149e-06
7.41285e-07
1.54387e-06
8.12796e-07
9.73849e-05
-3.57339e-06
2.96591e-06
5.37398e-06
5.23817e-06
3.0656e-06
1.94274e-05
3.88007e-06
-1.77384e-05
3.56333e-06
-4.38735e-06
-4.00967e-06
2.50587e-05
5.15015e-06
3.4284e-06
-2.53256e-05
1.9143e-05
-5.65507e-07
-1.74343e-05
3.41726e-06
1.94932e-05
7.14201e-07
-1.78093e-05
3.4862e-06
-2.20903e-06
9.75797e-05
-9.07764e-05
1.61079e-06
7.60432e-07
1.55458e-06
8.22718e-07
5.39096e-06
6.86702e-08
-8.20076e-08
-5.37757e-06
-9.80733e-05
2.27018e-06
9.72461e-05
2.98941e-06
5.36743e-06
3.07082e-06
5.25267e-06
-9.12676e-05
1.56231e-06
8.01568e-07
1.60983e-06
7.73426e-07
9.68167e-05
3.06841e-06
5.25617e-06
5.32761e-06
2.98274e-06
-9.17881e-05
8.79082e-06
-1.85206e-06
2.61622e-07
-2.83029e-07
-5.58865e-06
1.10031e-05
2.08292e-06
9.21205e-05
-2.26846e-06
3.49973e-06
5.83509e-06
5.74373e-06
3.55843e-06
1.64728e-06
-8.78388e-06
-8.24522e-07
-1.77944e-06
-1.88519e-05
-1.41075e-05
-1.38656e-05
-1.91168e-05
3.53623e-06
5.74157e-06
5.81066e-06
3.51113e-06
-8.43938e-07
-1.89679e-05
-1.38942e-05
-1.39953e-05
-1.8885e-05
-1.98084e-06
1.91703e-05
-5.00178e-06
-1.74917e-05
3.3846e-06
-5.08442e-07
-6.83766e-07
1.95117e-05
-5.06871e-06
6.51029e-07
-1.78587e-05
3.44871e-06
9.80191e-05
-1.95929e-06
-9.12724e-05
1.64098e-06
8.48782e-07
1.5876e-06
9.11209e-07
5.63678e-06
5.7121e-08
-6.86649e-08
-5.6256e-06
1.99345e-06
-9.84982e-05
9.78182e-05
-2.18655e-06
3.15023e-06
5.51503e-06
5.41131e-06
3.221e-06
9.74142e-05
3.21415e-06
5.41935e-06
5.4766e-06
3.14227e-06
-2.18878e-06
-9.17886e-05
1.59746e-06
8.94541e-07
1.63999e-06
8.66412e-07
1.00137e-05
-9.23418e-05
-1.61192e-06
2.32392e-07
-2.55918e-07
1.15941e-05
-5.93555e-06
1.42709e-06
-9.98463e-06
-1.52551e-06
-1.89646e-05
-1.4344e-05
-1.41255e-05
-1.92083e-05
1.82417e-06
9.26544e-05
-1.96285e-06
3.84697e-06
6.06353e-06
5.98728e-06
3.88698e-06
-1.90683e-05
-1.41637e-05
-1.42367e-05
-1.90034e-05
3.87418e-06
5.99093e-06
6.04308e-06
3.85606e-06
-1.70421e-06
-9.46158e-05
9.26499e-06
-8.81989e-06
7.01768e-06
5.21341e-07
-3.72043e-07
-6.03749e-06
1.16974e-05
1.21016e-05
9.68351e-05
-1.00138e-05
2.399e-06
2.97213e-06
4.35611e-06
1.19036e-06
-1.44614e-06
-5.13388e-06
-2.20749e-06
-1.1335e-06
-1.82825e-05
-1.46717e-05
-1.31379e-05
-1.90766e-05
9.14857e-06
3.70611e-06
6.19476e-06
6.14447e-06
3.85931e-06
-2.9987e-06
1.29477e-06
-1.96059e-05
-1.44572e-05
-1.4602e-05
-1.95796e-05
-7.62083e-06
-9.23753e-05
2.26281e-06
8.78199e-06
-2.58782e-06
-3.8749e-07
3.81267e-07
-5.80173e-06
1.14205e-05
-2.59482e-06
9.20657e-05
3.53622e-06
5.73796e-06
5.82721e-06
3.50076e-06
-8.75837e-06
-2.00884e-06
-8.00397e-07
-1.90693e-05
-1.39393e-05
-1.89397e-05
-1.40884e-05
-3.09309e-06
3.49112e-06
5.84758e-06
5.7395e-06
3.55951e-06
-7.65831e-07
-2.19229e-06
-1.89237e-05
-1.42183e-05
-1.39299e-05
-1.92317e-05
0.00010401
-1.68021e-05
1.20032e-05
-9.65885e-05
1.95725e-06
1.17514e-06
1.96287e-06
1.2238e-06
6.15029e-06
5.9665e-08
5.53959e-08
-6.26576e-06
1.30611e-05
-0.000109288
0.000103142
-6.19981e-06
1.80095e-06
2.61564e-06
4.30208e-06
-1.14843e-06
0.000101801
9.74473e-06
3.7295e-06
6.03861e-06
6.21829e-06
3.71288e-06
-1.40706e-05
-0.000101861
2.79156e-07
-2.58834e-06
-2.22801e-06
-3.39194e-07
1.9158e-05
-1.17405e-06
-4.90095e-06
3.38679e-06
1.05513e-06
-1.75246e-05
1.92564e-05
-4.96889e-06
-7.83688e-07
-1.7562e-05
3.37466e-06
2.56668e-06
9.8373e-05
-3.3458e-06
-9.13904e-05
1.57709e-06
8.87539e-07
1.63283e-06
8.45238e-07
5.82006e-06
-8.35587e-08
9.40876e-08
-5.83092e-06
-9.83883e-05
-2.5243e-06
9.77137e-05
3.21711e-06
5.40707e-06
3.12757e-06
5.48594e-06
-9.17017e-05
1.64057e-06
8.35048e-07
1.57519e-06
9.08689e-07
9.79209e-05
-3.14534e-06
3.12897e-06
5.5134e-06
5.38949e-06
3.21694e-06
1.94208e-05
3.83454e-06
-4.69016e-06
3.55637e-06
-1.7802e-05
-4.31925e-06
-3.87533e-06
2.51022e-05
-4.33575e-06
5.06416e-06
3.53007e-06
-2.54851e-05
1.23753e-05
-9.64309e-05
-8.86225e-06
6.04961e-06
2.10608e-08
-4.57994e-08
1.25255e-05
-6.35184e-06
-4.7981e-07
-7.64593e-06
-2.29526e-06
-1.91252e-05
-1.5773e-05
-1.33603e-05
-2.0156e-05
1.15971e-05
9.88692e-05
-1.01197e-05
2.79293e-06
2.43639e-06
3.99466e-06
1.45475e-06
5.91567e-07
-2.04033e-05
-1.47521e-05
-1.50248e-05
-2.00767e-05
8.03567e-06
4.46146e-06
6.34677e-06
6.2525e-06
4.37993e-06
-8.01671e-06
1.94066e-06
9.90828e-06
-9.28739e-05
-2.20562e-06
-3.16234e-07
3.17345e-07
1.19185e-05
-6.1013e-06
-9.92453e-06
-1.69961e-06
-1.91589e-05
-1.41989e-05
-1.90486e-05
-1.43178e-05
9.26023e-05
-2.24755e-06
3.86372e-06
5.97352e-06
3.83716e-06
6.04453e-06
-1.80624e-06
-1.90248e-05
-1.44426e-05
-1.4178e-05
-1.93108e-05
-2.67035e-06
3.82742e-06
6.06189e-06
5.96875e-06
3.87573e-06
9.04295e-06
9.51345e-05
-3.61783e-06
-9.43907e-05
-9.82636e-05
-5.43966e-06
9.95777e-05
-1.83266e-06
1.76827e-06
-2.57545e-06
4.95468e-07
-3.23515e-07
-3.29016e-05
2.99649e-05
6.43626e-06
-3.17547e-06
6.8038e-07
-9.75595e-05
9.55123e-05
4.93098e-07
4.43674e-07
1.23385e-06
1.07616e-06
7.65999e-07
-9.42288e-05
-2.13071e-06
-3.82304e-06
-3.67032e-06
-1.95744e-06
9.62453e-05
-6.33226e-07
-0.000103715
1.60317e-06
2.47233e-06
1.71398e-06
2.85271e-06
-0.0001006
1.52632e-06
9.99361e-05
3.27569e-06
2.10598e-06
3.28724e-06
2.42039e-06
-3.15404e-07
2.03061e-05
-1.96183e-05
1.3826e-06
-1.755e-06
-2.93249e-06
0.000123132
-5.24453e-07
3.1888e-06
1.83188e-06
2.71402e-06
2.33781e-06
2.19224e-05
-2.91914e-06
3.6605e-07
-2.1763e-05
3.65655e-06
2.95993e-06
2.77242e-06
-5.21021e-07
0.000122876
2.95647e-06
2.17206e-06
2.10039e-06
2.81148e-06
4.72217e-06
-9.52292e-05
2.70964e-07
9.59549e-05
-5.91463e-06
-1.26253e-07
5.98356e-07
-7.26476e-07
3.17529e-07
3.39879e-06
-2.49152e-06
-6.80336e-07
-2.53217e-05
-2.40325e-05
-2.4524e-05
-2.54096e-05
-1.56223e-06
9.46828e-05
4.98153e-07
1.07449e-06
9.90136e-07
8.17647e-07
1.02683e-06
-2.81079e-07
8.91349e-06
-2.38342e-06
9.45316e-05
-9.41039e-05
-3.299e-05
3.00431e-05
5.81711e-06
-3.19293e-06
-9.7606e-05
-5.39276e-06
9.95296e-05
-1.36804e-06
6.33134e-07
-1.7129e-06
-2.01564e-07
-9.70352e-05
8.10125e-07
9.54155e-05
5.90993e-07
1.25381e-06
9.48438e-07
1.06609e-06
-9.39824e-05
-1.72661e-06
-3.35616e-06
-3.19777e-06
-1.53928e-06
-0.000103477
1.63976e-06
2.46282e-06
1.76136e-06
2.81767e-06
9.59342e-05
-0.000100298
2.59435e-06
9.9618e-05
-6.57273e-06
3.21178e-06
2.02081e-06
3.21254e-06
2.35009e-06
2.05895e-05
-1.99349e-05
7.706e-07
-1.74052e-06
-4.01841e-06
0.000123033
3.21538e-06
1.88034e-06
2.72026e-06
2.37813e-06
-5.39657e-06
3.57983e-06
2.70621e-06
2.19223e-05
-1.8149e-06
-2.79118e-06
6.30893e-07
-2.18223e-05
0.000122702
2.99425e-06
2.17482e-06
2.12054e-06
2.83651e-06
4.89401e-06
7.98704e-07
-9.56515e-05
2.47836e-06
-2.84405e-06
-2.57919e-05
-2.45709e-05
-2.57794e-05
-2.5632e-05
9.72506e-05
-5.94781e-06
-3.32748e-07
-2.11337e-07
-6.72947e-07
-3.74994e-07