/*--------------------------------*- C++ -*----------------------------------*\
| =========                 |                                                 |
| \\      /  F ield         | OpenFOAM: The Open Source CFD Toolbox           |
|  \\    /   O peration     | Version:  2012                                  |
|   \\  /    A nd           | Website:  www.openfoam.com                      |
|    \\/     M anipulation  |                                                 |
\*---------------------------------------------------------------------------*/
FoamFile
{
    version     2.0;
    format      ascii;
    class       pointVectorField;
    location    "0.105/fluid";
    object      pointMotionU;
}
// * * * * * * * * * * * * * * * * * * * * * * * * * * * * * * * * * * * * * //

dimensions      [0 1 -1 0 0 0 0];


internalField   nonuniform List<vector> 
19727
(
(6.27882e-05 -1.8269e-05 -1.78575e-06)
(6.65471e-05 -1.52426e-05 -6.40441e-06)
(0.000130011 -2.14733e-05 -9.53741e-06)
(0.000237885 -1.74376e-05 -4.06552e-05)
(0.000331852 5.25707e-06 -7.00987e-05)
(0.000401292 3.80563e-05 -8.69661e-05)
(0.000450411 7.27682e-05 -9.25292e-05)
(0.000484083 0.000101948 -9.04492e-05)
(0.000502576 0.000122353 -8.35944e-05)
(0.000500642 0.000133741 -7.3524e-05)
(0.000474604 0.000133862 -6.17589e-05)
(0.000424144 0.000122881 -4.93929e-05)
(0.000352206 0.000102642 -3.71365e-05)
(0.000259489 7.38222e-05 -2.50462e-05)
(0.000141823 3.77183e-05 -1.26467e-05)
(0 0 0)
(1.15425e-05 -1.88124e-06 -1.04675e-05)
(5.40357e-05 2.92257e-06 -3.5972e-06)
(0.000128115 -5.01121e-06 -1.3941e-05)
(0.000229484 -3.98675e-06 -4.32451e-05)
(0.000331275 1.16108e-05 -7.2191e-05)
(0.000418744 3.60733e-05 -9.11033e-05)
(0.000487977 6.27785e-05 -9.9398e-05)
(0.000539061 8.55885e-05 -9.9185e-05)
(0.000569521 0.000101293 -9.29384e-05)
(0.000573384 0.000109309 -8.26076e-05)
(0.000546449 0.000108803 -6.97861e-05)
(0.000489928 0.00010021 -5.59073e-05)
(0.000407682 8.45083e-05 -4.20035e-05)
(0.000301546 6.07374e-05 -2.83466e-05)
(0.000164067 3.01022e-05 -1.40695e-05)
(0 0 0)
(-3.49222e-05 1.05745e-05 -2.02141e-05)
(2.27173e-05 6.91559e-06 -1.09167e-05)
(0.000105687 3.18974e-06 -1.87831e-05)
(0.000207638 4.57655e-06 -4.32125e-05)
(0.000317159 1.22553e-05 -7.03183e-05)
(0.000419514 2.44551e-05 -9.06366e-05)
(0.000505958 3.81295e-05 -0.000101344)
(0.000572108 4.99829e-05 -0.000103125)
(0.000612283 5.80668e-05 -9.7965e-05)
(0.000620018 6.15194e-05 -8.77747e-05)
(0.000591929 6.04601e-05 -7.43529e-05)
(0.000531718 5.58001e-05 -5.96767e-05)
(0.00044302 4.75026e-05 -4.48022e-05)
(0.000327461 3.43809e-05 -3.00489e-05)
(0.000178551 1.67827e-05 -1.4865e-05)
(0 0 0)
(-5.20341e-05 0 -2.40282e-05)
(8.52873e-06 0 -1.5768e-05)
(9.46423e-05 0 -2.16065e-05)
(0.000198614 0 -4.28451e-05)
(0.000311192 0 -6.85438e-05)
(0.000418614 0 -8.91681e-05)
(0.000510917 0 -0.000100789)
(0.000582117 0 -0.000103441)
(0.000625913 0 -9.88145e-05)
(0.000634982 0 -8.87998e-05)
(0.000606458 0 -7.53415e-05)
(0.000544724 0 -6.04663e-05)
(0.00045467 0 -4.55156e-05)
(0.000336225 0 -3.05027e-05)
(0.000182456 0 -1.49223e-05)
(0 0 0)
(4.82522e-05 -1.33411e-05 -4.10939e-06)
(8.23131e-05 -1.36367e-05 -3.28646e-06)
(0.000193931 -2.93135e-05 -1.51931e-05)
(0.000338925 -3.56852e-05 -4.62836e-05)
(0.000451248 -2.38151e-05 -7.30357e-05)
(0.000527666 -3.52695e-08 -8.82442e-05)
(0.000575971 2.86479e-05 -9.33875e-05)
(0.000601129 5.55119e-05 -9.13308e-05)
(0.000604796 7.69533e-05 -8.43472e-05)
(0.000585841 9.15312e-05 -7.42549e-05)
(0.000542767 9.58906e-05 -6.21056e-05)
(0.000477644 9.04362e-05 -4.94359e-05)
(0.000392938 7.75547e-05 -3.70675e-05)
(0.000287385 5.67043e-05 -2.48867e-05)
(0.000155041 2.84741e-05 -1.232e-05)
(0 0 0)
(2.70402e-05 -7.4838e-06 -1.3944e-05)
(9.03507e-05 -9.83248e-06 -8.98043e-06)
(0.000200959 -2.04188e-05 -2.15494e-05)
(0.000336306 -2.41553e-05 -4.91856e-05)
(0.000458652 -1.5193e-05 -7.54907e-05)
(0.000554894 3.31346e-06 -9.29311e-05)
(0.000622327 2.62329e-05 -0.000100426)
(0.000663916 4.78367e-05 -9.99833e-05)
(0.00067988 6.41917e-05 -9.37031e-05)
(0.000666436 7.44487e-05 -8.31224e-05)
(0.000623218 7.76686e-05 -7.02481e-05)
(0.000550322 7.38242e-05 -5.58604e-05)
(0.000454314 6.3946e-05 -4.19381e-05)
(0.00033259 4.67605e-05 -2.80757e-05)
(0.000179524 2.31192e-05 -1.38846e-05)
(0 0 0)
(8.73898e-06 8.735e-07 -2.41968e-05)
(7.86717e-05 -4.5498e-06 -1.89371e-05)
(0.00019027 -9.42039e-06 -2.76154e-05)
(0.00032143 -9.98415e-06 -4.96996e-05)
(0.000449887 -4.97862e-06 -7.41562e-05)
(0.000559998 4.77321e-06 -9.27537e-05)
(0.000643664 1.7136e-05 -0.000102484)
(0.000699651 2.8844e-05 -0.000103837)
(0.000725448 3.74301e-05 -9.85791e-05)
(0.00071692 4.207e-05 -8.82491e-05)
(0.000672542 4.33916e-05 -7.46807e-05)
(0.000596855 4.12921e-05 -5.97097e-05)
(0.000493307 3.59653e-05 -4.48169e-05)
(0.000361425 2.64151e-05 -3.00471e-05)
(0.000194683 1.29013e-05 -1.48413e-05)
(0 0 0)
(3.14465e-08 0 -2.83234e-05)
(7.23553e-05 0 -2.37549e-05)
(0.000183802 0 -3.0221e-05)
(0.000313566 0 -4.92911e-05)
(0.000443729 0 -7.24482e-05)
(0.000558151 0 -9.1242e-05)
(0.000647885 0 -0.000101821)
(0.000709433 0 -0.000104023)
(0.000738621 0 -9.92446e-05)
(0.000731824 0 -8.91706e-05)
(0.00068809 0 -7.56039e-05)
(0.00061195 0 -6.06136e-05)
(0.000506759 0 -4.56416e-05)
(0.000370087 0 -3.04989e-05)
(0.000199002 0 -1.50566e-05)
(0 0 0)
(8.4056e-05 -1.75006e-05 -1.30756e-05)
(0.000150543 -2.89544e-05 -1.14187e-05)
(0.000274395 -4.14232e-05 -2.38269e-05)
(0.000416536 -4.73602e-05 -4.56727e-05)
(0.000532384 -4.18132e-05 -6.38664e-05)
(0.000615362 -2.61766e-05 -7.4453e-05)
(0.000666101 -3.66346e-06 -7.76291e-05)
(0.000688385 1.98039e-05 -7.53065e-05)
(0.000683928 3.96318e-05 -6.91214e-05)
(0.000653973 5.44472e-05 -6.05019e-05)
(0.000600426 6.19786e-05 -5.04787e-05)
(0.000525827 6.17724e-05 -4.00087e-05)
(0.000430665 5.58262e-05 -2.99669e-05)
(0.000313333 4.199e-05 -1.99449e-05)
(0.000168728 2.11505e-05 -9.85176e-06)
(0 0 0)
(9.03199e-05 -1.33024e-05 -1.92643e-05)
(0.000161135 -2.42985e-05 -1.83572e-05)
(0.000283484 -3.40796e-05 -2.89579e-05)
(0.000424057 -3.82304e-05 -4.79208e-05)
(0.00055203 -3.36119e-05 -6.59537e-05)
(0.000654934 -2.10547e-05 -7.80424e-05)
(0.000725227 -2.69244e-06 -8.29507e-05)
(0.000762407 1.71112e-05 -8.18666e-05)
(0.000768579 3.34369e-05 -7.65315e-05)
(0.000743231 4.49265e-05 -6.78502e-05)
(0.000687362 5.11223e-05 -5.68966e-05)
(0.000604722 5.14434e-05 -4.51622e-05)
(0.000496542 4.67439e-05 -3.38487e-05)
(0.000361589 3.52983e-05 -2.26885e-05)
(0.000193351 1.72895e-05 -1.10415e-05)
(0 0 0)
(8.1043e-05 -7.17473e-06 -2.54116e-05)
(0.000155347 -1.42667e-05 -2.49845e-05)
(0.000276009 -1.94116e-05 -3.24308e-05)
(0.000416241 -2.11825e-05 -4.77927e-05)
(0.000552474 -1.83586e-05 -6.4896e-05)
(0.000667412 -1.11071e-05 -7.79356e-05)
(0.000752429 -7.0704e-07 -8.45874e-05)
(0.000803385 1.04882e-05 -8.50128e-05)
(0.000819063 1.96002e-05 -8.04156e-05)
(0.000797771 2.56517e-05 -7.17681e-05)
(0.000742428 2.87403e-05 -6.06213e-05)
(0.000655033 2.90827e-05 -4.84021e-05)
(0.000538712 2.65255e-05 -3.64714e-05)
(0.000391632 1.9994e-05 -2.43276e-05)
(0.000207816 9.52925e-06 -1.17727e-05)
(0 0 0)
(7.31813e-05 0 -2.76967e-05)
(0.000149853 0 -2.74853e-05)
(0.000270128 0 -3.33955e-05)
(0.000410676 0 -4.69745e-05)
(0.000548589 0 -6.34113e-05)
(0.000667269 0 -7.68143e-05)
(0.000757514 0 -8.42265e-05)
(0.000814373 0 -8.534e-05)
(0.00083414 0 -8.11454e-05)
(0.000814852 0 -7.26913e-05)
(0.000758671 0 -6.14006e-05)
(0.000670957 0 -4.91477e-05)
(0.000552331 0 -3.69724e-05)
(0.000399498 0 -2.45716e-05)
(0.000212542 0 -1.20389e-05)
(0 0 0)
(0.000183034 -2.70206e-05 -1.35754e-05)
(0.000246002 -4.07505e-05 -1.52258e-05)
(0.000346753 -4.92916e-05 -2.16801e-05)
(0.000464219 -5.30803e-05 -3.12788e-05)
(0.00057283 -5.02559e-05 -3.93895e-05)
(0.000657949 -3.95987e-05 -4.39073e-05)
(0.000712289 -2.16256e-05 -4.49725e-05)
(0.000735233 -1.09149e-06 -4.29639e-05)
(0.000727784 1.6748e-05 -3.8644e-05)
(0.000693115 3.01809e-05 -3.31942e-05)
(0.000635142 3.90286e-05 -2.75914e-05)
(0.0005556 4.31376e-05 -2.20982e-05)
(0.000454586 4.19193e-05 -1.64891e-05)
(0.00033071 3.30892e-05 -1.09379e-05)
(0.000177816 1.69362e-05 -5.33375e-06)
(0 0 0)
(0.000179476 -2.24359e-05 -1.63766e-05)
(0.000247075 -3.44034e-05 -1.80981e-05)
(0.000354964 -4.24658e-05 -2.35742e-05)
(0.000481752 -4.5886e-05 -3.21244e-05)
(0.000605167 -4.32811e-05 -4.02632e-05)
(0.000708603 -3.41476e-05 -4.55816e-05)
(0.000780968 -1.8869e-05 -4.74155e-05)
(0.000817765 -9.56004e-07 -4.60101e-05)
(0.000819569 1.46191e-05 -4.22594e-05)
(0.000788836 2.61152e-05 -3.71203e-05)
(0.000727023 3.38025e-05 -3.11002e-05)
(0.000638462 3.71595e-05 -2.49872e-05)
(0.000522444 3.57985e-05 -1.86676e-05)
(0.00037954 2.80377e-05 -1.24183e-05)
(0.000203635 1.41692e-05 -6.07553e-06)
(0 0 0)
(0.000158621 -1.36128e-05 -1.81161e-05)
(0.000231485 -2.07452e-05 -1.96828e-05)
(0.000345301 -2.57978e-05 -2.38392e-05)
(0.000479392 -2.77594e-05 -3.10883e-05)
(0.00061445 -2.59616e-05 -3.90781e-05)
(0.000730036 -2.02603e-05 -4.50501e-05)
(0.000815907 -1.12352e-05 -4.77887e-05)
(0.000865084 -7.34952e-07 -4.73023e-05)
(0.000875249 8.53619e-06 -4.43567e-05)
(0.000846773 1.54135e-05 -3.95853e-05)
(0.000784755 1.96459e-05 -3.33692e-05)
(0.000692032 2.12531e-05 -2.67361e-05)
(0.000567021 2.04086e-05 -2.00988e-05)
(0.000409814 1.59573e-05 -1.33815e-05)
(0.000216299 7.76337e-06 -6.38135e-06)
(0 0 0)
(0.00014681 0 -1.83772e-05)
(0.000222146 0 -1.98176e-05)
(0.000337008 0 -2.3583e-05)
(0.000475373 0 -3.03e-05)
(0.000613613 0 -3.82826e-05)
(0.000733036 0 -4.47219e-05)
(0.000823412 0 -4.80703e-05)
(0.000877499 0 -4.812e-05)
(0.000890971 0 -4.55316e-05)
(0.000863832 0 -4.07328e-05)
(0.000801625 0 -3.42608e-05)
(0.000709069 0 -2.74814e-05)
(0.000580286 0 -2.05858e-05)
(0.000417015 0 -1.35999e-05)
(0.000219484 0 -6.48274e-06)
(0 0 0)
(0.000228911 -3.24805e-05 0)
(0.000287755 -4.42716e-05 0)
(0.000374175 -5.11399e-05 0)
(0.000478636 -5.40039e-05 0)
(0.000581723 -5.18058e-05 0)
(0.000666206 -4.28281e-05 0)
(0.000721988 -2.68074e-05 0)
(0.000745884 -7.70488e-06 0)
(0.000738503 9.22538e-06 0)
(0.000703493 2.21531e-05 0)
(0.00064499 3.11664e-05 0)
(0.000563226 3.64841e-05 0)
(0.00046182 3.67793e-05 0)
(0.000335705 2.9869e-05 0)
(0.000181173 1.56723e-05 0)
(0 0 0)
(0.000219292 -2.68016e-05 0)
(0.000285146 -3.77137e-05 0)
(0.000383441 -4.47838e-05 0)
(0.000500976 -4.74676e-05 0)
(0.000619362 -4.5376e-05 0)
(0.000722021 -3.74834e-05 0)
(0.000794685 -2.35333e-05 0)
(0.000831551 -6.54507e-06 0)
(0.000832359 8.59079e-06 0)
(0.000801153 1.98369e-05 0)
(0.000737392 2.78347e-05 0)
(0.000646734 3.1969e-05 0)
(0.000529055 3.17079e-05 0)
(0.000382794 2.52807e-05 0)
(0.000205141 1.30986e-05 0)
(0 0 0)
(0.00019366 -1.62396e-05 0)
(0.000265229 -2.28713e-05 0)
(0.000371993 -2.74513e-05 0)
(0.00050122 -2.92532e-05 0)
(0.000632879 -2.76432e-05 0)
(0.000747677 -2.25518e-05 0)
(0.000833023 -1.41138e-05 0)
(0.000881245 -3.95526e-06 0)
(0.000889498 5.24717e-06 0)
(0.000858854 1.22042e-05 0)
(0.000795638 1.65218e-05 0)
(0.000701036 1.84703e-05 0)
(0.000573646 1.80968e-05 0)
(0.000412676 1.43108e-05 0)
(0.000218501 7.23843e-06 0)
(0 0 0)
(0.000180219 0 0)
(0.000254729 0 0)
(0.000363298 0 0)
(0.000496855 0 0)
(0.000633516 0 0)
(0.000752121 0 0)
(0.000841785 0 0)
(0.000894601 0 0)
(0.00090597 0 0)
(0.00087646 0 0)
(0.000813189 0 0)
(0.000718086 0 0)
(0.000586966 0 0)
(0.00042133 0 0)
(0.000222612 0 0)
(0 0 0)
(7.53763e-05 -3.84295e-05 -1.40512e-05)
(6.70517e-05 -2.18123e-05 -9.23276e-06)
(6.11475e-05 -1.8478e-05 -8.50146e-06)
(6.05532e-05 -1.48403e-05 -1.70899e-06)
(7.31584e-05 -1.36858e-05 -4.72755e-06)
(5.6715e-05 -1.1884e-05 -2.78566e-06)
(7.63057e-05 -1.30009e-05 -2.55069e-06)
(5.97113e-05 -1.19739e-05 -4.21202e-06)
(6.42751e-05 -3.88682e-05 -1.40838e-05)
(7.65938e-05 -1.51727e-05 -1.93088e-06)
(7.01324e-05 -1.58503e-05 -5.90209e-06)
(6.20177e-05 -1.39043e-05 -6.28638e-06)
(6.05247e-05 -1.15605e-05 -4.29846e-06)
(9.98703e-05 -1.88239e-05 -3.55632e-06)
(5.26467e-05 -8.99817e-06 -5.05006e-06)
(6.99823e-05 -1.5749e-05 -4.72687e-06)
(6.0775e-05 -2.36574e-05 -1.18726e-05)
(6.93447e-05 -2.16345e-05 -6.9177e-06)
(6.95186e-05 -2.17616e-05 -1.05451e-05)
(6.36325e-05 -1.2531e-05 -4.80263e-06)
(6.37951e-05 -1.31614e-05 -4.64467e-06)
(0.000125664 -2.37182e-05 -8.45714e-06)
(3.93791e-05 -1.21893e-05 -5.28046e-06)
(5.76304e-05 -1.69407e-05 -1.63181e-06)
(6.50852e-05 -1.64905e-05 -1.29021e-06)
(6.14619e-05 -1.93377e-05 -5.72525e-06)
(6.42478e-05 -1.72306e-05 -1.78684e-06)
(8.77816e-05 -1.70137e-05 -3.91823e-06)
(6.36931e-05 -5.33126e-06 -3.75241e-06)
(6.10756e-05 -1.48957e-05 -6.89737e-06)
(6.74511e-05 -2.03912e-05 -8.42016e-06)
(6.30145e-05 -1.68931e-05 -8.48332e-06)
(7.05733e-05 -1.47266e-05 -5.74223e-06)
(0.000159989 -2.48195e-05 -1.19224e-05)
(3.11368e-05 1.52366e-06 -6.23082e-06)
(1.69794e-05 -5.20111e-06 -1.17039e-05)
(7.05234e-05 -3.59283e-06 -5.89358e-06)
(0.000186408 -2.89369e-05 -1.31567e-05)
(3.74609e-05 -1.20869e-05 -8.3763e-06)
(5.27505e-05 -1.46279e-05 -8.67239e-06)
(5.36126e-05 -1.34017e-05 -2.49163e-06)
(5.43705e-05 -1.26169e-05 -3.03384e-06)
(5.33056e-05 -1.24323e-05 -4.27176e-06)
(0.000128762 -2.08065e-05 -6.23413e-06)
(8.95147e-05 -1.24077e-05 -5.42415e-06)
(0.000108735 -2.03042e-05 -6.31094e-06)
(7.61268e-05 -1.29144e-05 -3.61292e-06)
(7.86942e-05 -1.37526e-05 -2.91543e-06)
(6.82016e-05 -1.21689e-05 -3.62143e-06)
(5.31148e-05 -7.73604e-06 -1.00462e-05)
(7.97204e-05 -1.77983e-05 -1.09573e-05)
(0.000142542 -2.81164e-05 -8.99671e-06)
(0.000110419 -2.29086e-05 -1.09112e-05)
(6.99526e-05 -3.88735e-05 -1.3903e-05)
(7.6536e-05 -2.56549e-05 -7.93499e-06)
(6.67275e-05 -1.68615e-05 -8.66951e-06)
(6.80396e-05 -1.91657e-05 -9.13902e-06)
(6.33984e-05 -1.28672e-05 -6.68192e-06)
(6.1341e-05 -2.13521e-05 -9.87107e-06)
(6.97174e-05 -3.06427e-05 -1.3767e-05)
(7.04023e-05 -1.98029e-05 -8.11243e-06)
(5.66748e-05 -1.80386e-05 -8.70009e-06)
(6.39833e-05 -2.75091e-05 -1.14107e-05)
(6.33237e-05 -1.73236e-05 -7.83436e-06)
(7.01589e-05 -1.25427e-05 -1.20805e-06)
(6.10181e-05 -1.45432e-05 -4.69217e-06)
(7.17374e-05 -1.58197e-05 -5.69846e-06)
(6.58698e-05 -1.37138e-05 -6.03327e-06)
(6.83688e-05 -1.14639e-05 -1.84476e-06)
(5.87155e-05 -1.18041e-05 -4.16739e-06)
(7.0657e-05 -1.31131e-05 -3.57132e-06)
(6.4769e-05 -1.16808e-05 -3.28552e-06)
(6.036e-05 -1.21024e-05 -4.87984e-06)
(6.07506e-05 -1.22336e-05 -4.30912e-06)
(8.35942e-05 -1.96299e-05 -4.03362e-06)
(6.18195e-05 -2.01145e-05 -8.95276e-06)
(4.98645e-05 -8.13225e-06 -5.35594e-06)
(5.68705e-05 -1.83168e-05 -5.68854e-06)
(5.82628e-05 -1.66332e-05 -8.9029e-06)
(0.000154083 -2.55422e-05 -1.04349e-05)
(0.000105603 -1.79467e-05 -4.76983e-06)
(0.000120529 -1.98877e-05 -4.60296e-06)
(7.1037e-05 -1.8779e-05 -7.52276e-06)
(7.29759e-05 -1.37173e-05 -3.72706e-06)
(3.91432e-05 -1.23163e-05 -5.99205e-06)
(7.52733e-05 -8.84113e-06 -4.2101e-06)
(4.00568e-05 -3.42926e-06 -7.74128e-06)
(5.81761e-05 -1.08816e-05 -6.05823e-06)
(6.33499e-05 -1.8113e-05 -5.44358e-06)
(6.57288e-05 -1.57909e-05 -7.64103e-06)
(5.6742e-05 -1.23353e-05 -4.18429e-06)
(6.5482e-05 -1.20978e-05 -4.32457e-06)
(5.23367e-05 -1.46165e-05 -6.82133e-06)
(0.000102055 -1.92296e-05 -4.46924e-06)
(7.43001e-05 -1.62808e-05 -6.42536e-06)
(0.000104388 -2.25142e-05 -8.71965e-06)
(5.73914e-05 -1.24026e-05 -4.11742e-06)
(6.62933e-05 -1.23969e-05 -3.49073e-06)
(6.31396e-05 -2.90532e-05 -1.41506e-05)
(5.80593e-05 -2.63713e-05 -1.15245e-05)
(6.4637e-05 -2.20624e-05 -6.78293e-06)
(6.65315e-05 -2.45941e-05 -1.15457e-05)
(6.97236e-05 -1.6185e-05 -1.45471e-06)
(6.31847e-05 -1.17256e-05 -1.57159e-06)
(7.37476e-05 -2.77768e-05 -1.28045e-05)
(6.84625e-05 -2.5935e-05 -1.10211e-05)
(7.04241e-05 -1.50957e-05 -6.25657e-06)
(6.70559e-05 -1.67099e-05 -7.84338e-06)
(6.8917e-05 -1.39871e-05 -5.97355e-06)
(6.20694e-05 -1.22329e-05 -4.76678e-06)
(6.30959e-05 -1.32965e-05 -5.93033e-06)
(6.51079e-05 -2.69511e-05 -9.3817e-06)
(6.40366e-05 -1.90879e-05 -5.01954e-06)
(5.96855e-05 -2.86338e-05 -9.67706e-06)
(7.03213e-05 -1.91363e-05 -4.78914e-06)
(5.7594e-05 -1.80762e-05 -5.25144e-06)
(5.40128e-05 -2.78391e-05 -9.93644e-06)
(6.45278e-05 -3.07841e-05 -1.41544e-05)
(6.46443e-05 -1.84349e-05 -4.41289e-06)
(5.73204e-05 -2.74667e-05 -9.43525e-06)
(6.65877e-05 -3.2673e-05 -1.4581e-05)
(7.08025e-05 -2.34376e-05 -1.1697e-05)
(7.09067e-05 -3.19337e-05 -1.37711e-05)
(6.83644e-05 -2.73992e-05 -9.54716e-06)
(7.10587e-05 -1.94317e-05 -4.59503e-06)
(6.30049e-05 -2.83648e-05 -9.49862e-06)
(7.70937e-05 -1.94769e-05 -4.77188e-06)
(7.40235e-05 -2.5707e-05 -1.26951e-05)
(7.3045e-05 -3.33224e-05 -1.43925e-05)
(6.92057e-05 -1.34101e-05 -8.16725e-06)
(7.10613e-05 -1.29212e-05 -4.44934e-06)
(6.00324e-05 -1.16001e-05 -6.28416e-06)
(7.24891e-05 -1.60212e-05 -8.55827e-06)
(7.30407e-05 -1.35057e-05 -4.16323e-06)
(6.3719e-05 -1.51759e-05 -7.30122e-06)
(7.31106e-05 -3.84561e-05 -1.38791e-05)
(6.88943e-05 -2.00121e-05 -1.04854e-05)
(7.65269e-05 -3.17597e-05 -1.10861e-05)
(6.95923e-05 -1.9398e-05 -1.07222e-05)
(7.13701e-05 -2.36641e-05 -1.11052e-05)
(6.73859e-05 -1.61665e-05 -9.15372e-06)
(6.60251e-05 -1.37521e-05 -1.46241e-06)
(6.1027e-05 -3.83076e-05 -1.41624e-05)
(6.67724e-05 -3.89433e-05 -1.39656e-05)
(6.33954e-05 -3.30872e-05 -1.3122e-05)
(7.46816e-05 -3.91155e-05 -1.633e-05)
(6.52058e-05 -3.34894e-05 -1.32112e-05)
(7.65535e-05 -2.03e-05 -4.96457e-06)
(8.21252e-05 -1.41703e-05 -1.77076e-06)
(7.39355e-05 -1.28683e-05 -1.82768e-06)
(6.69249e-05 -2.45159e-05 -7.72057e-06)
(6.18045e-05 -2.16899e-05 -6.64926e-06)
(6.29438e-05 -2.88843e-05 -1.38479e-05)
(6.07016e-05 -2.65515e-05 -1.29857e-05)
(6.39825e-05 -2.49444e-05 -1.19592e-05)
(7.0735e-05 -2.52047e-05 -1.18273e-05)
(7.23369e-05 -2.4879e-05 -7.63296e-06)
(6.7343e-05 -2.22609e-05 -6.92709e-06)
(7.10362e-05 -1.85252e-05 -4.23688e-06)
(6.72022e-05 -2.4393e-05 -9.17422e-06)
(7.05541e-05 -1.95367e-05 -6.72247e-06)
(6.92147e-05 -2.51085e-05 -1.16075e-05)
(7.33427e-05 -2.71517e-05 -1.26814e-05)
(7.06966e-05 -2.49062e-05 -1.20415e-05)
(6.94321e-05 -1.96342e-05 -9.79197e-06)
(6.63866e-05 -1.24106e-05 -5.6887e-06)
(6.02351e-05 -1.0947e-05 -4.28601e-06)
(6.38221e-05 -1.22956e-05 -3.30568e-06)
(6.80903e-05 -1.27721e-05 -5.56053e-06)
(6.88157e-05 -1.39609e-05 -5.77499e-06)
(6.44375e-05 -1.30594e-05 -6.10594e-06)
(6.44409e-05 -1.462e-05 -6.08303e-06)
(6.28748e-05 -1.35637e-05 -5.06952e-06)
(6.23812e-05 -1.36376e-05 -5.54487e-06)
(6.21057e-05 -1.59354e-05 -1.1638e-06)
(6.61783e-05 -1.87862e-05 -4.11562e-06)
(6.73369e-05 -1.61143e-05 -1.39496e-06)
(6.8994e-05 -3.20848e-05 -1.27308e-05)
(8.07804e-05 -3.69148e-05 -1.58384e-05)
(7.09757e-05 -3.24429e-05 -1.30259e-05)
(7.60773e-05 -1.88584e-05 -7.74679e-06)
(8.07565e-05 -1.93818e-05 -7.88541e-06)
(7.5632e-05 -1.89885e-05 -7.55239e-06)
(7.25815e-05 -2.31189e-05 -1.16683e-05)
(6.44387e-05 -1.51135e-05 -7.92553e-06)
(6.78562e-05 -1.82176e-05 -9.01433e-06)
(6.22893e-05 -1.33954e-05 -6.33863e-06)
(6.92402e-05 -2.38731e-05 -1.04982e-05)
(6.95008e-05 -1.81948e-05 -8.40029e-06)
(6.73108e-05 -1.80187e-05 -9.08101e-06)
(6.61136e-05 -1.51256e-05 -7.59572e-06)
(6.16976e-05 -1.11832e-05 -6.27531e-06)
(6.80142e-05 -1.40587e-05 -7.41091e-06)
(6.09715e-05 -1.23384e-05 -5.84073e-06)
(6.47436e-05 -1.43241e-05 -6.91858e-06)
(6.06589e-05 -2.42937e-05 -7.96519e-06)
(6.6182e-05 -2.44729e-05 -7.4645e-06)
(7.20888e-05 -1.45234e-05 -1.65954e-06)
(6.68324e-05 -3.0722e-05 -1.42523e-05)
(6.73391e-05 -2.80875e-05 -1.29996e-05)
(6.94979e-05 -3.04846e-05 -1.3592e-05)
(7.31343e-05 -3.15875e-05 -1.38835e-05)
(6.10353e-05 -2.74089e-05 -1.14774e-05)
(6.26268e-05 -2.52238e-05 -9.23711e-06)
(6.69083e-05 -2.78618e-05 -1.28073e-05)
(6.66291e-05 -2.77538e-05 -1.13541e-05)
(7.0981e-05 -1.50442e-05 -1.42474e-06)
(6.66716e-05 -1.13765e-05 -1.16906e-06)
(7.06107e-05 -1.39227e-05 -3.80847e-06)
(6.68171e-05 -1.08912e-05 -1.95505e-06)
(6.80799e-05 -1.1478e-05 -1.55013e-06)
(6.96388e-05 -1.34576e-05 -4.14951e-06)
(6.33049e-05 -1.85193e-05 -4.0067e-06)
(6.89181e-05 -1.90532e-05 -4.24165e-06)
(6.24373e-05 -2.82794e-05 -9.51462e-06)
(7.00242e-05 -2.40022e-05 -7.59363e-06)
(7.05825e-05 -2.86191e-05 -1.21944e-05)
(7.16753e-05 -2.20886e-05 -9.58226e-06)
(6.38389e-05 -2.46903e-05 -7.83469e-06)
(6.72197e-05 -1.93843e-05 -4.90956e-06)
(6.08195e-05 -1.87726e-05 -5.15202e-06)
(5.67927e-05 -2.83721e-05 -9.77648e-06)
(6.64617e-05 -3.32245e-05 -1.29734e-05)
(7.5132e-05 -1.68045e-05 -4.84141e-06)
(6.28826e-05 -1.31191e-05 -1.37658e-06)
(5.75081e-05 -2.33938e-05 -8.04363e-06)
(6.01773e-05 -3.24686e-05 -1.32273e-05)
(6.42287e-05 -2.73861e-05 -1.33181e-05)
(7.08157e-05 -3.80172e-05 -1.63798e-05)
(6.80935e-05 -3.20632e-05 -1.40584e-05)
(6.30183e-05 -2.3917e-05 -7.38168e-06)
(6.79122e-05 -1.90716e-05 -4.50283e-06)
(5.98025e-05 -2.4854e-05 -9.20577e-06)
(6.1988e-05 -3.28941e-05 -1.32248e-05)
(6.01574e-05 -2.81591e-05 -9.45548e-06)
(6.63031e-05 -2.99378e-05 -1.37734e-05)
(6.39797e-05 -2.77008e-05 -1.29783e-05)
(7.01227e-05 -3.38136e-05 -1.45667e-05)
(6.90674e-05 -1.4196e-05 -1.56195e-06)
(7.5099e-05 -1.46683e-05 -1.74494e-06)
(7.14046e-05 -1.06448e-05 -1.95977e-06)
(7.26147e-05 -1.11196e-05 -1.4163e-06)
(7.26872e-05 -2.96635e-05 -1.32387e-05)
(6.90238e-05 -2.05145e-05 -1.04092e-05)
(8.04815e-05 -3.1286e-05 -1.4682e-05)
(6.52584e-05 -1.61502e-05 -9.06406e-06)
(7.00217e-05 -2.8346e-05 -1.27702e-05)
(7.81781e-05 -3.93214e-05 -1.6179e-05)
(6.57436e-05 -2.82946e-05 -9.52526e-06)
(7.53518e-05 -2.43626e-05 -7.71896e-06)
(6.86868e-05 -2.2777e-05 -8.91521e-06)
(7.23834e-05 -3.01079e-05 -1.25703e-05)
(7.50049e-05 -2.35217e-05 -9.90362e-06)
(6.93296e-05 -2.49062e-05 -7.56245e-06)
(7.41558e-05 -1.96632e-05 -4.70442e-06)
(6.52153e-05 -2.54746e-05 -9.26483e-06)
(7.22766e-05 -1.73848e-05 -4.16192e-06)
(6.82802e-05 -3.35376e-05 -1.31498e-05)
(8.0167e-05 -1.69658e-05 -4.74957e-06)
(7.5098e-05 -3.10138e-05 -1.39687e-05)
(7.21974e-05 -2.30308e-05 -1.14536e-05)
(7.02926e-05 -2.1894e-05 -1.10633e-05)
(6.89164e-05 -1.98628e-05 -1.01576e-05)
(7.23283e-05 -3.04951e-05 -1.34866e-05)
(6.96662e-05 -2.79105e-05 -1.27461e-05)
(7.22063e-05 -1.43208e-05 -6.86979e-06)
(6.51497e-05 -1.19767e-05 -6.78315e-06)
(6.43711e-05 -1.28726e-05 -7.91269e-06)
(7.42282e-05 -1.93071e-05 -9.55956e-06)
(6.70317e-05 -1.21697e-05 -4.02091e-06)
(7.46162e-05 -1.66728e-05 -4.71023e-06)
(6.05975e-05 -1.18419e-05 -5.67284e-06)
(5.93491e-05 -1.08399e-05 -5.23175e-06)
(6.25797e-05 -1.3692e-05 -7.379e-06)
(7.55301e-05 -1.54089e-05 -6.97981e-06)
(6.89488e-05 -1.40949e-05 -7.4435e-06)
(6.79908e-05 -1.45334e-05 -7.14808e-06)
(6.7713e-05 -1.6733e-05 -8.64172e-06)
(6.71352e-05 -1.24698e-05 -3.45595e-06)
(6.87401e-05 -1.31582e-05 -3.82345e-06)
(6.37893e-05 -1.48851e-05 -6.63991e-06)
(6.43482e-05 -1.52047e-05 -7.05424e-06)
(6.24479e-05 -1.39061e-05 -6.06452e-06)
(7.22524e-05 -3.28729e-05 -1.18452e-05)
(6.28772e-05 -3.4026e-05 -1.20389e-05)
(5.97202e-05 -3.35849e-05 -1.21527e-05)
(7.04358e-05 -3.80279e-05 -1.59745e-05)
(6.21243e-05 -3.35671e-05 -1.19561e-05)
(7.12639e-05 -3.87455e-05 -1.61171e-05)
(7.62464e-05 -2.59534e-05 -1.33184e-05)
(7.41043e-05 -3.87174e-05 -1.58831e-05)
(7.4154e-05 -3.33379e-05 -1.20365e-05)
(6.5258e-05 -3.40053e-05 -1.19437e-05)
(7.73637e-05 -2.83868e-05 -1.37635e-05)
(7.4876e-05 -3.92651e-05 -1.60461e-05)
(7.44881e-05 -2.07278e-05 -1.09546e-05)
(7.51868e-05 -1.50652e-05 -3.46898e-06)
(6.3996e-05 -1.41146e-05 -8.70218e-06)
(7.60396e-05 -2.32292e-05 -1.12147e-05)
(7.77353e-05 -1.50718e-05 -3.26888e-06)
(6.6748e-05 -1.77866e-05 -9.47075e-06)
(6.90621e-05 -3.38811e-05 -1.18557e-05)
(7.33824e-05 -2.84626e-05 -9.21258e-06)
(6.92147e-05 -2.86062e-05 -9.15795e-06)
(6.2309e-05 -2.27277e-05 -6.62566e-06)
(6.5525e-05 -2.30602e-05 -6.49379e-06)
(6.59969e-05 -3.41546e-05 -1.19389e-05)
(6.27956e-05 -2.83648e-05 -9.37089e-06)
(6.59972e-05 -2.86272e-05 -9.25051e-06)
(7.20126e-05 -2.30568e-05 -6.31648e-06)
(6.87435e-05 -2.31599e-05 -6.38661e-06)
(5.90745e-05 -2.21691e-05 -6.76333e-06)
(5.95774e-05 -2.78406e-05 -9.50073e-06)
(6.54234e-05 -2.209e-05 -6.12113e-06)
(6.42686e-05 -2.77892e-05 -9.05855e-06)
(7.96458e-05 -3.53576e-05 -1.53109e-05)
(7.74168e-05 -3.83397e-05 -1.57238e-05)
(7.13288e-05 -3.3927e-05 -1.19751e-05)
(7.77969e-05 -2.84584e-05 -9.47157e-06)
(7.37164e-05 -2.85579e-05 -9.27141e-06)
(6.86279e-05 -2.26416e-05 -6.20126e-06)
(7.17712e-05 -2.29701e-05 -6.30413e-06)
(6.83399e-05 -3.41386e-05 -1.19491e-05)
(6.7454e-05 -2.83093e-05 -9.10588e-06)
(7.05939e-05 -2.85781e-05 -9.1779e-06)
(7.79807e-05 -2.29805e-05 -6.51008e-06)
(7.48642e-05 -2.30687e-05 -6.41371e-06)
(8.07638e-05 -3.60744e-05 -1.55966e-05)
(7.82455e-05 -3.87731e-05 -1.59195e-05)
(8.0008e-05 -2.08623e-05 -9.54108e-06)
(7.67476e-05 -1.95991e-05 -6.45482e-06)
(8.27168e-05 -2.14152e-05 -9.70121e-06)
(8.00844e-05 -1.96854e-05 -6.52804e-06)
(7.46622e-05 -3.82667e-05 -1.39308e-05)
(7.42189e-05 -2.64964e-05 -1.24334e-05)
(7.65273e-05 -3.78964e-05 -1.39408e-05)
(7.45916e-05 -2.45752e-05 -1.25607e-05)
(7.42331e-05 -2.89089e-05 -1.25605e-05)
(7.14546e-05 -2.09231e-05 -1.11717e-05)
(6.26572e-05 -3.86258e-05 -1.41209e-05)
(6.58831e-05 -3.9017e-05 -1.40512e-05)
(6.42815e-05 -3.64832e-05 -1.38533e-05)
(7.93585e-05 -4.41212e-05 -1.77519e-05)
(6.52573e-05 -3.65886e-05 -1.38365e-05)
(7.65715e-05 -1.76952e-05 -3.45155e-06)
(7.58446e-05 -1.43779e-05 -1.89316e-06)
(7.15354e-05 -3.86969e-05 -1.38811e-05)
(6.90664e-05 -3.91075e-05 -1.40056e-05)
(7.04017e-05 -3.6249e-05 -1.36424e-05)
(8.66842e-05 -4.30553e-05 -1.74848e-05)
(7.1534e-05 -3.63187e-05 -1.37348e-05)
(7.65331e-05 -2.8539e-05 -9.45372e-06)
(7.65436e-05 -2.29488e-05 -6.45113e-06)
(7.39478e-05 -2.55941e-05 -7.72759e-06)
(7.91403e-05 -2.55459e-05 -8.01047e-06)
(7.7327e-05 -2.31153e-05 -8.02448e-06)
(6.10758e-05 -2.52573e-05 -8.07256e-06)
(6.66635e-05 -2.51847e-05 -7.62054e-06)
(6.75106e-05 -2.58664e-05 -7.81956e-06)
(7.29628e-05 -2.57846e-05 -7.80143e-06)
(6.36321e-05 -2.7906e-05 -9.3998e-06)
(6.79367e-05 -2.60308e-05 -8.66726e-06)
(6.69072e-05 -2.95166e-05 -1.09252e-05)
(6.92946e-05 -3.06296e-05 -1.03008e-05)
(6.71776e-05 -2.57634e-05 -9.33343e-06)
(6.34366e-05 -2.18777e-05 -6.34305e-06)
(6.5623e-05 -1.93014e-05 -4.96397e-06)
(6.24332e-05 -1.89919e-05 -5.08704e-06)
(6.47975e-05 -1.72944e-05 -3.66842e-06)
(6.35961e-05 -2.01292e-05 -5.1318e-06)
(6.09525e-05 -2.85268e-05 -9.52723e-06)
(6.19601e-05 -2.72719e-05 -8.9101e-06)
(5.81011e-05 -2.85289e-05 -9.65577e-06)
(6.15228e-05 -3.15413e-05 -1.1238e-05)
(6.30826e-05 -3.09353e-05 -1.04654e-05)
(6.95449e-05 -2.16481e-05 -6.10147e-06)
(6.87638e-05 -1.94293e-05 -4.84599e-06)
(7.15048e-05 -1.76142e-05 -3.45415e-06)
(7.00511e-05 -2.04446e-05 -4.9191e-06)
(7.22566e-05 -1.86733e-05 -4.76462e-06)
(5.91925e-05 -1.85366e-05 -5.20121e-06)
(5.8204e-05 -1.62005e-05 -3.92431e-06)
(5.7081e-05 -2.08452e-05 -6.5674e-06)
(5.71281e-05 -1.90056e-05 -5.40237e-06)
(5.52008e-05 -2.80352e-05 -9.76364e-06)
(5.59545e-05 -2.60941e-05 -9.14783e-06)
(5.56679e-05 -3.08134e-05 -1.14829e-05)
(5.68877e-05 -2.99849e-05 -1.07127e-05)
(6.40373e-05 -3.32631e-05 -1.44698e-05)
(6.86744e-05 -3.59299e-05 -1.57489e-05)
(6.67319e-05 -3.22104e-05 -1.42789e-05)
(6.60339e-05 -1.62925e-05 -3.00569e-06)
(6.41242e-05 -1.8921e-05 -4.57508e-06)
(6.3406e-05 -2.12117e-05 -5.77786e-06)
(6.63119e-05 -1.8849e-05 -4.4549e-06)
(6.04306e-05 -2.99255e-05 -1.03217e-05)
(6.04361e-05 -2.61869e-05 -8.53366e-06)
(5.80034e-05 -3.07971e-05 -1.1218e-05)
(5.86081e-05 -2.77358e-05 -9.35388e-06)
(6.97641e-05 -3.72827e-05 -1.60189e-05)
(6.5789e-05 -3.4339e-05 -1.47678e-05)
(6.87246e-05 -3.39665e-05 -1.47473e-05)
(7.27185e-05 -2.67935e-05 -1.27454e-05)
(7.32216e-05 -2.80898e-05 -1.29869e-05)
(7.72818e-05 -2.85089e-05 -1.37909e-05)
(6.86447e-05 -1.99756e-05 -1.06339e-05)
(7.073e-05 -3.43385e-05 -1.4209e-05)
(6.99998e-05 -3.30041e-05 -1.41529e-05)
(7.26029e-05 -3.22042e-05 -1.37739e-05)
(7.58516e-05 -3.73578e-05 -1.55097e-05)
(7.26058e-05 -3.06506e-05 -1.04916e-05)
(6.69401e-05 -2.78913e-05 -9.46999e-06)
(7.23647e-05 -2.63963e-05 -8.81143e-06)
(6.88404e-05 -3.055e-05 -1.10833e-05)
(7.05192e-05 -2.66949e-05 -9.58652e-06)
(7.05277e-05 -2.00337e-05 -4.7505e-06)
(6.95295e-05 -1.93614e-05 -4.5526e-06)
(7.25589e-05 -1.73901e-05 -3.19554e-06)
(6.97191e-05 -2.21686e-05 -5.97429e-06)
(7.26365e-05 -1.96349e-05 -4.65354e-06)
(6.65795e-05 -3.08725e-05 -1.03613e-05)
(6.14944e-05 -2.82768e-05 -9.39425e-06)
(6.43043e-05 -2.83632e-05 -9.43568e-06)
(6.64673e-05 -2.72108e-05 -8.66182e-06)
(6.3847e-05 -3.16014e-05 -1.12027e-05)
(7.67197e-05 -2.03502e-05 -4.96381e-06)
(7.89697e-05 -1.77383e-05 -3.39544e-06)
(7.56355e-05 -2.19816e-05 -6.14323e-06)
(7.56805e-05 -1.97437e-05 -4.7491e-06)
(7.88559e-05 -1.90706e-05 -4.81347e-06)
(7.90647e-05 -3.05222e-05 -1.43853e-05)
(7.52562e-05 -2.84845e-05 -1.34945e-05)
(7.58652e-05 -2.95186e-05 -1.37948e-05)
(7.2197e-05 -2.32036e-05 -1.17451e-05)
(7.19622e-05 -3.45366e-05 -1.46957e-05)
(7.69302e-05 -3.83717e-05 -1.58575e-05)
(7.2458e-05 -3.49854e-05 -1.46416e-05)
(7.4731e-05 -3.34098e-05 -1.44177e-05)
(7.40141e-05 -1.7063e-05 -9.4955e-06)
(7.24608e-05 -1.46722e-05 -7.97646e-06)
(6.74815e-05 -1.33037e-05 -8.55391e-06)
(7.27698e-05 -1.68786e-05 -9.27038e-06)
(7.38209e-05 -1.43717e-05 -4.71735e-06)
(7.1408e-05 -1.15099e-05 -3.23148e-06)
(7.21011e-05 -1.42653e-05 -5.79707e-06)
(7.3747e-05 -1.55274e-05 -4.72433e-06)
(6.18453e-05 -1.27914e-05 -7.55205e-06)
(6.12871e-05 -1.20674e-05 -7.14459e-06)
(6.06359e-05 -1.21478e-05 -6.81221e-06)
(7.72716e-05 -1.9111e-05 -9.85063e-06)
(7.50713e-05 -1.89201e-05 -9.55008e-06)
(7.5882e-05 -1.61544e-05 -8.2174e-06)
(7.06381e-05 -1.69954e-05 -9.10442e-06)
(7.25654e-05 -1.20254e-05 -2.73617e-06)
(7.68033e-05 -1.46232e-05 -4.44711e-06)
(7.55987e-05 -1.58293e-05 -4.59751e-06)
(7.51584e-05 -1.50024e-05 -5.74754e-06)
(6.5691e-05 -1.67455e-05 -8.64434e-06)
(6.33998e-05 -1.50586e-05 -7.63061e-06)
(6.50197e-05 -1.6031e-05 -8.10023e-06)
(7.38771e-05 -3.44181e-05 -1.35861e-05)
(8.97138e-05 -3.9656e-05 -1.71091e-05)
(7.38003e-05 -3.47491e-05 -1.35363e-05)
(7.04607e-05 -2.59351e-05 -1.17392e-05)
(7.12603e-05 -2.27745e-05 -1.06367e-05)
(6.69581e-05 -1.7756e-05 -1.0015e-05)
(6.74549e-05 -1.53381e-05 -9.39302e-06)
(7.79437e-05 -2.89351e-05 -1.09487e-05)
(8.09307e-05 -2.93163e-05 -1.12115e-05)