/*--------------------------------*- C++ -*----------------------------------*\
| =========                 |                                                 |
| \\      /  F ield         | OpenFOAM: The Open Source CFD Toolbox           |
|  \\    /   O peration     | Version:  2012                                  |
|   \\  /    A nd           | Website:  www.openfoam.com                      |
|    \\/     M anipulation  |                                                 |
\*---------------------------------------------------------------------------*/
FoamFile
{
    version     2.0;
    format      ascii;
    class       volVectorField;
    location    "0.105/fluid";
    object      U;
}
// * * * * * * * * * * * * * * * * * * * * * * * * * * * * * * * * * * * * * //

dimensions      [0 1 -1 0 0 0 0];


internalField   nonuniform List<vector> 
16422
(
(1.24288 -0.0190483 -0.0105292)
(1.2076 -0.0276035 -0.00503781)
(1.20505 -0.00669409 -0.00443713)
(1.20264 -0.00516124 -0.00343529)
(1.20147 -0.00380712 -0.00246991)
(1.20086 -0.00265728 -0.00173946)
(1.2005 -0.00180359 -0.00121231)
(1.2003 -0.00120339 -0.000836717)
(1.20019 -0.000794138 -0.000571345)
(1.20012 -0.000520738 -0.000384984)
(1.20009 -0.000340394 -0.000257856)
(1.20006 -0.000218592 -0.000173423)
(1.20005 -0.000138386 -0.000114565)
(1.20005 -8.60754e-05 -7.32582e-05)
(1.20004 -4.60242e-05 -4.27411e-05)
(1.21565 -0.00446854 0.000485165)
(1.21139 -0.00990197 -0.00149323)
(1.207 -0.00581999 -0.00237234)
(1.20413 -0.00375636 -0.00222076)
(1.20264 -0.00266637 -0.00175262)
(1.20175 -0.00189065 -0.00131527)
(1.20115 -0.00130909 -0.000964907)
(1.20075 -0.00089204 -0.000695259)
(1.2005 -0.00059659 -0.000489209)
(1.20033 -0.000394105 -0.000340211)
(1.20023 -0.00025886 -0.000233284)
(1.20016 -0.00016807 -0.000159895)
(1.20012 -0.000108181 -0.000107627)
(1.20009 -6.49214e-05 -7.0139e-05)
(1.20008 -3.38811e-05 -4.05228e-05)
(1.21116 -0.00136897 0.000235686)
(1.2097 -0.00302002 -0.000906721)
(1.20706 -0.00245491 -0.00148808)
(1.20483 -0.00175172 -0.00152767)
(1.20333 -0.00128611 -0.00131421)
(1.20227 -0.000923734 -0.00105365)
(1.20154 -0.00064774 -0.00081025)
(1.20103 -0.000444232 -0.000605161)
(1.2007 -0.000297427 -0.000438721)
(1.20047 -0.000194472 -0.000311102)
(1.20032 -0.000122238 -0.00021754)
(1.20023 -7.52855e-05 -0.000152409)
(1.20016 -4.45662e-05 -0.000104647)
(1.20012 -2.0721e-05 -6.68432e-05)
(1.2001 -3.66378e-06 -3.87673e-05)
(1.21888 -0.00238655 -0.00250496)
(1.21051 -0.00395515 -0.0050981)
(1.20638 -0.0045157 -0.00433958)
(1.20385 -0.00387213 -0.00326882)
(1.20244 -0.00298727 -0.00237007)
(1.20156 -0.00216747 -0.00168665)
(1.201 -0.00151722 -0.00117938)
(1.20065 -0.00104237 -0.000815656)
(1.20043 -0.000703138 -0.00055636)
(1.2003 -0.000468887 -0.000375143)
(1.20021 -0.000312122 -0.000251991)
(1.20015 -0.000203471 -0.000167406)
(1.20011 -0.000130146 -0.000111685)
(1.20009 -8.22448e-05 -7.29363e-05)
(1.20008 -4.47309e-05 -4.2957e-05)
(1.21223 -0.00169864 0.000384608)
(1.20991 -0.0041195 -0.00167867)
(1.20691 -0.00347802 -0.00233734)
(1.20464 -0.00270378 -0.00214199)
(1.2032 -0.00208007 -0.00169299)
(1.2022 -0.00154191 -0.0012792)
(1.2015 -0.00110449 -0.000939737)
(1.20102 -0.000773298 -0.000677247)
(1.2007 -0.000529559 -0.000479265)
(1.20048 -0.000356482 -0.000331556)
(1.20034 -0.000238212 -0.000228389)
(1.20024 -0.000157054 -0.000155612)
(1.20018 -0.000102342 -0.000104143)
(1.20014 -6.05606e-05 -6.93492e-05)
(1.20011 -3.1245e-05 -4.10618e-05)
(1.20987 -0.000654056 0.000136579)
(1.20881 -0.00161934 -0.000931024)
(1.20685 -0.00156105 -0.00145955)
(1.20504 -0.00127881 -0.00148173)
(1.20365 -0.00100555 -0.00127801)
(1.20259 -0.000754498 -0.00102791)
(1.20181 -0.0005472 -0.000790955)
(1.20125 -0.000385885 -0.000590815)
(1.20086 -0.00026438 -0.000430862)
(1.2006 -0.000176198 -0.000305438)
(1.20042 -0.000111582 -0.000214361)
(1.2003 -6.94829e-05 -0.000147031)
(1.20022 -4.12131e-05 -9.98111e-05)
(1.20016 -1.68515e-05 -6.72567e-05)
(1.20014 -1.1104e-06 -3.88686e-05)
(1.21224 -0.000400407 -0.000577547)
(1.20989 -0.00222307 -0.00277065)
(1.207 -0.0029207 -0.00286481)
(1.20478 -0.00277337 -0.0023591)
(1.20323 -0.00228586 -0.00178305)
(1.20216 -0.00174357 -0.00129278)
(1.20145 -0.00126909 -0.000913479)
(1.20097 -0.000899279 -0.000635761)
(1.20066 -0.000623282 -0.000434721)
(1.20045 -0.000424729 -0.000292258)
(1.20032 -0.000288842 -0.000195791)
(1.20023 -0.000191658 -0.000130756)
(1.20017 -0.000122682 -8.70828e-05)
(1.20013 -7.85923e-05 -5.55535e-05)
(1.20011 -4.34025e-05 -3.27308e-05)
(1.21001 -0.000471936 -1.4804e-05)
(1.20885 -0.00170267 -0.00126981)
(1.20686 -0.00202117 -0.00169891)
(1.20508 -0.00189439 -0.00157644)
(1.20368 -0.00159124 -0.00128071)
(1.20261 -0.00124273 -0.000984134)
(1.20183 -0.000926412 -0.000729664)
(1.20128 -0.000669714 -0.000527574)
(1.20089 -0.000470923 -0.000374305)
(1.20062 -0.000325831 -0.000260128)
(1.20044 -0.00022116 -0.000179782)
(1.20031 -0.000147576 -0.00012125)
(1.20023 -9.56588e-05 -8.08974e-05)
(1.20018 -5.69905e-05 -5.134e-05)
(1.20015 -2.94738e-05 -3.03581e-05)
(1.20885 -0.000247628 9.33507e-06)
(1.20812 -0.000783943 -0.000722221)
(1.20671 -0.000946425 -0.00109088)
(1.20523 -0.000905951 -0.00111244)
(1.20394 -0.000769903 -0.000977883)
(1.20288 -0.000608958 -0.000795227)
(1.20208 -0.000460205 -0.00061641)
(1.20147 -0.000334953 -0.000460559)
(1.20104 -0.000235636 -0.000335599)
(1.20072 -0.000160021 -0.000240894)
(1.20051 -0.000103784 -0.000168982)
(1.20037 -6.51208e-05 -0.000114527)
(1.20027 -3.89387e-05 -7.63492e-05)
(1.20021 -1.42189e-05 -4.96935e-05)
(1.20017 7.72623e-07 -2.87117e-05)
(1.21022 -0.00025624 -0.000218957)
(1.2091 -0.00142714 -0.00109241)
(1.20716 -0.00203194 -0.00130111)
(1.20527 -0.00209098 -0.0011388)
(1.20372 -0.00183517 -0.000878097)
(1.20257 -0.0014671 -0.000639998)
(1.20176 -0.00110649 -0.000452614)
(1.20119 -0.00080456 -0.000311677)
(1.20081 -0.000572138 -0.00020774)
(1.20056 -0.000397392 -0.000139675)
(1.2004 -0.000275425 -9.03094e-05)
(1.20028 -0.000184303 -5.93873e-05)
(1.20021 -0.000119164 -3.74235e-05)
(1.20016 -7.67122e-05 -2.22176e-05)
(1.20013 -4.31765e-05 -1.01841e-05)
(1.20901 -0.000216644 -8.28275e-05)
(1.20827 -0.000977136 -0.000625485)
(1.20686 -0.00137039 -0.000824343)
(1.20535 -0.00143129 -0.000774393)
(1.20399 -0.00128463 -0.000635405)
(1.2029 -0.00105051 -0.00048936)
(1.20208 -0.00080945 -0.00036092)
(1.20147 -0.000600566 -0.000255501)
(1.20103 -0.00043176 -0.000176798)
(1.20072 -0.000305476 -0.000121851)
(1.20051 -0.000211167 -8.01308e-05)
(1.20037 -0.00014169 -5.37193e-05)
(1.20027 -9.22291e-05 -3.47889e-05)
(1.20021 -5.41729e-05 -1.90858e-05)
(1.20017 -2.89451e-05 -9.13637e-06)
(1.2083 -0.000119738 -4.0394e-05)
(1.20776 -0.000471342 -0.000385208)
(1.20666 -0.000657476 -0.000549831)
(1.20537 -0.000688168 -0.000560914)
(1.20414 -0.000623109 -0.000493742)
(1.2031 -0.000514584 -0.000399494)
(1.20226 -0.000403001 -0.000304513)
(1.20163 -0.000301108 -0.000221503)
(1.20116 -0.000214655 -0.000156437)
(1.20082 -0.000147889 -0.000109225)
(1.20057 -0.000100415 -7.5813e-05)
(1.20041 -6.30924e-05 -5.08035e-05)
(1.2003 -3.58855e-05 -3.04409e-05)
(1.20023 -1.36928e-05 -1.8453e-05)
(1.2002 2.65166e-06 -8.00218e-06)
(1.30144 -0.0774335 -0.0133964)
(1.18552 -0.00950492 -0.0107898)
(1.29502 -0.0751557 0.0047901)
(1.18719 -0.00996261 -0.0145458)
(1.234 -0.00964689 -0.0135346)
(1.2085 -0.00966677 -0.0121372)
(1.19191 -0.0104996 -0.0094731)
(1.19461 -0.0110997 -0.00666241)
(1.24679 -0.0220512 -0.00282095)
(1.20555 -0.045765 -0.0041672)
(1.22606 -0.00316454 -0.0021129)
(1.21074 -0.00538387 -0.00525854)
(0.400979 0.0631037 -0.0612186)
(0.293567 0.0749135 -0.00502804)
(1.19315 -0.0108621 -0.0109347)
(1.19649 -0.0095572 -0.00780173)
(1.20657 -0.00928093 -0.010913)
(1.20369 -0.00721706 -0.00815862)
(1.20548 -0.040422 -0.00587543)
(1.22401 -0.00317939 -0.00253523)
(1.21052 -0.00503332 -0.00606311)
(1.22447 -0.00635954 -0.00674426)
(1.21125 -0.00777597 -0.00384494)
(1.21672 -0.00105594 -0.00275069)
(1.21045 -0.00377678 -0.00611656)
(1.22302 -0.00619012 -0.00871795)
(1.2106 -0.00798426 -0.0124129)
(1.21466 -0.00115992 -0.00171151)
(1.21118 -0.00315211 -0.00416804)
(0.303603 0.0773348 -0.00816034)
(0.588245 0.141039 -0.0140397)
(1.22645 -0.066661 -0.0135159)
(0.31513 -0.076741 -0.00525636)
(1.17348 -0.0419259 -0.0101255)
(1.18981 -0.0317901 -0.0122621)
(0.612824 -0.151525 -0.0109137)
(0.633671 0.0563118 -0.115752)
(0.575001 0.136902 -0.0167525)
(0.444951 -0.0678914 -0.0889539)
(1.22332 -0.064308 -0.0156739)
(1.27803 -0.0205131 -0.00716742)
(0.30608 -0.0746843 -0.00371898)
(1.22819 -0.034908 -0.0305853)
(0.676223 -0.0730364 -0.167921)
(1.1767 -0.0414571 -0.0155429)
(1.19113 -0.0295034 -0.0196754)
(1.19551 -0.00758263 -0.0245991)
(0.601151 -0.148099 -0.0142115)
(1.18085 -0.0493568 -0.0123705)
(1.20081 -0.0235717 -0.032778)
(1.20772 0.0225227 -0.118291)
(0.691032 -0.0256233 -0.0649448)
(1.22244 -0.010347 -0.0979004)
(1.19304 0.00775937 -0.131117)
(1.2545 -0.0232662 -0.0143185)
(1.23925 -0.00287618 -0.0268762)
(1.22277 -0.0123001 -0.0184937)
(0.708887 -0.000757695 -0.0670288)
(1.22156 -0.0210862 -0.0362669)
(1.22308 -0.00387884 -0.0311142)
(1.21067 0.0419425 -0.105063)
(1.20078 -0.00261306 -0.026441)
(1.208 -0.000647489 -0.0170416)
(1.21337 -0.0109884 -0.0161309)
(1.19771 -0.00151869 -0.0162532)
(1.20397 -0.00465883 -0.032737)
(1.21118 -0.00197502 -0.0260025)
(0.293366 0.0759902 -0.0115873)
(0.310873 0.080281 -0.0176067)
(1.10587 0.0748351 -0.0166575)
(1.52931 -0.140019 -0.036305)
(1.40134 -0.169009 -0.0331532)
(1.26194 -0.159991 -0.0105411)
(1.35676 -0.164798 -0.0321508)
(1.10793 -0.0827202 -0.0133783)
(1.19693 -0.110993 -0.0124115)
(1.17824 -0.0614245 -0.0134763)
(0.578169 0.137932 -0.0266768)
(1.12406 0.0747494 -0.011861)
(1.12771 0.0852689 -0.0330465)
(0.601088 0.145023 -0.028167)
(1.10849 0.0744135 -0.0224186)
(1.11309 0.0745007 -0.0259716)
(1.34821 -0.149299 -0.0057617)
(0.305471 -0.0751614 -0.00665235)
(1.27005 -0.102956 -0.0615697)
(1.2664 -0.136709 -0.0270491)
(1.30248 -0.0574557 -0.0386136)
(1.38985 -0.158637 -0.0366396)
(1.52506 -0.140563 0.0309704)
(1.39836 -0.168273 0.010956)
(1.50456 -0.129573 -0.026437)
(1.3508 -0.157004 -0.0385624)
(0.321498 -0.0787375 -0.0122547)
(1.26158 -0.157412 -0.0157359)
(1.35458 -0.164105 0.00648987)
(1.26184 -0.153876 -0.0206868)
(1.38495 -0.150129 0.00127687)
(1.41566 0.00665581 0.0132216)
(1.49748 -0.126376 0.0365994)
(1.32237 -0.0502094 -0.0298373)
(1.18826 -0.0529946 -0.0137592)
(0.603852 -0.150281 -0.0161679)
(1.12712 -0.100423 -0.0190351)
(1.22753 -0.0682746 -0.0441778)
(1.12443 -0.0978697 -0.0202182)
(1.2087 -0.0946186 -0.017197)
(1.20678 -0.0444578 -0.0363301)
(1.18108 -0.059256 -0.0175629)
(0.624103 -0.15565 -0.019248)
(1.11025 -0.0813103 -0.0178557)
(1.1976 -0.109191 -0.0134569)
(1.17937 -0.0607334 -0.0121622)
(1.11426 -0.0808209 -0.0211699)
(1.19934 -0.106557 -0.0183442)
(1.09601 -0.0232064 -0.0845906)
(1.19935 0.00701688 -0.0537196)
(1.21278 0.0130199 -0.0551365)
(1.03826 -0.0108088 -0.0806285)
(1.25186 0.0255582 -0.026799)
(1.23414 0.016964 -0.0485676)
(1.18423 -0.0330587 -0.0205779)
(1.18984 0.00011271 -0.0415733)
(1.19381 -0.00629571 -0.0312905)
(1.22669 -0.0274896 -0.0352623)
(1.10382 0.00633226 -0.0854955)
(1.19378 -0.0635668 -0.0626863)
(1.19969 -0.0138479 -0.0521481)
(1.21208 -0.0736817 -0.0731301)
(1.21238 -0.0190558 -0.0529003)
(1.21532 -0.0189994 -0.0256969)
(1.24114 -0.0366314 -0.0458642)
(1.04688 -0.00941979 -0.0815659)
(1.29534 -0.00138521 -0.0419349)
(1.25055 -0.0288343 -0.0263807)
(1.25504 -0.0388586 -0.0362974)
(1.23206 -0.0325235 -0.063052)
(1.23319 -0.0216464 -0.0469505)
(1.20099 -0.00628793 -0.00999524)
(1.18668 0.0271322 -0.0249326)
(1.18887 -0.0488369 -0.0383571)
(1.19043 -0.00740428 -0.0398456)
(1.19251 -0.0285996 -0.0260723)
(1.19365 -0.0013604 -0.0298167)
(1.20606 -0.00857025 -0.0111102)
(1.18993 0.216511 -0.204976)
(0.305092 0.0899524 0.00191008)
(1.18225 0.102246 -0.18489)
(1.1644 0.173167 -0.161363)
(1.23017 0.146445 -0.243954)
(1.01142 0.191087 -0.0602283)
(1.01803 0.19219 -0.0555405)
(1.17485 0.221959 -0.0380325)
(0.306099 0.0785353 -0.0119978)
(1.14827 0.172642 -0.0297546)
(1.17758 0.223737 -0.0287867)
(1.14928 0.171395 -0.0298886)
(0.998451 0.186156 -0.233943)
(1.29126 0.161199 -0.331863)
(1.01552 0.193187 -0.0442966)
(1.03352 0.196266 -0.0291448)
(1.17387 0.224534 -0.0223435)
(0.293395 0.0744884 -0.00369899)
(1.15007 0.17476 -0.020804)
(1.17956 0.225899 -0.0273934)
(1.14522 0.174304 -0.0241751)
(1.16385 0.100892 -0.0247828)
(0.574007 0.136715 -0.0142826)
(1.17673 0.126278 -0.0130372)
(0.901557 0.102079 -0.0171445)
(1.17276 0.126497 -0.0281923)
(0.899727 0.101935 -0.0191334)
(1.16709 0.100311 -0.0141911)
(1.01926 -0.175867 -0.0430279)
(1.03685 -0.178289 -0.0236256)
(1.17864 -0.217698 -0.0198379)
(0.30661 -0.0746644 -0.00289856)
(1.15675 -0.180077 -0.0178925)
(1.15216 -0.179503 -0.0205021)
(1.18438 -0.218686 -0.0234052)
(1.17045 -0.111925 -0.0214767)
(0.601068 -0.148023 -0.012635)
(0.903403 -0.121348 -0.0137401)
(1.18703 -0.140326 -0.0111198)
(0.902062 -0.121566 -0.0161601)
(1.18329 -0.1403 -0.0236912)
(1.17346 -0.111378 -0.0109775)
(1.19676 0.105779 -0.108193)
(0.612488 0.156456 -0.0133944)
(1.21986 0.0632952 -0.160126)
(0.89485 0.0426184 0.0337186)
(1.19592 0.124334 -0.146294)
(0.935155 0.100837 0.015985)
(1.21047 0.0622019 -0.120808)
(1.16932 0.0984171 -0.0206418)
(0.593363 0.142801 -0.019956)
(1.17504 0.124563 -0.0328782)
(0.902365 0.102136 -0.0235172)
(1.1777 0.123411 -0.0207729)
(1.16575 0.0992543 -0.0287034)
(0.90514 0.102944 -0.0224557)
(1.19659 -0.213294 -0.198203)
(0.32121 -0.0897125 0.0131622)
(1.19508 -0.122646 -0.181971)
(1.17796 -0.186874 -0.153255)
(1.23434 -0.157001 -0.235585)
(1.01615 -0.172597 -0.0545483)
(1.02239 -0.174201 -0.0535109)
(1.17943 -0.21398 -0.0330598)
(0.316891 -0.0774375 -0.00828191)
(1.15489 -0.177759 -0.0252258)
(1.18225 -0.216059 -0.0256299)
(1.15565 -0.176752 -0.0257509)
(1.00164 -0.166497 -0.231176)
(1.29971 -0.146148 -0.32553)
(1.20259 -0.116656 -0.102697)
(0.643714 -0.182009 0.0253497)
(0.911423 -0.0727842 0.00557694)
(1.23009 -0.0766328 -0.162004)
(0.939871 -0.166213 0.0161615)
(1.20993 -0.14007 -0.136294)
(1.21141 -0.0731114 -0.128543)
(1.17552 -0.109346 -0.0162699)
(0.616755 -0.153068 -0.0150865)
(0.90398 -0.120936 -0.0195338)
(1.18545 -0.138437 -0.0273806)
(1.17225 -0.110088 -0.0244163)
(0.906283 -0.121121 -0.0175405)
(1.18788 -0.137584 -0.017623)
(1.18616 0.0385319 -0.0960355)
(1.20397 -0.0122422 -0.141538)
(1.28087 -0.0338125 -0.1087)
(1.20602 -0.0255697 -0.0731156)
(1.21366 0.0120564 -0.178977)
(1.17784 0.0367394 -0.0868218)
(1.23919 -0.0347789 -0.0998658)
(1.28141 0.0261374 -0.0986976)
(0.872517 0.00335868 -0.0671633)
(1.41246 -0.0381347 -0.110195)
(1.2326 -0.00337731 -0.229373)
(1.29788 0.0248693 -0.100794)
(1.38917 -0.0354167 -0.108298)
(1.17111 0.0215966 -0.0432606)
(1.18369 -0.0394367 -0.113776)
(1.2518 -0.0569983 -0.0289814)
(1.17296 -0.0243702 -0.0425534)
(1.17851 -0.0530974 -0.0754041)
(1.17113 0.0356235 -0.0661413)
(1.1662 -0.0245778 -0.0227904)
(1.18599 -0.047602 -0.0922837)
(1.28736 0.0178365 -0.109369)
(1.20666 -0.00197441 -0.139966)
(1.20351 0.0197533 -0.0715864)
(1.21262 -0.0259621 -0.175439)
(1.2377 0.0287701 -0.0958741)
(1.17805 -0.0460569 -0.0851957)
(1.27833 -0.0322378 -0.0943926)
(0.886095 -0.029883 -0.0684632)
(1.41191 0.0339129 -0.110056)
(1.29531 -0.029563 -0.0962324)
(1.23574 0.00319883 -0.218808)
(1.38822 0.0300889 -0.107905)
(1.17241 -0.0319196 -0.0447675)
(1.26514 0.0593825 -0.0322208)
(1.18797 0.0282591 -0.115677)
(1.17092 0.0189295 -0.0461843)
(1.18227 0.0414767 -0.0801976)
(1.16608 0.0203941 -0.0288746)
(1.17232 -0.0452293 -0.0669275)
(1.16074 0.2133 -0.131399)
(0.318375 0.0886848 -0.0258534)
(1.14553 0.159573 -0.076995)
(1.16359 0.204938 -0.0922235)
(1.14911 0.171999 -0.0998702)
(1.17375 0.231686 -0.225664)
(1.28174 0.184623 -0.303909)
(1.15218 0.206628 -0.264017)
(1.22084 0.174882 -0.248582)
(1.12758 0.219134 -0.154893)
(1.1153 0.190518 -0.118679)
(1.1355 0.215496 -0.10515)
(1.11982 0.201253 -0.21965)
(1.07927 0.193935 -0.0572636)
(1.11279 0.203143 -0.0440915)
(1.10718 0.199703 -0.0504595)
(1.08709 0.195629 -0.0528686)
(0.986977 0.1837 -0.0834369)
(0.991936 0.181884 -0.1248)
(1.05534 0.18582 -0.0810074)
(1.09439 0.18677 -0.106412)
(1.08722 0.192898 -0.0691207)
(1.06021 0.182633 -0.120009)
(1.16993 0.217291 -0.0508863)
(0.293362 0.0753948 -0.00778364)
(1.15341 0.167094 -0.0524312)
(1.17586 0.21645 -0.0677731)
(1.14542 0.1677 -0.0466426)
(1.15187 0.237327 -0.0443991)
(1.1573 0.221407 -0.0387851)
(1.15144 0.217523 -0.0476805)
(1.15927 0.240754 -0.0293597)
(1.14714 0.232331 -0.0551491)
(1.14079 0.204052 -0.099036)
(1.14831 0.229172 -0.0794536)
(1.13337 0.210613 -0.0626537)
(1.0637 0.185292 -0.247347)
(1.28707 0.161589 -0.312833)
(1.1025 0.191681 -0.261824)
(1.31162 0.189668 -0.335384)
(0.982495 0.188446 -0.216742)
(0.96394 0.170798 -0.144804)
(1.04272 0.186326 -0.220584)
(1.06725 0.174178 -0.128394)
(1.07295 0.187275 -0.224053)
(1.03069 0.169701 -0.143234)
(1.08384 0.196796 -0.0418834)
(1.1254 0.206686 -0.0265803)
(1.10198 0.200083 -0.0283089)
(1.10803 0.204183 -0.0349116)
(0.301147 0.0763458 -0.00546188)
(1.15562 0.241261 -0.0216861)
(1.16849 0.224964 -0.026683)
(1.16085 0.242617 -0.0322724)
(1.15242 0.22231 -0.0306257)
(0.584405 0.139973 -0.00983278)
(1.0857 -0.181661 -0.0404034)
(1.12868 -0.2064 -0.0240709)
(1.11161 -0.203487 -0.0303365)
(1.10334 -0.184096 -0.0225093)
(1.12062 -0.205684 -0.0112543)
(0.313429 -0.0762159 -0.00306893)
(1.16533 -0.22969 -0.0187178)
(1.17275 -0.223924 -0.0246662)
(1.15676 -0.22062 -0.026174)
(1.17115 -0.230863 -0.0289871)
(1.16478 -0.222917 -0.0129655)
(0.610011 -0.150652 -0.00767484)
(1.18774 0.112171 -0.0676871)
(0.628104 0.1594 -0.0438751)
(1.17889 0.116584 -0.0701849)
(0.916527 0.105566 -0.0382969)
(1.18596 0.129394 -0.0806261)
(1.1756 0.096361 -0.0568443)
(0.938264 0.115693 -0.036483)
(1.16688 0.0966824 -0.0389119)
(0.576499 0.137442 -0.0208917)
(1.18271 0.120211 -0.0388265)
(0.91114 0.104651 -0.029211)
(1.1745 0.120795 -0.046062)
(1.17465 0.0962922 -0.0343168)
(0.905882 0.10299 -0.0301949)
(1.16589 -0.20609 -0.121614)
(0.332678 -0.0871853 -0.0176334)
(1.15256 -0.166667 -0.0681788)
(1.1686 -0.197022 -0.0863605)
(1.15743 -0.180595 -0.0890217)
(1.18309 -0.221403 -0.214761)
(1.28663 -0.188184 -0.288856)
(1.15212 -0.202629 -0.251389)
(1.22918 -0.172939 -0.242521)
(1.13915 -0.206417 -0.144914)
(1.12256 -0.190074 -0.110411)
(1.1476 -0.202539 -0.0987577)
(1.12476 -0.200529 -0.207043)
(1.08164 -0.177813 -0.0510905)
(1.11654 -0.20258 -0.0387584)
(1.08938 -0.179852 -0.050688)
(1.11102 -0.199806 -0.0465556)
(0.993107 -0.165316 -0.0804386)
(0.998945 -0.163014 -0.118682)
(1.05896 -0.170154 -0.0777167)
(1.09991 -0.187987 -0.0992867)
(1.09164 -0.192673 -0.062677)
(1.06459 -0.166564 -0.112785)
(1.17447 -0.209029 -0.0467372)
(0.305224 -0.074745 -0.00540395)
(1.16007 -0.173176 -0.045936)
(1.18092 -0.208274 -0.0612168)
(1.15187 -0.173114 -0.0406587)
(1.16256 -0.224765 -0.0403641)
(1.16182 -0.219871 -0.0336702)
(1.16952 -0.228504 -0.0257322)
(1.15613 -0.216547 -0.0444266)
(1.15789 -0.219358 -0.0506372)
(1.14691 -0.204084 -0.0929833)
(1.16021 -0.21639 -0.0742252)
(1.13837 -0.209029 -0.0566834)
(1.06332 -0.168914 -0.245153)
(1.28655 -0.168822 -0.297608)
(1.1021 -0.189828 -0.25048)
(1.31018 -0.18026 -0.331491)
(0.986462 -0.168326 -0.213783)
(0.972345 -0.152235 -0.141024)
(1.04385 -0.169964 -0.216621)
(1.07427 -0.175193 -0.119296)
(1.07731 -0.188326 -0.212366)
(1.03663 -0.15446 -0.138712)
(1.19107 -0.123344 -0.051959)
(0.656045 -0.179122 -0.0132126)
(0.916592 -0.124774 -0.0268772)
(1.18884 -0.133236 -0.0586029)
(0.934926 -0.14349 -0.0191374)
(1.19617 -0.14529 -0.0669355)
(1.17977 -0.109067 -0.0471151)
(1.17323 -0.107916 -0.0328886)
(0.601695 -0.148625 -0.016382)
(0.911877 -0.121678 -0.0211428)
(1.19285 -0.135238 -0.0329401)
(0.907238 -0.120664 -0.0239258)
(1.18479 -0.135138 -0.038835)
(1.18048 -0.107967 -0.0277415)
(1.2038 0.0313983 -0.101175)
(1.22848 -0.0470332 -0.100038)
(1.25427 -0.000480008 -0.200372)
(1.32054 -0.0402016 -0.110497)
(1.23235 0.0175606 -0.188527)
(1.21883 0.0262096 -0.0942848)
(1.28713 -0.0359042 -0.114475)
(1.26022 0.022705 -0.0931141)
(0.916876 0.00529938 -0.069418)
(1.23285 0.0382168 -0.206373)
(1.35118 -0.0367192 -0.109553)
(1.23716 0.0274445 -0.22517)
(1.24412 0.0205109 -0.0914837)
(1.37234 -0.0395368 -0.110911)
(1.20341 -0.0405033 -0.0981559)
(1.23658 0.0216651 -0.101738)
(1.25466 -0.0097953 -0.18902)
(1.31739 0.0308671 -0.106963)
(1.23307 -0.026973 -0.18325)
(1.28526 0.0280753 -0.110725)
(1.21792 -0.0346992 -0.0920463)
(1.25676 -0.0294577 -0.0900087)
(0.929189 -0.0302358 -0.0706368)
(1.23118 -0.0446587 -0.196752)
(1.34908 0.0279521 -0.107323)
(1.2358 -0.0242869 -0.219414)
(1.37008 0.0327313 -0.109662)
(1.24156 -0.0274125 -0.0888154)
(1.21438 -0.034769 -0.0109458)
(1.23774 -0.016383 -0.0109846)
(1.21812 -0.0289056 -0.012869)
(1.22935 -0.0124372 -0.0103677)
(1.24329 -0.0191228 -0.00477469)
(1.2326 -0.019108 -0.00923844)
(1.2379 -0.0111095 -0.00456065)
(1.21147 -0.00374246 -0.00513692)
(1.21472 -0.0009267 -0.00209002)
(1.21028 -0.00290498 -0.00497744)
(1.21347 -0.000630405 -0.000693501)
(1.21093 -0.00246128 -0.00269075)
(1.21132 -0.000506988 -0.00091527)
(1.20966 -0.00188469 -0.00243648)
(1.32343 -0.0555408 -0.00962817)
(1.28139 -0.0807655 -0.0147859)
(1.27551 -0.0874273 -0.0132342)
(1.26537 -0.0760913 -0.0272892)
(1.31532 -0.0506908 -0.0073573)
(1.27592 -0.0780619 -0.002812)
(1.29041 -0.0657733 -0.0102213)
(1.27329 -0.0688112 -0.0154536)
(1.26907 -0.0820484 -0.0132162)
(1.30805 -0.0458865 -0.0197798)
(1.2151 -0.039756 -0.00423428)
(1.24807 -0.0207303 -0.00391985)
(1.23596 -0.0207347 -0.00747277)
(0.669557 0.1038 -0.0166772)
(0.262683 0.0684957 0.0685124)
(0.791254 0.0598208 -0.0821315)
(0.705093 0.133923 -0.0093855)
(0.752292 -0.0351848 -0.107212)
(0.748177 0.156743 -0.0302599)
(0.303111 0.0775168 -0.00964408)
(0.752769 0.17455 -0.0239151)
(0.7195 0.148126 -0.0327273)
(0.772713 0.179934 -0.033804)
(1.22689 -0.0129518 -0.00828204)
(1.2183 -0.00916191 -0.00702068)
(1.2143 -0.0250975 -0.0101802)
(1.22363 -0.00994352 -0.0119717)
(1.22355 -0.00434355 -0.00609858)
(1.22972 -0.00935339 -0.00574893)
(1.21968 -0.0069181 -0.0108545)
(0.718832 0.148734 -0.0274589)
(0.292359 0.0743839 -0.00471421)
(0.774184 0.180211 -0.027253)
(0.746846 0.155733 -0.0225177)
(0.750077 0.173664 -0.0196491)
(0.979943 0.140339 -0.0144302)
(0.571745 0.135031 -0.0154557)
(0.957274 0.202555 -0.0278393)
(0.577381 0.0971376 -0.032232)
(0.936717 0.195832 -0.0193959)
(0.558272 0.0897879 -0.00126763)
(0.998888 0.145707 -0.0298634)
(0.736595 -0.153202 -0.0264002)
(0.305461 -0.074469 -0.00380746)
(0.791387 -0.180908 -0.021325)
(0.769465 -0.174982 -0.0179316)
(0.762349 -0.159505 -0.0158452)
(0.994207 -0.153682 -0.0112643)
(0.598692 -0.146492 -0.013161)
(0.599277 -0.124126 -0.0285952)
(0.972507 -0.205229 -0.0226743)
(0.582578 -0.117892 0.000507791)
(0.95397 -0.199674 -0.0164633)
(1.01133 -0.157767 -0.0250255)
(0.938651 0.0805476 -0.044875)
(0.523909 0.0953442 0.0469456)
(0.942051 0.0616985 -0.0839951)
(0.628707 -0.0285002 -0.0580004)
(0.882149 0.128537 -0.0512069)
(0.50278 0.0272157 0.107195)
(0.980674 0.00223201 -0.073135)
(0.994833 0.142984 -0.0369885)
(0.586917 0.139962 -0.016708)
(0.940825 0.197474 -0.0255517)
(0.562905 0.0937143 0.00167386)
(0.954078 0.201356 -0.0356909)
(0.984464 0.142553 -0.020234)
(0.57438 0.0937451 -0.0311152)
(0.699003 -0.100516 -0.0269666)
(0.281202 -0.0797846 0.0761176)
(0.847858 -0.0782961 -0.114421)
(0.749404 -0.150206 -0.0227931)
(0.80906 0.042206 -0.121248)
(1.25453 -0.0695513 -0.0399073)
(1.27935 -0.0558872 0.00577728)
(1.27702 -0.0539341 -0.039107)
(1.26298 -0.0260612 -0.0175079)
(1.26311 -0.0597958 -0.00636169)
(1.28995 -0.0437039 -0.0287163)
(1.25678 -0.0683779 -0.0515155)
(0.763199 -0.160157 -0.0229918)
(0.314453 -0.0767734 -0.00649841)
(0.772144 -0.175645 -0.0208352)
(0.737408 -0.152707 -0.0304571)
(0.789695 -0.180275 -0.0268809)
(0.948129 -0.116604 -0.0613387)
(0.553019 -0.121375 0.0275096)
(0.662061 0.0123813 -0.0999385)
(0.978089 -0.0935252 -0.11946)
(0.459969 -0.0758168 0.0883787)
(0.907516 -0.165465 -0.0684129)
(1.00855 -0.0349638 -0.106466)
(1.0071 -0.154791 -0.0313992)
(0.611331 -0.150562 -0.0133324)
(0.587013 -0.121353 0.00347126)
(0.957845 -0.200629 -0.0212149)
(0.998586 -0.155277 -0.0163254)
(0.595463 -0.120043 -0.0273684)
(0.969154 -0.203635 -0.0292467)
(1.31194 -0.00223709 -0.148726)
(1.21172 0.00674105 -0.102882)
(1.39582 0.0203072 -0.154679)
(1.30617 -0.0135512 -0.141031)
(1.25791 0.0361802 -0.14683)
(1.28784 -0.011468 -0.108002)
(1.32081 -0.0159922 -0.180341)
(1.37178 0.00770855 -0.121311)
(0.75897 -0.0105836 -0.0648401)
(1.25522 -0.0102703 -0.0547674)
(0.924357 -0.0496907 -0.102105)
(1.37291 0.018906 -0.11515)
(1.26231 -0.0122876 -0.0607754)
(1.26683 -0.032091 -0.0628193)
(1.24285 -0.0539022 -0.0794761)
(1.22491 -0.0239299 -0.0395685)
(1.3004 -0.0129286 -0.0984705)
(1.25126 -0.0994921 -0.0509265)
(1.28414 -0.0194788 -0.0802417)
(1.28907 -0.0123278 -0.0559722)
(1.31242 -0.00897205 -0.153995)
(1.38463 -0.0115151 -0.157889)
(1.25035 -0.011722 -0.117525)
(1.30449 0.00407353 -0.145886)
(1.28695 -0.0529252 -0.151048)
(1.32008 0.00205211 -0.192571)
(1.29038 0.00523331 -0.110018)
(1.23683 -0.0243888 -0.02547)
(1.25092 -0.0312016 -0.0271091)
(1.24514 -0.0500494 -0.0289666)
(1.24417 -0.0257755 -0.0278724)
(1.24408 -0.0310542 -0.033136)
(1.24965 -0.0229526 -0.0184315)
(1.22914 -0.0517778 -0.0375793)
(1.38193 -0.0158553 -0.124387)
(0.776111 -0.0164571 -0.0664325)
(1.27727 0.00370602 -0.0588278)
(1.38215 -0.0259924 -0.117258)
(0.939548 0.0309059 -0.104068)
(1.28252 0.000517318 -0.0640137)
(1.27013 0.033871 -0.0477525)
(1.22793 0.0535734 -0.0448136)
(1.28655 0.0442358 -0.0951749)
(1.29953 0.00836678 -0.0979901)
(1.2897 0.080596 -0.0602196)
(1.28637 0.0173064 -0.0580064)
(1.28564 0.0197492 -0.0725028)
(0.763862 0.163266 -0.0786627)
(0.308902 0.0805656 -0.0233895)
(0.753079 0.174791 -0.0482892)
(0.716599 0.147539 -0.061735)
(0.787296 0.185159 -0.0728887)
(0.417347 0.0813524 -0.0384556)
(0.57937 0.0736974 -0.112767)
(0.335852 0.087958 -0.0663641)
(0.334397 0.0841956 -0.0515694)
(0.721467 0.149328 -0.0486681)
(0.293915 0.0758816 -0.0101003)
(0.790032 0.184529 -0.0560315)
(0.76541 0.160127 -0.0574105)
(0.754288 0.175255 -0.0382278)
(0.342337 0.0880173 -0.0194316)
(0.332751 0.0827257 -0.0209531)
(0.339609 0.0864276 -0.0336237)
(0.336539 0.0859487 -0.0431639)
(0.337454 0.0855241 -0.0129066)
(0.336171 0.0838404 -0.0102585)
(1.4122 -0.177031 0.00443945)
(1.37356 -0.145232 -0.0210216)
(1.53618 -0.134468 0.0309329)
(1.48877 -0.146549 -0.0343942)
(1.49531 -0.14202 0.0236672)
(1.36863 -0.144104 0.000652341)
(1.41651 -0.178939 -0.0241514)
(1.42989 -0.202495 0.00678315)
(1.40846 -0.165671 0.0149215)
(1.45402 -0.161085 -0.0353027)
(1.40771 -0.214193 -0.0286457)
(1.46151 -0.15701 0.0208904)
(1.405 -0.211551 0.00710545)
(1.43332 -0.204948 -0.026974)
(0.341292 -0.0790898 -0.011417)
(0.340449 -0.0771608 -0.0077724)
(1.01141 0.146195 -0.0684167)
(0.598315 0.14376 -0.0358314)
(0.944752 0.198067 -0.0505388)
(0.566897 0.095548 -0.0067433)
(0.968793 0.206596 -0.0717798)
(0.991189 0.142357 -0.0429918)
(0.58652 0.0986873 -0.0530737)
(0.986835 0.14133 -0.0324501)
(0.577144 0.136753 -0.0236682)
(0.972317 0.206846 -0.0547767)
(0.589748 0.101742 -0.0440777)
(0.943218 0.197808 -0.0385477)
(1.01321 0.147589 -0.05269)
(0.562872 0.0927099 -0.00814895)
(0.782836 -0.16733 -0.0663417)
(0.320462 -0.0790462 -0.0164791)
(0.775065 -0.176306 -0.0374411)
(0.737374 -0.153067 -0.0527496)
(0.808134 -0.186537 -0.0583442)
(0.41842 -0.0743231 -0.0352407)
(0.574546 -0.0684632 -0.106971)
(0.339165 -0.0797893 -0.0602969)
(0.337296 -0.0765108 -0.0468635)
(1.40114 -0.183831 -0.00806954)
(1.37754 -0.189646 -0.0431273)
(1.3994 -0.159103 0.0052243)
(1.43857 -0.150097 -0.0338943)
(1.44986 -0.150087 0.0140552)
(1.38175 -0.193819 -0.00830016)
(1.39552 -0.179945 -0.0420476)
(1.39355 -0.168609 -0.024725)
(1.36691 -0.139857 -2.74103e-05)
(1.48473 -0.146368 0.022306)
(1.52311 -0.130787 -0.0338241)
(1.48381 -0.137439 -0.0341134)
(1.4103 -0.174195 0.00382482)
(1.34723 -0.135093 -0.022036)
(1.41436 -0.19415 -0.0277628)
(1.40113 -0.161123 -0.0365989)
(1.45048 -0.160786 0.0180213)
(1.40318 -0.210229 0.00569413)
(1.45234 -0.152466 -0.0370022)
(1.42784 -0.2007 0.00580889)
(1.39261 -0.203491 -0.0299154)
(1.37798 -0.157947 -0.00996786)
(1.46749 -0.134759 -0.0301658)
(1.51866 -0.127702 0.0305702)
(1.32239 -0.121555 -0.0393635)
(1.4799 -0.134385 0.0192208)
(1.32988 -0.12423 -0.0139023)
(1.37119 -0.154882 -0.0405201)
(0.740597 -0.154246 -0.0427634)
(0.305927 -0.0751593 -0.00697785)
(0.808664 -0.184995 -0.0447227)
(0.782964 -0.164396 -0.0467057)
(0.774488 -0.176078 -0.0313997)
(0.346091 -0.0808972 -0.0165972)
(0.336407 -0.0760174 -0.0188958)
(0.34324 -0.0790623 -0.0302883)
(0.340657 -0.078193 -0.0386171)
(1.36552 -0.150248 -0.0540774)
(1.36906 -0.166156 -0.022255)
(1.43255 -0.142074 0.0139393)
(1.38159 -0.127985 -0.0247725)
(1.35143 -0.153573 -0.0548571)
(1.38592 -0.158139 -0.0220089)
(1.42535 -0.116297 -0.0143602)
(1.35672 -0.139883 -0.0900327)
(1.37895 -0.183295 -0.111795)
(1.45462 -0.0879899 0.0394239)
(1.38447 -0.00379226 -0.00590893)
(1.30962 -0.121892 -0.0996172)
(1.4226 -0.0934871 0.0214752)
(1.409 -0.179411 -0.107009)
(1.33864 -0.134869 -0.0564784)
(1.46077 -0.128408 0.0210478)
(1.31366 -0.105501 -0.0293417)
(1.48299 -0.0978137 0.00193385)
(1.28975 -0.11085 -0.0595894)
(1.3611 -0.136123 -0.0245327)
(1.44815 -0.101668 -0.00815068)
(1.37956 -0.148677 -0.077541)
(1.3566 -0.118083 -0.000522286)
(1.38012 -0.157333 -0.118746)
(1.35669 -0.0221446 -0.0149689)
(1.36394 -0.147989 -0.0739212)
(1.39622 -0.106149 0.0162125)
(1.41395 -0.171327 -0.110468)
(1.02392 -0.160005 -0.0535748)
(0.62349 -0.156759 -0.0221361)
(0.589753 -0.120038 0.00468079)
(0.963411 -0.201174 -0.0375294)
(0.606872 -0.121447 -0.0391676)
(0.986378 -0.209905 -0.0553489)
(1.00544 -0.1556 -0.030809)
(1.0002 -0.153106 -0.0242478)
(0.602322 -0.148217 -0.0169731)
(0.609607 -0.125112 -0.0350982)
(0.987919 -0.208071 -0.0429407)