/*--------------------------------*- C++ -*----------------------------------*\
| =========                 |                                                 |
| \\      /  F ield         | OpenFOAM: The Open Source CFD Toolbox           |
|  \\    /   O peration     | Version:  2012                                  |
|   \\  /    A nd           | Website:  www.openfoam.com                      |
|    \\/     M anipulation  |                                                 |
\*---------------------------------------------------------------------------*/
FoamFile
{
    version     2.0;
    format      ascii;
    class       surfaceVectorField;
    location    "0.105/fluid";
    object      Uf;
}
// * * * * * * * * * * * * * * * * * * * * * * * * * * * * * * * * * * * * * //

dimensions      [0 1 -1 0 0 0 0];


internalField   nonuniform List<vector> 
46886
(
(1.28052 -0.0536571 0.000401256)
(1.24484 -0.0205583 -0.00653234)
(1.22566 -0.0268829 -0.0107348)
(1.24033 -0.0177223 -0.0109952)
(1.24308 -0.0206833 -0.00764776)
(1.26254 -0.056082 -0.00617998)
(1.27552 -0.0476264 -0.00958125)
(1.25962 -0.0500825 -0.0146874)
(1.20037 -0.0186244 -0.00798911)
(1.20747 -0.0340021 -0.00545593)
(1.2078 -0.0295735 -0.00466034)
(1.20842 -0.0258706 -0.00577421)
(1.20869 -0.0217402 -0.00485565)
(1.20395 -0.0188671 -0.00779385)
(1.20485 -0.00704638 -0.00437493)
(1.20175 -0.00767065 -0.00550678)
(1.20566 -0.00706132 -0.00451174)
(1.20507 -0.00652185 -0.00440759)
(1.20476 -0.00646031 -0.00432906)
(1.20328 -0.00666887 -0.00482756)
(1.20248 -0.00533713 -0.00339196)
(1.20222 -0.00548931 -0.0036668)
(1.20288 -0.00531972 -0.00356932)
(1.20245 -0.00499576 -0.00330564)
(1.20255 -0.00497201 -0.00333122)
(1.20278 -0.00499992 -0.00344429)
(1.20135 -0.00390973 -0.00243943)
(1.20129 -0.00393131 -0.00257717)
(1.20158 -0.00397329 -0.00258025)
(1.20138 -0.0036493 -0.00236753)
(1.20163 -0.00367381 -0.00237074)
(1.20159 -0.00370346 -0.00248274)
(1.20077 -0.00271804 -0.00171724)
(1.20072 -0.00273118 -0.00180259)
(1.20092 -0.00278666 -0.00182012)
(1.2008 -0.00253734 -0.00166506)
(1.20098 -0.00257407 -0.00167994)
(1.20095 -0.00259552 -0.00175016)
(1.20044 -0.00183875 -0.00119721)
(1.2004 -0.00184696 -0.00124885)
(1.20054 -0.0018974 -0.00127002)
(1.20047 -0.00171779 -0.00115927)
(1.20059 -0.00175209 -0.00117774)
(1.20056 -0.00176772 -0.00121966)
(1.20025 -0.0012233 -0.000826058)
(1.20023 -0.00122767 -0.000857225)
(1.20032 -0.00126819 -0.000877819)
(1.20028 -0.00114447 -0.000799082)
(1.20036 -0.00117289 -0.000817131)
(1.20034 -0.00118324 -0.000841678)
(1.20016 -0.000805619 -0.000564507)
(1.20014 -0.000808336 -0.000583087)
(1.2002 -0.000837955 -0.000600327)
(1.20018 -0.000754486 -0.000544751)
(1.20023 -0.000775522 -0.000560051)
(1.20022 -0.000782587 -0.000574438)
(1.2001 -0.000527076 -0.000380269)
(1.20009 -0.000528952 -0.000391596)
(1.20013 -0.000549737 -0.000405103)
(1.20012 -0.000494628 -0.000366673)
(1.20015 -0.000509182 -0.00037871)
(1.20014 -0.000514188 -0.000387215)
(1.20007 -0.00034376 -0.00025443)
(1.20007 -0.000345525 -0.000261375)
(1.20009 -0.000359648 -0.000271414)
(1.20008 -0.000322918 -0.000245607)
(1.20011 -0.000333046 -0.0002545)
(1.2001 -0.000336886 -0.000259571)
(1.20005 -0.000220484 -0.000171442)
(1.20005 -0.000221958 -0.00017539)
(1.20007 -0.000231697 -0.000182376)
(1.20006 -0.000206762 -0.000165235)
(1.20008 -0.000213945 -0.000171545)
(1.20007 -0.00021664 -0.00017431)
(1.20004 -0.000139415 -0.000113103)
(1.20004 -0.000140171 -0.000115603)
(1.20005 -0.000146698 -0.0001211)
(1.20005 -0.000130946 -0.00010863)
(1.20006 -0.000135813 -0.000113554)
(1.20006 -0.000137367 -0.000115235)
(1.20004 -8.65193e-05 -7.2067e-05)
(1.20004 -8.6885e-05 -7.37353e-05)
(1.20005 -9.18438e-05 -7.77673e-05)
(1.20005 -8.06254e-05 -6.89806e-05)
(1.20005 -8.45934e-05 -7.28165e-05)
(1.20005 -8.5601e-05 -7.40256e-05)
(1.20004 -4.62495e-05 -4.2134e-05)
(1.20004 -4.68536e-05 -4.29508e-05)
(1.20004 -5.05008e-05 -4.60133e-05)
(1.20004 -4.19787e-05 -3.96625e-05)
(1.20005 -4.54983e-05 -4.25268e-05)
(1.20005 -4.58256e-05 -4.31049e-05)
(1.21983 -0.00355895 -0.0010252)
(1.21602 -0.00472781 0.000583702)
(1.21488 -0.00619767 0.000153424)
(1.21522 -0.00407016 0.000498033)
(1.21591 -0.00234847 -0.000385149)
(1.21161 -0.010537 -0.00147535)
(1.20919 -0.00753211 -0.00371277)
(1.21187 -0.010183 -0.00128874)
(1.21123 -0.00920649 -0.00153164)
(1.21083 -0.00934953 -0.00166831)
(1.21011 -0.00636435 -0.00237988)
(1.20702 -0.00610284 -0.00234139)
(1.20539 -0.00569003 -0.00310835)
(1.20751 -0.0062348 -0.00232527)
(1.20656 -0.00548011 -0.00238459)
(1.20621 -0.00462497 -0.0025371)
(1.20697 -0.0055309 -0.00239261)
(1.20407 -0.00388753 -0.00218882)
(1.20372 -0.00399046 -0.00240758)
(1.20441 -0.00394567 -0.0022652)
(1.20389 -0.00359465 -0.00216699)
(1.2041 -0.00338771 -0.00214238)
(1.20419 -0.00362252 -0.00223536)
(1.20257 -0.00273967 -0.00172894)
(1.20251 -0.00282538 -0.00183165)
(1.20278 -0.00278204 -0.00181297)
(1.20251 -0.0025591 -0.00169408)
(1.20275 -0.00249784 -0.00168384)
(1.20271 -0.00259197 -0.0017636)
(1.20169 -0.00193379 -0.00129794)
(1.20165 -0.00199809 -0.00136141)
(1.20184 -0.00197777 -0.00136588)
(1.20166 -0.0018095 -0.00126737)
(1.20183 -0.00177679 -0.00127425)
(1.2018 -0.00184672 -0.00132382)
(1.2011 -0.00133446 -0.000952586)
(1.20108 -0.00138043 -0.000991936)
(1.20121 -0.00137342 -0.00100461)
(1.20109 -0.00125004 -0.000927749)
(1.20121 -0.00123258 -0.000940788)
(1.20119 -0.00128336 -0.000970892)
(1.20072 -0.000906766 -0.000686325)
(1.2007 -0.000938837 -0.000710918)
(1.2008 -0.000937658 -0.000725685)
(1.20072 -0.000850159 -0.000666714)
(1.2008 -0.000841029 -0.000681194)
(1.20079 -0.000877059 -0.000699599)
(1.20047 -0.000605008 -0.000483102)
(1.20046 -0.000627046 -0.00049822)
(1.20053 -0.00062875 -0.000512137)
(1.20048 -0.000567358 -0.000468133)
(1.20053 -0.000563046 -0.000481294)
(1.20052 -0.000588089 -0.000492297)
(1.20031 -0.000398809 -0.000335988)
(1.20031 -0.000413936 -0.000345134)
(1.20035 -0.000415676 -0.000356534)
(1.20032 -0.000374677 -0.000325156)
(1.20035 -0.000372132 -0.00033569)
(1.20035 -0.000389367 -0.000342124)
(1.20021 -0.000261443 -0.000230288)
(1.20021 -0.000271745 -0.000236039)
(1.20024 -0.000273471 -0.000244982)
(1.20022 -0.000245561 -0.000222653)
(1.20024 -0.000244397 -0.000230813)
(1.20024 -0.000256218 -0.000234748)
(1.20015 -0.000169428 -0.000158183)
(1.20015 -0.000175991 -0.000161369)
(1.20016 -0.000177518 -0.000167692)
(1.20015 -0.000159618 -0.000152744)
(1.20017 -0.00015913 -0.000158602)
(1.20017 -0.000166662 -0.000160724)
(1.20011 -0.000108829 -0.000106268)
(1.20011 -0.000113626 -0.000108321)
(1.20012 -0.000114835 -0.000113554)
(1.20011 -0.000102011 -0.000102232)
(1.20012 -0.000103345 -0.000106989)
(1.20012 -0.000107497 -0.000108265)
(1.20009 -6.53934e-05 -6.89638e-05)
(1.20009 -7.06331e-05 -7.04134e-05)
(1.20009 -6.96061e-05 -7.42674e-05)
(1.20009 -6.05707e-05 -6.61745e-05)
(1.2001 -6.35919e-05 -6.94327e-05)
(1.2001 -6.44129e-05 -7.08148e-05)
(1.20008 -3.41965e-05 -3.98719e-05)
(1.20008 -3.88923e-05 -4.08357e-05)
(1.20008 -3.71931e-05 -4.39878e-05)
(1.20008 -3.09873e-05 -3.72219e-05)
(1.20008 -3.67388e-05 -4.0177e-05)
(1.20008 -3.35379e-05 -4.09657e-05)
(1.21131 -0.00144931 0.000239041)
(1.21191 -0.000543134 -0.000152688)
(1.2111 -0.00172473 7.76429e-05)
(1.21109 -0.000480435 2.26311e-05)
(1.21099 -0.00127313 0.00022957)
(1.20981 -0.00318572 -0.000889081)
(1.20941 -0.0024959 -0.00138672)
(1.20997 -0.00296571 -0.000784265)
(1.20938 -0.0030001 -0.00100976)
(1.20938 -0.00183223 -0.00104145)
(1.20959 -0.00284031 -0.0009189)
(1.20709 -0.002564 -0.00146423)
(1.20669 -0.00255443 -0.00170769)
(1.2074 -0.00255693 -0.00144511)
(1.20675 -0.00235413 -0.00151351)
(1.20691 -0.00182464 -0.00148462)
(1.20704 -0.00234103 -0.00150101)
(1.2048 -0.00181066 -0.00150502)
(1.20471 -0.00199607 -0.00160179)
(1.20507 -0.0018253 -0.00154071)
(1.20461 -0.00168651 -0.00150691)
(1.20487 -0.00147168 -0.00148247)
(1.20485 -0.00169144 -0.00153895)
(1.20329 -0.00132095 -0.00129609)
(1.20327 -0.00146347 -0.00135443)
(1.20349 -0.00133859 -0.00134523)
(1.20318 -0.00123655 -0.00128201)
(1.20338 -0.00110214 -0.00128405)
(1.20337 -0.00125062 -0.00132324)
(1.20223 -0.000944617 -0.00103953)
(1.20223 -0.00104957 -0.00107786)
(1.20239 -0.000964786 -0.00108614)
(1.20217 -0.000885433 -0.00102176)
(1.20231 -0.000792211 -0.00103567)
(1.20231 -0.000902452 -0.00106084)
(1.2015 -0.000660137 -0.000799636)
(1.2015 -0.000735153 -0.000824678)
(1.20162 -0.000678548 -0.000839037)
(1.20146 -0.00061922 -0.000782691)
(1.20157 -0.000556113 -0.00079963)
(1.20157 -0.000635102 -0.000815596)
(1.20101 -0.00045147 -0.000597244)
(1.20101 -0.000505142 -0.000613521)
(1.20109 -0.00046672 -0.000628881)
(1.20098 -0.000423489 -0.000582595)
(1.20105 -0.000382926 -0.000598913)
(1.20106 -0.000436869 -0.000609109)
(1.20067 -0.000301526 -0.000432935)
(1.20068 -0.000340164 -0.000443375)
(1.20073 -0.000313435 -0.0004577)
(1.20066 -0.00028287 -0.000420968)
(1.20071 -0.000258427 -0.000435145)
(1.20072 -0.000293299 -0.000441714)
(1.20046 -0.000196913 -0.000307086)
(1.20046 -0.000225415 -0.00031371)
(1.2005 -0.000205846 -0.00032525)
(1.20045 -0.000183967 -0.000298025)
(1.20048 -0.000170811 -0.000308849)
(1.20049 -0.000192053 -0.000313169)
(1.20031 -0.000123656 -0.000214805)
(1.20032 -0.000147145 -0.000218822)
(1.20034 -0.0001298 -0.000227839)
(1.20031 -0.000115443 -0.000208219)
(1.20033 -0.000110822 -0.000215984)
(1.20034 -0.000120818 -0.000219046)
(1.20022 -7.59373e-05 -0.000150773)
(1.20022 -9.72392e-05 -0.000152718)
(1.20024 -8.02944e-05 -0.000159521)
(1.20022 -7.07354e-05 -0.000145792)
(1.20024 -7.37891e-05 -0.000151375)
(1.20024 -7.45941e-05 -0.000153068)
(1.20015 -4.49382e-05 -0.00010353)
(1.20016 -6.48864e-05 -0.000104534)
(1.20017 -4.77656e-05 -0.000110052)
(1.20016 -4.15282e-05 -9.94558e-05)
(1.20017 -4.946e-05 -0.000103732)
(1.20017 -4.41368e-05 -0.000104964)
(1.20012 -2.10004e-05 -6.59043e-05)
(1.20012 -4.00545e-05 -6.67351e-05)
(1.20013 -2.3669e-05 -7.10074e-05)
(1.20012 -1.78964e-05 -6.30947e-05)
(1.20013 -3.03115e-05 -6.60148e-05)
(1.20013 -2.02802e-05 -6.74954e-05)
(1.2001 -3.99521e-06 -3.81417e-05)
(1.2001 -2.17525e-05 -3.87199e-05)
(1.2001 -5.00079e-06 -4.21551e-05)
(1.2001 -2.69672e-06 -3.54812e-05)
(1.20011 -1.96533e-05 -3.8096e-05)
(1.20011 -3.37175e-06 -3.92511e-05)
(1.22167 -0.00437332 -0.00442884)
(1.22095 -0.00412984 -0.00561089)
(1.21662 -0.00302313 -0.00368207)
(1.21886 -0.00286326 -0.00321412)
(1.21802 -0.00194835 -0.00237846)
(1.21106 -0.00384893 -0.0051175)
(1.21023 -0.0054617 -0.00462476)
(1.20986 -0.00544102 -0.00800872)
(1.2101 -0.00414148 -0.0050722)
(1.20955 -0.0043901 -0.00660387)
(1.21032 -0.00405351 -0.00464299)
(1.20603 -0.00487157 -0.00442537)
(1.20579 -0.00500338 -0.00508874)
(1.20685 -0.00456117 -0.00449233)
(1.206 -0.00445043 -0.00419309)
(1.20588 -0.00440957 -0.00453664)
(1.20638 -0.00431979 -0.00410933)
(1.20369 -0.00403306 -0.00333125)
(1.20368 -0.00405543 -0.00346253)
(1.20409 -0.00396922 -0.00339498)
(1.20363 -0.0037658 -0.00314704)
(1.20388 -0.00371597 -0.00315127)
(1.20398 -0.00372196 -0.00317642)
(1.20232 -0.0030873 -0.00240784)
(1.20232 -0.00308489 -0.00247189)
(1.20258 -0.00309896 -0.00247224)
(1.20231 -0.00287827 -0.00227493)
(1.20254 -0.00288314 -0.00227548)
(1.20255 -0.00289105 -0.00231616)
(1.20147 -0.0022274 -0.00171043)
(1.20146 -0.0022279 -0.0017474)
(1.20165 -0.00226267 -0.00176278)
(1.20147 -0.00207778 -0.00161586)
(1.20165 -0.00209956 -0.0016295)
(1.20164 -0.0021096 -0.00165181)
(1.20094 -0.00155238 -0.00119516)
(1.20092 -0.00155335 -0.0012149)
(1.20106 -0.00159002 -0.00123551)
(1.20095 -0.00145007 -0.00112784)
(1.20107 -0.00147441 -0.00114583)
(1.20106 -0.00148336 -0.00115603)
(1.20061 -0.00106234 -0.000825727)
(1.20059 -0.00106294 -0.000835825)
(1.20069 -0.00109439 -0.000855443)
(1.20062 -0.000994409 -0.000778965)
(1.2007 -0.00101621 -0.000796398)
(1.20069 -0.00102293 -0.000800196)
(1.2004 -0.000714193 -0.000563237)
(1.2004 -0.000715654 -0.000567486)
(1.20046 -0.000740109 -0.000584543)
(1.20041 -0.000669498 -0.000530645)
(1.20047 -0.000686617 -0.000545699)
(1.20046 -0.000692412 -0.000546077)
(1.20027 -0.000475205 -0.000379808)
(1.20027 -0.000476206 -0.000381469)
(1.20031 -0.00049404 -0.000394792)
(1.20028 -0.000446187 -0.00035744)
(1.20032 -0.000458829 -0.000369083)
(1.20032 -0.000462817 -0.000368107)
(1.20019 -0.000315591 -0.000255114)
(1.20019 -0.000316613 -0.000255468)
(1.20022 -0.000328899 -0.000265318)
(1.2002 -0.000296777 -0.000239787)
(1.20023 -0.000305556 -0.000248722)
(1.20022 -0.000308844 -0.000247277)
(1.20014 -0.000205229 -0.00016986)
(1.20014 -0.000206516 -0.000169173)
(1.20016 -0.000215366 -0.000176349)
(1.20014 -0.000192695 -0.000159438)
(1.20016 -0.000199265 -0.000165772)
(1.20016 -0.000201829 -0.000164046)
(1.2001 -0.000131208 -0.000113024)
(1.2001 -0.00013178 -0.00011275)
(1.20012 -0.000137807 -0.000117794)
(1.20011 -0.0001233 -0.000106066)
(1.20012 -0.000127781 -0.000110645)
(1.20012 -0.000129103 -0.000109618)
(1.20008 -8.27368e-05 -7.38137e-05)
(1.20008 -8.31116e-05 -7.34338e-05)
(1.20009 -8.75632e-05 -7.70618e-05)
(1.20009 -7.71825e-05 -6.90497e-05)
(1.2001 -8.07452e-05 -7.24202e-05)
(1.2001 -8.17234e-05 -7.15557e-05)
(1.20007 -4.48624e-05 -4.32956e-05)
(1.20007 -4.5452e-05 -4.31598e-05)
(1.20008 -4.9064e-05 -4.65178e-05)
(1.20008 -4.05209e-05 -3.95747e-05)
(1.20008 -4.40213e-05 -4.28341e-05)
(1.20008 -4.45369e-05 -4.24477e-05)
(1.21348 -0.00131559 -0.000852813)
(1.21266 -0.00196559 0.000413629)
(1.21202 -0.00227258 4.94635e-05)
(1.21192 -0.00144401 0.000293565)
(1.21216 -0.000919563 -0.00033602)
(1.21006 -0.00473196 -0.00168011)
(1.2094 -0.00375571 -0.00330393)
(1.21025 -0.00407238 -0.00149076)
(1.20974 -0.00369458 -0.00162723)
(1.20953 -0.00408199 -0.00182044)
(1.20939 -0.00303176 -0.00227024)
(1.2069 -0.00375538 -0.00237648)
(1.2064 -0.0035977 -0.00292266)
(1.20727 -0.00358376 -0.0023087)
(1.20658 -0.00337281 -0.00233877)
(1.20662 -0.00296626 -0.00242011)
(1.20689 -0.00325267 -0.00226769)
(1.20457 -0.00282976 -0.00217762)
(1.20449 -0.00288221 -0.00229712)
(1.20487 -0.00279158 -0.00218773)
(1.20443 -0.00262101 -0.00208864)
(1.20467 -0.00249086 -0.00205454)
(1.2047 -0.00258731 -0.0020896)
(1.20313 -0.00215112 -0.00171868)
(1.20312 -0.00220369 -0.00176689)
(1.20335 -0.00215387 -0.00174959)
(1.20306 -0.0020087 -0.00163803)
(1.20327 -0.00195065 -0.0016279)
(1.20327 -0.00201221 -0.00165577)
(1.20215 -0.00158457 -0.0012968)
(1.20213 -0.00162957 -0.00132355)
(1.20231 -0.00160487 -0.00132752)
(1.2021 -0.00148214 -0.00123323)
(1.20227 -0.00144923 -0.0012398)
(1.20226 -0.00150086 -0.00125317)
(1.20146 -0.0011296 -0.000951934)
(1.20145 -0.0011643 -0.000965873)
(1.20158 -0.00115398 -0.000978589)
(1.20144 -0.00105841 -0.000903322)
(1.20155 -0.00104015 -0.000916474)
(1.20155 -0.00108022 -0.000921528)
(1.20099 -0.000787826 -0.000686051)
(1.20098 -0.000813834 -0.000692401)
(1.20108 -0.000810176 -0.000706575)
(1.20098 -0.00073914 -0.000649871)
(1.20106 -0.000729098 -0.000663771)
(1.20106 -0.000759208 -0.000664211)
(1.20067 -0.000537756 -0.00048495)
(1.20067 -0.000556124 -0.000487799)
(1.20073 -0.000556453 -0.00050144)
(1.20067 -0.000504887 -0.000458638)
(1.20072 -0.000500141 -0.000471638)
(1.20072 -0.000521597 -0.0004704)
(1.20046 -0.000361058 -0.000335533)
(1.20046 -0.00037437 -0.000336292)
(1.2005 -0.000375189 -0.00034786)
(1.20046 -0.000339545 -0.000316683)
(1.2005 -0.000336648 -0.000327393)
(1.2005 -0.000352158 -0.000325604)
(1.20032 -0.000240701 -0.000230996)
(1.20032 -0.000249928 -0.000231007)
(1.20035 -0.000251066 -0.000239462)
(1.20032 -0.000226431 -0.00021817)
(1.20035 -0.000225106 -0.000226088)
(1.20035 -0.000235785 -0.000224392)
(1.20023 -0.000158375 -0.000157604)
(1.20023 -0.000164453 -0.000156925)
(1.20025 -0.000165621 -0.000163594)
(1.20023 -0.000149284 -0.000148265)
(1.20025 -0.000148724 -0.00015434)
(1.20025 -0.00015579 -0.000152662)
(1.20017 -0.000103118 -0.000105617)
(1.20017 -0.000107598 -0.000104963)
(1.20018 -0.000108333 -0.000109634)
(1.20017 -9.66959e-05 -9.92209e-05)
(1.20018 -9.79824e-05 -0.000103353)
(1.20018 -0.000101509 -0.000102094)
(1.20013 -6.1071e-05 -7.0241e-05)
(1.20013 -6.69601e-05 -6.94939e-05)
(1.20014 -6.53048e-05 -7.32114e-05)
(1.20013 -5.62324e-05 -6.56968e-05)
(1.20014 -5.99809e-05 -6.85045e-05)
(1.20014 -6.00826e-05 -6.80151e-05)
(1.20011 -3.15732e-05 -4.14897e-05)
(1.20011 -3.66943e-05 -4.1545e-05)
(1.20012 -3.4297e-05 -4.4368e-05)
(1.20011 -2.84804e-05 -3.7859e-05)
(1.20012 -3.37752e-05 -4.08757e-05)
(1.20012 -3.09042e-05 -4.0538e-05)
(1.21002 -0.000732187 0.000154432)
(1.21021 -0.0003526 -0.000179259)
(1.20982 -0.000835334 -1.20056e-05)
(1.20979 -0.000268845 -3.18636e-05)
(1.20972 -0.000584298 0.000117518)
(1.20892 -0.00177849 -0.000939721)
(1.20874 -0.00152249 -0.00132057)
(1.20901 -0.00156132 -0.000817835)
(1.20858 -0.00164255 -0.00102553)
(1.20865 -0.00108786 -0.00102494)
(1.20871 -0.00148262 -0.000914125)
(1.20688 -0.001666 -0.00148042)
(1.20673 -0.00171344 -0.00163776)
(1.2071 -0.00159095 -0.00142119)
(1.2066 -0.00152628 -0.00148155)
(1.2068 -0.00123084 -0.00143865)
(1.20683 -0.00146695 -0.00142727)
(1.20501 -0.00133542 -0.0015046)
(1.20499 -0.0014566 -0.00154686)
(1.20524 -0.00131349 -0.00149557)
(1.20485 -0.00124446 -0.00146145)
(1.20507 -0.00108791 -0.00143701)
(1.20507 -0.00122564 -0.0014486)
(1.20361 -0.00103967 -0.00129606)
(1.20361 -0.00114268 -0.00131619)
(1.2038 -0.00103929 -0.00130747)
(1.2035 -0.000972541 -0.00124729)
(1.20368 -0.000861053 -0.00124938)
(1.20369 -0.000972894 -0.00125143)
(1.20255 -0.000775213 -0.00104157)
(1.20255 -0.000856365 -0.00105114)
(1.20271 -0.000784075 -0.00105927)
(1.20248 -0.000726349 -0.000997018)
(1.20262 -0.000646428 -0.00101046)
(1.20263 -0.000734548 -0.00100756)
(1.20178 -0.00055953 -0.000801097)
(1.20178 -0.000620529 -0.000804737)
(1.2019 -0.000570887 -0.000819094)
(1.20173 -0.000524939 -0.000763992)
(1.20183 -0.000469281 -0.00078048)
(1.20184 -0.00053528 -0.000775782)
(1.20123 -0.000392986 -0.000598303)
(1.20123 -0.000438637 -0.000598841)
(1.20131 -0.000403979 -0.000613832)
(1.2012 -0.000369045 -0.000569043)
(1.20127 -0.000332967 -0.000584819)
(1.20128 -0.000378969 -0.000579621)
(1.20084 -0.000268473 -0.000435867)
(1.20085 -0.000302873 -0.000435335)
(1.20091 -0.000277961 -0.000449078)
(1.20083 -0.000251902 -0.000413693)
(1.20088 -0.000229847 -0.000427364)
(1.20089 -0.000260505 -0.000422976)
(1.20059 -0.000178358 -0.000308765)
(1.20059 -0.000204976 -0.000307651)
(1.20063 -0.000185966 -0.000319552)
(1.20058 -0.000167033 -0.000292463)
(1.20061 -0.000156155 -0.000303337)
(1.20062 -0.000174045 -0.000300356)
(1.20041 -0.000112782 -0.000216842)
(1.20042 -0.000135721 -0.000215467)
(1.20044 -0.000118513 -0.000224282)
(1.2004 -0.000105382 -0.000205087)
(1.20043 -0.000102182 -0.000213177)
(1.20043 -0.000110493 -0.000210511)
(1.20029 -7.01719e-05 -0.000148916)
(1.2003 -9.08731e-05 -0.00014788)
(1.20031 -7.38803e-05 -0.000154526)
(1.20029 -6.55015e-05 -0.000140185)
(1.20031 -6.91219e-05 -0.000146557)
(1.20031 -6.88478e-05 -0.000144284)
(1.20021 -4.16099e-05 -0.000101371)
(1.20022 -6.1632e-05 -9.99085e-05)
(1.20023 -4.43995e-05 -0.000104769)
(1.20021 -3.80659e-05 -9.53735e-05)
(1.20022 -4.69383e-05 -9.91496e-05)
(1.20022 -4.08512e-05 -9.77042e-05)
(1.20016 -1.73599e-05 -6.78558e-05)
(1.20017 -3.632e-05 -6.64304e-05)
(1.20017 -1.96923e-05 -7.10523e-05)
(1.20016 -1.43358e-05 -6.35978e-05)
(1.20017 -2.74889e-05 -6.54427e-05)
(1.20017 -1.63739e-05 -6.61349e-05)
(1.20014 -1.4335e-06 -3.94218e-05)
(1.20014 -2.02064e-05 -3.90802e-05)
(1.20014 -2.54062e-06 -4.21176e-05)
(1.20014 5.29479e-09 -3.57009e-05)
(1.20014 -1.79084e-05 -3.85036e-05)
(1.20014 -8.58077e-07 -3.8477e-05)
(1.21286 -0.000515397 -0.000620314)
(1.21266 -0.000598357 -0.000896481)
(1.21204 -0.000684508 -0.001008)
(1.21202 -0.000489037 -0.000773722)
(1.2119 -0.000392424 -0.00045976)
(1.20994 -0.00249699 -0.00289681)
(1.20998 -0.00249001 -0.00321089)
(1.21025 -0.00205095 -0.0026443)
(1.20963 -0.00220117 -0.00283076)
(1.20952 -0.00236145 -0.00283693)
(1.20975 -0.00211683 -0.0024094)
(1.20692 -0.00309856 -0.00305578)
(1.20698 -0.00309193 -0.00309361)
(1.20734 -0.00288326 -0.00289831)
(1.20668 -0.00293103 -0.00281444)
(1.20691 -0.00280014 -0.0027761)
(1.20703 -0.00278106 -0.00264087)
(1.20468 -0.00289478 -0.00249655)
(1.20472 -0.00287893 -0.0024813)
(1.20502 -0.00281611 -0.00243158)
(1.20456 -0.00272078 -0.00228524)
(1.20482 -0.00266678 -0.00225217)
(1.20486 -0.00266577 -0.00221453)
(1.20314 -0.00236393 -0.00187459)
(1.20316 -0.00235914 -0.00186001)
(1.2034 -0.00235306 -0.00185221)
(1.20308 -0.00221728 -0.00171677)
(1.2033 -0.00220724 -0.00171168)
(1.20331 -0.00221571 -0.00168279)
(1.20209 -0.00179103 -0.00135568)
(1.20209 -0.00179069 -0.00133952)
(1.20228 -0.00180963 -0.00134887)
(1.20206 -0.00167984 -0.00124023)
(1.20223 -0.00168977 -0.00124914)
(1.20223 -0.00170072 -0.00122276)
(1.20139 -0.00129685 -0.000956395)
(1.20139 -0.00129845 -0.000940728)
(1.20152 -0.00132375 -0.00095576)
(1.20138 -0.00121778 -0.000874496)
(1.2015 -0.00123393 -0.000887816)
(1.2015 -0.00124399 -0.000865253)
(1.20093 -0.000915366 -0.00066502)
(1.20093 -0.000917121 -0.000651436)
(1.20102 -0.000940599 -0.000666491)
(1.20093 -0.000860799 -0.000607368)
(1.20101 -0.000876743 -0.000620748)
(1.20101 -0.000884701 -0.000602185)
(1.20063 -0.00063233 -0.000454782)
(1.20063 -0.000634128 -0.000443494)
(1.20069 -0.000653893 -0.000456755)
(1.20063 -0.000595078 -0.000414404)
(1.20069 -0.000608966 -0.000426319)
(1.20068 -0.000615163 -0.000411799)
(1.20043 -0.000429636 -0.000305862)
(1.20043 -0.00043116 -0.000297054)
(1.20047 -0.000446267 -0.000307535)
(1.20043 -0.000405212 -0.000278488)
(1.20047 -0.000415804 -0.000287737)
(1.20047 -0.000420323 -0.000276952)
(1.2003 -0.000291368 -0.000205289)
(1.2003 -0.000292733 -0.00019828)
(1.20033 -0.000303565 -0.000206258)
(1.2003 -0.000275242 -0.000186327)
(1.20033 -0.000283063 -0.000193478)
(1.20033 -0.000286566 -0.000185446)
(1.20022 -0.000192951 -0.000136952)
(1.20021 -0.000194175 -0.000132068)
(1.20024 -0.00020242 -0.000137692)
(1.20022 -0.000181716 -0.000124398)
(1.20024 -0.000187902 -0.000129499)
(1.20024 -0.000190383 -0.000124411)
(1.20016 -0.000123469 -9.17681e-05)
(1.20016 -0.000124332 -8.79209e-05)
(1.20018 -0.000129922 -9.16518e-05)
(1.20016 -0.00011633 -8.28895e-05)
(1.20018 -0.000120404 -8.62753e-05)
(1.20018 -0.000121823 -8.32129e-05)
(1.20013 -7.88775e-05 -5.96331e-05)
(1.20012 -7.96129e-05 -5.6037e-05)
(1.20014 -8.3466e-05 -5.9232e-05)
(1.20013 -7.3909e-05 -5.22275e-05)
(1.20014 -7.70326e-05 -5.5044e-05)
(1.20014 -7.78841e-05 -5.41542e-05)
(1.2001 -4.3372e-05 -3.6101e-05)
(1.2001 -4.40628e-05 -3.29945e-05)
(1.20011 -4.74956e-05 -3.52339e-05)
(1.20011 -3.94999e-05 -3.01659e-05)
(1.20011 -4.26314e-05 -3.24603e-05)
(1.20011 -4.28374e-05 -3.31848e-05)
(1.21024 -0.000555347 1.75286e-05)
(1.21033 -0.000443492 -0.000339669)
(1.20995 -0.000672313 -0.000206171)
(1.20988 -0.000334898 -0.000207429)
(1.20984 -0.000422723 -1.92082e-05)
(1.20895 -0.0018946 -0.00133401)
(1.20886 -0.0017744 -0.00167982)
(1.20905 -0.00159878 -0.00115288)
(1.20861 -0.00177613 -0.00135898)
(1.20866 -0.00145838 -0.00135425)
(1.20875 -0.00156881 -0.00116917)
(1.20687 -0.00215889 -0.00179913)
(1.20682 -0.0021595 -0.00189363)
(1.20711 -0.00201057 -0.00167826)
(1.20662 -0.00201865 -0.00170185)
(1.2068 -0.00183965 -0.00164497)
(1.20686 -0.00191028 -0.00159083)
(1.20503 -0.00197957 -0.00166409)
(1.20504 -0.00201326 -0.00166384)
(1.20528 -0.00192172 -0.00160634)
(1.20489 -0.00186172 -0.00154207)
(1.2051 -0.00177063 -0.00150445)
(1.20512 -0.00182026 -0.00148302)
(1.20363 -0.0016449 -0.00134553)
(1.20363 -0.00168575 -0.00133467)
(1.20384 -0.00163332 -0.0013192)
(1.20353 -0.0015479 -0.0012424)
(1.20372 -0.00149266 -0.00123307)
(1.20373 -0.00154338 -0.00120952)
(1.20256 -0.00127594 -0.00103132)
(1.20256 -0.00131314 -0.00101748)
(1.20273 -0.00128591 -0.00101969)
(1.2025 -0.00120066 -0.000949926)
(1.20266 -0.00116835 -0.000954524)
(1.20266 -0.00121302 -0.000931316)
(1.20179 -0.00094636 -0.000763752)
(1.20179 -0.000976363 -0.000749748)
(1.20192 -0.000963208 -0.000758965)
(1.20175 -0.000891522 -0.000701997)
(1.20187 -0.000872692 -0.000711846)
(1.20187 -0.000908486 -0.000691249)
(1.20125 -0.000681396 -0.000551871)
(1.20124 -0.000704193 -0.000539429)
(1.20134 -0.000698992 -0.000550379)
(1.20122 -0.000642276 -0.000506354)
(1.20131 -0.000631841 -0.000517051)
(1.20131 -0.000659035 -0.000499976)
(1.20086 -0.000477517 -0.000391708)
(1.20086 -0.000494507 -0.000380976)
(1.20093 -0.000493225 -0.000391516)
(1.20085 -0.000450352 -0.000358206)
(1.20091 -0.00044494 -0.000368284)
(1.20091 -0.000464835 -0.000354618)
(1.2006 -0.000329157 -0.000272037)
(1.2006 -0.000341474 -0.00026356)
(1.20065 -0.000341737 -0.00027249)
(1.2006 -0.000311071 -0.000248916)
(1.20064 -0.000308182 -0.000257165)
(1.20064 -0.000322767 -0.000246837)
(1.20043 -0.000222935 -0.000188285)
(1.20042 -0.000232105 -0.000181493)
(1.20046 -0.000232587 -0.000188806)
(1.20042 -0.000210679 -0.000171416)
(1.20045 -0.000208927 -0.000178151)
(1.20045 -0.000219594 -0.000170507)
(1.2003 -0.000148662 -0.000127414)
(1.2003 -0.000154819 -0.000122361)
(1.20033 -0.000155514 -0.000127573)
(1.2003 -0.000140339 -0.000115482)
(1.20032 -0.0001396 -0.000120218)
(1.20032 -0.000146519 -0.000115516)
(1.20023 -9.64384e-05 -8.55022e-05)
(1.20022 -0.000100973 -8.16475e-05)
(1.20024 -0.000101447 -8.52759e-05)
(1.20022 -9.03414e-05 -7.68142e-05)
(1.20024 -9.17811e-05 -8.00551e-05)
(1.20024 -9.48464e-05 -7.80425e-05)
(1.20017 -5.73191e-05 -5.60126e-05)
(1.20018 -6.35424e-05 -5.17591e-05)
(1.20019 -6.1423e-05 -5.46066e-05)
(1.20017 -5.29499e-05 -4.8351e-05)
(1.20019 -5.76204e-05 -5.06875e-05)
(1.20018 -5.62479e-05 -5.04739e-05)
(1.20014 -2.94799e-05 -3.40315e-05)
(1.20014 -3.48241e-05 -3.07274e-05)
(1.20015 -3.24028e-05 -3.2685e-05)
(1.20015 -2.68394e-05 -2.80388e-05)
(1.20015 -3.15108e-05 -3.03456e-05)
(1.20015 -2.90981e-05 -3.13691e-05)
(1.20896 -0.000281493 2.19104e-05)
(1.20898 -0.000194509 -0.000101388)
(1.20881 -0.00033286 -9.22256e-05)
(1.20878 -0.000135131 -4.30591e-05)
(1.20875 -0.000223058 3.64624e-06)
(1.2082 -0.000857927 -0.000758205)
(1.20815 -0.00084219 -0.000856958)
(1.20826 -0.000736136 -0.000644116)
(1.20796 -0.000819022 -0.000787993)
(1.20806 -0.000600956 -0.000725327)
(1.20806 -0.000726277 -0.000680059)
(1.20672 -0.00100586 -0.00115045)
(1.20671 -0.00107312 -0.00116168)
(1.20689 -0.000938855 -0.00106434)
(1.20652 -0.000948218 -0.00110591)
(1.2067 -0.000792939 -0.00105336)
(1.2067 -0.000897579 -0.0010262)
(1.20521 -0.000945616 -0.0011704)
(1.20522 -0.00102899 -0.00115502)
(1.20541 -0.000917208 -0.00112021)
(1.20506 -0.000891757 -0.00110011)
(1.20525 -0.000773924 -0.00108062)
(1.20525 -0.000871262 -0.00104932)
(1.2039 -0.000795784 -0.00102552)
(1.20391 -0.000873626 -0.00100578)
(1.20409 -0.000789158 -0.000998404)
(1.20379 -0.000749975 -0.000955936)
(1.20396 -0.000658412 -0.000956921)
(1.20397 -0.000746945 -0.00092499)
(1.20285 -0.000625143 -0.00083256)
(1.20286 -0.000690793 -0.000812648)
(1.203 -0.000628994 -0.000818489)
(1.20277 -0.000589375 -0.000772168)
(1.20291 -0.000521659 -0.000781903)
(1.20292 -0.000594411 -0.000753336)
(1.20204 -0.000469872 -0.000644597)
(1.20205 -0.000521775 -0.00062683)
(1.20217 -0.00047776 -0.000637902)
(1.20199 -0.000443362 -0.00059562)
(1.20209 -0.000395021 -0.000608439)
(1.20211 -0.000451486 -0.00058453)
(1.20145 -0.000340688 -0.00048198)
(1.20146 -0.000380846 -0.000466744)
(1.20154 -0.000349367 -0.000478607)
(1.20141 -0.000321399 -0.000443504)
(1.20149 -0.000289065 -0.000455816)
(1.2015 -0.000329765 -0.00043632)
(1.20101 -0.000238934 -0.00035159)
(1.20102 -0.000270478 -0.000339212)
(1.20109 -0.000246949 -0.00034977)
(1.20099 -0.000225083 -0.000322381)
(1.20105 -0.000205257 -0.000332817)
(1.20106 -0.000232543 -0.000317688)
(1.20071 -0.000161905 -0.000252214)
(1.20072 -0.000187704 -0.000242777)
(1.20076 -0.000168441 -0.000251405)
(1.20069 -0.000152167 -0.000231061)
(1.20073 -0.00014254 -0.00023913)
(1.20074 -0.00015826 -0.000228298)
(1.2005 -0.000104614 -0.000176854)
(1.20051 -0.000126479 -0.00017001)
(1.20053 -0.000110003 -0.000177116)
(1.20049 -9.80859e-05 -0.000161412)
(1.20052 -9.56155e-05 -0.000168481)
(1.20052 -0.000103086 -0.000160686)
(1.20036 -6.55755e-05 -0.00012052)
(1.20036 -8.53596e-05 -0.000115185)
(1.20038 -6.91255e-05 -0.000120535)
(1.20035 -6.15167e-05 -0.000109096)
(1.20037 -6.50983e-05 -0.000114286)
(1.20037 -6.46751e-05 -0.000109244)
(1.20026 -3.91384e-05 -8.11573e-05)
(1.20027 -5.90969e-05 -7.64945e-05)
(1.20028 -4.20389e-05 -8.04883e-05)
(1.20026 -3.57272e-05 -7.25941e-05)
(1.20028 -4.56147e-05 -7.59503e-05)
(1.20028 -3.85941e-05 -7.3704e-05)
(1.2002 -1.43726e-05 -5.4587e-05)
(1.20021 -3.33951e-05 -4.90819e-05)
(1.20021 -1.69691e-05 -5.26102e-05)
(1.2002 -1.18355e-05 -4.68474e-05)
(1.20021 -2.67309e-05 -4.86803e-05)
(1.20021 -1.3972e-05 -4.90927e-05)
(1.20017 5.48559e-07 -3.24441e-05)
(1.20017 -1.93051e-05 -2.91374e-05)
(1.20018 -6.43906e-07 -3.11398e-05)
(1.20017 1.93132e-06 -2.64334e-05)
(1.20017 -1.70794e-05 -2.85135e-05)
(1.20018 1.17224e-06 -3.00364e-05)
(1.21036 -0.000270639 -0.000204444)
(1.21041 -0.000275554 -0.000260781)
(1.21015 -0.000420005 -0.000356152)
(1.21005 -0.00025834 -0.00023381)
(1.21009 -0.000243587 -0.000140023)
(1.20917 -0.00149849 -0.00119333)
(1.20923 -0.00149628 -0.00117753)
(1.2093 -0.00130256 -0.00101514)
(1.20887 -0.00153247 -0.0011467)
(1.20897 -0.00136931 -0.00104866)
(1.20907 -0.00136958 -0.000860677)
(1.20716 -0.00211173 -0.00146078)
(1.2072 -0.00211322 -0.00137733)
(1.20741 -0.00198555 -0.00130002)
(1.20691 -0.00206081 -0.00129102)
(1.20712 -0.0019508 -0.00123604)
(1.2072 -0.00197048 -0.00108821)
(1.20522 -0.00215337 -0.00129798)
(1.20525 -0.00216448 -0.00119614)
(1.20549 -0.00210307 -0.00116739)
(1.20505 -0.00206918 -0.00110733)
(1.20528 -0.00201421 -0.0010864)
(1.20532 -0.00204371 -0.00098085)
(1.20367 -0.001877 -0.00101576)
(1.20367 -0.00189101 -0.000916278)
(1.20389 -0.00187568 -0.000910858)
(1.20356 -0.00179137 -0.000846274)
(1.20376 -0.00177399 -0.000843137)
(1.20377 -0.00180394 -0.000773189)
(1.20253 -0.00149273 -0.000748885)