/*--------------------------------*- C++ -*----------------------------------*\
| =========                 |                                                 |
| \\      /  F ield         | OpenFOAM: The Open Source CFD Toolbox           |
|  \\    /   O peration     | Version:  2012                                  |
|   \\  /    A nd           | Website:  www.openfoam.com                      |
|    \\/     M anipulation  |                                                 |
\*---------------------------------------------------------------------------*/
FoamFile
{
    version     2.0;
    format      ascii;
    class       volScalarField::Internal;
    location    "0.105/fluid";
    object      V0;
}
// * * * * * * * * * * * * * * * * * * * * * * * * * * * * * * * * * * * * * //

dimensions      [0 3 0 0 0 0 0];


value           nonuniform List<scalar> 
16422
(
4.28295e-05
4.24851e-05
4.24604e-05
4.24835e-05
4.24945e-05
4.25002e-05
4.25035e-05
4.25055e-05
4.25088e-05
4.25105e-05
4.25127e-05
4.25125e-05
4.25115e-05
4.25109e-05
4.25086e-05
4.25971e-05
4.25625e-05
4.25191e-05
4.2512e-05
4.25101e-05
4.25109e-05
4.25111e-05
4.25096e-05
4.25101e-05
4.2512e-05
4.25145e-05
4.25116e-05
4.251e-05
4.25099e-05
4.2508e-05
4.2575e-05
4.25691e-05
4.25493e-05
4.2535e-05
4.25262e-05
4.25215e-05
4.25182e-05
4.25148e-05
4.25143e-05
4.25164e-05
4.25149e-05
4.25116e-05
4.25101e-05
4.25088e-05
4.25072e-05
4.25451e-05
4.24792e-05
4.24783e-05
4.24925e-05
4.25004e-05
4.25024e-05
4.25062e-05
4.2508e-05
4.25112e-05
4.25121e-05
4.2514e-05
4.25122e-05
4.25114e-05
4.25115e-05
4.25096e-05
4.25452e-05
4.25343e-05
4.25168e-05
4.25135e-05
4.25124e-05
4.25127e-05
4.25119e-05
4.25095e-05
4.25108e-05
4.25131e-05
4.25144e-05
4.25125e-05
4.25094e-05
4.25102e-05
4.25082e-05
4.2554e-05
4.25519e-05
4.25408e-05
4.25313e-05
4.25245e-05
4.25196e-05
4.25162e-05
4.25139e-05
4.25136e-05
4.25143e-05
4.2514e-05
4.2512e-05
4.25098e-05
4.25089e-05
4.25073e-05
4.25097e-05
4.25033e-05
4.2498e-05
4.25014e-05
4.25059e-05
4.25066e-05
4.25107e-05
4.25097e-05
4.25123e-05
4.25144e-05
4.25142e-05
4.25125e-05
4.25103e-05
4.25118e-05
4.25117e-05
4.25199e-05
4.25196e-05
4.25152e-05
4.25137e-05
4.2513e-05
4.25136e-05
4.25122e-05
4.25095e-05
4.251e-05
4.25132e-05
4.25154e-05
4.25132e-05
4.25088e-05
4.251e-05
4.25094e-05
4.25336e-05
4.25345e-05
4.25294e-05
4.25237e-05
4.25198e-05
4.25164e-05
4.25145e-05
4.25126e-05
4.25115e-05
4.25122e-05
4.25119e-05
4.25107e-05
4.25085e-05
4.25086e-05
4.2506e-05
4.25012e-05
4.25029e-05
4.25025e-05
4.25045e-05
4.25066e-05
4.2507e-05
4.25092e-05
4.25098e-05
4.2513e-05
4.25146e-05
4.25142e-05
4.25139e-05
4.25103e-05
4.25124e-05
4.25105e-05
4.2509e-05
4.25112e-05
4.25115e-05
4.25118e-05
4.25119e-05
4.25126e-05
4.25121e-05
4.25076e-05
4.2511e-05
4.25139e-05
4.25135e-05
4.25129e-05
4.25085e-05
4.25094e-05
4.25095e-05
4.25185e-05
4.25194e-05
4.25185e-05
4.25165e-05
4.25149e-05
4.25129e-05
4.25119e-05
4.251e-05
4.25112e-05
4.2512e-05
4.25106e-05
4.25089e-05
4.25082e-05
4.25074e-05
4.25066e-05
5.33521e-06
4.24435e-05
5.34254e-06
4.24566e-05
4.2519e-05
4.24258e-05
4.23623e-05
4.24224e-05
4.27713e-05
4.26085e-05
4.26214e-05
4.25982e-05
3.26307e-08
3.36861e-08
4.237e-05
4.2425e-05
4.24132e-05
4.24494e-05
4.26063e-05
4.26176e-05
4.25912e-05
4.25528e-05
4.2508e-05
4.25598e-05
4.25498e-05
4.25651e-05
4.24665e-05
4.25145e-05
4.25027e-05
3.36862e-08
6.8023e-08
5.38745e-06
3.37498e-08
4.19096e-05
4.3184e-05
6.81922e-08
3.47117e-08
6.80217e-08
3.72892e-08
5.39172e-06
5.35823e-06
3.37499e-08
5.39967e-06
3.29388e-08
4.19317e-05
4.32115e-05
4.24459e-05
6.81919e-08
4.20057e-05
4.31371e-05
7.14284e-08
8.13809e-08
6.62264e-08
7.6969e-08
5.3275e-06
4.27649e-05
4.27481e-05
8.13971e-08
4.30597e-05
4.29594e-05
6.91749e-08
4.23989e-05
4.22787e-05
4.25585e-05
4.20646e-05
4.27444e-05
4.23963e-05
3.3677e-08
3.36865e-08
5.15749e-06
6.72985e-07
6.64563e-07
5.5656e-06
6.69384e-07
5.15793e-06
5.5113e-06
5.30224e-06
6.79124e-08
5.19687e-06
5.17374e-06
6.79786e-08
5.15745e-06
5.16072e-06
6.75745e-07
3.37255e-08
5.69333e-06
5.62593e-06
6.80035e-07
6.68234e-07
6.73116e-07
6.64737e-07
6.76464e-07
6.72974e-07
3.37425e-08
5.57028e-06
6.69552e-07
5.58297e-06
6.71005e-07
6.87437e-07
6.79405e-07
6.75215e-07
5.31157e-06
6.79725e-08
5.2099e-06
5.46108e-06
5.17541e-06
5.51128e-06
5.30741e-06
5.30708e-06
6.81127e-08
5.15788e-06
5.51319e-06
5.30296e-06
5.16052e-06
5.5158e-06
1.16916e-07
5.44651e-06
5.49311e-06
8.82538e-08
5.42995e-06
5.429e-06
5.20083e-06
5.24915e-06
5.24084e-06
5.38971e-06
1.16993e-07
5.50112e-06
5.44276e-06
5.37862e-06
5.49211e-06
5.40296e-06
5.29902e-06
8.82669e-08
6.62633e-07
5.43061e-06
5.27732e-06
6.63759e-07
5.4291e-06
5.28293e-06
5.21288e-06
5.36238e-06
5.24995e-06
5.28935e-06
5.24359e-06
5.33402e-06
7.13608e-07
3.27625e-08
7.79266e-07
7.53996e-07
7.38811e-07
7.62828e-08
7.62616e-08
6.78925e-07
3.36872e-08
7.42808e-07
6.78764e-07
7.43039e-07
7.84406e-08
8.12164e-08
7.62543e-08
7.6264e-08
6.78654e-07
3.36855e-08
7.42811e-07
6.78714e-07
7.42696e-07
6.60665e-07
6.80222e-08
7.19304e-07
6.23306e-07
7.19204e-07
6.23364e-07
6.60722e-07
7.6251e-08
7.62617e-08
6.78109e-07
3.37497e-08
7.41741e-07
7.41645e-07
6.78157e-07
6.60844e-07
6.81931e-08
6.23847e-07
7.19266e-07
6.23895e-07
7.19194e-07
6.60895e-07
6.58705e-07
5.75837e-08
6.71133e-07
6.38153e-07
6.95088e-07
6.30395e-07
6.55498e-07
6.60909e-07
6.80177e-08
7.19295e-07
6.23246e-07
7.19468e-07
6.60669e-07
6.23347e-07
7.18185e-07
3.36098e-08
7.87126e-07
7.6602e-07
7.41954e-07
7.62823e-08
7.62594e-08
6.78336e-07
3.37502e-08
7.41718e-07
6.7821e-07
7.41894e-07
7.84459e-08
8.12575e-08
6.60886e-07
5.51812e-08
6.45233e-07
6.73205e-07
6.33097e-07
6.95556e-07
6.5968e-07
6.60973e-07
6.81873e-08
6.23771e-07
7.19189e-07
6.60808e-07
6.23838e-07
7.19238e-07
6.98227e-07
7.24508e-07
1.24112e-07
6.4813e-07
6.80925e-07
6.81312e-07
7.47423e-07
6.44417e-07
9.33834e-08
7.16804e-07
7.30623e-08
6.50844e-07
7.30304e-07
6.51756e-07
6.56835e-07
6.38656e-07
6.25318e-07
6.52186e-07
6.58007e-07
6.41323e-07
6.96697e-07
1.24163e-07
7.199e-07
6.47115e-07
6.7993e-07
7.46996e-07
6.78741e-07
6.44524e-07
9.33738e-08
7.16939e-07
6.5097e-07
7.31023e-08
7.30376e-07
6.53381e-07
6.44806e-07
6.59766e-07
6.27114e-07
6.55992e-07
6.42979e-07
6.58186e-07
6.90276e-07
3.32914e-08
7.43651e-07
6.82084e-07
7.45282e-07
6.55948e-07
9.09249e-08
8.80729e-08
6.71429e-07
6.36373e-07
8.54929e-08
6.28623e-07
8.69517e-08
7.77015e-08
8.51622e-08
8.51919e-08
7.76815e-08
7.62778e-08
7.63743e-08
7.76963e-08
8.53298e-08
8.51858e-08
7.77997e-08
6.79164e-07
3.36881e-08
7.43533e-07
6.79879e-07
7.43078e-07
6.25085e-07
8.52578e-08
8.52879e-08
6.24917e-07
6.25413e-07
8.54312e-08
6.26236e-07
8.52818e-08
7.98557e-08
8.93478e-08
8.79096e-08
8.11282e-08
7.74847e-08
7.63985e-08
7.89331e-08
8.53871e-08
8.68175e-08
7.78297e-08
7.76736e-08
8.51663e-08
7.76841e-08
8.51507e-08
3.36854e-08
6.2477e-07
8.52617e-08
6.24836e-07
8.52516e-08
6.80226e-08
7.76706e-08
8.51607e-08
8.51498e-08
7.76823e-08
8.51499e-08
3.37496e-08
6.24623e-07
8.52555e-08
8.52444e-08
6.24679e-07
8.52447e-08
6.81938e-08
6.61182e-07
6.09512e-08
7.17314e-07
6.22056e-07
7.11142e-07
6.60423e-07
6.28137e-07
6.607e-07
6.80152e-08
7.19244e-07
6.22477e-07
7.19333e-07
6.60803e-07
6.23039e-07
6.91839e-07
3.34232e-08
7.42646e-07
6.81946e-07
7.47134e-07
6.57206e-07
9.09424e-08
8.80831e-08
6.72543e-07
6.36927e-07
8.54922e-08
6.2868e-07
8.69589e-08
7.77004e-08
8.5158e-08
7.76792e-08
8.51897e-08
7.62775e-08
7.6374e-08
7.76963e-08
8.533e-08
8.51854e-08
7.77993e-08
6.78563e-07
3.37491e-08
7.42223e-07
6.79322e-07
7.41851e-07
6.24927e-07
8.52527e-08
6.24764e-07
8.52844e-08
6.25265e-07
8.5429e-08
6.26124e-07
8.52792e-08
7.98529e-08
8.93448e-08
8.79153e-08
8.11031e-08
7.7488e-08
7.6398e-08
7.89324e-08
8.53883e-08
8.68215e-08
7.78287e-08
6.61408e-07
5.96404e-08
6.21787e-07
7.15823e-07
6.27802e-07
7.09803e-07
6.6002e-07
6.60636e-07
6.81827e-08
6.22717e-07
7.18471e-07
6.23451e-07
7.1891e-07
6.60554e-07
6.74701e-07
1.22363e-07
6.74426e-07
7.10948e-07
6.30143e-07
6.65684e-07
7.28655e-07
6.50262e-07
9.02853e-08
8.03819e-08
7.11072e-07
7.39777e-08
6.58337e-07
7.23201e-07
6.74446e-07
1.22366e-07
6.74773e-07
7.11069e-07
6.30402e-07
7.28675e-07
6.6571e-07
6.50152e-07
9.02555e-08
8.03758e-08
7.11076e-07
7.39597e-08
7.23135e-07
6.58223e-07
4.2987e-05
4.28174e-05
4.29732e-05
4.27551e-05
4.27175e-05
4.27822e-05
4.26971e-05
4.25042e-05
4.25435e-05
4.25379e-05
4.25136e-05
4.25073e-05
4.25196e-05
4.25198e-05
5.35048e-06
5.34732e-06
5.32759e-06
5.35489e-06
5.36003e-06
5.35411e-06
5.35455e-06
5.36508e-06
5.33678e-06
5.37914e-06
4.29509e-05
4.27034e-05
4.27775e-05
9.70065e-08
3.15588e-08
8.90974e-08
9.88286e-08
1.06154e-07
8.75249e-08
3.36849e-08
1.10066e-07
8.75243e-08
1.10063e-07
4.26104e-05
4.26542e-05
4.28037e-05
4.26793e-05
4.25677e-05
4.26227e-05
4.26078e-05
8.75198e-08
3.36847e-08
1.10072e-07
8.75262e-08
1.10056e-07
8.26523e-08
6.80222e-08
9.79791e-08
9.68898e-08
9.79609e-08
9.69112e-08
8.26487e-08
8.73602e-08
3.37483e-08
1.10032e-07
1.10016e-07
8.73659e-08
8.27722e-08
6.81909e-08
9.71153e-08
9.7941e-08
9.71334e-08
9.79244e-08
8.27677e-08
7.80752e-08
4.56767e-08
7.33666e-08
8.60787e-08
8.00373e-08
9.3265e-08
7.75895e-08
8.266e-08
6.80191e-08
9.79729e-08
9.68814e-08
9.79618e-08
8.2643e-08
9.69045e-08
9.97598e-08
3.79634e-08
9.53737e-08
1.0659e-07
1.1038e-07
5.38313e-06
5.36626e-06
5.40739e-06
5.36906e-06
5.37597e-06
5.41041e-06
5.3811e-06
8.73645e-08
3.37489e-08
1.10026e-07
8.7364e-08
1.10022e-07
7.85609e-08
3.71318e-08
8.82893e-08
7.3853e-08
9.48643e-08
7.78949e-08
7.89097e-08
8.27731e-08
6.81898e-08
9.71083e-08
9.79338e-08
8.27588e-08
9.71297e-08
9.7922e-08
9.2026e-08
9.86936e-08
7.29156e-08
6.53896e-08
1.31346e-07
7.8047e-08
8.36652e-08
9.20287e-08
8.83982e-08
9.18758e-08
1.00781e-07
8.84585e-08
9.59748e-08
7.78585e-08
7.36622e-08
9.75317e-08
7.06848e-08
7.81607e-08
7.70309e-08
7.66598e-08
9.36923e-08
6.98611e-08
1.03137e-07
6.65647e-08
1.35797e-07
8.46846e-08
7.94259e-08
5.31535e-06
5.30881e-06
5.29994e-06
5.34266e-06
5.32067e-06
5.2915e-06
5.31003e-06
9.20891e-08
8.84295e-08
9.18897e-08
8.84876e-08
1.00915e-07
9.59971e-08
7.87726e-08
9.98398e-08
7.63178e-08
7.23507e-08
7.99002e-08
7.77269e-08
7.83642e-08
8.76093e-08
3.36427e-08
1.0997e-07
8.75446e-08
1.09798e-07
4.00671e-08
4.72783e-08
3.56812e-08
3.56465e-08
8.75252e-08
3.3686e-08
1.10058e-07
8.75407e-08
1.10049e-07
3.56261e-08
3.56259e-08
3.56303e-08
3.56349e-08
3.56249e-08
3.56255e-08
6.52242e-07
6.90086e-07
6.72698e-07
6.64925e-07
6.64615e-07
6.89972e-07
6.52377e-07
6.37432e-07
6.64236e-07
6.5738e-07
6.67319e-07
6.57084e-07
6.67167e-07
6.37566e-07
3.56229e-08
3.56236e-08
8.22149e-08
6.76975e-08
9.77456e-08
9.64823e-08
9.73427e-08
8.23995e-08
9.60432e-08
8.25965e-08
6.7998e-08
9.79002e-08
9.66911e-08
9.79139e-08
8.25518e-08
9.68015e-08
8.75741e-08
3.36805e-08
1.0992e-07
8.742e-08
1.09769e-07
4.01021e-08
4.73567e-08
3.5681e-08
3.56452e-08
6.38843e-07
6.70334e-07
6.66211e-07
6.60927e-07
6.58943e-07
6.68699e-07
6.40361e-07
6.52909e-07
6.90238e-07
6.65076e-07
6.73795e-07
6.65787e-07
6.5255e-07
6.90567e-07
6.38161e-07
6.65473e-07
6.57538e-07
6.67525e-07
6.5825e-07
6.37758e-07
6.6796e-07
6.5354e-07
6.68507e-07
6.74444e-07
6.92475e-07
6.66469e-07
6.91135e-07
6.54979e-07
8.73632e-08
3.37458e-08
1.10009e-07
8.73863e-08
1.10002e-07
3.56243e-08
3.56235e-08
3.56291e-08
3.56342e-08
6.508e-07
6.73814e-07
6.63677e-07
6.75645e-07
6.81291e-07
6.43618e-07
6.68583e-07
6.80787e-07
7.31192e-07
6.91667e-07
6.79892e-07
7.21689e-07
6.82659e-07
6.8774e-07
6.66056e-07
6.71382e-07
6.9567e-07
6.85357e-07
7.04257e-07
6.58179e-07
6.76904e-07
6.61574e-07
6.79503e-07
6.86643e-07
6.6966e-07
6.91772e-07
6.7295e-07
6.58788e-07
8.20852e-08
6.75405e-08
9.6642e-08
9.7559e-08
9.60937e-08
9.69796e-08
8.23866e-08
8.26708e-08
6.81566e-08
9.68953e-08
9.77908e-08
9.7016e-08
9.78416e-08
8.25933e-08
7.74528e-08
1.34932e-07
6.36228e-08
1.00552e-07
7.34012e-08
7.96571e-08
1.05147e-07
8.83245e-08
8.49205e-08
8.21174e-08
9.47992e-08
9.1131e-08
8.51976e-08
9.36717e-08
7.74948e-08
1.34965e-07
6.36706e-08
1.00581e-07
7.34724e-08
1.0516e-07
7.96828e-08
8.82944e-08
8.4909e-08
8.2105e-08
9.48071e-08
9.10674e-08
9.36638e-08
8.5195e-08
6.45567e-07
6.47765e-07
6.56803e-07
6.61027e-07
6.4995e-07
6.34266e-07
6.56848e-07
6.44893e-07
6.60002e-07
6.49183e-07
6.5825e-07
6.28818e-07
6.54971e-07
6.56111e-07
9.2746e-08
3.19053e-08
1.06626e-07
1.04169e-07
8.95021e-08
8.75137e-08
9.23713e-08
9.83914e-08
8.07178e-08
8.28097e-08
7.40398e-08
7.96685e-08
7.66158e-08
3.50451e-08
7.62668e-08
9.72213e-08
5.53277e-08
9.72056e-08
5.53254e-08
3.50467e-08
8.39133e-08
8.39179e-08
3.50451e-08
7.62691e-08
9.72016e-08
5.53243e-08
3.50451e-08
9.72081e-08
5.53248e-08
8.39252e-08
8.39144e-08
8.75224e-08
3.36854e-08
1.10078e-07
1.10059e-07
8.75296e-08
7.70179e-08
7.17685e-08
7.7017e-08
7.17698e-08
7.70167e-08
7.17722e-08
7.70215e-08
7.17681e-08
3.69306e-08
9.98972e-08
5.65498e-08
8.01792e-08
5.82346e-08
3.58681e-08
1.02332e-07
9.51728e-08
8.99189e-08
8.61369e-08
8.80815e-08
3.91832e-08
8.15545e-08
7.45426e-08
1.09711e-07
4.56973e-08
6.22432e-08
1.05295e-07
3.50452e-08
7.62587e-08
9.72016e-08
5.53224e-08
9.72017e-08
3.50452e-08
5.53229e-08
8.39162e-08
8.39108e-08
3.50446e-08
7.62573e-08
9.7204e-08
5.5324e-08
3.50451e-08
9.71992e-08
5.53224e-08
8.39122e-08
8.39141e-08
8.75224e-08
3.36844e-08
1.10062e-07
1.10059e-07
8.75228e-08
7.70142e-08
7.17689e-08
7.70179e-08
7.17664e-08
7.70162e-08
7.17671e-08
7.70158e-08
7.17681e-08
8.26581e-08
6.80218e-08
9.79712e-08
9.689e-08
9.79644e-08
9.6914e-08
8.26421e-08
3.50449e-08
9.7199e-08
5.5323e-08
7.62576e-08
9.72004e-08
3.50455e-08
5.53234e-08
8.39156e-08
8.39097e-08
8.39116e-08
8.39136e-08
3.50443e-08
7.62554e-08
9.72023e-08
5.5325e-08
3.50455e-08
9.71973e-08
5.53227e-08
8.73632e-08
3.37487e-08
1.10024e-07
1.1002e-07
8.73625e-08
7.69119e-08
7.17345e-08
7.69151e-08
7.17325e-08
7.69136e-08
7.17334e-08
7.69135e-08
7.17338e-08
8.27774e-08
6.81921e-08
9.71157e-08
9.79387e-08
9.71384e-08
9.79283e-08
8.27634e-08
7.95956e-08
5.25426e-08
9.04558e-08
9.6854e-08
8.65119e-08
9.56585e-08
8.08993e-08
8.26507e-08
6.80177e-08
9.79769e-08
9.6871e-08
9.79557e-08
9.68949e-08
8.26511e-08
9.54058e-08
3.6258e-08
1.09144e-07
1.1093e-07
9.11735e-08
8.8663e-08
9.26415e-08
9.90417e-08
8.12379e-08
8.39779e-08
7.44121e-08
8.04654e-08
7.71287e-08
3.50462e-08
5.53285e-08
7.62662e-08
9.72207e-08
9.7205e-08
5.53265e-08
3.50472e-08
8.3913e-08
8.39174e-08
3.50461e-08
7.62681e-08
9.72002e-08
5.53253e-08
3.50461e-08
9.7207e-08
5.53259e-08
8.39256e-08
8.39143e-08
8.73623e-08
3.3749e-08
1.10034e-07
1.10018e-07
8.73683e-08
7.69154e-08
7.17339e-08
7.69144e-08
7.1735e-08
7.69141e-08
7.17376e-08
7.6919e-08
7.17344e-08
3.6948e-08
5.65528e-08
9.99123e-08
8.0191e-08
5.824e-08
3.58756e-08
1.02367e-07
9.52106e-08
8.99531e-08
8.61467e-08
8.81006e-08
3.92243e-08
8.15751e-08
7.45677e-08
1.09862e-07
4.57929e-08
6.22506e-08
1.05368e-07
7.9824e-08
4.49951e-08
9.79115e-08
8.89825e-08
9.71349e-08
8.39113e-08
8.10636e-08
8.27597e-08
6.81881e-08
9.70969e-08
9.79305e-08
9.71193e-08
9.79145e-08
8.27536e-08
8.78029e-08
1.12956e-07
1.01207e-07
1.1104e-07
1.0257e-07
9.94049e-08
8.85546e-08
9.53514e-08
9.38562e-08
1.09914e-07
9.95221e-08
1.14628e-07
9.92679e-08
9.57574e-08
7.47151e-08
9.56456e-08
7.81409e-08
5.73616e-08
7.74761e-08
7.21887e-08
7.6293e-08
8.16968e-08
9.58511e-08
6.693e-08
7.50655e-08
7.69077e-08
8.84606e-08
1.12526e-07
1.01454e-07
1.11049e-07
1.03742e-07
9.9179e-08
8.86789e-08
9.53954e-08
9.38757e-08
1.0987e-07
9.95176e-08
1.14724e-07
9.92829e-08
9.57421e-08
7.47545e-08
9.56722e-08
5.74001e-08
7.75035e-08
7.22403e-08
7.63153e-08
8.17173e-08
9.5986e-08
6.70119e-08
7.50759e-08
7.69675e-08
8.77354e-08
3.35301e-08
1.08291e-07
8.82484e-08
1.09218e-07
7.71909e-08
7.18143e-08
7.19291e-08
7.70694e-08
7.7438e-08
7.27892e-08
7.81613e-08
7.21497e-08
6.37083e-08
8.71751e-08
7.53753e-08
7.63685e-08
3.76616e-08
3.65292e-08
5.94347e-08
6.91911e-08
7.14027e-08
5.76005e-08
5.63183e-08
6.74088e-08
6.75091e-08
5.62641e-08
3.57745e-08
3.60072e-08
5.64573e-08
6.82025e-08
6.76824e-08
5.68105e-08
7.02871e-08
8.05862e-08
7.76869e-08
6.63097e-08
6.6308e-08
8.05671e-08
7.02894e-08
7.28932e-08
7.66055e-08
8.51716e-08
8.31088e-08
8.31183e-08
7.66073e-08
7.28916e-08
7.28942e-08
8.3133e-08
8.51675e-08
7.66123e-08
8.31136e-08
7.28976e-08
7.66077e-08
7.02857e-08
7.76897e-08
6.63057e-08
8.05608e-08
6.63067e-08
8.05707e-08
7.02844e-08
3.50481e-08
7.63072e-08
9.72159e-08
5.53286e-08
3.50468e-08
9.72384e-08
5.53323e-08
8.39788e-08
8.39316e-08
3.50493e-08
7.63063e-08
9.72901e-08
5.53463e-08
9.72328e-08
5.53355e-08
3.50527e-08
8.392e-08
8.39382e-08
7.02968e-08
8.05823e-08
7.77284e-08
6.63112e-08
8.06181e-08
7.02909e-08
6.63164e-08
7.29119e-08
7.66551e-08
8.523e-08
8.32499e-08
8.31648e-08
7.66292e-08
7.29341e-08
7.29048e-08
8.31283e-08
8.52272e-08
7.66129e-08
8.31644e-08
7.28982e-08
7.66216e-08
7.03033e-08
7.77283e-08
8.07013e-08
6.6337e-08
8.0618e-08
6.63217e-08
7.03225e-08
8.75287e-08
3.36867e-08
1.10068e-07
8.75259e-08
1.10065e-07
7.70237e-08
7.17952e-08
7.70464e-08
7.17743e-08
7.70253e-08
7.17695e-08
7.70186e-08
7.17773e-08
5.62343e-08
6.73608e-08
6.73618e-08
5.62342e-08
3.56259e-08
3.56269e-08
5.62346e-08
6.73656e-08
6.73607e-08
5.62359e-08
5.624e-08
6.73926e-08
5.62479e-08
6.73702e-08
3.56291e-08
3.56269e-08
5.62388e-08
6.73645e-08
6.73722e-08
5.62362e-08
7.39666e-08
8.2931e-08
6.78205e-08
8.14561e-08
6.96763e-08
7.20588e-08
8.44904e-08
7.98578e-08
9.37763e-08
9.05302e-08
8.65701e-08
8.3026e-08
8.80354e-08
9.13312e-08
7.68055e-08
8.56322e-08
7.88012e-08
8.95018e-08
8.06418e-08
7.48963e-08
8.71915e-08
7.73169e-08
8.24537e-08
8.53172e-08
8.38476e-08
7.32944e-08
8.53745e-08
8.90873e-08
3.51751e-08
7.68078e-08
9.85997e-08
5.58477e-08
3.53858e-08
9.77801e-08
5.55375e-08
8.40002e-08
8.41731e-08
3.50933e-08
7.65962e-08
9.73139e-08
5.53633e-08
3.50623e-08
9.75163e-08
5.54172e-08
8.508e-08
8.4398e-08
7.06439e-08
8.19586e-08
7.82579e-08
6.69801e-08
8.12297e-08
7.11057e-08
6.6593e-08
7.30827e-08
7.67025e-08
8.56671e-08
8.32958e-08
7.68291e-08
7.29735e-08
8.35466e-08
7.33188e-08
8.4605e-08
8.59866e-08
7.76882e-08
7.70983e-08
8.38328e-08
7.38504e-08
7.04463e-08
7.80379e-08
8.07398e-08
6.63613e-08
7.03544e-08
8.09758e-08
6.64349e-08
7.02832e-08
7.76794e-08
8.05529e-08
6.63031e-08
6.63041e-08
8.05583e-08
7.02817e-08
7.28899e-08
7.66055e-08
8.31112e-08
8.51559e-08
7.28916e-08
8.31059e-08
7.66029e-08
7.02826e-08
7.7678e-08
6.63054e-08
8.05631e-08
6.63034e-08
7.02843e-08
8.05566e-08
7.2891e-08
8.31006e-08
8.51577e-08
7.66025e-08
8.31095e-08
7.28891e-08
7.66027e-08
1.10067e-07
8.75252e-08
7.17677e-08
7.7017e-08
5.62334e-08
6.73611e-08
6.73583e-08
5.62341e-08
3.56256e-08
3.56248e-08
5.62343e-08
6.73595e-08
6.73599e-08
5.62338e-08
6.736e-08
5.62339e-08
9.79763e-08
9.68952e-08
8.26478e-08
7.02835e-08
6.63025e-08
8.05524e-08
7.76775e-08
6.63039e-08
7.02825e-08
8.05557e-08
7.28899e-08
7.66027e-08
8.51511e-08
8.31077e-08
8.31014e-08
7.66003e-08
7.28917e-08
7.28902e-08
8.31001e-08
7.66e-08
8.51531e-08
7.28896e-08
8.31035e-08
7.66002e-08
7.02832e-08
7.76754e-08
6.63059e-08
8.05619e-08
6.63035e-08
8.05542e-08
7.0285e-08
8.05526e-08
7.02824e-08
8.31004e-08
7.65999e-08
7.28895e-08
1.10026e-07
8.73636e-08
7.17336e-08
7.69142e-08
5.62322e-08
6.73542e-08
6.73519e-08
5.62329e-08
3.56235e-08
3.56233e-08
5.62329e-08
6.73526e-08
6.73531e-08
5.62328e-08
3.56234e-08
6.73527e-08
5.62329e-08
9.71201e-08
9.79423e-08
8.27692e-08
8.21791e-08
6.5276e-08
9.32362e-08
9.81581e-08
8.21168e-08
9.57596e-08
9.68736e-08
8.26384e-08
6.80087e-08
9.79608e-08
9.68499e-08
8.2631e-08
9.79458e-08
9.68505e-08
8.79354e-08
3.35682e-08
1.08942e-07
8.89824e-08
1.09313e-07
7.71815e-08
7.17975e-08
7.19417e-08
7.69996e-08
7.75653e-08
7.29951e-08
7.85546e-08
7.22317e-08
6.37689e-08
8.72936e-08
7.55664e-08
7.64011e-08
3.76798e-08
3.65384e-08
5.95047e-08
6.93576e-08
7.1614e-08
5.76568e-08
5.63269e-08
6.74127e-08
6.75284e-08
5.62663e-08
3.57757e-08
3.60112e-08
5.64758e-08
6.83057e-08
6.7733e-08
5.6846e-08
7.02873e-08
6.63093e-08
7.76856e-08
8.05861e-08
6.63076e-08
7.02902e-08
8.05667e-08
7.28937e-08
7.66029e-08
8.31061e-08
8.5169e-08
7.28923e-08
8.3116e-08
7.66053e-08
7.02862e-08
7.76881e-08
6.63052e-08
8.05598e-08
6.63062e-08
7.02852e-08
8.05695e-08
7.28944e-08
8.31312e-08
7.66104e-08
8.51657e-08
7.28985e-08
8.31124e-08
7.6606e-08
3.50493e-08
5.53294e-08
9.72143e-08
7.63069e-08
3.50473e-08
5.53339e-08
9.72376e-08
8.39789e-08
8.39312e-08
8.39185e-08
8.39382e-08
3.50506e-08
7.63045e-08
5.53484e-08
9.72893e-08
5.53372e-08
9.72314e-08
3.50541e-08
7.02987e-08
6.63109e-08
8.05822e-08
7.77279e-08
8.06182e-08
7.02923e-08
6.63169e-08
7.29144e-08
7.66538e-08
8.52313e-08
8.32471e-08
8.31643e-08
7.66287e-08
7.29358e-08
7.29066e-08
8.31266e-08
8.52254e-08
7.66113e-08
8.31622e-08
7.28997e-08
7.66204e-08
7.03046e-08
7.77267e-08
8.0702e-08
6.63379e-08
8.06182e-08
6.63212e-08
7.03249e-08
8.73675e-08
3.37473e-08
1.10023e-07
8.73637e-08
1.10021e-07
7.69225e-08
7.17655e-08
7.69535e-08
7.1741e-08
7.6923e-08
7.17356e-08
7.69162e-08
7.17421e-08
5.62338e-08
6.73541e-08
6.73551e-08
5.62333e-08
3.56249e-08
3.5626e-08
5.6234e-08
6.73589e-08
6.73548e-08
5.62353e-08
5.62397e-08
6.73906e-08
5.62484e-08
6.73652e-08
3.56276e-08
3.5626e-08
5.62376e-08
6.7358e-08
6.73651e-08
5.62354e-08
7.39523e-08
6.78158e-08
8.29272e-08
8.14501e-08
6.9665e-08
7.20534e-08
8.44806e-08
7.98297e-08
9.37628e-08
9.0531e-08
8.65383e-08
8.3016e-08
8.80141e-08
9.12718e-08
7.67942e-08
8.56265e-08
7.88022e-08
8.95072e-08
8.06388e-08
7.48925e-08
8.71819e-08
7.72852e-08
8.24382e-08
8.52375e-08
8.38159e-08
7.32623e-08
8.5353e-08
8.90347e-08
3.51768e-08
5.58505e-08
9.86071e-08
7.68089e-08
3.53902e-08
5.55388e-08
9.77836e-08
8.39998e-08
8.41736e-08
8.50852e-08
8.44005e-08
3.50943e-08
7.6597e-08
5.5365e-08
9.73127e-08
3.50637e-08
5.54182e-08
9.75175e-08
7.0644e-08
6.69783e-08
8.19598e-08
7.82579e-08
8.12313e-08
7.1105e-08
6.65922e-08
7.30849e-08
7.67023e-08
8.5669e-08
8.32953e-08
7.68299e-08
7.29756e-08
8.35458e-08
7.33191e-08
8.4603e-08
8.59919e-08
7.76883e-08
7.70988e-08
8.38322e-08
7.385e-08
7.0448e-08
7.80378e-08
8.07422e-08
6.63619e-08
7.03565e-08
8.09785e-08
6.64342e-08
8.18839e-08
6.45266e-08
9.81874e-08
9.22412e-08
8.19435e-08
9.66284e-08
9.50656e-08
8.27266e-08
6.81735e-08
9.70749e-08
9.79107e-08
8.27288e-08
9.70721e-08
9.78877e-08
8.09664e-08
1.27752e-07
9.68492e-08
1.0735e-07
8.49839e-08
8.86416e-08
1.05978e-07
9.13102e-08
8.69024e-08
1.04394e-07
9.76874e-08
9.39216e-08
9.80022e-08
9.53292e-08
7.90078e-08
9.66063e-08
7.83069e-08
8.06279e-08
9.42515e-08
7.94893e-08
7.93362e-08
7.82628e-08
7.70354e-08
8.89735e-08
7.61715e-08
7.71388e-08
9.20455e-08
7.82895e-08
8.0989e-08
1.27702e-07
9.69408e-08
1.07361e-07
8.50425e-08
8.86557e-08
1.0597e-07
9.12692e-08
8.68818e-08
1.04259e-07
9.76695e-08
9.387e-08
9.79257e-08
9.53138e-08
7.8979e-08
9.65863e-08
7.82768e-08
8.06275e-08
9.41874e-08
7.94779e-08
7.9315e-08
7.82325e-08
7.70237e-08
8.88906e-08
7.61445e-08
7.71106e-08
9.19929e-08
7.82689e-08
4.24427e-05
4.24718e-05
4.24764e-05
4.2487e-05
4.24896e-05
4.24968e-05
4.24979e-05
4.25008e-05
4.25009e-05
4.25032e-05
4.25038e-05
4.25082e-05
4.25081e-05
4.25097e-05
4.25105e-05
4.25119e-05
4.25126e-05
4.25122e-05
4.25128e-05
4.25112e-05
4.25114e-05
4.25118e-05
4.25116e-05
4.25083e-05
4.25087e-05
4.25077e-05
4.2486e-05
4.24494e-05
4.25646e-05
4.25123e-05
4.24595e-05
4.24784e-05
4.25069e-05
4.2503e-05
4.24818e-05
4.24907e-05
4.25025e-05
4.25046e-05
4.2493e-05
4.24991e-05
4.25047e-05
4.25072e-05
4.24998e-05
4.25023e-05
4.25074e-05
4.25084e-05
4.25023e-05
4.25042e-05
4.25081e-05
4.25082e-05
4.25045e-05
4.25079e-05
4.25079e-05
4.25085e-05
4.25078e-05
4.25094e-05
4.25091e-05
4.25107e-05
4.25096e-05
4.25119e-05
4.25108e-05
4.25134e-05
4.25123e-05
4.25123e-05
4.25132e-05
4.2512e-05
4.25124e-05
4.25108e-05
4.25115e-05
4.25096e-05
4.2511e-05
4.25114e-05
4.25107e-05
4.25102e-05
4.25111e-05
4.25079e-05
4.25095e-05
4.2508e-05
4.25084e-05
4.25077e-05
4.25082e-05
4.25065e-05
4.26015e-05
4.2589e-05
4.25792e-05
4.25763e-05
4.25678e-05
4.25263e-05
4.257e-05
4.25501e-05
4.252e-05
4.25126e-05
4.25445e-05
4.25329e-05
4.25111e-05
4.25098e-05
4.25301e-05
4.2524e-05
4.2509e-05
4.251e-05
4.25225e-05
4.25199e-05
4.25103e-05
4.25111e-05
4.25192e-05
4.25177e-05
4.25107e-05
4.25101e-05
4.25169e-05
4.25148e-05
4.25095e-05
4.25095e-05
4.25138e-05
4.25131e-05
4.25099e-05
4.25118e-05
4.25141e-05
4.25148e-05
4.25124e-05
4.25141e-05
4.25153e-05
4.25152e-05
4.25138e-05
4.2512e-05
4.25151e-05
4.25128e-05
4.25119e-05
4.25093e-05
4.25122e-05
4.25098e-05
4.25103e-05
4.25098e-05
4.25101e-05
4.25094e-05
4.25094e-05
4.25079e-05
4.25089e-05
4.25082e-05
4.25077e-05
4.25063e-05
4.25078e-05
4.25062e-05
4.25793e-05
4.25771e-05
4.25866e-05
4.25862e-05
4.25723e-05
4.25559e-05
4.25835e-05
4.25706e-05
4.25507e-05
4.25383e-05
4.25655e-05
4.25512e-05
4.25351e-05
4.25279e-05
4.25471e-05
4.25371e-05
4.25261e-05
4.25224e-05
4.25345e-05
4.25282e-05
4.25215e-05
4.25192e-05
4.25267e-05
4.25225e-05
4.25183e-05
4.25158e-05
4.25215e-05
4.25181e-05
4.25147e-05
4.25145e-05
4.25171e-05
4.2516e-05
4.25143e-05
4.25155e-05
4.2516e-05
4.25168e-05
4.25159e-05
4.25152e-05
4.25166e-05
4.25153e-05
4.2515e-05
4.25125e-05
4.25145e-05
4.25122e-05
4.25118e-05
4.251e-05
4.25118e-05
4.25101e-05
4.25102e-05
4.25093e-05
4.25104e-05
4.25092e-05
4.25086e-05
4.25082e-05
4.25089e-05
4.25087e-05
4.25075e-05
4.25061e-05
4.25084e-05
4.25056e-05
4.2444e-05
4.24732e-05
4.24601e-05
4.24809e-05
4.24776e-05
4.24886e-05
4.24843e-05
4.24936e-05
4.24908e-05
4.24972e-05
4.24955e-05
4.24981e-05
4.24982e-05
4.25019e-05
4.2499e-05
4.25039e-05
4.25022e-05
4.25041e-05
4.25051e-05
4.25068e-05
4.25049e-05
4.2508e-05
4.25079e-05
4.25103e-05
4.25091e-05
4.25097e-05
4.25109e-05
4.25105e-05
4.25109e-05
4.25123e-05
4.25116e-05
4.25137e-05
4.2513e-05
4.25126e-05
4.25131e-05
4.25134e-05
4.2513e-05
4.2511e-05
4.25132e-05
4.25114e-05
4.25117e-05
4.2512e-05
4.25115e-05
4.25128e-05
4.25112e-05
4.25094e-05
4.25114e-05
4.25107e-05
4.25091e-05
4.25083e-05
4.25097e-05
4.25091e-05
4.24508e-05
4.25586e-05
4.25107e-05
4.24702e-05
4.24655e-05
4.25333e-05
4.25085e-05
4.24803e-05
4.25064e-05
4.25042e-05
4.24724e-05
4.24876e-05
4.25072e-05
4.25068e-05
4.24925e-05
4.25038e-05
4.25056e-05
4.24901e-05
4.24971e-05
4.25074e-05
4.2508e-05
4.24997e-05
4.25057e-05
4.25079e-05
4.24989e-05
4.25009e-05
4.25081e-05
4.25094e-05
4.25034e-05
4.25081e-05
4.2509e-05
4.25013e-05
4.25047e-05
4.25096e-05
4.25097e-05
4.25051e-05
4.25087e-05
4.25084e-05
4.25056e-05
4.25066e-05
4.25096e-05
4.25086e-05
4.25083e-05
4.25082e-05
4.25084e-05
4.25077e-05
4.25101e-05
4.25084e-05
4.25096e-05
4.25096e-05
4.25091e-05
4.25106e-05
4.25107e-05
4.25105e-05
4.25099e-05
4.25117e-05
4.25125e-05
4.2511e-05
4.25135e-05
4.25117e-05
4.25137e-05
4.25128e-05
4.25143e-05
4.25126e-05
4.25138e-05
4.25125e-05
4.25133e-05
4.25132e-05
4.25149e-05
4.25133e-05
4.25106e-05
4.25114e-05
4.25105e-05
4.25128e-05
4.25108e-05
4.25128e-05
4.25105e-05
4.25116e-05
4.25105e-05
4.2511e-05
4.2511e-05
4.25127e-05
4.251e-05
4.25118e-05
4.2509e-05
4.251e-05
4.2509e-05
4.25114e-05
4.25105e-05
4.2511e-05
4.25094e-05
4.25082e-05
4.25084e-05
4.25064e-05
4.25093e-05
4.25087e-05
4.25083e-05
4.25067e-05
4.25829e-05
4.25749e-05
4.25724e-05
4.25575e-05
4.25518e-05
4.25572e-05
4.25566e-05
4.25245e-05
4.25666e-05
4.25484e-05
4.25409e-05
4.252e-05
4.25531e-05
4.25416e-05
4.25132e-05
4.25434e-05
4.25328e-05
4.25174e-05
4.25136e-05
4.25381e-05
4.25306e-05
4.25109e-05
4.25302e-05
4.25244e-05
4.25135e-05
4.25126e-05
4.25285e-05
4.25241e-05
4.25106e-05
4.25229e-05
4.25201e-05
4.25122e-05
4.25121e-05
4.25226e-05
4.25197e-05
4.25115e-05
4.25194e-05
4.25177e-05
4.25124e-05
4.2512e-05
4.2519e-05
4.2517e-05
4.251e-05
4.25169e-05
4.25147e-05
4.25117e-05
4.25101e-05
4.25163e-05
4.25142e-05
4.25096e-05
4.2514e-05
4.25132e-05
4.25097e-05
4.25103e-05
4.25139e-05
4.25138e-05
4.25118e-05
4.25135e-05
4.25148e-05
4.2511e-05
4.25126e-05
4.25136e-05
4.25141e-05
4.25136e-05
4.25161e-05
4.25158e-05
4.2513e-05
4.25141e-05
4.25153e-05
4.25151e-05
4.25127e-05
4.25151e-05
4.25128e-05
4.25144e-05
4.25135e-05
4.25144e-05
4.25134e-05
4.25101e-05
4.25117e-05
4.25102e-05
4.25125e-05
4.25096e-05
4.25118e-05
4.25092e-05
4.25107e-05
4.25098e-05
4.25101e-05
4.25095e-05
4.25111e-05
4.25097e-05
4.25099e-05
4.25089e-05
4.2509e-05
4.25088e-05
4.25101e-05
4.25088e-05
4.25085e-05
4.25085e-05
4.25061e-05
4.25075e-05
4.25053e-05
4.25079e-05
4.25061e-05
4.25074e-05
4.25033e-05
4.25734e-05
4.25826e-05
4.25824e-05
4.25594e-05
4.25592e-05
4.25684e-05
4.25682e-05
4.25541e-05
4.258e-05
4.25682e-05
4.25565e-05
4.25469e-05
4.25666e-05
4.25587e-05
4.2538e-05
4.25635e-05
4.25502e-05
4.25434e-05
4.25353e-05
4.25554e-05
4.25457e-05
4.25281e-05
4.25463e-05
4.25368e-05
4.25328e-05
4.25271e-05
4.25426e-05
4.25346e-05
4.25224e-05
4.25342e-05
4.25279e-05
4.25256e-05
4.25215e-05
4.25321e-05
4.25262e-05
4.2519e-05
4.25262e-05
4.25219e-05
4.25205e-05
4.25177e-05
4.25245e-05
4.25202e-05
4.25157e-05
4.25209e-05
4.25177e-05
4.25169e-05
4.25147e-05
4.25191e-05
4.25167e-05
4.2514e-05
4.25168e-05
4.25154e-05
4.25143e-05
4.25135e-05
4.25164e-05
4.25163e-05
4.25152e-05
4.25161e-05
4.25163e-05
4.25137e-05
4.25137e-05
4.25155e-05
4.25149e-05
4.25159e-05
4.2517e-05
4.25158e-05
4.25148e-05
4.2515e-05
4.25157e-05
4.25147e-05
4.25126e-05
4.25143e-05
4.25121e-05
4.2514e-05
4.25128e-05
4.2513e-05
4.25114e-05
4.25104e-05
4.25112e-05
4.2511e-05
4.25114e-05
4.25096e-05
4.25104e-05
4.25103e-05
4.25101e-05
4.25106e-05
4.25103e-05
4.25101e-05
4.251e-05
4.2511e-05
4.25106e-05
4.25088e-05
4.2509e-05
4.25092e-05
4.25083e-05
4.25082e-05
4.25085e-05
4.25086e-05
4.2505e-05
4.25081e-05
4.25037e-05
4.25071e-05
4.25022e-05
4.25078e-05
4.25003e-05
4.24466e-05
4.24611e-05
4.2495e-05
4.24885e-05
4.2468e-05
4.24845e-05
4.24894e-05
4.24953e-05
4.2487e-05
4.24951e-05
4.24963e-05
4.25002e-05
4.2497e-05
4.24991e-05
4.2502e-05
4.25032e-05
4.25e-05
4.25045e-05
4.25041e-05
4.25076e-05
4.25057e-05
4.25074e-05
4.2509e-05
4.25092e-05
4.25085e-05
4.25114e-05
4.25102e-05
4.25122e-05
4.25114e-05
4.2511e-05
4.25126e-05
4.25131e-05
4.2512e-05
4.25143e-05
4.25144e-05
4.25145e-05
4.25136e-05
4.25134e-05