/*--------------------------------*- C++ -*----------------------------------*\
| =========                 |                                                 |
| \\      /  F ield         | OpenFOAM: The Open Source CFD Toolbox           |
|  \\    /   O peration     | Version:  2012                                  |
|   \\  /    A nd           | Website:  www.openfoam.com                      |
|    \\/     M anipulation  |                                                 |
\*---------------------------------------------------------------------------*/
FoamFile
{
    version     2.0;
    format      ascii;
    class       volVectorField;
    location    "0.105/solid";
    object      D;
}
// * * * * * * * * * * * * * * * * * * * * * * * * * * * * * * * * * * * * * //

dimensions      [0 1 0 0 0 0 0];


internalField   nonuniform List<vector> 
3125
(
(2.63459e-13 -1.54472e-13 1.63664e-11)
(1.68504e-11 -1.34141e-11 1.93608e-11)
(-1.88782e-12 -2.44624e-13 3.20439e-11)
(2.6897e-13 -1.47593e-13 1.64117e-11)
(-1.94288e-12 -2.07839e-13 3.18915e-11)
(1.89368e-11 -2.60795e-11 3.81064e-11)
(1.25928e-11 -9.20229e-12 2.00437e-11)
(3.53927e-11 -4.73033e-11 4.0204e-11)
(1.91161e-13 3.20386e-14 1.6298e-11)
(-6.65121e-09 -2.24576e-09 2.67964e-08)
(-1.77893e-06 -1.06998e-06 5.27689e-07)
(-7.5182e-06 -4.88595e-06 1.03552e-06)
(-2.03766e-12 -2.57703e-14 3.18814e-11)
(-1.92163e-12 -1.64603e-13 3.20884e-11)
(2.05908e-13 -1.47974e-14 1.63411e-11)
(-9.95195e-10 -2.57261e-08 4.94363e-08)
(-1.72742e-06 -1.09576e-06 8.31576e-07)
(-6.72201e-06 -4.35292e-06 9.86322e-07)
(-2.24462e-06 -1.37151e-06 5.9206e-07)
(-6.65209e-06 -4.37247e-06 1.55124e-06)
(-2.18961e-06 -1.39639e-06 9.33922e-07)
(-7.44725e-06 -4.90477e-06 1.62604e-06)
(-4.70518e-14 -6.52012e-14 1.6673e-12)
(1.56922e-13 -1.72298e-14 1.61564e-11)
(-1.70003e-13 -3.41042e-14 1.37112e-12)
(6.00265e-13 4.68378e-12 4.80793e-12)
(3.97197e-11 9.77265e-11 3.39346e-11)
(-1.01726e-10 2.80178e-10 4.60944e-12)
(-1.78703e-14 -6.54414e-14 1.72239e-12)
(-2.06997e-12 -4.58884e-14 3.16165e-11)
(1.23675e-12 -4.2292e-12 3.40678e-11)
(1.69955e-12 -1.35683e-12 1.72974e-11)
(6.9282e-13 2.63423e-12 3.87324e-12)
(1.43762e-13 1.42146e-13 1.958e-12)
(-1.23671e-12 -3.99116e-14 3.62672e-13)
(-1.34386e-12 -4.00861e-14 1.05272e-13)
(1.51652e-13 -2.64595e-14 1.61542e-11)
(-2.57964e-13 8.47046e-15 1.21984e-12)
(-1.7442e-13 -3.68273e-14 1.36568e-12)
(-1.44023e-12 -7.08238e-15 -6.25472e-14)
(-1.34901e-12 -1.89266e-14 9.84215e-14)
(-2.0613e-06 -1.26683e-06 1.97622e-06)
(-7.87616e-07 -4.19171e-07 1.09763e-06)
(-1.09171e-12 2.69413e-12 3.09099e-12)
(-8.42971e-11 1.78955e-10 5.61849e-12)
(-1.31727e-10 2.05041e-10 -5.41712e-12)
(-4.11773e-07 -2.25621e-07 2.44652e-07)
(-1.35812e-08 -8.17983e-09 4.16925e-08)
(-6.12456e-07 -3.32997e-07 8.70082e-07)
(-1.19117e-10 7.03348e-10 3.62761e-11)
(-2.02081e-06 -1.25623e-06 1.78942e-06)
(-6.76275e-07 -3.81202e-07 3.19756e-07)
(-7.46393e-07 -4.16501e-07 9.9063e-07)
(-1.79238e-08 -1.17704e-08 4.77068e-08)
(-6.52862e-07 -3.34246e-07 9.65096e-07)
(-1.17101e-10 4.58806e-10 2.37641e-11)
(-1.08994e-05 -7.28152e-06 4.41419e-06)
(-7.4014e-06 -4.92121e-06 3.3974e-06)
(-1.01102e-05 -6.61462e-06 1.17312e-06)
(-1.041e-05 -6.9472e-06 3.92805e-06)
(-7.43334e-06 -4.94423e-06 3.75053e-06)
(-1.04384e-05 -6.97294e-06 4.33711e-06)
(-1.10372e-05 -7.22955e-06 1.2157e-06)
(-1.08716e-05 -7.2555e-06 3.99776e-06)
(-1.20429e-12 -6.39709e-14 4.29168e-13)
(-2.0919e-12 -1.99497e-14 3.16157e-11)
(-3.27548e-13 -2.14196e-12 3.33702e-11)
(1.26713e-12 -8.3161e-13 1.71705e-11)
(-2.12829e-13 7.14198e-15 1.32299e-12)
(-4.16808e-14 1.23263e-13 1.62801e-12)
(-9.9884e-13 1.59264e-12 2.19406e-12)
(-1.18433e-12 1.45095e-13 5.56407e-13)
(-1.40238e-12 1.52102e-14 2.7918e-14)
(-1.3352e-12 1.05136e-13 2.38645e-13)
(-2.0327e-06 -1.31814e-06 2.17691e-06)
(-7.69541e-07 -4.76561e-07 1.21592e-06)
(-3.83713e-07 -2.57426e-07 3.87011e-07)
(-1.67886e-08 -2.97251e-08 5.2467e-08)
(-6.00288e-07 -3.73955e-07 9.52909e-07)
(-1.99906e-06 -1.29158e-06 1.9473e-06)
(-6.39493e-07 -4.10596e-07 5.03129e-07)
(-7.3258e-07 -4.56426e-07 1.08291e-06)
(-2.22725e-08 -3.95865e-08 5.94218e-08)
(-6.36903e-07 -3.92974e-07 1.0714e-06)
(-2.29082e-06 -1.42316e-06 2.09455e-06)
(-4.21471e-06 -2.74262e-06 2.87358e-06)
(-4.55676e-06 -2.90295e-06 8.28468e-07)
(-7.0055e-06 -4.65264e-06 3.31543e-06)
(-4.49686e-06 -2.9429e-06 2.69793e-06)
(-2.25079e-06 -1.4116e-06 1.89688e-06)
(-3.91425e-06 -2.47414e-06 7.72294e-07)
(-4.17819e-06 -2.72513e-06 2.60342e-06)
(-7.03796e-06 -4.67516e-06 3.65996e-06)
(-4.53286e-06 -2.96112e-06 2.97791e-06)
(-2.26109e-06 -1.47372e-06 2.30646e-06)
(-4.17871e-06 -2.78798e-06 3.15794e-06)
(-4.49147e-06 -2.92472e-06 1.30724e-06)
(-6.97427e-06 -4.6797e-06 3.59424e-06)
(-4.4687e-06 -2.97357e-06 2.92973e-06)
(-2.22816e-06 -1.44641e-06 2.06368e-06)
(-3.85105e-06 -2.49665e-06 1.21919e-06)
(-4.1506e-06 -2.75631e-06 2.82775e-06)
(-6.99753e-06 -4.71452e-06 4.01293e-06)
(-4.49617e-06 -3.00573e-06 3.27168e-06)
(-1.08568e-05 -7.31421e-06 4.82682e-06)
(-7.36985e-06 -4.94776e-06 3.68218e-06)
(-1.00375e-05 -6.63127e-06 1.83146e-06)
(-1.0377e-05 -6.97018e-06 4.24969e-06)
(-7.39254e-06 -4.98284e-06 4.11102e-06)
(-1.03959e-05 -7.00636e-06 4.74398e-06)
(-1.09644e-05 -7.24549e-06 1.89376e-06)
(-1.08384e-05 -7.27798e-06 4.32397e-06)
(-2.55362e-12 -1.10511e-13 1.1549e-11)
(2.21193e-13 -7.42982e-14 1.62725e-11)
(-2.61772e-12 -6.99663e-14 1.14227e-11)
(3.79e-12 5.41431e-12 1.45559e-11)
(3.91814e-11 -1.31478e-11 2.51012e-11)
(1.0696e-11 3.67648e-11 1.76919e-11)
(-1.80013e-12 -3.11607e-13 3.22599e-11)
(3.71959e-13 -2.23384e-13 1.66365e-11)
(-2.54235e-12 -1.07505e-13 1.15907e-11)
(-2.51192e-12 -1.46528e-13 1.17603e-11)
(-1.97105e-12 -1.4618e-13 3.17632e-11)
(9.32318e-12 -1.46454e-11 3.63078e-11)
(5.37845e-12 -4.87637e-12 1.82715e-11)
(2.24673e-12 2.26434e-12 1.40484e-11)
(-6.25639e-13 -1.41546e-13 1.29463e-11)
(1.61995e-13 4.04892e-15 1.62306e-11)
(-2.69085e-12 4.08321e-14 1.1378e-11)
(-2.71398e-12 6.89115e-15 1.13068e-11)
(-2.22878e-06 -1.36142e-06 2.77172e-06)
(-1.61859e-06 -9.33449e-07 2.27014e-06)
(-4.02044e-09 3.54915e-09 3.34652e-09)
(-6.21361e-08 -3.63597e-08 9.58897e-08)
(-1.17674e-08 -1.59397e-09 4.29013e-08)
(-1.19061e-07 -6.99649e-08 2.14941e-07)
(-3.69861e-09 4.22053e-09 1.52057e-09)
(-1.92008e-06 -1.18999e-06 1.04578e-06)
(-1.36122e-06 -8.03707e-07 4.60938e-07)
(-1.29678e-06 -7.85369e-07 8.49748e-07)
(-4.50376e-08 -2.8087e-09 4.188e-08)
(-3.63086e-07 -1.05318e-07 6.22395e-07)
(-1.29078e-05 -8.68379e-06 6.54861e-06)
(-7.32994e-06 -4.81865e-06 1.98372e-06)
(-8.34924e-06 -5.44149e-06 1.08304e-06)
(-8.57449e-06 -5.65358e-06 2.12211e-06)
(-7.55519e-06 -5.06925e-06 5.22713e-06)
(-8.78591e-06 -5.91069e-06 5.58932e-06)
(-1.29775e-05 -8.50979e-06 1.29593e-06)
(-1.27362e-05 -8.41829e-06 2.48863e-06)
(-2.06504e-12 4.57308e-15 3.17507e-11)
(-1.65067e-12 -4.2778e-13 3.2396e-11)
(4.48048e-13 -9.2606e-14 1.66228e-11)
(-2.68439e-12 3.37071e-14 1.14054e-11)
(-2.63026e-12 5.2139e-14 1.1576e-11)
(-2.19869e-06 -1.40721e-06 2.91024e-06)
(-1.59142e-06 -9.80993e-07 2.38604e-06)
(-5.6028e-08 -6.45267e-08 1.50898e-07)
(-2.60103e-09 -1.4874e-08 3.368e-08)
(-1.161e-07 -1.04452e-07 2.60074e-07)
(-1.89278e-06 -1.21654e-06 1.23677e-06)
(-1.31372e-06 -8.30478e-07 7.25571e-07)
(-1.27294e-06 -8.13311e-07 1.00595e-06)
(-5.93554e-08 -5.78048e-08 9.04408e-08)
(-3.6149e-07 -1.67074e-07 6.84444e-07)
(-2.45566e-06 -1.52085e-06 2.93461e-06)
(-3.20535e-06 -2.0475e-06 3.40994e-06)
(-5.96208e-06 -3.84379e-06 9.35435e-07)
(-6.93252e-06 -4.55143e-06 1.93635e-06)
(-5.79488e-06 -3.78538e-06 1.78722e-06)
(-2.15191e-06 -1.34244e-06 1.10828e-06)
(-2.75673e-06 -1.70697e-06 6.54197e-07)
(-2.91674e-06 -1.8502e-06 1.29168e-06)
(-7.16241e-06 -4.7994e-06 5.10163e-06)
(-6.03897e-06 -4.02409e-06 4.71079e-06)
(-2.42481e-06 -1.56603e-06 3.08047e-06)
(-3.1727e-06 -2.09082e-06 3.57706e-06)
(-5.89344e-06 -3.86407e-06 1.47321e-06)
(-6.89347e-06 -4.57162e-06 2.28009e-06)
(-5.75717e-06 -3.80671e-06 2.10694e-06)
(-2.12338e-06 -1.36853e-06 1.3106e-06)
(-2.69864e-06 -1.73103e-06 1.0326e-06)
(-2.88543e-06 -1.87507e-06 1.5264e-06)
(-7.12697e-06 -4.83473e-06 5.34022e-06)
(-6.00377e-06 -4.06145e-06 4.93362e-06)
(-1.28736e-05 -8.71048e-06 6.84019e-06)
(-7.29045e-06 -4.83844e-06 2.33508e-06)
(-8.2775e-06 -5.45958e-06 1.69764e-06)
(-8.53409e-06 -5.67225e-06 2.49477e-06)
(-7.51972e-06 -5.1039e-06 5.47066e-06)
(-8.7505e-06 -5.94332e-06 5.84679e-06)
(-1.2905e-05 -8.52432e-06 2.00937e-06)
(-1.26947e-05 -8.43358e-06 2.9138e-06)
(-5.36105e-12 -1.05983e-13 9.13836e-12)
(-8.56681e-14 -4.9556e-14 1.53312e-12)
(-5.42828e-12 -5.86623e-14 9.00169e-12)
(2.1393e-13 -9.86627e-14 1.62469e-11)
(-2.64627e-12 -2.90238e-14 1.13293e-11)
(-2.62904e-12 -7.02449e-14 1.13914e-11)
(-9.89378e-14 -4.64619e-14 1.51125e-12)
(-5.45048e-12 -2.42218e-14 8.9138e-12)
(-5.43695e-12 -6.93186e-14 8.97036e-12)
(-1.75364e-12 6.51286e-12 1.19928e-11)
(-6.89893e-12 2.54227e-11 5.97254e-12)
(-4.51197e-13 3.74936e-11 1.48301e-11)
(4.35284e-11 -1.84205e-11 2.00255e-11)
(7.53e-12 3.4181e-10 3.41813e-11)
(1.24074e-11 7.231e-11 1.98493e-11)
(-1.24053e-11 5.12075e-11 7.46591e-12)
(-2.79422e-11 3.27893e-10 2.92337e-11)
(-1.6915e-12 7.55693e-11 1.71396e-11)
(-2.49953e-12 -1.46874e-13 1.18169e-11)
(-5.35249e-12 -8.57977e-14 9.17851e-12)
(6.34882e-14 -7.63651e-14 1.91654e-12)
(-5.33303e-12 -1.31126e-13 9.33312e-12)
(1.00573e-13 -8.0524e-14 1.99587e-12)
(-5.3242e-12 -1.21689e-13 9.38519e-12)
(-2.0115e-12 -1.12015e-13 3.16778e-11)
(4.12489e-12 -7.92839e-12 3.50602e-11)
(3.95244e-12 -3.23815e-12 1.82139e-11)
(-2.09433e-12 -1.11479e-13 1.21297e-11)
(-1.1513e-12 -2.43155e-13 1.27302e-11)
(-2.49061e-12 3.17849e-12 1.14724e-11)
(6.50047e-13 5.48233e-13 2.83502e-12)
(-4.16872e-12 3.13663e-13 1.0364e-11)
(-5.13737e-12 2.13226e-14 9.59461e-12)
(4.14211e-13 3.38699e-13 2.3849e-12)
(-4.49825e-12 1.15808e-13 1.01614e-11)
(-1.02373e-12 2.79917e-16 -2.09121e-12)
(-1.27659e-12 -5.10611e-14 2.56414e-13)
(-1.03402e-12 -8.62892e-15 -2.12648e-12)
(-1.29104e-12 -2.79618e-14 2.29627e-13)
(-1.08176e-12 -9.19918e-15 -2.17448e-12)
(-1.05395e-12 6.38282e-16 -2.14927e-12)
(1.68369e-13 4.27734e-14 1.62105e-11)
(-2.65823e-12 -3.20735e-14 1.1317e-11)
(-2.70521e-12 9.40271e-15 1.13094e-11)
(-5.52088e-12 4.0412e-14 8.92799e-12)
(-1.96994e-13 -1.60162e-14 1.3155e-12)
(-5.53042e-12 -4.54446e-15 8.86162e-12)
(-5.46271e-12 -4.42793e-14 8.89858e-12)
(-2.14087e-13 -1.87834e-14 1.26894e-12)
(-5.52058e-12 6.6363e-15 8.86993e-12)
(-1.14839e-12 -6.37028e-15 -2.25976e-12)
(-1.38597e-12 -5.5255e-15 3.88753e-14)
(-1.12835e-12 1.59105e-15 -2.25087e-12)
(-1.10828e-12 1.44392e-15 -2.20609e-12)
(-1.39998e-12 -2.9631e-14 1.56578e-15)
(-1.10858e-12 -8.01997e-15 -2.22542e-12)
(-2.17982e-06 -1.32825e-06 2.54933e-06)
(-1.44375e-06 -8.49728e-07 1.6105e-06)
(-1.56737e-06 -9.03253e-07 2.08488e-06)
(-9.67965e-07 -4.83385e-07 1.57158e-06)
(-1.43874e-06 -8.07908e-07 2.09872e-06)
(-1.26182e-06 -7.28444e-07 1.48499e-06)
(-9.14515e-07 -4.58994e-07 1.43625e-06)
(-1.38684e-06 -7.78939e-07 1.92592e-06)
(-8.6802e-13 8.46094e-14 -1.71407e-12)
(-6.96963e-12 1.41658e-11 4.20451e-12)
(-9.14222e-13 2.73132e-13 -1.41779e-12)
(-1.18475e-11 2.86722e-11 5.18253e-12)
(-4.88729e-12 5.35489e-12 -1.82685e-12)
(-1.33811e-12 5.56355e-13 -1.61968e-12)
(-2.13418e-09 2.24708e-09 1.055e-09)
(-8.65248e-11 7.05812e-10 5.02224e-11)
(-7.66049e-10 3.20016e-09 6.91064e-10)
(-2.00326e-07 -1.08078e-07 1.66084e-07)
(-5.08481e-07 -2.94269e-07 5.03269e-07)
(-1.92892e-07 -1.12258e-07 2.83396e-07)
(-1.61335e-08 1.74765e-09 5.96396e-08)
(-1.92661e-07 -8.92646e-08 3.752e-07)
(-2.60073e-09 1.49214e-08 3.03498e-09)
(-1.32935e-07 -7.55843e-08 2.49716e-07)
(-4.72762e-09 2.33402e-09 7.79234e-10)
(-5.29667e-07 -3.04765e-07 5.90707e-07)
(-2.81165e-07 -1.36526e-07 4.99324e-07)
(-2.11019e-07 -1.19239e-07 3.33985e-07)
(-1.00922e-10 7.7801e-10 5.62911e-11)
(-1.38808e-09 3.4066e-09 -7.6968e-11)
(-8.85161e-10 2.52455e-09 6.26947e-10)
(-1.94047e-06 -1.20702e-06 1.22689e-06)
(-1.40215e-06 -8.42246e-07 1.45702e-06)
(-1.31816e-06 -8.00153e-07 9.97314e-07)
(-9.93168e-07 -5.73848e-07 3.91689e-07)
(-6.40304e-07 -3.73853e-07 5.74278e-07)
(-1.11357e-06 -6.68556e-07 7.83016e-07)
(-1.22001e-06 -7.22088e-07 1.34288e-06)
(-6.61936e-07 -3.85264e-07 6.74427e-07)
(-1.13521e-06 -6.82543e-07 9.18475e-07)
(-8.32577e-07 -3.92416e-07 1.39115e-06)
(-4.73889e-07 -1.67261e-07 8.24439e-07)
(-3.18823e-08 -7.48677e-09 5.72891e-08)
(-2.21621e-07 -8.22999e-08 4.19199e-07)
(-2.21849e-09 1.3337e-08 1.92573e-09)
(-3.16359e-07 -9.3024e-08 5.58985e-07)
(-3.78162e-10 4.18963e-10 -3.83391e-11)
(-7.78949e-07 -3.69873e-07 1.26848e-06)
(-3.13872e-07 -1.33088e-07 5.55413e-07)
(-4.23159e-07 -1.51847e-07 7.42425e-07)
(-9.70427e-12 1.22253e-11 -2.69709e-12)
(-1.33526e-09 2.85846e-09 -7.30964e-11)
(-1.15058e-10 2.70005e-10 -9.65802e-13)
(-1.1001e-05 -7.40943e-06 6.14561e-06)
(-1.24206e-05 -8.35953e-06 6.45133e-06)
(-1.2816e-05 -8.55647e-06 4.70592e-06)
(-1.28815e-05 -8.64567e-06 6.03907e-06)
(-1.09718e-05 -7.37059e-06 5.66643e-06)
(-1.23263e-05 -8.23194e-06 4.63546e-06)
(-1.23936e-05 -8.3212e-06 5.9491e-06)
(-7.34421e-06 -4.84437e-06 2.33049e-06)
(-8.64138e-06 -5.75955e-06 3.63403e-06)
(-8.58784e-06 -5.68009e-06 2.49286e-06)
(-9.2137e-06 -6.01816e-06 1.12891e-06)
(-1.0349e-05 -6.83799e-06 2.2938e-06)
(-9.00611e-06 -5.94238e-06 2.16597e-06)
(-9.07154e-06 -6.04931e-06 3.70982e-06)
(-1.03612e-05 -6.86524e-06 2.69471e-06)
(-9.01917e-06 -5.96912e-06 2.5448e-06)
(-1.05424e-05 -7.10079e-06 6.03906e-06)
(-9.213e-06 -6.20123e-06 5.70529e-06)
(-7.51991e-06 -5.02998e-06 4.81766e-06)
(-8.67179e-06 -5.7839e-06 4.01206e-06)
(-8.75295e-06 -5.8714e-06 5.15228e-06)
(-1.05125e-05 -7.06182e-06 5.56793e-06)
(-9.10144e-06 -6.07404e-06 4.09585e-06)
(-9.18082e-06 -6.16199e-06 5.25945e-06)
(-1.27902e-05 -8.52957e-06 4.26156e-06)
(-1.2747e-05 -8.44598e-06 2.9239e-06)
(-1.19935e-05 -7.86169e-06 1.25663e-06)
(-1.08119e-05 -7.1457e-06 2.33421e-06)
(-1.22447e-05 -8.09421e-06 2.45162e-06)
(-1.23e-05 -8.20523e-06 4.19785e-06)
(-1.08239e-05 -7.17309e-06 2.74253e-06)
(-1.22557e-05 -8.12184e-06 2.88014e-06)
(-1.00357e-12 -9.79822e-15 -2.0688e-12)
(-1.15245e-12 -4.84073e-14 5.81319e-13)
(-9.62542e-13 -3.71834e-16 -2.02499e-12)
(-1.11351e-12 -7.31479e-14 6.64092e-13)
(-9.44545e-13 -9.6629e-15 -2.00466e-12)
(-2.07858e-12 2.04111e-14 3.16588e-11)
(-1.17745e-12 -1.02881e-12 3.28128e-11)
(5.62066e-13 -2.68034e-13 1.67195e-11)
(-2.26106e-12 -4.57377e-14 1.20025e-11)
(-2.58802e-12 3.34632e-14 1.16421e-11)
(-5.52177e-12 1.98752e-14 8.9463e-12)
(-2.09791e-13 3.52957e-14 1.31251e-12)
(-5.51356e-12 6.08814e-14 9.08134e-12)
(-5.25245e-12 5.45046e-14 9.47916e-12)
(-1.27995e-13 4.80168e-14 1.47721e-12)
(-5.49118e-12 4.76226e-14 9.13413e-12)
(-9.4736e-13 5.81992e-14 -1.85837e-12)
(-9.13606e-13 4.11193e-13 1.28216e-12)
(-1.08314e-12 1.65515e-14 -2.14859e-12)
(-1.06865e-12 2.57942e-13 8.82874e-13)
(-1.13055e-12 1.60671e-14 -2.23298e-12)
(-1.03431e-12 4.25906e-15 -2.09925e-12)
(-1.16634e-12 4.54104e-15 -2.28507e-12)
(-1.43502e-12 1.78782e-14 -6.3636e-15)
(-1.14736e-12 -6.69591e-15 -2.27401e-12)
(-1.3722e-12 5.08855e-14 1.37549e-13)
(-1.1509e-12 5.14369e-15 -2.24642e-12)
(-1.18412e-12 3.17679e-15 -2.31702e-12)
(-2.14827e-06 -1.37978e-06 2.71831e-06)
(-1.41902e-06 -9.0338e-07 1.77646e-06)
(-1.53931e-06 -9.56891e-07 2.22573e-06)
(-9.46773e-07 -5.33448e-07 1.65676e-06)
(-1.4128e-06 -8.56036e-07 2.20694e-06)
(-1.23856e-06 -7.82937e-07 1.6391e-06)
(-8.93177e-07 -5.15889e-07 1.53872e-06)
(-1.36019e-06 -8.33309e-07 2.0572e-06)
(-1.876e-07 -1.42899e-07 2.70384e-07)
(-4.93479e-07 -3.25593e-07 5.99377e-07)
(-1.87752e-07 -1.46498e-07 3.44873e-07)
(-5.4484e-09 -1.81352e-08 3.82002e-08)
(-1.90715e-07 -1.372e-07 4.2259e-07)
(-1.30797e-07 -1.14323e-07 2.98464e-07)
(-5.15328e-07 -3.39774e-07 6.84857e-07)
(-2.75289e-07 -1.82154e-07 5.56827e-07)
(-2.05433e-07 -1.57902e-07 3.95377e-07)
(-1.91495e-06 -1.23683e-06 1.41155e-06)
(-1.38335e-06 -8.79291e-07 1.58729e-06)
(-1.296e-06 -8.31515e-07 1.14866e-06)
(-9.50363e-07 -6.01759e-07 6.15984e-07)
(-6.22828e-07 -4.04311e-07 6.8234e-07)
(-1.09129e-06 -6.97041e-07 9.27208e-07)
(-1.20232e-06 -7.59757e-07 1.46371e-06)
(-6.45569e-07 -4.19356e-07 7.79814e-07)
(-1.11436e-06 -7.14485e-07 1.05842e-06)
(-8.1346e-07 -4.43362e-07 1.46888e-06)
(-4.6594e-07 -2.24012e-07 8.87621e-07)
(-4.57519e-08 -5.42369e-08 8.10488e-08)
(-2.17917e-07 -1.51087e-07 4.80118e-07)
(-3.15261e-07 -1.63074e-07 6.2529e-07)
(-7.59863e-07 -4.27951e-07 1.36149e-06)
(-3.06482e-07 -1.97177e-07 6.30344e-07)
(-4.15844e-07 -2.16373e-07 8.14567e-07)
(-2.40748e-06 -1.48688e-06 2.69999e-06)
(-3.04863e-06 -1.94181e-06 2.43892e-06)
(-3.15959e-06 -2.0116e-06 3.13933e-06)
(-4.36052e-06 -2.85658e-06 4.01167e-06)
(-3.4778e-06 -2.23866e-06 3.56385e-06)
(-3.32381e-06 -2.13066e-06 2.55019e-06)
(-4.31802e-06 -2.81894e-06 3.69512e-06)
(-3.43285e-06 -2.20224e-06 3.28152e-06)
(-5.23985e-06 -3.35999e-06 8.82829e-07)
(-4.41247e-06 -2.85386e-06 1.57618e-06)
(-5.43452e-06 -3.54252e-06 1.73628e-06)
(-6.94709e-06 -4.57682e-06 2.27436e-06)
(-5.87263e-06 -3.88199e-06 3.06019e-06)
(-5.81043e-06 -3.8097e-06 2.09933e-06)
(-4.42937e-06 -2.87637e-06 1.85102e-06)
(-5.51389e-06 -3.63738e-06 2.97199e-06)
(-5.45039e-06 -3.56642e-06 2.03896e-06)
(-2.17187e-06 -1.36018e-06 1.30083e-06)
(-3.01008e-06 -1.92753e-06 2.2094e-06)
(-2.93554e-06 -1.8699e-06 1.51589e-06)
(-3.31376e-06 -2.07499e-06 7.14235e-07)
(-4.09207e-06 -2.63824e-06 1.52157e-06)
(-3.19429e-06 -2.03567e-06 1.35012e-06)
(-3.28576e-06 -2.11554e-06 2.31031e-06)
(-4.10934e-06 -2.66023e-06 1.78631e-06)
(-3.21268e-06 -2.05598e-06 1.58511e-06)
(-4.67596e-06 -3.07679e-06 4.15624e-06)
(-5.6834e-06 -3.77765e-06 4.57573e-06)
(-7.12634e-06 -4.76018e-06 4.70173e-06)
(-5.90661e-06 -3.90284e-06 3.37796e-06)
(-6.00052e-06 -3.98522e-06 4.34075e-06)
(-4.63428e-06 -3.03882e-06 3.82863e-06)
(-5.54837e-06 -3.65762e-06 3.28053e-06)
(-5.64415e-06 -3.73895e-06 4.21602e-06)
(-2.37499e-06 -1.5377e-06 2.87808e-06)
(-3.01589e-06 -1.99014e-06 2.68325e-06)
(-3.12475e-06 -2.06029e-06 3.34377e-06)
(-4.32632e-06 -2.8973e-06 4.2051e-06)
(-3.44469e-06 -2.28134e-06 3.73777e-06)
(-3.29018e-06 -2.17826e-06 2.80488e-06)
(-4.28095e-06 -2.86468e-06 3.93213e-06)
(-3.39737e-06 -2.2502e-06 3.49439e-06)
(-5.17275e-06 -3.38101e-06 1.3919e-06)
(-4.37714e-06 -2.87674e-06 1.86051e-06)
(-5.39741e-06 -3.56426e-06 2.04745e-06)
(-6.91024e-06 -4.59954e-06 2.60495e-06)
(-5.84253e-06 -3.9106e-06 3.31998e-06)
(-5.77494e-06 -3.8337e-06 2.40693e-06)
(-4.39624e-06 -2.90212e-06 2.12483e-06)
(-5.48423e-06 -3.6665e-06 3.22506e-06)
(-5.41546e-06 -3.59086e-06 2.33844e-06)
(-2.14531e-06 -1.3895e-06 1.49626e-06)
(-2.98509e-06 -1.96077e-06 2.40195e-06)
(-2.90622e-06 -1.89785e-06 1.74234e-06)
(-3.25295e-06 -2.09827e-06 1.12767e-06)
(-4.05752e-06 -2.66153e-06 1.7964e-06)
(-3.162e-06 -2.06012e-06 1.59529e-06)
(-3.26007e-06 -2.14827e-06 2.51109e-06)
(-4.0769e-06 -2.68642e-06 2.05109e-06)
(-3.1825e-06 -2.08348e-06 1.82148e-06)
(-4.64149e-06 -3.11684e-06 4.35587e-06)
(-5.64833e-06 -3.81569e-06 4.793e-06)
(-7.0869e-06 -4.7999e-06 4.99458e-06)
(-5.86755e-06 -3.94445e-06 3.70698e-06)
(-5.9617e-06 -4.0272e-06 4.61411e-06)
(-4.59678e-06 -3.08383e-06 4.0733e-06)
(-5.50984e-06 -3.69998e-06 3.60109e-06)
(-5.60559e-06 -3.7817e-06 4.4825e-06)
(-1.09661e-05 -7.43873e-06 6.42341e-06)
(-1.23862e-05 -8.38686e-06 6.73966e-06)
(-1.27732e-05 -8.58627e-06 5.13958e-06)
(-1.28423e-05 -8.67573e-06 6.39746e-06)
(-1.0932e-05 -7.40357e-06 6.00777e-06)
(-1.22836e-05 -8.26246e-06 5.06416e-06)
(-1.23542e-05 -8.35198e-06 6.30347e-06)
(-7.30696e-06 -4.86665e-06 2.6683e-06)
(-8.60904e-06 -5.78456e-06 3.93565e-06)
(-8.54962e-06 -5.70108e-06 2.85105e-06)
(-9.14138e-06 -6.03553e-06 1.76611e-06)
(-1.03078e-05 -6.85515e-06 2.69186e-06)
(-8.96541e-06 -5.96065e-06 2.54535e-06)
(-9.03899e-06 -6.07381e-06 4.01671e-06)
(-1.03221e-05 -6.88453e-06 3.07713e-06)
(-8.98069e-06 -5.98968e-06 2.90936e-06)
(-1.05073e-05 -7.13076e-06 6.31307e-06)
(-9.17766e-06 -6.23319e-06 5.96712e-06)
(-7.48032e-06 -5.06894e-06 5.11663e-06)
(-8.63007e-06 -5.82027e-06 4.39375e-06)
(-8.71311e-06 -5.9081e-06 5.46848e-06)
(-1.04726e-05 -7.09554e-06 5.90459e-06)
(-9.05948e-06 -6.10968e-06 4.48416e-06)
(-9.14094e-06 -6.19795e-06 5.58104e-06)
(-1.27569e-05 -8.55006e-06 4.60449e-06)
(-1.27075e-05 -8.46319e-06 3.33216e-06)
(-1.19207e-05 -7.87692e-06 1.95305e-06)
(-1.07706e-05 -7.16247e-06 2.73813e-06)
(-1.22032e-05 -8.10988e-06 2.87175e-06)
(-1.22667e-05 -8.22621e-06 4.53684e-06)
(-1.07846e-05 -7.19196e-06 3.13051e-06)
(-1.22163e-05 -8.13946e-06 3.2836e-06)
(-2.37057e-06 -1.52189e-06 3.34948e-06)
(-2.15746e-06 -1.36881e-06 3.1531e-06)
(-1.20329e-07 8.0315e-09 1.34943e-07)
(-2.67844e-07 -4.33587e-08 3.64012e-07)
(-7.65851e-06 -5.2228e-06 6.2814e-06)
(-8.05789e-06 -5.49658e-06 6.42834e-06)
(-2.34199e-06 -1.54502e-06 3.4103e-06)
(-2.12918e-06 -1.39222e-06 3.21086e-06)
(-1.22068e-07 -3.79616e-08 1.52334e-07)
(-2.72607e-07 -8.02999e-08 4.08882e-07)
(-2.59533e-06 -1.6828e-06 3.54352e-06)
(-2.83164e-06 -1.85147e-06 3.73511e-06)
(-7.268e-06 -4.95438e-06 6.13157e-06)
(-6.88652e-06 -4.69149e-06 5.97887e-06)
(-2.56654e-06 -1.70564e-06 3.60736e-06)
(-2.80271e-06 -1.874e-06 3.80195e-06)
(-7.24134e-06 -4.97223e-06 6.23448e-06)
(-6.85957e-06 -4.70968e-06 6.07961e-06)
(-7.63216e-06 -5.2403e-06 6.3864e-06)
(-8.03186e-06 -5.51374e-06 6.53538e-06)
(-3.61494e-12 -9.5476e-14 -5.27861e-12)
(-2.06674e-14 -6.87752e-14 1.62493e-12)
(-3.66065e-12 -1.08293e-13 -5.50852e-12)
(-1.09221e-13 -3.23927e-14 1.41488e-12)
(-3.74159e-12 -2.09345e-14 -5.58678e-12)
(-3.75086e-12 -1.5788e-14 -5.72595e-12)
(-2.69109e-12 6.84745e-12 -3.07128e-12)
(-5.88995e-13 7.93784e-12 4.96699e-12)
(-3.77241e-12 1.16823e-11 -2.91476e-12)
(-4.22899e-11 1.8348e-10 1.25945e-11)
(-9.78171e-11 3.6252e-10 -1.21447e-11)
(-4.60521e-11 2.60641e-10 4.89401e-12)
(-3.5994e-12 -5.88338e-14 -5.25529e-12)
(4.38236e-14 -6.64495e-14 1.777e-12)
(-3.60408e-12 -5.86758e-14 -5.37744e-12)
(-2.5164e-12 3.6815e-12 -3.52126e-12)
(9.18481e-13 1.59262e-12 3.65081e-12)
(-2.51148e-12 2.15989e-12 -4.03825e-12)
(-3.46564e-12 1.03813e-13 -5.25952e-12)
(1.80176e-13 1.79762e-13 1.90622e-12)
(-3.4058e-12 1.45708e-13 -5.32735e-12)
(-2.3986e-12 -1.79109e-14 -2.50587e-12)
(-1.18751e-12 -4.09638e-14 3.9373e-13)
(-2.33576e-12 -2.15214e-14 -2.4229e-12)
(-1.26818e-12 -3.72908e-14 2.02993e-13)
(-2.48402e-12 -3.60792e-14 -2.70809e-12)
(-2.40576e-12 -3.0043e-14 -2.58396e-12)
(-3.83029e-12 2.84398e-14 -5.72322e-12)
(-1.86187e-13 7.31759e-15 1.28121e-12)
(-3.84457e-12 3.2618e-14 -5.88479e-12)
(-3.75012e-12 -5.88214e-14 -5.59939e-12)
(-1.64524e-13 -3.816e-14 1.29727e-12)
(-3.80173e-12 -6.53265e-14 -5.82606e-12)
(-2.57129e-12 -1.6017e-14 -2.86848e-12)
(-1.34965e-12 -7.37531e-15 5.96025e-14)
(-2.48873e-12 -1.27238e-14 -2.73653e-12)
(-2.49729e-12 -6.73387e-15 -2.72808e-12)
(-1.32003e-12 -2.05537e-14 9.43414e-14)
(-2.44547e-12 -1.07125e-14 -2.66989e-12)
(-2.10015e-06 -1.28334e-06 2.1585e-06)
(-1.84355e-06 -1.11905e-06 1.85611e-06)
(-2.06225e-06 -1.24107e-06 1.81774e-06)
(-1.84365e-06 -1.09314e-06 1.70683e-06)
(-1.88292e-06 -1.13471e-06 2.02785e-06)
(-1.12217e-06 -6.15757e-07 1.93203e-06)
(-1.26654e-06 -7.21794e-07 2.14005e-06)
(-7.83008e-07 -3.91766e-07 1.0062e-06)
(-9.3384e-07 -5.13111e-07 1.22858e-06)
(-8.28376e-07 -4.28436e-07 1.20381e-06)
(-9.29884e-07 -4.86074e-07 1.12724e-06)
(-9.74791e-07 -5.23643e-07 1.34604e-06)
(-2.35405e-12 1.18634e-12 -7.28747e-13)
(-2.00242e-12 4.44806e-12 3.32495e-12)
(-2.75358e-12 1.87619e-12 -4.09409e-13)
(-3.8204e-11 1.08812e-10 8.58653e-12)
(-5.42136e-11 8.65298e-11 6.67418e-13)
(-2.64342e-11 4.80149e-11 1.53477e-12)
(-5.22836e-08 -4.44823e-09 1.25217e-07)
(-8.12607e-09 -5.89046e-09 4.0064e-08)
(-5.72091e-08 -3.56712e-08 1.35117e-07)
(-1.27877e-08 4.41068e-09 4.45046e-08)
(-6.31372e-08 1.19561e-09 1.34903e-07)
(-4.63042e-08 -3.46711e-08 1.21273e-07)
(-1.13717e-08 9.38983e-09 4.40277e-08)
(-4.63901e-07 -2.20954e-07 6.00554e-07)
(-6.1518e-07 -3.02525e-07 7.96074e-07)
(-5.80374e-07 -3.24435e-07 7.75114e-07)
(-4.90513e-07 -2.58587e-07 7.47877e-07)
(-5.85862e-07 -2.95339e-07 7.01152e-07)
(-4.92367e-07 -2.27274e-07 6.82761e-07)
(-4.59474e-07 -2.51154e-07 6.65472e-07)
(-1.26804e-10 9.29676e-10 3.68283e-11)
(-3.5866e-10 9.59064e-10 -1.72867e-11)
(-3.18208e-10 1.07411e-09 -5.98118e-11)
(-1.78317e-06 -1.06907e-06 1.36651e-06)
(-1.98957e-06 -1.24023e-06 1.60072e-06)
(-1.80264e-06 -1.10945e-06 1.68029e-06)
(-2.03057e-06 -1.22971e-06 1.6453e-06)
(-1.81154e-06 -1.08258e-06 1.54458e-06)
(-1.77091e-06 -1.09425e-06 1.50282e-06)
(-2.00273e-06 -1.21544e-06 1.45589e-06)
(-8.66687e-07 -4.70832e-07 8.98399e-07)
(-7.49954e-07 -3.86768e-07 9.0764e-07)
(-8.92142e-07 -5.09165e-07 1.10966e-06)
(-7.13723e-07 -4.06848e-07 8.83532e-07)
(-8.96576e-07 -4.80051e-07 1.0177e-06)
(-7.20246e-07 -3.78486e-07 8.00602e-07)
(-8.59189e-07 -4.98483e-07 9.9042e-07)
(-9.87978e-07 -5.17162e-07 1.72225e-06)
(-8.62913e-07 -4.25672e-07 1.51054e-06)
(-2.26198e-08 -9.49544e-09 5.15328e-08)
(-6.82508e-08 -3.10196e-08 1.46694e-07)
(-1.58693e-08 5.23764e-09 4.20316e-08)
(-8.55451e-08 4.10721e-08 1.60932e-07)
(-8.20713e-08 -1.25662e-08 1.64065e-07)
(-1.142e-08 5.96484e-09 2.12778e-08)
(-6.47745e-07 -3.06373e-07 8.83641e-07)
(-6.9315e-07 -3.4214e-07 1.05977e-06)
(-5.29371e-07 -2.58452e-07 8.30354e-07)
(-5.23895e-07 -2.30029e-07 7.58935e-07)
(-5.68492e-07 -2.64799e-07 9.13203e-07)
(-9.07335e-11 2.19196e-10 6.69206e-12)
(-3.08635e-10 6.98469e-10 -1.54656e-12)
(-2.14151e-10 3.92401e-10 -9.90638e-13)
(-1.10866e-05 -7.54971e-06 7.37693e-06)
(-1.15505e-05 -7.86064e-06 7.50112e-06)
(-1.09146e-05 -7.26031e-06 4.07958e-06)
(-1.09243e-05 -7.30904e-06 4.81607e-06)
(-1.13679e-05 -7.59432e-06 4.4896e-06)
(-1.13834e-05 -7.57336e-06 4.15012e-06)
(-1.13923e-05 -7.62196e-06 4.89831e-06)
(-7.80834e-06 -5.15057e-06 2.84325e-06)
(-7.37867e-06 -4.89561e-06 3.04079e-06)
(-7.42189e-06 -4.90006e-06 3.13498e-06)
(-7.80613e-06 -5.19533e-06 3.47782e-06)
(-7.82702e-06 -5.1745e-06 3.20995e-06)
(-7.40275e-06 -4.87646e-06 2.77672e-06)
(-7.78387e-06 -5.1694e-06 3.11277e-06)
(-9.96206e-06 -6.59888e-06 3.15771e-06)
(-1.04328e-05 -6.92835e-06 3.63082e-06)
(-9.95603e-06 -6.6433e-06 3.85683e-06)
(-1.03905e-05 -6.91979e-06 3.51583e-06)
(-9.97853e-06 -6.62411e-06 3.56411e-06)
(-1.04167e-05 -6.90292e-06 3.217e-06)
(-9.93603e-06 -6.61608e-06 3.45206e-06)
(-1.06302e-05 -7.24287e-06 7.24993e-06)
(-1.01814e-05 -6.94028e-06 7.12012e-06)
(-7.46264e-06 -4.97003e-06 4.09228e-06)
(-7.44553e-06 -4.92117e-06 3.46073e-06)
(-7.83757e-06 -5.21882e-06 3.83941e-06)
(-7.85021e-06 -5.19597e-06 3.54343e-06)
(-7.86631e-06 -5.24492e-06 4.18921e-06)
(-1.04533e-05 -6.95147e-06 4.00754e-06)
(-1.04638e-05 -7.00032e-06 4.73202e-06)
(-9.9849e-06 -6.66872e-06 4.25837e-06)
(-9.9995e-06 -6.64702e-06 3.93399e-06)
(-1.00109e-05 -6.69596e-06 4.64615e-06)
(-1.13485e-05 -7.52411e-06 3.33197e-06)
(-1.08946e-05 -7.23698e-06 3.69617e-06)
(-1.13405e-05 -7.56804e-06 4.06596e-06)
(-1.08525e-05 -7.22793e-06 3.57824e-06)
(-1.13637e-05 -7.54986e-06 3.76017e-06)
(-1.08789e-05 -7.21139e-06 3.27508e-06)
(-1.13219e-05 -7.54033e-06 3.63931e-06)
(-2.37066e-12 -4.92775e-14 -2.4458e-12)
(-1.13512e-12 -6.17724e-14 5.24824e-13)
(-2.29594e-12 -4.36518e-14 -2.32421e-12)
(-3.81273e-12 -6.82311e-15 -5.69281e-12)
(-2.21362e-13 8.80708e-15 1.22069e-12)
(-3.8574e-12 -1.14613e-14 -5.88838e-12)
(-3.59373e-12 1.19546e-13 -5.38107e-12)
(-9.85034e-15 1.10753e-13 1.64973e-12)
(-3.67576e-12 1.23399e-13 -5.60812e-12)
(-2.29288e-12 7.40282e-13 -1.27727e-12)
(-7.574e-13 1.00879e-12 2.03973e-12)
(-2.1898e-12 4.96181e-13 -1.44071e-12)
(-1.16294e-12 1.6916e-13 5.50305e-13)
(-2.45612e-12 9.82302e-14 -2.50721e-12)
(-2.39992e-12 1.08386e-13 -2.42402e-12)
(-2.55844e-12 1.29814e-14 -2.8264e-12)
(-1.39612e-12 1.69732e-14 -1.35511e-14)
(-2.52151e-12 1.09875e-14 -2.79371e-12)
(-1.26347e-12 8.87711e-14 3.29369e-13)
(-2.53249e-12 6.00075e-14 -2.69435e-12)
(-2.4738e-12 5.21852e-14 -2.61047e-12)
(-2.06831e-06 -1.34012e-06 2.37017e-06)
(-1.81616e-06 -1.17112e-06 2.04539e-06)
(-2.01042e-06 -1.34691e-06 2.25002e-06)
(-1.85237e-06 -1.19231e-06 2.22764e-06)
(-1.79441e-06 -1.20057e-06 2.1144e-06)
(-1.09854e-06 -6.40613e-07 1.97155e-06)
(-1.24168e-06 -7.46414e-07 2.18251e-06)
(-7.5262e-07 -5.10428e-07 1.25928e-06)
(-9.13894e-07 -5.69464e-07 1.35875e-06)
(-8.08034e-07 -4.91849e-07 1.32975e-06)
(-9.52359e-07 -5.85899e-07 1.48433e-06)
(-8.95837e-07 -6.025e-07 1.40637e-06)
(-4.90438e-08 -9.9579e-08 1.79314e-07)
(-1.20062e-08 -2.52564e-08 4.77373e-08)
(-5.95335e-08 -6.44616e-08 1.63901e-07)
(-2.18476e-08 -6.01263e-08 6.84973e-08)
(-4.77588e-08 -6.02667e-08 1.46535e-07)
(-6.15523e-08 -1.05827e-07 1.96085e-07)
(-1.59263e-08 -5.40025e-08 6.1886e-08)
(-4.3892e-07 -3.3108e-07 8.07051e-07)
(-5.88026e-07 -4.12289e-07 1.01825e-06)
(-5.68775e-07 -3.62831e-07 8.58748e-07)
(-4.80087e-07 -3.00767e-07 8.2173e-07)
(-4.49641e-07 -2.9083e-07 7.39696e-07)
(-5.56297e-07 -4.02178e-07 9.34493e-07)
(-4.69559e-07 -3.40091e-07 8.80045e-07)
(-1.73041e-06 -1.16269e-06 1.79121e-06)
(-1.96842e-06 -1.27323e-06 1.76164e-06)
(-1.78181e-06 -1.14534e-06 1.8291e-06)
(-1.97871e-06 -1.32473e-06 2.07139e-06)
(-1.75069e-06 -1.12777e-06 1.65439e-06)
(-1.76219e-06 -1.17907e-06 1.94611e-06)
(-1.94733e-06 -1.30759e-06 1.90682e-06)
(-8.29213e-07 -5.72944e-07 1.1868e-06)
(-7.18815e-07 -4.93971e-07 1.15561e-06)
(-8.76937e-07 -5.48249e-07 1.21143e-06)
(-7.00458e-07 -4.44281e-07 9.76797e-07)
(-8.44556e-07 -5.35079e-07 1.09351e-06)
(-8.61918e-07 -5.85058e-07 1.29158e-06)
(-6.86424e-07 -4.82847e-07 1.06126e-06)
(-9.65853e-07 -5.42295e-07 1.75898e-06)
(-8.42705e-07 -4.51246e-07 1.54483e-06)
(-3.03935e-08 -4.57812e-08 6.73051e-08)
(-7.35794e-08 -7.55156e-08 1.84733e-07)
(-2.63343e-08 -6.93757e-08 8.18903e-08)
(-8.9876e-08 -8.51455e-08 2.04699e-07)
(-7.62004e-08 -1.14373e-07 2.19608e-07)
(-6.21402e-07 -4.27703e-07 1.11065e-06)
(-6.75137e-07 -4.07018e-07 1.17329e-06)
(-5.15775e-07 -3.18537e-07 9.25484e-07)
(-5.5322e-07 -3.31257e-07 1.01512e-06)
(-5.02092e-07 -3.54358e-07 9.60931e-07)
(-2.32913e-06 -1.44047e-06 2.28725e-06)
(-2.29259e-06 -1.39754e-06 1.927e-06)
(-2.53197e-06 -1.58788e-06 2.2111e-06)
(-2.53457e-06 -1.56239e-06 2.03465e-06)