/*--------------------------------*- C++ -*----------------------------------*\
| =========                 |                                                 |
| \\      /  F ield         | OpenFOAM: The Open Source CFD Toolbox           |
|  \\    /   O peration     | Version:  2012                                  |
|   \\  /    A nd           | Website:  www.openfoam.com                      |
|    \\/     M anipulation  |                                                 |
\*---------------------------------------------------------------------------*/
FoamFile
{
    version     2.0;
    format      ascii;
    class       volVectorField;
    location    "0.105/solid";
    object      D_0;
}
// * * * * * * * * * * * * * * * * * * * * * * * * * * * * * * * * * * * * * //

dimensions      [0 1 0 0 0 0 0];


internalField   nonuniform List<vector> 
3125
(
(2.49309e-13 -1.32691e-13 1.6217e-11)
(2.00901e-11 -2.47812e-11 1.87277e-11)
(-1.91651e-12 -2.11283e-13 3.17548e-11)
(2.54833e-13 -1.25289e-13 1.62552e-11)
(-1.96463e-12 -1.75545e-13 3.16275e-11)
(2.22037e-11 -3.94734e-11 3.85843e-11)
(1.48181e-11 -1.69902e-11 1.9813e-11)
(4.15905e-11 -7.37541e-11 4.10509e-11)
(2.23996e-13 2.23278e-14 1.62563e-11)
(-5.6424e-09 -8.67417e-10 2.21108e-08)
(-1.5285e-06 -1.1424e-06 4.25246e-07)
(-6.47213e-06 -5.20071e-06 8.3768e-07)
(-1.99179e-12 -5.16835e-14 3.17891e-11)
(-1.85379e-12 -2.48881e-13 3.20225e-11)
(2.44056e-13 -3.87203e-14 1.63056e-11)
(-1.53716e-09 -2.25471e-08 4.51095e-08)
(-1.49346e-06 -1.16465e-06 7.5099e-07)
(-5.78606e-06 -4.63668e-06 7.9723e-07)
(-1.92937e-06 -1.46495e-06 4.77061e-07)
(-5.74795e-06 -4.65355e-06 1.39601e-06)
(-1.89283e-06 -1.48643e-06 8.43051e-07)
(-6.43483e-06 -5.21695e-06 1.4626e-06)
(-8.18467e-14 -5.53577e-14 1.55018e-12)
(1.60551e-13 1.40494e-15 1.60582e-11)
(-1.84411e-13 -2.48617e-14 1.30859e-12)
(1.90362e-12 3.18484e-12 4.85288e-12)
(5.82861e-11 -4.37654e-11 3.42202e-11)
(-7.61754e-11 2.32954e-10 5.01882e-12)
(-5.56217e-14 -5.52939e-14 1.59732e-12)
(-2.07005e-12 -1.88541e-14 3.14261e-11)
(1.7498e-12 -5.94619e-12 3.4144e-11)
(1.98221e-12 -2.03135e-12 1.72903e-11)
(1.5996e-12 1.68459e-12 3.9348e-12)
(2.39135e-13 8.92046e-14 2.01502e-12)
(-1.26799e-12 -3.24452e-14 2.67066e-13)
(-1.35684e-12 -3.29549e-14 5.66316e-14)
(1.55007e-13 -8.38594e-15 1.60627e-11)
(-2.47624e-13 1.49096e-14 1.2174e-12)
(-1.85986e-13 -2.77669e-14 1.31063e-12)
(-1.43219e-12 -1.55304e-15 -5.9596e-14)
(-1.35946e-12 -1.19583e-14 5.62333e-14)
(-1.77372e-06 -1.29031e-06 1.68769e-06)
(-6.77214e-07 -4.10633e-07 9.3806e-07)
(-3.57804e-13 1.98987e-12 3.15076e-12)
(-6.68512e-11 1.50318e-10 5.53622e-12)
(-1.24895e-10 2.54495e-12 -3.10176e-11)
(-3.52587e-07 -2.36923e-07 1.98132e-07)
(-1.17312e-08 -6.49368e-09 3.58823e-08)
(-5.26571e-07 -3.25377e-07 7.44701e-07)
(-9.04615e-11 5.88155e-10 3.13952e-11)
(-1.73932e-06 -1.28691e-06 1.53031e-06)
(-5.79809e-07 -4.04153e-07 2.58188e-07)
(-6.4183e-07 -4.11121e-07 8.47719e-07)
(-1.54118e-08 -9.55534e-09 4.09405e-08)
(-5.61289e-07 -3.24118e-07 8.24963e-07)
(-9.42152e-11 3.87149e-10 2.07969e-11)
(-9.39198e-06 -7.58454e-06 3.77375e-06)
(-6.37745e-06 -5.13669e-06 2.90665e-06)
(-8.70587e-06 -7.02395e-06 9.51621e-07)
(-8.97186e-06 -7.25573e-06 3.36211e-06)
(-6.40352e-06 -5.14439e-06 3.20453e-06)
(-8.99443e-06 -7.26307e-06 3.70757e-06)
(-9.50489e-06 -7.67035e-06 9.87139e-07)
(-9.36991e-06 -7.57734e-06 3.422e-06)
(-1.23827e-12 -5.63056e-14 3.26589e-13)
(-2.08515e-12 4.01414e-15 3.14496e-11)
(-3.87665e-14 -2.99552e-12 3.3398e-11)
(1.46931e-12 -1.2854e-12 1.71716e-11)
(-1.98752e-13 1.23611e-14 1.32775e-12)
(3.2199e-14 8.82293e-14 1.67977e-12)
(-4.91935e-13 1.15214e-12 2.26118e-12)
(-1.12423e-12 1.22657e-13 6.10532e-13)
(-1.39141e-12 2.03308e-14 3.70434e-14)
(-1.28691e-12 9.19774e-14 2.8812e-13)
(-1.75531e-06 -1.3346e-06 1.89777e-06)
(-6.64462e-07 -4.60173e-07 1.05948e-06)
(-3.32118e-07 -2.64696e-07 3.50356e-07)
(-1.46536e-08 -2.52275e-08 4.56592e-08)
(-5.18116e-07 -3.60743e-07 8.29698e-07)
(-1.72572e-06 -1.31741e-06 1.69607e-06)
(-5.53213e-07 -4.29428e-07 4.55126e-07)
(-6.32327e-07 -4.45585e-07 9.42977e-07)
(-1.93907e-08 -3.37933e-08 5.17059e-08)
(-5.49919e-07 -3.74818e-07 9.3341e-07)
(-1.97141e-06 -1.45379e-06 1.78869e-06)
(-3.62909e-06 -2.83699e-06 2.45411e-06)
(-3.92061e-06 -3.09787e-06 6.68295e-07)
(-6.03609e-06 -4.85511e-06 2.83636e-06)
(-3.87326e-06 -3.05964e-06 2.30737e-06)
(-1.93746e-06 -1.44995e-06 1.62216e-06)
(-3.36717e-06 -2.64147e-06 6.22684e-07)
(-3.59856e-06 -2.83067e-06 2.22647e-06)
(-6.06265e-06 -4.86277e-06 3.12694e-06)
(-3.90329e-06 -3.06621e-06 2.54329e-06)
(-1.95253e-06 -1.49744e-06 2.01074e-06)
(-3.60832e-06 -2.87614e-06 2.75275e-06)
(-3.88149e-06 -3.11665e-06 1.17806e-06)
(-6.0206e-06 -4.87847e-06 3.12892e-06)
(-3.85765e-06 -3.08611e-06 2.55123e-06)
(-1.9235e-06 -1.47999e-06 1.79743e-06)
(-3.32824e-06 -2.6609e-06 1.09919e-06)
(-3.58305e-06 -2.85759e-06 2.46251e-06)
(-6.04213e-06 -4.89675e-06 3.4968e-06)
(-3.88242e-06 -3.10472e-06 2.85179e-06)
(-9.37429e-06 -7.61277e-06 4.2038e-06)
(-6.36208e-06 -5.1596e-06 3.20531e-06)
(-8.67231e-06 -7.03832e-06 1.6448e-06)
(-8.95807e-06 -7.27557e-06 3.69792e-06)
(-6.38318e-06 -5.17773e-06 3.58209e-06)
(-8.9763e-06 -7.29193e-06 4.13191e-06)
(-9.47297e-06 -7.6841e-06 1.69983e-06)
(-9.35645e-06 -7.59675e-06 3.76235e-06)
(-2.57748e-12 -9.44104e-14 1.14267e-11)
(2.15908e-13 -5.35069e-14 1.61455e-11)
(-2.63514e-12 -5.46012e-14 1.13202e-11)
(6.30873e-12 -6.88531e-15 1.41722e-11)
(4.63798e-11 -4.61408e-11 2.39407e-11)
(1.73144e-11 1.87497e-11 1.6275e-11)
(-1.83615e-12 -2.7588e-13 3.19446e-11)
(3.48798e-13 -1.99557e-13 1.64561e-11)
(-2.56847e-12 -9.11103e-14 1.14613e-11)
(-2.54482e-12 -1.29414e-13 1.16095e-11)
(-1.98564e-12 -1.1521e-13 3.15242e-11)
(1.10569e-11 -2.14651e-11 3.65613e-11)
(6.33101e-12 -7.65271e-12 1.8181e-11)
(4.01729e-12 -1.40292e-12 1.38062e-11)
(3.37609e-14 -1.30883e-12 1.29009e-11)
(1.78185e-13 1.38601e-14 1.6167e-11)
(-2.67528e-12 4.37038e-14 1.13532e-11)
(-2.70972e-12 1.82223e-14 1.12629e-11)
(-1.92045e-06 -1.35676e-06 2.38035e-06)
(-1.39479e-06 -9.16777e-07 1.94984e-06)
(-5.11997e-09 1.38916e-09 3.03414e-09)
(-5.11826e-08 -3.09122e-08 8.04666e-08)
(-1.00852e-08 -6.46713e-10 3.59405e-08)
(-1.0126e-07 -6.55107e-08 1.83099e-07)
(-3.07702e-09 3.39246e-09 1.23015e-09)
(-1.65169e-06 -1.2495e-06 8.84655e-07)
(-1.16901e-06 -8.57241e-07 3.71579e-07)
(-1.11484e-06 -8.1981e-07 7.18966e-07)
(-3.88675e-08 -2.20334e-09 3.6069e-08)
(-3.13252e-07 -9.35147e-08 5.35327e-07)
(-1.11277e-05 -8.96088e-06 5.62758e-06)
(-6.31439e-06 -5.09077e-06 1.6797e-06)
(-7.18828e-06 -5.78764e-06 8.76892e-07)
(-7.38744e-06 -5.96993e-06 1.79756e-06)
(-6.51174e-06 -5.21161e-06 4.48995e-06)
(-7.57296e-06 -6.08651e-06 4.80155e-06)
(-1.11774e-05 -9.01246e-06 1.05446e-06)
(-1.09761e-05 -8.86736e-06 2.11069e-06)
(-2.03558e-12 5.55479e-15 3.16332e-11)
(-1.54532e-12 -6.27307e-13 3.23576e-11)
(5.21535e-13 -1.93752e-13 1.6607e-11)
(-2.66378e-12 3.15039e-14 1.13867e-11)
(-2.58524e-12 1.8547e-14 1.1574e-11)
(-1.89647e-06 -1.3963e-06 2.52352e-06)
(-1.37229e-06 -9.57829e-07 2.06864e-06)
(-4.87702e-08 -5.98468e-08 1.36818e-07)
(-2.47381e-09 -1.24631e-08 2.98467e-08)
(-1.00465e-07 -9.57057e-08 2.29348e-07)
(-1.63465e-06 -1.2724e-06 1.08777e-06)
(-1.13596e-06 -8.80334e-07 6.55563e-07)
(-1.09946e-06 -8.43923e-07 8.85016e-07)
(-5.11748e-08 -4.96149e-08 7.81599e-08)
(-3.11468e-07 -1.47029e-07 5.925e-07)
(-2.11592e-06 -1.52144e-06 2.52018e-06)
(-2.76193e-06 -2.06716e-06 2.92831e-06)
(-5.1313e-06 -4.09712e-06 7.5553e-07)
(-5.97178e-06 -4.809e-06 1.63941e-06)
(-4.99102e-06 -4.00019e-06 1.51266e-06)
(-1.85138e-06 -1.41141e-06 9.37473e-07)
(-2.3703e-06 -1.82338e-06 5.27161e-07)
(-2.51038e-06 -1.95049e-06 1.09262e-06)
(-6.17307e-06 -4.93083e-06 4.38202e-06)
(-5.20447e-06 -4.12377e-06 4.04596e-06)
(-2.09166e-06 -1.56046e-06 2.67122e-06)
(-2.73729e-06 -2.10458e-06 3.10204e-06)
(-5.09259e-06 -4.11462e-06 1.32642e-06)
(-5.95213e-06 -4.82643e-06 2.00229e-06)
(-4.9711e-06 -4.0186e-06 1.85083e-06)
(-1.83378e-06 -1.43392e-06 1.15261e-06)
(-2.33263e-06 -1.84414e-06 9.3174e-07)
(-2.49172e-06 -1.97195e-06 1.34202e-06)
(-6.15091e-06 -4.96136e-06 4.63064e-06)
(-5.18127e-06 -4.15605e-06 4.27829e-06)
(-1.1112e-05 -8.98398e-06 5.92934e-06)
(-6.29489e-06 -5.10785e-06 2.05036e-06)
(-7.15201e-06 -5.80325e-06 1.52623e-06)
(-7.36861e-06 -5.98604e-06 2.18983e-06)
(-6.48997e-06 -5.24156e-06 4.74365e-06)
(-7.55248e-06 -6.11472e-06 5.06946e-06)
(-1.11492e-05 -9.02499e-06 1.80159e-06)
(-1.09609e-05 -8.88056e-06 2.55493e-06)
(-5.38611e-12 -9.14297e-14 9.02334e-12)
(-1.11968e-13 -3.99793e-14 1.43913e-12)
(-5.44672e-12 -4.49537e-14 8.90613e-12)
(2.0859e-13 -7.87202e-14 1.61266e-11)
(-2.65486e-12 -1.48073e-14 1.12532e-11)
(-2.64435e-12 -5.514e-14 1.12955e-11)
(-1.22484e-13 -3.69115e-14 1.42466e-12)
(-5.46006e-12 -1.09694e-14 8.84431e-12)
(-5.45324e-12 -5.56048e-14 8.88133e-12)
(4.53579e-13 2.45654e-12 1.17205e-11)
(-2.56489e-12 1.95554e-11 5.95105e-12)
(5.75141e-12 2.37152e-11 1.38029e-11)
(5.35121e-11 -6.57242e-11 1.58782e-11)
(3.02542e-11 2.45305e-10 2.66776e-11)
(2.23111e-11 4.41346e-11 1.76808e-11)
(-6.25641e-12 4.06295e-11 7.22219e-12)
(-3.63032e-12 2.52142e-10 2.40545e-11)
(7.23369e-12 5.26919e-11 1.54777e-11)
(-2.53477e-12 -1.29543e-13 1.16588e-11)
(-5.3798e-12 -7.09256e-14 9.05669e-12)
(1.62444e-14 -6.60419e-14 1.76559e-12)
(-5.36722e-12 -1.15763e-13 9.19026e-12)
(5.04942e-14 -7.0077e-14 1.83711e-12)
(-5.36062e-12 -1.06096e-13 9.23522e-12)
(-2.01881e-12 -8.26859e-14 3.14631e-11)
(5.06492e-12 -1.13693e-11 3.52043e-11)
(4.61163e-12 -5.1127e-12 1.81906e-11)
(-1.90867e-12 -3.70656e-13 1.21395e-11)
(-6.77801e-13 -1.04169e-12 1.27108e-11)
(-9.37849e-13 5.00653e-13 1.13091e-11)
(9.64814e-13 2.74296e-13 2.90473e-12)
(-3.60664e-12 -5.17514e-13 1.03459e-11)
(-4.98005e-12 -1.61608e-13 9.61356e-12)
(6.41489e-13 1.56112e-13 2.45331e-12)
(-4.09585e-12 -4.52527e-13 1.01619e-11)
(-1.04034e-12 9.29508e-16 -2.11811e-12)
(-1.3002e-12 -4.38388e-14 1.80602e-13)
(-1.04612e-12 -8.03068e-15 -2.14664e-12)
(-1.31212e-12 -2.06765e-14 1.60345e-13)
(-1.08804e-12 -8.60432e-15 -2.18604e-12)
(-1.06463e-12 1.2414e-15 -2.1673e-12)
(1.82405e-13 5.55656e-14 1.61404e-11)
(-2.66455e-12 -1.80236e-14 1.12475e-11)
(-2.70387e-12 2.1181e-14 1.12591e-11)
(-5.50773e-12 4.54144e-14 8.90884e-12)
(-1.9694e-13 -7.72138e-15 1.28998e-12)
(-5.52755e-12 5.75882e-15 8.82371e-12)
(-5.47001e-12 -3.12872e-14 8.83543e-12)
(-2.17021e-13 -1.0495e-14 1.23618e-12)
(-5.52049e-12 1.74349e-14 8.82573e-12)
(-1.14355e-12 -5.82718e-15 -2.25483e-12)
(-1.38621e-12 8.10219e-16 2.22079e-14)
(-1.12758e-12 2.15555e-15 -2.25193e-12)
(-1.11303e-12 2.03467e-15 -2.21541e-12)
(-1.40274e-12 -2.31241e-14 -2.13228e-14)
(-1.1092e-12 -7.4543e-15 -2.22853e-12)
(-1.8774e-06 -1.33099e-06 2.18569e-06)
(-1.24193e-06 -8.55352e-07 1.37562e-06)
(-1.3499e-06 -8.92409e-07 1.78778e-06)
(-8.34407e-07 -4.60624e-07 1.35034e-06)
(-1.23987e-06 -7.88589e-07 1.80273e-06)
(-1.08531e-06 -7.29428e-07 1.26854e-06)
(-7.8777e-07 -4.39982e-07 1.23218e-06)
(-1.19444e-06 -7.64922e-07 1.65162e-06)
(-8.32469e-13 7.51872e-14 -1.68489e-12)
(-4.41623e-12 1.12063e-11 4.21765e-12)
(-8.29506e-13 2.23656e-13 -1.38573e-12)
(-8.08032e-12 2.32171e-11 5.08233e-12)
(-4.16322e-12 4.5584e-12 -1.7338e-12)
(-1.20938e-12 4.63263e-13 -1.58559e-12)
(-2.54565e-09 1.39483e-09 1.37304e-09)
(-4.59687e-11 5.31417e-10 3.82691e-11)
(-7.05423e-10 2.50738e-09 5.39832e-10)
(-1.70276e-07 -1.10947e-07 1.34845e-07)
(-4.36304e-07 -2.99559e-07 4.26328e-07)
(-1.64665e-07 -1.08759e-07 2.40672e-07)
(-1.37842e-08 1.81197e-09 5.05211e-08)
(-1.65528e-07 -8.09627e-08 3.21553e-07)
(-2.20143e-09 1.26397e-08 2.56644e-09)
(-1.13653e-07 -7.02565e-08 2.13103e-07)
(-3.88623e-09 2.03035e-09 6.57814e-10)
(-4.54703e-07 -3.06921e-07 5.0216e-07)
(-2.41567e-07 -1.27152e-07 4.27719e-07)
(-1.80607e-07 -1.14346e-07 2.84453e-07)
(-6.03212e-11 6.11082e-10 4.47418e-11)
(-1.13462e-09 2.90303e-09 -6.32138e-11)
(-7.10224e-10 2.05976e-09 4.94421e-10)
(-1.66937e-06 -1.25951e-06 1.04179e-06)
(-1.20641e-06 -8.53423e-07 1.24624e-06)
(-1.13338e-06 -8.28933e-07 8.47012e-07)
(-8.52369e-07 -6.10804e-07 3.15965e-07)
(-5.49714e-07 -3.83594e-07 4.86257e-07)
(-9.57105e-07 -6.95828e-07 6.62609e-07)
(-1.04956e-06 -7.2805e-07 1.14871e-06)
(-5.68497e-07 -3.91321e-07 5.73152e-07)
(-9.7586e-07 -7.04633e-07 7.80145e-07)
(-7.17801e-07 -3.70097e-07 1.19549e-06)
(-4.0878e-07 -1.51369e-07 7.08911e-07)
(-2.75201e-08 -6.14028e-09 4.92941e-08)
(-1.90417e-07 -7.43203e-08 3.58706e-07)
(-1.88444e-09 1.13598e-08 1.63161e-09)
(-2.72716e-07 -8.26245e-08 4.80174e-07)
(-3.24023e-10 3.61329e-10 -3.29843e-11)
(-6.71061e-07 -3.50809e-07 1.08844e-06)
(-2.69741e-07 -1.23177e-07 4.75129e-07)
(-3.6472e-07 -1.378e-07 6.37536e-07)
(-8.26551e-12 1.04435e-11 -2.5159e-12)
(-1.1164e-09 2.45316e-09 -6.00846e-11)
(-9.85261e-11 2.32633e-10 -9.16366e-13)
(-9.48312e-06 -7.64192e-06 5.28043e-06)
(-1.07074e-05 -8.6256e-06 5.54376e-06)
(-1.10447e-05 -8.91027e-06 4.02443e-06)
(-1.11033e-05 -8.94355e-06 5.18203e-06)
(-9.45638e-06 -7.62217e-06 4.86127e-06)
(-1.06224e-05 -8.57319e-06 3.96386e-06)
(-1.06825e-05 -8.60764e-06 5.10456e-06)
(-6.32695e-06 -5.1026e-06 1.98046e-06)
(-7.44668e-06 -6.01466e-06 3.10964e-06)
(-7.39921e-06 -5.9814e-06 2.11909e-06)
(-7.93327e-06 -6.39589e-06 9.14871e-07)
(-8.91751e-06 -7.21381e-06 1.94404e-06)
(-7.75957e-06 -6.27359e-06 1.83495e-06)
(-7.81762e-06 -6.31775e-06 3.1747e-06)
(-8.92831e-06 -7.22452e-06 2.29168e-06)
(-7.77113e-06 -6.28491e-06 2.16348e-06)
(-9.08765e-06 -7.32197e-06 5.18867e-06)
(-7.94125e-06 -6.38836e-06 4.90136e-06)
(-6.47998e-06 -5.18794e-06 4.13155e-06)
(-7.47125e-06 -6.02236e-06 3.42869e-06)
(-7.54312e-06 -6.06416e-06 4.41911e-06)
(-9.0603e-06 -7.30166e-06 4.77652e-06)
(-7.84169e-06 -6.32541e-06 3.50054e-06)
(-7.91204e-06 -6.36649e-06 4.51124e-06)
(-1.10246e-05 -8.90392e-06 3.64882e-06)
(-1.09858e-05 -8.87667e-06 2.48807e-06)
(-1.03291e-05 -8.33365e-06 1.02142e-06)
(-9.31669e-06 -7.53633e-06 1.97856e-06)
(-1.05522e-05 -8.52883e-06 2.079e-06)
(-1.06019e-05 -8.5666e-06 3.59402e-06)
(-9.3273e-06 -7.54681e-06 2.33262e-06)
(-1.05621e-05 -8.53844e-06 2.45054e-06)
(-1.02177e-12 -9.19201e-15 -2.09799e-12)
(-1.19478e-12 -4.0608e-14 4.56707e-13)
(-9.85105e-13 2.78749e-16 -2.06071e-12)
(-1.15839e-12 -6.52901e-14 5.32789e-13)
(-9.6868e-13 -9.01626e-15 -2.04271e-12)
(-2.06271e-12 3.68171e-14 3.1517e-11)
(-1.00602e-12 -1.44765e-12 3.28045e-11)
(6.56459e-13 -4.24888e-13 1.67071e-11)
(-2.12326e-12 -2.28201e-13 1.20133e-11)
(-2.5296e-12 -1.93424e-14 1.16448e-11)
(-5.50413e-12 2.1467e-14 8.93317e-12)
(-1.80697e-13 3.35834e-14 1.33802e-12)
(-5.47482e-12 4.17243e-14 9.08506e-12)
(-5.13575e-12 -7.10292e-14 9.49761e-12)
(-9.17511e-14 4.21799e-14 1.50922e-12)
(-5.44102e-12 1.50157e-14 9.14263e-12)
(-9.17681e-13 5.25273e-14 -1.83006e-12)
(-7.34774e-13 2.88043e-13 1.34979e-12)
(-1.06198e-12 1.52763e-14 -2.12298e-12)
(-9.37101e-13 1.76577e-13 9.48296e-13)
(-1.11447e-12 1.61711e-14 -2.2121e-12)
(-1.01447e-12 3.53063e-15 -2.0745e-12)
(-1.16008e-12 5.07055e-15 -2.27811e-12)
(-1.41335e-12 2.00619e-14 2.06261e-14)
(-1.13735e-12 -6.24684e-15 -2.2615e-12)
(-1.34595e-12 5.10956e-14 1.70129e-13)
(-1.13597e-12 5.35873e-15 -2.22702e-12)
(-1.17286e-12 3.60407e-15 -2.30268e-12)
(-1.85368e-06 -1.37546e-06 2.36089e-06)
(-1.22536e-06 -9.01661e-07 1.54851e-06)
(-1.32793e-06 -9.38694e-07 1.93274e-06)
(-8.16011e-07 -5.03845e-07 1.43576e-06)
(-1.21813e-06 -8.30143e-07 1.91321e-06)
(-1.06951e-06 -7.76462e-07 1.42868e-06)
(-7.70204e-07 -4.89077e-07 1.33551e-06)
(-1.17331e-06 -8.11837e-07 1.78623e-06)
(-1.62519e-07 -1.41155e-07 2.45359e-07)
(-4.26338e-07 -3.26624e-07 5.27647e-07)
(-1.62289e-07 -1.38537e-07 3.04036e-07)
(-4.93024e-09 -1.52954e-08 3.36789e-08)
(-1.64643e-07 -1.2246e-07 3.67824e-07)
(-1.13065e-07 -1.04015e-07 2.62039e-07)
(-4.45095e-07 -3.37164e-07 6.00704e-07)
(-2.376e-07 -1.6665e-07 4.84658e-07)
(-1.7746e-07 -1.47911e-07 3.47064e-07)
(-1.65372e-06 -1.28524e-06 1.23751e-06)
(-1.19417e-06 -8.85395e-07 1.38246e-06)
(-1.11928e-06 -8.56e-07 1.00721e-06)
(-8.2193e-07 -6.34891e-07 5.56854e-07)
(-5.38049e-07 -4.09881e-07 6.006e-07)
(-9.42592e-07 -7.20411e-07 8.15803e-07)
(-1.03788e-06 -7.6056e-07 1.27479e-06)
(-5.57582e-07 -4.20752e-07 6.83946e-07)
(-9.62428e-07 -7.32202e-07 9.28131e-07)
(-7.01025e-07 -4.14087e-07 1.27273e-06)
(-4.01453e-07 -2.00496e-07 7.68586e-07)
(-3.94755e-08 -4.64916e-08 7.01184e-08)
(-1.88236e-07 -1.33812e-07 4.17944e-07)
(-2.71774e-07 -1.43275e-07 5.41989e-07)
(-6.55168e-07 -4.00933e-07 1.18146e-06)
(-2.64654e-07 -1.78605e-07 5.48795e-07)
(-3.58469e-07 -1.9362e-07 7.06277e-07)
(-2.07352e-06 -1.49539e-06 2.31479e-06)
(-2.62426e-06 -1.99706e-06 2.08272e-06)
(-2.72152e-06 -2.04071e-06 2.69135e-06)
(-3.75755e-06 -2.90826e-06 3.44514e-06)
(-2.99673e-06 -2.26568e-06 3.06048e-06)
(-2.86137e-06 -2.19507e-06 2.17776e-06)
(-3.71984e-06 -2.88203e-06 3.16795e-06)
(-2.957e-06 -2.23921e-06 2.81325e-06)
(-4.50906e-06 -3.58363e-06 7.12562e-07)
(-3.7994e-06 -3.01465e-06 1.33358e-06)
(-4.6804e-06 -3.74345e-06 1.46941e-06)
(-5.98456e-06 -4.82089e-06 1.93258e-06)
(-5.05932e-06 -4.04638e-06 2.61761e-06)
(-5.00463e-06 -4.01216e-06 1.78338e-06)
(-3.81414e-06 -3.02639e-06 1.572e-06)
(-4.75003e-06 -3.78948e-06 2.54204e-06)
(-4.69426e-06 -3.7554e-06 1.73196e-06)
(-1.86871e-06 -1.42169e-06 1.10454e-06)
(-2.59175e-06 -1.99202e-06 1.88937e-06)
(-2.5267e-06 -1.96146e-06 1.28714e-06)
(-2.84998e-06 -2.21609e-06 5.75666e-07)
(-3.52326e-06 -2.78622e-06 1.2873e-06)
(-2.74953e-06 -2.1473e-06 1.14207e-06)
(-2.82935e-06 -2.18968e-06 1.97569e-06)
(-3.5383e-06 -2.79784e-06 1.51696e-06)
(-2.76552e-06 -2.15847e-06 1.34594e-06)
(-4.02946e-06 -3.13745e-06 3.56936e-06)
(-4.89792e-06 -3.86717e-06 3.92986e-06)
(-6.14067e-06 -4.90676e-06 4.03197e-06)
(-5.08737e-06 -4.05373e-06 2.8855e-06)
(-5.1701e-06 -4.09867e-06 3.72199e-06)
(-3.99242e-06 -3.11138e-06 3.28249e-06)
(-4.77858e-06 -3.79667e-06 2.80213e-06)
(-4.86289e-06 -3.84178e-06 3.61492e-06)
(-2.04943e-06 -1.53925e-06 2.49974e-06)
(-2.60429e-06 -2.03878e-06 2.33919e-06)
(-2.69676e-06 -2.08273e-06 2.90437e-06)
(-3.73317e-06 -2.94343e-06 3.64672e-06)
(-2.97208e-06 -2.30254e-06 3.24144e-06)
(-2.84113e-06 -2.23616e-06 2.44519e-06)
(-3.695e-06 -2.92151e-06 3.41539e-06)
(-2.93214e-06 -2.2806e-06 3.03521e-06)
(-4.47002e-06 -3.60177e-06 1.25379e-06)
(-3.77964e-06 -3.03439e-06 1.63502e-06)
(-4.66048e-06 -3.76221e-06 1.79875e-06)
(-5.9664e-06 -4.84049e-06 2.28101e-06)
(-5.04361e-06 -4.07107e-06 2.89058e-06)
(-4.98626e-06 -4.03288e-06 2.10817e-06)
(-3.79597e-06 -3.04861e-06 1.86169e-06)
(-4.7343e-06 -3.81461e-06 2.80806e-06)
(-4.67589e-06 -3.77649e-06 2.04836e-06)
(-1.85261e-06 -1.447e-06 1.31169e-06)
(-2.57693e-06 -2.02071e-06 2.09195e-06)
(-2.50957e-06 -1.98559e-06 1.52713e-06)
(-2.81153e-06 -2.23617e-06 1.0171e-06)
(-3.50367e-06 -2.80631e-06 1.57882e-06)
(-2.73052e-06 -2.1684e-06 1.40247e-06)
(-2.81431e-06 -2.21793e-06 2.18695e-06)
(-3.52027e-06 -2.82044e-06 1.79722e-06)
(-2.7481e-06 -2.18221e-06 1.59639e-06)
(-4.00525e-06 -3.17205e-06 3.77745e-06)
(-4.87443e-06 -3.90003e-06 4.1564e-06)
(-6.11756e-06 -4.94105e-06 4.33748e-06)
(-5.06648e-06 -4.08966e-06 3.23069e-06)
(-5.1461e-06 -4.13491e-06 4.00738e-06)
(-3.96768e-06 -3.15022e-06 3.53796e-06)
(-4.75764e-06 -3.83324e-06 3.13855e-06)
(-4.83865e-06 -3.87867e-06 3.89317e-06)
(-9.46516e-06 -7.66727e-06 5.56869e-06)
(-1.06912e-05 -8.64926e-06 5.84237e-06)
(-1.1029e-05 -8.936e-06 4.47503e-06)
(-1.10866e-05 -8.96951e-06 5.5532e-06)
(-9.43731e-06 -7.65065e-06 5.21575e-06)
(-1.06062e-05 -8.59954e-06 4.40965e-06)
(-1.06651e-05 -8.63423e-06 5.47183e-06)
(-6.30891e-06 -5.12183e-06 2.33628e-06)
(-7.43184e-06 -6.03624e-06 3.42542e-06)
(-7.38176e-06 -5.99952e-06 2.49559e-06)
(-7.89825e-06 -6.41088e-06 1.58695e-06)
(-8.89999e-06 -7.22862e-06 2.36174e-06)
(-7.74103e-06 -6.28936e-06 2.23398e-06)
(-7.80301e-06 -6.3389e-06 3.49578e-06)
(-8.91205e-06 -7.24117e-06 2.69244e-06)
(-7.75394e-06 -6.30266e-06 2.54639e-06)
(-9.06916e-06 -7.34788e-06 5.47319e-06)
(-7.92124e-06 -6.416e-06 5.17366e-06)
(-6.45722e-06 -5.22157e-06 4.44333e-06)
(-7.45167e-06 -6.05377e-06 3.82779e-06)
(-7.52157e-06 -6.09585e-06 4.74843e-06)
(-9.04069e-06 -7.33078e-06 5.12637e-06)
(-7.82243e-06 -6.35617e-06 3.90632e-06)
(-7.89094e-06 -6.39754e-06 4.84599e-06)
(-1.10127e-05 -8.92161e-06 4.0055e-06)
(-1.09716e-05 -8.89153e-06 2.91412e-06)
(-1.0299e-05 -8.34679e-06 1.75207e-06)
(-9.2996e-06 -7.5508e-06 2.40205e-06)
(-1.05365e-05 -8.54236e-06 2.51835e-06)
(-1.05895e-05 -8.58471e-06 3.94688e-06)
(-9.31143e-06 -7.5631e-06 2.73887e-06)
(-1.05475e-05 -8.55366e-06 2.87195e-06)
(-2.04501e-06 -1.50309e-06 2.88531e-06)
(-1.86134e-06 -1.34687e-06 2.71615e-06)
(-1.0404e-07 5.92943e-09 1.16124e-07)
(-2.31555e-07 -4.07165e-08 3.13462e-07)
(-6.60423e-06 -5.32628e-06 5.4117e-06)
(-6.94866e-06 -5.60978e-06 5.53839e-06)
(-2.01812e-06 -1.52298e-06 2.94775e-06)
(-1.8345e-06 -1.367e-06 2.77529e-06)
(-1.0509e-07 -3.37581e-08 1.31718e-07)
(-2.34697e-07 -7.27493e-08 3.5335e-07)
(-2.23873e-06 -1.66773e-06 3.05246e-06)
(-2.44241e-06 -1.8407e-06 3.2175e-06)
(-6.26745e-06 -5.04829e-06 5.28255e-06)
(-5.93848e-06 -4.776e-06 5.15091e-06)
(-2.21188e-06 -1.68738e-06 3.11817e-06)
(-2.41568e-06 -1.86009e-06 3.28644e-06)
(-6.2464e-06 -5.06372e-06 5.38965e-06)
(-5.9169e-06 -4.79171e-06 5.25577e-06)
(-6.58371e-06 -5.34142e-06 5.52098e-06)
(-6.92869e-06 -5.62463e-06 5.64976e-06)
(-3.65441e-12 -8.30963e-14 -5.42086e-12)
(-5.26374e-14 -5.91296e-14 1.51545e-12)
(-3.69704e-12 -9.61037e-14 -5.64193e-12)
(-1.2677e-13 -2.29369e-14 1.34414e-12)
(-3.75917e-12 -9.57628e-15 -5.66854e-12)
(-3.77178e-12 -4.12468e-15 -5.81647e-12)
(-8.32419e-13 4.25872e-12 -3.0493e-12)
(1.34955e-12 5.6432e-12 5.00101e-12)
(-1.04807e-12 7.78887e-12 -2.90013e-12)
(-2.87885e-11 1.50721e-10 1.15333e-11)
(-6.79434e-11 2.97788e-10 -1.03873e-11)
(-2.86067e-11 2.10691e-10 3.29682e-12)
(-3.64198e-12 -4.61258e-14 -5.40611e-12)
(2.76927e-15 -5.61523e-14 1.64287e-12)
(-3.65028e-12 -4.57962e-14 -5.53836e-12)
(-1.21926e-12 2.02859e-12 -3.47154e-12)
(1.54571e-12 9.65505e-13 3.71688e-12)
(-1.60917e-12 1.05611e-12 -3.9822e-12)
(-3.33596e-12 4.81228e-15 -5.20812e-12)
(3.05604e-13 9.85799e-14 1.96804e-12)
(-3.23303e-12 -4.67704e-15 -5.27063e-12)
(-2.42594e-12 -1.30386e-14 -2.57952e-12)
(-1.21619e-12 -3.36711e-14 3.04659e-13)
(-2.36075e-12 -1.67505e-14 -2.49107e-12)
(-1.28393e-12 -3.00778e-14 1.47334e-13)
(-2.49567e-12 -3.14634e-14 -2.74387e-12)
(-2.41969e-12 -2.53659e-14 -2.6253e-12)
(-3.8202e-12 3.50392e-14 -5.73822e-12)
(-1.79649e-13 1.45982e-14 1.27089e-12)
(-3.83867e-12 4.05389e-14 -5.90816e-12)
(-3.76454e-12 -4.76296e-14 -5.67277e-12)
(-1.73187e-13 -2.93165e-14 1.24969e-12)
(-3.81296e-12 -5.44224e-14 -5.89091e-12)
(-2.56555e-12 -1.20467e-14 -2.86298e-12)
(-1.34455e-12 -1.4723e-15 5.59174e-14)
(-2.48518e-12 -8.574e-15 -2.73615e-12)
(-2.50676e-12 -2.17573e-15 -2.75865e-12)
(-1.32788e-12 -1.37661e-14 5.86379e-14)
(-2.45271e-12 -6.22083e-15 -2.69516e-12)
(-1.80731e-06 -1.30001e-06 1.84425e-06)
(-1.58619e-06 -1.13595e-06 1.58519e-06)
(-1.76988e-06 -1.27043e-06 1.52943e-06)
(-1.5819e-06 -1.11589e-06 1.43623e-06)
(-1.62024e-06 -1.14529e-06 1.73271e-06)
(-9.69076e-07 -5.88503e-07 1.66441e-06)
(-1.09352e-06 -6.93753e-07 1.84358e-06)
(-6.70645e-07 -3.88852e-07 8.47939e-07)
(-8.03032e-07 -5.06982e-07 1.04979e-06)
(-7.12531e-07 -4.16655e-07 1.02938e-06)
(-7.96712e-07 -4.85609e-07 9.49554e-07)
(-8.38508e-07 -5.1373e-07 1.15077e-06)
(-2.01334e-12 9.34949e-13 -6.69797e-13)
(-9.01005e-13 3.34656e-12 3.37739e-12)
(-2.2437e-12 1.47421e-12 -3.53213e-13)
(-2.909e-11 9.05388e-11 8.00185e-12)
(-4.45274e-11 7.31854e-11 6.5001e-13)
(-2.1365e-11 4.02808e-11 1.37055e-12)
(-4.44247e-08 -3.67686e-09 1.05147e-07)
(-6.96174e-09 -4.54102e-09 3.45074e-08)
(-4.92587e-08 -2.97768e-08 1.16363e-07)
(-1.08866e-08 4.1244e-09 3.76967e-08)
(-5.36489e-08 1.36725e-09 1.1418e-07)
(-3.9756e-08 -2.89952e-08 1.04564e-07)
(-9.7208e-09 8.21126e-09 3.71291e-08)
(-3.96372e-07 -2.1989e-07 5.02022e-07)
(-5.26529e-07 -3.00237e-07 6.69302e-07)
(-4.98705e-07 -3.20047e-07 6.62529e-07)
(-4.21642e-07 -2.49538e-07 6.40241e-07)
(-5.0095e-07 -2.96136e-07 5.85848e-07)
(-4.21194e-07 -2.23636e-07 5.74327e-07)
(-3.94679e-07 -2.44755e-07 5.68943e-07)
(-9.08543e-11 7.67102e-10 2.92333e-11)
(-2.85274e-10 8.1003e-10 -1.29335e-11)
(-2.41167e-10 9.02113e-10 -4.94439e-11)
(-1.52928e-06 -1.10406e-06 1.13984e-06)
(-1.71215e-06 -1.27825e-06 1.36702e-06)
(-1.55137e-06 -1.13302e-06 1.43704e-06)
(-1.74263e-06 -1.26525e-06 1.3807e-06)
(-1.55426e-06 -1.11106e-06 1.29627e-06)
(-1.52378e-06 -1.1247e-06 1.28346e-06)
(-1.71807e-06 -1.25793e-06 1.21434e-06)
(-7.41873e-07 -4.77818e-07 7.50062e-07)
(-6.42156e-07 -3.8665e-07 7.6275e-07)
(-7.67282e-07 -5.06817e-07 9.49432e-07)
(-6.13448e-07 -4.05268e-07 7.55041e-07)
(-7.68012e-07 -4.82897e-07 8.54925e-07)
(-6.16205e-07 -3.82e-07 6.68643e-07)
(-7.38651e-07 -5.00486e-07 8.4625e-07)
(-8.53389e-07 -4.91365e-07 1.48372e-06)
(-7.45539e-07 -4.01989e-07 1.30136e-06)
(-1.94593e-08 -7.69617e-09 4.42203e-08)
(-5.86057e-08 -2.57131e-08 1.25676e-07)
(-1.34999e-08 4.73495e-09 3.57444e-08)
(-7.28564e-08 3.53002e-08 1.36523e-07)
(-7.0636e-08 -9.82952e-09 1.40477e-07)
(-9.75682e-09 5.2909e-09 1.82025e-08)
(-5.54599e-07 -3.0183e-07 7.45029e-07)
(-5.962e-07 -3.2932e-07 9.06404e-07)
(-4.55064e-07 -2.47543e-07 7.0995e-07)
(-4.48384e-07 -2.24663e-07 6.40262e-07)
(-4.88973e-07 -2.51764e-07 7.81251e-07)
(-7.53216e-11 1.85936e-10 5.67745e-12)
(-2.53208e-10 5.93923e-10 -4.02243e-13)
(-1.79366e-10 3.35339e-10 -6.24639e-13)
(-9.56097e-06 -7.73293e-06 6.35639e-06)
(-9.96108e-06 -8.05389e-06 6.46351e-06)
(-9.39379e-06 -7.56983e-06 3.44214e-06)
(-9.41311e-06 -7.59485e-06 4.11903e-06)
(-9.79593e-06 -7.91016e-06 3.83852e-06)
(-9.7977e-06 -7.89573e-06 3.50231e-06)
(-9.81658e-06 -7.9202e-06 4.18968e-06)
(-6.71649e-06 -5.3972e-06 2.37707e-06)
(-6.35762e-06 -5.12556e-06 2.59811e-06)
(-6.38467e-06 -5.11957e-06 2.6351e-06)
(-6.72644e-06 -5.42393e-06 2.97562e-06)
(-6.73369e-06 -5.40709e-06 2.6986e-06)
(-6.36712e-06 -5.10964e-06 2.32094e-06)
(-6.70701e-06 -5.41287e-06 2.65979e-06)
(-8.57192e-06 -6.91368e-06 2.64308e-06)
(-8.97875e-06 -7.24059e-06 3.05598e-06)
(-8.58036e-06 -6.93847e-06 3.30093e-06)
(-8.95476e-06 -7.2455e-06 3.00548e-06)
(-8.58737e-06 -6.92305e-06 2.99922e-06)
(-8.96364e-06 -7.23139e-06 2.69336e-06)
(-8.56288e-06 -6.92805e-06 2.95075e-06)
(-9.16728e-06 -7.41603e-06 6.24685e-06)
(-8.78018e-06 -7.10337e-06 6.13489e-06)
(-6.42855e-06 -5.15612e-06 3.49805e-06)
(-6.40489e-06 -5.12766e-06 2.91588e-06)
(-6.75201e-06 -5.43166e-06 3.28068e-06)
(-6.75351e-06 -5.41516e-06 2.98605e-06)
(-6.77655e-06 -5.44329e-06 3.58113e-06)
(-8.99625e-06 -7.24809e-06 3.38073e-06)
(-9.01604e-06 -7.27364e-06 4.04684e-06)
(-8.60343e-06 -6.94594e-06 3.63998e-06)
(-8.60525e-06 -6.93069e-06 3.31807e-06)
(-8.62553e-06 -6.95674e-06 3.97311e-06)
(-9.76652e-06 -7.87979e-06 2.79103e-06)
(-9.37667e-06 -7.5625e-06 3.11162e-06)
(-9.77437e-06 -7.90314e-06 3.48061e-06)
(-9.35319e-06 -7.56734e-06 3.05907e-06)
(-9.78097e-06 -7.88859e-06 3.16615e-06)
(-9.36189e-06 -7.55349e-06 2.74268e-06)
(-9.75803e-06 -7.89338e-06 3.11152e-06)
(-2.40036e-12 -4.43661e-14 -2.52513e-12)
(-1.17193e-12 -5.40159e-14 4.14605e-13)
(-2.32784e-12 -3.87026e-14 -2.40932e-12)
(-3.79812e-12 -2.47143e-15 -5.69986e-12)
(-2.03095e-13 1.23541e-14 1.23247e-12)
(-3.83732e-12 -9.7371e-15 -5.88736e-12)
(-3.49527e-12 5.15075e-14 -5.33558e-12)
(4.80615e-14 8.95588e-14 1.69501e-12)
(-3.60096e-12 7.98217e-14 -5.56947e-12)
(-2.05696e-12 5.84931e-13 -1.21651e-12)
(-4.06658e-13 7.21641e-13 2.10842e-12)
(-2.02373e-12 3.96729e-13 -1.38008e-12)
(-1.0864e-12 1.34083e-13 6.0886e-13)
(-2.42018e-12 9.26452e-14 -2.46107e-12)
(-2.35625e-12 9.83506e-14 -2.37421e-12)
(-2.55044e-12 1.67396e-14 -2.81598e-12)
(-1.38199e-12 2.13558e-14 1.65144e-15)
(-2.5111e-12 1.44268e-14 -2.77833e-12)
(-1.2242e-12 8.20091e-14 3.73251e-13)
(-2.50228e-12 5.7428e-14 -2.65194e-12)
(-2.44826e-12 5.16367e-14 -2.57236e-12)
(-1.78599e-06 -1.34902e-06 2.06506e-06)
(-1.56832e-06 -1.1809e-06 1.78307e-06)
(-1.74073e-06 -1.36179e-06 1.98242e-06)
(-1.5995e-06 -1.19501e-06 1.9408e-06)
(-1.55392e-06 -1.20862e-06 1.86282e-06)
(-9.45587e-07 -6.09871e-07 1.70365e-06)
(-1.06898e-06 -7.14915e-07 1.88604e-06)
(-6.52434e-07 -4.9128e-07 1.10818e-06)
(-7.89128e-07 -5.55624e-07 1.1841e-06)
(-6.9757e-07 -4.71387e-07 1.1578e-06)
(-8.22211e-07 -5.67462e-07 1.29261e-06)
(-7.76433e-07 -5.861e-07 1.23802e-06)
(-4.31809e-08 -8.62093e-08 1.57852e-07)
(-1.05623e-08 -2.13828e-08 4.16498e-08)
(-5.15952e-08 -5.49112e-08 1.42652e-07)
(-1.92295e-08 -5.19419e-08 5.98824e-08)
(-4.14969e-08 -5.139e-08 1.27775e-07)
(-5.38766e-08 -9.13513e-08 1.71862e-07)
(-1.41592e-08 -4.67683e-08 5.43263e-08)
(-3.8106e-07 -3.15034e-07 7.14079e-07)
(-5.09918e-07 -3.95008e-07 8.97642e-07)
(-4.91056e-07 -3.53209e-07 7.48932e-07)
(-4.14347e-07 -2.85979e-07 7.154e-07)
(-3.88189e-07 -2.79046e-07 6.45071e-07)
(-4.82773e-07 -3.88398e-07 8.27163e-07)
(-4.07301e-07 -3.21081e-07 7.75458e-07)
(-1.49908e-06 -1.18486e-06 1.58706e-06)
(-1.69947e-06 -1.30673e-06 1.53653e-06)
(-1.53816e-06 -1.16399e-06 1.59312e-06)
(-1.71327e-06 -1.34726e-06 1.82839e-06)
(-1.51151e-06 -1.15363e-06 1.443e-06)
(-1.52602e-06 -1.19434e-06 1.71775e-06)
(-1.6867e-06 -1.33746e-06 1.68952e-06)
(-7.19175e-07 -5.65958e-07 1.05104e-06)
(-6.23184e-07 -4.79188e-07 1.01909e-06)
(-7.56959e-07 -5.40552e-07 1.05497e-06)
(-6.04756e-07 -4.37584e-07 8.51926e-07)
(-7.29175e-07 -5.32074e-07 9.53754e-07)
(-7.47084e-07 -5.73532e-07 1.1393e-06)
(-5.95507e-07 -4.72088e-07 9.39646e-07)
(-8.31252e-07 -5.12979e-07 1.51987e-06)
(-7.25178e-07 -4.24003e-07 1.33476e-06)
(-2.63618e-08 -3.91933e-08 5.84517e-08)
(-6.37402e-08 -6.4365e-08 1.6088e-07)
(-2.30874e-08 -5.99379e-08 7.13005e-08)
(-7.77406e-08 -7.27185e-08 1.7809e-07)
(-6.6503e-08 -9.87608e-08 1.91797e-07)
(-5.38795e-07 -4.06576e-07 9.76981e-07)
(-5.82804e-07 -3.85322e-07 1.02137e-06)
(-4.45324e-07 -2.99434e-07 8.0613e-07)
(-4.77533e-07 -3.09147e-07 8.83469e-07)
(-4.35449e-07 -3.32034e-07 8.44838e-07)
(-2.00452e-06 -1.46383e-06 1.95419e-06)
(-1.96801e-06 -1.43409e-06 1.62128e-06)
(-2.17915e-06 -1.62621e-06 1.88818e-06)
(-2.17618e-06 -1.60667e-06 1.71181e-06)