/*--------------------------------*- C++ -*----------------------------------*\
| =========                 |                                                 |
| \\      /  F ield         | OpenFOAM: The Open Source CFD Toolbox           |
|  \\    /   O peration     | Version:  2012                                  |
|   \\  /    A nd           | Website:  www.openfoam.com                      |
|    \\/     M anipulation  |                                                 |
\*---------------------------------------------------------------------------*/
FoamFile
{
    version     2.0;
    format      ascii;
    class       volVectorField;
    location    "0.105/solid";
    object      D_0_0_0;
}
// * * * * * * * * * * * * * * * * * * * * * * * * * * * * * * * * * * * * * //

dimensions      [0 1 0 0 0 0 0];


internalField   nonuniform List<vector> 
3125
(
(1.97397e-13 -1.15429e-13 1.53537e-11)
(2.39623e-11 -5.2989e-11 1.63367e-11)
(-2.00857e-12 -1.90586e-13 3.01445e-11)
(2.00611e-13 -1.08004e-13 1.53855e-11)
(-2.04518e-12 -1.52966e-13 3.00365e-11)
(2.52211e-11 -6.97728e-11 3.83819e-11)
(1.75585e-11 -3.59264e-11 1.84469e-11)
(4.69481e-11 -1.36413e-10 4.18291e-11)
(2.68082e-13 4.02902e-15 1.55301e-11)
(-2.41786e-09 3.25874e-09 4.99025e-09)
(-6.02901e-07 -1.27482e-06 5.95819e-08)
(-2.56663e-06 -5.71357e-06 1.25791e-07)
(-1.9398e-12 -1.05874e-13 3.03899e-11)
(-1.76403e-12 -3.97631e-13 3.0661e-11)
(2.99375e-13 -8.18914e-14 1.55897e-11)
(-2.01802e-09 -1.10711e-08 2.72577e-08)
(-5.93176e-07 -1.28368e-06 4.2117e-07)
(-2.29411e-06 -5.10175e-06 1.17981e-07)
(-7.62085e-07 -1.63225e-06 6.66564e-08)
(-2.28788e-06 -5.10844e-06 7.68393e-07)
(-7.52065e-07 -1.64078e-06 4.71422e-07)
(-2.56182e-06 -5.72001e-06 8.03306e-07)
(-2.71931e-13 -4.23072e-14 9.06953e-13)
(1.42549e-13 2.26318e-14 1.52502e-11)
(-3.36952e-13 -7.69379e-15 7.52962e-13)
(5.48745e-12 -1.7338e-12 4.69774e-12)
(5.41501e-11 -4.82939e-10 3.13506e-11)
(1.42538e-11 4.83592e-11 7.02419e-12)
(-2.50155e-13 -4.24572e-14 9.43676e-13)
(-2.10845e-12 5.10135e-15 2.99047e-11)
(2.33909e-12 -9.31916e-12 3.30224e-11)
(2.3919e-12 -3.38336e-12 1.66196e-11)
(3.99159e-12 -1.30678e-12 3.80926e-12)
(3.61323e-13 -2.94745e-14 1.77721e-12)
(-1.43633e-12 -2.20487e-14 -2.56723e-13)
(-1.49081e-12 -1.92718e-14 -3.88384e-13)
(1.40599e-13 1.12468e-14 1.52634e-11)
(-3.40374e-13 3.3034e-14 7.92682e-13)
(-3.32356e-13 -1.02484e-14 7.69294e-13)
(-1.51343e-12 1.43252e-14 -3.87238e-13)
(-1.48784e-12 2.05453e-15 -3.75934e-13)
(-7.01021e-07 -1.35524e-06 6.03386e-07)
(-2.66673e-07 -3.98143e-07 3.36049e-07)
(1.75427e-12 -3.64891e-13 3.10969e-12)
(-2.43152e-12 3.76064e-11 5.34318e-12)
(-1.81993e-10 -6.38911e-10 -1.10448e-10)
(-1.3724e-07 -2.58843e-07 3.11713e-08)
(-4.87912e-09 -7.45841e-10 1.38979e-08)
(-2.06768e-07 -3.09833e-07 2.71585e-07)
(9.3013e-12 1.31865e-10 1.26183e-11)
(-6.87205e-07 -1.35965e-06 5.56193e-07)
(-2.26556e-07 -4.49151e-07 3.77403e-08)
(-2.52278e-07 -4.02023e-07 3.08851e-07)
(-6.1695e-09 -1.6676e-09 1.52638e-08)
(-2.20888e-07 -3.06166e-07 2.95779e-07)
(-9.64325e-12 1.0207e-10 9.17476e-12)
(-3.72886e-06 -8.17436e-06 1.36352e-06)
(-2.53087e-06 -5.5501e-06 1.0613e-06)
(-3.45386e-06 -7.68409e-06 1.49854e-07)
(-3.56269e-06 -7.83538e-06 1.23133e-06)
(-2.54071e-06 -5.54531e-06 1.15292e-06)
(-3.57079e-06 -7.82889e-06 1.33888e-06)
(-3.77121e-06 -8.38038e-06 1.5803e-07)
(-3.72101e-06 -8.18118e-06 1.25382e-06)
(-1.41072e-12 -4.61358e-14 -2.06696e-13)
(-2.10603e-12 2.42698e-14 2.99552e-11)
(3.20056e-13 -4.60179e-12 3.21899e-11)
(1.77223e-12 -2.17326e-12 1.65163e-11)
(-2.81415e-13 2.89618e-14 9.21881e-13)
(1.00102e-13 1.81112e-14 1.42006e-12)
(8.98494e-13 -2.60081e-13 2.22511e-12)
(-1.0607e-12 7.86757e-14 4.51476e-13)
(-1.46433e-12 3.57439e-14 -2.73721e-13)
(-1.25626e-12 6.99136e-14 1.09023e-13)
(-6.97045e-07 -1.37292e-06 8.33176e-07)
(-2.63063e-07 -4.1796e-07 4.65896e-07)
(-1.31274e-07 -2.71179e-07 2.00246e-07)
(-6.264e-09 -9.12719e-09 2.0118e-08)
(-2.04971e-07 -3.24025e-07 3.62137e-07)
(-6.85288e-07 -1.37182e-06 7.37883e-07)
(-2.19146e-07 -4.58881e-07 2.5852e-07)
(-2.5036e-07 -4.15813e-07 4.11436e-07)
(-8.16885e-09 -1.28579e-08 2.28994e-08)
(-2.17566e-07 -3.26471e-07 4.10442e-07)
(-7.79469e-07 -1.53395e-06 6.39558e-07)
(-1.43789e-06 -3.04305e-06 8.79232e-07)
(-1.55307e-06 -3.42593e-06 9.53232e-08)
(-2.39511e-06 -5.24546e-06 1.03521e-06)
(-1.53511e-06 -3.2966e-06 8.39989e-07)
(-7.65868e-07 -1.53834e-06 5.89588e-07)
(-1.33321e-06 -2.9266e-06 8.80264e-08)
(-1.42591e-06 -3.04721e-06 8.10292e-07)
(-2.40519e-06 -5.24083e-06 1.12443e-06)
(-1.54686e-06 -3.29245e-06 9.11556e-07)
(-7.75542e-07 -1.55138e-06 8.82444e-07)
(-1.43477e-06 -3.05868e-06 1.20459e-06)
(-1.54389e-06 -3.43339e-06 6.52615e-07)
(-2.39516e-06 -5.25477e-06 1.35203e-06)
(-1.53379e-06 -3.30716e-06 1.10563e-06)
(-7.63981e-07 -1.55033e-06 7.81639e-07)
(-1.3235e-06 -2.93431e-06 6.10247e-07)
(-1.42447e-06 -3.05794e-06 1.06763e-06)
(-2.40429e-06 -5.25439e-06 1.52482e-06)
(-1.54393e-06 -3.30782e-06 1.24739e-06)
(-3.73246e-06 -8.18561e-06 1.82588e-06)
(-2.53119e-06 -5.55923e-06 1.38447e-06)
(-3.45454e-06 -7.68978e-06 8.97454e-07)
(-3.56559e-06 -7.84328e-06 1.59272e-06)
(-2.54019e-06 -5.55861e-06 1.56132e-06)
(-3.57378e-06 -7.8404e-06 1.79544e-06)
(-3.77408e-06 -8.38582e-06 9.25419e-07)
(-3.72436e-06 -8.18891e-06 1.61982e-06)
(-2.6896e-12 -7.76369e-14 1.07356e-11)
(1.77793e-13 -3.34937e-14 1.53034e-11)
(-2.73526e-12 -3.58633e-14 1.06525e-11)
(1.16132e-11 -1.5853e-11 1.26911e-11)
(5.24904e-11 -1.3682e-10 1.93272e-11)
(3.16597e-11 -3.93848e-11 1.16474e-11)
(-1.93913e-12 -2.56937e-13 3.03169e-11)
(2.83066e-13 -1.85643e-13 1.5568e-11)
(-2.68422e-12 -7.50293e-14 1.07627e-11)
(-2.67047e-12 -1.15968e-13 1.08918e-11)
(-2.05433e-12 -9.09519e-14 2.99541e-11)
(1.27718e-11 -3.61159e-11 3.58321e-11)
(7.60891e-12 -1.38011e-11 1.72964e-11)
(7.64242e-12 -1.17118e-11 1.27226e-11)
(1.31166e-12 -4.26106e-12 1.23289e-11)
(1.90715e-13 2.39209e-14 1.54064e-11)
(-2.70135e-12 5.2209e-14 1.08114e-11)
(-2.76149e-12 3.77836e-14 1.06847e-11)
(-7.64486e-07 -1.38176e-06 9.02239e-07)
(-5.56088e-07 -9.07166e-07 7.39172e-07)
(-8.64542e-09 -5.84063e-09 1.67045e-09)
(-1.34472e-08 -1.26567e-08 2.39157e-08)
(-4.44446e-09 1.74654e-09 1.00588e-08)
(-3.64908e-08 -5.16663e-08 6.37684e-08)
(-9.45329e-10 1.28379e-10 1.26265e-10)
(-6.51477e-07 -1.36334e-06 2.86134e-07)
(-4.60201e-07 -9.5743e-07 5.24208e-08)
(-4.38382e-07 -8.8749e-07 2.32753e-07)
(-1.54805e-08 -3.80417e-10 1.40079e-08)
(-1.2602e-07 -6.67291e-08 2.03697e-07)
(-4.42257e-06 -9.58443e-06 2.14541e-06)
(-2.50503e-06 -5.55784e-06 5.4815e-07)
(-2.85109e-06 -6.34904e-06 1.33717e-07)
(-2.93172e-06 -6.50892e-06 5.88337e-07)
(-2.58767e-06 -5.55605e-06 1.70669e-06)
(-3.00944e-06 -6.49903e-06 1.82645e-06)
(-4.43546e-06 -9.82262e-06 1.74482e-07)
(-4.35866e-06 -9.62782e-06 6.97276e-07)
(-2.01339e-12 -3.68296e-15 3.01991e-11)
(-1.40298e-12 -9.72483e-13 3.10382e-11)
(6.35815e-13 -3.71262e-13 1.59246e-11)
(-2.67856e-12 3.1604e-14 1.08575e-11)
(-2.54825e-12 -4.02212e-14 1.1082e-11)
(-7.48691e-07 -1.39758e-06 1.05763e-06)
(-5.40168e-07 -9.23586e-07 8.67072e-07)
(-1.85545e-08 -4.238e-08 7.91639e-08)
(-1.4493e-09 -4.03814e-09 1.50926e-08)
(-3.96575e-08 -6.55439e-08 1.11056e-07)
(-6.49706e-07 -1.37246e-06 5.10496e-07)
(-4.50961e-07 -9.66595e-07 3.68908e-07)
(-4.3682e-07 -8.971e-07 4.16821e-07)
(-2.02621e-08 -1.99281e-08 3.25768e-08)
(-1.21667e-07 -8.95259e-08 2.47692e-07)
(-8.42006e-07 -1.56008e-06 9.5527e-07)
(-1.0983e-06 -2.15194e-06 1.11026e-06)
(-2.03402e-06 -4.51534e-06 1.10296e-07)
(-2.36881e-06 -5.25248e-06 5.34554e-07)
(-1.97884e-06 -4.37436e-06 4.91923e-07)
(-7.30812e-07 -1.5421e-06 3.03125e-07)
(-9.37214e-07 -2.0279e-06 7.37274e-08)
(-9.92653e-07 -2.13549e-06 3.53509e-07)
(-2.45309e-06 -5.25302e-06 1.66528e-06)
(-2.06823e-06 -4.38091e-06 1.53652e-06)
(-8.26399e-07 -1.57569e-06 1.11941e-06)
(-1.08354e-06 -2.1669e-06 1.29937e-06)
(-2.02658e-06 -4.52229e-06 7.3166e-07)
(-2.36844e-06 -5.25942e-06 9.28166e-07)
(-1.97766e-06 -4.38168e-06 8.59774e-07)
(-7.28895e-07 -1.55106e-06 5.40453e-07)
(-9.27091e-07 -2.03615e-06 5.19676e-07)
(-9.90652e-07 -2.14403e-06 6.27549e-07)
(-2.44396e-06 -5.26523e-06 1.93456e-06)
(-2.05746e-06 -4.39381e-06 1.78863e-06)
(-4.42191e-06 -9.59368e-06 2.46942e-06)
(-2.50501e-06 -5.56464e-06 9.49833e-07)
(-2.84791e-06 -6.35523e-06 8.36433e-07)
(-2.93286e-06 -6.51533e-06 1.01234e-06)
(-2.57912e-06 -5.56803e-06 1.9813e-06)
(-3.00269e-06 -6.51031e-06 2.11585e-06)
(-4.44322e-06 -9.82758e-06 9.76454e-07)
(-4.36491e-06 -9.63306e-06 1.17403e-06)
(-5.50437e-12 -7.51843e-14 8.38123e-12)
(-2.87849e-13 -2.52419e-14 8.29466e-13)
(-5.5528e-12 -2.66895e-14 8.28874e-12)
(1.73114e-13 -5.88479e-14 1.5292e-11)
(-2.73654e-12 6.24672e-15 1.0622e-11)
(-2.74023e-12 -3.57064e-14 1.06363e-11)
(-2.93241e-13 -2.14625e-14 8.26821e-13)
(-5.54747e-12 9.75582e-15 8.26481e-12)
(-5.55506e-12 -3.66868e-14 8.2727e-12)
(5.5724e-12 -9.85617e-12 1.05953e-11)
(1.09682e-11 -1.5916e-12 5.71337e-12)
(2.1233e-11 -2.23478e-11 1.03802e-11)
(6.09148e-11 -1.96459e-10 2.85702e-12)
(7.94223e-11 -1.03908e-10 1.7637e-12)
(4.49255e-11 -5.04103e-11 1.06322e-11)
(1.33464e-11 1.29598e-12 6.2042e-12)
(6.19852e-11 -3.01599e-11 6.77528e-12)
(3.01703e-11 -2.70365e-11 9.94382e-12)
(-2.66337e-12 -1.16921e-13 1.09353e-11)
(-5.50167e-12 -5.53021e-14 8.40692e-12)
(-1.91691e-13 -5.52261e-14 1.08067e-12)
(-5.49956e-12 -1.02639e-13 8.52014e-12)
(-1.60831e-13 -5.99174e-14 1.14444e-12)
(-5.49591e-12 -9.37586e-14 8.55904e-12)
(-2.07371e-12 -5.77372e-14 2.99163e-11)
(6.0601e-12 -1.8408e-11 3.42223e-11)
(5.5174e-12 -9.19866e-12 1.7453e-11)
(-1.59531e-12 -9.47684e-13 1.16851e-11)
(2.16207e-13 -3.00719e-12 1.21985e-11)
(2.56323e-12 -7.30725e-12 1.04907e-11)
(1.6627e-12 -4.86409e-13 2.74691e-12)
(-2.4356e-12 -2.69647e-12 9.89622e-12)
(-4.70445e-12 -5.67657e-13 9.23227e-12)
(1.10723e-12 -3.26118e-13 2.27802e-12)
(-3.28282e-12 -1.88397e-12 9.75249e-12)
(-1.12808e-12 1.99636e-15 -2.2584e-12)
(-1.45535e-12 -3.21477e-14 -3.13076e-13)
(-1.12559e-12 -6.93201e-15 -2.27501e-12)
(-1.46252e-12 -8.32852e-15 -3.2245e-13)
(-1.15531e-12 -7.30542e-15 -2.29691e-12)
(-1.14133e-12 2.40253e-15 -2.29171e-12)
(1.89431e-13 7.1223e-14 1.537e-11)
(-2.74101e-12 3.27081e-15 1.06263e-11)
(-2.76245e-12 4.18528e-14 1.06696e-11)
(-5.54068e-12 5.92402e-14 8.42289e-12)
(-3.16019e-13 1.12752e-14 8.1048e-13)
(-5.58516e-12 2.65722e-14 8.29964e-12)
(-5.55215e-12 -1.01476e-14 8.26627e-12)
(-3.43425e-13 8.12727e-15 7.40506e-13)
(-5.58478e-12 3.8753e-14 8.28982e-12)
(-1.18124e-12 -4.18752e-15 -2.32318e-12)
(-1.48988e-12 1.63673e-14 -3.54169e-13)
(-1.17722e-12 3.6548e-15 -2.3374e-12)
(-1.17686e-12 3.37682e-15 -2.32137e-12)
(-1.51288e-12 -8.02718e-15 -4.12221e-13)
(-1.16256e-12 -6.01101e-15 -2.31932e-12)
(-7.45899e-07 -1.36694e-06 8.13817e-07)
(-4.90159e-07 -8.80064e-07 4.91895e-07)
(-5.36783e-07 -8.92129e-07 6.65792e-07)
(-3.33911e-07 -4.23511e-07 5.12459e-07)
(-4.94685e-07 -7.69869e-07 6.83509e-07)
(-4.28119e-07 -7.42856e-07 4.53722e-07)
(-3.14033e-07 -4.09642e-07 4.59571e-07)
(-4.75178e-07 -7.54929e-07 6.15217e-07)
(-7.37389e-13 4.39734e-14 -1.62796e-12)
(3.9625e-12 3.69069e-13 4.10368e-12)
(-5.36798e-13 3.83227e-14 -1.29145e-12)
(4.60807e-12 2.6518e-12 4.57387e-12)
(-1.33381e-12 1.39942e-12 -1.34361e-12)
(-7.40146e-13 1.06222e-13 -1.47097e-12)
(-3.94774e-09 -1.57511e-09 2.21888e-09)
(6.05519e-11 -1.20302e-10 -2.92866e-12)
(-5.86991e-10 -1.83044e-10 -3.9479e-11)
(-6.27994e-08 -1.15317e-07 2.24593e-08)
(-1.69577e-07 -3.08473e-07 1.39416e-07)
(-6.15473e-08 -9.71428e-08 8.09105e-08)
(-5.69674e-09 7.32625e-10 1.61656e-08)
(-6.47391e-08 -5.87656e-08 1.18491e-07)
(-8.22418e-10 3.42663e-09 6.74692e-10)
(-4.29232e-08 -5.44489e-08 7.54514e-08)
(-8.7483e-10 6.81122e-10 1.92812e-10)
(-1.77132e-07 -3.09821e-07 1.70539e-07)
(-9.43341e-08 -1.03433e-07 1.56896e-07)
(-6.87953e-08 -9.97657e-08 9.84517e-08)
(5.84085e-11 -2.69673e-11 3.80932e-12)
(-2.00844e-10 8.64393e-10 -6.44723e-12)
(-1.65558e-10 1.99476e-10 -8.24898e-12)
(-6.58468e-07 -1.36338e-06 3.51285e-07)
(-4.75795e-07 -8.84435e-07 4.53118e-07)
(-4.45769e-07 -8.8768e-07 2.85802e-07)
(-3.34639e-07 -6.81646e-07 4.52236e-08)
(-2.14431e-07 -4.02083e-07 1.58302e-07)
(-3.75804e-07 -7.49749e-07 2.14763e-07)
(-4.13638e-07 -7.47163e-07 4.17787e-07)
(-2.22074e-07 -4.03017e-07 1.94151e-07)
(-3.83321e-07 -7.50059e-07 2.63403e-07)
(-2.87611e-07 -3.30328e-07 4.53904e-07)
(-1.64422e-07 -1.16795e-07 2.69634e-07)
(-1.12335e-08 -1.62568e-09 1.87331e-08)
(-7.46014e-08 -5.52647e-08 1.2926e-07)
(-6.81168e-10 3.40588e-09 4.29878e-10)
(-1.09243e-07 -5.93884e-08 1.7985e-07)
(-1.11984e-10 1.32334e-10 -1.13755e-11)
(-2.67755e-07 -3.17156e-07 4.06232e-07)
(-1.05863e-07 -1.0044e-07 1.70992e-07)
(-1.46012e-07 -1.07367e-07 2.38584e-07)
(-2.59797e-12 3.34721e-12 -1.75265e-12)
(-2.78924e-10 8.17079e-10 -8.79661e-12)
(-3.34285e-11 8.32372e-11 -6.20747e-13)
(-3.76875e-06 -8.17095e-06 2.01108e-06)
(-4.25549e-06 -9.22548e-06 2.11293e-06)
(-4.38596e-06 -9.59651e-06 1.45727e-06)
(-4.4115e-06 -9.58459e-06 1.94493e-06)
(-3.75678e-06 -8.1682e-06 1.82208e-06)
(-4.21807e-06 -9.2353e-06 1.43455e-06)
(-4.2442e-06 -9.22489e-06 1.91521e-06)
(-2.50999e-06 -5.55666e-06 6.72987e-07)
(-2.9561e-06 -6.49845e-06 1.13686e-06)
(-2.9364e-06 -6.50699e-06 7.21756e-07)
(-3.14699e-06 -7.00644e-06 1.41743e-07)
(-3.54013e-06 -7.8506e-06 6.38864e-07)
(-3.07968e-06 -6.83686e-06 6.01135e-07)
(-3.10363e-06 -6.82534e-06 1.16115e-06)
(-3.54446e-06 -7.8474e-06 7.83058e-07)
(-3.08429e-06 -6.83465e-06 7.37451e-07)
(-3.61153e-06 -7.82748e-06 1.97564e-06)
(-3.15583e-06 -6.82394e-06 1.86487e-06)
(-2.57374e-06 -5.5482e-06 1.54443e-06)
(-2.9652e-06 -6.49308e-06 1.2355e-06)
(-2.99627e-06 -6.49298e-06 1.65355e-06)
(-3.59934e-06 -7.82404e-06 1.7897e-06)
(-3.11248e-06 -6.81972e-06 1.26207e-06)
(-3.14291e-06 -6.81851e-06 1.68859e-06)
(-4.37914e-06 -9.60489e-06 1.33935e-06)
(-4.36264e-06 -9.62262e-06 8.53712e-07)
(-4.09857e-06 -9.09373e-06 1.66246e-07)
(-3.69884e-06 -8.19778e-06 6.50856e-07)
(-4.19015e-06 -9.26452e-06 6.861e-07)
(-4.211e-06 -9.24326e-06 1.31863e-06)
(-3.70313e-06 -8.19423e-06 7.977e-07)
(-4.19417e-06 -9.25974e-06 8.4013e-07)
(-1.11215e-12 -8.26874e-15 -2.24195e-12)
(-1.37924e-12 -3.19254e-14 -1.04522e-13)
(-1.08199e-12 1.14304e-15 -2.214e-12)
(-1.34595e-12 -5.71634e-14 -3.53953e-14)
(-1.06771e-12 -8.21282e-15 -2.19903e-12)
(-2.06425e-12 4.81601e-14 3.00513e-11)
(-7.81924e-13 -2.20252e-12 3.15347e-11)
(8.0217e-13 -7.08409e-13 1.60316e-11)
(-1.90453e-12 -6.09468e-13 1.1558e-11)
(-2.46509e-12 -1.1886e-13 1.11644e-11)
(-5.52643e-12 2.96385e-14 8.46047e-12)
(-2.24563e-13 3.82119e-14 9.90808e-13)
(-5.44946e-12 8.76498e-15 8.6526e-12)
(-4.94604e-12 -3.3458e-13 9.11087e-12)
(-1.17412e-13 3.80376e-14 1.18251e-12)
(-5.39061e-12 -4.66919e-14 8.72319e-12)
(-8.47098e-13 3.49648e-14 -1.78275e-12)
(-3.36654e-13 -5.34885e-14 1.26917e-12)
(-1.03038e-12 1.27478e-14 -2.1011e-12)
(-6.73136e-13 -3.49436e-14 8.49081e-13)
(-1.10919e-12 1.74075e-14 -2.22022e-12)
(-9.90259e-13 2.64282e-15 -2.06001e-12)
(-1.19338e-12 6.75176e-15 -2.34028e-12)
(-1.45616e-12 3.07484e-14 -2.37224e-13)
(-1.15748e-12 -4.53424e-15 -2.30471e-12)
(-1.37585e-12 5.81612e-14 -6.9264e-14)
(-1.13612e-12 6.81287e-15 -2.24238e-12)
(-1.18829e-12 5.33828e-15 -2.3392e-12)
(-7.32838e-07 -1.38464e-06 1.0042e-06)
(-4.8614e-07 -8.9856e-07 6.80495e-07)
(-5.23648e-07 -9.10559e-07 8.22284e-07)
(-3.19584e-07 -4.40814e-07 6.01424e-07)
(-4.78925e-07 -7.8649e-07 8.01877e-07)
(-4.24134e-07 -7.61644e-07 6.27993e-07)
(-3.02318e-07 -4.29216e-07 5.67835e-07)
(-4.62192e-07 -7.73611e-07 7.59929e-07)
(-6.36701e-08 -1.28077e-07 1.42563e-07)
(-1.69117e-07 -3.19392e-07 2.50697e-07)
(-6.3962e-08 -1.09997e-07 1.46674e-07)
(-2.48695e-09 -5.26132e-09 1.64473e-08)
(-6.49508e-08 -7.59761e-08 1.6122e-07)
(-4.45201e-08 -6.93782e-08 1.22955e-07)
(-1.76419e-07 -3.22005e-07 2.77912e-07)
(-9.37367e-08 -1.19791e-07 2.11882e-07)
(-6.99014e-08 -1.14039e-07 1.62331e-07)
(-6.57368e-07 -1.37364e-06 5.67072e-07)
(-4.73814e-07 -8.97196e-07 6.02224e-07)
(-4.44742e-07 -8.98477e-07 4.6284e-07)
(-3.2607e-07 -6.91247e-07 3.14683e-07)
(-2.13511e-07 -4.12571e-07 2.84768e-07)
(-3.74458e-07 -7.59552e-07 3.8469e-07)
(-4.11645e-07 -7.60142e-07 5.55555e-07)
(-2.21198e-07 -4.14788e-07 3.15897e-07)
(-3.82339e-07 -7.61061e-07 4.26953e-07)
(-2.74207e-07 -3.47977e-07 5.32942e-07)
(-1.56746e-07 -1.37328e-07 3.21372e-07)
(-1.56513e-08 -1.85165e-08 2.96066e-08)
(-7.45137e-08 -7.96606e-08 1.83896e-07)
(-1.06385e-07 -8.48221e-08 2.29746e-07)
(-2.56852e-07 -3.3718e-07 5.02118e-07)
(-1.04607e-07 -1.23193e-07 2.41191e-07)
(-1.40259e-07 -1.30471e-07 2.99532e-07)
(-8.23682e-07 -1.54545e-06 8.61928e-07)
(-1.03868e-06 -2.12746e-06 7.45157e-07)
(-1.0808e-06 -2.13813e-06 1.00252e-06)
(-1.49353e-06 -3.06445e-06 1.30703e-06)
(-1.19148e-06 -2.36736e-06 1.16053e-06)
(-1.13286e-06 -2.34356e-06 7.79393e-07)
(-1.47715e-06 -3.05213e-06 1.18108e-06)
(-1.17426e-06 -2.35389e-06 1.04813e-06)
(-1.78684e-06 -3.95613e-06 1.02744e-07)
(-1.50506e-06 -3.30066e-06 4.32428e-07)
(-1.85533e-06 -4.09508e-06 4.77528e-07)
(-2.37384e-06 -5.25149e-06 6.56243e-07)
(-2.00669e-06 -4.36907e-06 9.54252e-07)
(-1.98418e-06 -4.37387e-06 6.04317e-07)
(-1.51083e-06 -3.30055e-06 5.31417e-07)
(-1.88371e-06 -4.0902e-06 9.26364e-07)
(-1.86077e-06 -4.0947e-06 5.86523e-07)
(-7.37635e-07 -1.54212e-06 3.72431e-07)
(-1.02576e-06 -2.13174e-06 6.86947e-07)
(-9.99058e-07 -2.1355e-06 4.34227e-07)
(-1.12776e-06 -2.45997e-06 8.08366e-08)
(-1.39528e-06 -3.05112e-06 4.17221e-07)
(-1.08771e-06 -2.35154e-06 3.69571e-07)
(-1.12017e-06 -2.34779e-06 7.18471e-07)
(-1.40116e-06 -3.05105e-06 5.12558e-07)
(-1.09397e-06 -2.35155e-06 4.54193e-07)
(-1.6015e-06 -3.31293e-06 1.3544e-06)
(-1.94645e-06 -4.10328e-06 1.49211e-06)
(-2.4389e-06 -5.24461e-06 1.50672e-06)
(-2.01749e-06 -4.36476e-06 1.03607e-06)
(-2.05324e-06 -4.3709e-06 1.38958e-06)
(-1.5854e-06 -3.30104e-06 1.2241e-06)
(-1.89474e-06 -4.08596e-06 1.00566e-06)
(-1.93118e-06 -4.09278e-06 1.3492e-06)
(-8.10772e-07 -1.56291e-06 1.06309e-06)
(-1.03499e-06 -2.14412e-06 1.02536e-06)
(-1.0686e-06 -2.15486e-06 1.23439e-06)
(-1.48034e-06 -3.07852e-06 1.52632e-06)
(-1.17708e-06 -2.3821e-06 1.35751e-06)
(-1.12929e-06 -2.35995e-06 1.07138e-06)
(-1.46631e-06 -3.06785e-06 1.45005e-06)
(-1.16236e-06 -2.37036e-06 1.28968e-06)
(-1.77841e-06 -3.96333e-06 6.93076e-07)
(-1.50322e-06 -3.30852e-06 7.61686e-07)
(-1.85395e-06 -4.10254e-06 8.36125e-07)
(-2.37421e-06 -5.2593e-06 1.03402e-06)
(-2.00603e-06 -4.37891e-06 1.25059e-06)
(-1.98381e-06 -4.38212e-06 9.57436e-07)
(-1.50986e-06 -3.3094e-06 8.47625e-07)
(-1.88285e-06 -4.10022e-06 1.2154e-06)
(-1.86021e-06 -4.1031e-06 9.3084e-07)
(-7.36489e-07 -1.55221e-06 6.00581e-07)
(-1.024e-06 -2.14318e-06 9.08533e-07)
(-9.97874e-07 -2.14512e-06 6.97631e-07)
(-1.11773e-06 -2.46794e-06 5.65942e-07)
(-1.39337e-06 -3.05912e-06 7.36001e-07)
(-1.08566e-06 -2.35994e-06 6.55335e-07)
(-1.11848e-06 -2.35906e-06 9.49381e-07)
(-1.40011e-06 -3.06006e-06 8.18793e-07)
(-1.09279e-06 -2.36101e-06 7.28766e-07)
(-1.58877e-06 -3.32677e-06 1.58069e-06)
(-1.93517e-06 -4.11642e-06 1.73808e-06)
(-2.43181e-06 -5.25826e-06 1.83716e-06)
(-2.01556e-06 -4.37909e-06 1.41065e-06)
(-2.0446e-06 -4.38533e-06 1.6989e-06)
(-1.57496e-06 -3.3165e-06 1.50166e-06)
(-1.89253e-06 -4.10055e-06 1.37102e-06)
(-1.92206e-06 -4.10747e-06 1.65097e-06)
(-3.76527e-06 -8.18109e-06 2.32143e-06)
(-4.25411e-06 -9.23495e-06 2.43378e-06)
(-4.39223e-06 -9.60676e-06 1.94033e-06)
(-4.41306e-06 -9.59493e-06 2.34276e-06)
(-3.75538e-06 -8.17954e-06 2.20307e-06)
(-4.22364e-06 -9.24581e-06 1.9128e-06)
(-4.245e-06 -9.23548e-06 2.30913e-06)
(-2.51067e-06 -5.56432e-06 1.05844e-06)
(-2.9574e-06 -6.50706e-06 1.47773e-06)
(-2.93815e-06 -6.5142e-06 1.12856e-06)
(-3.14565e-06 -7.01238e-06 8.67804e-07)
(-3.54325e-06 -7.85649e-06 1.08886e-06)
(-3.0813e-06 -6.84313e-06 1.03208e-06)
(-3.10529e-06 -6.83377e-06 1.50747e-06)
(-3.54805e-06 -7.85403e-06 1.21468e-06)
(-3.08647e-06 -6.84172e-06 1.15085e-06)
(-3.60737e-06 -7.83785e-06 2.28216e-06)
(-3.14971e-06 -6.83499e-06 2.15882e-06)
(-2.56721e-06 -5.5616e-06 1.88142e-06)
(-2.96603e-06 -6.5056e-06 1.66621e-06)
(-2.99153e-06 -6.50559e-06 2.00875e-06)
(-3.59723e-06 -7.83564e-06 2.16597e-06)
(-3.11381e-06 -6.83199e-06 1.69965e-06)
(-3.1388e-06 -6.83087e-06 2.0494e-06)
(-4.38451e-06 -9.61193e-06 1.72178e-06)
(-4.3691e-06 -9.62852e-06 1.31083e-06)
(-4.10381e-06 -9.09893e-06 9.51739e-07)
(-3.70257e-06 -8.20354e-06 1.10673e-06)
(-4.19568e-06 -9.26989e-06 1.15797e-06)
(-4.21584e-06 -9.25048e-06 1.69725e-06)
(-3.70725e-06 -8.20071e-06 1.2349e-06)
(-4.2e-06 -9.26579e-06 1.29261e-06)
(-8.18583e-07 -1.50779e-06 1.12986e-06)
(-7.45798e-07 -1.3409e-06 1.06359e-06)
(-4.26481e-08 -4.6032e-09 4.41604e-08)
(-9.47759e-08 -3.87244e-08 1.21014e-07)
(-2.62817e-06 -5.63068e-06 2.1212e-06)
(-2.76502e-06 -5.93602e-06 2.17102e-06)
(-7.93616e-07 -1.51536e-06 1.19767e-06)
(-7.20522e-07 -1.34856e-06 1.12759e-06)
(-4.07575e-08 -2.05081e-08 5.46516e-08)
(-9.11929e-08 -5.25422e-08 1.44915e-07)
(-8.95356e-07 -1.6842e-06 1.19535e-06)
(-9.76092e-07 -1.86996e-06 1.26002e-06)
(-2.49437e-06 -5.33111e-06 2.07042e-06)
(-2.36368e-06 -5.03754e-06 2.01868e-06)
(-8.70772e-07 -1.69168e-06 1.26689e-06)
(-9.51951e-07 -1.87735e-06 1.33523e-06)
(-2.47883e-06 -5.33707e-06 2.18756e-06)
(-2.34748e-06 -5.04361e-06 2.13341e-06)
(-2.6133e-06 -5.63653e-06 2.24066e-06)
(-2.75082e-06 -5.94177e-06 2.29272e-06)
(-3.86129e-12 -6.74949e-14 -6.18305e-12)
(-2.38245e-13 -4.57345e-14 8.82587e-13)
(-3.89911e-12 -7.99306e-14 -6.39264e-12)
(-2.8573e-13 -6.19731e-15 7.73577e-13)
(-3.92601e-12 1.07526e-14 -6.33787e-12)
(-3.94535e-12 1.56294e-14 -6.50112e-12)
(4.08863e-12 -4.09003e-12 -3.34728e-12)
(6.94259e-12 -2.13357e-12 4.8485e-12)
(6.48467e-12 -5.15128e-12 -3.17057e-12)
(1.66512e-11 2.39762e-11 7.5466e-12)
(3.22023e-11 4.68103e-11 -2.90574e-12)
(2.71794e-11 1.94178e-11 -2.62282e-12)
(-3.85354e-12 -3.0834e-14 -6.17908e-12)
(-1.96698e-13 -4.37941e-14 9.77397e-13)
(-3.86717e-12 -3.12162e-14 -6.3239e-12)
(2.08764e-12 -3.08692e-12 -3.70509e-12)
(3.11573e-12 -9.36401e-13 3.58247e-12)
(5.87409e-13 -2.2409e-12 -4.22326e-12)
(-3.15302e-12 -2.22934e-13 -5.54065e-12)
(5.04031e-13 -9.39187e-14 1.75187e-12)
(-2.94344e-12 -3.62521e-13 -5.58031e-12)
(-2.57007e-12 -5.89366e-15 -2.97721e-12)
(-1.38022e-12 -2.30206e-14 -2.09659e-13)
(-2.50096e-12 -9.41557e-15 -2.88042e-12)
(-1.42363e-12 -1.67463e-14 -3.10952e-13)
(-2.61004e-12 -2.21649e-14 -3.07522e-12)
(-2.53886e-12 -1.63232e-14 -2.96754e-12)
(-3.92115e-12 5.38951e-14 -6.26839e-12)
(-2.81958e-13 3.35138e-14 8.26969e-13)
(-3.95031e-12 6.11231e-14 -6.45807e-12)
(-3.92468e-12 -2.68672e-14 -6.3268e-12)
(-3.13187e-13 -1.14378e-14 7.23028e-13)
(-3.96615e-12 -3.31912e-14 -6.52895e-12)
(-2.63553e-12 -7.12102e-16 -3.09617e-12)
(-1.43373e-12 1.45441e-14 -2.88684e-13)
(-2.56147e-12 2.6337e-15 -2.98313e-12)
(-2.61629e-12 7.41068e-15 -3.07917e-12)
(-1.45032e-12 5.6625e-16 -3.60161e-13)
(-2.55705e-12 3.61207e-15 -3.00421e-12)
(-7.1515e-07 -1.35619e-06 6.62072e-07)
(-6.2663e-07 -1.18651e-06 5.66722e-07)
(-6.93654e-07 -1.35268e-06 4.5561e-07)
(-6.19166e-07 -1.18395e-06 4.27597e-07)
(-6.40965e-07 -1.1875e-06 6.22011e-07)
(-3.92073e-07 -5.46217e-07 6.51614e-07)
(-4.41482e-07 -6.53814e-07 7.21801e-07)
(-2.59376e-07 -3.95034e-07 2.52978e-07)
(-3.16415e-07 -5.01682e-07 3.75819e-07)
(-2.81536e-07 -3.99351e-07 3.70293e-07)
(-3.08949e-07 -4.98765e-07 2.82938e-07)
(-3.31351e-07 -5.02871e-07 4.13671e-07)
(-1.0138e-12 8.67095e-14 -6.33993e-13)
(2.43047e-12 -4.54716e-13 3.33736e-12)
(-6.63244e-13 7.0437e-14 -3.0644e-13)
(3.372e-12 1.91963e-11 5.70519e-12)
(-7.83321e-12 2.04545e-11 6.61224e-13)
(-2.66494e-12 9.91954e-12 7.29199e-13)
(-1.64784e-08 -3.64287e-09 2.90115e-08)
(-2.6501e-09 -1.04891e-10 1.35164e-08)
(-1.95876e-08 -1.01931e-08 4.5575e-08)
(-4.30622e-09 2.36891e-09 1.16061e-08)
(-1.94452e-08 -1.28074e-09 3.50729e-08)
(-1.53072e-08 -9.94984e-09 4.16218e-08)
(-4.19024e-09 2.91362e-09 1.07986e-08)
(-1.51058e-07 -2.24068e-07 1.33022e-07)
(-2.02737e-07 -3.0388e-07 1.93266e-07)
(-1.95039e-07 -3.10373e-07 2.38422e-07)
(-1.65316e-07 -2.29273e-07 2.33771e-07)
(-1.92022e-07 -3.05311e-07 1.55129e-07)
(-1.61468e-07 -2.23e-07 1.66119e-07)
(-1.53937e-07 -2.29443e-07 2.05043e-07)
(2.79837e-11 1.27764e-10 5.03562e-13)
(-1.59205e-11 2.15223e-10 5.28956e-12)
(2.66118e-11 2.14923e-10 -7.03725e-12)
(-5.97584e-07 -1.18823e-06 3.0186e-07)
(-6.75779e-07 -1.36131e-06 4.89902e-07)
(-6.1261e-07 -1.19093e-06 5.22318e-07)
(-6.8284e-07 -1.35466e-06 3.98051e-07)
(-6.08189e-07 -1.1859e-06 3.73435e-07)
(-6.01007e-07 -1.19256e-06 4.59986e-07)
(-6.72405e-07 -1.35699e-06 3.21945e-07)
(-2.86532e-07 -5.02151e-07 1.98248e-07)
(-2.48062e-07 -3.96342e-07 2.19899e-07)
(-3.01891e-07 -5.0575e-07 3.45657e-07)
(-2.40328e-07 -4.02857e-07 2.7136e-07)
(-2.97549e-07 -5.0025e-07 2.46249e-07)
(-2.37147e-07 -3.98039e-07 1.76804e-07)
(-2.89838e-07 -5.06826e-07 3.03885e-07)
(-3.46064e-07 -4.4839e-07 5.80817e-07)
(-3.03061e-07 -3.60053e-07 5.09352e-07)
(-7.8417e-09 -1.49298e-09 1.63347e-08)
(-2.2848e-08 -8.38212e-09 4.62591e-08)
(-4.96139e-09 2.16953e-09 1.15287e-08)
(-2.61466e-08 9.00285e-09 4.21463e-08)
(-2.84783e-08 -3.15752e-09 5.06364e-08)
(-3.67861e-09 2.20484e-09 6.28779e-09)
(-2.13854e-07 -3.02781e-07 2.22687e-07)
(-2.35553e-07 -3.07367e-07 3.2633e-07)
(-1.78938e-07 -2.25884e-07 2.54809e-07)
(-1.72254e-07 -2.22142e-07 1.91824e-07)
(-1.93188e-07 -2.27022e-07 2.81564e-07)
(-1.64386e-11 5.34639e-11 1.77021e-12)
(-4.24544e-11 1.76417e-10 4.66793e-12)
(-4.42904e-11 1.07344e-10 1.10771e-12)
(-3.80333e-06 -8.21747e-06 2.49309e-06)
(-3.9624e-06 -8.56155e-06 2.53531e-06)
(-3.72182e-06 -8.17224e-06 1.06322e-06)
(-3.73734e-06 -8.17071e-06 1.4942e-06)
(-3.88946e-06 -8.52404e-06 1.38768e-06)
(-3.88223e-06 -8.52202e-06 1.08361e-06)
(-3.89773e-06 -8.51999e-06 1.52063e-06)
(-2.65783e-06 -5.85924e-06 6.53543e-07)
(-2.52259e-06 -5.55266e-06 9.3585e-07)
(-2.52669e-06 -5.54562e-06 7.79455e-07)
(-2.66966e-06 -5.86062e-06 1.08694e-06)
(-2.66535e-06 -5.85619e-06 7.99711e-07)
(-2.51905e-06 -5.5485e-06 6.36573e-07)
(-2.66156e-06 -5.86337e-06 9.58521e-07)
(-3.39478e-06 -7.49404e-06 7.35625e-07)
(-3.55714e-06 -7.83128e-06 9.15843e-07)
(-3.40698e-06 -7.494e-06 1.20838e-06)
(-3.55557e-06 -7.83973e-06 1.08635e-06)
(-3.40169e-06 -7.48985e-06 8.97143e-07)
(-3.55034e-06 -7.83576e-06 7.51467e-07)
(-3.3997e-06 -7.49804e-06 1.06602e-06)
(-3.64682e-06 -7.87755e-06 2.44992e-06)
(-3.49294e-06 -7.54196e-06 2.40581e-06)
(-2.55096e-06 -5.54425e-06 1.26367e-06)
(-2.53459e-06 -5.54269e-06 8.88745e-07)
(-2.67925e-06 -5.85566e-06 1.18093e-06)
(-2.67308e-06 -5.85308e-06 9.1163e-07)
(-2.68928e-06 -5.85435e-06 1.29434e-06)
(-3.56394e-06 -7.82668e-06 1.0425e-06)
(-3.57949e-06 -7.82563e-06 1.46724e-06)
(-3.41534e-06 -7.48783e-06 1.31376e-06)
(-3.40864e-06 -7.48554e-06 1.02147e-06)
(-3.42426e-06 -7.48494e-06 1.43975e-06)
(-3.86916e-06 -8.53238e-06 7.82555e-07)
(-3.71518e-06 -8.17716e-06 9.34271e-07)
(-3.88187e-06 -8.53122e-06 1.27587e-06)
(-3.71404e-06 -8.18587e-06 1.10628e-06)
(-3.87575e-06 -8.52727e-06 9.52429e-07)
(-3.70849e-06 -8.18194e-06 7.67111e-07)
(-3.87506e-06 -8.53627e-06 1.12583e-06)
(-2.54816e-12 -3.75017e-14 -2.93095e-12)
(-1.3487e-12 -4.42249e-14 -1.29082e-13)
(-2.479e-12 -3.21167e-14 -2.82334e-12)
(-3.88742e-12 1.34063e-14 -6.21022e-12)
(-2.74659e-13 2.65043e-14 8.4557e-13)
(-3.91335e-12 1.52106e-15 -6.37711e-12)
(-3.38785e-12 -9.01999e-14 -5.69116e-12)
(7.56851e-14 5.11361e-14 1.41217e-12)
(-3.54833e-12 -5.40458e-15 -5.94872e-12)
(-1.40519e-12 8.44528e-14 -1.19126e-12)
(4.99907e-13 -1.61549e-13 2.05964e-12)
(-1.59813e-12 9.08426e-14 -1.37029e-12)
(-9.77555e-13 5.63715e-14 4.70096e-13)
(-2.39704e-12 8.49715e-14 -2.55345e-12)
(-2.30942e-12 7.91023e-14 -2.44908e-12)
(-2.61376e-12 2.81346e-14 -3.03509e-12)
(-1.44584e-12 3.58481e-14 -2.91919e-13)
(-2.56718e-12 2.56531e-14 -2.98279e-12)
(-1.21876e-12 7.41198e-14 1.73327e-13)
(-2.49708e-12 5.71337e-14 -2.76122e-12)
(-2.45753e-12 5.60858e-14 -2.69877e-12)
(-7.08559e-07 -1.37575e-06 9.03008e-07)
(-6.2262e-07 -1.20446e-06 7.83093e-07)
(-6.97037e-07 -1.38915e-06 9.51756e-07)
(-6.34321e-07 -1.20735e-06 8.48898e-07)
(-6.22602e-07 -1.22098e-06 8.94785e-07)
(-3.67764e-07 -5.54375e-07 6.92022e-07)
(-4.16518e-07 -6.61875e-07 7.66142e-07)
(-2.62873e-07 -4.35997e-07 5.32639e-07)
(-3.12616e-07 -5.2112e-07 5.20661e-07)
(-2.75603e-07 -4.21222e-07 5.06597e-07)
(-3.25108e-07 -5.24326e-07 5.6567e-07)
(-3.12438e-07 -5.38921e-07 5.95261e-07)
(-1.92172e-08 -3.86699e-08 7.74956e-08)
(-4.74432e-09 -7.58252e-09 1.87244e-08)
(-2.08788e-08 -2.20588e-08 6.27713e-08)
(-8.80045e-09 -2.21845e-08 2.79214e-08)
(-1.70535e-08 -2.07336e-08 5.70494e-08)
(-2.33247e-08 -4.00486e-08 8.17193e-08)
(-6.81525e-09 -2.04403e-08 2.61228e-08)
(-1.54411e-07 -2.6248e-07 3.58316e-07)
(-2.05676e-07 -3.41876e-07 4.37575e-07)
(-1.94642e-07 -3.23712e-07 3.31194e-07)
(-1.63751e-07 -2.4399e-07 3.12366e-07)
(-1.53721e-07 -2.43339e-07 2.85515e-07)
(-1.95227e-07 -3.42364e-07 4.15168e-07)
(-1.64572e-07 -2.62249e-07 3.77746e-07)
(-6.01256e-07 -1.22047e-06 7.93617e-07)
(-6.75387e-07 -1.37267e-06 6.76091e-07)
(-6.10667e-07 -1.20329e-06 6.93394e-07)
(-6.85995e-07 -1.38738e-06 8.89187e-07)
(-6.0061e-07 -1.20411e-06 6.35291e-07)
(-6.11385e-07 -1.21913e-06 8.359e-07)
(-6.76018e-07 -1.38873e-06 8.44192e-07)
(-2.89946e-07 -5.37372e-07 5.27293e-07)
(-2.51023e-07 -4.3335e-07 4.96923e-07)
(-2.99916e-07 -5.19229e-07 4.60126e-07)
(-2.39869e-07 -4.15794e-07 3.76468e-07)
(-2.89372e-07 -5.19453e-07 4.21178e-07)
(-3.0058e-07 -5.36463e-07 5.55548e-07)
(-2.40428e-07 -4.34071e-07 4.71573e-07)
(-3.22724e-07 -4.56685e-07 6.17368e-07)
(-2.81098e-07 -3.68612e-07 5.42221e-07)
(-1.08346e-08 -1.54175e-08 2.55862e-08)
(-2.56997e-08 -2.57306e-08 7.145e-08)
(-1.04298e-08 -2.56496e-08 3.22731e-08)
(-3.10138e-08 -2.96533e-08 7.87672e-08)
(-2.85955e-08 -4.36462e-08 8.8959e-08)
(-2.17418e-07 -3.44738e-07 4.69247e-07)
(-2.30065e-07 -3.29767e-07 4.46767e-07)
(-1.76066e-07 -2.46771e-07 3.54431e-07)
(-1.88361e-07 -2.50073e-07 3.86279e-07)
(-1.76059e-07 -2.65329e-07 4.05298e-07)
(-7.93382e-07 -1.53486e-06 7.01612e-07)
(-7.72214e-07 -1.5314e-06 4.83335e-07)
(-8.61928e-07 -1.7224e-06 6.75241e-07)