/*--------------------------------*- C++ -*----------------------------------*\
| =========                 |                                                 |
| \\      /  F ield         | OpenFOAM: The Open Source CFD Toolbox           |
|  \\    /   O peration     | Version:  2012                                  |
|   \\  /    A nd           | Website:  www.openfoam.com                      |
|    \\/     M anipulation  |                                                 |
\*---------------------------------------------------------------------------*/
FoamFile
{
    version     2.0;
    format      ascii;
    class       pointVectorField;
    location    "0.105/solid";
    object      pointD;
}
// * * * * * * * * * * * * * * * * * * * * * * * * * * * * * * * * * * * * * //

dimensions      [0 1 0 0 0 0 0];


internalField   nonuniform List<vector> 
4847
(
(-4.9131e-12 -1.29772e-13 -1.80179e-12)
(-2.9958e-12 -3.97487e-12 -6.30634e-12)
(-5.03575e-12 9.85703e-14 -1.86897e-12)
(1.27186e-08 6.98061e-09 -4.03208e-09)
(-7.06998e-06 -4.58752e-06 9.25436e-07)
(-1.9647e-06 -1.19501e-06 5.17581e-07)
(2.84852e-13 -4.52449e-14 2.48676e-12)
(-4.96877e-12 -9.35091e-15 -1.81493e-12)
(-4.81154e-12 -9.84616e-14 -2.23686e-12)
(1.88498e-13 1.12335e-12 2.98599e-12)
(-3.22712e-12 8.89321e-11 -1.17895e-10)
(-2.13856e-06 -1.35627e-06 2.02191e-06)
(2.53565e-13 4.19555e-15 2.49413e-12)
(-5.04735e-07 -2.84918e-07 2.6296e-07)
(5.09045e-09 -3.70809e-09 -6.62478e-09)
(-4.18588e-06 -2.65876e-06 7.36863e-07)
(-7.19807e-06 -4.81092e-06 3.67385e-06)
(-1.05248e-05 -6.88964e-06 1.08615e-06)
(-6.8737e-07 -3.95895e-07 1.02521e-06)
(-1.0633e-05 -7.12492e-06 4.33324e-06)
(-4.33558e-06 -2.85759e-06 2.90421e-06)
(2.73609e-13 -2.62607e-14 2.48417e-12)
(-2.398e-11 1.69177e-10 5.01202e-11)
(2.73705e-13 1.13909e-13 2.55036e-12)
(-4.86674e-12 -1.85756e-13 -1.80144e-12)
(-5.13466e-12 -6.31199e-14 8.84562e-13)
(-4.91563e-12 -7.27366e-14 -1.80411e-12)
(-4.19314e-12 -1.04208e-12 -3.13224e-12)
(-5.15092e-12 1.46998e-12 1.14185e-12)
(-2.60064e-12 -1.00176e-11 -1.93749e-11)
(-2.29988e-06 -1.44507e-06 2.81963e-06)
(-5.10575e-14 1.77198e-15 1.88345e-14)
(-4.9766e-12 4.96078e-14 -1.83326e-12)
(-4.99038e-12 1.23095e-13 -1.9599e-12)
(-5.21422e-12 3.87553e-14 8.81721e-13)
(-2.72467e-14 -1.05201e-13 -2.98894e-13)
(3.39602e-10 2.11407e-09 -9.25884e-10)
(-9.96499e-08 -5.70734e-08 1.238e-07)
(7.51038e-09 6.96999e-09 2.20604e-09)
(-5.55086e-06 -3.57082e-06 8.34758e-07)
(-7.1177e-06 -4.70617e-06 2.30217e-06)
(-8.73177e-06 -5.69747e-06 1.00917e-06)
(-2.03043e-06 -1.28539e-06 1.26714e-06)
(-1.13271e-06 -6.66043e-07 3.94911e-07)
(-2.98658e-06 -1.86295e-06 6.31339e-07)
(-7.32031e-06 -4.93105e-06 5.09973e-06)
(-1.24378e-05 -8.15354e-06 1.15653e-06)
(-1.43146e-13 -2.05546e-16 -1.1136e-14)
(-5.86796e-10 -1.54661e-08 -6.78067e-09)
(3.02555e-13 -3.37671e-14 2.52914e-12)
(3.1373e-13 -5.2199e-14 2.54554e-12)
(-5.14839e-12 -2.01031e-14 8.81417e-13)
(-5.3252e-12 1.78613e-13 8.37381e-13)
(-2.89702e-12 9.84504e-12 6.02791e-12)
(3.22671e-13 2.38763e-13 2.64476e-12)
(-5.62387e-12 1.65487e-10 7.69529e-11)
(-1.31662e-06 -8.03777e-07 1.5377e-06)
(-3.14815e-06 -2.04458e-06 2.4773e-06)
(-4.47709e-06 -2.96634e-06 4.03492e-06)
(-8.611e-07 -4.49747e-07 1.46227e-06)
(-1.07366e-05 -7.24977e-06 6.01263e-06)
(-1.25365e-05 -8.39047e-06 4.62253e-06)
(-1.0144e-13 5.44973e-16 1.20264e-14)
(2.82203e-13 -1.51764e-14 2.5263e-12)
(2.69585e-13 3.09982e-14 2.55314e-12)
(-1.51019e-13 -4.71917e-15 -7.68808e-14)
(1.53984e-11 -2.72953e-11 1.83268e-12)
(-5.74669e-07 -3.52046e-07 6.35762e-07)
(-2.44754e-07 -1.34751e-07 4.88192e-07)
(-8.24234e-10 6.63451e-09 4.5575e-10)
(-4.24197e-06 -2.76657e-06 1.82127e-06)
(-8.84976e-06 -5.92831e-06 4.01715e-06)
(-5.68946e-06 -3.78358e-06 3.30296e-06)
(-1.0565e-05 -7.0128e-06 2.71356e-06)
(-1.48696e-06 -8.77781e-07 2.15823e-06)
(-1.58623e-07 -1.08763e-07 2.96636e-07)
(-1.20249e-06 -7.45381e-07 9.60954e-07)
(-3.89722e-07 -1.58256e-07 7.19434e-07)
(-1.2631e-05 -8.51555e-06 6.41306e-06)
(-8.77565e-06 -5.81911e-06 2.51639e-06)
(-8.96261e-06 -6.05156e-06 5.57503e-06)
(-1.24744e-05 -8.27684e-06 2.89399e-06)
(-3.29955e-06 -2.14464e-06 3.44569e-06)
(-5.60262e-06 -3.68488e-06 2.07058e-06)
(-3.04739e-06 -1.96285e-06 1.55369e-06)
(-5.82125e-06 -3.89893e-06 4.58639e-06)
(-5.1525e-12 -4.17945e-14 8.84443e-13)
(-4.35683e-12 1.27219e-11 7.45179e-12)
(-5.16334e-12 -8.40807e-14 8.88399e-13)
(-5.35593e-12 3.50169e-13 7.79674e-13)
(-5.19396e-12 6.70158e-15 8.82085e-13)
(-9.78625e-14 3.07583e-17 2.18387e-14)
(-5.06932e-14 1.24576e-15 3.54666e-14)
(-5.48949e-10 -8.50095e-11 8.42651e-10)
(5.09412e-10 -1.43083e-09 -3.55657e-10)
(9.36102e-13 -1.33332e-12 -2.94926e-13)
(2.61347e-15 2.5483e-15 3.27227e-14)
(-1.10112e-13 -2.55329e-14 -1.46523e-13)
(-1.36459e-13 -4.72843e-15 -2.17183e-14)
(-5.28983e-12 9.62192e-14 8.73946e-13)
(1.11969e-11 -1.12545e-13 6.28258e-11)
(6.57721e-11 1.42566e-11 8.0746e-11)
(4.28926e-12 -2.91207e-13 6.93463e-11)
(1.14298e-11 -1.78856e-13 6.36501e-11)
(4.15046e-12 -1.93012e-13 6.88453e-11)
(3.52162e-11 -3.54327e-11 9.11928e-11)
(2.81638e-11 -7.07672e-12 7.47305e-11)
(1.17915e-10 -1.14881e-10 1.5414e-10)
(1.11045e-11 -4.54329e-14 6.26102e-11)
(-2.9505e-08 9.52828e-10 4.29637e-08)
(-1.59871e-06 -9.37406e-07 4.99553e-07)
(-7.97678e-06 -5.18134e-06 1.08819e-06)
(-1.35277e-05 -8.86343e-06 1.36808e-06)
(4.10884e-12 -1.155e-13 6.89716e-11)
(4.63605e-12 -7.31323e-13 6.99672e-11)
(1.14937e-11 -2.2854e-13 6.33151e-11)
(-1.6172e-08 -9.22278e-08 1.62951e-07)
(-1.49366e-06 -1.01836e-06 1.16472e-06)
(-6.38339e-06 -4.11357e-06 9.83176e-07)
(-2.53343e-06 -1.54431e-06 6.31446e-07)
(-6.23175e-06 -4.17513e-06 2.25943e-06)
(-2.41271e-06 -1.61993e-06 1.47049e-06)
(-7.81955e-06 -5.23835e-06 2.48137e-06)
(-1.33657e-05 -8.90718e-06 3.03194e-06)
(1.10519e-11 -6.60469e-14 6.23775e-11)
(1.60863e-10 3.14828e-10 5.50721e-11)
(4.02912e-12 -7.74215e-14 6.84852e-11)
(1.26521e-11 -1.08196e-11 7.66481e-11)
(1.65454e-11 -3.37996e-12 6.88255e-11)
(1.10016e-11 -1.58341e-14 6.22949e-11)
(-6.12147e-10 2.27169e-09 -4.83796e-10)
(-3.22725e-07 -1.56275e-07 2.03139e-07)
(-4.70826e-08 1.36201e-08 4.57501e-08)
(-3.93726e-07 -1.70066e-07 4.83371e-07)
(-1.66773e-06 -9.80265e-07 1.1732e-06)
(-8.58271e-07 -4.72927e-07 3.57869e-07)
(-9.32013e-07 -5.02327e-07 8.39263e-07)
(-8.0158e-06 -5.2687e-06 2.56164e-06)
(-9.70613e-06 -6.33595e-06 1.18739e-06)
(-9.7406e-06 -6.42774e-06 2.78784e-06)
(-1.35539e-05 -8.95998e-06 3.19028e-06)
(-1.15601e-05 -7.5667e-06 1.28073e-06)
(-1.15904e-05 -7.66151e-06 2.99735e-06)
(4.0169e-12 -2.25874e-14 6.86159e-11)
(6.41502e-12 -3.07351e-12 7.19265e-11)
(1.27825e-11 -1.02651e-12 6.52396e-11)
(-2.68456e-07 -2.54055e-07 4.96851e-07)
(-6.18918e-08 -1.33613e-07 2.45406e-07)
(-3.63088e-07 -3.10998e-07 7.39076e-07)
(-1.59888e-06 -1.09946e-06 1.72068e-06)
(-7.72813e-07 -5.60396e-07 8.38214e-07)
(-8.79127e-07 -6.30149e-07 1.2406e-06)
(-4.93736e-06 -3.14381e-06 8.72301e-07)
(-6.42733e-06 -4.19504e-06 2.31867e-06)
(-4.9867e-06 -3.21785e-06 2.05879e-06)
(-2.59552e-06 -1.59898e-06 1.48689e-06)
(-3.6502e-06 -2.28353e-06 7.55281e-07)
(-3.70557e-06 -2.34862e-06 1.78172e-06)
(-4.79358e-06 -3.20994e-06 2.01736e-06)
(-6.317e-06 -4.28639e-06 3.3497e-06)
(-4.88388e-06 -3.31599e-06 2.98621e-06)
(-2.51334e-06 -1.71085e-06 2.17212e-06)
(-3.51667e-06 -2.35432e-06 1.75457e-06)
(-3.61211e-06 -2.45357e-06 2.59386e-06)
(-7.89975e-06 -5.3533e-06 3.68489e-06)
(-9.54543e-06 -6.38848e-06 2.68371e-06)
(-9.62056e-06 -6.50566e-06 3.99232e-06)
(-1.34306e-05 -9.02483e-06 4.52651e-06)
(-1.13979e-05 -7.6148e-06 2.86702e-06)
(-1.14679e-05 -7.73284e-06 4.27262e-06)
(-4.89446e-12 -1.67658e-13 -1.83718e-12)
(-9.68898e-12 -2.23856e-13 1.98405e-12)
(-2.99934e-12 -7.85207e-14 7.29148e-13)
(-4.92245e-12 -9.51055e-14 -1.84203e-12)
(1.41223e-11 -1.27605e-13 5.99444e-11)
(-3.60085e-12 -2.07565e-12 -4.18876e-12)
(-6.57622e-12 -5.76813e-12 -1.07738e-11)
(-1.86134e-12 1.05408e-12 5.06536e-13)
(-1.36348e-12 -5.06645e-12 -9.71049e-12)
(6.29818e-11 -2.60391e-11 8.7097e-11)
(-2.43351e-06 -1.56491e-06 3.35314e-06)
(-5.01366e-12 6.63376e-14 -1.88817e-12)
(-5.03707e-12 1.30655e-13 -1.94708e-12)
(1.42423e-11 -2.76604e-13 5.97983e-11)
(-9.92986e-12 2.05202e-13 1.90772e-12)
(-3.07982e-12 6.12528e-14 7.21524e-13)
(3.48003e-09 4.25586e-09 -4.3983e-09)
(7.23817e-09 -4.43815e-09 -1.94811e-09)
(-1.09651e-08 -1.4405e-08 5.68147e-08)
(8.82431e-09 5.84582e-09 5.38456e-10)
(-7.13131e-06 -4.58229e-06 4.04835e-07)
(-7.00189e-06 -4.60805e-06 1.44237e-06)
(-6.29188e-06 -4.06681e-06 8.8098e-07)
(-7.08991e-06 -4.64992e-06 1.62438e-06)
(-7.88376e-06 -5.13154e-06 9.68158e-07)
(-1.99243e-06 -1.24395e-06 8.97456e-07)
(-1.52412e-06 -9.12509e-07 4.57397e-07)
(-2.01002e-06 -1.19002e-06 2.28556e-07)
(-1.91021e-06 -1.22404e-06 8.07544e-07)
(-2.45272e-06 -1.51228e-06 5.75534e-07)
(-7.42312e-06 -5.05415e-06 6.04031e-06)
(-1.34358e-05 -8.80925e-06 1.18928e-06)
(-1.62311e-08 5.51048e-09 1.46868e-09)
(-7.17006e-12 -7.29211e-14 -2.88163e-12)
(-1.19341e-12 -1.81819e-14 -9.09395e-13)
(3.41285e-13 -4.30754e-14 2.52479e-12)
(3.48763e-13 -4.91722e-14 2.53703e-12)
(-4.94944e-12 -5.06423e-14 -1.8477e-12)
(-4.97993e-12 2.77338e-14 -1.86606e-12)
(1.38776e-11 -4.03371e-14 5.90782e-11)
(-3.02695e-12 -1.1127e-14 7.2588e-13)
(-9.79154e-12 5.32248e-15 1.96973e-12)
(-4.57542e-12 -4.04115e-13 -2.5917e-12)
(-4.94041e-12 5.27927e-14 -2.09332e-12)
(1.82059e-11 -3.75805e-12 6.41915e-11)
(-9.71042e-12 -1.74297e-13 1.10496e-12)
(-3.06684e-12 2.00722e-13 6.38645e-13)
(-7.44813e-12 2.58109e-12 -2.80706e-12)
(-1.38246e-12 1.4209e-13 -9.49976e-13)
(-4.58578e-13 2.92499e-12 3.71754e-12)
(3.45429e-13 5.23852e-13 2.72473e-12)
(8.00138e-12 1.68775e-11 -2.8482e-11)
(-2.05836e-10 1.6691e-09 -1.01068e-09)
(3.78786e-10 3.31146e-10 3.01605e-10)
(4.17958e-12 1.30918e-10 4.90604e-11)
(-2.21299e-06 -1.39544e-06 2.41675e-06)
(-2.07808e-06 -1.32193e-06 1.63857e-06)
(-1.70365e-06 -1.06241e-06 1.78342e-06)
(-2.15988e-06 -1.30155e-06 1.72872e-06)
(-2.09701e-06 -1.42196e-06 2.26456e-06)
(-2.62045e-06 -1.68412e-06 2.25319e-06)
(-4.59565e-06 -3.09238e-06 4.78418e-06)
(-1.00619e-06 -5.38486e-07 1.77229e-06)
(-1.08238e-05 -7.36565e-06 7.11717e-06)
(-1.35298e-05 -9.04605e-06 4.75729e-06)
(-7.25401e-12 1.879e-14 -2.89486e-12)
(-1.21165e-12 -3.00794e-15 -9.14963e-13)
(3.07635e-13 -3.58482e-15 2.51391e-12)
(2.98686e-13 1.43053e-14 2.52157e-12)
(-2.71591e-07 -1.51585e-07 1.94335e-07)
(-7.92242e-07 -4.56696e-07 3.30168e-07)
(-5.32278e-07 -2.79005e-07 1.20101e-07)
(-5.34863e-07 -3.22615e-07 4.50623e-07)
(-4.68143e-07 -3.19921e-07 4.09056e-07)
(6.79356e-09 4.32834e-09 -9.62298e-10)
(3.78227e-10 -1.04487e-08 -2.51384e-09)
(-9.15036e-08 -6.18358e-08 2.17468e-07)
(6.03554e-09 7.94598e-09 -7.44164e-09)
(-2.37468e-09 -4.69631e-08 1.76701e-08)
(-4.84838e-06 -3.10099e-06 7.86734e-07)
(-3.56479e-06 -2.24559e-06 6.85088e-07)
(-4.24142e-06 -2.65365e-06 3.20651e-07)
(-4.12246e-06 -2.68337e-06 1.15158e-06)
(-4.2094e-06 -2.71613e-06 1.28722e-06)
(-7.15293e-06 -4.75895e-06 2.97953e-06)
(-7.2542e-06 -4.86698e-06 4.38271e-06)
(-7.23856e-06 -4.7665e-06 3.16134e-06)
(-8.00676e-06 -5.35905e-06 3.84893e-06)
(-6.42516e-06 -4.2853e-06 3.49187e-06)
(-7.14248e-06 -4.85851e-06 4.09016e-06)
(-9.61259e-06 -6.28395e-06 1.04849e-06)
(-1.1467e-05 -7.51326e-06 1.12215e-06)
(-1.05884e-05 -6.88447e-06 4.83233e-07)
(-1.05415e-05 -6.95385e-06 1.91246e-06)
(-1.04555e-05 -6.90634e-06 1.68344e-06)
(-6.94716e-07 -3.33817e-07 8.69275e-07)
(-6.60929e-07 -4.71721e-07 1.15713e-06)
(-9.77954e-07 -5.814e-07 1.28486e-06)
(-7.66833e-07 -4.18932e-07 1.23764e-06)
(-6.2404e-07 -3.75732e-07 8.25159e-07)
(-4.43531e-07 -2.47197e-07 7.59308e-07)
(-1.06782e-05 -7.08594e-06 3.74218e-06)
(-1.0575e-05 -7.16397e-06 4.8093e-06)
(-1.06806e-05 -7.18423e-06 5.16881e-06)
(-1.15704e-05 -7.7497e-06 4.4812e-06)
(-9.72565e-06 -6.51737e-06 4.17857e-06)
(-1.05948e-05 -7.06901e-06 3.51372e-06)
(-4.36819e-06 -2.80797e-06 2.49082e-06)
(-4.28538e-06 -2.91416e-06 3.24305e-06)
(-3.72033e-06 -2.43623e-06 2.69429e-06)
(-4.40064e-06 -2.90711e-06 3.4656e-06)
(-4.28308e-06 -2.81279e-06 2.35561e-06)
(-4.99244e-06 -3.30719e-06 3.10708e-06)
(3.30319e-13 -2.84051e-14 2.51416e-12)
(-7.17709e-12 -3.81888e-14 -2.87387e-12)
(-1.19655e-12 -1.27286e-14 -9.08394e-13)
(3.24127e-13 -2.33447e-14 2.51618e-12)
(-9.62315e-12 3.84904e-11 1.47362e-11)
(-1.96218e-11 3.49847e-10 9.69509e-11)
(-7.97326e-12 8.38714e-12 1.0738e-11)
(-2.97211e-11 8.68798e-10 2.08346e-10)
(-7.36331e-12 1.66363e-13 -3.01601e-12)
(3.3923e-13 1.60155e-13 2.597e-12)
(2.96145e-13 7.81934e-14 2.54079e-12)
(-1.25292e-12 4.0968e-14 -9.40545e-13)
(6.78292e-12 -6.23489e-14 3.91122e-11)
(3.50431e-11 1.31722e-10 4.64153e-11)
(7.2073e-12 -1.31377e-13 4.04376e-11)
(1.1966e-11 -1.04834e-12 4.44278e-11)
(6.63434e-12 -6.24179e-15 3.87344e-11)
(-1.60928e-07 -5.69132e-08 1.92693e-07)
(-5.17004e-09 1.11251e-08 4.80929e-09)
(-1.23109e-06 -7.02497e-07 7.0037e-07)
(-8.83841e-06 -5.78993e-06 1.8624e-06)
(-1.25404e-05 -8.2519e-06 2.15879e-06)
(7.18102e-12 -1.57959e-13 3.97897e-11)
(-1.3985e-07 -1.85857e-07 4.03049e-07)
(-1.15313e-06 -8.10107e-07 1.23142e-06)
(-5.65833e-06 -3.65146e-06 1.52211e-06)
(-3.0918e-06 -1.92517e-06 1.13674e-06)
(-5.53088e-06 -3.73368e-06 2.6314e-06)
(-2.98442e-06 -2.01934e-06 1.98215e-06)
(-8.69924e-06 -5.86044e-06 3.18321e-06)
(-1.2397e-05 -8.31098e-06 3.64229e-06)
(1.43359e-11 -1.85429e-13 6.09283e-11)
(-9.64285e-12 -3.36902e-13 1.98662e-12)
(-3.00948e-12 -1.06938e-13 7.39715e-13)
(6.98204e-12 -9.77778e-14 3.97008e-11)
(-5.1653e-12 -6.25008e-14 8.7049e-13)
(-5.17005e-12 -7.43738e-14 8.74902e-13)
(1.39205e-11 -8.08033e-14 5.94309e-11)
(-3.02236e-12 -4.71242e-14 7.31975e-13)
(-9.71737e-12 -1.20074e-13 1.97433e-12)
(2.79762e-11 -1.12376e-11 7.08227e-11)
(-8.83496e-12 -1.64588e-12 -1.19327e-12)
(-2.85148e-12 2.75946e-13 4.92005e-13)
(2.07954e-11 8.33507e-12 4.86457e-11)
(-4.91384e-12 4.06915e-12 2.52297e-12)
(-5.31982e-12 6.62434e-13 8.10823e-13)
(1.87901e-10 -1.23859e-11 1.38179e-10)
(1.90014e-12 1.0023e-11 5.23589e-12)
(-1.86972e-06 -1.14434e-06 2.49325e-06)
(-2.77683e-06 -1.77891e-06 3.13718e-06)
(-3.42583e-06 -2.2693e-06 4.08962e-06)
(-1.62715e-06 -9.86964e-07 2.57883e-06)
(-1.27106e-05 -8.6268e-06 7.58938e-06)
(-1.36199e-05 -9.17075e-06 6.59956e-06)
(7.16726e-14 2.17426e-15 1.0194e-13)
(1.01011e-13 2.44994e-15 1.01816e-13)
(1.39018e-11 -6.86662e-14 5.92957e-11)
(-3.06663e-12 2.2875e-14 7.33204e-13)
(-9.84631e-12 1.10267e-13 1.9536e-12)
(1.51945e-11 -1.09591e-12 6.13201e-11)
(-9.92113e-12 2.18563e-13 1.72778e-12)
(-3.1139e-12 1.33238e-13 7.07381e-13)
(6.76117e-12 -2.30336e-14 3.90427e-11)
(-5.2249e-12 2.49359e-14 8.7167e-13)
(-5.26963e-12 6.02888e-14 8.63328e-13)
(3.62742e-13 -3.57985e-13 -1.97782e-13)
(-4.45969e-14 -4.44026e-14 -2.22473e-13)
(-2.99829e-09 -7.48834e-09 2.03572e-08)
(-1.37317e-10 2.10845e-09 -1.48649e-10)
(-1.07648e-07 -3.55807e-08 4.91553e-08)
(-1.27439e-07 -8.72919e-08 2.09002e-07)
(-8.73317e-08 -9.56998e-08 1.95565e-07)
(-4.0544e-08 -4.40586e-08 1.32371e-07)
(1.71202e-09 1.22353e-08 -7.52951e-10)
(2.61069e-09 -3.14452e-08 1.27354e-08)
(-5.60978e-06 -3.56564e-06 3.63502e-07)
(-5.48464e-06 -3.59336e-06 1.3034e-06)
(-5.57251e-06 -3.63113e-06 1.4621e-06)
(-7.17745e-06 -4.67486e-06 1.69776e-06)
(-7.92954e-06 -5.25188e-06 2.41143e-06)
(-6.34158e-06 -4.18337e-06 2.18857e-06)
(-7.04314e-06 -4.7512e-06 2.9192e-06)
(-8.79463e-06 -5.69224e-06 4.44753e-07)
(-8.75007e-06 -5.76115e-06 1.77441e-06)
(-8.66267e-06 -5.71605e-06 1.56891e-06)
(-1.59213e-06 -9.97552e-07 1.11652e-06)
(-2.06751e-06 -1.24538e-06 9.25611e-07)
(-1.97352e-06 -1.34586e-06 1.61953e-06)
(-2.51599e-06 -1.60762e-06 1.41284e-06)
(-1.17063e-06 -6.609e-07 1.77301e-07)
(-1.16227e-06 -7.09572e-07 6.81198e-07)
(-1.08501e-06 -6.97573e-07 6.14706e-07)
(-3.03766e-06 -1.85794e-06 2.75917e-07)
(-2.92702e-06 -1.88971e-06 9.86454e-07)
(-3.01215e-06 -1.91652e-06 1.09924e-06)
(-5.93194e-06 -4.02422e-06 5.43467e-06)
(-9.05758e-06 -6.17144e-06 6.60103e-06)
(-8.12428e-06 -5.48093e-06 5.34212e-06)
(-6.55215e-06 -4.40326e-06 4.84783e-06)
(-1.34707e-05 -8.93215e-06 2.97803e-06)
(-1.25014e-05 -8.14846e-06 5.20159e-07)
(-1.2453e-05 -8.2176e-06 2.03875e-06)
(-1.2369e-05 -8.16843e-06 1.78637e-06)
(1.00469e-15 2.61727e-16 8.07285e-14)
(-7.32717e-15 -4.8571e-16 7.46893e-14)
(-5.33217e-07 -2.11778e-07 9.24468e-07)
(-1.83509e-07 -5.52042e-08 3.20461e-07)
(1.35015e-08 5.71477e-11 -3.06512e-08)
(-7.16604e-12 -5.14512e-14 -2.88621e-12)
(-1.19e-12 -1.47278e-14 -9.01233e-13)
(-7.18917e-12 -9.13252e-14 -2.90755e-12)
(-1.19273e-12 -1.96e-14 -9.0534e-13)
(6.68284e-12 -3.23959e-14 3.88249e-11)
(-5.16985e-12 -2.88541e-14 8.71301e-13)
(-5.19383e-12 -1.30259e-14 8.65673e-13)
(8.49462e-12 -6.1411e-13 4.15037e-11)
(-5.36507e-12 2.46542e-13 7.95763e-13)
(-5.33093e-12 1.4564e-13 8.51291e-13)
(-1.02542e-11 2.56917e-11 3.98576e-12)
(-1.84961e-12 -4.60497e-14 -3.8576e-13)
(-7.36637e-12 4.05878e-13 -3.14523e-12)
(-1.30346e-12 5.81926e-14 -9.75247e-13)
(-8.8679e-11 1.30495e-09 -3.62845e-12)
(-2.87517e-12 4.35731e-11 2.39293e-11)
(-1.0994e-10 6.01064e-10 2.56323e-10)
(-1.33107e-06 -7.46068e-07 1.31164e-06)
(-1.39526e-06 -8.35875e-07 1.84339e-06)
(-1.25277e-06 -7.75946e-07 1.24369e-06)
(-1.28117e-06 -8.74154e-07 1.72591e-06)
(-3.17556e-06 -1.99244e-06 2.12145e-06)
(-3.21787e-06 -2.08946e-06 2.95757e-06)
(-3.09172e-06 -2.0046e-06 2.00902e-06)
(-3.10183e-06 -2.1057e-06 2.77036e-06)
(-3.86677e-06 -2.54091e-06 3.74498e-06)
(-5.12906e-06 -3.41948e-06 4.31541e-06)
(-1.15136e-06 -6.4615e-07 1.81467e-06)
(-6.11084e-07 -2.87929e-07 1.09923e-06)
(-1.16695e-05 -7.87483e-06 6.21745e-06)
(-9.83386e-06 -6.6416e-06 5.79852e-06)
(-1.2583e-05 -8.35427e-06 3.99936e-06)
(-1.25799e-05 -8.4503e-06 5.51368e-06)
(-1.25016e-05 -8.33369e-06 3.74806e-06)
(-1.24782e-05 -8.42545e-06 5.12239e-06)
(2.94271e-14 1.4483e-15 9.92627e-14)
(5.06286e-14 1.8604e-15 1.02437e-13)
(-7.21127e-12 -1.09443e-14 -2.89317e-12)
(-1.20096e-12 -1.04024e-14 -9.08005e-13)
(-1.22912e-12 2.86323e-15 -9.2424e-13)
(-7.32239e-12 6.41583e-14 -2.95384e-12)
(1.04219e-14 -8.47531e-15 -3.9545e-15)
(-5.37805e-14 -3.2202e-15 3.44807e-15)
(6.96852e-11 -1.70238e-10 6.22239e-12)
(3.8316e-12 -5.54502e-12 9.54319e-14)
(-5.93562e-07 -3.05019e-07 4.59392e-07)
(-3.38962e-07 -2.11648e-07 4.66826e-07)
(-8.62902e-07 -5.29979e-07 8.00608e-07)
(-5.35972e-07 -4.21971e-07 8.20935e-07)
(-2.46311e-07 -6.29753e-08 4.04581e-07)
(-1.95229e-07 -1.24051e-07 3.87683e-07)
(-3.07956e-07 -1.44305e-07 5.96779e-07)
(-2.35731e-07 -2.19533e-07 5.71469e-07)
(2.39775e-10 1.59885e-09 3.46996e-09)
(2.9447e-11 6.74437e-10 -1.9787e-10)
(-4.29258e-06 -2.73104e-06 1.33526e-06)
(-4.90226e-06 -3.21212e-06 1.94817e-06)
(-3.62319e-06 -2.34965e-06 1.6898e-06)
(-4.17409e-06 -2.81919e-06 2.31925e-06)
(-8.893e-06 -5.88659e-06 3.46289e-06)
(-8.80812e-06 -5.87399e-06 3.25766e-06)
(-8.90157e-06 -5.98638e-06 4.79199e-06)
(-8.7926e-06 -5.97157e-06 4.46545e-06)
(-5.72642e-06 -3.73653e-06 2.83737e-06)
(-5.6407e-06 -3.73478e-06 2.67896e-06)
(-5.74999e-06 -3.83681e-06 3.94065e-06)
(-5.63617e-06 -3.83562e-06 3.68285e-06)
(-1.06298e-05 -6.98573e-06 2.01607e-06)
(-9.65461e-06 -6.40653e-06 2.61708e-06)
(-1.15054e-05 -7.63665e-06 2.80584e-06)
(-1.04876e-05 -7.05049e-06 3.42403e-06)
(1.13132e-11 -1.46837e-13 6.31753e-11)
(1.39651e-11 -9.57041e-14 5.93934e-11)
(6.81734e-12 -8.28397e-14 3.92939e-11)
(1.11355e-11 -8.77731e-14 6.27152e-11)
(4.15587e-11 -4.69774e-12 7.80477e-11)
(1.07978e-10 -3.00566e-11 1.05229e-10)
(2.81655e-11 3.71134e-11 4.97374e-11)
(1.06411e-10 8.78417e-11 7.83534e-11)
(1.41679e-11 -1.44788e-13 6.01569e-11)
(4.25982e-12 -2.3281e-13 6.92098e-11)
(4.42227e-12 -3.68535e-13 6.98639e-11)
(1.15895e-11 -2.01277e-13 6.42859e-11)
(7.03328e-12 -1.13727e-13 3.99705e-11)
(4.1237e-12 -1.4558e-13 6.87681e-11)
(3.99693e-11 -1.79426e-11 7.68042e-11)
(6.368e-11 -6.39202e-11 1.10404e-10)
(2.03753e-11 -1.97346e-11 8.17778e-11)
(2.07369e-11 -5.37342e-12 7.16018e-11)
(1.53953e-11 5.072e-13 4.64581e-11)
(1.39706e-11 -1.32013e-13 5.92111e-11)
(1.12498e-11 -1.0385e-13 6.28613e-11)
(1.10518e-11 -1.79761e-14 6.25622e-11)
(6.6216e-12 -3.84446e-15 3.87785e-11)
(-2.00677e-06 -1.25979e-06 2.97036e-06)
(-2.03356e-08 -4.20123e-09 2.10544e-08)
(-2.50145e-08 -3.06264e-08 9.40563e-08)
(-5.812e-09 6.84887e-09 -3.51324e-10)
(-1.36839e-07 -5.49306e-08 1.17198e-07)
(-2.91083e-08 9.56819e-09 4.68551e-08)
(-1.56598e-06 -9.07469e-07 2.03516e-07)
(-1.55286e-06 -9.58832e-07 7.91156e-07)
(-2.04258e-06 -1.22364e-06 5.66606e-07)
(-1.62512e-06 -9.56206e-07 8.14858e-07)
(-1.20339e-06 -6.86821e-07 4.30049e-07)
(-2.9924e-07 -7.91602e-08 4.57814e-07)
(-1.36957e-05 -9.27949e-06 7.80925e-06)
(-7.16237e-06 -4.63591e-06 1.03641e-06)
(-7.94596e-06 -5.12631e-06 4.24969e-07)
(-7.90286e-06 -5.19467e-06 1.70091e-06)
(-7.99092e-06 -5.22163e-06 1.78145e-06)
(-8.82516e-06 -5.74847e-06 1.13852e-06)
(-8.22316e-06 -5.60254e-06 6.32627e-06)
(-1.34992e-05 -8.80424e-06 5.37986e-07)
(-1.34503e-05 -8.873e-06 2.09757e-06)
(-1.3537e-05 -8.90826e-06 2.22602e-06)
(-1.25304e-05 -8.20743e-06 1.32517e-06)
(4.34126e-12 -3.07887e-13 6.95422e-11)
(4.07903e-12 -4.61104e-14 6.88936e-11)
(1.45283e-11 -5.59483e-13 6.01219e-11)
(5.29814e-12 -1.55104e-12 7.09171e-11)
(1.19934e-11 -5.09915e-13 6.42867e-11)
(6.85128e-12 -6.92447e-14 3.92273e-11)
(-3.24626e-09 -4.56177e-08 9.23919e-08)
(-1.47275e-06 -9.42744e-07 7.12844e-07)
(-6.35212e-06 -4.0616e-06 3.8435e-07)
(-2.50109e-06 -1.5073e-06 2.52631e-07)
(-6.22461e-06 -4.08834e-06 1.37446e-06)
(-2.39552e-06 -1.54016e-06 8.98746e-07)
(-1.06468e-07 -1.57053e-07 3.26158e-07)
(-3.48338e-08 -1.15069e-07 2.02077e-07)
(-1.92929e-06 -1.30184e-06 1.32031e-06)
(-1.53876e-06 -1.0601e-06 1.42859e-06)
(-1.10751e-06 -7.70817e-07 1.00388e-06)
(-2.90685e-06 -1.90171e-06 3.72642e-06)
(-6.31265e-06 -4.12827e-06 1.54479e-06)
(-5.64124e-06 -3.61573e-06 9.28481e-07)
(-6.39944e-06 -4.151e-06 1.61132e-06)
(-2.47936e-06 -1.56364e-06 1.00012e-06)
(-2.55688e-06 -1.56881e-06 1.03284e-06)
(-3.06979e-06 -1.89807e-06 6.94277e-07)
(-6.6589e-06 -4.5276e-06 5.74312e-06)
(-7.00767e-06 -4.69519e-06 2.37288e-06)
(-5.49323e-06 -3.67957e-06 2.14095e-06)
(-6.26831e-06 -4.23028e-06 2.77831e-06)
(-2.4559e-06 -1.66608e-06 1.80406e-06)
(-2.94234e-06 -1.97124e-06 1.61523e-06)
(-7.81506e-06 -5.15108e-06 1.50717e-06)
(-1.33674e-05 -8.82326e-06 1.83363e-06)
(-7.85393e-06 -5.29505e-06 3.05414e-06)
(-8.66595e-06 -5.80323e-06 2.58495e-06)
(-1.33935e-05 -8.96456e-06 3.74317e-06)
(-1.23681e-05 -8.25334e-06 2.95174e-06)
(6.67122e-12 -4.53501e-14 3.88697e-11)
(1.38272e-11 -5.18966e-14 5.89435e-11)
(1.10229e-11 -3.78329e-14 6.22683e-11)
(2.58615e-11 4.25595e-10 3.14256e-11)
(3.22541e-10 8.20112e-11 2.00367e-10)
(1.28651e-10 9.25286e-10 -6.1673e-11)
(4.06014e-12 -2.84931e-14 6.86594e-11)
(2.15917e-11 -6.64628e-12 6.65698e-11)
(8.63127e-12 -5.83757e-12 7.38395e-11)
(9.77352e-12 -9.56885e-13 4.27302e-11)
(1.41634e-11 -1.922e-12 6.67271e-11)
(6.58409e-12 -1.95872e-14 3.86417e-11)
(1.38193e-11 -3.75789e-14 5.88608e-11)
(-1.72161e-06 -1.00629e-06 1.5233e-06)
(-1.78033e-06 -1.09824e-06 2.13412e-06)
(-1.2943e-06 -7.4665e-07 2.17931e-06)
(-9.88797e-07 -5.21783e-07 1.09361e-06)
(-1.05781e-06 -6.09275e-07 1.54457e-06)
(-7.90345e-10 3.899e-09 1.73924e-10)
(-1.62574e-10 5.55675e-10 1.31659e-09)
(-3.51246e-07 -1.61511e-07 3.3115e-07)
(-5.64781e-07 -2.96161e-07 2.8261e-07)
(-2.89707e-07 -1.43552e-07 8.83047e-08)
(-3.01486e-07 -1.86012e-07 3.3042e-07)
(-1.97315e-07 -5.88567e-08 2.9238e-07)
(-1.00416e-07 1.4801e-08 1.82429e-07)
(-6.1669e-08 -5.48121e-08 1.72587e-07)
(-6.3834e-07 -3.18123e-07 6.64412e-07)
(-4.47652e-07 -1.81552e-07 6.38875e-07)
(-3.84485e-07 -2.31456e-07 6.08001e-07)
(-1.27534e-06 -7.23197e-07 1.00883e-06)
(-1.64129e-06 -1.0312e-06 1.4442e-06)
(-2.10819e-06 -1.27259e-06 1.33249e-06)
(-8.86849e-07 -4.85255e-07 5.81971e-07)
(-8.2564e-07 -4.5139e-07 1.49661e-07)
(-8.22354e-07 -4.97286e-07 5.67665e-07)
(-9.13493e-07 -5.57231e-07 1.03722e-06)
(-7.57282e-07 -3.61218e-07 1.35658e-06)
(-1.30244e-07 -5.85671e-08 2.64794e-07)
(-5.18983e-07 -2.64475e-07 9.22211e-07)
(-1.17529e-05 -7.98846e-06 7.35872e-06)
(-1.35768e-05 -9.01124e-06 4.11974e-06)
(-1.35711e-05 -9.10588e-06 5.67432e-06)
(-1.16164e-05 -7.71211e-06 3.87352e-06)
(-1.16159e-05 -7.80935e-06 5.34521e-06)
(-8.86187e-06 -5.83823e-06 2.67683e-06)
(-8.04872e-06 -5.31597e-06 3.31491e-06)
(-7.2038e-06 -4.72051e-06 2.44226e-06)
(-7.96337e-06 -5.3058e-06 3.12138e-06)
(-9.71852e-06 -6.3784e-06 1.94061e-06)
(-1.06182e-05 -6.94245e-06 1.2348e-06)
(-9.67591e-06 -6.27874e-06 4.64178e-07)
(-9.63011e-06 -6.34798e-06 1.84492e-06)
(-9.76999e-06 -6.47702e-06 3.6053e-06)
(-1.06506e-05 -7.03593e-06 2.89467e-06)
(-9.68573e-06 -6.46216e-06 3.38843e-06)
(-9.92494e-06 -6.75957e-06 6.86464e-06)
(-8.06071e-06 -5.41621e-06 4.59143e-06)
(-9.77533e-06 -6.57615e-06 4.98443e-06)
(-1.25586e-05 -8.30327e-06 3.09588e-06)
(-1.34965e-05 -8.98909e-06 3.85722e-06)
(-1.15709e-05 -7.61065e-06 2.0888e-06)
(-1.15307e-05 -7.50813e-06 5.019e-07)
(-1.1483e-05 -7.57748e-06 1.97706e-06)
(-1.15339e-05 -7.69327e-06 3.63358e-06)
(1.62375e-11 -2.0794e-12 6.22508e-11)
(7.6297e-12 -3.30461e-13 4.0466e-11)
(-2.45744e-07 -1.88425e-07 3.03008e-07)
(-7.49191e-07 -4.89663e-07 5.13348e-07)
(-4.90574e-06 -3.09584e-06 3.42282e-07)
(-3.61825e-06 -2.24054e-06 2.98554e-07)
(-4.78344e-06 -3.12456e-06 1.22913e-06)
(-3.50316e-06 -2.27127e-06 1.07071e-06)
(-1.66493e-06 -1.13041e-06 1.99927e-06)
(-9.46433e-07 -6.5431e-07 1.44489e-06)
(-3.08676e-07 -2.85268e-07 6.10915e-07)
(-4.9201e-07 -3.88022e-07 6.68583e-07)
(-1.84431e-07 -2.07838e-07 4.8818e-07)
(-9.44774e-08 -1.43883e-07 2.87309e-07)
(-5.95109e-07 -4.51501e-07 9.91528e-07)
(-4.24297e-07 -3.2685e-07 8.64531e-07)
(-1.21407e-06 -8.46439e-07 1.48402e-06)
(-2.03239e-06 -1.38803e-06 1.95011e-06)
(-8.18246e-07 -5.97085e-07 1.02851e-06)
(-2.64492e-06 -1.63071e-06 1.92805e-06)
(-2.69253e-06 -1.72628e-06 2.69124e-06)
(-3.98921e-06 -2.66659e-06 4.44231e-06)
(-3.75045e-06 -2.38535e-06 2.30901e-06)
(-3.7877e-06 -2.48355e-06 3.2157e-06)
(-4.95556e-06 -3.17765e-06 1.43011e-06)
(-4.2732e-06 -2.69926e-06 8.14588e-07)
(-4.87094e-06 -3.15993e-06 1.37626e-06)
(-5.68781e-06 -3.69367e-06 2.19085e-06)
(-6.46398e-06 -4.23956e-06 3.00217e-06)
(-6.37822e-06 -4.23481e-06 2.83207e-06)
(-4.32547e-06 -2.76901e-06 1.92243e-06)
(-5.02733e-06 -3.25885e-06 2.66693e-06)
(-4.94183e-06 -3.26029e-06 2.52016e-06)
(-3.12844e-06 -1.95812e-06 1.63658e-06)
(-2.56199e-06 -1.64686e-06 1.82682e-06)
(-3.67084e-06 -2.31305e-06 1.23751e-06)
(-3.58931e-06 -2.30117e-06 1.1949e-06)
(-3.66589e-06 -2.39374e-06 2.18525e-06)
(-5.2437e-06 -3.54536e-06 5.115e-06)
(-6.48348e-06 -4.34005e-06 4.1658e-06)
(-5.05522e-06 -3.35868e-06 3.70725e-06)
(-2.57639e-06 -1.74752e-06 2.52161e-06)
(-3.67196e-06 -2.49507e-06 3.01084e-06)
(-4.83232e-06 -3.26283e-06 2.47841e-06)
(-4.13424e-06 -2.76771e-06 1.88859e-06)
(-5.581e-06 -3.78841e-06 3.17153e-06)
(-6.37063e-06 -4.33511e-06 3.89054e-06)
(-7.09039e-06 -4.80848e-06 3.5208e-06)
(-4.2271e-06 -2.87055e-06 2.79367e-06)
(-4.9406e-06 -3.36149e-06 3.46704e-06)
(-3.04038e-06 -2.06652e-06 2.38669e-06)
(-3.55763e-06 -2.4042e-06 2.15386e-06)
(-9.54329e-06 -6.30158e-06 1.62765e-06)
(-1.13978e-05 -7.52904e-06 1.73633e-06)
(-1.34716e-05 -9.07905e-06 5.26764e-06)
(-1.15122e-05 -7.78669e-06 4.96964e-06)
(-8.74362e-06 -5.91948e-06 3.84203e-06)
(-7.95029e-06 -5.40446e-06 4.28177e-06)
(-9.57762e-06 -6.44603e-06 3.30649e-06)
(-1.04566e-05 -6.99276e-06 2.7777e-06)
(-9.66797e-06 -6.55851e-06 4.64127e-06)
(-1.05291e-05 -7.11053e-06 4.13582e-06)
(-1.24355e-05 -8.37134e-06 4.40282e-06)
(-1.14279e-05 -7.67255e-06 3.53594e-06)
(-3.009e-12 -5.58655e-14 7.21212e-13)
(-6.03402e-13 3.19637e-12 1.42342e-12)
(-9.67594e-12 -2.81284e-13 1.93638e-12)
(-7.76061e-12 -2.72975e-12 -4.08896e-12)
(-9.71371e-12 -1.67841e-13 1.92999e-12)
(-2.31429e-12 -3.55874e-12 -2.16524e-11)
(-3.00281e-12 -1.04014e-13 7.28982e-13)
(-2.51742e-12 4.20959e-13 4.03612e-13)
(-3.07222e-12 3.1932e-14 7.22906e-13)
(2.86204e-09 8.16678e-09 -1.52028e-09)
(-9.95533e-12 2.40069e-13 1.7855e-12)
(-9.90305e-12 1.56175e-13 1.88208e-12)
(-3.09757e-12 1.05624e-13 7.0469e-13)
(4.42491e-09 -2.65252e-08 1.74321e-08)
(-3.02162e-12 -3.99439e-14 7.21767e-13)
(-7.20611e-12 -3.1196e-14 -3.03052e-12)
(-7.20272e-12 -9.40507e-14 -3.03838e-12)
(6.40018e-12 3.24432e-11 1.73974e-11)
(-1.47329e-11 9.17367e-11 2.34308e-11)
(-8.13107e-12 7.74877e-12 -1.46925e-12)
(-9.40103e-12 -6.70858e-13 2.89629e-13)
(-9.76635e-12 -6.08634e-14 1.91717e-12)
(-7.21168e-12 -7.46197e-14 -3.04348e-12)
(-7.39781e-12 1.02344e-12 -3.26902e-12)
(-7.395e-12 2.52558e-13 -3.20399e-12)
(-2.99796e-12 2.44523e-13 5.74221e-13)
(-7.2706e-12 1.99306e-14 -3.04321e-12)
(-7.22869e-12 -4.63398e-14 -3.03929e-12)
(-3.04594e-12 1.38967e-14 7.20524e-13)
(-1.13069e-12 -1.44004e-14 -8.20359e-13)
(-1.1436e-12 -2.10074e-15 -8.31772e-13)
(-1.12529e-12 -1.86825e-14 -8.17424e-13)
(-1.12749e-12 -8.88107e-15 -8.20801e-13)
(8.50547e-09 1.51913e-08 3.50893e-09)
(-5.97946e-11 1.36552e-09 4.42747e-10)
(-7.95071e-11 5.81967e-10 7.37074e-11)
(-2.39084e-11 6.74412e-11 5.60021e-11)
(5.86722e-09 6.05175e-09 -1.58613e-08)
(-1.42809e-12 4.23974e-14 -7.58632e-13)
(-3.04253e-12 6.4984e-13 1.66266e-12)
(-9.86963e-12 9.57025e-14 1.46892e-12)
(-9.83085e-12 6.5022e-14 1.90949e-12)
(-1.12509e-12 -1.44685e-14 -8.17057e-13)
(-1.20857e-12 4.67643e-14 -8.77307e-13)
(-1.29558e-12 1.1895e-13 -9.16821e-13)
(-1.15492e-12 -2.80931e-15 -8.3994e-13)
(-1.18799e-12 2.85547e-14 -8.62955e-13)
(-3.10063e-12 1.57859e-13 6.74434e-13)
(-7.39009e-12 1.46525e-13 -3.11723e-12)
(-7.31936e-12 1.90207e-14 -3.06429e-12)
(3.49232e-10 -3.91407e-08 1.48505e-08)
(-2.49849e-12 -8.93348e-14 -4.33121e-12)
(-2.70745e-12 -4.24452e-14 -4.86012e-12)
(-1.68809e-12 1.17261e-11 8.92233e-13)
(-1.16844e-10 4.10243e-10 -2.14719e-11)
(-2.41908e-12 -8.68466e-14 -4.15074e-12)
(-5.75471e-13 3.62518e-12 -6.28561e-13)
(-2.09345e-12 1.53995e-13 -3.93182e-12)
(-2.34624e-12 -4.11944e-14 -1.9409e-12)
(-2.5178e-12 -4.11945e-14 -2.35507e-12)
(-2.85048e-12 1.04566e-14 -5.15726e-12)
(-2.76156e-12 -4.61373e-14 -4.98e-12)
(-2.67427e-12 -9.99278e-15 -2.67281e-12)
(-2.57004e-12 -2.04452e-14 -2.46826e-12)
(-1.98691e-06 -1.172e-06 1.91398e-06)