/*--------------------------------*- C++ -*----------------------------------*\
| =========                 |                                                 |
| \\      /  F ield         | OpenFOAM: The Open Source CFD Toolbox           |
|  \\    /   O peration     | Version:  2012                                  |
|   \\  /    A nd           | Website:  www.openfoam.com                      |
|    \\/     M anipulation  |                                                 |
\*---------------------------------------------------------------------------*/
FoamFile
{
    version     2.0;
    format      ascii;
    class       volVectorField;
    location    "0.105/solid";
    object      sigmaMidDir;
}
// * * * * * * * * * * * * * * * * * * * * * * * * * * * * * * * * * * * * * //

dimensions      [1 -1 -2 0 0 0 0];


internalField   nonuniform List<vector> 
3125
(
(0.996811 0.00638061 -0.0795444)
(0.606967 0.786612 -0.113284)
(0.99853 0.00909803 -0.0534365)
(0.99661 0.0194348 -0.0799452)
(0.99859 0.00309034 -0.0529945)
(0.729243 0.679709 -0.0787417)
(0.642783 0.760442 -0.092508)
(0.682356 0.718101 -0.136823)
(0.996712 0.0184156 -0.0789081)
(0.985953 -0.0617153 0.155201)
(-0.0481202 0.998562 0.0236399)
(-0.0467434 0.99854 0.0270762)
(0.998101 0.031633 -0.0528517)
(0.996689 0.0608724 -0.0539052)
(0.996701 0.0166122 -0.0794454)
(0.971164 -0.237523 -0.0205896)
(-0.647504 0.749107 -0.139919)
(-0.0456509 0.998577 0.0275668)
(-0.0453275 0.998641 0.0257356)
(-0.224799 0.971679 -0.0728417)
(-0.582739 0.801952 -0.131482)
(-0.189976 0.97958 -0.0658142)
(0.021312 0.999636 -0.0165674)
(0.996928 0.00597777 -0.0780988)
(0.00858999 0.999961 -0.00226709)
(0.726124 -0.643383 0.24249)
(0.848612 -0.215568 -0.483102)
(0.966216 0.257724 -0.00214174)
(0.0193685 0.999763 -0.00993781)
(0.998638 0.00218388 -0.0521304)
(0.885859 0.460168 -0.0591562)
(0.908892 0.407567 -0.0883488)
(-0.583849 0.811595 -0.0208085)
(-0.0577114 0.998312 0.00645429)
(-0.0106188 0.999921 0.00679609)
(-0.0218037 0.999762 -0.000238201)
(0.996928 -0.00686949 -0.0780225)
(-0.00535411 0.999968 0.00593682)
(0.013961 0.999854 -0.00987058)
(-0.00438898 0.999984 -0.00353445)
(-0.00499476 0.99998 0.00393582)
(0.126622 0.991779 0.0184871)
(0.236033 0.97146 0.0235366)
(-0.197492 0.90631 -0.37363)
(0.934782 0.354465 -0.0231874)
(0.888713 -0.260245 -0.377442)
(-0.0886848 0.996054 -0.0032856)
(0.970179 -0.194564 0.14456)
(0.752036 0.65555 0.068525)
(0.954774 0.285493 0.083066)
(0.125598 0.991876 0.0201679)
(-0.0688434 0.997583 0.00945672)
(0.280966 0.959275 0.0291471)
(0.971377 -0.136505 0.194404)
(0.415103 0.909026 0.036892)
(0.933835 0.347801 0.0835921)
(0.112853 0.993271 0.0260213)
(0.12546 0.99173 0.0270562)
(-0.050203 0.998419 0.025295)
(0.101063 0.994539 0.0260507)
(0.129531 0.991251 0.0253481)
(0.115404 0.992978 0.0260008)
(-0.0513163 0.998378 0.0246434)
(0.0971186 0.994938 0.0257996)
(-0.0353339 0.99937 0.00337308)
(0.998648 -0.0014135 -0.0519555)
(0.939643 0.336999 -0.0591884)
(0.943217 0.319706 -0.0901648)
(0.000603134 0.999998 -0.00207658)
(-0.0612238 0.998004 0.0155121)
(-0.0490747 0.962164 -0.268016)
(0.0667695 0.997736 -0.00802108)
(0.00910887 0.999958 0.000497177)
(0.0472625 0.998851 -0.00792409)
(0.997453 -0.0318292 0.0638321)
(0.995366 -0.0771114 0.057445)
(0.907456 -0.39141 0.152713)
(0.947912 -0.30637 0.087182)
(0.996213 -0.0466212 0.0733907)
(0.984947 0.15423 0.0780493)
(0.865429 -0.474864 0.159805)
(0.996801 -0.0351133 0.0717978)
(0.947977 -0.300923 0.103848)
(0.994898 -0.0813787 0.0596218)
(0.127831 0.991612 0.0191045)
(0.135637 0.990494 0.0228953)
(-0.0431549 0.998666 0.028362)
(0.128289 0.991367 0.0270722)
(0.139931 0.989822 0.0259017)
(0.128268 0.991518 0.0209813)
(-0.0428313 0.998682 0.0282682)
(0.14005 0.989816 0.0255086)
(0.130991 0.991064 0.0251804)
(0.135865 0.990453 0.0232927)
(0.997418 -0.0287834 0.065793)
(0.996582 -0.0235542 0.0791768)
(-0.359821 0.927861 -0.0979927)
(0.956363 0.271811 0.107187)
(0.973986 0.205486 0.0955361)
(0.982632 0.16747 0.0799261)
(-0.412955 0.904457 -0.106894)
(0.975057 0.201219 0.0936684)
(0.995174 -0.0304456 0.0932848)
(0.996428 -0.0239729 0.0809722)
(0.992643 -0.0496697 0.110419)
(0.950525 0.2911 0.108457)
(-0.11202 0.992482 -0.0493003)
(0.748584 0.656059 0.0959588)
(0.994961 -0.0318319 0.0950721)
(0.993027 -0.0464028 0.108368)
(-0.0928444 0.994661 -0.0450515)
(0.660571 0.745844 0.0858077)
(-0.00581378 0.999978 0.00313239)
(0.996787 0.0118344 -0.0792173)
(-0.000390947 0.999998 0.00195962)
(0.128525 0.977122 -0.169453)
(0.386957 0.856158 -0.342429)
(-0.380846 0.718951 -0.581434)
(0.998516 0.00849485 -0.0537851)
(0.996582 0.0158307 -0.0810837)
(0.003924 0.999988 0.00294216)
(-0.00164146 0.99999 0.00404878)
(0.998607 0.00488685 -0.0525423)
(0.772869 0.631371 -0.0635885)
(0.743818 0.663826 -0.0779031)
(0.204344 0.97453 -0.0923874)
(0.297133 0.954775 -0.0108396)
(0.996901 -0.00624734 -0.0784236)
(0.0108069 0.999941 -0.000954769)
(-0.00372389 0.999993 -9.95011e-05)
(-0.0797322 0.996816 0.00122181)
(-0.0798888 0.996803 0.000976446)
(0.766687 0.632427 0.110574)
(0.896832 -0.371866 0.2396)
(0.971384 -0.174319 0.161327)
(0.974411 -0.173757 0.14259)
(0.874386 0.476758 -0.090279)
(-0.0326838 0.999394 0.0119365)
(-0.0524382 0.998412 0.0205643)
(-0.0512605 0.998662 0.00686521)
(0.531847 0.843078 0.0797368)
(0.994975 0.0601564 0.0800327)
(-0.0840168 0.996464 0.000956352)
(-0.0240294 0.999589 0.0156578)
(-0.0478818 0.998501 0.0265322)
(-0.0273753 0.999515 0.0148759)
(-0.0817283 0.996654 0.00131915)
(-0.0821946 0.996616 0.00125132)
(-0.0535227 0.998297 0.0232229)
(-0.0360853 0.999276 0.0120707)
(0.998587 0.0103549 -0.0521231)
(0.990818 0.123227 -0.0556235)
(0.992368 0.0905459 -0.0837065)
(0.00600848 0.999982 -0.000495235)
(0.0377606 0.999287 -0.000560642)
(0.99862 -0.044696 0.0275701)
(0.998741 -0.0445112 0.0231165)
(0.953018 -0.294812 0.0695848)
(0.973405 -0.228814 0.011268)
(0.974807 -0.197776 0.103129)
(-0.000524455 0.999996 0.00270327)
(0.721275 -0.67642 0.14906)
(-0.106439 0.994228 -0.0134765)
(0.965702 -0.155717 0.207776)
(0.992376 -0.103481 0.0669467)
(-0.0797574 0.996813 0.00127667)
(-0.0799476 0.996798 0.00138353)
(-0.0446434 0.998611 0.0279653)
(-0.0232075 0.999604 0.0158956)
(-0.020372 0.999658 0.0164116)
(-0.0288355 0.9995 0.0129782)
(-0.043714 0.998677 0.0270732)
(-0.0217197 0.999648 0.0152383)
(-0.081573 0.996666 0.00133945)
(-0.081106 0.996705 0.00138996)
(0.998568 -0.0449463 0.0290136)
(0.998405 -0.0458438 0.0329421)
(-0.264817 0.96092 -0.0806503)
(0.0422194 0.999052 0.010596)
(0.0470571 0.998826 0.011467)
(0.0146072 0.99988 0.00514356)
(-0.524011 0.842705 -0.123535)
(0.0407297 0.999122 0.00981104)
(0.997873 -0.0476904 0.0444444)
(0.997996 -0.0474561 0.0418589)
(0.997228 -0.0481319 0.056742)
(0.0406313 0.999122 0.0102097)
(-0.159989 0.985318 -0.0595962)
(0.0359154 0.999313 0.00917291)
(0.997833 -0.0477208 0.0453067)
(0.997706 -0.047797 0.0479365)
(-0.0617899 0.997365 -0.038004)
(0.0269327 0.999618 0.00627794)
(-0.011651 0.999928 0.00298702)
(0.00428042 0.999988 -0.00256075)
(0.000509883 0.999998 0.00186083)
(0.996879 -0.000625664 -0.078936)
(-0.000340582 1 0.000800462)
(-0.00516476 0.999985 0.00203107)
(0.0231223 0.999629 -0.0144082)
(0.00109432 0.999999 0.000712992)
(-0.0100648 0.999948 0.00188837)
(0.0324682 0.971402 -0.23521)
(0.904499 0.030624 0.425374)
(0.578293 -0.559439 0.593806)
(0.255198 0.81446 -0.521084)
(0.999476 0.0207666 -0.0248183)
(0.818 -0.453264 0.354157)
(0.933332 0.165347 0.318672)
(0.992458 0.113452 -0.0464359)
(0.984934 -0.101833 0.139768)
(0.00254366 0.999989 0.00403584)
(0.00207457 0.999993 0.00299102)
(0.0357466 0.99908 -0.0236792)
(-0.00948338 0.999947 0.00409055)
(0.0169702 0.999791 -0.01143)
(0.000311884 0.999992 0.0041011)
(0.998634 -0.000839711 -0.0522515)
(0.826162 0.560252 -0.0597794)
(0.787455 0.610654 -0.083764)
(0.171581 0.985167 0.00235095)
(0.284926 0.958541 -0.00402932)
(0.106307 0.986502 -0.124548)
(-0.172344 0.982994 0.0634078)
(0.19368 0.981064 -0.000939564)
(0.101967 0.994737 0.0100736)
(-0.130613 0.990619 0.0401698)
(0.187126 0.982308 0.00735971)
(-0.0212949 0.999759 0.00537852)
(-0.0203297 0.999792 0.00169893)
(0.0228453 0.999716 -0.00674236)
(-0.0136699 0.999893 0.00515855)
(0.0290299 0.999542 -0.00854164)
(-0.0157916 0.999867 0.00397368)
(0.996922 0.00293799 -0.0783496)
(-0.00977813 0.999952 0.000952671)
(-0.000918026 1 -0.000201341)
(0.00937919 0.999956 -0.000675174)
(0.0148237 0.999861 -0.00765351)
(-0.00758048 0.999971 -0.000275805)
(-0.0124218 0.999923 0.000633169)
(-0.00240944 0.999991 0.00359214)
(0.00162735 0.999999 -0.000345099)
(0.025094 0.999659 -0.00720253)
(-0.00476396 0.999987 0.00191465)
(-0.0149313 0.99988 0.00401022)
(-0.0202286 0.999781 0.00539513)
(-0.0101495 0.999947 -0.00185818)
(0.0225454 0.999724 -0.00661122)
(-0.0416105 0.999129 0.00311754)
(0.128941 0.991505 0.0170681)
(-0.0427233 0.999084 0.0025933)
(-0.0819283 0.996638 0.000341373)
(-0.0799914 0.996795 0.000861648)
(0.135053 0.990692 0.0170102)
(-0.0335663 0.999434 0.00220095)
(-0.0425135 0.999093 0.00241471)
(0.101859 0.994787 -0.00485631)
(0.735255 -0.200801 0.647363)
(0.470664 0.879934 -0.0647446)
(0.921384 0.354296 0.159769)
(0.712728 0.701173 0.0193846)
(0.532897 0.843307 -0.0696709)
(0.628176 0.769322 -0.116355)
(0.993222 0.105283 -0.0492493)
(0.936801 0.349807 -0.00627819)
(-0.149757 0.988412 -0.0247968)
(-0.214414 0.976387 -0.0263767)
(0.928398 -0.343251 0.142323)
(0.943874 -0.285793 0.165602)
(0.992141 0.0585211 0.110599)
(0.927578 0.360263 -0.099044)
(0.989925 -0.0607178 0.12791)
(0.709984 0.661688 -0.241023)
(-0.265339 0.963701 -0.0295862)
(0.991333 0.0828562 0.101948)
(0.979876 -0.150182 0.131483)
(0.983025 0.18135 -0.0278187)
(0.945456 0.237435 -0.22302)
(0.942163 0.334581 0.0195937)
(-0.0385065 0.999222 0.00852386)
(0.12284 0.992261 0.0181078)
(-0.0573091 0.998347 0.00433505)
(-0.0589828 0.998132 0.0159064)
(-0.13648 0.990571 -0.0119574)
(-0.0613808 0.998105 0.00437248)
(0.127603 0.991664 0.017888)
(-0.150952 0.988462 -0.0124949)
(-0.0673742 0.997725 0.0022728)
(-0.0834544 0.996512 1.51375e-05)
(0.997654 0.0392875 0.0560561)
(0.914252 -0.289197 0.283741)
(0.985187 0.13114 0.110496)
(0.966537 0.245991 0.0727575)
(0.993026 0.0729889 0.0925799)
(0.881149 0.468202 -0.0660549)
(-0.0135557 0.999904 0.00281881)
(0.983348 0.153275 0.0976428)
(0.994918 0.0732762 0.0690622)
(0.753212 0.656199 0.0455357)
(0.948965 0.278098 -0.148751)
(0.790576 0.597167 0.135574)
(-0.0831011 0.996541 0.00110922)
(-0.0838321 0.996479 0.00099388)
(0.101701 0.994476 0.0259515)
(-0.0350235 0.999375 0.00487969)
(-0.0349268 0.999378 0.00478055)
(0.10464 0.99417 0.0259945)
(-0.0349699 0.999377 0.00485642)
(-0.0271467 0.999558 0.0121193)
(0.115861 0.992904 0.0268031)
(-0.0297745 0.999489 0.0115924)
(-0.0490224 0.998461 0.0259435)
(-0.0315653 0.999408 0.0136744)
(-0.0282719 0.999494 0.0145812)
(0.112358 0.99331 0.0266581)
(-0.0334275 0.999384 0.0107095)
(-0.0307167 0.999464 0.0113581)
(-0.0828887 0.996558 0.00114205)
(-0.0823702 0.996601 0.00122507)
(-0.0357619 0.99935 0.00450305)
(0.124287 0.991912 0.0257362)
(-0.0353221 0.999365 0.00461588)
(-0.0349666 0.999377 0.00475073)
(0.122279 0.99216 0.0258299)
(-0.0352167 0.999369 0.00465053)
(0.080641 0.996441 0.0245605)
(-0.0375593 0.999249 0.00948621)
(-0.0524161 0.998338 0.0239628)
(-0.0323882 0.999386 0.0133586)
(-0.0353478 0.999298 0.0124012)
(0.0848348 0.996084 0.0249026)
(-0.0343037 0.999357 0.0104541)
(-0.0367829 0.999276 0.00975259)
(0.0297129 0.99952 -0.00872043)
(-0.0198765 0.999769 0.00814434)
(-0.0172345 0.999843 0.00403534)
(-0.0309933 0.999506 0.00523588)
(0.0246216 0.999671 -0.00725648)
(0.998637 0.00582833 -0.0518597)
(0.97552 0.212257 -0.0575135)
(0.98896 0.121225 -0.0852169)
(0.138815 0.990317 0.00169396)
(0.0506789 0.998715 0.000192815)
(-0.00142378 0.999999 -0.000274695)
(-0.0229495 0.999681 0.0105614)
(0.0244214 0.999701 0.00083485)
(0.0876293 0.996124 0.00757704)
(-0.00802055 0.999968 -0.000571746)
(0.0253251 0.999677 0.00227092)
(0.0777065 0.996951 -0.00714587)
(0.0907378 0.993491 -0.0688687)
(0.0107509 0.999942 0.00063742)
(0.0766779 0.996175 -0.0418965)
(-0.0269535 0.999595 0.00908864)
(0.0394795 0.999184 -0.00848812)
(-0.0210559 0.99976 0.00606535)
(0.0115417 0.99992 -0.00510742)
(0.0250952 0.999661 -0.00699567)
(0.0176179 0.999843 -0.00188607)
(0.0157217 0.999871 -0.00327731)
(-0.00772806 0.999967 0.00255971)
(0.938856 -0.342669 0.0335693)
(0.997144 -0.0476541 0.0585857)
(0.93623 -0.350179 0.0291108)
(0.998493 -0.0508904 0.0205247)
(0.998747 -0.0450546 0.0217932)
(0.996828 -0.0551936 0.0573423)
(0.967264 -0.252165 0.0285327)
(0.939203 -0.342218 0.0280296)
(0.933825 -0.333047 0.130575)
(0.946199 -0.299398 0.12275)
(0.973508 -0.199947 0.110921)
(0.971696 -0.234265 0.0304447)
(0.992418 -0.0784604 0.0946021)
(0.982294 -0.159395 0.0984507)
(0.971312 -0.211453 0.108816)
(0.994286 -0.0621872 0.086766)
(0.982907 -0.152612 0.102978)
(-0.0349898 0.999383 -0.00308519)
(0.994156 0.079271 0.0732812)
(-0.235126 0.971565 -0.027881)
(0.798726 -0.580821 0.157114)
(0.904193 -0.409982 0.119791)
(-0.203113 0.978776 -0.0272389)
(0.996369 0.0452276 0.0721386)
(0.957037 -0.268815 0.108716)
(-0.463185 0.884559 -0.0549104)
(0.99816 -0.0564017 0.0222434)
(0.995671 -0.0807563 0.0460079)
(0.956479 -0.223611 0.187472)
(0.991893 -0.0896125 0.0900971)
(0.990201 -0.117724 0.075117)
(0.977084 -0.210571 0.0310999)
(0.993666 -0.0813774 0.0774973)
(0.99048 -0.125658 0.0562079)
(-0.0410679 0.999151 0.0032725)
(0.132167 0.991007 0.0209206)
(-0.0395326 0.999212 0.00366199)
(-0.08037 0.996764 0.00142785)
(-0.0800512 0.99679 0.00140252)
(0.133403 0.990829 0.021472)
(-0.0378858 0.999274 0.0040297)
(-0.0390826 0.999229 0.00376784)
(-0.0437857 0.998641 0.0282503)
(-0.0184854 0.999692 0.016564)
(-0.0198567 0.999666 0.0165353)
(-0.0262729 0.999579 0.012305)
(0.135294 0.990441 0.0268757)
(-0.0242862 0.999626 0.0125959)
(-0.023251 0.999651 0.0125695)
(0.137023 0.990208 0.0267157)
(-0.02372 0.999638 0.0126842)
(-0.0348278 0.999349 0.00938454)
(0.135711 0.990475 0.0232676)
(-0.0271602 0.999567 0.0113231)
(-0.0429534 0.998688 0.0278768)
(-0.0186569 0.99969 0.0164843)
(-0.0202594 0.999672 0.0156681)
(0.137514 0.990211 0.0239268)
(-0.0233524 0.999649 0.0124896)
(-0.0258005 0.999599 0.0116907)
(-0.0805083 0.996753 0.00142649)
(-0.0809618 0.996716 0.00140279)
(-0.0359379 0.999344 0.00446255)
(0.13433 0.990633 0.0245407)
(-0.0365504 0.999322 0.00432754)
(-0.0375687 0.999286 0.0041002)
(0.135058 0.99054 0.0242761)
(-0.0367803 0.999314 0.00427679)
(0.940793 -0.337156 0.0351446)
(0.997135 -0.0241056 0.0716991)
(0.945115 -0.324333 0.0395802)
(0.998211 -0.0467369 0.0372835)
(0.998354 -0.0461074 0.034113)
(0.997009 -0.0235396 0.0736186)
(0.946107 -0.320769 0.0445942)
(0.945856 -0.321997 0.0409276)
(-0.310031 0.94654 -0.0891195)
(0.0508258 0.998636 0.0119744)
(0.0484321 0.998757 0.0117491)
(0.0405137 0.99915 0.00767366)
(0.967134 0.232654 0.102587)
(0.0444431 0.998977 0.00837192)
(0.04648 0.998882 0.008602)
(0.969382 0.223873 0.100896)
(0.0461117 0.998899 0.00862156)
(-0.0120397 0.999928 -2.02342e-05)
(0.97853 0.187367 0.0858662)
(0.0287143 0.999571 0.00570895)
(-0.467881 0.876219 -0.115444)
(0.0507244 0.998641 0.011931)
(0.0449352 0.998934 0.0105794)
(0.977654 0.190983 0.087857)
(0.0461683 0.998898 0.00849448)
(0.0348159 0.999372 0.00665642)
(0.998166 -0.0469113 0.038251)
(0.998037 -0.0473513 0.0409837)
(0.93339 -0.35499 0.0525849)
(0.995754 -0.0269818 0.0880062)
(0.940531 -0.33604 0.0497963)
(0.94557 -0.322193 0.0457097)
(0.995932 -0.0260498 0.0862579)
(0.942239 -0.331364 0.0488207)
(0.997467 -0.0478654 0.0526084)
(0.997288 -0.0481327 0.055669)
(0.990436 -0.0696681 0.11909)
(0.813599 -0.578317 0.0600471)
(0.878454 -0.474124 0.0593713)
(0.991136 -0.063216 0.116849)
(0.834239 -0.54811 0.060178)
(0.0386472 0.999226 0.00733264)
(0.917126 0.38304 0.110279)
(0.034699 0.999377 0.00647725)
(-0.13419 0.989477 -0.0541109)
(0.030942 0.999491 0.00780577)
(0.034593 0.999363 0.00878377)
(0.895486 0.431406 0.109516)
(0.0303463 0.999525 0.00536027)
(0.0332385 0.999428 0.00615547)
(0.99752 -0.0478251 0.0516353)
(0.997662 -0.0478128 0.0488369)
(0.930215 -0.363098 0.0534736)
(0.994249 -0.0367909 0.100574)
(0.917507 -0.393758 0.0560021)
(0.888889 -0.454329 0.0588357)
(0.99398 -0.0387854 0.102468)
(0.911882 -0.406504 0.0567854)
(0.31825 0.947046 0.0426657)
(0.0271078 0.999624 0.00418913)
(-0.0762326 0.996234 -0.0413049)
(0.0300237 0.999521 0.00745532)
(0.0275302 0.999599 0.00659422)
(0.384001 0.921909 0.0512564)
(0.0293985 0.999555 0.00509158)
(0.0276705 0.999607 0.00441492)
(0.719202 -0.694755 0.00798828)
(0.718395 -0.695595 0.00755587)
(0.962667 0.178149 0.203801)
(0.988958 0.0812864 0.123911)
(0.734847 -0.67811 0.0129088)
(0.735779 -0.677093 0.0131537)
(0.952772 -0.303469 0.011503)
(0.952165 -0.305398 0.0106892)
(0.930901 -0.315844 0.183484)
(0.975775 -0.190111 0.108264)
(0.720151 -0.693766 0.00840181)
(0.721099 -0.692776 0.00879123)
(0.733958 -0.679077 0.0126676)
(0.733045 -0.680067 0.0124273)
(0.953392 -0.301485 0.0122642)
(0.954024 -0.299451 0.0129715)
(0.966015 -0.257745 0.019536)
(0.964988 -0.261596 0.0191508)
(0.967097 -0.253625 0.0199222)
(0.968156 -0.249521 0.0203104)
(0.828646 -0.304411 -0.469766)
(0.0284486 0.999396 -0.0199562)
(0.856822 -0.257391 -0.446773)
(0.00487141 0.999988 -0.000785291)
(0.888658 0.0826574 -0.45106)
(0.894619 0.0860291 -0.43847)
(0.350318 -0.509058 0.786217)
(0.795436 -0.345149 0.49815)
(0.588779 -0.342607 0.732092)
(0.949109 0.276042 0.151634)
(0.979885 0.198862 0.016732)
(0.969924 0.223745 0.0958434)
(0.861274 0.0320645 -0.507129)
(0.0167363 0.999818 -0.00916551)
(0.867584 0.0276617 -0.496521)
(0.142733 -0.600056 0.787122)
(-0.438102 0.89466 0.0874647)
(-0.0863333 -0.60975 0.787878)
(0.794831 -0.281539 -0.537568)
(-0.0759584 0.997037 0.0121747)
(0.788393 -0.216477 -0.575824)
(-0.0535268 0.998294 0.0233266)
(-0.0145555 0.999872 0.00669304)
(-0.054047 0.998287 0.022402)
(-0.0189767 0.99982 0.000496804)
(0.00312975 0.999954 -0.00901969)
(-0.00249954 0.999983 -0.00525898)
(0.893907 0.0787998 -0.441271)
(-0.00584193 0.999962 0.00651638)
(0.900544 0.0948725 -0.424287)
(0.888223 -0.114459 -0.444925)
(0.0164601 0.999804 -0.0110264)
(0.897532 -0.116756 -0.425211)
(0.028236 0.999479 -0.0156052)
(-0.00505883 0.999983 -0.00295508)
(0.0227674 0.999658 -0.0128385)
(-0.0368461 0.999184 0.0165301)
(-0.00607404 0.999975 0.00357027)
(-0.036745 0.9992 0.0157799)
(0.187579 0.982045 0.0200694)
(0.125992 0.99187 0.0179069)
(-0.262647 0.964844 -0.0096218)
(-0.263575 0.964592 -0.00955066)
(0.188223 0.981932 0.0195414)
(0.731583 -0.681728 0.00578534)
(0.72322 -0.690594 0.00571825)
(-0.316782 0.948389 -0.0144233)
(0.174798 0.984419 0.0190978)
(0.330446 0.943459 0.0262828)
(-0.294011 0.955726 -0.0120684)
(0.258644 0.96573 0.0216569)
(0.53907 0.780406 -0.316813)
(-0.268847 0.800369 -0.535845)
(0.549602 0.760365 -0.346098)
(0.918407 0.383712 0.0964008)
(0.885778 0.463125 -0.0302019)
(0.858529 0.512256 0.022851)
(0.973555 -0.132848 0.185854)
(0.929007 -0.355532 0.102685)
(0.989304 -0.0268282 0.143377)
(0.857959 -0.463631 0.221252)
(0.97756 -0.106924 0.181502)
(0.9846 -0.121195 0.125992)
(0.843987 -0.48766 0.223325)
(-0.318024 0.947777 -0.0240531)
(-0.188023 0.982151 -0.00519657)
(-0.0898837 0.995945 -0.00378651)
(0.972978 0.213034 0.0890473)
(-0.183784 0.982941 -0.00716334)
(-0.262203 0.964922 -0.0132443)
(0.994766 0.00257575 0.102143)
(0.968609 0.247617 0.0219413)
(0.968764 0.224142 -0.106099)
(0.972791 0.215412 -0.0852947)
(-0.128588 0.991697 0.00127012)
(0.0119184 0.999865 0.0113367)
(0.123342 0.992175 0.0193767)
(-0.141908 0.989879 0.000798674)
(-0.142912 0.989735 0.000623186)
(0.00841929 0.999909 0.0105628)
(-0.127385 0.991852 0.00154194)
(-0.145009 0.989429 -0.00180762)
(-0.163996 0.986458 -0.00248165)
(0.17458 0.984427 0.0206341)
(-0.028291 0.999594 0.00324783)
(-0.156632 0.987656 -0.00148825)
(-0.153674 0.988116 -0.00324225)
(-0.0171275 0.99984 0.00519186)
(0.747541 -0.664184 0.00646047)
(0.781746 -0.623545 0.00804824)
(0.94686 -0.238491 0.215821)
(0.984477 -0.0195752 0.17442)
(0.930782 -0.254921 0.262032)
(0.914848 -0.337096 0.222306)
(0.982133 -0.0472384 0.18216)
(0.79889 -0.51508 0.310591)
(-0.375574 0.926576 -0.0200137)
(0.492931 0.869274 0.0371824)
(0.82612 0.559133 0.0699789)
(-0.5173 0.855093 -0.0348958)
(0.781048 0.62168 0.0589753)
(0.894974 0.443017 0.0525172)
(0.953744 0.29108 -0.0751297)
(0.919962 0.390408 -0.0353655)
(0.742186 -0.670026 0.014992)
(0.743157 -0.668942 0.0152821)
(-0.257763 0.966103 -0.0142165)
(0.174753 0.98418 0.0291659)
(0.110228 0.993565 0.0260296)
(-0.257063 0.966288 -0.0143604)
(0.172341 0.984601 0.0293086)
(-0.123958 0.992285 0.00223214)
(0.0157761 0.999762 0.0150677)
(-0.136432 0.990649 0.0013422)
(0.122451 0.992107 0.0270069)
(-0.136285 0.990669 0.00132897)
(-0.123842 0.992299 0.00227016)
(0.0140633 0.99979 0.0149287)
(-0.12472 0.99219 0.00194903)
(-0.135426 0.990787 0.00122418)
(0.104944 0.994131 0.0262806)
(0.00264166 0.999902 0.0137174)
(-0.135559 0.990768 0.00124097)
(-0.124912 0.992166 0.00188174)
(0.0046077 0.999892 0.0139529)
(0.741324 -0.670986 0.0147125)
(0.740326 -0.672093 0.0144369)
(0.18934 0.981524 0.0275801)
(-0.261732 0.965054 -0.0129467)
(0.127951 0.991453 0.0254991)
(-0.261372 0.965149 -0.0131123)
(0.188 0.981775 0.0278239)
(-0.258446 0.965923 -0.0140721)
(0.177052 0.983774 0.0290127)
(0.11783 0.992694 0.0259624)
(-0.259005 0.965776 -0.0139198)
(0.179217 0.983387 0.0288461)
(-0.125149 0.992136 0.00176155)
(-0.135282 0.990806 0.00120391)
(0.0930894 0.995331 0.0255227)
(0.000659873 0.999909 0.013468)
(-0.135129 0.990827 0.00118455)
(-0.125047 0.992149 0.0018155)
(-0.00132242 0.999912 0.0132082)
(-0.0231172 0.999732 -0.000805643)
(-0.0318773 0.999483 0.0041013)
(-0.0265863 0.999644 0.00227132)
(0.890086 -0.109565 -0.442428)
(0.00036341 0.999996 -0.00289283)
(0.893463 -0.132526 -0.42914)
(0.830751 -0.194377 -0.521604)
(-0.055519 0.998291 0.0182678)
(0.867691 -0.120634 -0.482245)
(0.542949 0.786443 -0.294471)
(0.032896 0.983386 -0.17852)
(0.524413 0.808453 -0.267197)
(0.0797778 0.996715 -0.0139362)
(0.0919947 0.995487 -0.0233147)
(0.133142 0.990252 -0.0409133)
(-0.0100634 0.999919 0.00783556)
(0.0101381 0.999949 0.000102643)
(-0.00601637 0.999965 0.00580849)
(0.0389137 0.99922 -0.00677859)
(0.0990617 0.994467 -0.034952)
(0.0830778 0.996119 -0.0290626)
(0.990527 -0.126813 0.0526728)
(0.997434 -0.0359205 0.0619329)
(0.995114 -0.0774846 0.0611845)
(0.990238 -0.129788 0.0508338)
(0.995189 -0.0780593 0.0592163)
(0.948957 -0.315344 0.00619161)
(0.949148 -0.314762 0.00655459)
(0.993518 -0.100284 0.0535215)
(0.995879 -0.0709156 0.0565314)
(0.989534 -0.136543 0.046681)
(0.989073 -0.140192 0.045618)
(0.994251 -0.0930276 0.0530107)
(0.982183 -0.172607 0.0743169)
(0.954607 -0.289214 0.0712822)
(0.978591 -0.174345 0.109376)
(0.978196 -0.188022 0.0882048)
(0.975274 -0.199778 0.094497)
(0.982869 -0.161212 0.0893287)
(0.978797 -0.194732 0.0635346)
(0.988674 -0.130632 0.0738846)
(0.980992 -0.183227 0.0638939)
(0.994614 -0.0599231 0.0845732)
(0.995624 -0.0538822 0.0763557)
(0.994091 -0.0659575 0.0862109)
(0.988656 -0.131279 0.0729684)
(0.983209 -0.170061 0.0661814)
(0.991693 -0.0998481 0.0810882)
(0.788807 0.610167 0.0740204)
(0.987846 0.135425 0.0762894)
(0.968626 -0.238157 0.0710318)
(0.837847 0.540489 0.0767083)
(0.968528 -0.239148 0.0690024)
(0.992033 -0.0945606 0.0832448)
(0.98896 -0.128829 0.0732145)
(0.978237 -0.197763 0.0627917)
(0.997351 -0.0149716 0.0711806)
(0.995149 -0.0513174 0.0839385)
(0.996097 -0.0271828 0.0839747)
(0.975519 -0.210831 0.062546)
(0.988667 -0.131301 0.072786)
(0.949297 -0.314315 0.0064379)
(0.951111 -0.308754 0.00771729)
(0.952534 -0.27489 0.130826)
(0.979693 -0.159534 0.121455)
(0.976144 -0.194416 0.0966688)
(0.976543 -0.171248 0.130532)
(0.985179 -0.136321 0.104106)
(0.992818 -0.106172 0.0551323)
(0.990191 -0.130771 0.0491967)
(0.994533 -0.0829399 0.0634448)
(0.990949 -0.123074 0.0536033)
(0.991806 -0.113709 0.0582326)
(0.187867 0.981977 0.0206539)
(-0.262165 0.964974 -0.00975288)
(0.129275 0.991413 0.0197274)
(-0.261982 0.965022 -0.00992207)
(0.18866 0.981812 0.0212597)
(0.726773 -0.686794 0.010692)
(0.725857 -0.687767 0.0104173)
(-0.262642 0.964828 -0.011206)
(0.13516 0.990569 0.0224611)
(0.193854 0.980724 0.0245258)
(-0.26252 0.964864 -0.010988)
(0.193364 0.980832 0.0240555)
(-0.123569 0.992333 0.00235855)
(0.0174133 0.999733 0.0151869)
(-0.136582 0.990628 0.00135451)
(0.130904 0.991026 0.027051)
(-0.12372 0.992314 0.00231608)
(-0.136716 0.990609 0.00136645)
(0.0189381 0.999704 0.0152792)
(-0.123318 0.992364 0.00246)
(-0.137818 0.990457 0.00137324)
(0.0245296 0.999585 0.0151367)
(0.139383 0.989891 0.0262326)
(-0.123378 0.992357 0.00244767)
(-0.137599 0.990487 0.00138183)
(0.024176 0.999591 0.0152647)
(-0.125607 0.992078 0.00194676)
(0.0149677 0.999816 0.0120304)
(-0.141076 0.989998 0.000939107)
(0.130985 0.991145 0.0217835)
(-0.126387 0.991979 0.00176188)
(-0.140406 0.990093 0.00105196)
(0.0176033 0.999765 0.0126557)
(-0.123608 0.992328 0.0024025)
(-0.138063 0.990423 0.00135863)
(0.139693 0.989878 0.0250489)
(0.0246172 0.999585 0.0149619)
(-0.138324 0.990386 0.00133712)
(-0.123482 0.992344 0.00243218)
(0.0243785 0.999594 0.0147311)
(0.727676 -0.685834 0.0109569)
(0.72858 -0.684868 0.0112134)
(0.190534 0.9813 0.0273215)
(-0.262016 0.964979 -0.012771)
(0.132295 0.990895 0.0249917)
(-0.262227 0.964924 -0.0125953)
(0.191577 0.981105 0.0270468)
(-0.26273 0.964802 -0.011422)
(0.194131 0.980658 0.0249647)
(0.135842 0.990448 0.023654)
(-0.262754 0.964793 -0.0116275)
(0.194194 0.980635 0.025374)
(0.990723 -0.12447 0.0545514)
(0.995016 -0.0771268 0.0632079)
(0.997346 -0.026615 0.0677739)
(0.990826 -0.122797 0.0564291)
(0.994907 -0.0768233 0.0652492)
(0.958432 -0.284854 0.016291)
(0.957627 -0.287576 0.0158231)
(0.994449 -0.0716511 0.0770498)
(0.99673 -0.0233371 0.0773558)
(0.989921 -0.124832 0.0668881)
(0.990229 -0.123244 0.0652536)
(0.994493 -0.0730485 0.075155)
(0.991328 -0.057994 0.117925)
(0.40733 0.911756 0.0527518)
(0.960857 0.256065 0.105759)
(0.960803 -0.25688 0.104265)
(0.446719 0.89286 0.0569495)
(0.96264 -0.250743 0.10224)
(0.991286 -0.0536108 0.120326)
(0.991802 -0.0710558 0.106208)
(0.968658 -0.231497 0.0900604)
(0.661255 0.746323 0.0757894)
(0.972729 0.210517 0.0973651)
(0.634259 0.769562 0.074094)
(0.991926 -0.0727166 0.1039)
(0.968087 -0.233076 0.0921044)
(0.992367 -0.0866486 0.0877468)
(0.760795 0.644854 0.0731805)
(0.968882 -0.236472 0.0731383)
(0.980881 0.176545 0.0818766)
(0.992256 -0.0901247 0.0854746)
(0.746089 0.661774 0.0735291)
(0.969169 -0.234613 0.0752821)
(0.992152 -0.0760044 0.099286)
(0.969089 -0.230481 0.0880033)
(0.975993 0.197526 0.0917649)
(0.683473 0.725923 0.0768118)
(0.700937 0.709033 0.0771987)
(0.969397 -0.229969 0.0859292)
(0.992039 -0.0744218 0.101592)
(0.959276 -0.281975 0.0167368)
(0.960152 -0.278952 0.017165)
(0.985103 -0.152644 0.0791957)
(0.995375 -0.0292018 0.0915145)
(0.994496 -0.0504769 0.0918192)
(0.985994 -0.147583 0.0776822)
(0.994463 -0.0543081 0.0899659)
(0.994419 -0.0700113 0.0789221)
(0.989557 -0.126834 0.0684881)
(0.996268 -0.0245476 0.0827472)
(0.989135 -0.129243 0.0700592)
(0.9944 -0.0681481 0.0807778)
(0.976191 -0.215671 0.0231893)
(0.977365 -0.210234 0.0236358)
(0.993879 0.0164125 0.109245)
(0.9673 -0.235939 0.093078)
(0.992208 -0.0535069 0.112515)
(0.962916 -0.252679 0.0945867)
(0.993317 0.0308662 0.111213)
(0.991289 -0.0409026 0.12519)
(0.370012 0.927753 0.0486485)
(0.942759 0.314988 0.109491)
(0.958591 -0.264208 0.106288)
(0.335469 0.940988 0.0447454)
(0.991277 -0.0479872 0.122749)
(0.955874 -0.273083 0.108303)
(0.983326 0.121705 0.135121)
(0.908975 -0.39968 0.118403)
(0.816257 0.568414 0.103101)
(0.191416 0.981128 0.02735)
(0.208785 0.977515 0.0295609)
(0.924558 -0.362515 0.117371)
(0.929595 0.346029 0.126954)
(0.97497 -0.221169 0.0227532)
(0.973817 -0.226234 0.0223274)
(0.984093 -0.158262 0.080714)
(0.994737 -0.0333553 0.0968802)
(0.994529 -0.0462063 0.0936875)
(0.982942 -0.164507 0.0822391)
(0.99456 -0.0414313 0.0955731)
(0.994222 0.00415939 0.107261)
(0.970874 -0.221414 0.0915384)
(0.993373 -0.043557 0.106361)
(0.973819 -0.208755 0.0899835)
(0.994423 -0.00625592 0.105276)
(0.334817 0.941633 0.034993)
(0.884646 -0.450942 0.118542)
(0.561452 0.824216 0.0737625)
(0.175929 0.984077 0.02534)
(0.162126 0.98649 0.0235111)
(0.844062 -0.523353 0.116875)
(0.587866 0.805651 0.0730796)
(-0.013294 0.99991 0.00192249)
(-0.00447973 0.999986 0.00279503)
(-0.00502855 0.999983 0.00279556)
(-0.0111032 0.999933 0.0031731)
(-0.00910421 0.999956 0.00203812)
(-0.00963271 0.999947 0.00362274)
(-0.00942365 0.999952 0.00256222)
(-0.00595329 0.999982 0.000930847)
(0.000760598 0.999999 0.00111846)
(-0.00426334 0.999988 0.00232572)
(-0.0045279 0.999988 0.00177158)
(-0.00209961 0.999996 0.00175983)
(-0.00504236 0.999987 0.00114755)
(-0.00720662 0.999972 0.00184261)
(0.316175 0.927622 -0.198873)
(0.306218 0.9445 -0.118957)
(0.200834 0.969472 -0.140678)
(0.0100747 0.947617 -0.319249)
(0.38835 0.918276 -0.0771564)
(0.101332 0.939155 -0.328206)
(0.203885 0.950893 -0.232879)
(0.211474 0.84022 -0.499309)
(0.147973 -0.423286 0.893831)
(-0.141983 0.86828 -0.475322)
(-0.107922 0.819789 -0.562405)
(-0.0269433 0.759898 -0.649484)
(0.000147937 -0.457897 0.889005)
(0.0822936 0.91718 -0.389882)
(0.99839 0.0232544 -0.0517412)
(0.998559 -0.0133522 -0.0519702)
(0.998264 -0.0248308 -0.0534101)
(0.998633 -0.00215853 -0.0522161)
(-0.00246514 0.999994 0.00257522)
(0.00168494 0.999994 0.00294802)
(0.00270738 0.999995 0.00151145)
(0.00538008 0.99998 0.00329783)
(-0.00250264 0.999995 0.00198759)
(0.0035184 0.999992 0.00188495)
(0.00392128 0.999987 0.00338967)
(-0.00801176 0.999963 0.00309778)
(-0.00262757 0.999992 0.00313988)
(0.000671485 0.999992 0.00385255)
(-0.0011129 0.999991 0.00398914)
(-0.00695118 0.999972 0.00281205)
(-0.00335078 0.999989 0.00335538)
(0.00196524 0.99999 0.00389372)
(0.997634 -0.045063 -0.0519239)
(0.998695 -0.00151515 -0.0510535)
(0.998522 0.0169823 -0.0516295)
(0.998188 -0.0315143 -0.0512559)
(0.645274 0.747162 -0.159279)
(0.869473 0.487986 -0.076723)
(0.86978 0.489328 -0.0635684)
(0.68666 0.723235 -0.0736899)