/*--------------------------------*- C++ -*----------------------------------*\
| =========                 |                                                 |
| \\      /  F ield         | OpenFOAM: The Open Source CFD Toolbox           |
|  \\    /   O peration     | Version:  2012                                  |
|   \\  /    A nd           | Website:  www.openfoam.com                      |
|    \\/     M anipulation  |                                                 |
\*---------------------------------------------------------------------------*/
FoamFile
{
    version     2.0;
    format      ascii;
    class       volScalarField;
    location    "0.105/solid";
    object      sigmaDiff;
}
// * * * * * * * * * * * * * * * * * * * * * * * * * * * * * * * * * * * * * //

dimensions      [1 -1 -2 0 0 0 0];


internalField   nonuniform List<scalar> 
3125
(
-186.001
-352.759
-200.354
-186.548
-199.335
-378.411
-311.968
-524.804
-185.601
-245179
-380304
-308497
-199.955
-201.875
-186.19
-475916
-521698
-315432
-370728
-404998
-505714
-392183
-19.6344
-183.667
-21.0388
-41.2635
-1127.68
-2558.04
-19.5043
-197.64
-231.669
-204.264
-31.6031
-19.5675
-20.2987
-20.4355
-183.659
-21.7385
-21.1662
-20.9972
-20.4964
-1.06722e+06
-1.16205e+06
-44.87
-1925.89
-2074.4
-400123
-803227
-1.06494e+06
-4135.85
-972740
-402484
-1.05772e+06
-917521
-1.17047e+06
-3496.83
-690302
-736861
-287806
-643647
-808602
-704907
-280877
-630533
-20.3467
-197.674
-217.979
-200.013
-21.5692
-19.9253
-36.5077
-21.2651
-21.0053
-21.0539
-1.15441e+06
-1.27248e+06
-573072
-956561
-1.1617e+06
-1.03961e+06
-565005
-1.14782e+06
-1.12804e+06
-1.28811e+06
-1.05191e+06
-944664
-337022
-750361
-846060
-958533
-344734
-859922
-823594
-929431
-1.13729e+06
-1.01704e+06
-445462
-792771
-899814
-1.02396e+06
-459795
-915235
-879951
-999838
-729317
-777647
-355274
-673735
-862966
-745762
-343421
-659311
-152.462
-185.114
-150.958
-224.358
-555.206
-457.979
-201.648
-189.209
-153.032
-155.108
-198.575
-299.368
-241.786
-208.282
-180.338
-184.798
-150.575
-149.725
-1.47831e+06
-1.53406e+06
-50166.9
-350721
-392455
-636595
-68242.6
-607703
-389735
-633355
-1.56474e+06
-1.73823e+06
-864561
-469559
-301597
-447246
-1.11947e+06
-1.05473e+06
-266872
-381890
-198.793
-205.028
-190.287
-151.081
-153.472
-1.48461e+06
-1.54181e+06
-557214
-617969
-747909
-684468
-537480
-713620
-1.76903e+06
-1.75735e+06
-1.45886e+06
-1.39836e+06
-322459
-477075
-499880
-598800
-361532
-572580
-1.14114e+06
-1.20624e+06
-1.46488e+06
-1.40372e+06
-418117
-527998
-555715
-674257
-489953
-643349
-1.14403e+06
-1.20976e+06
-864836
-518946
-379641
-491969
-1.12216e+06
-1.05679e+06
-320340
-414175
-115.789
-20.6191
-114.182
-184.814
-149.793
-150.588
-20.7273
-113.215
-113.861
-169.498
-198.068
-412.555
-676.964
-3973.7
-695.039
-352.918
-4262.34
-674.313
-155.9
-116.273
-19.1448
-118.032
-19.011
-118.707
-197.976
-255.917
-228.429
-162.766
-174.579
-156.18
-20.9732
-135.301
-122.752
-20.0515
-131.331
-79.0753
-20.3629
-80.588
-20.402
-82.5031
-81.3658
-184.532
-149.668
-149.587
-113.515
-21.8596
-112.778
-113.072
-21.8712
-112.69
-85.8705
-20.9025
-85.3011
-83.4924
-20.8333
-84.5068
-1.36658e+06
-1.1122e+06
-1.42033e+06
-1.60238e+06
-1.55175e+06
-1.12643e+06
-1.48619e+06
-1.4376e+06
-64.8279
-129.437
-63.3608
-244.991
-271.425
-79.2247
-23572.3
-6023.76
-38667.9
-385893
-656773
-649932
-565711
-1.10003e+06
-50806.8
-744452
-74834.4
-756525
-1.09931e+06
-758732
-6038.35
-41107.2
-45433.4
-698112
-1.01433e+06
-728021
-397871
-656389
-641014
-1.02723e+06
-755731
-736975
-1.61878e+06
-1.68703e+06
-1.29978e+06
-1.21547e+06
-58271.9
-1.60836e+06
-27634.9
-1.50093e+06
-1.20347e+06
-1.56652e+06
-561.718
-38999.8
-6298.91
-948157
-885299
-632530
-801871
-878362
-646870
-820851
-534647
-696625
-507839
-294713
-417920
-439870
-683306
-472597
-498973
-969306
-1.03326e+06
-1.03502e+06
-763873
-975821
-897706
-749054
-956193
-578678
-429348
-273898
-410660
-389039
-591548
-463873
-437925
-78.2589
-20.7793
-76.5054
-20.9415
-75.733
-198.074
-210.011
-191.971
-160.182
-154.711
-113.893
-21.5822
-115.508
-120.853
-21.2769
-116.43
-70.204
-25.1065
-80.5809
-23.4131
-84.3195
-79.6382
-86.5317
-21.1939
-86.5019
-21.1729
-85.2474
-87.7019
-1.39778e+06
-1.20562e+06
-1.45428e+06
-1.61772e+06
-1.56041e+06
-1.22259e+06
-1.53029e+06
-1.47292e+06
-574442
-752610
-761546
-702653
-1.19391e+06
-853192
-854497
-1.19601e+06
-866932
-770986
-1.08664e+06
-804444
-552295
-745473
-722068
-1.10226e+06
-845672
-814623
-1.63882e+06
-1.72394e+06
-1.59538e+06
-1.32722e+06
-1.64579e+06
-1.5509e+06
-1.32928e+06
-1.62446e+06
-1.3481e+06
-1.00585e+06
-1.29133e+06
-1.31417e+06
-1.37762e+06
-990517
-1.21343e+06
-1.27204e+06
-329626
-531183
-507603
-543671
-791110
-571006
-608340
-804779
-580238
-687783
-915950
-657172
-352877
-539239
-564038
-901851
-617893
-647162
-1.29273e+06
-1.22793e+06
-1.05483e+06
-868770
-1.11439e+06
-1.19371e+06
-883893
-1.13426e+06
-1.37858e+06
-1.08583e+06
-1.31971e+06
-1.31873e+06
-1.38277e+06
-1.06864e+06
-1.23891e+06
-1.29972e+06
-431591
-593694
-565034
-592096
-838424
-624015
-667621
-853721
-634778
-759344
-977194
-724287
-474622
-603371
-633247
-961665
-678734
-712761
-1.29708e+06
-1.23166e+06
-1.07424e+06
-931162
-1.13609e+06
-1.21845e+06
-948300
-1.15672e+06
-949202
-885762
-664450
-812322
-891328
-680520
-831901
-581603
-732624
-550437
-367342
-456828
-483142
-717757
-509715
-540179
-970551
-1.03512e+06
-1.05368e+06
-812335
-992270
-911344
-795583
-971922
-603025
-460185
-331779
-448214
-422564
-616903
-499690
-469957
-1.72409e+06
-1.7443e+06
-2.37493e+06
-2.17216e+06
-1.30804e+06
-1.28248e+06
-1.69884e+06
-1.71888e+06
-2.35744e+06
-2.1143e+06
-1.70294e+06
-1.68095e+06
-1.33364e+06
-1.35926e+06
-1.67793e+06
-1.65626e+06
-1.31557e+06
-1.34069e+06
-1.29048e+06
-1.26541e+06
-15.4812
-20.4907
-16.6987
-21.4936
-18.142
-18.5907
-48.1174
-63.4156
-85.4552
-1210.02
-3307.54
-1475.52
-15.0428
-19.9359
-15.2142
-31.2684
-26.5007
-19.9031
-13.9713
-20.0493
-13.1075
-38.7969
-20.0892
-38.2534
-20.1455
-41.8754
-40.5445
-19.2459
-22.3306
-20.0653
-18.4198
-22.0203
-19.4741
-44.1054
-20.6721
-42.9884
-42.2493
-20.3183
-41.7128
-1.16513e+06
-1.08243e+06
-1.02349e+06
-1.03795e+06
-1.1814e+06
-1.84165e+06
-1.82804e+06
-1.11307e+06
-1.15199e+06
-1.26968e+06
-1.10393e+06
-1.25742e+06
-29.8426
-56.7202
-36.887
-914.497
-1245.4
-593.638
-825979
-736068
-986360
-665482
-903708
-893635
-530704
-905756
-1.01549e+06
-960410
-1.07696e+06
-905980
-1.0145e+06
-970382
-4367.19
-9849.07
-11693.9
-843991
-882877
-986859
-930416
-943722
-895807
-831985
-896875
-1.01094e+06
-1.0495e+06
-958066
-1.00328e+06
-903535
-951590
-1.85467e+06
-1.86903e+06
-1.00249e+06
-1.15494e+06
-738994
-1.04274e+06
-1.2432e+06
-715111
-1.12023e+06
-1.28131e+06
-1.17826e+06
-1.12123e+06
-1.29193e+06
-2447.06
-8149.82
-5643.33
-1.10553e+06
-1.08064e+06
-666886
-751546
-675760
-653086
-735447
-626172
-669945
-709893
-723404
-697294
-637163
-657946
-571687
-622435
-656814
-586890
-634816
-560885
-598617
-1.13053e+06
-1.15564e+06
-882489
-778914
-793651
-764776
-865950
-680739
-767715
-719567
-694635
-783947
-539375
-610089
-617478
-575211
-597786
-550114
-563583
-38.1235
-20.2689
-36.6295
-19.1253
-22.2498
-19.7327
-15.1062
-20.7734
-16.9344
-28.3886
-31.545
-28.3224
-21.4296
-39.3798
-37.4506
-43.9657
-20.8162
-43.3371
-20.8427
-41.1892
-41.275
-1.23449e+06
-1.17151e+06
-1.1718e+06
-1.25234e+06
-1.1893e+06
-1.81907e+06
-1.80415e+06
-1.28981e+06
-1.25611e+06
-1.35891e+06
-1.34118e+06
-1.27407e+06
-1.07892e+06
-864847
-1.09205e+06
-1.18255e+06
-992326
-1.18539e+06
-1.0716e+06
-1.13226e+06
-1.21654e+06
-1.05538e+06
-1.1749e+06
-1.06667e+06
-1.12234e+06
-1.22832e+06
-1.02301e+06
-944881
-1.05528e+06
-1.09235e+06
-959125
-1.10901e+06
-1.00735e+06
-1.09795e+06
-1.20374e+06
-1.13298e+06
-1.04328e+06
-1.0299e+06
-1.18924e+06
-1.11113e+06
-1.83397e+06
-1.85147e+06
-1.27518e+06
-1.23303e+06
-1.31615e+06
-1.34916e+06
-1.29212e+06
-1.3042e+06
-1.37639e+06
-1.30329e+06
-1.39388e+06
-1.31794e+06
-1.14873e+06
-1.00895e+06
-1.03656e+06
-994393
-1.13224e+06
-1.53739e+06
-1.56227e+06
-907456
-959924
-1.03244e+06
-921873
-1.04913e+06
-659232
-681988
-722526
-763901
-648181
-735186
-694075
-715091
-811898
-767686
-832251
-726417
-799012
-755271
-807952
-869860
-917057
-944307
-819953
-903707
-856837
-749270
-824832
-873838
-780174
-837819
-737805
-792738
-1.51228e+06
-1.487e+06
-899067
-793090
-838618
-807288
-915672
-893065
-1.01574e+06
-914226
-878704
-999037
-1.21659e+06
-1.15422e+06
-1.12015e+06
-1.19863e+06
-1.13659e+06
-1.5153e+06
-1.5397e+06
-1.03027e+06
-1.03424e+06
-1.0897e+06
-1.10796e+06
-1.04801e+06
-776071
-722248
-807943
-827034
-735654
-843334
-761057
-851989
-942167
-817645
-884420
-803802
-867324
-925593
-975995
-930608
-1.07564e+06
-1.00835e+06
-991668
-916327
-1.05892e+06
-898144
-958774
-930685
-831555
-845533
-975412
-882712
-1.49068e+06
-1.4659e+06
-943504
-896982
-889154
-961708
-906658
-1.01254e+06
-1.07141e+06
-982644
-1.05311e+06
-994820
-1.09181e+06
-1.06738e+06
-734745
-782279
-712959
-764758
-718028
-731210
-708914
-762577
-810794
-695651
-746100
-794616
-657857
-699159
-688295
-617551
-630391
-714849
-643485
-1.11635e+06
-1.14099e+06
-925341
-846032
-871707
-907229
-854321
-751564
-799893
-762293
-817595
-768480
-615800
-683577
-645035
-604783
-592089
-668119
-629447
-181.161
-179.072
-153.524
-151.881
-181.772
-152.884
-178.581
-180.892
-151.949
-151.353
-177.911
-152.318
-180.644
-178.185
-338.188
-271.759
-249.327
-255.573
-305.908
-276.787
-303.734
-393.75
-522.512
-313.861
-475.913
-335.417
-562.288
-356.579
-184.224
-184.839
-186.604
-184.914
-183.028
-179.697
-154.032
-153.622
-182.241
-154.678
-180.369
-183.823
-156.218
-182.091
-154.357
-184.813
-155.379
-181.259
-184.192
-182.922
-182.672
-182.791
-420.521
-443.498
-321.162
-319.504
-261.103
-251.989
-230.901
-196.601
-280.843
-215.908
-236.795
-244.961
-192.942
-215.416
-187.583
-231.482
-203.669
-224.961
-693.328
-670.746
-1415.11
-1206.92
-180.388
-177.897
-151.779
-150.183
-180.935
-151.143
-177.521
-180.262
-150.59
-177.144
-149.883
-179.99
-151.002
-177.275
-1.61985e+06
-1.49734e+06
-1.63966e+06
-1.78143e+06
-1.76344e+06
-1.51593e+06
-1.67691e+06
-1.65869e+06
-359853
-339545
-275261
-350310
-260140
-27539
-69604.8
-123230
-80542.9
-308188
-117874
-356460
-293449
-288981
-356809
-365886
-295235
-299951
-365452
-1.94922e+06
-2.03767e+06
-1.87516e+06
-1.73987e+06
-1.96611e+06
-1.8598e+06
-1.78037e+06
-1.91715e+06
-1.00672e+06
-982345
-943199
-843939
-920336
-294476
-247911
-293528
-251686
-287639
-247720
-244219
-288440
-1.23152e+06
-1.25697e+06
-1.2262e+06
-1.09784e+06
-1.20217e+06
-1.15428e+06
-1.07626e+06
-1.1782e+06
-257265
-224449
-226445
-257371
-185.165
-183.538
-182.775
-183.116
-186.087
-187.225
-192.219
-189.08
-182.317
-178.451
-152.233
-151.611
-181.479
-152.996
-179.157
-183.536
-155.316
-181.595
-152.435
-185.296
-153.784
-180.259
-354231
-277815
-211211
-260679
-259040
-263801
-265682
-407224
-406191
-469266
-465497
-439219
-441942
-452265
-450176
-231171
-229348
-232292
-234231
-254122
-255848
-251433
-249572
-347614
-349895
-360534
-358125
-430414
-427364
-415240
-418356
-1.59443e+06
-1.50399e+06
-1.6143e+06
-1.75601e+06
-1.73795e+06
-1.52304e+06
-1.65208e+06
-1.63352e+06
-591358
-503280
-482078
-634334
-624974
-558539
-543477
-652184
-604548
-512207
-519271
-597392
-614160
-534456
-527500
-621600
-1.94495e+06
-2.04288e+06
-1.96849e+06
-1.82781e+06
-1.95767e+06
-1.84934e+06
-1.83018e+06
-1.93068e+06
-1.59935e+06
-1.43902e+06
-1.5782e+06
-1.63494e+06
-1.65825e+06
-1.41885e+06
-1.53431e+06
-1.5565e+06
-299413
-255605
-300488
-251573
-306544
-255262
-259526
-305368
-348090
-282733
-347540
-287253
-339177
-281603
-276990
-339980
-1.4105e+06
-1.38489e+06
-1.25026e+06
-1.16283e+06
-1.27435e+06
-1.32254e+06
-1.18453e+06
-1.29845e+06
-1.57397e+06
-1.4448e+06
-1.55296e+06
-1.61102e+06
-1.63392e+06
-1.4244e+06
-1.50953e+06
-1.53145e+06
-464680
-396504
-401011
-458759
-474966
-414479
-409723
-481070
-579513
-503587
-496720
-586785
-568576
-481320
-487854
-561372
-1.39091e+06
-1.36581e+06
-1.23074e+06
-1.16593e+06
-1.25433e+06
-1.30154e+06
-1.18785e+06
-1.27794e+06
-226408
-228104
-224991
-223444
-203944
-207467
-208124
-339553
-337370
-327375
-329475
-282664
-280798
-994788
-970843
-929930
-844031
-907518
-442861
-387885
-448615
-383593
-432878
-370976
-375077
-427274
-1.21543e+06
-1.24039e+06
-1.20717e+06
-1.10032e+06
-1.18364e+06
-1.13674e+06
-1.07853e+06
-1.16016e+06
-353830
-315368
-311953
-358769
-58.1673
-52.6591
-128.61
-115.056
-127.847
-59.0706
-52.1766
-20.9858
-17.2577
-17.4249
-57.3881
-126.958
-114.469
-51.7052
-127.172
-57.8565
-51.8389
-179.43
-176.556
-150.766
-149.965
-150.906
-179.266
-176.741
-179.837
-151.538
-177.531
-150.237
-180.282
-151.214
-177.113
-21.4852
-17.5533
-18.4679
-56.8167
-51.3031
-125.888
-113.231
-125.867
-57.2479
-51.2577
-56.886
-126.56
-51.5682
-113.438
-57.6072
-126.159
-51.34
-134.263
-87.8553
-196.321
-200.563
-215.677
-98.7665
-124.065
-106.828
-281.145
-143.051
-205.558
-456.609
-259.905
-328.871
-270.868
-383.32
-178.193
-1863.71
-3224.48
-3919.01
-2087.16
-1806.68
-3175.29
-1783.09
-1348.93
-745.642
-663.574
-1285.59
-799.655
-1368.43
-1095.9
-703.373
-467.34
-967.157
-1617.96
-3897.63
-4255.68
-2099.44
-1683.63
-4329
-1702.58
-1243.74
-660.301
-545.305
-1328.28
-562.273
-1300.01
-1162.76
-59.0458
-52.8929
-129.084
-116.631
-129.475
-59.3215
-52.9826
-19.8313
-13.848
-14.8807
-59.4189
-131.046
-117.249
-53.776
-130.164
-60.4912
-53.2999
-13.2722
-131.654
-54.1256
-60.835
-182.043
-181.651
-182.518
-181.733
-224.573
-229.68
-263.315
-257.553
-205.17
-192.538
-167.484
-165.877
-172.362
-199.364
-196.521
-212.039
-185.093
-207.788
-169.848
-221.074
-177.739
-201.583
-83.1269
-75.2507
-183.959
-147.098
-173.936
-89.8989
-67.8336
-23.1204
-10.7826
-13.8252
-77.3192
-158.064
-140.354
-60.718
-165.378
-73.7019
-63.3484
-65.054
-55.0086
-139.474
-124.904
-143.169
-63.5196
-55.7765
-19.9288
-10.5501
-11.6623
-67.4118
-152.78
-127.858
-58.8877
-147.306
-71.2889
-57.1604
-6101.83
-4837.85
-2342.07
-3134.14
-74.0059
-77.3549
-72.6044
-20.0887
-40.4148
-39.08
-78.4012
-75.718
-73.5752
-20.159
-40.873
-40.4502
-77.296
-79.9127
-75.106
-76.2981
-79.9631
-75.0286
-179.276
-176.497
-150.624
-149.512
-179.262
-150.499
-176.511
-179.484
-150.656
-176.949
-149.496
-179.917
-150.357
-176.697
-56.471
-51.341
-126.5
-113.061
-125.769
-57.3165
-51.1239
-22.5748
-19.5745
-20.268
-56.3839
-125.392
-112.785
-51.0103
-125.675
-56.658
-50.9786
-56.5036
-51.2363
-125.73
-112.7
-57.1286
-125.416
-50.9854
-22.3081
-19.4859
-19.9133
-56.0892
-125.534
-112.561
-50.9503
-125.129
-56.8314
-50.9064
-79.9553
-83.7524
-78.1221
-20.701
-43.7215
-43.2523
-83.6689
-79.5967
-78.2698
-77.876
-81.3282
-76.3407
-20.4336
-43.5576
-42.2238
-82.3985
-79.243
-77.1441
-1.26635e+06
-1.3848e+06
-1.28369e+06
-1.09747e+06
-1.06626e+06
-1.21331e+06
-1.05225e+06
-1.1975e+06
-1.40273e+06
-1.31769e+06
-1.30084e+06
-1.79817e+06
-1.8137e+06
-1.74295e+06
-1.58589e+06
-1.7271e+06
-1.69433e+06
-1.56898e+06
-1.71101e+06
-1.13979e+06
-1.07978e+06
-1.22874e+06
-1.09242e+06
-1.24346e+06
-1.37941e+06
-1.47078e+06
-1.36552e+06
-1.33422e+06
-1.4544e+06
-1.35017e+06
-54.8386
-58.0142
-51.9595
-80.5958
-90.3429
-53.2493
-59.4786
-72.0079
-57.1968
-493.564
-161.806
-312.653
-634.379
-152.481
-313.779
-105.5
-98.7242
-172.3
-8523.31
-5241.84
-4719.16
-12004
-4567.42
-12038.5
-9522.91
-12338.2
-38895.3
-33735.5
-17380
-25208.1
-11222.8
-16019.3
-375686
-307790
-381129
-297405
-372615
-261767
-354787
-297489
-898786
-1.07916e+06
-1.03708e+06
-978809
-906283
-984353
-961169
-455567
-47349
-304436
-607362
-47400.3
-136577
-80208
-427760
-45084.7
-167420
-908689
-1.09029e+06
-1.02325e+06
-986716
-920350
-1.02017e+06
-979539
-15347.3
-4736.89
-4509.05
-13439.2
-4278.73
-14176.5
-13142.5
-14348.2
-46807.7
-11916.3
-10532.4
-53390.1
-16940.4
-51234.5
-10209.7
-62778.6
-11727.4
-855847
-1.00078e+06
-969722
-920822
-956873
-867420
-908513
-380753
-302153
-377772
-309720
-373420
-305912
-374437
-300525
-888477
-1.03915e+06
-981999
-932389
-993369
-878357
-942915
-1.91186e+06
-1.88495e+06
-1.75892e+06
-1.63436e+06
-1.77622e+06
-1.82194e+06
-1.65329e+06
-1.79568e+06
-1.11654e+06
-1.53804e+06
-948538
-1.34973e+06
-833874
-1.20469e+06
-1.1628e+06
-1.34361e+06
-1.09125e+06
-1.33499e+06
-428935
-56508.5
-266699
-1.61926e+06
-1.47976e+06
-1.47503e+06
-37972.6
-42206.2
-91741.7
-1.39242e+06
-1.51311e+06
-1.40653e+06
-1.19414e+06
-1.12568e+06
-1.32269e+06
-1.12973e+06
-1.30998e+06
-1.54035e+06
-1.45018e+06
-1.43043e+06
-1314.12
-1191.77
-2959.22
-14277.1
-28768
-11350.7
-3138.58
-15688.6
-6828.23
-1.03123e+06
-1.05587e+06
-1.03594e+06
-927103
-1.01258e+06
-966198
-906149
-989325
-618265
-612013
-687593
-598444
-671805
-782992
-744911
-727577
-815133
-859102
-797453
-661282
-625646
-703467
-639338
-719420
-839929
-762338
-779854
-615213
-709992
-672197
-634081
-604289
-684728
-645990
-275764
-239550
-276219
-236635
-282370
-240470
-281733
-243687
-582523
-670034
-659701
-622214
-593393
-647237
-610391
-1.20614e+06
-1.18084e+06
-1.05942e+06
-990544
-1.083e+06
-1.13044e+06
-1.01187e+06
-1.10667e+06
-958928
-1.01524e+06
-940771
-778740
-736599
-832996
-750669
-849451
-995505
-904586
-922654
-832889
-917129
-850717
-734283
-722569
-816593
-708577
-800241
-936626
-886570
-868612
-496800
-565877
-561158
-529025
-549048
-507385
-517621
-270005
-232699
-269732
-235317
-263596
-230951
-263682
-228635
-528673
-604481
-573321
-540489
-585529
-518011
-552008
-73.2769
-75.4187
-70.8282
-20.4316
-36.6981
-36.2396
-75.3243
-71.7957
-70.5222
-35.9375
-70.9442
-182.022
-181.682
-182.67
-181.703
-211.034
-205.943
-195.792
-198.807
-191.568
-189.298
-164.19
-158.048
-195.138
-160.971
-186.77
-189.093
-156.56
-183.083
-156.17
-186.903
-158.727
-184.711
-57.2126
-51.5006
-126.791
-114.101
-127.278
-57.3576
-51.4782
-22.1689
-18.8028
-19.661
-57.2191
-129.3
-114.654
-51.9891
-127.846
-58.4793
-51.6773
-60.4343
-54.2381
-136.942
-119.054
-62.4839
-134.103
-53.4037
-21.6446
-18.4261
-18.2774
-59.1698
-130.232
-117.476
-52.3436
-132.056
-58.7309
-52.6939
-59.0596
-74.1777
-62.3395
-27.2075
-33.2155
-30.8999
-76.6039
-70.5191
-66.0798
-22.3922
-35.094
-35.5072
-76.3985
-80.302
-73.3442
-71.8053
-79.5529
-71.9292
-80.104
-83.938
-78.4783
-20.8525
-44.1803
-43.2513
-84.8925
-80.4097
-78.8286
-20.9066
-43.7561
-42.7789
-77.807
-84.8055
-77.4294
-80.4842
-85.6692
-78.6623
-12751.8
-10917.3
-69527.3
-48958.7
-267786
-259993
-219170
-256765
-267125
-271944
-269991
-267454
-474884
-478386
-482100
-479493
-472216
-467815
-459216
-462297
-238445
-240503
-237326
-235303
-243850
-241803
-245478
-247460
-382741
-380040
-368922
-371474
-391472
-394342
-406252
-403227
-1.31438e+06
-1.41678e+06
-1.33286e+06
-1.18858e+06
-1.28791e+06
-1.22397e+06
-1.27014e+06
-1.20671e+06
-1.4356e+06
-1.36961e+06
-1.35126e+06
-1.77299e+06
-1.78901e+06
-1.72172e+06
-1.59797e+06
-1.7045e+06
-1.67001e+06
-1.57903e+06
-1.68743e+06
-1.23947e+06
-1.30568e+06
-1.24102e+06
-1.32343e+06
-1.2578e+06
-1.44407e+06
-1.51067e+06
-1.42509e+06
-1.38798e+06
-1.49163e+06
-1.40642e+06
-660848
-564567
-566747
-659025
-661046
-566137
-660554
-566304
-1.12589e+06
-1.18021e+06
-1.0756e+06
-1.23522e+06
-1.05379e+06
-1.1334e+06
-1.23073e+06
-1.13742e+06
-1.18553e+06
-1.08154e+06
-1.242e+06
-1.07476e+06
-1.14099e+06
-1.23569e+06
-1.03859e+06
-1.07097e+06
-987591
-1.14203e+06
-973339
-1.12559e+06
-1.05404e+06
-646836
-560099
-555239
-653177
-638566
-542145
-630334
-548495
-1.08397e+06
-1.11777e+06
-1.00186e+06
-1.15821e+06
-1.01608e+06
-1.17406e+06
-1.06919e+06
-1.90438e+06
-1.87137e+06
-1.73941e+06
-1.66259e+06
-1.75927e+06
-1.81382e+06
-1.68913e+06
-1.78144e+06
-1.42963e+06
-1.65853e+06
-1.49395e+06
-1.32052e+06
-1.43e+06
-1.33263e+06
-1.43745e+06
-1.33585e+06
-1.69659e+06
-1.53731e+06
-1.56813e+06
-1.46346e+06
-1.57308e+06
-1.48359e+06
-1.31587e+06
-1.42705e+06
-1.33784e+06
-1.40956e+06
-1.32752e+06
-1.59644e+06
-1.52606e+06
-1.50322e+06
-1.24883e+06
-1.32938e+06
-1.23116e+06
-1.0212e+06
-965304
-1.0991e+06
-979839
-1.11569e+06
-1.31045e+06
-1.19548e+06
-1.21338e+06
-1.61112e+06
-1.58687e+06
-1.44203e+06
-1.33549e+06
-1.46551e+06
-1.51171e+06
-1.35665e+06
-1.48875e+06
-975208
-950795
-1.08247e+06
-936318
-1.06581e+06
-1.12313e+06
-1.23307e+06
-1.14131e+06
-1.1775e+06
-1.25261e+06
-1.15943e+06
-318978
-262980
-267576
-317748
-311444
-263491
-312675
-259034
-670322
-777484
-760609
-718394
-681447
-747879
-706210
-703825
-818492
-773373
-730630
-692614
-786172
-742919
-796026
-930106
-877158
-830948
-890403
-784194
-843855
-324378
-271878
-267204
-325540
-332504
-271834
-331484
-276514
-760819
-887814
-863977
-818122
-850866
-772458
-805387
-1.43607e+06
-1.46158e+06
-1.41836e+06
-1.2712e+06
-1.39454e+06
-1.3466e+06
-1.24959e+06
-1.37061e+06
-977122
-1.07467e+06
-995345
-853676
-835774
-948968
-821514
-932306
-1.09453e+06
-1.03186e+06
-1.01359e+06
-1.10491e+06
-1.17393e+06
-1.08666e+06
-899046
-850058
-965644
-864369
-982336
-1.15411e+06
-1.05013e+06
-1.0684e+06
-1.2958e+06
-1.35916e+06
-1.27709e+06
-1.103e+06
-1.16252e+06
-1.10121e+06
-1.18061e+06
-1.11891e+06
-1.33953e+06
-1.23933e+06
-1.25827e+06
-1.58762e+06
-1.56383e+06
-1.41871e+06
-1.34024e+06
-1.44178e+06
-1.48723e+06
-1.3616e+06
-1.46464e+06
-1.05145e+06
-1.14438e+06
-1.08349e+06
-1.12619e+06
-1.06576e+06
-1.16266e+06
-1.2593e+06
-1.18194e+06
-1.22029e+06
-1.27957e+06
-1.20116e+06
-508423
-442565
-437194
-514952
-497825
-423277
-491519
-428320
-791148
-823164
-762694
-876100
-749137
-806279
-859693
-836701
-869055
-776323
-892554
-790025
-821464
-909054
-960342
-992754
-887847
-1.02547e+06
-902066
-1.04219e+06
-944726
-532485
-451502
-457244
-525716
-543377
-472356
-550384
-466217
-913626
-946162
-873683
-1.00876e+06
-859577
-992077
-929153
-1.41598e+06
-1.44098e+06
-1.39547e+06
-1.27534e+06
-1.37211e+06
-1.32512e+06
-1.25353e+06
-1.34865e+06
-1.00763e+06
-1.09484e+06
-1.02698e+06
-914056
-998216
-941812
-979949
-924214
-1.11546e+06
-1.06575e+06
-1.04636e+06
-1.14333e+06
-1.19791e+06
-1.12396e+06
-965463
-1.01651e+06
-959449
-1.03481e+06
-977121
-1.17733e+06
-1.08516e+06
-1.10457e+06
-218548
-217339
-220428
-221814
-214157
-215195
-211725
-210868
-308095
-310060
-319651
-317620
-300708
-298784
-289682
-291576
-1.01886e+06
-1.04306e+06
-1.02082e+06
-927950
-997921
-952473
-906801
-975138
-648483
-712808
-668535
-695715
-652279
-792868
-762037
-743833
-836034
-871411
-817372
-696692
-730017
-684915
-747336
-701416
-851600
-780367
-798814
-716386
-747567
-669337
-762469
-682458
-701635
-778506
-402316
-346568
-350350
-396995
-411982
-362569
-417441
-358633
-672362
-702976
-656286
-746512
-643303
-686958
-730636
-1.19054e+06
-1.16572e+06
-1.04382e+06
-991991
-1.06692e+06
-1.11338e+06
-1.01351e+06
-1.09011e+06
-988318
-1.03316e+06
-969051
-829154
-871171
-819751
-889170
-837000
-1.01268e+06
-930685
-949838
-854794
-931453
-873646
-778902
-853239
-802578
-835379
-785486
-951648
-911597
-892582
-562463
-589259
-554473
-622814
-542096
-608168
-575642
-382300
-338412
-334764
-387488
-372975
-323228
-367916
-326751
-602308
-630902
-566931
-637695
-579471
-652810
-588924
-199.557
-190.937
-185.342
-208.742
-200.261
-208.25
-190.426
-420.253
-321.255
-402.318
-443.81
-375.923
-524.675
-360.613
-201.606
-187.092
-191.589
-209.443
-200.708
-209.871
-192.242
-309.689
-282.404
-292.469
-388.371
-336.691
-346.176
-270.404
-199.377
-184.918
-209.004
-190.228
-208.342
-199.951
-189.774
-201.613
-186.959
-209.841
-190.853
-200.622
-210.68
-191.633
-197.897
-183.655
-206.614
-188.489
-206.563
-197.718
-188.618
-1800
-1052.3
-3037.8
-2150.63
-1873.11
-2605.06
-1280.61
-231.742
-210.152
-234.631
-208.21
-243.127
-224.337
-213.418
-197.831
-183.568
-206.64
-188.467
-197.8
-206.641
-188.501
-5639.7
-4879.74
-4226
-3607.16
-3423.72
-6042.69
-6540.68
-213.85
-196.267
-227.982
-204.017
-218.446
-223.116
-200.781
-199.519
-185.073
-207.954
-190.011
-207.877
-199.369
-190.116
-492.612
-474.784
-825.159
-505.759
-606.474
-617.397
-417.153
-202.516
-188.062
-211.856
-194.246
-210.949
-203.777
-193.277
-285.783
-258.88
-289.128
-239.574
-313.574
-268.054
-253.092
-199.227
-184.739
-207.938
-189.532
-207.946
-199.131
-189.565
-194576
-83812.8
-146963
-61226.1
-212848
-102984
-106401
-502102
-574449
-557205
-608563
-521132
-469772
-576330
-466968
-539018
-616477
-546739
-543901
-462391
-554480
-475057
-569599
-625142
-558824
-554489
-562138
-479392
-365967
-417592
-430707
-462088
-369390
-413668
-424462
-359793
-412033
-454650
-401104
-405033
-418241
-356342
-308163
-356482
-374765
-343762
-339680
-350348
-311921
-203.356
-188.241
-214.521
-194.693
-212.39
-205.62
-192.997
-686182
-530152
-707734
-769446
-600817
-774500
-679733
-730888
-836339
-652389
-735066
-625097
-753872
-821961
-692503
-605464
-694599
-755865
-613524
-681580
-767472
-703684
-790565
-704328
-630167
-622886
-779176
-714292
-379039
-426365
-436967
-484624
-375635
-430299
-443256
-385389
-455935
-443196
-492230
-439222
-388803
-449571
-449903
-528341
-539028
-589990
-454342
-523415
-531412
-442126
-516582
-581206
-508191
-512950
-523927
-437945
-525124
-470297
-537196
-574727
-477404
-515644
-585241
-534610
-606748
-493238
-546377
-486008
-544327
-596064
-659360
-595736
-743942
-663895
-670311
-587480
-732192
-648216
-708540
-653639
-569581
-577749
-720227
-637381
-497107
-461829
-509869
-564074
-454823
-506376
-553716
-488030
-533015
-500931
-439563
-446473
-543218
-478952
-393146
-443639
-405780
-372668
-366171
-434228
-401337
-198.41
-184.106
-207.565
-189.636
-199.067
-206.982
-189.087
-1314.66
-840.515
-951.31
-648.474
-840.486
-1682.47
-920.546
-241.329
-217.876
-269.691
-228.877
-253.125
-254.729
-220.248
-198.3
-183.87
-207.587
-189.275
-198.882
-206.98
-188.821
-11150.5
-12437.7
-54287.8
-27914.3
-11947.2
-14532.2
-14028.3
-498343
-584215
-591986
-656162
-593970
-498687
-581797
-491641
-587809
-572936
-652536
-488127
-583882
-581901
-805825
-674042
-726856
-859432
-722823
-783094
-841656
-798402
-856999
-692135
-757453
-694027
-797400
-862924
-792285
-700369
-758066
-872382
-680542
-813254
-868115
-744516
-789536
-708336
-637917
-647113
-801133
-733901
-754986
-665042
-718390
-823486
-656181
-765204
-812511
-496045
-579744
-591949
-652879
-497247
-587821
-579590
-490339
-576546
-568673
-647678
-486901
-582954
-571576
-790654
-855673
-691912
-751186
-796517
-686828
-850233
-783639
-673288
-833703
-744946
-774769
-680950
-842919
-556138
-601307
-495898
-525676
-488121
-565504
-590832
-546795
-472636
-516737
-570001
-480372
-537479
-580395
-340673
-376278
-387288
-425210
-393457
-337115
-380255
-346732
-405831
-392593
-432525
-350235
-399643
-388645
-509679
-528832
-441881
-481353
-449546
-500460
-539061
-518923
-464923
-559647
-490149
-528190
-457226
-549335
-445687
-403788
-420817
-478339
-396224
-454743
-468385
-327491
-368007
-381115
-403425
-331118
-374956
-363999
-321525
-362645
-351799
-396220
-317841
-368786
-355844
-482098
-518644
-434232
-455189
-491267
-426599
-508500
-472951
-411377
-488346
-446537
-463833
-418978
-498399
-210.528
-193.905
-216.951
-196.489
-207.897
-219.373
-198.318
-762371
-660389
-758881
-839146
-661706
-844831
-758373
-762925
-846049
-662297
-761524
-763383
-665618
-845576
-974782
-794949
-804913
-870734
-875539
-907355
-969243
-1.02221e+06
-933984
-829752
-962582
-921727
-947825
-1.0329e+06
-1.03602e+06
-954855
-862173
-933399
-964261
-940182
-1.0278e+06
-1.03931e+06
-942731
-866288
-973281
-970058
-942044
-1.04109e+06
-937045
-856991
-782505
-837905
-851334
-869758
-922449
-951568
-877908
-793689
-894135
-864732
-882186
-965935
-744012
-654293
-737255
-832079
-650889
-751901
-822944
-734662
-801952
-638538
-729791
-724976
-644091
-812800
-1.00631e+06
-944455
-835406
-925079
-932526
-1.01812e+06
-914614
-993594
-890785
-907031
-824912
-920064
-979985
-903147
-405372
-469803
-481929
-523246
-475316
-408930
-465640
-398735
-462335
-452294
-515378
-395275
-468800
-456340
-584330
-611829
-503698
-552729
-511532
-574899
-622394
-593796
-527305
-561845
-643677
-519394
-603300
-633012
-632117
-686974
-559495
-598898
-551341
-641848
-676046
-622452
-535256
-589525
-654402
-543271
-612848
-665187
-712720
-777854
-628745
-677508
-619641
-723286
-766183
-702252
-601809
-667275
-743043
-610664
-691901
-754564
-419481
-479349
-488617
-547377
-415772
-495422
-483673
-426595
-509391
-498039
-555660
-430515
-502334
-493506
-661558
-697992
-567730
-627530
-651655
-576073
-709097
-671560
-593102
-731619
-637297
-681673
-584520
-720309
-574107
-525834
-584018
-650879
-518289
-639806
-584320
-564048
-617742
-501988
-574530
-554082
-509362
-628613
-708978
-656560
-602676
-633737
-645605
-668519
-695241
-722786
-669641
-613300
-692635
-657593
-680542
-736649
-778612
-741755
-656576
-719167
-729353
-706567
-792715
-764563
-681827
-645649
-704796
-717036
-694104
-750581
-893244
-844058
-824410
-747616
-810996
-907828
-831060
-878693
-784301
-735936
-805135
-797585
-818073
-864207
-605136
-534957
-613254
-662280
-542707
-594693
-673573
-615798
-696711
-560021
-623146
-626454
-552050
-685199
-821118
-754244
-689981
-731972
-766827
-806891
-744877
-835418
-771050
-792276
-701302
-779503
-849774
-757937
-668791
-644667
-571148
-621923
-610218
-632834
-681776
-655882
-587014
-560773
-609353
-598562
-621064
-643054
-452379
-409632
-465568
-492537
-416373
-502436
-443661
-461141
-522676
-431328
-474291
-470036
-424500
-512623
-605033
-563132
-519815
-541551
-574593
-552784
-592523
-617628
-575517
-597705
-529960
-586117
-630298
-564125
-519292
-486573
-450468
-506840
-475857
-495797
-531264
-426499
-401614
-439585
-482511
-394951
-435041
-472769
-418029
-453327
-380462
-431079
-409659
-387041
-462908
-567752
-551736
-489711
-530374
-540407
-580090
-519305
-555497
-497402
-517957
-479809
-529147
-543336
-508298
)
;

boundaryField
{
    left
    {
        type            calculated;
        value           nonuniform List<scalar> 
670
(
-181.844
-368.915
-211.512
-369.98
-210.594
-519.19
-182.295
-318.162
-181.232
-230456
-212.806
-211.171
-181.717
-445360
-179.447
-22.9368
-25.5761
-1257.68
-3391.54
-78.0607
-235.314