/*--------------------------------*- C++ -*----------------------------------*\
| =========                 |                                                 |
| \\      /  F ield         | OpenFOAM: The Open Source CFD Toolbox           |
|  \\    /   O peration     | Version:  2012                                  |
|   \\  /    A nd           | Website:  www.openfoam.com                      |
|    \\/     M anipulation  |                                                 |
\*---------------------------------------------------------------------------*/
FoamFile
{
    version     2.0;
    format      ascii;
    class       volScalarField;
    location    "0.105/solid";
    object      sigmaMin;
}
// * * * * * * * * * * * * * * * * * * * * * * * * * * * * * * * * * * * * * //

dimensions      [1 -1 -2 0 0 0 0];


internalField   nonuniform List<scalar> 
3125
(
-331.116
-418.885
-357.805
-332.198
-356.044
-445.79
-405.992
-511.306
-330.018
-318367
-318004
-253522
-356.026
-358.357
-331.028
-559468
-495044
-260057
-309447
-376434
-479175
-362774
-8.61159
-327.175
-5.50466
-58.4827
-1337.58
-2664.77
-9.18871
-353.025
-381.236
-350.665
-44.0013
-10.1662
-11.5909
-7.71903
-327.118
-4.07487
-5.20825
-5.79157
-7.36822
-1.02903e+06
-1.1406e+06
-66.7956
-1966.06
-2193.57
-353014
-1.05716e+06
-1.06511e+06
-3506.27
-947007
-345562
-1.05018e+06
-1.18453e+06
-1.15863e+06
-3073.19
-665946
-716531
-233809
-624399
-780499
-680125
-227177
-611401
-12.4065
-353.007
-372.685
-346.828
-4.2459
-8.33172
-51.0349
-13.3497
-6.10447
-10.7519
-1.15132e+06
-1.2688e+06
-546775
-1.22819e+06
-1.15282e+06
-1.03106e+06
-538981
-1.13912e+06
-1.38605e+06
-1.28433e+06
-1.01402e+06
-911205
-279930
-729828
-823560
-932918
-286804
-837046
-794965
-896638
-1.13426e+06
-1.01437e+06
-418706
-786300
-892342
-1.01548e+06
-433320
-907617
-877647
-997221
-727354
-771304
-322938
-667842
-860702
-743765
-310041
-653319
-249.856
-329.45
-247.183
-323.377
-529.861
-571.245
-360.096
-336.375
-250.847
-254.435
-354.651
-413.64
-373.848
-309.34
-282.186
-328.741
-246.181
-244.875
-1.41056e+06
-1.46586e+06
-61113.5
-363059
-488138
-659312
-70623.8
-576189
-327109
-603430
-2.00338e+06
-1.71926e+06
-832363
-440612
-246972
-418172
-1.07266e+06
-1.01181e+06
-213788
-351780
-354.512
-361.783
-336.333
-246.954
-250.488
-1.52996e+06
-1.58766e+06
-533650
-793355
-759971
-670455
-510851
-702419
-1.90756e+06
-1.7863e+06
-1.39182e+06
-1.33435e+06
-266615
-448217
-470941
-567346
-301453
-541961
-1.09299e+06
-1.15405e+06
-1.50978e+06
-1.44673e+06
-390294
-510713
-539259
-659734
-463545
-628530
-1.17629e+06
-1.24485e+06
-885593
-501180
-349308
-473184
-1.15348e+06
-1.08534e+06
-284854
-391541
-182.667
-7.05397
-179.686
-328.852
-245.155
-246.542
-6.68537
-177.846
-179.083
-248.208
-236.107
-520
-602.519
-3639.27
-761.11
-367.938
-3964.58
-695.622
-255.801
-183.564
-11.322
-186.768
-12.0443
-187.992
-353.643
-393.907
-367.21
-263.231
-276.508
-234.196
-21.1764
-208.511
-192.223
-17.5464
-203.726
49.8802
-9.72721
50.8072
-9.23997
52.0156
51.3344
-328.271
-244.919
-244.669
-177.964
-4.33801
-176.808
-177.542
-4.43702
-176.71
54.1468
-6.27701
53.8394
52.7087
-6.35111
53.2896
-1.31104e+06
-1.07521e+06
-1.36481e+06
-1.54326e+06
-1.48432e+06
-1.09119e+06
-1.44198e+06
-1.38314e+06
39.2628
-184.772
24.23
-288.352
-135.991
18.9057
-23678.9
-4496.01
-39174
-355223
-647144
-669456
-700223
-1.11605e+06
-43721.1
-758638
-44649.8
-750649
-1.10009e+06
-778053
-4125.46
-48981.1
-48815.4
-668015
-990336
-699615
-336525
-640293
-612627
-1.00516e+06
-742536
-710281
-1.56624e+06
-1.65929e+06
-1.71961e+06
-1.23194e+06
-51959.3
-1.59693e+06
-31532.7
-1.46497e+06
-1.19735e+06
-1.54395e+06
-349.786
-44754.8
-4071
-911393
-851992
-609774
-773703
-846794
-623730
-791858
-508227
-676824
-481461
-240407
-388462
-410651
-663657
-446109
-472564
-931347
-991609
-995924
-737268
-939654
-865248
-722924
-920974
-559940
-402567
-220499
-381027
-359117
-572721
-437320
-411225
49.3382
-15.0135
48.2311
-16.0017
47.7201
-353.509
-366.479
-338.668
-259.92
-252.302
-178.55
-4.85087
-181.047
-189.418
-5.33816
-182.49
43.5044
-26.095
50.969
-21.5244
53.2843
50.1537
54.6388
-6.67813
54.527
-7.42488
53.7898
55.4061
-1.42687e+06
-1.20234e+06
-1.48382e+06
-1.66114e+06
-1.60605e+06
-1.21925e+06
-1.55898e+06
-1.50243e+06
-551789
-749149
-762214
-909671
-1.18601e+06
-863730
-849723
-1.18677e+06
-864767
-760176
-1.07802e+06
-796235
-525836
-741849
-712932
-1.09364e+06
-841091
-808093
-1.68083e+06
-1.75933e+06
-1.75905e+06
-1.32501e+06
-1.66734e+06
-1.57906e+06
-1.32455e+06
-1.64921e+06
-1.29313e+06
-969660
-1.23884e+06
-1.2552e+06
-1.31479e+06
-955003
-1.165e+06
-1.22053e+06
-273218
-501815
-478658
-517224
-769862
-544301
-580918
-783254
-553412
-657793
-891392
-628129
-293945
-509726
-533686
-877726
-590215
-618485
-1.2351e+06
-1.17438e+06
-1.01474e+06
-838463
-1.07123e+06
-1.14634e+06
-852990
-1.09005e+06
-1.40735e+06
-1.08295e+06
-1.34721e+06
-1.35844e+06
-1.42502e+06
-1.06582e+06
-1.26422e+06
-1.32671e+06
-404380
-578169
-548989
-578563
-831539
-611334
-655780
-846691
-622394
-748179
-969024
-712887
-448254
-588150
-618198
-953625
-667073
-701271
-1.3359e+06
-1.26769e+06
-1.09458e+06
-928729
-1.15832e+06
-1.24316e+06
-945822
-1.17958e+06
-973305
-907335
-662618
-824721
-906117
-678657
-844897
-567698
-726611
-535494
-336027
-436407
-463840
-711825
-493229
-524824
-995522
-1.06276e+06
-1.07339e+06
-810190
-1.01011e+06
-926737
-793476
-989145
-596013
-441678
-297346
-427264
-400456
-610214
-482777
-451879
-1.67866e+06
-1.69853e+06
-2.37706e+06
-2.11614e+06
-1.27674e+06
-1.2521e+06
-1.72669e+06
-1.74691e+06
-2.43703e+06
-2.16646e+06
-1.65797e+06
-1.63656e+06
-1.30142e+06
-1.32612e+06
-1.70554e+06
-1.68354e+06
-1.33542e+06
-1.36113e+06
-1.30973e+06
-1.28409e+06
11.7126
-8.08679
12.7421
-5.83201
13.9725
14.381
-48.0593
-86.7333
-92.0267
-1118.13
-3439.4
-1247.24
11.4705
-9.87864
11.6792
-28.0447
-33.9716
-11.7989
11.0705
-11.8662
10.426
26.1702
-11.3597
25.8166
-8.50039
28.5608
27.606
14.8651
-4.07609
15.5315
14.1526
-4.85658
15.0353
30.2085
-6.23805
29.4149
28.8355
-7.22495
28.4928
-1.11147e+06
-1.04419e+06
-960475
-974646
-1.12752e+06
-1.79936e+06
-1.78408e+06
-1.0675e+06
-1.12418e+06
-1.23088e+06
-1.05125e+06
-1.21277e+06
-6.08514
-86.4085
-21.0457
-884.884
-1169.71
-527.734
-1.01553e+06
-961596
-1.0706e+06
-926126
-1.11587e+06
-993264
-731476
-896636
-991604
-963223
-1.07836e+06
-881845
-1.00517e+06
-976446
-3314.73
-10623.2
-13086.7
-792274
-856856
-961261
-877539
-890644
-869949
-780475
-855708
-976221
-1.03526e+06
-951093
-961239
-869644
-937366
-1.81472e+06
-1.8329e+06
-1.31323e+06
-1.20479e+06
-1.03945e+06
-1.31415e+06
-1.39208e+06
-1.01075e+06
-1.0854e+06
-1.25118e+06
-1.17307e+06
-1.09996e+06
-1.26871e+06
-2115.28
-8416.55
-5420.54
-1.08127e+06
-1.05721e+06
-628801
-719711
-651820
-615844
-704370
-588407
-648546
-671116
-703264
-659234
-598773
-636661
-536781
-588323
-637441
-566038
-600084
-526505
-577715
-1.10543e+06
-1.12969e+06
-844050
-733478
-766061
-720317
-828388
-641796
-735105
-694346
-654812
-750548
-506011
-576582
-598455
-554401
-564874
-516248
-542809
25.6442
-13.6306
24.536
14.7848
-4.19239
15.3561
11.9591
-7.05033
13.4051
5.12047
-41.0697
11.5269
-15.4218
26.6866
25.2714
30.0824
-6.21419
29.6777
-9.77347
28.0673
28.1283
-1.25041e+06
-1.16836e+06
-1.18022e+06
-1.2684e+06
-1.19784e+06
-1.84541e+06
-1.8312e+06
-1.29877e+06
-1.25261e+06
-1.37456e+06
-1.35715e+06
-1.28295e+06
-1.09615e+06
-1.11406e+06
-1.1877e+06
-1.27584e+06
-1.07846e+06
-1.19953e+06
-1.16989e+06
-1.13955e+06
-1.224e+06
-1.04992e+06
-1.16572e+06
-1.06117e+06
-1.12987e+06
-1.236e+06
-1.03042e+06
-938985
-1.04669e+06
-1.09914e+06
-953462
-1.11592e+06
-1.01463e+06
-1.10571e+06
-1.2113e+06
-1.12434e+06
-1.03824e+06
-1.02488e+06
-1.19665e+06
-1.11888e+06
-1.85935e+06
-1.87567e+06
-1.49237e+06
-1.31795e+06
-1.33418e+06
-1.42725e+06
-1.29142e+06
-1.31304e+06
-1.39176e+06
-1.29902e+06
-1.40862e+06
-1.32704e+06
-1.09556e+06
-946536
-999144
-932793
-1.07975e+06
-1.49774e+06
-1.52174e+06
-852388
-925785
-985500
-865660
-1.0012e+06
-619539
-660461
-683015
-743148
-609149
-694922
-672402
-671707
-766636
-744645
-810101
-682210
-754643
-732526
-757638
-843937
-864682
-918967
-768947
-852034
-831172
-703338
-778654
-850564
-756805
-790708
-692748
-769012
-1.47354e+06
-1.44918e+06
-859738
-746658
-809445
-759838
-875437
-839136
-969788
-882081
-825897
-954067
-1.23231e+06
-1.16251e+06
-1.11717e+06
-1.21412e+06
-1.14474e+06
-1.53976e+06
-1.5647e+06
-1.03744e+06
-1.03153e+06
-1.10337e+06
-1.12197e+06
-1.05535e+06
-781055
-715475
-801338
-831772
-729092
-848206
-765890
-857739
-947837
-811688
-877097
-797821
-873229
-931131
-982982
-924573
-1.08233e+06
-999950
-998803
-910234
-1.06548e+06
-904362
-964575
-922922
-825603
-839562
-981343
-888774
-1.51459e+06
-1.48924e+06
-954367
-894635
-894885
-972926
-912569
-1.01953e+06
-1.08474e+06
-980073
-1.0661e+06
-1.00163e+06
-1.10654e+06
-1.08157e+06
-738869
-790036
-711029
-772180
-721972
-735744
-701901
-756355
-815396
-688376
-750782
-799082
-661632
-702752
-682435
-608351
-621538
-718601
-647052
-1.13163e+06
-1.15682e+06
-935852
-843808
-877258
-917387
-859691
-755865
-807987
-760259
-826028
-772959
-618159
-686995
-638871
-595227
-582175
-671332
-632557
-297.929
-298.388
-251.05
-248.763
-299.114
-249.771
-297.476
-297.314
-248.202
-247.823
-296.217
-248.718
-296.82
-296.731
-391.772
-377.011
-319.851
-357.497
-368.515
-348.987
-405.539
-421.377
-617.537
-410.743
-573.047
-395.614
-601.384
-447.161
-325.817
-325.945
-329.984
-326.531
-301.217
-299.46
-251.894
-251.806
-299.93
-252.844
-300.577
-302.537
-255.58
-303.488
-253.071
-304.249
-254.023
-302.056
-325.636
-322.854
-322.78
-322.494
-388.41
-374.933
-360.924
-369.914
-349.268
-364.079
-309.628
-297.529
-360.305
-297.538
-352.406
-342.819
-282.299
-336.547
-289.237
-335.121
-290.215
-344.075
-396.174
-479.995
-955.491
-436.811
-295.59
-295.842
-247.272
-245.513
-296.443
-246.186
-295.227
-295.442
-245.534
-294.627
-245.042
-295.058
-246.031
-294.816
-1.51548e+06
-1.4291e+06
-1.5346e+06
-1.73552e+06
-1.7175e+06
-1.44751e+06
-1.57171e+06
-1.55333e+06
-393543
-195233
-190879
-292189
-295647
-24021
-72547.5
-126568
-89094.2
-390732
-133808
-257095
-190524
-189117
-255927
-262554
-193512
-194359
-264172
-1.93238e+06
-2.04014e+06
-2.05948e+06
-1.88752e+06
-1.93927e+06
-1.81653e+06
-1.75106e+06
-1.89691e+06
-985688
-962085
-893656
-812828
-872556
-216029
-168020
-216413
-169685
-212367
-167487
-165993
-211884
-1.20294e+06
-1.22749e+06
-1.15329e+06
-1.05234e+06
-1.13133e+06
-1.08753e+06
-1.03205e+06
-1.10941e+06
-189412
-153979
-154514
-190541
-325.118
-321.807
-322.282
-321.839
-325.316
-325.879
-330.861
-326.343
-298.156
-296.7
-247.833
-247.672
-297.161
-248.662
-297.713
-299.626
-251.634
-301.25
-248.898
-301.896
-249.51
-299.322
78627.4
-100988
-71665.5
-115428
-114875
-116379
-116246
-459798
-417756
-471123
-444737
-430283
-435708
-449609
-444591
-115839
-114508
-114241
-115653
-113894
-114881
-114637
-113390
-321579
-326326
-339040
-334178
-421350
-415805
-401451
-406960
-1.62799e+06
-1.54966e+06
-1.64806e+06
-1.78408e+06
-1.76606e+06
-1.56889e+06
-1.68595e+06
-1.66738e+06
-587834
-581313
-511537
-673160
-630825
-565512
-532685
-660051
-608406
-512380
-519446
-599453
-619395
-536094
-529504
-627984
-1.95928e+06
-2.04409e+06
-2.11451e+06
-1.83276e+06
-1.98857e+06
-1.88255e+06
-1.85133e+06
-1.95737e+06
-1.49596e+06
-1.37287e+06
-1.47604e+06
-1.59194e+06
-1.61452e+06
-1.35371e+06
-1.43518e+06
-1.45577e+06
-220364
-171781
-220085
-169947
-224085
-171817
-173798
-224286
-250135
-185410
-250915
-187210
-245494
-184377
-182339
-245012
-1.37549e+06
-1.35081e+06
-1.17526e+06
-1.11335e+06
-1.19726e+06
-1.24123e+06
-1.1337e+06
-1.21925e+06
-1.60724e+06
-1.48916e+06
-1.58586e+06
-1.63749e+06
-1.66083e+06
-1.46812e+06
-1.54148e+06
-1.56391e+06
-453920
-382133
-388244
-446094
-464176
-403608
-397352
-472154
-579299
-502286
-495107
-588296
-568187
-478001
-485104
-559304
-1.41252e+06
-1.38683e+06
-1.25432e+06
-1.19913e+06
-1.27867e+06
-1.32739e+06
-1.22199e+06
-1.30304e+06
-114680
-115930
-115898
-114749
-112226
-113035
-113580
-313887
-309230
-297125
-301696
-244499
-240353
-1.0074e+06
-982955
-944146
-863982
-921074
-428290
-373157
-435967
-367182
-418318
-352498
-358339
-410778
-1.23295e+06
-1.2585e+06
-1.23e+06
-1.13071e+06
-1.20572e+06
-1.15732e+06
-1.10799e+06
-1.18149e+06
-327787
-288390
-283179
-334599
-78.0528
-52.6633
-222.31
-181.268
-220.814
-80.8322
-50.794
-7.38399
13.2057
13.5088
-75.7627
-219.318
-180.175
-49.6254
-219.595
-77.5754
-49.5733
-294.742
-293.945
-246.197
-245.397
-246.307
-294.485
-294.246
-295.398
-247.5
-295.564
-245.866
-296.17
-246.815
-294.848
-6.09833
13.3979
14.3086
-74.4829
-48.3737
-217.303
-177.848
-217.2
-76.1648
-47.7765
-74.5053
-218.595
-49.186
-178.24
-76.9822
-217.733
-47.9806
-173.637
-107.694
-287.535
-286.167
-315.208
-130.001
-153.882
-132.458
-295.522
-146.464
-248.465
-597.191
-343.565
-389.029
-365.079
-464.114
-210.948
-2003.29
-2946.79
-4702.57
-1787.63
-2027.92
-3766.69
-1675.63
-1465.55
-823.191
-744.585
-1326.9
-808.949
-1631.2
-1189.25
-748.981
-431.828
-979.035
-1716.82
-3914.22
-5076.97
-1682.49
-1891.86
-4625.44
-1363.31
-1416.87
-778.893
-525.084
-1331.99
-644.881
-1651.42
-1177.65
-80.1333
-53.3109
-223.164
-184.182
-223.794
-81.3882
-53.123
-10.5057
10.2108
11.3128
-80.8959
-226.736
-185.294
-55.5693
-225.036
-83.9556
-53.8842
9.90799
-227.829
-56.4713
-84.725
-321.828
-320.236
-322.773
-320.633
-342.089
-347.608
-359.091
-349.167
-319.667
-315.21
-263.81
-266.914
-268.021
-315.156
-319.465
-324.041
-277.767
-330.243
-271.417
-330.109
-271.815
-324.538
-108.778
-92.0607
-277.457
-222.544
-265.859
-119.927
-79.6558
-25.7201
3.49635
-1.88793
-100.776
-250.86
-214.648
-67.7586
-258.131
-96.936
-72.1961
-86.015
-56.3618
-233.067
-195.188
-236.855
-84.7471
-57.8717
-14.777
6.11559
8.72338
-89.0769
-246.533
-199.15
-64.5821
-240.715
-95.0411
-60.8063
-4904.19
-664.313
-502.132
-2220.6
47.9996
48.6547
47.0054
-10.4771
27.4428
26.4885
49.3979
49.1191
47.6535
-8.79198
27.784
27.5447
50.2435
50.2994
48.7095
49.5138
50.3824
48.6466
-294.236
-293.802
-245.934
-244.557
-294.404
-245.496
-293.731
-294.406
-245.73
-294.325
-244.489
-295.043
-245.146
-293.958
-72.772
-47.4325
-217.806
-177.147
-216.555
-75.4275
-46.272
-3.96484
15.0272
15.7324
-72.4633
-216.202
-176.708
-46.5884
-216.489
-74.008
-45.8775
-73.4706
-48.0458
-216.988
-176.778
-75.8083
-216.269
-46.6416
-4.54101
14.9574
15.4521
-72.0716
-216.511
-176.468
-46.6114
-215.727
-74.5375
-46.0624
52.0601
52.7682
50.7602
-6.00671
29.9187
29.6406
52.7303
51.754
50.8575
50.6393
51.1747
49.5614
-6.87728
29.8149
28.877
51.9529
51.5227
50.0799
-1.21399e+06
-1.32891e+06
-1.23103e+06
-1.05958e+06
-1.00394e+06
-1.16032e+06
-989121
-1.1438e+06
-1.34681e+06
-1.26563e+06
-1.24823e+06
-1.75255e+06
-1.76871e+06
-1.64585e+06
-1.52263e+06
-1.62642e+06
-1.58985e+06
-1.50308e+06
-1.60799e+06
-1.10737e+06
-1.01922e+06
-1.17729e+06
-1.03487e+06
-1.19458e+06
-1.34035e+06
-1.42154e+06
-1.32083e+06
-1.28345e+06
-1.40184e+06
-1.30163e+06
30.0385
32.7538
21.9226
-118.645
-81.0645
-42.6404
30.1104
-1.56245
13.4209
-545.028
-145.468
-292.71
-470.393
-43.335
-198.077
-27.1491
-3.42854
-88.8062
-9430.52
-4386.19
-4677.45
-11086.5
-4986.73
-13972.8
-8447.15
-12490.2
-44955.8
-32718.8
-13297.6
-26790.9
-9793.35
-14306.8
-290253
-204759
-285785
-210695
-295905
-203381
-298817
-207744
-955807
-1.11641e+06
-1.05238e+06
-994597
-910721
-976661
-1.00012e+06
-627983
-12481.4
-379103
-780438
-12332.3
-61262.6
-5751.96
-487839
-22956.5
-31751.8
-903525
-1.09278e+06
-1.02256e+06
-997067
-920575
-1.02128e+06
-984335
-15964.9
-3155.3
-4168.11
-13088.2
-4081.82
-16703.6
-14237.7
-11092.8
-57366.6
-7226.74
-8261.71
-64858.7
-10713
-59912.6
-7361.13
-63960.4
-5104.72
-804352
-975695
-917795
-896666
-904044
-816798
-883204
-278157
-204155
-280766
-202489
-272175
-198470
-269977
-198657
-842664
-1.02016e+06
-931895
-910195
-946391
-829474
-923944
-1.88824e+06
-1.85371e+06
-1.66688e+06
-1.59173e+06
-1.69169e+06
-1.76223e+06
-1.62399e+06
-1.72131e+06
-1.48703e+06
-1.70817e+06
-1.41105e+06
-1.54772e+06
-1.18523e+06
-1.20246e+06
-1.16069e+06
-1.33922e+06
-1.09475e+06
-1.31372e+06
-628859
-57180.7
-373178
-1.58599e+06
-1.46982e+06
-1.45521e+06
-24912.8
-48122.5
-88820.9
-1.36231e+06
-1.48842e+06
-1.38304e+06
-1.19435e+06
-1.12075e+06
-1.30272e+06
-1.12153e+06
-1.29338e+06
-1.51923e+06
-1.42795e+06
-1.41072e+06
-997.707
-803.102
-2395.74
-11625.7
-29269.6
-9689.56
-2503.26
-12534.8
-5762.7
-1.00941e+06
-1.03326e+06
-979025
-891513
-957548
-914858
-871711
-936157
-595881
-577212
-658701
-564424
-643609
-755635
-717809
-701192
-785002
-828409
-768103
-637747
-590048
-673861
-602925
-689085
-810096
-734502
-751268
-578051
-690027
-635515
-612981
-567714
-647365
-624804
-203993
-162720
-203264
-161599
-207632
-163858
-208242
-165171
-547074
-650527
-623685
-601190
-557389
-611868
-589434
-1.17845e+06
-1.15403e+06
-1.00058e+06
-951371
-1.02222e+06
-1.0657e+06
-971460
-1.04392e+06
-922017
-977136
-904757
-751650
-694049
-797143
-707172
-812751
-958376
-870324
-887523
-801961
-883766
-818977
-708612
-680946
-781572
-667860
-766037
-902342
-853163
-836045
-465325
-547222
-529948
-508321
-518382
-475453
-496932
-198779
-159208
-199647
-160137
-195148
-157404
-194166
-156664
-495798
-585560
-541554
-519766
-553196
-485613
-531262
47.4946
47.4222
45.7908
-14.4153
24.4746
24.2141
47.417
46.4367
45.5606
23.8576
45.841
-321.509
-320.292
-322.168
-320.078
-341.83
-335.088
-331.609
-333.867
-308.393
-311.419
-261.182
-256.98
-311.844
-257.676
-308.271
-306.04
-252.913
-303.356
-254.327
-303.635
-255.365
-305.544
-74.0799
-47.7233
-218.167
-178.778
-218.682
-75.3456
-47.0506
-4.4552
14.5889
15.3827
-73.5749
-221.486
-179.621
-48.5303
-219.295
-76.8554
-47.28
-79.3455
-54.5552
-230.576
-186.555
-83.6704
-227.006
-51.8548
-5.64147
14.3268
14.4501
-76.7572
-222.548
-184.07
-49.2853
-224.679
-76.9393
-49.8216
35.6819
46.5487
39.1464
-31.4047
20.6468
17.1575
48.1729
45.5284
42.2965
-19.1005
22.9013
23.5732
49.6881
50.5702
47.5985
46.4918
50.1998
46.585
52.1447
52.8204
51.0168
-6.66139
30.2507
29.5988
53.5558
52.3278
51.2182
-7.8616
29.9319
29.298
50.6615
53.4891
50.3421
52.3795
54.0365
51.171
-534.549
-11336.6
-55614.6
1173.24
-114354
-125816
-109538
-110349
-121323
-117034
-116979
-118605
-478309
-477906
-476649
-480255
-472508
-469925
-458125
-462247
-113621
-115105
-115403
-113932
-114832
-113363
-113248
-114649
-365287
-360186
-347034
-352019
-373625
-378870
-392773
-387381
-1.34327e+06
-1.4461e+06
-1.36199e+06
-1.18537e+06
-1.30413e+06
-1.23271e+06
-1.28632e+06
-1.21535e+06
-1.46508e+06
-1.39897e+06
-1.38056e+06
-1.80089e+06
-1.81659e+06
-1.75527e+06
-1.64243e+06
-1.73802e+06
-1.70381e+06
-1.62422e+06
-1.72111e+06
-1.23603e+06
-1.32189e+06
-1.24983e+06
-1.33954e+06
-1.26667e+06
-1.47253e+06
-1.5398e+06
-1.45402e+06
-1.41732e+06
-1.521e+06
-1.4356e+06
-668787
-570881
-569362
-667552
-669145
-569311
-667167
-573545
-1.1274e+06
-1.21209e+06
-1.07499e+06
-1.23946e+06
-1.09043e+06
-1.13495e+06
-1.23243e+06
-1.14351e+06
-1.17561e+06
-1.07651e+06
-1.24902e+06
-1.06825e+06
-1.14662e+06
-1.24225e+06
-1.04612e+06
-1.06235e+06
-982497
-1.14915e+06
-967973
-1.1326e+06
-1.06167e+06
-655173
-563631
-560191
-660947
-646016
-545829
-638451
-551234
-1.09174e+06
-1.10916e+06
-996893
-1.16543e+06
-1.01117e+06
-1.1814e+06
-1.0769e+06
-1.92473e+06
-1.89392e+06
-1.77313e+06
-1.7029e+06
-1.79401e+06
-1.85194e+06
-1.72696e+06
-1.81711e+06
-1.62185e+06
-1.68044e+06
-1.54699e+06
-1.35169e+06
-1.44339e+06
-1.33797e+06
-1.47375e+06
-1.33535e+06
-1.71403e+06
-1.56042e+06
-1.60008e+06
-1.49139e+06
-1.60043e+06
-1.51061e+06
-1.3113e+06
-1.44048e+06
-1.34669e+06
-1.42349e+06
-1.33577e+06
-1.62267e+06
-1.55065e+06
-1.52908e+06
-1.197e+06
-1.27514e+06
-1.18004e+06
-984368
-905713
-1.04829e+06
-919199
-1.064e+06
-1.25705e+06
-1.14606e+06
-1.16307e+06
-1.5689e+06
-1.54548e+06
-1.35034e+06
-1.2752e+06
-1.37184e+06
-1.4143e+06
-1.29507e+06
-1.39318e+06
-940382
-892306
-1.03259e+06
-878961
-1.0169e+06
-1.07759e+06
-1.1836e+06
-1.09478e+06
-1.12901e+06
-1.20211e+06
-1.11192e+06
-232035
-175546
-177727
-232174
-228193
-175765
-228048
-173662
-629941
-756493
-718771
-696366
-640354
-706838
-684371
-661233
-796666
-730715
-708390
-650786
-742670
-720442
-746520
-905133
-827211
-806028
-839557
-735559
-818541
-236289
-179755
-177541
-236111
-240398
-179763
-240686
-181935
-713991
-864121
-814967
-793611
-802806
-724723
-781278
-1.40012e+06
-1.4247e+06
-1.3287e+06
-1.21492e+06
-1.30694e+06
-1.26319e+06
-1.19468e+06
-1.28509e+06
-939301
-1.03356e+06
-956598
-823943
-786239
-906879
-773028
-891150
-1.0524e+06
-991221
-973907
-1.06037e+06
-1.12762e+06
-1.04311e+06
-867532
-799450
-922607
-812669
-938339
-1.10885e+06
-1.00853e+06
-1.02583e+06
-1.32436e+06
-1.38756e+06
-1.30528e+06
-1.10007e+06
-1.17747e+06
-1.10905e+06
-1.19583e+06
-1.12691e+06
-1.3675e+06
-1.26663e+06
-1.28603e+06
-1.61363e+06
-1.58934e+06
-1.44819e+06
-1.38083e+06
-1.47192e+06
-1.51863e+06
-1.40304e+06
-1.49542e+06
-1.04868e+06
-1.15903e+06
-1.09117e+06
-1.14052e+06
-1.07327e+06
-1.18778e+06
-1.28519e+06
-1.20764e+06
-1.24708e+06
-1.30602e+06
-1.22741e+06
-501243
-435227
-428644
-509556
-490700
-412850
-482561
-419263
-796282
-816421
-756461
-881240
-742758
-811566
-864699
-842296
-861879
-770205
-897827
-783992
-826904
-914459
-967181
-984465
-881771
-1.03178e+06
-895965
-1.04863e+06
-951412
-528761
-444756
-451522
-520261
-539605
-468152
-548303
-461205
-919999
-938257
-867643
-1.01495e+06
-853576
-998137
-935684
-1.43818e+06
-1.46376e+06
-1.42426e+06
-1.31324e+06
-1.40018e+06
-1.35172e+06
-1.2905e+06
-1.37599e+06
-1.02786e+06
-1.11581e+06
-1.04783e+06
-911665
-1.01014e+06
-948084
-991521
-930305
-1.13706e+06
-1.08784e+06
-1.06783e+06
-1.16786e+06
-1.22201e+06
-1.14789e+06
-962939
-1.02879e+06
-965903
-1.04744e+06
-983754
-1.20081e+06
-1.10787e+06
-1.12789e+06
-115427
-114511
-114696
-115737
-114176
-114979
-114364
-113686
-273665
-278054
-289755
-285273
-266614
-262302
-251192
-255428
-1.03199e+06
-1.05672e+06
-1.03778e+06
-951197
-1.01418e+06
-967358
-929205
-990707
-646682
-719227
-671926
-701797
-655472
-804670
-774400
-755590
-850790
-885600
-831531
-694795
-736771
-688495
-754424
-705179
-865192
-793331
-812376
-720771
-741456
-661473
-766659
-674898
-705870
-782834
-383891
-323930
-329517
-376636
-393554
-343792
-400950
-338077
-676297
-697098
-648105
-750561
-634792
-691045
-734539
-1.20749e+06
-1.18211e+06
-1.06149e+06
-1.01784e+06
-1.08531e+06
-1.13323e+06
-1.04025e+06
-1.10922e+06
-1.00793e+06
-1.05224e+06
-988048
-826969
-880632
-824763
-898978
-842190
-1.03114e+06
-948455
-968220
-870149
-947453
-889601
-776830
-862355
-807412
-844151
-790142
-968258
-928759
-909139
-561554
-581901
-543459
-624960
-530713
-609719
-575549
-360024
-315518
-310057
-367131
-350703
-296472
-343740
-301806
-603855
-624502
-556286
-640311
-569192
-655770
-589651
-352.437
-323.872
-330.201
-332.113
-353.779
-331.15
-322.98
-463.868
-412.178
-447.617
-386.545
-435.756
-477.056
-440.212
-356.006
-333.097
-324.967
-333.323
-354.538
-333.984
-326.046
-414.388
-391.559
-398.581
-418.842
-428.267
-380.991
-385.034
-351.404
-329.174
-331.038
-322.204
-330.081
-352.215
-321.501
-354.132
-332.05
-332.037
-323.144
-353.07
-332.886
-324.243
-349.494
-327.251
-328.18
-319.668
-328.086
-349.249
-319.89
-1709.97
-1005.82
-3099.63
-2201.75
-827.814
-3032.34
-1350.77
-379.552
-355.07
-351.805
-343.263
-357.997
-374.358
-347.856
-349.284
-327.051
-328.128
-319.593
-349.393
-327.927
-319.59
-5924.4
-5399.8
-1406.22
-3388.06
-3955.57
-7817.39
-5982.04
-366.271
-343.452
-348.848
-339.132
-370.133
-344.526
-335.744
-352.342
-329.564
-330.719
-322.063
-330.508
-352.07
-322.359
-480.932
-471.641
-671.15
-562.257
-383.5
-616.717
-470.995
-357.608
-334.788
-337.617
-329.247
-335.941
-359.776
-327.69
-407.786
-382.853
-371.74
-367.209
-390.246
-398.766
-375.763
-351.317
-328.757
-329.998
-321.02
-329.714
-351.262
-321.121
-248163
-110713
-160917
-72482.5
-193211
-117530
-143433
-561604
-574070
-562250
-629573
-547142
-456584
-661235
-404047
-496633
-585098
-489354
-503908
-398812
-496699
-410705
-512268
-594211
-519445
-511924
-504327
-416462
-314804
-381644
-384658
-433150
-318566
-376328
-378899
-309839
-367315
-425591
-363807
-369043
-373077
-306050
-261632
-314993
-344599
-307117
-302175
-309207
-265605
-356.318
-333.972
-337.72
-328.387
-334.931
-359.1
-326.129
-704626
-692503
-768750
-869369
-666250
-801423
-783823
-732611
-837787
-664707
-772443
-655984
-748172
-831329
-689848
-586085
-681045
-761595
-593584
-678923
-773829
-701098
-798223
-691831
-612260
-605002
-786245
-711697
-327274
-388925
-390484
-455724
-323523
-394324
-396246
-332246
-407863
-407108
-463378
-401600
-335991
-402081
-387848
-488775
-482203
-558775
-392614
-481851
-475355
-382036
-462154
-550237
-467610
-474183
-468624
-377638
-518626
-447201
-520122
-571220
-454175
-508641
-582415
-528876
-605334
-470587
-529756
-463589
-538993
-594007
-656613
-574938
-749039
-649302
-667574
-567442
-736817
-645369
-712232
-638758
-549221
-556618
-724324
-634508
-488665
-437951
-491859
-559767
-430995
-498527
-548702
-478700
-526457
-482416
-414956
-421897
-537384
-468962
-374829
-429953
-382827
-344258
-337454
-419818
-383853
-350.399
-327.949
-330.065
-321.427
-351.511
-328.917
-320.592
-1330.07
-825.394
-423.1
-678.637
-761.027
-1448.85
-1006.38
-385.139
-360.455
-372.137
-360.088
-392.564
-360.85
-353.548
-350.017
-327.489
-329.501
-320.624
-350.96
-328.457
-320.003
-12740.9
-15464.1
-43596.2
-28565.6
-10542.8
-5254.21
-14908.4
-460075
-556048
-552862
-657342
-567041
-449864
-562698
-461009
-598060
-568381
-659119
-480507
-565289
-564539
-923099
-664431
-750742
-873748
-859426
-775874
-856014
-786655
-857488
-659471
-762565
-675695
-770272
-870610
-785628
-710839
-764047
-890398
-672394
-820185
-873834
-692191
-762949
-678384
-583691
-592557
-774735
-681812
-702835
-611187
-688912
-798815
-601693
-713858
-786674
-436969
-549716
-546808
-630786
-444076
-536937
-542599
-429879
-520304
-527475
-622061
-423510
-528977
-534983
-748045
-847669
-652173
-731438
-760976
-640589
-835143
-736814
-620783
-810947
-721219
-725016
-631048
-823356
-516901
-578491
-453642
-499292
-446376
-525721
-568064
-508084
-431834
-490346
-547286
-439094
-499284
-557657
-292285
-338950
-344107
-395795
-349883
-288420
-344055
-297264
-361485
-356514
-403274
-301083
-355719
-351346
-472923
-506098
-402787
-454886
-410031
-464162
-516341
-481702
-424556
-536938
-463730
-490489
-417302
-526627
-411882
-366573
-393989
-455432
-359365
-420548
-445435
-279545
-331668
-338266
-373741
-283444
-332486
-326618
-274545
-320850
-314360
-366353
-270609
-326631
-319352
-446671
-495883
-395523
-428603
-455410
-388286
-485713
-437944
-373809
-465485
-419876
-429239
-381031
-475574
-363.722
-340.679
-340.024
-330.72
-361.412
-342.072
-332.905
-758990
-656209
-756087
-847439
-657028
-852869
-755590
-758532
-851607
-663758
-759473
-759195
-665438
-851929
-997431
-1.01438e+06
-880959
-969498
-897802
-979390
-1.07158e+06
-1.02517e+06
-934070
-873319
-970718
-925720
-987942
-1.03258e+06
-1.04251e+06
-949434
-857673
-941410
-959072
-947613
-1.03477e+06
-1.0447e+06
-947716
-862093
-969960
-964607
-948188
-1.04541e+06
-943970
-849169
-772164
-845705
-859275
-862445
-929259
-958589
-886075
-784249
-889062
-872782
-875761
-973044
-741444
-646170
-732708
-840679
-641334
-749245
-831416
-732073
-810025
-623736
-723159
-722442
-630181
-821195
-1.01352e+06
-939406
-830627
-933319
-927481
-1.02527e+06
-922897
-1.00081e+06
-899019
-902205
-819695
-915185
-987153
-911451
-349809
-433110
-431361
-494087
-425469
-353646
-427309
-344761
-413730
-414384
-486291
-340987
-419550
-420021
-543389
-588953
-460936
-526208
-468213
-534550
-599434
-552245
-482825
-535257
-620491
-475524
-561109
-609952
-587836
-663007
-512315
-571714
-504906
-596805
-652322
-578898
-490168
-562525
-631067
-497509
-569994
-641672
-661833
-751338
-575065
-647766
-566705
-671709
-739894
-652156
-550538
-637861
-717427
-558516
-642658
-728590
-362730
-440436
-437377
-517583
-358777
-443386
-446440
-368011
-455751
-460099
-525649
-372140
-449556
-453837
-614896
-673749
-519806
-599542
-605820
-527328
-684546
-624052
-542674
-706372
-608984
-633295
-534966
-695421
-570185
-504066
-568446
-651998
-496975
-640389
-580573
-559637
-617056
-480166
-558596
-549389
-487207
-628522
-713647
-646536
-589419
-635383
-647995
-658776
-699763
-727598
-673462
-600384
-683405
-660721
-671074
-741607
-784009
-733228
-644617
-725189
-720704
-712177
-798260
-769814
-686315
-633445
-695793
-708217
-699189
-755685
-899798
-835948
-832077
-736344
-818507
-914515
-822828
-885113
-791485
-724527
-796836
-804941
-809779
-870484
-601834
-514043
-598017
-664013
-521218
-591293
-675780
-612724
-699889
-538720
-608162
-623432
-531440
-687958
-826959
-745822
-678371
-738314
-758463
-812584
-751474
-841403
-778057
-783964
-689814
-771185
-855908
-764748
-672182
-634331
-556934
-622794
-610315
-622185
-685933
-658492
-585523
-546162
-598029
-597860
-610077
-644879
-439864
-383397
-445450
-482835
-390301
-493470
-430395
-449532
-515283
-406015
-454699
-459142
-399092
-504497
-604482
-550365
-503689
-536832
-562190
-548865
-591181
-617870
-573213
-586025
-514256
-574084
-631332
-561024
-513267
-477832
-431590
-492187
-466337
-480770
-526007
-411550
-374766
-418323
-471966
-367889
-420879
-461488
-402206
-440476
-352567
-409288
-393026
-359416
-450788
-564833
-538592
-472432
-524838
-526893
-577957
-512974
-551794
-489468
-503687
-462100
-515251
-538855
-501153
)
;

boundaryField
{
    left
    {
        type            calculated;
        value           nonuniform List<scalar> 
670
(
-324.597
-406.182
-375.371
-419.093
-373.723
-453.227
-325.531
-402.636
-323.134
-288063
-375.437
-373.505
-323.984
-503031
-320.537
-37.9145
-43.1552
-1726.75
-3373.75
-118.518
-388.858
-370.767
-44.2058
-92.284
-48.5391
-340.307
-35.1117
-37.7862
-320.481
-11.1728
-9.19613
-14.8206
-11.2584
-929612
-6145.57
-2545.28
-4888.45
-1.05745e+06