/*--------------------------------*- C++ -*----------------------------------*\
| =========                 |                                                 |
| \\      /  F ield         | OpenFOAM: The Open Source CFD Toolbox           |
|  \\    /   O peration     | Version:  2012                                  |
|   \\  /    A nd           | Website:  www.openfoam.com                      |
|    \\/     M anipulation  |                                                 |
\*---------------------------------------------------------------------------*/
FoamFile
{
    version     2.0;
    format      ascii;
    class       volSymmTensorField;
    location    "0.105/solid";
    object      sigma;
}
// * * * * * * * * * * * * * * * * * * * * * * * * * * * * * * * * * * * * * //

dimensions      [1 -1 -2 0 0 0 0];


internalField   nonuniform List<symmTensor> 
3125
(
(153.504 -0.027572 14.1788 145.12 -0.927289 329.979)
(142.803 48.6988 91.6442 145.137 -42.3336 385.881)
(167.196 0.0741015 10.2021 157.452 -0.181601 357.259)
(154.038 0.120755 14.2963 145.654 -0.254641 331.051)
(166.426 0.0111656 10.0639 156.709 -0.325081 355.509)
(156.353 67.4848 56.2346 136.744 -34.8381 433.255)
(148.886 33.5946 71.0064 145.752 -35.0357 383.789)
(155.314 139.417 95.5836 140.422 -52.3239 484.941)
(153.022 0.168471 14.0053 144.42 0.378645 328.909)
(96997.9 -1519.33 -34683.4 73284.7 2355.58 312905)
(-19959.9 1278.01 -119394 12519.2 -11983.2 275320)
(-8213.03 2275.6 -110456 7550.32 -10572.4 206367)
(166.213 0.302718 10.0516 156.08 -0.035183 355.494)
(166.929 0.576795 10.3814 156.52 -0.495539 357.793)
(153.477 0.0896375 14.1595 144.84 -0.445665 329.897)
(159020 -18532.5 -637.388 90971.1 -36675.7 556596)
(812.971 -7333.74 -102972 -18944.1 1866.77 473568)
(-8943.82 2320.26 -111586 8088.64 -10775.4 213222)
(-18268.2 1696.95 -118526 12025.2 -11936.1 266050)
(1607.47 -4647.66 -104722 -13108.2 2712.71 347135)
(447.672 -6696.31 -103568 -18263.6 1874.09 456747)
(1595.25 -4443.35 -104592 -12398.4 2839.23 332440)
(5.77333 -0.0231596 6.90127 -0.681859 -0.271479 -8.18054)
(151.938 0.0640675 13.7264 143.509 0.254904 326.099)
(3.43175 -0.0408249 6.26939 -2.97514 -0.07763 -13.4614)
(32.3816 -6.24722 11.8681 40.3062 14.5304 44.8944)
(501.698 376.543 212.042 855.026 407.227 476.095)
(825.14 -351.548 -264.29 2058.15 989.905 620.164)
(6.18147 -0.0557195 7.04073 -0.30818 -0.205983 -7.3074)
(165.126 0.0223421 9.80851 155.385 0.0413771 352.513)
(169.088 8.86063 17.3746 154.596 -6.82157 379.649)
(157.621 3.3746 21.1402 148.315 -5.7122 348.208)
(24.9473 -2.78346 12.1088 27.4717 8.81296 33.2286)
(6.42509 0.301199 7.66802 0.371574 0.482277 -5.67449)
(-2.83903 0.0229032 -9.20187 0.894666 -0.13053 5.7209)
(-5.23904 -0.0845445 -9.84054 -1.47182 -0.214203 0.243536)
(151.907 -0.084518 13.7095 143.461 -0.430677 326.044)
(2.31215 -0.00126325 5.93367 -4.03198 0.102236 -15.9003)
(3.20412 -0.0280693 6.19529 -3.1878 -0.192788 -13.9523)
(-6.65008 -0.0534237 -10.317 -2.78669 -0.0452013 -2.76355)
(-5.47736 0.020161 -9.91342 -1.70171 -0.0551018 -0.282886)
(-31426.8 5612.46 -80615 209.964 -8759.08 1.02282e+06)
(-14152.1 5804.14 -83311.8 193.312 -7211 1.13454e+06)
(23.8953 -4.65296 -7.01402 35.3449 10.6253 61.4596)
(628.3 -326.832 -284.525 1422.23 747.44 467.134)
(1221.48 471.497 -43.6913 1683.24 709.379 509.973)
(-11418.1 -2713.38 -113291 14588.2 -9088.4 317594)
(341627 -6008.11 -115569 259445 -48732.1 1.03564e+06)
(11930.8 3746.75 -91466.5 3071.97 -4857.04 1.05714e+06)
(760.194 -677.305 -485.722 2292.95 1675.74 338.963)
(-17314.1 4431.33 -87530.2 3226.34 -7935.14 938989)
(-18517.9 -1093.86 -117772 13538.6 -10910.9 307129)
(938.401 3609.04 -89032.2 3133.72 -5479.43 1.0426e+06)
(390984 -10506.3 -160105 268846 -11802.2 1.15212e+06)
(-2653.8 6313.07 -87095.5 825.451 -6844.08 1.15206e+06)
(799.955 -654.284 -516.186 1929.1 1405.05 430.563)
(-14525.9 3741.61 -80435.5 -354.786 -8059.12 656330)
(-8792.3 3825.22 -90012.6 1762.19 -7798.34 705265)
(-6472.9 2092.7 -106679 6015.68 -9931.23 185929)
(-6943.02 3125.39 -87339.7 1169.06 -7127.16 612225)
(-18871.8 4628.15 -83591.1 -191.971 -8804.48 771647)
(-15022.6 3852.65 -80904.8 -335.036 -8159.35 670600)
(-5991.9 2024.07 -105287 5534.36 -9705.04 179126)
(-6720.47 3025.81 -86865.9 1088.54 -7024.85 599103)
(-2.35749 -0.10108 -9.07108 1.36494 -0.339144 6.82618)
(165.107 -0.0199981 9.77546 155.332 -0.132305 352.498)
(169.308 4.6523 13.9684 156.502 -3.54304 371.678)
(157.181 2.5161 19.1791 147.823 -3.38252 344.839)
(2.44692 0.00856883 5.96373 -3.87898 -0.0277794 -15.5242)
(5.26601 0.264905 7.15867 -0.85837 0.558365 -8.53539)
(15.9187 -2.20055 -6.59155 24.7867 6.58776 47.9206)
(-2.524 0.21344 -9.2215 1.76431 0.666907 7.9672)
(-6.48374 0.0405052 -10.293 -2.59937 0.093619 -2.31223)
(-3.96188 0.122925 -9.64492 0.251176 0.489374 4.41373)
(23101 -846.416 -72119.8 -3062.38 2468.08 1.1467e+06)
(37730 -3162.33 -70672.2 -3445.62 4668.62 1.26472e+06)
(22682.6 -15594.4 -85732.6 -19914.7 3226.14 532692)
(402421 -22321.3 -111106 297319 -116091 1.19949e+06)
(34941.6 -2071.22 -82153.6 -8788.97 4118.29 1.14676e+06)
(7550.06 1477.46 -81157.4 -8314.62 453.637 1.02462e+06)
(11659.5 -11725.9 -94932.2 -19992.9 2416.71 521854)
(24982.6 -1206.57 -80137.1 -8650.53 3104.98 1.13335e+06)
(432631 -33413.4 -137427 283973 -112865 1.35563e+06)
(46869.3 -4120.52 -73675.2 -3437.71 5659.88 1.27992e+06)
(-30916.8 5647.09 -81312.5 180.451 -8916.24 1.00761e+06)
(-25198.4 5477.02 -84473.4 3.91107 -9303.83 903479)
(-11895.1 2338.61 -114676 9776.33 -11344.2 234309)
(-9113.86 3922.28 -90284.4 1851.48 -7884.35 718701)
(-12074.4 4498.99 -91014.5 2485.1 -8346.36 813552)
(-16946.8 4519.51 -88129.2 3160.05 -8090.15 924663)
(-13225.5 2280.29 -115642 10352 -11519.4 241676)
(-12628.3 4554.39 -90899.4 2575.51 -8379.66 827227)
(-19481.9 4736.41 -83869 -169.005 -8884.79 786218)
(-24392 5404.84 -84603.3 -18.2902 -9283.77 888759)
(23106.3 -775.877 -73223.3 -3011 2439.61 1.12943e+06)
(22609.6 -665.061 -78728.4 -2648.77 2712.98 1.00812e+06)
(1303.07 -5310.46 -104602 -15305.6 2308.83 392461)
(8345.41 1309.65 -87422.9 -6071.73 971.717 776475)
(9028.55 1635.44 -86714.5 -7119.1 505.853 883829)
(7647.95 1581.39 -82017 -8209.69 371.189 1.00881e+06)
(1068.05 -5568.72 -104430 -16052.7 2173.97 408063)
(8981.77 1668.73 -86386 -7267.82 449.178 899313)
(19265.5 -731.707 -80361.2 -2278.8 3225.66 870111)
(22323.6 -670.933 -79154.2 -2599.13 2777.25 990786)
(14365.8 -789.527 -79120.8 -1924.66 3711.03 718554)
(8151.67 1258.11 -87348.5 -5925.5 1040.66 761305)
(1371.53 -3852.46 -103593 -10364.1 3189.6 289506)
(6538.57 903.72 -85972.4 -4942.08 1510.58 656662)
(18739.4 -740.17 -80345 -2237.15 3285.34 853022)
(14910.6 -785.133 -79363.9 -1960.74 3663.16 735104)
(1265.68 -3659.84 -103046 -9719.81 3295.23 275588)
(6293.18 855.132 -85671.9 -4808.5 1574.28 641972)
(97.4008 -0.0426033 1.0093 104.186 -0.450417 249.848)
(152.743 0.0900495 14.0428 144.337 0.0437993 328.334)
(96.2283 -0.00396711 0.660852 103.064 -0.282156 247.18)
(106.695 12.6829 36.7044 156.993 22.6954 313.433)
(144.867 132.711 190.852 200.571 -22.6351 428.682)
(137.087 26.475 71.569 362.2 187.708 381.596)
(168.171 0.053489 10.3418 158.45 -0.454501 359.538)
(155.538 0.0159574 14.7316 147.176 -1.20256 335.168)
(97.8225 0.0235119 1.08563 104.629 -0.434436 250.838)
(99.3388 -0.0165475 1.32564 106.152 -0.598149 254.421)
(165.783 0.0422289 9.93763 156.076 -0.051608 354.128)
(163.622 33.7624 35.1122 144.882 -20.8835 407.723)
(156.059 12.5404 37.8319 147.055 -18.5917 366.085)
(106.987 10.0441 28.5096 140.787 9.43907 304.622)
(104.16 4.41054 12.6376 116.475 -2.07785 281.27)
(152.467 -0.0738004 13.8647 143.944 -0.346013 327.649)
(95.6085 0.0749119 0.410042 102.503 0.132754 246.18)
(95.1508 -0.0255445 0.245522 102.017 0.015129 244.875)
(-66179.2 -2391.69 -44895.3 -35774.9 -5361.91 1.40918e+06)
(-66861.6 -2431.45 -41734.7 -36203.4 -4814.89 1.46471e+06)
(24712.6 -2362.52 -16411.4 20600.1 15218.8 47144.4)
(43994.1 -6535.05 -81401.7 14334.9 7976.26 342025)
(145893 -9236.12 -54547.8 97385.8 11196.3 479033)
(75442.7 -7708.09 -84642.3 24008.5 3416.18 647009)
(19179.4 -5014.01 -14562.8 32950.9 30661.3 38823.7)
(-11141.7 663.607 -109274 8617.25 -10109.2 555673)
(-21127.5 695.716 -119941 12944.7 -11915.6 285328)
(-10465.9 -247.263 -109018 9004.81 -9548.36 583918)
(554238 -7506.44 -384273 479136 109188 1.89337e+06)
(55446.5 4218.23 -133536 -18723.7 -4573.62 1.70853e+06)
(-29503.1 -1110.41 -47151 -15885.5 -4787.05 829757)
(-3549.31 1441.53 -106159 5834.03 -8964.61 415040)
(-7573.47 2221.71 -109261 7021.75 -10365.2 199539)
(-2968.2 1335.28 -104795 5389.86 -8625.13 391901)
(-44422.3 -1590.61 -50073.6 -24340.1 -5554.95 1.07038e+06)
(-40449.2 -1460.54 -49535.8 -22099.7 -5380.44 1.00945e+06)
(-5112.68 1874.25 -102288 4626.1 -9233.79 165502)
(-1982.82 992.952 -99669.3 3986.17 -7460.61 323527)
(165.659 0.0886421 9.85931 155.72 -0.174086 353.997)
(167.798 1.25513 10.9716 156.917 -0.728907 361.16)
(154.958 0.679366 15.3108 146.109 -0.188288 335.04)
(95.8751 0.0418297 0.499544 102.795 0.0683911 246.952)
(97.0318 0.267202 0.945903 104.079 0.0463896 250.482)
(68635.2 -1030.59 -40281.4 45395.4 1381.47 1.52885e+06)
(68654.2 -1009.75 -35100.7 45889.1 1268.66 1.58684e+06)
(69021.4 -28655.5 -30308.9 -14695.1 9595.75 531432)
(265512 -16831 -26709.6 193199 -88509.8 779189)
(97203.2 -15937.7 -69502.5 15243.5 1369.7 752670)
(1283.03 275.206 -101171 -1978.2 -1829.49 655154)
(2147.49 -8244.79 -101842 -19530.9 1942.09 490438)
(3177.26 -800.033 -99897.1 -2101.84 -1339.93 688145)
(443517 -29077.7 -320130 145007 -40463.6 1.8369e+06)
(131864 -10667 -110435 30058.3 10554.6 1.77886e+06)
(-65387.3 -2354.04 -45902.7 -35412.9 -5498.61 1.39036e+06)
(-62153.1 -2214.85 -48295.7 -33871.9 -5769.99 1.33265e+06)
(-9782.1 2349.84 -112662 8640.84 -10971.1 220141)
(-3731.47 1471.27 -106515 6031.47 -9104.94 422912)
(-4577.82 1544.52 -107587 6490.1 -9417.55 446394)
(-10748 869.825 -109319 8460.55 -10141.9 546484)
(-16463.6 1981.43 -117569 11490.3 -11824.5 257431)
(-8957.99 1299.64 -109188 8014.93 -10181.5 520116)
(-45776 -1635.21 -50211 -25098.6 -5609.02 1.09075e+06)
(-49908.9 -1772.46 -50454.3 -27398.9 -5750.1 1.15191e+06)
(68286.8 -1039.73 -41816.5 44951.2 1443.94 1.50857e+06)
(66261.1 -1052.98 -45470.9 43059.7 1645.98 1.44523e+06)
(1569.25 -4857.79 -104761 -13830.9 2580.75 362024)
(3620.99 890.118 -102885 -1166.03 -859.419 489836)
(3478.38 956.955 -103254 -1402.92 -1113.63 519357)
(1163.27 476.041 -101630 -2035.25 -1838.85 644045)
(534.807 -6227.86 -103937 -17540.3 1944.03 440190)
(1908.52 853.755 -102311 -1809.81 -1854.7 611819)
(50615.5 -873.621 -50024.3 32301.2 2308.8 1.17406e+06)
(55010.3 -938.918 -49800.4 35135.2 2170.35 1.24276e+06)
(32278.1 -580.224 -48418.4 20785.9 2762.11 882836)
(3517.19 860.69 -102846 -1188.86 -733.59 479924)
(1545.56 -4243.75 -104363 -11704 2961.56 317939)
(3454.12 779.5 -102152 -970.557 -476.882 450968)
(49141.3 -850.387 -50028.2 31362 2351.91 1.15121e+06)
(44745.3 -779.986 -49876.8 28584 2471.78 1.08294e+06)
(1039.63 -3285.91 -101615 -8490.43 3490.56 248398)
(2599.03 534.46 -99034 -665.52 363.557 366324)
(67.6533 -0.0553223 -9.4374 74.8214 -0.429806 181.891)
(4.58771 -0.0105752 6.69084 -1.88572 -0.0522327 -11.0987)
(66.3552 0.0219646 -9.82148 73.5896 -0.190836 178.834)
(152.453 -0.0622752 13.9671 144.041 -0.728563 327.743)
(95.364 -0.00271297 0.489191 102.18 -0.114278 245.153)
(95.9571 -0.0364488 0.600652 102.778 -0.288892 246.539)
(4.31543 -0.0540805 6.59142 -2.13285 -0.289958 -11.669)
(65.5162 0.0149919 -9.97492 72.7169 -0.0634089 176.96)
(66.086 -0.05402 -9.8745 73.3056 -0.297516 178.219)
(79.7213 4.34308 12.0784 128.855 28.2506 240.5)
(90.5882 -41.7397 -7.99219 172.501 82.4842 96.4723)
(118.642 -3.63304 17.6479 342.852 194.388 306.229)
(168.389 196.407 243.837 237.092 2.03038 419.926)
(738.818 10.7779 -34.3435 2413.89 1834.75 892.035)
(134.05 31.2462 81.4316 463.437 326.43 381.687)
(119.848 -77.0095 -29.8282 251.042 145.112 108.089)
(870.408 -122.417 -216.125 2723.47 1920.49 939.477)
(108.397 -13.9221 8.34046 427.715 328.849 291.84)
(99.9139 0.0116413 1.42423 106.753 -0.605112 255.785)
(68.0515 0.0429399 -9.37113 75.2396 -0.302287 182.803)
(7.67246 -0.0560723 7.51207 1.12182 -0.394276 -4.16586)
(69.4519 -0.0308847 -9.15668 76.66 -0.534341 186.051)
(8.16553 -0.0238925 7.65951 1.59726 -0.183573 -3.08619)
(69.9836 0.0394688 -9.07404 77.2156 -0.448618 187.293)
(165.359 -0.0210636 9.85135 155.668 -0.255104 353.127)
(167.467 17.1696 23.5696 150.81 -11.9629 391.025)
(157.6 8.98047 31.6237 147.8 -13.2643 361.792)
(100.817 1.36116 4.23022 108.456 -1.10526 263.114)
(103.497 3.35134 9.65469 113.63 -2.19177 275.944)
(78.87 4.49898 8.15079 112.402 14.3905 232.009)
(12.4846 0.0866313 10.1809 8.14793 1.7368 8.99177)
(73.7522 2.66144 -1.49018 86.7156 0.410312 208.493)
(70.009 0.926519 -7.38177 78.2274 -0.392285 191.775)
(10.5849 0.286993 9.45509 5.48593 1.28839 4.47084)
(72.896 2.15754 -3.44955 83.6769 -0.238563 203.635)
(-53.6089 0.0907747 -16.7573 -53.6364 0.0282115 -125.229)
(-4.01517 -0.0609161 -9.53599 -0.22338 -0.199563 3.10759)
(-54.5833 -0.116258 -17.0259 -54.644 -0.103093 -127.621)
(-4.32736 -0.00234146 -9.62854 -0.521884 -0.146737 2.40457)
(-56.0446 -0.149189 -17.7733 -55.9486 -0.120799 -130.493)
(-55.1955 0.0686728 -17.2968 -55.1902 0.0195151 -128.84)
(152.229 0.0599779 13.8339 143.741 0.485615 327.183)
(95.2536 -0.0670404 0.440162 102.066 -0.131793 244.918)
(95.0827 -0.00624807 0.245312 101.942 0.0289618 244.669)
(65.3699 0.0615821 -10.1803 72.6679 0.165961 177.043)
(2.50307 -0.0482276 6.05947 -3.87909 -0.180218 -15.6859)
(64.9778 -0.0580369 -10.2931 72.2587 -0.0494544 175.861)
(65.3679 -0.0831479 -10.0305 72.5715 -0.190507 176.645)
(2.57709 -0.00648278 6.10074 -3.82793 0.0568944 -15.574)
(64.9648 0.00828672 -10.2728 72.2354 0.0524457 175.766)
(-58.5037 -0.129034 -18.8394 -58.2341 -0.0849386 -135.663)
(-6.32187 0.00110985 -10.2281 -2.44403 -0.0495262 -2.02675)
(-58.0569 0.0714162 -18.4903 -57.8723 0.0329083 -134.924)
(-56.8416 0.0940194 -18.1067 -56.6576 0.0405853 -132.07)
(-6.24256 -0.0580843 -10.1859 -2.38563 -0.102464 -1.88774)
(-57.4326 -0.117884 -18.2419 -57.3086 -0.0934861 -133.655)
(-53257.7 -959.84 -55196.4 -26094.9 -6463.83 1.30878e+06)
(-30711.5 5466.19 -79007.2 292.007 -8121.27 1.0695e+06)
(-53539.1 -1021.28 -52302.9 -26510.3 -5842.87 1.36286e+06)
(-57777.8 -1919.22 -43279.9 -34407 -4097.74 1.54208e+06)
(-66141.7 -2394.26 -40976.4 -36052.9 -4601.42 1.48322e+06)
(-29005 5440.76 -78987.9 350.614 -7854.78 1.08556e+06)
(-42115.8 -439.507 -55502.7 -25393.7 -5090.89 1.43988e+06)
(-52547.1 -987.585 -51780.8 -26425.7 -5605.51 1.38125e+06)
(-42.274 -0.111686 -13.562 -42.7013 1.10367 -101.096)
(71.4198 -31.9408 -26.6841 120.942 56.2201 104.394)
(-29.8045 -3.05934 -14.176 -31.6525 3.87684 -83.9379)
(102.917 -59.5237 -47.7583 180.382 102.368 120.161)
(42.9639 -50.6963 -68.6398 40.762 72.0702 -91.9461)
(-29.2443 -5.598 -19.627 -31.3601 7.74036 -91.9689)
(8912.37 -2113.65 -8768.57 10848.8 7768.47 11972.3)
(600.539 -65.9098 -305.745 2541.66 2802.97 434.773)
(10506 -4645.07 -6611.45 21575.8 17842.2 16414.1)
(-1048.6 -4448.33 -101034 10721.8 -7408.38 326462)
(8691.27 -3093.38 -105440 8954.39 -6408.91 629677)
(54252.1 -7695.47 -93594.4 22266.7 799.251 655211)
(187186 -16114.7 -81372.7 139444 25674.3 685894)
(123150 5918.31 -110474 16362.4 -2917.83 1.10375e+06)
(8828.22 660.425 -7769.21 14703.7 23606 23017.8)
(81357.6 -3441.69 -87478.8 14393.3 114.036 747339)
(-532.515 -9085.86 -24165.4 17998.9 24835.9 -3797.98)
(9241.78 -2689.73 -102455 6667.02 -5832.81 736450)
(76194.1 5933.43 -104817 1255.71 -5149.02 1.08933e+06)
(62410.7 -4808.85 -95740.6 20024.6 1255.85 765240)
(360.119 -252.975 -520.711 2126 2780.6 54.6452)
(18582.9 -1756.67 -4548.99 40902.9 15642.8 16584)
(15562.5 -5420.25 -7679 27506.1 21089.1 22606.7)
(-13875.7 101.51 -105002 6819.06 -9548.36 651707)
(-16193.2 4038.61 -86142.2 3362.56 -7204.73 982906)
(-12968.8 -700.369 -104493 7134.69 -8938.16 684180)
(-21014 -111.1 -119734 13333.9 -11583.2 296015)
(2258.01 -2362.97 -106759 9641.09 -7317.94 622354)
(-9213.12 -644.806 -108800 9023.26 -9251.18 593453)
(-14374.9 3885.28 -86080.3 3376.06 -6855.37 997844)
(1691.24 -2269.67 -103290 7572.85 -6671.48 728080)
(-11475.3 -1022.8 -104285 7139.59 -8609.19 695111)
(-50998.5 -1497.2 -47671.7 -33237.4 -4016.61 1.56482e+06)
(3275.09 1331.29 -92823.3 -27680.7 -5616.58 1.65406e+06)
(532298 -27802 -340757 426774 80853.4 1.61571e+06)
(119972 12379.2 -124008 18063.2 -3975.94 1.21809e+06)
(7902.93 -6251.34 -8271.82 22014.7 27849 21418.3)
(86862.3 6836.89 -140287 -10953 -6132.29 1.58387e+06)
(14244.3 -5641.78 -5241.23 23600.8 9523.25 9224.81)
(-33508.7 46.896 -60644.8 -24342.5 -5013.72 1.4625e+06)
(63307.9 10208.9 -110741 -4589.32 -10993.9 1.18641e+06)
(28296.5 3724.41 -104646 -22290.2 -7397.09 1.53669e+06)
(129.913 -115.123 -135.787 142.09 165.171 -112.741)
(15546.6 -3830.55 -4581.65 36217.1 14963.5 13888.4)
(1370.19 -1351.21 -1454 1404.03 2136.31 -830.941)
(-34167.7 -1257.95 -48329.8 -18536.7 -5062.39 908895)
(-30636.9 -1147.23 -47462.2 -16529.2 -4856.51 849413)
(-12641.4 3308.16 -78377.1 -431.416 -7644.48 599798)
(-24129.1 -159.387 -56619.8 -11669.7 -5799.32 769643)
(-27688.8 -215.091 -58082.4 -13562.5 -6126.87 842893)
(-13096.4 3414.94 -78918.7 -413.108 -7750.34 613843)
(-24993.9 -172.367 -57004.7 -12128.9 -5882.2 787837)
(-5628.58 980.499 -103303 4518.99 -8660.79 487303)
(-7926.48 3527.34 -89017 1500.46 -7522.28 665157)
(-4946.36 916.608 -102032 4133.5 -8327.15 459906)
(-7000.08 2161.21 -108005 6509.25 -10151.1 192732)
(-2431.16 1182.66 -102714 4769.57 -8124.22 361287)
(-2858.31 1298.98 -104344 5194.67 -8481.94 384130)
(-7664.4 3427.07 -88631.8 1415.69 -7425.77 651862)
(-4233.67 812.923 -100032 3621.92 -7849.15 423744)
(-4761.06 889.137 -101583 3990.64 -8200.88 450795)
(-35387.1 -1296.7 -48596.2 -19229.4 -5128.4 928877)
(-39157.5 -1418.83 -49321.8 -21368.2 -5318.63 989221)
(-35544.4 -365.848 -60275.4 -17714.1 -6708.4 992357)
(-17137.6 4297.7 -82581.9 -255.666 -8542.59 728118)
(-32489.7 -303.027 -59590.5 -16109.6 -6503.7 935957)
(-28618.5 -231.071 -58414.4 -14056.4 -6205.51 861387)
(-16588.5 4186.85 -82194.6 -275.41 -8449.24 713678)
(-31499.7 -284.026 -59321.4 -15586.1 -6431.37 917236)
(-5899.39 2634.21 -84772.4 781.125 -6605.28 547152)
(-3541.23 679.19 -97061 2997.59 -7220.9 379233)
(-5542.8 1952.18 -103822 5069.06 -9473.27 172314)
(-2364.26 1145.44 -102176 4578.05 -7978.75 353615)
(-2023.94 1030.05 -100294 4173.43 -7606.28 331088)
(-6095.01 2730.7 -85325.5 856.011 -6711.57 560054)
(-4091.47 784.479 -99492.6 3482.89 -7718.52 414751)
(-3658.63 707.068 -97686.3 3130.83 -7353.77 388086)
(-52.9746 -0.146553 -16.4648 -53.069 -0.129049 -123.964)
(-0.944902 -0.00351537 -8.76882 2.82676 -0.234337 10.1907)
(-51.6492 0.0676316 -15.8032 -51.8715 0.00788287 -121.319)
(-0.394005 -0.0717795 -8.62701 3.37763 -0.30983 11.4565)
(-51.0522 -0.119665 -15.5268 -51.3327 -0.116905 -120.123)
(165.268 0.0607498 9.77473 155.436 0.121859 353.001)
(168.708 2.38361 12.0558 157.027 -1.97076 365.728)
(155.716 0.80613 15.9359 146.822 -1.48392 337.27)
(99.9508 1.04789 3.21108 107.32 -0.710766 259.852)
(97.6192 0.361446 1.27129 104.729 -0.0929959 252.291)
(65.5667 -0.0132188 -10.138 72.8951 0.0143388 177.64)
(2.85436 0.0789296 6.24808 -3.46017 0.26255 -14.7339)
(66.397 0.191478 -9.89 73.8923 0.152831 180.194)
(69.1808 0.762731 -8.12868 77.0822 -0.134715 188.868)
(3.2037 0.0539667 6.39131 -3.06857 0.0451252 -13.8047)
(66.8747 0.214305 -9.67656 74.461 0.00158779 181.68)
(-46.8799 -0.114814 -14.9722 -46.9621 0.712772 -110.347)
(3.66153 -0.0404905 -7.67021 9.16057 1.68914 23.3012)
(-54.8796 0.013242 -17.3146 -54.6748 0.23267 -127.639)
(1.47765 0.0403139 -8.16958 6.50917 1.11876 18.1142)
(-57.4912 0.160255 -18.3511 -57.2439 0.197582 -133.4)
(-53.9308 -0.144547 -16.9135 -53.9466 0.0560584 -126.021)
(-59.0474 0.108692 -19.0233 -58.7265 0.0727763 -136.764)
(-6.29828 -0.00616263 -10.3256 -2.2622 0.122878 -1.54006)
(-58.8668 -0.126666 -18.8769 -58.6476 -0.0722585 -136.692)
(-5.88593 0.0528976 -10.2281 -1.78954 0.182777 -0.436661)
(-58.143 -0.056489 -18.7634 -57.8232 0.043103 -134.685)
(-59.8745 0.0466322 -19.2847 -59.5207 0.05349 -138.64)
(40152 -3473.17 -48889.6 30329.8 1777.2 1.42514e+06)
(24263.1 -1288.55 -69077.5 -3219.29 2828.32 1.19828e+06)
(40258.1 -3560.77 -44148 30852 1862.49 1.48246e+06)
(68936.9 -1304.37 -32632.9 43487.4 1852.75 1.66046e+06)
(68421.1 -1022.97 -33492.7 45684.5 1291.47 1.60532e+06)
(25632.8 -1564.35 -68486.4 -3255.86 3096.8 1.21531e+06)
(45517.7 -4143.03 -43818.7 29758.2 3048.4 1.55771e+06)
(40543 -3618.53 -42864 30814.5 1992.07 1.50117e+06)
(44380.1 -20954.7 -68902.3 -15399.8 2896.96 542374)
(25640.7 -5632.4 -93109.4 -1767.9 1679.47 737159)
(71196.5 -12980.8 -77892 3261.9 2659.56 753411)
(307271 -16587.8 -42936.5 227799 -102508 891544)
(131925 -11184.9 -99663.5 -7006.49 9254.13 1.1765e+06)
(108174 -14875.5 -75089.9 12906.4 2455.76 856249)
(28087.9 -5237.73 -91349.4 -3699.48 2653.89 839554)
(97022.2 -6875.03 -94522.5 -8791.92 8547.93 1.1785e+06)
(77927.5 -11508.6 -81670.8 -429.24 3756.23 856261)
(1692.41 -125.244 -97342.9 -3321.22 -1089.71 747682)
(9023.54 868.032 -78873.4 -8543.69 1012.88 1.0722e+06)
(3667.37 -1089.68 -95865.8 -3478.34 -591.598 784640)
(5247.07 -9615.7 -99556.6 -19982.3 2162.21 506767)
(17904 -4146.82 -95381.4 -1811.17 638.812 729281)
(5060.4 -1348.91 -99141.1 -2044.62 -1071.08 699046)
(10750.6 523.055 -78462.2 -8588.82 1353.87 1.08795e+06)
(19498.5 -3992.51 -92781 -3517.44 1524.17 830609)
(5619.47 -1579.41 -95254.3 -3499.3 -251.738 796787)
(70841.5 -1638.41 -35737 42109.7 2453.21 1.68004e+06)
(102290 -5437.69 -76026.6 35838.4 6431.21 1.75582e+06)
(452486 -39576.4 -270199 178480 -72776 1.70053e+06)
(143807 -13457.1 -106047 -958.181 12536.9 1.31535e+06)
(136779 -13556.1 -114595 23147.6 11713 1.65866e+06)
(50640.5 -4644.48 -47781.1 29142.5 3880.25 1.57756e+06)
(107451 -9363.53 -94044.2 -3944.96 9981.76 1.31719e+06)
(99320 -9298.58 -86855.8 25912.4 8129.06 1.64429e+06)
(-52577 -916.955 -56195 -25806.3 -6621.81 1.29075e+06)
(-28607.3 5658.51 -83146.9 99.779 -9218.86 962637)
(-49774.1 -780.077 -58637.4 -24630.9 -6940.46 1.23614e+06)
(-56883.6 -2013.46 -49992.4 -31178.1 -5870.66 1.25327e+06)
(-60900.3 -2165.15 -48867.1 -33249.7 -5818.51 1.31303e+06)
(-27744.3 5632.36 -83606.4 74.7196 -9269.03 947790)
(-45373.5 -617.974 -60394.8 -22645 -7066.81 1.16195e+06)
(-48707.9 -736.581 -59230.6 -24167.8 -6999.52 1.21772e+06)
(-10759 2359.22 -113687 9202.48 -11161.9 227149)
(-6136.76 1556.96 -108591 7157.76 -9819.07 478392)
(-4876.74 1557.76 -107838 6688.83 -9550.66 454400)
(-5885.97 1002.18 -103651 4665.02 -8780.95 496529)
(-10210.1 4198.74 -90879.8 2121.21 -8119.06 759178)
(-6834.83 1032.31 -104595 5061.89 -9085.5 524291)
(-8567.91 998.33 -105372 5615.77 -9447.54 561921)
(-10627.9 4283.21 -90993 2212.12 -8186.99 772728)
(-7207.93 1038.75 -104821 5209.85 -9194.35 533652)
(-13467.1 288.456 -105177 6696.93 -9624.53 641169)
(-15150.3 4644.79 -89724 2926.17 -8356.6 882424)
(-11624.4 711.061 -105487 6313.69 -9712.9 610580)
(-14755.2 2168.26 -116603 10926 -11682 249350)
(-6599.91 1536.02 -108729 7355.95 -9935.14 486620)
(-8351.7 1386.74 -109153 7824.23 -10109.2 511500)
(-14488.1 4645.78 -90129.1 2840.75 -8390.77 868531)
(-9103.72 973.516 -105454 5764.79 -9533.48 571498)
(-10952.5 796.024 -105555 6169.43 -9678.43 600627)
(-55498 -1964.12 -50202.6 -30441.5 -5863.02 1.23313e+06)
(-51304 -1819.71 -50464.9 -28167 -5788.51 1.17227e+06)
(-36589.4 -388.698 -60455.1 -18257.4 -6771.22 1.01122e+06)
(-21439.3 5047.98 -84479.1 -104.971 -9098.51 830054)
(-39806.4 -463.922 -60798.8 -19910.8 -6934.34 1.06786e+06)
(-44248.2 -583.396 -60605.9 -22109 -7060 1.14321e+06)
(-22138.3 5145.39 -84594.7 -83.8081 -9158.02 844704)
(-40902.7 -491.495 -60832.9 -20463.5 -6977.55 1.08673e+06)
(40067.4 -3448.22 -50385.3 29987.1 1803.1 1.40549e+06)
(23183.2 -676.701 -76141.4 -2852.82 2492.8 1.07748e+06)
(39278.4 -3355.42 -54060.1 28625.4 1944.22 1.34497e+06)
(61878.7 -1024.3 -48336.2 39761.1 1901.48 1.35663e+06)
(65311.9 -1050.52 -46379.4 42296.2 1712.78 1.42343e+06)
(23129.5 -665.919 -76930.8 -2801.21 2538.43 1.06014e+06)
(37029.4 -3176.35 -57053.9 26351.8 2182.3 1.26156e+06)
(38831.4 -3316.46 -54997.8 28093.1 2002.03 1.32436e+06)
(1472.09 -5076.55 -104718 -14563.1 2444.52 377129)
(3027.82 1002.07 -103192 -1628.43 -1477.78 559650)
(3503.43 978.482 -103168 -1378.92 -1241.55 529473)
(3938.52 520.329 -100142 -2215.92 -265.749 561111)
(8813.71 1461.15 -87413.9 -6518.21 764.784 822251)
(3923.63 558.129 -100364 -2457.27 -539.646 594750)
(3552.53 569.876 -100134 -2751.17 -879.016 640406)
(8919.19 1508.82 -87321.1 -6668.49 697.277 837589)
(3911.66 570.838 -100327 -2501.81 -621.492 606118)
(1655.1 57.6983 -97826.9 -3300.65 -1162.94 735357)
(8339.21 1716.99 -84329.6 -7838.4 304.225 961622)
(2383.91 408.348 -98938.2 -3076.97 -1168.27 699108)
(788.882 -5865.87 -104210 -16800.8 2048.65 423959)
(2936.84 1001.55 -102977 -1598.34 -1598.41 570025)
(2081.45 911.294 -102649 -1849.82 -1767.85 601090)
(8562.76 1722.31 -84960.8 -7701.21 323.431 945987)
(3409.91 564.03 -99945.5 -2793.66 -948.886 652020)
(2630.88 464.001 -99287.3 -3041.45 -1138.14 687159)
(60588.5 -1010.56 -48777.6 38862 1959.34 1.33403e+06)
(56449.1 -958.991 -49636.5 36078.5 2120.25 1.26566e+06)
(30339.7 -2708.38 -58902.6 21319.2 2626.91 1.09131e+06)
(20747.3 -704.571 -80164.5 -2411.1 3038.14 921641)
(33027.5 -2893.57 -58643.5 23223.8 2470.16 1.15526e+06)
(36307.1 -3123.81 -57526.4 25741 2242.35 1.24041e+06)
(21194.3 -695.396 -80002.6 -2456.96 2973.44 938890)
(33891.7 -2953.4 -58461 23859.1 2414.92 1.17659e+06)
(37646.2 -664.687 -49220 24135.5 2642.92 970708)
(33588.9 -601.497 -48639.1 21602.7 2734.47 904618)
(12236.1 -798.442 -77923.1 -1786.19 3885.66 653258)
(18830.6 -1915.3 -57140.4 13608.7 3163.27 820657)
(22215 -2148.95 -58037.8 15848.9 3020.23 902295)
(12759.6 -797.92 -78255.1 -1819.39 3844.45 669437)
(19658 -1972.49 -57388.9 14155.7 3129.59 840893)
(3865 501.346 -100047 -2172.84 -181.974 549945)
(7497.83 1103.74 -86927.2 -5495.23 1246.44 716101)
(3674.68 450.034 -99462.6 -1946.62 90.7652 516892)
(1468.69 -4046.31 -104031 -11025.1 3077.8 303625)
(3139.03 667.566 -100991 -794.282 -103.964 412867)
(3310.38 748.313 -101995 -992.541 -356.276 441250)
(7264.53 1052.91 -86728.1 -5353.95 1313.9 701147)
(3267.52 377.111 -98342.2 -1696.11 437.48 473490)
(3557.7 430.09 -99250.5 -1905.84 173.184 505926)
(39035.7 -686.887 -49384.4 25004.4 2610.96 992965)
(43297.7 -756.511 -49781.8 27674.8 2509.29 1.06032e+06)
(29426.9 -2645.55 -58911.3 20689.6 2676.73 1.07006e+06)
(17111 -762.342 -80093.7 -2114.79 3456.78 802086)
(26682.6 -2456.63 -58756.8 18826.9 2816.34 1.00659e+06)
(23091 -2209.3 -58220 16430.3 2981.29 922975)
(16560.4 -768.7 -79950.5 -2075.67 3511.06 785232)
(25774.5 -2394.14 -58654.7 18218.2 2860.31 985565)
(5312.66 669.529 -84236.6 -4294.91 1817.76 583996)
(2666.45 292.981 -96383.7 -1435.84 845.509 420516)
(1154.71 -3470.34 -102388 -9094.74 3395.1 261884)
(2979.32 637.795 -100721 -817.618 10.951 403353)
(2760.72 562.615 -99415.4 -641.017 256.105 375604)
(5555.8 714.413 -84629.1 -4420.68 1758.67 598365)
(3133.42 358.746 -98022.4 -1659.03 517.459 462745)
(2803.61 309.631 -96807.7 -1468.83 769.717 431009)
(-27735.5 -16813.8 -21068.9 -29160 -2377.24 1.6784e+06)
(-28011.3 -16933 -20258.1 -29342.3 -2346 1.69829e+06)
(323877 49738.7 -426981 10489.7 -31972.2 2.28751e+06)
(157105 11664.9 -247411 -54528.7 26026.3 2.08462e+06)
(-17878.4 -11897.4 -24791.9 -20274.2 -2431.04 1.27627e+06)
(-17269.7 -11578.7 -24726.5 -19685.8 -2417.9 1.25161e+06)
(45188.2 -5466.1 -19780.8 29588.4 1567.99 1.72646e+06)
(45364.1 -5509.44 -18627.1 29794.5 1418.28 1.7467e+06)
(359537 -63504.5 -411675 101591 -19246.1 2.35544e+06)
(201102 -27983.3 -211326 57446.4 31552 2.14317e+06)
(-27367.7 -16650.2 -21792.6 -28894.4 -2405.88 1.65769e+06)
(-26935.9 -16447.1 -22424 -28558.5 -2432.22 1.63625e+06)
(-18496.6 -12218.4 -24845.5 -20872.1 -2443.2 1.30095e+06)
(-19116.6 -12541.6 -24885.1 -21466.7 -2454.63 1.32565e+06)
(44896.9 -5406.53 -20802.7 29310.9 1699.66 1.70528e+06)
(44486.4 -5335.04 -21693.3 28947.6 1814.67 1.68325e+06)
(33376.6 -3522.47 -25671.6 20777.4 2402.91 1.33491e+06)
(34293.7 -3668.37 -25663.3 21422 2394.21 1.36062e+06)
(32462.9 -3375.95 -25661.7 20136.1 2410.1 1.30921e+06)
(31552.4 -3232.2 -25636.5 19503 2415.23 1.28356e+06)
(-15.8633 -0.0895952 -6.54067 -11.7602 -0.392758 -23.4054)
(5.32273 -0.0483431 6.99362 -1.2874 -0.365864 -9.63393)
(-16.8746 -0.130948 -6.69141 -12.801 -0.565209 -25.8533)
(3.62055 -0.0269126 6.5298 -2.95652 -0.0400504 -13.4502)
(-18.126 -0.0142486 -7.10481 -13.9764 0.071757 -28.5056)
(-18.4952 0.00197013 -7.10477 -14.3864 0.126922 -29.4839)
(1.75978 -5.84723 0.277237 34.6939 18.0252 22.4261)
(43.7961 -12.2507 9.64836 63.9062 25.6256 57.5029)
(12.6054 -13.0044 -1.16771 69.1212 34.0453 35.5924)
(296.104 -234.577 -139.07 745.04 486.35 190.754)
(991.097 -397.025 -250.032 2757.66 1246.96 728.753)
(234.15 -221.492 -123.53 883.508 577.773 72.1474)
(-15.5576 -0.0335754 -6.44915 -11.471 -0.0386536 -22.7167)
(6.61488 -0.0441205 7.37455 -0.0604375 -0.185168 -6.7925)
(-15.7229 -0.0265798 -6.39191 -11.6796 -0.0249372 -23.2358)
(-2.94644 -2.0915 0.077661 19.6937 10.6092 14.3483)
(19.3119 -1.06694 11.7997 18.0863 5.38275 23.1793)
(-8.02956 -0.115047 -0.882714 7.10455 6.09435 3.83333)
(-16.3616 0.598436 -5.73634 -11.2122 0.108796 -21.2324)
(7.36583 0.361451 8.32266 1.30648 0.694979 -3.70187)
(-16.0941 0.754322 -5.24972 -10.5591 0.315573 -19.7732)
(-32.4027 0.060396 -14.2418 -27.3187 -0.0295434 -58.7386)
(-2.86381 0.00795774 -9.13289 0.790324 -0.164436 5.4927)
(-31.9718 0.0452596 -14.0514 -26.9796 -0.0665394 -57.9188)
(-4.62198 -0.0649102 -9.59788 -0.951958 -0.183376 1.47842)
(-34.7893 -0.118393 -14.9 -29.677 -0.264836 -64.2057)
(-33.7475 -0.0889467 -14.5354 -28.7464 -0.211263 -62.0078)
(-19.17 0.0571098 -7.39248 -14.8719 0.230654 -30.4499)
(2.25371 -0.0018539 6.11308 -4.24855 0.115109 -16.4313)
(-19.786 0.058368 -7.47419 -15.542 0.28407 -32.0587)
(-18.33 -0.0835641 -7.1679 -14.1655 -0.3117 -28.9581)
(2.86294 -0.0382171 6.31611 -3.69139 -0.230577 -15.1682)