/*--------------------------------*- C++ -*----------------------------------*\
| =========                 |                                                 |
| \\      /  F ield         | OpenFOAM: The Open Source CFD Toolbox           |
|  \\    /   O peration     | Version:  2012                                  |
|   \\  /    A nd           | Website:  www.openfoam.com                      |
|    \\/     M anipulation  |                                                 |
\*---------------------------------------------------------------------------*/
FoamFile
{
    version     2.0;
    format      ascii;
    class       volVectorField;
    location    "0.105/solid";
    object      sigmaMinDir;
}
// * * * * * * * * * * * * * * * * * * * * * * * * * * * * * * * * * * * * * //

dimensions      [1 -1 -2 0 0 0 0];


internalField   nonuniform List<vector> 
3125
(
(0.0795767 -0.00498145 0.996816)
(0.298725 -0.0937278 0.949726)
(0.0534467 -0.00088534 0.99857)
(0.0799856 -0.00130889 0.996795)
(0.0529997 -0.00162557 0.998593)
(0.173847 -0.0727457 0.982082)
(0.253172 -0.096905 0.962556)
(0.242339 -0.0456259 0.969118)
(0.0788826 0.00210538 0.996882)
(-0.15485 0.0104549 0.987883)
(-0.332983 -0.0383507 0.942153)
(-0.388767 -0.0431542 0.920325)
(0.0528812 -9.56545e-05 0.998601)
(0.054145 -0.00229681 0.99853)
(0.079495 -0.00234778 0.996833)
(0.00202874 -0.0781245 0.996942)
(-0.204056 0.00646697 0.978938)
(-0.383122 -0.0429869 0.922697)
(-0.340026 -0.0396471 0.93958)
(-0.269183 0.00991808 0.963038)
(-0.211532 0.00652969 0.977349)
(-0.27826 0.0105641 0.960448)
(0.924773 -0.0134133 0.380282)
(0.0780917 0.00141086 0.996945)
(0.949436 -0.00744435 0.313874)
(0.228777 0.558667 0.797215)
(0.458897 0.754303 0.469512)
(-0.229486 0.864074 0.44801)
(0.919578 -0.0139119 0.39266)
(0.05213 0.000214964 0.99864)
(0.0804819 -0.0268437 0.996395)
(0.108368 -0.0262461 0.993764)
(0.464045 0.354638 0.811723)
(0.898415 0.0491151 0.436392)
(-0.537652 -0.0114398 0.843089)
(-0.604683 -0.0129977 0.79636)
(0.0780079 -0.00237375 0.99695)
(0.95859 0.00344188 0.284769)
(0.951418 -0.0102468 0.307731)
(-0.638317 -8.08378e-05 0.769773)
(-0.610951 -0.00616745 0.791644)
(-0.0758446 -0.00890265 0.99708)
(-0.0719917 -0.00667304 0.997383)
(-0.187505 0.339176 0.921847)
(-0.302593 0.828778 0.470707)
(0.39648 0.849649 0.347708)
(-0.296619 -0.0232606 0.954713)
(-0.158687 -0.0590124 0.985564)
(-0.0865386 -0.00486142 0.996237)
(-0.289241 0.827084 0.481945)
(-0.0904336 -0.00879766 0.995864)
(-0.307554 -0.03024 0.95105)
(-0.0845672 -0.00550588 0.996403)
(-0.197631 -0.0103665 0.980222)
(-0.0748216 -0.00630253 0.997177)
(-0.342149 0.800326 0.492354)
(-0.117447 -0.0126702 0.992998)
(-0.123207 -0.0114858 0.992315)
(-0.405711 -0.0435302 0.912964)
(-0.137083 -0.0120145 0.990487)
(-0.104065 -0.0118327 0.9945)
(-0.115664 -0.0125644 0.993209)
(-0.411462 -0.0436203 0.910383)
(-0.139212 -0.0120875 0.990189)
(-0.523267 -0.0213761 0.851901)
(0.0519546 -0.000673659 0.998649)
(0.0681741 -0.014882 0.997562)
(0.100399 -0.0156398 0.994824)
(0.95739 2.22806e-05 0.2888)
(0.918761 0.0502759 0.391601)
(-0.193787 0.254068 0.947574)
(-0.5015 0.0405085 0.864209)
(-0.632981 0.00538108 0.774149)
(-0.547738 0.0325495 0.836016)
(-0.063795 0.00218043 0.997961)
(-0.0573222 0.00380602 0.998348)
(-0.161721 0.010068 0.986785)
(-0.129212 -0.119665 0.98437)
(-0.0732994 0.00366648 0.997303)
(-0.0790447 0.000322726 0.996871)
(-0.177345 0.00797506 0.984116)
(-0.0717446 0.00277365 0.997419)
(-0.138676 -0.0967326 0.985602)
(-0.0594465 0.00457749 0.998221)
(-0.0776274 -0.00920001 0.99694)
(-0.0899026 -0.010709 0.995893)
(-0.365705 -0.0422085 0.929773)
(-0.121331 -0.0114035 0.992547)
(-0.108327 -0.0106983 0.994058)
(-0.0924231 -0.00911301 0.995678)
(-0.359606 -0.0418082 0.932167)
(-0.106425 -0.0105651 0.994265)
(-0.102495 -0.0117249 0.994664)
(-0.09153 -0.0108614 0.995743)
(-0.0657574 0.00218536 0.997833)
(-0.0791348 0.00271095 0.99686)
(-0.243175 0.00813532 0.969948)
(-0.111671 0.0010341 0.993745)
(-0.0976992 0.000382064 0.995216)
(-0.081111 0.000236104 0.996705)
(-0.234924 0.00761347 0.971984)
(-0.0956885 0.00031418 0.995411)
(-0.0932144 0.00372736 0.995639)
(-0.0809277 0.00282294 0.996716)
(-0.110298 0.00517692 0.993885)
(-0.113713 0.00114618 0.993513)
(-0.306745 0.0126531 0.951707)
(-0.128917 0.00205337 0.991653)
(-0.0949969 0.00387138 0.99547)
(-0.108253 0.00499726 0.994111)
(-0.316677 0.0133985 0.948439)
(-0.13126 0.0022008 0.991346)
(0.00662098 -0.00309388 0.999973)
(0.0792196 0.000274402 0.996857)
(0.00437782 -0.00195789 0.999989)
(0.173528 0.146076 0.973935)
(0.476476 0.132284 0.869178)
(0.160287 0.670637 0.724262)
(0.0538059 -0.00223641 0.998549)
(0.0811921 -0.0063281 0.996678)
(0.00709385 -0.00296994 0.99997)
(0.00854722 -0.00403461 0.999955)
(0.0525441 -0.000248359 0.998619)
(0.130808 -0.0604599 0.989562)
(0.166717 -0.0713985 0.983416)
(0.142333 0.0637968 0.987761)
(0.0705433 -0.0106295 0.997452)
(0.0784131 -0.00189794 0.996919)
(0.00272366 0.000925385 0.999996)
(0.0016398 0.000105608 0.999999)
(-0.0303815 -0.00365526 0.999532)
(-0.0272139 -0.00316027 0.999625)
(-0.404566 0.342174 0.848082)
(-0.247634 0.0267924 0.968483)
(-0.158158 0.0320161 0.986895)
(-0.143556 0.00706317 0.989617)
(-0.267844 0.629368 0.72949)
(-0.182904 -0.0177219 0.982971)
(-0.325497 -0.0365564 0.944836)
(-0.174821 -0.0157411 0.984474)
(-0.256021 0.0703241 0.96411)
(-0.0800083 -0.00281731 0.99679)
(-0.0546184 -0.00556345 0.998492)
(-0.232475 -0.0208201 0.972379)
(-0.394386 -0.0433034 0.917924)
(-0.241482 -0.0210531 0.970177)
(-0.0447729 -0.00499373 0.998985)
(-0.0470159 -0.00513174 0.998881)
(-0.423246 -0.0437435 0.904958)
(-0.271176 -0.0214165 0.962291)
(0.0521347 -0.000851284 0.99864)
(0.0564479 -0.00320645 0.9984)
(0.0841138 -0.000685912 0.996456)
(0.00330663 0.000475373 0.999994)
(0.00616444 0.000328093 0.999981)
(-0.0275552 0.000949331 0.99962)
(-0.0231021 0.00083777 0.999733)
(-0.066365 0.0209252 0.997576)
(-0.04541 -0.144503 0.988462)
(-0.104391 0.00406316 0.994528)
(-0.14949 -0.0027513 0.988759)
(-0.196402 0.00664336 0.980501)
(-0.141427 -0.00172218 0.989947)
(-0.213217 -0.0189077 0.976822)
(-0.0666422 0.00640103 0.997756)
(-0.0314785 -0.00379878 0.999497)
(-0.0345558 -0.00415866 0.999394)
(-0.377425 -0.0427783 0.925052)
(-0.229409 -0.0208003 0.973108)
(-0.220692 -0.0205063 0.975128)
(-0.185805 -0.0181168 0.98242)
(-0.34679 -0.0405826 0.937064)
(-0.194419 -0.0191741 0.980731)
(-0.0440419 -0.00494726 0.999017)
(-0.0418627 -0.00479986 0.999112)
(-0.0289977 0.0010059 0.999579)
(-0.0329218 0.00119669 0.999457)
(-0.260312 0.00929465 0.96548)
(-0.198845 -0.00199119 0.980029)
(-0.189239 -0.00235748 0.981928)
(-0.152516 -0.00285588 0.988297)
(-0.219112 0.00677913 0.975676)
(-0.161144 -0.00312217 0.986926)
(-0.0443971 0.00205011 0.999012)
(-0.0418194 0.00182498 0.999124)
(-0.0566523 0.00322677 0.998389)
(-0.202385 -0.00177678 0.979304)
(-0.287543 0.0112366 0.957702)
(-0.212504 -0.00133213 0.977159)
(-0.0452567 0.00212811 0.998973)
(-0.0478779 0.00237169 0.99885)
(-0.337195 0.014978 0.941316)
(-0.24675 0.000562046 0.969079)
(-0.0817774 -0.00393007 0.996643)
(0.938285 -0.00313066 0.345848)
(-0.0863388 -0.00180986 0.996264)
(0.0789329 -0.00395647 0.996872)
(0.00326582 -0.000799346 0.999994)
(0.00398923 -0.00201048 0.99999)
(0.940932 -0.0168903 0.338173)
(-0.0884524 -0.000613403 0.99608)
(-0.0870538 -0.00275752 0.9962)
(0.0755039 0.232278 0.969714)
(-0.26385 0.8238 0.501733)
(0.0229329 0.738715 0.673628)
(0.568283 0.309673 0.762337)
(-0.00348636 0.83157 0.555408)
(0.122834 0.739135 0.662263)
(-0.311605 0.81394 0.49031)
(-0.0708207 0.839823 0.538221)
(-0.00941744 0.775446 0.631344)
(0.00913551 -0.00405892 0.99995)
(-0.0808616 -0.00281348 0.996721)
(0.899318 -0.0218257 0.436751)
(-0.0778124 -0.00481628 0.996956)
(0.8921 -0.00997789 0.451728)
(-0.0766673 -0.00406511 0.997048)
(0.0522504 -0.00129236 0.998633)
(0.100299 -0.041835 0.994077)
(0.146715 -0.0537068 0.98772)
(0.0259786 -0.00691002 0.999639)
(0.0554758 -0.0122933 0.998384)
(0.0554722 0.119179 0.991322)
(0.757752 0.0911745 0.646141)
(-0.0109957 0.00312838 0.999935)
(-0.0603199 -0.00392522 0.998171)
(0.803746 0.0820779 0.589284)
(-0.0263979 -0.00246093 0.999648)
(0.975917 0.0219547 -0.217033)
(-0.570013 -0.0129867 0.821533)
(0.976036 -0.023763 -0.216308)
(-0.578708 -0.0121187 0.815445)
(0.974865 -0.0301996 -0.220738)
(0.975863 0.016278 -0.217778)
(0.0783419 0.00264899 0.996923)
(0.00294137 -0.00092395 0.999995)
(0.00163993 0.000202846 0.999999)
(-0.0900476 0.00151707 0.995936)
(0.957037 -0.0119711 0.289718)
(-0.0916544 -0.000420153 0.995791)
(-0.0890622 -0.0017371 0.996025)
(0.956533 0.00125718 0.29162)
(-0.0915443 0.000492625 0.995801)
(0.973993 -0.0260714 -0.225074)
(-0.630272 -0.00448911 0.776361)
(0.974856 0.0154492 -0.222298)
(0.974735 0.0209219 -0.222381)
(-0.628843 -0.00493793 0.777517)
(0.974931 -0.0234496 -0.221269)
(-0.0404208 -0.00480106 0.999171)
(-0.0712953 -0.00789835 0.997424)
(-0.0368475 -0.00416958 0.999312)
(-0.0270193 -0.00256351 0.999632)
(-0.0264146 -0.00298384 0.999647)
(-0.0703726 -0.00753364 0.997492)
(-0.0373711 -0.00345576 0.999295)
(-0.0360406 -0.00394891 0.999343)
(0.971457 -0.10052 -0.214865)
(-0.344645 0.711656 0.612181)
(0.850391 -0.471972 -0.232548)
(-0.380434 0.738069 0.557247)
(0.648245 -0.647868 -0.400056)
(0.803206 -0.530021 -0.271917)
(-0.492239 0.508753 0.706308)
(-0.0586064 0.81953 0.570032)
(-0.264604 0.720134 0.641398)
(-0.272589 -0.0171672 0.961977)
(-0.162892 -0.00911821 0.986602)
(-0.150441 0.00300973 0.988614)
(-0.15798 0.0496908 0.986191)
(-0.1106 -0.00323225 0.99386)
(-0.159165 0.620838 0.767611)
(-0.128101 0.000744354 0.991761)
(-0.44529 0.686971 0.574271)
(-0.13686 -0.00727121 0.990564)
(-0.101867 -0.00521152 0.994784)
(-0.132617 0.0024834 0.991164)
(-0.133348 0.810349 0.570572)
(-0.117913 0.887655 0.445158)
(-0.266162 0.711409 0.650427)
(-0.15218 -0.0142947 0.988249)
(-0.0852996 -0.00762204 0.996326)
(-0.145064 -0.0126232 0.989342)
(-0.31736 -0.0338565 0.947701)
(-0.164981 -0.0108259 0.986237)
(-0.172312 -0.0149115 0.984929)
(-0.0841563 -0.00714508 0.996427)
(-0.138055 -0.00856371 0.990388)
(-0.142976 -0.0119093 0.989655)
(-0.0294621 -0.00248253 0.999563)
(-0.0559669 -0.00336832 0.998427)
(-0.276687 0.0659063 0.958697)
(-0.110881 -0.00438596 0.993824)
(-0.22703 0.68823 0.689055)
(-0.0925213 -0.00419091 0.995702)
(-0.396098 0.807195 0.437656)
(-0.0404378 -0.00336497 0.999176)
(-0.0972729 -0.00992917 0.995208)
(-0.0688902 -0.00487536 0.997612)
(-0.610655 0.671845 0.419195)
(-0.18523 0.873193 0.450803)
(-0.583283 0.666929 0.463666)
(-0.0510378 -0.00536763 0.998682)
(-0.0536882 -0.00551263 0.998543)
(-0.124995 -0.013106 0.992071)
(-0.0707856 -0.00735107 0.997464)
(-0.0662697 -0.00708892 0.997777)
(-0.123042 -0.0129954 0.992316)
(-0.0696132 -0.00728341 0.997547)
(-0.197095 -0.0172378 0.980233)
(-0.128965 -0.0117186 0.99158)
(-0.205299 -0.0174653 0.978543)
(-0.400025 -0.0434276 0.915475)
(-0.254144 -0.021257 0.966933)
(-0.244676 -0.0210627 0.969376)
(-0.13094 -0.0117934 0.99132)
(-0.216836 -0.0177122 0.976047)
(-0.208154 -0.0175107 0.977939)
(-0.0501972 -0.00531969 0.998725)
(-0.0477872 -0.00517749 0.998844)
(-0.0583334 -0.00658568 0.998275)
(-0.108876 -0.0121475 0.993981)
(-0.0611797 -0.00677242 0.998104)
(-0.0652077 -0.00702496 0.997847)
(-0.110527 -0.0122506 0.993798)
(-0.0621575 -0.00683472 0.998043)
(-0.148208 -0.0123797 0.988879)
(-0.232447 -0.0179688 0.972443)
(-0.417297 -0.0436972 0.907719)
(-0.257518 -0.0212585 0.96604)
(-0.267583 -0.0214195 0.963297)
(-0.145884 -0.0123064 0.989225)
(-0.219876 -0.0177506 0.975366)
(-0.229179 -0.0179343 0.973219)
(0.97606 -0.0308939 -0.215297)
(-0.481499 -0.0167112 0.876287)
(0.977261 0.017698 -0.211302)
(-0.4655 -0.0190697 0.884843)
(0.977458 -0.0255958 -0.209574)
(0.0518569 0.000630297 0.998654)
(0.0607386 -0.00870016 0.998116)
(0.0867409 -0.00734108 0.996204)
(0.0200393 -0.00451912 0.999789)
(0.00821701 -0.000610022 0.999966)
(-0.0893708 0.000146352 0.995998)
(0.952454 0.0186524 0.30411)
(-0.0859411 0.00126742 0.996299)
(-0.0674619 -0.00165454 0.99772)
(0.948495 0.00778877 0.316696)
(-0.083405 -0.00015081 0.996516)
(0.972717 -0.0773853 -0.218706)
(-0.32222 0.0947225 0.941914)
(0.975377 -0.0103464 -0.220303)
(-0.376405 0.0678324 0.923969)
(0.97438 0.0283022 -0.223121)
(0.975237 -0.0403805 -0.217445)
(0.973976 0.0218815 -0.225591)
(-0.622617 0.0111833 0.782447)
(0.974284 -0.0260244 -0.223814)
(-0.609224 0.0122307 0.792904)
(0.974012 -0.0160557 -0.225928)
(0.974163 0.00810638 -0.225702)
(-0.0352371 0.00135942 0.999378)
(-0.0585376 0.0024046 0.998282)
(-0.0305718 0.00135618 0.999532)
(-0.0204921 0.00116162 0.999789)
(-0.0217774 0.000841751 0.999762)
(-0.057286 0.00260229 0.998354)
(-0.028946 0.00207101 0.999579)
(-0.0293119 0.00142515 0.999569)
(-0.134958 0.0100466 0.9908)
(-0.127663 0.00317581 0.991813)
(-0.11211 0.00539959 0.993681)
(-0.0663043 -0.146758 0.986948)
(-0.0942168 0.00860542 0.995515)
(-0.0989852 0.00460274 0.995078)
(-0.110522 0.00376894 0.993867)
(-0.0864587 0.00761991 0.996226)
(-0.103322 0.00569253 0.994632)
(-0.127294 -0.00139477 0.991864)
(-0.0735816 0.000870875 0.997289)
(-0.12008 -0.00057079 0.992764)
(-0.187958 0.00720198 0.982151)
(-0.130632 0.00158008 0.99143)
(-0.138699 -0.00122191 0.990334)
(-0.0722662 0.00119079 0.997385)
(-0.112226 0.00232368 0.99368)
(-0.117873 -7.86273e-05 0.993029)
(-0.022193 0.00151885 0.999753)
(-0.0458449 0.00387218 0.998941)
(-0.201192 -0.0400274 0.978734)
(-0.089531 0.010325 0.995931)
(-0.0747282 0.00771985 0.997174)
(-0.0312542 0.00259594 0.999508)
(-0.0770987 0.00803441 0.996991)
(-0.0559833 0.00532051 0.998418)
(-0.0417185 -0.00498713 0.999117)
(-0.0830558 -0.0099597 0.996495)
(-0.0454531 -0.00545934 0.998952)
(-0.0380665 -0.00450077 0.999265)
(-0.0354925 -0.00425651 0.999361)
(-0.0848215 -0.0101713 0.996344)
(-0.0498316 -0.00591683 0.99874)
(-0.0466117 -0.0055897 0.998897)
(-0.37163 -0.0425293 0.927406)
(-0.209074 -0.0200655 0.977694)
(-0.217691 -0.0204646 0.975803)
(-0.194369 -0.0171823 0.980778)
(-0.115771 -0.0111366 0.993213)
(-0.186456 -0.0169078 0.982318)
(-0.175966 -0.0164687 0.984258)
(-0.113924 -0.011038 0.993428)
(-0.183793 -0.016832 0.982821)
(-0.154787 -0.0146709 0.987839)
(-0.0985379 -0.00987456 0.995084)
(-0.162687 -0.0155963 0.986554)
(-0.353306 -0.0412834 0.934596)
(-0.206079 -0.0199781 0.978331)
(-0.197423 -0.0193627 0.980127)
(-0.100553 -0.0100756 0.994881)
(-0.173297 -0.0163515 0.984734)
(-0.165387 -0.0158016 0.986102)
(-0.0388618 -0.00456894 0.999234)
(-0.0411305 -0.00474717 0.999143)
(-0.0574052 -0.0065224 0.99833)
(-0.0978319 -0.0113862 0.995138)
(-0.0546371 -0.00632228 0.998486)
(-0.0508345 -0.0060089 0.998689)
(-0.0962764 -0.0112655 0.995291)
(-0.0537076 -0.00625021 0.998537)
(-0.0368292 0.0014004 0.999321)
(-0.0716636 0.00233456 0.997426)
(-0.0413013 0.00157832 0.999145)
(-0.0372556 0.0014699 0.999305)
(-0.034091 0.00126388 0.999418)
(-0.073582 0.00241482 0.997286)
(-0.046446 0.00188022 0.998919)
(-0.0426695 0.00164923 0.999088)
(-0.251642 0.00869626 0.967781)
(-0.176605 -0.00281394 0.984278)
(-0.18584 -0.00254696 0.982577)
(-0.171686 -0.000604595 0.985152)
(-0.105653 0.000723254 0.994403)
(-0.163024 -0.00101568 0.986622)
(-0.151749 -0.00145067 0.988418)
(-0.103667 0.000629401 0.994612)
(-0.160123 -0.00112799 0.987096)
(-0.129932 -0.00154439 0.991522)
(-0.0874441 0.000156541 0.996169)
(-0.137921 -0.00169481 0.990442)
(-0.226903 0.00715217 0.973891)
(-0.173306 -0.00296361 0.984864)
(-0.164345 -0.0030539 0.986398)
(-0.0895383 0.000174675 0.995983)
(-0.148919 -0.00152612 0.988848)
(-0.140702 -0.00169257 0.990051)
(-0.0382209 0.0015393 0.999268)
(-0.0409467 0.00175196 0.99916)
(-0.0552688 0.00258331 0.998468)
(-0.0879486 0.00331671 0.996119)
(-0.0520491 0.00230589 0.998642)
(-0.0476175 0.00196198 0.998864)
(-0.086204 0.00318715 0.996272)
(-0.0509664 0.00221706 0.998698)
(-0.0525338 0.00281739 0.998615)
(-0.0555832 0.00312021 0.998449)
(-0.118966 0.00594967 0.992881)
(-0.0707349 0.00405714 0.997487)
(-0.065528 0.00354336 0.997844)
(-0.11672 0.00574781 0.993148)
(-0.0693834 0.00392286 0.997582)
(-0.174711 -0.000468116 0.98462)
(-0.120005 0.00150931 0.992772)
(-0.183836 1.20682e-05 0.982957)
(-0.297037 0.0119306 0.954791)
(-0.227008 -0.000578207 0.973893)
(-0.216235 -0.00109643 0.976341)
(-0.122171 0.00163896 0.992508)
(-0.196789 0.000716702 0.980446)
(-0.187042 0.000170264 0.982352)
(-0.0515641 0.00272319 0.998666)
(-0.0487752 0.002457 0.998807)
(-0.0563474 0.00268029 0.998408)
(-0.100483 0.00432824 0.994929)
(-0.0596478 0.00298385 0.998215)
(-0.0643026 0.0034243 0.997925)
(-0.10237 0.00448905 0.994736)
(-0.0607797 0.00309036 0.998146)
(-0.141172 0.00284026 0.989981)
(-0.214438 0.00172193 0.976736)
(-0.326826 0.0141707 0.944978)
(-0.230973 -0.000319234 0.97296)
(-0.242516 0.000279276 0.970147)
(-0.138607 0.00267259 0.990344)
(-0.200226 0.000898261 0.979749)
(-0.210729 0.0015158 0.977543)
(-0.0123335 -0.00127044 0.999923)
(-0.0117203 -0.00124279 0.999931)
(-0.20398 -0.0175109 0.978818)
(-0.125223 0.0112219 0.992065)
(-0.0191308 -0.0016985 0.999816)
(-0.01946 -0.00172366 0.999809)
(-0.011766 0.000961751 0.99993)
(-0.0109493 0.000861051 0.99994)
(-0.194296 -0.00280058 0.980939)
(-0.107125 0.0162939 0.994112)
(-0.0129168 -0.00129863 0.999916)
(-0.0134657 -0.00132755 0.999908)
(-0.0188047 -0.00167361 0.999822)
(-0.0184801 -0.0016492 0.999828)
(-0.0125294 0.00105431 0.999921)
(-0.0132378 0.00113933 0.999912)
(-0.0197176 0.00188028 0.999804)
(-0.0193432 0.00183974 0.999811)
(-0.020092 0.00192109 0.999796)
(-0.0204684 0.00196181 0.999789)
(0.251817 0.952215 -0.172846)
(0.929875 -0.0191337 0.367378)
(0.211984 0.965721 -0.149818)
(0.947152 -0.00436213 0.320756)
(-0.0722656 0.996573 0.040249)
(-0.0745195 0.996273 0.0434283)
(-0.0994355 0.814453 0.571646)
(-0.0726659 0.761731 0.643805)
(-0.146026 0.845737 0.513231)
(-0.314861 0.820322 0.477424)
(-0.187019 0.885791 0.424734)
(-0.24275 0.860203 0.448468)
(-0.0293293 0.99948 0.0133837)
(0.91441 -0.0115974 0.404622)
(-0.025146 0.999615 0.0117512)
(-0.0517591 0.789651 0.611369)
(0.601947 0.219711 0.767715)
(-0.0317316 0.792112 0.60955)
(0.250877 0.959066 -0.13135)
(0.879097 0.0612013 0.472697)
(0.206852 0.974823 -0.0832644)
(0.914645 0.0583887 -0.400018)
(-0.540263 -0.013497 0.841388)
(0.914474 0.0584944 -0.400394)
(-0.590278 -0.0116046 0.807116)
(0.922634 -0.00636613 -0.385625)
(0.921151 0.000255634 -0.389205)
(-0.0652988 0.996818 0.0457267)
(0.958316 0.00373692 0.285686)
(-0.0798009 0.99539 0.0531975)
(0.094584 0.99328 -0.066703)
(0.953571 -0.0123803 0.300913)
(0.0964066 0.992937 -0.0691507)
(0.925216 -0.0320412 -0.378087)
(-0.630428 -0.000895371 0.776247)
(0.924535 -0.0259395 -0.380214)
(0.922483 0.0403691 -0.383921)
(-0.61294 -0.00654407 0.790102)
(0.922425 0.0399876 -0.384101)
(-0.0636403 -0.00823843 0.997939)
(-0.0741443 -0.00858522 0.997211)
(-0.083639 -0.0128313 0.996414)
(-0.0819624 -0.0125291 0.996557)
(-0.0621017 -0.00795791 0.998038)
(-0.0090994 -0.00127892 0.999958)
(-0.00904963 -0.00119733 0.999958)
(-0.0798449 -0.0115113 0.996741)
(-0.0704345 -0.00684479 0.997493)
(-0.0608755 -0.00648402 0.998124)
(-0.0783082 -0.0115022 0.996863)
(-0.059087 -0.00656089 0.998231)
(-0.537762 0.608404 0.583657)
(-0.235877 0.484678 0.842288)
(-0.495867 0.630315 0.597343)
(-0.377536 0.777122 0.503535)
(-0.394965 0.786389 0.474969)
(-0.454678 0.739912 0.49578)
(-0.165602 0.150036 0.974713)
(-0.136499 -0.0712974 0.988071)
(-0.144066 -0.0257916 0.989232)
(-0.178999 0.1339 0.974695)
(-0.171957 0.0926614 0.980737)
(-0.13059 -0.030742 0.99096)
(-0.153575 0.179222 0.971748)
(-0.115794 -0.013649 0.993179)
(-0.0963321 -0.0131759 0.995262)
(-0.0999537 -0.00523796 0.994978)
(-0.0901561 -0.00452435 0.995917)
(-0.113596 -0.0139997 0.993428)
(-0.100017 -0.0135222 0.994894)
(-0.102132 -0.00420461 0.994762)
(-0.229816 0.858326 0.458761)
(-0.157702 0.887022 0.433961)
(-0.159155 0.888862 0.429645)
(-0.118366 -0.0166194 0.992831)
(-0.107116 -0.00999563 0.994196)
(-0.0885372 -0.0084456 0.996037)
(-0.0998645 -0.0151192 0.994886)
(-0.0980169 -0.0147796 0.995075)
(-0.105055 -0.00962029 0.99442)
(-0.120397 -0.0170058 0.99258)
(-0.112188 -0.0146268 0.993579)
(-0.094341 -0.0131797 0.995453)
(-0.0835679 -0.00606676 0.996484)
(-0.0990046 -0.0060352 0.995069)
(-0.0932822 -0.0132935 0.995551)
(-0.112578 -0.0142484 0.993541)
(-0.0986849 -0.00685772 0.995095)
(-0.00984007 -0.00134858 0.999951)
(-0.0116377 -0.00168394 0.999931)
(-0.215409 0.0281138 0.976119)
(-0.174522 -0.00357485 0.984647)
(-0.222776 0.172786 0.959435)
(-0.193239 0.117921 0.97404)
(-0.18091 0.0295546 0.983056)
(-0.236743 0.20542 0.949608)
(-0.0825329 -0.0119291 0.996517)
(-0.0641924 -0.00628404 0.997918)
(-0.0798092 -0.00683568 0.996787)
(-0.0874803 -0.0122725 0.996091)
(-0.069907 -0.00680256 0.99753)
(-0.409997 0.770384 0.488273)
(-0.228329 0.863975 0.448791)
(-0.331437 0.822821 0.461644)
(-0.0219297 -0.00192167 0.999758)
(-0.0223163 -0.0019528 0.999749)
(-0.12401 -0.0184875 0.992109)
(-0.0994095 -0.0118345 0.994976)
(-0.119269 -0.012777 0.99278)
(-0.125752 -0.0187132 0.991885)
(-0.100954 -0.0119421 0.994819)
(-0.15694 -0.0218264 0.987367)
(-0.143668 -0.0126466 0.989545)
(-0.130935 -0.0193752 0.991202)
(-0.125101 -0.0115655 0.992077)
(-0.132678 -0.0195817 0.990966)
(-0.154977 -0.0216012 0.987682)
(-0.145825 -0.0127198 0.989229)
(-0.167139 -0.0229459 0.985666)
(-0.143661 -0.0208588 0.989407)
(-0.134997 -0.0119411 0.990774)
(-0.159465 -0.0131207 0.987116)
(-0.141753 -0.0206346 0.989687)
(-0.169276 -0.0231804 0.985296)
(-0.157095 -0.013056 0.987497)
(-0.0215532 -0.00189101 0.999766)
(-0.0211859 -0.00186101 0.999774)
(-0.0880873 -0.0109959 0.996052)
(-0.111183 -0.0168233 0.993658)
(-0.105648 -0.0119389 0.994332)
(-0.112703 -0.0170238 0.993483)
(-0.0894265 -0.0111009 0.995932)
(-0.122304 -0.0182673 0.992325)
(-0.0978987 -0.0117285 0.995127)
(-0.113918 -0.0124594 0.993412)
(-0.120632 -0.0180461 0.992533)
(-0.0964198 -0.0116228 0.995273)
(-0.173684 -0.0236567 0.984517)
(-0.145607 -0.0210827 0.989118)
(-0.141387 -0.0121596 0.98988)
(-0.161885 -0.0131835 0.986722)
(-0.147595 -0.0213112 0.988818)
(-0.17146 -0.0234125 0.984913)
(-0.164353 -0.0132459 0.986313)
(0.914317 0.0208161 -0.404463)
(-0.50115 -0.0195336 0.86514)
(0.91154 0.0251757 -0.410439)
(0.0947782 0.993952 -0.0554694)
(0.957259 0.000488826 0.289233)
(0.115329 0.991134 -0.0659674)
(0.188394 0.979932 -0.065121)
(0.932172 0.0452693 0.359173)
(0.126962 0.991713 -0.0196391)
(-0.600334 0.608695 0.518738)
(-0.214231 0.181403 0.959791)
(0.657195 -0.583842 -0.47668)
(-0.463359 0.0494588 0.884789)
(0.908816 -0.0935077 -0.406584)
(0.899218 -0.138054 -0.415148)
(0.925178 0.0122838 -0.379334)
(-0.630531 0.00631307 0.776139)
(0.924832 0.00777335 -0.380296)
(-0.565589 0.0276178 0.824225)
(0.912388 -0.104792 -0.395685)
(0.91541 -0.0878076 -0.392828)
(-0.0527916 0.00242658 0.998603)
(-0.0618935 0.00220844 0.99808)
(-0.0607742 0.00764519 0.998122)
(-0.0509474 0.00244693 0.998698)
(-0.0588208 0.00735789 0.998241)
(-0.00645558 0.000207423 0.999979)
(-0.00681456 0.000274529 0.999977)
(-0.0531253 0.0066186 0.998566)
(-0.0564403 0.00328961 0.998401)
(-0.0465763 0.00396334 0.998907)
(-0.0455825 0.00346586 0.998955)
(-0.0526359 0.00647936 0.998593)
(-0.0773674 -0.011004 0.996942)
(-0.112715 -0.129218 0.985189)
(-0.113705 -0.0150113 0.993401)
(-0.105718 -0.0852313 0.990737)
(-0.101985 -0.0275037 0.994406)
(-0.0909913 -0.00294519 0.995847)
(-0.083478 -0.0959754 0.991877)
(-0.0732728 0.00949091 0.997267)
(-0.0635187 0.00792194 0.997949)
(-0.0845125 0.00355202 0.996416)
(-0.0762149 0.00466741 0.99708)
(-0.0860877 0.00471401 0.996276)
(-0.0724557 0.00868478 0.997334)
(-0.0656512 0.0087453 0.997804)
(-0.0807121 0.00780779 0.996707)
(-0.0932083 -0.000286449 0.995647)
(-0.0770603 0.000451074 0.997026)
(-0.0712563 0.00767742 0.997428)
(-0.0910872 -0.000133732 0.995843)
(-0.0692243 0.00748165 0.997573)
(-0.0828631 0.00796295 0.996529)
(-0.0728095 0.0078566 0.997315)
(-0.0625465 0.0074925 0.998014)
(-0.0711566 0.00212868 0.997463)
(-0.0839195 0.00252848 0.996469)
(-0.0839572 0.00178628 0.996468)
(-0.0624242 0.00723956 0.998023)
(-0.0723428 0.00814862 0.997347)
(-0.00675521 7.97121e-05 0.999977)
(-0.00805036 0.000195141 0.999968)
(-0.157221 -0.0761944 0.98462)
(-0.123029 1.36463e-05 0.992403)
(-0.111209 -0.0652936 0.99165)
(-0.132274 0.00124659 0.991212)
(-0.104089 0.00727053 0.994541)
(-0.0547147 0.0068446 0.998479)
(-0.0490029 0.00470146 0.998788)
(-0.0632147 0.00539908 0.997985)
(-0.0533373 0.0054573 0.998562)
(-0.0577391 0.00763135 0.998303)
(-0.0652454 -0.00850492 0.997833)
(-0.0853978 -0.0131319 0.99626)
(-0.0794423 -0.00947561 0.996794)
(-0.0871881 -0.013428 0.996101)
(-0.0668702 -0.00875484 0.997723)
(-0.016111 -0.00148285 0.999869)
(-0.0157316 -0.00145825 0.999875)
(-0.0974675 -0.0149743 0.995126)
(-0.0882447 -0.0105445 0.996043)
(-0.0760354 -0.00990482 0.997056)
(-0.095845 -0.014743 0.995287)
(-0.0746033 -0.00974851 0.997166)
(-0.151091 -0.0211634 0.988293)
(-0.14153 -0.0125717 0.989854)
(-0.129205 -0.0191696 0.991433)
(-0.119469 -0.011318 0.992773)
(-0.153027 -0.0213851 0.987991)
(-0.127486 -0.0189625 0.991659)
(-0.139413 -0.0124923 0.990156)
(-0.141383 -0.0200227 0.989753)
(-0.117079 -0.0176678 0.992965)
(-0.126804 -0.0119079 0.991856)
(-0.110207 -0.0108196 0.99385)
(-0.139398 -0.0197731 0.990039)
(-0.118852 -0.0178959 0.992751)
(-0.128917 -0.0120244 0.991582)
(-0.124682 -0.0177327 0.992038)
(-0.109274 -0.0103241 0.993958)
(-0.101802 -0.0154505 0.994685)
(-0.0944557 -0.00939606 0.995485)
(-0.12252 -0.0173726 0.992314)
(-0.103779 -0.0157736 0.994475)
(-0.11148 -0.0106162 0.99371)
(-0.135346 -0.0192576 0.990611)
(-0.115278 -0.0174319 0.99318)
(-0.104497 -0.0104184 0.994471)
(-0.124672 -0.0117799 0.992128)
(-0.113445 -0.0171857 0.993396)
(-0.137386 -0.0195228 0.990325)
(-0.122522 -0.0116369 0.992398)
(-0.016475 -0.00150629 0.999863)
(-0.0168266 -0.00152985 0.999857)
(-0.0867597 -0.0108898 0.99617)
(-0.109673 -0.0166263 0.993829)
(-0.100937 -0.0116148 0.994825)
(-0.108173 -0.0164223 0.993996)
(-0.085441 -0.0107816 0.996285)
(-0.0990562 -0.0151954 0.994966)
(-0.0774346 -0.0100504 0.996947)
(-0.0931308 -0.0110037 0.995593)
(-0.100615 -0.0154125 0.994806)
(-0.0788066 -0.0101873 0.996838)
(-0.0546734 0.00243819 0.998501)
(-0.0627816 0.00794171 0.997996)
(-0.0677389 0.00221574 0.997701)
(-0.0565536 0.00247395 0.998396)
(-0.0648068 0.00824065 0.997864)
(-0.0165413 0.00152691 0.999862)
(-0.0160786 0.00147327 0.99987)
(-0.0765291 0.00998809 0.997017)
(-0.077316 0.00260472 0.997003)
(-0.0670407 0.00298272 0.997746)
(-0.0653982 0.00287576 0.997855)
(-0.074644 0.00970503 0.997163)
(-0.117442 0.0116892 0.993011)
(-0.129315 0.000400275 0.991603)
(-0.10965 0.000926362 0.99397)
(-0.104734 0.0118952 0.994429)
(-0.127021 0.000285268 0.9919)
(-0.102617 0.0116046 0.994653)
(-0.119852 0.0119869 0.992719)
(-0.105742 0.0102965 0.99434)
(-0.0902159 0.00993688 0.995873)
(-0.113546 -0.000290041 0.993533)
(-0.0996953 0.00045852 0.995018)
(-0.115779 -0.000210443 0.993275)
(-0.103443 0.0100287 0.994585)
(-0.0922719 0.0102088 0.995682)
(-0.0873527 0.00833637 0.996143)
(-0.0954176 -0.000392911 0.995437)
(-0.0733549 0.00789427 0.997275)
(-0.0832159 0.000183092 0.996532)
(-0.0850874 0.00813672 0.99634)
(-0.0976725 -0.000461215 0.995219)
(-0.0754853 0.00812721 0.997114)
(-0.0988483 0.00950842 0.995057)
(-0.0881528 0.00966925 0.99606)
(-0.0936606 0.000256037 0.995604)
(-0.111304 -0.000359634 0.993786)
(-0.109056 -0.000418503 0.994036)
(-0.0860784 0.0094024 0.996244)
(-0.101145 0.00976985 0.994824)
(-0.0169812 0.00157716 0.999855)
(-0.0174026 0.001625 0.999847)
(-0.0795192 0.00399359 0.996825)
(-0.0914486 0.00358633 0.995803)
(-0.0913142 0.0122255 0.995747)
(-0.0779684 0.00385398 0.996948)
(-0.0894456 0.0119402 0.99592)
(-0.0783936 0.0102691 0.99687)
(-0.0686505 0.00309514 0.997636)
(-0.0826998 0.0029402 0.99657)
(-0.0702338 0.00321202 0.997525)
(-0.0802434 0.0105469 0.996719)
(-0.0232499 0.00225652 0.999727)
(-0.0236812 0.00230192 0.999717)
(-0.109492 0.0150017 0.993874)
(-0.0944696 0.00542501 0.995513)
(-0.112389 0.00536153 0.99365)
(-0.0963 0.00560745 0.995337)
(-0.111724 0.0153441 0.993621)
(-0.124774 0.0125883 0.992105)
(-0.131637 0.000519722 0.991298)
(-0.11578 0.00126281 0.993274)
(-0.106877 0.0121897 0.994198)
(-0.133987 0.000644429 0.990983)
(-0.122296 0.0122826 0.992418)
(-0.109049 0.0124906 0.993958)
(-0.137845 0.0142082 0.990352)
(-0.122915 0.0144265 0.992312)
(-0.126623 0.00191055 0.991949)
(-0.14893 0.0014909 0.988847)
(-0.146324 0.00133771 0.989236)
(-0.120488 0.0140854 0.992615)
(-0.140618 0.0145597 0.989957)
(-0.0228294 0.00221234 0.999737)
(-0.022418 0.00216896 0.999746)
(-0.0810826 0.00413663 0.996699)
(-0.0967998 0.00401925 0.995296)
(-0.0932041 0.0125123 0.995568)
(-0.0826624 0.00428293 0.996568)
(-0.0951189 0.0128033 0.995384)
(-0.107311 0.0146688 0.994117)
(-0.0926808 0.00524719 0.995682)
(-0.106252 0.00482236 0.994328)
(-0.0909307 0.00507517 0.995844)
(-0.105178 0.0143406 0.99435)
(-0.146343 0.0152778 0.989116)
(-0.125395 0.0147742 0.991997)
(-0.133654 0.00235349 0.991025)
(-0.151593 0.00164883 0.988442)
(-0.15431 0.00181268 0.988021)
(-0.127931 0.0151319 0.991668)
(-0.14345 0.0149122 0.989545)
(0.00249422 -0.00188949 0.999995)
(0.00501368 -0.00277256 0.999984)
(0.105037 -0.00225194 0.994466)
(0.00561527 -0.00311089 0.999979)
(0.00325741 -0.00200854 0.999993)
(0.104495 -0.00259646 0.994522)
(0.00432054 -0.00252159 0.999987)
(0.00140882 -0.000922475 0.999999)
(0.103958 -0.00119147 0.994581)
(0.00478141 -0.00230533 0.999986)
(0.00298835 -0.00175806 0.999994)
(0.103964 -0.00153202 0.99458)
(0.000748296 -0.0011438 0.999999)
(0.00357348 -0.00181689 0.999992)
(0.166712 0.152039 0.974213)
(0.198792 0.058761 0.978278)
(0.18611 0.103229 0.977091)
(0.198929 0.310985 0.929363)
(0.117086 0.0338795 0.992544)
(0.2131 0.301757 0.929264)
(0.248647 0.179779 0.951764)
(0.254083 0.446038 0.858191)
(0.144933 0.903304 0.403778)
(0.198964 0.49542 0.84556)
(0.286969 0.567317 0.771881)
(0.213306 0.639126 0.738931)
(0.284103 0.852392 0.438991)
(0.290265 0.352191 0.88978)
(0.0517472 0.000341936 0.99866)
(0.0519807 0.000441169 0.998648)
(0.053399 -0.00111013 0.998573)