/*--------------------------------*- C++ -*----------------------------------*\
| =========                 |                                                 |
| \\      /  F ield         | OpenFOAM: The Open Source CFD Toolbox           |
|  \\    /   O peration     | Version:  2012                                  |
|   \\  /    A nd           | Website:  www.openfoam.com                      |
|    \\/     M anipulation  |                                                 |
\*---------------------------------------------------------------------------*/
FoamFile
{
    version     2.0;
    format      ascii;
    class       volScalarField;
    location    "0.105/solid";
    object      sigmaMid;
}
// * * * * * * * * * * * * * * * * * * * * * * * * * * * * * * * * * * * * * //

dimensions      [1 -1 -2 0 0 0 0];


internalField   nonuniform List<scalar> 
3125
(
-152.372
-188.811
-166.651
-152.893
-165.892
-213.182
-178.411
-282.868
-151.916
-91633.4
-12173.9
-7157.11
-165.691
-166.403
-152.35
-163566
12953.7
-7685.1
-11640.6
12236.3
13705
11727.4
0.677853
-150.863
2.97532
-41.8803
-285.335
-731.956
0.307212
-164.614
-172.531
-157.079
-29.2481
-0.35728
-0.893536
1.46993
-150.835
4.03137
3.18629
2.7863
1.70203
-763.246
-1428.82
-31.9785
-511.424
-1101.96
-14859.8
-325612
-6862.47
-515.41
-3626.12
-13510.6
-4024.3
-360418
-3430.53
-510.065
140.804
-2033.34
-5658.85
-1299.97
-187.661
100.932
-5190.77
-1201.74
-1.36737
-164.598
-170.096
-156.2
3.87892
0.865943
-23.0639
-1.77323
2.59895
-0.25311
-18512.7
-33896.3
-14981.2
-399417
-28986.3
-1350.33
-563.917
-19252.9
-428183
-42791.2
-736.649
-538.868
-9353.1
-2143.74
-2902.71
-3573.52
-9928.1
-3003.96
-231.275
-504.791
-18298.7
-16370.5
13490.1
1080.54
-867.955
-1246.3
13767.1
-1027.51
-11755.1
-15907.5
-5604.12
1429.69
10087.8
3689.96
-11085.9
-6286.37
9527.44
3870.02
-104.185
-151.628
-103.063
-154.725
-269.605
-196.371
-167.615
-154.34
-104.628
-106.15
-165.26
-188.314
-163.288
-141.998
-117.871
-151.377
-102.504
-102.017
35590.2
36013.3
-20396.9
-24956.3
-138492
-64431.1
-17949.1
-8474.81
-12662.7
-8951.86
-484727
-44960.3
15796.5
-5658.96
-6639.79
-5224.92
24217
21986
-4310.81
-3860.19
-165.145
-167.338
-153.729
-102.796
-104.089
-67569.2
-67886.8
-75672.9
-269159
-93083.8
1983.29
11167.3
1998.02
-379328
-125526
35231.6
33702.3
-8228.55
-5852.53
-6304.02
-8303.77
-11083
-7831.49
24972.3
27262.7
-67118.6
-64809.1
12708.7
1137.53
1370.62
2037.76
13952.7
1793.22
-48429.2
-52966.2
-29551.1
1161.35
11194
946.919
-46910.5
-42386.3
8419.86
648.837
-74.8207
1.88563
-73.5892
-151.347
-102.18
-102.778
2.12992
-72.7169
-73.3056
-122.16
-85.4163
-140.278
-297.335
-739.895
-151.992
-96.0207
-866.526
-111.02
-106.75
-75.2388
-1.12916
-76.6581
-1.59895
-77.2137
-164.844
-177.405
-161.2
-108.691
-114.635
-111.07
-8.24477
-87.2406
-78.3184
-5.50034
-84.0862
53.6381
0.22248
54.6459
0.522609
55.9519
55.1912
-151.142
-102.067
-101.942
-72.6683
3.87842
-72.2591
-72.5724
3.82771
-72.2354
58.2367
2.44413
57.8733
56.6593
2.38485
57.3106
26075
-863.06
26481.8
34250.6
35864.8
-957.441
25390.2
26397.2
42.7182
-56.6487
33.5741
-71.7469
8.77728
35.537
-7947.98
-608.713
-8815.83
-11581.6
-9806.82
-42749.4
-177789
-111184
-9914.3
-70265.4
796.738
-7586.66
-65910.8
-50300.9
-328.185
-19214.8
-13478
-6733.69
-3731.05
-7136.08
-13155.9
-10055
-9022.39
-3752.34
-8003.79
-7189.05
33112.1
1888.03
-435337
-107711
-5689.24
-74285.8
-11639.5
24357.3
-53903
-21306.8
-21.4089
-15142.2
-100.197
18437.4
16437.5
292.593
11692.4
13584.3
256.321
12151.5
-4387.35
-1709
-4009.62
-6139.38
-4621.06
-5034.19
-1604.06
-3510.62
-3870.12
19127.5
21257.5
17731.2
-61.1928
16129
14077.8
-20.6326
15606
-831.501
-2903.51
-4739.18
-4434.28
-4042.6
-920.788
-3375.22
-3033.03
53.0722
-2.82492
51.8726
-3.37823
51.3348
-164.76
-168.516
-154.441
-107.466
-104.747
-72.8951
3.45921
-73.8971
-77.1483
3.06903
-74.4664
46.9761
-9.03978
54.6745
-6.46522
57.2464
53.9528
58.7284
2.2629
58.6503
1.78895
57.8242
59.5209
-39671.6
-20266.1
-40217.2
-68332.6
-67736.4
-21779.8
-45305.2
-40582.2
-42219.1
-15343.8
-64987.7
-309925
-123309
-103062
-18994.3
-89203.7
-71157.8
3313.47
-3278.84
3197.66
7343.96
-7147.75
1734.89
-5093.57
-10080.3
2656.64
-70137.7
-99217.6
-408779
-135390
-129698
-50120.6
-100883
-95570.7
25790.3
-659.817
24625.4
31024.2
33084
-632.181
22650
24165.4
-8783.28
-6966.28
-6499.91
-4530.59
-2474.45
-4922.33
-5473.76
-2583.94
-5068.54
-6596.5
-3366.28
-6184.34
-10506.7
-7163.46
-7637.68
-3283.17
-5622.94
-6035.69
30291.2
28027.3
18273.7
-354.142
19923.9
22116.1
-393.311
20475.3
-39421
-17724.6
-38165.9
-60121.3
-63775.6
-17464.7
-35417.1
-37580.6
13130.5
1595.15
1346.08
2196.87
107.044
2436.96
2732.23
-179.018
2480.83
3301.33
-1268.03
3071.91
13938.5
1566.57
1827.55
-1264.2
2775.66
3032.87
-58766.8
-54456.3
-28051.3
-13681.4
-30956.5
-34590.6
-14283.4
-31901.3
-35082.1
-30902.9
-2922.73
-15974.8
-19452.3
-3584.71
-16814.2
2154.79
2493.66
1930.4
10644.6
774.427
969.77
2834.84
1682.31
1890.47
-36512.3
-40897.1
-27073
-9037.27
-24150.6
-20366.7
-8348.41
-23189.2
3988.03
1424.35
8969.95
798.378
623.832
4025.32
1645.84
1456.86
11727.2
11828.8
-242688
-127065
7335.04
7056.61
-46690.4
-46922.1
-299941
-183107
11581.8
11408.1
7620.69
7903.29
-46339
-45866
-33797.3
-34778.8
-32819.6
-31847.6
12.1225
1.28147
13.3462
2.95661
14.5212
15.0128
-10.8788
-55.1542
-18.7206
-205.66
-906.253
-170.849
11.7615
0.0594786
12.0656
-6.27459
-19.135
0.786454
12.6939
-1.28743
12.4669
27.3226
-0.789107
26.9836
0.950817
29.675
28.7451
15.5157
4.24779
16.2584
14.7287
3.68948
15.7343
31.3285
2.45415
30.5548
29.9573
1.76447
29.6281
14806.9
-790.582
3928.75
3974.71
14961.9
10941.6
11413.1
3455.77
-1326.84
13343.5
3710.09
14110.4
6.49462
-42.3559
0.690218
-175.229
-280.463
-98.8322
-269607
-297469
-212832
-272223
-244376
-208223
-247767
4089.61
-719.295
-5565.47
-18894.8
4956.5
-432.102
-17567.6
-501.105
-3330.08
-4432.06
4421.29
-5972.7
-3669.9
-774.923
-753.241
-6064.8
4342.22
4779.84
-596.614
-3841.32
-6170.86
-655.996
4653.54
-6104.9
10282.3
8817.36
-392730
-235992
-326934
-328253
-280336
-337618
2809.93
10272.8
-8731.45
1459.02
4098.46
-388.793
-2351.36
-1361.36
5212.92
4972.07
1833.7
7860.82
179.85
1765.92
7609.29
2662.37
-3846.16
-903.997
-1923.83
-900.497
2748.14
-3718.46
2241.95
-865.16
-1398.74
-2982.83
-873.155
2161.28
-3100.69
5466.17
5713.63
10027.5
2454.21
-145.971
2373.96
9742.94
1903.7
8117.47
61.9564
1982.19
8379.44
2010.77
-855.412
-1105.93
-2865.18
-845.564
2083.91
-2749.58
26.7987
-2.09114
25.7272
15.4438
4.15415
16.1508
13.2327
1.93115
14.587
12.1227
-17.2616
15.596
-2.98167
27.7347
26.3396
31.2079
2.50766
30.8143
0.308436
29.1267
29.2182
-33298.7
-18831
-33493.5
-33589.3
-33968.5
-45559.7
-45918
-48844.5
-28067.7
-45499
-40650.6
-43149.6
-223917
-365179
-263130
-348726
-241351
-233805
-328337
-62886.3
-50732.7
-25064.4
-42854.6
-39050.7
-49855.3
-63945.1
-21526.3
2726.14
-1628.87
-23560.7
2616.42
-24148.7
-20794.9
-34034.8
-41774.1
-12523.6
-15439.6
-8431.87
-35344.1
-40724.4
-45329.6
-46149.3
-416516
-273953
-333615
-270369
-237706
-57117.4
-53205.3
-55577.2
-64876.2
-69669.7
14614.6
3871.67
-711.562
3800.17
14388.6
9940.49
10214
3268.72
-571.035
12706.2
3363.75
13006.8
2929.97
-3975.57
-906.758
-2253.33
2838.4
-907.895
-4104.48
3401.05
-894.093
-4892.05
-2798.54
3495.63
-898.836
-4760.95
4166.39
-5872.95
-794.509
-3512.23
4255.31
-811.612
-5764.86
3691.56
-885.992
-3101.07
-5023.48
-877.963
3594.81
-5152.56
9652.23
9363.97
10314
2538.26
-271.568
2628.31
10606.8
3172.21
12403.9
-469.291
3081.19
12101
-33034.2
-33091.5
-18121.7
-32746.8
-32693.7
-41432.2
-42305
-29212.9
-16786.2
-29685.7
-30361.3
-29949.6
-11734.7
2616.17
741.749
-13970.8
2608.52
-14794.3
-10915.2
-15523
-19289.8
2397.45
-671.125
2431.17
-16189.7
-18617.4
-19770.7
2710.71
-23113
-1231.49
-20238.6
2640.59
-22725.7
-17403
-19919.5
-1146.66
2373.06
2369.14
-20502.4
-16818.1
-40533.7
-39607.4
-22906.6
-12412.6
-21891.4
-23831.3
-22889
-28421.3
-28955.7
-15400.9
-28178.9
-27580
-25253.4
-24354
-12843.1
-14552.1
-4925.87
-13658.1
-11870.8
-9244.72
2614.84
1784.87
-13135.4
2600.83
-10083.6
-12293.4
-5026.71
-7274.56
3447.7
2369.6
2421.24
-8089.36
-4245.15
-26167.9
-27091
-21973.9
-10407.6
-20884.1
-21036.1
-19869.9
-13825.2
-15456.2
-6971.58
-16370.5
-14818.1
-3491.22
-6480.18
3981.15
2316.57
2260.53
-5719.55
-3717.25
-124.506
-125.374
-104.636
-103.774
-125.048
-104.076
-125.017
-124.231
-103.427
-103.394
-124.388
-103.632
-123.997
-124.683
-269.238
-177.22
-182.818
-179.41
-202.708
-247.64
-204.872
-323.031
-353.748
-182.684
-242.746
-286.784
-399.6
-219.745
-145.118
-144.979
-146.796
-145.278
-125.916
-125.842
-104.987
-105.089
-125.388
-105.383
-126.342
-126.481
-106.557
-127.483
-105.613
-127.186
-105.891
-126.929
-144.996
-143.662
-143.558
-143.402
-268.358
-107.95
-130.016
-195.814
-155.7
-163.785
-157.618
-129.74
-178.499
-135.061
-151.596
-147.002
-117.614
-139.979
-123.15
-138.625
-125.594
-145.271
-59.4258
-386.482
-424.442
23.7219
-123.145
-124.105
-102.734
-102.297
-123.433
-102.335
-123.907
-123.15
-102.153
-123.617
-102.121
-123.009
-102.333
-123.736
32854.4
35854.4
33119.3
11894.3
11893.3
35999.6
33272.4
33270
-98750.7
-22036.2
-17305.5
15073.4
-61093.4
-14706.3
-19194.5
-30808.1
-18709.6
-131206
-36584
6689.54
-9462.18
-9272.51
6410.03
6622.64
-9859.74
-9525.47
6954.17
-18966
-73358.7
-319382
-283699
-157284
-16758.6
-103624
-87325.9
4285.94
4071.32
14972.7
15165
14416.9
3984.02
-6476.27
4179.77
-6822.87
3924.16
-6525.86
-6211.65
3727.53
6506.98
6778.53
22431.7
23465.9
21766.9
20453.8
22722.2
21108.4
2575.3
-4961.25
-5090.58
2735.86
-144.207
-142.608
-143.033
-142.739
-143.882
-144.007
-145.892
-143.53
-123.837
-124.426
-102.89
-103.113
-123.627
-103.091
-124.826
-124.221
-104.015
-125.954
-103.565
-124.876
-103.301
-125.366
156673
-43809
-58150.3
13003.4
11702.5
11507.3
13842.8
-120143
-82741.2
-69079.5
-71941.1
-2913.68
-1736.44
-2189.4
-3275.81
8676.64
8792.08
9211.85
9170.3
11551
12346.1
11760.6
11242.7
-1159.72
-835.739
-955.253
-1350.3
-1613.68
-2635.74
-2398.19
-1524.78
-84404.7
-67842.6
-84935.6
-46941.2
-47003.7
-67940.9
-85132.8
-85187.3
-111549
-161247
-111970
-177557
-105353
-89205
-92029.3
-92237.5
-7952.27
-8417.58
-10750.3
-7584.2
-7881.13
-13456.8
-10377.3
-9571.33
-64936
-98208.6
-361437
-235263
-213912
-95218.7
-182629
-141794
32496.6
34787.4
32063.2
10982.4
11201.3
34273.5
31025.7
31566.7
4449.44
-7126.05
4241.2
-6737.08
4510.39
-7003.92
-7430.83
4718.55
6166.56
-8837.01
6410.61
-9242.74
6130.08
-8967.68
-8477.56
5899.02
8485.92
8196.65
23105.7
25733.9
23781
25146.4
26497.3
24464.6
-83635.9
-66497.7
-82656.1
-44641.4
-45298.9
-65722.3
-80195.2
-81501.3
-4913.89
-4878.84
-5206.94
-5091.77
-5394.15
-5540.59
-5079.29
-5237.42
-7274.61
-9199.62
-7348.58
-7395.12
-6985.88
-6676.56
-8179.38
-6960.75
-36731.9
-35758.6
-59415.3
-49946.8
-61260.9
-64955.4
-51460.9
-63110
8382.99
8194.22
7728.95
7975.82
5669.57
6040.28
5543.77
-722.124
-970.48
-791.156
-612.709
-112.56
-28.8003
-21725.9
-20880.6
-36982.2
-28218.3
-35436.3
-4793.05
-4906.14
-4597.11
-4692.92
-4289.86
-4514.8
-4626.23
-4499.44
-29917.6
-30883.8
-57577.7
-45395
-55751.2
-52143.4
-43886.3
-53941.7
-3131.07
-3458.31
-3696.98
-2875.46
-29.395
-15.7838
-94.8707
-74.3196
-94.2001
-30.8692
-14.8686
1.8957
13.816
14.0901
-28.2086
-93.5965
-73.885
-14.3216
-93.649
-29.3055
-14.2504
-123.106
-123.474
-102.536
-102.339
-102.589
-122.996
-123.638
-123.394
-103.114
-124.103
-102.537
-123.697
-102.815
-123.862
2.81133
14.0424
14.9569
-27.6367
-13.617
-92.6615
-72.8256
-92.6033
-28.5883
-13.3316
-27.6199
-93.2811
-14.0883
-73.0098
-29.0298
-92.8405
-13.4343
-128.478
-56.3561
-173.458
-141.998
-236.84
-98.3855
-66.5604
-64.2207
-53.3824
-22.1802
-133.045
-324.689
-133.945
-70.9111
-266.961
-157.731
-54.8355
-430.702
-516.207
-1087.11
-227.378
-309.629
-642.994
-220.977
-486.107
-330.601
-198.596
-252.006
-392.772
-465.857
-213.117
-201.853
-57.0274
-204.501
-234.224
-994.769
-1313.52
-170.428
-224.159
-1161.91
-141.158
-288.381
-288.95
-62.5777
-254.946
-137.31
-431.655
-236.312
-30.3521
-16.1064
-95.2262
-75.6132
-95.4759
-31.0983
-16.0254
-0.335453
10.635
11.7716
-30.7039
-96.8166
-76.0911
-17.2516
-96.0253
-32.3485
-16.3891
10.0962
-97.2855
-17.6977
-32.6913
-143.257
-142.394
-143.565
-142.567
-143.797
-155.106
-167.723
-139.421
-130.09
-130.623
-107.582
-110.201
-109.251
-128.345
-132.2
-131.821
-114.314
-136.759
-112.076
-135.354
-110.876
-134.119
-56.405
-48.4326
-148.508
-99.0425
-126.463
-76.9734
-36.8665
-12.0414
7.12691
5.10195
-46.4492
-109.185
-92.4293
-25.3502
-116.734
-40.5579
-30.1396
-32.2808
-17.2665
-98.6116
-79.722
-100.338
-31.7223
-18.1715
-3.30346
8.86704
11.0581
-34.2094
-105.832
-81.5676
-22.5557
-102.341
-38.0893
-19.9426
-759.238
517.117
231.546
-474.16
50.9749
52.4141
50.011
-0.238329
28.543
27.6365
53.1759
52.1462
50.6933
0.794895
28.8856
28.6867
53.3103
54.1735
51.7886
52.5543
54.2337
51.7258
-122.82
-123.392
-102.432
-101.969
-122.959
-102.211
-123.385
-122.849
-102.291
-123.505
-101.94
-123.075
-102.048
-123.443
-26.6881
-13.0273
-92.7141
-72.4328
-92.1939
-28.0868
-12.4608
4.40587
15.7553
16.4709
-26.525
-92.152
-72.2793
-12.6912
-92.1979
-27.5028
-12.2807
-27.1281
-13.4476
-92.5426
-72.3471
-28.4356
-92.188
-12.7387
3.99097
15.6915
16.16
-26.3849
-92.3233
-72.2266
-12.7329
-91.9305
-27.7902
-12.4224
55.1947
56.8023
53.9163
2.61318
31.0132
30.7702
56.7505
54.8846
54.016
53.7206
55.1195
52.6678
2.0206
30.9068
30.0124
55.9094
54.645
53.2204
23061.1
26297.9
23297.7
-829.866
4002.8
15080.7
4000.69
15050.6
26431.7
23544.4
23453.9
11836.9
11676.6
30762.9
34998.9
31966.7
33099.9
35549.6
32676.7
-1000.86
3965.28
14958.6
3881.65
14766
22652.9
25810.1
22994.2
23498.2
26228.5
23403
33.7444
36.7267
28.2131
-50.0431
-13.7693
-4.575
35.6938
20.9423
25.1656
-143.081
-24.3614
-64.4215
-84.7401
23.4751
-18.3373
16.7194
28.625
-0.202246
-2549.62
-953.512
-736.686
-2777.56
-1108.12
-4063.04
-2166.41
-5000.67
-13340.7
-8514.27
-2765.66
-5914.74
-2406.87
-4696.27
7751.85
-6153.69
6747.69
-17152.3
4534.81
1678.28
6858.53
750.068
-157785
-160830
-91526.5
-98768.5
-76865.7
-107451
-147164
-198075
-2964.64
-139542
-311611
-4754.61
22817.6
25402.5
-105633
1205.25
47883.7
-9562.49
-40479.1
-38500.8
-64542.7
-40447
-13476
-35977.8
-4877.56
-265.871
-401.999
-3633.4
-667.509
-5287.39
-4655.81
-1411
-23061.9
-1545.53
-1194.44
-22629.4
-386.485
-20766.1
1048.89
-17999.8
691.101
4501.77
-3703.63
-710.961
-6206.18
-730.901
4559.87
-6134.52
6781.37
-12575.1
7458.07
-8213.26
7203.06
-9272.49
6767.22
-10857.4
4654.85
-3767.49
-687.317
-6213.86
-666.198
4640.45
-6263.2
-1738.46
6324.55
29052
31789
25873.1
8609.76
26196.9
20986.3
-429384
-297638
-529359
-305627
-398786
-146213
-82552.9
-91641
-114385
-131911
-219726
-12955.4
-138334
-115555
-85544.6
-133591
-6524.13
-16162
-19406.1
21089.9
23482.8
14989.7
-30830.4
-32511.2
-40946.7
-9724.39
-16319.9
4033.19
-32415.7
-6242.54
-177.55
-67.4861
-494.83
-1481.82
-8047.59
-1760.71
-478.337
-2184.31
-1338.05
4508.6
4733.22
17310.1
17758
16710.1
15539.9
17091
16118.9
329.996
1565.49
6881.42
1503.71
6648.4
11240.5
10116.4
9721.41
11779.3
13095.9
11350.9
218.523
1629.16
7119.53
1698.31
7362.81
12618.7
10520
10931.2
2575.42
-1815.41
-890.93
-3467.56
2488.04
-895.708
-3591.85
3427.91
-5938.45
3241.19
-5701.52
3484.87
-5952.74
3670.43
-6227.2
2323.96
-1499.79
-886.411
-3343.7
2403.34
-876.977
-3221.64
6238.7
5974.28
17926.3
19827.9
18544
19809.9
20538.5
19174.8
15447.5
17190.3
14968.2
-103.609
2208.48
9185.99
2292.69
9462.87
16656.8
14027
14495.3
12215.1
14579.9
12658.3
21.3469
2131.12
8912.87
2059.7
8644.88
15089.5
13565
13108.6
1725.44
-744.286
-811.596
-2412.47
-798.344
1793.11
-2303.93
3014.18
-5452.64
3184.29
-5645.6
2961.69
-5361.88
2787.18
-5201.52
1936.29
-1012.23
-823.24
-2523.63
-833.962
1863.35
-2635.44
50.4543
51.0975
48.7529
-2.49421
25.6511
25.43
51.063
49.3578
48.5238
25.0402
48.7413
-143.043
-142.355
-143.053
-142.126
-150.939
-144.544
-144.892
-146.786
-126.405
-129.359
-106.818
-106.449
-127.478
-105.665
-128.339
-125.88
-104.265
-126.666
-105.514
-125.225
-105.013
-127.44
-27.1813
-13.1462
-92.8118
-73.0686
-92.9155
-28.0103
-12.7923
3.98422
15.5075
16.2098
-26.8461
-94.0741
-73.4053
-13.5243
-93.141
-28.5584
-12.8706
-29.3001
-16.3773
-97.6432
-76.0855
-31.3813
-96.1773
-15.0487
3.07491
15.3754
15.6014
-28.0635
-94.3698
-75.1444
-13.8548
-95.1772
-28.4557
-14.061
38.5382
50.0556
41.7687
-12.0321
22.1478
19.4947
51.7831
48.2186
44.8635
-5.0096
24.0952
24.7266
52.6743
54.4444
50.5525
49.2959
53.9974
49.5037
55.2885
56.8908
54.1774
2.26101
31.334
30.7457
57.6207
55.4683
54.4042
1.49123
30.991
30.3621
53.6846
57.5319
53.4199
55.5012
58.1139
54.281
2252.8
-1270.75
-30323.5
10855.1
20962.9
-437.368
22257.5
37128.3
7638.65
17299.3
15028.1
10361.6
-21457.1
-31227.5
-55141.2
-40869.2
-15114.2
-8925.9
-4160.79
-5605.89
10045.9
10173
9663.8
9633.54
10690.1
10464.2
10871.1
11215.2
-1193.06
-1751.66
-1544.58
-1077.72
-1963.3
-1312.11
-1423.67
-2173.77
-40491.4
-39858.6
-40754.2
-19367.1
-34642.8
-35585.2
-33997.9
-34613.8
-40021.1
-41459.8
-41049.7
-46723.1
-46381.5
-81389.7
-67671.3
-82816.2
-84731.2
-67598.8
-83973
-24200.3
-35749.9
-37092.5
-37578.1
-39479.2
-49186.8
-42698.6
-45541.8
-42164.9
-41280.4
-43369.3
-42720.9
-34739.1
-43229.6
-32362.6
-54236.1
-70753
-71582.1
-55833.5
-172500
-189151
-116704
-135385
-177289
-131227
-177897
-79521
-61990.7
-83563.6
-105978
-57118.9
-103458
-80860.9
-22545.8
-2209.84
1243.24
-26246.3
2216.81
-24985
-24038.2
-18389
-27735.8
-21573.7
-25297.7
-14983.3
-14263.6
-10254.6
-18432.7
-29434.8
-8022.08
-619.561
-28147.6
-3748.52
-31061.1
-26212.2
-55083.2
-48000.7
-79676.8
-74376.9
-78425.8
-83408
-82330.6
-77849.8
-424180
-250950
-271647
-200312
-140100
-139589
-200762
-182927
-188253
-140916
-205105
-55390.4
-58412
-65372.7
-74112.1
-107986
-111508
-81874.4
-86197.3
-72354.6
-106145
-80962.6
22775.1
25445.3
22439.7
-686.999
3635
13871.8
3719.85
14138.9
25055.2
21665.8
22068.6
10739.1
10483.7
28544.5
31737.8
29197.1
30443.9
32426.3
29833.4
-602.317
3546.92
13592
3457.4
13303.1
19852.3
23171.9
20327.4
21238.7
23678
20790.5
5060.7
-7559.58
-8047.55
5273.58
4996.89
-7737.98
4782.08
-7278.08
3021.86
-2363.83
-907.374
-4366.07
3114.38
-907.133
-4235.32
3304.78
-2692.04
-905.743
-4498.19
3208.75
-902.334
-4629.42
4074.27
-3442.93
-843.576
-5530.42
-829.855
3981.5
-5649.67
5560.84
-8359.12
-7848.11
5341.26
5623.92
-8150.83
5845.08
-8665.93
3789.12
-3194.81
-856.337
-5406.55
-866.969
3885.32
-5281.07
8780.2
9069.53
27876.7
29545
27200.8
25833.5
28789.2
26518.4
15929.8
18821.2
16418.1
-312.481
2803.23
11197.4
2717.85
10902
19370.9
17401.4
16908.9
19369.2
21573.2
18880.2
-432.26
2894.59
11497.6
2989.08
11798.6
21025.9
17895.3
18388.5
-40198.5
-39090
-39846.3
-17938.9
-32002.3
-31784.3
-32407.6
-32265.7
-38671.2
-38910
-39418.6
-43918.4
-43135.3
-73937.8
-61416.1
-75619.9
-78766.3
-62639
-77235.2
-17151.9
-31525.3
-31239.8
-30976.2
-30626.5
-36138.6
-36197.5
-36928.8
-38321.9
-36922
-37659.3
-6013.48
-6341.47
-5550.53
-5908.23
-5568.97
-5300.32
-5702.97
-5912.65
-12538
415.079
2556.28
-16396.9
2586.05
-13323.1
-15604.7
-14820.6
-439.966
2517.04
-17166.1
2474.93
-14084.8
-17908.3
-19337.8
-1250.06
2481.63
-21951.7
2560.68
-22349.3
-18900.6
-6256.51
-5844.24
-6837.43
-6330.57
-6644.29
-7431.06
-6613.52
-6205.77
-17942.1
-1225.22
2422.16
-21517.2
2382.66
-21034.5
-18440.8
-37702.1
-38664.3
-72204
-57364.4
-70428.4
-66796.5
-55924.7
-68624.1
-28564.7
-29027.7
-29576.7
-13056.2
-25640.6
-24841.4
-24744.1
-23874
-29997.7
-31570
-30579.9
-35297.7
-33724.9
-34413.1
-14858.1
-26515.6
-25785.7
-27363.8
-26700.1
-32826.8
-32542.9
-33493
6824.71
7179.43
7575.05
7267.98
6791.42
6384.77
5961.09
6411.31
-461.445
-396.436
-503.163
-623.222
-299.138
-304.377
-156.188
-206.824
-22587.7
-23466.9
-43470.6
-33669
-41806.5
-38559.6
-32275.7
-40170.1
-2267.67
-11061
-9039.11
-10229.5
-8131.07
-15159.8
-15960.3
-15114
-19594.4
-18554.9
-18655
-4252.63
-11910.7
-9967
-12776.9
-10911.4
-17676
-16835.2
-17734.9
-8399.09
2141.37
2548.73
-10601.6
2579.81
-7549.72
-11447.7
-3699.19
-4180.21
-4124.41
-3932.25
-4212.98
-4367.98
-3989.92
-4345.16
-5857.47
3157.54
2511.37
-9757.35
2467.59
-6701.83
-8918.6
-28968
-28026
-45161.8
-37958.4
-46873.4
-50367.4
-39420.5
-48610.6
-27548.6
-26095.6
-26531.4
-9723.88
-19158.4
-17839.2
-20096.5
-18854.5
-25120.7
-24504.9
-25516
-20550.8
-21296.3
-21522.6
-7658.7
-18223.1
-16826.7
-17293
-15818.8
-22237.6
-23501
-22506.2
-2919.93
3928.1
2090.01
-3940.51
2031.22
-3601.7
-3051.95
-3658.94
-3892.68
-4019.65
-3414.85
-3142.45
-3860.14
-3391.76
-3670.73
-3331.59
4028.06
2147.54
-4411.97
2205.13
-5017.55
-3188.18
-156.786
-137.137
-152.082
-136.879
-157.343
-136.325
-136.803
-295.113
-186.897
-212.291
-167.278
-229.098
-288.765
-214.896
-158.318
-153.152
-137.61
-137.394
-157.685
-137.475
-138.097
-188.31
-170.595
-174.133
-194.301
-211.449
-147.399
-162.821
-156.067
-151.671
-135.559
-136.188
-135.178
-156.284
-135.983
-156.784
-152.577
-135.733
-136.532
-156.511
-135.557
-136.941
-155.501
-150.871
-135.126
-135.358
-134.922
-155.376
-135.499
-517.065
-285.907
-1199.23
-483.858
-133.682
-721.793
-178.917
-165.122
-158.067
-137.069
-142.894
-140.026
-163.057
-144.483
-155.384
-150.801
-135.057
-135.3
-155.429
-134.771
-135.328
-1302.16
-2911.43
579.357
-1056.34
-683.922
-4109.22
-2138.45
-160.474
-155.524
-137.968
-141.539
-161.8
-136.567
-140.507
-156.724
-151.694
-136.191
-136.245
-136.013
-156.592
-136.492
-341.009
-232.146
-464.813
-282.573
-232.38
-461.602
-237.603
-159.016
-153.877
-139.175
-139.27
-138.407
-159.913
-138.713
-182.241
-166.832
-141.001
-152.174
-159.584
-173.654
-157.115
-156.095
-151.397
-135.543
-135.686
-135.187
-156.109
-135.804
-62424.3
-44121.4
-45422.8
-27836.5
-40128.3
-38546
-57221.2
-96497.7
-27715.5
-45014.7
-82633.2
-73311.2
1095.26
-108489
-921.514
-1809.86
-8627.08
4448.7
-1907.41
-763.825
4535.19
-806.148
4646.36
-8766.31
-1959.31
-1859.64
4612.8
-982.118
-223.971
-1173.14
2816.27
-5535.49
-345.509
-1294.82
2714.54
-282.097
2528.99
-5343.99
-1232.64
-1086.64
2625.05
-165.591
71.5465
1761.77
-3762.66
-683.502
-906.496
1686.95
-10.6142
-157.51
-153.21
-136.634
-138.119
-135.964
-158.399
-137.521
-164453
-231125
-187881
-261687
-162502
-181783
-240710
-129165
-102627
-85485.7
-138699
-111225
-99991.2
-139974
-7929.08
-1870.94
2091.47
-9366.75
-1023.94
-7186.69
-9868.11
-9739.3
-12056.2
2000.41
-1600.02
-2483.01
-10668.5
-11231.6
-411.83
-1359.15
2907.11
-5978.77
-280.282
-1258.75
3013.42
-341.156
3213.29
-1348.12
-6173.35
-1420.06
-477.286
3104.13
-712.77
-1855.77
4375.22
-8160.47
-871.639
-1763.27
4271.79
-811.933
4090.59
-7973.33
-1711.21
-1787.18
4200.84
-652.212
-90.9397
-648.635
1264.41
-5915.15
-106.033
9.7718
-6059.8
-329.465
-6426.93
-137.844
1238.7
-708.8
-493.454
-6275.4
-5567.91
-719.239
-9006.39
1898.25
-5981.53
-1502.73
-8730.07
-4661.72
-8253.25
1941.55
-1255.32
-525.314
-8468.6
-4360.56
234.469
-79.143
1039.47
-5701.96
-596.761
181.682
-5563.55
364.158
-5221.09
1063.52
-545.796
-56.95
-5352.59
379.797
629.175
-3743.47
554.874
43.1352
-325.106
-3642.42
703.958
-155.889
-151.099
-135.93
-135.968
-156.341
-135.342
-135.728
-576.522
-363.623
-316.396
-273.235
-464.532
-704.97
-286.011
-166.987
-159.37
-146.223
-149.077
-170.981
-138.196
-146.47
-155.671
-150.939
-135.393
-135.546
-156.021
-134.93
-135.43
-4931.42
-6866.81
-17484.8
-11242.5
-5952.56
1690.08
-6129.66
-3745.91
-3811.82
5261.49
-13821
2320.36
-689.055
-7018.89
-1615.52
-12278.3
-25182.4
-19092.3
-16088.7
5284.57
-10775.3
-144799
-30774.3
-107372
-86949.1
-146226
-50017.3
-109724
3762.73
-6722.49
5592.75
-12725.9
2611.64
5928.94
-16249.1
-1956.57
-26456.1
-22656.1
-61920.3
5857.17
-37622.1
-31415.2
5171.97
-6465.51
-6868.15
4793.14
4875.14
-6582.63
5091.46
5256.46
4990.34
-6982.32
-6793.84
4953.71
5302.87
-6678.63
-808.747
-2843.89
4311.92
-9246.09
-1539.25
4931.62
-2256.25
-1106.27
4759.42
-1962.79
-9330.47
-831.512
4655.65
-2098.97
5566.17
-7237.89
4661.92
-7296.22
5173.53
5238.51
-6800.97
5356.58
5084.85
-6823.35
-7427.82
5398.26
5001.9
-6975.36
3221.61
-4170.97
3045.58
-4267.3
2947.26
3319.52
-4040.91
3120.44
2751.5
-4126.25
-3780.91
2847.04
3021.29
-3907.62
-165.487
-1103.68
2172.14
-4731.03
2259.18
-60.3056
-919.411
-113.728
2440.78
-1002.5
-4919.79
-221.051
2347.44
-1167.24
2735.81
-3278.04
2378.79
-3620.2
2467.63
2643.06
-3398.64
2830.71
2654.63
-3650.73
-3756.56
2923.37
2563.42
-3526.35
2131.28
1951.9
-2803.03
-2682.03
1878.77
2209.73
-2571.16
-15.8013
-840.119
2086.26
-4328.59
-111.432
2002.2
-1037.08
-59.2098
1841.42
-972.809
-4143.84
30.9455
1921.7
-760.324
2466.13
-3153.29
2288.07
-3268.48
2551.67
2204.63
-3035.59
2377.76
2037.22
-2800.32
-3135.69
2293.4
2118.37
-2914.45
-159.758
-154.805
-136.791
-138.863
-159.068
-136.765
-139.588
-46751.3
-17288.4
-27610.5
-36961.6
-23244.7
-48759
-36615.3
-60655.4
-82389.4
-58145.4
-43375.3
-78593.3
-43320.7
-62940.8
-213586
-335903
-210891
-286159
-196170
-225867
-311459
-162918
-113925
-154345
-113636
-150934
-168439
-122233
-57126.6
-21893.6
-31811.2
-42365.5
-35619.7
-54516.9
-44396.3
-73345.6
-90822.1
-48324.2
-78559.5
-53156.6
-69711.2
-96017.3
-15042.8
4379.79
3370.49
-11969.5
-12932.3
4490.98
-14213.7
-16194.7
-16024.5
3317.67
4595.76
-14218
4583.08
-17854.6
-22287.6
-7862.6
-1435.58
-28694.5
-6865.9
-28017.8
-22186.7
-17187.7
-14242.1
-3684.56
1030.65
-14219.3
-2961.49
-17605.5
-28445.8
-12479.1
-3453.25
-33554.7
-5426.22
-35241.3
-26825.5
-23653
-18503.6
2732.31
713.164
-629.092
-20223.1
-22037.6
-465.53
-1528.57
3615.13
-6829.79
3501.09
-616.083
-1540.53
-546.546
3302.26
-1481.33
-6633.61
-401.839
3413.65
-1437.71
3527.5
-4306.78
3148.04
-4652.34
3251.69
3424.06
-4438.63
3632.14
3460.13
-4796.82
-4710.96
3355.66
3736.41
-4576.7
4060.42
-5262.62
3887.54
-5343.82
3778.73
4166.6
-5126.37
3951.8
3565.67
-5196.01
-4850.13
3673.41
3844.6
-4985.69
4906.39
-6343.8
4708.28
-6463.15
4612.99
4998.95
-6218.2
4806.07
4415.54
-6317.76
-5953.39
4519.2
4704.52
-6085.05
-684.256
-1599.77
3700.74
-7301.71
-526.737
3815.99
-1617.98
-590.2
4013.57
-1705.27
-7497.92
-749.34
3898.2
-1656.27
4385.24
-5403.68
3993.41
-5753.97
4278.2
4103.95
-5540.03
4493.24
4315.86
-5815.58
-5902.85
4598.37
4207.66
-5680.59
-1521.8
-230.005
1454.15
-7195.3
-854.932
-7025.51
-1791.4
-1059.81
-6644.14
-773.94
1481.42
-832.908
-179.012
-6805.45
-5683.53
2950.44
2294.6
-5500.79
-5679.9
3033.36
-4937.52
-6417.51
-6065.45
2336.36
3187.95
-5867.14
3104.58
-7133.42
-9128.17
3504.95
2626.58
-7224.97
3417.09
-6841.75
-9732.02
-8492.29
-6282.93
2583.85
3259.74
3344.22
-6535.37
-7827.07
-13088.7
4279.85
-11233.2
3207.44
-10626.7
-13592.4
4163.95
-12645.4
-9606.05
3177.79
3953.62
-10097.9
4065.48
-12218.2
-2652.54
-953.465
1711
-7418.7
-300.189
-2369.98
-7599.58
-3321.06
-8018.05
-394.297
1679.89
-3601.22
-1082.81
-7825.26
-10829.1
3581.69
2883.16
-7672.41
3675.88
-10300.4
-8152.17
-11321.8
-9122.54
3861.63
2925.12
3759.49
-11782.7
-8640.19
-4247.12
2879.1
2061.21
-5327.04
-5157.8
2796.81
-4395.12
-4106.88
-4827.99
2020.98
2644.83
-4989.9
2725.79
-3967.68
573.792
-453.302
881.821
-4563.66
-15.8189
-4682.75
538.406
476.252
-5013.08
-35.6853
857.361
487.928
-501.404
-4888.02
-3561.84
2347.02
1766.06
-4198.97
2424.85
-4350.54
-3429.24
-3694.73
-4665.21
2573.99
1803.51
2494.17
-3830.93
-4509.18
-2672.23
-3458.78
1351.33
2003.06
-3324.1
1933.12
-2793.79
583.075
3.73983
695.702
-4360.74
-411.18
633.129
-4246.73
674.822
-3939.33
-365.96
720.473
610.585
21.2544
-4047.7
-3170.02
2279.31
1566.47
-4045.06
2203.93
-3298.75
-3898.44
-3042.57
-3606.01
2066.3
1532.47
2138.76
-2917.51
-3748.22
)
;

boundaryField
{
    left
    {
        type            calculated;
        value           nonuniform List<scalar> 
670
(
-151.042
-180.385
-170.463
-200.653
-169.643
-254.505
-151.519
-176.372
-150.427
-84886.1
-169.844
-169.13
-150.818
-129779
-149.443
-15.9076
-18.3884
-691.408
-918.809
-66.3819
-174.743
-168.144
-18.7775
-49.8375
-20.5183
-154.372
-14.6902
-15.888
-149.414
2.80392
4.32669
0.357495
2.73085
-284061
-1207.55
-1815.09
-994.323
-327466
-29.4544
-659.784
-173.388
-168.089
-0.249985
-1.14229
-19.5158
3.51732
1.72809
-154.271
-17.9746
-15.4818
-398666
-370431
-150.19
-100.511
-101.661
-311.878
-198.528
-150.724
-171.607
-183.476
-168.924
-102.067
-103.616
-153.005
-138.805
-113.383
-157.731
-99.9069
-99.3509
-149.858
-147345
-21412.7
-32234.8
-135277
-170.851
-168.617
-152.131
-101.357
-100.104
-387551
-242615
-99.63
-100.209
-149.927
-17.1668
-79.2186
-78.6208
-80.7403
-79.5388
-17.3109
-1087.11
-200.167
-370.11
-161.389
-194.43
-1221.34
-130.144
-173.142
-120.771
-177.437
-168.478
-20.5238
-82.6481
-81.1516
-83.1663
-21.1068
-104.156
-29.4335
-92.3825
-118.828
-83.792
-89.4061
-24.8847
-158.009
-110.533
-105.146
-15.5389
-78.128
-78.6218
-78.463
-78.2323
-15.1687
-149.645
-99.3957
-99.5
3.70375
57.2651
57.0345
58.4699
58.1322
3.36943
1.33496
54.4815
53.7763
55.9261
55.2263
1.58016
-24417.5
-23629.3
-187932
-1254.55
-14241.4
-19924.8
-13221.4
-12126
-1374.42
-16354.9
-1669.08
-91.0953
-457185
-8322.59
-16312.7
-67.2707
34.0287
46.1374
-23.3219
38.0348
-97.2093
-171.988
-168.229
-2.40755
51.2159
53.0738
51.8382
-1.64041
-4.41115
54.8441
58.5987
50.2069
57.4228
-8.39114
3.86538
58.8298
59.3966
58.752
60.5151
2.56909
-104.306
-101.795
-152.65
-16.7955
-80.2593
-82.8834
-78.7497
-79.8685
-15.5325
-429470
-279902
-318841
-499950
-16.3027
43.0746
42.0935
39.8398
41.4719
-18.1033
-393.129
-366.204
-1048.36
23.4206
14.4871
-80.4633
-19.2698
40.5331
39.6797
-41.5266
30.7139
26.4286
40.3519
40.8478
-20.2476
-15.2207
44.2886
43.1628
42.1768
43.8029
-15.4014
2.82842
36.3681
37.0435
38.6886
37.1554
3.1901
0.0587598
33.5483
34.5118
36.8074
35.3757
1.82604
-273415
-302599
-262192
-1375.04
-4667.47
-3915.7
-2934.61
-1802.57
-656.062
-405875
-238238
-337882
-35.9657
4.86619
11.5354
-379.056
-150.071
-282.998
33.8315
32.4396
-1.13791
-1.09252
33.9006
34.8056
19.0622
21.7355
-16.6519
3.8969
37.8537
38.2189
36.9081
35.8834
0.855952
-18.1911
42.6397
41.1177
42.9646
44.4088
-14.724
-474683
-420964
-337093
-368777
-401811
-100.807
-121.533
-121.214
-122.288