/*--------------------------------*- C++ -*----------------------------------*\
| =========                 |                                                 |
| \\      /  F ield         | OpenFOAM: The Open Source CFD Toolbox           |
|  \\    /   O peration     | Version:  2012                                  |
|   \\  /    A nd           | Website:  www.openfoam.com                      |
|    \\/     M anipulation  |                                                 |
\*---------------------------------------------------------------------------*/
FoamFile
{
    version     2.0;
    format      ascii;
    class       volVectorField;
    location    "0.105/solid";
    object      U;
}
// * * * * * * * * * * * * * * * * * * * * * * * * * * * * * * * * * * * * * //

dimensions      [0 1 -1 0 0 0 0];


internalField   nonuniform List<vector> 
3125
(
(9.97875e-13 -1.33393e-10 6.78296e-11)
(-1.82337e-08 5.14964e-08 1.74581e-09)
(4.60264e-11 -2.0806e-10 2.64692e-10)
(3.29243e-12 -1.36926e-10 1.29394e-10)
(1.19372e-11 -2.01064e-10 1.13001e-10)
(-1.9168e-08 6.31636e-08 -4.02105e-09)
(-1.24756e-08 3.56479e-08 -4.26432e-12)
(-3.65109e-08 1.22288e-07 -5.62343e-09)
(-2.4159e-10 3.55383e-11 -6.01455e-10)
(-3.91419e-06 -5.59219e-06 1.63976e-05)
(-0.000865142 0.000372997 0.000365828)
(-0.00358018 0.00166767 0.000701129)
(-3.40902e-10 1.06583e-10 -9.74686e-10)
(-4.52748e-10 4.1148e-10 -1.14064e-09)
(-2.58933e-10 1.08871e-10 -6.19869e-10)
(3.12467e-06 -1.11466e-05 1.32719e-05)
(-0.000778841 0.000361062 0.000250349)
(-0.00320532 0.00150138 0.000671171)
(-0.00108722 0.000483866 0.000410696)
(-0.00302459 0.00149234 0.000489154)
(-0.000988991 0.000472333 0.000282586)
(-0.00338788 0.00165897 0.00051634)
(-5.19655e-12 -5.54268e-11 1.23522e-11)
(-9.35232e-11 -1.13233e-10 -2.50921e-10)
(-1.1454e-10 -4.91609e-11 -2.97565e-10)
(-5.71218e-09 5.76138e-09 -8.0033e-10)
(-1.2542e-07 5.66967e-07 -4.62531e-09)
(-9.25639e-08 1.55817e-07 -1.3745e-09)
(1.39071e-11 -5.74766e-11 6.26857e-11)
(-1.02923e-10 -1.68332e-10 -3.57399e-10)
(-2.98995e-09 8.51643e-09 -2.01818e-09)
(-1.58664e-09 3.31537e-09 -8.48887e-10)
(-4.08918e-09 3.75596e-09 -8.7354e-10)
(-6.31588e-10 2.46678e-10 -9.09387e-10)
(-3.25805e-13 -4.12547e-11 5.33587e-12)
(-9.73281e-11 -3.70318e-11 -2.56982e-10)
(-8.41994e-11 -1.11732e-10 -2.8357e-10)
(-2.37517e-10 -3.10404e-11 -6.21571e-10)
(-1.26191e-10 -4.7596e-11 -3.34367e-10)
(-1.9971e-10 -2.51495e-11 -5.27885e-10)
(-1.09744e-10 -3.59048e-11 -2.91677e-10)
(-0.000985309 0.000110631 0.000982352)
(-0.000379381 -4.1718e-05 0.000541431)
(-3.16483e-09 2.66871e-09 -7.28018e-10)
(-6.0893e-08 9.37486e-08 9.21578e-11)
(-9.10333e-08 8.0057e-07 1.02223e-07)
(-0.000207383 5.79305e-05 0.000165402)
(-6.3813e-06 -6.24449e-06 1.96489e-05)
(-0.000294806 -3.39993e-05 0.000425298)
(-1.0519e-07 3.74726e-07 1.59887e-08)
(-0.000962713 0.000151041 0.000881803)
(-0.000336075 0.000116372 0.000219343)
(-0.000358745 -2.39431e-05 0.000485076)
(-8.7168e-06 -7.92497e-06 2.28309e-05)
(-0.000314794 -4.83606e-05 0.000475075)
(-7.97685e-08 2.31872e-07 9.47347e-09)
(-0.0051295 0.00154143 0.00217624)
(-0.00348487 0.00110194 0.00166912)
(-0.00479828 0.00217371 0.000780824)
(-0.00488855 0.00158396 0.00192231)
(-0.00350967 0.0010125 0.00185842)
(-0.00491424 0.00147547 0.00213972)
(-0.00523327 0.00234136 0.000804109)
(-0.00510365 0.00165259 0.00195523)
(1.49711e-11 -4.26469e-11 4.56249e-11)
(-1.31415e-10 -1.55552e-10 -5.05021e-10)
(-1.69031e-09 4.28195e-09 -1.72223e-09)
(-1.14032e-09 2.24548e-09 -8.70464e-10)
(-2.51526e-10 -2.38288e-11 -6.5327e-10)
(-5.29784e-10 1.70444e-10 -8.80389e-10)
(-2.27184e-09 1.7212e-09 -7.70001e-10)
(-4.31803e-10 1.10523e-10 -7.63563e-10)
(-2.12589e-10 -2.30464e-11 -5.58313e-10)
(-3.79858e-10 6.72313e-11 -7.44954e-10)
(-0.000930931 8.69284e-05 0.000935682)
(-0.000352311 -6.82429e-05 0.000526875)
(-0.000169959 4.44651e-05 0.000113686)
(-6.96509e-06 -1.59683e-05 2.3166e-05)
(-0.000276153 -5.2888e-05 0.000414982)
(-0.000919329 0.000134702 0.000842231)
(-0.000285626 0.000102406 0.000148905)
(-0.000336964 -4.23885e-05 0.000470869)
(-9.48381e-06 -2.04003e-05 2.63707e-05)
(-0.000291602 -7.54814e-05 0.000465286)
(-0.0010939 0.000146008 0.00104159)
(-0.00200053 0.000468133 0.00142919)
(-0.00218375 0.00102485 0.000570684)
(-0.00329992 0.0010344 0.00162964)
(-0.00212626 0.00058999 0.00132962)
(-0.00107116 0.000189486 0.00093506)
(-0.00187978 0.000877222 0.000533541)
(-0.00197688 0.000532269 0.00128334)
(-0.00332459 0.000947723 0.00181453)
(-0.00215002 0.000522975 0.0014807)
(-0.00103568 0.000122656 0.000990926)
(-0.00191602 0.000447212 0.00135596)
(-0.00203808 0.00101477 0.000404288)
(-0.00321026 0.00102193 0.00155817)
(-0.00205635 0.000575832 0.00126727)
(-0.00102476 0.000173398 0.000892352)
(-0.00174593 0.0008668 0.000374847)
(-0.00190988 0.000517873 0.00122291)
(-0.00321124 0.000929605 0.00172723)
(-0.00206187 0.000502406 0.00140504)
(-0.00498479 0.00152642 0.00208702)
(-0.00339243 0.0010897 0.00159694)
(-0.00457169 0.00216602 0.000594567)
(-0.00477697 0.00157338 0.00184904)
(-0.00339278 0.00099473 0.00177022)
(-0.00477301 0.00146012 0.00205004)
(-0.00499545 0.00233401 0.000619521)
(-0.00498942 0.00164226 0.00188231)
(7.68726e-12 -9.57131e-11 4.07308e-11)
(-4.83886e-11 -1.27107e-10 -7.33646e-11)
(-2.69489e-11 -9.10893e-11 -8.04128e-11)
(-1.22875e-08 2.25143e-08 9.12787e-10)
(-4.249e-08 1.41987e-07 3.39753e-09)
(-3.1795e-08 7.01327e-08 5.07178e-09)
(9.50305e-11 -2.24259e-10 4.50119e-10)
(6.12412e-11 -1.49988e-10 2.87102e-10)
(2.28458e-11 -9.86657e-11 8.99736e-11)
(5.8345e-11 -1.08113e-10 2.25559e-10)
(-2.80684e-11 -1.91437e-10 -4.75264e-11)
(-1.01279e-08 3.28497e-08 -2.92562e-09)
(-5.2972e-09 1.32102e-08 -5.23447e-10)
(-8.74516e-09 1.55788e-08 3.34654e-10)
(-3.36911e-09 5.23462e-09 -5.28042e-10)
(-1.5466e-10 -6.53353e-11 -4.67214e-10)
(-1.92535e-10 -2.12261e-11 -5.4212e-10)
(-1.36591e-10 -6.60197e-11 -4.30355e-10)
(-0.00105147 -3.9305e-05 0.00132583)
(-0.000763528 -9.27172e-05 0.00108433)
(4.32563e-06 8.1808e-06 9.05902e-07)
(-4.02414e-05 -2.02795e-05 5.37451e-05)
(-6.29393e-06 -4.19785e-06 2.3973e-05)
(-6.24436e-05 -1.70719e-05 0.000108736)
(-2.29178e-06 2.71622e-06 9.84299e-07)
(-0.00092036 0.000304878 0.000554738)
(-0.00066537 0.000274108 0.000318975)
(-0.000625255 0.000176038 0.000449951)
(-2.08322e-05 -2.43859e-06 1.95923e-05)
(-0.000169616 -5.41051e-05 0.000292724)
(-0.00604268 0.00135165 0.00311531)
(-0.00346099 0.00142674 0.00104427)
(-0.00397105 0.00183586 0.00072936)
(-0.00404276 0.00166115 0.00111364)
(-0.00354761 0.000682698 0.00249718)
(-0.00412206 0.000849984 0.00266772)
(-0.0061428 0.00266945 0.000846013)
(-0.0059853 0.00236011 0.00129213)
(-2.56127e-10 -2.68991e-11 -8.04663e-10)
(-6.5958e-10 1.0107e-09 -1.31655e-09)
(-4.50159e-10 5.05373e-10 -7.58394e-10)
(-2.13202e-10 5.73942e-12 -5.68274e-10)
(-3.38158e-10 1.62459e-10 -6.78052e-10)
(-0.00101861 -6.03431e-05 0.00130441)
(-0.000738707 -0.000114604 0.0010719)
(-2.23442e-05 -1.56513e-05 4.36412e-05)
(1.38075e-08 -8.72957e-06 1.27058e-05)
(-5.15837e-05 -3.14887e-05 0.000101915)
(-0.00086613 0.000292598 0.00049165)
(-0.000591015 0.000261688 0.000217334)
(-0.000581627 0.000163107 0.000399262)
(-2.77021e-05 -2.87538e-05 4.22248e-05)
(-0.000168788 -8.23378e-05 0.00031322)
(-0.00115836 -1.49811e-05 0.00140416)
(-0.00151102 7.55377e-05 0.00163233)
(-0.00284718 0.00133806 0.000639464)
(-0.00327488 0.00134952 0.00102027)
(-0.00274233 0.00112266 0.000944201)
(-0.00103003 0.000353987 0.000588137)
(-0.00133083 0.000605605 0.000453582)
(-0.00139061 0.000517565 0.000685484)
(-0.00336416 0.000628071 0.00243793)
(-0.00283904 0.000469535 0.00225287)
(-0.00112279 -3.57302e-05 0.00137996)
(-0.00146729 5.56842e-05 0.00160058)
(-0.0026781 0.00132868 0.000461425)
(-0.00316447 0.0013402 0.000918539)
(-0.0026419 0.0011128 0.000846087)
(-0.000971886 0.000341917 0.000521231)
(-0.00122069 0.000594457 0.000314043)
(-0.00132202 0.000506065 0.000608267)
(-0.00328853 0.000612041 0.00238802)
(-0.00277123 0.000452533 0.00220573)
(-0.0059346 0.00133973 0.00306574)
(-0.00334685 0.00141761 0.000941698)
(-0.00376727 0.0018275 0.000542974)
(-0.00391874 0.00165254 0.00100957)
(-0.00346942 0.000666984 0.00244661)
(-0.00403622 0.000835235 0.00261588)
(-0.00588276 0.00266275 0.000667623)
(-0.00583105 0.00235306 0.00119228)
(1.17469e-11 -8.54358e-11 4.33372e-11)
(-5.17089e-11 -5.28083e-11 -1.20894e-10)
(-2.28813e-11 -7.96098e-11 -7.32914e-11)
(-4.24741e-11 -1.19752e-10 -1.07042e-10)
(-7.22618e-11 -8.21401e-11 -2.38873e-10)
(-3.47931e-11 -8.76946e-11 -1.1277e-10)
(-6.36939e-11 -5.20433e-11 -1.58943e-10)
(-6.858e-11 -7.53196e-11 -2.26113e-10)
(-3.28963e-11 -7.92497e-11 -1.09096e-10)
(-1.03752e-08 1.64525e-08 5.13148e-10)
(-1.7349e-08 2.09189e-08 -4.36659e-10)
(-2.80658e-08 5.22576e-08 3.55022e-09)
(-5.97302e-08 2.03195e-07 1.60756e-08)
(-1.08828e-07 3.43489e-07 2.81914e-08)
(-4.65365e-08 1.06575e-07 8.00922e-09)
(-2.42184e-08 3.6666e-08 3.79288e-10)
(-1.05474e-07 2.62411e-07 1.92981e-08)
(-3.97797e-08 8.39557e-08 5.96524e-09)
(8.70632e-11 -1.04364e-10 3.08517e-10)
(2.52061e-11 -8.77875e-11 8.67996e-11)
(6.48977e-11 -6.12125e-11 2.08743e-10)
(5.90358e-11 -9.60001e-11 2.13607e-10)
(8.80639e-11 -6.13368e-11 2.65099e-10)
(7.72324e-11 -9.45156e-11 2.69145e-10)
(-6.42475e-11 -1.80937e-10 -1.9424e-10)
(-5.47728e-09 1.68724e-08 -2.36874e-09)
(-3.66487e-09 8.96486e-09 -8.23816e-10)
(-1.04135e-09 1.21707e-09 -7.60667e-10)
(-2.4547e-09 3.61734e-09 -6.2774e-10)
(-7.40461e-09 1.11312e-08 6.23325e-11)
(-1.60214e-09 1.1691e-09 -9.48771e-10)
(-2.80831e-09 3.65701e-09 -5.74719e-10)
(-8.81901e-10 8.61651e-10 -7.34175e-10)
(-1.21287e-09 8.0033e-10 -9.42098e-10)
(-2.04961e-09 2.54863e-09 -6.52509e-10)
(-1.00278e-11 -3.43375e-12 -9.24972e-12)
(-4.19352e-11 -3.8891e-11 -1.06902e-10)
(-3.43513e-11 -3.08651e-12 -4.64935e-11)
(-5.4918e-11 -3.90351e-11 -1.43211e-10)
(-6.46452e-11 -2.91233e-12 -9.18481e-11)
(-4.19644e-11 -3.05172e-12 -5.82568e-11)
(-1.39475e-10 -8.07429e-11 -4.15588e-10)
(-8.01268e-11 -8.1108e-11 -2.69433e-10)
(-1.1825e-10 -6.77295e-11 -3.83265e-10)
(-1.79638e-10 -2.92709e-11 -5.15657e-10)
(-1.87735e-10 -4.19923e-11 -5.00031e-10)
(-1.29335e-10 -5.66201e-11 -4.09524e-10)
(-7.86156e-11 -7.4332e-11 -2.59862e-10)
(-1.69573e-10 -4.13284e-11 -4.5587e-10)
(-1.14217e-10 -5.85314e-11 -3.69712e-10)
(-1.18483e-10 -2.31084e-12 -1.73783e-10)
(-1.6089e-10 -3.04573e-11 -4.27289e-10)
(-9.96849e-11 -2.56293e-12 -1.4566e-10)
(-7.2443e-11 -2.84352e-12 -1.03687e-10)
(-1.48104e-10 -3.15408e-11 -3.94511e-10)
(-9.29041e-11 -2.6377e-12 -1.35652e-10)
(-0.00103319 -3.00758e-07 0.00123335)
(-0.000692369 2.3801e-05 0.000798892)
(-0.000743454 -6.26291e-05 0.00100677)
(-0.000455658 -0.000113719 0.000747648)
(-0.000678514 -0.000103558 0.00100171)
(-0.000605794 1.77805e-06 0.000735857)
(-0.000433451 -9.50439e-05 0.000690014)
(-0.000657862 -7.63962e-05 0.000929132)
(-2.16377e-10 3.61214e-11 -2.43125e-10)
(-9.89825e-09 1.04068e-08 -4.82777e-10)
(-3.72222e-10 1.70462e-10 -2.29531e-10)
(-1.4279e-08 1.86633e-08 -6.63099e-11)
(-2.44017e-09 2.58392e-09 -3.72968e-10)
(-5.12358e-10 3.13275e-10 -2.24616e-10)
(1.55479e-06 3.13203e-06 -1.39061e-06)
(-1.77931e-07 6.02916e-07 4.38928e-08)
(-2.94825e-07 2.30773e-06 5.09863e-07)
(-0.000106904 1.62195e-05 0.000110851)
(-0.000249483 2.99059e-05 0.00026401)
(-9.86158e-05 -1.22645e-05 0.000146219)
(-8.6161e-06 -1.29423e-06 3.10087e-05)
(-9.33655e-05 -3.51977e-05 0.000181457)
(-1.46187e-06 7.26711e-06 1.49218e-06)
(-6.71324e-05 -2.11233e-05 0.000124651)
(-3.00055e-06 8.68992e-07 4.07887e-07)
(-0.00025866 1.44631e-05 0.000302579)
(-0.000136131 -4.05073e-05 0.000242371)
(-0.000105639 -1.88871e-05 0.000168836)
(-1.68097e-07 5.64337e-07 4.14176e-08)
(-8.83034e-07 1.59909e-06 -4.30952e-08)
(-6.92312e-07 1.50081e-06 4.50537e-07)
(-0.000929187 0.000267428 0.000634676)
(-0.000670296 5.47726e-05 0.00071678)
(-0.000634508 0.000146542 0.000514963)
(-0.000488692 0.000188159 0.000270082)
(-0.000312677 5.17963e-05 0.000302261)
(-0.000538119 0.000139597 0.000414087)
(-0.000583961 2.95154e-05 0.000660051)
(-0.000322013 3.34067e-05 0.000346314)
(-0.000547586 0.000112859 0.000473765)
(-0.000391511 -0.000109461 0.000660782)
(-0.000221821 -7.38371e-05 0.000389013)
(-1.49287e-05 -5.04029e-06 2.6791e-05)
(-0.000107439 -3.57052e-05 0.00020426)
(-1.1819e-06 6.31694e-06 9.2506e-07)
(-0.000148968 -4.79645e-05 0.000264882)
(-1.77536e-07 1.86169e-07 -1.71068e-08)
(-0.000368925 -9.34545e-05 0.000608217)
(-0.000151863 -4.48343e-05 0.000271398)
(-0.000199632 -6.53366e-05 0.000353136)
(-4.75168e-09 5.75202e-09 -6.3547e-10)
(-7.35756e-07 1.28949e-06 -4.27191e-08)
(-5.39738e-08 1.20002e-07 -1.58419e-10)
(-0.00515472 0.001132 0.00292806)
(-0.00581587 0.00129766 0.00307022)
(-0.00602368 0.00179997 0.00231346)
(-0.00604133 0.00147265 0.00290171)
(-0.00515112 0.00124234 0.00272792)
(-0.00579531 0.00173633 0.00228048)
(-0.00581395 0.00141602 0.00285989)
(-0.00346587 0.00134698 0.00119822)
(-0.00406373 0.00130758 0.00178256)
(-0.00404711 0.00157425 0.00127839)
(-0.0043773 0.00200488 0.000755919)
(-0.00487155 0.00197545 0.0011983)
(-0.00424458 0.00173982 0.00113544)
(-0.00426442 0.00137669 0.00181872)
(-0.00487506 0.00187913 0.00137667)
(-0.00424861 0.00165053 0.00130384)
(-0.00494105 0.00107589 0.00287835)
(-0.00432129 0.000906422 0.00272217)
(-0.00353942 0.000771146 0.00232721)
(-0.00408892 0.00120992 0.00198451)
(-0.0041156 0.000946732 0.00248593)
(-0.00493688 0.00118352 0.00268175)
(-0.00428974 0.00127632 0.00202469)
(-0.00431541 0.00100591 0.00253657)
(-0.00599732 0.00192185 0.00207896)
(-0.0059877 0.00225219 0.0014861)
(-0.00568165 0.00250691 0.000825827)
(-0.00508777 0.00205352 0.00121798)
(-0.00575597 0.00228451 0.00127451)
(-0.00576908 0.00185555 0.0020492)
(-0.00509097 0.00195485 0.0013997)
(-0.00575868 0.00217891 0.0014654)
(-1.40075e-12 -3.25677e-12 3.33789e-12)
(6.06535e-11 -4.53974e-11 1.72932e-10)
(2.32197e-11 -3.55523e-12 4.23216e-11)
(7.80496e-11 -4.54988e-11 2.1429e-10)
(3.26096e-11 -3.57032e-12 6.13101e-11)
(-1.78474e-10 -1.11391e-10 -6.53585e-10)
(-1.02629e-09 2.11606e-09 -1.49642e-09)
(-5.56346e-10 7.86349e-10 -7.76134e-10)
(-7.98551e-10 8.7899e-10 -7.48304e-10)
(-4.00205e-10 2.55722e-10 -6.95476e-10)
(-1.9963e-10 -1.2321e-11 -5.45833e-10)
(-3.25977e-10 1.16828e-11 -7.63466e-10)
(-3.02644e-10 8.94388e-11 -6.45225e-10)
(-6.82474e-10 6.03561e-10 -7.23964e-10)
(-3.55663e-10 3.14147e-11 -7.89074e-10)
(-3.56168e-10 1.53117e-10 -6.67891e-10)
(-1.98523e-10 2.28089e-11 -2.45865e-10)
(-9.37775e-10 5.26552e-10 -8.02424e-10)
(-1.75181e-10 6.36663e-12 -2.49105e-10)
(-7.36565e-10 3.60363e-10 -7.99352e-10)
(-1.62378e-10 3.09857e-13 -2.3903e-10)
(-1.72527e-10 4.0717e-12 -2.49015e-10)
(-1.24852e-10 -2.1715e-12 -1.83429e-10)
(-2.62128e-10 -7.61034e-12 -6.45051e-10)
(-1.40719e-10 -1.62034e-12 -2.08284e-10)
(-2.82116e-10 2.01542e-12 -6.70554e-10)
(-1.5882e-10 -2.67263e-13 -2.34478e-10)
(-1.45677e-10 -1.4241e-12 -2.16145e-10)
(-0.000991171 -2.4138e-05 0.00120388)
(-0.000649665 -9.9413e-07 0.000765244)
(-0.000711223 -8.74641e-05 0.000988271)
(-0.000440966 -0.00013682 0.000748274)
(-0.00065631 -0.000125727 0.00099247)
(-0.000567016 -2.3409e-05 0.000706848)
(-0.000413865 -0.000121407 0.000687532)
(-0.000628855 -0.000101576 0.000914539)
(-8.16599e-05 6.33541e-07 7.7294e-05)
(-0.000224543 1.55379e-05 0.000237379)
(-8.45564e-05 -2.72957e-05 0.000135356)
(-1.35692e-06 -1.01904e-05 1.51376e-05)
(-8.73673e-05 -5.70186e-05 0.000185443)
(-5.8838e-05 -3.79492e-05 0.000121839)
(-0.000235196 -1.62061e-06 0.000280356)
(-0.00012649 -6.12654e-05 0.000243957)
(-9.32631e-05 -3.61065e-05 0.000161399)
(-0.00087696 0.000253645 0.000577583)
(-0.000636107 3.76414e-05 0.000687451)
(-0.000592876 0.000132039 0.000469842)
(-0.000426282 0.000175248 0.000183478)
(-0.000283717 3.77111e-05 0.00027032)
(-0.000498447 0.00012642 0.000367928)
(-0.000552876 1.20967e-05 0.000634385)
(-0.000294804 1.76671e-05 0.000319134)
(-0.0005096 9.80908e-05 0.000432956)
(-0.000379202 -0.00013296 0.000664697)
(-0.000217582 -9.98051e-05 0.000404842)
(-2.11671e-05 -2.72772e-05 3.7624e-05)
(-9.92563e-05 -6.71878e-05 0.00021093)
(-0.000146427 -8.00143e-05 0.000283848)
(-0.00035238 -0.000120342 0.000609751)
(-0.000140054 -7.41734e-05 0.000276159)
(-0.000193188 -9.49328e-05 0.00036831)
(-0.00114068 2.7013e-05 0.00130673)
(-0.00145167 0.000269301 0.0012135)
(-0.00149514 0.000126474 0.00152026)
(-0.00205317 0.000231558 0.00192017)
(-0.00163901 0.00011106 0.00170607)
(-0.00158134 0.000315621 0.00126887)
(-0.00203968 0.000294272 0.00178921)
(-0.00162373 0.000164961 0.00158921)
(-0.00250642 0.00117884 0.000605973)
(-0.002094 0.000836398 0.00083501)
(-0.00257329 0.00104904 0.000917954)
(-0.00328009 0.00127218 0.00117029)
(-0.00277034 0.000836736 0.00150615)
(-0.00274808 0.00105254 0.00108259)
(-0.00210064 0.000776083 0.000956718)
(-0.0026025 0.000772955 0.0014633)
(-0.00257938 0.000981388 0.00105213)
(-0.00103852 0.000313901 0.000673149)
(-0.00142854 0.000321791 0.00108956)
(-0.00139853 0.000469794 0.000784606)
(-0.00159525 0.000737097 0.000494516)
(-0.00194339 0.000768664 0.000806451)
(-0.00152142 0.000577127 0.000716421)
(-0.00155808 0.000371058 0.00113931)
(-0.00195038 0.000710851 0.000923658)
(-0.00152899 0.000526797 0.000820336)
(-0.00220101 0.000275846 0.00198914)
(-0.00267271 0.00041893 0.00218876)
(-0.00335538 0.00071372 0.00227203)
(-0.00279462 0.000758411 0.00167716)
(-0.00282851 0.000546691 0.0020996)
(-0.00218812 0.000341472 0.00185359)
(-0.00262665 0.000697445 0.00162948)
(-0.00266159 0.000493224 0.00203982)
(-0.00109539 3.51055e-06 0.00127389)
(-0.00138204 0.00024699 0.00115199)
(-0.00144007 0.00010398 0.00147826)
(-0.00199863 0.000212953 0.00188022)
(-0.00159256 9.15164e-05 0.00167206)
(-0.00150797 0.000293656 0.00120414)
(-0.00197172 0.000273167 0.00173729)
(-0.00156542 0.000142816 0.00154447)
(-0.00234905 0.00116911 0.000433154)
(-0.00200746 0.000825823 0.000744296)
(-0.00247666 0.001039 0.00082142)
(-0.0031737 0.0012617 0.00107593)
(-0.00268906 0.00082354 0.0014377)
(-0.00265151 0.00104147 0.000991727)
(-0.00201743 0.000764194 0.000873)
(-0.00252406 0.000759521 0.00139614)
(-0.00248621 0.000970106 0.000962785)
(-0.000982731 0.000300342 0.000612391)
(-0.00137318 0.000306432 0.00103833)
(-0.00133238 0.000456875 0.000713893)
(-0.00147324 0.000726318 0.000344786)
(-0.00186069 0.0007579 0.000718075)
(-0.00144898 0.00056582 0.000636127)
(-0.0014998 0.000355941 0.00108555)
(-0.00187061 0.000698755 0.000842181)
(-0.00145935 0.000514087 0.000746664)
(-0.0021438 0.00025756 0.00194748)
(-0.00260753 0.000401608 0.00214279)
(-0.00326235 0.000695465 0.00220815)
(-0.00269196 0.000739242 0.00159372)
(-0.00274477 0.000527362 0.00203901)
(-0.00211698 0.000320726 0.00179961)
(-0.0025276 0.00067793 0.00154769)
(-0.00258098 0.000473544 0.00198065)
(-0.0050564 0.00111884 0.00287646)
(-0.00571022 0.00128543 0.00302001)
(-0.00586539 0.0017863 0.0022275)
(-0.00590955 0.00145894 0.00283857)
(-0.00503102 0.00122725 0.00266219)
(-0.00564042 0.00172233 0.00219349)
(-0.00568508 0.00140196 0.00279593)
(-0.00335614 0.00133671 0.00110304)
(-0.00396303 0.00129605 0.0017091)
(-0.00392768 0.00156457 0.00118176)
(-0.00416212 0.00199686 0.00056905)
(-0.0047341 0.00196754 0.00109457)
(-0.0041169 0.00173139 0.00103123)
(-0.004161 0.00136541 0.00174511)
(-0.00474277 0.00187024 0.00128034)
(-0.00412591 0.00164106 0.00120705)
(-0.00484521 0.00106242 0.00282648)
(-0.00423294 0.000891997 0.00267014)
(-0.00344332 0.000753247 0.00226254)
(-0.00396151 0.00119319 0.00189465)
(-0.0040104 0.000929894 0.00241979)
(-0.00481974 0.0011681 0.00261567)
(-0.00415886 0.00125995 0.00193462)
(-0.0042072 0.000989434 0.00247023)
(-0.0058724 0.00191243 0.00200866)
(-0.00583954 0.00224428 0.00139343)
(-0.0054327 0.00249989 0.000643875)
(-0.00494671 0.00204579 0.00111475)
(-0.00560534 0.00227729 0.00117359)
(-0.00564683 0.00184591 0.00197808)
(-0.00495545 0.00194616 0.00130383)
(-0.00561373 0.0021708 0.00137173)
(-0.00110526 -0.000113353 0.00157008)
(-0.00100531 -0.000126287 0.00147797)
(-5.526e-05 5.10396e-06 6.30463e-05)
(-0.000123107 -1.51409e-05 0.000170015)
(-0.003575 0.000463217 0.00293979)
(-0.00376099 0.000510261 0.00300807)
(-0.00109611 -0.000124229 0.00156339)
(-0.000997486 -0.000137318 0.00147254)
(-5.73481e-05 -1.62778e-05 7.04443e-05)
(-0.000128185 -3.20137e-05 0.000189085)
(-0.00121063 -9.7408e-05 0.00166107)
(-0.00132137 -7.85716e-05 0.00175087)
(-0.0033931 0.000416899 0.00287014)
(-0.00321535 0.000371437 0.0027991)
(-0.00120013 -0.000108121 0.00165316)
(-0.00130947 -8.91165e-05 0.00174179)
(-0.00336132 0.000408979 0.00285035)
(-0.00318496 0.000363326 0.00277971)
(-0.00354185 0.000455488 0.00291967)
(-0.00372646 0.000502724 0.00298765)
(1.1636e-11 -7.06016e-11 6.03064e-11)
(-1.77102e-11 -5.37882e-11 -2.89432e-11)
(-1.80456e-12 -6.90196e-11 1.01105e-11)
(-9.45261e-11 -5.05657e-11 -2.48137e-10)
(-1.05426e-10 -6.08785e-11 -2.87123e-10)
(-8.39951e-11 -6.31537e-11 -2.35751e-10)
(-8.26314e-09 1.00762e-08 -8.16823e-10)
(-8.2113e-09 8.60652e-09 -7.22741e-10)
(-1.17787e-08 1.48262e-08 -7.46033e-10)
(-5.09913e-08 1.09228e-07 3.27077e-09)
(-1.1303e-07 2.15512e-07 -5.69837e-09)
(-6.83785e-08 1.68328e-07 5.12197e-09)
(3.06545e-11 -7.25045e-11 1.12998e-10)
(3.19837e-11 -5.90615e-11 1.13388e-10)
(5.18552e-11 -7.47336e-11 1.70226e-10)
(-5.90507e-09 6.61661e-09 -9.35207e-10)
(-2.9324e-09 2.54283e-09 -9.10371e-10)
(-4.22575e-09 4.51912e-09 -9.83278e-10)
(-8.08402e-10 4.57426e-10 -9.88466e-10)
(-7.62287e-10 3.72646e-10 -9.23148e-10)
(-9.97914e-10 6.90191e-10 -1.00867e-09)
(1.85617e-12 -2.66563e-11 3.39198e-13)
(-1.41892e-11 -4.01721e-11 -3.17553e-11)
(-1.07215e-11 -2.60353e-11 -2.99609e-11)
(-8.25811e-11 -3.75608e-11 -2.1824e-10)
(-8.11048e-11 -2.35541e-11 -2.08062e-10)
(-6.91657e-11 -2.40617e-11 -1.77881e-10)
(-2.4248e-10 -3.23671e-11 -6.53872e-10)
(-2.14849e-10 -3.52753e-11 -5.76068e-10)
(-2.17696e-10 -3.90844e-11 -6.06804e-10)
(-1.19725e-10 -6.04175e-11 -3.3136e-10)
(-1.4129e-10 -4.57508e-11 -3.77292e-10)
(-1.34946e-10 -5.79237e-11 -3.82036e-10)
(-1.65378e-10 -1.79749e-11 -4.19945e-10)
(-1.854e-10 -2.70463e-11 -4.93889e-10)
(-1.55113e-10 -1.91312e-11 -3.94247e-10)
(-9.20747e-11 -2.31997e-11 -2.35861e-10)
(-1.23682e-10 -3.44608e-11 -3.27001e-10)
(-1.03479e-10 -2.25932e-11 -2.63683e-10)
(-0.00100343 7.35937e-05 0.00106886)
(-0.000882153 7.83737e-05 0.000922153)
(-0.0010136 0.000134668 0.00099066)
(-0.000908174 0.000102039 0.000929219)
(-0.000900425 4.41098e-05 0.00100357)
(-0.000519498 -0.000137484 0.000904768)
(-0.0005872 -0.000143615 0.00100244)
(-0.000391591 -2.04868e-05 0.000539395)
(-0.000449329 -3.10812e-05 0.000607099)
(-0.00039788 -5.88375e-05 0.00059106)
(-0.000463814 -9.41625e-06 0.000606697)
(-0.00046797 -5.1111e-05 0.000662193)
(-1.48885e-09 9.46436e-10 -5.91643e-10)
(-4.56475e-09 4.07292e-09 -6.7949e-10)
(-2.11619e-09 1.47246e-09 -5.6376e-10)
(-3.28925e-08 6.03464e-08 1.62568e-09)
(-3.30164e-08 4.34831e-08 -9.36831e-11)
(-1.77552e-08 2.53868e-08 3.19302e-10)
(-2.80921e-05 -4.92474e-06 6.78861e-05)
(-4.02537e-06 -5.13358e-06 1.88174e-05)
(-2.72464e-05 -2.2173e-05 6.35574e-05)
(-6.94059e-06 4.07806e-07 2.27973e-05)
(-3.35356e-05 -3.24191e-06 6.96537e-05)
(-2.2445e-05 -2.11932e-05 5.67184e-05)
(-6.1755e-06 3.30612e-06 2.31981e-05)
(-0.000236941 -8.26625e-06 0.00033721)
(-0.000309555 -1.51085e-05 0.00043261)
(-0.000280717 -1.77873e-05 0.00038253)
(-0.000236519 -4.01093e-05 0.000364854)
(-0.000297518 4.3166e-07 0.000395492)
(-0.00024873 -2.10661e-05 0.000369191)
(-0.000222891 -2.69315e-05 0.000327753)
(-1.37366e-07 5.33266e-07 2.54612e-08)
(-2.57124e-07 4.80873e-07 -1.36924e-08)
(-2.82827e-07 5.55072e-07 -3.3008e-08)
(-0.000882661 0.000168427 0.000784404)
(-0.000949246 0.000190404 0.000796588)
(-0.000859711 0.000115677 0.000827664)
(-0.000998419 0.000168957 0.000911648)
(-0.000892826 0.00013371 0.000855024)
(-0.000846 0.000152279 0.000747538)
(-0.000988682 0.000206271 0.000836417)
(-0.000436239 2.99025e-05 0.000510641)
(-0.000376082 -5.17812e-06 0.000495424)
(-0.000428175 -9.94704e-06 0.000544159)
(-0.000344432 -4.70345e-06 0.000436851)
(-0.000448131 8.68042e-06 0.000557506)
(-0.000364069 1.3254e-05 0.0004535)
(-0.000413765 1.2282e-05 0.000490433)
(-0.000456648 -0.000128289 0.00080627)
(-0.000398188 -0.000116182 0.000706888)
(-1.09715e-05 -6.60244e-06 2.45644e-05)
(-3.32492e-05 -2.02142e-05 7.11995e-05)
(-8.37541e-06 1.15322e-06 2.0949e-05)
(-4.40463e-05 1.5952e-05 8.10621e-05)
(-3.95955e-05 -1.22773e-05 7.93489e-05)
(-5.80656e-06 1.83929e-06 1.01843e-05)
(-0.000324792 -2.75682e-05 0.000471407)
(-0.00033304 -6.25589e-05 0.000519139)
(-0.000255523 -5.10901e-05 0.000407815)
(-0.000263405 -3.07634e-05 0.000402592)
(-0.000273186 -6.2366e-05 0.000446183)
(-5.20354e-08 1.07445e-07 3.17969e-09)
(-1.87862e-07 3.36792e-07 -3.54751e-09)
(-1.15422e-07 1.83602e-07 -1.16092e-09)
(-0.00516988 0.000848117 0.00344751)
(-0.00538546 0.000896083 0.00350487)
(-0.00520977 0.00157337 0.00218418)
(-0.00514381 0.00144076 0.00236726)
(-0.00534814 0.00160696 0.00221188)
(-0.00543038 0.00163921 0.00221868)
(-0.00536231 0.0015039 0.00240607)
(-0.00375154 0.00126659 0.00161185)
(-0.00347558 0.00118496 0.00150764)
(-0.0035619 0.00111779 0.00172179)
(-0.00367386 0.00117006 0.00170776)
(-0.00375321 0.0011858 0.00176066)
(-0.00355975 0.00119626 0.00157658)
(-0.00366479 0.00125554 0.00154245)
(-0.00476821 0.0016224 0.00177504)
(-0.0049817 0.001599 0.00197424)
(-0.0046769 0.00151501 0.0018886)
(-0.00488085 0.00168396 0.00173551)
(-0.00476776 0.00153016 0.00194096)
(-0.00498251 0.0016935 0.0018051)
(-0.00466897 0.00161261 0.00170519)
(-0.00495773 0.000799857 0.00338882)
(-0.00474907 0.000751363 0.00332877)
(-0.00352516 0.000931368 0.00202122)
(-0.00357395 0.00104201 0.00187265)
(-0.00369879 0.00107788 0.00190139)
(-0.00376511 0.0011077 0.00191511)
(-0.00371414 0.000994286 0.00206798)
(-0.00499252 0.00150711 0.00214871)
(-0.0049287 0.00137724 0.00232748)
(-0.00470249 0.00140923 0.00210229)
(-0.00477879 0.00144056 0.00211227)
(-0.00471709 0.00131342 0.00228671)
(-0.00542156 0.00183469 0.00186266)
(-0.00519908 0.00166754 0.00200663)
(-0.00532217 0.00172082 0.00198735)
(-0.00509619 0.001755 0.0017651)
(-0.00541987 0.00173566 0.00203812)
(-0.00520033 0.00176431 0.0018343)
(-0.00531491 0.00182562 0.00179397)
(1.49496e-11 -2.70612e-11 3.26691e-11)
(2.98498e-11 -4.37092e-11 8.87942e-11)
(2.68029e-11 -2.75811e-11 6.55479e-11)
(-2.61482e-10 -2.05491e-11 -6.92571e-10)
(-2.71403e-10 -1.48078e-11 -6.91597e-10)
(-2.86442e-10 -6.95823e-12 -7.38736e-10)
(-6.61561e-10 3.28767e-10 -9.5712e-10)
(-4.57259e-10 1.04364e-10 -8.53826e-10)
(-5.4787e-10 2.12531e-10 -9.28991e-10)
(-1.08943e-09 6.05458e-10 -6.11575e-10)
(-1.64787e-09 1.15409e-09 -7.89687e-10)
(-8.1875e-10 3.99809e-10 -6.22386e-10)
(-5.02559e-10 1.65769e-10 -7.79302e-10)
(-2.9456e-10 2.93506e-11 -5.98773e-10)
(-3.26028e-10 4.90089e-11 -6.10704e-10)
(-1.75408e-10 -1.6694e-11 -4.43718e-10)
(-2.27925e-10 -1.90999e-11 -5.89003e-10)
(-1.8663e-10 -1.47524e-11 -4.67252e-10)
(-3.4168e-10 3.60101e-11 -7.21784e-10)
(-2.70918e-10 1.57881e-11 -5.85176e-10)
(-2.51876e-10 6.14408e-12 -5.68057e-10)
(-0.000947213 4.73589e-05 0.00102412)
(-0.000831657 5.43163e-05 0.000879657)
(-0.000892817 8.57687e-05 0.000887611)
(-0.0008483 1.74888e-05 0.000963236)
(-0.000795671 5.23968e-05 0.00083519)
(-0.000518123 -0.000149275 0.000907265)
(-0.000585005 -0.000155297 0.00100363)
(-0.000330214 -7.53287e-05 0.00050643)
(-0.000418383 -5.71323e-05 0.000587659)
(-0.000370372 -8.8169e-05 0.00058016)
(-0.000436394 -7.99075e-05 0.00064617)
(-0.00039378 -6.32382e-05 0.000562953)
(-1.83564e-05 -4.76193e-05 7.30368e-05)
(-4.59191e-06 -1.38078e-05 2.06373e-05)
(-2.63037e-05 -3.49655e-05 7.21803e-05)
(-8.41291e-06 -2.86356e-05 2.9585e-05)
(-2.05758e-05 -3.23942e-05 6.35441e-05)
(-2.47096e-05 -5.17191e-05 8.29321e-05)
(-5.42533e-06 -2.5281e-05 2.58173e-05)
(-0.000189345 -5.8867e-05 0.000309986)
(-0.000257026 -6.57527e-05 0.000403588)
(-0.000260997 -3.54625e-05 0.000368967)
(-0.000220882 -5.9502e-05 0.000358504)
(-0.000206302 -4.51229e-05 0.000318254)
(-0.000240981 -4.87988e-05 0.000356808)
(-0.000204687 -7.30039e-05 0.000350973)
(-0.000763741 0.000125149 0.000670688)
(-0.000904235 0.000175152 0.000753018)
(-0.000819381 9.90837e-05 0.000791379)
(-0.00087875 0.000125038 0.000803054)
(-0.000804096 0.000136783 0.00070732)
(-0.000781331 8.91039e-05 0.000755305)
(-0.00086115 0.000163674 0.000713358)
(-0.000361556 -1.7289e-05 0.000449166)
(-0.000314945 -5.47152e-05 0.000455709)
(-0.00040331 -2.80163e-05 0.000526073)
(-0.000321457 -2.19859e-05 0.000419183)
(-0.000387627 -4.62771e-06 0.000468796)
(-0.000378492 -3.98618e-05 0.000507201)
(-0.000298379 -3.49537e-05 0.000403254)
(-0.000455965 -0.000140189 0.00081006)
(-0.000398086 -0.000128229 0.000712019)
(-1.3411e-05 -2.32178e-05 3.04167e-05)
(-3.26223e-05 -4.06044e-05 8.12117e-05)
(-1.06618e-05 -3.30436e-05 3.65975e-05)
(-4.03905e-05 -4.52402e-05 9.09599e-05)
(-3.17824e-05 -5.59504e-05 9.57957e-05)
(-0.000272136 -8.35944e-05 0.000449178)
(-0.000309567 -9.25519e-05 0.000513228)
(-0.000236126 -7.87856e-05 0.000402959)
(-0.000253744 -9.30474e-05 0.000445393)
(-0.000219451 -8.80677e-05 0.00039128)
(-0.00111187 0.00010623 0.00113314)
(-0.00112444 0.000170405 0.00105104)
(-0.00120787 0.000184347 0.00109986)
(-0.00124063 0.000209098 0.00111035)
(-0.00122568 0.00014185 0.00119639)
(-0.00209459 8.86152e-05 0.00226307)
(-0.00195315 5.49744e-05 0.002181)
(-0.00204625 0.000494874 0.00144381)
(-0.00185585 0.000415188 0.00137671)
(-0.00201738 0.000409777 0.00155422)
(-0.00189946 0.000441613 0.0013909)
(-0.00187286 0.000359435 0.00149718)
(-0.00318851 0.00105752 0.00150334)
(-0.0032904 0.00111497 0.00147208)
(-0.00337462 0.00105037 0.00168196)
(-0.00311913 0.000967595 0.00158932)
(-0.00337205 0.00112652 0.00154041)
(-0.00319148 0.000983692 0.00164118)
(-0.00310937 0.00104569 0.00143575)
(-0.00233569 0.000728168 0.00130437)
(-0.00218434 0.000606824 0.00137611)
(-0.00211507 0.000653033 0.0012015)
(-0.00228037 0.000649435 0.00137503)
(-0.0021787 0.00066644 0.00126181)
(-0.00234085 0.000666148 0.00142274)
(-0.00226942 0.000715018 0.0012425)
(-0.001217 0.000290965 0.000937603)
(-0.00105795 0.000231582 0.000844815)