/*--------------------------------*- C++ -*----------------------------------*\
| =========                 |                                                 |
| \\      /  F ield         | OpenFOAM: The Open Source CFD Toolbox           |
|  \\    /   O peration     | Version:  2012                                  |
|   \\  /    A nd           | Website:  www.openfoam.com                      |
|    \\/     M anipulation  |                                                 |
\*---------------------------------------------------------------------------*/
FoamFile
{
    version     2.0;
    format      ascii;
    class       surfaceScalarField;
    location    "0.105/fluid";
    object      meshPhi;
}
// * * * * * * * * * * * * * * * * * * * * * * * * * * * * * * * * * * * * * //

dimensions      [0 3 -1 0 0 0 0];
oriented        oriented;


internalField   nonuniform List<scalar> 
47156
(
1.89205e-10
-4.60919e-08
-1.648e-09
-1.94919e-10
1.5483e-09
1.74183e-07
-2.13249e-07
-1.11121e-08
-1.6035e-09
2.55138e-09
3.18822e-07
-3.50201e-07
-1.45588e-08
-2.68009e-09
3.42895e-09
4.33874e-07
-4.58403e-07
-1.3612e-08
-3.55172e-09
4.15035e-09
5.19792e-07
-5.35748e-07
-9.79987e-09
-4.22315e-09
4.48285e-09
5.71118e-07
-5.80447e-07
-8.48629e-09
-4.72015e-09
6.32863e-09
6.07655e-07
-6.16354e-07
1.0454e-08
-6.58995e-09
1.04061e-08
6.38871e-07
-6.44667e-07
4.86519e-08
-1.05296e-08
1.62198e-08
6.55685e-07
-6.56856e-07
9.11842e-08
-1.63251e-08
2.3166e-08
6.52904e-07
-6.49176e-07
1.22859e-07
-2.32254e-08
3.08757e-08
6.32095e-07
-6.24951e-07
1.3854e-07
-3.07859e-08
3.88515e-08
6.00582e-07
-5.91478e-07
1.48637e-07
-3.83422e-08
4.1821e-08
5.55163e-07
-5.36007e-07
1.57799e-07
-4.10205e-08
2.85455e-08
4.27519e-07
-3.69347e-07
1.30311e-07
-2.78189e-08
4.92603e-09
1.43999e-07
3.56856e-08
-4.76317e-09
-2.19964e-08
-5.79509e-09
-2.14704e-08
-5.92815e-09
1.72509e-09
6.42542e-09
-4.14189e-07
-8.39209e-09
-1.76649e-09
1.44095e-08
4.23352e-08
1.56649e-06
-1.91794e-06
-5.56325e-08
-1.46268e-08
2.40326e-08
5.53753e-08
2.86748e-06
-3.14853e-06
-7.69466e-08
-2.44504e-08
3.01524e-08
6.52705e-08
3.8839e-06
-4.0993e-06
-9.0219e-08
-3.1605e-08
3.55994e-08
5.52185e-08
4.64804e-06
-4.80164e-06
-7.39211e-08
-3.84195e-08
4.45073e-08
1.55602e-08
5.18727e-06
-5.29537e-06
-8.45174e-09
-4.82144e-08
6.57279e-08
-8.85344e-08
5.5919e-06
-5.68082e-06
1.31831e-07
-6.9451e-08
1.01164e-07
-2.24054e-07
5.87272e-06
-5.91814e-06
2.95003e-07
-1.03814e-07
1.54068e-07
-3.73823e-07
6.02614e-06
-6.04789e-06
4.772e-07
-1.57103e-07
2.23872e-07
-5.04531e-07
6.0816e-06
-6.08394e-06
6.53852e-07
-2.2747e-07
3.10772e-07
-5.9514e-07
6.05634e-06
-6.04318e-06
7.93131e-07
-3.12651e-07
4.17709e-07
-6.89106e-07
6.04532e-06
-6.0615e-06
9.50058e-07
-4.14082e-07
5.04388e-07
-7.94809e-07
6.10703e-06
-6.10546e-06
1.13239e-06
-4.94863e-07
-7.90818e-07
4.49268e-07
5.82982e-06
-5.59251e-06
-4.36644e-07
1.21406e-06
-5.07404e-07
1.82311e-07
4.37982e-06
-3.89407e-06
-1.75343e-07
9.47906e-07
3.08546e-09
1.65915e-08
-7.63254e-07
-2.01369e-08
-3.20561e-09
2.62596e-08
1.13513e-07
2.89406e-06
-3.5347e-06
-1.41061e-07
-2.66668e-08
4.04491e-08
1.86739e-07
5.25522e-06
-5.77873e-06
-2.27578e-07
-4.30779e-08
5.47541e-08
1.95635e-07
7.18363e-06
-7.59687e-06
-2.3734e-07
-5.86729e-08
7.04392e-08
1.45127e-07
8.68478e-06
-8.99979e-06
-1.75545e-07
-7.61849e-08
9.57271e-08
1.01794e-08
9.82077e-06
-1.00566e-05
-2.25449e-08
-1.02569e-07
1.41658e-07
-2.16595e-07
1.06764e-05
-1.08532e-05
2.29314e-07
-1.48604e-07
2.16259e-07
-4.94593e-07
1.12961e-05
-1.14187e-05
5.56457e-07
-2.23568e-07
3.30847e-07
-8.1552e-07
1.17505e-05
-1.18616e-05
9.47652e-07
-3.39106e-07
5.04533e-07
-1.23755e-06
1.22518e-05
-1.24202e-05
1.46579e-06
-5.12524e-07
7.49855e-07
-1.72828e-06
1.2975e-05
-1.31553e-05
2.09915e-06
-7.55055e-07
1.06944e-06
-2.13748e-06
1.38495e-05
-1.41827e-05
2.58989e-06
-1.06507e-06
1.49266e-06
-2.69683e-06
1.56549e-05
-1.63385e-05
3.26996e-06
-1.46747e-06
1.89079e-06
-3.44507e-06
1.89861e-05
-2.0029e-05
4.27186e-06
-1.83351e-06
1.55414e-06
-3.8838e-06
2.30193e-05
-2.37485e-05
5.03997e-06
-1.49197e-06
4.50994e-09
2.99024e-08
-1.07365e-06
-4.79174e-09
3.68136e-08
2.23029e-07
4.05026e-06
-4.95799e-06
-3.90556e-08
6.24622e-08
3.27247e-07
7.43532e-06
-8.18238e-06
-6.65544e-08
8.67548e-08
3.40427e-07
1.0204e-05
-1.08055e-05
-9.28029e-08
1.15731e-07
2.52334e-07
1.24105e-05
-1.28807e-05
-1.23606e-07
1.59122e-07
5.35586e-08
1.41174e-05
-1.44758e-05
-1.6837e-07
2.32521e-07
-2.71789e-07
1.54222e-05
-1.57e-05
-2.42539e-07
3.55954e-07
-7.50583e-07
1.64588e-05
-1.66911e-05
-3.66421e-07
5.40902e-07
-1.36406e-06
1.73528e-05
-1.75639e-05
-5.51788e-07
7.98041e-07
-2.08659e-06
1.82043e-05
-1.8427e-05
-8.09654e-07
1.1511e-06
-2.88234e-06
1.91795e-05
-1.94686e-05
-1.15847e-06
1.63558e-06
-3.64013e-06
2.05952e-05
-2.11086e-05
-1.63256e-06
2.37055e-06
-4.62893e-06
2.33973e-05
-2.44643e-05
-2.33088e-06
3.46958e-06
-6.107e-06
2.87868e-05
-3.06083e-05
-3.36008e-06
4.67965e-06
-7.72881e-06
3.66253e-05
-3.85314e-05
-4.56281e-06
2.03631e-10
-4.91592e-08
-4.46363e-10
-2.05683e-10
1.71139e-09
1.85281e-07
-2.26583e-07
-1.49182e-09
-1.73991e-09
2.97098e-09
3.37151e-07
-3.69326e-07
1.10441e-09
-3.06029e-09
3.85388e-09
4.50855e-07
-4.732e-07
-1.18914e-10
-3.91475e-09
4.43791e-09
5.26651e-07
-5.4033e-07
-4.01e-09
-4.32976e-09
5.34262e-09
5.78212e-07
-5.87924e-07
4.9464e-09
-5.32301e-09
6.81893e-09
6.06615e-07
-6.09896e-07
1.26269e-08
-6.67071e-09
9.92315e-09
6.19506e-07
-6.23973e-07
2.91969e-08
-9.44947e-09
1.52435e-08
6.33803e-07
-6.35157e-07
6.31617e-08
-1.44816e-08
2.16275e-08
6.37771e-07
-6.38424e-07
9.08513e-08
-2.06239e-08
2.87091e-08
6.37538e-07
-6.35662e-07
1.1336e-07
-2.75837e-08
3.46523e-08
6.23214e-07
-6.17013e-07
1.27255e-07
-3.30859e-08
3.54799e-08
5.88103e-07
-5.71209e-07
1.38618e-07
-3.31832e-08
2.31857e-08
4.66718e-07
-4.07611e-07
1.20134e-07
-2.13322e-08
3.76087e-09
1.68599e-07
3.53985e-08
-3.34518e-09
-2.71747e-08
-6.99418e-09
-2.56223e-08
-7.47042e-09
1.80194e-09
2.08946e-09
-4.40101e-07
-2.98548e-09
-1.79385e-09
1.49833e-08
9.84499e-09
1.65686e-06
-2.02526e-06
-1.61819e-08
-1.49663e-08
2.59779e-08
2.72572e-09
3.01615e-06
-3.30675e-06
-1.12156e-08
-2.62745e-08
3.52193e-08
-2.26276e-09
4.06039e-06
-4.27313e-06
-1.75013e-09
-3.56716e-08
4.3992e-08
-1.68807e-08
4.81127e-06
-4.95782e-06
2.36713e-08
-4.44641e-08
5.48767e-08
-5.2915e-08
5.30976e-06
-5.40055e-06
7.31948e-08
-5.49594e-08
7.22902e-08
-9.9857e-08
5.60928e-06
-5.65977e-06
1.43038e-07
-7.05014e-08
1.01651e-07
-1.65351e-07
5.76809e-06
-5.79914e-06
2.31832e-07
-9.77824e-08
1.5051e-07
-2.78462e-07
5.89306e-06
-5.92469e-06
3.71139e-07
-1.44047e-07
2.17063e-07
-4.04902e-07
6.02948e-06
-6.06979e-06
5.42678e-07
-2.07531e-07
2.95315e-07
-5.24356e-07
6.18136e-06
-6.21655e-06
7.18884e-07
-2.82755e-07
3.74131e-07
-6.26481e-07
6.31589e-06
-6.35511e-06
8.86421e-07
-3.55215e-07
4.223e-07
-7.22615e-07
6.44263e-06
-6.43953e-06
1.04462e-06
-3.91692e-07
-7.14906e-07
3.50027e-07
6.11611e-06
-5.85801e-06
-3.14346e-07
1.08716e-06
-4.62684e-07
1.2922e-07
4.58125e-06
-4.07627e-06
-1.10987e-07
8.42537e-07
3.34835e-09
7.42493e-09
-8.08795e-07
-9.38145e-09
-3.31757e-09
2.7364e-08
5.08159e-08
3.0396e-06
-3.71377e-06
-6.5929e-08
-2.7082e-08
4.6786e-08
6.22923e-08
5.5317e-06
-6.06965e-06
-8.41939e-08
-4.65827e-08
6.55154e-08
4.43417e-08
7.49436e-06
-7.90759e-06
-6.60932e-08
-6.56166e-08
8.68761e-08
-1.09046e-08
8.98139e-06
-9.28475e-06
-2.80559e-09
-8.76392e-08
1.14372e-07
-1.0598e-07
1.00473e-05
-1.02551e-05
1.08363e-07
-1.14966e-07
1.56356e-07
-2.48051e-07
1.07717e-05
-1.09145e-05
2.77158e-07
-1.54758e-07
2.25483e-07
-4.46292e-07
1.12837e-05
-1.13955e-05
5.2139e-07
-2.20206e-07
3.34258e-07
-7.12289e-07
1.17333e-05
-1.18574e-05
8.48567e-07
-3.24779e-07
4.91223e-07
-1.06713e-06
1.23025e-05
-1.24984e-05
1.27257e-06
-4.73744e-07
7.0116e-07
-1.54862e-06
1.3217e-05
-1.34862e-05
1.8483e-06
-6.66061e-07
9.57463e-07
-2.02599e-06
1.4478e-05
-1.49223e-05
2.43913e-06
-9.00045e-07
1.25072e-06
-2.54543e-06
1.65398e-05
-1.71861e-05
3.09434e-06
-1.14873e-06
1.44805e-06
-3.07362e-06
1.95865e-05
-2.05385e-05
3.83342e-06
-1.27917e-06
1.0554e-06
-3.35479e-06
2.31212e-05
-2.36777e-05
4.38101e-06
-8.71254e-07
5.2032e-09
1.48311e-08
-1.13398e-06
-5.18684e-09
4.22406e-08
1.08359e-07
4.25965e-06
-5.20553e-06
-4.1982e-08
7.23881e-08
1.42965e-07
7.76934e-06
-8.53427e-06
-7.19674e-08
1.021e-07
1.22787e-07
1.05789e-05
-1.11789e-05
-1.0187e-07
1.36698e-07
3.80006e-08
1.2759e-05
-1.32159e-05
-1.37022e-07
1.83609e-07
-1.16975e-07
1.44025e-05
-1.47408e-05
-1.83884e-07
2.55614e-07
-3.69674e-07
1.56239e-05
-1.58833e-05
-2.54073e-07
3.7303e-07
-7.61728e-07
1.6605e-05
-1.68337e-05
-3.67313e-07
5.48814e-07
-1.28415e-06
1.75084e-05
-1.77336e-05
-5.36689e-07
7.87169e-07
-1.89316e-06
1.84548e-05
-1.87248e-05
-7.6352e-07
1.08621e-06
-2.60931e-06
1.97071e-05
-2.01053e-05
-1.03887e-06
1.48197e-06
-3.44897e-06
2.16362e-05
-2.23134e-05
-1.39509e-06
1.99857e-06
-4.39551e-06
2.49568e-05
-2.60982e-05
-1.83833e-06
2.63379e-06
-5.54643e-06
3.04765e-05
-3.22774e-05
-2.32486e-06
2.85867e-06
-6.54704e-06
3.78655e-05
-3.93896e-05
-2.23072e-06
1.99408e-10
-5.20738e-08
6.78744e-10
-1.8975e-10
1.70089e-09
1.95638e-07
-2.38994e-07
7.85707e-09
-1.6106e-09
3.02692e-09
3.54939e-07
-3.88321e-07
1.75872e-08
-2.8504e-09
3.80771e-09
4.70443e-07
-4.91886e-07
1.91263e-08
-3.64468e-09
3.85619e-09
5.37586e-07
-5.46789e-07
5.37525e-09
-3.86517e-09
4.73929e-09
5.78183e-07
-5.87583e-07
6.19687e-09
-4.63044e-09
5.95557e-09
6.03227e-07
-6.04502e-07
1.21949e-08
-5.67512e-09
7.74971e-09
6.04594e-07
-6.05329e-07
1.57121e-08
-7.19227e-09
1.1447e-08
6.09768e-07
-6.12201e-07
3.84967e-08
-1.03757e-08
1.66599e-08
6.23212e-07
-6.27503e-07
6.96868e-08
-1.51859e-08
2.30268e-08
6.36618e-07
-6.37392e-07
9.74508e-08
-2.12021e-08
2.73718e-08
6.31337e-07
-6.26517e-07
1.13278e-07
-2.51907e-08
2.64822e-08
6.01012e-07
-5.86987e-07
1.23443e-07
-2.44002e-08
1.70637e-08
5.13216e-07
-4.74336e-07
1.18406e-07
-1.59749e-08
4.05589e-09
3.27e-07
-2.79551e-07
7.69335e-08
-3.99916e-09
1.65316e-09
-1.81582e-09
-4.60614e-07
1.71536e-09
-1.55477e-09
1.38229e-08
-2.18535e-08
1.7273e-06
-2.10852e-06
2.12478e-08
-1.29351e-08
2.46124e-08
-5.3558e-08
3.13225e-06
-3.4292e-06
5.45077e-08
-2.29265e-08
3.35464e-08
-7.42266e-08
4.18684e-06
-4.39457e-06
8.14767e-08
-3.14548e-08
4.17987e-08
-8.3948e-08
4.90546e-06
-5.03876e-06
1.00547e-07
-3.94248e-08
5.01281e-08
-8.25831e-08
5.33088e-06
-5.39827e-06
1.11322e-07
-4.73244e-08
6.12517e-08
-8.73385e-08
5.54353e-06
-5.57518e-06
1.27867e-07
-5.76174e-08
8.13926e-08
-1.20112e-07
5.64222e-06
-5.66633e-06
1.80687e-07
-7.54967e-08
1.1772e-07
-2.11677e-07
5.75312e-06
-5.78952e-06
3.01266e-07
-1.0783e-07
1.68913e-07
-3.31686e-07
5.91065e-06
-5.95557e-06
4.57423e-07
-1.53947e-07
2.30686e-07
-4.51009e-07
6.09101e-06
-6.13845e-06
6.19202e-07
-2.10076e-07
2.86199e-07
-5.59396e-07
6.27559e-06
-6.32064e-06
7.87965e-07
-2.59514e-07
3.00397e-07
-6.46823e-07
6.36363e-06
-6.32807e-06
9.21826e-07
-2.70029e-07
2.23631e-07
-6.40226e-07
5.98073e-06
-5.77564e-06
9.26946e-07
-1.98878e-07
7.08077e-08
-4.98586e-07
4.92273e-06
-4.62264e-06
7.73371e-07
-6.10298e-08
2.96129e-09
3.0302e-10
-8.38264e-07
-1.35909e-09
-2.75224e-09
2.38008e-08
-3.72083e-09
3.13876e-06
-3.82994e-06
-4.68517e-09
-2.18592e-08
4.09608e-08
-3.0134e-08
5.68936e-06
-6.23464e-06
1.73436e-08
-3.74764e-08
5.87561e-08
-6.85251e-08
7.65302e-06
-8.05761e-06
5.7987e-08
-5.42691e-08
8.07474e-08
-1.2388e-07
9.10502e-06
-9.40083e-06
1.26449e-07
-7.53707e-08
1.06601e-07
-1.93495e-07
1.013e-05
-1.0318e-05
2.18368e-07
-1.00179e-07
1.39012e-07
-2.68672e-07
1.07508e-05
-1.08631e-05
3.20089e-07
-1.29905e-07
1.90823e-07
-4.01496e-07
1.11546e-05
-1.12526e-05
4.8979e-07
-1.76678e-07
2.78955e-07
-6.40287e-07
1.15887e-05
-1.17242e-05
7.81889e-07
-2.56819e-07
3.99286e-07
-9.43535e-07
1.21591e-05
-1.23204e-05
1.14879e-06
-3.64957e-07
5.38768e-07
-1.27767e-06
1.2857e-05
-1.30889e-05
1.52378e-06
-4.87089e-07
7.00572e-07
-1.70891e-06
1.39678e-05
-1.4314e-05
2.03106e-06
-6.24096e-07
8.21868e-07
-2.09038e-06
1.53637e-05
-1.57091e-05
2.51579e-06
-7.13954e-07
7.9191e-07
-2.30219e-06
1.67553e-05
-1.70895e-05
2.85763e-06
-6.60939e-07
4.26888e-07
-2.30038e-06
1.78349e-05
-1.7929e-05
2.9797e-06
-3.29659e-07
4.63299e-09
4.3669e-09
-1.1687e-06
-4.28664e-09
3.72033e-08
2.75295e-08
4.38109e-06
-5.3479e-06
-3.42876e-08
6.34517e-08
1.72854e-08
7.94975e-06
-8.71981e-06
-5.82905e-08
9.08166e-08
-3.07264e-08
1.07634e-05
-1.136e-05
-8.38398e-08
1.24448e-07
-1.31e-07
1.29331e-05
-1.33891e-05
-1.15603e-07
1.67816e-07
-2.81231e-07
1.4565e-05
-1.48919e-05
-1.56223e-07
2.28174e-07
-4.71595e-07
1.57111e-05
-1.59436e-05
-2.11108e-07
3.24166e-07
-7.88272e-07
1.66095e-05
-1.68282e-05
-2.98528e-07
4.63537e-07
-1.23368e-06
1.74516e-05
-1.76661e-05
-4.23404e-07
6.49656e-07
-1.76051e-06
1.8367e-05
-1.86036e-05
-5.94355e-07
8.43312e-07
-2.20086e-06
1.93047e-05
-1.95976e-05
-7.60959e-07
1.07369e-06
-2.82004e-06
2.08043e-05
-2.13272e-05
-9.53882e-07
1.31208e-06
-3.50763e-06
2.32381e-05
-2.40102e-05
-1.13814e-06
1.44568e-06
-4.16735e-06
2.66926e-05
-2.76701e-05
-1.19793e-06
9.65778e-07
-4.48388e-06
3.02458e-05
-3.08411e-05
-7.20904e-07
1.30429e-10
-5.24114e-08
7.09562e-10
-1.02299e-10
1.09767e-09
1.95564e-07
-2.38079e-07
6.13482e-09
-8.55714e-10
1.92493e-09
3.50085e-07
-3.8223e-07
1.09021e-08
-1.49681e-09
2.5634e-09
4.63894e-07
-4.86093e-07
1.35924e-08
-1.98436e-09
3.11343e-09
5.38878e-07
-5.51899e-07
1.10944e-08
-2.44619e-09
3.78403e-09
5.82569e-07
-5.90645e-07
1.22438e-08
-3.06323e-09
4.44383e-09
6.07769e-07
-6.11188e-07
2.09765e-08
-3.68429e-09
5.35913e-09
6.17968e-07
-6.20439e-07
3.21403e-08
-4.44323e-09
7.14922e-09
6.30369e-07
-6.3481e-07
5.70815e-08
-5.83258e-09
1.03757e-08
6.51179e-07
-6.56789e-07
9.07532e-08
-8.395e-09
1.45716e-08
6.66727e-07
-6.6723e-07
1.15287e-07
-1.16676e-08
1.72437e-08
6.63866e-07
-6.62614e-07
1.28479e-07
-1.37281e-08
1.68439e-08
6.53512e-07
-6.46071e-07
1.43031e-07
-1.34212e-08
1.15523e-08
6.08973e-07
-5.93409e-07
1.43624e-07
-9.37057e-09
2.83967e-09
5.44627e-07
-5.32057e-07
1.32183e-07
-2.28277e-09
1.06976e-09
-2.24244e-09
-4.62783e-07
2.44298e-09
-8.44383e-10
8.82961e-09
-2.06857e-08
1.7296e-06
-2.10758e-06
2.35199e-08
-6.95832e-09
1.5402e-08
-4.2761e-08
3.1122e-06
-3.40209e-06
5.18287e-08
-1.20713e-08
2.12593e-08
-6.48844e-08
4.14581e-06
-4.35288e-06
8.11872e-08
-1.66104e-08
2.7536e-08
-8.09581e-08
4.86607e-06
-5.00196e-06
1.08143e-07
-2.17122e-08
3.45691e-08
-9.44618e-08
5.31892e-06
-5.39506e-06
1.32105e-07
-2.76777e-08
4.28078e-08
-1.17775e-07
5.56709e-06
-5.60975e-06
1.63246e-07
-3.4595e-08
5.47143e-08
-1.72537e-07
5.72561e-06
-5.76609e-06
2.36726e-07
-4.42648e-08
7.42908e-08
-2.7828e-07
5.90014e-06
-5.94474e-06
3.71417e-07
-5.95711e-08
1.03318e-07
-3.95957e-07
6.07253e-06
-6.10576e-06
5.14418e-07
-8.22792e-08
1.38609e-07
-4.73418e-07
6.16132e-06
-6.16708e-06
6.09753e-07
-1.09285e-07
1.66214e-07
-5.29833e-07
6.18338e-06
-6.19944e-06
6.90516e-07
-1.29447e-07
1.67801e-07
-6.08761e-07
6.25073e-06
-6.25167e-06
8.06952e-07
-1.29706e-07
1.25505e-07
-6.47076e-07
6.1507e-06
-6.1019e-06
8.79086e-07
-9.88408e-08
3.53779e-08
-6.24658e-07
5.84825e-06
-5.74832e-06
8.54324e-07
-2.75849e-08
1.85699e-09
-1.96459e-09
-8.41993e-07
1.55107e-09
-1.46917e-09
1.44484e-08
-2.30926e-08
3.15584e-06
-3.85185e-06
2.05927e-08
-1.14725e-08
2.38739e-08
-6.09944e-08
5.7035e-06
-6.23865e-06
5.54097e-08
-1.86689e-08
3.55645e-08
-1.1031e-07
7.65187e-06
-8.05407e-06
1.12884e-07
-2.76898e-08
5.03019e-08
-1.77597e-07
9.0983e-06
-9.39431e-06
1.96301e-07
-3.91339e-08
6.78253e-08
-2.49417e-07
1.01215e-05
-1.03063e-05
2.88763e-07
-5.27687e-08
8.74152e-08
-3.09095e-07
1.07209e-05
-1.08262e-05
3.64175e-07
-6.81983e-08
1.16739e-07
-4.27475e-07
1.11167e-05
-1.12197e-05
5.00282e-07
-9.1068e-08
1.65031e-07
-6.5053e-07
1.15583e-05
-1.16785e-05
7.55374e-07
-1.27518e-07
2.30089e-07
-8.99979e-07
1.20317e-05
-1.21364e-05
1.05352e-06
-1.76269e-07
3.0049e-07
-1.09458e-06
1.2415e-05
-1.25097e-05
1.29333e-06
-2.29905e-07
3.69569e-07
-1.3048e-06
1.28811e-05
-1.30406e-05
1.55396e-06
-2.80877e-07
4.05307e-07
-1.58771e-06
1.36399e-05
-1.38741e-05
1.88008e-06
-3.06917e-07
3.48681e-07
-1.81148e-06
1.44887e-05
-1.46237e-05
2.16012e-06
-2.62854e-07
1.41505e-07
-1.79396e-06
1.47487e-05
-1.47065e-05
2.16973e-06
-1.00774e-07
2.79554e-09
-1.89468e-10
-1.17404e-06
-2.17075e-09
2.22472e-08
-1.07861e-08
4.40918e-06
-5.38368e-06
-1.72985e-08
3.70309e-08
-4.01646e-08
7.98433e-06
-8.75103e-06
-2.86831e-08
5.45663e-08
-1.17362e-07
1.08098e-05
-1.14096e-05
-4.22997e-08
7.60838e-08
-2.45224e-07
1.2994e-05
-1.34532e-05
-5.90988e-08
1.03164e-07
-4.06042e-07
1.46265e-05
-1.49458e-05
-8.02601e-08
1.36302e-07
-5.56587e-07
1.57144e-05
-1.59205e-05
-1.05722e-07
1.84858e-07
-7.80006e-07
1.64842e-05
-1.6656e-05
-1.42575e-07
2.66996e-07
-1.11315e-06
1.71554e-05
-1.73315e-05
-2.04934e-07
3.70283e-07
-1.52612e-06
1.78962e-05
-1.80878e-05
-2.81122e-07
4.73207e-07
-1.88053e-06
1.86491e-05
-1.88587e-05
-3.63292e-07
5.79386e-07
-2.25874e-06
1.96194e-05
-1.99258e-05
-4.46036e-07
6.56473e-07
-2.66573e-06
2.10108e-05
-2.14313e-05
-5.02289e-07
6.2142e-07
-3.02688e-06
2.27726e-05
-2.32089e-05
-4.66423e-07
2.91245e-07
-3.1194e-06
2.41921e-05
-2.43645e-05
-2.0682e-07
1.36135e-07
4.98129e-09
3.50919e-08
-2.03848e-08
-5.65757e-09
-2.09473e-08
-5.5245e-09
-9.354e-08
2.26676e-06
4.97143e-07
9.431e-08
-2.41809e-07
-1.84062e-06
1.85734e-08
2.9348e-07
-1.88199e-08
1.20189e-06
-1.99137e-08
-1.8012e-08
-1.79892e-08
-1.99826e-08
-7.56009e-06
3.34446e-05
4.66521e-06
-3.48087e-05
7.61829e-08
-1.52341e-06
-7.60192e-08
9.24839e-06
1.5816e-06
2.40306e-06
-2.46843e-07
-1.95328e-06
-9.01737e-08
2.98274e-07
1.2732e-06
1.82859e-08
-2.00597e-08
-1.80428e-08
-2.00491e-08
-1.80401e-08
1.60572e-07
4.15948e-09
3.50998e-08
-2.41517e-08
-6.72611e-09
-2.47838e-08
-6.54141e-09
-6.7931e-08
2.57576e-06
4.80804e-07
7.66633e-08
-2.37045e-07
-2.09706e-06
1.80388e-08
2.83547e-07
-1.79244e-08
1.36836e-06
-1.92286e-08
-1.71667e-08
-1.73314e-08
-1.90403e-08
-1.54852e-06
9.77997e-06
1.60948e-06
7.4522e-08
-7.03931e-06
3.91369e-05
3.52907e-06
-4.09811e-05
-6.15361e-06
1.85637e-08
4.30487e-05
2.3841e-07
-7.92743e-08
1.82979e-07
-8.02098e-08
2.59414e-06
-2.32226e-07
-2.12134e-06
-5.94749e-08
2.76668e-07
1.39677e-06
1.87008e-08
-1.94673e-08
-1.72057e-08
-1.90441e-08
-1.76076e-08
2.67238e-07
3.84027e-09
-2.05842e-07
6.09328e-08
1.71476e-09
1.21774e-07
2.97692e-08
7.18691e-11
-8.04662e-11
-2.66565e-10
2.36578e-11
2.9638e-06
4.70039e-07
-4.2965e-08
4.74233e-08
-2.73178e-07
-2.61776e-06
3.44625e-07
2.99656e-08
-2.45749e-08
-1.77206e-07
2.12296e-06
-3.81201e-06
2.15424e-05
1.57097e-06
-2.21775e-05
4.94665e-06
2.28444e-07
-3.3397e-06
-2.31422e-07
2.27847e-05
4.35659e-06
-3.736e-06
3.18152e-05
3.74523e-06
-3.31068e-05
-6.7925e-06
-1.64443e-07
1.49511e-06
1.65096e-06
1.6206e-06
1.46938e-07
3.45102e-05
-5.7587e-06
-5.99593e-06
2.70723e-05
3.50106e-06
-2.86222e-05
-4.46602e-06
-7.26688e-06
4.48361e-06
3.19052e-05
-3.41755e-06
2.44638e-05
4.46239e-06
2.2823e-07
3.45705e-05
-3.62118e-05
-3.61598e-06
-6.93052e-06
1.67687e-06
1.57218e-06
1.69705e-06
3.80822e-05
-1.65823e-07
-5.92345e-06
-3.59905e-06
2.3983e-05
1.23258e-06
-2.46683e-05
4.68646e-06
-3.20464e-06
2.51514e-07
-2.43126e-07
2.53095e-05
4.22669e-06
-2.38309e-06
3.67568e-05
2.88524e-06
-3.84255e-05
-6.39492e-06
1.38533e-07
1.33545e-08
4.02874e-05
-5.66473e-06
-7.41446e-06
-4.32254e-06
3.46181e-05
-5.8104e-06
3.08003e-05
2.92542e-06
-3.27608e-05
-6.85004e-06
-2.95299e-06
3.5032e-06
3.70437e-05
-4.411e-06
4.45604e-06
-9.67689e-06
-9.86949e-06
-1.01489e-05
-1.04069e-05
-7.78815e-06
-4.12997e-05
-4.15298e-06
-7.70236e-06
3.88557e-05
-1.08075e-05
-4.03074e-06
-1.12639e-05
-1.05669e-05
-1.09319e-05
-7.75719e-06
-5.78536e-06
4.11098e-05
1.83936e-07
-4.96335e-06
3.22212e-05
1.28688e-06
-3.29833e-05
-4.52444e-06
3.42667e-07
-3.31161e-07
3.38178e-05
-1.88985e-12
7.63788e-11
-2.76909e-11
1.8017e-11
1.78505e-12
3.69254e-11
3.00624e-10
-8.06523e-11
-3.32518e-11
1.3252e-09
-5.96145e-10
3.49913e-08
6.67348e-09
5.40914e-10
-2.26681e-09
-1.76906e-08
-3.07814e-05
-7.25366e-06
2.98192e-05
4.41242e-06
-9.16726e-06
-8.64505e-06
-9.31521e-06
-8.76907e-06
-7.59343e-06
-8.11149e-06
-8.21074e-06
-7.27057e-06
-8.36311e-07
-1.84934e-06
-9.22982e-06
8.32142e-07
1.90317e-06
-5.2831e-10
3.81739e-08
6.68289e-09
4.94777e-10
-1.92816e-08
-2.27436e-09
7.72999e-11
-2.80216e-11
1.80563e-11
-1.75068e-12
3.00263e-10
-8.03193e-11
1.34304e-09
3.25239e-11
3.58652e-08
6.7057e-09
-5.24924e-10
-2.27422e-09
-1.81202e-08
3.42567e-11
2.94663e-10
1.44552e-09
-3.07798e-11
-7.82715e-11
-1.6994e-12
8.32253e-11
1.81671e-11
1.62102e-12
-3.01518e-11
3.87488e-08
6.64138e-09
-1.9576e-08
-4.48383e-10
-2.2637e-09
-1.39881e-12
9.1495e-11
-3.30479e-11
1.82017e-11
1.33847e-12
3.34136e-11
2.84048e-10
-7.41429e-11
-2.94635e-11
1.55178e-09
2.93893e-10
1.4568e-09
-7.7827e-11
3.02381e-11
-3.9462e-10
4.10087e-08
6.51233e-09
3.88303e-10
-2.23595e-09
-2.07832e-08
8.40294e-11
1.81484e-11
-3.04414e-11
-1.5554e-12
-1.87705e-06
-9.75351e-06
1.93165e-06
-8.35118e-07
6.63738e-08
-1.60269e-06
-7.13753e-08
1.10116e-05
1.67555e-06
-7.63525e-07
-1.87968e-06
1.94969e-06
8.11359e-07
-1.09533e-05
-4.19218e-05
-7.4483e-06
3.96288e-05
3.28894e-06
-4.23746e-05
-2.46191e-06
-7.0092e-06
-1.08656e-05
-1.12052e-05
-1.07681e-05
-1.1075e-05
-7.43572e-06
-1.5924e-06
7.64707e-08
1.10634e-05
1.65104e-06
-6.71508e-06
5.4832e-07
6.19266e-07
4.54132e-07
7.4727e-07
-1.52689e-06
-1.85163e-06
1.90943e-06
-1.09945e-05
-7.04205e-07
6.11267e-08
9.10363e-09
-3.56135e-10
2.65617e-10
-3.66648e-08
-3.91877e-09
9.37778e-11
-3.3907e-11
1.83998e-11
-1.27862e-12
2.85761e-10
-7.42894e-11
1.58413e-09
3.04166e-11
7.37811e-13
2.99923e-12
1.0693e-11
-1.42493e-13
-5.86564e-14
-1.47635e-13
-5.67916e-14
4.23774e-08
6.56176e-09
-3.18729e-10
-2.26533e-09
-2.16056e-08
8.1196e-10
9.56675e-11
4.8231e-09
-6.53286e-11
-3.61922e-10
3.62724e-10
-5.26792e-12
7.14697e-11
1.08861e-12
-1.75581e-10
4.07709e-07
2.86605e-08
-3.5121e-07
1.28996e-07
-1.0119e-08
1.01833e-08
6.14644e-08
2.1146e-07
-2.85208e-07
3.72285e-06
7.80519e-07
2.86701e-07
-4.89693e-07
-3.44734e-06
-1.43809e-07
5.8793e-07
1.44878e-07
-3.1534e-07
2.70363e-06
4.13137e-06
1.84026e-07
-3.6685e-06
9.29014e-07
4.74019e-08
-4.7646e-08
2.97186e-06
6.71442e-07
-1.02931e-06
1.63413e-05
1.04094e-06
-1.65392e-05
-2.61501e-06
2.02863e-07
-2.04278e-07
1.65647e-05
-2.21298e-06
6.261e-08
-9.8128e-09
2.23608e-07
3.90917e-06
-4.96106e-07
-3.62968e-06
-2.77576e-07
5.99544e-07
-3.21711e-07
-1.39062e-07
2.86105e-06
4.61576e-07
2.50246e-08
-4.01527e-07
1.24373e-07
-7.89931e-09
8.63981e-09
6.11676e-08
2.46834e-07
-2.25188e-07
4.15585e-06
7.466e-07
2.46174e-07
-4.70382e-07
-3.8678e-06
-1.077e-07
5.67701e-07
1.20035e-07
-3.08255e-07
3.06025e-06
7.05041e-09
3.17163e-07
-6.60793e-09
-3.74721e-08
-1.35262e-08
-1.32709e-08
-1.8852e-09
-1.88861e-09
-4.0114e-09
-4.00416e-09
5.88783e-08
7.77329e-11
-3.07542e-10
-7.83113e-11
-3.11865e-10
7.26405e-10
-7.64495e-11
3.2926e-09
-3.03999e-07
-1.84459e-08
1.90622e-08
1.06148e-07
5.27593e-07
3.58105e-08
-4.50027e-09
-2.24282e-08
-6.16523e-09
-2.28828e-08
-6.04331e-09
1.50349e-07
7.31595e-09
-3.67671e-08
-1.26958e-08
-1.29967e-08
-1.88398e-09
-1.88859e-09
-4.00838e-09
-3.99432e-09
5.88228e-08
-1.73912e-08
1.06494e-07
5.50648e-07
-7.01565e-11
-3.31261e-10
-8.25026e-11
-3.28494e-10
7.28322e-10
7.25734e-11
3.5058e-09
3.15625e-06
4.68423e-08
6.8573e-07
1.74042e-05
-1.76445e-05
-9.87714e-07
-2.66517e-06
1.77077e-05
2.0181e-07
-2.26362e-06
4.62075e-06
1.47541e-07
-4.10802e-06
8.8764e-07
4.52606e-08
-4.57225e-08
3.33163e-06
6.47253e-07
-7.00562e-07
1.79968e-05
8.17438e-07
-1.81805e-05
-2.45948e-06
2.03892e-07
-2.04071e-07
1.81776e-05
-2.11221e-06
6.06907e-08
-7.19699e-09
2.54981e-07
4.15776e-06
-4.52851e-07
-3.86937e-06
-2.041e-07
5.44968e-07
-2.99835e-07
-9.55995e-08
3.07234e-06
4.94357e-07
1.82518e-08
-4.48294e-07
1.15165e-07
-6.84784e-09
6.80969e-09
7.7102e-08
3.32382e-07
4.1871e-06
6.49119e-07
-1.51546e-07
1.67139e-07
-4.21538e-07
-3.94948e-06
5.26546e-07
-7.02447e-08
7.70532e-08
-3.1843e-07
3.32457e-06
4.72339e-09
4.09782e-07
-4.89067e-09
-5.02758e-08
-2.63541e-08
-1.96207e-08
-2.99244e-09
-2.26395e-09
-4.44516e-09
-5.24517e-09
6.51849e-08
5.88081e-11
-3.72189e-10
-9.74325e-11
-3.86472e-10
7.37766e-10
-5.56889e-11
4.01194e-09
-3.58277e-07
-1.29341e-08
1.44202e-08
1.03011e-07
6.06144e-07
3.84845e-08
-3.26768e-09
-2.95561e-08
-9.74364e-09
-3.44556e-08
-8.28168e-09
1.85418e-07
5.35161e-09
-4.5304e-08
-1.53491e-08
-1.67457e-08
-1.8958e-09
-2.00331e-09
-4.13902e-09
-3.98848e-09
5.80554e-08
-1.23733e-08
1.08087e-07
6.54071e-07
-6.97917e-11
-1.07728e-09
-2.10523e-10
-7.41152e-10
1.16438e-09
2.51959e-11
6.0649e-09
3.31649e-06
4.51871e-08
6.18979e-07
1.73286e-05
-1.74246e-05
-2.29224e-06
-5.7869e-07
2.98632e-06
1.73172e-05
-1.97036e-06
1.99518e-07
4.72239e-06
8.19377e-08
-4.34796e-06
7.66498e-07
5.22927e-08
-4.85451e-08
3.80983e-06
6.11099e-07
2.51778e-06
1.44972e-05
-2.88343e-07
3.67187e-07
-1.78579e-06
-1.44031e-05
2.24441e-06
1.68394e-07
-1.79698e-07
-1.55009e-06
1.41045e-05
2.21022e-07
5.45093e-08
3.10369e-09
3.22534e-06
-3.07324e-07
-2.95078e-06
-3.85387e-08
3.97299e-07
-2.32387e-07
2.56993e-06
3.50675e-08
5.00815e-07
3.32496e-09
-4.83215e-07
1.21587e-07
4.71058e-09
-4.68985e-09
4.64906e-07
1.13387e-07
4.04569e-06
5.98889e-07
-2.41467e-08
2.90402e-08
-4.0971e-07
-3.93222e-06
5.43083e-07
3.74068e-08
-3.94145e-08
-3.73493e-07
3.77849e-06
2.67051e-07
-7.42446e-09
-3.35217e-08
-1.21296e-08
-1.89614e-09
-3.9332e-09
5.60217e-08
3.38975e-08
-1.99224e-08
-5.42421e-09
1.26419e-07
-3.03849e-10
-7.56434e-11
-3.00935e-10
7.23655e-10
7.90484e-11
3.21673e-09
1.92275e-08
-2.87526e-07
1.04081e-07
4.98015e-07
1.00132e-07
4.61956e-07
-3.40981e-08
-1.23953e-08
-1.2176e-08
-1.87634e-09
-1.87722e-09
-3.94583e-09
-3.9696e-09
5.79263e-08
1.1322e-07
-5.06622e-09
-6.67566e-09
-3.71196e-09
-3.58582e-08
-9.36867e-08
4.81949e-07
1.11045e-06
-1.99062e-08
-1.80183e-08
2.81838e-07
6.37626e-10
-3.0317e-10
-3.15769e-10
-3.18007e-10
-6.48819e-10
3.05145e-08
7.50542e-09
1.21352e-08
-1.16987e-07
-1.20392e-08
1.47311e-06
3.37334e-07
1.35675e-06
3.23114e-07
-5.03423e-09
-6.65076e-09
-3.6423e-09
-3.65518e-09
-3.7309e-08
-3.6452e-08
-9.5987e-08
-9.87946e-08
5.20147e-07
4.78377e-09
1.18223e-07
-4.28875e-09
-6.71497e-09
-3.62868e-09
-3.64911e-09
-4.06625e-08
-3.99861e-08
-1.05947e-07
-1.07736e-07
5.72952e-07
-3.15425e-10
-3.00185e-10
-3.1547e-10
3.13161e-08
6.27362e-10
7.49403e-09
-1.18495e-07
-1.12608e-08
1.56296e-06
3.43749e-07
1.32361e-06
1.80641e-08
-2.00213e-08
-1.78846e-08
-1.98989e-08
-1.79999e-08
2.97699e-07
-6.72469e-09
-3.65171e-09
-3.65708e-09
-3.82951e-08
-3.91892e-08
-1.03935e-07
-1.0143e-07
5.50274e-07
6.00084e-10
-3.0819e-10
-2.96829e-10
-3.10644e-10
3.32691e-08
-6.08723e-10
7.40689e-09
-9.76569e-09
1.62541e-06
3.43447e-07
3.27456e-07
-6.01906e-09
-3.93944e-08
-1.37663e-08
-1.40162e-08
-1.87904e-09
-1.87054e-09
-3.97136e-09
-3.993e-09
5.81544e-08
3.55218e-08
-2.37278e-08
-6.28655e-09
-2.32898e-08
-6.41224e-09
1.55467e-07
-3.63478e-10
-8.97454e-11
-3.56648e-10
7.23768e-10
6.17008e-11
3.83016e-09
1.59918e-08
-3.38225e-07
1.03301e-07
5.8283e-07
1.052e-07
5.67528e-07
-4.00145e-08
-1.46976e-08
-1.42895e-08
-1.86742e-09
-1.86234e-09
-3.95242e-09
-3.95098e-09
5.72781e-08
-3.34346e-10
-8.49247e-11
-3.38063e-10
7.26243e-10
-6.75758e-11
3.57205e-09
1.1616e-07
-3.588e-09
-3.60333e-09
-6.58685e-09
-3.57499e-09
-4.12538e-08
-4.1813e-08
-1.10319e-07
-1.09083e-07
5.88568e-07
1.35225e-06
-1.94815e-08
-1.77493e-08
-1.97355e-08
-1.75422e-08
2.9219e-07
5.94511e-10
-2.84604e-10
-2.92455e-10
-2.94117e-10
-5.8487e-10
3.53632e-08
7.12514e-09
7.68546e-09
-1.13417e-07
-5.19381e-09
1.67936e-06
3.26368e-07
-3.06888e-10
-2.9296e-10
-3.05589e-10
3.37433e-08
5.93011e-10
7.34513e-09
1.66061e-06
3.36901e-07
-2.71663e-09
-6.5353e-09
-3.5313e-09
-3.54446e-09
-4.33575e-08
-4.24309e-08
-1.11454e-07
-1.13247e-07
6.02887e-07
1.78441e-09
1.23684e-07
-9.92132e-10
-7.49468e-09
-5.87047e-09
-4.32687e-09
-6.68897e-08
-5.40925e-08
-1.30136e-07
-1.48177e-07
7.10892e-07
-2.9329e-10
-2.91663e-10
-2.97586e-10
3.668e-08
6.23099e-10
7.19279e-09
-1.13393e-07
-2.60081e-09
1.70764e-06
3.17307e-07
1.49292e-06
2.06401e-08
-2.04829e-08
-2.13482e-08
-2.29986e-08
-1.867e-08
2.80519e-07
-6.84987e-09
-3.56606e-09
-3.763e-09
-4.49103e-08
-4.80128e-08
-1.21208e-07
-1.15941e-07
6.3097e-07
9.80008e-10
-8.07109e-10
-5.44707e-10
-5.64161e-10
5.49138e-08
-8.00507e-10
9.96377e-09
-1.60492e-10
1.79493e-06
3.18513e-07
7.93244e-08
1.17393e-08
-5.5379e-08
-6.07011e-09
-4.02084e-10
-2.40257e-12
-4.9169e-13
-1.18008e-12
3.72924e-10
1.56542e-09
3.02945e-11
3.53108e-08
1.51596e-07
2.36248e-10
1.12224e-10
3.39716e-10
8.88252e-11
-3.06715e-10
4.457e-07
7.91623e-08
-1.55418e-11
-1.17538e-09
-3.33314e-10
-5.45439e-10
6.44169e-09
5.63152e-09
3.25042e-08
-2.34731e-09
5.93698e-10
-8.29798e-11
-3.3856e-11
-3.18366e-11
5.41794e-07
9.21232e-08
2.11278e-10
5.80088e-10
4.50171e-10
-4.84668e-12
3.62118e-11
4.94214e-09
1.03964e-09
-3.00052e-09
-8.76654e-11
1.40167e-11
6.421e-12
1.84748e-11
7.21433e-15
2.35687e-13
1.44079e-12
-4.75713e-15
-3.07231e-11
2.18045e-10
1.28129e-09
-9.964e-11
2.7872e-11
-5.47599e-10
1.97785e-12
7.46226e-11
-1.82121e-12
1.80909e-11
-2.71107e-11
3.22056e-11
2.19619e-10
1.25418e-09
-5.3795e-10
-2.83374e-11
-1.00513e-10
-2.23358e-16
2.33444e-13
-5.0249e-16
1.4479e-12
7.46713e-15
1.57427e-12
1.78626e-13
-4.80388e-15
-3.94311e-11
3.10224e-10
3.43327e-11
1.288e-09
-8.47072e-11
-1.38219e-12
3.19372e-09
5.96159e-10
-2.1016e-09
3.39385e-13
-2.46732e-10
1.21e-12
3.10721e-09
6.0143e-10
-2.49798e-10
-2.03927e-09
-1.22882e-13
2.17757e-16
1.58483e-12
-9.66583e-16
1.73459e-13
1.57433e-12
7.97133e-15
1.79961e-13
3.14197e-10
-3.56269e-11
1.27869e-09
-8.64515e-11
3.08248e-09
6.05783e-10
-2.52362e-10
3.3381e-13
-2.02686e-09
2.36552e-13
7.5315e-15
1.44044e-12
7.44676e-11
1.88761e-12
1.82363e-11
-2.71052e-11
2.21598e-10
1.24922e-09
-5.39489e-10
2.96471e-11
-1.01699e-10
-2.07739e-06
-1.68598e-07
-4.10454e-07
1.68194e-07
2.10459e-06
-2.96888e-07
-4.94418e-07
-2.0995e-06
2.95344e-07
1.161e-07
2.14678e-06
-4.19892e-07
-2.14394e-06