/*--------------------------------*- C++ -*----------------------------------*\
| =========                 |                                                 |
| \\      /  F ield         | OpenFOAM: The Open Source CFD Toolbox           |
|  \\    /   O peration     | Version:  2012                                  |
|   \\  /    A nd           | Website:  www.openfoam.com                      |
|    \\/     M anipulation  |                                                 |
\*---------------------------------------------------------------------------*/
FoamFile
{
    version     2.0;
    format      ascii;
    class       volScalarField;
    location    "0.105/fluid";
    object      p;
}
// * * * * * * * * * * * * * * * * * * * * * * * * * * * * * * * * * * * * * //

dimensions      [0 2 -2 0 0 0 0];


internalField   nonuniform List<scalar> 
16422
(
-0.0690832
-0.0697018
-0.0695643
-0.0696834
-0.0695724
-0.0693457
-0.0689976
-0.0684314
-0.0674617
-0.0656857
-0.0621662
-0.0543297
-0.0337571
0.029439
0.206776
-0.0692573
-0.0697402
-0.0695899
-0.0697175
-0.0696271
-0.0694446
-0.0691763
-0.0687634
-0.068099
-0.0670024
-0.0651429
-0.0618274
-0.0556867
-0.0474981
-0.0658967
-0.0693506
-0.0698074
-0.069644
-0.0697852
-0.069741
-0.0696498
-0.0695442
-0.0694238
-0.0693136
-0.0693419
-0.0699324
-0.0723129
-0.0797026
-0.098233
-0.11901
-0.0694339
-0.0698728
-0.0697058
-0.0698721
-0.0698897
-0.0699102
-0.0699914
-0.0701823
-0.0706069
-0.0715957
-0.0739981
-0.0800222
-0.0958333
-0.142652
-0.324521
-0.069075
-0.0696961
-0.0695621
-0.0696934
-0.0696026
-0.0694143
-0.0691327
-0.0686953
-0.0679622
-0.0666539
-0.06411
-0.0585206
-0.0440789
0.00093023
0.147111
-0.0692501
-0.0697315
-0.0695849
-0.069722
-0.0696497
-0.0694992
-0.0692864
-0.0689687
-0.0684711
-0.0676676
-0.0663138
-0.0638448
-0.0590429
-0.0518305
-0.0619463
-0.0693442
-0.069797
-0.0696338
-0.0697793
-0.0697451
-0.0696717
-0.0695942
-0.0695123
-0.0694462
-0.0694872
-0.0699025
-0.0713548
-0.0752668
-0.0832551
-0.0887902
-0.0694273
-0.0698602
-0.0696895
-0.0698538
-0.0698711
-0.0698912
-0.0699685
-0.0701371
-0.0704861
-0.071246
-0.0729669
-0.0769061
-0.0858207
-0.104822
-0.127501
-0.0690573
-0.0696841
-0.0695566
-0.0696981
-0.0696226
-0.0694644
-0.0692302
-0.0688747
-0.0682941
-0.0673067
-0.0655428
-0.062205
-0.0557576
-0.0453488
-0.0585653
-0.0692327
-0.0697168
-0.0695761
-0.0697222
-0.069664
-0.0695359
-0.0693583
-0.0690948
-0.0686823
-0.0680227
-0.0669447
-0.0651434
-0.0622559
-0.0593253
-0.0653881
-0.0693275
-0.0697809
-0.0696209
-0.0697709
-0.0697435
-0.0696793
-0.0696122
-0.0695321
-0.0694322
-0.0693338
-0.069307
-0.0694942
-0.070069
-0.0706556
-0.0682648
-0.0694106
-0.0698429
-0.069672
-0.0698355
-0.0698502
-0.0698633
-0.0699219
-0.0700372
-0.0702406
-0.0706243
-0.0713768
-0.0728025
-0.0751072
-0.0769365
-0.0708783
-0.0690331
-0.0696657
-0.0695487
-0.0697
-0.0696364
-0.069492
-0.0692855
-0.0689712
-0.0684671
-0.0676541
-0.0663431
-0.0642896
-0.0614889
-0.0591607
-0.0628337
-0.0692105
-0.0696985
-0.0695675
-0.0697207
-0.0696709
-0.0695546
-0.069394
-0.0691533
-0.0687724
-0.0681657
-0.067207
-0.0657452
-0.0637472
-0.0616898
-0.0609682
-0.0693063
-0.0697612
-0.0696101
-0.069765
-0.0697411
-0.0696796
-0.0696122
-0.0695189
-0.0693686
-0.069127
-0.0687408
-0.0680982
-0.0669553
-0.0646903
-0.0598824
-0.0693904
-0.0698225
-0.0696589
-0.0698243
-0.0698362
-0.069841
-0.0698797
-0.0699444
-0.0700213
-0.0700986
-0.0701392
-0.0699848
-0.0691221
-0.0661882
-0.0587979
0.207523
-0.0512159
-0.224886
-0.340775
-0.126313
-0.0490246
-0.214632
0.180589
-0.0491757
-0.186428
-0.116707
-0.163102
-0.0886946
-0.052049
-0.169506
-0.0297987
-0.112027
-0.0626298
-0.0872511
-0.12721
-0.0999068
-0.255381
-0.202615
-0.146986
-0.263956
-0.0900026
-0.240123
-0.178531
-0.09649
-0.0784505
-0.141278
-0.0846296
-0.251616
-0.115041
-0.151808
-0.399485
-0.277444
-0.331592
-0.0742334
-0.0776955
-0.0561832
0.260655
-0.719021
-0.0908282
-0.334653
-0.417799
-0.406004
-0.393649
-0.0790696
0.260869
-0.715074
-0.088044
-0.681944
0.262239
-0.0750851
0.253476
-0.618693
-0.675547
-0.0639678
0.261924
-0.381671
-0.0908185
-0.281228
-0.222289
-0.163095
-0.247045
-0.0852869
-0.138331
-0.233046
-0.083373
0.249007
-0.604065
-0.654515
-0.0568464
-0.362022
-0.127247
0.0324252
0.156076
-0.0387098
-0.0380794
-0.0695268
-0.162806
-0.110669
-0.110126
0.154046
-0.0398077
-0.037498
0.0114813
0.127611
-0.04509
-0.0411264
0.0719782
0.224496
0.0574016
0.20406
0.0707095
0.0556999
0.224076
-0.153106
-0.103299
-0.0972164
-0.0619653
-0.132663
-0.0880551
-0.0837179
0.101954
-0.0478169
-0.0450335
-0.0366799
-0.0250017
-0.0564152
-0.0587318
0.0120308
0.179564
0.0254422
0.0797401
0.053794
-0.00479464
-0.0372625
-0.122357
-0.0827631
-0.0785731
-0.0635192
-0.0800358
-0.0703247
-0.0648847
-0.161816
-0.0668893
-0.0903958
-0.058931
-0.0613275
-0.0609257
-0.0592275
0.066917
0.207338
0.224185
0.057759
0.0573939
0.0687194
-0.14964
-0.22548
-0.495435
-0.139244
-0.139653
-0.146501
-0.134735
-0.489422
-0.13197
-0.208764
-0.140218
-0.468392
-0.128077
0.0716972
0.197081
0.200489
0.0421681
0.0513833
0.0670966
0.222122
-0.127917
-0.198272
-0.421425
-0.116003
-0.459701
-0.121904
-0.121489
-0.115173
-0.403534
-0.108939
-0.14427
-0.113091
-0.269695
-0.102126
-0.0882794
-0.408558
-0.0793061
-0.0971469
-0.235695
-0.07317
-0.0720184
-0.17703
0.150804
0.259511
0.14918
-0.171632
-0.621208
-0.728801
-0.371181
-0.377746
-0.611547
-0.622617
-0.731536
-0.379102
-0.178463
0.259205
0.148653
-0.646055
-0.720693
-0.538573
-0.109875
-0.144151
-0.522688
-0.541001
-0.155371
-0.646829
-0.742808
-0.72941
-0.638391
-0.162147
0.151506
0.26187
0.153168
-0.169841
-0.596341
-0.368773
-0.702569
-0.610148
-0.360227
-0.594495
-0.346922
-0.697731
-0.357569
-0.57462
-0.159568
0.155158
0.261934
0.153975
-0.148585
-0.118206
0.154636
0.259424
0.157678
-0.0826576
-0.534634
-0.646914
-0.301968
-0.323448
-0.47841
-0.539686
-0.343289
-0.655489
-0.571803
-0.32854
-0.125628
0.156142
0.260616
-0.144429
0.156441
-0.555324
-0.468455
-0.666901
-0.399241
-0.468566
-0.0991004
-0.0686762
-0.513679
-0.582983
-0.739727
-0.698634
-0.630509
-0.44744
-0.0869557
-0.0683473
-0.331009
-0.410781
-0.33695
-0.0763581
-0.280362
0.000826581
0.15557
0.205022
0.127935
-0.0688515
-0.359775
-0.293643
-0.536893
-0.468145
-0.254152
-0.868244
-0.971716
-0.868267
-0.333762
-0.219134
-0.498183
-0.810033
-0.240636
-0.472259
0.0257341
-0.108881
0.165726
-0.983142
0.117625
-0.45929
-0.0590024
0.0108247
-0.0502359
-0.0489892
-0.0426685
-0.056441
-0.0189509
-0.105114
-0.120979
-0.103321
-0.0782788
-0.15573
-0.0966654
-0.0814348
-0.321558
-0.0947618
-0.00269707
-0.229681
-0.31976
-0.0930449
0.000714073
-0.223574
-0.00148014
-0.226851
-0.31363
-0.299465
-0.0820593
-0.205088
0.0104386
0.0072628
-0.210321
-0.287352
-0.302769
-0.0850883
0.00249392
-0.219454
0.00533978
-0.311257
-0.215153
-0.26227
-0.198614
-0.0714554
0.0127185
-0.282221
0.0168602
-0.191257
-0.253172
-0.0663516
0.0234853
-0.172152
0.0192901
-0.182213
-0.216864
-0.108559
-0.0560481
-0.163149
-0.0711821
0.0054071
-0.134209
-0.305881
-0.822766
-0.757192
-0.876416
-0.132895
-0.057511
0.0247451
-0.158752
0.0249274
-0.198451
-0.143938
-0.376106
-0.391237
-0.290003
-0.28229
-0.371203
-0.357213
-0.376156
-0.186494
-0.291668
-0.232703
-0.246388
-0.238049
-0.18862
-0.307724
-0.153478
-0.276181
-0.145474
-0.203899
-0.198709
-0.22007
-0.393538
0.272556
0.116619
-0.178074
0.116019
0.273012
0.247571
0.256597
0.248263
0.256321
0.272716
-0.177374
0.119324
0.11672
0.274519
0.247261
0.255297
0.246791
0.25594
-1.09993
-0.680199
-0.613831
-1.10584
-0.677843
-1.1971
-1.52775
-1.53521
-1.19049
-1.1992
-1.54566
-1.20531
-1.53848
-1.09803
-0.613612
-0.671511
-0.674992
-1.09209
-1.11199
-0.62332
-0.682707
-0.685622
-1.10753
-1.21223
-1.54838
-1.20722
-1.55369
0.270688
-0.183959
0.115494
0.112918
0.27259
0.245681
0.255093
0.246457
0.254801
0.274713
0.124335
-0.168852
0.121486
0.276556
0.249026
0.256783
0.248578
0.257315
0.274541
-0.169833
0.12072
0.274928
0.120472
0.249374
0.25782
0.250004
0.257691
-1.07956
-0.600641
-0.656435
-0.660889
-1.07173
-1.17992
-1.52424
-1.51485
-1.18796
-1.17715
-1.50097
-1.51068
-1.16852
-1.08208
-0.601017
-0.668113
-1.0898
-0.664748
-1.05879
-0.651985
-0.582768
-0.647306
-1.0688
-1.1512
-1.46695
-1.47907
-1.13965
-1.15479
-1.4965
-1.48462
-1.1653
-1.0555
-0.582533
-0.63607
-0.642062
-1.04483
0.276779
0.126353
-0.157863
0.126642
0.277103
0.250928
0.258206
0.251234
0.258507
0.276777
-0.156671
0.131213
0.127926
0.278509
0.250648
0.258003
0.250349
0.258225
0.284081
0.149007
-0.104328
0.153304
0.28249
0.250495
0.250115
0.248307
0.254793
0.283223
-0.100325
0.165324
0.157656
0.286482
0.250541
0.257045
0.251546
0.254704
-0.982729
-0.596397
-0.508256
-1.0022
-0.584785
-1.06793
-1.37933
-1.3958
-1.04285
-1.07489
-1.4203
-1.09488
-1.40437
-0.975896
-0.507375
-0.557266
-0.571952
-0.95113
-1.02285
-0.554446
-0.606061
-0.614837
-1.00784
-1.12135
-1.4613
-1.13537
-1.44718
-1.02741
-0.55493
-0.629752
-1.04086
-0.62267
-1.11654
-1.42633
-1.10076
-1.44071
0.279098
-0.136824
0.142852
0.138252
0.281045
0.251629
0.258369
0.251566
0.257879
0.279347
-0.138882
0.134463
0.279298
0.136007
0.251782
0.256788
0.251361
0.258043
0.296036
0.198267
-0.0260515
0.193757
0.291429
0.240882
0.250668
0.247145
0.239565
0.297512
-0.0367675
0.177815
0.290003
0.186993
0.239652
0.192641
0.215451
0.240248
-0.888844
-0.420765
-0.458737
-0.492313
-0.825755
-0.994543
-1.37091
-1.34851
-1.03254
-0.97806
-1.28107
-1.32679
-0.912783
-0.90443
-0.425622
-0.539836
-0.941002
-0.517729
-0.76336
-0.935436
-0.845137
-0.873427
-1.03654
-0.948776
-0.991306
-1.02132
-0.950273
-0.643023
-0.418522
-0.307763
-0.345905
-0.789418
-0.596516
-0.677996
-0.744613
-0.558492
-0.943009
-0.715274
-1.23497
-1.0641
-0.872695
-0.540232
-0.193452
-0.332045
-0.687711
-0.446944
-0.28128
0.147465
0.194776
-0.0440985
0.14454
0.289284
-0.171897
-0.501121
-0.992155
-0.503323
-0.685776
0.0474711
-0.104167
-0.248841
-0.814572
-0.375065
-0.0819183
-0.0150801
0.19018
0.20101
-0.0680562
-0.0740244
-0.11637
-0.0758627
-0.07183
-0.0624268
-0.0764598
-0.0573608
-0.415712
-0.137854
-0.249799
-0.176331
-0.259106
-0.193254
-0.401987
-0.354072
-0.238329
-0.159617
-0.104608
-0.221613
-0.139907
-0.384135
-0.211282
-0.271035
-0.273213
-0.162971
-0.107791
-0.11127
-0.161619
-0.247534
-0.148001
-0.206942
-0.134383
-0.0973185
-0.148629
-0.0911237
-0.113604
-0.118448
-0.161739
-0.116756
-0.0755514
-0.0821859
-0.0997974
0.252624
0.246384
0.243473
0.260651
0.243866
0.252759
0.246102
-0.959105
-1.10726
-0.722167
-0.646584
-0.648313
-1.11159
-0.955378
-0.423892
-0.147664
-0.265426
-0.207948
-0.56042
-0.347892
-0.398855
-0.558169
-0.355003
-0.559531
-0.553119
-0.560226
-0.39749
-0.357955
-0.55229
0.253537
0.246531
0.243733
0.261648
0.24482
0.252913
0.247037
-0.946299
-1.10242
-0.642946
-0.710746
-0.638093
-1.09732
-0.950968
-0.91891
-0.612928
-0.687109
-1.05935
-0.616539
-1.06665
-0.912523
0.254183
0.244782
0.262532
0.247224
0.245558
0.253942
0.247342
0.244258
0.229958
0.231356
0.256358
0.236849
0.239646
0.234466
-0.84554
-0.974496
-0.628515
-0.550933
-0.559857
-0.988954
-0.831751
-0.896832
-0.606993
-1.05123
-0.668731
-0.599749
-0.904947
-1.04264
0.253365
0.244448
0.24647
0.262024
0.244559
0.253421
0.246194
-0.50595
-0.335095
-0.547112
-0.363087
-0.316263
-0.521825
-0.537378
-0.318076
-0.100976
-0.176401
-0.100361
-0.205077
-0.124704
-0.253086
-0.45751
-0.384236
-0.330005
-0.244685
-0.288323
-0.475667
-0.363179
-0.153702
-0.0749425
-0.149949
-0.087547
-0.118303
-0.190519
-0.0880472
-0.20248
-0.309878
-0.199402
-0.185259
-0.153339
-0.273082
-0.227445
0.222787
0.221608
0.226061
0.242643
0.216278
0.232846
0.211044
-0.789096
-0.955685
-0.536305
-0.586818
-0.518353
-0.93207
-0.812729
-0.442285
-0.31966
-0.392935
-0.443783
-0.344804
-0.40123
-0.476098
-0.0592856
-0.128089
-0.00994389
-0.297345
-0.0261812
-0.218663
-0.109196
0.241721
0.224907
0.242112
0.13185
0.254901
0.132433
0.255075
0.242278
0.224609
0.242743
0.131725
0.254226
0.128926
0.255277
0.218719
0.141205
0.193089
0.0535038
0.223345
0.0862956
0.189916
0.0392784
0.0835102
0.144761
0.0124697
0.0547491
-0.0566822
0.150449
0.240882
0.223518
0.240292
0.132077
0.254466
0.132057
0.254026
0.223035
0.239586
0.131621
0.253549
-0.500609
-0.359448
-0.364073
-0.270572
-0.352807
-0.357019
-0.266554
-0.504195
-0.366316
-0.272187
-0.360331
-0.354915
-0.482994
-0.349208
-0.257826
-0.347463
-0.262304
-0.342509
-0.337756
-0.47641
-0.344651
-0.254101
-0.33078
-0.248931
-0.336834
0.230071
0.212184
0.23765
0.116264
0.234819
0.0994302
0.246919
0.242233
0.21897
0.239949
0.120827
0.253692
0.12763
0.249853
-0.437438
-0.301432
-0.314316
-0.229931
-0.294318
-0.304711
-0.222287
-0.331597
-0.448846
-0.322067
-0.236546
-0.323076
-0.243508
-0.315071
-0.289433
-0.367309
-0.260772
-0.195272
-0.27831
-0.211595
-0.256542
-0.206293
-0.328319
-0.241483
-0.179792
-0.196586
-0.158153
-0.228866
-0.131729
-0.0883808
-0.154659
-0.178357
-0.107843
-0.118851
-0.147281
0.0785881
-0.0387872
-0.176976
-0.037901
0.0792831
0.241419
0.254315
0.148994
0.16948
0.254242
0.166825
0.242813
0.252313
0.260343
0.242319
0.245258
0.243535
0.251616
0.245833
0.241085
0.167459
0.148429
0.253167
0.253978
0.166214
0.241393
0.0797863
-0.173219
-0.0342856
-0.0342585
0.0826683
-0.77217
-0.610509
-0.613246
-0.604743
-0.775635
-0.962736
-0.725352
-0.655369
-1.1196
-0.651286
-0.966314
-1.1157
-0.764431
-0.607077
-0.601126
-0.59757
-0.764915
-0.77637
-0.616794
-0.611951
-0.60788
-0.777219
-0.972503
-0.734067
-0.657805
-1.12309
-0.659096
-0.96949
-1.12654
0.0752949
-0.179866
-0.0399312
-0.0397243
0.077823
0.251192
0.259243
0.242009
0.245024
0.242441
0.251359
0.244732
0.239393
0.166705
0.146679
0.252745
0.252591
0.163999
0.240865
-0.64449
-0.753238
-0.747994
-0.813467
-0.711752
-0.805322
-0.430031
-0.535461
-0.423451
-0.121251
-0.262724
-0.273114
-0.291913
-0.132695
-0.282923
-0.530244
-0.406513
-0.415628
-0.543021
-0.435853
-0.440847
-0.300714
-0.166237
-0.308724
-0.757289
-0.646519
-0.760342
-0.742535
-0.827836
-0.828337
-0.820237
-0.738312
-0.826183
-0.643749
-0.757432
-0.760261
0.0856322
-0.0266019
-0.164261
-0.0268453
0.0894036
0.243144
0.25479
0.151003
0.170431
0.255653
0.243358
0.169404
0.253808
0.261924
0.244645
0.247397
0.245102
0.253865
0.247205
0.243499
0.172882
0.151682
0.255794
0.255887
0.170185
0.244902
0.0840801
-0.169473
-0.0328594
-0.0318909
0.0843272
-0.748445
-0.593177
-0.586586
-0.583616
-0.74831
-0.941538
-0.706616
-1.08633
-0.631668
-0.634221
-1.09192
-0.936694
-0.758968
-0.601722
-0.59933
-0.593378
-0.76291
-0.741143
-0.584148
-0.585462
-0.578102
-0.745636
-0.925052
-0.692303
-1.0802
-0.627289
-0.621468
-1.07361
-0.9311
-0.726654
-0.573464
-0.566359
-0.564247
-0.725501
0.092613
-0.0245004
-0.158612
-0.0234244
0.0919789
0.245587
0.256602
0.154384
0.176952
0.257183
0.174255
0.246892
0.25423
0.262482
0.244753
0.247295
0.245529
0.253818
0.24758
0.245425
0.174127
0.153682
0.256312
0.257179
0.173367
0.245542
0.0941227
-0.151525
-0.0156232
-0.0161888
0.0992184
0.133436
0.00991847
-0.11322
0.0120877
0.126417
0.250037
0.250817
0.158476
0.192444
0.255429
0.188922
0.251206
0.247993
0.258502
0.240792
0.241326
0.239357
0.249845
0.239096
0.250747
0.186114
0.157286
0.25668
0.256877
0.186797
0.25046
0.141542
-0.0906772
0.0399747
0.0366611
0.155121
-0.6779
-0.529309
-0.521839
-0.522297
-0.685306
-0.857575
-0.637873
-0.579527
-1.01315
-0.569816
-0.869273
-1.00152
-0.641727
-0.487179
-0.482145
-0.484452
-0.634712
-0.694332
-0.541875
-0.535334
-0.534635
-0.691327
-0.888541
-0.662034
-0.58783
-1.02398
-0.593035
-0.879891
-1.03349
-0.716159
-0.561471
-0.562725
-0.556374
-0.721662
0.109644
-0.130263
0.00321575
0.00190229
0.117496
0.247812
0.257157
0.178784
0.156129
0.257992
0.247708
0.178606
0.252639
0.261537
0.242108
0.243871
0.243908
0.251595
0.244918
0.106279
-0.142216
-0.012112
-0.0107283
0.103727
0.247802
0.182921
0.157073
0.256019
0.25768
0.179968
0.249095
-0.670303
-0.514829
-0.622711
-0.552446
-0.511642
-0.623101
-0.742592
-0.62331
-0.693512
-0.469947
-0.468742
-0.563716
-0.354093
-0.488284
-0.371169
-0.087656
-0.252276
-0.23989
-0.214987
-0.0787556
-0.228977
-0.502273
-0.396343
-0.383975
-0.70312
-0.604584
-0.726279
-0.73414
-0.8231
-0.815185
-0.777134
-0.720312
-0.800085
-0.619696
-0.751182
-0.741651
-0.339329
-0.415144
-0.315254
-0.0779036
-0.174457
-0.187877
-0.207153
-0.0640208
-0.192295
-0.383752
-0.26203
-0.297558
-0.416226
-0.34246
-0.330652
-0.265663
-0.387275
-0.30565
-0.150651
-0.0653659
-0.114225
-0.215722
-0.223634
-0.166977
0.226917
0.109413
-0.0100152
0.107618
0.250806
0.252176
0.250312
0.148823
0.197838
0.244953
0.253487
0.19732
0.208093
0.228653
0.170987
0.167898
0.200603
0.184032
0.193008
0.246833
0.191683
0.14682
0.214563
0.236416
0.19689
0.237011
0.190749
-0.0575849
0.0535737
0.0582756
0.173309
-0.535865
-0.38881
-0.380299
-0.386796
-0.517763
-0.760758
-0.565107
-0.857479
-0.470852
-0.496015
-0.901329
-0.721873
-0.611373
-0.450016
-0.470598
-0.461269
-0.623686
-0.470712
-0.35022
-0.317686
-0.362848
-0.483921
-0.565886
-0.443761
-0.784535
-0.435657
-0.387137
-0.677632
-0.660192
0.296423
0.138283
0.0228812
0.104982
0.291937
-0.0499269
-0.0986831
-0.0159266
-0.141977
0.022574
-0.209802
-0.0125463
0.0787318
0.0961192
0.137505
0.129543
0.07335
0.15116
0.0570065
0.133898
0.179658
0.0572523
0.193874
0.127263
0.117566
0.21392
-0.322359
-0.0840644
-0.409592
-0.410158
-0.0830361
-0.233837
-0.23558
-0.0831508
-0.407743
-0.3169
-0.0793883
-0.404329
-0.229381
-0.234371
-0.314814
-0.0788758
-0.40118
-0.0780853
-0.40211
-0.227795
-0.229308
-0.0702831
-0.386491
-0.294812
-0.381419
-0.0655859
-0.21247
-0.218531
-0.290625
-0.374523
-0.0627738
-0.377226
-0.0630169
-0.209517
-0.209897
-0.071934
-0.304728
-0.389803
-0.0716131
-0.391452
-0.219813
-0.220774
-0.307682
-0.0776182
-0.398617
-0.0734583
-0.394488
-0.222014
-0.227517
-0.26836
-0.0486279
-0.351461
-0.356221
-0.049956
-0.194527
-0.19384
-0.275289
-0.369742
-0.0602853
-0.362748
-0.0542214
-0.199217
-0.206649
-0.0442144
-0.343879
-0.241447
-0.0353455
-0.333124
-0.178798
-0.188668
-0.229038
-0.024687
-0.313283
-0.0279298
-0.322025
-0.17105
-0.169106
0.0172272
-0.218871
-0.0976005
-0.182744
0.00425751
-0.116498
-0.1174
-0.176174
-0.24986
-0.197949
-0.189986
-0.102601
-0.134055
-0.171734
-0.829956
-0.896689
-0.845837
-0.891397
-0.707255
-0.617586
-0.62691
-0.692318
-0.772084
-0.733949
-0.704909
-0.787336
-0.780685
-0.843744
-0.859627
-0.766076
0.011654
-0.15428
-0.242428
0.00905731
-0.260516
-0.131914
-0.13098
-0.177082
-0.0160197
-0.299574
-0.00242556
-0.280969
-0.145957
-0.159956
0.178169
0.267967
0.196707
0.273807
0.197812
0.177301
0.269457
0.0735029
-0.17809
-0.0372572
-0.0382442
0.0732624
0.179311
0.27431
0.197156
0.270375
0.19838
0.270931
0.178869
0.24842
0.25556
0.256562
0.249989
0.256628
0.249979
0.248882
0.256636
0.25674
0.249555
0.256357
0.24983
0.17888
0.268104
0.196895
0.274221
0.177508
0.269672
0.198563
0.0741551
-0.176376
-0.0365876
-0.0365426
0.0727978
0.181032
0.27534
0.272036
0.199546
0.27195
0.199935
0.181585
0.247916
0.255587
0.255793
0.24859
0.255614
0.249105
0.24769
0.254907
0.255967
0.249358
0.255944
0.249284
-1.38736
-1.38956
-0.770897
-0.613165
-0.604822
-0.6037
-0.77081
-1.38409
-1.38057
-1.74603
-1.37874
-1.37978
-1.19554
-1.37739
-1.74855
-1.37697
-1.52997
-1.25721
-1.2597
-1.26447
-1.53316
-1.26266
-1.7446
-1.19322
-1.37231
-1.37212
-1.3747
-1.37525
-1.74133
-1.75516
-1.3809
-1.20197
-1.38225
-1.38437
-1.75129
-1.38459
-1.27301
-1.54392
-1.27163
-1.7586
-1.20392
-1.38858
-1.38895
-1.38685
-1.38689
-1.76112
-1.26706
-1.54071
-1.26929
-0.766258
-0.608192
-0.603569
-0.599303
-0.76943
-1.37621
-1.37395
-1.37678
-1.3784
-0.777884
-0.618472
-0.613402
-0.609483
-0.780719
-1.39281
-1.39088
-1.39275
-1.39365
-1.76623
-1.39514
-1.21124
-1.39666
-1.39409
-1.76775
-1.39502
-1.27537
-1.54992
-1.2773
-1.76521
-1.2093
-1.39038
-1.3912
-1.76303
-1.39271
-1.39275
-1.2809
-1.55235
-1.2796
0.1754
0.194003
0.265442
0.272305
0.173945
0.195727
0.267219
0.0693094
-0.182989
-0.0419089
-0.0421411
0.0680872
0.177686
0.273511
0.196657
0.269614
0.178102
0.197205
0.269612
0.246612
0.253875
0.254823
0.248503
0.255099
0.248503
0.247111
0.254888
0.255141
0.248045
0.254818
0.248297
0.183179
0.270935
0.200181
0.276126
0.201863
0.181707
0.272437
0.0806231
-0.167482
-0.0297629
-0.0293399
0.0786826
0.18539
0.277228
0.203169
0.27499
0.203293
0.274642
0.186304
0.249652
0.257241
0.257358
0.250025
0.257035
0.250494
0.249372
0.256512
0.257604
0.250723
0.25737
0.250638
0.18212
0.27073
0.275717
0.199931
0.181389
0.272157
0.20088
0.0793066
-0.170093
-0.0307483
-0.0318239
0.0793498
0.183005
0.276116
0.272855
0.200081
0.182462
0.27338
0.201301
0.250117
0.257109
0.258191
0.251166
0.257957
0.251195
0.250587
0.258279
0.258249
0.25086
0.257678
0.251108
-1.35421
-1.35129
-0.750752
-0.594289
-0.590566
-0.585816
-0.754529
-1.35545
-1.35813
-1.73151
-1.35992
-1.3606
-1.18337
-1.36371
-1.72655
-1.36422
-1.52177
-1.25409
-1.25214
-1.24618
-1.51775
-1.24896
-1.73553
-1.18596
-1.36948
-1.36978
-1.3667
-1.73897
-1.3673
-1.71944
-1.3571
-1.35744
-1.17491
-1.35445
-1.72318
-1.35425
-1.50382
-1.23347
-1.23664
-1.2428
-1.50795
-1.24038
-1.71747
-1.17193
-1.34813
-1.34767
-1.3521
-1.35089
-1.71299
-0.757144
-0.601306
-0.592354
-0.591786
-0.756451
-1.36917
-1.37215
-1.36537
-1.36098
-1.34517
-1.34904
-0.738519
-0.58448
-0.575433
-0.575711
-0.736967
-1.34068
-1.33503
-1.6846
-1.3285
-1.32891
-1.14791
-1.32412
-1.69041
-1.32489
-1.47014
-1.20294
-1.20697
-1.21494
-1.47572
-1.21152
-1.68206
-1.14405
-1.31558
-1.31649
-1.31991
-1.32172
-1.67571
-1.70129
-1.3325
-1.15919
-1.33258
-1.33807
-1.33674
-1.69459
-1.49344
-1.22958
-1.22672
-1.21908
-1.48828
-1.22286
-1.70571
-1.16255
-1.34521
-1.34416
-1.71042
-1.34183
-1.34046
-0.729696
-0.574436
-0.572938
-0.567252
-0.7344
-1.32452
-1.32036
-1.32676
-1.33112
0.188101
0.204312
0.277899
0.274704
0.205065
0.187536
0.276112
0.0884429
-0.158436
-0.0214823
-0.0227267
0.088871
0.18851
0.278168
0.203955
0.276231
0.187665
0.205236
0.276895
0.251436
0.258368
0.259506
0.251275
0.258588
0.251478
0.251839
0.259554
0.259316
0.251452
0.25834
0.251568
0.189355
0.204476
0.274737
0.277976
0.187826
0.206148
0.275989
0.0898848
-0.15487
-0.0201339
-0.0191525
0.0874364
0.191704
0.278968
0.207935
0.278784
0.207667
0.278032
0.193235
0.251307
0.258789
0.258789
0.251113
0.258126
0.251453
0.250963
0.258051
0.25917
0.251502
0.258411
0.2515
0.21856
0.295281
0.224141
0.284382
0.22332
0.220278
0.295326
0.135021
-0.107836
0.0202294
0.0173521
0.139054
0.21521
0.283858
0.218985
0.289911
0.221481
0.292817
0.211444
0.250257
0.260795
0.260496
0.240381
0.253095
0.2417
0.249747
0.25966
0.259304
0.243469
0.252689
0.242511
0.22518
0.295476
0.224762
0.28436
0.221956
0.296518
0.227708
0.141329
-0.0955542
0.0248352
0.0297565
0.135311
0.229828
0.284856
0.302245
0.233746
0.298599
0.230892
0.235916
0.25173
0.261933
0.261843
0.247815
0.255968
0.247016
0.251379
0.260526
0.26183
0.24488
0.256436
0.246213
-1.26456
-1.27203
-0.670901
-0.517306
-0.511195
-0.515411
-0.665104
-1.25732
-1.24577
-1.57696
-1.23913
-1.24106
-1.05979
-1.23198
-1.5917
-1.22868
-1.38262
-1.11546
-1.12189
-1.13509
-1.39097
-1.12902
-1.57154
-1.05185
-1.21575
-1.21038
-1.2245
-1.22168
-1.55724
-1.6123
-1.24595
-1.08307
-1.24798
-1.25642
-1.59816
-1.25609
-1.15897
-1.41653
-1.15411
-1.61597
-1.08948
-1.26915
-1.26858
-1.26239
-1.26216
-1.62539
-1.14172
-1.40945
-1.14789
-0.648838
-0.488308
-0.504428
-0.49257
-0.658876
-1.21607
-1.20455
-1.22378
-1.23663
-0.698706
-0.542756
-0.546872
-0.539285
-0.705148
-1.28213
-1.27574
-1.28602
-1.29322
-1.66225
-1.12706
-1.2962
-1.29601
-1.30168
-1.30345
-1.65296
-1.19807
-1.45778
-1.19428
-1.66667
-1.13157
-1.31118
-1.3128
-1.30634
-1.67326
-1.3081
-1.18469
-1.45166
-1.18947
-0.712054
-0.559338
-0.550819
-0.552489
-0.709013
-1.31222
-1.3175
-1.3067
-1.29892
-1.63901
-1.29143
-1.1117
-1.29102
-1.28523
-1.64817
-1.28503
-1.16489
-1.43022
-1.16989
-1.63627
-1.10658
-1.27382
-1.27404
-1.6269
-1.28102
-1.27986
-1.17969
-1.43637
-1.1752
0.200611
0.211259
0.281099
0.280126
0.198634
0.213193
0.282174
0.106439
-0.134039
-0.00449285
-0.0022955
0.102818
0.203629
0.280982
0.216234
0.285824
0.206613
0.215158
0.284142
0.252378
0.259988
0.259856
0.251006
0.258162
0.251044
0.251949
0.259179
0.260327
0.250598
0.258406
0.250878
0.19796
0.280274
0.210999
0.281122
0.19801
0.211265
0.282228
0.103635
-0.140376
-0.00687558
-0.00865498
0.105181
0.197244
0.280294
0.209256
0.280865
0.195611
0.210828
0.282064
0.251925
0.259254
0.260429
0.248687
0.257749
0.249405
0.252114
0.260696
0.260051
0.250168
0.25748
0.249909
0.278058
0.331752
0.254026
0.296866
0.2559
0.274051
0.333668
0.231361
-0.0166447
0.0874265
0.0942874
0.220804
0.281827
0.293884
0.253439
0.332536
0.256955
0.333037
0.284227
0.242876
0.256528
0.258668
0.239264
0.246366
0.237045
0.245135
0.259163
0.259408
0.2292
0.247726
0.235677
0.263316
0.328841
0.29626
0.251726
0.26904
0.32535
0.249408
0.202688
-0.0457298
0.0758865
0.0710172
0.215354
0.254713
0.29377
0.310673
0.240089
0.245935
0.31815
0.244543
0.234608
0.252688
0.245307
0.181315
0.224575
0.206706
0.227169
0.220389
0.235911
0.225597
0.224903
0.213522
-1.0912
-1.0624
-0.552142
-0.389347
-0.424559
-0.40554
-0.571413
-1.11076
-1.13779
-1.53387
-1.15987
-1.16917
-1.00993
-1.18455
-1.50964
-1.17886
-1.36791
-1.10618
-1.09895
-1.07529
-1.35513
-1.08666
-1.54014
-1.02286
-1.20682
-1.2023
-1.19658
-1.55516
-1.19035
-1.46365
-1.14402
-1.15198
-0.958477
-1.11982
-1.49449
-1.13144
-1.28697
-1.00397
-1.01837
-1.05783
-1.31766
-1.04408
-1.43949
-0.934944
-1.06809
-1.08436
-1.09762
-1.10652
-1.40617
-0.59767
-0.441488
-0.439245
-0.447318
-0.585374
-1.1855
-1.19826
-1.17406
-1.15433
-0.854217
-0.887843
-0.841395
-0.883366
-0.827387
-0.749726
-0.799754
-0.787549
-0.816631
-0.729986
-0.78458
-0.780151
-0.839685
-0.813925
-0.857992
-0.787332
-0.959955
-0.932485
-0.932382
-0.958725
-0.986822
-0.94839
-0.957274
-0.980205
-0.96522
-0.976222
-0.97468
-0.955373
-0.967047
-0.91395
-0.926091
-0.958038
-0.911474
-0.918092
-0.900964
-0.937315
-0.877841
-0.887416
-0.925918
-0.976253
-0.888469
-0.867651
-0.872735
-0.79296
-0.925093
-0.945514
-0.947874
-0.884947
-1.00825
-1.03749
-0.435786
-0.307961
-0.372888
-0.322793
-0.449493
-0.974755
-0.927914
-0.704475
-0.526629
-0.834808
-0.753384
-0.657542
-1.1328
-0.642933
-0.735447
-0.691153
-0.731364
-0.742124
-0.733995
-0.769746
-0.724412
-0.66205
-0.618998
-0.625072
-0.748762
-0.757067
-0.73476
-1.29381
-0.902951
-0.779878
-0.860883
-0.939567
-0.954536
-1.19354
-1.20926
-0.961651
-0.934732
-0.822396
-1.13307
-0.874594
-1.33435
-0.842381
-1.03301
-1.04518
-1.38145
-0.991859
-1.0115
-0.591737
-0.583828
-0.357752
-0.461781
-0.917794
-0.405027
-0.718582
-0.848092
-0.906448
-0.822466
-0.825387
0.262458
0.12315
0.231252
0.203929
0.199548
0.168523
0.302005
0.345727
0.0272231
0.0309711
0.122286
0.252244
0.282268
0.267578
0.255212
0.338807
0.29329
0.228948
0.327329
-1.0957
-0.530125
-0.18864
-0.504966
-0.974561
-0.920688
-0.959436
-0.954282
-0.887041
-0.968157
-0.946447
-0.953328
-1.06905
-1.153
-0.30359
-0.615653
-0.478391
-1.09938
-0.489083
-0.329471
0.0303232
0.023878
0.0244569
-0.254073
-0.590263
-0.578394
-0.606714
-0.0176588
-0.365297
-0.967222
0.350991
-0.962055
-0.930511
-1.00587
-1.1836
0.106957
-0.0239324
0.101699
0.165301
0.119969
0.100178
0.160737
0.203062
0.156089
-0.130484
0.0643343
0.0405068
-0.069083
-0.0711366
-0.0692647
-0.0711932
-0.069702
-0.0704516
-0.0697463
-0.0704817
-0.0695647
-0.0699329
-0.0695927
-0.0699639
-0.0696806
-0.0696334
-0.0697132
-0.0696739
-0.0695637
-0.0693977
-0.0696078
-0.0694606
-0.0693268
-0.0690673
-0.0693987
-0.0691755
-0.068959
-0.0685375
-0.0690834
-0.0687334
-0.0683557
-0.0676347
-0.0685851
-0.068007
-0.0673149
-0.0659995
-0.0677575
-0.0667686
-0.0653991
-0.0628305
-0.0663363
-0.0646017
-0.0616099
-0.0560666
-0.0638359
-0.0607412
-0.0532619
-0.0393781
-0.0593722
-0.053867
-0.0317918
0.00897582
-0.0514509
-0.0421692
-0.0692574
-0.0711859
-0.0693296
-0.0712472
-0.0697411
-0.0704791
-0.0697946
-0.0705229
-0.0695904
-0.0699649
-0.0696321
-0.0700115
-0.0697157
-0.0696834
-0.0697666
-0.0697569
-0.0696204
-0.0694855
-0.069705
-0.0696168
-0.069429
-0.0692269
-0.069581
-0.0694634
-0.0691443
-0.0688324
-0.0694182
-0.0692594
-0.0687016
-0.0681968
-0.0691976
-0.0689839
-0.0679818
-0.0671435
-0.0689045
-0.0686597
-0.0667832
-0.0653633
-0.0685855
-0.0684652
-0.0647453
-0.0622625
-0.0684948
-0.0690607
-0.0611602
-0.056697
-0.0695164
-0.0724363
-0.0547732
-0.04844
-0.0742031
-0.0832958
-0.0469778
-0.05608
-0.0878706
-0.105404
-0.0693504
-0.071263
-0.0694135
-0.0713175
-0.0698088
-0.0705365
-0.0698586
-0.0705833
-0.0696459
-0.0700289
-0.069693
-0.0700883
-0.069786
-0.0697861
-0.0698525
-0.0698854
-0.0697389
-0.0696695
-0.0698531
-0.0698444
-0.0696421
-0.0695575
-0.0698433
-0.0698616
-0.0695267
-0.0694258
-0.069875
-0.0699481
-0.0693899
-0.0692828
-0.0699877
-0.0701843
-0.0692522
-0.0692152
-0.0702885
-0.0708064
-0.0692386
-0.0695472
-0.071082
-0.0724552
-0.0697835
-0.0712801
-0.0731871
-0.0768441
-0.0721938
-0.07721
-0.0788003
-0.0886717
-0.0800057
-0.0936626
-0.094014
-0.121571
-0.10033
-0.123078
-0.136989
-0.217686
-0.0694338
-0.0713349
-0.0698746
-0.070599
-0.0697091
-0.0701094
-0.0698761
-0.0699204
-0.0698933
-0.069905
-0.0699126
-0.0699642
-0.0699917
-0.0701184
-0.0701807
-0.0704645
-0.0706059
-0.0712688
-0.0716066
-0.0732251
-0.0740636
-0.0781491
-0.0802991
-0.0910564
-0.0969049
-0.128349
-0.0711363
-0.0692644
-0.0711924
-0.0690783
-0.0711323
-0.0692596
-0.0711869
-0.0704519
-0.0697455
-0.0704813
-0.0696981
-0.0704498
-0.06974
-0.0704778
-0.0699354
-0.0695925
-0.0699655
-0.0695631
-0.06994
-0.0695901
-0.0699684
-0.0696401
-0.0697155
-0.0696798
-0.0696915
-0.069659
-0.069721
-0.0696956
-0.0694136
-0.0696153
-0.0694747
-0.0695963
-0.0694577
-0.0696357
-0.0695134
-0.0690996
-0.0694157
-0.0692046
-0.0693986
-0.069188
-0.0694625
-0.069284
-0.0686016
-0.0691179
-0.06879
-0.0691023
-0.0687762
-0.0692117
-0.068941
-0.067759
-0.0686518
-0.0681152
-0.0686368
-0.0680902
-0.0688283
-0.0683954
-0.0662419
-0.0678845
-0.0669733
-0.067852
-0.066881
-0.0682109
-0.0674887
-0.063302
-0.0665759
-0.0649817
-0.0664404
-0.0645614
-0.0671755
-0.0659213
-0.0569756