/*--------------------------------*- C++ -*----------------------------------*\
| =========                 |                                                 |
| \\      /  F ield         | OpenFOAM: The Open Source CFD Toolbox           |
|  \\    /   O peration     | Version:  2012                                  |
|   \\  /    A nd           | Website:  www.openfoam.com                      |
|    \\/     M anipulation  |                                                 |
\*---------------------------------------------------------------------------*/
FoamFile
{
    version     2.0;
    format      ascii;
    class       volVectorField;
    location    "0.105/fluid";
    object      U_0;
}
// * * * * * * * * * * * * * * * * * * * * * * * * * * * * * * * * * * * * * //

dimensions      [0 1 -1 0 0 0 0];


internalField   nonuniform List<vector> 
16422
(
(1.19993 2.32806e-05 7.89381e-06)
(1.19964 6.76421e-05 0.000101582)
(1.19932 4.08623e-05 0.000141541)
(1.19935 3.77107e-05 0.000187819)
(1.19919 3.77306e-05 0.000271869)
(1.19895 4.06744e-05 0.000411284)
(1.19862 5.27647e-05 0.000640415)
(1.19813 7.58961e-05 0.00101336)
(1.19737 0.000118612 0.00161769)
(1.19613 0.000214278 0.00260492)
(1.19382 0.000485913 0.0042276)
(1.18858 0.00141235 0.00689615)
(1.17318 0.00521868 0.0112739)
(1.11336 0.0225793 0.0179995)
(0.83802 0.0842515 0.0208545)
(1.19995 -5.87878e-08 7.98835e-06)
(1.19988 3.41559e-05 0.00010278)
(1.1997 6.65068e-05 0.000140079)
(1.19984 9.76533e-05 0.000184883)
(1.19978 0.00014474 0.00026579)
(1.19963 0.000214875 0.000401069)
(1.19941 0.000324347 0.000621432)
(1.19907 0.000500184 0.000976128)
(1.19854 0.000793864 0.00154613)
(1.19774 0.00131063 0.00245848)
(1.19649 0.00228787 0.00391228)
(1.19456 0.0043615 0.00616588)
(1.19185 0.00942047 0.00937688)
(1.19174 0.0236756 0.0127719)
(1.22226 0.0579427 0.0117535)
(1.19995 2.75089e-06 7.93683e-06)
(1.19987 6.59255e-05 0.000101964)
(1.1997 0.000116189 0.000136538)
(1.19986 0.000165879 0.000177668)
(1.19985 0.000241526 0.000252844)
(1.19975 0.000355701 0.000377284)
(1.19961 0.000532488 0.000577402)
(1.1994 0.000811958 0.000894053)
(1.19909 0.00126176 0.0013928)
(1.19867 0.00198909 0.0021664)
(1.19819 0.00319536 0.00334946)
(1.19794 0.00519767 0.00508001)
(1.19909 0.00827657 0.00731968)
(1.20568 0.0112996 0.00920767)
(1.22664 0.00865279 0.00670281)
(1.19995 3.65298e-06 7.8473e-06)
(1.19987 7.91275e-05 9.96375e-05)
(1.19973 0.000136773 0.00013186)
(1.19992 0.000193804 0.000167744)
(1.19994 0.000282854 0.000235017)
(1.19992 0.000416561 0.000344871)
(1.19987 0.000620422 0.000517735)
(1.19981 0.000936848 0.000786237)
(1.19974 0.00141992 0.00119761)
(1.19968 0.00214803 0.00181153)
(1.19972 0.00321887 0.00272141)
(1.20001 0.00463656 0.00405082)
(1.20066 0.00588485 0.00600495)
(1.20045 0.00344138 0.00940612)
(1.19229 -0.0417482 0.0172315)
(1.19993 2.38769e-05 6.55349e-06)
(1.19964 6.91212e-05 9.30257e-05)
(1.19935 4.14518e-05 0.000135197)
(1.19941 3.74756e-05 0.00018089)
(1.1993 3.70084e-05 0.000263182)
(1.19913 4.00112e-05 0.000398146)
(1.19892 4.88392e-05 0.000619435)
(1.19862 6.62923e-05 0.000976981)
(1.1982 9.98456e-05 0.00155396)
(1.19752 0.000168387 0.00249672)
(1.19625 0.000357188 0.0040857)
(1.19318 0.00100149 0.00693836)
(1.18344 0.00363977 0.0129699)
(1.14258 0.0160557 0.0306444)
(0.913382 0.0617194 0.103821)
(1.19995 -8.66807e-08 6.97893e-06)
(1.19989 3.26054e-05 9.35269e-05)
(1.19973 6.4327e-05 0.000134919)
(1.1999 9.23446e-05 0.00017795)
(1.1999 0.000134278 0.000257552)
(1.19982 0.000196252 0.000388717)
(1.1997 0.00029092 0.000599463)
(1.19954 0.000438007 0.000939588)
(1.1993 0.00067662 0.00148266)
(1.19896 0.00108021 0.00235018)
(1.19844 0.00181654 0.00374683)
(1.19764 0.00332439 0.00602571)
(1.19652 0.0068608 0.00984586)
(1.19719 0.0164021 0.0162155)
(1.21833 0.039387 0.0226702)
(1.19995 2.69781e-06 6.98298e-06)
(1.19988 6.33984e-05 9.30257e-05)
(1.19974 0.000112229 0.000132845)
(1.19993 0.000157159 0.000171675)
(1.19995 0.00022468 0.00024347)
(1.19992 0.000325862 0.000364369)
(1.19988 0.00047885 0.000556597)
(1.19982 0.000713174 0.000860129)
(1.19975 0.0010786 0.00133217)
(1.19969 0.00164944 0.0020607)
(1.19972 0.00256752 0.00317035)
(1.20012 0.00406197 0.00480219)
(1.20175 0.00640856 0.00701527)
(1.20715 0.00928416 0.00921651)
(1.22082 0.00916527 0.00789805)
(1.19995 3.55248e-06 6.90021e-06)
(1.19988 7.52056e-05 9.04866e-05)
(1.19976 0.00013263 0.000128972)
(1.19998 0.000182972 0.000162445)
(1.20004 0.000263638 0.000225537)
(1.20007 0.000381611 0.000331598)
(1.2001 0.000557627 0.000499363)
(1.20016 0.00082258 0.000754944)
(1.20027 0.00121806 0.00114301)
(1.20048 0.00179154 0.00171834)
(1.20089 0.00260123 0.00255626)
(1.20171 0.00365078 0.00375003)
(1.20333 0.00466433 0.00546827)
(1.20672 0.00441456 0.00819378)
(1.21681 0.00029204 0.0119346)
(1.19993 2.42601e-05 3.53206e-06)
(1.19965 7.04409e-05 6.36864e-05)
(1.19937 4.2172e-05 0.000100514)
(1.19946 3.75206e-05 0.000138431)
(1.1994 3.65942e-05 0.000203403)
(1.19929 3.91156e-05 0.000308593)
(1.19917 4.56457e-05 0.000477899)
(1.19906 5.83096e-05 0.000752376)
(1.19892 8.24433e-05 0.00119448)
(1.19875 0.000127224 0.00192157)
(1.19846 0.000232881 0.0031622)
(1.19774 0.000543143 0.0054359)
(1.1956 0.00156582 0.0102074)
(1.19049 0.00476415 0.0223246)
(1.20039 0.00948681 0.0505379)
(1.19995 -6.4968e-08 3.89287e-06)
(1.1999 3.11353e-05 6.31292e-05)
(1.19977 6.34726e-05 0.000100364)
(1.19997 8.84663e-05 0.000137707)
(1.2 0.000124695 0.000198775)
(1.19998 0.000179714 0.000299989)
(1.19996 0.000260955 0.000462574)
(1.19995 0.000382386 0.000722471)
(1.19996 0.00057202 0.00113784)
(1.20001 0.000871695 0.00180411)
(1.20016 0.00137202 0.00288396)
(1.20053 0.00227992 0.00466989)
(1.20156 0.0040396 0.00768206)
(1.20522 0.00738697 0.0124362)
(1.21882 0.0103388 0.0154124)
(1.19995 2.63637e-06 4.03099e-06)
(1.19989 6.0942e-05 6.23226e-05)
(1.19977 0.000110191 9.89558e-05)
(1.19999 0.000150099 0.000133783)
(1.20005 0.000209342 0.000188364)
(1.20008 0.000298655 0.000280464)
(1.20011 0.000430908 0.000427807)
(1.20018 0.000626601 0.000660083)
(1.20031 0.000918136 0.00102061)
(1.20055 0.00134808 0.00157449)
(1.20102 0.00199255 0.00241236)
(1.20198 0.00295357 0.00363425)
(1.20402 0.00429374 0.00522792)
(1.20832 0.00564904 0.00658299)
(1.21558 0.0049887 0.00529782)
(1.19995 3.46292e-06 3.98065e-06)
(1.19989 7.3443e-05 6.04252e-05)
(1.19979 0.000127491 9.60045e-05)
(1.20004 0.000174792 0.000127104)
(1.20013 0.000246483 0.000174002)
(1.2002 0.000350824 0.000255535)
(1.2003 0.000502578 0.000382377)
(1.20046 0.000723669 0.000579098)
(1.20072 0.001042 0.000873182)
(1.20114 0.00147945 0.00130439)
(1.20183 0.00206191 0.00192238)
(1.203 0.00276169 0.00275572)
(1.205 0.00340585 0.00375294)
(1.20833 0.003474 0.00452681)
(1.21304 0.00220309 0.00349861)
(1.19993 2.45072e-05 -4.19705e-06)
(1.19966 7.07072e-05 1.36169e-05)
(1.1994 4.2862e-05 4.73617e-05)
(1.1995 3.83988e-05 6.98928e-05)
(1.19946 3.61392e-05 0.000104166)
(1.1994 3.77335e-05 0.000158881)
(1.19935 4.34551e-05 0.000245889)
(1.19934 5.29335e-05 0.000385543)
(1.1994 7.11297e-05 0.000612718)
(1.19955 0.000100364 0.000985909)
(1.1999 0.000153725 0.00161553)
(1.20058 0.000269414 0.00271454)
(1.20193 0.000512256 0.00465444)
(1.20505 0.000878304 0.00760382)
(1.21349 0.000661678 0.00907989)
(1.19995 7.67456e-08 -4.14412e-06)
(1.19991 3.16201e-05 1.23312e-05)
(1.19979 6.31574e-05 4.52791e-05)
(1.20001 8.7145e-05 6.84159e-05)
(1.20006 0.000118898 0.000101603)
(1.20009 0.000168565 0.000153425)
(1.20013 0.000240535 0.000236888)
(1.20022 0.00034602 0.000370419)
(1.20039 0.000502717 0.000583767)
(1.2007 0.000731275 0.000924035)
(1.20128 0.00106733 0.00147327)
(1.20236 0.00156976 0.00235185)
(1.20441 0.00227922 0.00367503)
(1.20824 0.00302956 0.00516221)
(1.21447 0.00270841 0.0048844)
(1.19995 2.69229e-06 -4.33887e-06)
(1.1999 6.09567e-05 1.05913e-05)
(1.1998 0.000109677 4.23594e-05)
(1.20003 0.000147038 6.47196e-05)
(1.20012 0.00020091 9.5822e-05)
(1.20018 0.000281143 0.000142799)
(1.20027 0.00039818 0.000216852)
(1.20042 0.000569234 0.000337152)
(1.20067 0.000811769 0.000521654)
(1.20111 0.00114637 0.00080257)
(1.20185 0.0016021 0.00122588)
(1.20312 0.00218463 0.00182381)
(1.20527 0.00281041 0.00254081)
(1.20859 0.00311912 0.00299363)
(1.21252 0.00227597 0.00219949)
(1.19995 3.50515e-06 -4.60135e-06)
(1.1999 7.29283e-05 8.10992e-06)
(1.19982 0.00012571 3.88724e-05)
(1.20008 0.000170775 6.05824e-05)
(1.2002 0.000235054 8.67981e-05)
(1.2003 0.000330864 0.000127945)
(1.20044 0.000468065 0.000192619)
(1.20066 0.000659732 0.000294789)
(1.20101 0.000924403 0.000442708)
(1.20156 0.00127125 0.000661096)
(1.20241 0.00170285 0.000968466)
(1.20374 0.00215997 0.00135922)
(1.20569 0.00249469 0.0017589)
(1.20829 0.00238907 0.00190089)
(1.21092 0.00146133 0.00125514)
(0.836423 0.0850674 0.0148788)
(1.20993 0.0938454 0.0121119)
(1.36765 0.0752705 0.00366526)
(1.19084 -0.0468231 0.0128582)
(1.31745 0.0583498 -0.0119618)
(1.20809 0.0913085 0.0144752)
(1.36112 0.0721209 0.00388333)
(0.872713 0.0731645 0.0688598)
(1.20661 0.0755354 0.0268728)
(1.33334 0.0600153 0.0132295)
(1.31042 0.058938 0.00702304)
(1.21568 -0.00424786 0.0158642)
(1.24281 0.00105004 -0.00467927)
(1.20837 0.064982 0.0313335)
(1.31601 0.0510506 0.0180767)
(1.16777 0.0194455 0.0815273)
(1.21401 0.00915551 -0.0454653)
(1.21645 0.0239714 0.0245092)
(1.24341 0.0176981 0.0109726)
(1.22936 0.00826679 0.0076261)
(1.25199 0.00366963 0.00166595)
(1.21361 -0.0233338 0.0112693)
(1.28459 -0.0148697 0.00177967)
(1.19926 0.00333184 0.00874026)
(1.1948 -0.0197945 0.0120078)
(1.24718 0.00386941 -0.0020593)
(1.21289 -0.0196549 0.0129743)
(1.2757 -0.0121114 -0.00547596)
(1.22235 0.00956366 0.00810017)
(1.23544 0.00264513 6.39114e-05)
(1.21666 -0.00164103 0.0132987)
(1.23404 0.00162579 -0.00108919)
(1.19666 -0.0171144 0.0148702)
(1.20555 0.00434683 0.00909381)
(1.21107 -0.000887692 0.0141101)
(1.20786 -0.0785128 0.0192803)
(1.1964 -0.0329606 0.0270398)
(1.20954 -0.0667069 0.0377398)
(1.2289 0.00275467 -0.00147799)
(1.2139 0.00233015 0.0045022)
(1.21727 0.000608954 -0.000156265)
(0.0788567 0.0717937 -0.0136863)
(1.89467 0.108987 -0.00785322)
(1.31747 0.364619 0.0171687)
(1.1915 -0.0476537 0.0080217)
(1.20965 -0.0847365 0.0122798)
(1.21258 -0.0849781 0.00614129)
(1.27638 -0.0839333 0.0117446)
(1.30618 0.354391 0.0331807)
(0.0783753 0.0720146 0.0164685)
(1.89158 0.108035 0.0226457)
(1.31429 0.362762 0.0157144)
(1.86849 0.105474 0.00430944)
(0.0780525 0.0724028 -0.00557807)
(1.30061 0.349151 0.0360167)
(0.085774 0.0784148 0.0421237)
(1.81317 0.0931305 0.0350155)
(1.86238 0.103156 0.0355637)
(1.29017 0.31949 0.0719912)
(0.0767245 0.0734939 0.0250813)
(1.27122 -0.0802757 0.0110252)
(1.28908 0.0163331 -0.00095248)
(1.26194 -0.0600187 0.0345263)
(1.21463 -0.011733 0.0256431)
(1.22394 -0.00799945 0.016151)
(1.22753 -0.0211899 0.0350721)
(1.26543 0.0214506 -0.00323728)
(1.23612 -0.00619724 0.00923964)
(1.24829 -0.0230085 0.0299077)
(1.30064 0.13742 0.13372)
(0.0868531 0.0841405 0.0877732)
(1.79618 0.0833714 0.0674546)
(0.5729 0.0156893 -0.211041)
(1.27831 0.296945 0.0880238)
(1.47716 -0.0190317 0.0605051)
(0.461539 0.0291253 0.242982)
(1.11063 0.0231686 0.0157753)
(0.952184 0.0732854 0.0172697)
(1.18505 0.0328885 0.0129274)
(1.19453 0.0748478 0.0131289)
(1.22455 0.0602549 0.0105542)
(1.31112 0.0365715 0.00303331)
(1.22877 0.0199246 0.00846398)
(1.25298 0.00974889 0.0039604)
(0.954678 0.072439 0.0226036)
(1.18585 0.0316442 0.0139454)
(1.19383 0.0726927 0.0153051)
(1.13162 0.0185268 0.0277361)
(0.989058 0.063748 0.056653)
(1.1909 0.0252891 0.017509)
(1.19614 0.0594403 0.025056)
(1.21139 0.264537 0.0316177)
(0.289294 0.0819453 0.00884813)
(1.20563 0.176556 0.0229228)
(0.842265 0.0826406 0.0300799)
(1.21432 0.269066 0.0225022)
(1.20423 0.172556 0.0301563)
(0.289996 0.0813177 0.0137923)
(1.30559 0.034164 0.00181175)
(1.22604 0.0193406 0.00754302)
(1.24805 0.00944075 -0.000400393)
(1.21867 0.0463526 0.0200482)
(1.2859 0.0275625 0.00797341)
(1.22243 0.0165389 0.0096866)
(1.2388 0.00716395 0.00266628)
(1.02182 0.0561882 0.0742644)
(1.19362 0.02212 0.0181716)
(1.19922 0.0512455 0.0280347)
(1.1816 0.00699828 0.0268134)
(1.16688 0.0157228 0.0615888)
(1.20229 0.0115951 0.0156508)
(1.21067 0.0209639 0.022783)
(1.2468 0.136411 0.127321)
(0.319523 0.0752629 0.119879)
(1.21123 0.13201 0.0686382)
(0.997111 0.0423726 0.129126)
(1.21714 0.206756 0.100284)
(1.22561 0.0985147 0.0762938)
(0.608948 0.0501601 0.248474)
(1.27586 0.0229972 0.0099391)
(1.22114 0.014741 0.0096796)
(1.23499 0.00605304 0.00240464)
(1.21819 0.0159962 0.0191377)
(1.23835 0.010388 0.00736896)
(1.21734 0.00828627 0.00766951)
(1.2242 0.00320495 0.00172477)
(1.27803 -0.00724277 0.0456394)
(1.21914 0.0144524 0.0190121)
(1.24133 6.23746e-05 0.0083032)
(1.2105 0.00162835 0.0125041)
(1.21811 0.000801562 -0.00232537)
(1.21485 0.00448177 0.00747556)
(1.21985 0.00284824 0.000618086)
(1.22038 0.273203 0.0131145)
(0.836263 0.0855607 0.0117974)
(0.290253 0.0819049 0.00169444)
(1.20745 0.178958 0.0175558)
(1.2097 0.180326 0.0148561)
(1.21737 0.271745 0.0162823)
(1.35687 0.208885 0.00684111)
(1.37043 0.0727662 0.000146358)
(1.59373 0.128414 0.00334091)
(1.29892 0.120475 0.00753677)
(1.30115 0.11987 0.00433093)
(1.35253 0.208736 0.00954948)
(1.34033 0.201308 0.0188734)
(1.58856 0.127267 0.0078138)
(1.29381 0.117335 0.00907483)
(1.35481 0.070689 0.00692379)
(1.34698 0.205403 0.0132399)
(1.57296 0.124291 0.0116472)
(1.28927 0.114308 0.0129476)
(1.2091 0.256207 0.046334)
(0.851768 0.0794905 0.0455051)
(0.300674 0.0766972 0.0719271)
(1.20596 0.15303 0.0536642)
(1.20383 0.165604 0.0405914)
(1.20983 0.239762 0.0677617)
(0.289694 0.081351 0.0261489)
(1.33148 0.193852 0.0276185)
(1.34545 0.0667175 0.00975267)
(1.5297 0.111405 0.0301813)
(1.276 0.0992049 0.023322)
(1.56287 0.122246 0.0182823)
(1.28304 0.108702 0.0176042)
(1.32018 0.180277 0.0390204)
(1.28593 0.100273 0.0707095)
(1.5029 0.103576 0.0409746)
(1.26676 0.0849746 0.0309619)
(1.29274 0.0307171 0.020782)
(1.30299 0.155688 0.0587129)
(1.39299 0.0347376 0.0478033)
(1.25779 0.0573177 0.0353671)
(1.32465 0.0964152 0.110928)
(1.3471 -0.104143 -0.107521)
(1.19071 0.0172839 0.0641796)
(1.30194 0.0352472 -0.00418568)
(1.4145 0.0309572 0.0471208)
(1.27636 0.0391985 0.0495275)
(0.700878 0.0798786 0.173435)
(0.409373 0.468809 0.00689789)
(0.881021 0.374128 0.0224687)
(0.0789452 0.0718481 0.0149654)
(0.883958 0.375249 0.00712063)
(0.406222 0.465234 -0.000590134)
(0.739584 0.693575 -0.00789147)
(1.90074 0.108955 0.0203869)
(1.55931 0.331758 0.00673597)
(1.5639 0.332896 0.0136531)
(0.734636 0.689127 0.016994)
(0.738217 0.692498 0.0143326)
(1.90289 0.108932 -0.0101411)
(1.56585 0.333146 0.00392041)
(0.408355 0.467739 -0.00276347)
(0.0791749 0.0717404 -0.0152702)
(0.882692 0.375246 0.0173573)
(1.53352 -0.0771455 -0.0181929)
(1.28248 -0.252511 0.00752298)
(1.57284 -0.00954196 0.0354979)
(1.54681 0.131755 -0.0368351)
(1.55465 0.133315 0.0338401)
(1.5643 -0.010754 -0.0214609)
(1.57523 -0.00892138 -0.0262196)
(1.55693 0.132927 -0.0361083)
(1.53099 -0.0779823 0.0305507)
(1.27604 -0.251784 0.0160346)
(1.28006 -0.252856 0.0122251)
(1.52282 -0.078923 -0.0122493)
(0.403095 0.46156 0.00205384)
(0.882681 0.374164 0.0133019)
(0.078477 0.0719224 -0.0111014)
(0.879622 0.372245 0.0315326)
(0.407855 0.467116 0.00901017)
(0.729877 0.684375 0.0205774)
(1.55673 0.330488 0.0168799)
(1.88369 0.107424 -0.00312299)
(0.736833 0.691097 -0.00493415)
(1.55112 0.328256 0.0124911)
(0.733552 0.68773 -0.000759005)
(1.54 0.323216 0.0213182)
(1.87953 0.106298 0.0277217)
(1.54767 0.326658 0.0232174)
(0.722566 0.677094 0.0272164)
(0.405753 0.464686 0.0118251)
(0.878961 0.369086 0.0477237)
(0.0776963 0.0723999 0.0191152)
(0.883145 0.372101 0.0243825)
(0.397993 0.455598 0.006982)
(0.397087 0.455047 0.026103)
(0.895008 0.346259 0.134776)
(0.0766454 0.0765756 0.0406819)
(0.898954 0.359739 0.082641)
(0.372836 0.426836 0.0335272)
(0.723065 0.676152 0.0200177)
(1.83745 0.0960363 0.0484449)
(1.50013 0.297303 0.058756)
(1.51661 0.308587 0.048579)
(0.692308 0.64558 0.0625063)
(0.711472 0.665452 0.0391966)
(1.5349 0.320348 0.0329861)
(1.8468 0.100484 0.0164909)
(0.728949 0.682965 0.00651072)
(1.52448 0.313763 0.0355652)
(0.389205 0.44535 0.0158865)
(0.886254 0.368415 0.0446315)
(0.0785888 0.0739415 0.00734794)
(0.402485 0.460978 0.0167742)
(0.882061 0.362202 0.0776078)
(1.48509 -0.0696273 0.0641613)
(1.22917 -0.157947 0.113616)
(1.25866 -0.226136 0.0535887)
(1.40457 -0.0658165 0.0838255)
(1.53561 -0.0134106 0.000461755)
(1.54186 0.132914 0.032766)
(1.51719 0.122553 -0.0251378)
(1.55898 -0.00948811 0.0412312)
(1.49544 -0.0784433 0.0103155)
(1.27183 -0.249406 0.0231436)
(1.26363 -0.240814 0.0400931)
(1.5174 -0.0777272 0.0378665)
(1.52528 -0.00609736 0.0643426)
(1.43095 0.0161643 0.0161383)
(1.50965 0.122798 0.0402117)
(1.43369 -0.032405 0.0739012)
(1.23445 -0.0539374 0.113078)
(1.31434 0.00527738 0.0834364)
(1.31515 0.00907315 -0.0229233)
(1.32548 0.0135248 0.0651408)
(0.351951 0.401535 0.0962924)
(0.933391 0.337776 0.156605)
(0.124302 0.0831102 0.178978)
(0.96863 0.300738 0.245389)
(0.386645 0.444789 0.0440233)
(0.674282 0.613145 0.140478)
(1.4861 0.285997 0.0751932)
(1.74685 0.0764859 0.0606024)
(0.713582 0.665543 0.0454289)
(1.4574 0.254504 0.100838)
(0.71911 -0.0588797 0.28701)
(0.801538 -0.0859623 0.363322)
(1.45765 -0.0653226 0.638787)
(0.730357 0.663342 0.165515)
(1.39586 0.0922046 0.12091)
(1.69279 0.0373761 0.0908333)
(1.26585 -0.183304 0.316687)
(1.42915 0.210594 0.127484)
(1.59577 0.0534551 0.492327)
(0.385274 0.451192 0.149651)
(1.35001 0.165372 0.349856)
(0.158803 0.0840573 0.266095)
(0.918016 -0.0984859 0.516411)
(1.07499 0.270058 0.294865)
(1.51096 0.0385422 0.676393)
(1.28072 0.0804988 0.0908641)
(1.11778 0.0357174 0.121681)
(1.17495 0.0202514 0.118772)
(1.23595 0.0311528 0.0441094)
(1.24604 0.0573902 0.0626103)
(1.25184 0.0376273 0.0577845)
(1.09746 0.0476215 0.141966)
(1.27187 0.0436411 0.0522931)
(1.26769 0.0154415 0.00765225)
(1.25948 0.0299536 0.0226599)
(1.23428 0.0240517 0.0208171)
(1.31291 0.0159418 0.0225503)
(1.24911 0.0335003 0.0247665)
(1.24304 0.0300627 0.0396549)
(1.13105 0.790098 0.00149773)
(1.32186 0.366547 0.0138551)
(1.16967 0.419683 0.00925929)
(1.41666 0.388316 0.00714757)
(1.13151 0.789685 0.0142972)
(1.31932 0.365784 0.0109047)
(1.16644 0.417895 0.0134656)
(1.41135 0.38656 0.0103216)
(1.16848 0.419068 0.0161576)
(1.41387 0.387504 0.0137097)
(1.12662 0.786907 0.00603128)
(1.12197 0.780937 0.0269279)
(1.30833 0.357873 0.0234949)
(1.39646 0.377174 0.0257464)
(1.15906 0.409634 0.0337117)
(1.16186 0.41291 0.0319094)
(1.40033 0.379949 0.0255799)
(1.11193 0.774263 0.0251566)
(1.12067 0.78192 0.0128982)
(1.31233 0.360714 0.0235919)
(1.16509 0.416818 0.0220269)
(1.4078 0.384575 0.0180472)
(1.16285 0.414783 0.0211401)
(1.12712 0.786254 0.0190646)
(1.40487 0.382831 0.0163718)
(1.09903 0.761004 0.0470313)
(1.39017 0.371979 0.0377424)
(1.29872 0.342593 0.0486084)
(1.15901 0.40597 0.0490994)
(1.11485 0.772633 0.0408385)
(1.156 0.399763 0.0554432)
(1.38529 0.366795 0.0410453)
(1.10585 0.758165 0.0665435)
(1.29113 0.332166 0.0552341)
(1.15635 0.379781 0.0929363)
(1.36933 0.347726 0.0655309)
(1.15958 0.391696 0.0784977)
(1.37646 0.356911 0.0572872)
(1.07792 0.737629 0.0884925)
(1.11845 0.653768 0.274929)
(1.27757 0.19819 0.132499)
(1.34983 0.139412 0.14951)
(1.30459 0.170989 0.230776)
(1.24042 0.257604 0.21864)
(1.33781 0.223014 0.150857)
(1.44361 0.127271 0.4187)
(0.606549 0.0473437 0.0737525)
(0.605274 -0.0303755 -0.0829147)
(0.62867 -0.0331351 0.157015)
(1.06452 0.693107 0.198675)
(1.28217 0.269158 0.108477)
(1.17023 0.359474 0.132222)
(1.35593 0.325761 0.091822)
(1.17619 0.330507 0.160927)
(1.09299 0.73176 0.115576)
(1.34685 0.303595 0.108593)
(1.6541 -0.10475 0.0398617)
(1.25609 -0.0794378 0.0953798)
(1.62602 -0.040813 0.194227)
(1.6039 -0.0168036 0.165316)
(1.13301 -0.0883028 0.0352633)
(1.66286 -0.0445239 0.111493)
(1.08399 -0.0669603 0.101214)
(1.38596 0.069741 0.100015)
(1.55916 -0.0197695 0.0278297)
(1.46658 0.0461008 0.13473)
(1.39847 -0.0109698 0.1075)
(1.39543 -0.00748225 0.0521463)
(1.37692 0.0290405 0.0771879)
(1.43785 -0.0526758 0.0776488)
(1.36895 0.117923 0.269837)
(1.08504 -0.0164509 0.258626)
(1.47957 0.0571266 0.284605)
(1.51517 0.0233749 0.195518)
(0.795561 0.0422895 0.0990869)
(1.48224 0.0669753 0.188055)
(0.970772 -0.0146866 0.130631)
(0.256504 0.202407 0.00617229)
(0.686505 0.522308 0.00976129)
(0.402098 0.462954 0.00401546)
(0.675805 0.522365 0.00987278)
(0.260595 0.198827 0.0105143)
(0.0788717 0.0318554 0.00969062)
(-0.0343368 0.0159897 -0.0214055)
(0.0783238 0.0244814 0.00665715)
(-0.035438 0.0161827 0.0271591)
(0.256756 0.203159 0.01258)
(0.402573 0.464221 0.0052435)
(0.682527 0.52057 0.011205)
(0.673684 0.522 0.0112112)
(0.258477 0.197008 0.00735967)
(0.0782467 0.0309937 0.00544082)
(-0.0350275 0.0153479 0.0270745)
(0.0794251 0.0257606 0.0079846)
(-0.0345101 0.0168578 -0.022032)
(1.84677 0.719752 0.0208935)
(1.61247 0.813442 0.00700652)
(0.730323 0.687133 0.0194261)
(1.8542 0.722982 -0.00751488)
(1.6076 0.811962 0.0131578)
(1.89759 0.677654 -0.0110848)
(1.20338 0.137564 0.0102122)
(1.20424 0.137535 -0.0138861)
(1.89755 0.677918 0.021695)
(1.89891 0.677616 0.0213071)
(1.20855 0.138587 -0.0140883)
(1.90641 0.681291 -0.0123873)
(1.20569 0.137429 0.0103753)
(1.84531 0.719688 -0.00622703)
(0.730528 0.68808 -0.00796517)
(1.60633 0.810767 0.0137227)
(1.60488 0.811035 0.00782373)
(1.84596 0.719749 0.0215391)
(1.8519 0.722174 -0.00978499)
(0.732677 0.690182 -0.011174)
(1.6128 0.813966 0.00949583)
(1.61071 0.814089 0.00368802)
(1.85393 0.722654 0.0181237)
(1.9044 0.679897 -0.0142341)
(1.20915 0.138279 0.0101231)
(1.90599 0.680722 0.0189933)
(1.20877 0.137967 -0.014521)
(0.257739 0.20525 0.00824357)
(0.403795 0.46562 0.00272145)
(0.685128 0.522979 0.00632246)
(0.675773 0.524366 0.00670071)
(0.26002 0.199229 0.00205433)
(0.0790504 0.0338293 0.00613554)
(-0.0344821 0.0162565 -0.0248308)
(0.0788956 0.0265606 0.00218493)
(-0.0352455 0.0168748 0.0262264)
(0.255236 0.200053 0.01909)
(0.678902 0.516657 0.0187205)
(0.400718 0.462085 0.00812677)
(0.670704 0.518335 0.0178454)
(0.255989 0.193089 0.0155385)
(0.0775645 0.0279521 0.0108928)
(-0.0353234 0.0146833 0.0282479)
(0.0789799 0.0235709 0.0123769)
(-0.0343375 0.0164566 -0.0176964)
(0.254756 0.199143 0.0126785)
(0.399846 0.459991 0.00671074)
(0.684173 0.519585 0.0150579)
(0.259276 0.196561 0.0157551)
(0.67355 0.519095 0.0157411)
(0.0784828 0.0289575 0.015169)
(-0.034143 0.0154712 -0.016066)
(0.0772723 0.0206801 0.0135841)
(-0.0358086 0.0152829 0.0285961)
(1.83638 0.716187 -0.00161676)
(0.727294 0.685009 -0.00422253)
(1.59786 0.805743 0.0204402)
(1.5971 0.806518 0.0137786)
(1.83569 0.715352 0.0268618)
(1.88977 0.674405 0.024516)
(1.20297 0.138053 -0.0136842)
(1.19941 0.136669 0.0104774)
(1.89828 0.678747 -0.00932084)
(1.88838 0.67456 -0.00731343)
(1.1964 0.136659 0.010528)
(1.1981 0.136916 -0.013406)
(1.88681 0.673887 0.025789)
(1.83811 0.716293 0.0250495)
(0.726696 0.683323 0.0227097)
(1.60583 0.809949 0.0116739)
(1.8464 0.72019 -0.00382907)
(1.60061 0.808062 0.018415)
(1.8274 0.711391 0.0326841)
(1.59775 0.804567 0.0195693)
(0.72222 0.677909 0.0289636)
(1.59215 0.802128 0.0277381)
(1.83681 0.716161 0.00226689)
(1.87654 0.670489 -6.70647e-05)
(1.1874 0.135438 0.0115731)
(1.19044 0.136186 -0.011954)
(1.87206 0.668239 0.0330313)
(1.87861 0.670094 0.0306102)
(1.19647 0.137467 -0.0128229)
(1.19201 0.135806 0.0111771)
(1.88847 0.675348 -0.00432149)
(1.82475 0.711399 0.00693526)
(0.723274 0.680874 0.00327066)
(1.58595 0.798453 0.0320732)
(1.58663 0.799971 0.0244057)
(1.82141 0.709162 0.0361137)
(0.252243 0.192727 0.0249872)
(0.681971 0.514959 0.0239614)
(0.396688 0.455545 0.0118454)
(0.671674 0.51348 0.0265362)
(0.257359 0.192165 0.024103)
(0.0778038 0.0226305 0.0262123)
(-0.0339468 0.0143205 -0.00618669)
(0.0752764 0.0128719 0.0268896)
(-0.0365556 0.0134751 0.0322011)
(0.252703 0.193861 0.0320254)
(0.398097 0.459085 0.0141378)
(0.673286 0.510093 0.0326511)
(0.666563 0.512268 0.0304081)
(0.251466 0.185395 0.0313808)
(0.076676 0.0215499 0.0210716)
(-0.0358486 0.0133887 0.0303063)
(0.0782436 0.018976 0.0194214)
(-0.0340905 0.0155114 -0.0100123)
(0.240217 0.148404 0.101673)
(0.677102 0.49119 0.0732885)
(0.384101 0.436992 0.0381873)
(0.670939 0.48348 0.087477)
(0.246918 0.162765 0.0760113)
(0.0782411 -0.0353335 0.10529)
(-0.0371064 0.00142274 0.0585451)
(0.0681187 -0.056579 0.123009)
(-0.0422916 0.000652972 0.0747416)
(0.239143 0.146325 0.118112)
(0.388211 0.447238 0.0487898)
(0.650082 0.470718 0.111454)
(0.654227 0.477559 0.102626)
(0.223542 0.124525 0.13595)
(0.0760321 -0.0274497 0.0847119)
(-0.0396315 0.0052774 0.0512247)
(0.0739251 -0.016124 0.0657374)
(-0.0347411 0.00769974 0.0355207)
(1.79729 0.693445 0.0694099)
(1.57239 0.783168 0.0568937)
(0.708808 0.657582 0.0609241)
(1.80764 0.701824 0.0310169)
(1.56758 0.777915 0.0726353)
(1.84417 0.657488 0.0353288)
(1.17122 0.131442 0.0164092)
(1.17748 0.134379 -0.00392395)
(1.82467 0.646959 0.0668386)
(1.84926 0.655665 0.0602923)
(1.18331 0.135871 -0.00718925)
(1.86044 0.664184 0.0194995)
(1.17944 0.133877 0.0164875)
(1.79032 0.694503 0.0484806)
(0.712749 0.667017 0.0440771)
(1.54314 0.767136 0.0880998)
(1.55221 0.773265 0.0762774)
(1.77273 0.684742 0.0797913)
(1.80981 0.704326 0.0215046)
(0.718227 0.674918 0.0165475)
(1.56929 0.786419 0.052212)
(1.57243 0.789518 0.0426816)
(1.80224 0.69946 0.0522204)
(1.86474 0.664076 0.0409049)
(1.18879 0.136723 -0.0110142)
(1.87559 0.670733 0.0042326)
(1.18412 0.134806 0.0129313)
(1.81367 0.70423 0.0455607)
(0.716273 0.669827 0.0395776)
(1.58669 0.796557 0.0330602)
(1.8239 0.710517 0.0126516)
(1.58103 0.793026 0.0436406)
(1.86205 0.664838 0.0122808)
(1.17866 0.1339 0.014031)
(1.85307 0.659776 0.0457768)
(1.18312 0.135322 -0.00910745)
(0.248003 0.179993 0.0583299)
(0.394073 0.454313 0.02516)
(0.664705 0.497137 0.0588704)
(0.660993 0.500706 0.0539742)
(0.242484 0.167689 0.0640299)
(0.0755114 0.0073846 0.0408619)
(-0.0369631 0.010799 0.0354841)
(0.076737 0.00904407 0.0335336)
(-0.0339209 0.0132576 0.00460221)
(0.247853 0.179344 0.0490251)
(0.391776 0.448423 0.0206388)
(0.679173 0.506981 0.0405417)
(0.253873 0.183311 0.040535)
(0.669889 0.5034 0.0465821)
(0.0767634 0.00710698 0.0495582)
(-0.0341844 0.0113675 0.0135155)
(0.0715954 -0.00592811 0.054909)
(-0.0382026 0.00952692 0.0420177)
(0.233304 0.0721373 0.250905)
(0.659857 0.414935 0.252947)
(0.385838 0.445244 0.0984923)
(0.670132 0.430822 0.214005)
(0.216462 0.0282901 0.323229)
(0.0883508 -0.119407 0.191451)
(-0.047182 -0.0109031 0.108369)
(0.0735267 -0.0852725 0.149132)
(-0.0408925 -0.0177671 0.111349)
(0.22924 0.0785327 0.213511)
(0.373035 0.421909 0.0681282)
(0.676238 0.459572 0.139675)
(0.232141 0.114498 0.155215)
(0.680405 0.445432 0.172628)
(0.103072 -0.148547 0.248124)
(-0.0424918 -0.0430487 0.239541)
(0.102495 -0.172751 0.336252)
(-0.0540821 -0.0372819 0.201029)
(1.76743 0.678488 0.0995496)
(0.716507 0.663492 0.103808)
(1.50947 0.722916 0.171434)
(1.52985 0.741318 0.145167)
(1.72833 0.649087 0.141942)
(1.83067 0.641996 0.0922892)
(1.18151 0.134856 -0.0039202)
(1.18645 0.132675 0.0148133)
(1.83898 0.654266 0.0440614)
(1.82478 0.647483 0.076489)
(1.17238 0.126695 -0.000997581)
(1.18028 0.134562 -0.00383826)
(1.78156 0.619018 0.109537)
(1.77593 0.674659 0.111832)
(0.700293 0.639828 0.10176)
(1.55095 0.760068 0.100073)
(1.78334 0.688233 0.0622119)
(1.55025 0.750135 0.126731)
(0.501791 -0.136427 0.0240885)
(0.891778 -0.146944 0.398889)
(0.603519 -0.182097 0.205735)
(0.621308 -0.0594295 0.0973692)
(0.896583 -0.130933 0.461592)
(0.70253 -0.0621849 0.253105)
(1.12448 -0.123574 0.463004)
(1.09113 -0.230664 0.564815)
(0.794831 -0.199583 0.339214)
(1.75291 0.521878 0.27195)
(1.53817 0.668315 0.213656)
(0.748459 0.574348 0.322295)
(1.54628 0.599691 0.320837)
(1.75443 0.640412 0.147648)
(1.89685 0.416706 0.314019)
(1.69361 -0.0718793 0.165133)
(1.51081 -0.128091 0.415207)
(1.66954 -0.0196957 0.234445)
(1.5025 0.150048 0.00607549)
(1.83374 0.534183 0.222811)
(1.20573 0.13709 -0.0131247)
(1.26202 0.141865 0.0108406)
(1.81873 0.625033 0.114489)
(1.72783 0.368057 0.318231)
(1.10246 0.610481 0.723421)
(1.48196 0.113302 0.279927)
(1.59545 -0.0112797 0.466022)
(1.57435 0.0582776 0.279618)
(1.52838 0.323018 0.375271)
(0.390724 -0.0366864 0.650755)
(0.742072 0.383725 0.342998)
(0.392038 0.407601 0.306669)
(0.822355 0.336893 0.522324)
(0.252458 0.0159081 0.384699)
(0.366983 -0.25563 1.01087)
(0.970049 -0.11666 0.726618)
(1.07592 -0.161227 0.600863)
(1.17399 -0.12857 0.77587)
(0.023129 -0.0664737 0.808169)
(0.701811 -0.0486471 0.807586)
(0.576132 0.541216 0.69894)
(1.39512 0.116655 0.498679)
(1.35666 -0.139683 0.704379)
(1.35271 0.0166401 0.626904)
(1.13922 0.16932 0.618223)
(0.212277 -0.23513 0.735357)
(-0.0526759 -0.0868345 0.436677)
(0.124614 -0.219642 0.446979)
(-0.0570333 -0.0659292 1.04721)
(1.23158 0.0024975 0.000211169)
(1.2169 0.00133645 0.0108212)
(1.22703 0.000978262 0.00186913)
(1.21666 0.00609209 0.00611423)
(1.22207 0.00171861 0.000670303)
(1.21426 0.00274812 0.00488498)
(1.21769 0.000525138 0.000715156)
(1.39742 -0.0416276 0.00556697)
(1.32006 0.059496 0.00723947)
(1.31711 0.015957 -0.00464687)
(1.37091 0.0129953 -0.00693438)
(1.31952 0.0163309 0.0079082)
(1.37436 0.0146731 0.00162069)
(1.39392 -0.0421975 -0.000941407)
(1.373 -0.0430043 0.00303106)
(1.30988 0.0175931 0.0106838)
(1.36132 0.0100278 -0.00281997)
(1.30406 0.0510922 -0.00677408)
(1.30402 0.0132826 0.00310623)
(1.35118 0.00700508 -0.0114681)
(1.38431 -0.0425985 0.00672475)
(1.28701 -0.0104144 -0.00301848)
(1.26948 -0.0402754 0.00726699)
(1.27157 -0.0388052 0.00146526)
(1.25155 -0.0109803 -0.000120798)
(1.26182 0.00636476 0.000727196)
(1.26531 0.00952555 -0.00394091)
(1.24929 -0.0127341 0.00482051)
(1.26225 -0.0352449 0.00616854)
(1.26191 -0.00956427 -0.000594524)
(1.25078 -0.0288774 0.0149473)
(1.24018 -0.00957432 0.00864236)
(1.25577 0.00771532 -0.00111087)
(1.24447 -0.00961704 0.0040749)
(1.24956 0.00187191 0.002672)
(1.2442 0.00146979 0.000344782)
(1.22998 -0.00265328 0.00794821)
(1.23967 -0.00755168 0.0150095)
(1.23517 -0.000913525 0.00770012)
(1.23365 0.00107911 -0.000855792)