/*--------------------------------*- C++ -*----------------------------------*\
| =========                 |                                                 |
| \\      /  F ield         | OpenFOAM: The Open Source CFD Toolbox           |
|  \\    /   O peration     | Version:  2012                                  |
|   \\  /    A nd           | Website:  www.openfoam.com                      |
|    \\/     M anipulation  |                                                 |
\*---------------------------------------------------------------------------*/
FoamFile
{
    version     2.0;
    format      ascii;
    class       surfaceVectorField;
    location    "0.105/fluid";
    object      Uf;
}
// * * * * * * * * * * * * * * * * * * * * * * * * * * * * * * * * * * * * * //

dimensions      [0 1 -1 0 0 0 0];


internalField   nonuniform List<vector> 
47156
(
(1.19994 2.32468e-05 7.86925e-06)
(1.19998 4.0235e-05 1.42143e-05)
(1.19995 2.54781e-05 7.91639e-06)
(1.19994 2.33281e-05 7.71186e-06)
(1.19965 6.75782e-05 0.000100916)
(1.1998 7.15044e-05 8.44551e-05)
(1.19974 6.17806e-05 0.000113291)
(1.19984 6.28234e-05 0.000102037)
(1.19965 6.79443e-05 0.000101328)
(1.19932 4.07921e-05 0.000140003)
(1.1996 4.17947e-05 0.000139725)
(1.19956 4.02559e-05 0.000145114)
(1.19963 4.3583e-05 0.00014186)
(1.19933 4.10052e-05 0.000142179)
(1.19934 3.77874e-05 0.000185791)
(1.19942 3.79448e-05 0.000180284)
(1.19938 3.76643e-05 0.000196294)
(1.19975 4.7011e-05 0.000187806)
(1.19936 3.78076e-05 0.000188436)
(1.19918 3.78765e-05 0.000268506)
(1.19923 3.77485e-05 0.000259129)
(1.19917 3.78044e-05 0.00028618)
(1.19966 5.48959e-05 0.000271441)
(1.19921 3.76326e-05 0.000273614)
(1.19893 4.08651e-05 0.000406575)
(1.19898 3.9926e-05 0.000390356)
(1.19891 4.18075e-05 0.000434596)
(1.19949 6.81564e-05 0.00041082)
(1.19897 4.06138e-05 0.000413466)
(1.19858 5.33262e-05 0.000633236)
(1.19866 5.08676e-05 0.000605953)
(1.19856 5.50771e-05 0.000678647)
(1.19922 9.65692e-05 0.000638813)
(1.19865 5.23284e-05 0.000643709)
(1.19806 7.70991e-05 0.00100213)
(1.1982 7.22894e-05 0.00095766)
(1.19805 8.0222e-05 0.00107541)
(1.19881 0.000145167 0.0010097)
(1.19819 7.47143e-05 0.00101851)
(1.19726 0.000121054 0.00160142)
(1.19748 0.000112009 0.00152737)
(1.19724 0.000127091 0.00171879)
(1.19818 0.000230452 0.00161092)
(1.19747 0.000116504 0.00162458)
(1.19595 0.000220298 0.00258124)
(1.19632 0.000198191 0.00245723)
(1.19591 0.000235968 0.00277091)
(1.19716 0.000402703 0.00258838)
(1.1963 0.000208903 0.00261453)
(1.19352 0.000501508 0.00419028)
(1.19419 0.000436987 0.00398482)
(1.19337 0.00055442 0.00450128)
(1.1954 0.000823562 0.00418498)
(1.19412 0.000471535 0.00424491)
(1.18806 0.00145356 0.00681651)
(1.1895 0.0012376 0.00649785)
(1.18744 0.00166733 0.00734723)
(1.19197 0.00207474 0.00678288)
(1.18911 0.00137144 0.00695346)
(1.17228 0.00533941 0.0109953)
(1.17615 0.00446153 0.0106249)
(1.16929 0.00634936 0.0120053)
(1.18354 0.00678906 0.0109413)
(1.17417 0.00508488 0.0115534)
(1.1119 0.0229008 0.0168489)
(1.1257 0.0190901 0.017067)
(1.0963 0.0277797 0.0189403)
(1.15493 0.0289651 0.0172124)
(1.11529 0.0221628 0.0193728)
(0.836932 0.0846986 0.0178039)
(0.889534 0.0783877 0.0217293)
(1.02155 0.13603 0.0218946)
(0.839855 0.0834856 0.0253024)
(0.962503 0.206756 0.0351804)
(0.547668 0.0878197 0.0134265)
(0.962603 0.207309 0.0157575)
(0.548289 0.0875605 0.00838044)
(1.19996 1.43105e-08 7.92608e-06)
(1.19996 1.90249e-06 7.89364e-06)
(1.2 2.11588e-06 1.43368e-05)
(1.19996 3.01288e-06 7.8822e-06)
(1.19996 4.83758e-09 7.85165e-06)
(1.19988 3.43245e-05 0.000102017)
(1.19988 4.36484e-05 0.000102718)
(1.2 2.7499e-05 8.56129e-05)
(1.2 4.0548e-05 0.000114165)
(1.19988 4.778e-05 0.000102633)
(1.19989 3.3947e-05 0.000102532)
(1.1997 6.69123e-05 0.000138673)
(1.1997 6.63485e-05 0.000140555)
(1.19996 6.40281e-05 0.000138377)
(1.19995 6.95745e-05 0.000143727)
(1.1997 7.99102e-05 0.000139782)
(1.19971 6.6162e-05 0.000140774)
(1.19983 9.83361e-05 0.000182846)
(1.19983 9.27381e-05 0.000185526)
(1.1999 9.30433e-05 0.000177606)
(1.19988 0.000102726 0.000193008)
(1.19984 0.000112085 0.000184155)
(1.19984 9.69586e-05 0.000185706)
(1.19977 0.000145985 0.000262614)
(1.19978 0.000133827 0.000266887)
(1.1998 0.000138015 0.000253489)
(1.19977 0.000152165 0.000279503)
(1.19979 0.000162429 0.000264373)
(1.19979 0.00014346 0.000267329)
(1.19961 0.000217165 0.000396476)
(1.19962 0.000195863 0.000403009)
(1.19965 0.000204671 0.000380674)
(1.19961 0.00022637 0.000423674)
(1.19964 0.000238491 0.000398474)
(1.19966 0.000212612 0.000403206)
(1.19937 0.000328515 0.000614527)
(1.19939 0.000294233 0.00062486)
(1.19944 0.000308332 0.000588509)
(1.19937 0.000342609 0.000657855)
(1.19943 0.000357786 0.000616687)
(1.19944 0.000320311 0.000624417)
(1.19901 0.000508002 0.000965435)
(1.19904 0.000452998 0.000982501)
(1.19912 0.000474208 0.000923116)
(1.19901 0.000530274 0.00103493)
(1.1991 0.000549907 0.000967304)
(1.19913 0.000492759 0.000980732)
(1.19845 0.000808909 0.00153038)
(1.19849 0.000719583 0.00155862)
(1.19862 0.000750006 0.00146132)
(1.19846 0.0008456 0.00164027)
(1.1986 0.000870443 0.00152954)
(1.19864 0.000779767 0.00155258)
(1.19758 0.00133996 0.0024364)
(1.19765 0.0011941 0.00248308)
(1.19785 0.00123202 0.0023228)
(1.1976 0.00140539 0.00260932)
(1.19784 0.00143075 0.0024265)
(1.19789 0.00128328 0.00246664)
(1.19624 0.00234673 0.00388079)
(1.19632 0.00211491 0.0039618)
(1.19667 0.00213504 0.00369741)
(1.19628 0.00247843 0.00415012)
(1.19669 0.00248584 0.00384834)
(1.19673 0.0022331 0.00392372)
(1.19419 0.00448366 0.0061135)
(1.19421 0.00417341 0.00626928)
(1.19484 0.00402374 0.00583838)
(1.19425 0.00479641 0.00652246)
(1.19504 0.00472689 0.0060319)
(1.19493 0.00424581 0.00619356)
(1.19139 0.00968412 0.00924132)
(1.19103 0.00967199 0.00960711)
(1.19218 0.00855395 0.00893445)
(1.19149 0.0105749 0.00983033)
(1.1932 0.0101563 0.00908106)
(1.19235 0.00915606 0.0094958)
(1.18878 0.0269048 0.0133584)
(1.19146 0.0242484 0.0123381)
(1.1911 0.0211508 0.0124067)
(1.19268 0.0270005 0.0130219)
(1.19212 0.0230257 0.0132525)
(1.19506 0.024298 0.0121467)
(1.21513 0.0734191 0.0131159)
(1.22337 0.0591398 0.010924)
(1.21463 0.0531199 0.0123621)
(1.23271 0.0614119 0.0106567)
(1.22155 0.0567333 0.0131871)
(1.22436 0.0517373 0.0107513)
(1.19995 2.83607e-06 7.85678e-06)
(1.19995 2.66773e-06 7.8471e-06)
(1.2 7.50696e-06 1.42819e-05)
(1.19995 3.01959e-06 7.82837e-06)
(1.19995 2.81898e-06 7.80639e-06)
(1.19988 6.61833e-05 0.000101142)
(1.19988 6.39843e-05 0.000101954)
(1.2 5.44324e-05 8.50512e-05)
(1.19999 7.60274e-05 0.000112986)
(1.19988 6.86222e-05 0.000101521)
(1.19988 6.55219e-05 0.000101768)
(1.1997 0.000116764 0.000135072)
(1.19971 0.000112025 0.000137048)
(1.19997 0.000112147 0.000135123)
(1.19996 0.00012122 0.000139862)
(1.19971 0.000120112 0.000135953)
(1.19971 0.000115683 0.000137332)
(1.19986 0.000166992 0.000175629)
(1.19986 0.000159533 0.000178661)
(1.19992 0.000158642 0.000170954)
(1.19991 0.000173891 0.000185205)
(1.19987 0.000171335 0.000176435)
(1.19987 0.000164759 0.000178562)
(1.19983 0.000243504 0.000249989)
(1.19984 0.000232294 0.00025462)
(1.19986 0.000230594 0.00024143)
(1.19984 0.000253604 0.00026548)
(1.19986 0.000249437 0.000250624)
(1.19986 0.000239495 0.000254011)
(1.19973 0.000359364 0.000372974)
(1.19974 0.000342134 0.000380547)
(1.19977 0.000339043 0.000358532)
(1.19974 0.000374419 0.00039794)
(1.19977 0.000367367 0.000373309)
(1.19977 0.000352099 0.000379148)
(1.19958 0.000539383 0.000570884)
(1.19958 0.000512381 0.00058356)
(1.19963 0.000506766 0.000547641)
(1.19959 0.000561707 0.00061008)
(1.19964 0.000549748 0.000570099)
(1.19964 0.000525883 0.000580205)
(1.19934 0.000824595 0.000884253)
(1.19935 0.000782194 0.000905501)
(1.19943 0.000770921 0.000846912)
(1.19936 0.000858977 0.000945867)
(1.19945 0.000837551 0.000880839)
(1.19945 0.000799874 0.000898077)
(1.199 0.00128503 0.00137877)
(1.19901 0.00121934 0.00141413)
(1.19913 0.00119584 0.00131906)
(1.19904 0.0013376 0.00147352)
(1.19917 0.00129742 0.00136872)
(1.19917 0.00123953 0.00139792)
(1.19854 0.00203256 0.00214728)
(1.19854 0.00193412 0.00220647)
(1.19873 0.00188216 0.00205231)
(1.19861 0.00211396 0.00229104)
(1.1988 0.00203366 0.0021222)
(1.1988 0.00194816 0.00217212)
(1.198 0.00327589 0.00332453)
(1.19798 0.00314199 0.00342427)
(1.19825 0.00301761 0.00317663)
(1.19814 0.00340501 0.00353617)
(1.1984 0.00323298 0.00326938)
(1.19839 0.0031208 0.00335468)
(1.19767 0.00533996 0.00504984)
(1.19758 0.00522384 0.00521398)
(1.19794 0.00490739 0.00483299)
(1.19797 0.00554064 0.00533809)
(1.19826 0.00515381 0.00494286)
(1.19822 0.00506844 0.00508255)
(1.19879 0.0084994 0.00726899)
(1.19853 0.00869511 0.00753368)
(1.1988 0.00786368 0.00702038)
(1.1995 0.0087467 0.00760136)
(1.19948 0.00787924 0.00712132)
(1.19943 0.00808633 0.00733475)
(1.20563 0.0115208 0.00905224)
(1.20504 0.0133746 0.00947594)
(1.20434 0.0110919 0.00903888)
(1.20742 0.0114394 0.00922393)
(1.20542 0.00981933 0.00913849)
(1.20584 0.0111837 0.00931347)
(1.22795 0.00858213 0.00689068)
(1.22629 0.014143 0.007102)
(1.22324 0.00951104 0.00740487)
(1.2306 0.0078896 0.00559079)
(1.22454 0.00551286 0.00738753)
(1.22603 0.00886881 0.00760329)
(1.19995 3.72644e-06 7.75778e-06)
(1.19995 3.69053e-06 7.76105e-06)
(1.2 8.80755e-06 1.40816e-05)
(1.19995 3.70635e-06 7.71428e-06)
(1.19988 7.936e-05 9.89324e-05)
(1.19988 7.81998e-05 9.97831e-05)
(1.2 6.47749e-05 8.32381e-05)
(1.2 9.13747e-05 0.000110168)
(1.19988 7.85769e-05 9.92752e-05)
(1.19973 0.000137445 0.000130269)
(1.19973 0.000135393 0.000132418)
(1.19999 0.000132494 0.000130669)
(1.19998 0.000142319 0.000134769)
(1.19973 0.000136233 0.000132813)
(1.19991 0.000195128 0.000165892)
(1.19991 0.000192298 0.000168981)
(1.19997 0.000185297 0.000161885)
(1.19997 0.00020324 0.000174388)
(1.19992 0.000192435 0.000168508)
(1.19993 0.000285247 0.000232433)
(1.19993 0.00028054 0.000237223)
(1.19995 0.000269964 0.000224796)
(1.19995 0.000297108 0.000246136)
(1.19996 0.000280457 0.000235955)
(1.1999 0.000420894 0.0003409)
(1.1999 0.000413091 0.000348908)
(1.19992 0.0003972 0.000328219)
(1.19991 0.000438196 0.000363009)
(1.19994 0.000412291 0.000346414)
(1.19984 0.000628406 0.000511722)
(1.19984 0.000615683 0.000525233)
(1.19988 0.000590796 0.000492275)
(1.19986 0.000653818 0.00054547)
(1.1999 0.000612606 0.000520346)
(1.19976 0.000951098 0.000777682)
(1.19975 0.000931207 0.000799758)
(1.19981 0.000890828 0.000746314)
(1.1998 0.000988473 0.000829486)
(1.19985 0.000922798 0.000789418)
(1.19967 0.00144535 0.0011856)
(1.19965 0.00141538 0.00122188)
(1.19974 0.00135027 0.0011373)
(1.19973 0.00149815 0.0012625)
(1.1998 0.00139506 0.00120136)
(1.19958 0.00219386 0.00179513)
(1.19956 0.00215066 0.00185532)
(1.19969 0.00204366 0.00172187)
(1.19968 0.00226507 0.00190766)
(1.19979 0.00210366 0.00181556)
(1.19957 0.00329808 0.0027005)
(1.19955 0.00324391 0.00279729)
(1.19971 0.00306847 0.00258837)
(1.19974 0.00338446 0.00286287)
(1.19987 0.00314241 0.00272379)
(1.19981 0.00476433 0.00402602)
(1.19981 0.00471503 0.00417068)
(1.19997 0.00445189 0.00385714)
(1.20009 0.00482801 0.00425356)
(1.20024 0.00451591 0.00404633)
(1.20037 0.00604963 0.00594822)
(1.20061 0.006052 0.00614333)
(1.2006 0.00578753 0.00570933)
(1.20078 0.00591873 0.00631684)
(1.20103 0.00574356 0.00600779)
(1.19998 0.00343298 0.00905346)
(1.20129 0.0038267 0.00935564)
(1.20081 0.00424624 0.00882268)
(1.20024 0.00195835 0.010058)
(1.20132 0.00361217 0.00959729)
(1.19196 -0.0436637 0.0149187)
(1.20283 -0.0294497 0.0149569)
(1.19459 -0.0289719 0.0158969)
(1.19168 -0.0590784 0.0180356)
(1.19468 -0.0368019 0.0214294)
(1.19994 2.37828e-05 6.67977e-06)
(1.19998 4.11788e-05 1.1687e-05)
(1.19995 2.61712e-05 6.68963e-06)
(1.19993 2.3939e-05 6.23862e-06)
(1.19965 6.90644e-05 9.49009e-05)
(1.1998 7.30424e-05 7.63667e-05)
(1.19974 6.31395e-05 0.000104811)
(1.19985 6.38971e-05 9.34471e-05)
(1.19965 6.9422e-05 9.0206e-05)
(1.19934 4.14171e-05 0.000137367)
(1.19962 4.24757e-05 0.000133041)
(1.19959 4.07569e-05 0.000139016)
(1.19966 4.35956e-05 0.000135405)
(1.19935 4.15634e-05 0.000132167)
(1.1994 3.75878e-05 0.000183544)
(1.19948 3.78785e-05 0.000173487)
(1.19944 3.72679e-05 0.000189205)
(1.19981 4.57165e-05 0.000180658)
(1.19942 3.74648e-05 0.00017712)
(1.19929 3.70708e-05 0.00026683)
(1.19933 3.69778e-05 0.000250785)
(1.19929 3.71896e-05 0.000276902)
(1.19978 5.23261e-05 0.000263015)
(1.19932 3.70068e-05 0.00025783)
(1.19911 4.01013e-05 0.000403568)
(1.19916 3.94179e-05 0.000377792)
(1.19911 4.08733e-05 0.000420764)
(1.19968 6.46002e-05 0.000397897)
(1.19915 4.00005e-05 0.00039031)
(1.19888 4.9404e-05 0.000627983)
(1.19894 4.74811e-05 0.00058626)
(1.19888 5.05287e-05 0.000656193)
(1.19953 8.75985e-05 0.000617823)
(1.19895 4.84185e-05 0.000607043)
(1.19856 6.74574e-05 0.000990945)
(1.19866 6.34846e-05 0.000923586)
(1.19858 6.98429e-05 0.00103623)
(1.19931 0.000126415 0.000973683)
(1.19868 6.53636e-05 0.000957061)
(1.19809 0.000102435 0.00157657)
(1.19826 9.49605e-05 0.0014678)
(1.19813 0.000105937 0.00164995)
(1.19899 0.000194983 0.00154656)
(1.19829 9.75764e-05 0.00152189)
(1.19735 0.000174341 0.00253332)
(1.19763 0.000156843 0.00235476)
(1.1974 0.000183755 0.00265638)
(1.19848 0.000323608 0.00248002)
(1.19769 0.000163131 0.00244589)
(1.19595 0.000374677 0.00414022)
(1.19646 0.00032349 0.00384365)
(1.196 0.000404524 0.00436267)
(1.1976 0.000626013 0.00403664)
(1.19655 0.000341186 0.00400805)
(1.19257 0.00106185 0.00699849)
(1.19373 0.000879653 0.00649029)
(1.19248 0.00117878 0.00747279)
(1.19576 0.00150615 0.00676648)
(1.19378 0.000943054 0.00683594)
(1.18188 0.00389746 0.0129048)
(1.18536 0.00311469 0.0119486)
(1.1809 0.00442878 0.0142957)
(1.19084 0.00475521 0.0122194)
(1.18504 0.0033728 0.0129185)
(1.13702 0.0173124 0.0292466)
(1.15137 0.0135198 0.0272954)
(1.13043 0.0199692 0.0354162)
(1.17238 0.0202474 0.0268375)
(1.14914 0.0145665 0.0314221)
(0.89277 0.0674859 0.0852598)
(0.961633 0.058996 0.0890469)
(1.06212 0.101256 0.0862646)
(0.95506 0.0520756 0.117662)
(1.06758 0.171499 0.166907)
(0.605106 0.0827246 0.0745472)
(1.04704 0.183516 0.126182)
(0.628115 0.0764183 0.0875205)
(1.19996 -1.59067e-08 7.11969e-06)
(1.19996 1.89966e-06 6.89157e-06)
(1.2 2.0165e-06 1.23675e-05)
(1.19996 3.09119e-06 6.89162e-06)
(1.19996 -1.38921e-08 6.64054e-06)
(1.19989 3.28002e-05 9.55227e-05)
(1.19989 4.26467e-05 9.35848e-05)
(1.20001 2.61861e-05 7.71443e-05)
(1.20001 3.88753e-05 0.000104975)
(1.19989 4.62496e-05 9.34441e-05)
(1.1999 3.23704e-05 9.05639e-05)
(1.19973 6.45334e-05 0.000136949)
(1.19974 6.4635e-05 0.000135161)
(1.2 6.19616e-05 0.000132725)
(1.19999 6.71667e-05 0.000138635)
(1.19974 7.76811e-05 0.000134799)
(1.19974 6.41887e-05 0.000131968)
(1.1999 9.29647e-05 0.00018046)
(1.1999 8.80667e-05 0.000178504)
(1.19996 8.82542e-05 0.000171044)
(1.19995 9.68672e-05 0.000185813)
(1.19991 0.000106508 0.000177297)
(1.19991 9.1752e-05 0.000174417)
(1.19988 0.000135591 0.000261131)
(1.19989 0.000124628 0.000258645)
(1.19991 0.000128325 0.000245394)
(1.19989 0.000140819 0.000271004)
(1.1999 0.000151074 0.000256053)
(1.19991 0.000132988 0.000252327)
(1.1998 0.000198614 0.000393908)
(1.19981 0.000179391 0.000390635)
(1.19983 0.00018721 0.000369105)
(1.19981 0.000206384 0.000410358)
(1.19983 0.000218402 0.000386079)
(1.19984 0.000194041 0.000380999)
(1.19967 0.000295153 0.000607844)
(1.19969 0.000264031 0.000602908)
(1.19972 0.000277301 0.000567927)
(1.19968 0.000306349 0.000634396)
(1.19972 0.000321583 0.000594783)
(1.19974 0.000287002 0.000587399)
(1.19948 0.000445979 0.000953119)
(1.19951 0.000396712 0.000946079)
(1.19956 0.000416511 0.000888844)
(1.19951 0.000462706 0.00099553)
(1.19957 0.000481906 0.000930827)
(1.19959 0.000430688 0.000920231)
(1.19921 0.000691598 0.00150476)
(1.19926 0.000613195 0.00149475)
(1.19934 0.000641352 0.00140168)
(1.19927 0.000717738 0.00157207)
(1.19935 0.000741866 0.00146618)
(1.19939 0.000662978 0.00145151)
(1.19881 0.00110994 0.00238512)
(1.19889 0.000982775 0.0023746)
(1.19901 0.00101963 0.00222083)
(1.1989 0.00115265 0.00249347)
(1.19904 0.00117919 0.00231788)
(1.1991 0.00105315 0.0023012)
(1.1982 0.00187848 0.00380027)
(1.19831 0.0016731 0.00379822)
(1.19851 0.00170266 0.00353789)
(1.19836 0.00195735 0.00397912)
(1.19859 0.00197268 0.00367953)
(1.19867 0.00175967 0.00367111)
(1.19724 0.00346528 0.00609539)
(1.19739 0.00316009 0.0061403)
(1.19776 0.00308155 0.00568272)
(1.19751 0.00363408 0.00641031)
(1.19799 0.00360229 0.00586703)
(1.19803 0.0031917 0.00591809)
(1.19586 0.00722898 0.00988295)
(1.19597 0.00698984 0.0101275)
(1.19665 0.00626259 0.00926574)
(1.19638 0.00764758 0.0105013)
(1.19747 0.00743172 0.00939893)
(1.19719 0.00649868 0.00972954)
(1.19539 0.018686 0.0171913)
(1.19621 0.0175579 0.0159657)
(1.19668 0.0147287 0.0152804)
(1.19789 0.0185932 0.0172032)
(1.19828 0.0151873 0.016239)
(1.19954 0.0171152 0.0148356)
(1.21332 0.0511682 0.0270081)
(1.21847 0.0428935 0.0213333)
(1.21304 0.0360674 0.0222442)
(1.22552 0.0419182 0.0222812)
(1.21854 0.0350894 0.0233454)
(1.21986 0.0357529 0.0192977)
(1.19995 2.78052e-06 7.10255e-06)
(1.19995 2.61813e-06 6.88928e-06)
(1.2 7.3168e-06 1.23455e-05)
(1.19995 2.95964e-06 6.87621e-06)
(1.19995 2.76914e-06 6.65675e-06)
(1.19989 6.36267e-05 9.50637e-05)
(1.19989 6.16434e-05 9.29573e-05)
(1.2 5.22103e-05 7.68139e-05)
(1.2 7.3421e-05 0.00010423)
(1.19989 6.6027e-05 9.26128e-05)
(1.19989 6.29877e-05 9.00276e-05)
(1.19974 0.000112695 0.000134617)
(1.19974 0.000108286 0.000133184)
(1.2 0.000108592 0.000130854)
(1.2 0.000116756 0.000136206)
(1.19975 0.000116043 0.00013238)
(1.19975 0.000111909 0.000130112)
(1.19992 0.000158201 0.000174032)
(1.19993 0.000151239 0.00017255)
(1.19998 0.000150634 0.000165436)
(1.19998 0.000164328 0.000178738)
(1.19994 0.000162241 0.000170522)
(1.19994 0.000156167 0.000168305)
(1.19994 0.000226822 0.000246941)
(1.19994 0.000215969 0.000245378)
(1.19996 0.000214925 0.000232417)
(1.19995 0.000235442 0.000255758)
(1.19996 0.000232174 0.000241183)
(1.19997 0.000222615 0.000238492)
(1.1999 0.000329655 0.000369425)
(1.19991 0.000313463 0.000367709)
(1.19993 0.000311202 0.000346221)
(1.19992 0.0003422 0.00038422)
(1.19994 0.000336416 0.000360313)
(1.19994 0.000322238 0.000356953)
(1.19985 0.000485574 0.000564539)
(1.19985 0.000460836 0.000562511)
(1.19989 0.000456766 0.000527964)
(1.19987 0.000503697 0.000587996)
(1.19991 0.000494295 0.000549529)
(1.19991 0.000472559 0.000545018)
(1.19977 0.00072564 0.000872496)
(1.19978 0.000686889 0.000871095)
(1.19983 0.000679117 0.000815074)
(1.19981 0.000751944 0.000909263)
(1.19986 0.000735561 0.000847199)
(1.19987 0.000701693 0.000842078)
(1.19967 0.00110173 0.00135209)
(1.19968 0.00104164 0.0013528)
(1.19975 0.00102575 0.00126231)
(1.19974 0.00113893 0.00140822)
(1.19981 0.00110979 0.0013086)
(1.19982 0.00105745 0.00130369)
(1.19956 0.00169265 0.0020923)
(1.19959 0.00160243 0.00209971)
(1.19969 0.00156643 0.00195318)
(1.19968 0.00174566 0.00217711)
(1.19979 0.00168775 0.00201713)
(1.1998 0.00160997 0.00201587)
(1.19954 0.00264865 0.00321978)
(1.19956 0.00252039 0.00324484)
(1.19971 0.00243351 0.00300738)
(1.19974 0.00272474 0.00334422)
(1.19988 0.00260113 0.0030896)
(1.1999 0.00249326 0.0030997)
(1.19985 0.00421384 0.0048754)
(1.19985 0.00406814 0.00494601)
(1.20003 0.00384552 0.00456537)
(1.20023 0.00431781 0.00504759)
(1.20036 0.0040389 0.00465459)
(1.20038 0.0039222 0.0046937)
(1.20142 0.00668005 0.00711361)
(1.20131 0.00666544 0.00728978)
(1.20143 0.00608369 0.00670617)
(1.20215 0.00678448 0.00730738)
(1.20207 0.00615282 0.0067631)
(1.20207 0.006153 0.0068527)
(1.20695 0.00967414 0.00933145)
(1.20664 0.0104141 0.00970394)
(1.20614 0.00897772 0.00897267)
(1.20837 0.00956937 0.00932154)
(1.20729 0.00837336 0.00891329)
(1.20733 0.00888365 0.00897827)
(1.22154 0.00941418 0.00799216)
(1.22095 0.0120477 0.00876597)
(1.21874 0.00955795 0.0084)
(1.22311 0.00850895 0.00697909)
(1.21983 0.00772109 0.00811364)
(1.22004 0.00876276 0.00763463)
(1.19995 3.63094e-06 7.00981e-06)
(1.19995 3.59137e-06 6.81596e-06)
(1.2 8.55743e-06 1.2166e-05)
(1.19995 3.60221e-06 6.56981e-06)
(1.19989 7.55469e-05 9.24521e-05)
(1.19989 7.44618e-05 9.06432e-05)
(1.20001 6.1591e-05 7.47086e-05)
(1.20001 8.70617e-05 0.000101549)
(1.19989 7.47543e-05 8.76503e-05)
(1.19976 0.00013319 0.000130694)
(1.19976 0.000131263 0.000129488)
(1.20002 0.00012837 0.000127393)
(1.20002 0.000137696 0.000131766)
(1.19977 0.000132016 0.000126296)
(1.19997 0.000184258 0.0001645)
(1.19997 0.000181594 0.000163575)
(1.20003 0.000175472 0.000157015)
(1.20003 0.000191491 0.000168559)
(1.19999 0.000181808 0.000159422)
(1.20003 0.000265994 0.000228887)
(1.20003 0.000261495 0.000227695)
(1.20004 0.000252101 0.000215693)
(1.20005 0.000276192 0.000236437)
(1.20005 0.000261355 0.000220723)
(1.20005 0.000386019 0.000336269)
(1.20005 0.000378257 0.000335649)
(1.20006 0.000364466 0.000315792)
(1.20007 0.000400606 0.000348809)
(1.20009 0.000377421 0.000324825)
(1.20007 0.000565429 0.000506642)
(1.20007 0.000553456 0.000506478)
(1.2001 0.000532356 0.000474306)
(1.20011 0.000585906 0.000526356)
(1.20013 0.000550279 0.000488602)
(1.20012 0.00083681 0.00076573)
(1.20012 0.000817511 0.000768063)
(1.20015 0.000784366 0.000717482)
(1.20017 0.000865247 0.000795414)
(1.2002 0.00080928 0.000738984)
(1.20021 0.00124326 0.00116017)
(1.20021 0.00121383 0.00116635)
(1.20025 0.00116158 0.00108587)
(1.20029 0.00128084 0.00120374)
(1.20033 0.00119443 0.00111786)
(1.20038 0.00183577 0.00174507)
(1.20038 0.00179278 0.00175958)
(1.20044 0.00171068 0.00163396)
(1.20052 0.00188127 0.0018073)
(1.20057 0.00175008 0.00167914)
(1.20075 0.00267813 0.00259855)
(1.20075 0.00262146 0.00262789)
(1.20082 0.00248872 0.00243388)
(1.20096 0.00272442 0.00268257)
(1.20102 0.00252938 0.00249413)
(1.20151 0.0037752 0.00381855)
(1.20155 0.00371789 0.00386485)
(1.20158 0.00351418 0.00357388)
(1.20187 0.00379345 0.00392657)
(1.2019 0.00353415 0.00364748)
(1.20304 0.00482769 0.00559671)
(1.20324 0.00482186 0.00560962)
(1.20308 0.00456436 0.00520355)
(1.20364 0.00474253 0.00572514)
(1.20361 0.00450947 0.00527107)
(1.20617 0.00440124 0.00859985)
(1.20686 0.00474972 0.00821273)
(1.20615 0.0045893 0.00773494)
(1.20745 0.00414039 0.00860154)
(1.20712 0.0043775 0.00763027)
(1.21622 -0.00189679 0.0139183)
(1.21682 0.000911135 0.0112438)
(1.21484 0.00103136 0.0114573)
(1.21931 -0.000172942 0.0114592)
(1.21624 0.00100275 0.00964497)
(1.19993 2.41939e-05 4.28504e-06)
(1.19998 4.18688e-05 5.90977e-06)
(1.19995 2.65485e-05 3.56807e-06)
(1.19993 2.427e-05 3.26122e-06)
(1.19966 7.0409e-05 6.85113e-05)
(1.1998 7.43952e-05 5.09452e-05)
(1.19975 6.43833e-05 7.30258e-05)
(1.19986 6.45319e-05 6.3668e-05)
(1.19966 7.05502e-05 5.87553e-05)
(1.19937 4.20984e-05 0.000106043)
(1.19965 4.32107e-05 9.82607e-05)
(1.19962 4.14897e-05 0.000103861)
(1.19969 4.39429e-05 0.000100887)
(1.19938 4.23584e-05 9.44024e-05)
(1.19946 3.74961e-05 0.000145224)
(1.19953 3.8098e-05 0.000132432)
(1.1995 3.7153e-05 0.000145091)
(1.19987 4.51309e-05 0.000138647)
(1.19947 3.76693e-05 0.000130758)
(1.19939 3.67232e-05 0.000212977)
(1.19941 3.65445e-05 0.00019381)
(1.19939 3.6757e-05 0.000214063)
(1.19988 5.04218e-05 0.000203191)
(1.19941 3.66203e-05 0.000192453)
(1.19927 3.93225e-05 0.000323054)
(1.1993 3.865e-05 0.000292932)
(1.19927 3.97657e-05 0.000325875)
(1.19984 6.12006e-05 0.000307895)
(1.1993 3.89132e-05 0.000292015)
(1.19914 4.60444e-05 0.000500564)
(1.19919 4.469e-05 0.000452496)
(1.19916 4.68344e-05 0.000506037)
(1.1998 7.94307e-05 0.000476777)
(1.1992 4.53764e-05 0.000452251)
(1.19901 5.93622e-05 0.00078825)
(1.19907 5.6246e-05 0.000711392)
(1.19904 6.08851e-05 0.000797656)
(1.19975 0.000109924 0.000749341)
(1.1991 5.74487e-05 0.000711804)
(1.19884 8.45276e-05 0.00125173)
(1.19894 7.89623e-05 0.00112814)
(1.1989 8.66724e-05 0.00126823)
(1.19969 0.000162312 0.00118863)
(1.19899 8.07588e-05 0.00112999)
(1.19861 0.000132112 0.00201364)
(1.19877 0.000119977 0.00181163)
(1.19872 0.000136586 0.00204516)
(1.19964 0.000252189 0.00190809)
(1.19887 0.000123223 0.00181798)
(1.1982 0.000247369 0.00331375)
(1.1985 0.000214967 0.0029717)
(1.19839 0.000257308 0.00338075)
(1.19958 0.000434893 0.00312258)
(1.19868 0.00022075 0.00299171)
(1.19722 0.000596318 0.0057036)
(1.19786 0.000486922 0.00507624)
(1.19756 0.000621433 0.00586436)
(1.19946 0.000888578 0.00529211)
(1.19819 0.000498706 0.00513414)
(1.19425 0.00179683 0.0108025)
(1.19596 0.00137859 0.00941158)
(1.19508 0.00182449 0.0112119)
(1.1992 0.00220051 0.00959701)
(1.19669 0.00138015 0.0095452)
(1.18601 0.0058903 0.0245913)
(1.1911 0.00421026 0.0202046)
(1.18963 0.00544618 0.0250502)
(1.19972 0.0061569 0.0195327)
(1.19349 0.00397006 0.0200086)
(1.18401 0.0144854 0.0671133)
(1.19544 0.00922862 0.0465416)
(1.2094 0.00897709 0.0540621)
(1.21789 0.0126085 0.0411356)
(1.20128 0.00759795 0.0394977)
(1.19996 2.93729e-08 4.63252e-06)
(1.19996 2.02868e-06 3.83694e-06)
(1.2 1.98769e-06 6.48316e-06)
(1.19996 3.06919e-06 3.87284e-06)
(1.19996 6.69908e-08 3.41408e-06)
(1.1999 3.12273e-05 6.8393e-05)
(1.1999 4.15825e-05 6.32525e-05)
(1.20002 2.49259e-05 5.05184e-05)
(1.20002 3.74347e-05 7.23896e-05)
(1.1999 4.50373e-05 6.30389e-05)
(1.19991 3.07923e-05 5.85408e-05)
(1.19977 6.35594e-05 0.000106005)
(1.19977 6.41187e-05 0.000100561)
(1.20003 6.11361e-05 9.7945e-05)
(1.20003 6.61023e-05 0.000103814)
(1.19977 7.67744e-05 0.000100306)
(1.19978 6.33196e-05 9.41888e-05)
(1.19996 8.88271e-05 0.000144223)
(1.19996 8.47756e-05 0.000137977)
(1.20002 8.49044e-05 0.00013196)
(1.20002 9.23466e-05 0.00014397)
(1.19997 0.000102355 0.000137317)
(1.19997 8.81629e-05 0.000130237)
(1.19999 0.000125783 0.000208149)
(1.19999 0.000116129 0.000199676)
(1.2 0.00011949 0.000189585)
(1.2 0.000130432 0.000209024)
(1.2 0.000140748 0.000197594)
(1.20001 0.000123695 0.000188177)
(1.19997 0.000181615 0.000314279)
(1.19998 0.000164817 0.000301481)
(1.19999 0.000171624 0.000284763)
(1.19998 0.000188658 0.00031673)
(1.19999 0.000200302 0.00029787)
(1.2 0.000177991 0.000283786)
(1.19994 0.000264458 0.000484466)
(1.19995 0.000237131 0.000465308)
(1.19997 0.00024953 0.000438298)
(1.19996 0.000273785 0.000489329)
(1.19998 0.000289016 0.000458783)
(1.19999 0.000257914 0.000437734)
(1.1999 0.000388823 0.000757007)
(1.19993 0.000346221 0.000727451)
(1.19995 0.000364754 0.000683693)
(1.19995 0.000402437 0.000765187)
(1.19997 0.000421521 0.00071558)
(1.19999 0.000376926 0.00068346)
(1.19988 0.000584239 0.00119236)
(1.19993 0.000517878 0.00114738)
(1.19995 0.000544489 0.00107579)
(1.19996 0.00060361 0.00120626)
(1.19999 0.000627713 0.00112481)
(1.20002 0.000561638 0.0010763)
(1.19989 0.000896166 0.00189077)
(1.19996 0.000791473 0.00182351)
(1.2 0.000828017 0.00170445)
(1.20002 0.000922825 0.00191424)
(1.20007 0.000952156 0.00177822)
(1.20011 0.00085084 0.00170623)
(1.19996 0.00142476 0.00302255)
(1.20007 0.00125592 0.00292659)
(1.20013 0.00129706 0.00272146)
(1.20019 0.00146209 0.00306459)
(1.20026 0.00149041 0.00282854)
(1.20033 0.00132665 0.00272718)
(1.2002 0.00240385 0.00489784)
(1.20038 0.00213148 0.0047681)
(1.20046 0.0021407 0.00439942)
(1.2006 0.00245013 0.00497306)
(1.20072 0.00246499 0.00453685)
(1.20082 0.00217248 0.00441119)
(1.20099 0.00436618 0.00809078)
(1.20129 0.00396353 0.00791429)
(1.20135 0.00376476 0.0072259)
(1.20179 0.00437471 0.00819189)
(1.20196 0.00436533 0.00730845)
(1.20203 0.00375971 0.00721929)
(1.2044 0.00834407 0.0133038)
(1.20478 0.00787314 0.0130534)
(1.20445 0.00688707 0.0117714)
(1.20615 0.00793428 0.0130889)
(1.20592 0.0078699 0.0113339)
(1.20581 0.00661995 0.0114826)
(1.21849 0.0131734 0.0176066)
(1.21897 0.0121078 0.0172145)
(1.21633 0.0103074 0.0154875)
(1.22188 0.00975657 0.0146802)
(1.21842 0.0104211 0.0131499)
(1.21763 0.0090873 0.0133421)
(1.19995 2.72816e-06 4.76659e-06)
(1.19995 2.56824e-06 3.95558e-06)
(1.2 7.20914e-06 6.68203e-06)
(1.19995 2.90919e-06 3.94916e-06)
(1.19995 2.72377e-06 3.43713e-06)
(1.1999 6.10696e-05 6.78749e-05)
(1.1999 5.94489e-05 6.23625e-05)
(1.20001 5.02476e-05 4.99579e-05)
(1.20002 7.08463e-05 7.13673e-05)
(1.1999 6.35125e-05 6.19843e-05)
(1.1999 6.04107e-05 5.84465e-05)
(1.19977 0.000110379 0.000104825)
(1.19977 0.000106423 9.91404e-05)
(1.20003 0.000106636 9.65163e-05)
(1.20003 0.000114333 0.00010233)
(1.19978 0.000113765 9.86516e-05)
(1.19978 0.00010991 9.2881e-05)
(1.19999 0.000150867 0.000139964)
(1.19999 0.000144615 0.000134364)
(1.20004 0.000144369 0.000128608)
(1.20005 0.000156408 0.000139318)
(1.2 0.000154867 0.000132928)
(1.2 0.000149427 0.000126646)
(1.20004 0.000211052 0.000197099)
(1.20004 0.000201169 0.000189769)
(1.20006 0.000200776 0.000180041)
(1.20006 0.000218864 0.000197638)
(1.20006 0.000216397 0.000186586)
(1.20006 0.000207862 0.000178466)
(1.20006 0.000301769 0.000293901)
(1.20006 0.000287167 0.000283137)
(1.20007 0.000285823 0.000266517)
(1.20008 0.000312817 0.000295729)
(1.20009 0.000308487 0.000277293)
(1.20009 0.000295909 0.00026528)
(1.20009 0.000436501 0.000448272)
(1.20009 0.000414591 0.000432585)
(1.20011 0.000411866 0.000405893)
(1.20012 0.000452089 0.000451791)
(1.20014 0.000444866 0.000422115)
(1.20014 0.00042601 0.000404516)
(1.20014 0.000636599 0.000691577)
(1.20015 0.000603288 0.000668603)
(1.20017 0.000598631 0.000625566)
(1.20019 0.000658085 0.000697552)
(1.20022 0.000646322 0.000650028)
(1.20022 0.000617992 0.000624332)
(1.20024 0.000936726 0.00106948)
(1.20026 0.000885899 0.00103655)
(1.20029 0.000876639 0.000967191)
(1.20033 0.000964766 0.0010784)
(1.20036 0.000945293 0.0010021)
(1.20036 0.000902229 0.000965052)
(1.20045 0.00138318 0.00165049)
(1.20047 0.00130724 0.0016051)
(1.20051 0.0012869 0.0014927)
(1.20059 0.00141779 0.00166225)
(1.20062 0.00138148 0.00153991)
(1.20063 0.00131793 0.00148795)
(1.20087 0.00206022 0.00252994)
(1.20091 0.00194859 0.0024727)
(1.20094 0.00190101 0.00228897)
(1.2011 0.00209752 0.00254284)
(1.20112 0.00202526 0.00234682)
(1.20115 0.00193427 0.00227807)
(1.20177 0.0030862 0.00381537)
(1.20181 0.00293324 0.00375645)
(1.20182 0.00281881 0.00345748)
(1.20216 0.00310765 0.00381447)
(1.20212 0.00295789 0.00350906)
(1.20215 0.00283873 0.00342619)
(1.20377 0.00455258 0.00550606)
(1.20378 0.0043809 0.00547802)