/*--------------------------------*- C++ -*----------------------------------*\
| =========                 |                                                 |
| \\      /  F ield         | OpenFOAM: The Open Source CFD Toolbox           |
|  \\    /   O peration     | Version:  2012                                  |
|   \\  /    A nd           | Website:  www.openfoam.com                      |
|    \\/     M anipulation  |                                                 |
\*---------------------------------------------------------------------------*/
FoamFile
{
    version     2.0;
    format      ascii;
    class       surfaceVectorField;
    location    "0.105/fluid";
    object      Uf_0;
}
// * * * * * * * * * * * * * * * * * * * * * * * * * * * * * * * * * * * * * //

dimensions      [0 1 -1 0 0 0 0];


internalField   nonuniform List<vector> 
47156
(
(1.19993 2.32514e-05 7.9665e-06)
(1.19998 4.02343e-05 1.43054e-05)
(1.19995 2.54499e-05 8.01599e-06)
(1.19993 2.33334e-05 7.81158e-06)
(1.19964 6.74606e-05 0.000101132)
(1.1998 7.14055e-05 8.46814e-05)
(1.19974 6.16641e-05 0.000113459)
(1.19983 6.27365e-05 0.000102258)
(1.19964 6.78269e-05 0.000101553)
(1.19932 4.07526e-05 0.000140019)
(1.1996 4.17514e-05 0.00013973)
(1.19956 4.02153e-05 0.000145146)
(1.19962 4.35677e-05 0.000141879)
(1.19932 4.09662e-05 0.000142198)
(1.19934 3.77482e-05 0.00018587)
(1.19943 3.79046e-05 0.00018036)
(1.19938 3.76248e-05 0.000196379)
(1.19974 4.69943e-05 0.000187886)
(1.19936 3.77678e-05 0.000188518)
(1.19918 3.78361e-05 0.000268629)
(1.19923 3.77083e-05 0.000259247)
(1.19917 3.77636e-05 0.00028631)
(1.19966 5.487e-05 0.000271565)
(1.19921 3.75925e-05 0.000273739)
(1.19893 4.08234e-05 0.000406759)
(1.19898 3.98849e-05 0.000390534)
(1.19891 4.17653e-05 0.000434794)
(1.19949 6.81238e-05 0.000411009)
(1.19897 4.05728e-05 0.000413657)
(1.19858 5.32739e-05 0.000633506)
(1.19866 5.08173e-05 0.000606218)
(1.19857 5.50221e-05 0.000678936)
(1.19922 9.65256e-05 0.00063909)
(1.19865 5.22761e-05 0.000643994)
(1.19806 7.70081e-05 0.0010025)
(1.1982 7.22064e-05 0.000958029)
(1.19805 8.01252e-05 0.00107581)
(1.19881 0.000145072 0.00101009)
(1.19819 7.46275e-05 0.0010189)
(1.19727 0.000120871 0.00160191)
(1.19748 0.000111845 0.00152786)
(1.19724 0.000126895 0.00171932)
(1.19818 0.000230214 0.00161144)
(1.19747 0.00011633 0.00162512)
(1.19596 0.000219908 0.00258181)
(1.19632 0.000197845 0.00245783)
(1.19591 0.000235541 0.00277153)
(1.19716 0.000402153 0.00258902)
(1.1963 0.000208533 0.0026152)
(1.19353 0.000500541 0.00419077)
(1.1942 0.000436147 0.00398541)
(1.19338 0.000553341 0.00450182)
(1.19541 0.000822255 0.00418564)
(1.19412 0.000470622 0.00424559)
(1.18807 0.00145067 0.00681643)
(1.18951 0.00123514 0.00649803)
(1.18745 0.00166404 0.00734717)
(1.19197 0.00207132 0.00678319)
(1.18912 0.00136871 0.00695371)
(1.17231 0.00533008 0.0109936)
(1.17618 0.00445355 0.0106236)
(1.16933 0.00633869 0.0120033)
(1.18355 0.00677933 0.0109403)
(1.1742 0.00507598 0.011552)
(1.11199 0.0228739 0.016844)
(1.12579 0.0190664 0.0170625)
(1.09641 0.0277499 0.0189349)
(1.15496 0.0289376 0.017208)
(1.11538 0.0221367 0.0193676)
(0.837185 0.0846611 0.0178008)
(0.889762 0.0783462 0.0217246)
(1.02165 0.135989 0.021887)
(0.840105 0.083448 0.0252975)
(0.96283 0.206754 0.0351789)
(0.547878 0.087817 0.0134269)
(0.962932 0.207308 0.0157514)
(0.548498 0.0875575 0.00838116)
(1.19995 -5.40943e-08 8.02405e-06)
(1.19995 1.83273e-06 7.99335e-06)
(1.2 2.06902e-06 1.44286e-05)
(1.19995 2.93648e-06 7.98153e-06)
(1.19995 -6.39305e-08 7.95207e-06)
(1.19988 3.43621e-05 0.000102234)
(1.19988 4.36527e-05 0.00010294)
(1.2 2.75251e-05 8.5842e-05)
(1.2 4.05774e-05 0.000114332)
(1.19987 4.78038e-05 0.000102855)
(1.19988 3.39843e-05 0.000102757)
(1.19969 6.68998e-05 0.000138692)
(1.1997 6.63245e-05 0.000140574)
(1.19996 6.40106e-05 0.000138383)
(1.19995 6.95668e-05 0.000143761)
(1.1997 7.98839e-05 0.000139802)
(1.1997 6.61497e-05 0.000140795)
(1.19983 9.83439e-05 0.000182926)
(1.19983 9.27355e-05 0.000185607)
(1.1999 9.30509e-05 0.000177684)
(1.19988 0.000102734 0.000193095)
(1.19984 0.000112081 0.000184237)
(1.19984 9.69676e-05 0.000185789)
(1.19977 0.000145979 0.00026274)
(1.19977 0.000133812 0.000267015)
(1.1998 0.000138013 0.00025361)
(1.19977 0.000152156 0.000279639)
(1.19979 0.000162413 0.000264502)
(1.19979 0.000143455 0.00026746)
(1.19961 0.00021712 0.000396669)
(1.19962 0.000195815 0.000403203)
(1.19965 0.000204633 0.000380861)
(1.19961 0.000226318 0.00042388)
(1.19964 0.000238433 0.000398672)
(1.19966 0.00021257 0.000403406)
(1.19937 0.00032839 0.000614809)
(1.19939 0.000294113 0.000625146)
(1.19944 0.000308222 0.000588785)
(1.19937 0.000342472 0.000658158)
(1.19943 0.000357643 0.000616979)
(1.19944 0.000320192 0.000624714)
(1.19901 0.000507719 0.000965844)
(1.19904 0.000452733 0.000982917)
(1.19912 0.000473956 0.000923519)
(1.19901 0.000529968 0.00103537)
(1.1991 0.000549598 0.000967733)
(1.19913 0.000492489 0.000981169)
(1.19845 0.000808299 0.00153095)
(1.19849 0.000719017 0.0015592)
(1.19862 0.000749461 0.00146189)
(1.19846 0.000844938 0.00164088)
(1.1986 0.000869784 0.00153015)
(1.19864 0.000779183 0.00155321)
(1.19758 0.00133863 0.00243715)
(1.19765 0.00119286 0.00248386)
(1.19785 0.00123083 0.00232358)
(1.19761 0.00140394 0.00261015)
(1.19784 0.00142931 0.00242734)
(1.19789 0.00128201 0.0024675)
(1.19625 0.00234377 0.0038817)
(1.19632 0.00211212 0.00396277)
(1.19667 0.0021324 0.00369841)
(1.19629 0.00247522 0.00415119)
(1.19669 0.00248259 0.00384947)
(1.19673 0.00223028 0.00392488)
(1.19419 0.00447715 0.00611451)
(1.19421 0.00416713 0.0062704)
(1.19484 0.00401796 0.00583961)
(1.19425 0.00478939 0.00652373)
(1.19504 0.00471945 0.00603339)
(1.19493 0.00423967 0.00619507)
(1.19139 0.00967014 0.00924222)
(1.19104 0.00965808 0.00960816)
(1.19219 0.00854154 0.00893581)
(1.1915 0.01056 0.00983169)
(1.1932 0.0101397 0.00908305)
(1.19236 0.00914301 0.00949762)
(1.18879 0.0268774 0.0133587)
(1.19148 0.0242211 0.0123386)
(1.19112 0.0211263 0.0124079)
(1.1927 0.0269724 0.013023)
(1.19214 0.0230006 0.0132543)
(1.19507 0.0242657 0.0121492)
(1.21516 0.0733818 0.0131151)
(1.2234 0.0590995 0.0109235)
(1.21466 0.0530829 0.0123631)
(1.23275 0.0613739 0.0106575)
(1.22158 0.0566968 0.0131863)
(1.2244 0.0516949 0.0107542)
(1.19995 2.76041e-06 7.95309e-06)
(1.19995 2.59119e-06 7.94515e-06)
(1.2 7.45299e-06 1.4373e-05)
(1.19995 2.94442e-06 7.92601e-06)
(1.19995 2.74291e-06 7.90538e-06)
(1.19987 6.62582e-05 0.000101357)
(1.19987 6.40473e-05 0.000102174)
(1.2 5.44942e-05 8.52787e-05)
(1.19999 7.60828e-05 0.000113151)
(1.19987 6.86979e-05 0.00010174)
(1.19987 6.55963e-05 0.000101991)
(1.1997 0.000116738 0.000135092)
(1.1997 0.000111998 0.000137069)
(1.19997 0.000112115 0.00013513)
(1.19996 0.000121201 0.000139898)
(1.19971 0.000120085 0.000135974)
(1.19971 0.000115658 0.000137355)
(1.19986 0.000166986 0.000175714)
(1.19986 0.000159528 0.000178747)
(1.19992 0.000158637 0.000171036)
(1.19991 0.000173886 0.000185297)
(1.19987 0.00017133 0.000176522)
(1.19987 0.000164755 0.00017865)
(1.19983 0.000243479 0.000250124)
(1.19984 0.000232272 0.000254756)
(1.19986 0.000230575 0.00024156)
(1.19984 0.000253575 0.000265625)
(1.19986 0.000249413 0.000250763)
(1.19986 0.000239473 0.000254151)
(1.19973 0.000359286 0.000373183)
(1.19974 0.00034206 0.000380757)
(1.19977 0.000338976 0.000358734)
(1.19974 0.000374333 0.000398163)
(1.19977 0.000367291 0.000373523)
(1.19977 0.000352026 0.000379364)
(1.19958 0.0005392 0.000571195)
(1.19958 0.000512203 0.000583873)
(1.19963 0.000506603 0.000547943)
(1.19959 0.000561509 0.000610415)
(1.19964 0.000549568 0.00057042)
(1.19964 0.000525707 0.000580531)
(1.19934 0.00082422 0.000884722)
(1.19935 0.000781825 0.000905975)
(1.19943 0.000770583 0.00084737)
(1.19936 0.000858574 0.000946376)
(1.19945 0.000837189 0.000881331)
(1.19945 0.000799515 0.000898576)
(1.199 0.00128426 0.00137947)
(1.19901 0.00121858 0.00141484)
(1.19913 0.00119515 0.00131975)
(1.19904 0.00133677 0.00147429)
(1.19917 0.00129667 0.00136946)
(1.19917 0.00123879 0.00139868)
(1.19854 0.0020309 0.00214831)
(1.19854 0.00193247 0.00220754)
(1.19873 0.00188068 0.00205336)
(1.19861 0.00211217 0.00229222)
(1.1988 0.00203209 0.00212335)
(1.1988 0.00194658 0.00217331)
(1.19799 0.00327224 0.00332613)
(1.19798 0.00313833 0.00342595)
(1.19825 0.00301437 0.0031783)
(1.19813 0.00340103 0.00353808)
(1.1984 0.00322951 0.00327125)
(1.19838 0.00311733 0.00335663)
(1.19767 0.00533134 0.00505256)
(1.19758 0.00521524 0.0052169)
(1.19793 0.00489981 0.00483592)
(1.19797 0.00553116 0.00534153)
(1.19826 0.00514559 0.00494625)
(1.19822 0.00506028 0.00508615)
(1.19878 0.00847737 0.0072744)
(1.19852 0.00867372 0.00753951)
(1.19879 0.00784455 0.00702633)
(1.19949 0.00872229 0.00760863)
(1.19947 0.00785776 0.00712857)
(1.19941 0.00806572 0.00734242)
(1.20561 0.0114608 0.00906426)
(1.20503 0.0133213 0.00948861)
(1.20433 0.0110404 0.00905233)
(1.2074 0.0113737 0.00924035)
(1.20539 0.00975733 0.00915621)
(1.20583 0.0111288 0.00933104)
(1.228 0.00845978 0.00690864)
(1.22634 0.0140539 0.00712299)
(1.22327 0.00939876 0.00742904)
(1.23067 0.00777483 0.00561399)
(1.22458 0.00537827 0.00742243)
(1.22608 0.00876041 0.00763016)
(1.19995 3.66312e-06 7.85284e-06)
(1.19995 3.62566e-06 7.8578e-06)
(1.2 8.76235e-06 1.41714e-05)
(1.19995 3.64299e-06 7.81213e-06)
(1.19987 7.94729e-05 9.91419e-05)
(1.19987 7.83071e-05 9.99981e-05)
(1.2 6.48731e-05 8.34608e-05)
(1.2 9.1459e-05 0.000110328)
(1.19988 7.8688e-05 9.94929e-05)
(1.19972 0.000137413 0.000130292)
(1.19972 0.000135362 0.000132442)
(1.19999 0.000132455 0.00013068)
(1.19998 0.000142295 0.000134807)
(1.19973 0.000136202 0.00013284)
(1.19991 0.000195123 0.000165981)
(1.19991 0.000192293 0.00016907)
(1.19997 0.000185292 0.000161968)
(1.19997 0.000203234 0.000174484)
(1.19992 0.000192431 0.000168598)
(1.19993 0.000285225 0.000232579)
(1.19993 0.000280519 0.000237369)
(1.19995 0.000269947 0.000224936)
(1.19995 0.000297082 0.000246291)
(1.19996 0.000280437 0.000236105)
(1.1999 0.000420826 0.000341128)
(1.19989 0.000413023 0.000349138)
(1.19992 0.00039714 0.000328439)
(1.19991 0.000438122 0.000363253)
(1.19994 0.000412227 0.000346651)
(1.19984 0.000628261 0.000512061)
(1.19984 0.000615533 0.000525576)
(1.19988 0.000590664 0.000492604)
(1.19986 0.000653664 0.000545837)
(1.1999 0.000612467 0.000520701)
(1.19976 0.00095083 0.000778212)
(1.19975 0.000930927 0.000800297)
(1.19981 0.000890586 0.000746831)
(1.1998 0.000988189 0.000830064)
(1.19985 0.000922544 0.00078998)
(1.19967 0.00144486 0.00118641)
(1.19965 0.00141485 0.00122271)
(1.19974 0.00134982 0.0011381)
(1.19973 0.00149762 0.0012634)
(1.1998 0.00139458 0.00120225)
(1.19958 0.00219296 0.0017964)
(1.19956 0.00214964 0.00185665)
(1.19969 0.00204283 0.00172315)
(1.19968 0.00226411 0.00190911)
(1.19978 0.00210279 0.00181701)
(1.19957 0.00329636 0.00270264)
(1.19954 0.00324188 0.00279958)
(1.1997 0.00306692 0.00259056)
(1.19974 0.00338261 0.00286542)
(1.19987 0.00314077 0.00272636)
(1.1998 0.00476065 0.00403002)
(1.1998 0.00471049 0.00417517)
(1.19996 0.00444862 0.00386137)
(1.20008 0.00482398 0.00425868)
(1.20023 0.00451243 0.00405157)
(1.20033 0.00603966 0.00595756)
(1.20058 0.00603922 0.00615426)
(1.20057 0.00577901 0.00571942)
(1.20074 0.00590719 0.00632997)
(1.201 0.00573421 0.00602116)
(1.19986 0.00338664 0.0090828)
(1.20118 0.00376828 0.00939167)
(1.20071 0.00420952 0.00885567)
(1.2001 0.00189755 0.0101049)
(1.20121 0.00357003 0.00964512)
(1.19156 -0.0442902 0.0150126)
(1.20258 -0.029995 0.015104)
(1.19419 -0.0294253 0.0160474)
(1.19128 -0.0601218 0.0182402)
(1.19434 -0.0373612 0.0216921)
(1.19993 2.37905e-05 6.77875e-06)
(1.19998 4.11803e-05 1.17773e-05)
(1.19995 2.61507e-05 6.78855e-06)
(1.19993 2.39476e-05 6.33474e-06)
(1.19964 6.89465e-05 9.51304e-05)
(1.1998 7.29434e-05 7.65965e-05)
(1.19974 6.30221e-05 0.000104989)
(1.19984 6.38135e-05 9.36741e-05)
(1.19964 6.93037e-05 9.0431e-05)
(1.19934 4.1378e-05 0.000137395)
(1.19962 4.24322e-05 0.000133059)
(1.19959 4.07161e-05 0.000139057)
(1.19966 4.35821e-05 0.000135434)
(1.19935 4.15244e-05 0.000132196)
(1.1994 3.75481e-05 0.000183629)
(1.19948 3.78381e-05 0.000173567)
(1.19944 3.7228e-05 0.000189295)
(1.19981 4.56968e-05 0.000180742)
(1.19942 3.74244e-05 0.000177205)
(1.19929 3.70323e-05 0.000266961)
(1.19933 3.6939e-05 0.00025091)
(1.19929 3.71517e-05 0.000277039)
(1.19978 5.23023e-05 0.000263146)
(1.19932 3.69682e-05 0.000257961)
(1.19911 4.00607e-05 0.000403766)
(1.19916 3.93785e-05 0.000377977)
(1.19911 4.08313e-05 0.000420971)
(1.19968 6.4566e-05 0.000398094)
(1.19915 3.99603e-05 0.000390504)
(1.19888 4.93499e-05 0.000628285)
(1.19895 4.74286e-05 0.000586545)
(1.19888 5.04727e-05 0.000656508)
(1.19953 8.7539e-05 0.000618123)
(1.19895 4.83643e-05 0.000607341)
(1.19856 6.73809e-05 0.00099139)
(1.19867 6.34132e-05 0.00092401)
(1.19858 6.97624e-05 0.0010367)
(1.19931 0.000126335 0.000974132)
(1.19868 6.52896e-05 0.000957507)
(1.1981 0.000102289 0.00157721)
(1.19826 9.48305e-05 0.00146841)
(1.19813 0.000105783 0.00165063)
(1.19899 0.000194803 0.00154722)
(1.1983 9.74405e-05 0.00152254)
(1.19735 0.000174042 0.00253422)
(1.19763 0.000156581 0.00235564)
(1.19741 0.000183435 0.00265732)
(1.19848 0.00032319 0.00248097)
(1.19769 0.000162856 0.00244682)
(1.19595 0.000373952 0.00414134)
(1.19647 0.000322871 0.00384478)
(1.19601 0.000403737 0.00436384)
(1.1976 0.000625043 0.0040379)
(1.19655 0.00034053 0.00400925)
(1.19258 0.00105974 0.00699944)
(1.19374 0.000877906 0.00649135)
(1.19249 0.00117645 0.00747369)
(1.19577 0.00150371 0.00676784)
(1.19379 0.000941184 0.00683703)
(1.1819 0.00389055 0.0129039)
(1.18538 0.00310902 0.011948)
(1.18093 0.00442116 0.0142941)
(1.19085 0.00474845 0.0122197)
(1.18506 0.00336675 0.0129176)
(1.1371 0.0172911 0.0292384)
(1.15143 0.0135021 0.027288)
(1.13051 0.0199462 0.0354058)
(1.1724 0.0202276 0.0268321)
(1.14921 0.0145479 0.0314129)
(0.892984 0.0674493 0.085246)
(0.961812 0.0589572 0.0890322)
(1.06219 0.101218 0.0862474)
(0.955254 0.052039 0.117643)
(1.06785 0.171482 0.166888)
(0.605277 0.0827163 0.0745497)
(1.04732 0.183505 0.126164)
(0.628282 0.0764085 0.0875226)
(1.19995 -8.52271e-08 7.22047e-06)
(1.19995 1.82889e-06 6.99132e-06)
(1.2 1.96858e-06 1.24594e-05)
(1.19995 3.01346e-06 6.99141e-06)
(1.19995 -8.31596e-08 6.73879e-06)
(1.19988 3.28366e-05 9.57509e-05)
(1.19988 4.26502e-05 9.38106e-05)
(1.20001 2.62102e-05 7.73731e-05)
(1.20001 3.89047e-05 0.000105152)
(1.19988 4.62722e-05 9.36696e-05)
(1.19989 3.24066e-05 9.07866e-05)
(1.19973 6.45228e-05 0.000136979)
(1.19973 6.46127e-05 0.000135191)
(1.2 6.19466e-05 0.000132745)
(1.19999 6.71607e-05 0.000138678)
(1.19973 7.76569e-05 0.00013483)
(1.19974 6.41786e-05 0.000132)
(1.1999 9.29751e-05 0.000180545)
(1.1999 8.8066e-05 0.000178588)
(1.19996 8.82634e-05 0.000171123)
(1.19995 9.68778e-05 0.000185903)
(1.19991 0.000106507 0.00017738)
(1.19991 9.17624e-05 0.0001745)
(1.19988 0.000135591 0.000261268)
(1.19989 0.00012462 0.00025878)
(1.19991 0.000128328 0.000245523)
(1.19989 0.000140816 0.000271147)
(1.1999 0.000151064 0.000256189)
(1.19991 0.000132989 0.000252462)
(1.1998 0.000198582 0.000394114)
(1.19981 0.000179355 0.000390837)
(1.19983 0.000187184 0.000369299)
(1.19981 0.000206347 0.000410572)
(1.19983 0.000218359 0.000386284)
(1.19984 0.000194012 0.000381201)
(1.19967 0.00029505 0.000608157)
(1.19969 0.000263931 0.000603217)
(1.19972 0.000277212 0.000568222)
(1.19968 0.000306237 0.000634725)
(1.19972 0.000321466 0.000595098)
(1.19974 0.000286905 0.000587709)
(1.19948 0.000445746 0.000953602)
(1.19951 0.000396495 0.000946555)
(1.19956 0.000416305 0.000889301)
(1.19951 0.000462455 0.000996038)
(1.19957 0.000481651 0.000931316)
(1.19959 0.000430468 0.000920714)
(1.19921 0.000691102 0.00150549)
(1.19926 0.000612739 0.00149547)
(1.19934 0.000640914 0.00140238)
(1.19927 0.000717208 0.00157285)
(1.19935 0.000741337 0.00146694)
(1.19939 0.000662514 0.00145225)
(1.19881 0.00110888 0.00238624)
(1.19889 0.000981805 0.0023757)
(1.19901 0.00101869 0.00222191)
(1.1989 0.00115151 0.00249467)
(1.19904 0.00117806 0.00231906)
(1.1991 0.00105216 0.00230236)
(1.1982 0.0018762 0.00380197)
(1.19831 0.00167101 0.00379989)
(1.19852 0.00170066 0.00353955)
(1.19836 0.00195493 0.00398096)
(1.19859 0.00197024 0.00368139)
(1.19867 0.00175758 0.0036729)
(1.19725 0.00346051 0.00609793)
(1.19739 0.00315562 0.00614275)
(1.19776 0.00307739 0.0056852)
(1.19751 0.00362912 0.00641304)
(1.19799 0.00359699 0.00586997)
(1.19803 0.00318742 0.00592077)
(1.19587 0.00721948 0.00988637)
(1.19598 0.00698058 0.0101307)
(1.19665 0.00625439 0.00926911)
(1.19639 0.00763799 0.0105048)
(1.19747 0.00742071 0.00940338)
(1.1972 0.00649043 0.00973308)
(1.19541 0.0186689 0.0171938)
(1.19623 0.0175412 0.0159688)
(1.1967 0.0147144 0.0152836)
(1.19791 0.0185772 0.0172059)
(1.19829 0.0151734 0.0162419)
(1.19956 0.0170957 0.0148408)
(1.21335 0.051146 0.0270041)
(1.2185 0.0428709 0.0213309)
(1.21306 0.0360478 0.0222429)
(1.22554 0.0418984 0.0222774)
(1.21856 0.0350715 0.0233428)
(1.21988 0.0357295 0.0192982)
(1.19995 2.70344e-06 7.20254e-06)
(1.19995 2.54029e-06 6.98843e-06)
(1.2 7.2608e-06 1.24369e-05)
(1.19995 2.88325e-06 6.9751e-06)
(1.19995 2.69181e-06 6.75442e-06)
(1.19988 6.37009e-05 9.5291e-05)
(1.19988 6.17059e-05 9.31823e-05)
(1.2 5.227e-05 7.70426e-05)
(1.2 7.34781e-05 0.000104406)
(1.19988 6.61018e-05 9.28379e-05)
(1.19988 6.30622e-05 9.02494e-05)
(1.19973 0.000112669 0.000134649)
(1.19974 0.00010826 0.000133217)
(1.2 0.000108561 0.000130876)
(1.2 0.000116737 0.000136249)
(1.19974 0.000116016 0.000132412)
(1.19974 0.000111884 0.000130147)
(1.19992 0.000158199 0.000174118)
(1.19993 0.000151238 0.000172634)
(1.19998 0.000150633 0.000165516)
(1.19998 0.000164326 0.000178829)
(1.19994 0.000162239 0.000170607)
(1.19994 0.000156166 0.000168389)
(1.19994 0.000226807 0.000247085)
(1.19994 0.000215956 0.000245518)
(1.19996 0.000214914 0.00023255)
(1.19995 0.000235424 0.000255908)
(1.19996 0.000232159 0.000241325)
(1.19997 0.000222602 0.000238632)
(1.1999 0.000329595 0.00036965)
(1.19991 0.000313406 0.000367928)
(1.19993 0.000311151 0.000346432)
(1.19992 0.000342133 0.000384454)
(1.19994 0.000336358 0.000360538)
(1.19994 0.000322183 0.000357174)
(1.19985 0.000485424 0.000564885)
(1.19985 0.000460691 0.00056285)
(1.19989 0.000456634 0.000528289)
(1.19987 0.000503536 0.000588361)
(1.19991 0.00049415 0.000549878)
(1.19991 0.000472418 0.00054536)
(1.19977 0.00072533 0.000873044)
(1.19978 0.000686586 0.000871634)
(1.19983 0.00067884 0.000815591)
(1.19981 0.000751614 0.000909845)
(1.19986 0.000735264 0.000847756)
(1.19987 0.0007014 0.000842627)
(1.19966 0.0011011 0.00135297)
(1.19968 0.00104102 0.00135368)
(1.19975 0.00102518 0.00126315)
(1.19974 0.00113825 0.00140917)
(1.19981 0.00110918 0.00130951)
(1.19982 0.00105685 0.00130459)
(1.19956 0.00169134 0.0020938)
(1.19959 0.00160113 0.00210117)
(1.19969 0.00156527 0.0019546)
(1.19968 0.00174427 0.00217874)
(1.19979 0.00168651 0.00201869)
(1.1998 0.00160874 0.00201741)
(1.19954 0.00264585 0.00322246)
(1.19956 0.00251764 0.00324745)
(1.19971 0.00243106 0.00300991)
(1.19974 0.00272176 0.00334718)
(1.19988 0.00259852 0.00309245)
(1.1999 0.00249069 0.00310248)
(1.19985 0.00420756 0.00488066)
(1.19985 0.00406207 0.00495098)
(1.20003 0.00384012 0.00457027)
(1.20023 0.00431121 0.00505344)
(1.20036 0.00403311 0.00466026)
(1.20038 0.00391661 0.00469911)
(1.20141 0.00666548 0.0071248)
(1.20131 0.00665187 0.00729987)
(1.20142 0.00607147 0.00671637)
(1.20214 0.00676949 0.0073197)
(1.20206 0.00613945 0.00677535)
(1.20207 0.00614058 0.00686385)
(1.20695 0.00964128 0.00935504)
(1.20665 0.0103861 0.00972358)
(1.20614 0.00895097 0.00899374)
(1.20838 0.00953772 0.00934597)
(1.20729 0.008343 0.00893992)
(1.20734 0.00885775 0.00900025)
(1.22158 0.00936464 0.00802231)
(1.22098 0.0120117 0.00878872)
(1.21877 0.00951657 0.00842866)
(1.22315 0.00847058 0.00700376)
(1.21987 0.00767625 0.00815121)
(1.22007 0.00872806 0.00765995)
(1.19995 3.56717e-06 7.10875e-06)
(1.19995 3.52576e-06 6.91411e-06)
(1.2 8.51084e-06 1.22563e-05)
(1.19995 3.53819e-06 6.66641e-06)
(1.19988 7.56521e-05 9.26766e-05)
(1.19988 7.45624e-05 9.08667e-05)
(1.20001 6.16807e-05 7.49337e-05)
(1.20001 8.71423e-05 0.000101725)
(1.19988 7.48586e-05 8.78701e-05)
(1.19976 0.000133162 0.000130726)
(1.19976 0.000131236 0.000129519)
(1.20002 0.000128338 0.000127417)
(1.20002 0.000137673 0.000131809)
(1.19977 0.000131989 0.000126329)
(1.19997 0.000184254 0.000164588)
(1.19997 0.00018159 0.000163661)
(1.20003 0.000175467 0.000157096)
(1.20003 0.000191488 0.000168652)
(1.19999 0.000181805 0.000159508)
(1.20003 0.000265979 0.000229039)
(1.20003 0.00026148 0.000227845)
(1.20004 0.000252091 0.000215834)
(1.20005 0.000276173 0.000236597)
(1.20005 0.000261342 0.000220871)
(1.20005 0.000385969 0.00033651)
(1.20005 0.000378208 0.000335884)
(1.20006 0.000364424 0.000316017)
(1.20007 0.00040055 0.000349061)
(1.20009 0.000377375 0.00032506)
(1.20007 0.000565309 0.000507025)
(1.20007 0.000553333 0.000506855)
(1.2001 0.000532249 0.000474666)
(1.20011 0.000585779 0.000526759)
(1.20013 0.000550167 0.000488981)
(1.20012 0.000836591 0.000766337)
(1.20012 0.000817281 0.000768662)
(1.20015 0.000784167 0.000718051)
(1.20017 0.000865016 0.000796062)
(1.2002 0.000809072 0.00073959)
(1.20021 0.00124286 0.0011612)
(1.20021 0.0012134 0.00116736)
(1.20025 0.00116122 0.00108684)
(1.20029 0.00128042 0.00120484)
(1.20033 0.00119405 0.00111889)
(1.20038 0.00183505 0.00174687)
(1.20038 0.00179197 0.00176137)
(1.20044 0.00171002 0.00163565)
(1.20051 0.00188051 0.00180928)
(1.20057 0.0017494 0.00168098)
(1.20075 0.0026768 0.002602)
(1.20075 0.00261992 0.00263132)
(1.20082 0.00248753 0.0024371)
(1.20096 0.00272302 0.00268642)
(1.20102 0.00252815 0.00249768)
(1.20151 0.00377249 0.003826)
(1.20155 0.00371468 0.00387218)
(1.20158 0.00351183 0.0035807)
(1.20186 0.00379062 0.00393498)
(1.2019 0.00353173 0.00365508)
(1.20303 0.00482127 0.00561562)
(1.20323 0.00481419 0.00562761)
(1.20307 0.00455907 0.0052202)
(1.20363 0.00473583 0.00574651)
(1.2036 0.00450409 0.00528952)
(1.20613 0.00438072 0.00865908)
(1.20684 0.00472711 0.00826427)
(1.20612 0.00457426 0.00778325)
(1.20742 0.00412012 0.00866607)
(1.2071 0.00436281 0.00768142)
(1.21624 -0.00197807 0.0141128)
(1.21686 0.0008484 0.0113779)
(1.21485 0.000985043 0.0115998)
(1.21937 -0.000223381 0.0116175)
(1.21628 0.000965594 0.00976319)
(1.19993 2.42049e-05 4.36598e-06)
(1.19998 4.18729e-05 5.98178e-06)
(1.19995 2.65354e-05 3.6465e-06)
(1.19993 2.42817e-05 3.3352e-06)
(1.19965 7.02897e-05 6.87073e-05)
(1.1998 7.4295e-05 5.11384e-05)
(1.19975 6.42649e-05 7.31825e-05)
(1.19985 6.44473e-05 6.38618e-05)
(1.19965 7.0431e-05 5.89389e-05)
(1.19937 4.20598e-05 0.000106078)
(1.19965 4.3168e-05 9.829e-05)
(1.19962 4.14497e-05 0.000103905)
(1.19969 4.39323e-05 0.000100923)
(1.19938 4.23196e-05 9.44387e-05)
(1.19946 3.74546e-05 0.000145298)
(1.19953 3.80567e-05 0.000132501)
(1.1995 3.71118e-05 0.000145165)
(1.19987 4.51086e-05 0.00013872)
(1.19947 3.76284e-05 0.000130827)
(1.19939 3.66835e-05 0.000213088)
(1.19942 3.65044e-05 0.000193909)
(1.19939 3.6719e-05 0.000214174)
(1.19988 5.0393e-05 0.000203297)
(1.19941 3.65816e-05 0.000192552)
(1.19927 3.92872e-05 0.000323222)
(1.1993 3.8616e-05 0.000293085)
(1.19927 3.97284e-05 0.000326044)
(1.19984 6.11763e-05 0.000308057)
(1.19931 3.88786e-05 0.000292169)
(1.19915 4.59924e-05 0.000500823)
(1.19919 4.46402e-05 0.000452731)
(1.19916 4.67812e-05 0.000506299)
(1.1998 7.93688e-05 0.000477027)
(1.1992 4.53254e-05 0.000452489)
(1.19901 5.92955e-05 0.00078865)
(1.19907 5.61825e-05 0.000711756)
(1.19904 6.08161e-05 0.00079806)
(1.19975 0.000109851 0.000749728)
(1.1991 5.73844e-05 0.000712172)
(1.19884 8.44157e-05 0.00125234)
(1.19894 7.88608e-05 0.0011287)
(1.1989 8.65557e-05 0.00126885)
(1.19969 0.000162183 0.00118923)
(1.19899 8.06532e-05 0.00113056)
(1.19861 0.000131906 0.00201454)
(1.19877 0.000119796 0.00181247)
(1.19872 0.000136372 0.00204607)
(1.19964 0.000251909 0.00190899)
(1.19887 0.000123035 0.00181882)
(1.19821 0.000246914 0.00331497)
(1.1985 0.000214583 0.00297284)
(1.1984 0.000256833 0.00338196)
(1.19958 0.000434277 0.00312384)
(1.19868 0.000220355 0.00299285)
(1.19722 0.000595156 0.00570481)
(1.19787 0.000485981 0.00507746)
(1.19757 0.000620227 0.00586547)
(1.19947 0.000887222 0.0052936)
(1.1982 0.000497746 0.00513531)
(1.19427 0.00179347 0.0108021)
(1.19598 0.00137597 0.00941155)
(1.1951 0.00182111 0.0112111)
(1.19921 0.00219735 0.00959777)
(1.1967 0.00137755 0.00954498)
(1.18604 0.00588128 0.0245834)
(1.19113 0.00420342 0.0201989)
(1.18966 0.00543783 0.0250418)
(1.19974 0.00614978 0.0195296)
(1.19352 0.00396363 0.0200027)
(1.18407 0.0144689 0.0670896)
(1.19549 0.00921656 0.0465237)
(1.20945 0.00896489 0.0540426)
(1.21791 0.0125979 0.0411244)
(1.20133 0.00758782 0.0394801)
(1.19995 -3.925e-08 4.71495e-06)
(1.19995 1.95846e-06 3.91639e-06)
(1.2 1.93985e-06 6.55635e-06)
(1.19995 2.99219e-06 3.95243e-06)
(1.19995 -1.47942e-09 3.49018e-06)
(1.1999 3.12635e-05 6.85867e-05)
(1.19989 4.15847e-05 6.3445e-05)
(1.20002 2.49477e-05 5.07102e-05)
(1.20002 3.74656e-05 7.25459e-05)
(1.19989 4.50595e-05 6.32314e-05)
(1.1999 3.08285e-05 5.87221e-05)
(1.19976 6.35505e-05 0.000106044)
(1.19977 6.40983e-05 0.0001006)
(1.20003 6.1124e-05 9.79787e-05)
(1.20003 6.60973e-05 0.000103862)
(1.19977 7.67522e-05 0.000100346)
(1.19977 6.3312e-05 9.4228e-05)
(1.19996 8.88375e-05 0.000144299)
(1.19996 8.47751e-05 0.00013805)
(1.20002 8.49135e-05 0.000132031)
(1.20002 9.23571e-05 0.000144046)
(1.19997 0.000102353 0.00013739)
(1.19997 8.81733e-05 0.000130307)
(1.19999 0.000125788 0.000208262)
(1.19999 0.000116125 0.000199783)
(1.2 0.000119497 0.000189687)
(1.2 0.000130435 0.000209139)
(1.2 0.000140743 0.000197702)
(1.20001 0.0001237 0.000188279)
(1.19997 0.000181596 0.000314456)
(1.19998 0.000164793 0.000301648)
(1.19999 0.00017161 0.000284923)
(1.19998 0.000188635 0.000316908)
(1.19999 0.000200273 0.00029804)
(1.2 0.000177975 0.000283947)
(1.19994 0.000264375 0.000484739)
(1.19995 0.000237049 0.000465567)
(1.19997 0.000249459 0.000438546)
(1.19996 0.000273695 0.000489606)
(1.19998 0.00028892 0.000459047)
(1.19999 0.000257836 0.000437985)
(1.1999 0.000388641 0.000757438)
(1.19993 0.00034605 0.00072786)
(1.19995 0.000364592 0.000684084)
(1.19995 0.000402242 0.000765626)
(1.19998 0.000421321 0.000716)
(1.19999 0.000376755 0.000683859)
(1.19988 0.000583863 0.00119305)
(1.19993 0.000517533 0.00114803)
(1.19995 0.000544157 0.00107641)
(1.19996 0.000603212 0.00120696)
(1.19999 0.000627311 0.00112549)
(1.20002 0.000561289 0.00107694)
(1.19989 0.000895394 0.00189187)
(1.19996 0.000790776 0.00182454)
(1.2 0.000827338 0.00170545)
(1.20002 0.000922017 0.00191537)
(1.20007 0.000951348 0.00177932)
(1.20012 0.000850133 0.00170726)
(1.19997 0.00142322 0.00302428)
(1.20007 0.00125454 0.0029282)
(1.20013 0.00129572 0.00272305)
(1.20019 0.00146051 0.00306636)
(1.20026 0.0014888 0.00283031)
(1.20033 0.00132528 0.0027288)
(1.2002 0.00240094 0.00490041)
(1.20038 0.00212883 0.00477045)
(1.20046 0.00213818 0.00440179)
(1.20061 0.00244721 0.00497563)
(1.20072 0.00246188 0.00453959)
(1.20082 0.00216995 0.00441357)
(1.201 0.00436118 0.00809392)
(1.2013 0.00395881 0.00791719)
(1.20136 0.00376047 0.00722886)
(1.2018 0.00436992 0.00819484)
(1.20196 0.00435972 0.00731218)
(1.20203 0.00375555 0.00722215)
(1.20441 0.008337 0.0133057)
(1.20479 0.00786599 0.0130554)
(1.20446 0.006881 0.0117735)
(1.20616 0.00792802 0.0130902)
(1.20593 0.00786165 0.0113374)
(1.20582 0.0066144 0.0114843)
(1.2185 0.0131673 0.0176032)
(1.21898 0.0121013 0.0172126)
(1.21634 0.0103025 0.0154856)
(1.22189 0.00975302 0.0146771)
(1.21843 0.0104143 0.0131497)
(1.21764 0.00908306 0.0133398)
(1.19995 2.65035e-06 4.84955e-06)
(1.19995 2.49e-06 4.03492e-06)
(1.2 7.15275e-06 6.75481e-06)
(1.19995 2.83215e-06 4.02836e-06)
(1.19995 2.64583e-06 3.51319e-06)
(1.19989 6.11416e-05 6.80677e-05)
(1.19989 5.95083e-05 6.25548e-05)
(1.20001 5.03023e-05 5.0149e-05)
(1.20002 7.09035e-05 7.15239e-05)
(1.19989 6.35834e-05 6.21762e-05)
(1.19989 6.04824e-05 5.86259e-05)
(1.19977 0.000110356 0.000104867)
(1.19977 0.000106398 9.9184e-05)
(1.20003 0.000106609 9.6555e-05)
(1.20003 0.000114315 0.000102382)
(1.19977 0.000113739 9.86971e-05)
(1.19978 0.000109888 9.29232e-05)
(1.19999 0.000150866 0.000140039)
(1.19999 0.000144613 0.000134437)
(1.20004 0.000144366 0.000128679)
(1.20005 0.000156406 0.000139394)
(1.2 0.000154864 0.000133001)
(1.2 0.000149425 0.000126715)
(1.20004 0.000211042 0.000197217)
(1.20004 0.00020116 0.00018988)
(1.20006 0.000200768 0.000180146)
(1.20006 0.000218852 0.000197757)
(1.20006 0.000216387 0.000186698)
(1.20006 0.000207853 0.000178572)
(1.20006 0.000301724 0.000294091)
(1.20006 0.000287125 0.000283317)
(1.20007 0.000285786 0.000266688)
(1.20008 0.000312767 0.000295921)
(1.20009 0.000308443 0.000277476)
(1.20009 0.000295867 0.000265452)
(1.20009 0.000436386 0.00044857)
(1.20009 0.000414479 0.000432868)
(1.20011 0.000411765 0.000406163)
(1.20012 0.000451964 0.000452096)
(1.20014 0.000444754 0.000422405)
(1.20014 0.000425901 0.00040479)
(1.20014 0.000636353 0.000692068)
(1.20015 0.000603049 0.000669066)
(1.20017 0.000598411 0.000626009)
(1.20019 0.000657825 0.000698055)
(1.20022 0.000646086 0.000650506)
(1.20022 0.000617761 0.000624785)
(1.20024 0.000936242 0.0010703)
(1.20026 0.000885426 0.00103733)
(1.20029 0.000876208 0.000967935)
(1.20033 0.000964255 0.00107925)
(1.20036 0.000944834 0.00100291)
(1.20036 0.000901777 0.000965817)
(1.20045 0.00138223 0.00165193)
(1.20047 0.00130632 0.00160644)
(1.20051 0.00128605 0.00149399)
(1.20059 0.0014168 0.00166373)
(1.20062 0.00138059 0.00154133)
(1.20063 0.00131706 0.00148928)
(1.20087 0.00205835 0.00253253)
(1.20091 0.00194678 0.00247509)
(1.20094 0.00189938 0.00229129)
(1.2011 0.00209559 0.00254553)
(1.20113 0.00202354 0.00234941)
(1.20115 0.0019326 0.00228047)
(1.20177 0.00308252 0.00382017)
(1.20181 0.00292974 0.00376075)
(1.20182 0.00281566 0.00346173)
(1.20216 0.00310395 0.00381941)
(1.20213 0.00295458 0.0035139)
(1.20216 0.00283557 0.00343054)
(1.20378 0.00454556 0.00551482)
(1.20379 0.00437447 0.00548554)