/*--------------------------------*- C++ -*----------------------------------*\
| =========                 |                                                 |
| \\      /  F ield         | OpenFOAM: The Open Source CFD Toolbox           |
|  \\    /   O peration     | Version:  2012                                  |
|   \\  /    A nd           | Website:  www.openfoam.com                      |
|    \\/     M anipulation  |                                                 |
\*---------------------------------------------------------------------------*/
FoamFile
{
    version     2.0;
    format      ascii;
    class       volVectorField;
    location    "0.104/fluid";
    object      cellMotionU;
}
// * * * * * * * * * * * * * * * * * * * * * * * * * * * * * * * * * * * * * //

dimensions      [0 1 -1 0 0 0 0];


internalField   nonuniform List<vector> 
16421
(
(-3.1745e-06 2.96752e-06 5.61388e-08)
(-7.73267e-06 9.81605e-06 3.93979e-08)
(-9.01468e-06 1.76132e-05 -4.10291e-08)
(-6.89956e-06 2.41516e-05 -9.4388e-08)
(-2.84242e-06 2.77186e-05 -1.02429e-07)
(1.74258e-06 2.8575e-05 -8.82769e-08)
(6.06348e-06 2.7236e-05 -7.1652e-08)
(9.60199e-06 2.44504e-05 -5.90991e-08)
(1.19687e-05 2.09898e-05 -5.30767e-08)
(1.29228e-05 1.70232e-05 -4.85585e-08)
(1.23974e-05 1.28576e-05 -4.33837e-08)
(1.03054e-05 8.68165e-06 -3.3964e-08)
(5.97687e-06 3.8984e-06 -1.754e-08)
(-5.03318e-06 4.73032e-06 2.2373e-07)
(-3.83364e-05 3.81796e-05 6.10968e-07)
(-7.34544e-05 9.69457e-05 1.56332e-07)
(-7.94627e-05 0.000162779 -5.69986e-07)
(-5.82757e-05 0.000216437 -9.30355e-07)
(-2.38816e-05 0.000247725 -9.36673e-07)
(1.50809e-05 0.000254185 -7.81048e-07)
(5.35404e-05 0.000241071 -6.25506e-07)
(8.57669e-05 0.000216157 -5.24908e-07)
(0.000107738 0.000184945 -4.78205e-07)
(0.000116602 0.000150488 -4.51759e-07)
(0.000111441 0.000114905 -3.94994e-07)
(9.32368e-05 7.63258e-05 -3.10874e-07)
(5.43417e-05 3.43923e-05 -1.66132e-07)
(-1.33359e-05 1.43453e-05 5.15423e-07)
(-8.13297e-05 8.87021e-05 9.34934e-07)
(-0.000133438 0.000194931 -4.23928e-07)
(-0.000133843 0.000307572 -1.71723e-06)
(-9.266e-05 0.000393188 -1.97884e-06)
(-3.36729e-05 0.000440796 -1.74862e-06)
(3.30077e-05 0.000447406 -1.38223e-06)
(0.000102253 0.000420969 -1.09432e-06)
(0.00016209 0.000376267 -9.35934e-07)
(0.000203039 0.00032288 -8.71659e-07)
(0.000219719 0.000263737 -8.35096e-07)
(0.000211069 0.000199569 -7.55577e-07)
(0.000177749 0.000129169 -5.83569e-07)
(0.000104172 5.54223e-05 -2.96947e-07)
(-1.28091e-05 2.11473e-05 -1.79943e-08)
(-9.14717e-05 0.000121317 1.01973e-06)
(-0.000153072 0.000259504 -8.18433e-07)
(-0.000156597 0.000406189 -2.51433e-06)
(-0.00010555 0.000512861 -2.76311e-06)
(-2.80882e-05 0.000564985 -2.32948e-06)
(6.3357e-05 0.000564545 -1.80635e-06)
(0.000158385 0.000526233 -1.4494e-06)
(0.000241917 0.000468725 -1.28467e-06)
(0.000297347 0.000403538 -1.22147e-06)
(0.000320027 0.000327296 -1.16517e-06)
(0.000308637 0.000244442 -1.06946e-06)
(0.000260028 0.000156913 -8.29224e-07)
(0.000151653 6.74774e-05 -4.2664e-07)
(-6.84912e-07 8.70278e-07 3.03236e-07)
(-3.58916e-06 4.72705e-06 8.12805e-07)
(-5.83043e-06 1.08747e-05 4.75759e-07)
(-5.21997e-06 1.79931e-05 -3.10525e-07)
(-2.24477e-06 2.39213e-05 -8.07838e-07)
(1.83254e-06 2.73637e-05 -9.06328e-07)
(5.90774e-06 2.82432e-05 -7.94183e-07)
(9.65627e-06 2.69481e-05 -6.4525e-07)
(1.26865e-05 2.41728e-05 -5.33251e-07)
(1.46026e-05 2.07224e-05 -4.77121e-07)
(1.51488e-05 1.6767e-05 -4.39257e-07)
(1.41702e-05 1.28324e-05 -3.92135e-07)
(1.15296e-05 8.59852e-06 -3.06061e-07)
(6.54276e-06 3.93989e-06 -1.62e-07)
(-1.10657e-06 1.88887e-06 1.55964e-07)
(-8.58625e-06 1.39819e-05 4.25716e-06)
(-3.25441e-05 4.85931e-05 7.02652e-06)
(-4.91221e-05 0.000103664 1.86913e-06)
(-4.08915e-05 0.000162965 -4.7025e-06)
(-1.49799e-05 0.000213884 -8.17804e-06)
(1.88569e-05 0.000243304 -8.33246e-06)
(5.3492e-05 0.000249972 -7.00875e-06)
(8.649e-05 0.000237873 -5.62692e-06)
(0.000113713 0.000213823 -4.70953e-06)
(0.000131393 0.000183304 -4.27694e-06)
(0.000136212 0.000149561 -3.9879e-06)
(0.000127832 0.000113889 -3.57677e-06)
(0.000104577 7.60779e-05 -2.80936e-06)
(5.94046e-05 3.46314e-05 -1.48433e-06)
(3.61566e-06 4.43999e-06 -2.6982e-07)
(-1.00989e-05 3.33028e-05 7.54266e-06)
(-4.6973e-05 9.69382e-05 9.13113e-06)
(-6.52902e-05 0.000195408 -4.41857e-06)
(-4.93561e-05 0.000302761 -1.52512e-05)
(-5.89999e-06 0.000383877 -1.77268e-05)
(4.9134e-05 0.000430803 -1.58021e-05)
(0.000106021 0.000438354 -1.24978e-05)
(0.000163983 0.000414789 -9.86603e-06)
(0.000214475 0.000371797 -8.42593e-06)
(0.000247721 0.000318413 -7.81503e-06)
(0.00025656 0.000260296 -7.39472e-06)
(0.00024067 0.000197931 -6.68516e-06)
(0.000197711 0.000129883 -5.23773e-06)
(0.000112959 5.71692e-05 -2.7385e-06)
(1.75658e-05 6.39795e-06 -2.55968e-06)
(5.61922e-06 3.06433e-05 -5.7415e-07)
(-3.70184e-05 0.000119829 9.48727e-06)
(-5.62589e-05 0.000248908 -7.87364e-06)
(-3.63927e-05 0.00038919 -2.24672e-05)
(1.86013e-05 0.000491048 -2.45159e-05)
(8.99216e-05 0.000543273 -2.08748e-05)
(0.000167251 0.000547431 -1.63405e-05)
(0.000246128 0.000515207 -1.31224e-05)
(0.00031517 0.00046142 -1.15465e-05)
(0.000360205 0.000396485 -1.09367e-05)
(0.000373149 0.000321747 -1.04989e-05)
(0.000350675 0.000241539 -9.51356e-06)
(0.000287793 0.000157042 -7.45676e-06)
(0.000163728 6.8072e-05 -3.8901e-06)
(-5.40679e-07 1.39455e-06 6.33489e-07)
(-1.07539e-06 6.12304e-06 1.79081e-06)
(1.13725e-06 1.18883e-05 1.05861e-06)
(5.25495e-06 1.79597e-05 -4.93267e-07)
(9.28137e-06 2.30822e-05 -1.3853e-06)
(1.28003e-05 2.64124e-05 -1.58529e-06)
(1.57349e-05 2.73227e-05 -1.40203e-06)
(1.81064e-05 2.6019e-05 -1.12859e-06)
(1.99019e-05 2.35411e-05 -9.28684e-07)
(2.07806e-05 2.02823e-05 -8.27536e-07)
(2.04323e-05 1.64083e-05 -7.66302e-07)
(1.83952e-05 1.24125e-05 -6.80773e-07)
(1.44126e-05 8.4039e-06 -5.28771e-07)
(7.81207e-06 3.89148e-06 -2.75912e-07)
(-2.39342e-06 4.81943e-06 4.05788e-07)
(-2.61729e-06 2.28305e-05 9.3947e-06)
(2.63835e-06 5.86663e-05 1.49961e-05)
(2.71167e-05 0.000105876 4.59847e-06)
(5.89261e-05 0.000159061 -7.89231e-06)
(9.10923e-05 0.000204439 -1.39862e-05)
(0.000120126 0.000233982 -1.46619e-05)
(0.000143841 0.000241733 -1.24152e-05)
(0.000163762 0.000231718 -9.91409e-06)
(0.000179543 0.000209575 -8.24321e-06)
(0.000187334 0.000179542 -7.40835e-06)
(0.000183514 0.00014594 -6.89435e-06)
(0.000165818 0.000110786 -6.17675e-06)
(0.000130263 7.47662e-05 -4.81985e-06)
(7.1171e-05 3.49209e-05 -2.55682e-06)
(1.75525e-05 1.49961e-05 2.40516e-07)
(2.44366e-05 5.54866e-05 1.76399e-05)
(5.34059e-05 0.000100396 1.81477e-05)
(0.000104802 0.000179458 -6.57455e-06)
(0.000154201 0.000277567 -2.53916e-05)
(0.000201608 0.00035698 -3.07732e-05)
(0.000243272 0.000404369 -2.78365e-05)
(0.000278172 0.000417812 -2.20753e-05)
(0.000309678 0.000401585 -1.73261e-05)
(0.000337197 0.00036343 -1.46582e-05)
(0.000351536 0.000312577 -1.35034e-05)
(0.00034437 0.000255118 -1.27952e-05)
(0.000311252 0.000193473 -1.15597e-05)
(0.000245676 0.000129582 -9.08803e-06)
(0.000134053 5.92395e-05 -4.78788e-06)
(5.16709e-05 -7.106e-06 -4.23772e-06)
(5.0264e-05 3.00991e-05 1.44972e-06)
(9.41571e-05 9.84137e-05 1.65019e-05)
(0.000172352 0.000208471 -1.254e-05)
(0.000239898 0.000336822 -3.58391e-05)
(0.000301559 0.000434314 -4.08143e-05)
(0.000355474 0.000490488 -3.56202e-05)
(0.000403533 0.000507675 -2.81786e-05)
(0.000447878 0.000489297 -2.26333e-05)
(0.000485836 0.00044424 -1.97865e-05)
(0.000504792 0.000383641 -1.86533e-05)
(0.000494455 0.000312548 -1.79492e-05)
(0.000448238 0.000235946 -1.63753e-05)
(0.000355145 0.000156647 -1.29287e-05)
(0.000194335 7.07922e-05 -6.84849e-06)
(-1.35245e-06 1.20342e-06 3.89108e-08)
(-2.44873e-07 2.81407e-07 9.37092e-08)
(-2.16087e-07 4.43406e-07 5.12959e-08)
(-3.19694e-06 4.25992e-06 1.2768e-06)
(-1.87789e-06 1.69197e-06 4.19902e-08)
(-2.5812e-06 2.35614e-06 1.29997e-07)
(-1.93092e-05 1.8148e-05 4.14826e-07)
(-6.24148e-07 6.85767e-07 1.9956e-07)
(-2.75147e-06 2.99709e-06 5.11303e-07)
(-5.87671e-06 7.28981e-06 1.95166e-06)
(-2.14562e-05 2.48443e-05 3.92793e-06)
(-1.79309e-06 1.70627e-06 1.1517e-07)
(-4.45442e-06 4.67144e-06 2.55571e-07)
(-6.16837e-07 1.0809e-06 9.34691e-08)
(-4.63643e-06 6.77027e-06 1.91081e-06)
(3.08366e-08 2.46003e-06 1.70119e-09)
(-7.33332e-06 1.50964e-05 3.51056e-06)
(-5.00029e-06 5.56552e-06 2.7239e-07)
(-4.60562e-06 7.69162e-06 -2.1019e-08)
(1.60181e-06 2.51347e-06 -1.53568e-07)
(-6.5212e-06 1.72789e-05 3.42262e-06)
(1.14947e-05 5.14334e-06 -2.0064e-06)
(2.65151e-06 1.88716e-05 -1.48795e-06)
(-3.3203e-06 8.33626e-06 -4.22807e-07)
(1.42232e-05 6.78522e-06 -2.05615e-06)
(6.45847e-06 1.65414e-05 -4.69023e-06)
(-2.82057e-07 3.69862e-07 1.40364e-07)
(-4.45917e-07 7.71517e-07 8.61798e-08)
(-3.45245e-06 5.64558e-06 1.938e-06)
(-2.98977e-07 5.90889e-07 2.69137e-07)
(-9.5285e-07 1.70268e-06 1.83695e-07)
(-2.88874e-06 9.21229e-06 3.81138e-06)
(1.34976e-05 1.66628e-05 -5.99184e-06)
(4.67677e-05 -4.96599e-06 -4.25929e-06)
(4.04262e-05 1.42295e-05 -7.56724e-06)
(-2.60298e-07 6.2481e-07 2.90943e-07)
(-1.0065e-06 1.87184e-06 2.15471e-07)
(-2.19565e-06 9.83291e-06 4.16056e-06)
(5.06828e-05 1.50445e-05 -7.75445e-06)
(-2.47329e-08 4.28788e-08 1.39056e-08)
(1.3587e-08 5.1746e-09 2.21307e-10)
(2.17477e-09 5.20293e-10 2.94056e-10)
(-2.05825e-06 1.81223e-06 2.30845e-07)
(-1.76797e-07 1.49603e-07 2.92385e-09)
(-1.66325e-07 1.41685e-07 6.58142e-09)
(-1.21156e-07 1.08383e-07 2.25524e-08)
(-1.06575e-06 9.3138e-07 1.87369e-07)
(-1.27923e-06 1.09286e-06 5.31016e-08)
(-5.66347e-07 4.93009e-07 6.36585e-08)
(-3.10781e-07 4.43722e-07 9.26425e-08)
(-1.87828e-08 1.37852e-08 1.10839e-09)
(6.39631e-09 6.62062e-08 -5.40955e-09)
(-2.14484e-07 2.91036e-07 6.31808e-08)
(-2.83617e-08 1.33426e-07 -1.854e-08)
(-4.70299e-08 3.25431e-08 2.87762e-09)
(-1.86023e-07 1.00608e-06 7.15351e-08)
(-8.32213e-08 5.77769e-08 5.57349e-09)
(2.82663e-07 1.66399e-07 -5.3135e-08)
(-3.56198e-07 8.74935e-07 1.15826e-07)
(7.89857e-07 1.52737e-07 -1.11435e-07)
(-9.99867e-08 8.00461e-08 8.77149e-09)
(-5.17598e-08 7.56554e-08 3.28396e-09)
(3.14141e-06 2.65329e-06 -3.70515e-07)
(2.74969e-06 4.46232e-06 -2.1385e-06)
(-6.81072e-05 9.00389e-05 1.16593e-06)
(-2.38206e-06 2.95302e-05 -6.167e-07)
(-4.39609e-05 9.31846e-05 8.29132e-06)
(-1.86906e-07 3.20763e-07 1.28783e-07)
(9.55457e-10 2.42326e-09 1.14807e-09)
(1.74908e-08 8.75053e-09 -1.83773e-09)
(-1.28853e-07 2.09425e-07 7.87545e-08)
(4.30533e-09 2.23652e-08 -9.53543e-10)
(-8.08853e-10 4.61436e-09 2.38958e-09)
(-3.33237e-06 2.27833e-05 5.07744e-06)
(1.7962e-05 5.07348e-06 -2.89727e-06)
(9.99737e-06 2.04121e-05 -2.16794e-06)
(1.36613e-05 1.18688e-05 -3.04433e-07)
(1.58842e-05 4.05995e-05 1.14509e-05)
(4.17029e-05 -1.08654e-06 -4.25377e-06)
(3.68392e-05 2.34946e-05 -1.86209e-06)
(1.65372e-05 8.76078e-06 -7.11563e-06)
(2.88592e-05 2.58794e-06 -3.74767e-06)
(2.75717e-05 6.10511e-06 -9.20413e-06)
(-2.57413e-05 9.23274e-05 1.05069e-05)
(3.84159e-05 2.91187e-05 2.49458e-07)
(4.76906e-05 8.34605e-05 1.71622e-05)
(-2.05694e-07 4.83083e-07 2.09156e-07)
(-1.58331e-09 6.41415e-09 3.3997e-09)
(-2.67385e-09 2.99094e-08 -2.22845e-09)
(-2.05803e-07 4.42891e-07 1.82691e-07)
(-3.12185e-09 2.66359e-08 -2.09001e-09)
(-1.44083e-09 7.09519e-09 3.81071e-09)
(2.32715e-05 4.46388e-05 1.28306e-05)
(5.05486e-05 -2.30422e-06 -4.19103e-06)
(4.68848e-05 2.54336e-05 -1.49924e-06)
(4.94342e-05 1.72221e-06 -1.09477e-05)
(6.71622e-05 -8.55706e-06 -3.6626e-06)
(6.37171e-05 5.53224e-06 -1.08191e-05)
(7.67468e-05 7.77207e-05 1.86148e-05)
(-8.08088e-08 9.514e-08 3.0122e-08)
(-7.87616e-08 6.9109e-08 2.10166e-09)
(-6.35757e-08 5.92325e-08 1.40684e-08)
(-6.24593e-07 5.58507e-07 1.26741e-07)
(-1.79993e-09 5.08208e-09 2.00401e-09)
(-6.17106e-08 8.71524e-08 2.75062e-08)
(-1.38839e-08 1.01622e-08 9.03506e-10)
(9.08428e-09 4.47871e-08 -2.0573e-09)
(1.72261e-08 5.10608e-09 1.02507e-10)
(-1.17812e-07 1.55527e-07 3.90708e-08)
(-1.47087e-07 1.69481e-07 4.99057e-08)
(-1.2664e-07 1.1462e-07 5.95217e-09)
(-7.86388e-08 7.02748e-08 5.82649e-09)
(-1.42887e-06 1.38822e-06 2.58475e-07)
(-9.48479e-07 8.76472e-07 1.91425e-07)
(-4.95295e-07 5.16271e-07 1.1401e-07)
(-4.77991e-08 7.69055e-08 2.44061e-08)
(7.47683e-10 2.39676e-09 1.15946e-09)
(1.87451e-08 7.59617e-09 -1.34343e-09)
(1.5781e-08 5.01414e-09 7.02044e-12)
(-1.15085e-07 1.7504e-07 6.49221e-08)
(1.91719e-09 8.13193e-10 3.894e-10)
(-3.86039e-07 5.99556e-07 1.13492e-07)
(-7.88559e-08 5.39771e-08 5.25579e-09)
(1.52631e-07 1.65546e-07 -4.39245e-08)
(-1.51238e-08 1.61197e-07 -2.127e-08)
(-4.13398e-07 7.47639e-07 1.24988e-07)
(-5.19287e-08 3.6143e-08 3.1535e-09)
(1.53095e-07 1.18692e-06 -8.82818e-08)
(-6.89917e-08 7.92074e-08 6.15815e-09)
(2.26347e-06 1.38055e-06 -3.01143e-07)
(1.03655e-06 3.01745e-07 -1.27179e-07)
(8.22689e-07 1.66763e-06 -5.00493e-07)
(-1.00125e-07 8.40618e-08 8.78843e-09)
(-1.69978e-07 7.78002e-07 -6.54806e-08)
(-2.35857e-06 1.16971e-05 -1.73567e-06)
(1.56554e-06 5.45081e-06 -2.55831e-06)
(5.7795e-06 4.82108e-06 -6.68729e-07)
(1.32782e-05 8.71018e-06 -6.25543e-06)
(5.1186e-06 6.53059e-06 -3.39121e-06)
(1.0526e-06 1.4779e-05 -3.3517e-06)
(1.11274e-05 9.93728e-06 -7.40714e-06)
(5.72207e-06 8.49428e-06 -5.25993e-06)
(-1.92187e-07 3.51717e-07 1.41387e-07)
(-1.31689e-09 6.09884e-09 3.20521e-09)
(-2.5355e-09 2.98227e-08 -1.94988e-09)
(2.69696e-09 2.43118e-08 -9.09571e-10)
(-2.11552e-07 4.26204e-07 1.74631e-07)
(2.33141e-11 4.20878e-09 2.11706e-09)
(1.77186e-05 9.1797e-06 -9.36145e-06)
(1.58301e-05 1.37185e-05 -9.14825e-06)
(2.1665e-05 1.58933e-05 -6.885e-06)
(2.53171e-05 7.09115e-06 -1.09258e-05)
(2.40063e-05 1.13823e-05 -1.05834e-05)
(3.29509e-05 1.41493e-06 -4.04065e-06)
(4.48062e-05 2.69218e-06 -1.07293e-05)
(3.17756e-05 4.50031e-06 -9.81189e-06)
(3.09197e-05 1.44762e-05 -7.55861e-06)
(4.29223e-05 2.49827e-06 -1.29942e-05)
(4.28837e-05 5.92206e-06 -1.2306e-05)
(3.38893e-05 4.31277e-06 -1.22142e-05)
(3.32453e-05 8.11787e-06 -1.17874e-05)
(-1.96433e-07 4.92087e-07 2.15596e-07)
(-1.72335e-09 2.55659e-08 -2.1972e-09)
(-1.21874e-09 7.06373e-09 3.79396e-09)
(5.25068e-05 2.57999e-06 -1.35532e-05)
(5.33127e-05 5.48983e-06 -1.28183e-05)
(6.07248e-05 1.87087e-05 -7.24336e-06)
(6.22131e-05 5.54397e-06 -1.35876e-05)
(6.37577e-05 8.28477e-06 -1.28259e-05)
(7.23228e-05 -9.06311e-06 -3.52407e-06)
(6.88491e-05 5.14586e-06 -1.08975e-05)
(7.06014e-05 2.394e-05 -6.0972e-06)
(7.21618e-05 9.96503e-06 -1.33742e-05)
(7.41872e-05 1.33334e-05 -1.23558e-05)
(-1.90354e-07 1.51122e-07 1.78362e-08)
(-3.01365e-09 2.45086e-09 7.63116e-11)
(3.36118e-09 -3.47522e-10 -9.07594e-10)
(-8.75204e-09 7.58568e-09 2.23633e-09)
(-6.61913e-08 5.28298e-08 1.16551e-08)
(-8.61618e-08 7.11912e-08 3.42432e-09)
(-4.43095e-08 3.59818e-08 4.53155e-09)
(-4.98399e-09 1.89574e-08 4.60546e-09)
(7.74572e-09 -7.89778e-10 1.33681e-10)
(-3.63266e-09 1.44758e-08 3.96981e-09)
(6.84858e-09 7.36163e-10 -2.92771e-10)
(-2.73884e-05 2.64181e-05 5.91684e-07)
(-1.16409e-05 1.20464e-05 4.72048e-07)
(-5.49263e-05 5.6189e-05 9.83717e-07)
(-8.36451e-06 1.09569e-05 2.77275e-06)
(-2.75302e-05 3.35496e-05 4.96747e-06)
(-1.38714e-05 2.34542e-05 4.98387e-06)
(-4.60494e-05 6.43128e-05 7.51001e-06)
(2.60193e-08 4.38846e-08 4.15491e-09)
(3.23187e-08 -5.90544e-09 -4.71171e-09)
(9.27366e-12 5.14674e-08 7.55105e-09)
(4.4815e-08 -4.36858e-09 -5.18773e-09)
(-6.09507e-05 6.4816e-05 1.03255e-06)
(-1.37337e-05 1.95092e-05 2.49421e-07)
(-6.78628e-05 8.4714e-05 1.08438e-06)
(-1.4007e-05 2.70037e-05 5.02764e-06)
(-4.83516e-05 7.26417e-05 7.7288e-06)
(-5.59673e-06 3.08691e-05 1.47986e-06)
(-4.57688e-05 9.01005e-05 7.98377e-06)
(7.08911e-07 6.90494e-07 -4.60748e-07)
(2.31835e-07 1.71212e-07 -1.90445e-08)
(3.02132e-07 2.74646e-07 -1.32709e-07)
(5.30941e-07 5.60381e-07 -7.99511e-10)
(-2.81673e-06 3.5586e-06 7.65013e-07)
(-6.18273e-06 9.28259e-06 2.93559e-06)
(-2.01688e-05 2.78628e-05 5.49833e-06)
(-6.18726e-07 1.30259e-06 5.67933e-07)
(-1.78937e-06 4.64271e-06 1.51299e-06)
(-4.371e-06 1.40915e-05 5.7821e-06)
(-8.96339e-06 3.53552e-05 1.07682e-05)
(-4.84584e-06 8.99856e-06 2.87403e-06)
(2.64737e-07 4.60305e-06 -2.67974e-08)
(-5.75107e-06 2.02705e-05 5.23747e-06)
(-2.34601e-06 4.3695e-06 3.47437e-07)
(-3.22447e-06 1.49629e-05 5.8358e-06)
(3.44636e-06 1.29785e-05 1.15795e-07)
(7.4065e-06 3.69742e-05 1.17838e-05)
(-1.15407e-06 4.78689e-06 1.65115e-06)
(-3.00072e-06 1.49105e-05 6.30701e-06)
(-3.42193e-06 3.64132e-05 1.17823e-05)
(-1.89554e-06 1.59881e-05 6.36494e-06)
(4.87358e-06 1.55123e-05 3.05652e-07)
(1.29343e-05 4.06533e-05 1.32239e-05)
(-1.66834e-09 4.73637e-09 6.03869e-09)
(-3.93272e-09 3.92643e-09 2.24707e-09)
(-2.61802e-08 2.3974e-08 7.94747e-09)
(2.12082e-10 3.78922e-10 2.64054e-09)
(2.03242e-09 5.20066e-09 2.19147e-09)
(6.40165e-09 -4.27864e-10 4.95961e-10)
(-3.64983e-09 1.21897e-08 3.82471e-09)
(4.07126e-09 1.33734e-10 1.14615e-09)
(-1.76635e-07 2.04494e-07 6.34282e-08)
(-1.87319e-07 1.88467e-07 5.17539e-08)
(-1.10392e-08 1.78507e-08 6.93403e-09)
(-8.69413e-07 1.03997e-06 3.36232e-07)
(-6.47922e-07 6.7216e-07 1.76546e-07)
(-2.43387e-07 3.22368e-07 1.11877e-07)
(-4.39949e-09 8.57897e-09 2.86443e-09)
(-1.14923e-07 1.89239e-07 5.6408e-08)
(-8.67532e-08 2.05842e-07 2.71498e-08)
(2.40062e-08 2.69009e-08 -1.33575e-09)
(-5.66013e-07 1.04313e-06 2.9237e-07)
(2.58686e-08 7.94537e-09 -1.46364e-10)
(-3.82579e-07 5.85165e-07 1.512e-07)
(-1.84583e-07 3.30643e-07 1.0288e-07)
(-4.2586e-06 3.93244e-06 4.5987e-07)
(-1.02243e-06 8.98986e-07 5.62057e-08)
(-6.31754e-06 5.74618e-06 2.2553e-07)
(-3.4729e-06 3.36949e-06 4.74848e-07)
(-1.85112e-06 1.71262e-06 2.64051e-07)
(-7.24945e-06 6.91329e-06 7.78958e-07)
(-3.30156e-06 2.97492e-06 1.22296e-07)
(-1.39135e-06 1.58874e-06 2.96195e-07)
(-1.30294e-07 1.17344e-07 7.89946e-09)
(-2.81295e-06 2.73852e-06 1.6799e-07)
(-2.62926e-06 2.7514e-06 4.52598e-07)
(-9.42041e-07 1.03846e-06 1.97776e-07)
(-3.84385e-06 4.16728e-06 6.31536e-07)
(-2.79242e-07 2.51672e-07 1.69129e-08)
(1.25358e-10 3.59868e-08 5.09751e-09)
(2.7547e-08 -4.83867e-09 -4.23195e-09)
(-6.49314e-09 4.91281e-08 7.94899e-09)
(2.07841e-08 -2.43471e-09 -3.42332e-09)
(-1.78902e-06 2.14868e-06 3.69547e-07)
(-3.64991e-06 3.70075e-06 2.07807e-07)
(-4.48028e-07 4.31175e-07 2.62866e-08)
(-5.90251e-06 7.00995e-06 9.5184e-07)
(-4.90827e-06 5.57728e-06 7.78254e-07)
(-2.09531e-06 2.6919e-06 4.16545e-07)
(-3.24489e-07 2.97602e-07 1.92901e-08)
(-2.15269e-06 3.6529e-06 3.45449e-07)
(-4.76113e-07 4.74295e-07 2.66217e-08)
(-5.34992e-06 6.39834e-06 2.50868e-07)
(-6.32693e-06 8.20238e-06 9.58067e-07)
(-2.1851e-06 3.1602e-06 3.99255e-07)
(-6.57801e-06 9.39481e-06 8.24309e-07)
(-5.25042e-07 5.98225e-07 2.98911e-08)
(1.60982e-07 1.12016e-07 -3.71924e-08)
(1.90102e-07 1.10935e-07 -1.71152e-08)
(2.29277e-07 1.81692e-07 -9.36185e-08)
(1.39862e-07 3.96665e-08 -9.65023e-09)
(-1.68598e-06 4.02718e-06 4.57673e-08)
(-5.14355e-06 7.02448e-06 1.57193e-07)
(-3.15454e-07 7.0864e-07 -1.78402e-08)
(-4.7207e-06 1.11229e-05 -3.14617e-07)
(-5.85843e-06 1.01747e-05 4.10257e-07)
(-5.50646e-07 4.48238e-06 -7.1474e-07)
(-5.07045e-07 6.29209e-07 2.5214e-08)
(-3.3628e-07 5.61587e-07 2.30638e-07)
(-1.45691e-08 2.22226e-08 9.23358e-09)
(-9.8007e-07 1.3702e-06 5.04037e-07)
(-3.03352e-07 4.54631e-07 1.88069e-07)
(-2.91682e-07 4.38175e-07 1.6627e-07)
(-1.0368e-06 1.68549e-06 6.74585e-07)
(-1.74989e-08 3.05561e-08 1.37258e-08)
(-3.27441e-07 6.65023e-07 2.24762e-07)
(1.01275e-08 4.11399e-08 -1.87951e-09)
(-7.84921e-07 1.59615e-06 4.60431e-07)
(-6.72714e-07 1.13139e-06 1.29773e-07)
(-2.60195e-07 4.92585e-07 1.58282e-07)
(-3.0088e-08 8.95668e-08 1.7969e-09)
(-9.60102e-07 2.14684e-06 6.26281e-07)
(-3.55685e-07 6.68256e-07 2.84287e-07)
(-3.09539e-07 5.32269e-07 2.32052e-07)
(-2.42963e-08 4.35467e-08 2.11094e-08)
(-9.68818e-07 2.17086e-06 9.58537e-07)
(-9.96659e-07 1.9278e-06 8.08337e-07)
(-3.40406e-07 7.39347e-07 3.20669e-07)
(-2.0442e-08 3.49535e-08 1.6177e-08)
(-3.69621e-07 8.12651e-07 2.75436e-07)
(-8.73661e-07 1.47016e-06 1.62159e-07)
(-6.07096e-08 1.30532e-07 1.10366e-09)
(-1.08206e-06 3.05891e-06 9.19875e-07)
(-4.25132e-08 1.05903e-07 3.16195e-09)
(-1.06678e-06 2.64148e-06 7.72229e-07)
(-3.72141e-07 9.14788e-07 3.0961e-07)
(-2.92203e-07 8.46175e-07 3.87271e-07)
(-2.35952e-08 4.48947e-08 2.18701e-08)
(-8.31232e-07 2.30733e-06 1.04609e-06)
(-2.18495e-07 6.50243e-07 3.09774e-07)
(-3.09661e-07 7.92173e-07 3.50363e-07)
(-6.54211e-07 2.3977e-06 1.10976e-06)
(-2.30463e-08 4.94354e-08 2.47931e-08)
(-3.45998e-07 1.05286e-06 3.81881e-07)
(-6.56777e-08 1.36982e-07 1.82703e-09)
(-1.01283e-06 3.32357e-06 1.0137e-06)
(-1.00748e-06 1.95872e-06 2.46601e-07)
(-3.58444e-07 9.91532e-07 3.41828e-07)
(-6.74475e-08 1.34015e-07 3.5977e-09)
(-9.01807e-07 3.49588e-06 1.09167e-06)
(-2.41293e-07 8.6807e-07 4.03383e-07)
(-1.61625e-07 6.56137e-07 3.16477e-07)
(-4.38654e-07 2.44164e-06 1.1448e-06)
(-2.08162e-08 4.94305e-08 2.47763e-08)
(-3.02355e-07 1.07501e-06 4.02116e-07)
(-9.58412e-07 1.96579e-06 2.61555e-07)
(-6.39745e-08 1.31756e-07 5.07782e-09)
(-7.37404e-07 3.56819e-06 1.15107e-06)
(1.05877e-08 5.92345e-09 -5.46427e-10)
(1.41444e-09 -2.30941e-10 1.45574e-09)
(1.7174e-09 1.1812e-09 4.3849e-09)
(9.86716e-09 6.63067e-09 -5.07585e-10)
(1.95767e-09 1.95266e-09 2.10356e-09)
(1.48341e-09 1.8075e-09 3.36184e-09)
(1.05538e-08 6.70746e-09 -3.83584e-10)
(1.10247e-08 1.1936e-08 2.35316e-09)
(5.31159e-09 3.9999e-09 1.12044e-09)
(4.22369e-09 4.57143e-09 2.3832e-09)
(1.29719e-08 6.52133e-09 -1.35083e-10)
(8.71565e-09 5.1767e-09 -2.4229e-10)
(-4.5454e-10 3.11129e-09 5.01378e-09)
(1.02898e-09 1.46293e-09 4.71787e-09)
(1.11475e-09 1.84384e-09 3.80464e-09)
(1.1208e-08 5.89865e-09 -4.07947e-10)
(-1.61258e-09 1.33639e-08 4.29285e-09)
(2.23197e-09 -5.83425e-11 4.73828e-10)
(3.46451e-09 3.58581e-09 2.96423e-09)
(1.3378e-08 5.54966e-09 -1.83931e-10)
(-3.87143e-07 3.13914e-07 3.39482e-08)
(4.10879e-09 3.42964e-10 -1.30289e-09)
(-3.21225e-07 2.63589e-07 3.30308e-08)
(-5.95608e-07 4.86413e-07 1.62409e-08)
(-9.21841e-08 7.56767e-08 1.44722e-08)
(-7.89173e-07 6.42713e-07 6.35306e-08)
(-2.08474e-07 1.79489e-07 6.84951e-09)
(-2.04488e-08 2.91232e-08 6.67904e-09)
(-8.21672e-08 8.47698e-08 1.61713e-08)
(-3.0664e-08 2.18194e-08 1.8142e-09)
(-1.61288e-08 2.35726e-08 5.46737e-09)
(-1.14754e-07 1.1398e-07 2.12502e-08)
(-6.60807e-09 2.29566e-08 4.84324e-09)
(9.27123e-09 4.24703e-10 -1.64308e-09)
(6.31282e-09 1.86189e-09 -3.27593e-10)
(-1.31624e-08 3.15489e-08 6.42245e-09)
(-2.63458e-08 3.81216e-08 7.92892e-09)
(-1.68287e-07 1.71414e-07 3.14631e-08)
(-3.53385e-08 2.53414e-08 2.08909e-09)
(-1.41725e-07 1.44879e-07 2.58687e-08)
(-3.26961e-08 4.54767e-08 9.20655e-09)
(-3.42233e-08 8.48449e-08 1.09067e-08)
(-2.69881e-07 3.21772e-07 4.64328e-08)
(-9.18948e-08 6.68377e-08 6.81603e-09)
(-4.00695e-08 8.22555e-08 1.11517e-08)
(-2.82713e-07 3.51773e-07 4.74317e-08)
(3.45084e-08 4.93831e-08 1.98064e-09)
(8.09303e-08 -6.54434e-09 -8.24068e-09)
(5.07961e-08 -2.42504e-09 -5.21324e-09)
(5.84994e-08 5.86034e-08 -3.47749e-09)
(-2.50942e-08 9.36632e-08 8.20983e-09)
(-2.65318e-07 4.03387e-07 4.17247e-08)
(-9.361e-08 7.06652e-08 7.10757e-09)
(-2.74721e-07 3.81055e-07 4.3569e-08)
(-1.72224e-08 9.89385e-08 4.90297e-09)
(2.03602e-06 2.45165e-06 -1.59898e-06)
(4.44152e-06 6.14463e-06 -4.6284e-06)
(2.72671e-06 4.07394e-06 -3.15922e-06)
(4.80066e-06 5.1872e-06 -3.17485e-06)
(3.70378e-07 4.83106e-07 -3.17785e-07)
(1.60584e-07 7.11058e-07 -2.4607e-07)
(-1.65897e-08 7.00002e-08 -6.13651e-09)
(1.7929e-07 2.82461e-07 -1.31115e-07)
(4.53333e-07 9.37929e-07 -5.59131e-07)
(1.04938e-06 1.09339e-06 -7.2212e-07)
(8.52209e-07 8.84942e-07 4.09096e-08)
(1.93432e-06 2.1247e-06 -1.21204e-06)
(4.46715e-06 4.6991e-06 -1.53432e-07)
(1.71433e-06 1.84398e-06 6.11299e-08)
(4.7087e-06 4.8133e-06 -2.49597e-06)
(1.14536e-06 1.31796e-06 -9.68721e-07)
(2.1981e-08 7.45143e-08 -2.26361e-08)
(1.08959e-06 1.56696e-06 -1.37853e-06)
(1.42563e-08 5.42163e-09 6.82349e-11)
(-2.27724e-08 4.30377e-08 1.72916e-08)
(-1.11938e-10 3.52819e-09 1.78068e-09)
(1.4196e-08 5.35843e-09 5.70985e-11)
(-2.86379e-08 5.23359e-08 2.21076e-08)
(1.3923e-08 6.44921e-09 7.43862e-11)
(-4.51089e-09 4.74368e-08 1.26646e-08)
(1.05484e-08 1.48966e-08 -1.67383e-09)
(1.3868e-08 6.37445e-09 7.02367e-11)
(-2.07361e-08 6.71572e-08 1.87447e-08)
(1.39319e-08 6.46001e-09 7.37301e-11)
(-3.58775e-08 9.20145e-08 2.62291e-08)
(8.45975e-09 1.7156e-08 -1.42585e-09)
(-2.42885e-08 7.3939e-08 2.08758e-08)
(1.39833e-08 6.54323e-09 7.08375e-11)
(1.42655e-08 5.43038e-09 6.67937e-11)
(-3.5893e-08 6.57356e-08 2.90763e-08)
(9.92749e-11 3.58646e-09 1.80345e-09)
(-3.10473e-08 5.67927e-08 2.44079e-08)
(1.43232e-08 5.50256e-09 6.67267e-11)
(2.40775e-05 5.02588e-06 -9.54961e-06)
(2.9134e-05 3.76935e-06 -1.4085e-05)
(2.51073e-05 5.99798e-06 -1.31891e-05)
(3.007e-05 2.3432e-06 -1.06226e-05)
(2.21193e-05 5.96075e-06 -7.72186e-06)
(1.65398e-05 9.17839e-06 -2.3885e-06)
(1.68646e-05 7.82823e-06 -6.49685e-06)
(2.17481e-05 7.48138e-06 -3.24614e-06)
(2.21957e-05 5.97584e-06 -9.1287e-06)
(1.77622e-05 9.41977e-06 -1.10617e-05)
(1.69393e-05 8.00212e-06 -7.7664e-06)
(2.13085e-05 7.94629e-06 -1.21779e-05)
(2.39873e-05 5.21683e-06 -8.09906e-06)
(2.94609e-05 4.76031e-06 -4.17152e-06)
(2.35752e-05 6.64879e-06 -3.52383e-06)
(2.99668e-05 2.70617e-06 -9.02113e-06)
(1.44554e-08 5.69358e-09 6.30429e-11)
(-5.01651e-08 9.36718e-08 4.41635e-08)
(-1.45219e-09 6.68168e-09 3.55223e-09)
(1.44521e-08 5.65347e-09 5.7842e-11)
(-4.97982e-08 9.80345e-08 4.66712e-08)
(1.41037e-08 6.76773e-09 6.40627e-11)
(-4.92163e-08 1.24301e-07 3.51268e-08)
(-6.43294e-09 3.16468e-08 -1.8624e-09)
(1.41031e-08 6.72095e-09 6.13047e-11)
(-5.45922e-08 1.31055e-07 3.87647e-08)
(1.40996e-08 6.77322e-09 6.43453e-11)
(-5.0453e-08 1.30057e-07 4.06183e-08)
(-6.57954e-09 3.18828e-08 -1.61326e-09)
(-5.39383e-08 1.32712e-07 3.99292e-08)
(1.40392e-08 6.80827e-09 6.81788e-11)
(1.44516e-08 5.69826e-09 6.22751e-11)
(-5.31025e-08 1.06244e-07 5.17246e-08)
(-1.26664e-09 6.70729e-09 3.5732e-09)
(-4.73359e-08 9.81372e-08 4.68203e-08)
(1.43934e-08 5.72867e-09 6.83394e-11)
(6.09099e-05 -1.01168e-05 -1.25717e-05)
(6.79693e-05 -1.12862e-05 -1.77769e-05)
(6.26297e-05 -1.16516e-05 -1.7638e-05)
(6.9159e-05 -9.50914e-06 -1.25801e-05)
(5.82723e-05 -8.43723e-06 -1.03915e-05)
(4.97264e-05 -5.51284e-06 -4.72944e-06)
(5.05895e-05 -6.73219e-06 -1.03625e-05)
(5.74131e-05 -7.51074e-06 -4.39018e-06)
(5.83015e-05 -9.80057e-06 -1.25486e-05)
(5.22581e-05 -9.28003e-06 -1.70811e-05)
(5.06857e-05 -7.98867e-06 -1.23905e-05)
(5.74041e-05 -1.09387e-05 -1.73988e-05)
(6.09083e-05 -8.90628e-06 -1.03794e-05)
(6.80551e-05 -9.8344e-06 -3.97784e-06)
(6.00295e-05 -8.0638e-06 -4.27039e-06)
(6.91731e-05 -8.07925e-06 -1.02741e-05)
(-5.91923e-10 3.0449e-09 5.81359e-09)
(4.51519e-10 -1.3122e-10 2.0601e-09)
(6.31162e-10 1.23645e-09 5.05164e-09)
(1.44976e-10 2.09129e-10 2.57891e-09)
(-3.66295e-09 7.53938e-09 6.25153e-09)
(-2.64252e-07 2.10056e-07 3.4946e-08)
(2.38337e-09 1.11833e-09 -1.23336e-10)
(-4.40908e-08 3.91406e-08 1.00353e-08)
(-3.18208e-08 3.08823e-08 9.73632e-09)
(-1.64421e-09 4.75222e-09 5.99872e-09)
(-1.37519e-09 4.25088e-09 5.45259e-09)
(2.09326e-10 1.7852e-09 5.19592e-09)
(-1.21406e-08 1.49958e-08 7.22748e-09)
(1.64023e-09 3.85107e-09 2.30939e-09)
(1.43109e-09 1.04188e-09 2.51786e-09)
(1.1312e-09 1.91364e-09 3.53271e-09)
(2.52372e-09 8.04089e-10 1.62239e-09)
(-4.94642e-09 9.83153e-09 3.4962e-09)
(-5.47729e-08 5.57467e-08 1.22469e-08)
(-1.65054e-09 2.18736e-09 3.15543e-10)
(-1.19464e-08 1.67403e-08 4.70873e-09)
(-2.29513e-08 2.6799e-08 7.16484e-09)
(-7.94538e-10 6.50124e-09 3.08423e-09)
(-1.13288e-09 4.52702e-09 5.05584e-09)
(-1.22605e-10 2.17344e-09 6.77539e-11)
(8.12141e-10 2.33153e-09 3.87563e-09)
(-1.62385e-08 2.04685e-08 6.92457e-09)
(-1.92102e-07 1.64602e-07 3.3079e-08)
(-3.12857e-07 2.69287e-07 1.2621e-08)
(-2.53671e-07 2.20654e-07 3.18894e-08)
(2.52455e-09 7.94055e-10 -5.02267e-11)
(-4.93351e-08 4.57686e-08 1.21822e-08)
(-4.83173e-07 4.18221e-07 5.46501e-08)
(-2.93775e-08 2.72022e-08 7.85622e-10)
(-1.1332e-07 9.81451e-08 2.21188e-08)
(-2.39173e-09 6.09502e-09 5.5453e-09)
(-2.40157e-10 2.75908e-09 7.26081e-11)
(-2.00231e-08 2.21186e-08 8.30286e-09)
(-2.71996e-08 3.0819e-08 9.13602e-09)
(2.10908e-09 2.91099e-09 -3.71564e-10)
(1.40631e-08 5.3335e-09 -8.06892e-12)
(-2.03327e-08 3.8909e-08 1.52696e-08)
(1.03884e-09 1.83468e-09 8.72867e-10)
(1.41869e-08 5.35192e-09 5.45883e-11)
(-1.63245e-08 3.12277e-08 1.15762e-08)
(1.3734e-08 6.3372e-09 1.98603e-11)
(2.07698e-08 4.90913e-09 -6.16466e-10)
(-2.82413e-09 4.2879e-08 1.18291e-08)
(1.38595e-08 6.36637e-09 6.77437e-11)
(5.71628e-09 2.95681e-08 8.09969e-09)
(1.36987e-08 6.34059e-09 8.27995e-12)
(1.11268e-08 1.54435e-08 3.19475e-09)
(1.89096e-08 5.39562e-09 -2.47373e-10)
(1.31282e-08 6.47914e-09 -1.11048e-10)
(6.13152e-09 2.59579e-08 7.02936e-09)
(1.40302e-08 5.339e-09 -2.11197e-11)
(-4.34943e-09 1.72098e-08 5.38805e-09)
(1.44099e-09 1.44405e-09 6.69811e-10)
(1.35152e-08 5.49891e-09 -1.59826e-10)
(-1.36082e-08 2.72291e-08 9.85563e-09)
(-5.82656e-09 3.50665e-08 5.60423e-09)
(1.065e-08 5.61439e-10 -1.85355e-09)
(-1.49375e-08 3.655e-08 6.84718e-09)
(1.55621e-08 -1.3276e-10 -2.55042e-09)
(-3.76802e-08 6.59918e-08 1.08772e-08)
(-2.60194e-07 2.92437e-07 4.60582e-08)
(-6.73774e-08 4.64913e-08 4.31771e-09)
(-4.42371e-08 7.55683e-08 1.18151e-08)
(-2.40728e-07 2.64685e-07 4.263e-08)
(-3.98838e-08 6.00165e-08 1.10422e-08)
(-1.9498e-07 2.04175e-07 3.54358e-08)
(-6.31826e-08 4.34178e-08 3.9847e-09)
(-3.78508e-08 5.50748e-08 1.00467e-08)
(-2.22327e-07 2.34187e-07 3.90443e-08)
(1.3004e-07 8.17249e-08 -2.578e-08)
(9.00391e-08 -7.61916e-10 -7.99875e-09)
(6.87338e-08 7.39143e-08 -6.801e-09)
(1.20457e-07 2.40283e-08 -8.29403e-09)
(6.35548e-08 1.47784e-07 -3.53948e-08)
(-2.00878e-08 5.4586e-07 -1.00198e-07)
(-9.23058e-08 9.2005e-08 8.90052e-09)
(9.51036e-08 1.81613e-07 -6.26486e-08)
(-1.20359e-07 5.0244e-07 -3.88706e-08)
(2.13342e-08 1.18334e-07 -1.21663e-08)
(-2.3567e-07 4.3557e-07 2.53464e-08)
(-9.66731e-08 9.11976e-08 9.13349e-09)
(4.6583e-10 1.14208e-07 -3.1239e-09)
(-1.98349e-07 4.50332e-07 3.0774e-09)
(1.65499e-06 6.80533e-06 -3.36604e-06)
(4.2172e-06 6.29354e-06 -5.29425e-06)
(2.64045e-06 4.64179e-06 -3.74471e-06)
(3.06268e-06 7.68413e-06 -4.732e-06)
(5.75572e-07 4.65078e-06 -1.90976e-06)