/*--------------------------------*- C++ -*----------------------------------*\
| =========                 |                                                 |
| \\      /  F ield         | OpenFOAM: The Open Source CFD Toolbox           |
|  \\    /   O peration     | Version:  2012                                  |
|   \\  /    A nd           | Website:  www.openfoam.com                      |
|    \\/     M anipulation  |                                                 |
\*---------------------------------------------------------------------------*/
FoamFile
{
    version     2.0;
    format      ascii;
    class       surfaceScalarField;
    location    "0.104/fluid";
    object      meshPhi;
}
// * * * * * * * * * * * * * * * * * * * * * * * * * * * * * * * * * * * * * //

dimensions      [0 3 -1 0 0 0 0];
oriented        oriented;


internalField   nonuniform List<scalar> 
47532
(
2.0524e-07
1.0957e-07
1.00881e-08
-2.94488e-07
5.7684e-07
3.30997e-07
1.78147e-08
-6.62889e-07
8.72982e-07
-9.24159e-07
5.79967e-07
1.97072e-08
1.0246e-06
-1.04222e-06
7.75831e-07
1.81802e-08
1.05232e-06
-1.04227e-06
8.80533e-07
1.55253e-08
9.82971e-07
-9.56816e-07
8.81033e-07
1.23877e-08
8.67604e-07
-8.35676e-07
8.1891e-07
9.48811e-09
7.38124e-07
-7.05846e-07
7.24166e-07
6.98302e-09
6.11796e-07
-5.81452e-07
6.17253e-07
4.95311e-09
4.93172e-07
-4.64401e-07
5.07153e-07
3.41971e-09
3.78342e-07
-3.49243e-07
3.92068e-07
2.29563e-09
2.59339e-07
-2.28412e-07
2.70975e-07
1.41362e-09
1.32227e-07
-9.90567e-08
1.34634e-07
6.24851e-10
-8.25508e-08
4.91866e-07
-9.71963e-07
1.34346e-07
5.92865e-08
3.04725e-06
-5.62959e-07
1.62981e-07
7.53296e-07
-3.83313e-06
-1.38346e-06
6.08628e-06
2.01783e-07
-6.74324e-06
1.75979e-06
-2.29985e-06
8.30653e-06
-8.67821e-06
2.86449e-06
1.91851e-07
-3.01969e-06
9.36161e-06
-9.45686e-06
3.72782e-06
1.6409e-07
-3.38748e-06
9.42245e-06
-9.3226e-06
4.16397e-06
1.33649e-07
-3.41873e-06
8.83227e-06
-8.61695e-06
4.21239e-06
1.07547e-07
-3.2082e-06
7.86421e-06
-7.58926e-06
3.96466e-06
8.40237e-08
-2.85177e-06
6.73205e-06
-6.44306e-06
3.53088e-06
6.25211e-08
-2.43668e-06
5.58986e-06
-5.31261e-06
3.0202e-06
4.45944e-08
-2.006e-06
4.50202e-06
-4.23695e-06
2.48744e-06
3.0867e-08
-1.55571e-06
3.4475e-06
-3.18183e-06
1.93141e-06
2.06555e-08
-1.07199e-06
2.35844e-06
-2.07319e-06
1.32949e-06
1.27012e-08
-5.29769e-07
1.19189e-06
-8.93021e-07
6.56339e-07
5.80143e-09
1.94002e-06
-2.50799e-07
2.92598e-07
3.74674e-07
-3.41917e-06
8.55958e-06
-1.33171e-06
1.51445e-06
6.21106e-07
-1.0177e-05
-2.92331e-06
1.41778e-05
-1.51918e-05
3.29877e-06
5.48256e-07
-4.53987e-06
1.73247e-05
-1.77672e-05
5.07591e-06
4.21402e-07
-5.76575e-06
1.8434e-05
-1.84658e-05
6.39812e-06
3.20347e-07
-6.37581e-06
1.81072e-05
-1.78614e-05
7.04999e-06
2.4898e-07
-6.42341e-06
1.68426e-05
-1.64247e-05
7.08086e-06
1.97947e-07
-6.04429e-06
1.50118e-05
-1.45003e-05
6.64891e-06
1.55001e-07
-5.39888e-06
1.28952e-05
-1.23476e-05
5.94001e-06
1.16668e-07
-4.63794e-06
1.0725e-05
-1.01954e-05
5.11492e-06
8.41163e-08
-3.82364e-06
8.63808e-06
-8.12288e-06
4.22055e-06
5.82075e-08
-2.95486e-06
6.56916e-06
-6.04341e-06
3.25064e-06
3.82406e-08
-2.0233e-06
4.43333e-06
-3.88512e-06
2.21816e-06
2.32457e-08
-1.00134e-06
2.21844e-06
-1.66143e-06
1.09713e-06
1.08472e-08
4.25165e-06
-5.13827e-07
1.85424e-06
-6.67787e-06
1.42917e-05
-2.12395e-06
1.38152e-06
-1.65539e-05
-4.35264e-06
2.19423e-05
-2.32534e-05
9.36863e-07
-6.44639e-06
2.5908e-05
-2.64235e-05
6.44866e-07
-7.95756e-06
2.71157e-05
-2.71017e-05
4.64836e-07
-8.71017e-06
2.6476e-05
-2.60927e-05
3.59472e-07
-8.67897e-06
2.45359e-05
-2.39031e-05
2.84041e-07
-8.06481e-06
2.18011e-05
-2.10574e-05
2.15596e-07
-7.19415e-06
1.87112e-05
-1.79023e-05
1.61863e-07
-6.27522e-06
1.55853e-05
-1.48305e-05
1.20112e-07
-5.20276e-06
1.26e-05
-1.1849e-05
8.44061e-08
-3.94806e-06
9.47239e-06
-8.67013e-06
5.32081e-08
-2.64816e-06
6.30326e-06
-5.5135e-06
3.09558e-08
-1.29516e-06
3.13963e-06
-2.3463e-06
1.3985e-08
-1.75074e-08
1.13333e-07
-1.868e-07
4.50539e-08
2.42495e-08
4.39266e-07
-5.35792e-08
1.82919e-07
7.25078e-08
-5.24698e-07
-7.57657e-08
7.6632e-07
3.89635e-07
-8.35659e-07
9.69803e-08
-7.84298e-08
9.949e-07
-1.03081e-06
6.16371e-07
9.77002e-08
-7.00484e-08
1.09213e-06
-1.09887e-06
7.98478e-07
8.60387e-08
-5.85309e-08
1.08331e-06
-1.0666e-06
8.96219e-07
7.13347e-08
-4.69272e-08
9.92384e-07
-9.6241e-07
8.94403e-07
5.72727e-08
-3.63779e-08
8.64689e-07
-8.30695e-07
8.29363e-07
4.45327e-08
-2.70668e-08
7.28333e-07
-6.94868e-07
7.32032e-07
3.32557e-08
-1.93526e-08
5.98084e-07
-5.67071e-07
6.21273e-07
2.38447e-08
-1.34132e-08
4.7712e-07
-4.4825e-07
5.07915e-07
1.65341e-08
-9.05011e-09
3.64318e-07
-3.36551e-07
3.94098e-07
1.11556e-08
-5.6705e-09
2.52226e-07
-2.23119e-07
2.75612e-07
7.04962e-09
-2.59465e-09
1.31128e-07
-9.86987e-08
1.39873e-07
3.29959e-09
-8.85525e-08
-8.99894e-08
-1.71127e-06
1.71054e-07
1.3283e-07
-4.32001e-07
-3.21626e-07
2.88303e-06
-3.48724e-06
4.8017e-07
6.03542e-07
-7.58143e-07
-8.50431e-07
5.55198e-06
1.12889e-06
1.00055e-06
-6.22588e-06
-8.41644e-07
-1.60667e-06
7.97868e-06
-8.44641e-06
2.03662e-06
1.06903e-06
-7.6383e-07
-2.43663e-06
9.47429e-06
-9.68971e-06
3.02555e-06
9.50994e-07
-6.38026e-07
-3.09267e-06
9.99138e-06
-9.98596e-06
3.80573e-06
7.86261e-07
-5.14892e-07
-3.43513e-06
9.71595e-06
-9.55387e-06
4.21043e-06
6.32331e-07
-4.12031e-07
-3.45661e-06
8.91827e-06
-8.66684e-06
4.24711e-06
5.04931e-07
-3.22793e-07
-3.23778e-06
7.8375e-06
-7.54463e-06
3.99223e-06
3.95515e-07
-2.42274e-07
-2.87244e-06
6.64588e-06
-6.34653e-06
3.54962e-06
2.97656e-07
-1.74201e-07
-2.44528e-06
5.46964e-06
-5.18758e-06
3.0269e-06
2.14667e-07
-1.21257e-07
-2.00325e-06
4.36846e-06
-4.10476e-06
2.48256e-06
1.4955e-07
-8.22316e-08
-1.55798e-06
3.33187e-06
-3.07488e-06
1.93263e-06
1.01555e-07
-5.17539e-08
-1.08762e-06
2.29152e-06
-2.02207e-06
1.34653e-06
6.43355e-08
-2.41592e-08
-5.51231e-07
1.18121e-06
-8.88766e-07
6.82174e-07
3.04157e-08
-7.46466e-07
-4.97838e-07
-1.02741e-05
6.2246e-07
1.18084e-06
1.2179e-05
-2.61316e-06
-1.11815e-06
1.37936e-06
3.70172e-06
-1.31147e-05
-2.80151e-06
-2.08577e-06
1.5942e-05
2.40349e-06
-1.67507e-05
3.63607e-06
-2.24569e-06
-3.37244e-06
1.85987e-05
-1.90119e-05
3.79834e-06
2.82233e-06
-1.67145e-06
-4.73805e-06
1.97211e-05
-1.97955e-05
5.27641e-06
2.07453e-06
-1.24899e-06
-5.82402e-06
1.96092e-05
-1.94237e-05
6.43772e-06
1.53993e-06
-9.60748e-07
-6.37079e-06
1.85744e-05
-1.82076e-05
7.01421e-06
1.17984e-06
-7.59466e-07
-6.41356e-06
1.69327e-05
-1.64594e-05
7.04546e-06
9.3036e-07
-5.96519e-07
-6.0489e-06
1.49373e-05
-1.44015e-05
6.64131e-06
7.31203e-07
-4.52182e-07
-5.40598e-06
1.27451e-05
-1.21848e-05
5.94309e-06
5.55633e-07
-3.28016e-07
-4.63429e-06
1.0524e-05
-9.9825e-06
5.10469e-06
4.04015e-07
-2.2802e-07
-3.80901e-06
8.40006e-06
-7.88484e-06
4.19554e-06
2.81277e-07
-1.51823e-07
-2.9482e-06
6.35465e-06
-5.83198e-06
3.23464e-06
1.87759e-07
-9.40358e-08
-2.03793e-06
4.28684e-06
-3.77491e-06
2.2314e-06
1.16558e-07
-4.44938e-08
-1.03338e-06
2.17966e-06
-1.63462e-06
1.12774e-06
5.5411e-08
-5.60948e-07
-1.62831e-07
-3.9595e-06
1.49338e-07
6.2258e-07
1.99104e-05
-8.07278e-06
-1.99219e-06
2.0908e-06
9.80351e-06
-2.1034e-05
2.45494e-05
-5.48854e-06
-3.17354e-06
6.72271e-06
-2.55437e-05
-3.64939e-06
-4.8951e-06
2.77303e-05
-2.81865e-05
4.46794e-06
-2.49528e-06
-6.62809e-06
2.88492e-05
-2.88582e-05
3.05361e-06
-1.7919e-06
-7.92575e-06
2.83798e-05
-2.80692e-05
2.18974e-06
-1.36433e-06
-8.55269e-06
2.67883e-05
-2.62553e-05
1.65892e-06
-1.07106e-06
-8.54521e-06
2.44282e-05
-2.37511e-05
1.3036e-06
-8.31443e-07
-8.02279e-06
2.15945e-05
-2.08411e-05
1.02032e-06
-6.33011e-07
-7.20296e-06
1.85245e-05
-1.77345e-05
7.79944e-07
-4.65749e-07
-6.23493e-06
1.53673e-05
-1.4579e-05
5.72649e-07
-3.23396e-07
-5.11087e-06
1.22218e-05
-1.14361e-05
3.96361e-07
-2.08012e-07
-3.88916e-06
9.09825e-06
-8.32795e-06
2.56377e-07
-1.23659e-07
-2.64406e-06
6.05289e-06
-5.29794e-06
1.53331e-07
-5.63276e-08
-1.31336e-06
3.02586e-06
-2.26177e-06
6.9976e-08
2.41845e-07
-4.14349e-08
7.66107e-08
4.5422e-08
-3.83766e-07
7.95492e-07
-1.24309e-07
2.60662e-07
1.36425e-07
-9.05185e-07
-1.59298e-07
1.12995e-06
-1.17407e-06
4.66764e-07
1.75633e-07
-1.51515e-07
1.23849e-06
-1.2429e-06
6.66411e-07
1.66566e-07
-1.28904e-07
1.22023e-06
-1.20324e-06
8.33509e-07
1.40715e-07
-1.05009e-07
1.1313e-06
-1.10146e-06
9.33449e-07
1.14151e-07
-8.40384e-08
1.00052e-06
-9.64213e-07
9.31561e-07
9.11665e-08
-6.5673e-08
8.52065e-07
-8.14676e-07
8.57476e-07
7.13371e-08
-4.95165e-08
7.05068e-07
-6.6974e-07
7.54858e-07
5.39734e-08
-3.57819e-08
5.67141e-07
-5.34057e-07
6.36242e-07
3.9109e-08
-2.4679e-08
4.38986e-07
-4.08989e-07
5.10867e-07
2.68885e-08
-1.65029e-08
3.257e-07
-3.00096e-07
3.92645e-07
1.79102e-08
-1.0621e-08
2.26222e-07
-2.01163e-07
2.76483e-07
1.15907e-08
-5.24809e-09
1.20782e-07
-9.15146e-08
1.44325e-07
5.79236e-09
-2.3128e-07
-2.4738e-07
-4.82978e-06
2.74556e-07
4.91904e-07
-6.17019e-07
6.91119e-06
-1.03907e-06
1.13498e-06
-7.83999e-06
9.89333e-07
-1.67328e-06
-1.25086e-06
1.02618e-05
1.82913e-06
-1.08298e-05
1.70465e-06
-1.72316e-06
-1.94306e-06
1.17951e-05
-1.19142e-05
2.48106e-06
1.8916e-06
-1.47161e-06
-2.62699e-06
1.18629e-05
-1.17464e-05
3.26463e-06
1.61555e-06
-1.18401e-06
-3.17958e-06
1.12249e-05
-1.10046e-05
3.90053e-06
1.29319e-06
-9.40767e-07
-3.49024e-06
1.02374e-05
-9.9502e-06
4.25674e-06
1.02396e-06
-7.4642e-07
-3.5318e-06
9.02974e-06
-8.70927e-06
4.30778e-06
8.10706e-07
-5.84242e-07
-3.30829e-06
7.73301e-06
-7.4068e-06
4.05431e-06
6.34713e-07
-4.43127e-07
-2.93476e-06
6.43963e-06
-6.12426e-06
3.60911e-06
4.82917e-07
-3.22183e-07
-2.4867e-06
5.20052e-06
-4.90082e-06
3.06787e-06
3.52073e-07
-2.23112e-07
-2.00105e-06
4.03164e-06
-3.75655e-06
2.47668e-06
2.42753e-07
-1.49138e-07
-1.53306e-06
2.98063e-06
-2.74052e-06
1.89874e-06
1.61014e-07
-9.52623e-08
-1.0829e-06
2.04938e-06
-1.81734e-06
1.33957e-06
1.03236e-07
-4.66872e-08
-5.68003e-07
1.08186e-06
-8.1975e-07
7.00241e-07
5.09295e-08
-2.16709e-06
-1.96847e-06
-3.44764e-05
2.39269e-06
2.34534e-06
3.35607e-05
-6.23263e-06
-2.87921e-06
3.49079e-06
6.68748e-06
-3.29769e-05
-5.73757e-06
-3.44849e-06
3.0648e-05
-2.97989e-05
3.96692e-06
6.17805e-06
-4.32469e-06
-4.18698e-06
2.7354e-05
-2.65923e-05
4.67435e-06
4.67835e-06
-3.14005e-06
-5.09362e-06
2.44711e-05
-2.38038e-05
5.6086e-06
3.411e-06
-2.31094e-06
-5.8775e-06
2.18799e-05
-2.12542e-05
6.42696e-06
2.51446e-06
-1.75693e-06
-6.31324e-06
1.94154e-05
-1.88118e-05
6.88108e-06
1.91184e-06
-1.37719e-06
-6.36543e-06
1.70333e-05
-1.64453e-05
6.93913e-06
1.49768e-06
-1.08233e-06
-6.03139e-06
1.46824e-05
-1.40913e-05
6.58478e-06
1.17709e-06
-8.27103e-07
-5.41165e-06
1.23216e-05
-1.17365e-05
5.91913e-06
9.01156e-07
-6.05636e-07
-4.64552e-06
1.00236e-05
-9.46932e-06
5.09114e-06
6.61768e-07
-4.22966e-07
-3.80644e-06
7.85483e-06
-7.33134e-06
4.18194e-06
4.62608e-07
-2.81241e-07
-2.93536e-06
5.81532e-06
-5.31778e-06
3.22689e-06
3.06642e-07
-1.73741e-07
-2.04952e-06
3.88946e-06
-3.4211e-06
2.24993e-06
1.89422e-07
-8.26083e-08
-1.05658e-06
1.97662e-06
-1.48217e-06
1.15368e-06
8.94532e-08
-9.16825e-07
-6.00718e-07
-1.18644e-05
5.6993e-07
9.48061e-07
4.9186e-05
-1.34131e-05
-4.67418e-06
4.93605e-06
1.41238e-05
-4.82793e-05
4.43596e-05
-9.5422e-06
-5.04896e-06
5.30268e-06
1.01283e-05
-4.29137e-05
-6.43455e-06
-5.8129e-06
3.88257e-05
-3.75935e-05
6.11601e-06
6.88126e-06
-4.42734e-06
-6.83029e-06
3.42958e-05
-3.33005e-05
4.75999e-06
-3.18134e-06
-7.67273e-06
3.05123e-05
-2.96252e-05
3.43249e-06
-2.40011e-06
-8.12268e-06
2.70905e-05
-2.62923e-05
2.5972e-06
-1.89754e-06
-8.21294e-06
2.40066e-05
-2.32522e-05
2.05723e-06
-1.50805e-06
-7.82027e-06
2.09491e-05
-2.01605e-05
1.63756e-06
-1.16234e-06
-7.06276e-06
1.77592e-05
-1.69464e-05
1.26395e-06
-8.52663e-07
-6.09011e-06
1.45029e-05
-1.36919e-05
9.2808e-07
-5.90562e-07
-4.98894e-06
1.1309e-05
-1.05355e-05
6.44303e-07
-3.86275e-07
-3.83118e-06
8.29815e-06
-7.5797e-06
4.22882e-07
-2.33351e-07
-2.65353e-06
5.48135e-06
-4.78856e-06
2.55784e-07
-1.06862e-07
-1.34142e-06
2.71943e-06
-2.03061e-06
1.17085e-07
-5.72943e-08
8.68027e-09
-5.26968e-09
3.17991e-08
1.88722e-09
-8.03664e-08
8.92811e-09
-5.44727e-09
1.74544e-08
9.97069e-09
3.37853e-09
1.24475e-08
2.72983e-09
5.51218e-08
3.66725e-08
-2.04348e-08
-4.55314e-07
-4.48534e-09
-4.57232e-09
-3.46895e-09
-5.81468e-09
-1.16984e-06
1.68528e-07
1.77638e-07
-1.08827e-07
-9.68305e-08
8.45736e-07
1.26434e-07
6.98754e-08
7.5398e-09
-4.05328e-08
-5.51921e-07
2.99021e-08
3.38177e-08
6.72498e-08
4.13702e-08
4.04859e-07
-2.0543e-06
-2.69378e-07
1.47828e-06
8.82002e-08
-1.09472e-08
-1.35714e-07
3.46902e-08
4.53392e-08
-3.54258e-07
-2.98946e-08
2.74402e-07
1.18938e-07
2.40612e-07
2.45838e-07
-1.54611e-07
-1.48784e-07
-1.57813e-06
5.89713e-07
4.4926e-07
-3.15958e-06
-3.07909e-07
-4.06604e-07
2.59376e-06
6.08771e-08
3.3458e-08
-4.99527e-09
-1.00495e-08
-6.21066e-09
2.84496e-08
3.85151e-08
5.40827e-08
4.0493e-08
1.08754e-07
-1.52594e-06
-9.49952e-08
1.53816e-07
1.368e-07
1.17478e-07
1.57366e-07
1.0256e-07
-4.70411e-08
-1.00757e-06
9.69308e-08
-1.9753e-06
3.33565e-07
-2.02193e-07
1.53563e-06
2.56212e-07
2.38211e-07
4.68742e-07
-2.32527e-07
-1.86388e-07
-3.95017e-06
5.80769e-07
-6.00881e-06
1.49376e-06
-8.85067e-07
-4.58167e-07
5.08054e-06
1.27742e-07
2.41371e-07
2.02603e-07
1.32535e-07
1.77918e-07
1.50265e-07
2.63296e-07
-3.62641e-06
-2.06948e-07
1.10428e-06
3.17474e-07
4.38932e-07
3.80128e-07
2.76568e-07
-3.77004e-07
-5.49543e-06
3.03454e-07
2.31664e-06
-7.88775e-06
-1.3828e-06
6.82053e-06
7.34606e-07
1.32232e-07
2.52749e-06
-1.75963e-06
-4.78603e-07
-1.10359e-05
1.02178e-07
1.80472e-07
1.39757e-07
1.25892e-06
6.9071e-06
-1.35635e-05
-4.93427e-06
-1.11803e-06
1.24439e-05
1.82384e-06
5.71585e-07
3.65985e-07
5.05676e-07
4.22667e-07
-4.97811e-07
-3.18754e-06
1.23066e-07
8.60996e-06
-1.4259e-05
-6.51529e-06
1.29916e-05
2.30821e-08
1.24917e-08
1.7369e-08
4.01603e-09
1.47796e-08
4.69569e-09
-7.41345e-07
5.36241e-08
-8.46805e-09
-5.61262e-09
-7.1086e-09
-6.739e-09
-1.68518e-06
2.36228e-07
-1.32599e-07
1.27251e-06
2.48752e-07
2.15404e-08
-2.11597e-07
-1.8942e-08
3.70471e-08
2.99045e-08
8.76745e-09
3.24241e-08
8.1034e-09
9.83744e-08
1.96918e-07
-8.51438e-08
-1.68306e-06
-1.49532e-08
-1.32139e-08
-1.2126e-08
-1.6196e-08
4.29392e-07
-3.34815e-06
4.28604e-07
-3.77769e-07
-2.27945e-07
2.65122e-06
-1.7868e-06
1.89309e-05
1.86407e-06
1.03925e-05
-5.17639e-07
-8.87548e-07
-1.0742e-05
4.87342e-07
1.40471e-05
-3.72736e-06
-4.11493e-05
-1.30896e-05
4.13004e-05
3.92423e-06
4.08663e-08
2.36294e-08
3.70105e-08
9.38598e-09
3.4669e-08
1.00006e-08
-1.98191e-06
1.09428e-07
-1.8576e-08
-1.41975e-08
-1.7383e-08
-1.52467e-08
-3.87295e-06
4.8569e-07
-2.55438e-07
3.08707e-06
4.702e-07
-4.52258e-06
4.98429e-05
4.77916e-06
1.47658e-05
-4.28366e-09
7.13219e-10
4.28131e-10
2.16957e-09
-1.70892e-10
-2.84697e-10
2.36758e-11
1.07978e-11
-1.44914e-10
-6.50028e-12
-4.27372e-12
-1.20027e-11
1.17715e-12
1.78273e-12
-7.29662e-13
3.51033e-12
-1.09921e-08
-2.45262e-08
6.2469e-08
-3.13282e-07
2.93426e-08
1.99824e-08
5.02581e-08
3.53202e-08
3.05106e-08
-4.93373e-09
1.50943e-09
9.90731e-11
9.60708e-10
2.63811e-10
8.75406e-10
2.92582e-10
8.42289e-10
1.42636e-09
2.62442e-10
-8.63104e-09
-1.67298e-10
-4.03623e-11
-5.05695e-11
-1.4722e-10
3.09748e-10
9.02448e-10
3.94553e-10
2.32575e-09
4.18813e-10
-2.42807e-10
1.05572e-09
-3.48675e-09
2.43654e-08
5.79597e-09
4.0092e-09
-3.30528e-08
-2.18409e-09
-3.65975e-09
4.69431e-08
1.30261e-08
2.09999e-08
2.57055e-08
9.69746e-09
-2.30177e-07
-2.60421e-09
-3.83363e-09
-4.47048e-09
-2.0818e-09
-8.68661e-08
-7.52629e-10
-2.66893e-10
-1.02391e-09
-1.9781e-10
8.46722e-09
1.06665e-08
5.08521e-09
1.71172e-08
3.08077e-09
-2.01441e-08
2.51293e-08
-3.48225e-07
-1.1152e-09
-3.23278e-09
-2.43313e-09
-1.46016e-09
6.03079e-08
1.96651e-08
6.7765e-08
2.41614e-08
5.41986e-08
-3.72026e-11
-4.28748e-10
1.86102e-11
4.07743e-11
2.11927e-11
4.20018e-12
1.88871e-11
4.71455e-12
-1.91982e-09
2.0646e-09
-9.69922e-10
-2.49735e-08
2.20569e-09
-1.32994e-08
-2.15105e-07
-8.42711e-10
-1.29529e-09
-5.9802e-10
-1.87129e-09
3.37181e-08
1.5435e-08
3.16438e-08
1.15995e-08
4.27263e-08
2.71269e-09
4.99441e-09
-5.32086e-08
-2.22893e-09
-2.59049e-09
7.85573e-11
-1.09817e-09
5.14865e-11
-6.8628e-11
4.78046e-11
1.1196e-11
5.002e-11
1.07369e-11
-4.02664e-08
6.08335e-08
-1.26973e-06
-8.87902e-09
-2.51416e-08
-1.79773e-08
-1.25169e-08
4.74211e-07
7.64479e-08
2.63408e-07
9.14415e-08
2.19821e-07
-8.10507e-11
-2.11176e-09
1.40853e-10
7.25894e-11
9.82592e-11
2.13886e-11
9.44469e-11
2.2296e-11
3.38267e-10
1.55744e-08
-6.77005e-09
-1.23988e-07
-1.1877e-09
-3.22097e-08
-9.44574e-07
-6.67306e-09
-1.05176e-08
-5.00605e-09
-1.40387e-08
2.71221e-07
6.44827e-08
1.58396e-07
5.50214e-08
1.87649e-07
1.57673e-09
3.60983e-08
-2.10673e-07
-1.5911e-08
3.96313e-10
9.94821e-11
-3.29818e-09
3.46854e-10
-7.56658e-11
1.46525e-10
3.52948e-11
1.5221e-10
3.40019e-11
-3.15324e-10
-6.98193e-09
2.11113e-09
3.2422e-10
3.48942e-10
8.52271e-11
3.25793e-10
9.26456e-11
-2.45002e-08
2.39404e-07
-1.34791e-07
-6.7647e-07
3.57522e-08
-6.2083e-08
-8.90741e-07
8.01646e-07
7.53813e-08
-4.86836e-07
8.14523e-07
-1.63991e-06
1.18405e-05
1.51464e-06
-1.46632e-06
-6.09005e-06
-1.57643e-05
6.08424e-06
-2.38294e-06
-2.06841e-05
-4.60561e-06
1.90855e-05
3.22042e-09
-3.53416e-08
4.49697e-09
-2.6008e-09
1.75889e-08
-1.59247e-09
-4.37759e-12
-4.9465e-11
1.72733e-11
9.08327e-12
4.52139e-12
-3.986e-11
1.30596e-10
-4.81496e-11
-7.61215e-10
3.95809e-11
-1.78778e-09
-2.22911e-08
3.05406e-09
1.95116e-09
-1.1042e-09
1.09578e-08
7.10587e-11
2.11522e-10
-1.35897e-09
-6.05478e-11
-7.8432e-11
7.36409e-12
-8.1437e-11
1.38267e-11
-6.56496e-12
2.88585e-11
-9.34399e-07
1.13515e-05
1.17949e-06
3.38443e-06
2.20335e-07
1.96594e-07
2.64371e-07
-8.05045e-07
-1.74546e-05
3.14221e-06
-1.92767e-05
-1.63991e-06
1.85146e-05
8.58104e-06
-1.57503e-06
-1.922e-06
-2.86127e-05
1.89158e-06
5.80329e-06
-2.26614e-06
-2.83374e-05
-5.20847e-06
2.84832e-05
2.76921e-06
4.36577e-06
4.42711e-07
6.33612e-07
5.51175e-07
-4.03794e-06
-4.03155e-05
-2.11487e-06
1.19222e-05
-3.98575e-05
-1.10547e-05
4.02098e-05
-3.4653e-06
-1.76974e-06
-4.15161e-06
-3.17368e-07
4.07727e-06
3.43471e-07
1.95343e-06
7.69618e-07
-2.74728e-07
-7.26375e-07
-6.59697e-06
2.50387e-07
-6.76729e-06
2.41406e-06
-5.10567e-07
5.42539e-07
-2.27186e-06
6.69896e-06
-2.81479e-06
2.34299e-05
2.99895e-06
7.44802e-06
-3.91534e-06
-1.24635e-05
4.12218e-06
-4.08564e-05
1.05006e-05
-4.37075e-06
-3.90808e-05
-9.67578e-06
3.9785e-05
4.59076e-06
5.19801e-09
-6.7903e-08
7.65439e-09
-4.54077e-09
3.44169e-08
-2.65897e-09
-9.83473e-12
-1.22059e-10
4.37102e-11
1.8426e-11
9.48856e-12
-9.96919e-11
3.09386e-10
-1.14957e-10
-2.12885e-09
9.28171e-11
-4.40402e-09
-5.63863e-08
6.52656e-09
4.19276e-09
-2.2869e-09
2.84707e-08
1.24681e-10
3.87894e-10
-2.71224e-09
-1.0913e-10
-1.43532e-10
1.1579e-11
-1.49922e-10
2.14783e-11
-1.06545e-11
5.34914e-11
-2.70323e-06
3.39924e-05
3.31946e-06
6.2242e-06
7.2223e-07
6.95096e-07
8.22681e-07
-4.88851e-05
4.62093e-06
-2.75486e-06
-4.74431e-05
4.82644e-05
1.25694e-05
-4.18711e-06
-2.84071e-06
-1.19552e-05
-9.29554e-07
1.19272e-05
9.9946e-07
2.91022e-06
1.00842e-06
-9.05738e-07
-9.94441e-07
-1.5359e-05
8.71956e-07
-1.53964e-05
3.08463e-06
-1.27734e-06
1.36539e-06
-3.03122e-06
1.53925e-05
-4.9324e-06
4.5781e-05
5.17473e-06
1.1123e-05
1.14098e-09
7.07989e-10
-6.27943e-09
-3.34316e-10
-5.54021e-10
1.39445e-10
-5.46247e-11
1.34004e-11
3.26714e-10
2.90953e-10
-1.57985e-10
6.57646e-10
1.37389e-09
4.05714e-09
3.04579e-09
1.52454e-08
-1.58199e-09
-2.36445e-09
3.65035e-11
4.79093e-11
8.07909e-12
3.20792e-11
9.80164e-11
-1.23572e-11
-4.65872e-10
-7.9328e-09
8.6626e-10
4.81749e-09
1.15725e-09
-3.87031e-10
-3.35772e-10
1.45375e-11
-2.52305e-11
1.40746e-11
3.58711e-12
1.62953e-11
3.1074e-12
1.41704e-09
-6.56751e-10
-1.29703e-09
-1.76316e-08
2.03209e-10
-3.56506e-11
-1.40791e-11
-2.28544e-11
-2.71768e-09
-8.30234e-11
4.56276e-10
-1.04862e-07
1.54602e-08
-2.14287e-10
-8.61262e-10
-3.96489e-10
-4.07422e-10
-5.32894e-10
-2.02508e-09
-7.75441e-10
-1.45877e-09
5.05706e-09
2.24713e-08
8.08552e-09
1.41076e-08
1.34976e-09
-1.08187e-08
1.72119e-09
-6.51451e-10
-8.23185e-09
1.15731e-09
1.74545e-10
5.66424e-10
2.54004e-10
3.19096e-10
4.73593e-10
-1.47417e-10
-5.22521e-11
-6.49785e-11
9.86758e-10
6.03413e-10
2.34241e-10
4.25177e-10
-7.48986e-09
4.27236e-10
-4.69867e-11
-7.2984e-11
-1.39418e-10
-1.06691e-10
1.98175e-07
-3.90599e-07
5.87281e-08
-1.85407e-09
-4.74557e-09
-2.86702e-09
-3.32683e-09
5.11315e-08
-3.15327e-09
-8.79058e-09
-6.01533e-09
-5.56736e-09
-3.74163e-08
4.63104e-09
2.443e-08
-2.45792e-09
5.74514e-09
2.89897e-08
-1.17816e-09
-1.37778e-09
-6.66684e-10
-2.2562e-09
2.99746e-08
-1.94522e-09
-2.90139e-09
-1.19709e-09
-4.17753e-09
-7.26604e-09
1.1566e-09
3.54816e-09
6.57173e-10
-4.47481e-10
-4.48467e-11
1.55474e-11
8.30714e-12
-3.74959e-12
1.18724e-10
-4.32843e-11
-3.21321e-11
-6.80825e-10
3.34142e-11
-1.95489e-10
-8.50376e-12
1.23757e-11
-1.84132e-08
2.5975e-09
-1.28714e-09
-9.37956e-10
8.95162e-09
-1.60147e-11
2.64659e-12
4.94583e-12
1.5478e-12
2.84908e-08
-5.07487e-07
-2.38064e-09
-4.03037e-09
-1.85536e-09
-5.23066e-09
1.00129e-07
3.4471e-08
8.15941e-08
2.91202e-08
9.82024e-08
-1.9795e-09
1.24267e-10
-7.08228e-11
8.71532e-11
2.03959e-11
9.03116e-11
1.97293e-11
1.24467e-08
-5.34039e-09
-4.21009e-10
-1.06158e-07
6.27187e-09
-6.41342e-08
-2.80375e-09
2.21473e-09
-7.00991e-07
-3.01035e-09
-8.42639e-09
-3.90722e-09
-6.47126e-09
1.6321e-07
4.047e-08
1.3614e-07
4.71986e-08
1.15168e-07
-1.19471e-09
5.81575e-11
7.06329e-11
5.54383e-11
1.18641e-11
5.29191e-11
1.24375e-11
1.04949e-07
-1.73626e-06
-2.65626e-08
-3.35894e-08
-1.75241e-08
-5.03757e-08
8.95057e-07
1.36863e-07
3.13888e-07
1.10947e-07
3.8618e-07
-6.29308e-09
1.61071e-09
-2.4166e-10
2.8788e-10
7.81517e-11
3.04842e-10
7.3103e-11
1.57556e-07
-8.03679e-08
-1.35781e-08
-5.17902e-07
4.87634e-08
-2.54466e-07
-2.23472e-08
4.1246e-09
-2.30958e-06
-4.00204e-08
-1.18439e-07
-6.91824e-08
-7.13521e-08
1.79997e-06
1.72733e-07
5.89489e-07
2.29293e-07
4.73381e-07
2.85866e-08
5.11397e-08
2.10757e-08
-3.53463e-09
4.09295e-10
1.02123e-10
1.66724e-10
3.71889e-11
1.59521e-10
3.90294e-11
-8.73057e-09
1.29523e-08
8.00726e-09
1.50095e-08
-1.92608e-07
8.8838e-08
1.08313e-08
4.22697e-06
4.15886e-06
-4.53676e-07
-6.12026e-06
4.17947e-06
-2.75091e-07
6.45496e-08
9.0506e-08
4.94455e-08
1.04993e-07
-4.69161e-07
-2.61168e-07
-4.24842e-07
-3.2381e-07
9.82917e-07
4.57252e-07
5.55309e-07
-4.75891e-08
3.44164e-07
-1.21051e-06
5.65655e-08
-3.38889e-06
-2.65193e-07
3.30979e-06
-1.56775e-06
2.84743e-07
-1.42005e-06
-1.03856e-07
1.22457e-07
1.34745e-06
1.09164e-06
8.01131e-06
-7.99728e-07
-9.57318e-06
-6.60465e-06
8.65909e-06
2.64609e-07
3.0572e-07
2.46241e-07
3.30938e-07
-1.05857e-06
2.67127e-06
3.3688e-06
2.67338e-06
2.08381e-07
1.38129e-07
1.51212e-07
1.9098e-07
-6.18252e-07
1.4824e-06
2.0172e-06
2.04561e-06
-3.94767e-08
4.91219e-09
1.97436e-08
3.20459e-09
-1.73984e-09
-1.17594e-10
4.20792e-11
1.7955e-11
-8.96815e-12
2.99156e-10
-1.11078e-10
-8.6646e-11
-2.0473e-09
2.22277e-10
-1.44376e-09
-8.24e-11
6.74966e-11
-5.24847e-08
6.15244e-09
-3.73699e-09
-2.15235e-09
2.6393e-08
-8.62319e-11
1.44207e-11
3.06257e-11
7.27316e-12
1.03754e-05
4.68179e-07
3.67187e-07
4.3306e-07
3.94068e-07
-1.5514e-06
4.12733e-06
4.97547e-06
4.94629e-06
1.17008e-05
5.05381e-06
4.26655e-06
-2.00626e-05
2.57086e-05
2.47318e-06
1.18781e-05
-2.63652e-05
-2.36738e-06
1.1799e-05
5.38777e-07
5.76079e-07
5.01576e-07
6.21727e-07
-2.08847e-06
6.7524e-06
5.84196e-06
5.8225e-06
1.3279e-05
5.92718e-06
6.82307e-06
-2.6571e-05
-3.22003e-07
8.13469e-07
-7.57513e-06
2.96257e-07
-1.08579e-05
-8.37266e-07
1.08148e-05
-2.74515e-06
8.93308e-07
-7.7271e-06
-5.74716e-07
6.17667e-07
7.66921e-06
2.53381e-06
3.32078e-05
3.15634e-06
-3.00955e-06
-3.34914e-05
-1.29584e-05
1.38748e-05
8.87945e-07
9.347e-07
8.33525e-07
9.95515e-07
-3.38807e-06
9.77522e-06
1.09079e-05
9.81226e-06
-1.45705e-05
1.55911e-05
9.83801e-06
1.08938e-05
-4.16786e-05
7.95725e-07
6.54595e-07
7.01638e-07
7.41075e-07
-2.69301e-06
7.73032e-06
8.73871e-06
8.75178e-06
8.78124e-06
7.79738e-06
-3.38294e-05
-7.12866e-08
8.00189e-09
3.64402e-08
4.84175e-09
-2.79467e-09
4.0167e-10
-2.80605e-09
-1.48762e-10
1.15762e-10
-1.54695e-10
2.20284e-11
5.54115e-11
1.11351e-11
1.45669e-05
1.22071e-06
1.04138e-06
1.15604e-06
1.10052e-06
-4.18272e-06
1.20332e-05
1.30917e-05
1.31848e-05
1.63568e-05
1.31217e-05
1.20142e-05
-4.99594e-05
5.86631e-05
5.70242e-06
1.52568e-05
-5.7411e-05
-5.37583e-06
1.50466e-05
1.33646e-06
1.40039e-06
1.27507e-06
1.46551e-06
-5.05924e-06
1.55421e-05
1.42301e-05
1.4356e-05
1.68834e-05
1.42848e-05
1.54234e-05
-5.84865e-05
-1.01914e-06
1.02365e-06
-1.65488e-05
9.86055e-07
-1.655e-05
-1.39012e-06
1.49503e-06
1.65672e-05
3.10939e-06
6.75416e-05
6.65366e-06
-6.24866e-06
-6.55618e-05
1.71977e-06
1.52798e-06
1.58748e-06
1.6588e-06
-5.97748e-06
1.67371e-05
1.77196e-05
1.79371e-05
1.77528e-05
1.66085e-05
-6.70085e-05
-1.62412e-10
-5.09707e-10
1.35211e-09
-6.61352e-09
5.11123e-10
2.94362e-10
8.26321e-10
4.68819e-10
5.33832e-10
-5.43199e-12
2.42906e-12
1.5018e-12
3.53847e-13
1.27776e-13
4.70095e-14
2.82039e-15
-1.50246e-12
3.54398e-11
7.25177e-12
-3.28578e-12
1.80773e-11
-5.62186e-11
2.60274e-10
6.70733e-11
5.19396e-11
-4.45228e-10
-1.90963e-11
-4.92697e-11
9.16305e-10
-4.42809e-09
-4.0614e-11
-5.94577e-11
-7.84075e-11
-2.56831e-11
1.61716e-10
2.02761e-10
2.82127e-10
9.86533e-11
-1.77114e-09
-1.33294e-11
-3.26776e-12
-1.50231e-11
-3.68917e-12
1.47364e-10
1.61682e-10
9.17069e-11
3.13289e-10
4.26212e-11
-1.22382e-09
1.08792e-10
1.55913e-10
-9.35158e-11
8.6714e-10
-5.81993e-11
-3.92512e-11
4.44359e-11
-1.94779e-11
-3.99059e-10
4.03038e-11
-7.49505e-11
-8.22725e-10
9.93702e-11
7.9954e-11
-3.66141e-11
5.65829e-10
5.07857e-11
7.02388e-11
-6.07266e-10
-3.05269e-11
-4.53369e-11
2.28202e-06
1.41615e-07
5.54561e-07
-2.16172e-07
2.48041e-07
-2.72924e-06
9.97458e-07
-7.06297e-06
-8.5604e-07
5.5943e-06
4.43137e-07
-2.72184e-07
-2.5224e-06
3.52494e-07
-4.5762e-06
6.96816e-07
-4.82694e-07
3.85356e-06
7.94889e-07
7.57949e-07
1.74803e-06
-1.09773e-06
-6.09546e-07
-7.10335e-06
1.49286e-06
-1.0622e-05
2.12129e-06
-1.48688e-06
-1.254e-06
9.47273e-06
-4.682e-09
-1.83631e-10
1.12511e-09
1.77497e-10
3.20002e-09
-3.85968e-10
1.82303e-10
2.47747e-10
-9.63515e-11
-1.7197e-09
-1.98945e-10
6.53735e-11
-3.83211e-09
7.7734e-10
-9.54136e-11
-2.6386e-10
2.57506e-09
-2.48313e-10
3.73388e-10
-2.23031e-09
-1.40436e-10
2.25656e-10
6.84523e-06
1.13811e-06
6.02956e-07
-4.29417e-07
1.31445e-06
-5.87496e-06
-1.29793e-05
1.06826e-05
1.28685e-06
-1.46212e-06
-1.65083e-06
9.32427e-07
-9.12884e-06
-1.30018e-05
2.86933e-06
-2.01857e-06
1.17534e-05
1.73159e-06
6.75903e-06
-4.88488e-06
-1.32749e-06
-1.48914e-05
-1.92746e-05
5.44297e-06
-4.05133e-06
1.78346e-05
-2.1913e-06
-4.21916e-08
4.04479e-09
5.11022e-08
-2.59868e-09
3.59832e-08
-2.35558e-08
-3.88487e-10
5.45415e-09
-2.11386e-09
-1.20759e-08
6.13911e-10
-1.00582e-09
-2.03424e-08
1.65906e-08
1.26145e-09
-6.21201e-09
1.58424e-08
2.74493e-09
1.92837e-08
-2.97033e-08
-8.4892e-09
-1.662e-09
3.53417e-07
1.41652e-07
6.20729e-08
-1.9638e-07
-2.17258e-06
3.41431e-07
-3.84592e-06
6.92859e-07
-4.78568e-07
3.27519e-06
6.04589e-07
-3.64916e-08
6.98717e-08
-3.37574e-07
1.06352e-07
-7.12178e-07
-9.35746e-08
5.95432e-07
1.96854e-07
5.84744e-07
5.50019e-07
-5.15155e-07
-3.21349e-07
-4.10751e-06
1.02227e-06
-6.25733e-06
9.97293e-07
-9.01251e-07
-6.77458e-07
5.60131e-06
2.36691e-06
3.7158e-07
4.72196e-07
-3.755e-07
-7.39061e-06
7.58627e-07
-9.22722e-06
-7.1751e-07
8.41921e-06
2.21456e-06
-2.14026e-07
-4.07961e-06
4.13059e-07
8.20284e-07
-5.93839e-06
-7.21582e-07
5.14744e-06
7.24483e-07
1.49466e-06
-1.30473e-06
-2.1116e-05
-1.13463e-06
4.01628e-06
-2.17532e-05
-3.55831e-06
2.14884e-05
-1.67379e-06
6.69156e-07
2.11004e-07
1.16609e-07
-3.56767e-07
6.39757e-07
-4.71864e-06
-7.02705e-06
1.08343e-06
-7.31229e-07
6.33868e-06
1.11852e-06
6.03151e-06
8.96791e-07
8.32244e-07
-2.54503e-05
1.63181e-06
-1.39798e-06
-2.57565e-05
2.5643e-05
4.33815e-06
-1.97873e-06
4.69885e-11
1.23864e-11
9.08014e-12
-5.45106e-11
-1.00907e-12
-6.37344e-12
4.95708e-12
-1.7651e-12
1.06079e-11
1.77959e-11
3.68167e-11
4.10692e-11
1.31285e-10
-2.5855e-11
-2.07818e-12
-3.60348e-12
-2.66192e-12
-2.55954e-12
5.11036e-12
9.96062e-13
2.00729e-12
-6.62111e-14
-6.22795e-12
-2.78008e-11
-3.02727e-10
3.37464e-11
3.92655e-11
2.04187e-10
-1.01015e-11
3.66039e-11
-1.59259e-11
-3.34558e-10
-3.02663e-11
-6.5659e-10
7.83105e-11
-5.57858e-11
-2.95766e-11
4.69659e-10
-1.56769e-11
1.38048e-11
-1.5083e-10
-5.21694e-12
1.95609e-11
-8.33427e-08
9.28179e-09
1.08645e-08
2.82567e-09
4.01282e-09
1.37692e-08
-1.34708e-09
-3.11894e-10
-6.61169e-10
-4.2473e-10
-9.19308e-10
-5.75612e-10
-1.28073e-09
1.0643e-08
-4.60433e-08
-1.00495e-09
-1.59388e-10
-5.76141e-10
1.49285e-09
5.32225e-09
7.75863e-09
2.12174e-09
1.61857e-10
1.76686e-10
4.03291e-11
1.58454e-10
3.4313e-10
-1.29132e-10
-1.85383e-09
-2.18633e-08
1.5086e-07
3.56049e-08
4.74027e-08
-2.87258e-07
2.85804e-08
-1.66676e-07
-2.02123e-09
-1.80471e-09
-1.11855e-09
1.55812e-08
1.43537e-08
6.69561e-09
5.31301e-09
2.33873e-08
-8.73617e-10
-7.25354e-10
-1.58751e-09
-1.90725e-09
6.35606e-11
1.99693e-11
7.91844e-11
1.65557e-10
-8.06661e-10
6.48208e-11
1.87378e-08
1.3603e-08
-6.1624e-10
-1.64736e-09
-8.54562e-10
-1.21073e-07
-4.83475e-10
-1.7673e-09
-1.04654e-09
6.48772e-09
1.53547e-08
9.8682e-09
2.45964e-08
-2.14826e-07
2.54113e-08
-8.81155e-10
-2.35668e-09
-1.38793e-09
-1.59377e-09
-2.05573e-09
-3.24951e-09
-2.48394e-09
8.37056e-10
-1.05287e-10
-1.55739e-10
-1.38673e-10
-6.60607e-10
-1.42462e-08
2.23896e-09
-4.08346e-08
-3.49697e-08
7.07984e-08
-6.08856e-07
7.80757e-08
-4.84898e-11
-4.39669e-11
-6.18586e-11
-5.02909e-09
8.30412e-10
3.38147e-10
-3.13319e-07
3.98649e-08
2.30629e-08
-2.10114e-09
-1.39058e-09
-1.11609e-09
-2.33064e-07
1.77584e-08
1.36916e-08
3.43244e-08
4.54808e-08
3.73348e-07
1.18387e-07
-2.58327e-08
-6.54469e-07
6.26196e-08
1.3561e-08
-2.56596e-07
-2.00239e-09
-3.92887e-09
-4.68588e-09
1.84884e-08
1.2144e-08
2.42751e-08
4.97161e-08
-9.53882e-08
1.6215e-07
-9.66029e-07
-6.09813e-08
-7.28216e-07
1.12154e-07