/*--------------------------------*- C++ -*----------------------------------*\
| =========                 |                                                 |
| \\      /  F ield         | OpenFOAM: The Open Source CFD Toolbox           |
|  \\    /   O peration     | Version:  2012                                  |
|   \\  /    A nd           | Website:  www.openfoam.com                      |
|    \\/     M anipulation  |                                                 |
\*---------------------------------------------------------------------------*/
FoamFile
{
    version     2.0;
    format      ascii;
    class       pointVectorField;
    location    "0.104/fluid";
    object      pointMotionU;
}
// * * * * * * * * * * * * * * * * * * * * * * * * * * * * * * * * * * * * * //

dimensions      [0 1 -1 0 0 0 0];


internalField   nonuniform List<vector> 
23669
(
(0 0 0)
(0 0 0)
(0 0 0)
(0 0 0)
(0 0 0)
(0 0 0)
(0 0 0)
(0 0 0)
(0 0 0)
(0 0 0)
(0 0 0)
(0 0 0)
(0 0 0)
(0 0 0)
(-2.42032e-06 2.23781e-06 -1.25306e-21)
(-2.80652e-05 2.73885e-05 5.608e-34)
(-6.15755e-05 7.7785e-05 8.17272e-49)
(-7.11703e-05 0.000136854 1.24126e-63)
(-5.50565e-05 0.000187208 5.96706e-78)
(-2.52418e-05 0.000217892 4.57903e-92)
(9.36221e-06 0.000226446 -2.70219e-107)
(4.38979e-05 0.000216737 -1.35794e-119)
(7.33361e-05 0.000195663 -2.07775e-123)
(9.4003e-05 0.000168511 -1.10289e-126)
(0.000103343 0.000138144 -4.85655e-129)
(0.000100162 0.000106697 -3.94892e-133)
(8.55324e-05 7.25909e-05 7.04594e-138)
(5.36116e-05 3.55125e-05 3.26589e-141)
(0 0 0)
(-8.60688e-06 9.15608e-06 -2.8562e-25)
(-6.70645e-05 7.14683e-05 -3.34341e-39)
(-0.000122736 0.000169965 3.57643e-50)
(-0.000129217 0.000277067 6.10804e-63)
(-9.44799e-05 0.000363207 1.96923e-76)
(-3.96859e-05 0.000414196 2.5511e-91)
(2.29372e-05 0.000425924 -3.34542e-103)
(8.8567e-05 0.000404649 -1.01863e-107)
(0.000146649 0.000363847 -2.53093e-111)
(0.00018769 0.000313803 -8.51207e-114)
(0.000206329 0.00025817 1.6015e-117)
(0.000200885 0.000198041 -4.11718e-122)
(0.000172424 0.000132157 4.50395e-126)
(0.000108817 6.20355e-05 -1.55914e-127)
(0 0 0)
(-8.61708e-06 1.41715e-05 -2.23808e-23)
(-7.89446e-05 0.000102309 -4.72573e-37)
(-0.000145819 0.00023479 -2.20269e-50)
(-0.000156242 0.00037965 -1.28734e-63)
(-0.000111824 0.000491081 -3.67753e-76)
(-3.86105e-05 0.000549604 -5.81859e-89)
(4.84571e-05 0.000555802 1.49206e-93)
(0.000140468 0.000522617 -7.4557e-96)
(0.000223166 0.000468028 2.60383e-98)
(0.000280652 0.000404911 2.26168e-101)
(0.000306915 0.000331331 -8.21573e-106)
(0.000299828 0.000250947 -8.5578e-108)
(0.000257959 0.000165561 -1.6224e-110)
(0.000162164 7.72958e-05 -1.9636e-114)
(0 0 0)
(0 0 0)
(0 0 0)
(0 0 0)
(0 0 0)
(0 0 0)
(0 0 0)
(0 0 0)
(0 0 0)
(0 0 0)
(0 0 0)
(0 0 0)
(0 0 0)
(0 0 0)
(0 0 0)
(0 0 0)
(-7.09077e-07 8.38445e-07 -7.49681e-08)
(-5.64329e-06 8.3991e-06 2.48983e-06)
(-2.68383e-05 3.57664e-05 5.35678e-06)
(-4.70548e-05 8.34669e-05 2.42403e-06)
(-4.52227e-05 0.000137784 -2.9399e-06)
(-2.46781e-05 0.000185597 -6.16417e-06)
(5.28452e-06 0.000214877 -6.64087e-06)
(3.7103e-05 0.000223403 -5.71038e-06)
(6.77815e-05 0.000214404 -4.60165e-06)
(9.35928e-05 0.000193912 -3.81398e-06)
(0.000111139 0.000167362 -3.42717e-06)
(0.000117621 0.000137451 -3.19565e-06)
(0.000112137 0.000106151 -2.89057e-06)
(9.41261e-05 7.23569e-05 -2.31737e-06)
(5.78068e-05 3.56506e-05 -1.32612e-06)
(0 0 0)
(6.02494e-07 2.52004e-06 -7.06907e-07)
(-9.04316e-06 2.35311e-05 5.24438e-06)
(-4.71864e-05 8.01127e-05 8.40287e-06)
(-7.56483e-05 0.000171307 -1.26351e-06)
(-6.81874e-05 0.000274647 -1.13906e-05)
(-2.98355e-05 0.000356871 -1.45648e-05)
(2.30689e-05 0.000406974 -1.35357e-05)
(7.89534e-05 0.000419077 -1.08951e-05)
(0.000136159 0.000399804 -8.58743e-06)
(0.000186935 0.000360508 -7.23692e-06)
(0.000222098 0.000310596 -6.64056e-06)
(0.000234822 0.000255627 -6.28234e-06)
(0.000223973 0.000196726 -5.72452e-06)
(0.000188686 0.000132226 -4.59121e-06)
(0.000116609 6.32871e-05 -2.60669e-06)
(0 0 0)
(1.51164e-05 6.38907e-06 -1.27007e-06)
(4.11627e-06 2.4569e-05 -1.52629e-06)
(-4.18216e-05 0.00010452 8.69494e-06)
(-7.40215e-05 0.000228533 -4.81322e-06)
(-6.40618e-05 0.000368104 -1.86179e-05)
(-1.5282e-05 0.000475215 -2.15739e-05)
(5.39266e-05 0.000533507 -1.87097e-05)
(0.000130545 0.000542649 -1.46927e-05)
(0.000210035 0.000513918 -1.16604e-05)
(0.000281378 0.000462272 -1.00984e-05)
(0.000330483 0.000399341 -9.47742e-06)
(0.00034897 0.000326888 -9.09277e-06)
(0.000333534 0.000248587 -8.32277e-06)
(0.000280877 0.000165614 -6.68675e-06)
(0.000173093 7.80323e-05 -3.78892e-06)
(0 0 0)
(0 0 0)
(0 0 0)
(0 0 0)
(0 0 0)
(0 0 0)
(0 0 0)
(0 0 0)
(0 0 0)
(0 0 0)
(0 0 0)
(0 0 0)
(0 0 0)
(0 0 0)
(0 0 0)
(0 0 0)
(-2.15001e-06 2.73554e-06 -1.71931e-07)
(-3.08485e-06 1.53637e-05 6.23518e-06)
(-4.30265e-06 4.6145e-05 1.26654e-05)
(9.53498e-06 8.82848e-05 5.80651e-06)
(3.43489e-05 0.000136293 -5.08183e-06)
(6.25838e-05 0.000178816 -1.11928e-05)
(9.01175e-05 0.000207425 -1.24265e-05)
(0.000113501 0.000216398 -1.07781e-05)
(0.000133415 0.000208721 -8.64677e-06)
(0.000149572 0.000189876 -7.12763e-06)
(0.000158864 0.000163926 -6.3502e-06)
(0.000158086 0.000134201 -5.89979e-06)
(0.000145054 0.000103171 -5.33038e-06)
(0.000116997 7.08112e-05 -4.25098e-06)
(6.90904e-05 3.58005e-05 -2.44029e-06)
(0 0 0)
(5.80442e-06 1.06684e-05 -2.10468e-06)
(1.5102e-05 4.57284e-05 1.43062e-05)
(2.95664e-05 9.04881e-05 1.86501e-05)
(6.65486e-05 0.000163472 -1.61597e-06)
(0.000108793 0.000256753 -2.04006e-05)
(0.000153418 0.000335594 -2.70674e-05)
(0.000196189 0.000384743 -2.54205e-05)
(0.000233646 0.000400577 -2.05292e-05)
(0.000267744 0.000387407 -1.61094e-05)
(0.00029789 0.000352569 -1.34681e-05)
(0.000316186 0.000304776 -1.22791e-05)
(0.00031429 0.000250535 -1.16009e-05)
(0.000288639 0.000192699 -1.05835e-05)
(0.00023387 0.000131567 -8.50666e-06)
(0.000138277 6.51957e-05 -4.86296e-06)
(0 0 0)
(4.70426e-05 -4.90247e-06 -2.83678e-06)
(4.32228e-05 2.64367e-05 -9.16967e-07)
(6.60949e-05 9.17273e-05 1.65581e-05)
(0.000126253 0.000196175 -8.25823e-06)
(0.000185347 0.000324126 -3.214e-05)
(0.000244215 0.000425893 -3.84386e-05)
(0.000300003 0.000485809 -3.42048e-05)
(0.000350721 0.000505518 -2.71569e-05)
(0.000398228 0.000489481 -2.15784e-05)
(0.000440213 0.000446303 -1.85715e-05)
(0.000464869 0.000387118 -1.73246e-05)
(0.000461945 0.000317982 -1.66436e-05)
(0.000425247 0.000242739 -1.5316e-05)
(0.000345543 0.000164793 -1.23796e-05)
(0.000204667 8.05696e-05 -7.09681e-06)
(0 0 0)
(-1.17806e-07 1.50591e-07 4.52705e-08)
(-5.07998e-06 4.91192e-06 6.64019e-07)
(-1.33902e-06 2.02085e-06 4.17574e-07)
(-3.93959e-07 3.91427e-06 4.39394e-08)
(-3.98645e-07 7.91866e-07 3.046e-07)
(-3.09337e-07 1.11889e-06 4.72758e-07)
(0 0 0)
(-2.13616e-07 1.87484e-07 -2.15586e-18)
(0 0 0)
(-1.1379e-05 1.08642e-05 3.47824e-33)
(0 0 0)
(-4.87645e-08 4.20876e-08 6.09663e-19)
(-5.88678e-08 1.05704e-07 -1.51198e-08)
(-1.15218e-05 1.07997e-05 -2.39801e-27)
(-5.8559e-06 5.81085e-06 -4.9081e-26)
(-3.95571e-06 4.24908e-06 7.85559e-07)
(-2.81534e-05 2.96884e-05 2.23557e-06)
(-2.21304e-07 2.01968e-07 8.14904e-18)
(1.63646e-07 2.97803e-07 -1.05288e-07)
(-9.59084e-06 1.18406e-05 -1.20413e-24)
(-1.02994e-05 1.36336e-05 1.86661e-06)
(-1.27483e-07 3.22274e-07 1.81026e-17)
(3.85093e-06 3.05317e-06 -5.72328e-08)
(-6.50215e-06 1.91706e-05 -7.17828e-07)
(0 0 0)
(1.5984e-08 1.38964e-08 -3.50876e-09)
(0 0 0)
(-2.19629e-06 2.87329e-06 9.09148e-07)
(0 0 0)
(-1.28612e-05 1.62058e-05 2.62593e-06)
(-1.48123e-06 2.85123e-06 8.26003e-07)
(-1.52788e-06 2.20676e-06 -3.18091e-07)
(-1.60219e-06 1.91784e-06 -1.27097e-07)
(-1.41562e-05 1.89963e-05 4.29764e-06)
(-8.79769e-06 1.61838e-05 4.22596e-06)
(-4.99443e-06 1.23158e-05 4.47125e-06)
(-1.86013e-07 9.27509e-06 1.72132e-06)
(7.52463e-06 2.69275e-06 -1.16693e-06)
(-3.47613e-06 2.70457e-05 3.39757e-06)
(1.39634e-05 9.19438e-06 -6.07592e-06)
(2.95084e-05 2.58044e-06 -2.60356e-06)
(8.91446e-06 2.13403e-05 -5.6177e-06)
(2.23038e-05 2.50325e-05 -2.00347e-06)
(0 0 0)
(-2.96371e-08 5.90142e-08 -6.51172e-09)
(-1.72992e-06 5.04847e-06 2.17211e-06)
(0 0 0)
(-1.51864e-06 6.48492e-06 2.12407e-06)
(-2.25135e-06 3.06255e-06 -1.44369e-07)
(4.02524e-08 1.67364e-05 7.13338e-06)
(4.63411e-05 4.75407e-06 -9.6621e-06)
(6.63102e-05 -7.78449e-06 -2.15452e-06)
(4.83079e-05 1.34143e-05 -7.69131e-06)
(6.52413e-05 3.17695e-05 8.31544e-07)
(1.64951e-08 4.47132e-09 -2.2844e-10)
(-1.23278e-06 1.19217e-06 2.52328e-07)
(-6.99144e-07 9.13966e-07 2.13102e-07)
(-2.98839e-07 4.73823e-07 1.62782e-07)
(-1.2165e-05 1.24497e-05 1.014e-06)
(-1.27877e-05 1.31653e-05 1.61812e-06)
(-6.47326e-06 8.00892e-06 1.9146e-06)
(-1.56606e-07 2.60144e-07 -5.17225e-08)
(-7.59523e-06 8.93994e-06 1.43296e-06)
(-1.47236e-06 3.05794e-06 4.66451e-07)
(-2.37052e-06 6.52937e-06 1.58493e-06)
(1.17944e-06 4.77128e-07 -1.75602e-07)
(-1.00669e-05 1.71221e-05 1.33178e-06)
(3.07325e-06 5.54825e-06 -2.44134e-06)
(6.66198e-06 1.00538e-05 -4.20391e-07)
(-1.3661e-08 4.32518e-08 -3.97326e-09)
(-2.18139e-06 4.12313e-06 1.59406e-06)
(-1.79007e-06 4.91123e-06 1.53108e-06)
(-3.78275e-07 9.98422e-07 3.96958e-07)
(2.88374e-05 6.76042e-06 -8.59114e-06)
(2.67566e-05 1.74171e-05 -7.38077e-06)
(-3.1918e-08 5.5515e-08 -6.60834e-09)
(-7.90178e-07 5.46496e-06 2.46368e-06)
(-8.11783e-07 7.25756e-06 2.48394e-06)
(6.50505e-05 8.91059e-06 -9.46611e-06)
(7.17517e-05 1.56769e-05 -7.16113e-06)
(-1.42396e-07 1.22808e-07 -1.34958e-18)
(-2.53172e-07 2.77745e-07 1.32158e-17)
(-3.6484e-06 3.31163e-06 -7.47412e-25)
(0 0 0)
(0 0 0)
(0 0 0)
(0 0 0)
(1.06345e-08 6.36543e-09 -3.99576e-10)
(-6.09646e-07 5.16937e-07 5.78617e-08)
(-4.12655e-08 7.22299e-08 1.40993e-08)
(9.28361e-10 1.81162e-07 1.26259e-08)
(1.37798e-06 1.56126e-06 -9.64812e-07)
(1.4176e-08 5.9939e-09 7.1196e-11)
(1.9776e-05 1.48157e-05 -2.59525e-07)
(2.30864e-05 5.59639e-06 -8.32e-06)
(1.71518e-05 5.64756e-05 8.36329e-06)
(1.43621e-08 6.28752e-09 6.4008e-11)
(4.82215e-05 2.70401e-05 2.45221e-06)
(5.94922e-05 -8.57287e-06 -1.10837e-05)
(9.40815e-05 4.38998e-05 1.46747e-05)
(-1.17344e-08 1.39071e-08 7.73032e-09)
(-5.91588e-09 1.61126e-08 4.92544e-09)
(-2.93985e-07 2.75822e-07 5.33259e-08)
(1.39638e-08 5.89025e-09 -1.52612e-12)
(-5.61711e-08 1.3075e-07 1.96948e-08)
(2.29543e-07 3.18164e-07 -7.37419e-08)
(-1.69167e-07 6.95059e-06 -2.00544e-06)
(1.01189e-05 7.61549e-06 -4.8041e-06)
(7.08821e-06 1.21073e-05 -6.53392e-06)
(1.43087e-08 6.16618e-09 6.15748e-11)
(2.05019e-05 1.07744e-05 -1.02076e-05)
(3.98403e-05 -2.54252e-06 -1.05336e-05)
(3.8009e-05 5.40644e-06 -1.25355e-05)
(1.41574e-08 6.33025e-09 7.60826e-11)
(5.7713e-05 5.41669e-06 -1.34581e-05)
(8.18289e-05 -7.40485e-06 -1.1046e-05)
(7.74531e-05 1.4834e-05 -1.26426e-05)
(0 0 0)
(1.68e-09 -3.18963e-10 -1.02327e-09)
(0 0 0)
(6.64645e-09 2.07157e-09 -5.70252e-10)
(-9.30148e-07 8.39248e-07 -2.31007e-20)
(-6.52431e-07 6.12737e-07 7.2962e-21)
(-2.91985e-06 2.80162e-06 3.07887e-07)
(4.05584e-08 2.3214e-09 -8.78817e-09)
(3.92278e-07 2.96824e-07 1.84018e-10)
(-3.66221e-05 4.91349e-05 2.60489e-30)
(-2.06339e-06 4.49182e-06 7.98583e-21)
(-7.10581e-06 1.49639e-05 -3.7345e-23)
(-8.35702e-06 1.57889e-05 -2.23189e-07)
(-6.91258e-05 0.000103157 4.18492e-06)
(2.75035e-06 6.2968e-06 -1.60914e-06)
(9.51433e-07 3.52524e-05 9.62356e-06)
(9.0765e-06 5.97305e-06 -5.06791e-07)
(1.527e-05 6.91534e-06 -4.44621e-06)
(1.57509e-05 9.86551e-06 -1.41635e-06)
(2.18098e-05 5.26855e-06 -2.04355e-06)
(-1.59342e-05 5.73017e-05 6.04317e-06)
(-2.31166e-06 2.24432e-05 -1.18572e-06)
(1.05785e-05 1.43196e-05 -4.99038e-06)
(7.09951e-06 2.22862e-05 -4.21286e-06)
(1.25579e-05 2.52634e-05 -1.83228e-06)
(-3.69791e-05 0.0001111 9.70434e-06)
(6.75363e-06 0.000100022 1.26453e-05)
(1.44902e-05 2.54848e-05 5.60221e-06)
(2.85635e-05 3.74592e-06 -2.65575e-06)
(8.92582e-06 1.49093e-05 -1.91762e-06)
(3.2586e-05 4.19528e-05 8.81878e-06)
(3.00133e-05 5.20974e-05 1.73072e-05)
(3.77174e-05 -6.20019e-07 -2.93376e-06)
(4.75973e-05 -1.31259e-06 -7.40288e-06)
(4.83593e-05 -4.19203e-06 -3.71986e-06)
(5.61134e-05 -6.53578e-06 -2.65306e-06)
(4.77235e-05 5.53615e-05 1.25156e-05)
(3.25658e-05 2.52641e-05 -1.63779e-06)
(4.48292e-05 1.34392e-05 -7.29643e-06)
(4.63015e-05 1.80446e-05 -5.56409e-06)
(5.43424e-05 2.83948e-05 -2.28318e-07)
(7.55086e-05 9.22206e-05 1.82416e-05)
(0.000133005 7.94448e-05 1.89589e-05)
(7.60743e-05 -7.73678e-06 -1.7164e-06)
(7.53566e-05 3.61793e-05 2.34224e-06)
(-2.19054e-10 2.93533e-08 7.54295e-09)
(-4.4497e-07 4.64389e-07 1.20724e-07)
(-3.48204e-07 4.29796e-07 1.14053e-07)
(-2.27783e-07 3.17634e-07 1.00665e-07)
(-7.80149e-09 1.19519e-08 6.95416e-09)
(-1.88259e-08 3.26391e-08 1.01402e-08)
(-2.72804e-06 2.59678e-06 4.41888e-07)
(-4.10458e-06 3.75998e-06 2.72945e-07)
(-2.27584e-06 2.15846e-06 3.00894e-07)
(-1.04611e-06 1.45524e-06 3.19953e-07)
(-3.94082e-07 7.62888e-07 1.25196e-07)
(-1.51547e-06 2.57171e-06 4.75623e-07)
(-5.77411e-07 6.60232e-07 1.10916e-07)
(-1.13877e-06 3.49082e-06 3.68404e-07)
(9.51436e-07 1.45963e-06 -1.26556e-07)
(1.0168e-06 4.50701e-06 -7.96366e-07)
(-6.96619e-07 1.39463e-06 6.73786e-08)
(4.99933e-06 6.75294e-06 -4.98772e-06)
(-3.5979e-07 6.37807e-07 2.34647e-07)
(-8.17458e-08 1.9241e-07 5.81953e-08)
(-4.0204e-07 9.11098e-07 3.5602e-07)
(-8.0971e-08 1.49109e-07 6.32459e-08)
(3.08841e-05 2.90308e-06 -1.37444e-05)
(3.03447e-05 4.1543e-06 -1.45305e-05)
(-3.4857e-07 1.06879e-06 4.37505e-07)
(-8.92572e-08 2.73962e-07 9.1325e-08)
(-2.21535e-07 1.12702e-06 4.8177e-07)
(-7.92478e-08 2.16668e-07 1.0128e-07)
(6.97817e-05 -4.83296e-06 -1.679e-05)
(7.07038e-05 8.84724e-07 -1.7783e-05)
(0 0 0)
(3.08882e-09 2.15142e-09 1.76294e-09)
(-1.34761e-06 1.17207e-06 -3.08643e-25)
(0 0 0)
(-4.91426e-07 4.31107e-07 6.31396e-08)
(1.19678e-09 3.38886e-10 -5.36377e-10)
(-1.36282e-06 1.19153e-06 -2.19201e-21)
(-4.99307e-07 4.66976e-07 1.04092e-07)
(0 0 0)
(0 0 0)
(-2.4381e-07 2.63565e-07 5.07431e-08)
(-1.20285e-09 3.21487e-09 3.3478e-17)
(-9.51779e-08 8.2349e-08 -2.54552e-18)
(7.4266e-09 7.26509e-09 -4.21205e-09)
(-3.29005e-10 3.62921e-08 -5.98023e-09)
(-2.01102e-07 3.31092e-07 6.74415e-08)
(-1.38558e-07 1.96651e-07 -2.84511e-08)
(-2.34212e-06 2.38229e-06 4.75332e-07)
(-1.80096e-06 2.07528e-06 4.4944e-07)
(-7.91828e-07 1.04761e-06 1.39457e-07)
(-1.80502e-07 1.60662e-07 3.9515e-18)
(-2.40559e-07 2.38699e-07 1.07716e-17)
(1.36476e-07 9.23975e-09 -1.34162e-08)
(-8.87015e-08 3.07238e-07 -7.5657e-08)
(-1.57308e-07 1.09853e-06 1.16904e-07)
(5.17418e-07 3.45347e-07 -1.36428e-07)
(2.75606e-07 1.99107e-06 -6.12555e-07)
(-2.1759e-07 3.0013e-07 5.29443e-18)
(7.38235e-08 3.84632e-07 -2.75596e-17)
(2.20701e-06 1.20732e-06 -1.78272e-07)
(3.90112e-06 3.65551e-06 -1.50559e-06)
(4.99216e-06 5.37316e-06 2.36762e-07)
(1.47002e-07 9.96675e-06 -2.15876e-06)
(-3.90659e-06 1.89334e-05 -2.26071e-06)
(-5.69214e-08 9.12195e-08 3.40758e-08)
(0 0 0)
(0 0 0)
(2.07976e-08 7.16429e-09 -1.3821e-09)
(-3.44924e-08 1.00162e-07 2.87966e-08)
(-1.45598e-09 2.92494e-08 -4.16199e-09)
(7.90416e-06 8.22245e-06 -4.4246e-06)
(1.57323e-05 9.21056e-06 -9.95794e-06)
(2.09785e-05 8.44215e-06 -7.5233e-06)
(2.99549e-05 3.51478e-06 -6.59758e-06)
(3.04566e-05 5.35811e-06 -3.27943e-06)
(1.46004e-05 1.07216e-05 -1.0946e-05)
(1.7127e-05 2.00218e-05 -6.57545e-06)
(2.63856e-05 1.34198e-05 -6.87425e-06)
(2.5159e-05 1.98316e-05 -5.70487e-06)
(-8.68922e-08 1.91265e-07 8.5323e-08)
(0 0 0)
(0 0 0)
(-2.62503e-08 5.56282e-08 -4.80943e-09)
(-9.52041e-08 2.50076e-07 7.5675e-08)
(-3.66367e-08 6.29049e-08 -6.28889e-09)
(3.74255e-05 5.00773e-06 -9.36568e-06)
(4.92831e-05 -5.18973e-06 -1.59818e-05)
(5.57147e-05 5.70212e-06 -9.76288e-06)
(6.69239e-05 -8.00108e-07 -7.14398e-06)
(6.90875e-05 -1.01587e-05 -2.83922e-06)
(3.71912e-05 1.48844e-05 -7.70821e-06)
(4.96101e-05 -2.90624e-06 -1.68011e-05)
(6.00171e-05 1.34834e-05 -7.60555e-06)
(6.40445e-05 1.97286e-05 -6.47863e-06)
(6.89244e-05 2.20384e-05 -4.51958e-06)
(0 0 0)
(-2.7894e-08 4.94025e-08 -5.65282e-09)
(7.41518e-05 1.18889e-05 -9.15429e-06)
(8.29003e-05 1.9402e-05 -6.21115e-06)
(3.19498e-10 3.51909e-09 4.64483e-09)
(1.56967e-09 3.86973e-09 3.51827e-09)
(1.33321e-08 6.06684e-09 -1.51133e-10)
(-9.79826e-08 8.26555e-08 1.69005e-08)
(-1.65648e-06 1.46472e-06 1.12103e-07)
(-1.7555e-06 1.56018e-06 1.56372e-07)
(-1.18175e-06 1.09013e-06 1.93614e-07)
(-2.64257e-08 4.45865e-08 1.00688e-08)
(3.25639e-09 6.93786e-09 -1.79605e-09)
(-4.15917e-07 4.59168e-07 8.10526e-08)
(-6.10227e-08 1.07238e-07 1.89441e-08)
(-3.27173e-07 5.50265e-07 1.00586e-07)
(-5.08009e-08 1.63879e-07 2.09895e-08)
(7.06524e-08 6.46257e-09 -1.04021e-08)
(-8.00309e-07 1.22605e-06 1.27298e-07)
(7.12814e-08 2.28068e-07 -9.39327e-09)
(2.37765e-07 1.24378e-06 5.3333e-08)
(-3.2091e-05 5.25455e-05 2.8329e-06)
(4.98362e-07 5.91933e-07 -2.39928e-07)
(1.10147e-06 1.20996e-06 1.79273e-07)
(1.52034e-06 2.88472e-06 -2.00682e-06)
(5.23766e-06 5.31165e-06 -2.9198e-06)
(-1.10409e-05 5.83574e-05 5.04977e-06)
(-6.4618e-06 1.63151e-05 -1.05046e-06)
(6.7664e-07 2.12347e-05 -3.33637e-06)
(1.41094e-08 5.91612e-09 6.25981e-11)
(-7.0505e-08 1.2057e-07 4.8634e-08)
(-6.1025e-08 1.47082e-07 4.35958e-08)
(1.42399e-08 6.08191e-09 6.84039e-11)
(6.07574e-06 1.73784e-05 3.44847e-06)
(1.73417e-05 3.56558e-06 -2.38584e-06)
(1.30742e-05 3.47514e-05 5.65267e-06)
(2.21822e-05 5.75467e-06 -5.66576e-06)
(3.44341e-05 1.9142e-05 4.64041e-07)
(1.79912e-05 1.428e-05 -6.08211e-06)
(3.8463e-05 8.06573e-07 -7.21083e-06)
(3.539e-05 1.28682e-05 -7.2343e-06)
(1.33057e-05 5.68275e-05 8.68099e-06)
(1.6081e-05 7.98449e-06 -6.65348e-06)
(2.26468e-05 7.9913e-06 -2.47328e-06)
(2.28291e-05 6.77794e-06 -1.20563e-05)
(3.10449e-05 2.13262e-06 -9.63534e-06)
(1.293e-05 0.000103626 1.38911e-05)
(5.40156e-05 4.96788e-05 1.0755e-05)
(1.54412e-05 2.16203e-05 -5.03479e-06)
(3.54978e-05 1.83298e-05 -5.85931e-06)
(1.436e-08 6.2381e-09 6.0333e-11)
(-8.19031e-08 2.0397e-07 9.29901e-08)
(-9.61019e-08 2.67205e-07 8.43206e-08)
(1.42942e-08 6.32452e-09 6.88366e-11)
(2.18318e-05 3.18445e-05 7.24849e-06)
(3.9487e-05 6.70051e-06 -2.24919e-06)
(5.26029e-05 4.85977e-05 1.16091e-05)
(5.70268e-05 -1.83396e-06 -7.37515e-06)
(5.45213e-05 1.56852e-05 -7.11663e-06)
(7.659e-05 6.66028e-07 -6.91761e-06)
(7.28218e-05 2.46568e-05 -5.51535e-06)
(8.56681e-05 5.27172e-05 1.53713e-05)
(4.93416e-05 -6.40912e-06 -1.09683e-05)
(5.84422e-05 -7.3716e-06 -3.30012e-06)
(5.93833e-05 -6.66742e-06 -1.65779e-05)
(7.04017e-05 -8.26759e-06 -1.10406e-05)
(0.000146112 7.63052e-05 2.08034e-05)
(5.76363e-05 1.91204e-05 -5.20606e-06)
(7.95453e-05 2.61341e-05 -3.39405e-06)
(3.76765e-09 1.34691e-09 9.37346e-10)
(-6.0444e-08 5.81194e-08 1.56548e-08)
(-1.59216e-07 1.64718e-07 4.53283e-08)
(-6.61412e-08 7.41543e-08 1.83465e-08)
(-7.7689e-08 1.42715e-07 3.43122e-08)
(-9.77013e-07 1.05246e-06 2.51379e-07)
(-1.33352e-06 1.2394e-06 1.55579e-07)
(-1.01189e-06 1.00304e-06 1.46423e-07)
(-4.23274e-08 6.34284e-08 2.15777e-08)
(-1.58122e-08 6.24662e-08 1.76436e-08)
(1.689e-08 7.6796e-09 -6.29132e-09)
(-7.11305e-07 8.60565e-07 1.31497e-07)
(-3.70081e-07 9.61928e-07 1.37329e-07)
(2.16437e-07 7.52937e-08 -1.19587e-08)
(-3.77434e-07 1.58116e-06 -1.24115e-07)
(2.11657e-06 2.11832e-06 -5.5274e-07)
(-1.88475e-06 6.38247e-06 -7.47623e-07)
(9.11962e-06 6.29623e-06 -3.05759e-06)
(4.467e-06 1.29196e-05 -3.66666e-06)
(9.86252e-06 8.80353e-06 -3.88736e-07)
(2.55676e-06 9.9874e-06 -4.35894e-06)
(9.7534e-06 8.98918e-06 -7.62785e-06)
(1.31679e-05 1.23373e-05 -8.51424e-06)
(-8.60772e-08 1.72848e-07 7.53066e-08)
(-9.40022e-08 2.27661e-07 6.85845e-08)
(3.90006e-05 1.21757e-06 -3.70626e-06)
(2.19333e-05 8.06956e-06 -1.29174e-05)
(2.89188e-05 8.01925e-06 -1.16071e-05)
(3.98055e-05 -1.87894e-06 -1.50879e-05)
(3.96816e-05 -3.38886e-07 -1.5859e-05)
(4.77331e-05 4.04157e-06 -1.31838e-05)
(-6.72924e-08 2.24652e-07 1.06014e-07)
(-7.75031e-08 2.77092e-07 9.69057e-08)
(8.02235e-05 -1.09784e-05 -2.28289e-06)
(6.01464e-05 -3.01328e-06 -1.75809e-05)
(6.78854e-05 9.37566e-06 -1.32873e-05)
(8.05225e-05 -2.55367e-06 -1.68892e-05)
(8.13402e-05 5.85847e-06 -1.75948e-05)
(-3.48611e-07 2.96206e-07 -1.28315e-18)
(-5.71825e-08 5.36004e-08 5.56057e-17)
(-9.82704e-07 4.99706e-06 4.52805e-20)
(0 0 0)
(0 0 0)
(-4.15758e-08 3.42712e-08 4.5327e-09)
(9.50392e-10 3.9459e-10 1.7468e-09)
(-2.30397e-05 2.50964e-05 2.7447e-06)
(3.09079e-09 6.94577e-10 1.8445e-09)
(-3.43779e-05 4.64237e-05 3.42251e-06)
(3.1375e-08 2.8432e-08 -8.76963e-09)
(-5.76868e-06 1.05943e-05 3.4756e-06)
(-1.86396e-06 1.21845e-05 3.20849e-06)
(-5.51631e-07 1.31455e-05 5.39909e-06)
(2.55356e-06 1.98191e-05 5.63681e-06)
(3.7315e-09 -3.4481e-10 5.4379e-09)
(8.76841e-10 2.47546e-10 1.71524e-09)
(-2.89087e-07 3.28297e-07 1.03426e-07)
(-1.78823e-07 3.42425e-07 8.28697e-08)
(-3.75725e-06 3.48835e-06 3.13956e-07)
(-1.76675e-06 1.80439e-06 2.35754e-07)
(2.04739e-09 7.25356e-10 1.76648e-09)
(-3.04476e-06 3.35525e-06 3.83766e-07)
(-3.72504e-06 4.75685e-06 4.02363e-07)
(1.51081e-08 6.4253e-09 -6.31216e-10)
(-3.07534e-06 5.81859e-06 -3.71866e-08)
(-4.04548e-07 5.96765e-07 2.36918e-07)
(-4.406e-07 8.55789e-07 2.05873e-07)
(-4.2166e-07 8.15877e-07 3.58345e-07)
(-6.30818e-07 1.35033e-06 3.21528e-07)
(-3.43955e-07 9.39465e-07 4.35482e-07)
(-6.40748e-07 1.61308e-06 4.03036e-07)
(-1.96401e-07 9.87737e-07 4.7009e-07)
(-5.12651e-07 1.65504e-06 4.5089e-07)
(2.26625e-09 3.57036e-10 2.79758e-09)
(7.89264e-10 1.20826e-09 2.99913e-09)
(9.5497e-09 7.50552e-09 1.46568e-10)
(7.46567e-10 7.06777e-10 4.57345e-09)
(1.07961e-08 1.29662e-09 -1.62597e-10)
(-2.98311e-07 2.44419e-07 2.05422e-08)
(-2.49186e-08 2.62503e-08 5.44187e-09)
(7.5444e-10 7.93832e-10 1.80242e-09)
(-3.96686e-08 4.18275e-08 8.0639e-09)
(-6.95795e-08 8.85504e-08 1.28644e-08)
(5.6681e-09 6.16558e-10 1.58038e-09)
(-6.59199e-08 1.03017e-07 1.14638e-08)
(3.58022e-06 5.06747e-06 -3.63736e-06)
(1.0817e-07 2.41027e-07 -1.19669e-07)
(3.36417e-07 2.92314e-07 -1.15824e-07)
(3.09852e-06 3.12213e-06 -1.12148e-06)
(6.84993e-07 7.86177e-07 -7.67081e-07)
(1.10259e-08 1.6797e-09 4.56314e-10)
(1.09407e-08 9.56346e-09 5.5424e-10)
(9.82109e-09 1.10922e-08 9.24346e-10)
(1.08529e-08 2.04072e-09 6.43057e-10)
(2.71042e-05 5.84126e-06 -1.31498e-05)
(1.90925e-05 6.89178e-06 -5.47222e-06)
(1.9519e-05 9.73253e-06 -1.11413e-05)
(2.65628e-05 3.99035e-06 -6.74074e-06)
(1.06089e-08 2.88923e-09 1.05702e-09)
(8.42285e-09 1.3518e-08 1.39743e-09)
(8.30527e-09 1.36216e-08 1.52502e-09)
(1.0604e-08 3.0342e-09 1.13805e-09)
(6.54337e-05 -1.38623e-05 -1.68972e-05)
(5.40503e-05 -7.78477e-06 -7.85514e-06)
(5.48347e-05 -1.12089e-05 -1.65329e-05)
(6.47361e-05 -8.92304e-06 -7.53652e-06)
(8.0302e-10 1.58791e-10 5.50766e-09)
(4.13645e-10 7.53249e-09 3.39753e-09)
(1.7189e-09 1.00435e-09 5.16486e-09)
(5.4552e-10 1.65374e-09 3.16555e-09)
(-9.68349e-09 1.124e-08 3.1676e-09)
(8.0548e-10 3.01555e-09 3.86062e-09)
(-1.47412e-07 1.29289e-07 1.53737e-08)
(2.60035e-09 4.03719e-09 3.97245e-09)
(1.10698e-08 1.42604e-09 3.00167e-10)
(1.17638e-08 8.42581e-09 3.97302e-10)
(1.15454e-08 7.86005e-09 2.87756e-10)
(1.11069e-08 1.21286e-09 6.21866e-11)
(1.14313e-09 8.93791e-10 1.79047e-09)
(-6.36361e-08 7.32189e-08 1.21106e-08)
(-5.35936e-08 5.79744e-08 1.034e-08)
(9.58801e-09 1.77289e-09 1.11334e-09)
(-6.05187e-09 1.42285e-07 -2.10987e-08)
(-4.94762e-08 1.17786e-07 3.35951e-09)
(3.24809e-06 6.1183e-06 -4.86909e-06)
(8.97206e-07 2.6938e-06 -1.58619e-06)
(7.61086e-06 8.86082e-06 -6.2778e-06)
(1.25997e-05 7.59225e-06 -3.95762e-06)
(7.21204e-06 6.04196e-06 -2.43448e-06)
(1.29726e-05 1.07631e-05 -8.82129e-06)
(7.06012e-06 8.82103e-06 -7.86625e-06)
(1.23708e-05 9.85433e-06 -1.05618e-05)
(1.06583e-08 2.66673e-09 9.41565e-10)
(8.73345e-09 1.30319e-08 1.282e-09)
(8.9993e-09 1.23826e-08 1.20043e-09)
(1.08095e-08 2.33103e-09 7.71537e-10)
(2.66407e-05 4.64933e-06 -1.50001e-05)
(1.89633e-05 8.24843e-06 -1.29679e-05)
(3.55894e-05 6.20011e-08 -1.47256e-05)
(4.40946e-05 -4.60482e-06 -7.92515e-06)
(3.49134e-05 -2.27815e-07 -7.58408e-06)
(4.48611e-05 -6.22888e-06 -1.58288e-05)
(3.53289e-05 -2.3767e-07 -1.67127e-05)
(4.47081e-05 -4.63685e-06 -1.802e-05)
(9.01721e-09 1.28433e-08 1.38584e-09)
(1.0244e-08 3.48736e-09 1.38332e-09)
(6.49455e-05 -4.85344e-06 -1.95962e-05)
(5.47324e-05 -6.65961e-06 -1.90571e-05)
(7.66231e-05 -1.41927e-05 -1.71431e-05)
(7.59703e-05 -8.03063e-06 -7.20178e-06)
(7.55095e-05 -2.14716e-07 -1.97703e-05)
(4.07881e-10 6.77769e-10 -3.20468e-10)
(0 0 0)
(8.12578e-10 -4.94157e-11 1.79582e-09)
(-6.06318e-06 5.62568e-06 -2.55838e-25)
(-4.2589e-06 4.08635e-06 1.11318e-25)
(-4.75057e-05 4.87509e-05 2.20496e-36)
(1.828e-09 -4.86117e-10 1.7931e-09)
(-3.16025e-05 3.29671e-05 1.40719e-32)
(-7.326e-06 7.51174e-06 -1.29009e-25)
(-2.66229e-06 2.83476e-06 9.31128e-22)
(-9.43328e-06 1.06336e-05 -5.72034e-25)
(-9.24538e-06 1.04187e-05 8.28953e-07)
(-7.49036e-05 8.81332e-05 -9.425e-38)
(-6.22275e-05 7.36677e-05 3.8331e-06)
(9.18683e-09 5.37803e-09 1.75399e-09)
(-9.32585e-06 1.29843e-05 -3.70476e-24)
(0 0 0)
(0 0 0)
(-9.85628e-07 1.224e-06 3.99854e-07)
(0 0 0)
(0 0 0)
(-3.35472e-07 4.12679e-07 -4.06645e-08)
(-1.69278e-07 2.44261e-07 -2.57224e-08)
(-7.82364e-07 1.52842e-06 3.12987e-07)
(-1.16243e-06 1.36823e-06 -1.01869e-07)
(-3.85236e-05 5.79197e-05 7.28663e-06)
(-1.78109e-05 4.17187e-05 9.04645e-06)
(-2.50385e-05 4.63678e-05 8.1033e-06)
(-4.52481e-05 9.52488e-05 8.39496e-06)
(0 0 0)
(0 0 0)
(0 0 0)
(-8.60266e-07 2.1527e-06 9.51766e-07)
(0 0 0)
(-4.49313e-06 2.17551e-05 6.33646e-06)
(0 0 0)
(-4.64396e-06 8.4835e-06 -9.54047e-07)
(-1.9441e-06 2.39138e-06 -1.56255e-07)
(-6.62593e-07 8.21562e-07 -5.28159e-08)
(-1.54439e-06 4.11058e-06 8.40753e-07)
(-2.24261e-06 2.9515e-06 -1.63365e-07)
(-4.49509e-06 2.8647e-05 1.04326e-05)
(9.062e-07 3.08897e-05 1.1185e-05)
(1.24198e-05 4.73945e-05 1.43634e-05)
(0 0 0)
(-2.16252e-06 3.07237e-06 -1.21702e-07)
(-8.55374e-06 8.5293e-06 1.1033e-06)
(-3.52159e-06 4.52741e-06 8.51769e-07)
(-3.72081e-06 8.74743e-06 5.13041e-07)
(5.47913e-06 7.31043e-06 -6.50104e-06)
(-1.06792e-06 2.08809e-06 8.27841e-07)
(-1.00519e-06 2.34891e-06 8.07852e-07)
(3.14291e-05 1.66932e-06 -1.64972e-05)
(-5.47833e-07 2.84934e-06 1.276e-06)
(-6.15855e-07 3.36657e-06 1.27454e-06)
(7.12875e-05 -1.11935e-05 -2.07321e-05)
(1.19039e-11 -5.5366e-10 1.41766e-09)
(3.68674e-10 3.0275e-10 2.73624e-09)
(-2.59948e-08 2.65363e-08 7.53078e-17)
(-4.38251e-07 3.8437e-07 -5.92762e-18)
(-2.31513e-07 1.98975e-07 1.87117e-08)
(-2.58878e-08 2.74445e-08 -3.21567e-17)
(-5.44737e-07 4.63228e-07 1.01836e-20)
(-9.42757e-08 9.02385e-08 1.30821e-08)
(-2.27602e-08 2.01687e-08 1.58601e-18)
(-7.27057e-08 6.25952e-08 -1.5315e-18)
(9.46234e-10 -6.21941e-11 1.79917e-09)
(-1.19055e-05 1.14205e-05 7.42173e-07)
(-7.05333e-06 6.487e-06 -4.10561e-26)
(-6.42054e-06 6.67174e-06 6.11371e-07)
(-1.80499e-06 1.77011e-06 4.65878e-22)
(-7.57121e-06 7.84939e-06 1.19492e-06)
(-5.83161e-06 6.53633e-06 1.1295e-06)
(-3.85614e-07 4.08451e-07 4.42108e-08)
(-2.01723e-07 1.81331e-07 5.7049e-18)
(-2.33059e-07 2.20914e-07 9.7469e-18)
(4.30909e-09 -6.09332e-10 1.856e-09)
(-9.99056e-06 1.33703e-05 6.47731e-07)
(-2.95326e-06 3.73636e-06 1.48095e-21)
(-9.15717e-06 1.13558e-05 1.70845e-06)
(-4.53961e-06 6.92668e-06 1.0623e-06)
(-1.06897e-05 1.55965e-05 1.76987e-06)
(-9.95257e-08 7.14928e-07 -1.2415e-07)
(-1.84168e-07 3.10514e-07 5.9961e-18)
(-4.95888e-08 3.4173e-07 7.39005e-18)
(-8.6131e-06 1.83834e-05 5.19735e-07)
(0 0 0)
(-1.16939e-08 2.52704e-08 9.81551e-09)
(0 0 0)
(0 0 0)
(9.58485e-09 6.88143e-09 8.35918e-11)
(1.94756e-08 9.97134e-09 -2.29485e-09)
(8.4591e-09 3.3712e-08 4.39321e-09)
(5.99929e-09 2.19753e-08 -4.04397e-09)
(-1.86199e-06 2.09583e-06 5.51904e-07)
(-9.68858e-07 1.36571e-06 4.63853e-07)
(-2.27406e-06 3.54389e-06 1.26835e-06)
(-1.02164e-06 1.76332e-06 7.03092e-07)
(0 0 0)
(-1.15003e-06 1.82675e-06 4.85717e-07)
(-7.99905e-07 1.39503e-06 4.39031e-07)
(-1.70408e-06 3.91019e-06 1.18784e-06)
(-4.79102e-07 5.87582e-07 -3.72065e-08)
(-1.37301e-06 2.9956e-06 6.01026e-07)
(1.54734e-05 7.6234e-06 -1.82543e-06)
(0 0 0)
(-2.40548e-08 5.48569e-08 2.56395e-08)
(0 0 0)
(0 0 0)
(8.86987e-09 7.96898e-09 -2.90499e-11)
(-2.88779e-08 5.82843e-08 -5.68599e-09)
(-3.42294e-08 1.01627e-07 1.47881e-08)
(-3.47261e-08 6.25035e-08 -6.38093e-09)
(-2.00708e-06 4.63908e-06 1.90697e-06)
(-9.15308e-07 2.59982e-06 1.11283e-06)
(-1.30097e-06 5.30056e-06 2.34406e-06)
(-4.70331e-07 2.31576e-06 1.07033e-06)
(0 0 0)
(-1.72568e-06 5.79158e-06 1.8514e-06)
(-9.15839e-07 3.03434e-06 1.09308e-06)
(-1.20508e-06 6.96238e-06 2.3275e-06)
(-7.11621e-07 8.93464e-07 -4.34704e-08)
(-1.35001e-06 4.60529e-06 1.00842e-06)
(4.84624e-05 -4.41866e-06 -3.67205e-06)
(-2.17452e-07 5.57472e-06 2.54432e-06)
(-3.03535e-07 7.38614e-06 2.58909e-06)
(1.43261e-08 1.04158e-08 1.31131e-09)
(9.73084e-09 4.20909e-09 5.10186e-10)
(8.59176e-09 6.69649e-09 4.30349e-10)
(1.84404e-08 6.15838e-09 -7.0648e-10)
(4.81467e-06 4.26092e-06 -6.1304e-08)
(1.61055e-05 9.70727e-06 -1.21409e-05)
(-2.19921e-08 7.70935e-08 1.19562e-08)
(-9.03122e-09 3.71757e-08 -3.8942e-09)
(9.08015e-09 7.55941e-09 3.45885e-11)
(-2.23114e-08 5.1389e-08 -4.08679e-09)
(3.02526e-05 3.24171e-06 -3.53739e-06)
(5.01813e-05 -9.42098e-06 -1.93214e-05)
(-3.33615e-08 1.0471e-07 1.85479e-08)
(-3.6456e-08 6.146e-08 -6.14956e-09)
(8.75709e-09 7.99346e-09 -5.8682e-11)
(-3.12698e-08 5.41874e-08 -6.2337e-09)
(6.96116e-05 -7.18837e-06 -2.62324e-06)
(1.06667e-09 1.44398e-09 4.65569e-09)
(-2.58141e-07 2.50115e-07 3.17579e-08)
(-1.18441e-07 1.02408e-07 -2.08533e-18)
(-1.61354e-07 1.41746e-07 9.44841e-19)
(-4.07142e-07 5.53833e-07 3.64862e-08)
(-2.47932e-07 2.57994e-07 1.05076e-17)
(-2.38173e-07 2.88777e-07 8.65866e-18)
(3.27877e-07 3.86074e-07 1.21232e-15)
(-7.41066e-10 9.16639e-09 2.92655e-09)
(0 0 0)
(0 0 0)
(0 0 0)
(-1.93198e-08 4.13639e-08 1.82344e-08)
(0 0 0)
(0 0 0)
(0 0 0)
(-2.23442e-08 6.19834e-08 3.00671e-08)
(0 0 0)
(0 0 0)
(0 0 0)
(6.72195e-09 3.50705e-09 1.49194e-09)
(5.66444e-09 4.75e-09 1.58706e-09)
(1.24662e-08 6.28506e-09 -2.58654e-10)
(2.9874e-09 1.82596e-09 6.24529e-10)
(-2.75427e-07 2.24865e-07 3.28085e-08)
(-9.53515e-07 8.12186e-07 9.05862e-08)
(-3.56269e-07 2.97694e-07 1.95559e-08)
(-2.37996e-07 1.98818e-07 2.35853e-08)
(-2.74408e-08 4.83873e-08 9.91649e-09)
(-2.0111e-09 2.16644e-08 1.97931e-09)
(-1.18977e-07 1.47532e-07 2.98568e-08)
(-4.3806e-08 7.60429e-08 1.40374e-08)