/*--------------------------------*- C++ -*----------------------------------*\
| =========                 |                                                 |
| \\      /  F ield         | OpenFOAM: The Open Source CFD Toolbox           |
|  \\    /   O peration     | Version:  2012                                  |
|   \\  /    A nd           | Website:  www.openfoam.com                      |
|    \\/     M anipulation  |                                                 |
\*---------------------------------------------------------------------------*/
FoamFile
{
    version     2.0;
    format      ascii;
    class       volVectorField;
    location    "0.104/fluid";
    object      U;
}
// * * * * * * * * * * * * * * * * * * * * * * * * * * * * * * * * * * * * * //

dimensions      [0 1 -1 0 0 0 0];


internalField   nonuniform List<vector> 
16421
(
(1.14825 -0.00666443 -0.0174099)
(1.17169 -0.00214679 0.00129105)
(1.18564 -0.00074377 -0.000203901)
(1.19159 -0.000311433 -0.000186313)
(1.19467 -0.000126706 -0.000111765)
(1.19636 -6.22657e-05 -6.85804e-05)
(1.19735 -4.07154e-05 -4.26569e-05)
(1.19799 -3.2063e-05 -2.66931e-05)
(1.19841 -2.80312e-05 -1.72075e-05)
(1.1987 -2.62927e-05 -1.15691e-05)
(1.19891 -2.97503e-05 -7.10324e-06)
(1.19909 -3.65946e-05 -5.00838e-06)
(1.19925 -4.40764e-05 -3.71837e-06)
(1.22277 -0.051329 -0.130096)
(1.17921 -0.036323 0.0226652)
(1.18285 -0.0130147 0.00163537)
(1.18894 -0.00572822 1.30303e-05)
(1.19302 -0.00289301 -0.000156202)
(1.19555 -0.0015886 -0.000104783)
(1.1971 -0.00091598 -6.77446e-05)
(1.19807 -0.000544612 -4.40854e-05)
(1.19868 -0.000329522 -2.86633e-05)
(1.19906 -0.000202258 -1.90593e-05)
(1.19931 -0.000123798 -1.36393e-05)
(1.19947 -7.00562e-05 -1.07252e-05)
(1.19957 -3.65377e-05 -9.03724e-06)
(1.19964 -1.35758e-05 -8.16089e-06)
(1.21884 -0.0153923 -0.115683)
(1.19973 -0.0176804 0.0289811)
(1.1925 -0.0119789 0.0024575)
(1.19316 -0.00702298 0.000182515)
(1.19495 -0.00408822 -0.000148771)
(1.1965 -0.00241738 -0.000112612)
(1.19759 -0.00145469 -7.41057e-05)
(1.19832 -0.000887939 -4.88892e-05)
(1.1988 -0.000548267 -3.39744e-05)
(1.19911 -0.000341373 -2.33582e-05)
(1.19932 -0.000210668 -1.7079e-05)
(1.19946 -0.00012919 -1.59615e-05)
(1.19957 -7.5501e-05 -1.47845e-05)
(1.19965 -3.96456e-05 -1.42646e-05)
(1.17413 0.0180212 -0.0565659)
(1.19493 -0.00844905 0.0155498)
(1.19518 -0.00923342 0.00136975)
(1.19584 -0.00646581 -2.26554e-05)
(1.19674 -0.00416559 -0.00018431)
(1.19758 -0.00262109 -0.000126127)
(1.19822 -0.00164209 -7.9686e-05)
(1.19866 -0.00102892 -5.31468e-05)
(1.19899 -0.000647387 -3.84295e-05)
(1.19921 -0.000406182 -2.83135e-05)
(1.19936 -0.000251395 -2.28332e-05)
(1.19948 -0.000154286 -2.17213e-05)
(1.19958 -9.44827e-05 -2.06872e-05)
(1.19966 -5.09978e-05 -2.07426e-05)
(0.99948 -0.222229 -0.0351087)
(1.16182 0.00438725 -0.0161614)
(1.1776 -0.00218378 -0.00665093)
(1.18717 -0.000705398 -0.00322616)
(1.19237 -0.000292409 -0.00182238)
(1.19518 -0.000120385 -0.00109631)
(1.19674 -6.13099e-05 -0.000675455)
(1.19767 -4.08124e-05 -0.000422433)
(1.19826 -3.17138e-05 -0.000265688)
(1.19865 -2.79741e-05 -0.000168475)
(1.19893 -2.73685e-05 -0.000105713)
(1.19913 -3.00148e-05 -6.78095e-05)
(1.1993 -3.66516e-05 -4.20824e-05)
(1.19946 -4.42133e-05 -2.39518e-05)
(1.32924 -0.0490501 -0.0385606)
(1.22325 -0.0843003 -0.0461838)
(1.19063 -0.0340815 -0.015785)
(1.18734 -0.0125069 -0.00586867)
(1.19047 -0.00549676 -0.00296342)
(1.1938 -0.00276981 -0.0016961)
(1.19613 -0.00153475 -0.00103769)
(1.19757 -0.000890831 -0.000647682)
(1.19847 -0.000532109 -0.000408163)
(1.19902 -0.000324017 -0.000258272)
(1.19938 -0.000199501 -0.000163901)
(1.1996 -0.000121722 -0.000104019)
(1.19974 -7.13925e-05 -6.56171e-05)
(1.19983 -3.84667e-05 -4.07281e-05)
(1.19987 -1.55324e-05 -2.28034e-05)
(1.24854 0.00151312 -0.0597461)
(1.23798 -0.015826 -0.0545308)
(1.21083 -0.0167661 -0.0139097)
(1.19674 -0.011274 -0.00461592)
(1.19489 -0.00672496 -0.00242446)
(1.19595 -0.00394594 -0.00143702)
(1.19726 -0.00234503 -0.000906114)
(1.19821 -0.00141601 -0.000579008)
(1.19883 -0.000867318 -0.000371268)
(1.19925 -0.000538481 -0.000238284)
(1.19951 -0.000336472 -0.000152518)
(1.19968 -0.000209195 -9.7698e-05)
(1.19979 -0.000129318 -6.20962e-05)
(1.19986 -7.68557e-05 -3.8579e-05)
(1.19991 -4.13222e-05 -2.13546e-05)
(1.33941 0.10673 -0.0236679)
(1.19163 0.025326 -0.0355983)
(1.20056 -0.00300017 -0.00868815)
(1.19932 -0.00791361 -0.00319266)
(1.19789 -0.00609646 -0.00179734)
(1.19801 -0.00401457 -0.00112833)
(1.19853 -0.00253867 -0.000743591)
(1.19898 -0.0015955 -0.000491014)
(1.19931 -0.00100339 -0.000322308)
(1.19954 -0.000633537 -0.000211474)
(1.1997 -0.000399619 -0.000137273)
(1.1998 -0.000250992 -9.0105e-05)
(1.19987 -0.000155456 -5.7651e-05)
(1.19992 -9.39281e-05 -3.47983e-05)
(1.19995 -5.19175e-05 -1.8997e-05)
(1.0106 -0.21549 -0.0183845)
(1.16541 0.00533416 -0.0142996)
(1.18069 -0.0018685 -0.00850019)
(1.18934 -0.000610088 -0.00494528)
(1.19367 -0.000252666 -0.002998)
(1.19592 -0.000108153 -0.00183637)
(1.19718 -5.8195e-05 -0.00113889)
(1.19794 -3.93413e-05 -0.000714011)
(1.19843 -3.10452e-05 -0.000450679)
(1.19876 -2.85975e-05 -0.0002849)
(1.199 -2.89749e-05 -0.000180582)
(1.19918 -2.99643e-05 -0.000113704)
(1.19934 -3.65195e-05 -7.05059e-05)
(1.19948 -4.43961e-05 -4.05803e-05)
(1.33311 -0.0186144 -0.00955196)
(1.21015 -0.0604138 -0.0201058)
(1.1855 -0.027668 -0.0142279)
(1.1886 -0.0105856 -0.00801393)
(1.19211 -0.00480258 -0.00457574)
(1.19499 -0.00249205 -0.00279488)
(1.19686 -0.00140072 -0.00174116)
(1.19802 -0.000822379 -0.00109231)
(1.19874 -0.000496448 -0.000689871)
(1.1992 -0.000305189 -0.000437908)
(1.19949 -0.000188858 -0.00027819)
(1.19967 -0.000115385 -0.00017666)
(1.19978 -6.85105e-05 -0.000112265)
(1.19986 -3.75426e-05 -6.97465e-05)
(1.1999 -1.59194e-05 -4.01377e-05)
(1.25747 0.000863545 -0.0137269)
(1.21859 -0.0176432 -0.020304)
(1.20092 -0.0159378 -0.0127917)
(1.19635 -0.0101318 -0.00679239)
(1.19589 -0.00600196 -0.00383934)
(1.19686 -0.00355884 -0.00238118)
(1.19787 -0.00214239 -0.00152711)
(1.19859 -0.00130945 -0.000981342)
(1.19908 -0.000809724 -0.000631442)
(1.19941 -0.000507847 -0.000406897)
(1.19962 -0.000318945 -0.000260545)
(1.19975 -0.000200999 -0.000167072)
(1.19984 -0.000125267 -0.000108147)
(1.1999 -7.48041e-05 -6.76962e-05)
(1.19993 -4.08559e-05 -3.96369e-05)
(1.32665 0.0859526 0.0012889)
(1.19022 0.00335177 -0.0136282)
(1.1958 -0.00539898 -0.0088788)
(1.19918 -0.00732849 -0.00494626)
(1.1986 -0.00549339 -0.00292758)
(1.19869 -0.00362599 -0.00189734)
(1.199 -0.0023213 -0.0012623)
(1.19929 -0.00147521 -0.000838226)
(1.19951 -0.000937187 -0.000554568)
(1.19968 -0.000596127 -0.000363828)
(1.19979 -0.000381046 -0.000236561)
(1.19987 -0.000242124 -0.00015647)
(1.19992 -0.000150922 -0.000101974)
(1.19995 -9.04998e-05 -6.36219e-05)
(1.19997 -5.10545e-05 -3.77437e-05)
(1.23198 -0.201968 0.22125)
(0.767261 -0.363836 -0.0399021)
(1.46809 0.0536884 -0.0388886)
(1.22108 -0.0985742 0.0319309)
(1.11572 -0.00272056 -0.0533443)
(1.21939 -0.1741 -0.0903046)
(1.15599 -0.0637924 0.00421241)
(1.00659 -0.219741 -0.02555)
(1.14737 0.007606 -0.00909986)
(1.17558 -0.0843514 0.028055)
(1.1513 -0.0333543 -0.0037182)
(1.32821 -0.0186069 -0.122862)
(1.25168 -0.0181325 -0.119893)
(1.39829 0.0293312 6.28519e-05)
(1.22132 -0.0450507 0.0640293)
(1.32957 0.00840566 0.0383729)
(1.19521 -0.0167909 0.0853873)
(1.24847 -0.0101911 -0.120382)
(1.22214 0.00827708 -0.151474)
(1.32297 0.00194031 0.0408716)
(1.19217 -0.0198075 0.0878908)
(1.32326 -0.0420464 0.0240362)
(1.17814 -0.0129014 0.0536266)
(1.17494 0.0374956 -0.0455836)
(1.35012 0.028723 -0.0437131)
(1.17887 -0.0536587 0.0129294)
(0.746165 -0.370214 -0.0386709)
(1.39865 -0.0578799 -0.0253879)
(1.22041 -0.187014 -0.0624063)
(0.765788 -0.357668 -0.0158177)
(1.40882 0.000126446 -0.00228269)
(1.22629 -0.136852 -0.00318014)
(1.1717 0.0328472 -0.0438575)
(1.32928 0.068965 -0.0173149)
(1.18754 -0.0113585 0.000518721)
(0.761703 -0.358447 -0.0194715)
(1.39687 -0.0188165 -0.00798173)
(1.22416 -0.146256 -0.0192375)
(1.18176 0.00493973 -0.0136813)
(1.82989 -0.354157 -0.124256)
(2.01935 0.110439 -0.0497889)
(-0.493511 -0.0396853 -0.0992436)
(1.08936 -0.0408883 -0.0211436)
(0.915061 0.049745 -0.17286)
(0.512491 -0.371137 -0.257948)
(0.984002 -0.168693 0.0244178)
(1.14544 -0.117357 -0.07188)
(0.932542 -0.17179 -0.10127)
(1.13224 -0.0383707 -0.0185966)
(1.44747 -0.00144318 0.190019)
(0.613131 0.38091 -0.276004)
(1.46387 -0.0233443 -0.0681048)
(1.44993 -0.0376911 0.173581)
(1.39542 0.0624601 0.0213117)
(0.735524 -0.074582 -0.317934)
(1.37806 -0.000401656 0.154682)
(0.71728 0.0566279 -0.308372)
(1.34818 -0.0262741 0.00490332)
(1.39136 -0.00112744 0.166256)
(1.344 0.043366 -0.00340035)
(0.712581 -0.0395746 -0.30586)
(0.714178 0.210909 -0.296734)
(1.35848 0.000570874 -0.0520742)
(1.209 -0.0288024 -0.192747)
(1.19391 -0.00133324 0.01052)
(1.16442 -0.0417527 0.0162156)
(1.17269 -0.022248 0.00231972)
(1.73001 -0.395967 -0.0370268)
(-0.452817 -0.0477076 -0.0685147)
(1.98226 0.0272319 -0.00256326)
(1.7217 -0.413066 -0.0293702)
(1.96796 0.0133754 -0.0308797)
(-0.446709 -0.0465636 -0.0179088)
(1.2365 -0.0134561 -0.0709892)
(1.25992 0.0747171 -0.0528437)
(1.21777 0.072843 -0.0645212)
(1.26819 0.000629114 0.00959363)
(1.22777 -0.017024 0.0102454)
(1.2721 0.0161136 0.00679554)
(1.21149 0.0323113 0.00545559)
(1.22487 0.102514 -0.0597626)
(1.33631 0.0541401 -0.0246539)
(1.24576 0.0339769 -0.0291662)
(1.1996 0.00292805 -0.0128155)
(1.18924 -0.0102029 0.00134547)
(1.18833 -0.00935365 -0.00099591)
(1.69941 -0.399471 -0.0227332)
(-0.436877 -0.0491021 -0.0377568)
(1.95325 0.00202791 0.0170091)
(1.70218 -0.40604 0.0036335)
(1.94423 0.00227367 -0.0198489)
(-0.432819 -0.0499598 -0.00814703)
(1.22813 -0.0156574 -0.0207294)
(1.26229 0.0363139 -0.00994984)
(1.21253 0.0442414 -0.0167849)
(1.23045 0.0714222 -0.0162481)
(1.32373 0.0778039 -0.015713)
(1.23253 0.0611788 -0.00999579)
(1.19343 -0.00259524 -0.0101363)
(1.66682 -0.401143 -0.179876)
(0.070852 -0.248064 -0.341859)
(0.80516 -0.234876 -0.00682349)
(1.20137 -0.188113 -0.0928684)
(-0.232849 -0.285072 -0.1907)
(1.49769 -0.159588 -0.189486)
(0.985793 0.402082 -0.43083)
(1.50562 0.0394431 -0.0699858)
(1.68065 0.0715346 -0.152382)
(1.47278 -0.0264824 -0.00513916)
(1.38692 -0.177243 -0.181907)
(0.501153 -0.202272 -0.319241)
(1.42696 0.254128 0.28382)
(1.19186 -0.0345471 0.171329)
(1.13357 -0.149081 -0.0672223)
(1.35476 0.00435554 0.142903)
(1.73561 -0.394792 -0.0965512)
(-0.458088 -0.0434346 -0.0433053)
(1.98066 0.040686 -0.0418096)
(1.98746 0.121879 0.0171908)
(1.75048 -0.386405 -0.0643438)
(-0.451241 -0.0411715 -0.0912091)
(1.41601 -0.00590893 0.17427)
(0.719652 -0.060118 -0.30919)
(1.35176 0.0501681 -0.00261141)
(1.37888 -0.00545917 0.0159187)
(1.39837 -0.000240465 0.160436)
(0.731036 0.0445725 -0.314589)
(1.37214 0.00698737 0.174703)
(0.707627 0.094855 -0.302002)
(1.3732 0.00108455 0.0214141)
(1.34543 -0.0221669 0.0173165)
(1.3558 -0.0417388 0.123506)
(0.711465 0.077966 -0.308518)
(1.08188 0.159465 0.193571)
(1.116 -0.0519375 0.020764)
(1.22313 -0.0683818 0.0231487)
(1.35257 0.134611 -0.09516)
(1.25759 0.00499172 -0.07816)
(1.21497 0.176925 -0.105112)
(1.16691 0.0953099 -0.068036)
(1.22314 -0.0373777 -0.00182022)
(1.1364 0.133634 -0.094065)
(1.70933 -0.411548 -0.00672563)
(-0.43932 -0.0485842 -0.00844261)
(1.95624 0.00539649 -0.0242107)
(1.96468 0.00599326 0.0101653)
(1.71289 -0.399609 -0.0267009)
(-0.44423 -0.0480618 -0.0467397)
(1.16598 0.06226 -0.0409766)
(1.1506 0.0449583 -0.0223532)
(1.18882 -0.0250447 0.0060164)
(1.2083 -0.00169471 -0.00148891)
(1.17861 0.0173483 -0.00380397)
(1.33187 0.0918053 -0.00539422)
(1.23779 0.0513934 -0.0129752)
(1.22953 0.0795679 -0.0288057)
(1.17851 0.0127585 -0.0225335)
(1.19803 0.0144609 -0.00266693)
(1.17344 0.0255423 -0.00404582)
(1.1802 0.040736 -0.0185893)
(1.16016 0.03712 -0.0145466)
(1.69334 -0.401139 0.00756389)
(1.94177 0.00105334 0.0213872)
(-0.429709 -0.0501517 -0.0377274)
(1.18576 0.0325286 -0.011325)
(1.16436 0.0339804 -0.0107604)
(1.18535 -0.00497608 -0.00464733)
(1.19188 0.0222577 -0.005911)
(1.16962 0.0296098 -0.0066773)
(1.3207 0.084962 0.00339513)
(1.22901 0.0691 -0.0130367)
(1.18314 0.00164311 -0.0127963)
(1.1872 0.0292272 -0.0122695)
(1.16662 0.0329197 -0.0118466)
(1.11782 -0.11666 0.0447366)
(0.421888 -0.0689083 -0.1541)
(0.0835117 0.147261 0.0340933)
(1.02547 -0.08419 0.18992)
(1.01028 -0.23966 -0.0438679)
(0.282371 -0.203255 -0.0975268)
(1.17575 -0.121275 -0.0746301)
(1.41568 0.170832 -0.0149989)
(1.62141 0.105392 -0.260301)
(1.29737 0.107537 -0.105437)
(1.53406 0.269351 0.0286614)
(1.18605 -0.0448978 0.0170081)
(1.22246 -0.0253199 -0.113893)
(1.21054 -0.0248064 0.0277468)
(1.17858 -0.0431298 0.0432782)
(1.15682 -0.0313821 -0.00232527)
(1.17214 -0.0202891 0.0594163)
(1.16852 -0.0212064 0.00288937)
(1.23227 0.0128653 -0.0432378)
(1.51569 -0.00701928 -0.0779062)
(1.23705 0.00759512 -0.0430949)
(1.50927 0.0396033 -0.0793127)
(1.20833 -0.0180235 0.026972)
(1.20246 -0.00253186 -0.131665)
(1.20396 -0.00738931 0.0193727)
(1.16933 -0.022621 0.0617133)
(1.16761 -0.0213459 0.00428312)
(1.16641 -0.0148943 0.0384596)
(1.17595 -0.0210962 0.00087917)
(1.33147 0.146342 -0.0908275)
(1.5481 -0.00814953 -0.0797656)
(1.28694 0.0669139 -0.100418)
(1.64471 0.0360824 -0.0523474)
(1.16186 0.00295447 -0.0203358)
(1.20762 -0.147064 -0.0531907)
(1.18755 -0.0487938 -0.0239417)
(1.01165 -0.215394 -0.0130986)
(1.16336 0.00545939 -0.010478)
(1.20156 -0.105607 -0.00342288)
(1.17502 -0.0339431 -0.00607331)
(1.24349 -0.102277 -0.0579427)
(1.24689 0.000683967 -0.0632595)
(1.24473 -0.0200778 -0.0767933)
(1.34377 -0.00638761 0.00155779)
(1.24149 -0.0618063 0.00168234)
(1.26928 0.00401209 0.0110349)
(1.23222 -0.016965 0.0110616)
(1.16656 0.00450856 -0.0156904)
(1.20324 -0.114077 -0.0197336)
(1.18177 -0.0383538 -0.0162342)
(1.23986 -0.0723661 -0.0197882)
(1.2564 0.00367799 -0.0143456)
(1.23475 -0.0169792 -0.0215098)
(1.14538 -0.471778 -0.0610963)
(0.972651 -0.136634 0.192685)
(1.05457 -0.32767 -0.107806)
(0.443759 -0.199249 0.0816688)
(1.39109 0.017619 -0.23261)
(1.63767 0.117443 -0.266161)
(1.3395 0.0191783 -0.182583)
(1.57227 0.160163 -0.183296)
(1.355 -0.556392 -0.0720531)
(0.714028 -0.362586 -0.0650159)
(-0.190959 -0.263378 -0.0674833)
(1.24576 -0.351607 -0.0340225)
(1.15274 -0.387029 -0.0779316)
(1.45125 -0.502204 -0.0256662)
(-0.20901 -0.277941 -0.074968)
(1.4572 -0.263207 -0.0303235)
(1.39307 -0.121958 -0.0616596)
(1.67516 0.0504646 -0.0418965)
(1.41391 -0.0321916 -0.0233125)
(1.70241 0.00294615 -0.0231684)
(1.30357 -0.230367 -0.118306)
(1.51708 -0.110416 -0.0317911)
(1.11708 -0.0757933 -0.0204916)
(1.00827 -0.250783 -0.130933)
(1.16659 -0.121969 -0.0765834)
(1.11743 -0.0429745 0.0993011)
(1.14812 -0.0974778 -0.0277839)
(1.11979 -0.0408381 0.0319752)
(1.04681 -0.154353 -0.0974054)
(1.27774 -0.0117036 0.281112)
(1.19542 0.202107 0.210721)
(1.27038 -0.0581361 -0.114116)
(1.15062 -0.078922 0.212208)
(1.28802 -0.0231674 0.293183)
(1.14011 -0.0285913 0.212838)
(1.12801 -0.0193564 0.156949)
(1.24793 0.0130459 -0.0427114)
(1.51253 0.0470146 -0.0795775)
(1.23768 0.0154263 -0.0441541)
(1.52592 0.00592463 -0.0746316)
(1.2611 -0.0195338 0.270455)
(1.26957 -0.0224919 -0.12266)
(1.10148 -0.0093525 0.155949)
(1.11785 -0.0164585 0.187204)
(1.12505 -0.0321541 0.198202)
(1.2505 -0.00991325 0.25391)
(1.11833 -0.00388979 0.154836)
(1.23364 -0.0103646 0.245672)
(1.0977 0.00477085 0.156448)
(1.23798 -0.00104418 -0.121601)
(1.1125 -0.01725 0.19181)
(1.24319 -0.0114908 0.261231)
(1.10558 -0.0129277 0.181036)
(1.08781 0.00638888 0.1545)
(1.23759 0.0199479 -0.0622234)
(1.54927 0.042363 -0.0680584)
(1.25415 0.0621721 -0.0658404)
(1.52009 -0.0209846 -0.0832198)
(1.23059 -0.00678748 0.274051)
(1.23591 0.00100605 -0.1283)
(1.05807 0.117941 0.138993)
(1.0876 -0.0348841 0.164516)
(1.10777 -0.0125817 0.20397)
(1.21006 -0.0547927 0.213766)
(1.09085 0.0230206 0.154681)
(1.41323 -0.499918 -0.014427)
(-0.187364 -0.280847 -0.0633588)
(1.20096 -0.367224 -0.0418299)
(0.766025 -0.360218 -0.0224236)
(1.38095 -0.529107 -0.039966)
(1.22404 -0.345675 -0.0151963)
(-0.177422 -0.266564 -0.0361994)
(1.49196 -0.145108 -0.00631532)
(1.66945 0.00354783 -0.0231016)
(1.34252 -0.137543 -0.0464276)
(1.42807 0.0148547 -0.00932351)
(1.45009 -0.195203 -0.0401256)
(1.65887 0.019596 -0.0179612)
(1.37739 -0.0726795 -0.00648228)
(1.3855 -0.516269 -0.0223065)
(0.75632 -0.363944 -0.0256501)
(-0.168477 -0.266988 -0.023485)
(1.21596 -0.344046 -0.0110406)
(1.20824 -0.356221 -0.0247206)
(1.39623 -0.500212 -0.010997)
(-0.175599 -0.273773 -0.0402436)
(1.45522 -0.177112 -0.0212796)
(1.40011 -0.0299257 -0.013794)
(1.64663 0.0100326 -0.00833889)
(1.36099 -0.0842838 -0.00323532)
(1.65255 0.00124757 -0.0110806)
(1.35201 -0.109151 -0.0227261)
(1.47169 -0.156066 -0.00496296)
(1.3852 -0.498404 -0.010694)
(-0.166822 -0.269169 -0.029797)
(1.20872 -0.348206 -0.0172696)
(0.765641 -0.354693 -0.0155465)
(1.38389 -0.506393 -0.0148375)
(1.21004 -0.34171 -0.0115006)
(-0.160324 -0.265603 -0.0214114)
(1.45829 -0.159402 -0.00552359)
(1.64216 0.00284134 -0.00423248)
(1.35086 -0.0988096 -0.0132038)
(1.39751 -0.00630047 -0.00097062)
(1.45485 -0.168279 -0.0122256)
(1.6357 0.00644787 -0.00370556)
(1.3512 -0.0883704 -0.00370225)
(1.37843 -0.498611 -0.0135743)
(0.76511 -0.353358 -0.0193093)
(1.20626 -0.341775 -0.0158119)
(-0.158089 -0.26522 -0.0297084)
(1.44944 -0.163056 -0.00916181)
(1.39072 -0.0138522 -0.00465176)
(1.63161 0.00406628 -0.000247843)
(1.34568 -0.0937015 -0.00934954)
(-0.286821 0.28278 -0.186033)
(-0.531838 -0.0269696 -0.180222)
(0.212476 0.0446053 -0.00123161)
(-0.446592 0.397392 -0.281817)
(2.25239 0.406897 -0.18694)
(2.20178 0.103277 -0.163422)
(-0.0957787 0.0460352 -0.220976)
(1.92816 -0.175479 -0.104314)
(2.01857 0.166014 -0.0952665)
(1.97861 -0.0822353 -0.118901)
(-0.0685122 0.0124187 -0.000336307)
(-0.332036 0.559969 -0.182719)
(1.58573 -0.465387 -0.128504)
(0.925983 -0.278611 0.130681)
(2.06994 -0.0445114 -0.183956)
(-0.232592 0.233088 -0.158749)
(0.709698 -0.404363 -0.0701492)
(-0.397007 0.00179858 0.00802785)
(0.508109 -0.0757764 -0.00932586)
(-0.19803 0.207451 -0.0567999)
(1.04437 -0.110665 -0.0508056)
(0.0352448 0.0645951 -0.00347844)
(1.12372 -0.210674 -0.130949)
(0.684554 -0.355484 -0.226553)
(1.04324 -0.23355 -0.0773767)
(1.10769 -0.178793 -0.0933412)
(0.546282 -0.322089 -0.233064)
(1.22916 0.0657382 -0.160533)
(1.06885 0.0204547 -0.331241)
(0.702357 -0.089716 -0.30741)
(1.07816 0.0630025 -0.148713)
(1.16235 -0.119071 -0.379972)
(1.41199 0.146909 0.0363088)
(1.5343 0.0864426 -0.029323)
(1.49801 0.192048 0.0771236)
(1.29276 0.0386767 -0.0175335)
(1.25417 0.0830422 -0.153083)
(1.12298 -0.069523 -0.387743)
(0.722899 0.0159579 -0.313319)
(1.16222 0.0811957 -0.394517)
(1.17859 0.0184799 -0.158147)
(1.0994 -0.0171654 -0.160148)
(1.06072 0.0902204 -0.391733)
(0.716412 -0.0553801 -0.307598)
(1.10237 0.0347469 -0.161133)
(1.05634 -0.0803027 -0.390589)
(1.22942 0.0026211 -0.0462441)
(1.51135 0.0409928 -0.0805594)
(1.51092 -0.017652 -0.0810978)
(1.22914 0.0193443 -0.0463214)
(1.09628 0.0337924 -0.163)
(1.04985 -0.070441 -0.396276)
(0.712768 0.0621246 -0.307466)
(1.05435 0.0891313 -0.395345)
(1.09451 -0.0102579 -0.162471)
(1.35324 0.174955 -0.088226)
(1.26066 0.140152 -0.121766)
(1.30212 0.117775 0.00294878)
(1.38909 0.138404 -0.110507)
(1.17925 0.173464 -0.179962)
(1.08931 0.141388 -0.237659)
(0.734418 0.0797056 -0.306568)
(1.18374 0.0873273 -0.168374)
(1.06383 0.189853 -0.232943)
(1.47153 0.181424 -0.137767)
(1.77616 0.0390612 -0.126831)
(1.43246 0.198949 -0.120378)
(1.612 0.092974 -0.0989583)
(1.66805 0.173441 -0.141624)
(1.4465 0.138955 -0.10893)
(1.35797 0.220293 -0.0917072)
(0.773922 0.249336 -0.369286)
(1.20625 0.309679 -0.208322)
(-0.183545 0.198414 -0.0684546)
(0.698425 -0.421164 -0.0420614)
(-0.454529 -0.0489666 -0.012502)
(-0.17414 0.186043 0.0272399)
(0.723208 -0.424937 -0.0347966)
(-0.0220268 -0.0316966 -0.0354561)
(1.87248 -0.194399 -0.0232526)
(1.98177 -0.0131334 -0.00999124)
(-0.0797063 0.0199916 -0.00450629)
(1.85488 -0.238302 -0.00371022)
(-0.000707722 -0.0409886 -0.0242827)
(1.85441 -0.206255 -0.0421089)
(1.97766 -0.00447041 0.0309875)
(1.85752 -0.22528 0.0358698)
(-0.0234744 -0.0271678 -0.0166316)
(-0.168414 0.187766 0.0102343)
(0.713918 -0.406148 -0.0291448)
(-0.446926 -0.0461226 -0.0410647)
(0.720779 -0.405433 -0.0360825)
(-0.180502 0.19623 -0.0564757)
(1.37381 0.15711 0.018086)
(1.27278 0.154377 -0.0135906)
(1.27486 0.152368 -0.00317495)
(1.37261 0.159029 -0.0324183)
(1.41564 0.174186 -0.0224556)
(1.56088 0.150094 0.00598592)
(1.41782 0.174368 -0.00971702)
(1.55694 0.148669 -0.0305295)
(1.3645 0.167703 -0.0205061)
(1.26492 0.160682 -0.0284702)
(1.36651 0.167006 -0.0130353)
(1.26208 0.163028 -0.00557132)
(1.42312 0.163954 0.0209981)
(1.5605 0.138569 -0.0428865)
(1.56178 0.137561 0.034389)
(1.42199 0.165552 -0.0340678)
(-0.177229 0.195073 -0.0536805)
(0.712941 -0.410954 -0.0267871)
(-0.436863 -0.0497312 -0.00568781)
(-0.169307 0.188153 0.0246655)
(0.713944 -0.411857 -0.0180674)
(-0.0170882 -0.0326214 -0.0146283)
(1.8338 -0.216095 0.0124265)
(1.94976 -0.000736007 -0.0185792)
(-0.0158346 -0.0307819 -0.0103003)
(1.82949 -0.218325 -0.0220589)
(-0.0128045 -0.0330118 -0.0100958)
(1.8259 -0.214258 -0.0253926)
(1.94875 0.000948647 0.0229922)
(1.82943 -0.216029 0.0209371)
(-0.0172712 -0.0323463 -0.0155273)
(-0.168828 0.188346 0.0247482)
(0.711155 -0.407903 -0.0206716)
(-0.433368 -0.0495742 -0.0349707)
(0.711892 -0.408342 -0.0234516)
(-0.177094 0.195245 -0.0541893)
(1.36149 0.16661 0.0168568)
(1.2573 0.16338 -0.00610287)
(1.25882 0.162444 -0.00490198)
(1.3599 0.167612 -0.0257764)
(1.41109 0.173918 -0.0246773)
(1.55064 0.148715 0.0281075)
(1.41243 0.172787 0.0155383)
(1.54949 0.149913 -0.033965)
(1.36121 0.16766 -0.0226687)
(1.26023 0.162268 -0.00815578)
(1.36277 0.166337 0.0124508)
(1.25872 0.163482 -0.00379868)
(1.41111 0.17296 0.0200125)
(1.54776 0.150053 -0.0362115)
(1.54924 0.148862 0.0332417)
(1.40959 0.173843 -0.0275605)
(1.09747 -0.466916 -0.131931)
(-0.447433 -0.07665 -0.235322)
(0.500834 -0.206627 -0.0442908)
(0.190319 -0.178669 -0.0403684)
(1.47301 -0.506074 -0.0905296)
(1.11942 -0.1883 -0.073712)
(-0.115674 0.195546 0.0637254)
(1.15141 -0.304646 -0.107299)
(1.30958 -0.209248 0.00593222)
(1.52271 -0.530508 -0.133586)
(1.43411 -0.451097 -0.139964)
(1.21415 -0.470987 0.0770842)
(1.35212 -0.281335 -0.0759179)
(1.42754 0.0532875 -0.178634)
(1.95375 0.313317 -0.168108)
(1.90222 0.133942 -0.0942486)
(1.50056 0.195999 -0.156119)
(1.26393 -0.011986 -0.327105)
(1.18377 -0.142977 -0.458729)
(1.53544 0.00357462 -0.621482)
(1.20272 -0.0372988 -0.247683)
(1.13477 -0.142361 -0.494304)
(1.35764 -0.0133804 -0.186041)
(1.44908 -0.384911 -0.0418155)
(0.829222 -0.40622 -0.0724949)
(1.80531 -0.000941907 -0.0530871)
(1.16605 -0.216258 -0.171495)
(1.18604 -0.360527 -0.10782)
(1.13036 -0.432227 -0.0494638)
(1.17884 -0.297163 -0.152871)
(-0.0956797 0.206737 -0.0270654)
(1.30562 -0.281291 0.117191)
(1.14739 -0.360354 -0.116863)
(1.37391 -0.292189 0.0384807)
(1.17927 -0.389928 -0.132116)
(1.34016 -0.385756 -0.0581633)
(0.915457 -0.437973 -0.0576804)
(1.32263 -0.308832 0.0517431)
(1.0939 -0.318017 -0.138148)
(1.25529 -0.185269 0.0371094)
(-0.161211 0.192814 -0.0282913)
(0.715098 -0.403815 -0.0260658)
(-0.452527 -0.0410788 -0.0512794)
(-0.183761 0.197325 -0.0528345)
(0.768604 -0.404124 -0.0626753)
(0.0744919 -0.0977254 -0.0520808)
(2.01211 -0.0259718 0.0654735)
(1.87531 -0.180931 -0.0681641)
(-0.0504726 -0.00352975 -0.00375835)
(1.87901 -0.261483 0.0876189)
(0.00965212 -0.0628449 -0.0888628)
(1.92797 -0.137323 -0.0286645)
(2.03954 -0.0436795 0.034603)
(-0.140618 0.0912171 -0.0204976)
(1.90085 -0.294515 0.0645295)
(-0.191641 0.209321 -0.108673)
(0.679831 -0.427787 -0.0972986)
(-0.474479 -0.0486528 -0.0263106)
(-0.176627 0.182584 0.0312397)
(0.760313 -0.444696 -0.0873534)
(1.25249 0.0178209 -0.0412028)
(1.53962 0.034501 -0.0472182)
(1.2753 0.0333664 -0.0291792)
(1.52129 0.0566855 -0.0728394)
(1.11154 0.0373211 -0.162747)
(1.06523 -0.079335 -0.392376)
(0.722099 0.0500517 -0.310224)
(1.10633 -0.0140214 -0.161365)
(1.07079 0.0895424 -0.395752)
(1.12376 -0.00704316 -0.161021)
(1.09421 0.0952777 -0.397186)
(0.726676 -0.0665704 -0.312598)
(1.13641 0.0525803 -0.162886)
(1.08299 -0.0779069 -0.39034)
(1.23809 0.0251474 -0.0484084)
(1.51142 -0.0172764 -0.0797283)
(1.23337 0.00969796 -0.0502862)
(1.5212 0.0367184 -0.0738311)
(1.10966 0.0549011 -0.177922)
(1.03877 0.0186317 -0.458834)
(0.713265 0.11457 -0.310535)
(1.10361 0.0417965 -0.191545)
(1.05654 0.100733 -0.415791)
(1.09683 -0.00154553 -0.167892)
(1.05488 0.0960195 -0.398401)
(0.710794 -0.00585553 -0.305439)
(1.10194 0.0412006 -0.166896)
(1.04224 -0.0577265 -0.412836)
(1.17816 -0.0969255 0.0815207)
(1.19252 0.0831539 -0.161616)
(1.23894 -0.0111676 0.0492132)
(1.15925 0.0123619 -0.186714)
(1.15699 0.24621 -0.211142)
(1.12983 0.104992 0.114253)
(1.17664 0.297373 -0.20301)
(1.2151 -0.0253543 0.19379)
(1.35861 0.16929 -0.0234565)
(1.25436 0.181299 -0.0659176)
(1.33784 0.198161 -0.0839344)
(1.24465 0.169018 -0.015939)
(1.43172 0.158593 0.0137822)
(1.57685 0.128401 -0.0555802)
(1.43486 0.157407 -0.0497318)
(1.5771 0.131667 0.0265932)
(1.41534 0.173714 -0.027019)
(1.56153 0.172007 -0.0511618)
(1.39665 0.204946 -0.0808185)
(1.5696 0.143558 -0.0359021)
(1.38116 0.150965 0.0132573)
(1.28086 0.146169 -0.0323291)
(1.38452 0.150918 -0.0486199)
(1.28728 0.143577 -0.00369154)
(1.13917 0.116708 -0.0126349)
(1.17869 0.134826 -0.0558444)
(1.14783 0.0996637 -0.055351)
(1.16239 0.144022 -0.0158636)
(1.18985 0.0114415 0.0335651)
(1.21354 0.0800093 -0.0435068)
(1.21952 0.0720473 0.0120059)
(1.18802 0.0197666 -0.0584351)
(-0.169345 0.188177 0.0228495)
(0.713366 -0.408238 -0.0215275)
(-0.439796 -0.0481954 -0.0354676)
(-0.178036 0.195227 -0.0541959)
(0.714845 -0.408414 -0.0255831)
(-0.0114243 -0.0338764 -0.012348)
(1.96148 0.000474972 0.0245036)
(1.83907 -0.21304 -0.0306107)
(-0.0186671 -0.0312042 -0.0149534)
(1.84225 -0.218008 0.0241159)
(-0.0185241 -0.0321614 -0.0183374)
(1.84643 -0.213671 0.00105651)
(1.96192 -0.00433639 -0.0172937)
(-0.0260322 -0.0230343 -0.011209)
(1.8394 -0.224085 -0.0185057)
(-0.179005 0.195755 -0.0567505)
(0.712493 -0.414283 -0.0349724)
(-0.444648 -0.0490529 -0.00649443)
(-0.170091 0.187237 0.022733)
(0.717819 -0.416475 -0.0212412)
(1.1851 0.0366487 0.011782)
(1.20703 0.0936912 -0.0189794)
(1.20777 0.0916747 0.00225744)
(1.18575 0.0376856 -0.026423)
(1.16314 0.0739406 0.00190898)
(1.19139 0.114486 -0.0321534)
(1.18861 0.117987 -0.00374451)
(1.16431 0.0716582 -0.0396307)
(1.36381 0.16644 -0.0211755)
(1.26401 0.160278 -0.013833)
(1.36562 0.164912 0.00532253)
(1.26232 0.162025 -0.0035224)
(1.41617 0.168989 0.0208166)
(1.55338 0.14493 -0.037782)
(1.41522 0.170239 -0.0283271)
(1.55413 0.143499 0.0335502)
(1.41386 0.172868 -0.0232048)
(1.55441 0.14747 0.0210562)
(1.41547 0.171737 0.00838491)
(1.55266 0.148121 -0.0323721)
(1.36679 0.162462 0.017872)
(1.26493 0.159356 -0.00689639)
(1.36572 0.163837 -0.0264627)
(1.26626 0.158159 -0.00320511)
(1.16991 0.0615747 -0.00184336)
(1.19444 0.109526 -0.0161388)
(1.17104 0.0606378 -0.0212277)
(1.1928 0.111035 -0.00401997)
(1.17969 0.0463274 0.00359992)
(1.19949 0.101278 -0.0107313)
(1.20018 0.100441 -0.000696478)
(1.17973 0.0466575 -0.0149047)
(1.82248 -0.215143 0.0174346)
(1.93704 0.000497481 -0.0169069)
(-0.0133128 -0.0324402 -0.0111433)
(0.709975 -0.407672 -0.0265626)
(-0.429058 -0.050711 -0.0113374)
(-0.168046 0.188069 0.0226548)
(1.17518 0.0507807 -0.00265588)
(1.19298 0.105787 -0.00963497)
(1.19392 0.105232 -0.00400049)
(1.17493 0.0509502 -0.0121686)
(1.17186 0.0564419 -0.00616352)
(1.19342 0.108248 -0.00913448)
(1.19206 0.109032 -0.00591739)
(1.17279 0.0559963 -0.0116411)
(1.25432 0.164693 -0.00854148)
(1.35805 0.168842 0.0137108)
(1.25233 0.165679 -0.00781828)
(1.54581 0.152054 0.0315694)
(1.40772 0.175134 0.0172291)
(1.17173 0.0544894 -0.0120658)
(1.19011 0.108425 -0.00909529)
(1.17235 0.0541998 -0.0103347)
(1.1887 0.10912 -0.0109299)
(0.629125 -0.139897 -0.210607)
(0.615191 -0.0353483 -0.241422)
(0.463895 -0.253909 -0.0409087)
(-0.17436 0.239111 -0.120572)
(0.917015 -0.0872219 -0.427561)
(1.16476 -0.00284307 0.00428358)
(1.16 -0.043042 0.0147489)
(1.17705 -0.0146043 0.00338878)
(1.14817 0.00705168 -0.00856717)
(1.16707 -0.00242919 -0.00642168)
(1.15463 -0.0246376 -0.00687666)
(1.17355 -0.0122192 -0.00548084)
(1.05351 0.414263 -0.142185)
(1.42194 0.467177 -0.183189)
(1.21148 0.0337118 -0.233706)
(1.20792 -0.0181096 -0.229543)
(1.31683 0.0899942 -0.258845)
(1.30003 0.0587856 -0.256508)
(0.462963 -0.0173108 -0.18529)
(0.328365 -0.306343 -0.0447461)
(0.0371986 -0.0324449 -0.099722)
(1.78469 0.292603 -0.4041)
(1.5686 0.405606 -0.238395)
(1.34446 -0.307697 -0.167678)
(1.33638 -0.155769 0.0668728)
(1.28289 -0.146885 0.281868)
(1.31156 -0.235397 -0.262606)
(1.27727 -0.293219 -0.187035)
(1.36381 -0.189937 -0.281027)
(1.27885 -0.142716 0.052543)
(1.10348 -0.0207781 -0.00423401)
(1.03735 0.00271839 -0.0993523)
(1.11865 -0.0386391 -0.0394722)
(1.11323 -0.00606577 0.000545384)
(1.11355 -0.0189389 -0.010309)
(1.04948 -0.0879441 -0.0701738)
(1.12123 -0.00551643 0.000575524)
(1.21726 -0.0165385 -0.233412)
(1.20733 0.033992 -0.230397)
(1.2724 0.0329623 -0.249388)
(1.27561 0.0711744 -0.247575)
(0.0214923 0.221635 -0.119577)
(1.9264 -0.246081 -0.0702639)
(1.87504 -0.267279 -0.0349515)
(1.35713 -0.486446 0.0227115)
(1.21541 -0.3025 0.142459)
(1.92451 -0.153061 -0.0721314)
(0.225826 0.0898432 0.028898)
(1.12476 -0.014274 0.0266113)
(0.684745 0.0272627 -0.20129)
(0.766792 -0.00660554 -0.151576)
(1.14725 -0.0320552 -0.154571)
(1.13198 -0.0191445 -0.0619407)
(0.495259 -0.136034 -0.0964239)
(1.15797 -0.0548454 -0.176396)
(1.03421 0.0505501 0.128821)
(0.566495 0.0170522 -0.0635688)
(1.2901 0.095095 0.514508)
(0.641105 0.0731376 -0.287385)
(1.14557 0.144355 0.421193)
(1.2222 0.0100009 0.209654)
(0.521906 -0.0415548 -0.0708619)
(1.24724 0.0956114 -0.242864)
(1.22163 0.0731424 -0.231159)
(1.20416 -0.0560962 0.00646866)
(1.26368 0.11977 0.36483)
(0.737005 0.0459345 -0.323023)
(0.625682 -0.0431736 -0.087292)
(1.27005 -0.13237 0.357849)
(1.19673 0.0611763 0.0149461)