/*--------------------------------*- C++ -*----------------------------------*\
| =========                 |                                                 |
| \\      /  F ield         | OpenFOAM: The Open Source CFD Toolbox           |
|  \\    /   O peration     | Version:  2012                                  |
|   \\  /    A nd           | Website:  www.openfoam.com                      |
|    \\/     M anipulation  |                                                 |
\*---------------------------------------------------------------------------*/
FoamFile
{
    version     2.0;
    format      ascii;
    class       volVectorField;
    location    "0.104/fluid";
    object      U_0;
}
// * * * * * * * * * * * * * * * * * * * * * * * * * * * * * * * * * * * * * //

dimensions      [0 1 -1 0 0 0 0];


internalField   nonuniform List<vector> 
16421
(
(1.14822 -0.00668368 -0.0172435)
(1.17171 -0.00214562 0.00126462)
(1.18564 -0.000743165 -0.000205623)
(1.1916 -0.000311143 -0.000186286)
(1.19468 -0.00012662 -0.000111683)
(1.19636 -6.22637e-05 -6.85264e-05)
(1.19736 -4.07216e-05 -4.26221e-05)
(1.19799 -3.20593e-05 -2.66692e-05)
(1.19841 -2.8022e-05 -1.71898e-05)
(1.1987 -2.62776e-05 -1.15601e-05)
(1.19891 -2.97355e-05 -7.09766e-06)
(1.19909 -3.65734e-05 -5.00406e-06)
(1.19925 -4.40524e-05 -3.71365e-06)
(1.22265 -0.0514665 -0.129871)
(1.17918 -0.0363057 0.0226124)
(1.18286 -0.0130055 0.00162379)
(1.18895 -0.00572513 1.01057e-05)
(1.19302 -0.0028913 -0.000156333)
(1.19555 -0.00158756 -0.000104719)
(1.19711 -0.000915323 -6.76954e-05)
(1.19807 -0.000544192 -4.40496e-05)
(1.19868 -0.000329255 -2.86418e-05)
(1.19906 -0.000202083 -1.9042e-05)
(1.19931 -0.000123683 -1.36292e-05)
(1.19947 -6.99866e-05 -1.07203e-05)
(1.19958 -3.65015e-05 -9.03118e-06)
(1.19964 -1.35805e-05 -8.15753e-06)
(1.21887 -0.015402 -0.115422)
(1.19969 -0.0176798 0.0289116)
(1.19251 -0.0119725 0.00244534)
(1.19316 -0.00701869 0.000179021)
(1.19496 -0.00408548 -0.000149021)
(1.19651 -0.00241564 -0.00011254)
(1.19759 -0.00145357 -7.4045e-05)
(1.19832 -0.000887218 -4.88499e-05)
(1.1988 -0.000547801 -3.39469e-05)
(1.19911 -0.000341059 -2.33409e-05)
(1.19932 -0.000210454 -1.70671e-05)
(1.19946 -0.000129049 -1.59519e-05)
(1.19957 -7.54124e-05 -1.47771e-05)
(1.19965 -3.95969e-05 -1.42567e-05)
(1.17414 0.0181222 -0.056534)
(1.19493 -0.00847501 0.0155334)
(1.19518 -0.00922653 0.00136025)
(1.19584 -0.00646076 -2.49343e-05)
(1.19674 -0.00416221 -0.00018434)
(1.19758 -0.00261892 -0.000126018)
(1.19822 -0.00164071 -7.96094e-05)
(1.19866 -0.00102802 -5.31028e-05)
(1.19899 -0.000646803 -3.8395e-05)
(1.19921 -0.000405791 -2.82909e-05)
(1.19936 -0.000251124 -2.28207e-05)
(1.19948 -0.000154105 -2.17093e-05)
(1.19958 -9.43638e-05 -2.06778e-05)
(1.19967 -5.09188e-05 -2.07307e-05)
(1.00023 -0.221527 -0.0350714)
(1.16174 0.00432657 -0.0161395)
(1.1776 -0.00218027 -0.00664431)
(1.18718 -0.000704804 -0.00322346)
(1.19238 -0.000292134 -0.00182115)
(1.19519 -0.000120314 -0.00109551)
(1.19674 -6.13103e-05 -0.000674926)
(1.19767 -4.08151e-05 -0.000422085)
(1.19826 -3.17109e-05 -0.00026546)
(1.19865 -2.79635e-05 -0.000168327)
(1.19893 -2.73523e-05 -0.000105622)
(1.19913 -2.99974e-05 -6.77485e-05)
(1.1993 -3.66309e-05 -4.20444e-05)
(1.19946 -4.41872e-05 -2.39256e-05)
(1.3292 -0.0490963 -0.0385537)
(1.22323 -0.0842023 -0.0461266)
(1.19062 -0.0340477 -0.0157608)
(1.18733 -0.0124984 -0.00586429)
(1.19048 -0.00549325 -0.00296121)
(1.19381 -0.00276818 -0.00169493)
(1.19614 -0.00153377 -0.00103695)
(1.19758 -0.000890199 -0.000647177)
(1.19847 -0.000531702 -0.000407823)
(1.19903 -0.000323755 -0.000258048)
(1.19938 -0.000199331 -0.000163757)
(1.1996 -0.00012161 -0.000103929)
(1.19974 -7.13264e-05 -6.55623e-05)
(1.19983 -3.8434e-05 -4.0694e-05)
(1.19988 -1.55357e-05 -2.27822e-05)
(1.24851 0.00144604 -0.0597237)
(1.23796 -0.015846 -0.0544565)
(1.2108 -0.0167675 -0.0138827)
(1.19673 -0.0112693 -0.00461433)
(1.19489 -0.0067211 -0.00242318)
(1.19595 -0.00394333 -0.00143609)
(1.19726 -0.00234335 -0.000905494)
(1.19821 -0.00141493 -0.000578567)
(1.19884 -0.000866618 -0.000370962)
(1.19925 -0.000538025 -0.000238079)
(1.19951 -0.000336165 -0.000152384)
(1.19968 -0.000208989 -9.76171e-05)
(1.1998 -0.000129178 -6.20489e-05)
(1.19986 -7.6769e-05 -3.8549e-05)
(1.19991 -4.12718e-05 -2.13307e-05)
(1.33932 0.106346 -0.0237813)
(1.19172 0.0253936 -0.0355671)
(1.20057 -0.00302796 -0.00868004)
(1.19931 -0.00791209 -0.00319362)
(1.19789 -0.00609251 -0.0017969)
(1.19801 -0.00401136 -0.00112779)
(1.19853 -0.00253657 -0.000743133)
(1.19898 -0.00159416 -0.000490658)
(1.19931 -0.00100252 -0.00032205)
(1.19954 -0.00063297 -0.000211298)
(1.1997 -0.000399236 -0.000137156)
(1.1998 -0.000250728 -9.00383e-05)
(1.19987 -0.000155278 -5.76105e-05)
(1.19992 -9.38116e-05 -3.47733e-05)
(1.19995 -5.18404e-05 -1.89769e-05)
(1.0113 -0.214799 -0.0183498)
(1.16534 0.00526991 -0.0142757)
(1.1807 -0.00186559 -0.00848926)
(1.18935 -0.000609719 -0.00494118)
(1.19368 -0.000252455 -0.00299568)
(1.19593 -0.000108106 -0.0018349)
(1.19718 -5.81961e-05 -0.00113794)
(1.19794 -3.93405e-05 -0.000713401)
(1.19843 -3.10402e-05 -0.000450282)
(1.19876 -2.85896e-05 -0.000284645)
(1.199 -2.89606e-05 -0.00018042)
(1.19918 -2.99451e-05 -0.000113606)
(1.19934 -3.64972e-05 -7.04413e-05)
(1.19948 -4.43683e-05 -4.05313e-05)
(1.33305 -0.0186774 -0.00954406)
(1.21011 -0.0603805 -0.0200766)
(1.18552 -0.0276473 -0.0142052)
(1.18861 -0.0105798 -0.00800268)
(1.19212 -0.00480012 -0.00457116)
(1.19499 -0.00249078 -0.00279271)
(1.19686 -0.00139986 -0.00173976)
(1.19802 -0.000821807 -0.0010914)
(1.19874 -0.000496072 -0.000689276)
(1.1992 -0.000304943 -0.000437521)
(1.19949 -0.000188696 -0.000277939)
(1.19967 -0.00011528 -0.000176505)
(1.19978 -6.84516e-05 -0.00011217)
(1.19986 -3.75138e-05 -6.96857e-05)
(1.1999 -1.59122e-05 -4.01015e-05)
(1.2574 0.000770478 -0.0137153)
(1.21856 -0.017681 -0.0202797)
(1.20093 -0.0159406 -0.0127708)
(1.19635 -0.0101279 -0.00678253)
(1.19589 -0.00599872 -0.00383508)
(1.19686 -0.00355661 -0.00237933)
(1.19787 -0.0021409 -0.0015259)
(1.1986 -0.00130847 -0.000980525)
(1.19908 -0.000809076 -0.000630898)
(1.19941 -0.000507422 -0.000406537)
(1.19962 -0.000318653 -0.000260308)
(1.19975 -0.000200805 -0.00016693)
(1.19984 -0.000125136 -0.000108062)
(1.1999 -7.47227e-05 -6.76412e-05)
(1.19993 -4.08071e-05 -3.95984e-05)
(1.32638 0.0854009 0.00120193)
(1.19036 0.00342645 -0.0136372)
(1.19585 -0.00541158 -0.00887075)
(1.19919 -0.007326 -0.00494053)
(1.1986 -0.00548953 -0.00292474)
(1.1987 -0.00362305 -0.00189596)
(1.199 -0.00231939 -0.00126133)
(1.19929 -0.00147398 -0.000837547)
(1.19951 -0.000936393 -0.000554102)
(1.19968 -0.000595601 -0.000363508)
(1.19979 -0.000380692 -0.000236356)
(1.19987 -0.000241876 -0.000156346)
(1.19992 -0.000150752 -0.000101899)
(1.19995 -9.0387e-05 -6.35741e-05)
(1.19997 -5.0981e-05 -3.77074e-05)
(1.23121 -0.201777 0.220908)
(0.768389 -0.363298 -0.039827)
(1.46796 0.0536151 -0.0389378)
(1.22094 -0.0984658 0.0319757)
(1.11582 -0.00280353 -0.0531407)
(1.21922 -0.17378 -0.0903167)
(1.156 -0.0637443 0.00434493)
(1.00732 -0.21903 -0.0255008)
(1.14725 0.00762038 -0.00912464)
(1.17556 -0.084237 0.0279688)
(1.15134 -0.0333321 -0.00376455)
(1.32767 -0.0190906 -0.122905)
(1.25156 -0.0181541 -0.119806)
(1.39816 0.0292247 0.000169867)
(1.22116 -0.0450401 0.0638948)
(1.32944 0.00838143 0.0384141)
(1.19513 -0.0167964 0.0851755)
(1.24835 -0.0102174 -0.12029)
(1.22203 0.0082889 -0.15134)
(1.32286 0.00186933 0.0409198)
(1.19207 -0.0198472 0.0876852)
(1.32303 -0.0419735 0.0240016)
(1.1782 -0.0128696 0.0534705)
(1.17489 0.0375517 -0.0456267)
(1.35003 0.0283967 -0.0437296)
(1.17894 -0.0535323 0.0129074)
(0.747343 -0.369625 -0.0386047)
(1.39856 -0.0580426 -0.025408)
(1.22044 -0.186801 -0.0623409)
(0.766888 -0.357127 -0.0157891)
(1.40872 -9.10013e-06 -0.0022697)
(1.2262 -0.136715 -0.00317763)
(1.17187 0.0328588 -0.0438531)
(1.32905 0.0684568 -0.0172698)
(1.18773 -0.0113277 0.000455353)
(0.762804 -0.357902 -0.0194162)
(1.3968 -0.0189386 -0.00797774)
(1.2241 -0.146106 -0.0192106)
(1.18198 0.00491496 -0.0137066)
(1.82939 -0.354322 -0.124197)
(2.01873 0.109817 -0.050723)
(-0.492721 -0.0402536 -0.099006)
(1.08946 -0.0408807 -0.0211656)
(0.915585 0.0493447 -0.172783)
(0.512816 -0.371589 -0.258199)
(0.985125 -0.16804 0.0244193)
(1.14533 -0.117128 -0.0718112)
(0.932796 -0.171668 -0.101321)
(1.13212 -0.03804 -0.0188099)
(1.44724 -0.00146417 0.190204)
(0.614882 0.382045 -0.276976)
(1.46378 -0.0236806 -0.0676775)
(1.44968 -0.0374615 0.174179)
(1.39526 0.0624395 0.0214924)
(0.73595 -0.0745141 -0.318024)
(1.37801 -0.000433492 0.154929)
(0.717693 0.0566287 -0.308468)
(1.34805 -0.0263062 0.00501878)
(1.39132 -0.0011779 0.166548)
(1.34387 0.0433753 -0.00332721)
(0.71297 -0.0396397 -0.30595)
(0.714492 0.210828 -0.296772)
(1.35827 0.000527996 -0.0520184)
(1.20895 -0.0290129 -0.192721)
(1.19392 -0.00138497 0.0106023)
(1.16449 -0.0415712 0.0161841)
(1.17276 -0.0221977 0.00227082)
(1.72943 -0.39634 -0.0370273)
(-0.451988 -0.0483047 -0.0683686)
(1.98251 0.0270013 -0.00264425)
(1.72118 -0.413279 -0.0293658)
(1.96819 0.0130674 -0.030888)
(-0.44588 -0.0471853 -0.017923)
(1.23651 -0.013483 -0.0709155)
(1.25976 0.0747496 -0.0528969)
(1.21795 0.0726759 -0.0644818)
(1.2681 0.00053475 0.00958813)
(1.2277 -0.0170794 0.0102101)
(1.27182 0.0160922 0.00676511)
(1.21166 0.0321854 0.00539591)
(1.22481 0.102092 -0.0599077)
(1.33616 0.0537124 -0.0246414)
(1.24564 0.0335405 -0.029109)
(1.19961 0.00288232 -0.0127959)
(1.18936 -0.0100861 0.0012923)
(1.18838 -0.00934833 -0.00102372)
(1.69884 -0.399808 -0.0227378)
(-0.43608 -0.0497022 -0.0376944)
(1.95347 0.00174458 0.0170363)
(1.70162 -0.406361 0.00365753)
(1.94445 0.00197866 -0.0198597)
(-0.43205 -0.0505586 -0.00818363)
(1.22809 -0.0157179 -0.0207086)
(1.26201 0.0362471 -0.009951)
(1.21272 0.0440708 -0.0167896)
(1.23038 0.0708199 -0.0163958)
(1.32339 0.0772383 -0.0156403)
(1.23243 0.0605361 -0.00991862)
(1.19347 -0.00261568 -0.0101294)
(1.66577 -0.400969 -0.179968)
(0.0711469 -0.248574 -0.342024)
(0.80687 -0.234401 -0.00675904)
(1.2012 -0.18759 -0.0924777)
(-0.231199 -0.28524 -0.190249)
(1.49745 -0.15924 -0.189129)
(0.983043 0.405389 -0.429022)
(1.50563 0.0393822 -0.069962)
(1.68008 0.0709982 -0.15306)
(1.4724 -0.0267539 -0.00495744)
(1.38599 -0.177067 -0.18142)
(0.501577 -0.202301 -0.319311)
(1.42601 0.253311 0.284485)
(1.19181 -0.0343049 0.171175)
(1.13395 -0.148906 -0.0669778)
(1.35475 0.00456729 0.1434)
(1.73499 -0.394966 -0.0966819)
(-0.457249 -0.0440622 -0.0432384)
(1.98086 0.0404324 -0.0419004)
(1.98811 0.121545 0.0163259)
(1.74993 -0.386802 -0.0643971)
(-0.450386 -0.0417996 -0.0910329)
(1.41592 -0.00595141 0.17453)
(0.720056 -0.0601596 -0.309288)
(1.35164 0.0501557 -0.0025136)
(1.37873 -0.0055195 0.01605)
(1.39832 -0.000267564 0.160713)
(0.731443 0.04462 -0.314683)
(1.3721 0.00691346 0.175003)
(0.707872 0.0947814 -0.302035)
(1.37299 0.00113758 0.0214536)
(1.34527 -0.0221648 0.0174454)
(1.35571 -0.0418493 0.123603)
(0.711879 0.0779446 -0.308617)
(1.08191 0.159316 0.193839)
(1.11604 -0.0519283 0.0207698)
(1.22314 -0.0684146 0.0231133)
(1.35252 0.134345 -0.095175)
(1.25743 0.00464282 -0.0781124)
(1.215 0.176574 -0.105083)
(1.16704 0.0952137 -0.0680077)
(1.22311 -0.0374655 -0.00184987)
(1.13653 0.133392 -0.0940615)
(1.70877 -0.411857 -0.00669616)
(-0.438515 -0.0491932 -0.00851686)
(1.95646 0.0050922 -0.0242175)
(1.96491 0.00572162 0.0101818)
(1.7123 -0.399961 -0.0267025)
(-0.443404 -0.0486691 -0.0466268)
(1.1661 0.0620366 -0.04102)
(1.15067 0.0448737 -0.0224133)
(1.18894 -0.0249633 0.00595506)
(1.20835 -0.00187403 -0.0015634)
(1.17864 0.0172952 -0.00388345)
(1.33169 0.0913191 -0.00550749)
(1.2377 0.050855 -0.0129161)
(1.22947 0.0790568 -0.0289607)
(1.17871 0.0127674 -0.0225541)
(1.19814 0.0141825 -0.00274341)
(1.17356 0.0254698 -0.0041276)
(1.18036 0.040452 -0.0186493)
(1.16029 0.0370361 -0.014612)
(1.69278 -0.401464 0.00758446)
(1.942 0.000766603 0.0214126)
(-0.428937 -0.0507455 -0.0376143)
(1.18594 0.0321659 -0.0113783)
(1.16455 0.0338742 -0.0108216)
(1.18557 -0.00500177 -0.00468691)
(1.19204 0.0218758 -0.00596189)
(1.16982 0.0295013 -0.00673692)
(1.32035 0.0843726 0.00333694)
(1.22892 0.0684141 -0.013154)
(1.18339 0.00157549 -0.012791)
(1.18739 0.0287858 -0.01228)
(1.16688 0.0327841 -0.0118702)
(1.11717 -0.115406 0.0449282)
(0.42187 -0.0689958 -0.154093)
(0.08317 0.147367 0.0341287)
(1.02594 -0.0832319 0.188943)
(1.01012 -0.23801 -0.0416844)
(0.282637 -0.202813 -0.0974146)
(1.17537 -0.120418 -0.0756896)
(1.41705 0.168204 -0.0150985)
(1.62122 0.107746 -0.259788)
(1.29517 0.106815 -0.102801)
(1.53455 0.272022 0.0292597)
(1.18602 -0.0448826 0.0171339)
(1.22248 -0.0253219 -0.113642)
(1.21049 -0.0247932 0.0278561)
(1.17853 -0.0431371 0.0430965)
(1.1569 -0.0313808 -0.00237931)
(1.17214 -0.0202899 0.0591979)
(1.16859 -0.0212027 0.00282566)
(1.23154 0.0128003 -0.0426042)
(1.51526 -0.00705041 -0.0779348)
(1.2363 0.00754081 -0.0424609)
(1.50885 0.039544 -0.0793328)
(1.20828 -0.0180248 0.0270835)
(1.20247 -0.00246891 -0.131382)
(1.2039 -0.00740665 0.0194969)
(1.16931 -0.0226364 0.0614939)
(1.16769 -0.0213353 0.00421672)
(1.16647 -0.0149172 0.0382988)
(1.17602 -0.0210621 0.000825578)
(1.33046 0.146472 -0.0906578)
(1.54771 -0.00806161 -0.0797539)
(1.28632 0.0669837 -0.0998523)
(1.64417 0.036243 -0.0524368)
(1.16171 0.00298445 -0.0203034)
(1.2077 -0.146804 -0.0531176)
(1.1875 -0.0487289 -0.0238913)
(1.01236 -0.214704 -0.0130887)
(1.16321 0.00548115 -0.010482)
(1.20156 -0.105436 -0.00343021)
(1.17501 -0.0339173 -0.00608756)
(1.24345 -0.102144 -0.0578824)
(1.24688 0.000688519 -0.0632511)
(1.24478 -0.0200711 -0.0767095)
(1.34369 -0.00647024 0.00156666)
(1.24136 -0.0617724 0.00166857)
(1.26918 0.00399487 0.0110302)
(1.23219 -0.0169717 0.0110234)
(1.16641 0.00453266 -0.0156657)
(1.20326 -0.113892 -0.0197038)
(1.18174 -0.0383137 -0.016208)
(1.23975 -0.0723105 -0.0197619)
(1.25633 0.00366523 -0.014332)
(1.23474 -0.0169885 -0.021483)
(1.14519 -0.473365 -0.0614653)
(0.974596 -0.135763 0.192736)
(1.05397 -0.326357 -0.107563)
(0.447528 -0.199608 0.0824483)
(1.39077 0.0168561 -0.234136)
(1.63708 0.118495 -0.266477)
(1.33719 0.0180636 -0.181062)
(1.57224 0.160072 -0.184194)
(1.35418 -0.556081 -0.0720144)
(0.715346 -0.362031 -0.0648979)
(-0.189169 -0.263641 -0.0672463)
(1.245 -0.350999 -0.0340042)
(1.15227 -0.386218 -0.0778718)
(1.45053 -0.502035 -0.0257309)
(-0.207129 -0.278104 -0.0747089)
(1.45644 -0.263276 -0.0303483)
(1.39281 -0.12229 -0.0617373)
(1.67478 0.0503305 -0.042113)
(1.41365 -0.0323293 -0.0231959)
(1.70249 0.00243952 -0.0235247)
(1.3033 -0.230566 -0.118231)
(1.51677 -0.110589 -0.0317162)
(1.11714 -0.0757742 -0.0205812)
(1.00835 -0.250718 -0.131025)
(1.1666 -0.121894 -0.0763279)
(1.11729 -0.042874 0.0987873)
(1.14812 -0.0973587 -0.027934)
(1.11972 -0.040904 0.0315943)
(1.0469 -0.154337 -0.0973943)
(1.2776 -0.0116824 0.280935)
(1.19747 0.200867 0.210212)
(1.27025 -0.058188 -0.114063)
(1.15038 -0.0789123 0.21175)
(1.28787 -0.0229365 0.293198)
(1.13989 -0.0285285 0.212293)
(1.12817 -0.0193386 0.15725)
(1.24718 0.0129616 -0.0421107)
(1.51214 0.0469424 -0.0795963)
(1.23695 0.0153419 -0.0435336)
(1.52552 0.0058543 -0.0746716)
(1.26099 -0.0195466 0.270279)
(1.26941 -0.0225812 -0.122568)
(1.10153 -0.00936999 0.156243)
(1.11768 -0.0164579 0.186708)
(1.12485 -0.0321556 0.197705)
(1.25043 -0.00992277 0.253734)
(1.11841 -0.00393733 0.155137)
(1.23359 -0.0103809 0.245466)
(1.09775 0.0047392 0.156746)
(1.23788 -0.00105191 -0.121519)
(1.11231 -0.0172715 0.191328)
(1.24312 -0.0115286 0.261066)
(1.10544 -0.0129505 0.180539)
(1.08786 0.00637272 0.154787)
(1.23684 0.0199511 -0.0616138)
(1.54877 0.0424063 -0.068151)
(1.25334 0.062207 -0.0653909)
(1.51962 -0.020965 -0.0832391)
(1.23052 -0.00683318 0.273901)
(1.23582 0.00101385 -0.128206)
(1.05803 0.117906 0.13924)
(1.08759 -0.0349135 0.164064)
(1.10759 -0.0126181 0.203496)
(1.21008 -0.0548824 0.213553)
(1.0909 0.0229802 0.154982)
(1.4125 -0.499747 -0.0144327)
(-0.185595 -0.280996 -0.0632304)
(1.20033 -0.366573 -0.0417227)
(0.767144 -0.359677 -0.0223978)
(1.3803 -0.528873 -0.0399174)
(1.22331 -0.345052 -0.0152045)
(-0.175669 -0.266806 -0.0360681)
(1.4916 -0.145251 -0.00628755)
(1.66939 0.00329763 -0.023237)
(1.34235 -0.137686 -0.0464237)
(1.42796 0.0147375 -0.00930185)
(1.4497 -0.195286 -0.0401635)
(1.65867 0.0193505 -0.0179934)
(1.37718 -0.0728355 -0.00643865)
(1.38484 -0.516059 -0.022272)
(0.757468 -0.363374 -0.0255959)
(-0.166687 -0.267196 -0.0234412)
(1.21526 -0.34343 -0.0110367)
(1.20758 -0.355583 -0.024665)
(1.39552 -0.500038 -0.0109923)
(-0.173857 -0.273959 -0.0401669)
(1.4549 -0.177207 -0.0212794)
(1.40004 -0.030055 -0.0138006)
(1.64647 0.00978299 -0.00834253)
(1.36081 -0.0844396 -0.00322086)
(1.65241 0.00101344 -0.0111063)
(1.35186 -0.109288 -0.0227206)
(1.47134 -0.156201 -0.00495711)
(1.38452 -0.498224 -0.0106859)
(-0.165003 -0.269345 -0.029818)
(1.20805 -0.34759 -0.017235)
(0.766719 -0.354162 -0.0155248)
(1.38322 -0.506194 -0.0148171)
(1.20936 -0.341112 -0.0114917)
(-0.158473 -0.265781 -0.021318)
(1.45796 -0.159528 -0.00552208)
(1.64201 0.00261102 -0.00423522)
(1.35071 -0.0989462 -0.0131931)
(1.39742 -0.00643715 -0.000966496)
(1.45454 -0.168383 -0.0122185)
(1.63555 0.00620317 -0.00370501)
(1.35103 -0.0885238 -0.00369732)
(1.37777 -0.49842 -0.0135557)
(0.766207 -0.352821 -0.0192726)
(1.20559 -0.341173 -0.015786)
(-0.156258 -0.265399 -0.029643)
(1.44913 -0.163168 -0.00915424)
(1.39065 -0.0139745 -0.00464577)
(1.63146 0.00383298 -0.000247503)
(1.34553 -0.0938412 -0.00933779)
(-0.286452 0.282283 -0.186128)
(-0.531159 -0.0276337 -0.180273)
(0.215993 0.0432725 -0.00162101)
(-0.445111 0.395653 -0.279292)
(2.25306 0.407963 -0.186669)
(2.19908 0.100557 -0.162291)
(-0.0933471 0.0439247 -0.217817)
(1.92748 -0.176281 -0.104653)
(2.0188 0.165507 -0.096352)
(1.97865 -0.0807511 -0.118752)
(-0.0676961 0.0118397 -0.000535283)
(-0.329704 0.557758 -0.18096)
(1.58284 -0.465792 -0.128183)
(0.928754 -0.279217 0.131517)
(2.06569 -0.0484478 -0.183038)
(-0.232232 0.232802 -0.158505)
(0.711075 -0.405858 -0.070352)
(-0.396451 0.00107201 0.00850243)
(0.511151 -0.0792498 -0.0100092)
(-0.197983 0.207815 -0.0567436)
(1.04411 -0.109939 -0.0501324)
(0.0351583 0.064736 -0.00344487)
(1.12349 -0.210671 -0.131118)
(0.684813 -0.355771 -0.226738)
(1.0414 -0.232558 -0.0762003)
(1.10771 -0.178506 -0.0932846)
(0.54633 -0.322324 -0.232966)
(1.22934 0.062149 -0.16055)
(1.06921 0.0204913 -0.330919)
(0.703533 -0.088457 -0.307805)
(1.07714 0.060382 -0.147866)
(1.16148 -0.119803 -0.380256)
(1.41281 0.145019 0.0358144)
(1.53428 0.0864534 -0.0294003)
(1.49908 0.193705 0.0775417)
(1.29219 0.0384082 -0.0173417)
(1.25333 0.0816037 -0.153316)
(1.12202 -0.0697884 -0.387856)
(0.723325 0.0168609 -0.313426)
(1.16082 0.0812845 -0.394734)
(1.17778 0.0180504 -0.157971)
(1.09879 -0.0172438 -0.159799)
(1.06006 0.0902732 -0.391758)
(0.716818 -0.055433 -0.307695)
(1.10176 0.0347347 -0.160781)
(1.05569 -0.0804445 -0.390615)
(1.22866 0.00259198 -0.0456109)
(1.51089 0.0409439 -0.080583)
(1.51046 -0.0176585 -0.0811216)
(1.22838 0.0192821 -0.0457001)
(1.09567 0.0337923 -0.162658)
(1.04921 -0.0705544 -0.396323)
(0.713166 0.0621148 -0.307559)
(1.05372 0.0891875 -0.395388)
(1.09389 -0.0103255 -0.162134)
(1.35229 0.174787 -0.0881446)
(1.26023 0.139914 -0.121874)
(1.30187 0.117549 0.00307309)
(1.38883 0.138208 -0.11058)
(1.1785 0.173634 -0.179682)
(1.08861 0.141441 -0.237381)
(0.73455 0.079345 -0.306475)
(1.18323 0.0873684 -0.167895)
(1.0632 0.189809 -0.232785)
(1.47038 0.181446 -0.137536)
(1.77565 0.0390974 -0.126909)
(1.43143 0.198837 -0.120363)
(1.61168 0.0928246 -0.0990045)
(1.66735 0.173327 -0.141793)
(1.44623 0.138769 -0.109029)
(1.35677 0.220258 -0.0913017)
(0.773645 0.248753 -0.369036)
(1.20535 0.309629 -0.208282)
(-0.183544 0.198786 -0.0682693)
(0.699294 -0.42246 -0.041998)
(-0.453692 -0.0495776 -0.0125586)
(-0.17411 0.186392 0.0271808)
(0.723999 -0.426306 -0.0346738)
(-0.0215238 -0.0321287 -0.0352949)
(1.87237 -0.194607 -0.0232611)
(1.982 -0.0134581 -0.00994662)
(-0.0789802 0.0192021 -0.00441547)
(1.85468 -0.238623 -0.00370565)
(-0.000330989 -0.041355 -0.0242123)
(1.85419 -0.206623 -0.0421094)
(1.97788 -0.0048115 0.0310778)
(1.85728 -0.225661 0.0358966)
(-0.022911 -0.027668 -0.0165685)
(-0.168455 0.188167 0.0102635)
(0.714777 -0.407568 -0.0290635)
(-0.446107 -0.0467455 -0.0409854)
(0.721629 -0.40688 -0.0359599)
(-0.180511 0.196611 -0.0563583)
(1.37344 0.156645 0.0178538)
(1.27258 0.153811 -0.013719)
(1.27463 0.151856 -0.00336509)
(1.37224 0.158492 -0.0325031)
(1.41532 0.173697 -0.0225914)
(1.56055 0.14967 0.0058244)
(1.41751 0.173953 -0.00987709)
(1.55655 0.148187 -0.0306253)
(1.3642 0.167254 -0.0206462)
(1.26469 0.160227 -0.0285862)
(1.3662 0.16662 -0.0131901)
(1.26188 0.162533 -0.00575731)
(1.42275 0.16345 0.0207731)
(1.56002 0.138021 -0.0429408)
(1.56136 0.137068 0.0342126)
(1.4216 0.164967 -0.0341505)
(-0.177251 0.195465 -0.0535469)
(0.713763 -0.412317 -0.0267274)
(-0.436119 -0.050329 -0.00576157)
(-0.169332 0.188549 0.0245916)
(0.714753 -0.413195 -0.0180151)
(-0.0165846 -0.0330701 -0.0145679)
(1.83361 -0.216416 0.012446)
(1.94998 -0.00101762 -0.0185996)
(-0.0153544 -0.0312331 -0.0102935)
(1.8293 -0.218643 -0.0220778)
(-0.0123436 -0.0334458 -0.0100852)
(1.8257 -0.214592 -0.0253961)
(1.94897 0.000653394 0.0230092)
(1.82922 -0.216362 0.0209398)
(-0.0167601 -0.0328011 -0.0154607)
(-0.168863 0.188751 0.0246752)
(0.71198 -0.409259 -0.0205982)
(-0.432617 -0.0501691 -0.0348811)
(0.712715 -0.409696 -0.0233865)
(-0.177116 0.195637 -0.0540482)
(1.36103 0.165744 0.0167006)
(1.25719 0.162439 -0.00620394)
(1.25871 0.161548 -0.00503159)
(1.35939 0.166686 -0.0257949)
(1.41057 0.173007 -0.0247223)
(1.54996 0.147993 0.0280215)
(1.41196 0.171938 0.0153919)
(1.54875 0.149167 -0.033968)
(1.36076 0.166819 -0.0227219)
(1.26012 0.161458 -0.0082851)
(1.36236 0.165556 0.012296)
(1.25861 0.162626 -0.00392927)
(1.41058 0.172023 0.0198654)
(1.54691 0.149276 -0.0361877)
(1.54846 0.148106 0.0331605)
(1.409 0.172843 -0.0275712)
(1.09817 -0.468349 -0.132893)
(-0.445674 -0.0772813 -0.235823)
(0.503704 -0.20728 -0.0461105)
(0.193727 -0.179252 -0.039759)
(1.47152 -0.50699 -0.0903133)
(1.11925 -0.188158 -0.0740746)
(-0.115364 0.195294 0.0632309)
(1.14915 -0.303467 -0.107466)
(1.31052 -0.208626 0.0068095)
(1.52262 -0.530759 -0.134351)
(1.43292 -0.449341 -0.141723)
(1.21552 -0.46923 0.0756112)
(1.35303 -0.280286 -0.0751076)
(1.4273 0.0526041 -0.180095)
(1.95418 0.314456 -0.167663)
(1.89912 0.131607 -0.0935606)
(1.50158 0.196108 -0.156002)
(1.26374 -0.012137 -0.32781)
(1.1844 -0.142166 -0.456944)
(1.53555 0.00441444 -0.621167)
(1.2021 -0.0380082 -0.247316)
(1.13423 -0.141801 -0.492919)
(1.35697 -0.0141808 -0.188073)
(1.44609 -0.385531 -0.04203)
(0.825734 -0.408739 -0.0712855)
(1.80191 -0.00590783 -0.0527569)
(1.16464 -0.216676 -0.170237)
(1.1868 -0.360427 -0.108281)
(1.13067 -0.432236 -0.0497017)
(1.1792 -0.296362 -0.152757)
(-0.0957152 0.205649 -0.0279794)
(1.30635 -0.280417 0.116318)
(1.14757 -0.360045 -0.117206)
(1.37474 -0.29134 0.0381815)
(1.17977 -0.390157 -0.131835)
(1.33894 -0.38451 -0.0594924)
(0.911857 -0.439063 -0.0572625)
(1.32358 -0.308349 0.0519363)
(1.09248 -0.319115 -0.136008)
(1.25668 -0.183866 0.0366696)
(-0.161307 0.193199 -0.0280665)
(0.71602 -0.405172 -0.0260197)
(-0.451731 -0.0417369 -0.0511919)
(-0.18377 0.197707 -0.0527703)
(0.769365 -0.405507 -0.0624257)
(0.0745391 -0.0978024 -0.052162)
(2.01232 -0.0264372 0.0658304)
(1.87509 -0.181292 -0.0681751)
(-0.0496986 -0.00423109 -0.00362272)
(1.87863 -0.262029 0.0877883)
(0.00993037 -0.0630653 -0.0887006)
(1.92778 -0.137512 -0.0291518)
(2.03973 -0.0443062 0.0348934)
(-0.139972 0.0898923 -0.0203478)
(1.90057 -0.295007 0.0646283)
(-0.191613 0.209631 -0.10829)
(0.680723 -0.429144 -0.097312)
(-0.473626 -0.0492677 -0.026318)
(-0.176545 0.182906 0.0313114)
(0.761006 -0.446053 -0.0870481)
(1.2518 0.0177033 -0.0406283)
(1.53938 0.0344474 -0.0472869)
(1.27465 0.0332252 -0.028783)
(1.52096 0.056587 -0.0728786)
(1.11093 0.0372872 -0.162399)
(1.06458 -0.0794959 -0.392417)
(0.722514 0.0500602 -0.310321)
(1.10572 -0.0141241 -0.161021)
(1.07014 0.0895786 -0.395783)
(1.12317 -0.00719957 -0.160689)
(1.09349 0.0952748 -0.397226)
(0.72709 -0.0666052 -0.312703)
(1.1358 0.0524188 -0.16257)
(1.08231 -0.0781104 -0.390392)
(1.23734 0.0251011 -0.0478198)
(1.51098 -0.0172645 -0.0797476)
(1.23264 0.00967716 -0.0496458)
(1.52075 0.0366792 -0.0738742)
(1.10905 0.0549346 -0.177573)
(1.0382 0.0185599 -0.45894)
(0.713645 0.114519 -0.310631)
(1.103 0.0418118 -0.191254)
(1.05593 0.100785 -0.415849)
(1.09622 -0.00159531 -0.167553)
(1.05422 0.0960927 -0.398418)
(0.711193 -0.0059544 -0.305538)
(1.10132 0.0412064 -0.166543)
(1.04159 -0.0578408 -0.41286)
(1.17789 -0.0972157 0.0816016)
(1.19198 0.0830366 -0.161713)
(1.23867 -0.0114761 0.0493248)
(1.1589 0.0122401 -0.186658)
(1.15648 0.246112 -0.211298)
(1.12963 0.104396 0.114716)
(1.17583 0.297205 -0.203227)
(1.21479 -0.0257601 0.194325)
(1.3583 0.169076 -0.0235756)
(1.25411 0.180988 -0.0658785)
(1.33754 0.197994 -0.0840323)
(1.24435 0.168703 -0.0161487)
(1.43136 0.158334 0.0135929)
(1.5765 0.128047 -0.0556631)
(1.43448 0.157074 -0.0498189)
(1.57679 0.131382 0.026429)
(1.41504 0.173482 -0.0271327)
(1.56129 0.171803 -0.051289)
(1.39637 0.204766 -0.0809634)
(1.56933 0.143283 -0.0359773)
(1.38078 0.150727 0.0130647)
(1.28056 0.145803 -0.0324296)
(1.38414 0.150611 -0.0487013)
(1.28696 0.143265 -0.00385898)
(1.13902 0.116535 -0.0127219)
(1.17843 0.134507 -0.0557514)
(1.1477 0.0994043 -0.0553434)
(1.16206 0.1438 -0.0160564)
(1.18956 0.0113043 0.0334282)
(1.21316 0.079761 -0.0435783)
(1.2191 0.0718378 0.0118764)
(1.18777 0.0195965 -0.0584388)
(-0.16937 0.188569 0.0227927)
(0.714203 -0.409633 -0.0214722)
(-0.438976 -0.0488064 -0.0353995)
(-0.178049 0.195609 -0.0540708)
(0.715679 -0.409827 -0.0255108)
(-0.01097 -0.0343057 -0.0123283)
(1.9617 0.000166234 0.0245288)
(1.83886 -0.213389 -0.0306119)
(-0.0181425 -0.0316712 -0.0148978)
(1.84203 -0.218355 0.0241175)
(-0.0180141 -0.0326127 -0.0182615)
(1.84626 -0.213974 0.00107171)
(1.96214 -0.00461994 -0.0173074)
(-0.0255063 -0.0235309 -0.0111905)
(1.83921 -0.224398 -0.0185258)
(-0.179013 0.196133 -0.0566123)
(0.713317 -0.415652 -0.0348875)
(-0.443814 -0.0496624 -0.00656542)
(-0.170106 0.187625 0.022679)
(0.71862 -0.417849 -0.0211718)
(1.18495 0.0364578 0.011636)
(1.2068 0.093336 -0.0190852)
(1.20751 0.0913592 0.00211016)
(1.18562 0.0374635 -0.0264745)
(1.16303 0.0737108 0.0017952)
(1.19113 0.11418 -0.0322211)
(1.18837 0.117661 -0.00391212)
(1.16419 0.0714402 -0.0397036)
(1.36345 0.165786 -0.0212705)
(1.26386 0.15965 -0.0139708)
(1.36528 0.16432 0.00515155)
(1.26218 0.161353 -0.00368211)
(1.41574 0.168252 0.0206304)
(1.55272 0.144241 -0.0377926)
(1.41475 0.169432 -0.02838)
(1.55355 0.142845 0.0334221)
(1.41346 0.172153 -0.0232951)
(1.55393 0.146865 0.0209277)
(1.4151 0.171091 0.00821832)
(1.55211 0.147478 -0.0324218)
(1.3664 0.161783 0.0176781)
(1.26479 0.158598 -0.00702247)
(1.36531 0.163094 -0.0265223)
(1.26612 0.157448 -0.00336756)
(1.16988 0.0612825 -0.00195141)
(1.19428 0.109111 -0.0162326)
(1.17099 0.0603598 -0.0213122)
(1.19266 0.110596 -0.00417095)
(1.17966 0.0460276 0.00346837)
(1.19937 0.100782 -0.0108482)
(1.20005 0.0999767 -0.000827215)
(1.17971 0.0463363 -0.0149733)
(1.82229 -0.215468 0.0174515)
(1.93728 0.000211936 -0.0169257)
(-0.0128468 -0.0328796 -0.0111251)
(0.710798 -0.409023 -0.0264779)
(-0.428278 -0.0513085 -0.0113753)
(-0.168081 0.188472 0.0225933)
(1.17526 0.0503618 -0.00276214)
(1.19296 0.105127 -0.00973204)
(1.19389 0.104605 -0.00410736)
(1.17502 0.0505061 -0.012219)
(1.17192 0.0560419 -0.00625219)
(1.19335 0.10769 -0.00923216)
(1.19201 0.108443 -0.00604569)
(1.17283 0.0556193 -0.011728)
(1.25422 0.163705 -0.00863435)
(1.35753 0.167882 0.0135912)
(1.25223 0.164651 -0.0078877)
(1.54493 0.151257 0.0315193)
(1.40712 0.174101 0.0171166)
(1.17188 0.0539724 -0.0120949)
(1.19013 0.107709 -0.00916519)
(1.17248 0.0537069 -0.0103958)
(1.18873 0.108372 -0.0109986)
(0.629401 -0.138638 -0.211091)
(0.614738 -0.0347901 -0.241529)
(0.464586 -0.252628 -0.0412987)
(-0.174502 0.239312 -0.120799)
(0.916246 -0.0865607 -0.427248)
(1.16477 -0.00284089 0.00423877)
(1.16002 -0.0429832 0.0147378)
(1.17707 -0.0146003 0.00335731)
(1.14814 0.00697908 -0.0085888)
(1.1671 -0.00243099 -0.0064196)
(1.15469 -0.0246302 -0.00689595)
(1.17358 -0.0122181 -0.00547669)
(1.05282 0.413378 -0.143225)
(1.41868 0.466662 -0.182695)
(1.21228 0.0337565 -0.233865)
(1.20872 -0.0181978 -0.229693)
(1.31742 0.0900208 -0.259008)
(1.30067 0.0588066 -0.256649)
(0.462662 -0.0168144 -0.185465)
(0.329169 -0.305551 -0.044642)
(0.0375385 -0.0324588 -0.0998689)
(1.78661 0.292621 -0.404111)
(1.56526 0.406445 -0.236248)
(1.34388 -0.308121 -0.167487)
(1.3362 -0.155162 0.0665096)
(1.28105 -0.148885 0.281126)
(1.3108 -0.235487 -0.262663)
(1.27689 -0.29283 -0.187335)
(1.36283 -0.190704 -0.28134)
(1.27836 -0.142878 0.0517825)
(1.10355 -0.0208678 -0.0043347)
(1.0375 0.0025536 -0.0992443)
(1.11879 -0.0385077 -0.039341)
(1.11313 -0.00615039 0.000482881)
(1.11359 -0.0190212 -0.0104093)
(1.04972 -0.0878177 -0.0701602)
(1.12093 -0.00549304 0.000437747)
(1.2181 -0.0166113 -0.23359)
(1.20812 0.0340516 -0.23054)
(1.27311 0.0329018 -0.249565)
(1.27631 0.0712286 -0.247744)
(0.0244834 0.219606 -0.117774)
(1.92613 -0.246781 -0.0701867)
(1.87532 -0.26679 -0.0342402)
(1.35914 -0.487841 0.0221081)
(1.21815 -0.304096 0.142627)
(1.92464 -0.152399 -0.0708912)
(0.228018 0.0881812 0.0290367)
(1.12472 -0.0139262 0.0255917)
(0.684677 0.0271382 -0.201297)
(0.767216 -0.00668443 -0.151476)
(1.14641 -0.032077 -0.154503)
(1.13211 -0.0192469 -0.0624323)
(0.495714 -0.135771 -0.096405)
(1.15703 -0.0545417 -0.176961)
(1.03508 0.0513213 0.12905)
(0.565744 0.0185249 -0.0633768)
(1.29141 0.0996106 0.515537)
(0.644014 0.0740747 -0.288837)
(1.14768 0.146519 0.421806)
(1.22289 0.0132116 0.211342)
(0.523044 -0.0412722 -0.0710543)
(1.24883 0.0944543 -0.243093)
(1.22276 0.0728774 -0.231429)
(1.20393 -0.0562921 0.00662146)
(1.26364 0.119772 0.365204)
(0.737391 0.0461587 -0.323102)
(0.626048 -0.0431493 -0.0873652)
(1.26996 -0.132531 0.358216)
(1.19664 0.0611312 0.015083)