/*--------------------------------*- C++ -*----------------------------------*\
| =========                 |                                                 |
| \\      /  F ield         | OpenFOAM: The Open Source CFD Toolbox           |
|  \\    /   O peration     | Version:  2012                                  |
|   \\  /    A nd           | Website:  www.openfoam.com                      |
|    \\/     M anipulation  |                                                 |
\*---------------------------------------------------------------------------*/
FoamFile
{
    version     2.0;
    format      ascii;
    class       surfaceVectorField;
    location    "0.104/fluid";
    object      Uf_0;
}
// * * * * * * * * * * * * * * * * * * * * * * * * * * * * * * * * * * * * * //

dimensions      [0 1 -1 0 0 0 0];


internalField   nonuniform List<vector> 
47532
(
(1.12746 -0.00474688 -0.0352052)
(1.14878 -0.0112582 -0.0138673)
(1.13451 -0.00795085 -0.0104533)
(1.14768 -0.00643856 -0.00740209)
(1.16801 -0.00249327 0.00275176)
(1.17305 -0.0046429 0.00143939)
(1.17163 -0.00181565 -0.00169753)
(1.17393 -0.00190372 0.000636492)
(1.18448 -0.000845766 -0.0002019)
(1.18656 -0.000668573 -0.000213923)
(1.186 -0.00154535 -0.000185808)
(1.18563 -0.000729272 -0.000684715)
(1.19102 -0.000348631 -0.000196967)
(1.19208 -0.000280058 -0.000175293)
(1.19183 -0.000708621 -0.000184214)
(1.19172 -0.000308971 -0.00042089)
(1.19438 -0.000142116 -0.000119268)
(1.19493 -0.000114959 -0.00010511)
(1.19501 -0.000341001 -0.000111032)
(1.19479 -0.000125945 -0.000254505)
(1.19619 -6.7325e-05 -7.28512e-05)
(1.19651 -5.84245e-05 -6.47323e-05)
(1.19683 -0.000184221 -6.83931e-05)
(1.19647 -6.21031e-05 -0.000156735)
(1.19726 -4.24648e-05 -4.51172e-05)
(1.19745 -3.94957e-05 -4.05601e-05)
(1.19791 -0.000111729 -4.27864e-05)
(1.19746 -4.08644e-05 -9.78988e-05)
(1.19792 -3.30073e-05 -2.83481e-05)
(1.19805 -3.11834e-05 -2.55261e-05)
(1.19857 -7.42752e-05 -2.67052e-05)
(1.19809 -3.20808e-05 -6.1455e-05)
(1.19837 -2.84008e-05 -1.85711e-05)
(1.19845 -2.76293e-05 -1.60457e-05)
(1.19898 -5.34159e-05 -1.71659e-05)
(1.19851 -2.79883e-05 -3.87111e-05)
(1.19867 -2.64706e-05 -1.20851e-05)
(1.19873 -2.63065e-05 -1.09158e-05)
(1.19923 -4.04638e-05 -1.18328e-05)
(1.1988 -2.65454e-05 -2.55029e-05)
(1.19889 -2.90029e-05 -7.49508e-06)
(1.19894 -3.05565e-05 -6.80722e-06)
(1.19939 -3.47591e-05 -7.30196e-06)
(1.19901 -2.99367e-05 -1.58113e-05)
(1.19907 -3.57017e-05 -5.20741e-06)
(1.19911 -3.75637e-05 -4.98826e-06)
(1.19948 -3.37469e-05 -5.27363e-06)
(1.19919 -3.68416e-05 -1.0419e-05)
(1.19923 -4.32926e-05 -4.00941e-06)
(1.19927 -4.41517e-05 -3.4494e-06)
(1.19955 -3.47521e-05 -3.98006e-06)
(1.19935 -4.43182e-05 -6.63581e-06)
(1.22104 -0.115439 -0.110102)
(1.25727 -0.0352668 -0.126462)
(1.21255 -0.0560654 -0.103111)
(1.22665 -0.0617332 -0.120899)
(1.18676 -0.0589231 -0.00599197)
(1.18212 -0.0405948 0.0198727)
(1.1696 -0.0398842 0.018675)
(1.16516 -0.0341159 -0.000522314)
(1.18595 -0.0353567 0.0254985)
(1.17839 -0.0325775 0.0188341)
(1.18145 -0.012246 0.00155611)
(1.18186 -0.0149361 0.0023826)
(1.1811 -0.0123519 -0.00092123)
(1.18375 -0.0116704 0.0013113)
(1.18448 -0.0133578 0.00180196)
(1.18843 -0.00530222 -2.40425e-05)
(1.18828 -0.00631673 0.000114813)
(1.18955 -0.00525157 -4.46352e-05)
(1.18954 -0.00608356 4.6526e-05)
(1.18881 -0.00561803 -0.000576731)
(1.19282 -0.00263715 -0.000161597)
(1.1926 -0.00314424 -0.000158566)
(1.1934 -0.00268251 -0.000150318)
(1.19326 -0.0031164 -0.000151904)
(1.19319 -0.00287751 -0.000376703)
(1.19546 -0.00143635 -0.000105301)
(1.19529 -0.00171078 -0.000110851)
(1.19578 -0.00148301 -9.92273e-05)
(1.19566 -0.00172365 -0.000104738)
(1.19575 -0.0015871 -0.000239461)
(1.19707 -0.000824348 -6.74062e-05)
(1.19694 -0.000981197 -7.15511e-05)
(1.19725 -0.000858793 -6.4213e-05)
(1.19716 -0.000998599 -6.82305e-05)
(1.1973 -0.000916778 -0.000151722)
(1.19805 -0.000489148 -4.3736e-05)
(1.19797 -0.000581588 -4.66396e-05)
(1.19816 -0.00051185 -4.16349e-05)
(1.1981 -0.000595797 -4.45428e-05)
(1.19826 -0.000545526 -9.66936e-05)
(1.19867 -0.000295814 -2.81656e-05)
(1.19861 -0.000350981 -3.00376e-05)
(1.19873 -0.000310502 -2.75053e-05)
(1.19869 -0.000361913 -2.9229e-05)
(1.19886 -0.000330922 -6.20373e-05)
(1.19906 -0.000182056 -1.86433e-05)
(1.19902 -0.000215435 -2.02e-05)
(1.1991 -0.000190394 -1.81525e-05)
(1.19907 -0.000223552 -1.95072e-05)
(1.19924 -0.00020342 -4.00426e-05)
(1.19931 -0.000112671 -1.33226e-05)
(1.19928 -0.000132056 -1.42118e-05)
(1.19933 -0.000115815 -1.30876e-05)
(1.19931 -0.000138515 -1.39685e-05)
(1.19947 -0.000124676 -2.67466e-05)
(1.19947 -6.62026e-05 -1.00063e-05)
(1.19945 -7.54559e-05 -1.0777e-05)
(1.19948 -6.53597e-05 -1.06275e-05)
(1.19947 -8.2208e-05 -1.13764e-05)
(1.19962 -7.20557e-05 -1.87879e-05)
(1.19957 -3.83457e-05 -8.30742e-06)
(1.19956 -4.02356e-05 -9.25956e-06)
(1.19959 -3.31806e-05 -8.9039e-06)
(1.19957 -4.78127e-05 -9.67362e-06)
(1.19972 -3.85584e-05 -1.35663e-05)
(1.19964 -2.00174e-05 -7.30576e-06)
(1.19964 -1.60374e-05 -8.26458e-06)
(1.19965 -1.14688e-05 -8.00201e-06)
(1.19964 -2.39154e-05 -8.75796e-06)
(1.19977 -1.57624e-05 -9.94969e-06)
(1.22433 -0.0128022 -0.117868)
(1.22067 -0.0195558 -0.114533)
(1.21664 -0.0111365 -0.114831)
(1.17806 -0.0182785 -0.00298427)
(1.2191 -0.0164263 -0.0879014)
(1.20364 -0.017852 0.0279975)
(1.20011 -0.0195441 0.0292859)
(1.20087 -0.0160178 0.028602)
(1.18313 -0.0186906 0.00273524)
(1.19779 -0.0171787 0.023797)
(1.1918 -0.0123233 0.00243953)
(1.19274 -0.0127641 0.00340035)
(1.19251 -0.0112431 0.00201522)
(1.19313 -0.0115919 0.00238285)
(1.19055 -0.0120626 -0.000488483)
(1.19272 -0.00700032 0.000178114)
(1.19299 -0.00752918 0.000333493)
(1.19338 -0.00657228 9.00343e-05)
(1.19356 -0.00698824 0.000165894)
(1.1933 -0.0070415 -0.000438189)
(1.19472 -0.00400055 -0.000146432)
(1.19473 -0.00437878 -0.000142409)
(1.19517 -0.00383103 -0.000147546)
(1.19519 -0.00413515 -0.000153174)
(1.19541 -0.00409814 -0.000335068)
(1.19637 -0.00234321 -0.000110671)
(1.19633 -0.00258299 -0.000118365)
(1.19666 -0.00226989 -0.000107084)
(1.19664 -0.00246741 -0.000114712)
(1.19693 -0.00242297 -0.00022746)
(1.19752 -0.00140255 -7.3032e-05)
(1.19748 -0.00155078 -7.82508e-05)
(1.1977 -0.00136853 -7.02526e-05)
(1.19767 -0.00149304 -7.51423e-05)
(1.19796 -0.00145739 -0.000147118)
(1.19828 -0.000853076 -4.81266e-05)
(1.19824 -0.000944994 -5.11733e-05)
(1.19839 -0.000836265 -4.66644e-05)
(1.19836 -0.000914852 -4.94965e-05)
(1.19864 -0.000889622 -9.59219e-05)
(1.19878 -0.000525615 -3.32481e-05)
(1.19875 -0.000582448 -3.54062e-05)
(1.19885 -0.000517306 -3.22972e-05)
(1.19882 -0.00056599 -3.46683e-05)
(1.19909 -0.000550122 -6.37199e-05)
(1.1991 -0.00032667 -2.27216e-05)
(1.19908 -0.000362814 -2.41319e-05)
(1.19914 -0.000321686 -2.26026e-05)
(1.19912 -0.000352688 -2.39214e-05)
(1.19938 -0.000342966 -4.21127e-05)
(1.19931 -0.000201869 -1.65524e-05)
(1.1993 -0.000224147 -1.76578e-05)
(1.19934 -0.000198227 -1.69358e-05)
(1.19933 -0.000217661 -1.77604e-05)
(1.19956 -0.000212328 -2.83101e-05)
(1.19946 -0.000123289 -1.53578e-05)
(1.19945 -0.000137481 -1.621e-05)
(1.19948 -0.000121362 -1.57037e-05)
(1.19947 -0.000133646 -1.65732e-05)
(1.19968 -0.000130905 -2.24511e-05)
(1.19957 -7.21624e-05 -1.40129e-05)
(1.19956 -8.11585e-05 -1.48377e-05)
(1.19958 -7.02556e-05 -1.47163e-05)
(1.19957 -7.86999e-05 -1.55308e-05)
(1.19975 -7.77069e-05 -1.78307e-05)
(1.19965 -3.8736e-05 -1.34086e-05)
(1.19964 -4.33864e-05 -1.43057e-05)
(1.19966 -3.62026e-05 -1.40623e-05)
(1.19965 -4.23932e-05 -1.50517e-05)
(1.1998 -4.20699e-05 -1.44492e-05)
(1.17183 0.0278403 -0.0510868)
(1.18827 0.00849514 -0.0939441)
(1.15118 -0.0150762 -0.0161524)
(1.17813 0.0176103 -0.0466063)
(1.19461 -0.00492977 0.0130675)
(1.19639 -0.00948671 0.019638)
(1.18529 -0.0144067 0.00239282)
(1.19531 -0.00964308 0.0135558)
(1.19503 -0.00950992 0.00151229)
(1.19516 -0.00960901 0.00206003)
(1.19529 -0.00887793 0.00107739)
(1.19546 -0.00992785 -0.000484995)
(1.19555 -0.00656036 8.40276e-06)
(1.19575 -0.00680548 6.67268e-05)
(1.19595 -0.00613573 -7.62331e-05)
(1.1968 -0.00656721 -0.000419687)
(1.19652 -0.00418967 -0.000180503)
(1.19662 -0.00441193 -0.000186578)
(1.19685 -0.00393648 -0.000177892)
(1.1976 -0.00417575 -0.000318902)
(1.19745 -0.0026191 -0.00012514)
(1.19749 -0.00278072 -0.000133282)
(1.19767 -0.00247476 -0.000119312)
(1.19825 -0.00262244 -0.000215005)
(1.19814 -0.00163357 -7.93575e-05)
(1.19815 -0.00174263 -8.44726e-05)
(1.19828 -0.00155002 -7.54957e-05)
(1.19876 -0.00164213 -0.000138381)
(1.19862 -0.00102014 -5.2706e-05)
(1.19862 -0.00109165 -5.54357e-05)
(1.19871 -0.000971542 -5.12469e-05)
(1.19913 -0.00102962 -9.18395e-05)
(1.19896 -0.000640849 -3.80253e-05)
(1.19895 -0.000686377 -4.02941e-05)
(1.19902 -0.000610969 -3.66821e-05)
(1.19939 -0.000648248 -6.28434e-05)
(1.1992 -0.000401313 -2.77677e-05)
(1.19918 -0.000430328 -2.93163e-05)
(1.19923 -0.000383358 -2.71907e-05)
(1.19957 -0.000407313 -4.37309e-05)
(1.19936 -0.000248657 -2.21095e-05)
(1.19935 -0.000267091 -2.3095e-05)
(1.19938 -0.00023707 -2.25978e-05)
(1.19968 -0.00025342 -3.20902e-05)
(1.19948 -0.000152192 -2.08889e-05)
(1.19947 -0.000164308 -2.17971e-05)
(1.1995 -0.000145323 -2.14826e-05)
(1.19976 -0.000156541 -2.64389e-05)
(1.19958 -9.27561e-05 -1.99833e-05)
(1.19957 -0.000100831 -2.06048e-05)
(1.19959 -8.83019e-05 -2.07781e-05)
(1.19981 -9.63859e-05 -2.16859e-05)
(1.19966 -5.01484e-05 -1.99636e-05)
(1.19966 -5.56006e-05 -2.08309e-05)
(1.19967 -4.65735e-05 -2.02581e-05)
(1.19984 -5.31879e-05 -1.89545e-05)
(1.00381 -0.220275 -0.0323858)
(0.88265 -0.295555 -0.0368314)
(1.0644 -0.159245 -0.0331164)
(1.06262 -0.202147 -0.0359537)
(1.00539 -0.219135 -0.0244819)
(1.16207 0.00365562 -0.0182208)
(1.15494 0.00565316 -0.0134219)
(1.15912 -0.00286831 -0.0166412)
(1.15917 0.00530116 -0.011729)
(1.16317 0.00209657 -0.0145307)
(1.17523 -0.00205469 -0.00634594)
(1.17568 -0.00250276 -0.00743699)
(1.17849 -0.0040724 -0.00656825)
(1.17914 -0.00186791 -0.00604396)
(1.17669 -0.00200168 -0.00597985)
(1.18671 -0.000692802 -0.00299041)
(1.18625 -0.000795762 -0.0035092)
(1.18796 -0.000634725 -0.00299352)
(1.18754 -0.00149351 -0.00320495)
(1.18726 -0.000679992 -0.00333837)
(1.19226 -0.000295147 -0.0016434)
(1.19186 -0.000328231 -0.00195085)
(1.19282 -0.000262723 -0.00171013)
(1.19262 -0.000671548 -0.0018104)
(1.19251 -0.000287742 -0.00199372)
(1.19513 -0.0001214 -0.000984741)
(1.19491 -0.000134555 -0.00116804)
(1.19542 -0.000109569 -0.00103218)
(1.19554 -0.000326405 -0.00109233)
(1.19526 -0.000118999 -0.00120453)
(1.1967 -6.14537e-05 -0.000606127)
(1.19658 -6.5959e-05 -0.00071779)
(1.19688 -5.76894e-05 -0.000637318)
(1.19722 -0.000179141 -0.000674675)
(1.19678 -6.10278e-05 -0.000742946)
(1.19765 -4.08469e-05 -0.000379206)
(1.19757 -4.26371e-05 -0.000448133)
(1.19776 -3.92604e-05 -0.000399082)
(1.19823 -0.000110095 -0.0004221)
(1.1977 -4.0668e-05 -0.000464935)
(1.19825 -3.17717e-05 -0.000238653)
(1.1982 -3.2507e-05 -0.000281883)
(1.19831 -3.11333e-05 -0.00025108)
(1.19885 -7.33626e-05 -0.000265634)
(1.19828 -3.17645e-05 -0.000292097)
(1.19864 -2.80284e-05 -0.000151127)
(1.19861 -2.84387e-05 -0.000178598)
(1.19869 -2.77672e-05 -0.000158978)
(1.19923 -5.29673e-05 -0.000168368)
(1.19866 -2.79807e-05 -0.000184894)
(1.19892 -2.71486e-05 -9.53607e-05)
(1.1989 -2.75024e-05 -0.000111894)
(1.19896 -2.73803e-05 -0.000100321)
(1.19946 -4.10911e-05 -0.000106439)
(1.19894 -2.76498e-05 -0.000116694)
(1.19913 -3.00519e-05 -6.07261e-05)
(1.19911 -2.94783e-05 -7.19603e-05)
(1.19916 -3.06459e-05 -6.39839e-05)
(1.19961 -3.50662e-05 -6.76971e-05)
(1.19914 -2.9992e-05 -7.469e-05)
(1.1993 -3.67068e-05 -3.79502e-05)
(1.19928 -3.5683e-05 -4.47863e-05)
(1.19932 -3.76127e-05 -3.95267e-05)
(1.1997 -3.42877e-05 -4.19114e-05)
(1.19931 -3.66047e-05 -4.64536e-05)
(1.19946 -4.426e-05 -2.17924e-05)
(1.19944 -4.33751e-05 -2.59223e-05)
(1.19948 -4.43152e-05 -2.20481e-05)
(1.19975 -3.53634e-05 -2.38418e-05)
(1.19946 -4.4198e-05 -2.66326e-05)
(1.36366 -0.00998637 -0.0216315)
(1.36384 -0.0517418 -0.0319915)
(1.31325 -0.0715259 -0.046904)
(1.3065 -0.0396778 -0.0449626)
(1.34483 -0.0226921 -0.016211)
(1.20088 -0.0636644 -0.00211308)
(1.21546 -0.112684 -0.0496184)
(1.2343 -0.0931625 -0.052001)
(1.21729 -0.076492 -0.0415313)
(1.23142 -0.0812107 -0.0517754)
(1.21231 -0.065826 -0.0153549)
(1.17591 -0.0298916 -0.0118497)
(1.18674 -0.0336604 -0.0165247)
(1.19295 -0.0391631 -0.0187381)
(1.19668 -0.0332522 -0.0160275)
(1.18108 -0.0292878 -0.00890082)
(1.18983 -0.0300641 -0.0137303)
(1.18368 -0.0117159 -0.00543717)
(1.18588 -0.011912 -0.00600309)
(1.18725 -0.0141385 -0.00653873)
(1.18766 -0.0112631 -0.00535813)
(1.18896 -0.0128789 -0.0057289)
(1.18494 -0.0114418 -0.00490914)
(1.18977 -0.00540496 -0.00274706)
(1.18996 -0.00508806 -0.00300998)
(1.19002 -0.00607386 -0.00321034)
(1.19092 -0.00503364 -0.00275672)
(1.19107 -0.00583668 -0.00290224)
(1.19025 -0.00529747 -0.00296237)
(1.19368 -0.00278622 -0.00153619)
(1.1936 -0.00252231 -0.00171767)
(1.19343 -0.00300824 -0.00181314)
(1.19415 -0.00257091 -0.0015945)
(1.19406 -0.00298742 -0.00166722)
(1.19392 -0.00273587 -0.00184382)
(1.19608 -0.00154521 -0.000932078)
(1.19603 -0.00138636 -0.00104823)
(1.19589 -0.00165098 -0.00110317)
(1.19635 -0.00143396 -0.000978725)
(1.19626 -0.00166645 -0.00102318)
(1.19621 -0.00152021 -0.00114045)
(1.19754 -0.000896204 -0.000581673)
(1.19752 -0.000801401 -0.000652961)
(1.19743 -0.000953412 -0.000687229)
(1.19771 -0.00083554 -0.000611711)
(1.19764 -0.000971448 -0.000640112)
(1.19762 -0.000883384 -0.000712707)
(1.19845 -0.000534936 -0.000366647)
(1.19844 -0.000477821 -0.000410862)
(1.19838 -0.000567643 -0.000432657)
(1.19855 -0.000500315 -0.000385719)
(1.19851 -0.000582186 -0.000404072)
(1.1985 -0.000528161 -0.000449473)
(1.19901 -0.000325592 -0.000232074)
(1.19901 -0.000290806 -0.000259723)
(1.19897 -0.000344854 -0.000273641)
(1.19908 -0.000305187 -0.00024415)
(1.19905 -0.000355907 -0.000256004)
(1.19904 -0.00032188 -0.000284606)
(1.19937 -0.000200435 -0.000147434)
(1.19937 -0.000179748 -0.000164755)
(1.19934 -0.000212144 -0.000173585)
(1.19941 -0.000187944 -0.000154977)
(1.19939 -0.000220502 -0.000162622)
(1.19939 -0.000198306 -0.000180739)
(1.19959 -0.000122393 -9.37003e-05)
(1.19959 -0.000111122 -0.000104657)
(1.19957 -0.000129825 -0.000110179)
(1.19962 -0.000114202 -9.83469e-05)
(1.19961 -0.000136595 -0.000103302)
(1.1996 -0.00012104 -0.000114959)
(1.19973 -7.19171e-05 -5.93377e-05)
(1.19973 -6.74678e-05 -6.6008e-05)
(1.19972 -7.65623e-05 -6.96163e-05)
(1.19975 -6.66088e-05 -6.19509e-05)
(1.19974 -8.35089e-05 -6.52154e-05)
(1.19974 -7.11252e-05 -7.29818e-05)
(1.19982 -3.89605e-05 -3.73868e-05)
(1.19982 -4.01112e-05 -4.09871e-05)
(1.19982 -4.19795e-05 -4.33706e-05)
(1.19983 -3.51633e-05 -3.82104e-05)
(1.19983 -4.98257e-05 -4.05524e-05)
(1.19983 -3.85261e-05 -4.57347e-05)
(1.19987 -1.61276e-05 -2.14859e-05)
(1.19987 -2.17832e-05 -2.31106e-05)
(1.19987 -1.79484e-05 -2.47799e-05)
(1.19988 -1.34913e-05 -2.0885e-05)
(1.19988 -2.59909e-05 -2.28173e-05)
(1.19988 -1.58344e-05 -2.62804e-05)
(1.28567 0.00165885 -0.011771)
(1.24769 0.000977479 -0.0614873)
(1.24154 -0.00110645 -0.0673524)
(1.24374 0.0161466 -0.0620926)
(1.26627 0.00106067 -0.0164186)
(1.23863 -0.0146677 -0.0626829)
(1.20363 -0.0192417 0.00311163)
(1.24263 -0.0191053 -0.0569339)
(1.24065 -0.00125169 -0.0562338)
(1.22106 -0.0184098 -0.0123337)
(1.23639 -0.0165316 -0.0477454)
(1.19185 -0.0180864 -0.00850822)
(1.21184 -0.0181332 -0.0146622)
(1.2146 -0.0171528 -0.0173476)
(1.2129 -0.0139292 -0.0140938)
(1.20805 -0.0161742 -0.0117479)
(1.19756 -0.0175134 -0.00568743)
(1.19239 -0.0115418 -0.00421008)
(1.19612 -0.0115712 -0.00480906)
(1.19759 -0.0119802 -0.00514154)
(1.19623 -0.0106084 -0.00422871)
(1.19757 -0.0107944 -0.00450986)
(1.19336 -0.0112441 -0.00352503)
(1.19404 -0.0067919 -0.00225662)
(1.1944 -0.00670582 -0.00249791)
(1.1949 -0.00719766 -0.00261138)
(1.19497 -0.00630103 -0.00226671)
(1.19535 -0.00668303 -0.00234746)
(1.1944 -0.00664169 -0.00235442)
(1.19582 -0.00397773 -0.00131196)
(1.19567 -0.00385918 -0.00147245)
(1.19578 -0.00422285 -0.00153036)
(1.19612 -0.00370022 -0.00135586)
(1.19622 -0.00399211 -0.00139827)
(1.19601 -0.00390365 -0.0015519)
(1.19721 -0.00236175 -0.000816631)
(1.19711 -0.00227236 -0.000924265)
(1.19712 -0.00250415 -0.000959756)
(1.1974 -0.002203 -0.000857264)
(1.19742 -0.00239401 -0.000885775)
(1.19732 -0.00232331 -0.000999285)
(1.19818 -0.00142477 -0.000521746)
(1.19812 -0.00136507 -0.000588484)
(1.19811 -0.00150888 -0.000612654)
(1.1983 -0.00133252 -0.000548113)
(1.1983 -0.00145334 -0.000568049)
(1.19825 -0.00140437 -0.000639572)
(1.19882 -0.000872032 -0.000334578)
(1.19878 -0.000833452 -0.000376347)
(1.19877 -0.000922458 -0.000392729)
(1.1989 -0.000817498 -0.000351489)
(1.19889 -0.000893201 -0.000365186)
(1.19886 -0.000860886 -0.00041045)
(1.19923 -0.000541065 -0.000215085)
(1.19921 -0.000516303 -0.000240988)
(1.1992 -0.000571742 -0.000252034)
(1.19929 -0.000508183 -0.000225564)
(1.19928 -0.00055585 -0.000234985)
(1.19926 -0.000535067 -0.000263884)
(1.19951 -0.000338038 -0.000137897)
(1.19949 -0.000322233 -0.00015406)
(1.19949 -0.000357177 -0.000161413)
(1.19954 -0.000317422 -0.000144291)
(1.19954 -0.000347686 -0.000150566)
(1.19952 -0.000334547 -0.000169217)
(1.19968 -0.000210141 -8.86792e-05)
(1.19967 -0.000200147 -9.85141e-05)
(1.19967 -0.000222216 -0.0001033)
(1.1997 -0.000197244 -9.24932e-05)
(1.1997 -0.000216498 -9.66749e-05)
(1.19969 -0.000208304 -0.000108997)
(1.19979 -0.000130052 -5.71988e-05)
(1.19979 -0.000123586 -6.25639e-05)
(1.19978 -0.000137548 -6.58297e-05)
(1.19981 -0.00012163 -5.86648e-05)
(1.1998 -0.000133819 -6.15078e-05)
(1.1998 -0.000128996 -7.02307e-05)
(1.19986 -7.76571e-05 -3.65969e-05)
(1.19986 -7.35876e-05 -3.89083e-05)
(1.19986 -8.23902e-05 -4.10979e-05)
(1.19987 -7.16605e-05 -3.61678e-05)
(1.19987 -7.98796e-05 -3.81603e-05)
(1.19987 -7.69091e-05 -4.46023e-05)
(1.1999 -4.22158e-05 -2.12489e-05)
(1.1999 -4.04894e-05 -2.16865e-05)
(1.1999 -4.50607e-05 -2.32383e-05)
(1.19991 -3.77419e-05 -1.95335e-05)
(1.19991 -4.40986e-05 -2.11076e-05)
(1.19991 -4.16366e-05 -2.6011e-05)
(1.34467 0.0673724 -0.033925)
(1.31759 0.0923052 -0.033813)
(1.32468 0.108714 -0.0287303)
(1.34624 0.0958801 -0.024661)
(1.33634 0.107462 -0.0171531)
(1.186 0.0291018 -0.0397092)
(1.1781 -0.00808985 -0.0108598)
(1.20846 0.0332256 -0.0424034)
(1.1817 0.0253328 -0.0285131)
(1.1877 0.00232255 -0.0125594)
(1.19501 0.0228197 -0.0309745)
(1.20026 -7.26193e-05 -0.0107382)
(1.19011 -0.010811 -0.00545306)
(1.20534 -0.00498365 -0.0103181)
(1.19358 -0.00861118 -0.00390022)
(1.20094 -0.00461742 -0.0074329)
(1.19665 -0.00920814 -0.00296139)
(1.19942 -0.00823146 -0.00345584)
(1.1997 -0.00794495 -0.00351476)
(1.199 -0.00776921 -0.00295409)
(1.19725 -0.00880595 -0.00253221)
(1.19733 -0.00630868 -0.00169263)
(1.19758 -0.00619475 -0.00187729)
(1.19796 -0.0063762 -0.00192109)
(1.19786 -0.00581059 -0.00169222)
(1.19758 -0.00615174 -0.00178321)
(1.19793 -0.00405233 -0.00103512)
(1.19777 -0.00403981 -0.00116642)
(1.19796 -0.00424612 -0.00119278)
(1.19807 -0.00379683 -0.00107117)
(1.19807 -0.00397597 -0.00123478)
(1.1985 -0.00255612 -0.000675308)
(1.19838 -0.002538 -0.000763724)
(1.19847 -0.00269198 -0.000783615)
(1.19859 -0.00239779 -0.000706599)
(1.19858 -0.00251519 -0.000826244)
(1.19895 -0.00160489 -0.000444954)
(1.19888 -0.00158761 -0.000501957)
(1.19893 -0.00169245 -0.000517595)
(1.19902 -0.00150666 -0.000466268)
(1.19901 -0.00158231 -0.00054586)
(1.19929 -0.00100865 -0.000291969)
(1.19925 -0.0009951 -0.000328392)
(1.19927 -0.00106391 -0.000339987)
(1.19934 -0.000947962 -0.0003059)
(1.19933 -0.000996003 -0.000358678)
(1.19953 -0.000636584 -0.00019226)
(1.1995 -0.000627093 -0.000214883)
(1.19952 -0.000671449 -0.000222988)
(1.19957 -0.000598624 -0.000200711)
(1.19956 -0.000629384 -0.000235931)
(1.19969 -0.000401372 -0.000125268)
(1.19968 -0.000395135 -0.000139089)
(1.19968 -0.000423655 -0.000145124)
(1.19972 -0.000377484 -0.000130101)
(1.19971 -0.000397565 -0.000153875)
(1.1998 -0.000251945 -8.30428e-05)
(1.19979 -0.000247908 -9.09759e-05)
(1.19979 -0.000266367 -9.49273e-05)
(1.19981 -0.000236733 -8.5525e-05)
(1.19981 -0.000250082 -0.00010188)
(1.19987 -0.000156233 -5.44256e-05)
(1.19986 -0.000153395 -5.81427e-05)
(1.19987 -0.000165307 -6.1186e-05)
(1.19988 -0.000146311 -5.43636e-05)
(1.19988 -0.000155195 -6.65654e-05)
(1.19992 -9.50241e-05 -3.435e-05)
(1.19991 -9.25523e-05 -3.53376e-05)
(1.19991 -0.000100348 -3.72818e-05)
(1.19992 -8.78599e-05 -3.2467e-05)
(1.19992 -9.3861e-05 -4.18872e-05)
(1.19995 -5.28726e-05 -2.02938e-05)
(1.19994 -5.11988e-05 -1.93005e-05)
(1.19994 -5.64525e-05 -2.06364e-05)
(1.19995 -4.74092e-05 -1.74109e-05)
(1.19995 -5.224e-05 -2.48735e-05)
(0.894925 -0.286327 -0.0188793)
(1.01182 -0.214755 -0.0166259)
(1.07205 -0.192337 -0.0181097)
(1.01218 -0.213592 -0.0152779)
(1.07354 -0.153765 -0.0179657)
(1.16591 0.00490129 -0.0149708)
(1.16354 0.00561421 -0.0127105)
(1.16188 -0.000929258 -0.0143582)
(1.1652 0.00554948 -0.0124297)
(1.16651 0.00292077 -0.013511)
(1.17966 -0.00182243 -0.00805977)
(1.17884 -0.00212843 -0.00912933)
(1.18212 -0.0015955 -0.00793464)
(1.18146 -0.00341156 -0.00845458)
(1.18094 -0.00179674 -0.00816874)
(1.18899 -0.000617244 -0.00476805)
(1.18854 -0.00068482 -0.00528375)
(1.19003 -0.000550435 -0.00464686)
(1.18968 -0.00128895 -0.00491065)
(1.18968 -0.000596274 -0.00507726)
(1.19349 -0.000258083 -0.00287416)
(1.19326 -0.000283974 -0.00319346)
(1.19403 -0.000227401 -0.00282153)
(1.19395 -0.000594097 -0.00297895)
(1.19388 -0.000246462 -0.00309954)
(1.19582 -0.000109761 -0.00175767)
(1.19571 -0.000119991 -0.00195333)
(1.19612 -9.91328e-05 -0.00173071)
(1.19632 -0.000295948 -0.00183067)
(1.19604 -0.000106411 -0.00190046)
(1.19712 -5.8681e-05 -0.00108938)
(1.19705 -6.22408e-05 -0.00120947)
(1.19729 -5.50099e-05 -0.00107477)
(1.19769 -0.000166853 -0.00113717)
(1.19725 -5.77084e-05 -0.00117908)
(1.1979 -3.9569e-05 -0.000682558)
(1.19786 -4.09912e-05 -0.00075715)
(1.19801 -3.78409e-05 -0.000674507)
(1.19852 -0.000104166 -0.00071299)
(1.19798 -3.89678e-05 -0.000739652)
(1.1984 -3.12025e-05 -0.000430877)
(1.19838 -3.17792e-05 -0.00047757)
(1.19848 -3.04358e-05 -0.000425843)
(1.19903 -7.048e-05 -0.000449995)
(1.19845 -3.07981e-05 -0.00046688)
(1.19875 -2.85741e-05 -0.000272113)
(1.19872 -2.85859e-05 -0.000301705)
(1.19879 -2.85741e-05 -0.000269361)
(1.19934 -5.21942e-05 -0.000284896)
(1.19878 -2.86107e-05 -0.000295331)
(1.19899 -2.87909e-05 -0.000172592)
(1.19897 -2.87864e-05 -0.000191301)
(1.19903 -2.90227e-05 -0.000170563)
(1.19954 -4.14073e-05 -0.000180939)
(1.19901 -2.9061e-05 -0.000187271)
(1.19917 -2.98701e-05 -0.000109016)
(1.19916 -2.95568e-05 -0.000120579)
(1.1992 -3.06947e-05 -0.000107445)
(1.19966 -3.41668e-05 -0.000114042)
(1.19919 -3.01184e-05 -0.000117704)
(1.19933 -3.64818e-05 -6.76375e-05)
(1.19932 -3.56432e-05 -7.51939e-05)
(1.19935 -3.7503e-05 -6.62026e-05)
(1.19973 -3.38576e-05 -7.06184e-05)
(1.19934 -3.65774e-05 -7.28171e-05)
(1.19948 -4.43149e-05 -3.86974e-05)
(1.19946 -4.35653e-05 -4.39194e-05)
(1.1995 -4.44726e-05 -3.72855e-05)
(1.19978 -3.5416e-05 -4.07454e-05)
(1.19948 -4.44474e-05 -4.19296e-05)
(1.36491 -0.0177804 -0.00876214)
(1.33837 -0.0125752 -0.00450214)
(1.3231 -0.0397059 -0.011823)
(1.33347 -0.014572 -0.00425408)
(1.31227 -0.0124142 -0.0108318)
(1.20668 -0.0846058 -0.0198895)
(1.22511 -0.0663397 -0.0199193)
(1.20859 -0.055823 -0.0106963)
(1.20882 -0.0564191 -0.0121887)
(1.20358 -0.0558041 -0.0196779)
(1.21585 -0.060016 -0.0204837)
(1.18183 -0.0260759 -0.010427)
(1.18259 -0.0269304 -0.0142974)
(1.18594 -0.0315283 -0.0151415)
(1.18381 -0.0259293 -0.0104938)
(1.18609 -0.024524 -0.0132988)
(1.19021 -0.0270124 -0.0141541)
(1.18699 -0.0102874 -0.00714168)
(1.18744 -0.0100529 -0.00809626)
(1.18822 -0.0119024 -0.00863695)
(1.18908 -0.00957132 -0.00746033)
(1.18993 -0.0109595 -0.00788412)
(1.18826 -0.0100757 -0.00714933)
(1.19169 -0.00483299 -0.00439031)
(1.19169 -0.00443788 -0.00463663)
(1.19169 -0.00528539 -0.00489725)
(1.19252 -0.00441478 -0.00429627)
(1.19262 -0.0051141 -0.00449193)
(1.19234 -0.00468869 -0.0046031)
(1.19482 -0.00252969 -0.00267922)
(1.19481 -0.00226861 -0.00282957)
(1.19468 -0.00269865 -0.00297036)
(1.19527 -0.00231768 -0.00263598)
(1.19521 -0.00268764 -0.00274801)
(1.19518 -0.00244829 -0.00288868)
(1.19676 -0.00141952 -0.00166618)
(1.19677 -0.00126502 -0.00175831)
(1.19667 -0.00150419 -0.00184833)
(1.19703 -0.00131065 -0.00164356)
(1.19697 -0.00152103 -0.00171732)
(1.19698 -0.00137861 -0.00180211)
(1.19796 -0.000831923 -0.0010448)
(1.19797 -0.000739813 -0.00110094)
(1.1979 -0.00087891 -0.00115848)
(1.19813 -0.000772308 -0.00103188)
(1.19808 -0.000896942 -0.00107983)
(1.19809 -0.000810852 -0.00113091)
(1.1987 -0.000501341 -0.00065977)
(1.19872 -0.000445833 -0.000694236)
(1.19867 -0.000528861 -0.000731018)
(1.19881 -0.000467363 -0.000652135)
(1.19878 -0.000543212 -0.000683227)
(1.19879 -0.00049035 -0.000714298)
(1.19917 -0.000307693 -0.000418651)
(1.19918 -0.000273939 -0.000440089)
(1.19915 -0.000324451 -0.00046376)
(1.19924 -0.000287717 -0.000414101)
(1.19922 -0.000335373 -0.000434371)
(1.19923 -0.000301983 -0.000453489)
(1.19947 -0.000190264 -0.000265873)
(1.19948 -0.000170371 -0.000279455)
(1.19946 -0.00020078 -0.000294661)
(1.19951 -0.000177905 -0.000263023)
(1.1995 -0.00020908 -0.000276223)
(1.1995 -0.000187036 -0.000288211)
(1.19966 -0.000116241 -0.000168911)
(1.19966 -0.000105763 -0.00017754)
(1.19965 -0.000122966 -0.000187113)
(1.19969 -0.000108406 -0.000167058)
(1.19968 -0.000130148 -0.000175531)
(1.19968 -0.000114235 -0.000182983)
(1.19978 -6.88925e-05 -0.00010733)
(1.19978 -6.50713e-05 -0.000112722)
(1.19977 -7.3353e-05 -0.00011895)
(1.1998 -6.40593e-05 -0.000106047)
(1.19979 -8.07441e-05 -0.000111829)
(1.19979 -6.80007e-05 -0.000116312)
(1.19985 -3.77087e-05 -6.67717e-05)
(1.19985 -3.93953e-05 -7.01654e-05)
(1.19985 -4.09108e-05 -7.42623e-05)
(1.19986 -3.43781e-05 -6.54758e-05)
(1.19986 -4.88588e-05 -6.97378e-05)
(1.19986 -3.72816e-05 -7.21049e-05)
(1.19989 -1.59531e-05 -3.83897e-05)
(1.19989 -2.20909e-05 -4.05286e-05)
(1.19989 -1.81681e-05 -4.32781e-05)
(1.1999 -1.39655e-05 -3.71277e-05)
(1.1999 -2.63019e-05 -4.04094e-05)
(1.1999 -1.5834e-05 -4.15859e-05)
(1.26275 0.000652944 -0.00256681)
(1.25687 0.00198755 -0.0140243)
(1.25347 -0.0021194 -0.0155194)
(1.25242 0.00847576 -0.0139201)
(1.25844 0.00076531 -0.00497515)
(1.22338 -0.0167002 -0.0204941)
(1.21601 -0.0184852 -0.00670849)
(1.22239 -0.0185291 -0.0206349)
(1.22096 -0.00644576 -0.0199448)
(1.21701 -0.0178229 -0.0100508)
(1.21524 -0.0180054 -0.0195709)
(1.19628 -0.0164587 -0.00763799)
(1.2021 -0.016322 -0.0130835)
(1.20222 -0.0165659 -0.0137978)
(1.20004 -0.0152127 -0.0118374)
(1.20355 -0.0135035 -0.0124529)
(1.1984 -0.0158414 -0.00812645)
(1.19442 -0.0103177 -0.00562329)
(1.1959 -0.0102353 -0.00697329)
(1.19666 -0.010808 -0.00735252)
(1.19619 -0.00951341 -0.00630758)
(1.19727 -0.00974621 -0.00658981)
(1.19555 -0.00993641 -0.00560737)
(1.19542 -0.00609435 -0.00363036)
(1.19546 -0.00596671 -0.00393888)
(1.19585 -0.00642145 -0.00410949)
(1.19598 -0.00562835 -0.00360575)
(1.1963 -0.00597951 -0.00372606)
(1.19597 -0.00588206 -0.00375777)
(1.19672 -0.00361283 -0.00228279)
(1.19662 -0.00347911 -0.00243689)
(1.19672 -0.00380215 -0.00252163)
(1.197 -0.00334241 -0.00225355)
(1.19711 -0.00360221 -0.00231968)
(1.19701 -0.0034958 -0.00245878)
(1.19778 -0.00217088 -0.00146134)
(1.19773 -0.00207569 -0.00155645)
(1.19776 -0.00228398 -0.00161505)
(1.19797 -0.00201559 -0.0014461)
(1.19801 -0.00218769 -0.00149388)
(1.19797 -0.00210842 -0.0015805)
(1.19854 -0.00132418 -0.000938549)
(1.19851 -0.00126209 -0.000996404)
(1.19852 -0.00139319 -0.00103783)
(1.19867 -0.00123382 -0.000929266)
(1.19868 -0.0013441 -0.000963628)
(1.19866 -0.00129145 -0.00101603)
(1.19905 -0.00081749 -0.000603747)
(1.19903 -0.000778098 -0.00063933)
(1.19903 -0.000860235 -0.000667591)
(1.19913 -0.000763997 -0.00059803)
(1.19914 -0.000833909 -0.000621886)
(1.19912 -0.000800069 -0.000653873)
(1.19938 -0.000511974 -0.000388941)
(1.19938 -0.000486897 -0.000411075)
(1.19937 -0.000538432 -0.000430093)
(1.19944 -0.000479779 -0.000385353)
(1.19944 -0.00052419 -0.000401588)
(1.19943 -0.000502496 -0.000421315)
(1.1996 -0.000321314 -0.000248963)
(1.1996 -0.000305479 -0.000262986)
(1.1996 -0.000338428 -0.00027581)
(1.19964 -0.000301162 -0.000246485)
(1.19964 -0.00032966 -0.000257406)
(1.19963 -0.00031574 -0.000270033)
(1.19974 -0.000202043 -0.000159816)
(1.19974 -0.000192055 -0.000168242)
(1.19974 -0.000213079 -0.000176585)
(1.19977 -0.000189765 -0.000158377)
(1.19977 -0.000208249 -0.000165664)
(1.19977 -0.000199467 -0.000173045)
(1.19984 -0.000125781 -0.00010336)
(1.19983 -0.000119751 -0.000108683)
(1.19983 -0.000133115 -0.000114371)
(1.19985 -0.000117929 -0.000102298)
(1.19985 -0.00012964 -0.000107378)
(1.19985 -0.000124477 -0.000112103)
(1.19989 -7.51118e-05 -6.48817e-05)
(1.19989 -7.18558e-05 -6.80497e-05)
(1.19989 -8.0179e-05 -7.20317e-05)
(1.1999 -6.97875e-05 -6.36129e-05)
(1.1999 -7.77735e-05 -6.72208e-05)
(1.1999 -7.42834e-05 -6.99675e-05)
(1.19993 -4.10132e-05 -3.802e-05)
(1.19992 -4.04094e-05 -3.99807e-05)
(1.19993 -4.44118e-05 -4.26029e-05)
(1.19993 -3.74003e-05 -3.67106e-05)
(1.19993 -4.37429e-05 -3.95385e-05)
(1.19993 -4.0571e-05 -4.09632e-05)
(1.32771 0.0769285 -0.00817892)
(1.30816 0.0651301 -0.00232002)
(1.31304 0.0861331 -0.00121393)
(1.33373 0.0790043 -0.00051863)
(1.32564 0.085895 -0.00499026)
(1.18932 0.00415344 -0.0136713)
(1.18986 -0.00332961 -0.00686016)
(1.20171 0.0126188 -0.0150614)
(1.18459 0.010756 -0.0126543)
(1.19049 -0.000929656 -0.00827883)
(1.19244 0.00384645 -0.013132)
(1.19472 -0.0040134 -0.00950017)
(1.19335 -0.00795548 -0.00580258)
(1.20022 -0.00701925 -0.00956606)
(1.19992 -0.0091619 -0.00834706)
(1.19468 -0.0067551 -0.00616087)
(1.19704 -0.00617702 -0.00827774)
(1.19798 -0.00798703 -0.00418101)
(1.19936 -0.00761115 -0.00520933)
(1.19928 -0.00745015 -0.00532421)
(1.19908 -0.00714516 -0.00461912)
(1.1996 -0.00737488 -0.00470312)
(1.19874 -0.0074825 -0.00420397)
(1.19829 -0.00564037 -0.00277831)
(1.19833 -0.00557763 -0.00304167)