/*--------------------------------*- C++ -*----------------------------------*\
| =========                 |                                                 |
| \\      /  F ield         | OpenFOAM: The Open Source CFD Toolbox           |
|  \\    /   O peration     | Version:  2012                                  |
|   \\  /    A nd           | Website:  www.openfoam.com                      |
|    \\/     M anipulation  |                                                 |
\*---------------------------------------------------------------------------*/
FoamFile
{
    version     2.0;
    format      ascii;
    class       volScalarField;
    location    "0.106/fluid";
    object      p;
}
// * * * * * * * * * * * * * * * * * * * * * * * * * * * * * * * * * * * * * //

dimensions      [0 2 -2 0 0 0 0];


internalField   nonuniform List<scalar> 
16421
(
-0.00261287
-0.00337958
-0.00327863
-0.00338841
-0.00320246
-0.00279712
-0.00213388
-0.00103948
0.000784189
0.00400181
0.00998704
0.0226329
0.0549327
0.142763
0.304414
-0.00277007
-0.00344227
-0.00334
-0.00346487
-0.0033006
-0.00293188
-0.00233557
-0.00137767
0.000159743
0.00270182
0.00705252
0.0148558
0.0290516
0.0444156
-0.114912
-0.00291455
-0.00356971
-0.00347692
-0.00362575
-0.00350768
-0.00322226
-0.00277585
-0.00210381
-0.00107899
0.00048588
0.00286332
0.00654542
0.0129635
0.0295964
0.046044
-0.00308115
-0.00372927
-0.00365118
-0.00383475
-0.00378103
-0.00360945
-0.00335029
-0.0030063
-0.00254765
-0.00195121
-0.00115812
0.00015587
0.00450316
0.0267018
0.0928833
-0.00278159
-0.00340804
-0.00330366
-0.00341973
-0.00324932
-0.00287407
-0.00225304
-0.00124197
0.000429689
0.00334356
0.00862979
0.0190807
0.0426783
0.101764
0.272725
-0.00293582
-0.00346823
-0.00336507
-0.0034937
-0.00334293
-0.003002
-0.00244783
-0.00157078
-0.000167045
0.0021153
0.0058681
0.0120361
0.0212518
0.0247556
-0.0265833
-0.00307508
-0.00359658
-0.00350043
-0.00365282
-0.00354669
-0.00328495
-0.0028753
-0.00226312
-0.0013498
-3.53481e-06
0.00187667
0.00415679
0.00585723
0.00160397
-0.0256346
-0.00324007
-0.00375539
-0.00367185
-0.00385926
-0.00381495
-0.0036607
-0.00343465
-0.00313492
-0.00275403
-0.00231355
-0.00192055
-0.00178946
-0.00185983
-0.00154769
-0.00396946
-0.00285569
-0.00347103
-0.00336124
-0.00348624
-0.00334742
-0.00302603
-0.00249513
-0.00164056
-0.000236412
0.00219258
0.00669579
0.0157245
0.0372877
0.0990084
0.262914
-0.00301349
-0.00353024
-0.00342081
-0.00355894
-0.0034369
-0.00314846
-0.00268138
-0.00194752
-0.000782775
0.00109397
0.00414888
0.00914178
0.0167749
0.0230845
-0.0108264
-0.00315336
-0.00365623
-0.00355188
-0.00371318
-0.00363395
-0.00342004
-0.00308612
-0.00259286
-0.00187354
-0.000859519
0.000419204
0.00149902
0.000378772
-0.00811616
-0.0326616
-0.00331545
-0.00381042
-0.00371742
-0.00391224
-0.00389276
-0.00377931
-0.0036135
-0.00340175
-0.00316044
-0.00296602
-0.0030628
-0.00409241
-0.00758388
-0.0162329
-0.0342732
0.188962
0.046759
-0.11678
0.102411
0.215163
0.0275315
0.0146982
-0.173379
0.267712
-0.0116279
-0.266668
0.043326
-0.0298553
-0.216076
-0.0642493
-0.185782
0.0814844
-0.0653561
-0.172325
-0.0435857
-0.231856
-0.011876
-0.149807
-0.00699052
-0.180993
0.266078
0.002509
-0.203113
-0.132279
-0.0297336
-0.108282
0.00444078
-0.18688
-0.110356
0.116741
-2.08009
0.256422
0.132979
0.421116
0.04975
0.0310988
0.0372842
0.0189084
-0.00511198
-0.00357243
-0.0383894
-0.174318
0.0171103
-0.0461616
-0.177296
-0.0270877
0.0399986
0.0289357
0.0599332
-0.00638094
-0.0405374
-0.00536122
-0.023227
-0.179571
0.0551338
-0.01958
-0.181063
-0.0144565
0.0693806
-0.00465937
-0.00682024
0.0307741
-0.132397
-0.0392991
-0.0177602
-0.117015
-0.047183
-0.0727252
-0.0466039
-0.151928
-0.000782008
-0.0152089
-0.0248071
-0.00781289
-0.0181172
-0.018959
-0.0480267
-0.041565
-0.133296
-0.0270183
-0.0393316
-0.0471278
-0.0571541
0.082591
0.199735
0.0385808
0.174343
0.194921
0.1727
0.15306
-0.13106
-0.699993
0.519547
-0.1045
-7.02844
-0.0623427
-0.0658062
-0.197196
-0.241898
-0.321464
-0.507974
-0.262505
-0.116238
0.353078
-0.739829
-0.68897
-0.114808
0.448651
-0.233804
-0.306436
-0.244482
-0.26798
-0.178408
0.0292118
-0.0221477
-0.0256568
-0.181844
-0.236273
-0.239513
-0.260182
-0.235594
-0.235067
-0.237081
-0.234669
-0.238803
-0.173939
0.0582273
0.00851957
-0.00793624
-0.160297
-0.230579
-0.295058
-0.234847
-0.241149
-0.26468
-0.214531
0.0011469
-0.0283467
-0.0264682
-0.193095
-0.109782
-0.123797
-0.0633705
0.343026
-0.729665
-0.0876592
-0.725659
0.319405
-0.0607321
0.311264
-0.712257
-0.721609
-0.0530625
0.316857
-0.0892771
-0.111918
-0.0865098
-0.0158503
-0.0309991
-0.015674
-0.106929
-0.0927588
-0.0810562
-0.0488318
0.310688
-0.70961
-0.0522716
-0.697614
0.309332
-0.0469582
-0.694918
0.309271
-0.0960849
-0.12697
-0.117358
-0.131281
-0.122623
0.205231
0.222901
0.109681
0.233156
0.220279
0.0310062
0.0123032
0.0998837
0.218066
0.0291556
0.0208274
0.132154
0.300434
0.121073
0.271984
0.123897
0.128626
0.28427
-0.12658
-0.0265853
-0.0459051
-0.0172603
-0.139925
-0.0453775
-0.0885611
0.215757
0.029266
0.0222521
0.118232
0.275438
0.112765
0.262247
0.117804
0.112678
0.27428
-0.122683
-0.0296459
-0.0571466
-0.0165289
0.301626
0.173089
0.180318
0.148678
0.193642
0.192947
-0.0479027
-0.20446
-0.0463094
-0.0510274
-0.0863965
-0.0245387
0.00902311
-0.439212
-0.372361
-0.39812
-0.456303
0.222266
0.327489
0.31435
0.140665
0.137297
0.150403
0.367281
0.125811
-0.131068
-0.509465
-0.164408
-0.448921
-0.0333601
-0.156066
-0.440384
-0.386312
-0.350319
-0.461988
-0.394988
-0.269602
-0.275927
-0.389035
-0.385853
-0.268344
-0.265653
-0.388018
-0.410897
-0.326757
-0.288985
-0.44694
-0.561916
-0.338329
-0.444391
-0.456787
-0.114124
-0.489473
-0.0942453
-0.219445
-0.0930614
-0.494082
-0.114579
0.115486
0.263135
0.276425
0.117883
0.110692
0.121337
0.280119
-0.111443
-0.190219
-0.480971
-0.104299
-0.484792
-0.0997999
-0.109314
-0.106047
-0.47536
-0.0950952
-0.193251
-0.10651
-0.469068
-0.0989991
0.274216
-0.464284
0.354068
0.441427
0.442838
0.283173
0.353735
-1.08623
-12.3082
-0.0106273
-0.979234
0.296585
0.0537288
0.263221
1.47151
-0.108711
-0.179262
-0.332279
-0.13541
-0.292526
-0.0516191
-0.0777584
-0.268364
-0.0235392
-0.283805
-0.0654868
-0.0412852
-0.0403534
-0.00406243
-0.254062
-0.0424938
-0.251473
-0.000577196
-0.0383319
-0.248965
0.00502735
-0.250523
-0.0358115
0.000624639
0.0354069
0.0402667
-0.233599
0.00225895
-0.186506
0.0780442
-0.133922
0.0940323
0.0607641
0.129522
-0.711741
0.196121
0.0490922
-0.132566
0.267501
0.110694
0.519048
0.44088
-0.397049
-0.710852
-0.323605
-0.505423
-0.413108
-0.640247
-0.229064
-0.576215
-0.0595029
-0.0205859
0.307065
-0.220874
0.0140849
0.292833
0.55707
0.459566
-0.0033619
-1.19722
-1.98812
-2.06396
-9.86158
-9.14596
-1.09482
-1.04804
-0.218446
-0.414073
-0.338921
-0.301595
-0.38108
-1.34979
-0.902255
0.0772683
-2.3146
-0.509641
-1.69307
-0.432766
-0.521271
-0.34802
-0.417749
-0.438481
-0.388693
-0.401857
-0.475002
-0.414686
-0.0647281
-0.287593
-0.534572
-0.0648376
0.225146
0.387497
0.266597
-0.119233
-0.521786
-0.732275
-0.370919
-0.324728
-0.588506
-0.562954
-0.365619
-0.710926
-0.695477
-0.286504
-0.100025
0.197051
0.404332
-0.109949
0.271568
-0.447629
-0.384285
-0.344057
-0.48021
-0.440586
-0.294057
-0.327366
-0.414163
-0.450283
-0.328502
-0.339702
-0.434263
-0.0476455
-0.00503471
-0.254883
-0.0446644
-0.258715
-0.00970009
-0.0518159
-0.265884
-0.0198715
-0.0572196
-0.260278
-0.0115489
-0.397099
-0.288698
-0.409009
-0.278198
-0.422666
-0.318398
-0.321891
-0.417927
-0.423655
-0.326926
-0.431441
-0.322966
-0.414912
-0.317696
-0.315486
-0.41709
-0.386366
-0.268252
-0.265601
-0.389547
-0.415298
-0.314838
-0.314976
-0.417933
-0.0243259
0.0337448
-0.239874
-0.0135321
-0.246944
0.016817
-0.0301008
-0.248739
0.00608487
-0.0337576
-0.248332
0.0134414
-0.405317
-0.269862
-0.3913
-0.283326
-0.437405
-0.318596
-0.317348
-0.467059
-0.432166
-0.314796
-0.419783
-0.317683
-0.437746
-0.172446
-0.374248
-0.56889
-0.314727
-0.29628
-0.476901
-0.576539
-0.467396
-0.39757
-0.56646
-0.274767
-0.285479
-0.331418
-0.297247
-0.267199
-0.307142
-0.356407
-0.277995
-0.0722613
-0.24988
-0.134923
0.211991
0.328659
0.213545
-0.140913
-0.593184
-0.360386
-0.723484
-0.610088
-0.341715
-0.586282
-0.358473
-0.727236
-0.349334
-0.597011
-0.127924
0.20378
0.326688
0.213737
-0.13916
-0.137239
0.19823
0.31293
0.199979
-0.139249
-0.590896
-0.716553
-0.349485
-0.349657
-0.590626
-0.591627
-0.354498
-0.716252
-0.599249
-0.347829
-0.138552
0.201001
0.313418
-0.142138
0.200393
-0.220073
-0.0642045
-0.0616814
-0.212695
-0.237898
-0.255369
-0.220995
-0.0617005
-0.0569366
-0.237066
-0.235089
-0.225989
-0.211209
-0.0582627
-0.2088
-0.0698462
-0.225542
-0.197785
-0.193249
-0.233832
-0.22354
-0.196845
-0.222733
-0.193204
-0.214199
-0.0898566
-0.0759491
-0.223823
-0.135895
0.19804
0.309776
0.197979
-0.139094
-0.584222
-0.346588
-0.704319
-0.590095
-0.342547
-0.583518
-0.339613
-0.7033
-0.342801
-0.57963
-0.135132
0.197847
0.309594
0.197715
-0.133788
-0.337637
-0.578729
0.198107
-0.132907
-0.248726
-0.14069
-0.119782
-0.268114
-0.251873
-0.200075
-0.211442
-0.236552
-0.242347
-0.0932278
-0.112203
-0.226158
-0.257655
-0.231431
-0.21582
-0.276461
-0.14656
-0.273801
-0.236214
-0.281966
0.284214
0.254666
0.32484
0.243573
0.292952
-0.245608
-0.329674
-0.210923
-0.208847
-0.266317
-0.303922
-0.282839
-1.40078
0.37533
-0.266861
-0.00424264
-0.61681
-0.778002
-0.517239
-0.372033
-0.350006
-0.53098
-0.229167
-0.198075
-0.495131
-0.379794
-0.411925
-0.541451
-0.432742
-0.306192
-0.308279
-0.427992
-0.211656
-0.213488
-0.424968
-0.305333
-0.303037
-0.428036
-0.476951
-0.365194
-0.340479
-0.499874
-0.26503
-0.239159
-0.553396
-0.370624
-0.408862
-0.512318
-0.233153
-0.495398
-0.322657
-0.40937
-0.163435
-0.35382
-0.360878
-0.155738
-0.228848
-0.228955
-0.1364
-0.341235
-0.137219
-0.339249
-0.131866
-0.336661
-0.336773
-0.129034
-0.211127
-0.207144
-0.0868918
-0.32417
-0.103301
-0.313235
-0.12281
-0.21332
0.486297
0.105095
0.367031
0.138778
-0.193584
-0.575982
-0.511478
-0.37808
-0.549981
-0.636549
-0.483662
-0.493893
-0.658622
-0.256895
-0.154139
0.306069
0.0421256
-0.311701
0.235788
0.00257148
-0.217148
0.082953
0.0406944
-0.216511
0.174519
-0.148665
-0.265659
-0.59359
-0.488771
-0.416861
-0.695914
-0.454635
-0.321951
-0.320773
-0.444432
-0.572507
-0.362095
-0.36895
-0.562459
-0.140446
-0.341455
-0.137746
-0.344095
-0.149616
-0.354595
-0.153743
-0.350111
-0.440512
-0.32184
-0.449721
-0.318339
-0.565942
-0.350627
-0.353054
-0.560947
-0.56474
-0.363594
-0.573513
-0.358607
-0.227272
-0.223543
-0.558502
-0.350607
-0.348245
-0.5626
-0.4274
-0.306043
-0.302362
-0.429008
-0.559909
-0.346701
-0.346146
-0.561785
-0.116727
-0.330463
-0.105909
-0.333503
-0.128237
-0.33604
-0.128952
-0.33652
-0.434917
-0.305976
-0.430286
-0.310971
-0.579129
-0.347703
-0.347203
-0.599918
-0.566105
-0.346449
-0.562005
-0.34718
-0.210576
-0.21598
-0.612384
-0.341961
-0.336489
-0.591963
-0.278254
-0.0275788
-0.201525
0.0431059
0.0661393
-0.186576
-0.285626
-0.284549
-0.00775966
0.026086
-0.197472
0.0712176
-0.290565
-0.168907
-0.285078
-0.196552
-0.047467
0.038714
-0.287969
0.0465808
-0.190703
-0.284463
-0.0479236
0.0433217
-0.193302
0.0463291
-0.191429
-0.284394
-0.279887
-0.0492492
-0.186597
0.0451444
0.044581
-0.187865
-0.277376
-0.280501
-0.0492672
0.0430016
-0.190923
0.0449266
-0.283486
-0.188682
-0.183903
0.0461239
-0.276107
0.267252
0.255748
-0.304312
-0.344248
-0.208601
-0.208135
-0.3721
-0.309031
0.188054
0.207993
0.197876
0.169225
0.25337
0.182376
0.198505
-0.505572
-0.418368
-0.373473
-0.509989
-0.540892
-0.597269
-0.550103
-0.589028
-0.526578
-0.492391
-0.510304
-0.568001
-0.297904
-0.241508
-0.511858
-0.608151
-0.558059
-0.554051
-0.516457
-0.383947
-0.425911
-0.509187
-0.527298
-0.525814
-0.5491
-0.526161
-0.431126
-0.313212
-0.308924
-0.437854
-0.447836
-0.487513
-0.442187
-0.493682
-0.445812
-0.497462
-0.452004
-0.490423
-0.218215
-0.214191
-0.439746
-0.488588
-0.442284
-0.485132
-0.426256
-0.302939
-0.302586
-0.42464
-0.441204
-0.48472
-0.487163
-0.43883
-0.467413
-0.322395
-0.337816
-0.452454
-0.492362
-0.556258
-0.513428
-0.532422
-0.482021
-0.51219
-0.467272
-0.527133
-0.224321
-0.240053
-0.567377
-0.56103
-0.527065
-0.602186
-0.574945
-0.492295
-0.422058
-0.641679
-0.587546
-0.669186
-0.607525
-0.650769
0.106929
-0.514173
-0.952155
-0.370075
0.594678
-6.99624
83.8276
-7.86294
-0.212545
0.449432
0.324578
-1.20885
-1.04646
-1.44478
-1.44815
-1.2774
-1.40943
-0.222672
-0.370608
-0.187197
-0.400821
-0.16682
-0.369617
-0.181566
-0.360544
-0.270332
-0.235166
-0.135617
-0.337918
-0.133256
-0.339076
-0.132281
-0.337641
-0.132627
-0.337147
-0.207337
-0.208104
-0.080577
-0.269353
-0.0440952
-0.300702
-0.242687
-0.0291573
-0.401443
-1.59974
-1.58864
-1.62255
-1.597
-1.62206
-1.62768
-1.6291
-0.0939834
-0.073623
0.184065
0.120986
0.169889
-0.202932
-0.129985
0.60468
0.463667
0.0242509
0.428024
0.580788
0.580796
0.538546
0.517276
0.559242
-1.06098
-0.493487
-0.360546
-0.985203
-0.345042
-1.06561
-1.17347
-0.989172
-1.05766
-1.0125
-0.540591
-0.520178
-0.520077
-0.970256
-1.11878
-1.3989
-1.39175
-1.13891
-1.11047
-1.24125
-1.35822
-1.05421
-1.01637
-0.475277
-0.611954
-0.557591
-1.04295
0.66311
0.419443
0.078613
0.438524
0.567309
0.647196
0.532226
0.555628
0.591865
0.731267
0.137093
0.354008
0.460855
0.596493
0.604958
0.556795
0.522895
0.577651
-1.07137
-6.79359
-170.296
-1.26755
-5.33517
7.28797
-5.02303
-1.87458
-2.14386
-2.55009
-0.652215
-2.04785
-1.55094
-2.3981
-0.677885
-0.480671
-0.714337
-0.525065
-0.488795
-0.792089
-1.63014
-1.09156
-0.974613
-0.490374
-0.547716
-0.502095
-0.544019
-0.617198
-0.615991
-0.605687
-0.64043
-0.58514
-0.403907
-0.46525
-0.434006
-0.574703
-0.49602
-0.582603
-0.446417
-0.459666
-0.399681
-0.488634
-0.402718
0.396717
0.236549
-0.0535739
0.238481
0.392267
0.359624
0.347719
0.337117
0.364318
0.388002
-0.0807417
0.197962
0.21405
0.364309
0.367232
0.387484
0.370959
0.369633
-1.10983
-0.623165
-0.517863
-1.09544
-0.630518
-1.23154
-1.56374
-1.61777
-1.21836
-1.22441
-1.62303
-1.20937
-1.63979
-1.12055
-0.554545
-0.659951
-0.654261
-1.11221
-1.04444
-0.582954
-0.625228
-0.612843
-1.08573
-1.15781
-1.39872
-1.14872
-1.43948
-1.06176
-0.632345
-0.662778
-1.06409
-0.645232
-1.14949
-1.59832
-1.19709
-1.48082
0.422875
-0.128811
0.213487
0.229587
0.382884
0.422026
0.49275
0.452537
0.443747
0.429027
-0.164485
0.192628
0.457434
0.226629
0.410387
0.394475
0.369682
0.431406
-0.382192
-1.61776
-1.68227
-1.68839
-1.72035
-1.43754
-1.48199
-1.66639
-1.53754
-0.587651
-0.629901
-0.567898
-0.672702
-0.585074
-0.377826
-0.410682
-0.5446
-0.57792
-0.527751
-0.557364
-0.534375
-0.452565
-0.353338
-0.495757
-0.324217
-0.473257
-0.501529
-0.516314
-0.460607
-0.471633
-0.53037
-0.514592
-0.51035
-0.558878
-0.37821
-0.367415
-0.56282
-0.5562
-0.513878
-0.528654
-0.545367
-0.543843
-0.536377
-0.547948
-0.522298
-0.141424
-0.347276
-0.143267
-0.344206
-0.148015
-0.347131
-0.14433
-0.350621
-0.445076
-0.314254
-0.436137
-0.318234
-0.455732
-0.508245
-0.464847
-0.497793
-0.459941
-0.494505
-0.450513
-0.503806
-0.547035
-0.502361
-0.508395
-0.541486
-0.563088
-0.356488
-0.352988
-0.569346
-0.543934
-0.511874
-0.505146
-0.550326
-0.546515
-0.521166
-0.555393
-0.511373
-0.572264
-0.356038
-0.359515
-0.563436
-0.55396
-0.508618
-0.517603
-0.545686
-0.219326
-0.22289
-0.539415
-0.503628
-0.500091
-0.54323
-0.560004
-0.347373
-0.3482
-0.558446
-0.541142
-0.499597
-0.502241
-0.539035
-0.425211
-0.301977
-0.424831
-0.302582
-0.442501
-0.489221
-0.488484
-0.44322
-0.440034
-0.485759
-0.439167
-0.485883
-0.55939
-0.34715
-0.346461
-0.559378
-0.54116
-0.503919
-0.503387
-0.542612
-0.540303
-0.50097
-0.54002
-0.501009
-0.118502
-0.33593
-0.122732
-0.336426
-0.127857
-0.337209
-0.12383
-0.335812
-0.439386
-0.322093
-0.447561
-0.311721
-0.449756
-0.491005
-0.44479
-0.495606
-0.454699
-0.507216
-0.461748
-0.499547
-0.567425
-0.567366
-0.544884
-0.58682
-0.585942
-0.347993
-0.349956
-0.573835
-0.570384
-0.526089
-0.54075
-0.556549
-0.54799
-0.50587
-0.543302
-0.510342
-0.565831
-0.349254
-0.346645
-0.575154
-0.548055
-0.521509
-0.513567
-0.557327
-0.226152
-0.215259
-0.606103
-0.570672
-0.608319
-0.580576
-0.60083
-0.307437
-0.32467
-0.633041
-0.598359
-0.668355
-0.611355
-0.641689
-0.532218
-0.654321
-0.670353
-0.657742
-0.28222
-0.614756
-0.667971
-0.628246
0.336138
0.17034
-0.148267
0.168159
0.335782
0.314667
0.34218
0.327287
0.330578
0.336072
-0.158263
0.173573
0.350854
0.165032
0.31363
0.323355
0.311376
0.328253
-1.10018
-0.596095
-0.660421
-0.660816
-1.10477
-1.20842
-1.54815
-1.53876
-1.21409
-1.20404
-1.56621
-1.54375
-1.20953
-1.10538
-0.610753
-0.668536
-1.11005
-0.66818
-1.10569
-0.65901
-0.584526
-0.659937
-1.10607
-1.21231
-1.55429
-1.56677
-1.20674
-1.21134
-1.57061
-1.57215
-1.21127
-1.10749
-0.591877
-0.662793
-0.663692
-1.10299
0.337196
0.175626
-0.128967
0.174394
0.338354
0.309015
0.314324
0.304425
0.318275
0.334531
-0.135045
0.167287
0.168833
0.330342
0.311033
0.322473
0.312164
0.319236
0.323257
0.163338
-0.140254
0.161658
0.324795
0.297683
0.306419
0.296668
0.307558
0.322508
-0.141481
0.161531
0.160495
0.322288
0.298187
0.30853
0.298794
0.30778
-1.09198
-0.656651
-0.587285
-1.09455
-0.656351
-1.1943
-1.53647
-1.54188
-1.19043
-1.19504
-1.54734
-1.19757
-1.54464
-1.09148
-0.588964
-0.65437
-0.656017
-1.08821
-1.09508
-0.590286
-0.657079
-0.65866
-1.09452
-1.2003
-1.54943
-1.20415
-1.5452
-1.09709
-0.594257
-0.662097
-1.10072
-0.661203
-1.19836
-1.54786
-1.19765
-1.54477
0.323596
-0.1448
0.16267
0.160801
0.324449
0.299297
0.313122
0.30248
0.310642
0.323425
-0.147504
0.16303
0.327735
0.160066
0.299176
0.308629
0.298756
0.31004
0.320217
0.161904
-0.14069
0.160015
0.321299
0.295491
0.306235
0.296312
0.305711
0.320009
-0.141801
0.161172
0.321825
0.15962
0.295635
0.305088
0.295592
0.305662
-1.08129
-0.582977
-0.647628
-0.649463
-1.07928
-1.18486
-1.53383
-1.52978
-1.18857
-1.1834
-1.52639
-1.52821
-1.1809
-1.08269
-0.584505
-0.652381
-1.08633
-0.65116
-1.07506
-0.646634
-0.578731
-0.645715
-1.07854
-1.1752
-1.51364
-1.51825
-1.17117
-1.17645
-1.52477
-1.52059
-1.17997
-1.07398
-0.579044
-0.642135
-0.644319
-1.07045
0.320189
0.162234
-0.137827
0.160835
0.321452
0.295321
0.304724
0.295254
0.305068
0.320015
-0.137799
0.162558
0.16068
0.320916
0.295351
0.305142
0.295613
0.305009
-1.16472
-1.51123
-1.16945
-1.5058
-1.06421
-0.572391
-0.640025
-1.06887
-0.638291
0.295193
0.304719
0.295286
0.304787
0.319904
-0.134808
0.162993
0.320944
0.161943
-0.0384152
0.0983327
-0.0231375
-0.167457
-0.164089
0.0165333
-0.0401773
0.000413186
-0.0561828
0.0485579
-0.101627
-0.0999377
-0.00160855
-0.053683
0.06343
-0.00335514
0.106084
-0.0611023
-0.0536566
0.0435322
0.0173784
0.0824328
0.236611
0.170113
0.124696
0.10071
0.0995352
0.164552
0.0223369
-0.0213413
0.0378798
-0.0641867
0.0539408
-0.0446666
-0.0107397
-0.00657854
0.0399997
-0.0586805
-0.103083
-0.105528
-0.00367486
-0.0618007
-0.0693144
-0.0375724
-0.0760688
-0.0462788
-0.0925087
-0.036179
-0.0923905
-0.0711973
-0.124339
-0.152969
-0.201889
-0.100687
-0.0678505
-0.15749
-0.0638203
-0.0262702
-0.0585273
-0.109017
-0.0349547
-0.0479857
-0.103651
-0.0635302
-0.0337716
-0.189348
-0.161629
-0.0543423
-0.0431331
-0.159694
0.0186296
0.0701367
-0.0191735
-0.0722759
-0.0817481
0.0285823
-0.0307979
-0.0414566
-0.0236955
-0.107354
-0.0646118
-0.0439589
-0.0197242
-0.110443
-0.0409224
-0.0300535
-0.154619
-0.187099
-0.0391208
-0.0374505
-0.164263
-0.0422404
-0.0112467
-0.0530934
-0.0923317
-0.0178679
-0.0467757
-0.0907972
-0.0528365
-0.11548
-0.151867
-0.171603
-0.0543885
-0.0809701
-0.137621
-0.284579
-0.16546
-0.155968
-0.228065
-0.168248
-0.242759
-0.271611
-0.234909
-0.134515
-0.201663
-0.122438
-0.125185
-0.189539
-0.24605
-0.222065
-0.106658
-0.115469
-0.174283
-0.11295
-0.172277
-0.225424
-0.235639
-0.117783
-0.176289
-0.115142
-0.123284
-0.181923
-0.228533
0.271891
0.253947
0.575476
0.152644
0.506292
0.289719
0.251463
-0.658458
-0.996514
-3.95347
-2.71904
-2.32165
-2.64227
-1.12868
0.208321
0.244681
0.252022
0.304917
0.177658
0.260068
0.296958
0.0260535
0.120236
-0.328455
0.175872
-0.024741
-0.0739619
0.24525
0.383699
0.359313
0.43881
0.368998
0.52892
0.312071
0.375469
0.0249975
0.0283565
-0.032439
-0.0172329
-0.0251988
-0.0130987
0.0368285
0.034911
-0.0211211
-0.0230533
-0.011153
0.049784
-0.0101983
0.0461961
-0.0993666
-0.168826
-0.0961217
-0.159305
-0.164784
-0.0962234
-0.0886279
-0.029064
-0.0024421
-0.123188
-0.0720558
-0.140324
-0.0229499
-0.0687112
-0.112448
-0.163969
-0.178551
-0.10783
-0.111426
-0.17905
-0.0921864
0.0445614
-0.0197475
-0.0153736
-0.00646454
0.0517011
-0.00957522
0.0545705
0.0494866
0.00135531
-0.0108583
-0.00390275
0.0625046
0.00464903
0.0568781
-0.0723165
-0.180562
-0.0939613
-0.126992
-0.128878
-0.0688698
-0.0976365
0.00247377
0.0511286
-0.0936873
-0.0478915
-0.0976543
0.00545222
-0.0511117
-0.0747472
-0.180906
-0.13286
-0.0987312
-0.076683
-0.131246
-0.0984381
0.0131168
0.0631625
0.00888725
-0.000995015
-0.105557
-0.101274
-0.0449716
-0.0341023
-0.0778119
-0.0100405
-0.0504248
-0.0778853
-0.172292
-0.0458704
-0.123167
-0.0781198
-0.0844148
-0.120521
-0.111031
-0.0847601
-0.0450097
-0.0633324
-0.0474338
-0.060953
-0.0997679
-0.15481
-0.120336
-0.062257
-0.0511051
-0.0504736
-0.0617563
0.0262752
0.147001
0.235107
0.229706
0.17615
0.100398
0.210679
0.0534946
0.10288
-0.0807954
0.181829
0.0513041
-0.020706
0.134032
-0.940552
-0.645736
-0.687442
-1.13193
-1.12801
-0.631097
-0.949292
0.584634
0.450173
0.551042
0.483003
0.49764
0.525733
0.525061
0.244972
0.0195476
-0.278979
0.861328
0.98029
0.0109757
-0.163916
0.0880889
-0.10301
-0.424813
-0.0232332
1.17198
-0.414735
-0.0768823
-0.0791693
-0.169948
-0.153432
-0.109548
-0.0900575
-0.0553417
-0.0533439
-0.00798632
-0.318182
-0.271715
0.357952
0.0891939
0.0716353
-0.30964
-0.264626
-0.30893
-0.352977
-0.326389
-0.338503
-0.332157
-0.269081
-0.288513
-0.422854
-0.452387
-0.384749
-0.282697
-0.352209
-0.385095
-0.144604
-0.25441
-0.189635
-0.311228
-0.0607311
-0.31227
-0.212218
0.358186
0.338231
0.334619
0.362947
0.344413
0.347116
0.347112
-0.982331
-1.14914
-0.742148
-0.662458
-0.656612
-1.15334
-0.98155
-0.94776
-0.623722
-1.1214
-0.696078
-0.616438
-0.953456
-1.11852
0.408789
0.38648
0.418019
0.460015
0.447671
0.397871
0.424721
-0.246893
-0.234544
-0.280869
-0.212072
-0.220921
-0.235149
-0.288375
-0.285391
-0.318019
-0.30993
-0.292135
-0.299307
-0.299133
-0.298913
-0.264361
-0.230378
-0.230928
-0.298621
-0.23604
-0.259446
-0.286016
-0.258274
-0.283535
-0.248934
-0.283933
-0.258512
-0.247419
-0.297201
-0.0865828
-0.0986518
-0.180159
-0.150881
-0.0916739
-0.145291
-0.0998847
-0.0104617
0.0354968
-0.112445
-0.0696816
-0.108687
-0.0153602
-0.0651681
-0.0817386
-0.18187
-0.135365
-0.099475
-0.0784818
-0.138679
-0.099826
-0.215975
-0.281033
-0.235714
-0.201481
-0.223429
-0.195163
-0.276871
-0.224907
-0.223997
-0.244841
-0.264379
-0.268821
-0.228166
-0.221071
-0.23108
-0.279964
-0.240213
-0.250583
-0.237657
-0.272071
-0.234434
-0.208222
-0.236639
-0.184123
-0.273099
-0.187626
-0.276045
-0.204484
-0.199828
-0.233396
-0.273363
-0.178088
-0.178325
-0.201081
-0.269317
-0.216471
-0.220887
-0.262571
-0.236409
-0.219281
-0.218032
-0.261736
-0.199655
-0.234118
-0.181155
-0.271871
-0.179656
-0.201158
-0.271158
-0.215798
-0.2652
-0.220819
-0.234377
-0.218361
-0.218047
-0.259272
-0.0645357
-0.0896551
-0.174038
-0.126985
-0.0682897
-0.125425
-0.0864883
0.0120896
0.0638256
-0.0913988
-0.044028
-0.0882003
0.00823614
-0.0385251
-0.0596375
-0.168927
-0.1133
-0.0644493
-0.0446027
-0.122399
-0.0817818
-0.207372
-0.270573
-0.236004
-0.178654
-0.201581
-0.180061
-0.283887
-0.237788
-0.273545
-0.249682
-0.324647
-0.275584
-0.242753
-0.268996
-0.230961
-0.261735
-0.223194
-0.254305
-0.220776
-0.280534
-0.23519
-0.213436
-0.231477
-0.183583
-0.311251
-0.181501
-0.278314
-0.231891
-0.38951
-0.286856
-0.293297
-0.353916
-0.364628
-0.281115
-0.417207
-0.331738
-0.232587
-0.181603
-0.278676
-0.195801
-0.244791
-0.385371
-0.304737
-0.179652
-0.192739
-0.273515
-0.185783
-0.311945
-0.255331
-0.253899
-0.144027
-0.121128
-0.11782
-0.155343
-0.128997
-0.242744
-0.27365
-0.136008
-0.171726
-0.122487
-0.17601
-0.268226
-0.134105
0.326217
0.328799
0.3235
0.337979
0.320637
0.331805
0.323524
-0.974371
-1.14077
-0.65174
-0.728975
-0.651156
-1.13818
-0.9755
-0.968307
-0.648651
-0.726722
-1.12839
-0.646971
-1.13052
-0.96702
0.314596
0.301958
0.322198
0.304815
0.305146
0.311588
0.307227
0.304002
0.296811
0.293977
0.312368
0.295546
0.302973
0.297526
-0.953088
-1.11002
-0.713626
-0.635791
-0.63532
-1.11214
-0.951543
-0.961405
-0.643997
-1.12369
-0.720291
-0.642097
-0.963034
-1.12156
0.307101
0.299349
0.302743
0.315818
0.298818
0.308498
0.301341
-0.211629
-0.126311
-0.0991538
-0.0869158
-0.120771
-0.0951154
-0.218661
-0.232661
-0.118381
-0.117522
-0.180438
-0.122656
-0.187899
-0.226407
-0.211248
-0.0972962
-0.0913306
-0.112493
-0.11766
-0.100192
-0.206806
-0.217831
-0.105285
-0.11159
-0.171342
-0.110714
-0.218752
-0.168728
-0.208982
-0.11507
-0.0912902
-0.112535
-0.112743
-0.107112
-0.214115
-0.203264
-0.0936999
-0.108738
-0.0856708
-0.110703
-0.200756
-0.0982656
0.302271
0.296351
0.293448
0.310742
0.293982
0.302353
0.296133
-0.946527
-1.10651
-0.632779
-0.707927
-0.630474
-1.10434
-0.94832
-0.936591
-0.62226
-0.699318
-1.09056
-0.622572
-1.09309
-0.934478
0.301397
0.292139
0.309866
0.294958
0.293083
0.30105
0.295146
-0.928796
-0.619586
-1.08724
-0.692407
-0.6164
-0.931501
-1.08429
0.301281
0.292087
0.294865
0.309744
0.293067
0.30089
0.295089
-0.226908
-0.118587
-0.118168
-0.10429
-0.12555
-0.128455
-0.217635
-0.245205
-0.120826
-0.137334
-0.198383
-0.129207
-0.190564
-0.254372
-0.237843
-0.150524
-0.111843
-0.138304
-0.131581
-0.140506
-0.247728
-0.141589
-0.205199
-0.261901
-0.15974
-0.143723
-0.256344
0.0626401
0.107097
0.329107
0.215922
0.232017
-0.00548893
0.15651
-0.0969815
0.291057
0.170897
0.202932
0.150626
0.241577
0.225804
-0.0413952
0.0653959
-0.150047
0.187994
0.171863
-0.0626845
0.167943
0.162666
0.233347
0.218728
0.210644
0.240741
0.202758
0.177813
0.314968
0.294087
0.315222
0.211528
0.32547
0.192666
0.326611
0.298765
0.289369
0.30516
0.198709
0.31409
0.186314
0.320945
0.291581
0.274832
0.291132
0.184883
0.306735
0.184388
0.306524
0.290509
0.274357
0.290671
0.1844
0.30579
0.183953
0.306
0.202288
0.124702
0.0903565
0.202562
0.184285
0.15874
0.170517
-0.444733
-0.427721
-0.448244
-0.473509
-0.460604
-0.456752
-0.425484
-0.436038
-0.394104
-0.374574
-0.404788
-0.388665
-0.446005
-0.405455
-0.421571
-0.419337
-0.421039
-0.378509
-0.389135
-0.446325
-0.40619
-0.46638
-0.455155
-0.485935
-0.431494
-0.475541
-0.476476
-0.430082
0.321582
0.329407
0.336943
0.213466
0.33479
0.188159
0.348504
0.403796
0.390041
0.378422
0.237791
0.421453
0.321083
0.393906
-0.496337
-0.376144
-0.319559
-0.22272
-0.363942
-0.345679
-0.286735
-0.268258
-0.342041
-0.467042
-0.213997
-0.22987
-0.168817
-0.343407
-0.493671
-0.422714
-0.461899
-0.450808
-0.494142
-0.436389
-0.449599
-0.479417
-0.402286
-0.392264
-0.417526
-0.41134
-0.466117
-0.426702
-0.473266
-0.396738
-0.366808
-0.386571
-0.415186
-0.410873
-0.427882
-0.514778
-0.462141
-0.518776
-0.443237
-0.504427
-0.524126
-0.448741
-0.373735
-0.365377
-0.392233
-0.408045
-0.37636
-0.406117
-0.36217
-0.334177
-0.283155
-0.271411
-0.318289
-0.28507
-0.332351
-0.320866
-0.336026
-0.325548
-0.289781
-0.272974
-0.286928
-0.339027
-0.3225
-0.371977
-0.391022
-0.401718
-0.357434
-0.36997
-0.404367
-0.360407
-0.366733
-0.353721
-0.386387
-0.398008
-0.399315
-0.36623
-0.355295
-0.329363
-0.281893
-0.266276
-0.317309
-0.280364
-0.331122
-0.315686
-0.328788
-0.314358
-0.279204
-0.26601
-0.279755
-0.328491
-0.315534
-0.367298
-0.386492
-0.400548
-0.3567
-0.368729
-0.399878
-0.355412
-0.399617
-0.378349
-0.419912
-0.420515
-0.390311
-0.429977
-0.389585
-0.374942
-0.343917
-0.309893
-0.380841
-0.326948
-0.391163
-0.362165
-0.36299
-0.33896
-0.304432
-0.299218
-0.314714
-0.353359
-0.350501
-0.411071
-0.431467
-0.452196
-0.421062
-0.425328
-0.4404
-0.402503
-0.490396
-0.542224
-0.509113
-0.561602
-0.514497
-0.538285
-0.488534
-0.431471
-0.359382
-0.367943
-0.390525
-0.38607
-0.406127
-0.42175
-0.458744
-0.503225
-0.448651
-0.391854
-0.413077
-0.501401
-0.44864
-0.462545
-0.481605
-0.46634
-0.430514
-0.439926
-0.486974
-0.461023
-0.347596
-0.479413
-0.32166
-0.222831
-0.349754
-0.260858
-0.332601
-0.34857
-0.492512
-0.338325
-0.24139
-0.345888
-0.254429
-0.342415
0.292392
0.277496
0.29386
0.188041
0.308162
0.185258
0.309638
0.29576
0.278256
0.294895
0.188728
0.310169
0.184837
0.310261
-0.483136
-0.336823
-0.337258
-0.241035
-0.333524
-0.334845
-0.241203
-0.342614
-0.479802
-0.334198
-0.237668
-0.339908
-0.248655
-0.33379
-0.332956
-0.472309
-0.329684
-0.234735
-0.330078
-0.237739
-0.327548
-0.327558
-0.472138
-0.330238
-0.235648
-0.324171
-0.233141
-0.3266
0.290719
0.305683
0.184113
-0.323907
-0.320421
-0.229654
0.370087
0.432509
0.478129
0.300086
0.275644
0.577638
0.358374
0.344619
0.439267
0.414635
0.372294
0.348389
0.402365
0.328933
0.377375
0.448657
0.406608
0.389548
0.558549
0.372472
0.372883
0.335321
0.308131
0.266896
0.314982
0.270013
0.358656
0.288064
-0.513462
0.138133
-0.216105
0.421761
0.0454622
-0.148402
-0.0386176
-13.726
-10.8025
-36.2574
-14.0393
-9.44
-0.240902
-0.0106602
-0.220583
-0.216469
-0.107767
-0.156079
-0.384596
-2.43612
-0.0286411
-0.898183
10.1902
-0.0212834
0.60157
-2.2388
1.24866
0.256791
0.506923
0.555706
0.639572
0.681456
1.0452
1.30513
0.947674
0.336027
0.48814
0.626369
0.377929
1.71226
1.09639
0.259957
0.360536
0.454436
0.484458
0.641586
0.475669
1.37701
1.46246
0.274805
12.6869
1.51532
1.79736
2.37408
-0.156699
-0.249769
-0.164548
-0.125873
-0.152833
-0.209504
-0.138487
-0.246947
-0.391275
-0.273363
-0.32265
-0.26858
-0.284108
-0.368783
-0.223025
-0.232805
-0.312853
-0.32486
-0.262719
-0.186825
-0.351349
-0.112648
-0.117991
-0.0679624
-0.0879244
-0.113927
-0.0953894
-0.123254
-0.16045
-0.288888
-0.277794
-0.205121
-0.22066
-0.298285
-0.147004
-0.06855
-0.0590423
-0.108627
-0.0251827
-0.105938
-0.0655471
-0.0656374
-0.166532
-0.221389
-0.281615
-0.312374
-0.224957
-0.1715
-0.304325
-0.0746505
-0.114108
-0.0825432
-0.0316008
-0.0836181