/*--------------------------------*- C++ -*----------------------------------*\
| =========                 |                                                 |
| \\      /  F ield         | OpenFOAM: The Open Source CFD Toolbox           |
|  \\    /   O peration     | Version:  2012                                  |
|   \\  /    A nd           | Website:  www.openfoam.com                      |
|    \\/     M anipulation  |                                                 |
\*---------------------------------------------------------------------------*/
FoamFile
{
    version     2.0;
    format      ascii;
    class       surfaceScalarField;
    location    "0.106/fluid";
    object      phi;
}
// * * * * * * * * * * * * * * * * * * * * * * * * * * * * * * * * * * * * * //

dimensions      [0 3 -1 0 0 0 0];
oriented        oriented;


internalField   nonuniform List<scalar> 
47458
(
0.00153043
2.88168e-09
3.12061e-08
-0.0015297
0.00152949
-1.78395e-07
4.37736e-08
-0.00152899
0.00152884
-3.80486e-07
1.77145e-08
-0.00152838
0.00152823
-5.3293e-07
2.48244e-08
-0.00152778
0.00152764
-5.9011e-07
3.62641e-08
-0.0015272
0.00152703
-5.59326e-07
6.11681e-08
-0.00152634
0.00152606
-5.57332e-07
1.00209e-07
-0.00152506
0.00152465
-5.16277e-07
1.69953e-07
-0.00152309
0.00152243
-3.4772e-07
2.89761e-07
-0.00151979
0.00151861
4.55453e-08
5.18564e-07
-0.00151354
0.0015111
9.50988e-07
1.04087e-06
-0.00149939
0.00149306
3.38531e-06
2.68222e-06
-0.00145763
0.00143566
1.18326e-05
1.00632e-05
-0.00129362
0.00119973
4.23061e-05
5.16212e-05
-9.05752e-06
-3.99877e-06
7.99689e-06
1.41197e-06
1.11726e-06
9.47607e-07
1.58256e-06
9.90043e-08
0.00152959
-1.21692e-07
2.44063e-08
9.2245e-07
-0.00152672
0.00152588
-1.14358e-06
2.24851e-08
1.63494e-06
-0.00152357
0.00152286
-2.02339e-06
-1.86453e-08
2.19359e-06
-0.00152095
0.00152041
-2.71221e-06
-3.1419e-08
2.44776e-06
-0.00151904
0.00151866
-3.05538e-06
-3.66856e-08
2.45617e-06
-0.00151769
0.00151737
-3.1305e-06
-2.92465e-08
2.43911e-06
-0.00151628
0.00151589
-3.08473e-06
-8.84294e-11
2.24505e-06
-0.00151469
0.00151428
-2.82138e-06
5.45848e-08
1.69226e-06
-0.00151293
0.00151243
-2.14196e-06
1.56209e-07
5.6405e-07
-0.0015107
0.00151002
-7.9239e-07
3.53205e-07
-1.63753e-06
-0.00150746
0.00150634
1.76177e-06
7.95675e-07
-6.24858e-06
-0.00150136
0.00149888
6.8368e-06
2.08576e-06
-1.84745e-05
-0.00148645
0.00147964
1.87433e-05
7.10943e-06
-5.98157e-05
-0.00144271
0.00142064
3.13218e-05
5.12105e-05
2.27256e-05
-0.000240871
0.000175496
3.81396e-06
3.88576e-05
1.91531e-07
0.0015288
-2.11895e-07
1.76255e-08
1.73189e-06
-0.00152377
0.00152225
-1.89982e-06
7.10339e-09
3.06674e-06
-0.00151816
0.00151694
-3.33203e-06
-5.14406e-08
4.04839e-06
-0.00151385
0.001513
-4.38706e-06
-8.1045e-08
4.60041e-06
-0.00151084
0.00151022
-4.98582e-06
-1.01963e-07
4.80344e-06
-0.0015086
0.00150811
-5.20766e-06
-1.14744e-07
4.71841e-06
-0.00150673
0.0015063
-5.13182e-06
-1.05624e-07
4.31749e-06
-0.00150499
0.00150455
-4.72e-06
-7.62676e-08
3.41175e-06
-0.00150321
0.00150277
-3.79109e-06
1.93462e-10
1.66065e-06
-0.00150151
0.00150113
-1.98752e-06
1.49071e-07
-1.41384e-06
-0.00150006
0.00149974
1.13005e-06
4.55783e-07
-6.6101e-06
-0.00149869
0.00149821
6.15334e-06
1.32087e-06
-1.49508e-05
-0.00149525
0.00149321
1.33167e-05
4.55145e-06
-2.63035e-05
-0.00147723
0.00146413
2.03047e-05
2.04566e-05
-3.89559e-06
-0.00025545
0.000217655
2.79279e-06
3.8973e-05
2.40664e-07
0.00152822
1.33088e-08
2.20485e-06
-0.00152161
0.00151964
7.10119e-09
3.86318e-06
-0.00151433
0.00151277
-6.20735e-08
5.10196e-06
-0.00150877
0.00150766
-1.15293e-07
5.81045e-06
-0.00150491
0.00150415
-1.54549e-07
6.11324e-06
-0.00150214
0.00150155
-1.84887e-07
6.12212e-06
-0.00149996
0.00149947
-1.92421e-07
5.79592e-06
-0.00149799
0.0014975
-1.92816e-07
4.91001e-06
-0.00149609
0.00149569
-1.42023e-07
3.10378e-06
-0.00149474
0.00149453
-3.50882e-08
5.1686e-08
-0.0014943
0.00149438
1.5335e-07
-4.47296e-06
-0.00149492
0.00149509
6.54439e-07
-1.00364e-05
-0.00149443
0.00149308
2.61454e-06
-1.39416e-05
-0.00147711
0.00146193
1.43084e-05
3.95679e-06
-0.000249285
0.000210934
-4.02048e-06
3.85368e-05
-5.60115e-09
0.00153046
2.03311e-09
4.95656e-09
-6.47511e-08
-0.00152991
0.00152974
-1.80182e-07
7.04668e-08
-6.39736e-08
-0.00152928
0.00152914
-3.80727e-07
7.70967e-08
-7.4513e-08
-0.00152871
0.00152857
-5.38577e-07
9.17491e-08
-1.10558e-07
-0.00152816
0.00152802
-6.17417e-07
1.40772e-07
-1.80745e-07
-0.0015276
0.00152744
-6.15723e-07
2.21805e-07
-3.03845e-07
-0.00152684
0.00152661
-6.02471e-07
3.66714e-07
-5.03802e-07
-0.00152576
0.00152541
-5.43425e-07
6.14583e-07
-8.49138e-07
-0.00152411
0.00152356
-3.7712e-07
1.03673e-06
-1.46577e-06
-0.00152142
0.00152048
-7.52838e-09
1.77446e-06
-2.63152e-06
-0.00151656
0.00151473
8.24636e-07
3.13328e-06
-5.13983e-06
-0.00150656
0.00150248
2.99879e-06
5.90184e-06
-1.16709e-05
-0.00148261
0.00147191
1.01976e-05
1.20393e-05
-3.0062e-05
-0.00141504
0.00138211
3.98946e-05
2.30995e-05
-1.18609e-05
-0.00114785
0.000180768
1.39327e-05
0.000306861
0.000175375
0.00030902
0.000173807
1.43464e-08
9.74134e-08
0.00152962
-1.16729e-07
-1.91031e-08
2.84092e-08
9.41465e-07
-0.00152684
0.00152599
-1.16145e-06
-4.25199e-08
9.0564e-08
1.64864e-06
-0.00152372
0.00152305
-2.0401e-06
-1.09572e-07
1.37368e-07
2.19797e-06
-0.00152125
0.00152073
-2.70381e-06
-1.62548e-07
1.56125e-07
2.49562e-06
-0.00151938
0.001519
-3.08762e-06
-1.80545e-07
1.34419e-07
2.55556e-06
-0.00151797
0.00151767
-3.2174e-06
-1.54725e-07
5.81151e-08
2.49363e-06
-0.00151671
0.00151637
-3.13375e-06
-6.29715e-08
-8.83953e-08
2.28515e-06
-0.00151527
0.0015149
-2.86771e-06
1.16272e-07
-3.71582e-07
1.75641e-06
-0.00151366
0.00151322
-2.23477e-06
4.57002e-07
-8.94659e-07
7.08775e-07
-0.00151175
0.0015112
-9.84451e-07
1.0801e-06
-1.8969e-06
-1.31815e-06
-0.00150932
0.00150858
1.38153e-06
2.25092e-06
-3.98548e-06
-5.41088e-06
-0.00150579
0.00150468
5.90197e-06
4.5731e-06
-8.89672e-06
-1.50362e-05
-0.00150129
0.00150055
1.55032e-05
9.45036e-06
-2.08409e-05
-3.99078e-05
-0.00150508
0.00151197
3.60748e-05
1.82277e-05
-2.8229e-05
-8.11133e-05
-0.00157222
0.00160539
5.75898e-05
1.88862e-05
3.45154e-08
1.76398e-07
0.00152886
-1.97416e-07
-4.15305e-08
1.06773e-07
1.70784e-06
-0.00152398
0.00152244
-1.87295e-06
-1.3635e-07
2.28381e-07
3.0587e-06
-0.00151834
0.00151719
-3.29976e-06
-2.73379e-07
3.269e-07
3.96515e-06
-0.0015143
0.00151348
-4.27151e-06
-3.85146e-07
4.0589e-07
4.57493e-06
-0.00151124
0.00151057
-4.92994e-06
-4.79086e-07
4.56977e-07
4.88946e-06
-0.00150874
0.00150821
-5.27083e-06
-5.36461e-07
4.47437e-07
4.84967e-06
-0.00150676
0.0015063
-5.27429e-06
-5.25283e-07
3.80827e-07
4.52207e-06
-0.00150488
0.00150441
-4.98215e-06
-4.45273e-07
1.90599e-07
3.70851e-06
-0.00150302
0.00150259
-4.15903e-06
-2.23493e-07
-1.85212e-07
2.08604e-06
-0.00150142
0.00150109
-2.47496e-06
2.1608e-07
-8.61811e-07
-7.37814e-07
-0.00150023
0.00150002
3.83522e-07
1.00606e-06
-2.2535e-06
-5.39193e-06
-0.00149988
0.00150006
4.87788e-06
2.54793e-06
-5.39705e-06
-1.22766e-05
-0.00150175
0.00150307
1.06893e-05
5.76447e-06
-1.35813e-05
-1.97296e-05
-0.00151289
0.00151965
1.42239e-05
1.24226e-05
-2.43389e-05
-1.78112e-05
-0.00155695
0.00157333
7.13627e-06
1.82372e-05
5.00851e-08
2.46148e-07
0.0015282
-6.02228e-08
1.43181e-07
2.19144e-06
-0.00152172
0.00151984
-1.83288e-07
2.8649e-07
3.70302e-06
-0.00151487
0.00151342
-3.46356e-07
4.35238e-07
4.88357e-06
-0.0015095
0.00150837
-5.09965e-07
5.78191e-07
5.66034e-06
-0.00150548
0.00150464
-6.78864e-07
7.02482e-07
6.08978e-06
-0.00150241
0.00150175
-8.2335e-07
7.68483e-07
6.23164e-06
-0.0014999
0.0014993
-9.11534e-07
7.95178e-07
6.09893e-06
-0.00149747
0.00149689
-9.39947e-07
7.10677e-07
5.34463e-06
-0.00149537
0.00149497
-8.40618e-07
4.69502e-07
3.63289e-06
-0.00149412
0.00149394
-5.61229e-07
7.91238e-08
8.15135e-07
-0.00149371
0.00149377
-1.13511e-07
-6.24492e-07
-3.17761e-06
-0.00149437
0.00149468
6.59199e-07
-2.11788e-06
-7.2404e-06
-0.00149575
0.00149612
2.13515e-06
-6.37059e-06
-5.70398e-06
-0.00149761
0.0014984
5.01384e-06
-1.16483e-05
3.94603e-05
-0.00150795
0.00152197
5.38393e-06
-4.02603e-09
0.00153046
5.1057e-09
3.97661e-09
-8.49459e-08
-0.00152989
0.00152971
-1.71556e-07
8.92206e-08
-1.07767e-07
-0.00152927
0.00152914
-3.66797e-07
1.15437e-07
-1.36277e-07
-0.00152875
0.00152861
-5.26816e-07
1.47835e-07
-2.00997e-07
-0.00152819
0.00152804
-6.63122e-07
2.18252e-07
-3.25179e-07
-0.00152762
0.00152747
-7.1213e-07
3.56205e-07
-5.39863e-07
-0.00152697
0.00152678
-6.86846e-07
5.80908e-07
-8.93801e-07
-0.00152605
0.00152576
-6.22145e-07
9.64089e-07
-1.48877e-06
-0.00152467
0.00152421
-4.84534e-07
1.59783e-06
-2.49401e-06
-0.00152247
0.00152172
-1.65993e-07
2.66676e-06
-4.22379e-06
-0.00151863
0.0015172
5.71555e-07
4.46794e-06
-7.1715e-06
-0.00151083
0.00150761
2.51777e-06
7.44443e-06
-1.18069e-05
-0.00149125
0.00148186
9.09846e-06
1.18688e-05
-1.61418e-05
-0.00142525
0.00138796
3.76777e-05
1.5734e-05
-9.16337e-06
-0.00112781
0.000168344
1.04438e-05
0.000305297
0.000173779
0.000305564
0.000173683
3.0534e-08
9.20684e-08
0.00152957
-1.11497e-07
-3.26125e-08
7.01479e-08
9.12608e-07
-0.0015267
0.00152586
-1.12136e-06
-7.28501e-08
1.50985e-07
1.60374e-06
-0.00152355
0.0015229
-1.96239e-06
-1.5474e-07
2.06057e-07
2.15069e-06
-0.00152119
0.00152067
-2.62127e-06
-2.15486e-07
2.27991e-07
2.52944e-06
-0.00151925
0.00151881
-3.07014e-06
-2.34948e-07
1.90665e-07
2.715e-06
-0.00151754
0.00151716
-3.31202e-06
-1.99286e-07
5.92808e-08
2.713e-06
-0.00151609
0.00151574
-3.33503e-06
-6.06557e-08
-1.91778e-07
2.54234e-06
-0.0015146
0.00151419
-3.15535e-06
2.12424e-07
-6.55857e-07
2.12918e-06
-0.00151284
0.00151236
-2.66416e-06
7.06014e-07
-1.49608e-06
1.22597e-06
-0.00151088
0.00151036
-1.59507e-06
1.5901e-06
-2.96266e-06
-5.64307e-07
-0.00150864
0.001508
4.7601e-07
3.11502e-06
-5.44287e-06
-4.16843e-06
-0.0015058
0.00150498
4.44976e-06
5.59918e-06
-9.22973e-06
-1.25946e-05
-0.00150277
0.00150245
1.28457e-05
9.18416e-06
-3.64136e-05
-1.27656e-05
-0.00150615
0.00151067
1.24364e-05
3.25529e-05
-9.54112e-05
-8.85618e-06
-0.00155037
0.0015786
9.34257e-06
6.72565e-05
6.17154e-08
1.66823e-07
0.00152879
-1.81787e-07
-6.56137e-08
1.93081e-07
1.62026e-06
-0.00152385
0.00152236
-1.7623e-06
-2.00571e-07
3.57982e-07
2.84249e-06
-0.00151844
0.00151735
-3.05126e-06
-3.70538e-07
4.97572e-07
3.72001e-06
-0.00151444
0.00151358
-3.97512e-06
-5.15862e-07
6.19346e-07
4.39964e-06
-0.00151118
0.00151043
-4.71548e-06
-6.41258e-07
6.96001e-07
4.84656e-06
-0.00150833
0.00150769
-5.21035e-06
-7.24603e-07
6.86833e-07
5.01458e-06
-0.00150582
0.0015052
-5.44288e-06
-7.15612e-07
5.8127e-07
4.91479e-06
-0.00150334
0.00150273
-5.41422e-06
-6.01293e-07
2.97478e-07
4.32918e-06
-0.00150094
0.0015004
-4.84526e-06
-2.98506e-07
-2.78528e-07
2.9608e-06
-0.00149886
0.00149842
-3.41646e-06
3.09396e-07
-1.26094e-06
4.65634e-07
-0.00149715
0.00149674
-8.81066e-07
1.326e-06
-2.838e-06
-3.49484e-06
-0.00149567
0.00149539
2.90307e-06
2.88326e-06
-4.99635e-06
-9.0611e-06
-0.00149537
0.001496
7.3535e-06
4.83407e-06
-6.71988e-06
-1.50625e-05
-0.00150235
0.00150693
9.16539e-06
6.32957e-06
-4.43173e-06
-1.46402e-05
-0.00153247
0.00154479
1.43949e-06
3.75308e-06
8.47164e-08
1.99583e-07
0.00152821
-8.89068e-08
2.57936e-07
1.98737e-06
-0.00152187
0.00152006
-2.67569e-07
4.5701e-07
3.33127e-06
-0.00151526
0.00151384
-4.73186e-07
6.60438e-07
4.389e-06
-0.00151002
0.00150885
-6.83915e-07
8.78328e-07
5.28522e-06
-0.00150559
0.00150458
-9.07936e-07
1.06767e-06
5.92758e-06
-0.00150184
0.001501
-1.1083e-06
1.18653e-06
6.35571e-06
-0.00149854
0.00149771
-1.23417e-06
1.22379e-06
6.55662e-06
-0.00149528
0.00149457
-1.26138e-06
1.08279e-06
6.03851e-06
-0.00149276
0.00149231
-1.10473e-06
6.77335e-07
4.46722e-06
-0.0014913
0.00149108
-6.62451e-07
1.35475e-07
2.01056e-06
-0.00149009
0.00148967
-1.03275e-07
-5.97524e-07
-1.16798e-06
-0.00148834
0.00148778
5.93424e-07
-1.325e-06
-3.73701e-06
-0.00148555
0.00148456
1.19212e-06
-1.14689e-06
4.62954e-07
-0.00148017
0.00147784
1.0181e-06
2.78864e-06
4.92701e-05
-0.0014708
0.00147561
-2.26083e-06
-8.2375e-05
5.07322e-05
1.14673e-05
1.93164e-05
2.55244e-05
-5.84103e-06
-1.08447e-05
-1.08923e-05
-6.14424e-06
-0.00141905
-6.84813e-05
0.0013893
3.89144e-05
0.000213521
0.000212041
-0.000200793
-0.00135469
0.000131895
0.000129342
0.000424311
0.000444645
-0.00140754
-3.29802e-05
0.00136976
4.07172e-05
0.00115556
3.48911e-05
-5.42498e-05
-0.00125213
0.000115966
4.32636e-05
2.43831e-05
-0.00149575
-2.58453e-05
-4.35811e-05
0.00149795
0.00154344
9.44104e-05
3.86451e-05
-4.6091e-05
-0.000115474
-0.00151464
0.000114779
9.72203e-05
2.42645e-05
-2.02368e-05
0.000147946
0.000323235
0.000186116
0.000320003
0.000186675
0.000123912
2.72265e-05
-3.72603e-05
-0.000169682
0.00159947
0.000120185
-2.09792e-05
2.18485e-05
-0.00182369
-5.28382e-05
-4.18999e-05
-3.95303e-05
-5.56168e-05
-0.000255507
-5.14637e-06
0.000217998
3.88279e-05
-0.00156944
-4.27966e-05
0.00162179
8.64013e-05
-1.42029e-05
2.27346e-05
-0.00176398
7.97039e-05
2.29473e-05
-0.00158635
2.55052e-05
-5.34894e-05
-3.97532e-05
0.00163139
1.31935e-05
-6.19884e-06
2.30927e-05
-3.01406e-05
-0.00170585
-0.000252481
3.32369e-06
0.00021488
3.83559e-05
-0.00158488
-5.26159e-05
0.00162869
7.48505e-06
-3.57249e-06
2.20779e-05
-0.00169804
-3.29937e-06
-5.22083e-05
-0.00155099
1.4884e-05
-4.04871e-05
2.71934e-05
0.00160083
-4.95596e-06
-8.67695e-06
2.74459e-05
4.06867e-05
-0.00172932
-5.68253e-06
-1.32896e-05
-1.35729e-05
-0.00151922
-3.05366e-05
0.00154189
-7.13687e-06
3.50337e-06
-0.000430583
-8.28334e-07
-0.00156496
-0.000109531
0.00160075
2.0146e-05
3.57962e-05
-0.00174897
-6.13321e-06
-3.25831e-05
-1.92447e-05
-3.38619e-05
-1.76288e-05
-0.00112859
-9.92552e-06
0.000168836
0.000306327
0.000174128
0.000305801
0.000174377
9.78094e-06
-0.00153918
0.00010162
-1.21097e-05
-0.000133647
0.00157408
-2.08261e-06
8.04268e-05
2.36754e-06
-0.00174117
-4.22001e-05
-2.83688e-05
-2.8192e-05
-4.23018e-05
-1.62594e-05
-0.000427624
1.46868e-05
-3.75962e-06
5.38028e-05
-0.00148303
1.50822e-06
0.00148878
-1.7186e-06
-4.72362e-06
7.86952e-07
-0.000413185
6.18219e-06
-0.00153376
-0.000127894
0.00156595
1.07009e-05
6.56195e-05
-0.00172639
-1.87685e-07
-3.84674e-05
-2.46274e-05
-3.87152e-05
-2.44059e-05
-9.0167e-06
-0.00041159
9.25618e-06
-1.0583e-06
0.000515993
8.90559e-05
-8.30445e-05
-0.000438257
-4.98169e-05
-3.39289e-05
9.12653e-05
3.6426e-05
2.58406e-06
-1.67861e-05
-0.000113489
-0.000200244
1.28702e-05
-3.12257e-05
1.31777e-05
0.000205423
-0.000393118
4.86313e-05
-2.54818e-07
0.000366234
6.02843e-06
-2.75141e-05
2.6648e-05
9.19634e-06
2.20749e-05
1.64694e-05
-0.000206931
5.0188e-05
2.8274e-05
5.40802e-05
0.000255349
0.000413547
0.000416289
-0.00133761
0.000120875
0.000103151
-0.00147405
-3.35187e-05
0.00146058
2.18914e-05
2.93558e-05
0.00025531
0.000424364
0.000424557
-4.59323e-05
6.0573e-05
-0.00140272
-0.00150492
-2.24221e-05
0.00151115
3.9127e-05
3.27972e-05
-4.0016e-05
-0.00153971
7.22718e-05
2.12808e-05
-0.00151861
1.52077e-05
-1.73312e-05
-2.73853e-05
0.00152749
2.39796e-05
2.53477e-05
-3.80604e-05
-3.78038e-05
-0.00155937
0.000446353
1.51719e-05
1.44084e-05
-1.83348e-05
-0.000434553
-2.30382e-05
1.01634e-05
-0.00025383
-1.21988e-05
3.97105e-05
0.000216196
8.68969e-05
-8.74505e-05
-4.69423e-05
-4.14271e-05
-4.24681e-05
-5.9199e-05
0.00010251
-0.00162125
0.000431791
0.000423499
0.000431354
0.000422951
-3.74254e-05
0.000454272
1.69637e-05
2.89047e-05
-2.39953e-05
-0.000438715
6.40126e-05
8.62819e-05
-0.00161747
0.000430678
0.000422036
0.000430665
0.000422351
-3.96468e-05
-3.6395e-05
-3.75146e-05
-3.77229e-05
0.000255456
0.000424834
0.000424609
1.7291e-05
5.87158e-05
-0.00140578
-0.0014767
-1.34872e-05
0.00146167
1.61484e-05
-1.06858e-06
0.000253243
0.000420296
0.000420885
-9.34536e-07
5.27862e-05
-0.00139596
-0.00151852
-1.58496e-05
0.00152732
1.5341e-05
2.37474e-05
-3.66667e-05
1.09232e-05
-0.0015586
5.49256e-06
-0.00150733
8.05739e-06
-1.04769e-05
-6.68825e-06
0.00151127
-2.42675e-05
1.48823e-05
-2.64638e-05
1.38927e-05
-0.00152943
0.000440965
-2.16378e-06
9.21547e-06
-5.51789e-07
-0.000429362
-1.81204e-05
-1.58761e-07
-0.000255336
-8.07749e-07
3.85838e-05
0.000217817
1.37702e-05
-2.81847e-05
-3.41469e-05
-3.31544e-05
-3.30591e-05
-3.42786e-05
6.84179e-05
-0.00161002
0.00042705
0.000418581
0.000427379
0.000418385
-5.99425e-06
0.000441659
1.05576e-05
4.27985e-06
-1.97255e-05
-0.000430769
-1.05006e-06
6.48236e-05
-0.00160297
0.000426116
0.000416866
0.000425608
0.000417106
-3.35628e-05
-3.24e-05
-3.25095e-05
-3.34421e-05
0.000247798
0.000415711
0.000414253
4.94433e-05
-0.00138862
-0.0015034
-8.46336e-06
0.00150528
1.17516e-05
-2.01847e-05
-0.00151132
3.69709e-05
5.67947e-05
-3.27863e-05
-3.21606e-05
-3.19904e-05
-3.33545e-05
-0.00155452
0.000409242
0.000404998
0.000415633
0.000397135
2.25594e-05
0.000443116
8.55801e-06
-3.20959e-05
-1.91132e-05
-0.000423244
-5.95381e-06
-0.00159478
1.17973e-05
-1.00367e-05
-0.00152564
1.82661e-05
0.0015518
9.08493e-06
7.35814e-06
1.64686e-05
7.54031e-06
-2.35134e-05
-0.00163396
-1.19372e-05
-1.59574e-05
-0.00154942
-7.04999e-06
0.00156542
1.24515e-06
2.34866e-07
-6.158e-06
4.46715e-06
-0.00159236
-2.09493e-06
-7.17194e-07
-0.00150881
-7.99207e-07
0.00153267
3.02005e-05
-3.49265e-07
4.76836e-06
-3.22497e-06
-3.15356e-06
4.64705e-06
-0.00161938
1.50357e-05
1.83556e-05
6.27021e-06
-0.00150172
-9.73765e-08
-0.00148619
-2.19161e-06
0.00148522
-1.26693e-06
2.91591e-05
-1.96642e-07
-0.00148236
1.31675e-06
-5.3689e-06
0.000409119
0.000403304
0.000407137
0.000401646
7.33858e-05
0.0015133
1.84104e-07
5.42741e-05
-0.00150361
0.000402979
-2.52092e-06
0.000397461
0.000404989
0.000399181
9.65454e-05
-5.29201e-06
-0.00156856
2.28522e-06
-2.30357e-06
-0.00149274
0.00151328
-4.03016e-07
2.68449e-05
1.06973e-06
9.07553e-06
1.0871e-06
-0.00159451
-1.458e-06
1.97576e-06
2.693e-05
-9.09463e-07
-0.00147169
-3.95245e-06
4.49377e-06
0.000394384
0.000388997
0.00039293
0.000387515
8.53739e-05
0.00146501
5.28799e-05
-0.00146225
0.000389334
0.000383895
0.000390904
0.000385516
9.06175e-05
-0.000175247
-9.63599e-05
0.000137999
0.000144568
0.000379678
0.000398201
0.000382241
0.000390521
-0.00156144
7.08927e-05
0.000112105
0.000330898
0.000131374
0.000195926
0.00022459
-0.00106574
-3.4219e-05
0.000168354
2.07369e-06
2.82654e-05
1.86739e-05
2.48266e-05
1.91655e-05
-9.64078e-05
-3.05232e-05
-8.93789e-06
1.55321e-05
-2.57557e-05
1.75657e-05
-0.000207586
2.99537e-05
3.3365e-05
-0.000389604
-4.98661e-05
-1.69603e-05
0.000187344
0.000302736
0.00011329
0.000295306
0.000157071
-0.00115995
0.000107277
0.000374681
0.000235986
0.000388551
0.000231144
-0.00132185
9.83678e-05
-5.5951e-05
0.000543011
1.66379e-05
-8.60711e-05
1.90439e-05
1.05335e-06
-0.000161422
1.07732e-06
-2.63725e-05
9.13084e-06
8.2336e-06
-3.56268e-06
1.28463e-05
0.000510524
-0.00011096
-0.000448566
0.000115168
2.28919e-05
0.000224226
-0.000138008
-0.000221714
6.86365e-05
5.23537e-05
0.000147662
5.57142e-05
-9.20963e-05
-2.23063e-05
-3.8036e-05
-0.00162486
-6.85156e-05
-2.71298e-05
-8.91487e-05
9.91323e-06
9.37416e-05
1.0879e-05
-1.89925e-05
-2.73816e-05
-4.0287e-05
0.00041757
0.000424254
0.000426791
0.000425864
-0.000422877
2.16412e-05
0.000365218
4.3284e-05
4.1376e-05
0.00045896
1.3216e-05
-4.93812e-05
-1.75449e-05
-0.000442672
-7.7155e-05
0.000539213
0.000107784
3.90517e-05
1.47642e-05
-1.23834e-05
2.34252e-05
-2.53698e-05
-0.000484845
-1.87762e-05
-2.62628e-05
-1.68557e-05
-2.48179e-05
-0.000564436
3.83052e-05
5.70187e-05
3.90949e-05
7.32379e-06
-5.62386e-05
-3.92099e-06
0.000472706
-0.000416951
0.000114104
0.000404435
1.99823e-05
-0.000177519
3.01749e-07
-1.28317e-05
4.63582e-06
7.60587e-06
2.88239e-07
-9.28723e-07
1.43421e-05
-2.08108e-05
1.80783e-07
-0.000152683
1.77649e-05
-0.000151814
-2.67938e-05
1.02784e-06
-6.4755e-06
-0.000433162
9.57675e-05
8.60412e-06
-0.000113691
0.000448965
-9.90797e-06
1.19892e-05
1.13053e-06
5.91911e-06
1.56092e-05
7.26123e-06
-1.90381e-05
0.000455431
-1.28997e-05
-1.75028e-05
2.46603e-05
-0.000474402
9.71208e-06
7.06869e-06
2.96466e-05
-1.0078e-05
0.000466737
1.16395e-05
-2.15729e-06
-0.000455501
9.83896e-06
-1.36502e-05
0.000444867
1.25786e-05
-0.000433197
1.26346e-05
-2.17026e-05
-0.000254449
8.26745e-06
3.95557e-05
0.000216837
-4.43113e-05
-3.458e-05
-3.3283e-05
-3.34759e-05
-3.43123e-05
7.06138e-05
-0.00161234
0.000428104
0.000418993
0.000427717
0.000419326
7.72647e-05
-0.00161634
0.000429147
0.000420932
0.000429645
0.000420398
-3.55186e-05
-3.48368e-05
-3.4452e-05
-3.60343e-05
0.000442026
1.06327e-05
-8.14687e-06
-1.94154e-05
-0.000431085
5.41397e-06
0.000453534
1.30481e-05
-1.15065e-05
4.45543e-06
-7.26715e-06
1.5571e-05
-5.68633e-06
-0.000443995
-3.91195e-06
-0.000451495
1.22364e-05
9.56329e-06
5.94107e-06
4.07761e-06
-8.12717e-06
-9.44929e-06
0.000449601
-2.10857e-06
2.91051e-06
-3.93266e-07
0.000448784
-8.21764e-06
-6.13135e-06
1.45834e-05
-0.000443131
3.25248e-06
4.20015e-06
4.21509e-06
-9.95179e-06
0.000449156
1.32513e-06
-8.38388e-06
-0.00044295
1.61667e-05
-1.61178e-06
0.000441585
9.93393e-06
-0.000429692
-4.43738e-06
-1.95787e-05
-0.000254449
-1.26404e-06
3.8748e-05
0.000216914
1.73335e-05
-3.30187e-05
-3.19086e-05
-3.20157e-05
-3.29916e-05
6.1908e-05
-0.00157881
0.000422562
0.000410928
0.000420357
0.000413109
6.61248e-05
-0.00159816
0.000424843
0.00041641
0.000425468
0.00041604
-3.40278e-05
-3.28297e-05
-3.2859e-05
-3.39482e-05
0.000445696
8.48304e-06
1.29399e-05
-1.75066e-05
-0.000427204
4.05759e-06
0.000449888
-4.43969e-06
-1.00231e-05
-6.78813e-06
-3.86924e-06
1.54707e-05
5.15809e-06
-0.000461427
-5.20707e-06
-0.000444204
1.4587e-05
-1.00793e-07
-2.46513e-05
2.86831e-06
1.4181e-05
-7.46146e-06
0.000460645
-1.67327e-05
2.93438e-05
-0.000460087
-9.87794e-06
2.74152e-06
-3.52656e-05
-7.39327e-06
0.00045818
0.00155859
2.95277e-05
-0.00152435
-1.94189e-05
0.000412525
9.89497e-05
0.000415342
0.000406425
0.000408571
0.000422527
6.07771e-05
-6.92056e-06
-7.8584e-06
-5.9281e-06
0.000416739
0.000418573
0.000413037
-2.4964e-05
-1.11673e-05
-0.000444186
2.38773e-05
-1.48423e-06
2.94277e-05
0.000423119
-1.56141e-06
-3.70843e-05
1.18205e-05
-2.56259e-05
0.000436291
2.56381e-06
8.00125e-07
-0.00041873
9.635e-05
4.13167e-07
0.000440267
-0.000119084
-1.06465e-05
3.28957e-06
7.60177e-06
5.68848e-08
1.27319e-05
-2.00806e-05
-0.000152836
-7.33446e-07
-0.000419015
9.85264e-05
6.50861e-06
-0.000128395
0.000435909
-6.07054e-07
1.2383e-05
-0.000151774
3.85668e-07
-1.91423e-05
-2.21961e-07
-1.14975e-05
7.47875e-06
3.13193e-07
3.92755e-06
-0.000415679
9.51481e-05
0.000438484
3.07502e-06
-0.00012021
-1.52638e-07
-1.11705e-05
3.76536e-06
7.40501e-06
1.52809e-07
-1.90166e-07
1.17233e-05
-1.85703e-05
1.38935e-07
-0.000150943
1.15609e-05
-0.000151662
-1.86978e-05
-3.81097e-07
1.56573e-06
-0.000413326
9.58894e-05
-1.48239e-06
-0.000119358
0.000436737
-1.10509e-05
7.40385e-06
3.70076e-06
-2.75616e-07
1.63159e-05
0.000419947
-2.78435e-05
-8.85123e-07
-3.16523e-06
-1.81021e-06
1.31778e-06
-0.000420541
3.98686e-06
-1.60975e-06
2.63134e-05
-3.49518e-05
2.28295e-07
0.000412923
0.0014983
4.55795e-05
-0.00149005
3.81011e-06
0.000396021
0.000397733
0.000390646
0.000392262
9.31986e-05
0.000401272
0.000395779
0.000399731
0.000394325
8.10325e-05
-1.14285e-05
-1.66498e-06
-0.000419209
1.11851e-05
-1.49205e-06
2.45377e-05
0.000405407
8.54783e-07
-3.33691e-05
1.94823e-05
-2.97858e-05
0.000411383
-1.49508e-06
2.60165e-06
-0.000410826
9.48033e-05
-2.42781e-06
0.000434307
-0.000118424
-1.10669e-05
3.71864e-06
7.37475e-06
-1.79066e-07
1.13332e-05
-1.83534e-05
-0.000150765
-4.31386e-08
-0.000412683
9.45391e-05
2.31417e-06
-0.000118754
0.000436177
1.38118e-07
1.1398e-05
-0.000150049
-9.93668e-08
-1.82776e-05
-5.45635e-08
-1.10639e-05
7.36182e-06
5.43356e-08
3.70243e-06
0.000433573
-0.00011802
1.12476e-05
-0.000149869
-1.81987e-05
2.54137e-07
-1.10184e-05
7.35477e-06
3.67845e-06
-6.92887e-08
2.12887e-05
0.000403812
-3.08947e-05
-1.40074e-06
-1.1643e-06
-6.12837e-06
7.27151e-07
-0.000405838
7.06756e-06
-9.46777e-07
2.35809e-05
-3.22852e-05
8.3086e-07
0.00039805
-0.000403615
8.1149e-06
-3.12494e-05
0.000396035
9.43514e-05
1.16281e-05
1.71151e-05
-0.000106316
-1.22636e-05
-4.51486e-06
-3.99304e-05
1.50778e-05
-1.81908e-05
3.82216e-06
3.92212e-05
-0.000100786
3.35798e-06
2.5485e-05
0.000112247
-4.71096e-06
-9.404e-06
-9.03624e-06
-8.09639e-06
-9.05655e-06
2.90012e-05
1.67929e-05
3.29991e-06
-9.04547e-06
-4.00486e-05
-0.00126575
0.000130408
2.24365e-05
-0.0014988
-4.02772e-05
0.00150361
2.03316e-05
7.25869e-05
-8.84855e-05
-0.00153345
2.33935e-05
-0.00142363
-1.73976e-05
0.00138672
3.81463e-05
1.34183e-05
-1.44782e-05
0.00012451
-0.00125196
1.41849e-05
-0.00150255
3.77737e-05
-1.56735e-05
-3.81879e-05
0.00150486
1.23918e-05
8.21749e-05
-1.46082e-05
-9.88748e-05
-0.00151968
-2.62151e-05
-0.00155065
5.06704e-06
0.000417923
0.000379356
0.000379119
-8.14239e-05
-8.15128e-05
-7.48772e-05
-7.47124e-05
0.000289373
4.10014e-07
2.09291e-05
1.02466e-05
2.02933e-05
5.16891e-05
-4.12311e-07
-0.000113801
0.00158025
3.31372e-05
-1.27515e-05
0.000176368
-0.00159608
0.000166508
9.41062e-06
0.000309921
0.000176694
0.000309017
0.000176956
-0.0011345
2.39338e-05
0.000413326
0.000378817
0.000375436
-8.96038e-05
-8.99299e-05
-8.30678e-05
-8.25761e-05
0.00028882
1.30868e-05
0.0001845
-0.00154838
-9.96286e-07
2.2513e-05
1.16441e-05
2.28458e-05
4.80447e-05
1.81216e-06
-0.000117359
-0.0016863
6.61529e-06
-8.64477e-06
-0.00155853
-2.79807e-05
0.0015746
1.95503e-05
-2.54689e-06
-0.0015945
-1.08473e-05
-0.00155879
-1.11246e-05
0.00158991
7.32575e-05
-1.44174e-06
3.4982e-06
-0.00168252
4.68663e-05
6.10312e-06
-0.00155608
-8.65197e-06
0.00157369
-3.18735e-05
6.0884e-07
4.56551e-06
-0.00160365
-1.54572e-05
0.000123887
1.38418e-05
-0.00125203
-0.00150223
-3.70844e-05
0.00150384
1.36836e-05
7.79605e-05
-9.51438e-05
1.26019e-05
-0.00151612
-1.20605e-05
-0.00153327
0.000411218
0.00037293
0.00037336
-8.24609e-05
-8.24835e-05
-7.59275e-05
-7.58981e-05
0.000280863
3.76989e-07
2.17601e-05
1.10363e-05
2.17707e-05
4.85539e-05
-1.37871e-07
-0.000114423
0.00153773
1.43312e-05
-1.28717e-05
0.000175094
-0.00154558
0.000167968
0.000305088
0.000173388
0.000304743
0.000173536
-0.00112611
-9.52714e-06
0.000412039
0.000374271
0.000373959
-8.2668e-05
-8.25365e-05
-7.59847e-05
-7.60815e-05
0.000279841
0.000175591
-0.00154159
3.3788e-07
2.17961e-05
1.10755e-05
2.18724e-05
4.83854e-05
-2.2225e-07
-0.000114304
-0.00166738
-9.91044e-07
3.36208e-05
-0.00153944
0.00155257
5.67937e-06
-2.83666e-05
-0.00157752
-1.42135e-06
-9.81837e-06
-5.65778e-05
-2.07761e-05
1.66374e-05
5.3089e-05
7.78273e-05
9.17006e-05
8.06736e-05
8.83288e-05
8.82147e-06
4.01786e-05
-2.41961e-06
1.20792e-05
-1.54496e-05
-1.68227e-06
-2.21469e-06
-2.79994e-06
2.33052e-06
1.48142e-06
2.0452e-06
2.19881e-06
1.43868e-06
2.99236e-06
-0.000212086
5.24788e-05
3.70695e-05
6.81134e-05
5.79042e-05
1.15141e-06
2.73924e-06
5.86834e-08
3.3728e-06
1.1038e-06
2.2788e-05
-9.60064e-05
-2.53852e-05
-3.28545e-06
-6.26498e-06
5.05892e-05
2.73376e-05
4.89815e-05
2.75309e-05
3.19083e-05
0.00164689
8.72547e-05
-0.000100204
-0.00156124
6.55347e-05
0.000250474
-0.00115835
1.02766e-05
5.04969e-06
-1.75205e-05
2.41181e-06
0.000477794
0.000419229
7.34164e-05
-0.000154255
8.25707e-05
-0.00135607
-0.000127895
-0.00157501
9.39108e-05
0.000116289
-4.37974e-05
-4.12147e-05
-4.28791e-05
0.000456324
0.000437093
0.000436228
0.000174965
7.27116e-05
-0.00154727
6.05725e-05
-0.00122523
-1.52061e-05
-0.000126432
1.24502e-06
0.000126749
1.26593e-05
9.84827e-07
6.30194e-06
-1.65096e-05
2.28204e-05
-8.31248e-06
-0.000138833
-1.5238e-05
-1.20524e-05
-0.000128002
1.70852e-05
1.26571e-05
2.29553e-06
-0.000135579
-4.59061e-06
-6.27039e-06
6.84982e-06
0.000137294
-0.00172974
7.36256e-05
0.000399764
0.000376338
0.000360788
0.000317004
0.000103837
3.51302e-05
3.62914e-05
-0.000124826
-0.000112767
-0.000121897
-0.000113497
0.000222614
-0.00120448
-1.92487e-05
-2.10867e-06
9.53201e-06
0.000183531
0.000325802
0.000306164
0.000170853
2.46765e-05
1.33677e-05
2.57081e-05
4.40946e-05
5.85562e-06
-0.000126123
-0.000110349
0.00156691
-0.00152527
0.000204004
-0.00177578
0.000151014
7.79912e-05
-5.37727e-05
-1.71215e-05
0.000433202
0.000394743
0.000388481
0.0002967
-7.26755e-05
-7.38195e-05
-6.83038e-05
-6.69274e-05
1.94014e-05
4.9015e-06
1.05135e-05
6.85089e-05
-0.000105681
1.64428e-06
0.000116528
1.15635e-05
-0.000120049
-0.000112721
-0.00010475
-0.00167029
3.17508e-05
1.27392e-05
-6.86667e-06
0.00047649
0.000475918
0.000465739
0.000460946
-0.00178961
-1.60273e-05
1.20265e-05
9.64809e-07
-1.79394e-06
-3.40228e-06
-1.60511e-05
-1.11738e-05
6.92345e-07
-5.13163e-06
-1.35602e-05
-2.18011e-05
-2.13235e-05
3.51184e-06
-0.000519259
4.99457e-05
-9.06431e-06
-0.000259412
-5.76215e-06
-0.00170546
0.000156101
-2.54831e-05
-1.64679e-05
-2.42362e-05
-0.000517486
2.66026e-05
2.01125e-06
-0.00169085
3.43183e-05
-4.88855e-06
-5.40795e-06
-7.95042e-06
-2.81382e-05
-9.81117e-05
-0.000110491
-0.00010848
-0.00174351
0.000486373
0.00048813
0.000481449
0.000480793
-0.000123587
6.10515e-06
3.55906e-06
0.000124
-4.18061e-06
-5.89624e-06
-1.73392e-05
1.99633e-05
7.08418e-06
-0.00013614
1.29137e-05
-1.90363e-06
-0.000125453
4.39141e-06
-1.37661e-05
-0.000132263
-5.50799e-06
2.20798e-07
5.80054e-06
0.000134045
-3.21951e-06
-0.000129235
5.49915e-07
0.000130008
2.64911e-06
-7.52494e-07
1.66559e-06
-8.20724e-06
1.24899e-05
-1.85701e-06
-0.000128711
-2.69004e-06
-7.89854e-06
-0.000129763
1.22587e-05
2.40102e-06
1.88129e-06
-0.000128528
3.5586e-07
-2.27292e-06
-5.33749e-07
0.000129098
-0.00012851
8.61484e-07
3.95752e-07
0.000129027
-1.2291e-06
-5.45184e-07
-8.06425e-06
1.23714e-05
1.5052e-06
-0.000129075
8.35905e-07
-8.1529e-06
-0.000128557
1.24603e-05
-1.0054e-06
-0.000128865
4.5256e-07
1.45276e-06
-6.37274e-07
0.000129478
7.90001e-07
-0.000129863
1.23817e-07
0.000130404
-1.08051e-06
-3.74119e-07
-4.74652e-08
-7.88526e-06
1.25481e-05
-3.17443e-07
-0.000132852
-1.04913e-07
-8.93291e-06
-0.000129883
1.29352e-05
4.41205e-07
-2.54292e-06
-0.000132373
8.07574e-07
1.62506e-06
-7.16846e-07
0.000133198
-0.000139924
-7.39807e-06
1.05689e-06
0.000142404
5.60731e-06
-1.75844e-06
-9.42348e-06
1.32268e-05
4.10023e-07
-0.000132565