/*--------------------------------*- C++ -*----------------------------------*\
| =========                 |                                                 |
| \\      /  F ield         | OpenFOAM: The Open Source CFD Toolbox           |
|  \\    /   O peration     | Version:  2012                                  |
|   \\  /    A nd           | Website:  www.openfoam.com                      |
|    \\/     M anipulation  |                                                 |
\*---------------------------------------------------------------------------*/
FoamFile
{
    version     2.0;
    format      ascii;
    class       volVectorField;
    location    "0.106/fluid";
    object      U;
}
// * * * * * * * * * * * * * * * * * * * * * * * * * * * * * * * * * * * * * //

dimensions      [0 1 -1 0 0 0 0];


internalField   nonuniform List<vector> 
16421
(
(1.19992 2.2436e-05 2.25704e-05)
(1.19949 6.78911e-05 3.05052e-05)
(1.19905 4.02416e-05 8.50515e-06)
(1.19899 3.73697e-05 1.41776e-05)
(1.19872 3.84904e-05 2.03352e-05)
(1.1983 4.52239e-05 3.26767e-05)
(1.19767 6.03183e-05 5.04705e-05)
(1.19669 9.09743e-05 8.43088e-05)
(1.1951 0.000156125 0.000141023)
(1.1923 0.000312403 0.000252166)
(1.18689 0.000733365 0.000531883)
(1.1744 0.00207047 0.00156986)
(1.13673 0.00685285 0.00666138)
(0.98667 0.0182051 0.0319339)
(0.0656988 0.0212819 0.0507204)
(1.19994 1.01317e-06 2.21562e-05)
(1.19972 3.51724e-05 3.4393e-05)
(1.19942 7.0794e-05 1.31204e-05)
(1.19945 0.000107282 1.58678e-05)
(1.19927 0.000161494 2.15765e-05)
(1.19895 0.000248831 3.18335e-05)
(1.19845 0.000387229 5.01539e-05)
(1.19765 0.000621943 8.19293e-05)
(1.19637 0.0010249 0.000134574)
(1.19426 0.00176909 0.000234025)
(1.19061 0.0032557 0.00047008)
(1.1837 0.00662146 0.00127093)
(1.16834 0.015856 0.00480916)
(1.12733 0.0462669 0.0212661)
(0.573542 -0.00659439 0.0853694)
(1.19994 3.7695e-06 2.16713e-05)
(1.19971 6.7794e-05 4.06883e-05)
(1.1994 0.000123282 1.84732e-05)
(1.19945 0.000181679 1.90944e-05)
(1.19931 0.000271401 2.39523e-05)
(1.19905 0.000411891 3.21405e-05)
(1.19865 0.000637335 4.88858e-05)
(1.19804 0.00100606 7.59124e-05)
(1.19709 0.00162135 0.000123738)
(1.1956 0.00267726 0.000205937)
(1.1933 0.00452768 0.000380542)
(1.1896 0.00781053 0.000925145)
(1.18252 0.0133508 0.00331566)
(1.16112 0.0200725 0.0151375)
(0.69172 0.0176504 0.0945343)
(1.19994 4.60909e-06 2.12098e-05)
(1.1997 8.25443e-05 4.68997e-05)
(1.19941 0.000146461 2.32337e-05)
(1.19947 0.000213103 2.29676e-05)
(1.19938 0.000319108 2.57973e-05)
(1.1992 0.000482393 3.19849e-05)
(1.19894 0.0007406 4.63047e-05)
(1.19855 0.00115493 6.77828e-05)
(1.19796 0.00182354 0.000109495)
(1.19709 0.00288845 0.000175072)
(1.19579 0.00457355 0.00029983)
(1.19365 0.00712787 0.000651199)
(1.18826 0.010621 0.00221893)
(1.16443 0.0134373 0.0111522)
(0.670874 -0.00860761 0.0954013)
(1.19994 2.25362e-05 4.75447e-06)
(1.19969 6.76524e-05 6.37356e-05)
(1.1993 4.0436e-05 7.62431e-05)
(1.19925 3.72912e-05 9.37152e-05)
(1.19902 3.86817e-05 0.000133835)
(1.19865 4.3957e-05 0.000203686)
(1.19812 5.93985e-05 0.000318666)
(1.1973 8.8967e-05 0.000507596)
(1.19598 0.000150285 0.000825543)
(1.19372 0.000294853 0.00137789)
(1.18953 0.000682997 0.00238599)
(1.1808 0.00189678 0.00437757)
(1.15961 0.00637653 0.00874148)
(1.0988 0.0245998 0.0187657)
(0.844516 0.0945583 0.022998)
(1.19996 7.08103e-07 4.9823e-06)
(1.19992 3.63747e-05 6.24181e-05)
(1.19967 7.18927e-05 7.40634e-05)
(1.19974 0.000106618 9.21806e-05)
(1.1996 0.000159811 0.000131572)
(1.19934 0.00024412 0.000198015)
(1.19893 0.000378471 0.000308266)
(1.19828 0.000601792 0.000489188)
(1.19726 0.000988384 0.000788978)
(1.19562 0.00169094 0.00129925)
(1.19297 0.00306431 0.00220667)
(1.18879 0.00602469 0.00391153)
(1.18335 0.0131051 0.00725133)
(1.1858 0.0303461 0.0136045)
(1.24131 0.0525802 0.0197437)
(1.19996 3.60514e-06 4.89554e-06)
(1.19991 6.88516e-05 6.06618e-05)
(1.19968 0.000123739 7.07204e-05)
(1.19978 0.000180187 8.75166e-05)
(1.19968 0.000267221 0.000124104)
(1.19948 0.000403826 0.000185809)
(1.19917 0.000621092 0.000285257)
(1.1987 0.000975699 0.000446994)
(1.19798 0.00156424 0.000709163)
(1.1969 0.00256224 0.00114157)
(1.19537 0.00427861 0.00187815)
(1.19357 0.00720263 0.00318606)
(1.19281 0.0116976 0.00555421)
(1.19959 0.0156306 0.00990236)
(1.23105 0.0104847 0.011452)
(1.19996 4.5009e-06 4.94019e-06)
(1.19992 8.31139e-05 5.8622e-05)
(1.19971 0.000145641 6.67263e-05)
(1.19983 0.000211261 8.1112e-05)
(1.19979 0.000314233 0.000114117)
(1.19967 0.000472877 0.000168438)
(1.19949 0.000723144 0.000255112)
(1.19923 0.00112086 0.000392587)
(1.19884 0.00175624 0.000606001)
(1.19829 0.0027636 0.000945183)
(1.19759 0.00432171 0.00149729)
(1.19676 0.00655397 0.00243323)
(1.19566 0.00899984 0.00406328)
(1.19416 0.00759268 0.00708974)
(1.20005 -0.0391532 0.0100325)
(1.19994 2.30136e-05 7.09377e-06)
(1.19968 6.74655e-05 9.01441e-05)
(1.19931 4.02855e-05 0.000121145)
(1.1993 3.7562e-05 0.000156675)
(1.19909 3.83535e-05 0.000225077)
(1.19878 4.27421e-05 0.00034311)
(1.19833 5.68788e-05 0.00053455)
(1.19765 8.40037e-05 0.000848337)
(1.19658 0.000136888 0.00136685)
(1.19478 0.000260603 0.00223054)
(1.1915 0.000599892 0.00368169)
(1.18464 0.00169107 0.00610486)
(1.167 0.00592896 0.00980715)
(1.10609 0.0241473 0.0133896)
(0.836498 0.0863043 0.00930443)
(1.19996 6.23234e-07 7.21335e-06)
(1.19992 3.55983e-05 9.03319e-05)
(1.19969 6.9815e-05 0.000119353)
(1.19978 0.000103063 0.00015459)
(1.19968 0.00015397 0.000221456)
(1.19946 0.000232041 0.000334297)
(1.19913 0.000355783 0.00051849)
(1.19862 0.000559459 0.000817872)
(1.19782 0.000907269 0.00130617)
(1.19656 0.00153062 0.00210586)
(1.1946 0.00272818 0.0034193)
(1.1917 0.0052642 0.00553648)
(1.18835 0.0112905 0.00858199)
(1.19021 0.0271487 0.0110071)
(1.2282 0.0612738 0.00681321)
(1.19996 3.55491e-06 7.14323e-06)
(1.19991 6.80452e-05 8.91345e-05)
(1.1997 0.00012083 0.000115902)
(1.19981 0.000174364 0.000148521)
(1.19975 0.000256347 0.000211052)
(1.1996 0.000383667 0.000314311)
(1.19936 0.000584426 0.00048173)
(1.199 0.000907227 0.000748601)
(1.19846 0.00143711 0.00117624)
(1.19768 0.00231889 0.00185624)
(1.19668 0.00380731 0.0029337)
(1.19579 0.00628211 0.00460166)
(1.19667 0.00997845 0.00689795)
(1.20464 0.0130634 0.00837143)
(1.23056 0.00905032 0.00320332)
(1.19996 4.35047e-06 7.04133e-06)
(1.19992 8.16611e-05 8.73518e-05)
(1.19972 0.000142126 0.000111167)
(1.19987 0.000203892 0.000140238)
(1.19986 0.000301253 0.000196194)
(1.19978 0.000449345 0.000286986)
(1.19965 0.000680714 0.000431655)
(1.19947 0.00104411 0.000658451)
(1.19923 0.00161384 0.00101085)
(1.19891 0.00249887 0.00154864)
(1.19858 0.00383247 0.00237259)
(1.19838 0.0056483 0.0036232)
(1.19849 0.00728277 0.00541425)
(1.19802 0.00436036 0.0070906)
(1.19501 -0.0447005 0.00524299)
(0.236232 -0.053785 0.125568)
(1.10444 0.05624 0.0257243)
(1.16711 0.255979 0.0598642)
(1.09166 0.0241677 0.0289128)
(0.95145 0.0600158 0.0329642)
(1.17541 0.0405651 0.0240133)
(1.19475 0.0907051 0.03463)
(0.374236 -0.170122 0.0469326)
(0.870211 0.0590493 0.00376223)
(1.22235 0.124504 0.0156126)
(1.44627 0.120495 -0.0255439)
(0.692522 0.00877419 0.0938428)
(1.2444 0.0828235 0.0232575)
(1.38828 0.0760827 -0.00146967)
(1.25881 0.0269216 0.0305343)
(1.33969 0.0174159 0.0328454)
(0.681845 -0.0186602 0.0940736)
(1.25823 0.013048 0.0302956)
(1.3334 0.00681013 0.0347985)
(1.2366 -0.0267915 0.0251182)
(1.35819 -0.059443 0.02347)
(1.20625 -0.0507313 0.0219976)
(1.3584 0.0142892 -0.0322431)
(1.23574 0.0793077 0.0274109)
(1.38614 0.0452443 -0.00385776)
(0.837385 0.0855882 0.00685009)
(1.21893 0.100237 0.00890618)
(1.38827 0.0844232 -0.000278073)
(1.35021 0.0818432 -0.0170633)
(1.19813 -0.0490846 0.00793963)
(1.33142 0.0482107 -0.0148874)
(1.21464 0.0954513 0.00877347)
(1.37666 0.0708123 -0.00241878)
(1.3298 0.0630876 0.0029597)
(1.45219 0.12521 -0.470327)
(-1.74902 0.319273 -1.19789)
(0.633818 0.0212492 0.0384565)
(1.19652 0.104448 -0.136978)
(0.574514 0.0187955 0.0160603)
(1.06709 0.118769 0.0507851)
(1.15764 0.025578 0.0159376)
(1.08752 0.0308057 0.0297181)
(1.18497 0.0334146 0.0208424)
(1.21644 0.0678988 0.0311511)
(1.20085 0.0214401 0.016442)
(1.23435 0.0266457 0.0286801)
(1.37954 0.0571615 0.0526041)
(0.688587 0.0319028 0.0936404)
(1.30449 0.0876722 0.10845)
(1.39729 0.111212 0.0596376)
(1.30123 0.0613293 0.0767658)
(1.08915 0.0187778 0.0287486)
(1.16303 0.0124535 0.0124733)
(1.08019 -0.000302716 0.0245295)
(1.20244 0.0165035 0.015422)
(1.23471 0.0150203 0.0279494)
(1.19759 0.0071776 0.0122087)
(1.21494 -0.0126702 0.0232479)
(1.36321 0.00316067 0.0327691)
(0.691526 -0.00518757 0.0939083)
(1.29195 0.0168508 0.0533023)
(1.36756 0.0123285 0.0381957)
(1.28641 0.00650114 0.0491499)
(1.07135 -0.000481989 0.0217531)
(1.19546 0.00679351 0.0110755)
(1.19992 -0.0202797 0.0209354)
(1.24081 -0.040645 0.0529535)
(1.33948 -0.0922792 0.0416867)
(1.25203 0.00431228 -0.0392054)
(1.21637 -0.016044 0.0092674)
(1.28903 0.0221573 -0.034209)
(1.2401 0.00955151 0.0109587)
(1.26867 0.00427102 0.0095925)
(1.22225 -0.0256902 0.00962579)
(1.3005 -0.0212358 0.0072096)
(1.19745 -0.0138722 0.00978077)
(1.1983 0.00438513 0.00779558)
(1.1989 -0.0211957 0.00852661)
(1.22978 -0.0714834 0.00593709)
(1.20225 -0.0508685 0.0112014)
(1.22644 -0.0920258 0.00877222)
(1.25574 0.00411508 -0.00937921)
(1.21523 -0.0217331 0.00409231)
(1.28823 -0.0054887 -0.00616449)
(1.19663 -0.0187298 0.00637485)
(1.21752 -0.0788061 0.00342037)
(1.19488 -0.0471182 0.00816353)
(1.21538 -0.0829355 0.00673812)
(1.23098 0.127651 0.180173)
(0.788543 -0.00264007 0.0561188)
(-0.122102 -0.244987 0.293774)
(0.647175 0.0502166 0.0466295)
(1.21603 0.0758907 0.0773077)
(0.859781 0.116766 0.0908336)
(1.01216 0.0323457 0.114862)
(1.63892 0.217722 -0.37308)
(2.00221 0.227799 -0.0188783)
(0.243481 0.092581 0.094942)
(1.48599 0.428896 -0.586162)
(-1.81824 0.423055 -1.00167)
(1.29836 0.0549588 0.0894175)
(1.25313 0.221613 0.018875)
(1.41228 0.134103 0.0410019)
(1.62197 0.403324 -0.370107)
(1.50958 0.0724102 -0.0473156)
(1.69788 0.196978 -0.110502)
(1.46115 0.149846 0.0276717)
(1.23587 0.51159 0.0496194)
(0.0966958 0.074296 -0.0116256)
(1.94233 0.15096 -0.0261877)
(1.91759 0.238127 0.0355883)
(1.37989 0.356704 -0.0523162)
(0.0981049 0.109657 0.148631)
(1.41409 0.0646809 0.0406443)
(1.47827 0.0219045 -0.0602692)
(1.44475 0.112448 0.0327458)
(1.41845 0.0657672 0.0202138)
(1.37533 0.0439774 0.045438)
(0.688916 0.0372681 0.0948996)
(1.29407 0.0303401 0.055039)
(1.29818 0.0450624 0.0636365)
(1.36847 0.028666 0.0376845)
(1.4083 0.0398544 0.0354103)
(1.37908 0.047431 0.00734977)
(1.40446 0.0101861 0.0176839)
(1.39817 0.0354696 0.0323017)
(1.39403 0.00931051 0.0285464)
(1.37624 -0.0175046 0.0124917)
(1.39678 0.00467607 0.0337819)
(1.37391 0.0348051 0.00593651)
(1.36426 -0.0160089 0.0382787)
(0.689012 0.00379407 0.0944032)
(1.26644 -0.0196813 0.0490647)
(1.28242 -0.00846016 0.0528018)
(1.35637 -0.0494723 0.0334471)
(1.39621 -0.0233202 0.0362332)
(1.41744 -0.0117475 0.020576)
(1.37703 -0.0231388 0.0202025)
(1.40646 -0.0530122 0.0314205)
(1.40797 -0.0219137 -0.0273826)
(1.39571 -0.103236 0.0307254)
(1.20673 -0.0328316 0.03566)
(1.23871 -0.0967386 0.0162806)
(1.24788 -0.0647281 0.0233094)
(1.37412 0.101165 -0.0805239)
(1.31519 -0.106359 0.00404866)
(1.33486 -0.0590845 -0.00134394)
(1.34574 0.372219 -0.000614869)
(0.0742075 0.0734491 0.0196995)
(1.94242 0.138729 0.00113685)
(1.33388 0.395982 0.0196228)
(1.93014 0.125214 -0.0229139)
(0.0829614 0.0723264 -0.0180871)
(1.33894 0.373857 0.00847019)
(0.0799314 0.0717465 -0.0170252)
(1.91931 0.116773 -0.0174789)
(1.92785 0.117546 0.00685819)
(1.33319 0.372881 0.00638095)
(0.0786265 0.0716899 0.0117606)
(1.3065 -0.0676182 -0.00379722)
(1.34049 0.0360861 -0.0198776)
(1.29767 -0.0959205 0.00372454)
(1.19721 -0.0428065 0.00512393)
(1.22013 -0.0870033 0.00632448)
(1.22235 -0.0764004 0.00267066)
(1.33844 0.0690074 -0.00232986)
(1.28909 -0.0886868 0.0040767)
(1.29496 -0.0746442 -0.00274513)
(1.32582 0.369456 0.0103419)
(0.0791036 0.0715358 0.0127716)
(1.91684 0.113001 0.0124318)
(1.33154 0.369983 0.0051521)
(1.90788 0.112846 -0.0131406)
(0.0790049 0.0714973 -0.015747)
(1.32364 0.367664 0.00766815)
(1.90561 0.111393 0.0168849)
(0.0787174 0.071508 0.0142222)
(1.28735 -0.0782709 -0.000996857)
(1.32376 0.0550474 -0.0133999)
(1.28218 -0.0838624 0.00552908)
(1.32073 0.0611601 0.00526934)
(1.27972 -0.079215 0.00175098)
(1.19418 0.0457778 0.256559)
(0.456014 0.047385 0.230031)
(1.32773 0.0857002 0.303877)
(0.437552 -0.00396769 0.261396)
(0.963279 0.0782154 0.0263444)
(1.17898 0.0379555 0.0157288)
(1.21127 0.0710557 0.0253593)
(1.1047 0.0242395 0.013967)
(0.950847 0.0742434 0.0111684)
(1.18336 0.0363513 0.012887)
(1.1999 0.0803372 0.0114991)
(1.23963 0.273347 -0.00874961)
(0.284357 0.0850195 0.00882989)
(1.2516 0.193628 0.0614127)
(0.84431 0.0816679 0.00522593)
(1.24575 0.302493 0.0596)
(1.21863 0.184058 0.000904092)
(0.29995 0.083312 -0.0078875)
(1.32392 0.00672274 -0.0184391)
(1.23014 0.0210805 0.0120379)
(1.24952 0.00755818 -0.0408712)
(1.23448 0.0667957 0.0097301)
(1.32941 0.0440256 0.00304901)
(1.23981 0.0225653 0.0114615)
(1.27028 0.0114326 0.0107454)
(0.950846 0.0745801 0.0120657)
(1.18374 0.035372 0.0120011)
(1.19743 0.0771716 0.0106232)
(1.2232 0.275131 0.00992318)
(0.290609 0.0825404 0.00229807)
(1.21508 0.182212 0.0134093)
(0.835128 0.0859314 0.00915902)
(1.22678 0.275126 0.0111421)
(1.21196 0.182054 0.0120267)
(0.290749 0.0822757 -0.00210883)
(1.31858 0.0321894 -0.00485663)
(1.22918 0.0211068 0.00353243)
(1.2543 0.0105713 -0.00973204)
(1.14155 0.0505893 0.218052)
(0.268084 0.0476865 0.113659)
(0.141009 -0.145478 -0.0154586)
(0.660452 0.0255963 0.209778)
(1.24946 0.0636571 0.329573)
(0.562605 0.00713255 0.135126)
(0.691329 0.0758068 0.138919)
(1.23146 0.0914474 0.0892127)
(1.07166 0.0909339 0.106687)
(1.0187 0.0830831 0.0487119)
(1.26146 0.0844045 0.150268)
(1.38074 0.155065 0.284657)
(1.22145 0.0643425 0.0689113)
(0.827229 0.178362 0.0621847)
(1.64722 0.182759 0.0552368)
(1.68966 0.10208 -0.239455)
(1.59176 0.186431 -0.138738)
(1.74112 0.0679734 -0.091365)
(1.26489 0.421941 0.225865)
(0.867408 0.137331 0.0331765)
(0.325398 0.0833038 -0.009738)
(1.20482 0.178349 -0.0367088)
(1.40752 0.217024 0.225544)
(1.25992 0.246255 -0.0923752)
(0.210867 0.0948578 0.0636966)
(1.318 0.123447 0.0856867)
(1.40433 -0.00445134 -0.0162359)
(1.65511 0.170572 -0.0250079)
(1.36399 0.157462 -0.0195154)
(1.64292 0.130185 -0.00629294)
(1.33976 0.0354656 0.0350119)
(1.42464 0.250462 -0.06173)
(1.57713 0.0874153 0.0495048)
(1.65888 0.0611291 -0.256381)
(1.53008 0.20062 0.0215798)
(1.6951 -0.00572958 -0.119145)
(1.65119 0.0150228 0.00544652)
(1.55839 0.0514882 -0.07214)
(1.57136 0.00723016 -0.0669556)
(1.64092 0.0551239 0.00203385)
(1.64032 0.0421726 0.00232905)
(1.56247 -0.00766824 -0.0701929)
(1.55605 0.0422765 -0.0718034)
(1.64562 -0.00408943 0.00348062)
(1.65687 -0.0427328 0.00485452)
(1.60165 0.0312172 -0.0557195)
(1.5702 -0.0295384 -0.0729106)
(1.68538 -0.00163012 0.0152231)
(1.75836 -0.0812679 0.0197139)
(1.59688 -0.02765 -0.0645321)
(1.70388 -0.00103688 -0.0415447)
(1.67684 -0.0674195 0.0178913)
(1.38514 0.225187 -0.0118524)
(1.63413 0.131613 -0.00771549)
(1.32041 0.0962134 0.0151543)
(1.40693 0.0944661 -0.00743524)
(1.37371 0.199288 0.0256485)
(1.62988 0.144846 -0.0118028)
(1.33161 0.136442 -0.00467084)
(1.2345 0.27933 0.0191938)
(0.840041 0.0875847 0.012422)
(0.293075 0.0827111 -0.00473732)
(1.2163 0.183841 0.00881554)
(1.22397 0.184371 0.0223963)
(1.22934 0.276977 0.00539203)
(0.290977 0.0831378 0.00134242)
(1.3724 0.207667 0.00822299)
(1.38177 0.0639815 -0.00405008)
(1.61678 0.136418 -0.00500518)
(1.31624 0.128508 0.00251039)
(1.62288 0.128267 -0.00413834)
(1.31304 0.114432 0.00425644)
(1.37015 0.217851 0.000964895)
(1.36142 0.213348 0.00523883)
(1.61309 0.12889 -0.000495302)
(1.30686 0.119452 0.00231151)
(1.37728 0.0793632 0.00204849)
(1.365 0.20945 0.00478122)
(1.60635 0.132113 -0.00092447)
(1.30695 0.124435 0.00500327)
(0.289533 0.0822101 0.00445983)
(1.60277 0.129235 0.00295513)
(1.11529 0.0940133 0.253058)
(0.0802233 0.0402254 -0.251849)
(1.28273 0.315498 -0.0910481)
(0.287905 -0.00683942 0.170745)
(0.423023 0.285966 0.257655)
(1.28262 0.447649 0.565387)
(0.130241 0.165508 0.971989)
(1.13716 0.100531 0.426021)
(0.539407 -0.0189441 -1.20859)
(0.365057 0.0651099 0.310164)
(1.19559 0.156208 -0.628396)
(1.00592 0.0792783 0.206761)
(0.535438 0.19768 -1.91988)
(1.33896 0.103366 0.161464)
(0.430993 -0.00761457 0.0682851)
(1.54023 0.0460718 0.159205)
(1.37597 0.0923388 0.209387)
(1.49417 0.0776101 0.153395)
(0.351466 0.0200186 0.0729776)
(1.34572 0.0714845 0.139325)
(1.50809 0.0749001 0.136234)
(0.337199 0.00540079 0.074646)
(1.50815 0.0683775 0.147101)
(1.34201 0.0774344 0.129216)
(0.337169 0.0403329 0.0749877)
(1.35236 0.0255573 0.120454)
(0.333994 0.0156069 0.0761447)
(1.52622 0.0146304 0.126465)
(1.35489 0.0117436 0.121076)
(1.52353 0.0226224 0.125426)
(0.334084 -0.0124645 0.0760606)
(1.35499 -0.00272904 0.11964)
(1.52697 0.0111096 0.123255)
(0.335153 -0.0166509 0.075987)
(1.52688 -0.000511418 0.124111)
(1.35442 0.0139295 0.118925)
(0.334345 0.0108587 0.0761489)
(1.29274 -0.0478073 0.120901)
(0.326485 -0.0255167 0.0757236)
(1.50541 -0.0674674 0.12989)
(1.31574 -0.0569377 0.123379)
(1.48181 -0.109435 0.121193)
(0.305554 -0.0642878 0.0753364)
(1.4346 -0.171036 0.106622)
(0.293909 -0.0462259 0.0747147)
(0.988007 0.0685973 0.251086)
(0.0166387 -0.159572 -0.047611)
(1.06303 -0.0448426 0.725684)
(0.123148 -0.0803446 0.2693)
(1.09499 0.043533 0.428804)
(0.966802 0.0556092 0.340853)
(0.358627 -0.0525923 0.157279)
(0.463707 0.513598 0.0551386)
(0.05852 0.0655358 -0.222175)
(1.31825 0.383581 -0.256201)
(0.834692 0.796424 0.0788364)
(2.17003 0.446193 -0.216295)
(1.71131 0.455918 -0.169711)
(0.739329 0.742908 0.0220316)
(1.74757 0.362188 -0.0733131)
(1.97143 0.292178 -0.0714029)
(1.63095 0.3531 -0.0836009)
(0.824864 0.771345 0.274396)
(1.32747 0.881233 -0.0980714)
(1.16928 0.358765 -0.488138)
(1.24475 0.279354 -0.0190652)
(1.57165 0.393055 -0.0714205)
(0.417204 0.505999 0.0549093)
(1.24263 0.282059 -0.0019722)
(0.0186153 0.103218 -0.104485)
(1.10988 0.504855 -0.0611151)
(0.482807 0.541152 0.226859)
(1.36592 0.0509946 -0.170783)
(-0.532663 -1.19481 -0.325098)
(1.5191 0.0672496 -0.328081)
(0.194477 0.00572488 0.932156)
(1.43752 0.0108988 -2.00916)
(1.35027 -0.113532 -0.370516)
(0.681637 2.29811 0.194804)
(1.16722 0.167481 0.203885)
(0.5575 0.0508951 0.0369466)
(1.54795 0.0493116 0.141157)
(1.37091 0.183444 0.338582)
(1.31553 0.00739074 0.260008)
(0.530107 0.448916 0.253706)
(1.4942 0.135583 -0.318297)
(1.22987 0.331755 -0.512243)
(1.41376 0.0726299 -1.88)
(1.35459 0.175464 0.180717)
(0.520282 0.66891 0.141453)
(1.50911 0.248838 0.0864839)
(1.86355 0.318918 -0.188765)
(1.55757 0.309728 -0.0891193)
(1.49197 0.229431 -0.138878)
(1.63961 0.205448 0.102952)
(1.61037 0.0663154 0.0733085)
(1.40463 0.129986 0.292551)
(1.73248 0.0815782 -0.044363)
(1.51938 0.289593 0.192913)
(1.21793 0.313645 -0.389583)
(1.44843 0.228231 0.0308873)
(1.4743 0.346994 0.424472)
(0.414076 0.467242 -0.0767317)
(0.91384 0.35907 0.0259916)
(0.0927907 0.0776699 -0.0103561)
(0.890298 0.350123 -0.0372226)
(0.4175 0.476479 0.0336231)
(0.769463 0.698985 -0.10413)
(1.97845 0.0907743 0.0443399)
(1.58896 0.361548 -0.00339501)
(1.66768 0.336988 0.0273001)
(0.750088 0.707059 0.0544656)
(0.764938 0.711688 -0.10572)
(1.49162 0.419924 0.0215412)
(2.00634 0.0746415 0.0184429)
(0.769416 0.768416 0.272385)
(1.6731 0.30988 0.00468784)
(0.417414 0.482426 -0.0957332)
(0.833373 0.519181 0.0587419)
(0.0558152 0.0766509 -0.0322834)
(0.473318 0.55156 0.283503)
(0.825775 0.454819 -0.0507189)
(1.57802 0.0818106 0.0557179)
(1.5981 0.0422801 0.098491)
(1.53982 0.0746923 0.117569)
(1.68911 0.0105391 -0.0507961)
(1.60785 0.074711 0.0523516)
(1.56671 0.0926801 -0.0284399)
(1.50359 0.138065 0.0510043)
(1.63291 0.0973993 0.0229394)
(1.61177 0.0745415 0.0518631)
(1.56258 0.0771922 0.100339)
(1.55855 0.0702518 0.110857)
(1.62825 0.0927457 0.0369668)
(1.35586 0.0276301 0.12186)
(0.335355 -0.00784649 0.0758862)
(1.5238 0.0378848 0.125316)
(1.35326 0.03977 0.120203)
(1.52665 0.0311416 0.127964)
(0.334779 0.0198092 0.0760247)
(1.34935 0.056146 0.122989)
(1.52005 0.0535336 0.134476)
(0.334692 0.0263508 0.0757641)
(1.35226 0.0484749 0.126024)
(1.51941 0.0544963 0.129474)
(0.336195 -0.00281184 0.0755741)
(1.64168 0.0723257 0.00724613)
(1.57898 0.0375477 -0.042519)
(1.65063 0.048076 0.0165298)
(1.56434 0.0634782 -0.0653837)
(1.65034 0.0196368 0.0232822)
(1.582 0.038737 0.0879814)
(1.58573 0.0314668 0.090496)
(1.64251 0.0500125 0.0200585)
(1.64096 0.0677797 0.0255624)
(1.57736 0.0558638 0.0975158)
(1.64542 0.0512021 0.0320142)
(1.57714 0.0559346 0.0925098)
(1.6422 0.035909 0.0201698)
(1.58498 0.0141764 0.0891217)
(1.58194 0.0233524 0.088162)
(1.6465 0.0010156 0.0214302)
(1.64554 -0.0191253 0.00133516)
(1.56006 0.0420121 -0.0727047)
(1.5593 -0.0199626 -0.0731474)
(1.64708 0.0363131 0.00146728)
(1.6472 -0.0142216 0.0186305)
(1.58684 0.0124107 0.0859213)
(1.58606 -0.0014122 0.086759)
(1.64895 0.0287757 0.0185314)
(1.34397 -0.0347915 0.120036)
(0.331265 -0.0406642 0.0758576)
(1.52149 -0.0358016 0.125262)
(1.34044 -0.022109 0.120166)
(1.52252 -0.0346028 0.125214)
(0.335075 -0.0063822 0.075875)
(1.34683 -0.00259294 0.12207)
(1.52297 -0.0131424 0.125969)
(0.334142 0.00595761 0.0759723)
(1.34897 -0.016201 0.120877)
(1.52276 -0.00865266 0.127593)
(0.33356 -0.0259305 0.0761155)
(1.65503 0.0208053 0.00828522)
(1.55939 -0.0216427 -0.0711386)
(1.64474 -0.0267717 0.00392061)
(1.56983 0.0340276 -0.0649939)
(1.65787 -0.0419029 0.0208486)
(1.59058 -0.0373425 0.0880969)
(1.58555 -0.0354642 0.087663)
(1.68142 -0.0152046 0.0288633)
(1.65535 0.0108127 0.0249769)
(1.58268 -0.0134789 0.0887077)
(1.64628 -0.0228207 0.0212377)
(1.58506 -0.00797871 0.090193)
(1.74011 -0.047693 -0.0404515)
(1.47291 -0.220434 0.0320389)
(1.63185 -0.119272 -0.0385907)
(1.73967 -0.0990202 0.0343896)
(1.57501 -0.0714369 0.0934674)
(1.56989 -0.131266 0.0865485)
(1.6733 -0.072855 0.0327518)
(1.85513 -0.112927 -0.0529447)
(1.77625 0.0177385 -0.0701568)
(1.67498 -0.0642458 -0.0567395)
(1.82242 -0.136995 -0.0215393)
(1.54309 -0.210281 0.0706351)
(1.57937 -0.065995 -0.00767997)
(1.59538 -0.0537041 0.00108508)
(1.62156 -0.0227197 0.0406642)
(1.61437 -0.0274375 -0.0437589)
(1.62004 -0.00232554 -0.0177369)
(1.63327 0.0147826 -0.00740575)
(1.57851 -0.0861578 0.0382698)
(1.31064 -0.257052 0.000403667)
(1.57065 -0.0903783 -0.0338719)
(0.415297 0.476713 -0.028993)
(0.887509 0.40064 0.0161518)
(0.0767615 0.071911 -0.0271511)
(0.88767 0.39114 0.00387286)
(0.414857 0.480162 0.0376426)
(0.753106 0.703634 -0.0158677)
(1.58658 0.357055 0.00992834)
(1.94689 0.100638 -0.00694168)
(0.740882 0.706078 0.0225532)
(1.60993 0.33605 0.00331849)
(0.755242 0.702093 -0.030906)
(1.5865 0.34753 -0.00567769)
(1.9417 0.108533 0.0231688)
(1.60382 0.339788 0.0107094)
(0.746128 0.7014 0.0175296)
(0.415329 0.473033 -0.0151901)
(0.89248 0.376491 0.00857128)
(0.0854641 0.0724092 0.00219869)
(0.899263 0.373809 -0.0072108)
(0.413406 0.473389 0.00244138)
(0.412601 0.471682 0.00043455)
(0.885825 0.377611 0.00928925)
(0.0808429 0.0717588 0.010695)
(0.890543 0.377003 7.06578e-05)
(0.410763 0.470461 -0.00224681)
(0.747475 0.698812 -0.0148282)
(1.92508 0.112183 0.0194067)
(1.57929 0.34146 -0.00342409)
(1.58528 0.339287 0.0104412)
(0.742365 0.696775 0.0135535)
(0.74661 0.698917 0.00516689)
(1.58717 0.342118 0.00473513)
(1.92626 0.107252 -0.0111255)
(0.743333 0.699825 -0.00806409)
(1.58856 0.335807 0.00221056)
(0.412314 0.472463 -0.0108701)
(0.887963 0.381509 -0.00154862)
(0.0795384 0.0714787 -0.0196369)
(0.412199 0.473322 0.00966025)
(0.888985 0.378601 0.0117967)
(1.55357 -0.0825743 0.0329895)
(1.29687 -0.251076 -0.00112346)
(1.29834 -0.251551 0.0121047)
(1.55026 -0.0821886 -0.0289992)
(1.59534 -0.00243658 -0.0218185)
(1.60317 -0.00107886 0.0149059)
(1.55394 -0.0672147 -0.0146907)
(1.30554 -0.242014 0.00217763)
(1.30029 -0.241455 0.00876752)
(1.56198 -0.0665047 0.0124981)
(1.59645 -0.0186923 0.0382424)
(1.59304 -0.0183678 -0.0368411)
(1.54224 -0.0701561 -0.0185038)
(1.29506 -0.242194 0.00174416)
(1.54686 -0.0701948 0.0181549)
(1.29179 -0.24121 0.00484258)
(1.58376 -0.0137303 0.0347368)
(1.56264 0.123526 -0.0389988)
(1.56505 0.123025 0.0346118)
(1.58097 -0.013137 -0.0324583)
(1.58399 -0.00601573 -0.0256254)
(1.56871 0.129122 0.0223087)
(1.58852 -0.00576793 0.0226726)
(1.56516 0.128755 -0.0330946)
(1.54141 -0.0776088 0.0292805)
(1.2894 -0.245324 0.000693283)
(1.29048 -0.246283 0.00834139)
(1.53876 -0.0769341 -0.0250134)
(0.409761 0.46937 -0.00585637)
(0.884506 0.377662 -0.00129159)
(0.0793229 0.0714056 -0.0170718)
(0.884452 0.376008 0.0130276)
(0.41062 0.470656 0.00627154)
(0.741466 0.694902 0.0105013)
(1.57822 0.337982 0.00616491)
(1.9137 0.109971 -0.0119628)
(0.741759 0.696462 -0.0101332)
(1.57629 0.335443 0.00164602)
(0.742137 0.695154 -0.0109464)
(1.57052 0.336934 0.000415824)
(1.9125 0.11177 0.0183851)
(1.57445 0.336837 0.01062)
(0.738381 0.692577 0.0139498)
(0.410194 0.469504 0.00436149)
(0.882188 0.375856 0.0136236)
(0.0793913 0.0715418 0.0132106)
(0.885438 0.376089 0.00185888)
(0.408289 0.467619 -0.00265472)
(1.5688 0.335318 0.00995459)
(0.739053 0.693196 -0.00871343)
(0.882117 0.375816 0.00307573)
(0.408897 0.468348 0.00655838)
(1.53163 -0.0741188 0.0281981)
(1.28258 -0.240292 0.0045269)
(1.28444 -0.241459 0.0080502)
(1.52806 -0.0735922 -0.0210066)
(1.5747 -0.00754061 -0.0271332)
(1.55996 0.127615 0.0285944)
(1.55702 0.127705 -0.0349249)
(1.57849 -0.0076118 0.0278316)
(1.53294 -0.0713174 -0.0197042)
(1.28812 -0.24086 0.00391148)
(1.2857 -0.239728 0.0044924)
(1.53673 -0.0715458 0.0225726)
(1.57359 -0.0103456 0.0336086)
(1.5527 0.126044 -0.0370893)
(1.55591 0.125876 0.0338192)
(1.56989 -0.00994495 -0.0287605)
(1.28092 -0.238249 0.00811968)
(1.52581 -0.071637 0.0269568)
(1.55046 0.127786 0.0321304)
(1.56751 -0.00790027 0.0322099)
(0.0069183 -0.0456774 0.0199659)
(0.111852 -0.139008 0.0501261)
(0.26765 -0.0148851 0.162053)
(0.370111 -0.221393 0.295461)
(0.17428 -0.141415 0.365018)
(1.2704 0.516665 -0.147781)
(0.713175 0.297239 -0.0590445)
(0.918494 -0.0416663 -0.136937)
(0.922401 0.0520218 -0.139506)
(1.02921 0.0408834 -0.152147)
(1.04297 0.105278 -0.148509)
(1.07029 0.225616 0.248483)
(-0.0408941 -0.540616 -0.0484996)
(0.329592 0.657143 0.199226)
(1.37878 0.171095 0.0968931)
(1.20221 0.260513 0.404965)
(1.4482 -0.0954585 -0.11269)
(0.283245 1.79618 0.127964)
(1.39889 0.423651 -0.176181)
(1.19119 0.402858 -0.16231)
(1.3881 0.351906 -0.237763)
(1.1826 0.442545 -0.106176)
(1.41396 0.440349 -0.221505)
(1.60588 0.364183 -0.308099)
(0.365751 0.378883 0.041372)
(1.11479 0.466269 -0.0933985)
(0.502801 0.223926 -0.0123775)
(1.19837 0.522114 -0.0540968)
(0.814725 -0.064458 -0.0160613)
(0.750194 0.0601066 -0.0800904)
(0.76513 -0.0556235 -0.0744518)
(0.796512 0.0689715 -0.0169435)
(0.915394 0.0505486 -0.1398)
(0.928665 -0.0422688 -0.136923)
(0.798608 0.0713046 -0.0169434)
(0.755224 -0.0541363 -0.0759725)
(0.757735 0.0623793 -0.0781582)
(0.808291 -0.0644217 -0.0145871)
(0.895653 -0.0308262 -0.0235156)
(0.825469 0.0933915 -0.0760256)
(0.835988 -0.000990131 -0.0786917)
(0.915235 0.0922998 -0.015506)
(0.993213 0.0848497 -0.144465)
(1.0005 0.0151438 -0.146018)
(0.981988 0.0832756 -0.0149525)
(0.862894 0.021746 -0.0834064)
(0.874928 0.112178 -0.0741308)
(0.928433 -0.0194842 -0.0268702)
(0.875319 0.00489816 0.215276)
(0.906753 0.0315283 0.183245)
(0.959119 -0.0822392 0.20865)
(0.815397 0.0148404 0.165743)
(0.86842 0.0431087 0.187608)
(0.895774 0.0319416 0.166103)
(0.896145 0.0400686 0.169504)
(0.860185 0.0504061 0.185905)
(0.916282 0.0767792 -0.141848)
(0.94366 0.0603072 -0.142039)
(0.870923 0.0162503 0.183266)
(0.906687 0.00876675 0.165068)
(0.862731 0.00391834 0.182733)
(0.908119 0.00211112 0.169084)
(0.874867 -0.0144468 0.183176)
(0.912129 -0.00872342 0.165188)
(0.912212 -0.00424132 0.169828)
(0.865914 -0.00149396 0.182145)
(0.918017 0.0573763 -0.139335)
(0.929798 -0.034935 -0.137867)
(0.845902 -0.0952683 0.186872)
(0.916733 -0.0805642 0.170492)
(0.852204 -0.0836522 0.186986)
(0.917608 -0.131455 0.17527)
(1.16585 0.915742 -0.0455483)
(1.68599 0.311734 -0.190692)
(1.13756 0.386687 0.294873)
(1.43122 0.293066 -0.107036)
(1.27986 0.598977 0.0283537)
(1.41785 0.3811 0.0286291)
(1.35209 0.868106 0.196817)
(1.0268 -0.186691 0.204698)
(0.953434 0.0172546 0.174348)
(1.0284 -0.0870957 0.211662)
(0.931187 -0.0054906 0.149748)
(1.07577 0.186998 0.0959464)
(0.921526 0.0807002 0.146724)
(0.935187 0.0659487 0.130532)
(0.973748 0.21207 0.0832388)
(1.12455 0.807808 -0.0820959)
(1.28748 0.515624 0.0479816)
(1.28009 0.464315 0.119528)
(1.09293 0.623337 0.0681476)
(1.09093 0.936194 0.244894)
(1.10493 0.53905 0.0943445)
(1.43319 0.417183 0.0277419)
(1.20221 0.773193 -0.057273)
(1.41706 0.349883 -0.00424071)
(1.22692 0.394088 -0.0349122)
(1.46041 0.396918 -0.0172251)
(1.23601 0.370389 -0.0144397)
(1.52892 0.380415 0.0200324)
(1.16758 0.809002 0.027119)
(0.701333 0.0847522 0.0960897)
(0.88906 0.0869811 0.159399)
(0.743026 0.0336471 0.139389)
(1.01174 0.201438 0.107182)
(0.832058 0.0558517 -0.0261078)
(0.744634 0.0768704 -0.0843687)
(0.781598 0.0364756 -0.0782278)
(0.759623 0.0806773 -0.0272709)
(0.87424 0.0377644 0.0959379)
(0.858503 0.0293363 0.146774)
(0.859445 0.0401897 0.150103)
(0.862843 0.0517538 0.0908425)
(0.873998 0.00781664 0.183279)
(0.907512 0.0074381 0.165075)
(0.864559 0.0205614 0.18213)
(0.911836 0.0120857 0.169537)
(0.870027 0.0432294 0.185174)
(0.900889 0.0344582 0.166598)
(0.861172 0.0341218 0.186007)
(0.905429 0.0229262 0.169777)
(0.785626 0.0700168 -0.021735)
(0.769629 -0.0158625 -0.0734749)
(0.82583 -0.00734828 -0.0169304)
(0.758582 0.0635094 -0.0816175)
(0.900499 -0.0093764 0.092861)
(0.878454 0.00509512 0.147198)
(0.880194 0.010633 0.150998)
(0.903503 0.0226449 0.0899126)
(0.875702 0.0375742 0.0925145)
(0.871876 0.0332446 0.148525)
(0.902556 0.0214777 0.0939785)
(0.868435 0.0195248 0.150364)
(0.933151 -0.00154579 -0.135448)
(0.92693 0.0575945 -0.141475)
(0.891348 0.0188766 0.0917787)
(0.879045 0.00784023 0.147273)
(0.874977 0.000358369 0.150268)