/*--------------------------------*- C++ -*----------------------------------*\
| =========                 |                                                 |
| \\      /  F ield         | OpenFOAM: The Open Source CFD Toolbox           |
|  \\    /   O peration     | Version:  2012                                  |
|   \\  /    A nd           | Website:  www.openfoam.com                      |
|    \\/     M anipulation  |                                                 |
\*---------------------------------------------------------------------------*/
FoamFile
{
    version     2.0;
    format      ascii;
    class       volVectorField;
    location    "0.106/fluid";
    object      U_0;
}
// * * * * * * * * * * * * * * * * * * * * * * * * * * * * * * * * * * * * * //

dimensions      [0 1 -1 0 0 0 0];


internalField   nonuniform List<vector> 
16421
(
(1.19992 2.24531e-05 2.25639e-05)
(1.19948 6.77589e-05 3.03928e-05)
(1.19905 4.01912e-05 8.51133e-06)
(1.19899 3.73282e-05 1.41671e-05)
(1.19872 3.84483e-05 2.03183e-05)
(1.1983 4.51763e-05 3.26484e-05)
(1.19767 6.02633e-05 5.04226e-05)
(1.19669 9.08862e-05 8.42272e-05)
(1.1951 0.000155956 0.00014088)
(1.19231 0.000311946 0.000251879)
(1.1869 0.000732172 0.000531157)
(1.17442 0.00206701 0.00156738)
(1.13678 0.00684261 0.0066527)
(0.986803 0.0181765 0.0319305)
(0.0659341 0.0212303 0.0508672)
(1.19994 8.49081e-07 2.21548e-05)
(1.19971 3.51527e-05 3.42873e-05)
(1.19941 7.07316e-05 1.31213e-05)
(1.19945 0.000107235 1.58575e-05)
(1.19927 0.000161442 2.15619e-05)
(1.19895 0.00024876 3.18138e-05)
(1.19845 0.000387099 5.01133e-05)
(1.19765 0.0006217 8.18579e-05)
(1.19637 0.00102445 0.000134443)
(1.19426 0.00176823 0.000233765)
(1.19062 0.00325413 0.000469449)
(1.18371 0.00661881 0.00126889)
(1.16836 0.0158532 0.00480201)
(1.12736 0.046315 0.021253)
(0.574733 -0.00597781 0.0858172)
(1.19994 3.56573e-06 2.1674e-05)
(1.1997 6.77756e-05 4.05844e-05)
(1.1994 0.000123168 1.84674e-05)
(1.19945 0.00018159 1.90825e-05)
(1.19931 0.000271302 2.39368e-05)
(1.19905 0.000411754 3.21217e-05)
(1.19865 0.000637117 4.88561e-05)
(1.19804 0.00100568 7.58659e-05)
(1.19709 0.00162066 0.000123639)
(1.1956 0.00267602 0.000205726)
(1.1933 0.00452542 0.000380043)
(1.18961 0.00780657 0.000923577)
(1.18254 0.013345 0.00331002)
(1.16117 0.02007 0.0151195)
(0.691836 0.0176639 0.0945451)
(1.19993 4.40507e-06 2.12173e-05)
(1.1997 8.25412e-05 4.67978e-05)
(1.1994 0.000146323 2.32234e-05)
(1.19947 0.000212998 2.29526e-05)
(1.19938 0.000318991 2.57808e-05)
(1.1992 0.000482237 3.1967e-05)
(1.19894 0.00074036 4.62814e-05)
(1.19855 0.00115456 6.77496e-05)
(1.19796 0.00182292 0.00010943)
(1.19709 0.00288741 0.000174935)
(1.19579 0.00457178 0.000299481)
(1.19365 0.00712478 0.000650088)
(1.18827 0.0106151 0.00221472)
(1.16446 0.0134244 0.0111369)
(0.670981 -0.00862431 0.095408)
(1.19994 2.25556e-05 4.76764e-06)
(1.19968 6.7521e-05 6.37949e-05)
(1.19929 4.03867e-05 7.61958e-05)
(1.19925 3.72502e-05 9.37103e-05)
(1.19902 3.86392e-05 0.000133847)
(1.19865 4.39123e-05 0.00020371)
(1.19812 5.93445e-05 0.00031871)
(1.1973 8.88811e-05 0.000507661)
(1.19598 0.000150123 0.000825634)
(1.19372 0.000294433 0.00137802)
(1.18953 0.000681873 0.00238639)
(1.18082 0.00189353 0.00437923)
(1.15965 0.00636646 0.00874813)
(1.09892 0.0245725 0.01878)
(0.844802 0.0945643 0.0230243)
(1.19996 5.507e-07 4.99129e-06)
(1.19991 3.63586e-05 6.24756e-05)
(1.19967 7.18287e-05 7.40194e-05)
(1.19974 0.000106572 9.21776e-05)
(1.1996 0.000159763 0.000131583)
(1.19934 0.000244051 0.000198039)
(1.19893 0.00037835 0.000308309)
(1.19828 0.000601562 0.000489252)
(1.19726 0.000987939 0.000789071)
(1.19562 0.00169008 0.00129939)
(1.19297 0.00306266 0.00220698)
(1.18879 0.00602164 0.00391274)
(1.18336 0.0130997 0.00725649)
(1.18581 0.0303346 0.0136201)
(1.24133 0.0525021 0.0197584)
(1.19996 3.39985e-06 4.90455e-06)
(1.19991 6.88351e-05 6.07182e-05)
(1.19968 0.000123625 7.06812e-05)
(1.19977 0.000180099 8.75159e-05)
(1.19968 0.000267123 0.000124118)
(1.19948 0.000403694 0.000185834)
(1.19917 0.000620879 0.000285299)
(1.1987 0.000975332 0.000447061)
(1.19798 0.00156358 0.000709256)
(1.1969 0.00256102 0.00114168)
(1.19537 0.00427628 0.00187822)
(1.19357 0.00719814 0.00318612)
(1.19282 0.0116888 0.00555424)
(1.1996 0.0156144 0.00990123)
(1.23108 0.0104628 0.0114487)
(1.19996 4.29862e-06 4.94947e-06)
(1.19991 8.31138e-05 5.86786e-05)
(1.19971 0.000145506 6.66908e-05)
(1.19983 0.000211158 8.11148e-05)
(1.19979 0.000314119 0.000114134)
(1.19967 0.000472722 0.000168466)
(1.19949 0.00072291 0.000255158)
(1.19923 0.00112049 0.000392658)
(1.19884 0.00175565 0.0006061)
(1.19829 0.0027626 0.000945272)
(1.19759 0.00431998 0.0014972)
(1.19676 0.00655084 0.00243243)
(1.19565 0.00899335 0.0040596)
(1.19415 0.00757533 0.00707475)
(1.20009 -0.0392253 0.00998559)
(1.19994 2.30344e-05 7.11453e-06)
(1.19967 6.73346e-05 9.02591e-05)
(1.19931 4.02383e-05 0.000121089)
(1.1993 3.752e-05 0.000156668)
(1.19909 3.8312e-05 0.000225092)
(1.19878 4.26998e-05 0.000343147)
(1.19833 5.68268e-05 0.000534606)
(1.19765 8.39222e-05 0.000848422)
(1.19658 0.000136742 0.00136696)
(1.19478 0.000260268 0.00223065)
(1.1915 0.000598874 0.00368182)
(1.18466 0.00168805 0.00610504)
(1.16703 0.00591929 0.00980707)
(1.10619 0.0241203 0.0133869)
(0.836748 0.086268 0.00928772)
(1.19996 4.60182e-07 7.23199e-06)
(1.19991 3.55813e-05 9.04468e-05)
(1.19969 6.97526e-05 0.0001193)
(1.19978 0.00010302 0.000154585)
(1.19968 0.000153922 0.000221472)
(1.19946 0.000231971 0.000334333)
(1.19913 0.000355665 0.000518549)
(1.19862 0.000559235 0.00081796)
(1.19782 0.000906835 0.0013063)
(1.19656 0.00152975 0.00210602)
(1.1946 0.00272641 0.00341948)
(1.19171 0.00526056 0.00553664)
(1.18836 0.0112827 0.00858197)
(1.19023 0.0271317 0.011006)
(1.22822 0.0612418 0.00680024)
(1.19996 3.3513e-06 7.1597e-06)
(1.1999 6.80287e-05 8.92499e-05)
(1.19969 0.00012072 0.000115855)
(1.19981 0.000174278 0.00014852)
(1.19975 0.000256251 0.00021107)
(1.1996 0.000383537 0.000314348)
(1.19936 0.000584217 0.000481791)
(1.199 0.000906873 0.000748701)
(1.19846 0.00143646 0.00117639)
(1.19768 0.00231767 0.00185643)
(1.19668 0.00380486 0.00293386)
(1.19579 0.00627687 0.00460152)
(1.19667 0.00996646 0.00689666)
(1.20464 0.0130352 0.00836691)
(1.23059 0.00900125 0.00319038)
(1.19996 4.15062e-06 7.05862e-06)
(1.19991 8.16653e-05 8.74701e-05)
(1.19972 0.000141992 0.000111128)
(1.19987 0.000203793 0.000140242)
(1.19986 0.000301141 0.000196215)
(1.19978 0.000449193 0.000287025)
(1.19965 0.000680488 0.000431725)
(1.19947 0.00104376 0.000658571)
(1.19922 0.00161327 0.00101103)
(1.19891 0.0024979 0.00154887)
(1.19858 0.00383075 0.00237277)
(1.19838 0.005645 0.00362287)
(1.19848 0.00727538 0.00541149)
(1.19798 0.00433458 0.00707624)
(1.19498 -0.0448891 0.00516337)
(0.236605 -0.0540087 0.12574)
(1.10443 0.0562735 0.0257238)
(1.16651 0.257919 0.0602164)
(1.09177 0.0241409 0.0289352)
(0.951692 0.0599477 0.0328552)
(1.17543 0.0405428 0.024037)
(1.19479 0.0907281 0.0346288)
(0.374523 -0.165416 0.0473326)
(0.87064 0.0589873 0.00346171)
(1.22239 0.124571 0.0154797)
(1.44629 0.120283 -0.0257494)
(0.69264 0.00879441 0.0938554)
(1.24445 0.0828199 0.0231864)
(1.38827 0.0759816 -0.00146693)
(1.25883 0.0268938 0.0305269)
(1.33966 0.0174018 0.0328747)
(0.681956 -0.0186724 0.094081)
(1.25825 0.0130215 0.0302883)
(1.3334 0.00678122 0.0348367)
(1.23662 -0.0268191 0.0250862)
(1.35813 -0.0593062 0.0235075)
(1.20629 -0.0507766 0.0219548)
(1.35848 0.0143778 -0.0321655)
(1.23578 0.0791623 0.0274502)
(1.38614 0.0451475 -0.00388672)
(0.837639 0.0855544 0.00683348)
(1.21896 0.100194 0.00889924)
(1.38826 0.0843382 -0.000285397)
(1.35031 0.0819327 -0.0170324)
(1.19813 -0.0492366 0.00785813)
(1.33166 0.0483856 -0.0149111)
(1.21466 0.0954168 0.00875685)
(1.37667 0.0707343 -0.00243301)
(1.33007 0.0632271 0.00288662)
(1.45544 0.123983 -0.475583)
(-1.78942 0.282471 -1.20204)
(0.634492 0.021063 0.0385762)
(1.19551 0.104287 -0.137832)
(0.575308 0.0188166 0.0160719)
(1.06714 0.119268 0.0507965)
(1.15768 0.0255813 0.01592)
(1.08765 0.0308226 0.029688)
(1.18499 0.0334054 0.0208596)
(1.21649 0.0678942 0.0311409)
(1.20086 0.0214282 0.0164407)
(1.23437 0.0266222 0.0286761)
(1.37942 0.0571569 0.0526481)
(0.688798 0.0320092 0.0936755)
(1.30448 0.0877666 0.108405)
(1.39724 0.111575 0.0594512)
(1.3012 0.0613476 0.0767872)
(1.08928 0.0187821 0.0287161)
(1.16307 0.012441 0.0124567)
(1.08031 -0.000320637 0.0244973)
(1.20244 0.0164908 0.0154168)
(1.23473 0.0149976 0.0279423)
(1.19759 0.00716324 0.0121934)
(1.21495 -0.0126997 0.0232187)
(1.36314 0.00316848 0.032741)
(0.691639 -0.00518706 0.0939169)
(1.29189 0.0168446 0.0532642)
(1.36748 0.0123138 0.0381884)
(1.28636 0.00649538 0.049098)
(1.07145 -0.000504929 0.0217243)
(1.19545 0.00678132 0.0110584)
(1.19993 -0.0203143 0.0208985)
(1.24079 -0.0406646 0.0529031)
(1.33946 -0.092285 0.0416749)
(1.25207 0.00429148 -0.0391913)
(1.21638 -0.0160924 0.00923292)
(1.28901 0.0223155 -0.0342156)
(1.24012 0.00950542 0.0109428)
(1.26871 0.00423645 0.00958053)
(1.22224 -0.0257928 0.0095722)
(1.30053 -0.0210814 0.00717586)
(1.19746 -0.0139234 0.00974313)
(1.19827 0.00436261 0.00777604)
(1.19885 -0.0212855 0.00846866)
(1.22991 -0.0715498 0.00588919)
(1.20229 -0.0509614 0.0111366)
(1.22658 -0.0921267 0.00869742)
(1.2558 0.00408071 -0.00938647)
(1.21522 -0.0218645 0.00404189)
(1.2883 -0.00537065 -0.00620092)
(1.19657 -0.0188387 0.00632256)
(1.21762 -0.079089 0.00330033)
(1.19481 -0.0473313 0.00808671)
(1.21544 -0.0832825 0.00661394)
(1.23063 0.127406 0.180464)
(0.788772 -0.00276389 0.0561787)
(-0.127634 -0.253494 0.296945)
(0.647492 0.050069 0.0467467)
(1.21528 0.0749196 0.0768127)
(0.859641 0.116507 0.0909348)
(1.01231 0.032291 0.115038)
(1.64054 0.217278 -0.374757)
(2.00124 0.227555 -0.0200044)
(0.243663 0.0925646 0.0948651)
(1.48851 0.429537 -0.590505)
(-1.83325 0.430842 -0.990755)
(1.2986 0.0551321 0.0895333)
(1.24982 0.221964 0.0164917)
(1.41209 0.134471 0.0407912)
(1.62232 0.402748 -0.367986)
(1.50954 0.0720058 -0.0476256)
(1.69684 0.19619 -0.111468)
(1.46124 0.14966 0.027597)
(1.23473 0.511001 0.0505362)
(0.0968279 0.0743496 -0.0117718)
(1.94254 0.15072 -0.0265188)
(1.91855 0.237738 0.0347572)
(1.38012 0.356746 -0.0519916)
(0.0978877 0.109646 0.148605)
(1.41397 0.0646751 0.0407209)
(1.47822 0.0214129 -0.0603006)
(1.44479 0.112512 0.0325753)
(1.41833 0.0657649 0.0204902)
(1.37523 0.0439553 0.0454346)
(0.689067 0.0373486 0.094922)
(1.29401 0.0303349 0.0550018)
(1.29812 0.0450592 0.0636146)
(1.36839 0.0286678 0.0376745)
(1.40818 0.0398301 0.0354486)
(1.37896 0.0474151 0.00747141)
(1.40433 0.0101458 0.017882)
(1.39806 0.0354713 0.0323326)
(1.39392 0.0093236 0.0285601)
(1.37611 -0.0175048 0.0126234)
(1.39666 0.00466079 0.0338192)
(1.37378 0.0348277 0.00603407)
(1.36419 -0.0160122 0.0382725)
(0.689123 0.00379296 0.094412)
(1.2664 -0.0196947 0.0490027)
(1.28238 -0.00846762 0.0527612)
(1.35633 -0.0494663 0.0334066)
(1.39612 -0.0233158 0.0362761)
(1.4173 -0.0116371 0.020686)
(1.3769 -0.0230855 0.0203519)
(1.4064 -0.0529865 0.0314264)
(1.40785 -0.0218042 -0.0272525)
(1.39568 -0.103216 0.0307523)
(1.20676 -0.0328632 0.0356358)
(1.23882 -0.0967733 0.0162456)
(1.24794 -0.0647455 0.0232926)
(1.37415 0.101177 -0.0804496)
(1.31534 -0.106316 0.00404051)
(1.33491 -0.0590489 -0.00133491)
(1.34567 0.372235 -0.000591336)
(0.0742971 0.0734989 0.0195925)
(1.94276 0.138491 0.000904194)
(1.33382 0.395752 0.0198351)
(1.93041 0.124943 -0.0229843)
(0.0830494 0.0723848 -0.0181428)
(1.3389 0.3738 0.00845986)
(0.0800116 0.0718046 -0.0170486)
(1.91959 0.116503 -0.0175066)
(1.92813 0.11729 0.00682533)
(1.33313 0.372873 0.00636117)
(0.0787133 0.0717467 0.0117328)
(1.30668 -0.0675878 -0.00381926)
(1.34064 0.0362519 -0.0198428)
(1.2979 -0.0959023 0.00367089)
(1.19722 -0.0429341 0.00505471)
(1.22025 -0.0872137 0.00621311)
(1.22249 -0.0765575 0.00258176)
(1.33862 0.0691513 -0.00234825)
(1.28936 -0.0887791 0.00398229)
(1.29522 -0.0746643 -0.0028107)
(1.32578 0.369439 0.0103267)
(0.0791848 0.0715937 0.0127714)
(1.91712 0.112747 0.0124398)
(1.33149 0.369963 0.00512722)
(1.90817 0.112582 -0.0131623)
(0.0790851 0.0715547 -0.0157574)
(1.32359 0.367649 0.00765394)
(1.90589 0.111135 0.0168995)
(0.0787973 0.0715656 0.0142324)
(1.28764 -0.078412 -0.00110867)
(1.3241 0.0551614 -0.0134651)
(1.28246 -0.0841122 0.00542173)
(1.32109 0.0612309 0.00517391)
(1.27999 -0.0795266 0.00163809)
(1.19498 0.046905 0.257722)
(0.456971 0.0473201 0.23049)
(1.32911 0.0851955 0.304004)
(0.438928 -0.00391309 0.261745)
(0.963566 0.0781894 0.026372)
(1.179 0.0379335 0.0157472)
(1.21135 0.070967 0.025397)
(1.1048 0.0242122 0.0139646)
(0.951065 0.0742015 0.0111576)
(1.18338 0.0363264 0.0128851)
(1.19994 0.0802988 0.0114939)
(1.23966 0.273309 -0.00885317)
(0.284579 0.0850293 0.00871963)
(1.25158 0.193607 0.0615074)
(0.844594 0.0816354 0.00515663)
(1.24557 0.302486 0.0595726)
(1.21862 0.183995 0.000761199)
(0.300114 0.0833132 -0.00794269)
(1.32394 0.00663694 -0.0184551)
(1.23015 0.02107 0.0120344)
(1.24954 0.00757229 -0.0408757)
(1.2345 0.0667544 0.00972931)
(1.32941 0.0439597 0.00304624)
(1.23982 0.022532 0.011452)
(1.27028 0.0114379 0.0107357)
(0.951053 0.0745359 0.0120527)
(1.18376 0.0353482 0.0119994)
(1.19745 0.077139 0.0106112)
(1.22318 0.275106 0.00990912)
(0.290765 0.0825467 0.00227475)
(1.21502 0.182159 0.013384)
(0.835378 0.0858949 0.00914918)
(1.22677 0.275097 0.0111167)
(1.21191 0.182002 0.0120115)
(0.290907 0.0822822 -0.00210178)
(1.31859 0.0321407 -0.0048657)
(1.2292 0.0210749 0.00352281)
(1.25432 0.0105784 -0.00973492)
(1.14225 0.050158 0.218408)
(0.268271 0.047487 0.113734)
(0.141617 -0.146404 -0.0153192)
(0.661214 0.0254054 0.210136)
(1.25085 0.0631129 0.329969)
(0.562831 0.00684185 0.135213)
(0.69185 0.0756887 0.13911)
(1.23148 0.0913335 0.0895477)
(1.06778 0.0918263 0.108805)
(1.01844 0.0831866 0.0488265)
(1.26116 0.0843236 0.150948)
(1.38063 0.155095 0.286172)
(1.2213 0.0644254 0.0692666)
(0.825575 0.178098 0.062096)
(1.64712 0.182062 0.053841)
(1.68958 0.102901 -0.240252)
(1.59206 0.186607 -0.139889)
(1.74165 0.0675824 -0.0925887)
(1.2638 0.422492 0.226184)
(0.867847 0.137553 0.0332598)
(0.325595 0.0832636 -0.00989971)
(1.20486 0.178163 -0.0375223)
(1.40795 0.217448 0.226284)
(1.26031 0.245947 -0.0931565)
(0.211176 0.0950229 0.0639549)
(1.3175 0.12346 0.085633)
(1.40425 -0.00463297 -0.0162803)
(1.65482 0.170437 -0.0251841)
(1.36407 0.15733 -0.0196029)
(1.64336 0.129843 -0.00617796)
(1.33977 0.035449 0.0352376)
(1.42479 0.250167 -0.0616923)
(1.57685 0.0879544 0.0501783)
(1.65904 0.0627982 -0.256357)
(1.53053 0.203203 0.0223155)
(1.69551 -0.00564102 -0.120481)
(1.65131 0.0150107 0.00542183)
(1.55828 0.0514556 -0.0722008)
(1.57126 0.00718355 -0.0670287)
(1.64103 0.0551346 0.00200394)
(1.64041 0.0421855 0.00229985)
(1.56234 -0.00767836 -0.0702641)
(1.55592 0.0422602 -0.0718668)
(1.64571 -0.00409006 0.0034476)
(1.65695 -0.0427131 0.00482805)
(1.60149 0.031312 -0.0558014)
(1.57005 -0.0294912 -0.0729617)
(1.68547 -0.0015469 0.015186)
(1.75853 -0.0812892 0.0197069)
(1.59679 -0.0275383 -0.0645383)
(1.70374 -0.000885615 -0.041582)
(1.67695 -0.067353 0.0178886)
(1.38509 0.225104 -0.0118755)
(1.6342 0.131382 -0.00776868)
(1.32044 0.0961556 0.0151656)
(1.40691 0.0943632 -0.00747262)
(1.37361 0.199237 0.025602)
(1.62979 0.144708 -0.0118536)
(1.33162 0.136364 -0.00469927)
(1.23447 0.279289 0.0191486)
(0.840307 0.08755 0.0124017)
(0.293233 0.0827181 -0.00474448)
(1.21625 0.183789 0.00879128)
(1.22392 0.184314 0.0223697)
(1.22932 0.276959 0.005371)
(0.291144 0.0831437 0.00129045)
(1.37236 0.207602 0.0081796)
(1.38179 0.0638963 -0.00407581)
(1.61673 0.136274 -0.00502727)
(1.31624 0.128454 0.00250487)
(1.62287 0.128105 -0.0041796)
(1.31306 0.114389 0.00422844)
(1.3701 0.217799 0.000956732)
(1.36138 0.213297 0.0052277)
(1.61307 0.128754 -0.000515605)
(1.30687 0.119412 0.00229314)
(1.37728 0.0792814 0.00204029)
(1.36496 0.209398 0.00475774)
(1.60632 0.13197 -0.000936991)
(1.30697 0.124389 0.00499505)
(0.28969 0.0822165 0.00444985)
(1.60274 0.129101 0.0029439)
(1.11771 0.095478 0.253039)
(0.0811312 0.0401369 -0.251633)
(1.28663 0.315256 -0.0953969)
(0.289226 -0.00663872 0.170877)
(0.426069 0.281961 0.261266)
(1.28037 0.45184 0.576514)
(0.109444 0.190365 0.798375)
(1.1387 0.100188 0.426793)
(0.51343 -0.105175 -1.39014)
(0.369263 0.0606227 0.312132)
(1.19637 0.158216 -0.637783)
(1.01059 0.0822427 0.19999)
(0.529311 0.157438 -2.02883)
(1.33914 0.103067 0.161353)
(0.431044 -0.00797403 0.0686229)
(1.54052 0.0464539 0.15888)
(1.37615 0.091671 0.208751)
(1.49435 0.0778181 0.153479)
(0.351297 0.0201023 0.0731343)
(1.34591 0.0714979 0.139347)
(1.50829 0.075016 0.136255)
(0.33732 0.00549911 0.0746578)
(1.5083 0.0685372 0.147155)
(1.34219 0.0774726 0.129247)
(0.33723 0.0404583 0.0750522)
(1.35256 0.0255655 0.120447)
(0.334108 0.0156351 0.0761425)
(1.52644 0.014634 0.126431)
(1.35509 0.0117357 0.121072)
(1.52375 0.0226318 0.125388)
(0.334195 -0.0124579 0.0760573)
(1.35519 -0.00274276 0.119627)
(1.52719 0.0111286 0.123211)
(0.335262 -0.0166496 0.0759833)
(1.5271 -0.000517388 0.124067)
(1.35462 0.0139428 0.118911)
(0.334456 0.0108734 0.0761452)
(1.29297 -0.0478316 0.120874)
(0.326606 -0.0255201 0.0757199)
(1.50566 -0.0674658 0.129843)
(1.31596 -0.0569551 0.123358)
(1.48208 -0.109477 0.121143)
(0.305688 -0.064321 0.0753295)
(1.43485 -0.171116 0.106595)
(0.294042 -0.0462401 0.0747087)
(0.987582 0.0675846 0.251267)
(0.0166323 -0.160917 -0.0476213)
(1.06447 -0.0482358 0.7289)
(0.121705 -0.082094 0.26902)
(1.0962 0.0428031 0.429768)
(0.964153 0.054005 0.342476)
(0.357041 -0.0537596 0.157104)
(0.463587 0.513443 0.056064)
(0.059417 0.0655132 -0.221802)
(1.32013 0.383854 -0.257708)
(0.834971 0.796024 0.080402)
(2.17094 0.447803 -0.21645)
(1.7129 0.457792 -0.171921)
(0.740022 0.743619 0.0239308)
(1.74673 0.362588 -0.0709828)
(1.97114 0.291049 -0.0718484)
(1.63076 0.354249 -0.083687)
(0.824319 0.771383 0.272877)
(1.32778 0.880519 -0.0966243)
(1.17102 0.355877 -0.492354)
(1.24976 0.282908 -0.0236718)
(1.57482 0.393431 -0.0711581)
(0.417564 0.50645 0.0562464)
(1.24279 0.282254 -0.00161644)
(0.0188647 0.103365 -0.104315)
(1.10824 0.506093 -0.0617433)
(0.482582 0.54099 0.225611)
(1.3679 0.0696114 -0.1704)
(-0.547222 -1.16473 -0.323713)
(1.52927 0.06569 -0.313773)
(0.194402 0.0890508 0.928017)
(1.37906 0.00182623 -2.44265)
(1.34315 -0.10867 -0.368367)
(0.688125 2.33277 0.204642)
(1.17127 0.163689 0.211158)
(0.559251 0.0491412 0.0373967)
(1.54835 0.0505659 0.140311)
(1.37311 0.180553 0.337766)
(1.31761 0.0107182 0.262156)
(0.533596 0.438877 0.250655)
(1.50466 0.148708 -0.321249)
(1.23151 0.33676 -0.523166)
(1.49226 0.0499494 -1.96723)
(1.35402 0.181981 0.19517)
(0.527434 0.659885 0.139917)
(1.50876 0.247804 0.0842472)
(1.86451 0.319891 -0.188321)
(1.55875 0.311694 -0.0932434)
(1.49271 0.229768 -0.13893)
(1.64049 0.203268 0.101456)
(1.61142 0.0674407 0.0731903)
(1.4088 0.134289 0.290814)
(1.73325 0.0810202 -0.0451203)
(1.51847 0.285922 0.188026)
(1.21922 0.306262 -0.38591)
(1.44914 0.229901 0.0281901)
(1.47551 0.351904 0.432807)
(0.41436 0.4676 -0.0767401)
(0.914147 0.359136 0.0258047)
(0.092959 0.0777252 -0.0106974)
(0.890613 0.350257 -0.0373292)
(0.417731 0.476762 0.0334051)
(0.769695 0.69942 -0.103907)
(1.97846 0.0903078 0.0447087)
(1.58896 0.361388 -0.00325153)
(1.66699 0.336879 0.026608)
(0.750417 0.707456 0.0541161)
(0.765131 0.711957 -0.105398)
(1.49272 0.419302 0.0233783)
(2.00649 0.0743044 0.0189448)
(0.768905 0.768186 0.270115)
(1.67345 0.309941 0.0039944)
(0.417638 0.482716 -0.0957783)
(0.834167 0.519308 0.0594494)
(0.0558147 0.0767252 -0.0326985)
(0.473132 0.551413 0.281672)
(0.826376 0.454931 -0.0505166)
(1.57778 0.0820749 0.0562496)
(1.59865 0.0424896 0.0982902)
(1.53991 0.0748732 0.117789)
(1.68955 0.010297 -0.0518518)
(1.60749 0.0750236 0.052996)
(1.56687 0.0927522 -0.0283663)
(1.50384 0.139793 0.0517414)
(1.6331 0.097524 0.0230904)
(1.61163 0.0747702 0.0523374)
(1.5628 0.0773229 0.100371)
(1.55869 0.0704208 0.11098)
(1.62847 0.0928843 0.037095)
(1.35606 0.0276309 0.121864)
(0.335471 -0.00782314 0.0758844)
(1.52403 0.037907 0.125281)
(1.35346 0.0397863 0.120202)
(1.52689 0.0311626 0.127936)
(0.334902 0.0198615 0.0760243)
(1.34955 0.0561775 0.123002)
(1.52028 0.0536098 0.134475)
(0.334822 0.0264416 0.0757715)
(1.35246 0.0485022 0.126044)
(1.51964 0.0545453 0.129452)
(0.33632 -0.00275815 0.0755751)
(1.64182 0.0723474 0.00723903)
(1.57901 0.0375099 -0.0425247)
(1.65081 0.0481168 0.0166005)
(1.56429 0.0634188 -0.0654535)
(1.65054 0.0196338 0.0232545)
(1.58224 0.0387635 0.0879297)
(1.58599 0.0314883 0.0904484)
(1.64269 0.0500308 0.0200146)
(1.64117 0.0678179 0.0255527)
(1.57761 0.0559501 0.0975069)
(1.64564 0.0512706 0.0320762)
(1.5774 0.0559896 0.0924735)
(1.64237 0.0359245 0.0201257)
(1.58522 0.0141801 0.0890686)
(1.58217 0.0233665 0.0881075)
(1.64667 0.00101953 0.0213831)
(1.64562 -0.0191211 0.00130639)
(1.55991 0.0420109 -0.0727681)
(1.55914 -0.0199479 -0.0732138)
(1.64716 0.0363353 0.00143974)
(1.64737 -0.0142155 0.0185873)
(1.58708 0.0124352 0.0858614)
(1.5863 -0.00141828 0.086698)
(1.64911 0.0287966 0.0184887)
(1.34419 -0.0348065 0.120015)
(0.331383 -0.0406757 0.075853)
(1.52174 -0.0357792 0.125207)
(1.34065 -0.0220978 0.120144)
(1.52276 -0.0346091 0.12516)
(0.335188 -0.00638048 0.0758709)
(1.34704 -0.00258682 0.122057)
(1.52319 -0.0131385 0.125932)
(0.334251 0.0059678 0.0759685)
(1.34917 -0.0162082 0.120867)
(1.52299 -0.00864451 0.127551)
(0.333672 -0.025938 0.0761116)
(1.65511 0.0208329 0.00825415)
(1.55925 -0.0216065 -0.0711997)
(1.64482 -0.0267554 0.00389466)
(1.56969 0.0340432 -0.0650667)
(1.65804 -0.0418907 0.0208001)
(1.59085 -0.0373072 0.0880249)
(1.5858 -0.0354694 0.0875935)
(1.6816 -0.0151342 0.0288074)
(1.65552 0.0108359 0.0249352)
(1.58291 -0.013474 0.0886543)
(1.64645 -0.0228059 0.021196)
(1.5853 -0.00796536 0.0901344)
(1.74017 -0.0476136 -0.0404563)
(1.47308 -0.220436 0.0320617)
(1.63193 -0.119109 -0.0384974)
(1.73992 -0.0990531 0.0343663)
(1.57528 -0.0714282 0.0934085)
(1.57018 -0.131311 0.0864861)
(1.6735 -0.072797 0.0327235)
(1.85529 -0.113 -0.0529288)
(1.77624 0.0178112 -0.0701791)
(1.67501 -0.0640656 -0.0566291)
(1.82264 -0.137081 -0.0215314)
(1.54336 -0.210366 0.0706103)
(1.57956 -0.0657597 -0.00763235)
(1.59552 -0.0534858 0.00116708)
(1.62173 -0.0224162 0.0407336)
(1.6146 -0.0270657 -0.0437293)
(1.6202 -0.00207199 -0.0176705)
(1.63336 0.0150026 -0.00731275)
(1.57872 -0.0858831 0.0383206)
(1.31099 -0.25708 0.000355848)
(1.57093 -0.0900614 -0.0338509)
(0.415518 0.476981 -0.0290231)
(0.887955 0.400695 0.0160204)
(0.076839 0.0719668 -0.027245)
(0.888053 0.391231 0.00390021)
(0.415046 0.480395 0.0374253)
(0.753422 0.70397 -0.0158092)
(1.58688 0.356878 0.0100401)
(1.94715 0.100349 -0.0069047)
(0.741187 0.706384 0.0221837)
(1.60999 0.33591 0.00326212)
(0.755581 0.702468 -0.0308738)
(1.58653 0.347414 -0.0057477)
(1.94194 0.108234 0.0232358)
(1.60376 0.339661 0.0106559)
(0.746461 0.701776 0.0175062)
(0.415575 0.473323 -0.0152042)
(0.89283 0.376617 0.00849676)
(0.085546 0.0724696 0.00214142)
(0.899596 0.373956 -0.00721853)
(0.413652 0.47368 0.00241112)
(0.412849 0.471977 0.000418893)
(0.886185 0.377736 0.00928023)
(0.0809216 0.0718172 0.0106883)
(0.890905 0.377127 6.90932e-05)
(0.411012 0.470756 -0.00224949)
(0.747823 0.699191 -0.0148529)
(1.92536 0.111909 0.0194183)
(1.57934 0.341347 -0.00346327)
(1.58532 0.33917 0.0104431)
(0.74271 0.697156 0.0135748)
(0.74695 0.699292 0.00517018)
(1.58724 0.341995 0.00469584)
(1.92653 0.106994 -0.0111522)
(0.743666 0.7002 -0.0081208)
(1.58861 0.335685 0.00219837)
(0.412557 0.472754 -0.0108933)
(0.888321 0.381608 -0.00161747)
(0.0796206 0.0715346 -0.0196702)
(0.412441 0.473615 0.00963486)
(0.889337 0.378706 0.0118152)
(1.55396 -0.0821878 0.0329928)
(1.29737 -0.251226 -0.00121641)
(1.2988 -0.251656 0.0120184)
(1.55072 -0.0817926 -0.0290601)
(1.59565 -0.00200846 -0.0218209)
(1.60343 -0.00070433 0.0149592)
(1.55431 -0.0668596 -0.0147094)
(1.30595 -0.242055 0.0021288)
(1.30073 -0.24154 0.0086895)
(1.56228 -0.0661803 0.012536)
(1.59678 -0.0182224 0.0382775)
(1.59344 -0.0178658 -0.0368918)
(1.54279 -0.0697805 -0.0186229)
(1.29558 -0.242418 0.0016145)
(1.54733 -0.069814 0.0181235)
(1.29235 -0.241481 0.00469185)
(1.58427 -0.0132196 0.0346797)
(1.56302 0.124057 -0.0390433)
(1.56535 0.123539 0.0345782)
(1.58154 -0.0126458 -0.0326113)
(1.58449 -0.0055145 -0.025735)
(1.56892 0.129569 0.0223382)
(1.58893 -0.00528419 0.0226665)
(1.56545 0.129244 -0.0331065)
(1.54198 -0.0772347 0.0291944)
(1.28997 -0.245723 0.000505013)
(1.29104 -0.246591 0.00818391)
(1.53938 -0.0766006 -0.0251712)
(0.41001 0.469668 -0.00586461)
(0.88486 0.377779 -0.00131383)
(0.0794037 0.0714628 -0.0170896)
(0.884808 0.376124 0.0130336)
(0.410872 0.470957 0.00627508)
(0.741812 0.695286 0.0105125)
(1.57827 0.337871 0.00614845)
(1.91398 0.109719 -0.0119935)
(0.742107 0.696848 -0.0101437)
(1.57634 0.335332 0.00162578)
(0.742487 0.69554 -0.0109666)
(1.57058 0.336821 0.000394573)
(1.91278 0.111505 0.018392)
(1.5745 0.336723 0.0106178)
(0.738729 0.692962 0.0139737)
(0.410445 0.469804 0.00435844)
(0.882548 0.375975 0.0136331)
(0.0794714 0.0715993 0.0132154)
(0.885801 0.376206 0.00185002)
(0.40854 0.467917 -0.00265425)
(1.56885 0.335208 0.00995157)
(0.739406 0.693586 -0.00872072)
(0.882477 0.375935 0.00306928)
(0.409151 0.468652 0.00656505)
(1.53234 -0.0739114 0.0280352)
(1.28311 -0.241015 0.00430814)
(1.285 -0.242066 0.00783642)
(1.52881 -0.0734649 -0.0212275)
(1.57536 -0.00712577 -0.0273386)
(1.56037 0.128127 0.0285341)
(1.55751 0.128212 -0.0350293)
(1.57908 -0.00715761 0.0277429)
(1.53363 -0.0710773 -0.0199128)
(1.2887 -0.241311 0.00372525)
(1.28627 -0.240282 0.00427633)
(1.53737 -0.07125 0.0224598)
(1.57426 -0.00995487 0.033474)
(1.55329 0.126517 -0.0372152)
(1.55642 0.126376 0.0337076)
(1.57061 -0.00962096 -0.0289833)
(1.28144 -0.239037 0.00790872)
(1.52658 -0.0715666 0.0267892)
(1.55107 0.128231 0.0320084)
(1.56826 -0.00762625 0.0320698)
(0.00700092 -0.045743 0.0200222)
(0.112165 -0.139362 0.0502527)
(0.268159 -0.0149133 0.16247)
(0.370714 -0.221685 0.29599)
(0.174599 -0.141655 0.365958)
(1.2655 0.51701 -0.145675)
(0.714525 0.295191 -0.0597621)
(0.919145 -0.04172 -0.13711)
(0.923092 0.0520822 -0.139702)
(1.0297 0.0409769 -0.15227)
(1.04343 0.105436 -0.148664)
(1.07112 0.228847 0.258271)
(-0.0459567 -0.53651 -0.0464031)
(0.332189 0.653393 0.199149)
(1.37811 0.172215 0.0984228)
(1.20473 0.259614 0.406437)
(1.44518 -0.0956795 -0.10823)
(0.274396 1.80064 0.132189)
(1.40203 0.424099 -0.177082)
(1.19105 0.403019 -0.161293)
(1.39065 0.35192 -0.238075)
(1.18324 0.443279 -0.106348)
(1.41297 0.440864 -0.220083)
(1.60842 0.364218 -0.30842)
(0.365058 0.378047 0.041201)
(1.11046 0.466388 -0.09127)
(0.504893 0.221316 -0.0133064)
(1.19619 0.522751 -0.0539679)
(0.81532 -0.064477 -0.0159972)
(0.750665 0.0601574 -0.0802249)
(0.765667 -0.0556472 -0.0745805)
(0.796838 0.0689929 -0.0169004)
(0.916051 0.0506168 -0.139968)
(0.929359 -0.0422979 -0.137106)
(0.7992 0.0713575 -0.0168932)
(0.755698 -0.0541696 -0.0761081)
(0.75828 0.0624363 -0.0783093)
(0.808657 -0.0644031 -0.0145378)
(0.896259 -0.0308215 -0.0234377)
(0.825825 0.0934967 -0.0761545)
(0.836458 -0.000980384 -0.0787937)
(0.915485 0.0924733 -0.0154491)
(0.993742 0.0849604 -0.14462)
(1.00109 0.0151534 -0.146172)
(0.982473 0.0836951 -0.0148873)
(0.863259 0.0218403 -0.0834923)
(0.875279 0.112396 -0.074257)
(0.928844 -0.0193882 -0.0267905)
(0.873849 0.00464851 0.215634)
(0.907634 0.0342998 0.183524)
(0.957863 -0.0819987 0.209319)
(0.814966 0.0163004 0.165781)
(0.868502 0.043192 0.187647)
(0.89609 0.0321371 0.166155)
(0.896399 0.0403681 0.169547)
(0.860354 0.0505004 0.185943)
(0.917355 0.0767238 -0.142106)
(0.944875 0.0595979 -0.142265)
(0.871138 0.0162658 0.1833)
(0.907053 0.00880003 0.165116)
(0.862974 0.00392856 0.182756)
(0.908448 0.00212958 0.169137)
(0.875075 -0.0144409 0.183205)
(0.912484 -0.00870914 0.165231)
(0.912531 -0.00422156 0.169878)
(0.86615 -0.00147252 0.182159)
(0.918656 0.0574398 -0.139502)
(0.930467 -0.0349569 -0.13805)
(0.846165 -0.0952349 0.186899)
(0.917124 -0.0804984 0.170544)
(0.852468 -0.0836351 0.187004)
(0.918008 -0.131377 0.175328)
(1.16617 0.916438 -0.0442315)
(1.68558 0.312021 -0.189216)
(1.13689 0.38468 0.289239)
(1.43136 0.293784 -0.106614)
(1.27874 0.600006 0.0280037)
(1.4176 0.380892 0.0266676)
(1.35143 0.868426 0.195812)
(1.02715 -0.187173 0.204658)
(0.954864 0.0205571 0.174453)
(1.02699 -0.0874377 0.211733)
(0.934679 -0.00245563 0.150287)
(1.07819 0.188245 0.0965626)
(0.923238 0.0838979 0.146921)
(0.939097 0.0684238 0.131228)
(0.975101 0.21419 0.0833843)
(1.12509 0.80812 -0.0822045)
(1.28765 0.514628 0.0494684)
(1.27895 0.463567 0.117918)
(1.09243 0.623521 0.0687385)
(1.09112 0.936099 0.2435)
(1.1042 0.538944 0.0939325)
(1.43338 0.416611 0.0264191)
(1.20249 0.773935 -0.0572755)
(1.41714 0.349968 -0.00513494)
(1.22732 0.394152 -0.0349597)
(1.46035 0.396978 -0.01688)
(1.23639 0.370579 -0.0148785)
(1.52853 0.380603 0.019253)
(1.16797 0.809473 0.0268554)
(0.7013 0.0870584 0.0963611)
(0.890663 0.0901178 0.159698)
(0.742743 0.035358 0.139577)
(1.0136 0.204558 0.107437)
(0.83312 0.0554718 -0.0261065)
(0.745544 0.0768507 -0.0845778)
(0.782522 0.0357888 -0.0783828)
(0.760544 0.080643 -0.0272971)
(0.874841 0.0381473 0.0959807)
(0.858894 0.0295506 0.146835)
(0.859821 0.0405256 0.150164)
(0.863339 0.0519676 0.0908753)
(0.874217 0.00783801 0.183319)
(0.907872 0.00746267 0.165123)
(0.864799 0.0205914 0.182154)
(0.912173 0.0121267 0.169592)
(0.870239 0.0432944 0.185225)
(0.901246 0.0346372 0.166655)
(0.861377 0.0341913 0.186048)
(0.905768 0.0230342 0.169839)
(0.786391 0.0700506 -0.0217191)
(0.770278 -0.01623 -0.0736311)
(0.826479 -0.00765319 -0.016907)
(0.759256 0.0635497 -0.0817807)
(0.90105 -0.00935626 0.0928944)
(0.87888 0.00511992 0.147248)
(0.880604 0.0106737 0.151054)
(0.904035 0.0226741 0.0899451)
(0.876262 0.0376794 0.0925455)
(0.872331 0.033437 0.148593)
(0.903186 0.0216667 0.0940251)
(0.868851 0.0196403 0.150429)
(0.934 -0.00191287 -0.135662)
(0.927742 0.0576256 -0.141687)
(0.89188 0.0189078 0.0918085)
(0.87948 0.00787446 0.147324)
(0.875375 0.000380032 0.150321)
(0.90928 -0.0124617 0.0905296)