/*--------------------------------*- C++ -*----------------------------------*\
| =========                 |                                                 |
| \\      /  F ield         | OpenFOAM: The Open Source CFD Toolbox           |
|  \\    /   O peration     | Version:  2012                                  |
|   \\  /    A nd           | Website:  www.openfoam.com                      |
|    \\/     M anipulation  |                                                 |
\*---------------------------------------------------------------------------*/
FoamFile
{
    version     2.0;
    format      ascii;
    class       surfaceVectorField;
    location    "0.106/fluid";
    object      Uf;
}
// * * * * * * * * * * * * * * * * * * * * * * * * * * * * * * * * * * * * * //

dimensions      [0 1 -1 0 0 0 0];


internalField   nonuniform List<vector> 
47458
(
(1.19995 3.90402e-05 3.67517e-05)
(1.19993 2.46599e-05 2.25702e-05)
(1.19994 2.24354e-05 2.68036e-05)
(1.19962 7.12451e-05 3.80295e-05)
(1.19952 6.22958e-05 2.36546e-05)
(1.19967 6.33692e-05 3.07988e-05)
(1.19962 6.81798e-05 3.93365e-05)
(1.19932 4.15182e-05 7.96527e-06)
(1.19926 3.93643e-05 9.20318e-06)
(1.19936 4.36569e-05 8.91867e-06)
(1.19919 4.06571e-05 1.8915e-05)
(1.19907 3.7571e-05 1.35851e-05)
(1.199 3.71688e-05 1.47473e-05)
(1.19938 4.78247e-05 1.42057e-05)
(1.19914 3.73973e-05 2.67988e-05)
(1.19877 3.80294e-05 1.95187e-05)
(1.19868 3.90477e-05 2.1404e-05)
(1.19918 5.78508e-05 2.02783e-05)
(1.19889 3.84319e-05 3.80427e-05)
(1.19836 4.41321e-05 3.0844e-05)
(1.19823 4.6599e-05 3.46935e-05)
(1.19883 7.8215e-05 3.24167e-05)
(1.1985 4.49615e-05 5.98697e-05)
(1.19776 5.81177e-05 4.81998e-05)
(1.19757 6.30838e-05 5.3594e-05)
(1.19827 0.000112749 5.06337e-05)
(1.19792 6.04766e-05 9.27511e-05)
(1.19684 8.60077e-05 7.95797e-05)
(1.19653 9.69034e-05 8.96414e-05)
(1.19739 0.000176696 8.4114e-05)
(1.19705 9.07724e-05 0.000152078)
(1.19534 0.000145385 0.00013219)
(1.19482 0.000169434 0.000151313)
(1.19595 0.000300463 0.00014049)
(1.19562 0.000155582 0.00025212)
(1.19274 0.000285443 0.000233987)
(1.1918 0.000346726 0.000274808)
(1.19349 0.000565175 0.000250129)
(1.19314 0.000310345 0.00044042)
(1.18778 0.000658155 0.000481264)
(1.18584 0.000833634 0.000601647)
(1.18897 0.00120867 0.000524583)
(1.18841 0.000726027 0.00086722)
(1.17663 0.00181976 0.00136124)
(1.17167 0.00241688 0.00188039)
(1.17922 0.00310161 0.00153898)
(1.17803 0.00203963 0.00220652)
(1.14413 0.0059505 0.00559682)
(1.12713 0.0080509 0.0082669)
(1.15096 0.00996178 0.00665221)
(1.14952 0.00684626 0.00823472)
(1.01828 0.0169523 0.0268717)
(0.947172 0.0188869 0.039828)
(1.02565 0.033931 0.0351642)
(1.04371 0.0216021 0.0418353)
(0.112766 0.00619666 0.0504888)
(0.0905928 -0.0541193 0.0511445)
(0.167802 0.00280093 0.102157)
(0.0680074 0.0189841 0.0618308)
(0.0531268 0.00580055 0.023589)
(0.0486009 -0.00262347 0.0511756)
(0.0749247 -0.000955148 0.0633724)
(1.19994 2.95714e-06 2.2255e-05)
(1.19997 3.20045e-06 3.64193e-05)
(1.19994 3.96901e-06 2.20889e-05)
(1.19995 7.62733e-07 2.60762e-05)
(1.19972 4.45612e-05 3.3697e-05)
(1.19982 2.85195e-05 4.12768e-05)
(1.19977 4.16851e-05 2.79096e-05)
(1.19971 4.87592e-05 3.50824e-05)
(1.19985 3.72554e-05 4.22444e-05)
(1.19942 7.0028e-05 1.24369e-05)
(1.19967 6.76643e-05 1.27246e-05)
(1.19964 7.44524e-05 1.36812e-05)
(1.19941 8.43435e-05 1.37716e-05)
(1.19957 7.27999e-05 2.25383e-05)
(1.19945 0.000100952 1.55014e-05)
(1.19952 0.000101964 1.56361e-05)
(1.19947 0.000113045 1.64851e-05)
(1.19945 0.000122528 1.62308e-05)
(1.19962 0.000108385 2.74532e-05)
(1.19927 0.00014839 2.13151e-05)
(1.19931 0.000153535 2.0903e-05)
(1.19924 0.000170529 2.25252e-05)
(1.19927 0.000180821 2.18719e-05)
(1.19947 0.000162343 3.85741e-05)
(1.19894 0.000226382 3.18274e-05)
(1.199 0.000235936 3.01021e-05)
(1.1989 0.000263238 3.40024e-05)
(1.19896 0.000275299 3.1861e-05)
(1.19919 0.000248905 5.78254e-05)
(1.19843 0.000350984 5.01963e-05)
(1.19852 0.00036676 4.78527e-05)
(1.19836 0.000410975 5.3117e-05)
(1.19847 0.000426665 5.02268e-05)
(1.19874 0.000387321 9.09327e-05)
(1.19762 0.000561774 8.24839e-05)
(1.19777 0.000586918 7.69521e-05)
(1.19752 0.000661672 8.72601e-05)
(1.19769 0.000683108 8.11002e-05)
(1.19804 0.000619966 0.000147283)
(1.19631 0.000928798 0.000135697)
(1.19656 0.000962732 0.000126433)
(1.19616 0.00109714 0.000144068)
(1.19645 0.00112252 0.00013339)
(1.19692 0.00102167 0.000240499)
(1.19414 0.00161361 0.000236973)
(1.19458 0.0016524 0.000218132)
(1.1939 0.00190756 0.000253617)
(1.19441 0.00193105 0.000230671)
(1.1951 0.00176022 0.00041116)
(1.19035 0.00301449 0.000480133)
(1.19118 0.00301487 0.000428201)
(1.18997 0.00355002 0.000526516)
(1.19094 0.00353599 0.0004588)
(1.19203 0.00322541 0.00077925)
(1.18302 0.0063215 0.00131952)
(1.18483 0.00604928 0.00111427)
(1.18238 0.00735376 0.00149809)
(1.18452 0.00711168 0.00122458)
(1.18676 0.0064856 0.00183113)
(1.16588 0.0159449 0.00515179)
(1.171 0.0141767 0.00408858)
(1.16506 0.0181403 0.00587079)
(1.17072 0.0163896 0.0045828)
(1.17762 0.0150433 0.00591474)
(1.11592 0.0501862 0.0234947)
(1.13453 0.0407603 0.0179308)
(1.11708 0.054317 0.0256897)
(1.1642 0.0415571 0.0255332)
(1.13468 0.0432803 0.0200488)
(0.472989 -0.0762983 0.0662123)
(0.764485 0.0162305 0.056292)
(0.560477 0.128752 0.100094)
(0.617626 0.0126672 0.0896266)
(0.97451 0.0453237 0.125915)
(1.19994 3.66107e-06 2.17229e-05)
(1.19998 8.4017e-06 3.6097e-05)
(1.19994 3.99676e-06 2.1615e-05)
(1.19995 3.60635e-06 2.52104e-05)
(1.19971 6.5789e-05 3.98554e-05)
(1.19981 5.59115e-05 4.66841e-05)
(1.19976 7.86466e-05 3.44573e-05)
(1.1997 7.09834e-05 4.14632e-05)
(1.19985 7.0191e-05 4.70665e-05)
(1.1994 0.000118774 1.78115e-05)
(1.19966 0.000118578 1.83755e-05)
(1.19962 0.000129052 1.87974e-05)
(1.1994 0.000127523 1.91331e-05)
(1.19958 0.000125277 2.61525e-05)
(1.19945 0.000174695 1.86673e-05)
(1.19952 0.000173264 1.88897e-05)
(1.19948 0.000191044 1.96893e-05)
(1.19945 0.00018768 1.95596e-05)
(1.19966 0.000183034 2.89625e-05)
(1.1993 0.000260753 2.36607e-05)
(1.19934 0.000258301 2.33921e-05)
(1.19928 0.00028598 2.47748e-05)
(1.19932 0.0002804 2.42322e-05)
(1.19956 0.000272287 3.90374e-05)
(1.19903 0.000395508 3.20894e-05)
(1.19909 0.000390998 3.07628e-05)
(1.19901 0.000435392 3.38456e-05)
(1.19907 0.000425824 3.20882e-05)
(1.19934 0.000411937 5.59074e-05)
(1.19862 0.000612758 4.92151e-05)
(1.19871 0.000604077 4.6426e-05)
(1.19859 0.000675046 5.16466e-05)
(1.19868 0.000657877 4.85788e-05)
(1.199 0.000636471 8.6097e-05)
(1.19798 0.000969052 7.67862e-05)
(1.19813 0.000950796 7.17151e-05)
(1.19794 0.00106864 8.08131e-05)
(1.1981 0.00103687 7.48945e-05)
(1.19848 0.0010034 0.000134731)
(1.19698 0.00156687 0.000125166)
(1.19723 0.00152851 0.000116677)
(1.19693 0.00172761 0.000131822)
(1.19719 0.00166563 0.000122218)
(1.19768 0.00161732 0.000217947)
(1.19542 0.00260243 0.00020959)
(1.19582 0.0025168 0.000193196)
(1.19536 0.00286186 0.000221199)
(1.19579 0.00273434 0.000202271)
(1.19645 0.00266719 0.000359879)
(1.19296 0.00444924 0.000391333)
(1.19364 0.00424468 0.000350636)
(1.19292 0.00485463 0.000419956)
(1.19363 0.00457564 0.000370142)
(1.19462 0.00449826 0.000641422)
(1.18895 0.00783198 0.00096407)
(1.19016 0.00730926 0.00081988)
(1.18896 0.00838466 0.00107736)
(1.19018 0.00774428 0.00088903)
(1.19209 0.00770534 0.00137627)
(1.18131 0.0139189 0.00345794)
(1.18373 0.0125411 0.00282544)
(1.18101 0.0142213 0.00404532)
(1.18344 0.0127826 0.00318617)
(1.18921 0.0129754 0.00404177)
(1.15937 0.0227857 0.015538)
(1.16498 0.0193425 0.0126515)
(1.15376 0.0204988 0.0182228)
(1.16187 0.0179083 0.0147602)
(1.18703 0.0191128 0.0168425)
(0.692129 0.0131859 0.0941845)
(0.808826 0.0164932 0.0585623)
(0.691673 0.0164666 0.0778184)
(0.691702 0.00944888 0.0943702)
(1.05674 0.0141348 0.125935)
(1.19994 4.5611e-06 2.12578e-05)
(1.19998 9.80266e-06 3.59591e-05)
(1.19995 4.47447e-06 2.47213e-05)
(1.1997 8.14093e-05 4.61592e-05)
(1.19981 6.76395e-05 5.21245e-05)
(1.19976 9.56756e-05 4.07606e-05)
(1.19985 8.46199e-05 5.13747e-05)
(1.1994 0.000144925 2.2695e-05)
(1.19966 0.00014132 2.33388e-05)
(1.19963 0.000152987 2.34271e-05)
(1.19961 0.000148052 2.89603e-05)
(1.19947 0.000211107 2.24716e-05)
(1.19954 0.000203191 2.2841e-05)
(1.19951 0.000224152 2.33987e-05)
(1.19972 0.000214564 3.09422e-05)
(1.19937 0.000316348 2.56164e-05)
(1.1994 0.000303765 2.54746e-05)
(1.19936 0.000336082 2.64511e-05)
(1.19967 0.000319642 3.8501e-05)
(1.19918 0.000478641 3.20143e-05)
(1.19922 0.000458102 3.12344e-05)
(1.19917 0.000509349 3.3366e-05)
(1.19954 0.000482458 5.25704e-05)
(1.1989 0.00073546 4.66719e-05)
(1.19897 0.000702473 4.41329e-05)
(1.1989 0.000783248 4.85059e-05)
(1.19934 0.000739753 7.87167e-05)
(1.19848 0.00114783 6.86757e-05)
(1.19861 0.00109352 6.42273e-05)
(1.19849 0.00122412 7.2025e-05)
(1.19903 0.00115248 0.00011862)
(1.19785 0.00181663 0.000111758)
(1.19805 0.00172475 0.000103213)
(1.19787 0.00193422 0.000116561)
(1.19858 0.00181678 0.000188551)
(1.1969 0.00289045 0.000179101)
(1.19721 0.00273096 0.000165462)
(1.19695 0.00306523 0.000186385)
(1.19793 0.00287727 0.000299942)
(1.1955 0.0046031 0.00030971)
(1.19598 0.00432695 0.000279009)
(1.19558 0.00484773 0.000326429)
(1.19702 0.00454646 0.000503575)
(1.1932 0.00721638 0.00068435)
(1.19399 0.00676246 0.000584543)
(1.19324 0.00752468 0.000747582)
(1.19572 0.00703478 0.000990334)
(1.18764 0.0107148 0.00237025)
(1.18933 0.0101504 0.00188963)
(1.18688 0.0110936 0.00272534)
(1.19319 0.0101669 0.00274147)
(1.16373 0.0131004 0.011813)
(1.16941 0.0132907 0.00918267)
(1.15571 0.0129379 0.0136713)
(1.18402 0.0110313 0.0124892)
(0.676315 -0.0134978 0.0947307)
(0.788452 -0.00380473 0.0571528)
(0.669327 -0.0190204 0.0795539)
(0.666783 -0.0135745 0.0953181)
(1.02836 -0.019293 0.124586)
(1.19994 2.25704e-05 6.81098e-06)
(1.19998 3.92712e-05 9.49507e-06)
(1.19996 2.45827e-05 4.88671e-06)
(1.19994 2.26588e-05 6.69171e-06)
(1.19968 6.78316e-05 6.40604e-05)
(1.1998 7.12196e-05 5.45185e-05)
(1.19973 6.17979e-05 6.93716e-05)
(1.19987 6.32427e-05 6.34708e-05)
(1.19968 6.7601e-05 7.09737e-05)
(1.19929 4.05566e-05 6.92743e-05)
(1.19956 4.14554e-05 7.64403e-05)
(1.19951 3.97194e-05 7.72144e-05)
(1.1996 4.4416e-05 7.6008e-05)
(1.1993 4.03942e-05 8.35762e-05)
(1.19925 3.73058e-05 8.47337e-05)
(1.19933 3.74428e-05 9.04885e-05)
(1.19927 3.7301e-05 9.75831e-05)
(1.19964 4.78088e-05 9.3752e-05)
(1.19926 3.73176e-05 0.000103459)
(1.19901 3.86949e-05 0.000120669)
(1.19906 3.83916e-05 0.000127579)
(1.19898 3.90645e-05 0.000141037)
(1.19948 5.79626e-05 0.0001338)
(1.19903 3.86508e-05 0.00014796)
(1.19864 4.41287e-05 0.00018389)
(1.1987 4.29524e-05 0.000193342)
(1.1986 4.53484e-05 0.000215411)
(1.19918 7.58331e-05 0.00020324)
(1.19866 4.37983e-05 0.000225056)
(1.1981 5.9717e-05 0.000287936)
(1.1982 5.7041e-05 0.000301384)
(1.19803 6.21301e-05 0.000337884)
(1.19872 0.000110611 0.000317827)
(1.19814 5.90999e-05 0.000352008)
(1.19727 8.94049e-05 0.000458951)
(1.19742 8.41974e-05 0.000479047)
(1.19717 9.47372e-05 0.00053989)
(1.198 0.000172278 0.000506296)
(1.19734 8.84351e-05 0.000560716)
(1.19593 0.000151331 0.00074769)
(1.19618 0.000140331 0.000777486)
(1.19575 0.000162637 0.000880768)
(1.19682 0.000289201 0.000822305)
(1.19604 0.000148969 0.000911456)
(1.19363 0.000297818 0.00125291)
(1.19407 0.000270006 0.00129342)
(1.19332 0.000326527 0.00147595)
(1.19488 0.000536226 0.00136873)
(1.19383 0.000291254 0.00151764)
(1.18935 0.000690564 0.00219533)
(1.1902 0.000613912 0.00222824)
(1.18875 0.000774562 0.00257287)
(1.19151 0.00112914 0.00236276)
(1.18975 0.000673763 0.00262141)
(1.18048 0.00191784 0.00419269)
(1.18228 0.00166984 0.00405709)
(1.17905 0.00221079 0.00476679)
(1.18523 0.00281353 0.0043142)
(1.18133 0.00187057 0.00483468)
(1.15893 0.00644777 0.00933549)
(1.16337 0.00550569 0.00801279)
(1.15494 0.00761122 0.00964909)
(1.17254 0.00867234 0.00857797)
(1.16098 0.00631228 0.00969501)
(1.09526 0.024384 0.0238894)
(1.10999 0.0209896 0.0171633)
(1.08386 0.0299792 0.0205382)
(1.14601 0.0332563 0.0191169)
(1.1 0.0244297 0.0186126)
(0.857261 0.0768435 0.0129422)
(0.89979 0.0863807 0.0246692)
(1.04783 0.149789 0.0421881)
(0.844347 0.0881156 0.0137469)
(0.966071 0.224416 0.023543)
(0.551475 0.0914725 0.0178125)
(0.97026 0.222233 0.0188104)
(0.547705 0.092884 -0.000608711)
(1.19996 5.97124e-07 7.26049e-06)
(1.19997 2.77067e-06 4.86712e-06)
(1.2 2.70445e-06 9.75779e-06)
(1.19996 3.61913e-06 4.93063e-06)
(1.19996 6.6154e-07 6.99234e-06)
(1.19992 3.721e-05 6.35301e-05)
(1.19992 4.54935e-05 6.25574e-05)
(1.2 2.94323e-05 5.3528e-05)
(1.19999 4.31535e-05 6.77627e-05)
(1.19992 5.0136e-05 6.21908e-05)
(1.19992 3.66805e-05 7.04666e-05)
(1.19967 7.26153e-05 6.80151e-05)
(1.19967 7.11585e-05 7.4417e-05)
(1.19993 6.90237e-05 7.41866e-05)
(1.1999 7.5328e-05 7.51377e-05)
(1.19967 8.5356e-05 7.36974e-05)
(1.19968 7.19052e-05 8.20788e-05)
(1.19974 0.000107267 8.37725e-05)
(1.19974 0.000100386 9.2606e-05)
(1.19981 0.000101509 8.89012e-05)
(1.19977 0.00011223 9.60888e-05)
(1.19974 0.000121741 9.17149e-05)
(1.19974 0.000106372 0.000102321)
(1.1996 0.000160547 0.00011913)
(1.1996 0.000147089 0.000132128)
(1.19963 0.000152003 0.000125595)
(1.19958 0.000168612 0.000138365)
(1.19961 0.000178815 0.000130894)
(1.19961 0.000159306 0.000145728)
(1.19933 0.000245239 0.000178927)
(1.19933 0.000222015 0.000199062)
(1.19938 0.000231738 0.000188068)
(1.19929 0.000257994 0.000209304)
(1.19935 0.000270204 0.000196789)
(1.19935 0.000242954 0.000219206)
(1.19891 0.000380483 0.000278736)
(1.1989 0.000342775 0.000310182)
(1.19899 0.000358447 0.000291796)
(1.19886 0.000401193 0.00032688)
(1.19895 0.000416965 0.000305911)
(1.19895 0.000376193 0.000340893)
(1.19826 0.00060542 0.000442517)
(1.19825 0.000544384 0.000492719)
(1.19838 0.000568123 0.000462203)
(1.19818 0.000640395 0.000519784)
(1.19833 0.00066107 0.000484849)
(1.19832 0.000597519 0.000540687)
(1.19722 0.000995172 0.000714645)
(1.1972 0.00089557 0.0007957)
(1.19741 0.000929244 0.000743954)
(1.19709 0.00105694 0.000840351)
(1.19734 0.00108258 0.000780733)
(1.19732 0.000980152 0.000871061)
(1.19554 0.00170445 0.0011808)
(1.1955 0.00154155 0.00131265)
(1.19587 0.00158133 0.00122169)
(1.19535 0.00182033 0.00138871)
(1.19576 0.00184582 0.00128259)
(1.19572 0.00167429 0.00143117)
(1.19282 0.00309289 0.00202552)
(1.19273 0.00283508 0.00223565)
(1.19337 0.00284398 0.00206629)
(1.19253 0.00333078 0.00237103)
(1.19326 0.00332964 0.00217051)
(1.19315 0.00302756 0.0024237)
(1.18855 0.00608788 0.00371082)
(1.18827 0.00574758 0.00398441)
(1.1894 0.00553338 0.00364354)
(1.18813 0.00663527 0.00422863)
(1.18946 0.00649985 0.00382678)
(1.18918 0.00592974 0.00431869)
(1.18312 0.0133041 0.00754515)
(1.18209 0.0132369 0.00750131)
(1.18396 0.0118976 0.00672121)
(1.18277 0.0146256 0.0078785)
(1.18501 0.0138948 0.00704553)
(1.18436 0.0128467 0.00816318)
(1.18538 0.0318805 0.0166446)
(1.18239 0.0333909 0.0146665)
(1.18403 0.0275063 0.0126433)
(1.18842 0.0336398 0.0146261)
(1.18899 0.03046 0.0131725)
(1.18751 0.0303841 0.0148703)
(1.24285 0.0677016 0.0222691)
(1.23852 0.0653841 0.0235772)
(1.23102 0.0511977 0.019545)
(1.25461 0.0519737 0.0177465)
(1.23988 0.0468077 0.0182604)
(1.24114 0.0625115 0.0155254)
(1.19996 3.59372e-06 6.68203e-06)
(1.19996 3.45592e-06 4.90345e-06)
(1.2 8.24014e-06 9.50164e-06)
(1.19996 3.85486e-06 4.88722e-06)
(1.19996 3.57816e-06 7.27655e-06)
(1.19991 6.99405e-05 6.30816e-05)
(1.19991 6.69668e-05 6.08883e-05)
(1.2 5.68069e-05 5.20553e-05)
(1.19999 7.97531e-05 6.56965e-05)
(1.19992 7.1881e-05 6.03881e-05)
(1.19991 6.93232e-05 6.96938e-05)
(1.19968 0.000124712 6.60308e-05)
(1.19968 0.000119264 7.11891e-05)
(1.19993 0.000119249 7.09165e-05)
(1.19991 0.000129297 7.17163e-05)
(1.19969 0.00012786 7.02599e-05)
(1.19968 0.000123789 7.97066e-05)
(1.19977 0.0001812 8.03051e-05)
(1.19977 0.000173351 8.81857e-05)
(1.19984 0.000171849 8.44914e-05)
(1.19981 0.00018938 9.11156e-05)
(1.19978 0.000186082 8.678e-05)
(1.19978 0.000179791 9.82047e-05)
(1.19968 0.000268569 0.000112911)
(1.19967 0.000256799 0.000125255)
(1.19971 0.000254502 0.000118515)
(1.19966 0.000281463 0.00013045)
(1.19969 0.000276119 0.00012288)
(1.19969 0.000266187 0.000138461)
(1.19947 0.000405702 0.000168424)
(1.19946 0.00038813 0.000187624)
(1.19951 0.000383692 0.000176634)
(1.19945 0.000426394 0.000196111)
(1.1995 0.000417193 0.000183806)
(1.19949 0.00040187 0.000206226)
(1.19916 0.000624327 0.000258328)
(1.19914 0.000597366 0.000288586)
(1.19922 0.000588887 0.000270481)
(1.19912 0.000657497 0.000301959)
(1.19921 0.000641168 0.000281699)
(1.19919 0.000617417 0.000316093)
(1.19868 0.000981413 0.000404765)
(1.19864 0.000939909 0.000453096)
(1.19877 0.000922743 0.000422979)
(1.19862 0.00103573 0.000474061)
(1.19876 0.00100544 0.000440522)
(1.19873 0.000968801 0.000494612)
(1.19794 0.00157514 0.000642937)
(1.19788 0.00151158 0.0007207)
(1.19808 0.00147578 0.000670159)
(1.19786 0.00166517 0.000753328)
(1.19808 0.00160686 0.000696867)
(1.19803 0.00155124 0.000783826)
(1.19683 0.00258324 0.00103752)
(1.19673 0.00249036 0.00116399)
(1.19705 0.0024113 0.00107662)
(1.19673 0.00273515 0.00121571)
(1.19708 0.00261685 0.00111793)
(1.19698 0.00253706 0.00125878)
(1.19525 0.00432015 0.00171959)
(1.19507 0.00420289 0.00192341)
(1.19558 0.00401849 0.00176609)
(1.19515 0.00457629 0.00200762)
(1.19567 0.0043248 0.00183139)
(1.19552 0.00422788 0.00206366)
(1.19339 0.00728355 0.00299254)
(1.19304 0.00721777 0.00328068)
(1.19378 0.00676503 0.00298497)
(1.19336 0.00769338 0.00341916)
(1.19403 0.00714395 0.00309122)
(1.19386 0.0070936 0.00351819)
(1.19283 0.0118556 0.00565801)
(1.19203 0.0121832 0.00575643)
(1.19273 0.0110744 0.00518798)
(1.19301 0.0123272 0.00598183)
(1.19337 0.0111913 0.00536117)
(1.19369 0.0114596 0.00635603)
(1.20101 0.0160673 0.0119586)
(1.19887 0.0180038 0.0102742)
(1.19786 0.015359 0.00923634)
(1.20193 0.0155963 0.0105994)
(1.19911 0.0138804 0.00949144)
(1.20248 0.0152869 0.0117179)
(1.24464 0.0117684 0.019191)
(1.2306 0.0160148 0.0117459)
(1.22612 0.0117195 0.0122244)
(1.23691 0.00912495 0.0074876)
(1.22771 0.00796693 0.0105947)
(1.23994 0.0106495 0.0156439)
(1.19996 4.45296e-06 6.3596e-06)
(1.19996 4.48675e-06 4.93075e-06)
(1.2 9.7341e-06 9.35979e-06)
(1.19996 4.46188e-06 7.38239e-06)
(1.19992 8.41917e-05 6.23654e-05)
(1.19992 8.21115e-05 5.88757e-05)
(1.2 6.81179e-05 5.03504e-05)
(1.19999 9.61691e-05 6.33498e-05)
(1.19992 8.34872e-05 6.86767e-05)
(1.19971 0.000146755 6.34269e-05)
(1.19971 0.000144255 6.72591e-05)
(1.19995 0.000140679 6.71446e-05)
(1.19994 0.000152011 6.74701e-05)
(1.19971 0.000145672 7.65126e-05)
(1.19983 0.000212485 7.53598e-05)
(1.19983 0.000209409 8.19607e-05)
(1.19989 0.000201485 7.84298e-05)
(1.19987 0.000222112 8.43452e-05)
(1.19984 0.000210748 9.23109e-05)
(1.19979 0.000315655 0.000104578)
(1.19978 0.000311434 0.000115383)
(1.19981 0.000299231 0.000109087)
(1.19978 0.000330886 0.00011975)
(1.1998 0.000313097 0.000128336)
(1.19967 0.00047512 0.000153407)
(1.19965 0.000469099 0.000170716)
(1.19969 0.000449563 0.000160362)
(1.19965 0.000499022 0.000177492)
(1.19968 0.00047058 0.000187791)
(1.19948 0.000726774 0.000231645)
(1.19945 0.00071784 0.000259018)
(1.19952 0.000686327 0.000242297)
(1.19947 0.000764435 0.000269542)
(1.19951 0.000718962 0.00028345)
(1.19921 0.00112738 0.000356133)
(1.19916 0.00111421 0.000399647)
(1.19927 0.00106198 0.000372495)
(1.19919 0.00118705 0.000414962)
(1.19925 0.00111312 0.000434905)
(1.19881 0.00176828 0.000549808)
(1.19873 0.00175021 0.000619297)
(1.19889 0.0016625 0.000574637)
(1.19878 0.0018615 0.000641183)
(1.19888 0.00174164 0.000671405)
(1.19824 0.00278633 0.000859462)
(1.19812 0.00276561 0.00097033)
(1.19837 0.00261559 0.000894891)
(1.19821 0.00292883 0.00100195)
(1.19836 0.00273605 0.00104477)
(1.1975 0.00436498 0.00136915)
(1.19733 0.00435019 0.00154529)
(1.19768 0.00409609 0.00141474)
(1.19749 0.0045694 0.00159156)
(1.1977 0.0042693 0.00164914)
(1.19664 0.00663299 0.00226829)
(1.19642 0.00663994 0.0025264)
(1.19687 0.00624568 0.0022913)
(1.19665 0.00687449 0.00259597)
(1.19697 0.00644742 0.00268831)
(1.19567 0.00908206 0.00407699)
(1.19542 0.00913792 0.0042453)
(1.19583 0.00872998 0.00381333)
(1.19547 0.00918732 0.00435528)
(1.19626 0.00871518 0.00465857)
(1.19481 0.00719332 0.00860958)
(1.19465 0.00782076 0.00740469)
(1.19431 0.00829041 0.00661826)
(1.19405 0.00602537 0.00759982)
(1.19587 0.00646835 0.00843915)
(1.20314 -0.0449336 0.015278)
(1.20819 -0.0267009 0.00965071)
(1.19828 -0.0265137 0.00990707)
(1.20587 -0.0553152 0.00797537)
(1.20115 -0.0450086 0.0112239)
(1.19994 2.29901e-05 7.04685e-06)
(1.19998 3.98934e-05 1.35219e-05)
(1.19996 2.52717e-05 7.20039e-06)
(1.19994 2.30617e-05 7.27012e-06)
(1.19968 6.74304e-05 8.78511e-05)
(1.19979 7.11624e-05 7.59994e-05)
(1.19973 6.15303e-05 9.99372e-05)
(1.19987 6.28233e-05 9.04063e-05)
(1.19968 6.7522e-05 9.23282e-05)
(1.19931 4.02605e-05 0.000116715)
(1.19957 4.12417e-05 0.000119957)
(1.19953 3.96295e-05 0.000123957)
(1.19961 4.37608e-05 0.000121278)
(1.19932 4.03404e-05 0.000124837)
(1.19929 3.75168e-05 0.000150256)
(1.19937 3.7685e-05 0.000150824)
(1.19932 3.75669e-05 0.000163504)
(1.19968 4.77162e-05 0.000156907)
(1.1993 3.76507e-05 0.00016224)
(1.19908 3.83131e-05 0.000215648)
(1.19913 3.82833e-05 0.000214745)
(1.19906 3.84498e-05 0.000237005)
(1.19956 5.68717e-05 0.000225211)
(1.1991 3.83692e-05 0.000233192)
(1.19876 4.2944e-05 0.000328916)
(1.19882 4.16909e-05 0.000325453)
(1.19873 4.40394e-05 0.000363055)
(1.19931 7.27628e-05 0.00034248)
(1.1988 4.24686e-05 0.00035544)
(1.1983 5.72178e-05 0.000512518)
(1.1984 5.45992e-05 0.000506221)
(1.19826 5.95329e-05 0.000566693)
(1.19893 0.000104826 0.000533557)
(1.19836 5.64603e-05 0.00055352)
(1.1976 8.47128e-05 0.000813981)
(1.19775 7.97861e-05 0.000801434)
(1.19754 8.89591e-05 0.000901483)
(1.19834 0.000161521 0.000846343)
(1.1977 8.32116e-05 0.000878104)
(1.19649 0.000138853 0.00131333)
(1.19674 0.000128338 0.00128929)
(1.1964 0.000147449 0.00145498)
(1.19741 0.000264349 0.0013614)
(1.19667 0.000134894 0.00141288)
(1.19463 0.000265534 0.00214819)
(1.19506 0.000239291 0.00210096)
(1.19447 0.000287819 0.00237811)
(1.19589 0.00047928 0.0022163)
(1.19494 0.000255326 0.00230049)
(1.19123 0.000611443 0.00356295)
(1.19203 0.000538896 0.00346356)
(1.19089 0.000681052 0.00393004)
(1.19331 0.000998037 0.0036487)
(1.19177 0.000587528 0.00378135)
(1.18418 0.00171728 0.00596488)
(1.18581 0.00148499 0.00574401)
(1.18325 0.00197966 0.00650869)
(1.18863 0.00248487 0.00603413)
(1.18511 0.00166324 0.00622214)
(1.16629 0.00598136 0.00975718)
(1.17027 0.00509087 0.0092921)
(1.16286 0.00713731 0.0103338)
(1.17886 0.00781905 0.00969016)
(1.16767 0.00587096 0.00988183)
(1.10539 0.0241933 0.0135858)
(1.11845 0.0205135 0.013078)
(1.08936 0.0294334 0.0134844)
(1.15105 0.0314104 0.0134711)
(1.10647 0.0240578 0.0133219)
(0.8369 0.0859491 0.00833628)
(0.887155 0.0804433 0.0106821)
(1.02561 0.139901 0.0113542)
(0.835775 0.08612 0.00924478)
(0.962472 0.209098 0.018051)
(0.548227 0.0881266 0.00714132)
(0.962971 0.209431 0.00192288)
(0.548058 0.088028 0.000148941)
(1.19996 6.29152e-07 7.16895e-06)
(1.19997 2.60479e-06 7.18277e-06)
(1.2 2.65384e-06 1.36491e-05)
(1.19996 3.62083e-06 7.17435e-06)
(1.19996 6.22112e-07 7.45249e-06)
(1.19992 3.5837e-05 8.80152e-05)
(1.19992 4.48197e-05 9.04161e-05)
(1.2 2.88286e-05 7.62465e-05)
(1.19999 4.22124e-05 9.98385e-05)
(1.19991 4.93754e-05 9.02226e-05)
(1.19992 3.54229e-05 9.26852e-05)
(1.19969 7.01794e-05 0.000114953)
(1.19969 6.92513e-05 0.0001198)
(1.19994 6.71038e-05 0.000118298)
(1.19992 7.30831e-05 0.000122085)
(1.19969 8.32562e-05 0.000119029)
(1.19969 6.94234e-05 0.000123156)
(1.19977 0.000103623 0.000148327)
(1.19978 9.74129e-05 0.000155216)
(1.19984 9.81519e-05 0.000148779)
(1.19981 0.000108466 0.000161301)
(1.19978 0.00011789 0.00015404)
(1.19979 0.000102441 0.000160018)
(1.19967 0.000154882 0.000212347)
(1.19967 0.000142074 0.000222383)
(1.1997 0.000146562 0.000211326)
(1.19966 0.000162208 0.000232998)
(1.19968 0.0001723 0.000220459)
(1.19969 0.000152948 0.000229306)
(1.19945 0.000233851 0.000320437)
(1.19945 0.000211158 0.000336027)
(1.1995 0.000220636 0.000317433)
(1.19943 0.000244807 0.000353334)
(1.19948 0.000257119 0.000332285)
(1.19948 0.00023009 0.000346295)
(1.1991 0.000359085 0.00049713)
(1.19911 0.00032235 0.000521581)
(1.19918 0.000337335 0.000491117)
(1.19908 0.000376651 0.000549404)
(1.19915 0.000392128 0.000514749)
(1.19916 0.000352222 0.000537027)
(1.19857 0.000565695 0.000784841)
(1.19859 0.000506306 0.000823703)
(1.19869 0.000528925 0.000773369)
(1.19854 0.000594337 0.000868169)
(1.19866 0.00061463 0.000810777)
(1.19867 0.000552724 0.000846422)
(1.19774 0.000919148 0.00125491)
(1.19776 0.000822066 0.00131722)
(1.19794 0.000854247 0.00123347)
(1.19769 0.000968498 0.00138839)
(1.19789 0.000993739 0.00129262)
(1.1979 0.00089448 0.00135015)
(1.19643 0.00155375 0.00202797)
(1.19645 0.0013946 0.0021272)
(1.19675 0.00143386 0.0019866)
(1.19635 0.00164435 0.00224088)
(1.19668 0.00167014 0.00207946)
(1.1967 0.00150589 0.00217195)
(1.19438 0.00277515 0.00330848)
(1.19439 0.00252248 0.0034622)
(1.19489 0.00253718 0.00322351)
(1.19428 0.00295821 0.00364036)
(1.19485 0.0029635 0.00336584)
(1.19483 0.00267857 0.00351175)
(1.19135 0.00536244 0.00540696)
(1.19128 0.00502838 0.00562697)
(1.19211 0.00484566 0.00522635)
(1.19127 0.00578252 0.00587856)
(1.19228 0.00569314 0.00542793)
(1.19205 0.00516278 0.00564195)
(1.1879 0.0114968 0.00852723)
(1.18736 0.0115014 0.00878656)
(1.1887 0.0102572 0.0081708)
(1.18804 0.0126104 0.00898794)
(1.18988 0.0120958 0.0083774)
(1.18878 0.0110854 0.00863597)
(1.18698 0.030438 0.0115041)
(1.19033 0.0277488 0.0113217)
(1.18913 0.0243963 0.0108582)
(1.19181 0.0306066 0.0109539)
(1.19043 0.0269083 0.0112315)
(1.19364 0.0276483 0.0106715)
(1.22141 0.077136 0.00779373)
(1.23134 0.0640351 0.00792224)
(1.21943 0.0566708 0.00787665)
(1.23997 0.0641794 0.00529159)
(1.22856 0.0624494 0.00836265)
(1.22984 0.0546372 0.00622381)
(1.19996 3.55452e-06 7.01965e-06)
(1.19996 3.40528e-06 7.14379e-06)
(1.2 8.23889e-06 1.34857e-05)
(1.19996 3.76035e-06 7.13274e-06)
(1.19996 3.54458e-06 7.36108e-06)
(1.19991 6.83667e-05 8.70052e-05)
(1.19991 6.61554e-05 8.93079e-05)
(1.19999 5.62658e-05 7.53076e-05)
(1.19998 7.86348e-05 9.82528e-05)
(1.19991 7.08812e-05 8.89096e-05)
(1.19991 6.77925e-05 9.16326e-05)
(1.1997 0.000121347 0.000111659)
(1.1997 0.000116492 0.00011641)
(1.19994 0.000116542 0.000115023)
(1.19993 0.00012615 0.000118416)
(1.1997 0.000124859 0.000115356)
(1.1997 0.000120301 0.000119634)
(1.19981 0.000175263 0.00014251)
(1.19981 0.000167748 0.000149416)
(1.19987 0.00016651 0.000143122)
(1.19985 0.000183019 0.000154799)
(1.19982 0.000180036 0.000147563)
(1.19982 0.000173405 0.000153712)
(1.19974 0.000257927 0.00020235)
(1.19974 0.000246423 0.000212605)
(1.19977 0.000244377 0.000201644)
(1.19974 0.000269681 0.000221661)
(1.19976 0.000264851 0.000209354)
(1.19976 0.000254665 0.000218546)
(1.19958 0.000386636 0.000301313)
(1.19958 0.00036891 0.000317262)
(1.19962 0.000364927 0.00029889)
(1.19957 0.00040466 0.000331726)
(1.19962 0.000396248 0.000311116)
(1.19962 0.000380469 0.000325578)
(1.19933 0.000589848 0.000461773)
(1.19933 0.000562049 0.000487121)
(1.19939 0.000554865 0.000457022)
(1.19932 0.00061769 0.000509485)
(1.19939 0.000603286 0.000475878)
(1.19939 0.000578568 0.000498947)
(1.19895 0.000917265 0.00071827)
(1.19894 0.000873794 0.000758666)
(1.19905 0.000859119 0.000709131)
(1.19894 0.000961683 0.000793069)
(1.19905 0.000935132 0.00073789)
(1.19904 0.00089643 0.000774827)
(1.19839 0.00145563 0.00112995)
(1.19837 0.00138851 0.00119484)
(1.19854 0.00135802 0.00111311)
(1.19837 0.00152689 0.00124713)
(1.19855 0.00147644 0.00115654)
(1.19853 0.00141723 0.00121599)
(1.19757 0.00235405 0.00178725)
(1.19753 0.0022538 0.00189165)
(1.19779 0.00218626 0.00175604)
(1.19757 0.00247012 0.00196866)
(1.19784 0.00236821 0.0018191)
(1.1978 0.00228132 0.00191467)
(1.1965 0.00387356 0.00283712)
(1.19642 0.00374051 0.00300054)
(1.19681 0.00358339 0.00277507)
(1.19655 0.00406198 0.00311099)
(1.19694 0.00384725 0.00286469)
(1.19687 0.0037374 0.00301357)
(1.19552 0.00640369 0.00448795)
(1.19535 0.00630144 0.00472432)
(1.19586 0.00591507 0.004361)
(1.19575 0.00669071 0.00486436)
(1.19618 0.00622311 0.00447848)
(1.19607 0.0061573 0.00469225)
(1.19635 0.0101817 0.00683325)
(1.19601 0.0104436 0.00710225)
(1.19635 0.0094717 0.00659437)
(1.19712 0.0104852 0.00718671)
(1.1971 0.00949145 0.00670344)
(1.19699 0.00978197 0.00695487)
(1.20529 0.0133668 0.00887527)
(1.20392 0.0154424 0.00863525)
(1.20298 0.0128623 0.00833398)
(1.20677 0.0130236 0.00821844)
(1.2041 0.0113305 0.00815009)
(1.20518 0.0128825 0.00892449)
(1.23533 0.00930086 0.00649297)
(1.22987 0.0151756 0.00336812)
(1.22641 0.00999854 0.00443073)
(1.23552 0.00802555 0.00148393)
(1.22772 0.00565566 0.00307743)
(1.23221 0.00901874 0.00621502)
(1.19996 4.36081e-06 6.88056e-06)
(1.19996 4.33861e-06 7.0548e-06)
(1.2 9.45387e-06 1.3284e-05)
(1.19996 4.33485e-06 7.2364e-06)
(1.19992 8.20843e-05 8.56281e-05)
(1.19992 8.07814e-05 8.75566e-05)
(1.2 6.69093e-05 7.39116e-05)
(1.19999 9.45764e-05 9.59639e-05)
(1.19992 8.12801e-05 8.99961e-05)
(1.19972 0.00014273 0.000107089)
(1.19972 0.000140703 0.000111793)
(1.19997 0.000137609 0.000110517)
(1.19996 0.000148019 0.000113398)
(1.19973 0.000141537 0.000114896)
(1.19987 0.000205003 0.000134505)
(1.19986 0.000202191 0.000141344)
(1.19993 0.00019461 0.00013541)
(1.19991 0.000214197 0.000145867)
(1.19988 0.000202736 0.000145227)
(1.19985 0.000303212 0.00018805)
(1.19984 0.000298618 0.000198195)
(1.19987 0.000287133 0.000187793)
(1.19985 0.000316865 0.000205619)
(1.19987 0.000299132 0.000203183)
(1.19976 0.000452795 0.000274988)
(1.19975 0.000445614 0.000290554)
(1.19979 0.000427651 0.000273537)
(1.19976 0.0004736 0.000302091)
(1.19979 0.000445632 0.000297334)
(1.19963 0.000687005 0.000413866)
(1.19961 0.000675563 0.000438206)
(1.19967 0.000646757 0.000410357)
(1.19963 0.000718717 0.000455487)
(1.19968 0.000673875 0.000447018)
(1.19944 0.00105538 0.00063167)
(1.19941 0.00103773 0.000670123)
(1.1995 0.000990692 0.00062522)
(1.19945 0.00110385 0.000695619)