/*--------------------------------*- C++ -*----------------------------------*\
| =========                 |                                                 |
| \\      /  F ield         | OpenFOAM: The Open Source CFD Toolbox           |
|  \\    /   O peration     | Version:  2012                                  |
|   \\  /    A nd           | Website:  www.openfoam.com                      |
|    \\/     M anipulation  |                                                 |
\*---------------------------------------------------------------------------*/
FoamFile
{
    version     2.0;
    format      ascii;
    class       volVectorField;
    location    "0.107/fluid";
    object      cellMotionU;
}
// * * * * * * * * * * * * * * * * * * * * * * * * * * * * * * * * * * * * * //

dimensions      [0 1 -1 0 0 0 0];


internalField   nonuniform List<vector> 
16422
(
(5.83716e-06 1.61939e-06 -5.01303e-08)
(5.27018e-05 1.47074e-05 -5.24444e-07)
(0.000104885 2.68815e-05 -1.00469e-06)
(0.00015123 3.79709e-05 -1.44264e-06)
(0.000185051 4.77386e-05 -1.84891e-06)
(0.000207052 5.52343e-05 -2.26851e-06)
(0.000218224 5.85336e-05 -2.59986e-06)
(0.000220345 5.55959e-05 -2.8307e-06)
(0.000213811 4.43879e-05 -2.92277e-06)
(0.000198914 2.43187e-05 -2.54497e-06)
(0.000174555 -8.41998e-07 -1.73133e-06)
(0.000138785 -2.07859e-05 -4.34036e-07)
(9.11462e-05 -2.64033e-05 9.99955e-07)
(4.40265e-05 -1.65585e-05 1.70277e-06)
(8.67207e-06 -4.08504e-06 3.41348e-07)
(7.46794e-06 1.28603e-06 -5.65636e-08)
(6.76597e-05 1.17026e-05 -5.69888e-07)
(0.000131512 2.1399e-05 -1.06431e-06)
(0.000187172 3.02396e-05 -1.51183e-06)
(0.000229283 3.81848e-05 -1.94611e-06)
(0.000258315 4.44929e-05 -2.37128e-06)
(0.000274125 4.74611e-05 -2.70989e-06)
(0.000276208 4.509e-05 -2.9016e-06)
(0.000264999 3.59025e-05 -2.9137e-06)
(0.00024225 1.97384e-05 -2.61461e-06)
(0.000208426 -6.10695e-07 -1.7297e-06)
(0.000163131 -1.82464e-05 -4.72878e-07)
(0.000109616 -2.57804e-05 9.43121e-07)
(6.18548e-05 -2.16632e-05 1.75407e-06)
(2.50464e-05 -1.27647e-05 1.3016e-06)
(8.72572e-06 6.64378e-07 -6.14729e-08)
(7.86645e-05 6.06699e-06 -5.94808e-07)
(0.000150089 1.11874e-05 -1.08502e-06)
(0.000211881 1.59114e-05 -1.52936e-06)
(0.000259208 2.01814e-05 -1.95571e-06)
(0.000292658 2.36362e-05 -2.35241e-06)
(0.000310897 2.5361e-05 -2.68174e-06)
(0.000312619 2.41688e-05 -2.82776e-06)
(0.000298861 1.92061e-05 -2.75252e-06)
(0.000271411 1.04798e-05 -2.33831e-06)
(0.000231776 -6.62026e-07 -1.48644e-06)
(0.000182352 -1.09216e-05 -2.94305e-07)
(0.000126381 -1.68136e-05 9.69785e-07)
(7.26809e-05 -1.6668e-05 1.70988e-06)
(2.89919e-05 -1.20964e-05 1.35228e-06)
(5.75576e-06 1.91703e-06 -5.4018e-07)
(5.16029e-05 1.70359e-05 -4.95911e-06)
(0.000101479 3.07661e-05 -9.35948e-06)
(0.000145253 4.25148e-05 -1.33947e-05)
(0.000176162 5.20893e-05 -1.72057e-05)
(0.000194893 5.88023e-05 -2.07865e-05)
(0.000202394 6.09168e-05 -2.39739e-05)
(0.000199668 5.64427e-05 -2.61903e-05)
(0.000187482 4.37783e-05 -2.6453e-05)
(0.000166831 2.24585e-05 -2.34373e-05)
(0.000139594 -3.74997e-06 -1.6047e-05)
(0.000107198 -2.54481e-05 -4.62128e-06)
(7.51401e-05 -3.2031e-05 8.3987e-06)
(4.84083e-05 -2.13897e-05 1.52061e-05)
(9.37675e-06 -7.51201e-06 3.0286e-06)
(7.36578e-06 1.52831e-06 -5.95691e-07)
(6.58683e-05 1.35226e-05 -5.35334e-06)
(0.000127095 2.43928e-05 -9.8678e-06)
(0.0001804 3.37936e-05 -1.3956e-05)
(0.000219891 4.16686e-05 -1.78361e-05)
(0.000245305 4.73535e-05 -2.15185e-05)
(0.00025682 4.91922e-05 -2.46037e-05)
(0.000254192 4.55193e-05 -2.65082e-05)
(0.00023764 3.52684e-05 -2.64161e-05)
(0.000209521 1.78943e-05 -2.31155e-05)
(0.000173115 -3.55696e-06 -1.5762e-05)
(0.000132383 -2.21416e-05 -4.63408e-06)
(9.20031e-05 -3.05739e-05 7.74988e-06)
(5.87113e-05 -2.58098e-05 1.51624e-05)
(2.84175e-05 -1.48867e-05 1.10792e-05)
(8.58477e-06 7.92094e-07 -6.26486e-07)
(7.62421e-05 6.99681e-06 -5.53355e-06)
(0.000144917 1.26799e-05 -1.00153e-05)
(0.000204365 1.76683e-05 -1.40537e-05)
(0.000249353 2.19491e-05 -1.78731e-05)
(0.00027938 2.50883e-05 -2.13849e-05)
(0.000293578 2.61936e-05 -2.41829e-05)
(0.000290961 2.43377e-05 -2.55694e-05)
(0.000271965 1.87943e-05 -2.48667e-05)
(0.000239446 9.39855e-06 -2.10334e-05)
(0.000197266 -2.52367e-06 -1.34587e-05)
(0.000151136 -1.34588e-05 -2.8772e-06)
(0.000105582 -1.9805e-05 8.20956e-06)
(6.44542e-05 -1.94683e-05 1.4742e-05)
(3.0937e-05 -1.43931e-05 1.1665e-05)
(5.29347e-06 2.57975e-06 -9.74625e-07)
(4.72635e-05 2.24401e-05 -8.74891e-06)
(9.25272e-05 3.95471e-05 -1.61874e-05)
(0.000131152 5.31279e-05 -2.31803e-05)
(0.000156465 6.27785e-05 -2.97168e-05)
(0.000168274 6.77933e-05 -3.57399e-05)
(0.000166164 6.66783e-05 -4.11015e-05)
(0.000151203 5.83919e-05 -4.50014e-05)
(0.000124784 4.23975e-05 -4.55212e-05)
(8.99984e-05 1.81492e-05 -4.04169e-05)
(5.28279e-05 -1.05091e-05 -2.81685e-05)
(2.5265e-05 -3.30401e-05 -9.83571e-06)
(2.31799e-05 -3.88784e-05 1.14704e-05)
(4.29858e-05 -2.63275e-05 2.31195e-05)
(9.57107e-06 -1.52362e-05 5.58842e-06)
(6.57321e-06 2.02177e-06 -1.0604e-06)
(5.90329e-05 1.75375e-05 -9.32344e-06)
(0.000115346 3.11752e-05 -1.70811e-05)
(0.000163681 4.21088e-05 -2.41299e-05)
(0.000197507 5.01009e-05 -3.07056e-05)
(0.00021596 5.43276e-05 -3.67273e-05)
(0.000218386 5.34544e-05 -4.18742e-05)
(0.000204136 4.68385e-05 -4.51947e-05)
(0.000174721 3.40002e-05 -4.49979e-05)
(0.000134384 1.4342e-05 -3.94616e-05)
(8.92455e-05 -1.00268e-05 -2.71396e-05)
(5.40817e-05 -3.01428e-05 -9.22763e-06)
(3.79678e-05 -3.89136e-05 1.07688e-05)
(4.07936e-05 -3.26959e-05 2.27311e-05)
(3.03117e-05 -2.10655e-05 1.73011e-05)
(7.47214e-06 1.04076e-06 -1.10123e-06)
(6.72389e-05 9.05525e-06 -9.60079e-06)
(0.00013104 1.61582e-05 -1.73488e-05)
(0.00018568 2.19368e-05 -2.42745e-05)
(0.000225317 2.63069e-05 -3.0693e-05)
(0.000248697 2.87411e-05 -3.64471e-05)
(0.000254759 2.84105e-05 -4.10196e-05)
(0.000242257 2.49369e-05 -4.33662e-05)
(0.00021218 1.81e-05 -4.20888e-05)
(0.00016843 7.37401e-06 -3.57325e-05)
(0.000120565 -6.07681e-06 -2.34434e-05)
(7.97488e-05 -1.82762e-05 -6.39334e-06)
(5.29664e-05 -2.52332e-05 1.13176e-05)
(3.89548e-05 -2.47029e-05 2.19097e-05)
(2.61574e-05 -2.05178e-05 1.78003e-05)
(4.38107e-06 -2.12636e-06 -1.29181e-08)
(6.48738e-07 -1.61888e-06 2.9212e-08)
(2.95334e-06 -4.28395e-06 -1.13619e-07)
(-2.78155e-06 -3.42831e-06 4.64956e-07)
(1.69186e-06 -4.54523e-06 -1.6443e-07)
(-3.00186e-06 -4.35582e-06 6.36576e-07)
(-1.82085e-06 -8.94884e-06 9.58135e-07)
(-1.03163e-05 -1.33519e-05 8.22405e-07)
(-4.01551e-06 -1.08436e-05 1.08211e-06)
(-1.05238e-05 -1.41171e-05 5.87464e-07)
(3.9959e-05 -1.52443e-05 1.6606e-06)
(1.04342e-05 -4.40259e-06 5.68213e-07)
(4.44939e-05 -1.89836e-05 1.21095e-05)
(1.22712e-05 -7.46979e-06 3.8174e-06)
(2.26516e-06 -6.0803e-07 3.54706e-09)
(7.99912e-07 -1.03103e-06 -9.16779e-07)
(1.48401e-06 -2.78332e-06 -3.4878e-08)
(2.2346e-05 -1.10586e-05 1.15824e-06)
(7.00633e-06 -8.42518e-06 4.06324e-07)
(8.77872e-06 -6.22812e-06 2.09755e-06)
(-1.22496e-06 -4.58873e-06 3.01209e-07)
(2.47239e-05 -1.23591e-05 7.85711e-06)
(6.27183e-06 -9.54529e-06 3.009e-06)
(4.57863e-05 -2.06055e-05 1.50366e-05)
(1.26814e-05 -8.38072e-06 4.66214e-06)
(4.56731e-05 -2.42747e-05 2.21428e-05)
(1.45309e-05 -1.28123e-05 7.75656e-06)
(-4.0517e-06 -1.87404e-06 -2.46836e-06)
(-6.5983e-06 -2.16061e-06 -2.62995e-06)
(-2.61148e-06 -6.07897e-06 5.32398e-07)
(2.59058e-05 -1.33168e-05 9.84272e-06)
(5.43332e-06 -1.0361e-05 3.72613e-06)
(8.52586e-06 -1.23105e-05 4.72814e-06)
(-8.82883e-06 -1.29398e-05 7.15418e-07)
(2.89818e-05 -1.78633e-05 1.4555e-05)
(1.34686e-06 -1.40093e-05 5.37792e-06)
(4.21557e-05 -2.46564e-05 2.30206e-05)
(1.3836e-05 -1.42972e-05 8.18395e-06)
(-1.42816e-05 -6.03849e-06 -2.03889e-06)
(-1.67435e-05 -8.08827e-06 -1.70604e-06)
(-1.09251e-05 -1.41793e-05 4.22078e-07)
(2.90007e-05 -1.99533e-05 1.53872e-05)
(-2.61343e-07 -1.58766e-05 5.54288e-06)
(1.67805e-06 -8.76532e-07 -3.60552e-07)
(1.09853e-06 -9.01466e-07 -5.26685e-07)
(4.13611e-06 -2.8762e-06 -1.12378e-07)
(9.7318e-07 -1.49409e-06 -1.20633e-06)
(2.14252e-07 -1.2257e-06 -1.47158e-06)
(1.07111e-06 -9.54758e-07 -4.61473e-08)
(-2.87396e-07 -1.74202e-06 -5.01698e-08)
(2.22626e-07 -7.62642e-07 -1.20853e-06)
(-2.18918e-06 -1.78012e-06 -2.26374e-06)
(-5.94683e-07 -1.79828e-06 -1.75958e-06)
(3.37843e-06 -3.92234e-06 -2.75888e-07)
(-2.17398e-06 -1.98924e-06 -2.46734e-06)
(-3.28068e-06 -1.29263e-06 -3.10301e-06)
(-5.28192e-07 -2.72203e-06 -1.94924e-06)
(-1.38444e-06 -1.90905e-06 -2.32402e-06)
(-5.6151e-07 -2.13865e-06 -6.01863e-09)
(-1.98184e-06 -1.00882e-06 -1.98621e-06)
(-3.17945e-08 -1.55747e-06 -1.42691e-06)
(-4.71444e-06 -1.62024e-06 -2.98522e-06)
(-5.88786e-06 -1.03388e-06 -3.7022e-06)
(4.69429e-07 -5.40607e-06 8.83564e-08)
(-7.43541e-06 -1.78869e-06 -3.12664e-06)
(-8.64815e-06 -1.61449e-06 -3.94747e-06)
(-2.2544e-06 -1.43745e-06 -2.05859e-06)
(-6.05829e-06 -7.63963e-06 9.31288e-07)
(-5.17004e-06 -2.77128e-06 -2.13031e-06)
(-1.23133e-05 -4.25155e-06 -2.51259e-06)
(-9.90226e-06 -2.74441e-06 -2.84117e-06)
(-1.6183e-06 -6.43854e-06 1.52888e-07)
(-1.34722e-05 -3.96477e-06 -2.88502e-06)
(-1.47827e-05 -4.78424e-06 -4.1191e-06)
(-1.11396e-05 -2.39343e-06 -3.37232e-06)
(-1.21857e-05 -2.62453e-06 -4.20617e-06)
(-6.34689e-06 -9.25892e-06 1.02958e-06)
(-8.50368e-06 -6.91625e-06 -2.1872e-06)
(-5.62864e-06 -3.52997e-06 -2.16166e-06)
(-1.71782e-05 -5.50597e-06 -2.77795e-06)
(-1.84386e-05 -6.68357e-06 -4.22562e-06)
(-5.13347e-06 -1.34084e-05 1.50889e-06)
(-1.98817e-05 -7.87961e-06 -2.28694e-06)
(-2.10849e-05 -9.33445e-06 -4.0369e-06)
(-9.00074e-06 -7.23707e-06 -2.36657e-06)
(-1.51802e-05 -1.34832e-05 -4.36915e-07)
(-1.20439e-05 -9.52706e-06 -2.62353e-06)
(-1.88743e-05 -1.21252e-05 -1.31346e-06)
(-6.50978e-06 -1.71944e-05 1.90441e-06)
(-2.23789e-05 -1.24672e-05 -1.74214e-06)
(-2.3492e-05 -1.34549e-05 -3.75551e-06)
(-1.57316e-05 -1.21938e-05 -7.4408e-07)
(-1.26504e-05 -8.96638e-06 -2.8363e-06)
(-5.35587e-07 -3.80658e-07 -1.2072e-06)
(-2.89213e-06 1.13849e-06 -3.17935e-06)
(-2.06709e-06 1.39912e-07 -2.40872e-06)
(-1.57701e-06 6.21975e-07 -2.05548e-06)
(-1.0951e-06 -6.30966e-08 -1.64816e-06)
(-1.68026e-06 1.99116e-07 -2.19453e-06)
(1.98044e-09 -5.08822e-08 -3.41337e-07)
(1.02613e-07 1.52167e-08 -5.13142e-08)
(-3.50432e-07 5.76099e-08 -7.58078e-07)
(-1.15708e-05 1.16417e-06 -5.01483e-06)
(-2.05576e-05 4.01887e-06 -7.88997e-06)
(-1.54103e-05 2.39695e-06 -6.11936e-06)
(-1.77499e-05 4.23123e-06 -7.53406e-06)
(-1.3362e-05 2.36313e-06 -5.91726e-06)
(-1.47215e-05 1.43942e-06 -5.52279e-06)
(-1.035e-05 1.56705e-06 -4.89195e-06)
(-1.25235e-05 3.81938e-06 -6.59722e-06)
(-9.2899e-06 1.80751e-06 -5.14821e-06)
(-8.41655e-06 1.35332e-06 -4.64834e-06)
(-1.54279e-05 4.40191e-06 -7.15948e-06)
(-1.16204e-05 2.34186e-06 -5.67889e-06)
(-2.72579e-05 -3.47426e-06 -5.10293e-06)
(-4.35051e-05 -2.07908e-06 -8.30378e-06)
(-3.29345e-05 -5.96572e-07 -6.56822e-06)
(-4.11267e-05 -1.08682e-07 -8.51473e-06)
(-3.13898e-05 4.85823e-07 -6.78228e-06)
(-3.07119e-05 -4.60476e-06 -5.2095e-06)
(-2.62591e-05 -2.75345e-06 -5.36704e-06)
(-3.50527e-05 1.52219e-06 -8.60747e-06)
(-2.65828e-05 1.18515e-06 -6.75364e-06)
(-2.47485e-05 -1.022e-06 -5.70568e-06)
(-3.87588e-05 9.98555e-07 -8.65711e-06)
(-2.97093e-05 9.83942e-07 -6.91531e-06)
(-2.20732e-06 1.71007e-07 -2.04941e-06)
(-2.2482e-07 -6.7605e-07 -1.19436e-07)
(-1.50087e-06 -1.44513e-06 7.23482e-08)
(-4.47847e-07 -1.10478e-06 -1.22583e-07)
(-4.92236e-07 -3.67623e-07 -1.65942e-06)
(-1.9807e-06 -1.41696e-07 -2.70318e-06)
(-2.67026e-06 9.71478e-07 -3.4578e-06)
(-1.07205e-06 6.22507e-09 -2.01104e-06)
(-1.55467e-06 8.45091e-07 -2.59027e-06)
(-1.57166e-06 -4.93119e-08 -2.50575e-06)
(-5.9746e-08 2.24117e-07 -1.18242e-06)
(-1.52732e-08 -1.34344e-08 -2.96567e-07)
(-2.00601e-07 1.60873e-07 -5.57465e-07)
(-4.53168e-07 2.32334e-07 -1.24182e-06)
(-7.76632e-07 6.51497e-07 -1.67955e-06)
(3.00777e-07 -6.23541e-08 -2.67971e-07)
(-1.09683e-07 -4.77117e-07 -2.8601e-07)
(-1.54854e-06 1.4142e-07 -2.11214e-06)
(-5.86561e-07 -1.03028e-07 -1.19338e-06)
(-5.6365e-07 -4.61297e-07 -6.99551e-07)
(-3.86098e-08 -3.25226e-07 -1.43147e-07)
(9.83144e-08 -3.24262e-07 6.6e-08)
(-6.59854e-08 -7.58664e-07 2.72696e-07)
(8.94162e-08 -1.38808e-07 2.54195e-08)
(-8.4284e-08 -6.29406e-07 -1.29619e-07)
(-6.73746e-07 -1.54108e-06 2.90707e-07)
(-5.20385e-07 -7.21663e-07 -4.83174e-07)
(-1.33247e-07 -1.16079e-06 3.39788e-07)
(-5.26591e-08 -3.57995e-07 -1.63623e-07)
(-1.09036e-08 3.04474e-08 -1.92808e-08)
(-4.61531e-07 2.36793e-07 -1.04278e-06)
(9.29351e-08 -1.4085e-07 3.733e-08)
(-3.98328e-06 4.87662e-07 -3.35701e-06)
(-4.34826e-06 1.60613e-06 -3.98905e-06)
(-3.12065e-06 -3.95308e-07 -3.00196e-06)
(-2.56152e-06 -1.87105e-07 -2.74094e-06)
(-6.3054e-06 2.49666e-06 -4.81214e-06)
(-4.63138e-06 1.7493e-07 -3.70146e-06)
(-5.00593e-06 4.97405e-07 -3.75781e-06)
(-1.03986e-05 3.64086e-06 -6.09144e-06)
(-7.71708e-06 1.61794e-06 -4.77152e-06)
(-7.27978e-06 1.61858e-06 -4.39547e-06)
(-8.11659e-06 3.02677e-06 -5.44534e-06)
(-6.03667e-06 9.012e-07 -4.28984e-06)
(-2.40894e-06 -1.02046e-07 -2.17227e-06)
(-4.36197e-06 6.74429e-07 -2.89221e-06)
(-5.18532e-06 -3.7615e-06 9.61329e-09)
(-3.20969e-06 -2.93463e-06 1.02046e-07)
(-1.61984e-06 -2.13912e-06 4.35543e-08)
(-2.87983e-06 -2.70718e-06 8.26715e-08)
(-4.63253e-06 4.20173e-07 -2.99116e-06)
(-3.74051e-06 -1.24391e-06 -3.42943e-06)
(-3.00939e-06 -1.24723e-06 -3.24907e-06)
(-3.98768e-06 5.74648e-07 -4.22176e-06)
(-2.44155e-06 -1.07045e-06 -3.02006e-06)
(-4.49251e-06 -3.91165e-07 -4.01694e-06)
(-5.78283e-06 1.61886e-06 -5.1394e-06)
(-4.7657e-06 1.45267e-07 -4.02546e-06)
(-7.54503e-06 1.60366e-06 -5.09664e-06)
(-9.6948e-06 3.60615e-06 -6.54535e-06)
(-5.88013e-06 9.0582e-07 -4.65349e-06)
(-7.58863e-06 2.98527e-06 -5.94135e-06)
(-6.96214e-06 1.52851e-06 -4.75977e-06)
(-1.27007e-06 -3.41958e-07 -1.04696e-06)
(-1.73508e-06 -4.84416e-07 -2.29049e-06)
(-6.47709e-07 -8.04425e-07 -7.30493e-07)
(-3.3437e-06 3.44122e-07 -3.12705e-06)
(-1.22001e-06 -5.81364e-07 -7.95434e-07)
(-2.56993e-06 -3.56077e-06 6.8538e-07)
(-1.6343e-06 -2.85576e-06 4.29933e-07)
(-1.98392e-06 -4.08561e-07 -7.56607e-07)
(-1.17946e-06 -1.09742e-06 -6.95438e-07)
(-7.38942e-07 -2.12478e-06 3.15583e-07)
(-5.83475e-07 -1.16686e-06 -4.85238e-07)
(-1.51187e-06 -2.74827e-06 4.17971e-07)
(-1.35804e-06 -9.63847e-07 -9.84702e-07)
(-5.38536e-06 1.46497e-06 -3.85356e-06)
(-3.57685e-06 6.03134e-07 -3.30543e-06)
(-2.16143e-06 -4.5094e-07 -1.06808e-06)
(-5.46176e-06 -4.71585e-06 -3.48844e-09)
(-8.00386e-06 -6.53768e-06 -2.15004e-07)
(-1.13089e-05 -9.10874e-06 -4.9297e-07)
(-8.6376e-06 -7.70831e-06 -3.20055e-07)
(-1.16342e-05 1.60476e-06 -5.46659e-06)
(-1.55506e-05 2.53215e-06 -6.40755e-06)
(-1.97441e-05 4.36523e-06 -8.20706e-06)
(-1.33904e-05 2.52484e-06 -6.25023e-06)
(-1.70329e-05 4.57686e-06 -7.95929e-06)
(-1.4747e-05 1.93729e-06 -5.91696e-06)
(-1.03536e-05 1.88056e-06 -5.35674e-06)
(-9.28028e-06 2.03544e-06 -5.5577e-06)
(-1.19318e-05 4.16322e-06 -7.12159e-06)
(-1.15933e-05 2.60713e-06 -6.03415e-06)
(-8.39642e-06 1.83016e-06 -5.17193e-06)
(-1.46702e-05 4.68008e-06 -7.63139e-06)
(-3.1186e-06 -8.48559e-07 -9.40118e-07)
(-1.05427e-05 1.45815e-06 -4.56843e-06)
(-8.2897e-06 1.60194e-06 -4.40535e-06)
(-4.07301e-06 -1.6619e-06 -8.61874e-07)
(-2.79334e-06 -1.32013e-06 -5.17927e-07)
(-2.65493e-06 -4.3779e-06 7.76348e-07)
(-2.02584e-06 -1.0363e-06 -6.76854e-07)
(-3.67049e-06 -5.62112e-06 1.16544e-06)
(-3.13685e-06 -1.35221e-06 -9.44136e-07)
(-5.70084e-06 1.57784e-06 -3.97371e-06)
(-2.24828e-06 -1.07233e-06 -1.00301e-06)
(-8.01693e-06 1.88384e-06 -4.3165e-06)
(-2.9287e-06 -2.58342e-06 -4.4249e-07)
(-4.90112e-06 -8.76985e-06 1.51052e-06)
(-3.74332e-06 -3.53362e-06 -3.57072e-07)
(-3.82383e-06 -6.72573e-06 1.25038e-06)
(-1.83565e-05 3.16408e-07 -5.62182e-06)
(-2.33996e-05 3.91984e-06 -8.22569e-06)
(-1.76756e-05 2.39564e-06 -6.42291e-06)
(-1.65887e-05 1.33532e-06 -5.73634e-06)
(-2.67109e-05 3.56255e-06 -8.50369e-06)
(-2.02563e-05 2.21023e-06 -6.66408e-06)
(-2.01175e-05 -1.26505e-08 -5.69194e-06)
(-3.25352e-05 2.3828e-06 -8.66328e-06)
(-2.47295e-05 1.66065e-06 -6.79931e-06)
(-2.35809e-05 -3.07488e-07 -5.88172e-06)
(-2.96583e-05 3.28899e-06 -8.65286e-06)
(-2.26468e-05 2.08699e-06 -6.84683e-06)
(-1.84667e-05 7.47772e-07 -5.93337e-06)
(-1.78384e-05 2.60134e-06 -6.68707e-06)
(-2.26155e-05 4.27561e-06 -8.50777e-06)
(-1.66906e-05 1.88341e-06 -6.15563e-06)
(-2.05424e-05 2.36095e-06 -6.89615e-06)
(-2.58241e-05 3.89394e-06 -8.73016e-06)
(-2.02959e-05 3.11895e-07 -6.03904e-06)
(-2.50705e-05 1.56659e-06 -6.91043e-06)
(-3.16234e-05 2.37924e-06 -8.90459e-06)
(-2.29526e-05 2.29212e-06 -7.05423e-06)
(-2.88481e-05 3.55661e-06 -8.91795e-06)
(-2.37416e-05 -1.23504e-07 -6.22431e-06)
(-5.12937e-06 -3.50591e-06 -9.14311e-07)
(-1.09923e-05 1.47438e-06 -4.62117e-06)
(-4.18851e-06 -2.55911e-06 -8.38478e-07)
(-1.37645e-05 4.11211e-07 -4.82724e-06)
(-4.6356e-06 -5.95594e-06 -4.15531e-07)
(-7.56453e-06 -1.58478e-05 1.15567e-06)
(-6.18167e-06 -1.35359e-05 1.52623e-06)
(-5.8365e-06 -6.90022e-06 -7.91186e-07)
(-4.763e-06 -6.20037e-06 -3.69005e-07)
(-4.95338e-06 -1.00395e-05 1.52843e-06)
(-3.84372e-06 -4.69671e-06 -3.2256e-07)
(-6.11882e-06 -1.28626e-05 1.55036e-06)
(-5.4091e-06 -4.67269e-06 -9.74766e-07)
(-1.66961e-05 -6.86615e-07 -5.05651e-06)
(-1.42593e-05 3.89356e-07 -4.88506e-06)
(-6.6568e-06 -4.86244e-06 -1.3247e-06)
(-2.87522e-05 -3.23352e-06 -5.76164e-06)
(-3.42233e-05 -7.74613e-07 -6.51878e-06)
(-4.34794e-05 -2.33293e-06 -8.72479e-06)
(-3.24959e-05 5.01884e-07 -6.87478e-06)
(-4.09999e-05 -1.56096e-07 -8.97822e-06)
(-3.2283e-05 -4.50838e-06 -5.80358e-06)
(-2.76435e-05 -2.33599e-06 -5.96971e-06)
(-2.75446e-05 1.44009e-06 -6.99687e-06)
(-3.48398e-05 1.92881e-06 -9.03634e-06)
(-3.06385e-05 1.2088e-06 -7.07495e-06)
(-2.5941e-05 -2.26161e-07 -6.35797e-06)
(-3.84664e-05 1.22368e-06 -9.08912e-06)
(-8.13406e-06 -3.85997e-06 -2.31973e-06)
(-2.27322e-05 -1.63176e-06 -5.59568e-06)
(-2.06034e-05 -1.07776e-06 -5.5401e-06)
(-9.71722e-06 -1.75966e-06 -2.9216e-06)
(-7.11179e-06 -7.13031e-06 -1.58971e-06)
(-7.73228e-06 -1.66011e-05 9.71867e-07)
(-5.9992e-06 -7.53722e-06 -9.7708e-07)
(-9.09097e-06 -1.712e-05 4.75525e-07)
(-8.21575e-06 -5.04889e-06 -2.03772e-06)
(-1.72776e-05 -3.50811e-07 -5.17331e-06)
(-6.88629e-06 -5.48892e-06 -1.48849e-06)
(-2.03987e-05 -9.23355e-07 -5.42767e-06)
(-7.55958e-06 -7.61653e-06 -1.81587e-06)
(-1.10898e-05 -1.60181e-05 -3.94423e-07)
(-8.8847e-06 -5.49482e-06 -2.48565e-06)
(-9.44934e-06 -1.72768e-05 2.42305e-07)
(-2.99823e-05 -1.18202e-05 -4.07953e-06)
(-4.61699e-05 -3.35308e-06 -8.20278e-06)
(-3.50372e-05 -1.56649e-06 -6.557e-06)
(-3.24919e-05 -5.63277e-06 -5.12731e-06)
(-4.81757e-05 -7.13782e-06 -7.96822e-06)
(-3.60527e-05 -5.40054e-06 -6.26034e-06)
(-2.99968e-05 -1.75911e-05 -3.66424e-06)
(-4.96239e-05 -1.18935e-05 -7.72092e-06)
(-3.59558e-05 -1.15149e-05 -5.78642e-06)
(-3.14593e-05 -1.28982e-05 -4.41924e-06)
(-3.6492e-05 -1.83148e-06 -6.44004e-06)
(-4.64002e-05 -4.0529e-06 -8.63148e-06)
(-3.4264e-05 -5.91333e-06 -5.77013e-06)
(-3.77266e-05 -5.85864e-06 -5.98827e-06)
(-4.83536e-05 -8.24439e-06 -8.20567e-06)
(-3.06419e-05 -1.9539e-05 -3.73946e-06)
(-3.79161e-05 -1.14916e-05 -5.37807e-06)
(-4.92124e-05 -1.38657e-05 -7.66097e-06)
(-1.15739e-05 2.54112e-06 -3.55313e-06)
(-2.3399e-05 -7.43748e-07 -5.71844e-06)
(-1.00584e-05 -1.25029e-06 -3.09619e-06)
(-2.4873e-05 -2.48012e-06 -5.48404e-06)
(-1.09916e-05 1.08713e-06 -3.41452e-06)
(-1.35504e-05 -1.11708e-05 -1.27353e-06)
(-1.08931e-05 -1.55877e-06 -3.14961e-06)
(-1.13817e-05 -1.54579e-05 -6.34979e-07)
(-9.26463e-06 -5.09697e-06 -2.66147e-06)
(-1.32733e-05 -1.28598e-05 -1.0813e-06)
(-1.2317e-05 2.90735e-06 -3.59416e-06)
(-2.52363e-05 -2.98593e-06 -5.45847e-06)
(-2.76996e-06 1.94559e-06 -2.95153e-06)
(-5.15381e-06 6.11117e-06 -4.72365e-06)
(-2.20161e-06 1.43482e-07 -2.28491e-06)
(-4.1226e-06 4.95022e-06 -4.10336e-06)
(-1.74079e-06 9.05936e-08 -1.98117e-06)
(-3.64934e-06 2.74892e-06 -3.48269e-06)
(-7.41123e-08 5.94527e-08 -1.23263e-07)
(-3.26131e-08 -1.19231e-09 -9.8882e-09)
(-6.97922e-08 1.7258e-08 -3.04636e-08)
(-2.71723e-07 2.09123e-07 -4.73267e-07)
(-1.24595e-07 -2.09679e-07 -8.29666e-08)
(-2.01501e-06 -2.7542e-06 -2.46839e-09)
(-1.40231e-06 -2.14617e-06 -9.75476e-08)
(-2.0824e-05 8.88396e-06 -8.283e-06)
(-3.20155e-05 1.87984e-05 -1.19946e-05)
(-1.39684e-05 3.34202e-06 -5.53046e-06)
(-2.98902e-05 1.87038e-05 -1.17132e-05)
(-1.29995e-05 3.5089e-06 -5.40854e-06)
(-2.28009e-05 9.36907e-06 -8.56735e-06)
(-1.41287e-05 7.76697e-06 -7.11674e-06)
(-1.82063e-05 1.58026e-05 -9.4702e-06)
(-7.81091e-06 2.10032e-06 -4.4101e-06)
(-1.2729e-05 7.64702e-06 -6.79515e-06)
(-2.00799e-05 1.6561e-05 -9.92309e-06)
(-8.71422e-06 2.5962e-06 -4.6299e-06)
(-7.08471e-06 -6.11878e-06 1.59906e-07)
(-8.24712e-06 -6.92893e-06 1.04691e-07)
(-1.35315e-05 -1.13107e-05 -1.11542e-07)
(-1.21255e-05 -1.00612e-05 -7.70818e-08)
(-4.55103e-05 6.15405e-06 -9.41783e-06)
(-6.7354e-05 1.40895e-05 -1.35619e-05)
(-2.98911e-05 5.3994e-06 -6.12807e-06)
(-6.5216e-05 1.50903e-05 -1.35575e-05)
(-2.89644e-05 5.60235e-06 -6.16958e-06)
(-4.77063e-05 5.96672e-06 -9.48798e-06)
(-3.81885e-05 7.60725e-06 -9.46156e-06)
(-5.18883e-05 1.78343e-05 -1.33793e-05)
(-2.28301e-05 3.84774e-06 -6.14686e-06)
(-3.66665e-05 8.5851e-06 -9.47453e-06)
(-5.42347e-05 1.75465e-05 -1.34494e-05)
(-2.40404e-05 4.23878e-06 -6.1913e-06)
(-2.1988e-05 -1.78084e-05 4.50024e-07)
(-2.34743e-05 -1.84367e-05 6.63585e-07)
(-2.91266e-05 -1.83368e-05 1.56083e-06)
(-2.77663e-05 -1.87541e-05 1.35132e-06)
(-1.51441e-06 -6.65511e-07 -1.26765e-06)
(-2.77154e-06 5.07932e-07 -2.52356e-06)
(-1.94934e-06 2.74401e-07 -2.10505e-06)
(-2.1229e-06 -7.99849e-07 -1.46466e-06)
(-1.0303e-07 -1.49706e-07 -9.79841e-08)
(-9.17642e-08 -1.48651e-07 5.71492e-09)
(-1.44172e-06 -1.6935e-06 -4.64161e-07)
(-2.02782e-06 -2.60793e-06 -1.11666e-07)
(-1.41021e-06 -2.03464e-06 -1.8386e-07)
(-2.07142e-06 -2.15454e-06 -4.63414e-07)
(-1.31037e-07 -4.43882e-08 -1.42933e-07)
(-4.48937e-08 -4.36145e-08 3.68452e-08)
(-2.59785e-06 1.98845e-06 -3.68964e-06)
(-2.10556e-06 2.44914e-07 -2.59877e-06)
(-4.7633e-06 6.46128e-06 -6.24978e-06)
(-1.66724e-06 2.5935e-07 -2.29864e-06)
(-3.82116e-06 5.32684e-06 -5.57924e-06)
(-3.39064e-06 2.68292e-06 -4.25311e-06)
(-4.79321e-07 5.1448e-07 -1.02772e-06)
(-1.3588e-07 2.47491e-08 -1.09597e-07)
(-3.34107e-07 2.69542e-07 -5.43918e-07)
(-2.99142e-07 2.30629e-07 -5.62029e-07)
(-7.20251e-07 7.61344e-07 -1.53262e-06)
(-2.38142e-07 2.16584e-07 -2.67844e-07)
(-8.34427e-07 -5.19301e-07 -1.01637e-06)
(-2.19939e-06 6.47272e-07 -2.65715e-06)
(-1.5328e-06 4.38311e-07 -2.14147e-06)
(-1.23829e-06 -6.62194e-07 -1.33622e-06)
(2.78694e-08 -2.6872e-07 2.27703e-07)
(1.5129e-08 -7.13909e-08 7.56817e-08)
(6.51741e-09 -3.75989e-07 3.56469e-07)
(2.27154e-08 -4.3523e-08 4.89498e-08)
(-6.49747e-07 -1.67306e-06 3.10494e-07)
(-1.09463e-06 -2.63395e-06 7.25124e-07)
(-1.04265e-06 -2.13564e-06 2.49038e-07)
(-6.91745e-07 -2.06255e-06 7.02661e-07)
(-5.95519e-08 8.74657e-08 -2.30835e-07)
(-1.01899e-07 1.19847e-07 -5.68512e-08)
(-3.11636e-07 3.2191e-07 -6.76914e-07)
(2.07716e-09 5.20738e-08 -4.61775e-08)
(-5.25145e-06 3.51935e-06 -4.30615e-06)
(-6.24356e-06 7.3332e-06 -5.29844e-06)
(-2.63198e-06 4.69655e-08 -2.51297e-06)
(-4.28935e-06 3.05859e-06 -3.81625e-06)
(-7.48036e-06 8.56599e-06 -5.89215e-06)
(-3.21094e-06 2.41852e-07 -2.80498e-06)
(-1.02646e-05 6.40079e-06 -6.14912e-06)
(-1.65113e-05 1.50281e-05 -9.0294e-06)
(-7.12775e-06 2.02683e-06 -4.2281e-06)
(-1.17861e-05 7.43727e-06 -6.54872e-06)
(-1.47864e-05 1.41583e-05 -8.54624e-06)
(-6.34172e-06 1.74304e-06 -4.00802e-06)
(-3.08861e-06 -8.40001e-07 -1.69341e-06)
(-2.9864e-06 5.39594e-07 -2.59769e-06)
(-2.3477e-06 -8.24977e-07 -1.52361e-06)
(-3.99935e-06 9.01828e-07 -3.0654e-06)
(-5.82185e-06 -3.81138e-06 -5.61269e-07)
(-6.7647e-06 -5.48041e-06 -2.8651e-08)
(-5.69549e-06 -4.86598e-06 1.57563e-08)
(-6.91036e-06 -4.24009e-06 -6.47371e-07)
(-3.05175e-06 -2.70197e-06 -4.55645e-07)
(-2.25345e-06 -2.7903e-06 -8.73391e-08)
(-2.30183e-06 -2.29856e-06 -4.60739e-07)
(-2.98642e-06 -3.3145e-06 -2.19676e-08)
(-5.85149e-06 -4.90117e-07 -2.23078e-06)
(-8.71244e-06 2.44248e-06 -4.35553e-06)
(-7.29317e-06 2.01483e-06 -4.05389e-06)
(-6.92862e-06 -3.38737e-07 -2.4334e-06)
(-4.88863e-06 2.52527e-06 -4.97067e-06)
(-2.52045e-06 1.11528e-07 -2.85991e-06)
(-5.76431e-06 7.62136e-06 -6.86592e-06)
(-3.98457e-06 2.83797e-06 -4.63024e-06)
(-3.07334e-06 3.9183e-07 -3.17302e-06)
(-6.91775e-06 8.84244e-06 -7.4735e-06)
(-9.74717e-06 6.52815e-06 -6.91864e-06)
(-6.88401e-06 2.34841e-06 -4.59613e-06)
(-1.56519e-05 1.53916e-05 -1.0379e-05)
(-6.1071e-06 2.1508e-06 -4.39642e-06)
(-1.3961e-05 1.4565e-05 -9.98348e-06)
(-1.12396e-05 7.51682e-06 -7.32652e-06)
(-1.86646e-06 -7.12666e-07 -1.74593e-06)
(-2.37146e-06 5.48987e-07 -2.77871e-06)
(-1.38651e-06 -6.8975e-07 -1.44218e-06)
(-3.21334e-06 6.65356e-07 -3.25855e-06)
(-3.44354e-06 -3.8018e-06 1.33737e-07)
(-4.26834e-06 -5.50448e-06 1.06482e-06)
(-3.57326e-06 -4.89073e-06 9.50189e-07)
(-4.12074e-06 -4.23099e-06 1.81687e-07)
(-1.67201e-06 -2.68594e-06 1.67057e-07)
(-1.24531e-06 -2.81579e-06 7.30725e-07)
(-1.18911e-06 -2.28028e-06 2.27088e-07)
(-1.744e-06 -3.33987e-06 7.52539e-07)
(-3.61289e-06 -3.84173e-07 -2.44851e-06)
(-7.11273e-06 2.59501e-06 -4.75178e-06)
(-5.93567e-06 2.18271e-06 -4.46839e-06)
(-4.29246e-06 -2.39027e-07 -2.60179e-06)
(9.73439e-09 -8.24484e-08 8.49997e-08)
(-3.81682e-09 -4.07998e-07 3.98603e-07)
(-1.11923e-06 -2.79137e-06 8.79829e-07)
(-7.12405e-07 -2.18549e-06 8.30876e-07)
(-6.71325e-06 -5.87255e-06 1.74916e-07)
(-5.65162e-06 -5.19807e-06 2.03677e-07)
(-2.23905e-06 -2.94849e-06 2.91499e-08)
(-2.96515e-06 -3.50966e-06 1.15169e-07)
(-4.32663e-06 -5.90394e-06 1.34176e-06)
(-3.62486e-06 -5.23091e-06 1.20834e-06)
(-1.27105e-06 -2.9851e-06 8.94504e-07)
(-1.77571e-06 -3.54508e-06 9.41451e-07)
(-1.22967e-05 -2.10504e-07 -3.27739e-06)
(-1.68812e-05 3.51289e-06 -5.76438e-06)
(-1.51225e-05 3.48907e-06 -5.58406e-06)
(-1.3661e-05 -3.32539e-07 -3.44057e-06)
(-8.47852e-06 -4.92983e-06 -7.88283e-07)
(-7.1385e-06 -5.70463e-06 -4.83798e-08)
(-8.30841e-06 -6.44704e-06 -1.1889e-07)
(-7.29039e-06 -4.39789e-06 -6.80241e-07)
(-8.46699e-06 -1.92197e-07 -2.71344e-06)
(-9.07033e-06 2.61113e-06 -4.41627e-06)
(-1.06198e-05 2.93151e-06 -4.82717e-06)
(-7.30258e-06 -2.9397e-07 -2.50232e-06)
(-1.24348e-05 -7.08547e-06 -1.10211e-06)
(-1.3624e-05 -1.0503e-05 -3.82679e-07)
(-1.22105e-05 -9.34664e-06 -3.38477e-07)
(-1.38603e-05 -7.95538e-06 -1.173e-06)
(-2.03539e-05 9.03245e-06 -8.723e-06)
(-1.36757e-05 3.90268e-06 -5.74527e-06)
(-3.12171e-05 1.91026e-05 -1.26398e-05)
(-1.26913e-05 4.03164e-06 -5.64733e-06)
(-2.90448e-05 1.90263e-05 -1.24412e-05)
(-2.23342e-05 9.59053e-06 -8.96733e-06)
(-1.368e-05 7.97293e-06 -7.8222e-06)
(-7.56994e-06 2.72618e-06 -4.77658e-06)
(-1.7357e-05 1.62341e-05 -1.075e-05)
(-8.44925e-06 3.09872e-06 -4.97381e-06)
(-1.22346e-05 8.05358e-06 -7.57274e-06)
(-1.92079e-05 1.69445e-05 -1.1107e-05)
(-7.72927e-06 -1.36761e-07 -2.98757e-06)
(-1.40289e-05 3.6527e-06 -5.78328e-06)
(-1.25083e-05 3.63537e-06 -5.68834e-06)
(-8.62722e-06 -2.66907e-07 -3.03849e-06)
(-5.07982e-06 -4.92419e-06 2.77136e-07)
(-4.50813e-06 -5.72818e-06 1.10684e-06)
(-4.3547e-06 -4.38966e-06 2.02685e-07)
(-5.25074e-06 -6.47142e-06 1.24068e-06)
(-5.26944e-06 -1.00924e-07 -2.75339e-06)
(-7.39752e-06 2.78141e-06 -4.825e-06)
(-4.52944e-06 -1.96307e-07 -2.64522e-06)
(-8.73598e-06 3.08108e-06 -5.13457e-06)
(-7.43735e-06 -7.08582e-06 5.08537e-07)
(-8.50943e-06 -1.05246e-05 1.70883e-06)
(-8.27913e-06 -7.9558e-06 5.58063e-07)
(-7.65792e-06 -9.36967e-06 1.62095e-06)
(-2.56636e-05 8.9812e-06 -8.87425e-06)
(-3.41502e-05 1.89489e-05 -1.22613e-05)
(-1.48849e-05 3.68759e-06 -5.65306e-06)
(-2.41097e-05 9.63116e-06 -8.74119e-06)
(-3.63664e-05 1.89862e-05 -1.2505e-05)
(-1.59627e-05 3.76865e-06 -5.77686e-06)
(-3.33486e-05 8.44902e-06 -9.36877e-06)
(-4.97399e-05 1.81295e-05 -1.33292e-05)
(-2.19601e-05 3.91993e-06 -6.13496e-06)
(-3.55299e-05 8.82954e-06 -9.48472e-06)
(-4.74573e-05 1.8415e-05 -1.32511e-05)
(-2.09152e-05 3.95275e-06 -6.11243e-06)
(-1.55185e-05 -5.91633e-07 -3.60599e-06)
(-1.73546e-05 3.62978e-06 -5.80552e-06)
(-1.41225e-05 -3.90492e-07 -3.48893e-06)
(-1.92182e-05 3.46939e-06 -6.07561e-06)
(-2.034e-05 -1.16723e-05 -9.93469e-07)
(-2.16034e-05 -1.62482e-05 7.55014e-08)
(-2.00935e-05 -1.54108e-05 -9.65417e-08)
(-2.18548e-05 -1.22635e-05 -8.39081e-07)
(-1.5816e-05 -9.18879e-06 -1.21097e-06)
(-1.41058e-05 -1.0901e-05 -3.89174e-07)
(-1.43442e-05 -8.25866e-06 -1.19035e-06)
(-1.55744e-05 -1.21096e-05 -3.81727e-07)
(-1.98209e-05 -1.0334e-06 -3.6379e-06)
(-2.61767e-05 3.16916e-06 -6.24462e-06)
(-2.43346e-05 3.25103e-06 -6.29563e-06)
(-2.12729e-05 -9.93056e-07 -3.5747e-06)
(-2.52888e-05 9.0944e-06 -9.17356e-06)
(-1.45671e-05 4.21156e-06 -5.85232e-06)
(-3.33893e-05 1.92379e-05 -1.28388e-05)
(-2.36285e-05 9.84634e-06 -9.11067e-06)
(-1.56561e-05 4.28891e-06 -5.95912e-06)
(-3.56658e-05 1.92555e-05 -1.30138e-05)
(-3.31246e-05 8.36077e-06 -9.52858e-06)
(-2.17147e-05 4.20072e-06 -6.301e-06)
(-4.95542e-05 1.81084e-05 -1.35973e-05)
(-2.06518e-05 4.41967e-06 -6.28942e-06)
(-4.7163e-05 1.85156e-05 -1.35698e-05)
(-3.53623e-05 8.59638e-06 -9.62114e-06)
(-9.88613e-06 -5.31926e-07 -3.11768e-06)
(-1.44035e-05 3.77558e-06 -5.80969e-06)
(-8.93556e-06 -3.25171e-07 -3.05584e-06)
(-1.60749e-05 3.59721e-06 -6.00367e-06)
(-1.22777e-05 -1.16807e-05 3.07902e-07)
(-1.35225e-05 -1.62717e-05 1.39308e-06)
(-1.25132e-05 -1.54334e-05 1.55042e-06)
(-1.32827e-05 -1.22721e-05 1.42182e-07)
(-9.4459e-06 -9.19255e-06 5.71031e-07)
(-8.79765e-06 -1.09234e-05 1.72912e-06)
(-8.56594e-06 -8.2595e-06 5.68857e-07)
(-9.68014e-06 -1.2133e-05 1.75806e-06)
(-1.29271e-05 -9.87375e-07 -3.48013e-06)
(-2.22884e-05 3.21693e-06 -6.41427e-06)
(-2.05877e-05 3.33171e-06 -6.37893e-06)
(-1.39925e-05 -9.51998e-07 -3.62935e-06)
(-4.56833e-06 -6.14936e-06 1.39005e-06)
(-5.31795e-06 -6.95968e-06 1.53986e-06)
(-8.60377e-06 -1.13364e-05 2.06034e-06)
(-7.74677e-06 -1.009e-05 1.96085e-06)
(-2.14889e-05 -1.75461e-05 3.84647e-07)
(-1.99835e-05 -1.66278e-05 2.07788e-07)
(-1.40121e-05 -1.17402e-05 -1.1503e-07)
(-1.54759e-05 -1.30459e-05 -9.83096e-08)
(-1.36352e-05 -1.7572e-05 1.7788e-06)