/*--------------------------------*- C++ -*----------------------------------*\
| =========                 |                                                 |
| \\      /  F ield         | OpenFOAM: The Open Source CFD Toolbox           |
|  \\    /   O peration     | Version:  2012                                  |
|   \\  /    A nd           | Website:  www.openfoam.com                      |
|    \\/     M anipulation  |                                                 |
\*---------------------------------------------------------------------------*/
FoamFile
{
    version     2.0;
    format      ascii;
    class       surfaceScalarField;
    location    "0.107/fluid";
    object      phi;
}
// * * * * * * * * * * * * * * * * * * * * * * * * * * * * * * * * * * * * * //

dimensions      [0 3 -1 0 0 0 0];
oriented        oriented;


internalField   nonuniform List<scalar> 
46880
(
6.317e-08
0.00153004
-6.21646e-08
2.13551e-08
7.18734e-07
-0.00152833
0.00152783
-7.04535e-07
9.03836e-08
1.15664e-06
-0.0015265
0.0015261
-1.14617e-06
8.73973e-08
1.52169e-06
-0.001525
0.00152465
-1.51391e-06
1.08897e-07
1.84556e-06
-0.00152367
0.00152336
-1.84315e-06
1.32507e-07
2.05937e-06
-0.00152247
0.00152219
-2.07053e-06
1.614e-07
2.06197e-06
-0.00152137
0.00152111
-2.09282e-06
1.87189e-07
1.805e-06
-0.00152032
0.00152005
-1.857e-06
2.14566e-07
1.12633e-06
-0.0015193
0.00151905
-1.21417e-06
2.6122e-07
-2.28692e-07
-0.00151832
0.00151812
8.664e-08
3.40126e-07
-2.51494e-06
-0.00151768
0.00151757
2.25218e-06
4.38987e-07
-5.97383e-06
-0.00151727
0.00151715
5.55645e-06
6.82446e-07
-1.17024e-05
-0.00151643
0.0015159
1.114e-05
1.41268e-06
-2.66369e-05
-0.00151277
0.00151147
3.82991e-06
2.4504e-05
-9.96764e-05
-0.00152578
0.00156015
5.39276e-06
5.99547e-05
5.42848e-08
0.00152988
-5.06583e-08
2.23521e-08
6.22524e-07
-0.00152774
0.00152709
-5.76779e-07
9.0747e-08
1.02946e-06
-0.00152539
0.00152487
-9.54891e-07
8.44693e-08
1.37945e-06
-0.00152347
0.00152303
-1.28389e-06
1.05473e-07
1.69676e-06
-0.00152184
0.00152147
-1.59046e-06
1.30707e-07
1.92733e-06
-0.00152044
0.00152012
-1.81409e-06
1.52616e-07
2.01034e-06
-0.00151926
0.001519
-1.90378e-06
1.73244e-07
1.85835e-06
-0.00151832
0.00151813
-1.78344e-06
2.0144e-07
1.34573e-06
-0.00151768
0.00151759
-1.32896e-06
2.35211e-07
3.1121e-07
-0.00151748
0.00151752
-4.08442e-07
2.72547e-07
-1.39114e-06
-0.0015179
0.00151813
1.10692e-06
3.28389e-07
-3.9725e-06
-0.00151912
0.00151959
3.38815e-06
4.17815e-07
-8.0549e-06
-0.00152167
0.00152268
6.83717e-06
5.58149e-07
-1.44197e-05
-0.00152738
0.00152973
1.16085e-05
7.19314e-07
-1.75467e-05
-0.00154034
0.0015449
3.70656e-07
1.25988e-05
3.3389e-08
0.00152977
-2.86442e-08
2.32861e-08
3.891e-07
-0.00152733
0.00152659
-3.10256e-07
9.03708e-08
6.33835e-07
-0.00152462
0.00152402
-4.93605e-07
8.05968e-08
8.54656e-07
-0.00152239
0.00152189
-6.67856e-07
9.90605e-08
1.06666e-06
-0.00152054
0.00152013
-8.30807e-07
1.22402e-07
1.23637e-06
-0.00151901
0.00151868
-9.66518e-07
1.44866e-07
1.32852e-06
-0.00151779
0.00151755
-1.04992e-06
1.6511e-07
1.2822e-06
-0.00151694
0.00151681
-1.02568e-06
1.85833e-07
1.03778e-06
-0.00151658
0.00151658
-8.45058e-07
2.13743e-07
5.04788e-07
-0.00151684
0.00151702
-4.44676e-07
2.45162e-07
-3.88465e-07
-0.0015179
0.00151831
2.26763e-07
2.74363e-07
-1.69315e-06
-0.00152
0.00152072
1.20611e-06
2.99582e-07
-3.41065e-06
-0.00152354
0.00152472
2.43748e-06
3.09639e-07
-4.90869e-06
-0.00152909
0.00153077
3.41887e-06
2.57308e-07
-3.57374e-06
-0.00153584
0.00153728
2.36387e-06
1.28591e-07
1.7343e-08
6.83632e-08
0.00153004
-6.71687e-08
-2.07869e-08
-1.64668e-07
8.06874e-07
-0.00152851
0.00152804
-7.90651e-07
1.87576e-07
-2.55494e-07
1.32099e-06
-0.00152673
0.00152633
-1.30499e-06
3.05642e-07
-3.37651e-07
1.72831e-06
-0.00152526
0.00152494
-1.71331e-06
4.05906e-07
-4.30862e-07
2.05278e-06
-0.00152402
0.00152374
-2.04503e-06
5.19766e-07
-5.32602e-07
2.25909e-06
-0.00152295
0.00152271
-2.26406e-06
6.39665e-07
-6.24613e-07
2.26996e-06
-0.00152199
0.00152176
-2.29851e-06
7.56668e-07
-7.21649e-07
2.02279e-06
-0.00152106
0.00152083
-2.07915e-06
8.84092e-07
-8.43129e-07
1.37952e-06
-0.00152021
0.00152002
-1.47193e-06
1.02899e-06
-1.02204e-06
9.09166e-08
-0.00151961
0.00151954
-2.49849e-07
1.23228e-06
-1.23752e-06
-2.01876e-06
-0.00151945
0.00151948
1.75167e-06
1.49551e-06
-1.61509e-06
-5.08661e-06
-0.00151972
0.00151983
4.70165e-06
1.92831e-06
-2.40053e-06
-9.60977e-06
-0.00152017
0.00152025
9.2661e-06
2.7785e-06
-1.92804e-05
-3.84748e-06
-0.00152025
0.00152037
4.06135e-06
1.9055e-05
-6.63729e-05
-4.02568e-06
-0.00153125
0.0015523
3.64447e-06
4.54229e-05
1.90936e-08
5.71833e-08
0.00152989
-5.30577e-08
-2.34373e-08
-1.60523e-07
6.8735e-07
-0.00152794
0.00152734
-6.3223e-07
1.84989e-07
-2.44775e-07
1.1553e-06
-0.0015257
0.00152519
-1.0637e-06
2.95027e-07
-3.25056e-07
1.53974e-06
-0.00152382
0.0015234
-1.42612e-06
3.91556e-07
-4.13853e-07
1.8652e-06
-0.00152226
0.00152192
-1.73727e-06
4.94171e-07
-4.99329e-07
2.10057e-06
-0.00152098
0.00152069
-1.96974e-06
6.02707e-07
-5.83952e-07
2.18954e-06
-0.00151989
0.00151966
-2.07277e-06
7.07069e-07
-6.60559e-07
2.06368e-06
-0.00151906
0.0015189
-1.97514e-06
8.03613e-07
-7.59487e-07
1.59443e-06
-0.00151858
0.00151853
-1.55884e-06
9.21301e-07
-8.61412e-07
6.37753e-07
-0.00151861
0.00151871
-7.08996e-07
1.04537e-06
-9.66261e-07
-9.29144e-07
-0.00151929
0.00151958
6.89334e-07
1.17989e-06
-1.12162e-06
-3.26887e-06
-0.00152079
0.00152134
2.75814e-06
1.36148e-06
-1.34301e-06
-6.84624e-06
-0.00152356
0.00152457
5.81798e-06
1.60726e-06
-1.52483e-06
-1.22001e-05
-0.00152904
0.00153115
9.95988e-06
1.79688e-06
-1.49712e-05
-1.21661e-06
-0.00154024
0.00154408
1.47664e-06
1.07877e-05
1.80774e-08
3.40391e-08
0.0015298
-2.92582e-08
-2.22331e-08
-1.54237e-07
4.18896e-07
-0.00152758
0.0015269
-3.3241e-07
1.7747e-07
-2.31726e-07
6.98124e-07
-0.00152499
0.0015244
-5.42754e-07
2.80321e-07
-3.00839e-07
9.44469e-07
-0.0015228
0.00152232
-7.3665e-07
3.64419e-07
-3.82076e-07
1.16227e-06
-0.00152102
0.00152063
-9.05887e-07
4.66258e-07
-4.64053e-07
1.33982e-06
-0.0015196
0.00151929
-1.04884e-06
5.68669e-07
-5.46952e-07
1.44329e-06
-0.00151849
0.00151827
-1.13524e-06
6.5976e-07
-6.13944e-07
1.41669e-06
-0.00151775
0.00151763
-1.12511e-06
7.50905e-07
-7.01975e-07
1.1926e-06
-0.0015175
0.00151754
-9.64219e-07
8.55484e-07
-7.87199e-07
6.97706e-07
-0.00151792
0.00151814
-5.95003e-07
9.56346e-07
-8.5453e-07
-1.33632e-07
-0.00151915
0.0015196
3.26123e-08
1.04379e-06
-9.26377e-07
-1.32747e-06
-0.00152134
0.00152207
9.25841e-07
1.12891e-06
-9.82763e-07
-2.87114e-06
-0.00152481
0.00152592
2.03883e-06
1.19521e-06
-9.70702e-07
-4.1851e-06
-0.00152995
0.00153145
2.90434e-06
1.17465e-06
-8.0243e-07
-2.9017e-06
-0.00153584
0.00153708
1.86057e-06
9.8292e-07
3.53629e-08
8.77035e-08
0.00153
-8.48937e-08
-3.8221e-08
-2.57748e-07
1.03823e-06
-0.0015283
0.00152778
-1.01185e-06
2.75653e-07
-4.26222e-07
1.72908e-06
-0.00152637
0.00152595
-1.69746e-06
4.58853e-07
-5.73676e-07
2.23861e-06
-0.00152481
0.00152447
-2.2032e-06
6.16015e-07
-7.31093e-07
2.59027e-06
-0.00152357
0.0015233
-2.56392e-06
7.82725e-07
-9.06937e-07
2.8035e-06
-0.00152257
0.00152234
-2.7928e-06
9.74558e-07
-1.0791e-06
2.8115e-06
-0.00152171
0.0015215
-2.82928e-06
1.1627e-06
-1.27238e-06
2.56206e-06
-0.00152093
0.00152075
-2.61071e-06
1.37059e-06
-1.49069e-06
1.97772e-06
-0.00152028
0.00152015
-2.06435e-06
1.60654e-06
-1.76878e-06
8.89155e-07
-0.00151989
0.00151985
-1.03166e-06
1.908e-06
-2.12834e-06
-8.35518e-07
-0.00151988
0.00151992
5.9978e-07
2.28709e-06
-2.6308e-06
-3.25501e-06
-0.00152007
0.00152011
2.93536e-06
2.79919e-06
-3.38343e-06
-6.50656e-06
-0.00151989
0.00151965
6.32421e-06
3.56306e-06
-1.34486e-05
-4.19958e-06
-0.00151785
0.00151689
4.55944e-06
1.37464e-05
-5.8747e-05
-3.54347e-06
-0.00152231
0.00154111
4.47746e-06
3.85757e-05
3.86338e-08
6.87326e-08
0.00152988
-6.23897e-08
-4.17955e-08
-2.50916e-07
8.54052e-07
-0.00152785
0.00152723
-7.76896e-07
2.69598e-07
-4.22174e-07
1.46024e-06
-0.00152549
0.00152496
-1.33971e-06
4.52917e-07
-5.54152e-07
1.93148e-06
-0.00152351
0.00152308
-1.78419e-06
5.9791e-07
-7.09129e-07
2.28779e-06
-0.00152194
0.00152161
-2.12319e-06
7.60508e-07
-8.67849e-07
2.53557e-06
-0.0015207
0.00152043
-2.37006e-06
9.33557e-07
-1.01717e-06
2.65008e-06
-0.00151968
0.00151947
-2.50267e-06
1.09629e-06
-1.16414e-06
2.54094e-06
-0.00151892
0.00151879
-2.42645e-06
1.25866e-06
-1.34137e-06
2.13074e-06
-0.00151856
0.00151855
-2.06681e-06
1.44961e-06
-1.52349e-06
1.3286e-06
-0.00151872
0.00151887
-1.35611e-06
1.64618e-06
-1.73059e-06
3.6439e-08
-0.00151953
0.00151982
-1.95905e-07
1.87645e-06
-1.97338e-06
-1.82119e-06
-0.00152089
0.00152132
1.45196e-06
2.13608e-06
-2.22329e-06
-4.54321e-06
-0.0015229
0.00152357
3.78019e-06
2.40072e-06
-2.36675e-06
-8.63319e-06
-0.00152656
0.00152803
6.94313e-06
2.57853e-06
-1.09708e-05
-2.02979e-06
-0.001535
0.00153823
2.33512e-06
7.4121e-06
3.68729e-08
3.93354e-08
0.00152982
-3.35869e-08
-3.899e-08
-2.4017e-07
5.05489e-07
-0.0015276
0.0015269
-3.99318e-07
2.58034e-07
-4.0299e-07
8.71965e-07
-0.0015249
0.00152428
-6.77702e-07
4.3539e-07
-5.29311e-07
1.1765e-06
-0.0015226
0.0015221
-9.16538e-07
5.72271e-07
-6.65059e-07
1.41088e-06
-0.00152079
0.00152041
-1.1013e-06
7.18954e-07
-8.19361e-07
1.60408e-06
-0.0015194
0.00151911
-1.26255e-06
8.86039e-07
-9.59938e-07
1.7363e-06
-0.00151835
0.00151814
-1.36659e-06
1.03943e-06
-1.09584e-06
1.73282e-06
-0.00151767
0.00151758
-1.37013e-06
1.18542e-06
-1.24725e-06
1.55451e-06
-0.00151753
0.00151759
-1.25013e-06
1.34745e-06
-1.39755e-06
1.14299e-06
-0.00151805
0.00151829
-9.46656e-07
1.51628e-06
-1.53936e-06
4.41445e-07
-0.00151931
0.00151974
-4.16783e-07
1.67451e-06
-1.67308e-06
-5.19613e-07
-0.00152133
0.00152196
3.06001e-07
1.81985e-06
-1.7577e-06
-1.69604e-06
-0.00152421
0.0015251
1.14942e-06
1.91429e-06
-1.71859e-06
-2.60498e-06
-0.00152824
0.0015294
1.73652e-06
1.87502e-06
-1.45858e-06
-1.29636e-06
-0.00153281
0.00153378
6.63671e-07
1.60758e-06
-0.00148265
-0.000109143
0.00147435
1.78846e-05
-2.58408e-05
2.55881e-05
-0.000296037
-4.63954e-06
7.10279e-06
-0.00151323
6.55524e-05
-9.61571e-06
-6.79719e-05
0.00151799
5.12031e-07
-7.69811e-06
-5.79636e-07
8.95378e-06
-0.000422768
-0.00151124
-6.98823e-05
0.0015162
5.38937e-06
-7.45904e-06
8.54829e-06
-0.000422662
4.43988e-07
3.85226e-06
-0.00150473
5.97948e-05
-3.77427e-06
-6.24702e-05
0.00150689
-1.4702e-07
-8.0119e-06
5.21228e-08
8.89455e-06
-0.000418836
-0.00150177
-6.19856e-05
0.00150344
4.96692e-06
-8.08015e-06
8.94707e-06
-0.000418175
-2.15327e-07
-0.00150502
-2.66498e-05
0.00149957
5.91539e-06
6.73591e-05
-7.84573e-05
1.41255e-05
-0.00148543
5.01881e-06
-0.00151795
1.9238e-05
-5.33193e-06
-1.74008e-05
0.00151666
7.0576e-06
4.4475e-05
-8.91111e-06
-4.27449e-05
-0.00151311
1.16029e-05
-0.000244932
-3.31243e-06
3.54474e-05
0.000201229
3.25246e-05
3.87599e-05
0.000381782
0.000359669
0.000373693
0.000366517
-0.00148287
-2.7078e-05
-2.74821e-05
-2.76947e-05
-2.33443e-05
1.91522e-05
1.38818e-06
-8.14582e-06
-0.00164534
-9.01007e-06
-2.7068e-06
-0.00154438
-2.68534e-05
0.00155269
9.41899e-07
4.77038e-08
-1.63764e-06
-0.00156701
7.02947e-09
-0.00153316
-4.99443e-06
0.00155453
4.49609e-05
-6.70908e-07
7.69216e-06
-4.1569e-07
-5.5404e-07
1.07177e-06
-0.00163758
6.30799e-06
1.75378e-06
-0.00154628
1.51847e-05
-1.8152e-06
-2.27378e-05
0.00155376
1.00137e-06
1.52838e-07
-1.22193e-06
-2.23816e-06
-0.0015672
-0.00151669
-1.76217e-05
0.00151509
5.09457e-06
4.51967e-05
-4.41878e-05
5.86989e-06
-0.00151115
4.85176e-06
-0.00151576
1.47484e-05
-4.83816e-06
-1.27495e-05
0.00151355
4.61554e-06
3.86913e-05
-4.57008e-06
-3.68046e-05
-0.00150695
8.61682e-06
-1.25069e-05
1.16622e-05
0.000353239
0.000351361
0.000353576
0.000350979
-0.00146205
4.28164e-06
5.39464e-06
0.000352625
0.000349312
0.000349955
0.000351821
-0.00146113
-8.67311e-07
7.46722e-06
-8.41049e-07
-0.00163404
7.94503e-07
6.54961e-06
-0.00154512
-2.26386e-05
0.00155244
1.92573e-06
2.8723e-07
-2.35608e-06
-0.00156548
1.11995e-06
-0.00152476
-3.26202e-06
0.00154392
3.99229e-05
1.80867e-06
7.84669e-06
-1.86708e-07
-3.48563e-07
-1.69705e-06
-0.00162452
4.38143e-06
2.09143e-06
-0.00154068
1.20624e-05
-1.98468e-06
-1.89433e-05
0.00154728
4.56556e-07
-1.79163e-06
-6.70014e-07
-5.0823e-08
-0.00155956
-0.0015148
-1.15373e-05
0.00151219
5.24502e-06
3.746e-05
-3.60127e-05
5.60521e-06
-0.00150456
5.96413e-06
-4.52317e-06
3.69408e-06
0.000348813
0.000347011
0.00034908
0.000346661
-0.0014504
7.21673e-07
8.59254e-06
0.000348183
0.000345572
0.000346013
0.0003478
-0.00144826
-1.66003e-07
8.28554e-06
2.28462e-08
-0.00162125
2.06191e-06
3.58019e-06
-0.00153888
-1.76549e-05
0.00154516
2.35777e-06
-2.47034e-06
6.94515e-07
-0.00155695
2.98059e-07
3.142e-05
0.000404871
0.000244891
0.00039364
0.000263166
-1.89123e-05
-7.22623e-06
-1.40198e-05
-0.00139512
1.7579e-05
0.000302141
-5.14039e-05
-4.66529e-05
-6.26854e-05
-3.64256e-05
0.000465987
0.000300075
0.000461167
0.000124559
-8.3144e-05
0.00154602
1.33504e-05
7.31407e-05
-0.00153146
2.2273e-05
0.000360525
0.000364209
0.000363068
0.000364293
-0.00149348
0.000415871
1.71686e-05
-4.58664e-05
-6.13894e-05
-6.38737e-05
-4.28773e-05
0.000412543
0.000412692
0.000410437
0.000108764
1.6816e-05
0.000287759
1.35785e-05
-1.60319e-05
7.87645e-07
-9.21477e-06
1.34863e-06
9.89069e-06
-0.000429761
3.45686e-06
2.39944e-05
-3.55424e-05
-6.06004e-07
0.000424542
-2.41574e-05
7.92766e-06
0.000355592
0.000351724
0.000354687
0.000352368
-0.00146528
2.02777e-05
0.000355606
0.000356869
0.000360051
0.000352944
-0.00146802
-7.88546e-05
0.00152064
-0.0015128
7.46631e-05
-1.23846e-05
8.63425e-06
0.000352216
0.000350796
0.000351548
0.000351645
-0.00146249
-9.73884e-06
0.000404751
6.41416e-06
-3.85625e-05
-5.635e-05
-5.67592e-05
-3.82032e-05
0.000405167
0.000400185
0.00040061
0.000100115
0.000353453
0.000353963
0.000354241
0.000352488
-0.00146278
0.000407051
-4.02541e-05
-5.91778e-05
-4.12174e-05
-5.85613e-05
0.000403355
0.000405958
0.000401886
0.000108786
-7.33621e-06
4.70688e-07
8.87014e-06
-0.000426558
1.24511e-06
2.34529e-05
0.000414964
-1.71634e-06
-3.32364e-05
2.57241e-05
-3.53917e-05
0.000418044
2.10016e-06
5.90441e-06
0.000351556
0.000350863
0.000350557
0.000351653
-0.00146016
4.32197e-06
0.000404497
-3.8638e-05
-5.69724e-05
-3.88434e-05
-5.67355e-05
0.000399926
0.000404203
0.000399586
0.000100806
-6.45441e-05
0.00151311
4.1004e-06
6.22537e-05
-0.00150987
4.42235e-06
0.000350535
0.000349114
0.000349616
0.000350069
-0.0014582
0.000402975
3.03931e-06
-3.76728e-05
-5.56266e-05
-5.57825e-05
-3.75222e-05
0.000398214
0.000403376
0.000398608
9.72846e-05
2.37521e-05
0.000414774
-3.37357e-05
9.06447e-07
1.47554e-07
-7.63963e-06
-3.14741e-07
8.70601e-06
-0.00042086
5.48574e-07
2.3095e-05
-3.29415e-05
-7.57424e-07
0.000412979
-4.67643e-06
2.94463e-06
0.000350255
0.000347356
0.000349642
0.0003479
-0.00145437
7.46055e-06
0.000350872
0.000349037
0.00035114
0.000348702
-0.00145625
-6.57325e-05
0.00151032
-0.00150696
6.2315e-05
-3.98285e-06
4.12547e-06
0.000348862
0.000347455
0.000347901
0.000348455
-0.00145253
-2.53862e-06
0.000401145
2.55744e-06
-3.72142e-05
-5.5048e-05
-5.52265e-05
-3.70503e-05
0.000401558
0.000396292
0.000396728
9.50685e-05
0.000349628
0.00034896
0.000349866
0.000348619
-0.00145505
0.000402646
-3.77808e-05
-5.59538e-05
-3.79147e-05
-5.57742e-05
0.000397899
0.000402323
0.000397547
9.72297e-05
-7.70598e-06
9.41717e-08
8.70041e-06
-0.000420518
3.97674e-07
2.26971e-05
0.000410968
-4.15766e-07
-3.25532e-05
2.31037e-05
-3.30661e-05
0.000412705
4.00737e-07
5.54449e-06
0.000347715
0.000347067
0.000346691
0.00034799
-0.00144943
3.51323e-06
0.000400535
-3.6899e-05
-5.50316e-05
-3.70792e-05
-5.47997e-05
0.000395696
0.000400161
0.000395267
9.40055e-05
-5.93132e-05
0.0014998
6.97576e-06
5.63867e-05
-0.00149937
8.1715e-06
0.000346997
0.000345664
0.000346071
0.000346707
-0.001447
0.000398895
5.60125e-06
-3.64762e-05
-5.41151e-05
-5.43819e-05
-3.62455e-05
0.000393915
0.000399294
0.000394393
9.18133e-05
2.26166e-05
0.00041039
-3.25059e-05
3.8439e-07
-3.05307e-07
-8.58508e-06
2.89523e-07
9.21929e-06
-0.000416212
9.03436e-07
2.20815e-05
-3.18988e-05
-6.59045e-07
0.000408426
-3.70157e-07
0.000347108
0.000345099
0.000347132
0.000344843
-0.00144618
-5.70183e-05
0.00149652
-0.0014974
5.37145e-05
0.000345969
0.000345127
0.000346021
0.000344835
-0.00144518
0.000397955
-3.56423e-05
-5.37786e-05
-3.59297e-05
-5.34282e-05
0.000392981
0.000397635
0.000392523
8.91967e-05
-8.66249e-06
-3.07515e-07
9.24119e-06
-0.000415173
2.18384e-05
-3.16948e-05
0.000407489
1.1891e-06
0.000401043
-2.80079e-05
1.45688e-05
-3.02284e-05
-1.15737e-05
-0.00037498
0.000104265
6.86151e-06
-1.34772e-05
-3.42666e-05
-3.4103e-05
-1.37302e-05
0.000105724
0.00010669
0.000107521
-8.4759e-06
3.08739e-05
8.5401e-06
7.77329e-06
8.83476e-05
7.23042e-05
7.29838e-05
8.72979e-05
-1.25468e-05
-3.39883e-05
-1.18078e-05
-3.32569e-05
-5.02719e-06
-5.42263e-06
0.000112153
0.000116405
0.000112596
-1.41369e-05
1.10652e-05
9.21134e-05
7.73871e-05
9.48913e-05
7.58514e-05
9.08221e-06
-1.99824e-05
-0.000403383
9.76874e-05
0.000109711
-1.11135e-05
-1.01228e-05
-4.53323e-07
-2.89144e-05
2.05449e-05
7.02256e-06
1.80295e-06
2.54548e-05
9.1807e-05
8.40648e-05
0.000101302
7.69014e-05
-0.000388103
-7.13993e-06
-6.23593e-06
-7.24692e-06
-4.96186e-06
0.000355438
-3.89072e-05
1.6142e-06
-2.30357e-06
-1.11479e-06
-0.000355021
3.96754e-08
-1.4799e-05
-3.40451e-05
-3.40991e-05
-1.47257e-05
0.000100843
0.00010081
-1.4398e-06
3.91019e-05
3.21291e-07
8.57186e-07
8.45683e-05
7.06771e-05
7.02983e-05
8.49401e-05
-2.1285e-06
-1.47948e-05
-3.40765e-05
-1.46839e-05
-3.41141e-05
0.000101045
0.000100854
-1.73661e-06
5.03623e-07
8.46025e-05
7.08076e-05
8.51212e-05
7.03161e-05
5.98135e-07
-1.98621e-06
0.000356511
-3.69258e-05
-0.000357304
1.42789e-06
-1.16208e-06
-1.4172e-05
-3.37614e-05
-1.41914e-05
-3.37097e-05
0.000101778
0.000101588
3.69041e-05
1.8181e-06
-2.3731e-06
2.12268e-06
8.5187e-05
7.12436e-05
8.56637e-05
7.07962e-05
-2.18086e-06
-1.41691e-05
-3.36496e-05
-1.41903e-05
-3.36816e-05
0.000101306
0.000101387
2.01714e-06
8.50628e-05
7.10112e-05
8.53493e-05
7.07021e-05
0.000350673
-3.89146e-05
1.46816e-06
-1.2427e-06
-1.15638e-06
-0.000350287
1.33105e-06
-1.46914e-05
-3.37395e-05
-3.376e-05
-1.46754e-05
9.94442e-05
9.94417e-05
-1.44929e-06
3.90783e-05
-5.47855e-07
1.82653e-06
8.35139e-05
6.98239e-05
6.94642e-05
8.38745e-05
-1.04418e-06
-1.46879e-05
-3.37311e-05
-1.4611e-05
-3.37652e-05
9.96495e-05
9.94952e-05
-1.13036e-06
-2.74915e-07
8.35681e-05
6.99582e-05
8.40346e-05
6.95044e-05
1.7025e-06
-7.6768e-07
0.000351378
-3.83295e-05
-0.00035192
5.5599e-07
-2.17944e-07
-1.44869e-05
-3.3644e-05
-1.44491e-05
-3.3655e-05
0.000100028
9.98843e-05
3.8245e-05
7.98945e-07
-7.42122e-07
4.75411e-07
8.38954e-05
7.02226e-05
8.43482e-05
6.97801e-05
-5.85625e-07
-1.45002e-05
-3.36404e-05
-1.44972e-05
-3.36561e-05
9.97758e-05
9.97848e-05
2.77398e-07
8.38117e-05
7.00603e-05
8.41517e-05
6.97155e-05
8.2701e-07
-2.81244e-05
-1.58501e-06
0.000116238
-1.01576e-05
-2.43972e-06
-4.92681e-06
3.09521e-06
3.7489e-06
-0.000133772
7.07506e-06
-6.59475e-06
-5.21915e-05
0.000367719
3.33424e-06
-4.23117e-06
-5.87627e-06
4.87723e-05
6.67797e-06
8.81866e-05
7.33931e-05
7.30515e-05
8.85165e-05
-2.90354e-06
-0.000368473
0.000101834
4.47682e-06
-1.70959e-05
-3.65661e-05
-3.72389e-05
-1.6675e-05
0.000104309
0.00010236
0.000104545
-6.1876e-06
8.66212e-05
7.42638e-05
7.18845e-05
8.94496e-05
-2.59903e-06
0.000103764
-1.72793e-05
-3.85262e-05
-1.7436e-05
-3.80121e-05
0.000101275
0.00010623
0.000103487
5.02014e-06
-6.2636e-05
0.000426401
-1.45492e-05
1.57616e-05
3.27458e-05
7.12805e-05
3.22957e-05
5.02673e-05
4.3846e-05
-9.94016e-07
-8.5922e-07
9.6517e-08
4.0374e-06
-0.000244931
5.26768e-05
-1.46933e-05
-3.01832e-05
-3.17146e-05
-1.65578e-05
6.14082e-05
8.449e-05
8.87889e-05
9.6786e-05
8.66199e-05
7.90338e-05
0.000103562
0.00012131
-1.70399e-05
-3.81202e-05
-1.79379e-05
-3.64036e-05
0.000121782
0.000115344
0.000116186
0.000128332
1.38321e-06
5.43879e-06
-7.46111e-06
-0.000127226
-4.69938e-07
1.0998e-06
1.72407e-05
-2.87865e-05
-1.30464e-06
0.000113579
2.96887e-07
1.76464e-05
0.000116142
-2.4149e-07
-3.00842e-05
0.000126748
3.71989e-07
5.84487e-06
-2.73799e-07
-7.36161e-06
-0.000125333
-1.51551e-06
-0.000143896
4.64262e-06
-7.59152e-06
0.000146004
2.35418e-06
-8.84509e-06
1.13856e-05
-1.0702e-06
-8.67633e-05
-1.80507e-06
-2.43542e-06
-0.000149187
2.48509e-06
1.05999e-06
-8.2387e-05
-2.42267e-06
-1.60878e-06
8.52119e-05
1.20407e-06
1.32281e-06
-3.74596e-06
-5.87684e-07
0.000129825
-4.147e-07
-5.1438e-06
5.54477e-06
-0.000129952
8.11403e-07
2.00187e-07
2.04411e-06
-3.64014e-08
-3.96579e-06
0.000128504
-6.23697e-06
-0.000131012
6.55742e-06
-1.41291e-06
8.03696e-06
-1.00911e-05
-0.000142591
2.12821e-06
7.83921e-06
-1.82184e-05
1.74174e-06
6.13098e-05
1.81609e-05
0.000131828
-2.86951e-05
3.08152e-07
6.79153e-07
-1.63594e-06
-2.79276e-06
-7.86414e-05
-9.14235e-06
0.000361169
-3.62954e-05
7.38464e-06
-0.000364286
7.34307e-06
0.000102089
-1.43506e-05
-3.44332e-05
-1.4264e-05
-3.42973e-05
0.000104058
0.000101314
0.000103495
3.56739e-05
7.62028e-06
3.53603e-06
8.65004e-05
7.2295e-05
8.72535e-05
7.17439e-05
6.64691e-06
0.000100729
-1.41011e-05
-3.38929e-05
-1.41213e-05
-3.39651e-05
0.00010122
0.000102927
0.000103173
5.77117e-06
3.25933e-06
8.60917e-05
7.15744e-05
8.62083e-05
7.13546e-05
4.55081e-06
0.000359851
-3.86114e-05
-0.00035873
-3.70542e-06
-1.49353e-05
-3.4398e-05
-1.48536e-05
-3.44786e-05
0.000102069
0.00010212
3.9098e-05
-3.88292e-06
8.11899e-07
8.54141e-05
7.12647e-05
8.57352e-05
7.09108e-05
0.000100539
-1.4856e-05
-3.4382e-05
-1.4695e-05
-3.44369e-05
0.000102623
0.000100311
0.000102346
1.41159e-06
8.55567e-05
7.15165e-05
8.61295e-05
7.10235e-05
-2.67454e-05
0.000113831
1.16843e-06
1.64701e-06
0.000112453
-1.65257e-06
-2.64896e-05
-1.71082e-06
4.3377e-06
1.31609e-06
1.44534e-07
-3.56155e-07
4.58602e-06
7.13264e-06
-0.000129904
-3.34603e-06
7.92443e-07
5.5908e-06
0.00011224
-2.73712e-05
1.17651e-06
-2.76343e-06
-4.38049e-05
0.000357284
2.44831e-06
4.48348e-05
4.3451e-06
8.56466e-05
7.17789e-05
8.66552e-05
7.0888e-05
-0.000360079
2.7195e-06
0.00010032
-1.55948e-05
-3.56865e-05
-1.56952e-05
-3.55646e-05
0.000102762
9.99291e-05
0.000102145
3.70179e-06
8.53413e-05
7.09486e-05
7.0643e-05
8.56289e-05
2.07133e-06
9.90798e-05
-1.56776e-05
-3.54618e-05
-1.55762e-05
-3.55864e-05
9.93971e-05
0.000101496
0.000101657
-4.21491e-05
0.000355832
2.37623e-06
-3.09264e-06
4.15427e-05
2.07399e-06
8.48816e-05
7.0653e-05
7.0244e-05
8.52824e-05
-1.79882e-06
-0.000355622
9.86617e-05
1.3816e-06
-1.5032e-05
-3.4884e-05
-3.48935e-05
-1.50147e-05
0.00010104
9.87658e-05
0.000100997
8.49112e-05
7.07771e-05
7.02833e-05
8.54211e-05
9.87923e-05
-1.51598e-05
-3.51102e-05
-1.52091e-05
-3.50246e-05
0.000101202
9.87844e-05
0.000101021
1.69778e-06
0.000124189
1.77414e-07
5.5508e-06
-2.66043e-07
-7.0794e-06
-0.000122575
1.67099e-05
-2.81332e-05
0.000112194
6.44107e-07
0.000125621
5.25887e-06
4.41675e-07
-6.87495e-06
-0.000124078
4.23529e-07
1.65087e-05
0.000110681
-5.97015e-07
-2.79418e-05
-1.03898e-07
-0.000123743
1.65733e-06
-3.60366e-06
0.000125653
1.37577e-07
2.58207e-08
-4.8197e-06
5.19712e-06
5.25708e-08
-0.00012725
8.49983e-08
-4.85877e-06
-0.00012751
-6.6622e-09
5.25847e-06
-0.00012346
1.56755e-07
1.56885e-06
-8.23164e-08
0.000125366
-3.55149e-06
2.01041e-06
-1.73426e-07
-3.85919e-06
0.000126105
-5.13925e-06
5.44921e-06
-0.000129268
-1.52437e-07
1.55211e-06
3.40882e-07
-3.58555e-06
0.000127512
-4.67588e-06
-0.000127991
1.13304e-07
5.139e-06
5.19657e-06
-6.81062e-06
-0.000122145
1.89445e-07
2.69228e-07
1.59944e-05
-2.73619e-05
-3.78058e-07
0.000110132
1.62056e-05
0.000110335
-2.76179e-05
2.88554e-07
1.96645e-07
5.05426e-06
-1.39392e-07
-6.70259e-06
-0.000121872
5.56113e-06
-1.1867e-06
2.30611e-07
2.21648e-07
5.444e-06
4.71307e-06
6.10159e-07
4.72714e-06
4.39561e-08
-4.0929e-05
0.000353861
1.03107e-06
-1.15631e-06
-1.22501e-06
4.07299e-05
7.98148e-07
8.43645e-05
7.01879e-05
6.97956e-05
8.47609e-05
-7.35342e-07
-0.000353516
9.80493e-05
5.38323e-07
-1.48636e-05
-3.45994e-05
-3.46009e-05
-1.48492e-05
0.000100391
9.8156e-05
0.000100348
-1.45379e-06
8.43904e-05
7.02982e-05
6.98148e-05
8.48889e-05
-9.01412e-07
9.81951e-05
-1.48953e-05
-3.46904e-05
-1.4905e-05
-3.46402e-05
0.000100545
9.81947e-05
0.00010038
7.4019e-07
-4.21387e-05
-1.21758e-06
0.000355071
1.51169e-06
4.24123e-05
8.48532e-05
7.06949e-05
7.02288e-05
8.5332e-05
-0.000355652
1.05184e-06
9.86984e-05
-1.52594e-05
-3.50297e-05
-1.51888e-05
-3.50462e-05
0.000101085
9.87436e-05
0.000100951
8.47431e-05
7.04968e-05
7.01323e-05
8.50984e-05
9.84393e-05
-1.52115e-05
-3.49093e-05
-1.51292e-05
-3.49878e-05
0.00010079
9.86211e-05
0.00010082
-1.3397e-07
0.000122937
5.1083e-06
-6.7339e-06
-0.000121323
1.41812e-07
9.54058e-08
1.58719e-05
-2.7171e-05
-1.83185e-07
0.00010943
-2.03728e-07
1.59484e-05
0.000109602
-2.72557e-05
9.83679e-08
0.000122747
7.01511e-08
5.05246e-06
-4.02198e-08
-6.70152e-06
-0.000121131
-0.000123193
1.21989e-07
1.75759e-06
-1.03648e-07
-3.69084e-06
0.000125106
-4.71728e-06
5.09135e-06
-0.000127374
1.1733e-07
-0.000123561
1.75059e-06
2.07898e-07
0.000125471
-3.71373e-06
9.56034e-08
-4.68049e-06
-0.000127046
-5.73417e-08
5.09835e-06
5.21927e-06
-1.28994e-07
-6.83025e-06
-0.000121591
1.61397e-05
-2.75243e-05
0.000110183
1.64119e-07
5.23164e-06
2.24485e-07
-6.86632e-06
-0.000121958
1.60829e-05
0.00010986
-2.74257e-05
-2.87637e-07
1.66738e-06
-3.61192e-06
1.38384e-07
0.000124863
1.7618e-08
-4.72018e-06
5.13053e-06
-0.000126666
1.84069e-08
5.45031e-08
1.62558e-06
-1.51894e-08
-3.59429e-06
0.000124674
-4.70827e-06
-0.000126835
5.12598e-06
1.18356e-07
-6.36793e-07
0.000353654
-3.75964e-05
1.09438e-06
-0.000354311
3.93944e-07
-1.43086e-05
-3.36488e-05
-1.4305e-05
-3.36349e-05
0.000100747
0.000100601
3.75795e-05
6.56578e-07
1.34084e-06
8.44713e-05
7.06897e-05
8.49258e-05
7.02412e-05
9.84548e-07
-1.43209e-05
-3.36086e-05
-1.43246e-05
-3.36296e-05
0.000100432
0.000100459
8.36969e-07
1.22355e-06
8.43686e-05
7.04952e-05
8.46896e-05
7.0164e-05
9.52061e-07
0.000352857
-3.87597e-05
-0.000352497
-6.31083e-07
-1.4685e-05
-3.38317e-05
-1.4644e-05
-3.38633e-05
0.000100104
0.000100072
3.89301e-05
-8.78035e-07
9.2286e-08
8.40114e-05
7.02334e-05
8.43795e-05
6.98625e-05
-1.46817e-05
-3.38392e-05
-1.45956e-05
-3.38727e-05
0.000100264
0.000100105
2.98049e-07
8.40445e-05
7.03548e-05
8.45308e-05
6.9883e-05
-6.22545e-07
-4.12e-05
0.000352904
7.12267e-07
4.13845e-05
6.73307e-07
8.43017e-05
7.02056e-05
8.47737e-05
6.97326e-05
-0.000353393
4.8012e-07
9.80481e-05
-1.50199e-05
-3.46976e-05
-1.49664e-05
-3.46995e-05
0.000100402
9.80941e-05
0.000100274
7.91915e-07
8.42173e-05
7.0032e-05
6.96626e-05
8.45873e-05
4.92054e-07
9.78457e-05
-1.498e-05
-3.45896e-05
-1.49104e-05
-3.46519e-05
9.80007e-05
0.000100171
0.000100175
-4.04524e-05
0.000352045
7.0472e-07
-7.78129e-07
4.02381e-05
6.99925e-07
8.39086e-05
6.9769e-05
6.93888e-05
8.42945e-05
-4.58272e-07
-0.000351607
9.74955e-05
4.45549e-07
-1.47485e-05
-3.43533e-05
-3.43816e-05
-1.47128e-05
9.98076e-05
9.76216e-05
9.97867e-05
8.39576e-05
6.99044e-05
6.94235e-05
8.44455e-05
9.76776e-05
-1.478e-05
-3.44593e-05
-1.4779e-05
-3.44183e-05
0.000100006
9.76902e-05
9.98516e-05
6.8539e-07
0.000122514
5.47345e-08
5.10434e-06
-2.91234e-08
-6.75583e-06
-0.000120891
1.59392e-05
-2.72617e-05
0.000109443
1.7938e-08
0.000122769
5.12353e-06
1.00836e-07
-6.77258e-06
-0.000121154
1.09277e-07
1.59043e-05
0.000109199
-1.72727e-07
-2.72008e-05
-4.34349e-08
-0.000122358
1.65558e-06
-3.62314e-06
0.000124296
7.0508e-08
-3.43733e-08
-4.74057e-06
5.17431e-06
7.3269e-08
-0.000126157
-1.5482e-08
-4.71754e-06
-0.000126338
4.39861e-08
5.15968e-06
-0.000122139
1.38388e-08
1.62677e-06
3.21581e-08
0.000124084
-3.62036e-06
1.67735e-06
-8.04814e-09
-3.64476e-06
0.000124444
-4.70662e-06
5.12455e-06
-0.000126673
6.75209e-08
1.69007e-06
9.83206e-08
-3.65557e-06
0.000124688
-4.71272e-06
-0.000126465
2.36935e-08
5.14247e-06
5.07028e-06
-6.72531e-06
-0.000120724
7.27061e-08
8.02223e-08
1.57806e-05
-2.70466e-05
-1.42534e-07
0.000108818
1.58394e-05
0.000109034
-2.71117e-05
1.97253e-08
2.8362e-08
5.03066e-06
7.57434e-09
-6.71268e-06
-0.000120495
-3.96553e-05
0.000349865
1.27322e-06
-1.02678e-06
-1.352e-06
3.93364e-05
1.73594e-06
8.33774e-05
6.93011e-05
6.89276e-05
8.37575e-05
-9.62439e-07
-0.000349359
9.6803e-05
1.30504e-06
-1.45227e-05
-3.40016e-05
-3.40556e-05
-1.44716e-05
9.9069e-05
9.69456e-05
9.90794e-05
-1.08436e-06
8.34552e-05
6.94609e-05
6.89841e-05
8.394e-05
-7.34251e-07
9.70337e-05
-1.4577e-05
-3.41521e-05
-1.45718e-05
-3.41101e-05
9.93396e-05
9.70498e-05
9.91793e-05
1.65531e-06
-4.01529e-05
-7.62257e-07
0.000350649
7.93884e-07
4.04012e-05
8.37699e-05
6.9738e-05
6.92612e-05
8.42475e-05
-0.000351172
5.47719e-07
9.74164e-05
-1.47677e-05
-3.43705e-05
-1.47396e-05
-3.43503e-05
9.97404e-05
9.7447e-05
9.95984e-05
8.36839e-05
6.95627e-05
6.91935e-05
8.40577e-05
9.71935e-05
-1.47192e-05
-3.42373e-05
-1.4657e-05
-3.4298e-05
9.94876e-05
9.73435e-05
9.94937e-05
-6.75363e-08
0.000121653
5.02063e-06
-6.72809e-06
-0.000119993
1.11655e-07
2.81109e-07
1.56322e-05
-2.68609e-05
-2.9247e-07
0.000108037
-1.54772e-07
1.57055e-05
0.000108334
-2.69505e-05
9.46283e-08
0.000121332
1.55283e-07
4.97592e-06
-8.90196e-08
-6.71655e-06
-0.00011966
-0.000121791
4.6471e-08
1.62723e-06
8.43109e-09
-3.6366e-06
0.000123743
-4.74213e-06
5.18836e-06
-0.000126083
7.00256e-09
-0.000122071
1.65181e-06
6.15639e-08
0.000124013
-3.64373e-06
-3.84777e-08
-4.76787e-06
-0.000125854
8.35524e-08
5.20449e-06
5.0259e-06
-2.26831e-08
-6.72724e-06
-0.000120137
1.57951e-05
-2.70697e-05
0.000108753
1.34041e-08
5.05841e-06
6.66259e-08
-6.74122e-06
-0.00012043
1.57432e-05
0.000108482
-2.69993e-05
-1.93102e-07
1.63085e-06
-3.63885e-06
9.72673e-08
0.000123608
-3.36296e-08
-4.79784e-06
5.22656e-06
-0.000125456
8.42522e-08
1.1902e-07
1.60149e-06
-4.35501e-08
-3.63548e-06
0.000123289
-4.774e-06
-0.000125733
5.22143e-06
5.18347e-09
-2.30117e-06
0.000349103
-3.8944e-05
3.30035e-06
-0.000349555
1.96647e-06
-1.46608e-05
-3.36618e-05
-1.45994e-05
-3.36813e-05
9.9327e-05
9.9162e-05
3.8895e-05
2.41663e-06