/*--------------------------------*- C++ -*----------------------------------*\
| =========                 |                                                 |
| \\      /  F ield         | OpenFOAM: The Open Source CFD Toolbox           |
|  \\    /   O peration     | Version:  2012                                  |
|   \\  /    A nd           | Website:  www.openfoam.com                      |
|    \\/     M anipulation  |                                                 |
\*---------------------------------------------------------------------------*/
FoamFile
{
    version     2.0;
    format      ascii;
    class       volVectorField;
    location    "0.107/fluid";
    object      U;
}
// * * * * * * * * * * * * * * * * * * * * * * * * * * * * * * * * * * * * * //

dimensions      [0 1 -1 0 0 0 0];


internalField   nonuniform List<vector> 
16422
(
(1.19994 4.51987e-06 2.09809e-05)
(1.19974 7.94815e-05 5.17594e-05)
(1.19944 0.000141492 2.63043e-05)
(1.19952 0.000204674 2.63604e-05)
(1.19947 0.000301427 2.76199e-05)
(1.19937 0.000454193 3.31679e-05)
(1.19922 0.000696466 4.41644e-05)
(1.19904 0.00107837 6.06388e-05)
(1.19879 0.00167291 8.95993e-05)
(1.19844 0.00259625 0.000141165)
(1.19794 0.00401154 0.000224388)
(1.1971 0.00623378 0.000403316)
(1.19511 0.0102671 0.00096707)
(1.1903 0.0213335 0.0029094)
(1.20917 0.0616778 0.00465268)
(1.19994 1.9537e-06 2.11194e-05)
(1.19975 5.34205e-05 5.40409e-05)
(1.19947 0.000105684 2.78827e-05)
(1.19958 0.000155129 2.73091e-05)
(1.19957 0.000228672 2.95382e-05)
(1.19952 0.000345469 3.28894e-05)
(1.19948 0.000525665 4.06802e-05)
(1.19946 0.000806182 5.47337e-05)
(1.19946 0.00124207 7.48047e-05)
(1.19953 0.00190685 0.000106693)
(1.19969 0.00292078 0.000158027)
(1.20007 0.00449949 0.000231281)
(1.20105 0.00705305 0.000340755)
(1.20426 0.0108903 0.000475132)
(1.21314 0.0115655 0.00024744)
(1.19994 -6.47163e-06 2.13479e-05)
(1.19975 -2.10686e-06 5.52833e-05)
(1.19949 4.15552e-05 2.82077e-05)
(1.19962 7.12622e-05 2.71632e-05)
(1.19964 0.000112832 3.00596e-05)
(1.19963 0.000172501 3.31181e-05)
(1.19965 0.000265338 3.94055e-05)
(1.19972 0.000406511 5.06545e-05)
(1.19988 0.000623795 6.52611e-05)
(1.20019 0.000954026 8.6487e-05)
(1.20076 0.00144905 0.000114287)
(1.20177 0.0021749 0.000139865)
(1.20362 0.00314295 0.000148679)
(1.20678 0.00394825 0.000108428)
(1.21069 0.002792 -1.19202e-06)
(1.19997 4.44813e-06 5.10599e-06)
(1.19996 7.92356e-05 5.651e-05)
(1.19976 0.00013964 6.30385e-05)
(1.19991 0.00020189 7.43405e-05)
(1.19991 0.000297717 0.000104532)
(1.19988 0.000446567 0.000152014)
(1.19982 0.000679313 0.000225907)
(1.19974 0.00104579 0.000337782)
(1.19964 0.00161298 0.000504683)
(1.19953 0.00248069 0.000754029)
(1.19944 0.00378795 0.00113365)
(1.19935 0.00574326 0.00172233)
(1.19904 0.00890354 0.00261384)
(1.19823 0.0162273 0.00375615)
(1.21162 0.0422885 0.00363462)
(1.19997 2.00982e-06 4.9788e-06)
(1.19997 5.3797e-05 5.47107e-05)
(1.19979 0.00010372 5.88612e-05)
(1.19997 0.000152538 6.89435e-05)
(1.20002 0.000225543 9.59551e-05)
(1.20005 0.000338214 0.000138557)
(1.20008 0.000513148 0.000200747)
(1.20015 0.00078271 0.000290286)
(1.20028 0.00119744 0.000418821)
(1.20052 0.00182202 0.000596641)
(1.20093 0.00276162 0.000840182)
(1.20166 0.00418449 0.00116579)
(1.20311 0.00639967 0.00154926)
(1.20654 0.00959502 0.00179946)
(1.2143 0.0100392 0.00137032)
(1.19997 -6.24119e-06 4.83256e-06)
(1.19998 -1.81179e-06 5.37431e-05)
(1.19982 4.02518e-05 5.60919e-05)
(1.20001 6.9538e-05 6.61319e-05)
(1.20009 0.000109953 9.018e-05)
(1.20016 0.000169299 0.000129703)
(1.20025 0.00025974 0.000184636)
(1.20041 0.000395049 0.000260392)
(1.20068 0.000601112 0.00036397)
(1.20112 0.000912354 0.000497452)
(1.20184 0.00137209 0.000661333)
(1.20302 0.00203524 0.00084237)
(1.20497 0.00290675 0.000990735)
(1.20803 0.00362036 0.000990898)
(1.2115 0.0025144 0.000682537)
(1.19997 4.35333e-06 7.32954e-06)
(1.19996 7.74577e-05 8.49786e-05)
(1.19977 0.000136289 0.000107301)
(1.19994 0.00019421 0.000131468)
(1.19997 0.000285208 0.000180549)
(1.19996 0.000425643 0.000260194)
(1.19995 0.000641101 0.000382934)
(1.19994 0.000973667 0.000568929)
(1.19994 0.00148082 0.000845831)
(1.19999 0.00224028 0.00124909)
(1.20012 0.0033495 0.00183676)
(1.20037 0.00492883 0.00268803)
(1.2005 0.00729669 0.0038569)
(1.1995 0.0129882 0.00504021)
(1.20879 0.0378346 0.00441844)
(1.19997 2.00179e-06 7.18443e-06)
(1.19997 5.27814e-05 8.22964e-05)
(1.19981 9.99309e-05 0.000103005)
(1.2 0.000147439 0.000123273)
(1.20007 0.000216383 0.000166952)
(1.20012 0.000322489 0.000236325)
(1.2002 0.000484322 0.000341226)
(1.20032 0.000728974 0.000490577)
(1.20051 0.00109842 0.000703925)
(1.20083 0.00164502 0.000996539)
(1.20136 0.00244212 0.00138775)
(1.2022 0.00360646 0.00188975)
(1.20364 0.00537171 0.00244727)
(1.20659 0.00796063 0.00277437)
(1.21311 0.00846904 0.00216887)
(1.19997 -6.10068e-06 7.03448e-06)
(1.19998 -2.40753e-06 8.01125e-05)
(1.19983 3.7981e-05 9.95643e-05)
(1.20004 6.63702e-05 0.000118404)
(1.20013 0.000104656 0.000158456)
(1.20022 0.000161544 0.000221992)
(1.20035 0.000244398 0.000313461)
(1.20055 0.000367829 0.000440353)
(1.20087 0.000551639 0.000613006)
(1.20136 0.000823212 0.000835655)
(1.20212 0.00121422 0.00110363)
(1.2033 0.00176208 0.00139321)
(1.20514 0.00246735 0.0016206)
(1.20786 0.00303707 0.00159822)
(1.21087 0.00205565 0.00110312)
(1.1739 0.0948962 0.0126196)
(0.921694 -0.145308 -0.0165908)
(1.1916 0.0603468 0.00998751)
(1.32681 -0.055168 -0.00637929)
(1.19125 0.0612289 0.00538148)
(1.32724 -0.0536626 0.009239)
(1.18916 0.0565404 0.00524245)
(1.32036 -0.0534854 -0.00913564)
(1.18807 0.0565231 0.0048816)
(1.31912 -0.0533175 0.0072374)
(1.18265 0.0223939 0.00449158)
(1.16625 0.0605087 0.0104208)
(1.19515 0.015538 0.00600858)
(1.19295 0.0367429 0.00945521)
(0.651803 0.0181476 0.0906371)
(1.15746 -0.00525246 0.0348078)
(1.29108 0.00780016 -0.00531035)
(1.21686 0.0171332 0.000699454)
(1.23197 0.00112483 8.91616e-06)
(1.21226 0.0416979 0.00557854)
(1.28511 0.0152805 -0.00110695)
(1.2191 0.0150146 0.00202293)
(1.23321 0.00232493 0.000809015)
(1.19473 0.0157546 0.00450617)
(1.19241 0.0375577 0.00553969)
(1.19654 0.0127518 0.00560297)
(1.19213 0.032908 0.00582176)
(1.1324 -0.0205369 0.00857525)
(1.13122 -0.0274546 0.00943202)
(1.28324 0.0153209 -0.000100846)
(1.2188 0.0150507 0.00184825)
(1.23246 0.00282937 0.000620841)
(1.20952 0.0381405 0.00435394)
(1.28003 0.015602 0.00148693)
(1.21767 0.0134625 0.00228065)
(1.2307 0.00226843 0.000218489)
(1.19667 0.0122372 0.0056692)
(1.1914 0.0326762 0.00556432)
(1.12717 -0.0253353 0.00545859)
(1.1263 -0.0266712 0.00841687)
(1.27894 0.0161587 0.0011794)
(1.21711 0.0130397 0.00236802)
(1.22969 0.00219315 -0.000152004)
(1.06855 0.0812568 0.0223581)
(1.16586 0.106254 0.0109567)
(1.20746 0.0678673 0.0170462)
(1.15731 0.0603835 0.0309089)
(1.24001 0.0996488 0.0220548)
(0.847202 0.0542842 0.0474595)
(1.34415 -0.0638106 -0.00461314)
(1.31494 0.0924325 0.0210519)
(1.13328 -0.0243569 0.0175166)
(1.13603 -0.0126313 0.0278375)
(1.19103 0.0692333 0.00814253)
(1.13047 0.0392693 0.0130232)
(1.21415 0.0914588 0.00915349)
(1.13153 0.0489371 0.0105348)
(1.21698 0.0993502 0.00937366)
(1.33767 -0.0554252 0.00913806)
(1.28311 0.0884423 0.00791866)
(1.29119 0.0960163 0.00541573)
(1.13036 0.041272 0.00600185)
(1.2137 0.092324 0.00463306)
(1.19088 0.0576493 0.00638262)
(1.12916 0.0360844 0.00739576)
(1.21175 0.0896159 0.00518876)
(1.28296 0.0899036 0.00235331)
(1.32357 -0.0535427 -0.00775989)
(1.2796 0.0879361 0.00512435)
(1.12845 -0.0273754 0.00706222)
(1.12953 -0.0238007 0.00471303)
(1.1899 0.058198 0.00417738)
(1.12727 0.0354782 0.00593048)
(1.20922 0.0889173 0.00395034)
(1.12836 0.0381936 0.0045752)
(1.21095 0.0900313 0.00315207)
(1.32316 -0.0534451 0.00799901)
(1.27649 0.0878756 0.00426499)
(1.27942 0.0883441 0.000569898)
(1.1263 0.0362859 0.00544363)
(1.20782 0.088942 0.0035963)
(1.18713 0.0554696 0.00654549)
(1.12538 0.0347811 0.0075899)
(1.20586 0.0882082 0.00514071)
(1.27563 0.0881064 0.000396729)
(1.31549 -0.0534739 -0.0102088)
(1.27204 0.0877973 0.00540007)
(1.12567 -0.0255185 0.0102646)
(1.18631 0.0543878 0.00830011)
(1.1248 0.0342426 0.0098871)
(1.20377 0.0873128 0.00701052)
(1.31302 -0.0531915 0.00702335)
(1.27011 0.0877031 0.00237435)
(1.20075 -0.0896433 0.0746298)
(1.20644 -0.188949 0.0290982)
(1.13412 -0.066741 0.0230521)
(1.28554 -0.160435 0.050445)
(1.18112 -0.0553777 0.0441098)
(1.14151 -0.100304 0.0273051)
(1.24918 -0.0865103 0.100376)
(0.283651 -0.0327196 0.0640891)
(1.18455 -0.00635408 0.0455553)
(1.10433 -0.135951 0.00542372)
(1.15142 -0.2114 0.00530664)
(1.11414 -0.0923612 0.00778285)
(1.15186 -0.210982 0.00634254)
(1.11503 -0.0917951 0.00679154)
(1.10369 -0.136609 0.0101036)
(1.1062 -0.128571 0.0137823)
(1.15816 -0.200202 0.0017286)
(1.11841 -0.0862016 0.00700426)
(1.10692 -0.128298 0.00317069)
(1.15579 -0.200417 0.0110089)
(1.11712 -0.0863043 0.00914963)
(1.09674 -0.132687 0.00294591)
(1.1424 -0.205208 0.00875817)
(1.10765 -0.090775 0.00941807)
(1.14287 -0.205372 0.00416096)
(1.1083 -0.09069 0.0057083)
(1.09638 -0.132557 0.0120419)
(1.09784 -0.131144 0.0100268)
(1.14557 -0.20355 0.000812685)
(1.11006 -0.0894604 0.00336786)
(1.09842 -0.131451 -0.000185986)
(1.14453 -0.203358 0.00759439)
(1.10931 -0.0894164 0.00697293)
(1.35607 -0.267438 0.014061)
(1.83186 0.000229036 -0.107097)
(1.64001 0.0728761 -0.09164)
(1.72061 0.155825 -0.127328)
(1.13665 0.177073 -0.00915341)
(1.16617 0.126856 0.035234)
(1.19219 0.232799 0.0259252)
(1.16616 0.134392 0.00755117)
(1.18984 0.24437 -0.00178924)
(1.14305 0.162321 0.032465)
(1.3444 0.205874 0.0475952)
(0.682902 0.0652655 0.0543249)
(0.783379 0.167604 0.0175014)
(1.30344 0.177751 0.0496586)
(1.38866 0.225213 0.020241)
(0.73666 0.130771 0.0456554)
(1.61002 0.0869973 0.011368)
(1.33182 0.270048 0.0166472)
(1.36573 0.279488 -0.00488155)
(1.58834 0.0914084 -0.0189596)
(1.85166 0.0586362 -0.0564633)
(1.0622 -0.192735 0.0168644)
(1.8408 -0.104028 -0.0606062)
(1.07715 -0.0616227 0.00450239)
(1.64781 0.00872488 0.0166119)
(1.60171 -0.135226 -0.0431239)
(1.63064 0.0198719 -0.0287756)
(1.61513 -0.156214 0.0116841)
(1.80016 0.126037 -0.0476957)
(0.629679 0.141377 0.0323326)
(1.56517 0.262787 0.000226164)
(1.00552 0.00359199 -0.00314233)
(1.11326 -0.126139 0.0343025)
(1.17451 -0.197713 0.0262906)
(1.13214 -0.0814163 0.0331737)
(1.11947 -0.12114 0.0341615)
(1.16926 -0.198541 0.0279413)
(1.12247 -0.0824235 0.0257759)
(1.11173 -0.134837 0.0181533)
(1.16192 -0.213891 0.0101314)
(1.11985 -0.0915613 0.0138508)
(1.11036 -0.136848 0.0168342)
(1.16482 -0.211774 0.0184618)
(1.12124 -0.0895401 0.0169901)
(1.32924 -0.241346 0.0164936)
(1.31848 -0.244087 0.0220431)
(1.59581 0.10999 -0.055493)
(1.59932 0.11408 0.0299394)
(1.59642 0.154619 -0.0412261)
(1.59586 0.128723 -0.0355083)
(1.31566 -0.256977 0.0238398)
(1.10823 0.148506 0.0138796)
(1.13506 0.109966 0.0173432)
(1.16694 0.221693 0.0083081)
(1.11519 0.153216 0.00675176)
(1.1285 0.107701 0.0156354)
(1.15766 0.219455 0.012021)
(1.10543 0.143201 0.00636079)
(1.12408 0.0998869 0.0122632)
(1.1529 0.21115 0.00966346)
(1.12546 0.102048 0.0132308)
(1.15302 0.213399 0.00556301)
(1.10521 0.141095 0.0133381)
(1.5556 0.0875036 -0.0206151)
(1.31534 0.26377 0.0141672)
(1.57363 0.0831443 0.0300975)
(1.29754 0.261324 0.0053421)
(1.59392 0.0156065 0.0319992)
(1.57204 -0.12669 -0.0344655)
(1.57441 -0.128028 0.0335775)
(1.59094 0.0144871 -0.0279785)
(1.59967 0.0201628 -0.0283909)
(1.5946 -0.134259 0.0319503)
(1.6172 0.0132682 0.034948)
(1.57985 -0.125912 -0.0365205)
(1.55045 0.0828172 0.0266903)
(1.29264 0.254183 0.00307993)
(1.29402 0.257334 0.00841111)
(1.54769 0.0807394 -0.0208173)
(1.58338 0.133498 0.00926556)
(1.57751 0.131311 -0.0307606)
(1.5772 0.118723 -0.0435477)
(1.57959 0.118392 0.0364709)
(1.10244 0.139161 0.00173493)
(1.12014 0.0974456 0.00681579)
(1.14812 0.208703 0.00632001)
(1.12079 0.0978912 0.00613353)
(1.14852 0.209277 0.0023778)
(1.10192 0.138506 0.00929171)
(1.10518 0.142809 0.00970022)
(1.12485 0.102744 0.00617859)
(1.15352 0.2137 0.00293988)
(1.12373 0.101968 0.00774741)
(1.10578 0.143822 0.00171738)
(1.15196 0.212694 0.00730233)
(1.54231 0.0814119 0.02622)
(1.28679 0.252526 0.000832108)
(1.28786 0.253348 0.00607084)
(1.54085 0.0808593 -0.0222841)
(1.58885 0.0171006 -0.0279724)
(1.57369 -0.125292 0.0343757)
(1.59265 0.0170631 0.0328654)
(1.57059 -0.124438 -0.0330369)
(1.54525 0.0829839 -0.0212447)
(1.29342 0.256122 0.00679203)
(1.54905 0.0832872 0.0272853)
(1.29051 0.255231 0.00218316)
(1.58594 0.0158018 0.0319944)
(1.56733 -0.12441 -0.0342141)
(1.58455 0.0154895 -0.0290482)
(1.56845 -0.124761 0.0345301)
(1.10122 -0.130383 0.00955931)
(1.15041 -0.202567 -0.000653656)
(1.1135 -0.088261 0.00287705)
(1.10198 -0.130603 -0.00104608)
(1.14884 -0.20249 0.00731934)
(1.11257 -0.0882031 0.00606316)
(1.09996 -0.134428 0.00214212)
(1.14628 -0.208033 0.00560026)
(1.11049 -0.0914754 0.00678635)
(1.09949 -0.134626 0.00929024)
(1.14649 -0.208014 0.00340808)
(1.11117 -0.0912024 0.00437157)
(1.10158 0.140247 0.00839393)
(1.12063 0.0998997 0.00329685)
(1.14845 0.210512 0.00106808)
(1.1021 0.140603 -0.000243365)
(1.11985 0.0995099 0.00561959)
(1.14744 0.210125 0.00590723)
(1.0999 0.138282 0.000431206)
(1.11753 0.0969206 0.00594137)
(1.14466 0.208139 0.0058139)
(1.11812 0.0972279 0.00429977)
(1.14533 0.208409 0.00135446)
(1.09933 0.137898 0.00872471)
(1.53921 0.0820075 -0.0224596)
(1.28723 0.253589 0.00486701)
(1.54143 0.0819648 0.0255136)
(1.28548 0.253468 0.000997839)
(1.58169 0.0163058 0.0310109)
(1.5639 -0.123614 -0.0353876)
(1.56499 -0.12394 0.0333694)
(1.58017 0.0164808 -0.0298649)
(1.58318 0.0165808 -0.029226)
(1.56762 -0.124259 0.033441)
(1.58522 0.0164479 0.0312247)
(1.56614 -0.123891 -0.0344189)
(1.5376 0.0816036 0.0252694)
(1.28253 0.252473 0.000612525)
(1.2839 0.252641 0.00504577)
(1.53588 0.0816891 -0.0229831)
(1.09682 0.137309 0.00177933)
(1.11469 0.0959351 0.00848471)
(1.14008 0.207268 0.00807965)
(1.11542 0.0964258 0.00569307)
(1.14113 0.207633 0.00258466)
(1.09627 0.13681 0.0112262)
(1.09823 0.138372 0.00927696)
(1.11735 0.0979661 0.00372549)
(1.14402 0.208798 0.00127086)
(1.1166 0.0975696 0.00639502)
(1.09879 0.138687 0.000165302)
(1.14296 0.208503 0.0064918)
(1.53165 0.0826645 0.0256716)
(1.27663 0.252536 0.00303176)
(1.27884 0.252625 0.00586227)
(1.52866 0.0830127 -0.0215976)
(1.57759 0.01726 -0.029606)
(1.56332 -0.12363 0.0328787)
(1.5798 0.0169362 0.0307446)
(1.56173 -0.123232 -0.0357692)
(1.53299 0.082534 -0.0225606)
(1.28213 0.252882 0.00482377)
(1.53545 0.0822458 0.0250621)
(1.28019 0.252945 0.0015261)
(1.57637 0.0173887 0.0312778)
(1.55848 -0.122694 -0.0360673)
(1.57357 0.0178104 -0.028893)
(1.56065 -0.123307 0.033036)
(1.09484 -0.130252 0.0155407)
(1.14088 -0.203078 0.00544692)
(1.10696 -0.0900457 0.00798901)
(1.09507 -0.130942 0.00441515)
(1.13974 -0.202537 0.0126285)
(1.10626 -0.0897189 0.0130441)
(1.09302 -0.129733 0.011113)
(1.13704 -0.201994 0.0119002)
(1.10521 -0.0898103 0.0150656)
(1.09455 0.135771 0.0147004)
(1.11389 0.0959507 0.00804593)
(1.13822 0.207003 0.00486159)
(1.09494 0.136506 0.00405407)
(1.11305 0.0952346 0.0121704)
(1.13674 0.206409 0.0115431)
(1.09256 0.134561 0.0100997)
(1.11181 0.0944743 0.0148936)
(1.13381 0.205319 0.0106064)
(1.52217 0.0840817 -0.0189808)
(1.27519 0.252496 0.00773431)
(1.52715 0.0833743 0.027032)
(1.27185 0.252288 0.00680409)
(1.56498 0.0192101 0.0349039)
(1.55096 -0.122045 0.0335991)
(1.56733 0.0189836 -0.0267869)
(1.55716 -0.122891 0.0333297)
(1.5722 0.0181008 0.0324366)
(1.55312 -0.121661 -0.0361776)
(1.5196 0.0843758 0.0300845)
(1.26939 0.251881 0.0123529)
(1.12131 -0.172283 0.0228194)
(1.11221 -0.661515 0.0510101)
(0.798529 -0.117858 0.0431075)
(1.12578 -0.657168 0.0270802)
(0.809564 -0.10507 0.0148302)
(1.10776 -0.180078 0.0236805)
(0.724972 -0.12652 0.0865812)
(0.152367 0.17863 0.0244353)
(0.857287 -0.49523 0.157062)
(0.677246 0.0613425 0.0197)
(0.0586122 0.039213 -0.0435132)
(0.65372 0.111153 -0.141168)
(0.571177 0.111862 -0.190251)
(1.07865 -0.193892 0.00479105)
(1.08423 -0.645595 0.0196865)
(0.78904 -0.129433 0.0224721)
(1.07782 -0.646791 -0.0145711)
(0.780973 -0.13137 -0.0111393)
(1.08672 -0.192065 0.00815616)
(1.08589 -0.187004 0.00738886)
(1.09395 -0.646797 -0.0132787)
(0.793764 -0.126011 -0.0113058)
(1.09477 -0.187023 0.00306343)
(1.08524 -0.645628 0.0252069)
(0.785651 -0.125925 0.0231068)
(0.61498 0.109743 -0.0852987)
(0.621836 0.109947 0.0159318)
(0.608785 0.107912 0.0351395)
(0.592257 0.108207 -0.0708415)
(1.07204 -0.189308 0.00624782)
(1.07675 -0.634337 0.0238325)
(0.7883 -0.128219 0.0249948)
(1.07048 -0.635301 -0.0118468)
(0.780526 -0.129457 -0.00924195)
(1.07974 -0.188215 0.0112295)
(1.0746 -0.188216 0.00482469)
(1.08039 -0.637279 -0.0140917)
(0.789118 -0.126903 -0.0140159)
(1.08307 -0.187555 -3.29797e-05)
(1.07285 -0.637021 0.0226295)
(0.781227 -0.127802 0.0204678)
(0.600445 0.109364 -0.068978)
(0.602957 0.110965 0.0437193)
(0.604639 0.111001 0.036356)
(0.588945 0.110587 -0.0662082)
(0.906021 -0.178741 0.0401745)
(1.37098 -0.851635 0.0583286)
(1.40276 -0.855268 0.0351251)
(0.867437 -0.166651 -0.0128234)
(0.0781575 0.00644084 -0.0215604)
(0.0295311 -0.0103201 -0.0220332)
(0.55406 0.0445834 -0.160257)
(0.576303 0.0829383 -0.11971)
(0.510585 0.0846879 -0.170131)
(0.612023 0.0421731 -0.0959562)
(0.944645 -0.29095 -0.00711277)
(1.04716 -0.678453 0.087874)
(1.1245 0.220146 0.0212427)
(0.815605 0.161802 0.0424211)
(1.13212 0.669018 0.0420529)
(0.804023 0.176913 0.000797845)
(1.12485 0.683588 0.00068649)
(1.13632 0.210401 0.0277372)
(1.00758 0.203703 0.0884008)
(0.304763 0.221742 0.0508819)
(0.606352 0.554216 -0.121445)
(0.635296 0.230298 0.0806306)
(1.01612 0.587073 -0.129531)
(0.475242 0.252982 0.0658256)
(0.812524 0.162803 0.0170188)
(1.36923 0.850819 0.0442183)
(1.35987 0.871788 -0.00672774)
(0.835723 0.166646 -0.0196269)
(0.328924 -0.0460858 0.0904524)
(0.227151 -0.100009 0.0397077)
(0.394709 -0.0685907 0.134994)
(0.307779 -0.076545 0.0444577)
(0.489015 -0.0505705 -0.0710564)
(0.510739 -0.0857765 0.0116686)
(0.511891 -0.0461797 0.00758596)
(0.498779 -0.0872476 -0.0737511)
(0.783049 0.171956 -0.102379)
(0.622539 0.447503 -0.0750587)
(1.31904 0.783319 -0.182458)
(0.620742 0.0615326 -0.0185797)
(1.10082 -0.190384 0.0309689)
(1.11143 -0.661816 0.0128353)
(0.800688 -0.128376 0.0105048)
(1.10829 -0.187232 0.0262366)
(1.10426 -0.65923 0.0466557)
(0.793442 -0.129545 0.042641)
(1.08774 -0.195746 0.0113597)
(1.09396 -0.653559 0.0239071)
(0.792799 -0.130651 0.0270514)
(1.09505 -0.19412 0.0128962)
(1.08884 -0.655095 -0.00878304)
(0.785256 -0.132453 -0.00485904)
(0.859935 -0.16382 -0.0191307)
(1.3727 -0.850507 0.0091395)
(0.874395 -0.16815 0.0208141)
(1.35914 -0.843188 0.048858)
(0.520175 0.046397 -0.0756662)
(0.530749 0.0817163 0.00212543)
(0.506625 0.0825121 -0.0770403)
(0.545934 0.0431739 0.0049797)
(0.620547 0.0461579 -0.0498623)
(0.587607 0.0879727 -0.136282)
(0.618601 0.0481539 -0.138955)
(0.582841 0.0867373 -0.0612312)
(0.828821 -0.160191 0.0176654)
(1.34333 -0.836461 0.0251126)
(1.3376 -0.839328 -0.0133529)
(0.834647 -0.161662 -0.0245365)
(1.09543 0.194367 0.0127518)
(0.799596 0.147927 0.00208117)
(1.11521 0.655955 0.00370162)
(1.11512 0.196032 0.0141985)
(0.783661 0.148044 0.0354131)
(1.09798 0.653039 0.0371222)
(1.08803 0.187291 0.00961855)
(0.787932 0.141721 0.028169)
(1.09591 0.642533 0.0253597)
(0.779368 0.142354 -0.0077218)
(1.08894 0.642798 -0.0105887)
(1.09655 0.186703 0.0111944)
(0.817475 0.160661 -0.0132019)
(1.35988 0.844364 -0.000670085)
(0.83511 0.166142 0.0206028)
(1.33213 0.835803 0.0415013)
(0.512748 -0.0460882 -0.0583493)
(0.516557 -0.0822868 0.0489271)
(0.507065 -0.0833167 -0.0637545)
(0.522494 -0.0442576 0.0432479)
(0.507767 -0.0482112 0.0221648)
(0.493235 -0.0856082 -0.073387)
(0.489596 -0.0478806 -0.0730427)
(0.504597 -0.0854878 0.0255903)
(0.817016 0.1609 0.0208026)
(1.33192 0.826014 0.0292158)
(1.32322 0.826636 -0.0148222)
(0.822791 0.162551 -0.0161142)
(0.244183 -0.116897 0.0520444)
(0.467169 -0.084965 0.158384)
(0.594948 -0.111819 0.0112325)
(0.580223 -0.113565 -0.0809184)
(0.611607 0.107634 -0.000844973)
(0.58354 0.107601 -0.0838865)
(0.669473 0.115233 -0.149406)
(0.66293 0.11339 -0.0732745)
(0.599857 -0.10789 0.0539222)
(0.588175 -0.108664 -0.0695221)
(0.575577 -0.111109 -0.0793316)
(0.58564 -0.110816 0.0273866)
(0.816247 -0.155881 0.0182633)
(1.32955 -0.827202 0.0222707)
(1.32097 -0.828864 -0.0195194)
(0.824959 -0.157777 -0.0222162)
(0.557255 0.0461413 0.0180587)
(0.533225 0.0839754 -0.0779409)
(0.540785 0.0843551 0.016929)
(0.548163 0.0452591 -0.0757891)
(0.830804 -0.158829 -0.0197931)
(1.34419 -0.831712 -0.0203345)
(1.33145 -0.8287 0.0288618)
(0.840412 -0.161604 0.0135759)
(0.521924 0.0469081 -0.060266)
(0.526555 0.0824451 0.0333785)
(0.512719 0.083251 -0.0649814)
(0.536118 0.0446041 0.030379)
(1.0839 0.18494 0.00496649)
(0.786237 0.140209 0.0239747)
(1.09087 0.637107 0.0214579)
(0.777985 0.140488 -0.0124073)
(1.08385 0.637022 -0.0147159)
(1.0923 0.184559 0.0072693)
(1.08848 0.190632 0.00599787)
(0.789012 0.144518 -0.0122569)
(1.09706 0.644237 -0.0108869)
(0.780664 0.146027 0.0243944)
(1.09746 0.189011 0.00402212)
(1.08927 0.644493 0.0257367)
(0.812099 0.160306 0.0197842)
(1.32465 0.820908 0.0253483)
(1.31567 0.820576 -0.0189964)
(0.817998 0.162168 -0.0174334)
(0.51674 -0.0461472 0.042779)
(0.511003 -0.0816857 -0.0632827)
(0.516118 -0.0438432 -0.0562158)
(0.512068 -0.0830895 0.0484708)
(0.811953 0.160162 -0.0160241)
(1.33297 0.827749 -0.0146321)
(0.823143 0.163237 0.0223714)
(1.32155 0.826993 0.0296485)
(0.5144 -0.0450439 -0.0551128)
(0.516633 -0.0814747 0.05073)
(0.520952 -0.0433103 0.0446816)
(0.509483 -0.0822876 -0.061799)
(1.07887 -0.187615 0.00416461)
(1.08513 -0.641261 -0.0156102)
(0.790471 -0.126218 -0.0146631)
(1.08743 -0.187447 -0.000555136)
(1.07721 -0.640689 0.0221665)
(0.782389 -0.126626 0.020117)
(1.07469 -0.19119 0.00387431)
(1.07993 -0.63955 0.0202776)
(0.788201 -0.128355 0.0221559)
(1.08268 -0.189787 0.00803932)
(1.07331 -0.640478 -0.0147362)
(0.780198 -0.129859 -0.0118178)
(0.820303 -0.155168 -0.0186515)
(1.33056 -0.824262 -0.022003)
(0.828278 -0.157803 0.0163618)
(1.31956 -0.822536 0.0262664)
(0.518785 0.0480411 -0.0560754)
(0.523839 0.0839931 0.0418502)
(0.512622 0.0844846 -0.0614816)
(0.529954 0.0462028 0.0375745)
(0.538503 0.0472717 0.0347746)
(0.524241 0.083562 -0.0670276)
(0.534028 0.0458022 -0.0622279)
(0.52827 0.0845772 0.0379815)
(0.813274 -0.152824 0.0195127)
(1.32255 -0.820254 0.0239028)
(1.31372 -0.82156 -0.0197013)
(0.821727 -0.154539 -0.0197145)
(1.08405 0.187597 0.00376268)
(0.787045 0.142268 -0.0150445)
(1.09155 0.638281 -0.0137619)
(1.09282 0.186207 0.00110333)
(0.77861 0.143437 0.021708)
(1.08395 0.638396 0.0228685)
(1.08101 0.184025 0.0041006)
(0.785346 0.139078 0.0233291)
(1.08656 0.632728 0.0207458)
(0.777287 0.13977 -0.0130727)
(1.07995 0.633089 -0.0153591)
(1.08917 0.18332 0.00677799)
(0.80767 0.159777 -0.0172535)
(1.32506 0.821979 -0.0180087)
(0.818 0.162511 0.0207735)
(1.31436 0.821493 0.026547)
(0.507584 -0.0444998 -0.0550572)
(0.513998 -0.0813257 0.0461915)
(0.505994 -0.0819115 -0.0614222)
(0.514713 -0.0427612 0.0408869)
(0.515497 -0.0452142 0.0432127)
(0.512378 -0.0810749 -0.0625606)
(0.516457 -0.0430371 -0.0551128)
(0.512175 -0.0824939 0.0487741)
(0.805333 0.159854 0.0189043)
(1.31778 0.81752 0.0244404)
(1.30947 0.817625 -0.0199276)
(0.811335 0.161743 -0.0183952)
(0.594184 -0.107189 -0.0694711)
(0.593885 -0.10843 0.0534117)
(0.600492 -0.107183 0.0561083)
(0.591291 -0.107693 -0.0677879)
(0.606782 0.109319 0.0443394)
(0.593013 0.109344 -0.0668394)
(0.606238 0.108857 -0.0732871)
(0.609416 0.109817 0.0400751)
(0.598822 -0.107226 0.0508514)
(0.588532 -0.107464 -0.0673843)
(0.596069 -0.106706 -0.0688566)
(0.594568 -0.108009 0.0538084)
(0.810834 -0.149773 0.0209305)
(1.31632 -0.813541 0.0281637)
(1.30846 -0.815249 -0.0168971)
(0.817841 -0.150976 -0.0173958)
(0.527113 0.0489355 0.0381891)
(0.51813 0.0842922 -0.0633141)
(0.521415 0.0859102 0.0416556)
(0.523976 0.0468434 -0.0578089)
(0.814672 -0.151705 -0.0174706)
(1.32296 -0.818871 -0.019748)
(1.31239 -0.817444 0.0269877)
(0.82299 -0.154458 0.018984)
(0.509815 0.0497434 -0.0563872)
(0.520909 0.0859325 0.0353757)
(0.508028 0.0860087 -0.0611611)
(0.522748 0.048412 0.0335818)
(1.07723 0.182159 0.00618165)
(0.784042 0.136903 0.0257432)
(1.08038 0.627295 0.0231983)
(0.776164 0.137972 -0.01081)
(1.07442 0.628148 -0.01305)
(1.08507 0.18122 0.00940034)
(1.08022 0.184864 0.00403341)
(0.785669 0.139893 -0.0147213)
(1.08646 0.632872 -0.0137221)
(0.777246 0.140663 0.0218448)
(1.08906 0.183845 0.00113748)
(1.0787 0.632667 0.0226162)
(0.796198 0.159225 0.0190066)
(1.30811 0.813477 0.0269293)
(1.30111 0.814435 -0.0178807)
(0.80114 0.160838 -0.0180731)
(0.508892 -0.0448049 0.0390161)
(0.508251 -0.0808285 -0.0626323)
(0.508624 -0.0425624 -0.0556821)
(0.509464 -0.0824589 0.0431506)
(0.80082 0.15928 -0.0178435)
(1.31763 0.817946 -0.0184111)
(0.811034 0.161996 0.0196949)
(1.30661 0.817157 0.0261349)
(0.496069 -0.044423 -0.0565002)
(0.511443 -0.0815195 0.0338532)
(0.506606 -0.0430078 0.0319224)
(0.499819 -0.0816815 -0.0619027)
(1.0709 -0.188128 0.0094677)
(1.07657 -0.633052 -0.00950997)
(0.788432 -0.127805 -0.00972979)
(1.07942 -0.187172 0.00405475)
(1.06895 -0.632788 0.0269259)
(0.780695 -0.128925 0.024571)
(0.808246 -0.147838 -0.015813)
(1.31651 -0.813177 -0.0147842)
(0.818269 -0.151115 0.0214979)
(1.30504 -0.811207 0.0316258)
(0.517121 0.0511832 0.0288909)
(0.510637 0.0855011 -0.0635721)
(0.511066 0.0484528 -0.0588954)
(0.51692 0.0876764 0.0291778)
(1.07526 0.181747 0.00814945)
(0.78374 0.136912 -0.0109085)
(1.07956 0.626675 -0.0101954)
(1.0843 0.180895 0.00466735)
(0.77546 0.137384 0.025633)
(1.07141 0.626145 0.0263368)
(0.789572 0.158185 -0.0169376)
(1.30781 0.813759 -0.0151464)
(0.801059 0.161288 0.0199885)
(1.29562 0.812124 0.0300549)
(0.500616 -0.0452746 0.0266974)
(0.501525 -0.080609 -0.0637078)
(0.495798 -0.0426005 -0.0582019)
(0.507244 -0.0826481 0.0267639)
(0.592725 -0.106616 -0.0688958)
(0.592914 -0.10816 0.0471338)
(0.597795 -0.107435 0.0363759)
(0.583497 -0.107243 -0.0677569)
(0.593423 0.110219 -0.0689608)
(0.599261 0.112415 0.0291115)
(0.587264 -0.10634 -0.0698578)
(0.592395 -0.108314 0.0281291)
(1.17046 -0.166533 0.038037)
(1.18611 -0.656598 0.0274222)
(0.860329 -0.0983477 -0.00444567)
(1.19887 -0.15066 0.0261666)
(1.16557 -0.650692 0.0687503)
(0.843208 -0.100753 0.0463593)
(1.07158 -0.0865583 0.0760875)
(1.26249 -0.539546 0.0163433)
(0.959351 -0.0312158 0.0274867)
(1.27485 -0.0873925 0.0399177)
(1.10521 -0.463696 -0.0905659)
(0.825478 -2.12543e-05 -0.0726907)
(0.738276 -0.12301 0.133696)
(0.832555 -0.366126 0.192657)
(0.681069 0.00292845 -0.0510898)
(0.684038 0.105551 -0.274372)
(0.355634 0.0622963 -0.0615557)
(0.71283 0.121759 -0.257107)
(0.619985 0.11372 -0.20628)
(1.07857 -0.194191 0.00702465)
(1.08543 -0.647149 -0.00939665)
(0.789112 -0.129191 -0.0109535)
(1.08777 -0.191804 0.00338162)
(1.07778 -0.647615 0.0247821)
(0.780403 -0.131536 0.0228311)
(1.0844 -0.186715 0.00632791)
(1.08886 -0.643773 0.0262902)
(0.791745 -0.12558 0.0256252)
(1.0911 -0.186849 0.0113372)
(1.08343 -0.644597 -0.0121172)
(0.785002 -0.125835 -0.00941416)
(0.624116 0.109134 0.0342006)
(0.606895 0.110051 -0.0780369)
(0.59839 0.107193 -0.0733171)
(0.604355 0.109116 0.0353921)
(1.07203 -0.18965 0.00696765)
(1.07775 -0.63594 -0.0109904)
(0.788097 -0.127931 -0.0118068)
(1.08058 -0.188312 0.00210744)
(1.07045 -0.636028 0.0245227)
(0.78013 -0.129475 0.0223248)
(1.07407 -0.188144 0.00419929)
(1.07864 -0.635681 0.0228665)
(0.788719 -0.127069 0.023474)
(1.08157 -0.187392 0.00940602)
(1.07231 -0.636463 -0.0136349)
(0.781173 -0.127966 -0.0111708)
(0.607564 0.110423 0.0447405)
(0.593893 0.110392 -0.066498)
(0.59645 0.109622 -0.0674426)
(0.599764 0.111577 0.0403212)
(0.919382 -0.151415 0.0277726)
(0.700801 -0.0611593 -0.0292359)
(0.710145 -0.0674845 -0.0394768)
(0.880586 -0.139204 -0.0235718)
(0.932821 -0.181276 0.00324876)
(1.47231 -0.851154 0.0248092)
(1.4292 -0.849228 0.0840597)
(0.972546 -0.194318 0.0454534)
(0.949565 -0.155997 -0.00918175)
(0.782688 -0.0778508 -0.0502204)
(0.750469 -0.072537 -0.0313779)
(0.994825 -0.169101 0.0290349)
(0.984783 -0.0776073 -0.0300849)
(0.644232 -0.0286907 -0.0110369)
(0.46126 -0.00861365 -0.10439)
(0.586605 0.0715258 -0.207538)
(0.337519 0.0421547 -0.0590782)
(0.562862 0.0131327 -0.122537)
(0.0882712 0.0175708 -0.0230142)
(0.233093 -0.0379961 -0.0456693)
(0.50957 -0.0228064 -0.102603)
(0.786722 -0.0900969 -0.0582584)
(0.548681 -0.0114376 -0.0807513)
(0.808046 -0.0855077 -0.0972673)
(1.00118 -0.106841 -0.0425233)
(1.42358 -0.302119 -0.0342538)
(0.543144 0.0220613 -0.120741)
(0.713443 -0.0380211 -0.0425657)
(0.703513 -0.0424082 -0.0765885)
(0.579483 0.0206448 -0.0652419)
(0.602858 0.0416502 -0.133641)
(0.639794 0.0925519 -0.220588)
(0.553648 0.0869027 -0.174629)
(0.668704 0.0463232 -0.187176)
(0.586151 0.0173593 -0.0878483)
(0.786719 -0.052561 -0.0900023)
(0.753086 -0.0489854 -0.0514075)
(0.631088 0.0204442 -0.139063)
(1.05893 -0.218111 -0.0151488)
(1.52267 -0.748172 0.0339864)
(1.32364 -0.659655 -0.0602376)
(1.08224 -0.222573 -0.0163603)
(1.48025 -0.570579 0.0729753)
(0.944437 -0.452483 0.190165)
(0.838043 -0.227791 -0.0271739)
(0.365884 -0.0653391 -0.0348804)
(1.09213 -0.19839 -0.0403313)
(0.821228 -0.111252 -0.0413254)
(1.10271 -0.20509 -0.0274188)
(0.824671 -0.102258 -0.0629219)
(1.7282 -0.608194 0.047449)
(1.35436 -0.320876 -0.0169933)
(1.09282 0.218532 0.000822082)
(0.823351 0.179466 -0.0133387)
(1.1607 0.70703 0.00837822)
(0.778383 0.18054 0.0294183)
(1.15562 0.219435 -0.010124)
(1.10536 0.69469 0.0356616)
(1.25228 0.213534 0.0340909)
(1.00574 0.19943 0.050764)
(1.3426 0.707947 0.014968)
(0.893262 0.200905 -0.0255098)
(1.37077 0.23489 0.0358923)
(1.25189 0.666855 -0.134265)
(0.801318 0.130471 0.0127634)
(0.625384 0.0585196 -0.011539)
(0.589646 0.0529382 -0.0168974)
(0.830632 0.136017 -0.024844)
(0.796295 0.154329 -0.0197302)
(1.43426 0.900576 -0.000526341)
(1.34032 0.873206 0.0402085)
(0.827633 0.166238 0.0277397)
(0.790216 0.122493 -0.0242261)
(0.597063 0.0550902 0.000320359)
(0.60219 0.0500257 -0.00824966)
(0.812263 0.132135 0.0269904)