/*--------------------------------*- C++ -*----------------------------------*\
| =========                 |                                                 |
| \\      /  F ield         | OpenFOAM: The Open Source CFD Toolbox           |
|  \\    /   O peration     | Version:  2012                                  |
|   \\  /    A nd           | Website:  www.openfoam.com                      |
|    \\/     M anipulation  |                                                 |
\*---------------------------------------------------------------------------*/
FoamFile
{
    version     2.0;
    format      ascii;
    class       volVectorField;
    location    "0.107/fluid";
    object      U_0;
}
// * * * * * * * * * * * * * * * * * * * * * * * * * * * * * * * * * * * * * //

dimensions      [0 1 -1 0 0 0 0];


internalField   nonuniform List<vector> 
16422
(
(1.19994 4.51372e-06 2.09786e-05)
(1.19973 7.95956e-05 5.16469e-05)
(1.19944 0.000141402 2.62807e-05)
(1.19952 0.000204558 2.63286e-05)
(1.19947 0.000301239 2.7585e-05)
(1.19937 0.000453906 3.31235e-05)
(1.19922 0.000696003 4.41134e-05)
(1.19904 0.00107761 6.0565e-05)
(1.19879 0.00167162 8.94875e-05)
(1.19844 0.00259401 0.000141006)
(1.19794 0.00400752 0.000224182)
(1.1971 0.00622627 0.000402972)
(1.19512 0.0102522 0.000966269)
(1.19031 0.0213013 0.00290783)
(1.2091 0.0616047 0.00465436)
(1.19994 1.95157e-06 2.11183e-05)
(1.19974 5.35337e-05 5.39289e-05)
(1.19947 0.000105624 2.78593e-05)
(1.19958 0.000155044 2.72781e-05)
(1.19957 0.000228527 2.9504e-05)
(1.19952 0.000345225 3.28487e-05)
(1.19948 0.000525268 4.06322e-05)
(1.19946 0.000805492 5.46671e-05)
(1.19946 0.00124084 7.47116e-05)
(1.19953 0.00190458 0.000106576)
(1.1997 0.00291649 0.000157895)
(1.20007 0.0044913 0.000231158)
(1.20105 0.00703784 0.000340715)
(1.20424 0.0108654 0.000475311)
(1.21309 0.0115393 0.000247781)
(1.19994 -6.46961e-06 2.13468e-05)
(1.19975 -2.00052e-06 5.51712e-05)
(1.19949 4.15451e-05 2.81844e-05)
(1.19962 7.12235e-05 2.7134e-05)
(1.19964 0.000112769 3.00265e-05)
(1.19963 0.000172375 3.30796e-05)
(1.19965 0.000265122 3.93581e-05)
(1.19972 0.000406126 5.05913e-05)
(1.19988 0.000623083 6.51784e-05)
(1.20019 0.000952692 8.63862e-05)
(1.20076 0.00144651 0.000114176)
(1.20177 0.00217021 0.000139769)
(1.20361 0.00313507 0.000148657)
(1.20676 0.00393783 0.000108535)
(1.21065 0.00278431 -1.00435e-06)
(1.19997 4.44064e-06 5.03692e-06)
(1.19996 7.93492e-05 5.64818e-05)
(1.19976 0.000139552 6.28971e-05)
(1.19991 0.00020178 7.42099e-05)
(1.19991 0.00029754 0.000104359)
(1.19988 0.000446287 0.000151764)
(1.19982 0.000678866 0.000225547)
(1.19974 0.00104506 0.000337266)
(1.19964 0.00161174 0.000503981)
(1.19954 0.00247853 0.000753165)
(1.19945 0.00378405 0.00113294)
(1.19936 0.00573575 0.00172315)
(1.19905 0.00888729 0.0026212)
(1.19825 0.0161834 0.00378638)
(1.21154 0.0421264 0.00371471)
(1.19997 2.00686e-06 4.90644e-06)
(1.19997 5.39108e-05 5.46797e-05)
(1.19979 0.000103664 5.8724e-05)
(1.19997 0.000152455 6.88177e-05)
(1.20002 0.000225403 9.57946e-05)
(1.20005 0.000337983 0.000138324)
(1.20008 0.000512761 0.000200409)
(1.20015 0.000782042 0.000289813)
(1.20028 0.00119625 0.000418184)
(1.20052 0.00181978 0.000595863)
(1.20093 0.0027573 0.000839496)
(1.20166 0.00417587 0.00116597)
(1.20311 0.00638227 0.00155239)
(1.20653 0.00956238 0.00180892)
(1.21424 0.0100004 0.00138214)
(1.19997 -6.24551e-06 4.75927e-06)
(1.19997 -1.70426e-06 5.37122e-05)
(1.19982 4.02409e-05 5.59593e-05)
(1.20001 6.95046e-05 6.60076e-05)
(1.20009 0.00010989 9.00252e-05)
(1.20016 0.000169183 0.000129483)
(1.20025 0.000259531 0.000184314)
(1.20041 0.000394672 0.000259945)
(1.20068 0.000600416 0.00036337)
(1.20112 0.000911033 0.000496716)
(1.20184 0.00136952 0.000660589)
(1.20302 0.00203031 0.000841958)
(1.20496 0.00289798 0.000991288)
(1.20801 0.00360789 0.000992873)
(1.21146 0.00250465 0.000684591)
(1.19997 4.34284e-06 7.21529e-06)
(1.19995 7.75707e-05 8.49557e-05)
(1.19977 0.000136203 0.000107089)
(1.19994 0.000194106 0.000131239)
(1.19997 0.000285046 0.000180245)
(1.19996 0.000425385 0.000259756)
(1.19995 0.00064069 0.000382294)
(1.19994 0.000972996 0.000567994)
(1.19994 0.00147969 0.000844485)
(1.19999 0.00223831 0.00124722)
(1.20013 0.00334586 0.0018344)
(1.20038 0.00492137 0.00268589)
(1.20053 0.00727802 0.00385848)
(1.19957 0.0129202 0.00506231)
(1.20877 0.0374702 0.00451841)
(1.19997 1.99619e-06 7.06636e-06)
(1.19996 5.28946e-05 8.22748e-05)
(1.1998 9.98799e-05 0.000102798)
(1.2 0.000147363 0.000123055)
(1.20007 0.000216254 0.000166664)
(1.20012 0.000322278 0.000235913)
(1.2002 0.000483964 0.000340628)
(1.20032 0.000728358 0.000489713)
(1.20051 0.00109731 0.000702706)
(1.20084 0.00164292 0.000994888)
(1.20136 0.00243788 0.00138571)
(1.2022 0.00359738 0.00188778)
(1.20365 0.0053511 0.00244691)
(1.20658 0.00791469 0.00277929)
(1.21305 0.00840351 0.00218034)
(1.19997 -6.10329e-06 6.91491e-06)
(1.19997 -2.30238e-06 8.00898e-05)
(1.19983 3.79726e-05 9.93617e-05)
(1.20004 6.63403e-05 0.000118193)
(1.20013 0.000104599 0.000158179)
(1.20022 0.000161438 0.000221598)
(1.20035 0.000244206 0.000312891)
(1.20055 0.000367479 0.00043954)
(1.20087 0.000550987 0.000611876)
(1.20136 0.000821949 0.00083415)
(1.20212 0.00121167 0.00110178)
(1.2033 0.00175691 0.00139126)
(1.20513 0.0024574 0.00161915)
(1.20784 0.00302142 0.00159809)
(1.21083 0.00204209 0.00110427)
(1.17391 0.0948033 0.0126204)
(0.921826 -0.145193 -0.0167329)
(1.19161 0.0601811 0.010089)
(1.32646 -0.0550273 -0.00640225)
(1.19128 0.0610052 0.0055111)
(1.32685 -0.0534935 0.00915511)
(1.18931 0.0561173 0.00541308)
(1.31954 -0.0531958 -0.00908543)
(1.18828 0.0560237 0.00504789)
(1.31823 -0.0530166 0.00721006)
(1.18267 0.0223656 0.0044886)
(1.16626 0.0604467 0.0104179)
(1.19518 0.0155088 0.00603641)
(1.19298 0.0366502 0.00953208)
(0.651846 0.0181399 0.0906503)
(1.15744 -0.0052327 0.0348502)
(1.29081 0.00764765 -0.00530239)
(1.21682 0.0171052 0.000699931)
(1.23191 0.00115344 6.8162e-06)
(1.21219 0.0415761 0.00564067)
(1.28475 0.0152083 -0.00112811)
(1.21905 0.0149764 0.00203793)
(1.23313 0.00235706 0.000806428)
(1.19476 0.0157186 0.00454205)
(1.19246 0.0374343 0.00563751)
(1.19662 0.0127035 0.00563666)
(1.19231 0.0326897 0.00594002)
(1.13268 -0.0204514 0.00878251)
(1.13162 -0.0273236 0.00966249)
(1.28284 0.0152574 -0.000115198)
(1.21874 0.0150029 0.00186735)
(1.23237 0.00286147 0.000620051)
(1.20948 0.0378333 0.00445835)
(1.27942 0.0155413 0.00151395)
(1.21761 0.0133824 0.00230255)
(1.23059 0.0022987 0.000223516)
(1.19677 0.0121839 0.00569625)
(1.19163 0.0324221 0.00567421)
(1.12799 -0.0250434 0.00570059)
(1.12727 -0.0263105 0.00862277)
(1.27827 0.0160846 0.00122293)
(1.21705 0.0129474 0.00238706)
(1.22957 0.00221802 -0.000144746)
(1.06861 0.0811691 0.022366)
(1.16583 0.106116 0.0109654)
(1.20741 0.0677757 0.0170881)
(1.1573 0.0603312 0.0309853)
(1.23992 0.0995004 0.0221014)
(0.847107 0.0541728 0.0474658)
(1.34387 -0.0638097 -0.00466034)
(1.31477 0.0922894 0.0210755)
(1.13345 -0.0242946 0.0176844)
(1.1361 -0.0126018 0.0279603)
(1.19102 0.0691026 0.00821832)
(1.13062 0.039158 0.0131825)
(1.21407 0.0911734 0.00927294)
(1.13161 0.0488544 0.0106579)
(1.21691 0.0991371 0.00945797)
(1.33745 -0.0553587 0.00904165)
(1.28285 0.0882143 0.00799493)
(1.29101 0.0958428 0.00544524)
(1.1306 0.0411149 0.00620329)
(1.2136 0.0919298 0.00478851)
(1.19095 0.0573686 0.00653133)
(1.1295 0.0358859 0.00762297)
(1.21164 0.0891029 0.00537389)
(1.28266 0.089623 0.0024414)
(1.32301 -0.0533108 -0.00775453)
(1.2792 0.0875439 0.00525481)
(1.12912 -0.0271415 0.00731178)
(1.13006 -0.0236278 0.0049619)
(1.19 0.0578453 0.00434419)
(1.12789 0.0351851 0.00619098)
(1.20913 0.0881059 0.00418003)
(1.12884 0.0379439 0.00482955)
(1.21085 0.0893736 0.00336638)
(1.32254 -0.0531858 0.00793442)
(1.27594 0.0872424 0.00443755)
(1.27897 0.0878774 0.000713435)
(1.12708 0.0359447 0.00570115)
(1.20777 0.0879629 0.00383253)
(1.1874 0.0548996 0.00668371)
(1.12633 0.0343997 0.00781476)
(1.20585 0.0870597 0.00535728)
(1.27504 0.0873804 0.000576262)
(1.31443 -0.0531783 -0.0101235)
(1.2714 0.0868659 0.00556492)
(1.12679 -0.0250967 0.010402)
(1.18665 0.0537541 0.0083834)
(1.12591 0.0338217 0.0100445)
(1.20381 0.0859987 0.0071728)
(1.31191 -0.0528994 0.00701953)
(1.26944 0.0866762 0.00252471)
(1.20075 -0.0895669 0.0746823)
(1.20636 -0.188748 0.0292527)
(1.13417 -0.0666986 0.0231678)
(1.28551 -0.160291 0.0505679)
(1.18119 -0.055346 0.0442065)
(1.14146 -0.100204 0.0273878)
(1.24931 -0.0864723 0.1004)
(0.283723 -0.0326298 0.0640606)
(1.18471 -0.00634974 0.0456091)
(1.10476 -0.135409 0.00570282)
(1.1517 -0.210091 0.00563634)
(1.11525 -0.0921331 0.00813818)
(1.15211 -0.209817 0.00675128)
(1.11602 -0.0915946 0.0072119)
(1.10419 -0.135989 0.0104089)
(1.10655 -0.128135 0.0140631)
(1.15834 -0.199376 0.00208545)
(1.1191 -0.0860701 0.00735876)
(1.10721 -0.127921 0.00341615)
(1.15599 -0.199467 0.0113224)
(1.11792 -0.0861507 0.00947743)
(1.0978 -0.131312 0.00321259)
(1.1429 -0.202202 0.00899717)
(1.11022 -0.0900474 0.00971797)
(1.14337 -0.202547 0.0046285)
(1.11074 -0.0900263 0.00621638)
(1.09751 -0.131082 0.012322)
(1.0988 -0.129913 0.0103446)
(1.14602 -0.201175 0.00128848)
(1.11211 -0.0889418 0.00387354)
(1.09932 -0.13031 0.0001078)
(1.14499 -0.200808 0.00788426)
(1.1115 -0.0888352 0.00732258)
(1.35588 -0.267232 0.0142299)
(1.83146 0.000162506 -0.107151)
(1.63956 0.0728474 -0.0915679)
(1.72 0.155736 -0.127451)
(1.13662 0.176956 -0.00907994)
(1.16623 0.126771 0.0353688)
(1.19212 0.232542 0.0260345)
(1.1662 0.134316 0.00765989)
(1.18978 0.244137 -0.00169987)
(1.14302 0.162186 0.0325757)
(1.34444 0.205734 0.0476485)
(0.682846 0.0652176 0.0543561)
(0.783383 0.167558 0.0175125)
(1.30355 0.177651 0.0497256)
(1.3887 0.225007 0.0202823)
(0.736615 0.130655 0.0456742)
(1.60968 0.0866077 0.01128)
(1.33163 0.269758 0.0167229)
(1.36559 0.279218 -0.00484147)
(1.58798 0.0911382 -0.0189907)
(1.8515 0.0583874 -0.0566007)
(1.06273 -0.19273 0.0167984)
(1.8406 -0.104156 -0.0607584)
(1.07758 -0.0616565 0.00449642)
(1.64741 0.00835337 0.0164782)
(1.60117 -0.135183 -0.0432557)
(1.63023 0.0196677 -0.0288463)
(1.61466 -0.15628 0.0114336)
(1.80004 0.125764 -0.0478006)
(0.62972 0.14132 0.0323277)
(1.56514 0.262533 0.000254023)
(1.00587 0.00359091 -0.00315318)
(1.11334 -0.125959 0.0344818)
(1.17448 -0.197393 0.0264987)
(1.13233 -0.0813669 0.0333619)
(1.1195 -0.121 0.0342939)
(1.16927 -0.198141 0.0281589)
(1.12274 -0.0823614 0.0259931)
(1.11189 -0.134583 0.0183566)
(1.16203 -0.213238 0.0104116)
(1.12036 -0.0914533 0.0141324)
(1.11058 -0.136547 0.0170715)
(1.16489 -0.211225 0.0187538)
(1.12166 -0.0894482 0.0172733)
(1.32906 -0.241048 0.0166695)
(1.31832 -0.243657 0.0222579)
(1.59515 0.109899 -0.0554805)
(1.59876 0.113992 0.0299019)
(1.59602 0.154549 -0.0412112)
(1.59538 0.128621 -0.0354627)
(1.3155 -0.256466 0.0240709)
(1.10831 0.148272 0.01404)
(1.13526 0.109839 0.0175315)
(1.16691 0.221339 0.00847172)
(1.11524 0.153018 0.00688227)
(1.12876 0.107541 0.0158417)
(1.15763 0.219028 0.0121891)
(1.10555 0.142898 0.00653592)
(1.12454 0.0996447 0.0125267)
(1.15286 0.210492 0.0098831)
(1.12583 0.101847 0.0134952)
(1.153 0.212841 0.00579738)
(1.10536 0.14074 0.013544)
(1.55517 0.0872366 -0.0205846)
(1.31516 0.263439 0.0142639)
(1.5733 0.0829122 0.0300993)
(1.29731 0.260891 0.0054801)
(1.59339 0.0154759 0.0319935)
(1.57136 -0.126373 -0.0345582)
(1.57385 -0.127801 0.0334258)
(1.59025 0.0143867 -0.0279533)
(1.59919 0.0200264 -0.0283975)
(1.59413 -0.134119 0.0317792)
(1.61683 0.0131291 0.0349127)
(1.57932 -0.125742 -0.0366092)
(1.54996 0.0825413 0.0267293)
(1.2923 0.253548 0.0032698)
(1.29376 0.256839 0.00856654)
(1.54704 0.0804295 -0.0207471)
(1.5827 0.133354 0.00921308)
(1.57668 0.131141 -0.0307946)
(1.5761 0.118505 -0.0436137)
(1.57867 0.118224 0.0363717)
(1.10275 0.138553 0.00199726)
(1.12114 0.09699 0.00716658)
(1.14814 0.207421 0.00663322)
(1.12167 0.0974888 0.00652673)
(1.14853 0.208133 0.00275232)
(1.10228 0.137835 0.00958817)
(1.10542 0.142298 0.00995734)
(1.12545 0.102444 0.0065173)
(1.1535 0.212869 0.00324632)
(1.12443 0.101621 0.00806223)
(1.10598 0.143372 0.00194183)
(1.15194 0.211743 0.00757484)
(1.54136 0.0809982 0.0263284)
(1.28622 0.25133 0.00112881)
(1.28737 0.25236 0.00633499)
(1.5397 0.0803684 -0.0221186)
(1.58792 0.0170088 -0.0279028)
(1.57295 -0.124938 0.0341985)
(1.5919 0.0169501 0.0328733)
(1.56971 -0.123991 -0.0331138)
(1.54436 0.0825913 -0.0211244)
(1.29303 0.255403 0.00700108)
(1.54834 0.0829508 0.0273525)
(1.29006 0.254335 0.00242983)
(1.58495 0.0157069 0.0320356)
(1.56621 -0.123813 -0.0342684)
(1.58335 0.0154064 -0.0289392)
(1.56751 -0.12426 0.0343587)
(1.10187 -0.129589 0.00988551)
(1.15075 -0.20103 -0.000209782)
(1.11483 -0.0879805 0.00332798)
(1.10257 -0.129885 -0.000751694)
(1.14919 -0.200798 0.00765206)
(1.11402 -0.0878769 0.00643333)
(1.10071 -0.133502 0.00244365)
(1.1467 -0.205917 0.00591844)
(1.1123 -0.0910278 0.00715426)
(1.1003 -0.133611 0.00961607)
(1.14689 -0.206068 0.00387389)
(1.11285 -0.0908075 0.0048653)
(1.10209 0.139375 0.00872706)
(1.12183 0.099388 0.00376309)
(1.14851 0.208999 0.00150732)
(1.10254 0.139807 5.76244e-05)
(1.12117 0.0989573 0.00599802)
(1.14752 0.208462 0.00625414)
(1.1005 0.137296 0.000750891)
(1.11924 0.0962719 0.00632383)
(1.14483 0.206073 0.00617773)
(1.11969 0.0966212 0.00479534)
(1.14546 0.206503 0.00184711)
(1.1 0.136836 0.00907584)
(1.53777 0.081369 -0.0222445)
(1.28663 0.252276 0.005181)
(1.54021 0.0814287 0.025658)
(1.28481 0.251915 0.00134025)
(1.58012 0.016166 0.0311201)
(1.56225 -0.12276 -0.0353628)
(1.56355 -0.123166 0.0332358)
(1.57837 0.0163185 -0.0296664)
(1.58169 0.0164669 -0.02907)
(1.56643 -0.123619 0.033279)
(1.58394 0.0163387 0.0312938)
(1.56477 -0.123162 -0.0344347)
(1.53609 0.0809185 0.0254571)
(1.28178 0.250535 0.000989446)
(1.28321 0.250966 0.00540324)
(1.53414 0.0808785 -0.0227243)
(1.09781 0.135918 0.00209043)
(1.11723 0.0951167 0.00880643)
(1.14052 0.204339 0.00840916)
(1.11781 0.0956409 0.00621545)
(1.14151 0.20487 0.00313249)
(1.09735 0.135341 0.0115548)
(1.0991 0.1371 0.00963246)
(1.11931 0.0972632 0.00425493)
(1.14427 0.206469 0.00180321)
(1.11871 0.0968331 0.00676424)
(1.09958 0.137496 0.000494351)
(1.14325 0.206009 0.00685381)
(1.52955 0.0815719 0.025917)
(1.2758 0.249739 0.00341318)
(1.27802 0.250124 0.00626095)
(1.52634 0.0817527 -0.0212987)
(1.57548 0.0170101 -0.0293783)
(1.5616 -0.122734 0.0327788)
(1.57792 0.0167333 0.0308887)
(1.55982 -0.122268 -0.0357104)
(1.53096 0.0815107 -0.0222718)
(1.28136 0.250806 0.00521216)
(1.53364 0.0813708 0.0252852)
(1.27939 0.250585 0.00191935)
(1.57419 0.0170987 0.0314464)
(1.55632 -0.121647 -0.0359734)
(1.57117 0.0174536 -0.0286508)
(1.55867 -0.122309 0.0329611)
(1.09614 -0.128552 0.0157418)
(1.14142 -0.199807 0.00587844)
(1.10979 -0.0892355 0.00844784)
(1.09629 -0.129337 0.00462443)
(1.1403 -0.199089 0.012775)
(1.10923 -0.0888405 0.0132409)
(1.09441 -0.127911 0.0111995)
(1.13765 -0.198289 0.0122287)
(1.10844 -0.0888528 0.0154054)
(1.09587 0.134095 0.0149529)
(1.11672 0.0950866 0.0085415)
(1.13877 0.203797 0.00538725)
(1.09616 0.134913 0.00431498)
(1.11604 0.094345 0.0123952)
(1.13736 0.203036 0.0117842)
(1.09401 0.132779 0.0102338)
(1.11509 0.0935462 0.0152692)
(1.13454 0.201684 0.0110257)
(1.51962 0.0825711 -0.0187188)
(1.27436 0.249552 0.0081105)
(1.52478 0.0820364 0.0272762)
(1.27103 0.249046 0.00711553)
(1.56228 0.0186735 0.0350444)
(1.54851 -0.120906 0.0335471)
(1.56468 0.0184983 -0.026569)
(1.55493 -0.121819 0.0332744)
(1.56973 0.0176905 0.0326127)
(1.55073 -0.120544 -0.0360526)
(1.517 0.0827873 0.0302767)
(1.26858 0.248499 0.0126381)
(1.12138 -0.172096 0.0230072)
(1.1122 -0.661132 0.0512795)
(0.798772 -0.117785 0.0433384)
(1.12576 -0.656836 0.0273656)
(0.809773 -0.104997 0.0150767)
(1.10784 -0.179867 0.0238869)
(0.725154 -0.126465 0.0865596)
(0.152641 0.178964 0.0243646)
(0.857264 -0.495076 0.156957)
(0.677354 0.0615267 0.0195833)
(0.0601167 0.0389953 -0.043689)
(0.654327 0.111146 -0.141012)
(0.571832 0.111867 -0.190129)
(1.08005 -0.192685 0.00525415)
(1.08504 -0.643205 0.0202328)
(0.791441 -0.129061 0.0229606)
(1.07859 -0.644535 -0.0139288)
(0.783227 -0.131032 -0.0104987)
(1.0882 -0.190795 0.00865693)
(1.08679 -0.186244 0.00782895)
(1.09442 -0.645457 -0.0127409)
(0.795118 -0.125828 -0.0107896)
(1.0956 -0.186316 0.00345172)
(1.08575 -0.644187 0.025701)
(0.787106 -0.125734 0.0235534)
(0.615149 0.109677 -0.0854048)
(0.621979 0.109861 0.0158808)
(0.608557 0.107744 0.034928)
(0.5921 0.108055 -0.0710219)
(1.07518 -0.18625 0.00669769)
(1.07814 -0.628727 0.024311)
(0.793634 -0.126894 0.0254267)
(1.07185 -0.629856 -0.0111353)
(0.785717 -0.128199 -0.00846034)
(1.08298 -0.185058 0.0117351)
(1.07718 -0.185842 0.00539559)
(1.0816 -0.633116 -0.0133657)
(0.793201 -0.126049 -0.0132433)
(1.08556 -0.185274 0.000457697)
(1.07407 -0.632699 0.0231859)
(0.785435 -0.126895 0.0209906)
(0.599532 0.108997 -0.0692839)
(0.601964 0.110566 0.0432487)
(0.603275 0.110437 0.035795)
(0.58763 0.110051 -0.0665419)
(0.905814 -0.178643 0.0403793)
(1.37084 -0.851255 0.0586155)
(1.40264 -0.854994 0.035409)
(0.867174 -0.166527 -0.0125553)
(0.0795546 0.00646502 -0.0215275)
(0.0310223 -0.0104913 -0.0225208)
(0.554547 0.0446247 -0.160272)
(0.576752 0.0829417 -0.119542)
(0.511089 0.0847038 -0.170035)
(0.612402 0.0421948 -0.0957482)
(0.944988 -0.29104 -0.00711114)
(1.04725 -0.678292 0.0876797)
(1.1246 0.21991 0.021401)
(0.815856 0.161665 0.0426292)
(1.13211 0.668596 0.0422413)
(0.804231 0.176805 0.00101496)
(1.12484 0.683221 0.00087763)
(1.13645 0.210132 0.0279149)
(1.00757 0.203839 0.0884498)
(0.305194 0.222015 0.0508308)
(0.606643 0.554417 -0.121397)
(0.635476 0.230538 0.0805847)
(1.01624 0.587262 -0.129588)
(0.475408 0.253191 0.0657992)
(0.81225 0.162714 0.0170674)
(1.36909 0.850418 0.0443879)
(1.35976 0.871455 -0.00658076)
(0.835335 0.166551 -0.0195042)
(0.328908 -0.0461099 0.0905775)
(0.227472 -0.100035 0.0396292)
(0.394401 -0.0685475 0.134929)
(0.307813 -0.0766287 0.044413)
(0.489569 -0.0505871 -0.0712048)
(0.511283 -0.0857612 0.0116429)
(0.512366 -0.0462003 0.007636)
(0.49933 -0.0872481 -0.0739056)
(0.782831 0.171916 -0.102437)
(0.622757 0.447636 -0.075044)
(1.31918 0.783484 -0.182562)
(0.620732 0.0615149 -0.0185784)
(1.10105 -0.190091 0.0312325)
(1.11148 -0.661331 0.0131397)
(0.801064 -0.128292 0.0107842)
(1.10847 -0.186969 0.0264554)
(1.10435 -0.658688 0.0469709)
(0.793895 -0.12946 0.0429209)
(1.08839 -0.195176 0.0117174)
(1.09436 -0.652386 0.0243681)
(0.793973 -0.130483 0.0274643)
(1.09577 -0.193502 0.0132942)
(1.0892 -0.654013 -0.00829473)
(0.786331 -0.132291 -0.00440082)
(0.859609 -0.163659 -0.0187981)
(1.3726 -0.850073 0.00942381)
(0.874143 -0.168014 0.0210377)
(1.35906 -0.842645 0.0491937)
(0.520268 0.0464553 -0.0756707)
(0.530876 0.0817084 0.00214136)
(0.506829 0.0825075 -0.0771055)
(0.545887 0.0432366 0.00510321)
(0.620828 0.0461945 -0.0496333)
(0.587982 0.0879822 -0.136227)
(0.618933 0.0481862 -0.138888)
(0.58325 0.0867406 -0.0610829)
(0.828246 -0.159919 0.0179942)
(1.34332 -0.835282 0.0255958)
(1.33758 -0.838324 -0.0129085)
(0.833951 -0.161362 -0.0240577)
(1.09569 0.193985 0.0129788)
(0.799971 0.147747 0.00234401)
(1.11524 0.655435 0.00392734)
(1.11533 0.195694 0.0143944)
(0.784095 0.14783 0.0356742)
(1.09802 0.652456 0.037362)
(1.08852 0.186552 0.00993423)
(0.788915 0.141248 0.0285574)
(1.09596 0.641288 0.0257347)
(0.780275 0.141929 -0.00728793)
(1.08899 0.641652 -0.010189)
(1.0971 0.185901 0.0115339)
(0.816937 0.160545 -0.0130321)
(1.35974 0.84393 -0.000497534)
(0.834683 0.166041 0.0206849)
(1.33196 0.835288 0.0417326)
(0.512837 -0.0459969 -0.0585123)
(0.516755 -0.0821663 0.0487052)
(0.507318 -0.0832089 -0.0639606)
(0.522488 -0.0441365 0.0431184)
(0.508107 -0.0482048 0.0221334)
(0.493712 -0.0855744 -0.0735133)
(0.489977 -0.0478886 -0.0731568)
(0.50506 -0.0854456 0.0255019)
(0.81604 0.160691 0.0209833)
(1.33151 0.824958 0.0295845)
(1.32287 0.825721 -0.0144903)
(0.821639 0.16231 -0.015804)
(0.24468 -0.116922 0.0519666)
(0.466809 -0.0848948 0.158204)
(0.595663 -0.111799 0.0112063)
(0.580919 -0.113568 -0.0810734)
(0.611949 0.107578 -0.000867199)
(0.583941 0.107558 -0.0839613)
(0.669987 0.115239 -0.149349)
(0.663505 0.113371 -0.0731464)
(0.600316 -0.107778 0.0536819)
(0.588679 -0.108565 -0.0697412)
(0.576232 -0.111074 -0.0794524)
(0.586303 -0.110771 0.0272939)
(0.814948 -0.155376 0.0185821)
(1.32952 -0.824842 0.0228501)
(1.32096 -0.826736 -0.0189779)
(0.823482 -0.157241 -0.0216035)
(0.55697 0.046181 0.0181781)
(0.533208 0.0839547 -0.0780438)
(0.540714 0.0843234 0.0169293)
(0.547995 0.0453102 -0.0758447)
(0.82993 -0.158465 -0.0192646)
(1.3442 -0.830461 -0.0198501)
(1.33146 -0.827258 0.0293763)
(0.83968 -0.161275 0.0139071)
(0.521261 0.0469305 -0.0603647)
(0.526037 0.0823496 0.0332389)
(0.512295 0.0831658 -0.065154)
(0.535306 0.0446156 0.0303927)
(1.08499 0.183489 0.00541246)
(0.788305 0.139297 0.0244895)
(1.09106 0.634644 0.0219786)
(0.779936 0.139618 -0.011776)
(1.08402 0.6347 -0.0141141)
(1.09347 0.183015 0.0077528)
(1.08916 0.189657 0.0063894)
(0.790152 0.143977 -0.0117784)
(1.09713 0.642818 -0.0104356)
(0.781884 0.145434 0.0248288)
(1.09808 0.188103 0.00437136)
(1.08933 0.642965 0.0261582)
(0.810144 0.159849 0.020073)
(1.32394 0.818826 0.0258928)
(1.31501 0.8187 -0.018493)
(0.815827 0.161657 -0.016917)
(0.516597 -0.0459842 0.0426399)
(0.511185 -0.0815514 -0.0634909)
(0.516098 -0.0437076 -0.0563526)
(0.512153 -0.0829349 0.0482375)
(0.810567 0.159863 -0.0156663)
(1.33255 0.826624 -0.0142586)
(0.821945 0.162979 0.0225778)
(1.32106 0.825708 0.0300694)
(0.513842 -0.0448039 -0.0551644)
(0.516296 -0.0812332 0.0504939)
(0.520231 -0.04304 0.0445516)
(0.509245 -0.0820583 -0.0619682)
(1.08058 -0.186149 0.00470342)
(1.08601 -0.638657 -0.0149439)
(0.793098 -0.1258 -0.0139896)
(1.08906 -0.186057 -8.52669e-05)
(1.07811 -0.637947 0.0227312)
(0.785138 -0.126177 0.0206391)
(1.07694 -0.189147 0.00436764)
(1.08108 -0.635637 0.0208335)
(0.792038 -0.127571 0.0226673)
(1.08503 -0.187654 0.00858614)
(1.07443 -0.636733 -0.0140185)
(0.783883 -0.129129 -0.0110596)
(0.818575 -0.154567 -0.0180118)
(1.33052 -0.821808 -0.0214475)
(0.826745 -0.157238 0.0166436)
(1.31949 -0.819851 0.0268625)
(0.51718 0.0479419 -0.0562775)
(0.522602 0.0837389 0.0415154)
(0.511489 0.0842499 -0.0617582)
(0.5282 0.0460689 0.037411)
(0.537411 0.0472499 0.0347584)
(0.523612 0.0834449 -0.0672352)
(0.533104 0.0457989 -0.062362)
(0.52754 0.0844431 0.0377976)
(0.810934 -0.152088 0.0197179)
(1.32229 -0.816495 0.0245047)
(1.31351 -0.818063 -0.0191368)
(0.819143 -0.15377 -0.0190385)
(1.08541 0.185846 0.00429053)
(0.789311 0.141294 -0.0143893)
(1.09179 0.635607 -0.0131213)
(1.0941 0.184532 0.00157707)
(0.780981 0.142418 0.0222467)
(1.08421 0.635596 0.0234254)
(1.08293 0.181734 0.00462667)
(0.788784 0.13779 0.0238837)
(1.08711 0.628858 0.0213551)
(0.780574 0.138519 -0.0123159)
(1.08045 0.629367 -0.0146057)
(1.09119 0.180937 0.00734934)
(0.805236 0.15918 -0.0166829)
(1.32433 0.819807 -0.0174726)
(0.815778 0.161974 0.0210803)
(1.31359 0.81911 0.0271385)
(0.506225 -0.0441965 -0.0549589)
(0.512881 -0.0810033 0.0460475)
(0.505029 -0.0815936 -0.0614948)
(0.513231 -0.0424651 0.0409072)
(0.514563 -0.0449236 0.0431182)
(0.512002 -0.0808217 -0.0627079)
(0.515692 -0.0427667 -0.0551078)
(0.511656 -0.0822243 0.0485593)
(0.802307 0.159034 0.0192678)
(1.31691 0.814153 0.0251199)
(1.30862 0.814503 -0.0192971)
(0.808079 0.160852 -0.0176636)
(0.594637 -0.107068 -0.0696971)
(0.594254 -0.108287 0.0531615)
(0.600504 -0.106951 0.0558496)
(0.591392 -0.107477 -0.0679876)
(0.605957 0.108978 0.0439166)
(0.592261 0.109025 -0.067125)
(0.605889 0.108669 -0.0734989)
(0.608995 0.109605 0.0398129)
(0.598178 -0.106881 0.050668)
(0.588012 -0.107134 -0.0674916)
(0.59605 -0.106466 -0.0690382)
(0.594424 -0.107744 0.0535702)
(0.807179 -0.14882 0.0209835)
(1.31566 -0.808278 0.0287191)
(1.30787 -0.810256 -0.0163754)
(0.813924 -0.149993 -0.016718)
(0.525078 0.0487585 0.0379816)
(0.516804 0.0840091 -0.0636113)
(0.519974 0.0856018 0.0412716)
(0.522121 0.0466944 -0.0580086)
(0.811765 -0.150876 -0.0167912)
(1.32268 -0.815003 -0.0191886)
(1.31204 -0.81332 0.0275928)
(0.820324 -0.15366 0.0191563)
(0.507288 0.049447 -0.0566316)
(0.51896 0.0854578 0.0348923)
(0.506165 0.0855609 -0.0614839)
(0.520076 0.0480737 0.0332435)
(1.08019 0.179025 0.0066923)
(0.789068 0.135298 0.0262461)
(1.08151 0.621965 0.0237959)
(0.781038 0.136391 -0.0100299)
(1.07549 0.62295 -0.0122452)
(1.08814 0.177998 0.00997054)
(1.08249 0.182264 0.00463841)
(0.789351 0.13855 -0.0139531)
(1.08709 0.628768 -0.0129465)
(0.781058 0.139288 0.0224123)
(1.09123 0.181324 0.00167183)
(1.07937 0.628428 0.0232456)
(0.792127 0.15796 0.0193406)
(1.30728 0.808667 0.0276493)
(1.30026 0.809887 -0.0172125)
(0.796879 0.159498 -0.0172063)
(0.5072 -0.0445101 0.0390435)
(0.507078 -0.0805 -0.0626906)
(0.507096 -0.0422805 -0.0555915)
(0.508136 -0.0821213 0.0430382)
(0.797308 0.158281 -0.0170759)
(1.31676 0.814473 -0.0177643)
(0.807733 0.161072 0.0200551)
(1.30573 0.813439 0.0268454)
(0.493907 -0.0441985 -0.0563822)
(0.509466 -0.0811629 0.0338231)
(0.504319 -0.04279 0.0321967)
(0.497999 -0.0813274 -0.0618895)
(1.07436 -0.184708 0.00996918)
(1.07801 -0.627169 -0.00881764)
(0.794037 -0.126384 -0.00896505)
(1.08279 -0.18386 0.00447287)
(1.07039 -0.626742 0.0273779)
(0.786417 -0.127442 0.0249918)
(0.803981 -0.146808 -0.0151442)
(1.31583 -0.807789 -0.0142937)
(0.814272 -0.150114 0.0214985)
(1.30426 -0.805578 0.0321561)
(0.51427 0.0507962 0.0285398)
(0.508609 0.0849949 -0.0638826)
(0.508329 0.0480934 -0.0591163)
(0.514788 0.0871394 0.0286899)
(1.07862 0.178307 0.00871471)
(0.78904 0.13527 -0.0101283)
(1.08081 0.621095 -0.00939717)
(1.08755 0.177526 0.00515945)
(0.780904 0.135718 0.026095)
(1.07272 0.62044 0.0269131)
(0.785077 0.156726 -0.0160785)
(1.30703 0.808836 -0.0144964)
(0.796759 0.159911 0.0202935)
(1.29484 0.806935 0.0307622)
(0.498118 -0.0450658 0.0269395)
(0.499485 -0.080253 -0.0636848)
(0.493463 -0.0423981 -0.0581788)
(0.505081 -0.082286 0.0267523)
(0.592036 -0.106265 -0.0689809)
(0.592085 -0.107786 0.0469779)
(0.596411 -0.106998 0.0362902)
(0.58224 -0.106822 -0.067764)
(0.591986 0.109626 -0.0692823)
(0.597769 0.111787 0.0285531)
(0.58582 -0.105904 -0.0698465)
(0.590839 -0.107855 0.0280668)
(1.17052 -0.166393 0.0382124)
(1.18609 -0.656412 0.0276602)
(0.860487 -0.0983022 -0.00424935)
(1.19894 -0.150542 0.0263062)
(1.16555 -0.650448 0.0689888)
(0.843375 -0.100694 0.0465608)
(1.0718 -0.0864666 0.0760866)
(1.26245 -0.539427 0.0164314)
(0.95949 -0.0311869 0.0275593)
(1.27491 -0.087341 0.0399655)
(1.10532 -0.463638 -0.0903094)
(0.82564 2.34116e-05 -0.072628)
(0.738445 -0.12293 0.133671)
(0.832737 -0.366012 0.192536)
(0.680888 0.00275353 -0.0513357)
(0.685216 0.105638 -0.274867)
(0.356587 0.0622115 -0.0622969)
(0.713735 0.121828 -0.257328)
(0.6208 0.113696 -0.206087)
(1.07986 -0.193098 0.00752248)
(1.08611 -0.645219 -0.00879425)
(0.791068 -0.128907 -0.010354)
(1.08898 -0.190784 0.0038175)
(1.07849 -0.645567 0.0253234)
(0.782459 -0.131233 0.0233306)
(1.08541 -0.185864 0.00674168)
(1.08947 -0.642045 0.0268024)
(0.793497 -0.125342 0.0260828)
(1.09219 -0.185938 0.0117924)
(1.084 -0.642978 -0.0115452)
(0.78664 -0.125616 -0.00886164)
(0.624116 0.109025 0.0341016)
(0.606956 0.109955 -0.0781549)
(0.598394 0.107078 -0.0734594)
(0.604257 0.108976 0.0352367)
(1.07504 -0.186756 0.00752605)
(1.07908 -0.630926 -0.0102617)
(0.792938 -0.126799 -0.0110102)
(1.08351 -0.185525 0.00258076)
(1.07178 -0.630848 0.0250469)
(0.785087 -0.128288 0.0228295)
(1.07677 -0.185623 0.00467773)
(1.07991 -0.630942 0.0233954)
(0.7933 -0.126022 0.023967)
(1.08436 -0.184772 0.00994805)
(1.07358 -0.631886 -0.0129173)
(0.785614 -0.126982 -0.0103983)
(0.606444 0.109974 0.0442226)
(0.592835 0.109968 -0.0668185)
(0.595278 0.109147 -0.0677736)
(0.598509 0.111068 0.0397792)
(0.91922 -0.151354 0.0279478)
(0.700763 -0.061076 -0.0290495)
(0.710148 -0.0674082 -0.0394094)
(0.880364 -0.139126 -0.0233235)
(0.932605 -0.181184 0.00347117)
(1.47221 -0.851035 0.0250252)
(1.42908 -0.848998 0.0843287)
(0.972327 -0.194242 0.045581)
(0.949389 -0.155932 -0.00898412)
(0.782719 -0.0777511 -0.0502184)
(0.750458 -0.0724514 -0.0312589)
(0.994651 -0.169035 0.0291306)
(0.984872 -0.076793 -0.0292061)
(0.643607 -0.0288967 -0.0110775)
(0.462142 -0.00860514 -0.104305)
(0.587703 0.0715978 -0.207945)
(0.338355 0.0420663 -0.0595829)
(0.563847 0.0132245 -0.122615)
(0.0895206 0.0177416 -0.0228121)
(0.233943 -0.0380236 -0.0456492)
(0.510199 -0.0227965 -0.102494)
(0.786809 -0.0899957 -0.0581905)
(0.549265 -0.0113451 -0.0807337)
(0.808569 -0.0855097 -0.0974558)
(1.0019 -0.106209 -0.0418182)
(1.42517 -0.301954 -0.0340126)
(0.54344 0.0221205 -0.120761)
(0.713536 -0.0379707 -0.042392)
(0.703667 -0.0423447 -0.0765729)
(0.579682 0.0206889 -0.0650628)
(0.603555 0.0417143 -0.133548)
(0.640628 0.0926097 -0.220818)
(0.554332 0.0869011 -0.174452)
(0.669654 0.0464419 -0.187362)
(0.586583 0.0174404 -0.0877896)
(0.78699 -0.0524552 -0.0900482)
(0.753267 -0.0489068 -0.0513256)
(0.6317 0.0205651 -0.139185)
(1.05888 -0.218043 -0.01502)
(1.52255 -0.748096 0.0341215)
(1.32372 -0.659584 -0.0599959)
(1.08199 -0.222502 -0.0162335)
(1.48061 -0.570424 0.0729869)
(0.94465 -0.452322 0.190044)
(0.83845 -0.227918 -0.0271422)
(0.366571 -0.0654796 -0.0349578)
(1.09223 -0.198346 -0.0402652)
(0.821114 -0.111161 -0.0412485)
(1.10246 -0.205025 -0.0273088)
(0.825082 -0.102226 -0.0630625)
(1.72888 -0.60808 0.0475431)
(1.35541 -0.320746 -0.0168511)
(1.09289 0.218331 0.000959934)
(0.823498 0.179387 -0.0131751)
(1.16071 0.70677 0.00852283)
(0.778538 0.180458 0.0295915)
(1.1557 0.219247 -0.0100188)
(1.10535 0.694394 0.0358219)
(1.25243 0.213404 0.0341431)
(1.00596 0.199377 0.0508483)
(1.34273 0.707776 0.0150566)
(0.893467 0.200881 -0.0254527)
(1.37095 0.234725 0.0359703)
(1.25206 0.666764 -0.134231)
(0.801074 0.130369 0.012784)
(0.625204 0.0584821 -0.0115327)
(0.589599 0.0528961 -0.016963)
(0.830274 0.135901 -0.0247701)
(0.796086 0.154251 -0.0196472)
(1.43423 0.90032 -0.000435098)
(1.34023 0.872892 0.0403523)
(0.827492 0.166148 0.0277207)
(0.790077 0.122411 -0.0241854)
(0.597157 0.0550352 6.8422e-05)
(0.602265 0.0499902 -0.0082635)
(0.812192 0.132043 0.0269276)