/*--------------------------------*- C++ -*----------------------------------*\
| =========                 |                                                 |
| \\      /  F ield         | OpenFOAM: The Open Source CFD Toolbox           |
|  \\    /   O peration     | Version:  2012                                  |
|   \\  /    A nd           | Website:  www.openfoam.com                      |
|    \\/     M anipulation  |                                                 |
\*---------------------------------------------------------------------------*/
FoamFile
{
    version     2.0;
    format      ascii;
    class       surfaceVectorField;
    location    "0.107/fluid";
    object      Uf;
}
// * * * * * * * * * * * * * * * * * * * * * * * * * * * * * * * * * * * * * //

dimensions      [0 1 -1 0 0 0 0];


internalField   nonuniform List<vector> 
46880
(
(1.19995 4.72708e-06 2.0982e-05)
(1.19998 9.06006e-06 3.60688e-05)
(1.19994 4.35981e-06 2.09954e-05)
(1.19996 4.53897e-06 2.43732e-05)
(1.19974 8.0765e-05 5.13505e-05)
(1.19981 6.45868e-05 5.6589e-05)
(1.19976 9.25282e-05 4.55231e-05)
(1.19974 7.75782e-05 5.20868e-05)
(1.19989 8.06055e-05 5.46558e-05)
(1.19944 0.000143724 2.60226e-05)
(1.19967 0.00013656 2.66055e-05)
(1.19965 0.000147812 2.63145e-05)
(1.19945 0.00013847 2.65673e-05)
(1.19966 0.000142323 3.01346e-05)
(1.19952 0.000207749 2.60894e-05)
(1.19958 0.000195337 2.63517e-05)
(1.19956 0.000215048 2.65139e-05)
(1.19953 0.000200299 2.65699e-05)
(1.1998 0.00020542 3.25012e-05)
(1.19946 0.000306687 2.73793e-05)
(1.19949 0.000287431 2.71145e-05)
(1.19946 0.000317116 2.84625e-05)
(1.19948 0.000294766 2.78474e-05)
(1.1998 0.000302171 3.84428e-05)
(1.19934 0.000461992 3.29982e-05)
(1.19938 0.000431523 3.27496e-05)
(1.19935 0.000479487 3.41338e-05)
(1.19939 0.000444245 3.31653e-05)
(1.19974 0.000454515 5.09674e-05)
(1.19919 0.000708745 4.45657e-05)
(1.19924 0.000660484 4.24653e-05)
(1.1992 0.000736835 4.58755e-05)
(1.19926 0.00068087 4.36787e-05)
(1.19966 0.00069526 7.17659e-05)
(1.19898 0.00109854 6.15673e-05)
(1.19906 0.00102241 5.79173e-05)
(1.19901 0.00114092 6.36746e-05)
(1.19909 0.00105278 5.97735e-05)
(1.19956 0.00107591 0.00010291)
(1.19869 0.00170771 9.19948e-05)
(1.19882 0.00158554 8.49768e-05)
(1.19875 0.00177055 9.52626e-05)
(1.19888 0.00163093 8.75143e-05)
(1.19942 0.00166661 0.000154136)
(1.19828 0.00265405 0.000145813)
(1.19849 0.00246182 0.00013404)
(1.19838 0.0027457 0.0001491)
(1.19859 0.00252747 0.000136406)
(1.19925 0.00258302 0.000238742)
(1.19768 0.00410863 0.000233738)
(1.19801 0.00380492 0.000211038)
(1.19786 0.00424217 0.000240334)
(1.19818 0.00389992 0.000215385)
(1.19904 0.00398586 0.000373294)
(1.19667 0.00638027 0.000432053)
(1.19723 0.00590269 0.000372727)
(1.19694 0.00661473 0.000444176)
(1.19751 0.00606421 0.000377566)
(1.19873 0.00615631 0.000635065)
(1.19415 0.0104532 0.00110467)
(1.19547 0.00961038 0.000859363)
(1.19467 0.0111024 0.00111663)
(1.19602 0.00999786 0.000855262)
(1.19795 0.00990423 0.00131129)
(1.18648 0.0219994 0.00370057)
(1.19092 0.019233 0.00256472)
(1.18949 0.0243091 0.00330712)
(1.19626 0.0194159 0.00339066)
(1.19319 0.0201275 0.00239323)
(1.19152 0.0799833 0.00863981)
(1.19941 0.0545204 0.00478029)
(1.22509 0.072522 0.00296794)
(1.21569 0.054286 0.00486558)
(1.21118 0.047482 0.00374334)
(1.19994 2.93201e-06 2.10965e-05)
(1.19998 3.85375e-06 3.64498e-05)
(1.19994 1.64092e-06 2.11625e-05)
(1.19996 2.05203e-06 2.44983e-05)
(1.19975 5.95601e-05 5.38087e-05)
(1.19982 4.16924e-05 5.87191e-05)
(1.19977 6.41438e-05 4.77853e-05)
(1.19975 5.13595e-05 5.42425e-05)
(1.1999 5.40996e-05 5.5818e-05)
(1.19947 0.000111985 2.77448e-05)
(1.1997 0.000101662 2.83055e-05)
(1.19968 0.00011047 2.77867e-05)
(1.19947 0.00010012 2.79489e-05)
(1.1997 0.000106002 3.03409e-05)
(1.19958 0.000163229 2.73114e-05)
(1.19964 0.000147705 2.73147e-05)
(1.19962 0.000163085 2.74318e-05)
(1.19959 0.000146459 2.72704e-05)
(1.19987 0.000155088 3.19439e-05)
(1.19956 0.000239937 2.92866e-05)
(1.19958 0.000217626 2.9052e-05)
(1.19957 0.000241333 2.99943e-05)
(1.19958 0.000216599 2.96385e-05)
(1.19991 0.000229233 3.88609e-05)
(1.1995 0.000362414 3.3091e-05)
(1.19953 0.000328747 3.22557e-05)
(1.19951 0.000364029 3.36422e-05)
(1.19954 0.000326559 3.27347e-05)
(1.19992 0.000344993 4.85933e-05)
(1.19945 0.00055215 4.10584e-05)
(1.19949 0.000498801 3.95029e-05)
(1.19948 0.000555162 4.20813e-05)
(1.19951 0.000496727 4.03921e-05)
(1.19994 0.000524764 6.43961e-05)
(1.19941 0.000847575 5.54489e-05)
(1.19946 0.000765135 5.28176e-05)
(1.19946 0.000851992 5.68755e-05)
(1.1995 0.000761068 5.4144e-05)
(1.19999 0.000804398 9.01022e-05)
(1.19939 0.00130697 7.64468e-05)
(1.19946 0.00117841 7.19254e-05)
(1.19947 0.00131261 7.80863e-05)
(1.19953 0.00117183 7.32947e-05)
(1.20009 0.00123766 0.00012786)
(1.19941 0.00200907 0.000110419)
(1.19951 0.00181017 0.000102004)
(1.19954 0.00201407 0.000112043)
(1.19963 0.00179727 0.000103488)
(1.20028 0.00189705 0.000182924)
(1.1995 0.00308047 0.000165544)
(1.19967 0.00277272 0.000150598)
(1.19973 0.00308597 0.000166124)
(1.19986 0.00275033 0.000151165)
(1.20065 0.00290039 0.000265963)
(1.19975 0.00475774 0.000248774)
(1.2 0.00426679 0.000220924)
(1.20014 0.00476189 0.000242744)
(1.20035 0.00422415 0.000216298)
(1.20132 0.00445319 0.000383305)
(1.20048 0.00753772 0.000389559)
(1.20086 0.00667229 0.000324585)
(1.20128 0.00748035 0.000358598)
(1.20151 0.00654631 0.00030481)
(1.20272 0.00693094 0.000546917)
(1.20349 0.0120408 0.000613371)
(1.20365 0.0103774 0.000462345)
(1.20501 0.0113552 0.000477218)
(1.20489 0.00986939 0.000394641)
(1.20635 0.0105728 0.000714365)
(1.215 0.0141105 0.000473482)
(1.21173 0.0120407 0.000310205)
(1.21478 0.0103811 0.00016528)
(1.21498 0.011186 0.000392486)
(1.21385 0.010446 0.000208664)
(1.19994 -1.11572e-06 2.13445e-05)
(1.19998 -1.22101e-05 3.68914e-05)
(1.19994 -3.66408e-06 2.14338e-05)
(1.19996 -6.33784e-06 2.47319e-05)
(1.19976 1.84949e-05 5.51953e-05)
(1.19982 -9.39541e-06 5.99299e-05)
(1.19978 5.95747e-06 4.89899e-05)
(1.19977 6.13383e-06 5.53507e-05)
(1.19991 -1.87108e-06 5.66887e-05)
(1.19949 5.80715e-05 2.81862e-05)
(1.19972 3.81062e-05 2.88194e-05)
(1.1997 4.50085e-05 2.79472e-05)
(1.19949 4.24958e-05 2.81333e-05)
(1.19972 4.14798e-05 2.99536e-05)
(1.19962 8.80614e-05 2.71799e-05)
(1.19967 6.7303e-05 2.7179e-05)
(1.19966 7.54318e-05 2.73048e-05)
(1.19962 6.66944e-05 2.70838e-05)
(1.19991 7.11276e-05 3.1021e-05)
(1.19963 0.00013223 3.00504e-05)
(1.19964 0.00010651 2.95392e-05)
(1.19964 0.000119531 3.01822e-05)
(1.19964 0.000100338 2.99756e-05)
(1.19998 0.000112736 3.81065e-05)
(1.19962 0.000197421 3.30265e-05)
(1.19963 0.000163959 3.22379e-05)
(1.19963 0.000182176 3.40451e-05)
(1.19964 0.000150124 3.31274e-05)
(1.20003 0.000172681 4.72931e-05)
(1.19963 0.000301323 3.94515e-05)
(1.19964 0.000251773 3.87456e-05)
(1.19965 0.000280021 4.0625e-05)
(1.19966 0.000228671 3.94555e-05)
(1.20012 0.000265394 6.0686e-05)
(1.1997 0.000460046 5.10812e-05)
(1.19971 0.000385538 4.93417e-05)
(1.19973 0.000429696 5.20889e-05)
(1.19974 0.000349019 5.03366e-05)
(1.20026 0.000405483 8.19987e-05)
(1.19984 0.000704069 6.61582e-05)
(1.19985 0.00059216 6.30578e-05)
(1.19991 0.000658897 6.76296e-05)
(1.19991 0.000533906 6.44863e-05)
(1.2005 0.000621445 0.000110821)
(1.20013 0.00107603 8.83755e-05)
(1.20014 0.000906085 8.3505e-05)
(1.20025 0.001007 8.97451e-05)
(1.20024 0.000815106 8.49545e-05)
(1.20092 0.000949183 0.000149512)
(1.20066 0.00163596 0.000118325)
(1.20067 0.00137763 0.000110688)
(1.20085 0.00152767 0.000117837)
(1.20083 0.00123644 0.000111167)
(1.20162 0.00143885 0.000198949)
(1.20163 0.0024648 0.000147839)
(1.20162 0.00207158 0.00013705)
(1.20195 0.00228654 0.000142282)
(1.20189 0.00185297 0.000133976)
(1.2028 0.0021551 0.000248953)
(1.20342 0.0035951 0.000162794)
(1.20333 0.00301484 0.000149151)
(1.20394 0.00326898 0.000146686)
(1.20376 0.00266306 0.000138752)
(1.2048 0.00310867 0.00027889)
(1.20669 0.00459705 0.000127738)
(1.20633 0.00388553 0.000116693)
(1.20729 0.00395453 9.74039e-05)
(1.20688 0.00332588 9.7043e-05)
(1.208 0.00390511 0.000237825)
(1.21153 0.00361985 1.50385e-05)
(1.21024 0.00311143 1.33806e-05)
(1.2111 0.00233415 -1.11874e-05)
(1.21082 0.00260614 4.00142e-07)
(1.21168 0.00277367 9.39844e-05)
(1.19997 4.47057e-06 6.36418e-06)
(1.19997 4.6275e-06 5.12304e-06)
(1.2 9.00292e-06 9.34263e-06)
(1.19997 4.32e-06 5.0896e-06)
(1.19997 4.43714e-06 7.61372e-06)
(1.19996 8.00734e-05 6.15319e-05)
(1.19996 8.06681e-05 5.68061e-05)
(1.20001 6.4459e-05 4.84658e-05)
(1.2 9.21423e-05 6.11526e-05)
(1.19996 7.73073e-05 5.6241e-05)
(1.19996 7.94921e-05 6.71728e-05)
(1.19976 0.000140626 6.06762e-05)
(1.19976 0.000141844 6.35491e-05)
(1.19999 0.00013503 6.38852e-05)
(1.19998 0.00014569 6.32772e-05)
(1.19977 0.000136599 6.25194e-05)
(1.19976 0.000139593 7.36061e-05)
(1.1999 0.000203013 7.00879e-05)
(1.1999 0.000205115 7.52119e-05)
(1.19996 0.000192685 7.18923e-05)
(1.19995 0.000212027 7.73545e-05)
(1.19991 0.000197562 7.35451e-05)
(1.19991 0.000201344 8.58673e-05)
(1.19991 0.000299037 9.67767e-05)
(1.1999 0.000302881 0.000105743)
(1.19992 0.000283736 9.99986e-05)
(1.19991 0.000313314 0.00010956)
(1.19993 0.000291073 0.000103353)
(1.19992 0.000296643 0.000118435)
(1.19987 0.000448481 0.00013933)
(1.19985 0.000454374 0.000154008)
(1.19988 0.000424721 0.00014506)
(1.19987 0.000470912 0.000159793)
(1.1999 0.000436564 0.000150153)
(1.19988 0.000444615 0.00017033)
(1.19981 0.000682644 0.000205997)
(1.19978 0.00069154 0.000229532)
(1.19983 0.000644986 0.000215128)
(1.19981 0.00071782 0.000237844)
(1.19986 0.000663857 0.000222437)
(1.19983 0.000675534 0.000251708)
(1.19972 0.00105195 0.000306849)
(1.19968 0.00106549 0.000344595)
(1.19975 0.000992155 0.00032165)
(1.19973 0.00110563 0.000355551)
(1.1998 0.00102101 0.000331183)
(1.19976 0.0010385 0.000375157)
(1.19962 0.0016237 0.000457928)
(1.19955 0.00164594 0.000517051)
(1.19965 0.00153024 0.000480508)
(1.19963 0.00170504 0.000531343)
(1.19973 0.00157264 0.000492867)
(1.19967 0.00159947 0.000559974)
(1.1995 0.00250062 0.000685638)
(1.19939 0.00253658 0.000777078)
(1.19955 0.00235481 0.000717959)
(1.19952 0.00262013 0.00079409)
(1.19967 0.0024145 0.000732165)
(1.19958 0.00245565 0.000835551)
(1.19939 0.00382579 0.00103486)
(1.19922 0.00387958 0.00117704)
(1.19945 0.00359907 0.0010782)
(1.19943 0.0039966 0.00119553)
(1.19965 0.00368265 0.00109251)
(1.19951 0.00374117 0.00125305)
(1.19927 0.00581365 0.00158959)
(1.19903 0.00587173 0.00180628)
(1.19937 0.00545986 0.0016362)
(1.19934 0.00606055 0.00181813)
(1.19967 0.00559364 0.00164324)
(1.19947 0.00565046 0.00190333)
(1.19898 0.00899608 0.0025092)
(1.19846 0.00900147 0.00278261)
(1.1991 0.00841461 0.00248662)
(1.19895 0.00949786 0.00275088)
(1.19962 0.0087309 0.0024575)
(1.19927 0.00867081 0.00294532)
(1.19648 0.0160595 0.00413119)
(1.19836 0.0161805 0.00401392)
(1.19827 0.014891 0.00361461)
(1.19816 0.0181317 0.00387185)
(1.19864 0.0155 0.00437659)
(1.19994 0.0158065 0.00345003)
(1.20142 0.0511522 0.00450884)
(1.21194 0.0419934 0.00445059)
(1.20572 0.0378851 0.00382957)
(1.22087 0.0509083 0.00320343)
(1.21126 0.0408216 0.00424767)
(1.215 0.0350322 0.00335037)
(1.19997 2.04411e-06 6.23437e-06)
(1.19997 2.92338e-06 5.00003e-06)
(1.2 3.95052e-06 9.06181e-06)
(1.19997 1.68179e-06 4.98741e-06)
(1.19997 2.0319e-06 7.54136e-06)
(1.19997 5.41871e-05 6.03229e-05)
(1.19997 5.97501e-05 5.48674e-05)
(1.20001 4.20821e-05 4.6932e-05)
(1.20002 6.42941e-05 5.89935e-05)
(1.19997 5.16623e-05 5.47158e-05)
(1.19997 5.39171e-05 6.57788e-05)
(1.19979 0.000104464 5.72906e-05)
(1.19979 0.000110073 5.93872e-05)
(1.20002 9.9873e-05 5.9869e-05)
(1.20002 0.000108586 5.90293e-05)
(1.1998 9.81992e-05 5.83773e-05)
(1.19979 0.000103465 6.97204e-05)
(1.19997 0.000153208 6.57217e-05)
(1.19996 0.000160596 6.94855e-05)
(1.20002 0.000145443 6.67966e-05)
(1.20002 0.00016027 7.15303e-05)
(1.19998 0.000144005 6.84895e-05)
(1.19997 0.00015221 8.03768e-05)
(1.20002 0.000226574 8.96305e-05)
(1.20001 0.000236836 9.68957e-05)
(1.20003 0.000214873 9.17626e-05)
(1.20003 0.000237429 0.000100574)
(1.20003 0.000213249 9.50757e-05)
(1.20003 0.000224751 0.000109498)
(1.20004 0.000339662 0.000127606)
(1.20003 0.000355146 0.000140085)
(1.20005 0.000321729 0.000132447)
(1.20005 0.000356628 0.000145288)
(1.20007 0.000319681 0.000137146)
(1.20005 0.000336719 0.000155769)
(1.20008 0.000515571 0.000183374)
(1.20005 0.000538939 0.000203528)
(1.20008 0.000487567 0.00019192)
(1.20009 0.000541633 0.000210345)
(1.20011 0.000484978 0.000198263)
(1.20009 0.000510296 0.000224315)
(1.20014 0.000787222 0.000264239)
(1.20011 0.00082309 0.00029548)
(1.20014 0.000743369 0.000277396)
(1.20017 0.000826588 0.000304316)
(1.20019 0.000739044 0.000285616)
(1.20017 0.000777341 0.000323201)
(1.20026 0.00120549 0.000380518)
(1.20021 0.00126023 0.000428362)
(1.20026 0.0011372 0.000400564)
(1.20031 0.00126403 0.000438606)
(1.20034 0.00112946 0.000410256)
(1.20031 0.00118736 0.000464896)
(1.20049 0.00183653 0.000541622)
(1.20041 0.00191948 0.000613977)
(1.20048 0.00173153 0.000571807)
(1.20056 0.00192227 0.000623549)
(1.20061 0.00171746 0.000581117)
(1.20055 0.00180364 0.000661731)
(1.20089 0.00278799 0.000764742)
(1.20076 0.00291192 0.00087206)
(1.20086 0.00262577 0.000806073)
(1.201 0.00291219 0.000876914)
(1.20107 0.00260082 0.000811985)
(1.20097 0.00272787 0.000930982)
(1.20162 0.004233 0.0010659)
(1.20141 0.00442028 0.00122517)
(1.20155 0.00397694 0.00112121)
(1.20179 0.00441641 0.00121253)
(1.20188 0.00393225 0.00111392)
(1.20172 0.00412169 0.00128909)
(1.20306 0.00648068 0.00142986)
(1.2027 0.00681178 0.00165816)
(1.20286 0.00607445 0.00150139)
(1.20339 0.00676102 0.00159404)
(1.20344 0.005961 0.00145669)
(1.20317 0.00627916 0.00171407)
(1.20655 0.0096839 0.00169898)
(1.20613 0.0104834 0.00198468)
(1.20595 0.00917441 0.0017866)
(1.20724 0.00997105 0.00179075)
(1.20699 0.00878694 0.00166294)
(1.20657 0.00936221 0.00201101)
(1.21655 0.0123008 0.00160933)
(1.21443 0.0100668 0.0012973)
(1.2131 0.0104527 0.00147288)
(1.21566 0.00901344 0.00123325)
(1.21418 0.00973558 0.00155908)
(1.21504 0.00929813 0.00127895)
(1.19997 -6.22076e-06 6.14433e-06)
(1.19997 -9.87055e-07 4.9144e-06)
(1.2 -1.19848e-05 8.78831e-06)
(1.19997 -3.62268e-06 4.93676e-06)
(1.19997 -6.19885e-06 7.39471e-06)
(1.19998 -1.68672e-06 5.97376e-05)
(1.19998 1.88825e-05 5.39832e-05)
(1.20002 -9.12833e-06 4.61229e-05)
(1.20003 6.18457e-06 5.77468e-05)
(1.19999 6.34551e-06 5.3824e-05)
(1.19998 -1.78753e-06 6.48656e-05)
(1.19982 4.05132e-05 5.49558e-05)
(1.19982 5.6869e-05 5.62388e-05)
(1.20004 3.71337e-05 5.71251e-05)
(1.20004 4.34844e-05 5.64293e-05)
(1.19983 4.15023e-05 5.58236e-05)
(1.19982 4.00939e-05 6.69385e-05)
(1.20001 6.99241e-05 6.33869e-05)
(1.20001 8.64762e-05 6.63374e-05)
(1.20006 6.554e-05 6.42647e-05)
(1.20006 7.38099e-05 6.83461e-05)
(1.20002 6.52802e-05 6.56761e-05)
(1.20002 6.92623e-05 7.73801e-05)
(1.20009 0.000110553 8.46265e-05)
(1.20009 0.000129419 9.06468e-05)
(1.20009 0.000104043 8.63716e-05)
(1.2001 0.000116365 9.44226e-05)
(1.2001 9.80819e-05 8.95679e-05)
(1.2001 0.000109473 0.000103526)
(1.20015 0.000170094 0.00011981)
(1.20015 0.000194176 0.000130441)
(1.20015 0.000160665 0.000124028)
(1.20017 0.000178964 0.000135849)
(1.20016 0.000147358 0.000128913)
(1.20016 0.000168564 0.000146458)
(1.20025 0.000261089 0.000169139)
(1.20024 0.000294872 0.000186183)
(1.20024 0.000246736 0.000177007)
(1.20027 0.000274049 0.000192873)
(1.20027 0.000224108 0.00018336)
(1.20026 0.000258262 0.00020674)
(1.2004 0.000397239 0.000237575)
(1.20039 0.000446963 0.000263155)
(1.20039 0.000375273 0.00024962)
(1.20044 0.000417001 0.000272005)
(1.20043 0.00033917 0.000258264)
(1.20043 0.000392342 0.000290269)
(1.20066 0.000605143 0.000330745)
(1.20064 0.000678622 0.000369033)
(1.20064 0.000571207 0.000349637)
(1.20072 0.000634332 0.000379244)
(1.20071 0.000514362 0.000359999)
(1.2007 0.000596102 0.000404339)
(1.2011 0.000919534 0.000451173)
(1.20106 0.00102931 0.000506592)
(1.20105 0.000867428 0.000479332)
(1.20119 0.000961884 0.000516559)
(1.20116 0.000779658 0.000490233)
(1.20114 0.000903167 0.000552009)
(1.20181 0.00138477 0.00060031)
(1.20175 0.00154902 0.000677658)
(1.20173 0.00130622 0.000639562)
(1.20196 0.00144436 0.000683716)
(1.2019 0.00117093 0.000648483)
(1.20187 0.00135558 0.000732747)
(1.203 0.00205746 0.000764747)
(1.2029 0.00230522 0.000871289)
(1.20284 0.00194144 0.000819846)
(1.20322 0.00213628 0.00086404)
(1.20311 0.00173463 0.000820125)
(1.20305 0.00200629 0.000931341)
(1.20496 0.00294322 0.00089936)
(1.20483 0.00331985 0.00103856)
(1.20468 0.00279204 0.000976197)
(1.2053 0.00301934 0.00100085)
(1.20507 0.00246523 0.000954714)
(1.20499 0.00285937 0.00109147)
(1.20804 0.00366977 0.000898885)
(1.20802 0.00419918 0.00105772)
(1.20761 0.00356627 0.00100251)
(1.20849 0.00362168 0.000968871)
(1.20808 0.0030605 0.000943665)
(1.20801 0.00355574 0.00108572)
(1.21155 0.00255653 0.000613705)
(1.2124 0.00332173 0.00074975)
(1.21111 0.00281442 0.00073711)
(1.21185 0.00208514 0.00061891)
(1.21163 0.00239804 0.000649452)
(1.21143 0.00245619 0.000745312)
(1.19997 4.36625e-06 7.13761e-06)
(1.19997 4.52675e-06 7.3444e-06)
(1.2 8.80432e-06 1.34374e-05)
(1.19997 4.23876e-06 7.31597e-06)
(1.19997 4.33898e-06 7.52779e-06)
(1.19996 7.78901e-05 8.35778e-05)
(1.19996 7.88451e-05 8.52496e-05)
(1.2 6.29794e-05 7.19287e-05)
(1.2 9.01569e-05 9.34721e-05)
(1.19996 7.5555e-05 8.46671e-05)
(1.19996 7.71338e-05 8.78713e-05)
(1.19977 0.000136858 0.000103526)
(1.19977 0.000138572 0.000107871)
(1.2 0.000131999 0.000107054)
(1.19999 0.000141863 0.000109014)
(1.19978 0.000133124 0.000106731)
(1.19978 0.000135733 0.000110997)
(1.19993 0.000195373 0.000126022)
(1.19993 0.000197323 0.000132658)
(1.19999 0.000185577 0.000127353)
(1.19998 0.000203772 0.000136311)
(1.19995 0.000190117 0.000130304)
(1.19994 0.000193015 0.000136269)
(1.19996 0.000287091 0.000173077)
(1.19996 0.000290131 0.000182553)
(1.19997 0.000271873 0.000173069)
(1.19997 0.000300078 0.000188923)
(1.19998 0.000278927 0.000178654)
(1.19998 0.000283185 0.000187051)
(1.19995 0.00042883 0.00024931)
(1.19994 0.000432889 0.000263594)
(1.19996 0.000405218 0.000248505)
(1.19996 0.000448342 0.000273198)
(1.19998 0.000416201 0.000256918)
(1.19998 0.000422143 0.000269532)
(1.19993 0.000646751 0.000367184)
(1.19991 0.000652458 0.000388948)
(1.19995 0.00060958 0.000365052)
(1.19995 0.000676243 0.00040278)
(1.19998 0.000626605 0.000377184)
(1.19997 0.000634966 0.000396413)
(1.19991 0.000984249 0.000545753)
(1.19988 0.000992181 0.000580102)
(1.19994 0.00092523 0.000542047)
(1.19994 0.00102744 0.000598624)
(1.19999 0.000950437 0.000558159)
(1.19997 0.000962267 0.000588816)
(1.1999 0.00150011 0.000812064)
(1.19986 0.00151124 0.00086623)
(1.19994 0.0014071 0.000806047)
(1.19995 0.00156239 0.000889435)
(1.20002 0.00144359 0.000826294)
(1.19999 0.00146011 0.000874762)
(1.19992 0.00227492 0.00120089)
(1.19986 0.00229108 0.00128564)
(1.19998 0.00213122 0.00119135)
(1.2 0.00236025 0.00131262)
(1.20011 0.00218024 0.00121418)
(1.20006 0.00220336 0.0012898)
(1.20002 0.00341151 0.00176959)
(1.19994 0.00343103 0.00190171)
(1.2001 0.00319128 0.00175276)
(1.20015 0.00352229 0.00192905)
(1.20029 0.00325614 0.00177471)
(1.20022 0.00328435 0.0018931)
(1.20023 0.00503922 0.00259888)
(1.20012 0.00503855 0.00280243)
(1.20034 0.0047053 0.00256702)
(1.20041 0.005174 0.0028194)
(1.20062 0.00480172 0.00257797)
(1.20051 0.00481452 0.00276188)
(1.20033 0.0074932 0.0037404)
(1.20009 0.00734829 0.00405681)
(1.20052 0.00693791 0.00369716)
(1.20047 0.00773269 0.00402109)
(1.20095 0.00718256 0.00366146)
(1.20069 0.00709736 0.00395873)
(1.19809 0.012634 0.00535474)
(1.19943 0.0132745 0.00488998)
(1.19969 0.0118984 0.00492205)
(1.1992 0.0146348 0.00510785)
(1.19965 0.0126385 0.00528983)
(1.20101 0.0127648 0.00472025)
(1.19842 0.046628 0.00465065)
(1.20916 0.0379882 0.00429639)
(1.20361 0.0333971 0.00467233)
(1.21722 0.0467497 0.00400527)
(1.20845 0.037297 0.00504936)
(1.21235 0.0312089 0.00394955)
(1.19997 2.01401e-06 6.99711e-06)
(1.19997 2.84876e-06 7.21233e-06)
(1.2 3.92583e-06 1.30724e-05)
(1.19997 1.62928e-06 7.19408e-06)
(1.19997 1.9952e-06 7.39107e-06)
(1.19997 5.30797e-05 8.12919e-05)
(1.19997 5.85399e-05 8.26602e-05)
(1.20001 4.12809e-05 6.96376e-05)
(1.20001 6.29135e-05 9.05e-05)
(1.19997 5.05725e-05 8.20733e-05)
(1.19997 5.25667e-05 8.52649e-05)
(1.1998 0.000100463 9.93369e-05)
(1.1998 0.000106239 0.000103509)
(1.20002 9.62716e-05 0.000103034)
(1.20003 0.000104735 0.000104259)
(1.19981 9.45519e-05 0.000102507)
(1.19981 9.94514e-05 0.000106824)
(1.19999 0.000148237 0.000118136)
(1.19999 0.000155133 0.000124137)
(1.20004 0.000140663 0.000119643)
(1.20005 0.00015475 0.000127585)
(1.2 0.000139274 0.000122495)
(1.2 0.000146593 0.000127951)
(1.20006 0.000217762 0.000160044)
(1.20006 0.000227265 0.000168444)
(1.20007 0.000206302 0.000160308)
(1.20008 0.000227597 0.000174335)
(1.20008 0.000204498 0.000165596)
(1.20008 0.00021491 0.000172973)
(1.20011 0.000324868 0.000226676)
(1.2001 0.00033861 0.000238973)
(1.20011 0.000306992 0.0002262)
(1.20013 0.000339714 0.000247627)
(1.20014 0.00030493 0.000233971)
(1.20013 0.000319858 0.0002446)
(1.20018 0.000488609 0.000327245)
(1.20017 0.00050873 0.000345877)
(1.20018 0.000460856 0.000326287)
(1.20021 0.000510322 0.000357469)
(1.20022 0.000457673 0.000336977)
(1.20021 0.000479699 0.000353199)
(1.20029 0.000736913 0.000470473)
(1.20027 0.000766424 0.000499263)
(1.2003 0.000693406 0.000469266)
(1.20034 0.000768489 0.000513914)
(1.20035 0.000688359 0.000482785)
(1.20034 0.000720416 0.000507816)
(1.20048 0.00111288 0.000675409)
(1.20045 0.00115606 0.000719687)
(1.20048 0.00104522 0.000673828)
(1.20054 0.00115707 0.000736417)
(1.20057 0.00103611 0.000689761)
(1.20055 0.00108293 0.000728303)
(1.20079 0.00167064 0.000957044)
(1.20074 0.00173295 0.00102443)
(1.20079 0.00156646 0.000955646)
(1.20089 0.00173128 0.00104054)
(1.20092 0.00155061 0.000971532)
(1.20089 0.0016177 0.0010301)
(1.20129 0.00248778 0.00133435)
(1.20122 0.00257485 0.00143737)
(1.20128 0.00232823 0.00133378)
(1.20144 0.00256717 0.00144539)
(1.20148 0.00230021 0.00134337)
(1.20142 0.00239372 0.00143292)
(1.20212 0.00368758 0.00181989)
(1.202 0.00380703 0.00197784)
(1.20207 0.00343865 0.00182228)
(1.20234 0.00379263 0.00195941)
(1.20238 0.00339142 0.00181141)
(1.20228 0.00352107 0.00194809)
(1.20357 0.00551136 0.00235837)
(1.20332 0.00570498 0.00260044)
(1.20341 0.00511357 0.00237943)
(1.20391 0.0056594 0.00250935)
(1.20391 0.00501331 0.00231359)
(1.20372 0.00522438 0.00252338)
(1.20659 0.0081699 0.00266582)
(1.20628 0.0086708 0.00300991)
(1.2061 0.00761256 0.00276085)
(1.20716 0.00828095 0.00275848)
(1.207 0.0073229 0.00257403)
(1.2066 0.0077338 0.00287811)
(1.21511 0.0105508 0.00226851)
(1.21328 0.0086369 0.00205995)
(1.21206 0.00879383 0.00230914)
(1.21432 0.0076084 0.00198429)
(1.21294 0.00826454 0.00230253)
(1.21387 0.00788948 0.00189524)
(1.19997 -6.10724e-06 6.84532e-06)
(1.19997 -9.11053e-07 7.11214e-06)
(1.2 -1.18455e-05 1.28832e-05)
(1.19997 -3.779e-06 7.13039e-06)
(1.19997 -6.08991e-06 7.27569e-06)
(1.19998 -2.28854e-06 7.93856e-05)
(1.19998 1.83629e-05 8.04782e-05)
(1.20002 -9.49274e-06 6.78215e-05)
(1.20003 5.26526e-06 8.80795e-05)
(1.19999 5.96637e-06 8.00536e-05)
(1.19998 -2.5141e-06 8.30421e-05)
(1.19983 3.8358e-05 9.59864e-05)
(1.19983 5.44403e-05 9.98468e-05)
(1.20005 3.49166e-05 9.97416e-05)
(1.20006 4.11908e-05 0.000100651)
(1.19984 3.97569e-05 9.91128e-05)
(1.19983 3.76083e-05 0.000103448)
(1.20003 6.68174e-05 0.000113499)
(1.20004 8.3319e-05 0.000118741)
(1.20008 6.25436e-05 0.000114981)
(1.20009 7.04826e-05 0.000122416)
(1.20004 6.27531e-05 0.000117833)
(1.20004 6.59103e-05 0.000122954)
(1.20013 0.000105456 0.000151814)
(1.20013 0.000123949 0.000159119)
(1.20013 9.9116e-05 0.000152382)
(1.20015 0.000110789 0.000165272)
(1.20014 9.40108e-05 0.000157491)
(1.20014 0.000103827 0.000164301)
(1.20021 0.000162704 0.000213049)
(1.20021 0.000185967 0.000223139)
(1.20021 0.000153393 0.000212876)
(1.20024 0.000170469 0.000231973)
(1.20023 0.000141266 0.000220687)
(1.20023 0.00016025 0.000229653)
(1.20034 0.000246696 0.000300649)
(1.20034 0.00027795 0.000316049)
(1.20033 0.000232467 0.000300527)
(1.20037 0.000257566 0.00032745)
(1.20036 0.000211052 0.000311223)
(1.20037 0.000241865 0.000324457)
(1.20053 0.000371857 0.000422361)
(1.20053 0.000416319 0.000445039)
(1.20052 0.000349956 0.000422504)
(1.20059 0.000387547 0.000459634)
(1.20057 0.000315957 0.000436672)
(1.20058 0.00036348 0.000455802)
(1.20084 0.000558935 0.000588025)
(1.20083 0.000623001 0.000621439)
(1.20082 0.000525125 0.000589074)
(1.20092 0.000580909 0.000638514)
(1.20089 0.000472296 0.000606315)
(1.2009 0.000543802 0.000634415)
(1.20132 0.000836168 0.000801927)
(1.20131 0.000929118 0.000850638)
(1.20128 0.000784332 0.000805537)
(1.20144 0.0008658 0.000867205)
(1.20139 0.000703589 0.000823839)
(1.20139 0.000809364 0.000864416)
(1.20208 0.00123698 0.00105965)
(1.20205 0.00137138 0.00112987)
(1.20201 0.00115875 0.00106832)
(1.20224 0.00127458 0.00113976)
(1.20217 0.0010371 0.00108286)
(1.20216 0.00118997 0.00114095)
(1.20326 0.00180113 0.00133872)
(1.20321 0.00199556 0.0014384)
(1.20313 0.00168526 0.00135756)
(1.20349 0.00184435 0.00142718)
(1.20338 0.00150302 0.00135786)
(1.20335 0.00172059 0.00143905)
(1.20511 0.00252966 0.00155766)
(1.20502 0.00281595 0.0016935)
(1.20487 0.00237497 0.00159921)
(1.20543 0.00255789 0.00163444)
(1.20522 0.00209463 0.0015647)
(1.20516 0.00240088 0.00167351)
(1.20788 0.00311908 0.00153523)
(1.20786 0.00351991 0.00169507)
(1.20749 0.00299519 0.00161984)
(1.20826 0.003034 0.00156098)
(1.2079 0.00257427 0.00152453)
(1.20783 0.00294859 0.0016521)
(1.21096 0.00211506 0.00105635)
(1.21167 0.00278191 0.00113763)
(1.21053 0.00231755 0.00118927)
(1.21118 0.00168077 0.00100297)
(1.211 0.0020008 0.00101537)
(1.21077 0.00199298 0.00114479)
(1.16684 0.0776943 0.0115177)
(1.12119 0.08767 0.0175093)
(1.15932 0.100513 0.0117921)
(1.19067 0.0813909 0.0154603)
(0.87077 -0.0890121 -0.0126996)
(0.984622 -0.092328 -0.00153484)
(0.92912 -0.12822 -0.0111818)
(1.25453 -0.0818699 -0.0156212)
(1.19143 0.0607865 0.00742112)
(1.19185 0.048548 0.00971916)
(1.20192 0.0504594 0.00778446)
(1.19132 0.0647893 0.00935308)
(1.16096 0.0512244 0.0115089)
(1.19407 0.075879 0.0095678)
(1.32701 -0.0544212 0.00145501)
(1.31211 -0.0287602 -0.00506469)
(1.3271 -0.0552203 0.00171864)
(1.35702 -0.0384594 -0.00482474)
(1.32861 -0.0326729 -0.00431201)
(1.19138 0.0493961 0.0054598)
(1.16073 0.0527134 0.00569229)
(1.19377 0.0767536 0.00500565)
(1.19107 0.0594375 0.00610154)
(1.31198 -0.0278173 0.00614471)
(1.35767 -0.0369636 0.00648664)
(1.32882 -0.0309982 0.00857319)
(1.32645 -0.0535576 0.00120253)
(1.18862 0.0565307 0.00492847)
(1.1902 0.0447278 0.00553142)
(1.19933 0.0467397 0.00479889)
(1.18953 0.0573679 0.00486449)
(1.15813 0.0474616 0.005587)
(1.1905 0.0727098 0.00459431)
(1.31973 -0.0534074 -0.000959979)
(1.30621 -0.0274918 -0.00595863)
(1.3206 -0.0533936 -0.000642838)
(1.3502 -0.0358653 -0.00651945)
(1.32164 -0.0312264 -0.00733763)
(1.18928 0.044603 0.00522239)
(1.15711 0.0478341 0.00516302)
(1.18928 0.0727133 0.00423642)
(1.1876 0.0559954 0.00580193)
(1.30529 -0.0272069 0.00528699)
(1.34916 -0.035501 0.00500119)
(1.32041 -0.0310299 0.00646042)
(1.31871 -0.0534093 -0.00124027)
(1.18459 0.0200602 0.00386434)
(1.17836 0.0222283 0.00549065)
(1.18002 0.0260333 0.00531068)
(1.19119 0.0197718 0.00511825)
(1.17998 0.0543149 0.00766635)
(1.15076 0.0642812 0.0140386)
(1.18511 0.0509058 0.0120182)
(1.16884 0.0507438 0.00932437)
(1.19494 0.0156464 0.00502353)
(1.19569 0.0143811 0.00550982)
(1.19682 0.015898 0.00530908)
(1.1938 0.0171409 0.00505328)
(1.19361 0.0146079 0.00679601)
(1.1945 0.0173686 0.00658245)
(1.19268 0.0371504 0.0071961)
(1.19803 0.0346172 0.00771675)
(1.19192 0.0404939 0.00847887)
(1.18165 0.0335303 0.0110614)
(1.19174 0.0309913 0.00891991)
(0.667111 0.0412371 0.0539208)
(0.773607 0.0202773 0.0489333)
(0.649944 0.0122989 0.091854)
(1.00818 0.0414481 0.116288)
(0.63651 0.0081635 0.0670651)
(1.15735 0.0291885 0.0328377)
(1.14673 -0.00891957 0.0332843)
(1.18905 -0.0623813 0.0697886)
(1.13883 -0.0339414 0.0249788)
(1.17795 -0.0208968 0.0397822)
(1.1449 -0.0728968 0.0263629)
(1.16543 -0.00203738 0.0388202)
(1.21822 -0.030782 0.0845187)
(1.28237 0.0497187 0.0890294)
(1.28437 -0.00741194 0.0878404)
(1.18325 0.0169099 0.0769444)
(0.87181 -0.0662004 -0.00272969)
(1.54893 -0.00844326 -0.0110967)
(1.5404 0.0246625 -0.00530938)
(1.28943 0.0298877 -0.00344749)
(1.29393 0.0115302 -0.00756179)
(1.27624 -0.00354607 -0.0030841)
(1.21434 0.0172713 0.000766079)
(1.21564 0.0213092 0.000888844)
(1.2202 0.0159078 0.000584291)
(1.21947 0.0165466 0.000909795)
(1.22594 0.000573394 -6.0602e-05)
(1.23328 0.00146076 -0.00038322)
(1.23044 0.00509569 9.2776e-05)
(1.23382 0.00164589 -3.40917e-05)
(1.20627 0.0373289 0.00577697)
(1.21294 0.0448969 0.00509636)
(1.22163 0.0503506 0.00494292)
(1.21553 0.0345592 0.0049246)
(1.28417 0.0152993 -0.000665561)
(1.31274 -0.0288475 0.00629663)
(1.31258 -0.000932621 -0.00128194)
(1.3129 -0.000538613 0.0053597)
(1.28663 0.0170896 -0.000954573)
(1.28448 0.0320829 0.000398343)
(1.27266 0.00433002 0.000279257)
(1.21895 0.0150327 0.00187559)
(1.21679 0.0150289 0.00211741)
(1.21683 0.0123071 0.00166075)
(1.21923 0.0156394 0.00185113)
(1.21774 0.0179632 0.00226923)
(1.22205 0.0142113 0.00185768)
(1.23283 0.0025771 0.000659286)
(1.22702 0.00101768 0.000549209)
(1.23325 0.0024468 0.000895435)
(1.23433 0.00233295 0.000428363)
(1.23167 0.00578013 0.00103189)
(1.19532 0.0145168 0.00429206)
(1.19308 0.014928 0.00489722)
(1.194 0.0176852 0.00472039)
(1.19541 0.014881 0.00529888)
(1.19751 0.035261 0.0047828)
(1.18097 0.0347274 0.00605196)
(1.19273 0.0359041 0.00638037)
(1.19119 0.0317156 0.00542828)
(1.19661 0.0124946 0.00554797)
(1.19717 0.0117953 0.00541834)
(1.19795 0.0131764 0.00522923)
(1.19624 0.0132372 0.00540983)
(1.19519 0.011803 0.00596957)
(1.19575 0.0143708 0.00574401)
(1.19177 0.0327928 0.00554873)
(1.19695 0.030865 0.00533121)
(1.19215 0.0337127 0.00548337)
(1.18061 0.0295392 0.00624676)
(1.19157 0.0272733 0.00590946)