/*--------------------------------*- C++ -*----------------------------------*\
| =========                 |                                                 |
| \\      /  F ield         | OpenFOAM: The Open Source CFD Toolbox           |
|  \\    /   O peration     | Version:  2012                                  |
|   \\  /    A nd           | Website:  www.openfoam.com                      |
|    \\/     M anipulation  |                                                 |
\*---------------------------------------------------------------------------*/
FoamFile
{
    version     2.0;
    format      ascii;
    class       volVectorField;
    location    "0.104/solid";
    object      D_0;
}
// * * * * * * * * * * * * * * * * * * * * * * * * * * * * * * * * * * * * * //

dimensions      [0 1 0 0 0 0 0];


internalField   nonuniform List<vector> 
3125
(
(8.73624e-06 -1.12846e-05 -1.486e-06)
(1.50401e-05 -1.90177e-05 -1.73608e-06)
(2.04566e-05 -2.54741e-05 -1.83887e-06)
(2.76891e-05 -3.39802e-05 -1.88954e-06)
(3.35906e-05 -4.08673e-05 -1.40985e-06)
(8.83089e-06 -1.12759e-05 -6.13173e-07)
(1.42951e-05 -1.81184e-05 -1.71544e-06)
(9.38463e-06 -1.20947e-05 -1.52142e-06)
(1.44104e-05 -1.8113e-05 -7.38874e-07)
(9.4826e-06 -1.20864e-05 -6.31589e-07)
(1.51572e-05 -1.90126e-05 -7.51083e-07)
(2.0582e-05 -2.54713e-05 -8.15425e-07)
(2.68808e-05 -3.30309e-05 -1.88709e-06)
(2.12513e-05 -2.64124e-05 -1.84833e-06)
(2.70101e-05 -3.30299e-05 -8.4928e-07)
(2.13774e-05 -2.64098e-05 -8.2176e-07)
(3.35909e-05 -4.08105e-05 -1.02782e-06)
(3.36533e-05 -4.08103e-05 -5.29422e-07)
(2.78186e-05 -3.39793e-05 -8.51196e-07)
(3.36546e-05 -4.08672e-05 -8.9913e-07)
(8.9751e-06 -1.17814e-05 -3.47594e-06)
(8.9691e-06 -1.17362e-05 -3.09824e-06)
(2.06974e-05 -2.61113e-05 -4.35501e-06)
(1.79539e-05 -2.28384e-05 -4.24449e-06)
(1.49113e-05 -1.91069e-05 -3.62734e-06)
(1.73238e-05 -2.17553e-05 -1.78859e-06)
(1.75697e-05 -2.23161e-05 -3.76944e-06)
(1.49111e-05 -1.91629e-05 -4.06693e-06)
(1.75674e-05 -2.23745e-05 -4.22543e-06)
(2.07017e-05 -2.60509e-05 -3.88574e-06)
(1.80989e-05 -2.26788e-05 -1.80315e-06)
(1.79565e-05 -2.27797e-05 -3.78654e-06)
(3.3583e-05 -4.13177e-05 -4.49821e-06)
(3.07438e-05 -3.79606e-05 -4.50387e-06)
(2.75244e-05 -3.40975e-05 -4.00475e-06)
(3.01123e-05 -3.68297e-05 -1.89378e-06)
(3.03488e-05 -3.74232e-05 -4.01896e-06)
(2.75172e-05 -3.41595e-05 -4.4872e-06)
(3.03409e-05 -3.74853e-05 -4.5028e-06)
(3.3595e-05 -4.1262e-05 -4.02706e-06)
(3.09196e-05 -3.77809e-05 -1.89422e-06)
(3.07519e-05 -3.78986e-05 -4.01996e-06)
(9.03181e-06 -1.17641e-05 -2.93165e-06)
(9.01346e-06 -1.17243e-05 -2.6687e-06)
(9.2981e-06 -1.21923e-05 -3.51953e-06)
(1.16592e-05 -1.51608e-05 -3.79283e-06)
(1.21191e-05 -1.54715e-05 -1.64334e-06)
(1.45396e-05 -1.86546e-05 -3.60368e-06)
(1.20071e-05 -1.55446e-05 -3.41283e-06)
(9.29251e-06 -1.21463e-05 -3.13723e-06)
(1.1416e-05 -1.4609e-05 -1.61573e-06)
(1.16563e-05 -1.51096e-05 -3.38183e-06)
(1.45397e-05 -1.87101e-05 -4.04053e-06)
(1.20096e-05 -1.55965e-05 -3.82745e-06)
(9.35589e-06 -1.21755e-05 -2.97035e-06)
(1.17236e-05 -1.5147e-05 -3.21454e-06)
(1.22282e-05 -1.54649e-05 -6.97569e-07)
(1.45947e-05 -1.86473e-05 -3.12813e-06)
(1.20583e-05 -1.55354e-05 -2.95344e-06)
(9.33774e-06 -1.21347e-05 -2.70381e-06)
(1.15226e-05 -1.4602e-05 -6.82238e-07)
(1.17069e-05 -1.51001e-05 -2.92522e-06)
(1.46097e-05 -1.86995e-05 -3.4385e-06)
(1.20747e-05 -1.5583e-05 -3.24568e-06)
(2.07739e-05 -2.6106e-05 -3.72802e-06)
(1.80282e-05 -2.2831e-05 -3.62539e-06)
(1.49668e-05 -1.90999e-05 -3.14992e-06)
(1.74452e-05 -2.17512e-05 -7.831e-07)
(1.76279e-05 -2.23107e-05 -3.28144e-06)
(1.49816e-05 -1.91526e-05 -3.46255e-06)
(1.76412e-05 -2.23668e-05 -3.60781e-06)
(2.07621e-05 -2.60473e-05 -3.39023e-06)
(1.82215e-05 -2.26751e-05 -7.92265e-07)
(1.8015e-05 -2.27745e-05 -3.29735e-06)
(2.10938e-05 -2.65818e-05 -4.36773e-06)
(2.38905e-05 -2.98887e-05 -4.43784e-06)
(2.44586e-05 -3.01868e-05 -1.87568e-06)
(2.71206e-05 -3.36225e-05 -4.00146e-06)
(2.42984e-05 -3.0301e-05 -3.967e-06)
(2.10984e-05 -2.65213e-05 -3.89717e-06)
(2.36535e-05 -2.92407e-05 -1.87028e-06)
(2.38964e-05 -2.98272e-05 -3.96021e-06)
(2.71135e-05 -3.36845e-05 -4.48357e-06)
(2.42923e-05 -3.03625e-05 -4.44537e-06)
(2.11706e-05 -2.65768e-05 -3.73992e-06)
(2.39686e-05 -2.98855e-05 -3.806e-06)
(2.4587e-05 -3.01852e-05 -8.40792e-07)
(2.7183e-05 -3.36214e-05 -3.50052e-06)
(2.43602e-05 -3.02989e-05 -3.46727e-06)
(2.11589e-05 -2.65178e-05 -3.401e-06)
(2.37814e-05 -2.92389e-05 -8.36925e-07)
(2.3958e-05 -2.9825e-05 -3.46078e-06)
(2.71925e-05 -3.36829e-05 -3.84988e-06)
(2.43705e-05 -3.03596e-05 -3.81317e-06)
(3.36639e-05 -4.13177e-05 -3.85326e-06)
(3.08231e-05 -3.79601e-05 -3.87004e-06)
(2.75868e-05 -3.40965e-05 -3.50373e-06)
(3.02422e-05 -3.68292e-05 -8.54775e-07)
(3.04115e-05 -3.74228e-05 -3.51781e-06)
(2.75962e-05 -3.41581e-05 -3.85342e-06)
(3.04202e-05 -3.74848e-05 -3.86891e-06)
(3.36584e-05 -4.12621e-05 -3.52118e-06)
(3.10496e-05 -3.77805e-05 -8.55406e-07)
(3.08146e-05 -3.78982e-05 -3.51885e-06)
(9.0372e-06 -1.19458e-05 -4.54799e-06)
(8.9302e-06 -1.1582e-05 -2.01468e-06)
(2.07264e-05 -2.63273e-05 -5.70785e-06)
(1.95458e-05 -2.49176e-05 -5.65158e-06)
(1.48846e-05 -1.89123e-05 -2.35148e-06)
(1.57937e-05 -1.9924e-05 -1.75511e-06)
(1.60146e-05 -2.02745e-05 -2.39319e-06)
(1.49544e-05 -1.93636e-05 -5.32729e-06)
(1.60782e-05 -2.07357e-05 -5.42433e-06)
(2.06842e-05 -2.58389e-05 -2.51424e-06)
(1.9666e-05 -2.45388e-05 -1.82823e-06)
(1.94987e-05 -2.44344e-05 -2.49022e-06)
(3.35843e-05 -4.15293e-05 -5.92111e-06)
(3.23786e-05 -4.00989e-05 -5.90472e-06)
(2.75139e-05 -3.38777e-05 -2.58805e-06)
(2.84973e-05 -3.49297e-05 -1.89143e-06)
(2.87259e-05 -3.53025e-05 -2.59284e-06)
(2.75347e-05 -3.43818e-05 -5.88097e-06)
(2.87442e-05 -3.58074e-05 -5.89181e-06)
(3.35858e-05 -4.10356e-05 -2.57588e-06)
(3.25567e-05 -3.97145e-05 -1.89494e-06)
(3.23673e-05 -3.95954e-05 -2.59834e-06)
(9.08069e-06 -1.19302e-05 -4.17622e-06)
(8.98536e-06 -1.15731e-05 -1.4864e-06)
(9.35905e-06 -1.23596e-05 -4.60537e-06)
(1.03469e-05 -1.36212e-05 -4.76852e-06)
(1.35595e-05 -1.72271e-05 -1.69314e-06)
(1.45123e-05 -1.84617e-05 -2.33659e-06)
(1.34092e-05 -1.71215e-05 -2.28812e-06)
(9.25427e-06 -1.19889e-05 -2.03947e-06)
(1.00479e-05 -1.29196e-05 -1.55482e-06)
(1.02491e-05 -1.32314e-05 -2.11044e-06)
(1.4584e-05 -1.89094e-05 -5.29242e-06)
(1.34872e-05 -1.75573e-05 -5.17997e-06)
(9.40309e-06 -1.23444e-05 -4.23039e-06)
(1.03924e-05 -1.36072e-05 -4.38467e-06)
(1.36728e-05 -1.72213e-05 -7.25886e-07)
(1.45806e-05 -1.84562e-05 -1.74892e-06)
(1.34757e-05 -1.71154e-05 -1.70857e-06)
(9.31062e-06 -1.19802e-05 -1.50617e-06)
(1.0149e-05 -1.29117e-05 -6.49244e-07)
(1.03083e-05 -1.32233e-05 -1.56332e-06)
(1.46339e-05 -1.88997e-05 -4.88298e-06)
(1.35363e-05 -1.75466e-05 -4.7756e-06)
(2.07791e-05 -2.63224e-05 -5.28246e-06)
(1.95982e-05 -2.4912e-05 -5.228e-06)
(1.49536e-05 -1.8907e-05 -1.76134e-06)
(1.59124e-05 -1.99193e-05 -7.62519e-07)
(1.6085e-05 -2.02698e-05 -1.79646e-06)
(1.50045e-05 -1.93543e-05 -4.91633e-06)
(1.61291e-05 -2.07273e-05 -5.00929e-06)
(2.07591e-05 -2.58361e-05 -1.90028e-06)
(1.97905e-05 -2.45356e-05 -8.08411e-07)
(1.95727e-05 -2.44311e-05 -1.87936e-06)
(2.1122e-05 -2.67984e-05 -5.72464e-06)
(2.2314e-05 -2.82147e-05 -5.76939e-06)
(2.60727e-05 -3.20821e-05 -1.88401e-06)
(2.71099e-05 -3.3403e-05 -2.58605e-06)
(2.58981e-05 -3.19794e-05 -2.57856e-06)
(2.10813e-05 -2.63084e-05 -2.52134e-06)
(2.20493e-05 -2.73532e-05 -1.85668e-06)
(2.2278e-05 -2.77208e-05 -2.54041e-06)
(2.71316e-05 -3.39066e-05 -5.87634e-06)
(2.59228e-05 -3.24815e-05 -5.859e-06)
(2.11747e-05 -2.67938e-05 -5.29873e-06)
(2.2367e-05 -2.82109e-05 -5.34219e-06)
(2.62017e-05 -3.20809e-05 -8.46935e-07)
(2.71873e-05 -3.34021e-05 -1.96446e-06)
(2.59752e-05 -3.19782e-05 -1.95754e-06)
(2.11565e-05 -2.63058e-05 -1.90647e-06)
(2.21761e-05 -2.73509e-05 -8.27438e-07)
(2.23537e-05 -2.77185e-05 -1.92329e-06)
(2.71851e-05 -3.39051e-05 -5.44694e-06)
(2.59763e-05 -3.24795e-05 -5.42981e-06)
(3.25654e-05 -3.9601e-05 -1.06644e-06)
(3.26851e-05 -3.96006e-05 -1.09868e-07)
(3.36378e-05 -4.15294e-05 -5.49379e-06)
(3.24321e-05 -4.00986e-05 -5.47585e-06)
(2.75914e-05 -3.38769e-05 -1.96632e-06)
(2.8627e-05 -3.4929e-05 -8.52719e-07)
(2.88036e-05 -3.53018e-05 -1.97084e-06)
(2.75883e-05 -3.43804e-05 -5.45154e-06)
(2.87978e-05 -3.58065e-05 -5.46234e-06)
(3.36583e-05 -4.10356e-05 -1.99709e-06)
(3.26873e-05 -3.97142e-05 -8.52726e-07)
(3.24451e-05 -3.95952e-05 -1.97702e-06)
(9.01696e-06 -1.18998e-05 -4.27751e-06)
(8.93829e-06 -1.16208e-05 -2.28386e-06)
(1.79891e-05 -2.30488e-05 -5.56189e-06)
(1.91547e-05 -2.44491e-05 -5.63077e-06)
(2.07156e-05 -2.62692e-05 -5.36525e-06)
(1.95143e-05 -2.47038e-05 -4.31238e-06)
(1.95343e-05 -2.486e-05 -5.31247e-06)
(1.79766e-05 -2.2992e-05 -5.22839e-06)
(1.91222e-05 -2.42361e-05 -4.29662e-06)
(1.91429e-05 -2.43917e-05 -5.29296e-06)
(1.48901e-05 -1.89607e-05 -2.66848e-06)
(1.60392e-05 -2.04737e-05 -3.69318e-06)
(1.60196e-05 -2.0324e-05 -2.71614e-06)
(1.65552e-05 -2.08368e-05 -1.77259e-06)
(1.75476e-05 -2.21116e-05 -2.44127e-06)
(1.63951e-05 -2.07317e-05 -2.4059e-06)
(1.64191e-05 -2.09324e-05 -3.71346e-06)
(1.75521e-05 -2.21623e-05 -2.77123e-06)
(1.64001e-05 -2.07815e-05 -2.73078e-06)
(1.76036e-05 -2.25839e-05 -5.5367e-06)
(1.64569e-05 -2.11959e-05 -5.45421e-06)
(1.49394e-05 -1.9309e-05 -5.00847e-06)
(1.6038e-05 -2.05309e-05 -4.14039e-06)
(1.60642e-05 -2.06801e-05 -5.09944e-06)
(1.75907e-05 -2.25273e-05 -5.20478e-06)
(1.64177e-05 -2.09899e-05 -4.163e-06)
(1.64431e-05 -2.11401e-05 -5.12745e-06)
(2.06878e-05 -2.58914e-05 -2.855e-06)
(1.95179e-05 -2.4644e-05 -3.84746e-06)
(1.95026e-05 -2.44863e-05 -2.82745e-06)
(1.88799e-05 -2.36068e-05 -1.81634e-06)
(1.79349e-05 -2.25741e-05 -2.45195e-06)
(1.91058e-05 -2.39679e-05 -2.48141e-06)
(1.91255e-05 -2.41766e-05 -3.83332e-06)
(1.79394e-05 -2.2625e-05 -2.78355e-06)
(1.91099e-05 -2.40196e-05 -2.81728e-06)
(3.07581e-05 -3.81834e-05 -5.90159e-06)
(3.19691e-05 -3.96144e-05 -5.90445e-06)
(3.35894e-05 -4.14834e-05 -5.56882e-06)
(3.23672e-05 -3.98785e-05 -4.50576e-06)
(3.2372e-05 -4.00389e-05 -5.55103e-06)
(3.07517e-05 -3.81237e-05 -5.54784e-06)
(3.19567e-05 -3.9393e-05 -4.5056e-06)
(3.19627e-05 -3.95547e-05 -5.55048e-06)
(2.7516e-05 -3.3932e-05 -2.94017e-06)
(2.87355e-05 -3.55226e-05 -4.01257e-06)
(2.87278e-05 -3.53568e-05 -2.94573e-06)
(2.9305e-05 -3.58796e-05 -1.89284e-06)
(3.03402e-05 -3.72026e-05 -2.59671e-06)
(2.91297e-05 -3.57774e-05 -2.59404e-06)
(2.9139e-05 -3.59977e-05 -4.01456e-06)
(3.03419e-05 -3.7257e-05 -2.95027e-06)
(2.91316e-05 -3.58318e-05 -2.94715e-06)
(3.03556e-05 -3.77082e-05 -5.90029e-06)
(2.91472e-05 -3.62827e-05 -5.89451e-06)
(2.75274e-05 -3.43223e-05 -5.52805e-06)
(2.8728e-05 -3.55848e-05 -4.49581e-06)
(2.87372e-05 -3.57479e-05 -5.53839e-06)
(3.03491e-05 -3.76485e-05 -5.54658e-06)
(2.91314e-05 -3.60599e-05 -4.498e-06)
(2.91404e-05 -3.62231e-05 -5.54098e-06)
(3.35866e-05 -4.10908e-05 -2.93969e-06)
(3.23778e-05 -3.98195e-05 -4.02284e-06)
(3.23691e-05 -3.96503e-05 -2.9531e-06)
(3.17305e-05 -3.87378e-05 -1.89417e-06)
(3.07434e-05 -3.76779e-05 -2.5973e-06)
(3.19573e-05 -3.91107e-05 -2.59829e-06)
(3.19663e-05 -3.93328e-05 -4.02197e-06)
(3.07451e-05 -3.77324e-05 -2.95097e-06)
(3.1959e-05 -3.91654e-05 -2.95246e-06)
(9.06776e-06 -1.18823e-05 -3.8243e-06)
(8.99087e-06 -1.16108e-05 -1.77552e-06)
(9.33914e-06 -1.23129e-05 -4.33136e-06)
(1.02894e-05 -1.3446e-05 -3.64339e-06)
(1.0328e-05 -1.35726e-05 -4.48444e-06)
(1.17122e-05 -1.53454e-05 -4.96551e-06)
(1.06833e-05 -1.4048e-05 -4.81994e-06)
(1.06269e-05 -1.38703e-05 -3.68241e-06)
(1.16945e-05 -1.52946e-05 -4.66923e-06)
(1.06646e-05 -1.39988e-05 -4.53268e-06)
(1.28339e-05 -1.63445e-05 -1.66913e-06)
(1.19748e-05 -1.53657e-05 -2.21532e-06)
(1.30466e-05 -1.6679e-05 -2.27094e-06)
(1.45179e-05 -1.85097e-05 -2.65136e-06)
(1.34386e-05 -1.73089e-05 -3.52738e-06)
(1.34153e-05 -1.71682e-05 -2.59604e-06)
(1.19815e-05 -1.54104e-05 -2.51287e-06)
(1.30766e-05 -1.68644e-05 -3.50014e-06)
(1.30528e-05 -1.67252e-05 -2.57629e-06)
(9.26227e-06 -1.20285e-05 -2.31227e-06)
(1.0285e-05 -1.33975e-05 -3.24806e-06)
(1.02565e-05 -1.3273e-05 -2.39305e-06)
(1.07253e-05 -1.37581e-05 -1.58624e-06)
(1.16234e-05 -1.49331e-05 -2.19571e-06)
(1.05876e-05 -1.36522e-05 -2.13259e-06)
(1.06229e-05 -1.38211e-05 -3.28299e-06)
(1.16302e-05 -1.49772e-05 -2.49036e-06)
(1.0595e-05 -1.36945e-05 -2.41845e-06)
(1.20615e-05 -1.57832e-05 -5.01117e-06)
(1.31267e-05 -1.71105e-05 -5.13982e-06)
(1.45688e-05 -1.88551e-05 -4.97578e-06)
(1.34397e-05 -1.7363e-05 -3.95537e-06)
(1.34711e-05 -1.75042e-05 -4.87034e-06)
(1.20441e-05 -1.57318e-05 -4.71206e-06)
(1.30781e-05 -1.6918e-05 -3.92495e-06)
(1.31102e-05 -1.70578e-05 -4.8327e-06)
(9.39068e-06 -1.22958e-05 -3.87421e-06)
(1.03502e-05 -1.34304e-05 -3.08068e-06)
(1.03816e-05 -1.35569e-05 -4.01637e-06)
(1.17595e-05 -1.53329e-05 -4.57148e-06)
(1.07293e-05 -1.40344e-05 -4.43338e-06)
(1.06886e-05 -1.38552e-05 -3.11555e-06)
(1.17506e-05 -1.52806e-05 -4.18863e-06)
(1.07189e-05 -1.39835e-05 -4.06127e-06)
(1.29452e-05 -1.63383e-05 -7.12118e-07)
(1.20384e-05 -1.53588e-05 -1.64859e-06)
(1.31123e-05 -1.66727e-05 -1.69439e-06)
(1.45833e-05 -1.85035e-05 -2.08661e-06)
(1.34922e-05 -1.73008e-05 -3.05809e-06)
(1.34789e-05 -1.71613e-05 -2.039e-06)
(1.20423e-05 -1.54026e-05 -1.968e-06)
(1.31296e-05 -1.6856e-05 -3.03315e-06)
(1.31157e-05 -1.67181e-05 -2.02209e-06)
(9.31592e-06 -1.20187e-05 -1.79917e-06)
(1.03327e-05 -1.33869e-05 -2.80387e-06)
(1.03131e-05 -1.3264e-05 -1.8668e-06)
(1.08293e-05 -1.37506e-05 -6.66128e-07)
(1.16861e-05 -1.4926e-05 -1.63259e-06)
(1.06479e-05 -1.36444e-05 -1.58119e-06)
(1.06713e-05 -1.38107e-05 -2.83549e-06)
(1.16902e-05 -1.49692e-05 -1.94891e-06)
(1.06525e-05 -1.36857e-05 -1.88814e-06)
(1.21091e-05 -1.5771e-05 -4.61488e-06)
(1.31754e-05 -1.70995e-05 -4.73733e-06)
(1.46287e-05 -1.88443e-05 -4.47616e-06)
(1.35078e-05 -1.73512e-05 -3.36117e-06)
(1.35297e-05 -1.74923e-05 -4.377e-06)
(1.21007e-05 -1.57183e-05 -4.22866e-06)
(1.31455e-05 -1.69058e-05 -3.33365e-06)
(1.31684e-05 -1.70455e-05 -4.34166e-06)
(1.80409e-05 -2.3042e-05 -5.14148e-06)
(1.92069e-05 -2.44432e-05 -5.2079e-06)
(2.07796e-05 -2.62639e-05 -4.84589e-06)
(1.95899e-05 -2.46976e-05 -3.68829e-06)
(1.95978e-05 -2.48538e-05 -4.79538e-06)
(1.80392e-05 -2.29844e-05 -4.71522e-06)
(1.91975e-05 -2.42296e-05 -3.67365e-06)
(1.92062e-05 -2.43852e-05 -4.77675e-06)
(1.49561e-05 -1.89547e-05 -2.10141e-06)
(1.6096e-05 -2.04674e-05 -3.21069e-06)
(1.60871e-05 -2.03186e-05 -2.1428e-06)
(1.66753e-05 -2.08324e-05 -7.73189e-07)
(1.76198e-05 -2.21076e-05 -1.83728e-06)
(1.64661e-05 -2.07271e-05 -1.80718e-06)
(1.64763e-05 -2.09263e-05 -3.22946e-06)
(1.76213e-05 -2.21578e-05 -2.19104e-06)
(1.6468e-05 -2.07764e-05 -2.15557e-06)
(1.76552e-05 -2.25768e-05 -5.11724e-06)
(1.65079e-05 -2.11879e-05 -5.03796e-06)
(1.49997e-05 -1.92986e-05 -4.50698e-06)
(1.61102e-05 -2.05217e-05 -3.52966e-06)
(1.61255e-05 -2.06709e-05 -4.59291e-06)
(1.76531e-05 -2.25194e-05 -4.69278e-06)
(1.64903e-05 -2.0981e-05 -3.55039e-06)
(1.65047e-05 -2.11311e-05 -4.61942e-06)
(2.07596e-05 -2.58883e-05 -2.2654e-06)
(1.95775e-05 -2.46398e-05 -3.35428e-06)
(1.95736e-05 -2.44827e-05 -2.24078e-06)
(1.90035e-05 -2.36034e-05 -8.00697e-07)
(1.80076e-05 -2.25702e-05 -1.8464e-06)
(1.91795e-05 -2.39645e-05 -1.87176e-06)
(1.91849e-05 -2.41721e-05 -3.34103e-06)
(1.8009e-05 -2.26207e-05 -2.20189e-06)
(1.91805e-05 -2.40158e-05 -2.23174e-06)
(2.11115e-05 -2.67401e-05 -5.38099e-06)
(2.22883e-05 -2.79965e-05 -4.40169e-06)
(2.23042e-05 -2.81561e-05 -5.42299e-06)
(2.39133e-05 -3.01087e-05 -5.81689e-06)
(2.27129e-05 -2.86877e-05 -5.78252e-06)
(2.26879e-05 -2.8469e-05 -4.41166e-06)
(2.39044e-05 -3.00497e-05 -5.46761e-06)
(2.27033e-05 -2.8629e-05 -5.43531e-06)
(2.52652e-05 -3.1134e-05 -1.88023e-06)
(2.42851e-05 -3.00836e-05 -2.56479e-06)
(2.54945e-05 -3.15052e-05 -2.57557e-06)
(2.71121e-05 -3.34572e-05 -2.93783e-06)
(2.59099e-05 -3.21981e-05 -3.9893e-06)
(2.59005e-05 -3.20334e-05 -2.92916e-06)
(2.42878e-05 -3.01374e-05 -2.91324e-06)
(2.55066e-05 -3.17236e-05 -3.98441e-06)
(2.5497e-05 -3.15591e-05 -2.92568e-06)
(2.10848e-05 -2.63611e-05 -2.8632e-06)
(2.22934e-05 -2.79355e-05 -3.92769e-06)
(2.22811e-05 -2.77739e-05 -2.88511e-06)
(2.28503e-05 -2.82961e-05 -1.86397e-06)
(2.38827e-05 -2.96104e-05 -2.56061e-06)
(2.26782e-05 -2.81925e-05 -2.54596e-06)
(2.26933e-05 -2.84079e-05 -3.93666e-06)
(2.38855e-05 -2.9664e-05 -2.90839e-06)
(2.26813e-05 -2.82458e-05 -2.89153e-06)
(2.43145e-05 -3.05829e-05 -5.82676e-06)
(2.55203e-05 -3.20066e-05 -5.85197e-06)
(2.71241e-05 -3.38472e-05 -5.52366e-06)
(2.59032e-05 -3.226e-05 -4.47011e-06)
(2.59149e-05 -3.24222e-05 -5.50726e-06)
(2.43057e-05 -3.05238e-05 -5.47689e-06)
(2.55e-05 -3.17854e-05 -4.4647e-06)
(2.55121e-05 -3.19473e-05 -5.50063e-06)
(2.11756e-05 -2.67351e-05 -4.861e-06)
(2.23657e-05 -2.79923e-05 -3.77181e-06)
(2.23688e-05 -2.81519e-05 -4.90139e-06)
(2.39666e-05 -3.01057e-05 -5.38851e-06)
(2.2766e-05 -2.86841e-05 -5.35497e-06)
(2.27655e-05 -2.84651e-05 -3.78122e-06)
(2.39693e-05 -3.00465e-05 -4.94453e-06)
(2.2768e-05 -2.86251e-05 -4.91328e-06)
(2.53939e-05 -3.11326e-05 -8.44119e-07)
(2.43617e-05 -3.00821e-05 -1.94503e-06)
(2.55715e-05 -3.15039e-05 -1.95481e-06)
(2.71864e-05 -3.34562e-05 -2.34114e-06)
(2.5972e-05 -3.21966e-05 -3.48871e-06)
(2.59745e-05 -3.20321e-05 -2.33299e-06)
(2.43613e-05 -3.01356e-05 -2.31823e-06)
(2.55687e-05 -3.1722e-05 -3.484e-06)
(2.55709e-05 -3.15577e-05 -2.32975e-06)
(2.11569e-05 -2.63582e-05 -2.27276e-06)
(2.23545e-05 -2.79326e-05 -3.42985e-06)
(2.23538e-05 -2.77714e-05 -2.29255e-06)
(2.29776e-05 -2.8294e-05 -8.32484e-07)
(2.39592e-05 -2.96087e-05 -1.94128e-06)
(2.27542e-05 -2.81904e-05 -1.92819e-06)
(2.27545e-05 -2.84052e-05 -3.43836e-06)
(2.39589e-05 -2.96621e-05 -2.31378e-06)
(2.27542e-05 -2.82435e-05 -2.29838e-06)
(2.43678e-05 -3.05801e-05 -5.39816e-06)
(2.55737e-05 -3.20044e-05 -5.4229e-06)
(2.71895e-05 -3.38456e-05 -4.99928e-06)
(2.59819e-05 -3.22579e-05 -3.83686e-06)
(2.59802e-05 -3.242e-05 -4.98316e-06)
(2.43708e-05 -3.05208e-05 -4.95354e-06)
(2.55786e-05 -3.1783e-05 -3.83165e-06)
(2.55774e-05 -3.1945e-05 -4.97667e-06)
(3.08117e-05 -3.81829e-05 -5.47227e-06)
(3.20226e-05 -3.96141e-05 -5.47539e-06)
(3.36552e-05 -4.14835e-05 -5.04342e-06)
(3.24466e-05 -3.98784e-05 -3.87184e-06)
(3.24375e-05 -4.00387e-05 -5.02727e-06)
(3.08173e-05 -3.81233e-05 -5.0235e-06)
(3.2036e-05 -3.93928e-05 -3.87195e-06)
(3.20283e-05 -3.95545e-05 -5.02648e-06)
(2.75904e-05 -3.39311e-05 -2.34336e-06)
(2.87981e-05 -3.55219e-05 -3.51142e-06)
(2.88024e-05 -3.53562e-05 -2.34869e-06)
(2.94349e-05 -3.5879e-05 -8.53896e-07)
(3.0418e-05 -3.72022e-05 -1.97461e-06)
(2.92074e-05 -3.57768e-05 -1.97199e-06)
(2.92017e-05 -3.59971e-05 -3.51339e-06)
(3.04166e-05 -3.72567e-05 -2.35316e-06)
(2.92062e-05 -3.58312e-05 -2.35007e-06)
(3.04092e-05 -3.77076e-05 -5.47092e-06)
(2.92008e-05 -3.62818e-05 -5.46505e-06)
(2.75928e-05 -3.43209e-05 -5.00362e-06)
(2.88072e-05 -3.55838e-05 -3.86189e-06)
(2.88028e-05 -3.57469e-05 -5.0139e-06)
(3.04147e-05 -3.7648e-05 -5.02219e-06)
(2.92106e-05 -3.6059e-05 -3.86406e-06)
(2.9206e-05 -3.62222e-05 -5.0165e-06)
(3.36568e-05 -4.10908e-05 -2.37978e-06)
(3.24407e-05 -3.98194e-05 -3.52114e-06)
(3.24439e-05 -3.96501e-05 -2.35628e-06)
(3.18605e-05 -3.87374e-05 -8.55559e-07)
(3.08212e-05 -3.76775e-05 -1.97522e-06)
(3.20352e-05 -3.91105e-05 -1.97659e-06)
(3.20291e-05 -3.93326e-05 -3.52089e-06)
(3.08198e-05 -3.7732e-05 -2.35389e-06)
(3.20338e-05 -3.91652e-05 -2.35565e-06)
(9.09337e-06 -1.20958e-05 -5.24958e-06)
(8.77635e-06 -1.16851e-05 -5.1814e-06)
(2.07546e-05 -2.64812e-05 -6.59268e-06)
(2.03607e-05 -2.60107e-05 -6.57219e-06)
(1.49948e-05 -1.95179e-05 -6.15226e-06)
(1.53664e-05 -1.99738e-05 -6.19119e-06)
(3.35158e-05 -4.15744e-05 -6.77939e-06)
(3.31781e-05 -4.11735e-05 -6.77439e-06)
(2.7553e-05 -3.45343e-05 -6.79035e-06)
(2.79558e-05 -3.50094e-05 -6.79483e-06)
(9.1193e-06 -1.20872e-05 -5.08305e-06)
(8.8023e-06 -1.16763e-05 -5.01635e-06)
(9.41428e-06 -1.251e-05 -5.316e-06)
(9.73898e-06 -1.29277e-05 -5.38069e-06)
(1.46254e-05 -1.90636e-05 -6.11185e-06)
(1.42582e-05 -1.8611e-05 -6.06994e-06)
(9.44019e-06 -1.25017e-05 -5.14805e-06)
(9.76486e-06 -1.29196e-05 -5.21137e-06)
(1.46507e-05 -1.90582e-05 -5.92865e-06)
(1.42836e-05 -1.86054e-05 -5.88745e-06)
(2.0779e-05 -2.64784e-05 -6.40242e-06)
(2.03852e-05 -2.60078e-05 -6.38218e-06)
(1.502e-05 -1.95127e-05 -5.96839e-06)
(1.53916e-05 -1.99688e-05 -6.00668e-06)
(2.11495e-05 -2.69522e-05 -6.61203e-06)
(2.15453e-05 -2.74238e-05 -6.63028e-06)
(2.71503e-05 -3.40592e-05 -6.78524e-06)
(2.67477e-05 -3.35841e-05 -6.77948e-06)
(2.11738e-05 -2.69495e-05 -6.42155e-06)
(2.15696e-05 -2.74212e-05 -6.43959e-06)
(2.71741e-05 -3.40581e-05 -6.59321e-06)
(2.67715e-05 -3.3583e-05 -6.58747e-06)
(3.32789e-05 -4.03666e-05 -5.31621e-07)
(3.37169e-05 -4.08137e-05 -4.64904e-08)
(3.33447e-05 -4.03721e-05 -4.46303e-08)
(3.35437e-05 -4.15714e-05 -6.53474e-06)
(3.32078e-05 -4.11773e-05 -6.5616e-06)
(2.75768e-05 -3.45333e-05 -6.59831e-06)
(2.79795e-05 -3.50085e-05 -6.60278e-06)
(3.33497e-05 -4.04805e-05 -7.30033e-07)
(3.3657e-05 -4.09242e-05 -1.26054e-06)
(3.32802e-05 -4.04236e-05 -9.02356e-07)
(3.37194e-05 -4.0871e-05 -4.08796e-07)
(3.32817e-05 -4.0479e-05 -1.26163e-06)
(3.33478e-05 -4.04305e-05 -4.10746e-07)
(3.3726e-05 -4.09252e-05 -7.185e-07)
(8.98559e-06 -1.18216e-05 -3.77649e-06)
(8.65599e-06 -1.13741e-05 -3.43119e-06)
(8.94123e-06 -1.17839e-05 -3.72254e-06)
(8.62277e-06 -1.13772e-05 -3.67577e-06)
(8.66681e-06 -1.14136e-05 -3.72789e-06)
(8.59901e-06 -1.13037e-05 -3.16772e-06)
(8.95872e-06 -1.16972e-05 -2.81357e-06)
(8.64958e-06 -1.13298e-05 -3.0582e-06)
(8.93132e-06 -1.17457e-05 -3.44584e-06)
(8.61258e-06 -1.13397e-05 -3.40262e-06)
(8.63895e-06 -1.12916e-05 -2.77729e-06)
(8.91792e-06 -1.17089e-05 -3.20772e-06)
(1.80228e-05 -2.32032e-05 -6.42397e-06)
(1.8409e-05 -2.3669e-05 -6.45181e-06)
(2.06993e-05 -2.6165e-05 -4.73093e-06)
(2.0302e-05 -2.56414e-05 -4.34155e-06)
(2.06527e-05 -2.61018e-05 -4.63091e-06)
(2.02573e-05 -2.56322e-05 -4.61724e-06)
(2.0304e-05 -2.5695e-05 -4.71633e-06)
(1.79102e-05 -2.28308e-05 -4.51825e-06)
(1.79573e-05 -2.28907e-05 -4.61099e-06)
(1.83419e-05 -2.33034e-05 -4.26269e-06)
(1.82981e-05 -2.32954e-05 -4.53686e-06)
(1.83451e-05 -2.33558e-05 -4.63075e-06)
(1.52271e-05 -1.95172e-05 -3.75315e-06)
(1.49047e-05 -1.90574e-05 -3.29285e-06)
(1.48639e-05 -1.91107e-05 -4.01221e-06)
(1.52852e-05 -1.9561e-05 -3.65014e-06)
(1.52374e-05 -1.95644e-05 -4.03636e-06)
(1.48534e-05 -1.90639e-05 -3.73089e-06)
(1.52788e-05 -1.9511e-05 -3.31348e-06)
(1.71255e-05 -2.18067e-05 -3.85181e-06)
(1.75199e-05 -2.23179e-05 -4.16232e-06)
(1.71845e-05 -2.18536e-05 -3.75157e-06)
(1.75644e-05 -2.2264e-05 -3.42144e-06)
(1.7135e-05 -2.18557e-05 -4.1435e-06)
(1.75106e-05 -2.22687e-05 -3.86912e-06)
(1.7179e-05 -2.18018e-05 -3.40528e-06)
(1.7638e-05 -2.27383e-05 -6.39482e-06)
(1.72549e-05 -2.22745e-05 -6.36434e-06)
(1.49165e-05 -1.92126e-05 -4.41823e-06)
(1.48694e-05 -1.91579e-05 -4.33598e-06)
(1.52846e-05 -1.96173e-05 -4.09237e-06)
(1.52427e-05 -1.96119e-05 -4.36217e-06)
(1.52898e-05 -1.96674e-05 -4.44585e-06)
(1.75239e-05 -2.23672e-05 -4.49875e-06)
(1.7571e-05 -2.24265e-05 -4.59031e-06)
(1.71824e-05 -2.19118e-05 -4.2055e-06)
(1.71392e-05 -2.19047e-05 -4.47835e-06)
(1.71863e-05 -2.19635e-05 -4.56868e-06)
(2.02464e-05 -2.55305e-05 -3.96951e-06)
(2.06979e-05 -2.59969e-05 -3.52663e-06)
(2.0306e-05 -2.55813e-05 -3.87366e-06)
(2.06502e-05 -2.6051e-05 -4.28413e-06)
(2.02547e-05 -2.55815e-05 -4.27153e-06)
(2.0302e-05 -2.55274e-05 -3.5157e-06)
(2.06421e-05 -2.59998e-05 -3.98107e-06)
(1.82855e-05 -2.31959e-05 -3.90143e-06)
(1.79065e-05 -2.27813e-05 -4.18029e-06)
(1.83447e-05 -2.32443e-05 -3.80287e-06)
(1.79514e-05 -2.27273e-05 -3.43691e-06)
(1.82945e-05 -2.32457e-05 -4.19745e-06)
(1.78973e-05 -2.27317e-05 -3.88565e-06)
(1.83399e-05 -2.31917e-05 -3.45169e-06)
(3.07737e-05 -3.83352e-05 -6.81191e-06)
(3.11759e-05 -3.88104e-05 -6.81286e-06)
(3.35819e-05 -4.13754e-05 -4.89734e-06)
(3.32068e-05 -4.08726e-05 -4.50499e-06)
(3.3529e-05 -4.12953e-05 -4.77823e-06)
(3.31491e-05 -4.08459e-05 -4.7849e-06)
(3.31994e-05 -4.09207e-05 -4.88862e-06)
(3.06978e-05 -3.79474e-05 -4.78009e-06)
(3.07421e-05 -3.80159e-05 -4.89191e-06)
(3.11468e-05 -3.84363e-05 -4.5047e-06)
(3.11008e-05 -3.8423e-05 -4.78088e-06)
(3.11449e-05 -3.84914e-05 -4.89281e-06)
(2.78688e-05 -3.45166e-05 -4.09606e-06)
(2.75227e-05 -3.40414e-05 -3.63421e-06)
(2.74712e-05 -3.40948e-05 -4.4067e-06)
(2.79281e-05 -3.45725e-05 -4.00768e-06)
(2.78749e-05 -3.45697e-05 -4.40964e-06)
(2.7465e-05 -3.40418e-05 -4.09337e-06)
(2.79265e-05 -3.45164e-05 -3.63686e-06)
(2.98865e-05 -3.68915e-05 -4.10513e-06)
(3.02954e-05 -3.74199e-05 -4.42076e-06)
(2.99457e-05 -3.6948e-05 -4.01774e-06)
(3.03476e-05 -3.73669e-05 -3.64709e-06)
(2.98923e-05 -3.69448e-05 -4.41958e-06)
(3.02896e-05 -3.73666e-05 -4.1062e-06)
(2.99445e-05 -3.68917e-05 -3.64598e-06)
(3.03715e-05 -3.78601e-05 -6.81071e-06)
(2.99691e-05 -3.73851e-05 -6.80918e-06)
(2.75163e-05 -3.42148e-05 -4.87407e-06)
(2.74713e-05 -3.41471e-05 -4.7639e-06)
(2.79208e-05 -3.46346e-05 -4.49043e-06)
(2.78749e-05 -3.4622e-05 -4.76708e-06)
(2.79199e-05 -3.46899e-05 -4.87755e-06)
(3.0295e-05 -3.74722e-05 -4.77907e-06)
(3.03394e-05 -3.75407e-05 -4.89077e-06)
(2.99379e-05 -3.70101e-05 -4.50147e-06)
(2.9892e-05 -3.69972e-05 -4.77781e-06)
(2.99365e-05 -3.70656e-05 -4.88935e-06)
(3.31463e-05 -4.07434e-05 -4.1161e-06)
(3.35922e-05 -4.12037e-05 -3.65519e-06)
(3.32207e-05 -4.08194e-05 -4.03539e-06)
(3.35381e-05 -4.12555e-05 -4.43675e-06)
(3.31546e-05 -4.08e-05 -4.43189e-06)
(3.32163e-05 -4.0759e-05 -3.66263e-06)
(3.35313e-05 -4.12005e-05 -4.11983e-06)
(3.10958e-05 -3.83174e-05 -4.10775e-06)
(3.06984e-05 -3.78951e-05 -4.42171e-06)
(3.11552e-05 -3.83745e-05 -4.02076e-06)
(3.07508e-05 -3.78423e-05 -3.648e-06)
(3.11015e-05 -3.83707e-05 -4.42245e-06)
(3.06926e-05 -3.78418e-05 -4.10706e-06)
(3.11542e-05 -3.83183e-05 -3.64874e-06)
(9.04598e-06 -1.18025e-05 -3.20484e-06)
(8.7116e-06 -1.13564e-05 -2.89197e-06)
(9.0587e-06 -1.17483e-05 -2.55047e-06)
(8.72607e-06 -1.13939e-05 -3.16152e-06)
(8.73766e-06 -1.13407e-05 -2.51463e-06)
(8.72022e-06 -1.1272e-05 -1.94849e-06)
(9.00362e-06 -1.16861e-05 -2.37409e-06)
(8.69304e-06 -1.13176e-05 -2.63271e-06)
(9.0478e-06 -1.17138e-05 -2.2868e-06)
(8.68292e-06 -1.12803e-05 -2.34199e-06)
(8.72651e-06 -1.1307e-05 -2.25449e-06)
(9.04185e-06 -1.1678e-05 -1.9768e-06)
(9.30827e-06 -1.22333e-05 -3.82382e-06)
(9.26361e-06 -1.21943e-05 -3.76805e-06)
(9.62488e-06 -1.26068e-05 -3.56196e-06)
(9.58979e-06 -1.26083e-05 -3.81232e-06)
(9.63473e-06 -1.26485e-05 -3.86989e-06)
(1.17609e-05 -1.54983e-05 -5.73307e-06)
(1.14156e-05 -1.50629e-05 -5.67852e-06)
(1.16209e-05 -1.51594e-05 -4.05253e-06)
(1.13119e-05 -1.47279e-05 -3.75712e-06)
(1.16672e-05 -1.52063e-05 -4.12059e-06)
(1.12741e-05 -1.47269e-05 -4.01546e-06)
(1.13202e-05 -1.47728e-05 -4.08182e-06)
(1.41127e-05 -1.81625e-05 -3.68373e-06)
(1.45328e-05 -1.86055e-05 -3.27143e-06)
(1.44926e-05 -1.86587e-05 -3.98711e-06)
(1.41702e-05 -1.82041e-05 -3.57914e-06)
(1.44819e-05 -1.86123e-05 -3.70775e-06)
(1.41236e-05 -1.82085e-05 -3.96105e-06)
(1.41632e-05 -1.81555e-05 -3.24922e-06)
(1.23048e-05 -1.59447e-05 -3.54979e-06)
(1.19634e-05 -1.55509e-05 -3.78378e-06)
(1.19988e-05 -1.54992e-05 -3.09862e-06)
(1.23608e-05 -1.59822e-05 -3.44287e-06)
(1.19515e-05 -1.5508e-05 -3.52015e-06)
(1.23165e-05 -1.59881e-05 -3.81588e-06)
(1.23527e-05 -1.59362e-05 -3.12583e-06)
(9.56738e-06 -1.25304e-05 -3.28447e-06)
(9.28236e-06 -1.21064e-05 -2.84891e-06)
(9.25398e-06 -1.21555e-05 -3.48789e-06)
(9.6197e-06 -1.256e-05 -3.17519e-06)
(9.24075e-06 -1.21179e-05 -3.24663e-06)
(9.58044e-06 -1.25688e-05 -3.52879e-06)
(9.60979e-06 -1.25193e-05 -2.88332e-06)
(1.12539e-05 -1.46426e-05 -3.4579e-06)
(1.16132e-05 -1.51163e-05 -3.75062e-06)
(1.13087e-05 -1.46773e-05 -3.34986e-06)
(1.16478e-05 -1.50648e-05 -3.07054e-06)
(1.12661e-05 -1.46843e-05 -3.71639e-06)
(1.16012e-05 -1.50739e-05 -3.48952e-06)
(1.12999e-05 -1.46331e-05 -3.04158e-06)
(1.21092e-05 -1.59363e-05 -5.78598e-06)
(1.24605e-05 -1.63767e-05 -5.83727e-06)
(1.45454e-05 -1.87595e-05 -4.38956e-06)
(1.44983e-05 -1.87055e-05 -4.30877e-06)
(1.41706e-05 -1.82592e-05 -4.01314e-06)
(1.41296e-05 -1.82549e-05 -4.28053e-06)
(1.41766e-05 -1.83081e-05 -4.35982e-06)
(1.19709e-05 -1.55946e-05 -4.08845e-06)
(1.20173e-05 -1.56425e-05 -4.15819e-06)
(1.23629e-05 -1.60346e-05 -3.86101e-06)
(1.23238e-05 -1.60323e-05 -4.12323e-06)
(1.23703e-05 -1.60812e-05 -4.19463e-06)
(9.36975e-06 -1.22147e-05 -3.2471e-06)
(9.38358e-06 -1.21597e-05 -2.58548e-06)
(9.68371e-06 -1.25905e-05 -3.00808e-06)
(9.69727e-06 -1.26304e-05 -3.2883e-06)
(9.71217e-06 -1.25746e-05 -2.61965e-06)
(1.17866e-05 -1.54914e-05 -5.55669e-06)
(1.14414e-05 -1.50557e-05 -5.50319e-06)
(1.17562e-05 -1.51309e-05 -2.80734e-06)
(1.13754e-05 -1.47136e-05 -3.18248e-06)
(1.17353e-05 -1.5191e-05 -3.51367e-06)
(1.13875e-05 -1.4757e-05 -3.47867e-06)
(1.14074e-05 -1.46976e-05 -2.7781e-06)
(1.42676e-05 -1.81428e-05 -2.32528e-06)
(1.4589e-05 -1.85987e-05 -2.78432e-06)
(1.42248e-05 -1.81965e-05 -3.10558e-06)
(1.46396e-05 -1.8639e-05 -2.70396e-06)
(1.42188e-05 -1.81484e-05 -2.76416e-06)
(1.42692e-05 -1.81881e-05 -2.68324e-06)
(1.46383e-05 -1.85932e-05 -2.34356e-06)
(1.24513e-05 -1.59213e-05 -2.22477e-06)
(1.20993e-05 -1.55261e-05 -2.54422e-06)
(1.20508e-05 -1.54906e-05 -2.62826e-06)
(1.24126e-05 -1.59732e-05 -2.98084e-06)
(1.24054e-05 -1.59278e-05 -2.65272e-06)
(1.20961e-05 -1.5484e-05 -2.20281e-06)
(1.24542e-05 -1.59641e-05 -2.56917e-06)
(9.69646e-06 -1.25011e-05 -2.03149e-06)
(9.32818e-06 -1.20957e-05 -2.40542e-06)
(9.37292e-06 -1.21244e-05 -2.31836e-06)
(9.66577e-06 -1.25487e-05 -2.73803e-06)
(9.36729e-06 -1.20877e-05 -2.00447e-06)
(9.65649e-06 -1.25088e-05 -2.43596e-06)
(9.70177e-06 -1.25385e-05 -2.34918e-06)
(1.13944e-05 -1.4617e-05 -2.15703e-06)
(1.17472e-05 -1.50907e-05 -2.51855e-06)
(1.13585e-05 -1.46675e-05 -2.89615e-06)
(1.16992e-05 -1.50559e-05 -2.60305e-06)
(1.13506e-05 -1.4624e-05 -2.5771e-06)
(1.13982e-05 -1.46579e-05 -2.49216e-06)
(1.17438e-05 -1.50491e-05 -2.18024e-06)
(1.21349e-05 -1.59295e-05 -5.60859e-06)
(1.24861e-05 -1.63701e-05 -5.65892e-06)