/*--------------------------------*- C++ -*----------------------------------*\
| =========                 |                                                 |
| \\      /  F ield         | OpenFOAM: The Open Source CFD Toolbox           |
|  \\    /   O peration     | Version:  2012                                  |
|   \\  /    A nd           | Website:  www.openfoam.com                      |
|    \\/     M anipulation  |                                                 |
\*---------------------------------------------------------------------------*/
FoamFile
{
    version     2.0;
    format      ascii;
    class       volVectorField;
    location    "0.104/solid";
    object      D_0_0;
}
// * * * * * * * * * * * * * * * * * * * * * * * * * * * * * * * * * * * * * //

dimensions      [0 1 0 0 0 0 0];


internalField   nonuniform List<vector> 
3125
(
(1.21161e-05 -1.13838e-05 -1.90642e-06)
(2.08664e-05 -1.93244e-05 -2.24175e-06)
(2.83875e-05 -2.60401e-05 -2.38314e-06)
(3.84331e-05 -3.49545e-05 -2.45407e-06)
(4.66447e-05 -4.21601e-05 -1.87727e-06)
(1.22639e-05 -1.13717e-05 -1.01848e-06)
(1.98321e-05 -1.83946e-05 -2.21368e-06)
(1.30159e-05 -1.22094e-05 -1.95337e-06)
(2.00198e-05 -1.8387e-05 -1.20566e-06)
(1.31697e-05 -1.21979e-05 -1.04646e-06)
(2.10579e-05 -1.93173e-05 -1.22334e-06)
(2.85999e-05 -2.60362e-05 -1.31485e-06)
(3.73102e-05 -3.3958e-05 -2.45063e-06)
(2.94911e-05 -2.70208e-05 -2.39632e-06)
(3.75359e-05 -3.39566e-05 -1.36184e-06)
(2.97057e-05 -2.70173e-05 -1.3237e-06)
(4.66455e-05 -4.20602e-05 -1.34852e-06)
(4.67557e-05 -4.20599e-05 -8.25696e-07)
(3.86597e-05 -3.49533e-05 -1.3645e-06)
(4.67578e-05 -4.21599e-05 -1.34149e-06)
(1.24507e-05 -1.20585e-05 -4.7341e-06)
(1.24435e-05 -1.19866e-05 -4.22995e-06)
(2.87292e-05 -2.69708e-05 -5.94946e-06)
(2.49186e-05 -2.35391e-05 -5.79585e-06)
(2.06949e-05 -1.96087e-05 -4.96079e-06)
(2.40372e-05 -2.21641e-05 -2.31362e-06)
(2.43871e-05 -2.29559e-05 -5.15794e-06)
(2.06927e-05 -1.97006e-05 -5.54962e-06)
(2.43817e-05 -2.30536e-05 -5.76939e-06)
(2.87377e-05 -2.6868e-05 -5.31962e-06)
(2.51134e-05 -2.31248e-05 -2.33367e-06)
(2.49244e-05 -2.34407e-05 -5.18169e-06)
(4.66307e-05 -4.29588e-05 -6.14604e-06)
(4.2686e-05 -3.94341e-05 -6.15614e-06)
(3.82161e-05 -3.53273e-05 -5.48519e-06)
(4.17995e-05 -3.79462e-05 -2.45998e-06)
(4.21404e-05 -3.88245e-05 -5.50477e-06)
(3.8203e-05 -3.54364e-05 -6.13325e-06)
(4.21262e-05 -3.89345e-05 -6.15468e-06)
(4.66507e-05 -4.28568e-05 -5.51497e-06)
(4.29211e-05 -3.89448e-05 -2.46061e-06)
(4.27004e-05 -3.93241e-05 -5.50613e-06)
(1.25404e-05 -1.20345e-05 -4.17452e-06)
(1.25138e-05 -1.19701e-05 -3.78891e-06)
(1.28991e-05 -1.24814e-05 -4.79407e-06)
(1.61772e-05 -1.55451e-05 -5.17067e-06)
(1.68114e-05 -1.5667e-05 -2.11624e-06)
(2.01787e-05 -1.91381e-05 -4.92801e-06)
(1.66617e-05 -1.59124e-05 -4.66393e-06)
(1.28925e-05 -1.2408e-05 -4.28367e-06)
(1.58354e-05 -1.47815e-05 -2.07916e-06)
(1.61747e-05 -1.54626e-05 -4.62109e-06)
(2.0177e-05 -1.92292e-05 -5.51305e-06)
(1.66637e-05 -1.59961e-05 -5.21847e-06)
(1.29907e-05 -1.2458e-05 -4.22905e-06)
(1.62807e-05 -1.55259e-05 -4.57254e-06)
(1.69861e-05 -1.56578e-05 -1.14516e-06)
(2.0269e-05 -1.91279e-05 -4.43369e-06)
(1.67443e-05 -1.58996e-05 -4.18892e-06)
(1.29643e-05 -1.23919e-05 -3.83829e-06)
(1.60053e-05 -1.47717e-05 -1.12245e-06)
(1.62561e-05 -1.54494e-05 -4.14933e-06)
(2.02917e-05 -1.92143e-05 -4.88668e-06)
(1.67687e-05 -1.59774e-05 -4.61627e-06)
(2.88595e-05 -2.69635e-05 -5.29139e-06)
(2.50431e-05 -2.35288e-05 -5.14811e-06)
(2.07862e-05 -1.95988e-05 -4.46418e-06)
(2.42389e-05 -2.21584e-05 -1.26924e-06)
(2.44845e-05 -2.29485e-05 -4.64804e-06)
(2.08087e-05 -1.96863e-05 -4.92036e-06)
(2.45053e-05 -2.30428e-05 -5.12354e-06)
(2.88405e-05 -2.6863e-05 -4.79988e-06)
(2.53181e-05 -2.31197e-05 -1.28225e-06)
(2.50225e-05 -2.34336e-05 -4.67026e-06)
(2.92799e-05 -2.74649e-05 -5.96716e-06)
(3.31647e-05 -3.09417e-05 -6.0647e-06)
(3.39457e-05 -3.09738e-05 -2.43459e-06)
(3.76552e-05 -3.48277e-05 -5.48063e-06)
(3.37342e-05 -3.13335e-05 -5.43271e-06)
(2.92887e-05 -2.73616e-05 -5.33552e-06)
(3.28274e-05 -2.9982e-05 -2.42702e-06)
(3.31757e-05 -3.08353e-05 -5.42327e-06)
(3.76423e-05 -3.49365e-05 -6.12823e-06)
(3.37229e-05 -3.14403e-05 -6.07518e-06)
(2.94109e-05 -2.7458e-05 -5.30799e-06)
(3.33e-05 -3.09373e-05 -5.40017e-06)
(3.41676e-05 -3.09716e-05 -1.35011e-06)
(3.77646e-05 -3.48261e-05 -4.95376e-06)
(3.38414e-05 -3.13307e-05 -4.90732e-06)
(2.93921e-05 -2.73568e-05 -4.8149e-06)
(3.30478e-05 -2.99795e-05 -1.34476e-06)
(3.32825e-05 -3.08323e-05 -4.89827e-06)
(3.77809e-05 -3.49343e-05 -5.46151e-06)
(3.38587e-05 -3.14362e-05 -5.41018e-06)
(4.67744e-05 -4.2959e-05 -5.46896e-06)
(4.28265e-05 -3.94335e-05 -5.49e-06)
(3.83258e-05 -3.53259e-05 -4.95826e-06)
(4.20283e-05 -3.79455e-05 -1.36952e-06)
(4.22513e-05 -3.88239e-05 -4.97811e-06)
(3.83419e-05 -3.54344e-05 -5.46648e-06)
(4.22666e-05 -3.89338e-05 -5.48838e-06)
(4.67633e-05 -4.28569e-05 -4.98388e-06)
(4.31503e-05 -3.89442e-05 -1.3704e-06)
(4.28114e-05 -3.93236e-05 -4.97959e-06)
(1.25396e-05 -1.23162e-05 -6.25535e-06)
(1.23884e-05 -1.17409e-05 -2.70571e-06)
(2.87733e-05 -2.73392e-05 -7.86427e-06)
(2.71334e-05 -2.58558e-05 -7.78598e-06)
(2.06561e-05 -1.92883e-05 -3.16743e-06)
(2.19127e-05 -2.02631e-05 -2.26772e-06)
(2.22254e-05 -2.07022e-05 -3.22503e-06)
(2.0756e-05 -2.00299e-05 -7.33529e-06)
(2.23169e-05 -2.14658e-05 -7.47006e-06)
(2.87112e-05 -2.65068e-05 -3.39293e-06)
(2.72895e-05 -2.50635e-05 -2.36836e-06)
(2.70645e-05 -2.50379e-05 -3.35953e-06)
(4.66377e-05 -4.33478e-05 -8.16038e-06)
(4.49623e-05 -4.18435e-05 -8.13772e-06)
(3.8199e-05 -3.49417e-05 -3.4958e-06)
(3.95558e-05 -3.59515e-05 -2.45672e-06)
(3.98829e-05 -3.64385e-05 -3.50244e-06)
(3.8232e-05 -3.58279e-05 -8.10495e-06)
(3.99125e-05 -3.73296e-05 -8.11992e-06)
(4.66363e-05 -4.24584e-05 -3.48594e-06)
(4.51956e-05 -4.0974e-05 -2.46095e-06)
(4.49423e-05 -4.09469e-05 -3.51004e-06)
(1.2606e-05 -1.22945e-05 -5.87068e-06)
(1.24756e-05 -1.17285e-05 -2.16624e-06)
(1.29864e-05 -1.27442e-05 -6.33473e-06)
(1.4358e-05 -1.40507e-05 -6.56054e-06)
(1.88108e-05 -1.74745e-05 -2.18344e-06)
(2.01391e-05 -1.88213e-05 -3.1469e-06)
(1.86072e-05 -1.74345e-05 -3.08014e-06)
(1.28383e-05 -1.21569e-05 -2.73953e-06)
(1.39366e-05 -1.30517e-05 -1.99778e-06)
(1.42194e-05 -1.34294e-05 -2.83645e-06)
(2.02417e-05 -1.95551e-05 -7.28687e-06)
(1.87186e-05 -1.81436e-05 -7.1308e-06)
(1.30539e-05 -1.2723e-05 -5.94649e-06)
(1.44286e-05 -1.40311e-05 -6.16233e-06)
(1.89944e-05 -1.74664e-05 -1.18675e-06)
(2.0251e-05 -1.88136e-05 -2.53854e-06)
(1.87153e-05 -1.7426e-05 -2.48163e-06)
(1.29275e-05 -1.21449e-05 -2.19445e-06)
(1.4096e-05 -1.30407e-05 -1.07311e-06)
(1.43138e-05 -1.34183e-05 -2.2758e-06)
(2.03225e-05 -1.95416e-05 -6.85871e-06)
(1.87971e-05 -1.81286e-05 -6.70877e-06)
(2.8863e-05 -2.73324e-05 -7.41609e-06)
(2.72218e-05 -2.58479e-05 -7.34015e-06)
(2.07693e-05 -1.92809e-05 -2.55603e-06)
(2.21078e-05 -2.02565e-05 -1.23981e-06)
(2.23419e-05 -2.06956e-05 -2.60541e-06)
(2.08375e-05 -2.00168e-05 -6.90528e-06)
(2.24004e-05 -2.14541e-05 -7.03503e-06)
(2.88384e-05 -2.65029e-05 -2.75078e-06)
(2.74995e-05 -2.50592e-05 -1.30502e-06)
(2.71895e-05 -2.50334e-05 -2.72158e-06)
(2.93229e-05 -2.78352e-05 -7.88762e-06)
(3.09789e-05 -2.93273e-05 -7.94988e-06)
(3.61877e-05 -3.29622e-05 -2.44631e-06)
(3.76377e-05 -3.4443e-05 -3.49302e-06)
(3.59542e-05 -3.29474e-05 -3.48258e-06)
(2.92628e-05 -2.69983e-05 -3.4028e-06)
(3.05994e-05 -2.8005e-05 -2.40796e-06)
(3.09251e-05 -2.8478e-05 -3.42938e-06)
(3.76719e-05 -3.53272e-05 -8.09854e-06)
(3.59926e-05 -3.3825e-05 -8.07449e-06)
(2.94129e-05 -2.78288e-05 -7.43878e-06)
(3.107e-05 -2.93218e-05 -7.4994e-06)
(3.64122e-05 -3.29605e-05 -1.3586e-06)
(3.77731e-05 -3.44417e-05 -2.84025e-06)
(3.60885e-05 -3.29458e-05 -2.83059e-06)
(2.93908e-05 -2.69946e-05 -2.75943e-06)
(3.08161e-05 -2.80019e-05 -1.33161e-06)
(3.10549e-05 -2.84749e-05 -2.78287e-06)
(3.77661e-05 -3.5325e-05 -7.64567e-06)
(3.60862e-05 -3.38222e-05 -7.62169e-06)
(4.52097e-05 -4.0771e-05 -1.3242e-06)
(4.54212e-05 -4.07705e-05 -3.20649e-07)
(4.67331e-05 -4.33479e-05 -7.71166e-06)
(4.50576e-05 -4.1843e-05 -7.68663e-06)
(3.83347e-05 -3.49406e-05 -2.84285e-06)
(3.97833e-05 -3.59505e-05 -1.36663e-06)
(4.00193e-05 -3.64377e-05 -2.8492e-06)
(3.83264e-05 -3.58259e-05 -7.6521e-06)
(4.00072e-05 -3.73281e-05 -7.6673e-06)
(4.67648e-05 -4.24584e-05 -2.87863e-06)
(4.54263e-05 -4.09736e-05 -1.36735e-06)
(4.508e-05 -4.09467e-05 -2.85788e-06)
(1.25104e-05 -1.22451e-05 -5.86476e-06)
(1.23998e-05 -1.18024e-05 -3.08361e-06)
(2.49711e-05 -2.38917e-05 -7.66125e-06)
(2.659e-05 -2.53631e-05 -7.75703e-06)
(2.87566e-05 -2.72401e-05 -7.37205e-06)
(2.70858e-05 -2.54937e-05 -5.89018e-06)
(2.71157e-05 -2.57583e-05 -7.29865e-06)
(2.4952e-05 -2.37966e-05 -7.18175e-06)
(2.65412e-05 -2.50033e-05 -5.86828e-06)
(2.65719e-05 -2.52662e-05 -7.27152e-06)
(2.06642e-05 -1.93678e-05 -3.6122e-06)
(2.22614e-05 -2.10325e-05 -5.05209e-06)
(2.22328e-05 -2.07841e-05 -3.67811e-06)
(2.29699e-05 -2.12099e-05 -2.29165e-06)
(2.43545e-05 -2.26139e-05 -3.29158e-06)
(2.27539e-05 -2.11775e-05 -3.24262e-06)
(2.27891e-05 -2.15108e-05 -5.08021e-06)
(2.43612e-05 -2.26986e-05 -3.75443e-06)
(2.27611e-05 -2.12601e-05 -3.69837e-06)
(2.44355e-05 -2.34037e-05 -7.62623e-06)
(2.28428e-05 -2.19479e-05 -7.51158e-06)
(2.07339e-05 -1.99407e-05 -6.87637e-06)
(2.22578e-05 -2.1127e-05 -5.65141e-06)
(2.22959e-05 -2.13742e-05 -7.00263e-06)
(2.4416e-05 -2.33092e-05 -7.14894e-06)
(2.2785e-05 -2.16062e-05 -5.68276e-06)
(2.28222e-05 -2.18556e-05 -7.04152e-06)
(2.87166e-05 -2.6596e-05 -3.8708e-06)
(2.70932e-05 -2.53926e-05 -5.26637e-06)
(2.70704e-05 -2.51256e-05 -3.83249e-06)
(2.61978e-05 -2.40915e-05 -2.3519e-06)
(2.48925e-05 -2.30959e-05 -3.3064e-06)
(2.65188e-05 -2.45505e-05 -3.34728e-06)
(2.65482e-05 -2.49028e-05 -5.24671e-06)
(2.4899e-05 -2.31813e-05 -3.77152e-06)
(2.65248e-05 -2.46377e-05 -3.81836e-06)
(4.27107e-05 -3.98299e-05 -8.1333e-06)
(4.43933e-05 -4.13344e-05 -8.13724e-06)
(4.66424e-05 -4.32558e-05 -7.65412e-06)
(4.49415e-05 -4.1449e-05 -6.15855e-06)
(4.49508e-05 -4.17368e-05 -7.62986e-06)
(4.26994e-05 -3.97239e-05 -7.6255e-06)
(4.43712e-05 -4.09392e-05 -6.15842e-06)
(4.43821e-05 -4.1228e-05 -7.62908e-06)
(3.82025e-05 -3.50368e-05 -3.98941e-06)
(3.98988e-05 -3.68263e-05 -5.49601e-06)
(3.98861e-05 -3.65342e-05 -3.99712e-06)
(4.0678e-05 -3.69487e-05 -2.45867e-06)
(4.21257e-05 -3.84345e-05 -3.50777e-06)
(4.04439e-05 -3.69375e-05 -3.5041e-06)
(4.04595e-05 -3.7326e-05 -5.49875e-06)
(4.21287e-05 -3.85307e-05 -4.00335e-06)
(4.0447e-05 -3.70333e-05 -3.99907e-06)
(4.21514e-05 -3.93301e-05 -8.13154e-06)
(4.04725e-05 -3.78299e-05 -8.12363e-06)
(3.82196e-05 -3.5723e-05 -7.59834e-06)
(3.98852e-05 -3.69359e-05 -6.14513e-06)
(3.99005e-05 -3.72242e-05 -7.6126e-06)
(4.214e-05 -3.92242e-05 -7.6238e-06)
(4.04458e-05 -3.74357e-05 -6.14813e-06)
(4.04607e-05 -3.77244e-05 -7.61615e-06)
(4.6638e-05 -4.25566e-05 -3.9947e-06)
(4.49596e-05 -4.1342e-05 -5.5099e-06)
(4.49453e-05 -4.1044e-05 -4.0072e-06)
(4.40478e-05 -3.99491e-05 -2.46054e-06)
(4.2686e-05 -3.89337e-05 -3.50857e-06)
(4.43727e-05 -4.04381e-05 -3.50993e-06)
(4.43879e-05 -4.08308e-05 -5.50883e-06)
(4.26889e-05 -3.903e-05 -4.00431e-06)
(4.43755e-05 -4.05348e-05 -4.00635e-06)
(1.2589e-05 -1.22208e-05 -5.39686e-06)
(1.24832e-05 -1.17885e-05 -2.56374e-06)
(1.29577e-05 -1.26718e-05 -5.93912e-06)
(1.42753e-05 -1.37732e-05 -4.96461e-06)
(1.43305e-05 -1.39746e-05 -6.15066e-06)
(1.62537e-05 -1.58405e-05 -6.83342e-06)
(1.4825e-05 -1.44933e-05 -6.63175e-06)
(1.47439e-05 -1.42112e-05 -5.01838e-06)
(1.62279e-05 -1.57599e-05 -6.40627e-06)
(1.47979e-05 -1.4416e-05 -6.21736e-06)
(1.78035e-05 -1.6565e-05 -2.15098e-06)
(1.66155e-05 -1.5623e-05 -2.9801e-06)
(1.81037e-05 -1.69774e-05 -3.0565e-06)
(2.01473e-05 -1.88999e-05 -3.58856e-06)
(1.86497e-05 -1.77403e-05 -4.82236e-06)
(1.8616e-05 -1.75105e-05 -3.51222e-06)
(1.66251e-05 -1.5695e-05 -3.3977e-06)
(1.8147e-05 -1.72793e-05 -4.78466e-06)
(1.81126e-05 -1.70524e-05 -3.48501e-06)
(1.28496e-05 -1.22197e-05 -3.12248e-06)
(1.42705e-05 -1.36958e-05 -4.43645e-06)
(1.423e-05 -1.34959e-05 -3.23314e-06)
(1.48768e-05 -1.39094e-05 -2.03969e-06)
(1.61276e-05 -1.51776e-05 -2.9532e-06)
(1.46895e-05 -1.38612e-05 -2.86674e-06)
(1.47397e-05 -1.41324e-05 -4.48463e-06)
(1.61373e-05 -1.52486e-05 -3.36675e-06)
(1.46999e-05 -1.39288e-05 -3.26798e-06)
(1.67387e-05 -1.62957e-05 -6.89672e-06)
(1.82179e-05 -1.76778e-05 -7.07511e-06)
(2.02192e-05 -1.94668e-05 -6.83101e-06)
(1.86495e-05 -1.78283e-05 -5.39521e-06)
(1.86948e-05 -1.8058e-05 -6.68483e-06)
(1.67133e-05 -1.6214e-05 -6.46556e-06)
(1.81473e-05 -1.73663e-05 -5.35316e-06)
(1.81937e-05 -1.75931e-05 -6.63266e-06)
(1.30377e-05 -1.26481e-05 -5.46684e-06)
(1.43723e-05 -1.37516e-05 -4.38436e-06)
(1.44145e-05 -1.39527e-05 -5.6661e-06)
(1.63281e-05 -1.5823e-05 -6.42355e-06)
(1.48966e-05 -1.44742e-05 -6.23045e-06)
(1.48426e-05 -1.41902e-05 -4.43341e-06)
(1.63169e-05 -1.57404e-05 -5.90734e-06)
(1.48833e-05 -1.43948e-05 -5.729e-06)
(1.79828e-05 -1.65564e-05 -1.16659e-06)
(1.67179e-05 -1.56134e-05 -2.39682e-06)
(1.82104e-05 -1.69686e-05 -2.4616e-06)
(2.02545e-05 -1.88913e-05 -3.00328e-06)
(1.87369e-05 -1.7729e-05 -4.33562e-06)
(1.87196e-05 -1.75009e-05 -2.9363e-06)
(1.67231e-05 -1.56842e-05 -2.83622e-06)
(1.82331e-05 -1.72676e-05 -4.30068e-06)
(1.82148e-05 -1.70426e-05 -2.91249e-06)
(1.29348e-05 -1.22062e-05 -2.59731e-06)
(1.43466e-05 -1.36809e-05 -3.97895e-06)
(1.43203e-05 -1.34834e-05 -2.69315e-06)
(1.50415e-05 -1.3899e-05 -1.09843e-06)
(1.62284e-05 -1.51677e-05 -2.37414e-06)
(1.47857e-05 -1.38503e-05 -2.3012e-06)
(1.48172e-05 -1.4118e-05 -4.02336e-06)
(1.62338e-05 -1.52374e-05 -2.80926e-06)
(1.47919e-05 -1.39166e-05 -2.72336e-06)
(1.6814e-05 -1.62787e-05 -6.48421e-06)
(1.82957e-05 -1.76623e-05 -6.6553e-06)
(2.03166e-05 -1.94517e-05 -6.30952e-06)
(1.87603e-05 -1.78119e-05 -4.77832e-06)
(1.87893e-05 -1.80413e-05 -6.17089e-06)
(1.68034e-05 -1.61951e-05 -5.96338e-06)
(1.82568e-05 -1.73493e-05 -4.73972e-06)
(1.82871e-05 -1.75759e-05 -6.12148e-06)
(2.50575e-05 -2.38822e-05 -7.21947e-06)
(2.66779e-05 -2.53548e-05 -7.31211e-06)
(2.88656e-05 -2.72327e-05 -6.82568e-06)
(2.72139e-05 -2.54851e-05 -5.23594e-06)
(2.7223e-05 -2.57496e-05 -6.75522e-06)
(2.50567e-05 -2.37862e-05 -6.64337e-06)
(2.66684e-05 -2.49943e-05 -5.21551e-06)
(2.66786e-05 -2.52571e-05 -6.72923e-06)
(2.07726e-05 -1.93594e-05 -3.02407e-06)
(2.23555e-05 -2.10237e-05 -4.54918e-06)
(2.23445e-05 -2.07766e-05 -3.08218e-06)
(2.31685e-05 -2.12038e-05 -1.2551e-06)
(2.4475e-05 -2.26083e-05 -2.66269e-06)
(2.28715e-05 -2.11711e-05 -2.62048e-06)
(2.28841e-05 -2.15024e-05 -4.57542e-06)
(2.44768e-05 -2.26923e-05 -3.14976e-06)
(2.28739e-05 -2.12529e-05 -3.10008e-06)
(2.45214e-05 -2.33937e-05 -7.18565e-06)
(2.29269e-05 -2.19367e-05 -7.07504e-06)
(2.08322e-05 -1.99262e-05 -6.35259e-06)
(2.23772e-05 -2.11143e-05 -5.01429e-06)
(2.23968e-05 -2.13613e-05 -6.47262e-06)
(2.45201e-05 -2.32983e-05 -6.61205e-06)
(2.29055e-05 -2.1594e-05 -5.04329e-06)
(2.29239e-05 -2.18432e-05 -6.50964e-06)
(2.88387e-05 -2.65917e-05 -3.25367e-06)
(2.71942e-05 -2.53867e-05 -4.74972e-06)
(2.71903e-05 -2.51206e-05 -3.21931e-06)
(2.64053e-05 -2.40868e-05 -1.29416e-06)
(2.5014e-05 -2.30905e-05 -2.67547e-06)
(2.66429e-05 -2.45458e-05 -2.71095e-06)
(2.66486e-05 -2.48966e-05 -4.73124e-06)
(2.50156e-05 -2.31752e-05 -3.16494e-06)
(2.66439e-05 -2.46324e-05 -3.20668e-06)
(2.93064e-05 -2.77357e-05 -7.39395e-06)
(3.0939e-05 -2.89516e-05 -6.0144e-06)
(3.09633e-05 -2.92264e-05 -7.45237e-06)
(3.32007e-05 -3.13235e-05 -8.01596e-06)
(3.1533e-05 -2.98257e-05 -7.96815e-06)
(3.14942e-05 -2.94484e-05 -6.02828e-06)
(3.31862e-05 -3.12211e-05 -7.51443e-06)
(3.15178e-05 -2.97244e-05 -7.46952e-06)
(3.5066e-05 -3.19673e-05 -2.44099e-06)
(3.37133e-05 -3.09567e-05 -3.46337e-06)
(3.53935e-05 -3.24493e-05 -3.47841e-06)
(3.76412e-05 -3.45379e-05 -3.98617e-06)
(3.5973e-05 -3.33292e-05 -5.46374e-06)
(3.5958e-05 -3.30416e-05 -3.97411e-06)
(3.37176e-05 -3.10498e-05 -3.95193e-06)
(3.54127e-05 -3.28299e-05 -5.45694e-06)
(3.53974e-05 -3.25433e-05 -3.96926e-06)
(2.92681e-05 -2.70881e-05 -3.88221e-06)
(3.09489e-05 -2.88469e-05 -5.378e-06)
(3.09299e-05 -2.85691e-05 -3.91272e-06)
(3.17118e-05 -2.89922e-05 -2.41817e-06)
(3.31543e-05 -3.046e-05 -3.45754e-06)
(3.14811e-05 -2.89726e-05 -3.43711e-06)
(3.15043e-05 -2.93432e-05 -5.39048e-06)
(3.31586e-05 -3.05527e-05 -3.94517e-06)
(3.14858e-05 -2.90641e-05 -3.92167e-06)
(3.3758e-05 -3.18234e-05 -8.02968e-06)
(3.54333e-05 -3.33244e-05 -8.06472e-06)
(3.76593e-05 -3.52225e-05 -7.59226e-06)
(3.59608e-05 -3.34372e-05 -6.10956e-06)
(3.59793e-05 -3.37211e-05 -7.56953e-06)
(3.37438e-05 -3.17206e-05 -7.52734e-06)
(3.54007e-05 -3.29377e-05 -6.10204e-06)
(3.54198e-05 -3.32207e-05 -7.56032e-06)
(2.9416e-05 -2.77287e-05 -6.84675e-06)
(3.10721e-05 -2.89458e-05 -5.35247e-06)
(3.10743e-05 -2.92205e-05 -6.9031e-06)
(3.3293e-05 -3.13193e-05 -7.56401e-06)
(3.16245e-05 -2.98206e-05 -7.51722e-06)
(3.16278e-05 -2.9443e-05 -5.3656e-06)
(3.32989e-05 -3.12166e-05 -6.96329e-06)
(3.16292e-05 -2.97189e-05 -6.91969e-06)
(3.52893e-05 -3.19654e-05 -1.35471e-06)
(3.38459e-05 -3.09545e-05 -2.81315e-06)
(3.55274e-05 -3.24476e-05 -2.82679e-06)
(3.77712e-05 -3.45365e-05 -3.3593e-06)
(3.60816e-05 -3.33271e-05 -4.93725e-06)
(3.6087e-05 -3.30398e-05 -3.34791e-06)
(3.38449e-05 -3.10473e-05 -3.32733e-06)
(3.5521e-05 -3.28277e-05 -4.93066e-06)
(3.5526e-05 -3.25413e-05 -3.34339e-06)
(2.9391e-05 -2.7084e-05 -3.26395e-06)
(3.10538e-05 -2.88429e-05 -4.85513e-06)
(3.10546e-05 -2.85656e-05 -3.29153e-06)
(3.19304e-05 -2.89894e-05 -1.33861e-06)
(3.32864e-05 -3.04576e-05 -2.80794e-06)
(3.16116e-05 -2.89697e-05 -2.7897e-06)
(3.16098e-05 -2.93395e-05 -4.867e-06)
(3.32855e-05 -3.055e-05 -3.32113e-06)
(3.16111e-05 -2.90609e-05 -3.29966e-06)
(3.38506e-05 -3.18195e-05 -7.57748e-06)
(3.55267e-05 -3.33213e-05 -7.61202e-06)
(3.77744e-05 -3.52203e-05 -7.03983e-06)
(3.60983e-05 -3.34343e-05 -5.44327e-06)
(3.60936e-05 -3.37181e-05 -7.01725e-06)
(3.38568e-05 -3.17165e-05 -6.97587e-06)
(3.55378e-05 -3.29344e-05 -5.43599e-06)
(3.55338e-05 -3.32175e-05 -7.00818e-06)
(4.28059e-05 -3.98291e-05 -7.68138e-06)
(4.44886e-05 -4.13339e-05 -7.68587e-06)
(4.67596e-05 -4.32559e-05 -7.10241e-06)
(4.50826e-05 -4.14489e-05 -5.49273e-06)
(4.50675e-05 -4.17365e-05 -7.07946e-06)
(4.28159e-05 -3.97233e-05 -7.07405e-06)
(4.45121e-05 -4.09389e-05 -5.49279e-06)
(4.44988e-05 -4.12277e-05 -7.07833e-06)
(3.83328e-05 -3.50356e-05 -3.3624e-06)
(4.00091e-05 -3.68254e-05 -4.96906e-06)
(4.00172e-05 -3.65333e-05 -3.3699e-06)
(4.09062e-05 -3.69479e-05 -1.36828e-06)
(4.2263e-05 -3.8434e-05 -2.85453e-06)
(4.05805e-05 -3.69367e-05 -2.85082e-06)
(4.057e-05 -3.73251e-05 -4.97185e-06)
(4.22605e-05 -3.85301e-05 -3.37622e-06)
(4.05783e-05 -3.70325e-05 -3.37183e-06)
(4.22466e-05 -3.93292e-05 -7.67945e-06)
(4.05673e-05 -3.78286e-05 -7.67112e-06)
(3.83349e-05 -3.5721e-05 -7.04592e-06)
(4.00249e-05 -3.69346e-05 -5.4784e-06)
(4.00164e-05 -3.72228e-05 -7.06039e-06)
(4.22564e-05 -3.92234e-05 -7.07217e-06)
(4.05857e-05 -3.74345e-05 -5.48148e-06)
(4.05767e-05 -3.77231e-05 -7.06406e-06)
(4.67623e-05 -4.25566e-05 -3.40713e-06)
(4.50711e-05 -4.13419e-05 -4.98303e-06)
(4.50777e-05 -4.10438e-05 -3.38067e-06)
(4.42773e-05 -3.99486e-05 -1.37061e-06)
(4.28234e-05 -3.89332e-05 -2.8554e-06)
(4.45103e-05 -4.04379e-05 -2.85731e-06)
(4.44992e-05 -4.08306e-05 -4.98254e-06)
(4.28209e-05 -3.90295e-05 -3.37726e-06)
(4.45078e-05 -4.05346e-05 -3.37976e-06)
(1.26204e-05 -1.25332e-05 -7.26586e-06)
(1.21802e-05 -1.2107e-05 -7.17124e-06)
(2.88171e-05 -2.75998e-05 -9.1328e-06)
(2.82699e-05 -2.71038e-05 -9.10428e-06)
(2.08158e-05 -2.02758e-05 -8.52e-06)
(2.1332e-05 -2.07539e-05 -8.57414e-06)
(4.65464e-05 -4.34972e-05 -9.38004e-06)
(4.6078e-05 -4.30773e-05 -9.37861e-06)
(3.82629e-05 -3.60964e-05 -9.40785e-06)
(3.88226e-05 -3.65973e-05 -9.41407e-06)
(1.26571e-05 -1.25212e-05 -7.09222e-06)
(1.22167e-05 -1.20948e-05 -6.99923e-06)
(1.30659e-05 -1.29633e-05 -7.35807e-06)
(1.35168e-05 -1.33972e-05 -7.44788e-06)
(2.03026e-05 -1.97997e-05 -8.46381e-06)
(1.97927e-05 -1.93257e-05 -8.40553e-06)
(1.31029e-05 -1.29516e-05 -7.18285e-06)
(1.3554e-05 -1.33858e-05 -7.27113e-06)
(2.03423e-05 -1.97921e-05 -8.27097e-06)
(1.98323e-05 -1.93178e-05 -8.21355e-06)
(2.88583e-05 -2.75957e-05 -8.93122e-06)
(2.8311e-05 -2.70995e-05 -8.90301e-06)
(2.08556e-05 -2.02685e-05 -8.32635e-06)
(2.1372e-05 -2.07467e-05 -8.37971e-06)
(2.93657e-05 -2.80965e-05 -9.15974e-06)
(2.99156e-05 -2.85939e-05 -9.18514e-06)
(3.77034e-05 -3.55954e-05 -9.40076e-06)
(3.7144e-05 -3.50944e-05 -9.39275e-06)
(2.94069e-05 -2.80926e-05 -8.95788e-06)
(2.99569e-05 -2.85902e-05 -8.98302e-06)
(3.77452e-05 -3.55937e-05 -9.19726e-06)
(3.71858e-05 -3.50926e-05 -9.18924e-06)
(4.62354e-05 -4.15945e-05 -8.28225e-07)
(4.68668e-05 -4.20634e-05 -3.18759e-07)
(4.63498e-05 -4.16001e-05 -3.16626e-07)
(4.65975e-05 -4.34944e-05 -9.12434e-06)
(4.61297e-05 -4.30813e-05 -9.15517e-06)
(3.83048e-05 -3.60948e-05 -9.20437e-06)
(3.88644e-05 -3.65959e-05 -9.21063e-06)
(4.63616e-05 -4.17981e-05 -1.30307e-06)
(4.67621e-05 -4.22604e-05 -1.84964e-06)
(4.62376e-05 -4.16948e-05 -1.34573e-06)
(4.68709e-05 -4.21636e-05 -8.26133e-07)
(4.62408e-05 -4.1794e-05 -1.85296e-06)
(4.63547e-05 -4.17018e-05 -8.29127e-07)
(4.68845e-05 -4.22634e-05 -1.287e-06)
(1.24652e-05 -1.21221e-05 -5.147e-06)
(1.20077e-05 -1.16398e-05 -4.67256e-06)
(1.23967e-05 -1.20594e-05 -4.96313e-06)
(1.19548e-05 -1.16414e-05 -4.89961e-06)
(1.20227e-05 -1.17021e-05 -5.08015e-06)
(1.19212e-05 -1.15245e-05 -4.18201e-06)
(1.24288e-05 -1.19243e-05 -3.83249e-06)
(1.19998e-05 -1.15694e-05 -4.17483e-06)
(1.23831e-05 -1.19989e-05 -4.58051e-06)
(1.19408e-05 -1.15821e-05 -4.52193e-06)
(1.19849e-05 -1.15084e-05 -3.7826e-06)
(1.23637e-05 -1.19399e-05 -4.23601e-06)
(2.50219e-05 -2.41466e-05 -8.89798e-06)
(2.55585e-05 -2.46368e-05 -8.93672e-06)
(2.87312e-05 -2.70623e-05 -6.46691e-06)
(2.81799e-05 -2.64775e-05 -5.93074e-06)
(2.86531e-05 -2.69535e-05 -6.2099e-06)
(2.81042e-05 -2.64606e-05 -6.19092e-06)
(2.81822e-05 -2.65685e-05 -6.44661e-06)
(2.48455e-05 -2.35248e-05 -6.05366e-06)
(2.49228e-05 -2.36267e-05 -6.30022e-06)
(2.54575e-05 -2.40259e-05 -5.82114e-06)
(2.5384e-05 -2.40112e-05 -6.07943e-06)
(2.54614e-05 -2.41141e-05 -6.32767e-06)
(2.11198e-05 -2.00072e-05 -4.97877e-06)
(2.06855e-05 -1.9527e-05 -4.49382e-06)
(2.06169e-05 -1.9613e-05 -5.35386e-06)
(2.12142e-05 -2.00813e-05 -4.99239e-06)
(2.11353e-05 -2.00852e-05 -5.38711e-06)
(2.06011e-05 -1.95358e-05 -4.94818e-06)
(2.12051e-05 -1.99988e-05 -4.5224e-06)
(2.3755e-05 -2.23928e-05 -5.11471e-06)
(2.4304e-05 -2.29576e-05 -5.56096e-06)
(2.38521e-05 -2.24727e-05 -5.13312e-06)
(2.43797e-05 -2.28687e-05 -4.67214e-06)
(2.37696e-05 -2.24746e-05 -5.53494e-06)
(2.42896e-05 -2.2875e-05 -5.13861e-06)
(2.38443e-05 -2.23862e-05 -4.6497e-06)
(2.44874e-05 -2.36576e-05 -8.85742e-06)
(2.39552e-05 -2.31698e-05 -8.81501e-06)
(2.06999e-05 -1.97823e-05 -6.03286e-06)
(2.06243e-05 -1.96904e-05 -5.80196e-06)
(2.12115e-05 -2.01741e-05 -5.58485e-06)
(2.11425e-05 -2.01634e-05 -5.83804e-06)
(2.12183e-05 -2.02567e-05 -6.07113e-06)
(2.43092e-05 -2.30399e-05 -6.02667e-06)
(2.43863e-05 -2.31406e-05 -6.2715e-06)
(2.38471e-05 -2.25696e-05 -5.74174e-06)
(2.37751e-05 -2.25563e-05 -5.99844e-06)
(2.3852e-05 -2.26559e-05 -6.24148e-06)
(2.80878e-05 -2.62878e-05 -5.27766e-06)
(2.87322e-05 -2.67758e-05 -4.81835e-06)
(2.81881e-05 -2.63753e-05 -5.3028e-06)
(2.865e-05 -2.6867e-05 -5.72982e-06)
(2.81009e-05 -2.63745e-05 -5.71232e-06)
(2.81823e-05 -2.62836e-05 -4.80315e-06)
(2.86371e-05 -2.67797e-05 -5.29372e-06)
(2.53653e-05 -2.38439e-05 -5.1833e-06)
(2.48406e-05 -2.34419e-05 -5.58583e-06)
(2.54637e-05 -2.39268e-05 -5.20438e-06)
(2.49172e-05 -2.33528e-05 -4.69362e-06)
(2.53793e-05 -2.39277e-05 -5.60958e-06)
(2.48264e-05 -2.33588e-05 -5.16147e-06)
(2.54568e-05 -2.38382e-05 -4.71415e-06)
(4.27381e-05 -4.01e-05 -9.43768e-06)
(4.32968e-05 -4.05999e-05 -9.43899e-06)
(4.66278e-05 -4.306e-05 -6.69178e-06)
(4.61081e-05 -4.24927e-05 -6.1568e-06)
(4.65377e-05 -4.29258e-05 -6.4102e-06)
(4.601e-05 -4.2455e-05 -6.42064e-06)
(4.60974e-05 -4.25838e-05 -6.68694e-06)
(4.26046e-05 -3.94107e-05 -6.41623e-06)
(4.26829e-05 -3.95324e-05 -6.69028e-06)
(4.3246e-05 -3.9934e-05 -6.15725e-06)
(4.31644e-05 -3.99105e-05 -6.41723e-06)
(4.32426e-05 -4.00322e-05 -6.69148e-06)
(3.86731e-05 -3.57285e-05 -5.45339e-06)
(3.82135e-05 -3.52289e-05 -4.96807e-06)
(3.81228e-05 -3.53223e-05 -5.89999e-06)
(3.87771e-05 -3.5827e-05 -5.48925e-06)
(3.86836e-05 -3.58219e-05 -5.90401e-06)
(3.81122e-05 -3.52292e-05 -5.4497e-06)
(3.87746e-05 -3.57283e-05 -4.97174e-06)
(4.1476e-05 -3.82251e-05 -5.46565e-06)
(4.2046e-05 -3.88185e-05 -5.91899e-06)
(4.15803e-05 -3.8325e-05 -5.50311e-06)
(4.21385e-05 -3.87249e-05 -4.98583e-06)
(4.1486e-05 -3.83192e-05 -5.91744e-06)
(4.2036e-05 -3.87243e-05 -5.46705e-06)
(4.15783e-05 -3.82255e-05 -4.98431e-06)
(4.21792e-05 -3.96001e-05 -9.43604e-06)
(4.16201e-05 -3.91e-05 -9.43393e-06)
(3.82011e-05 -3.55337e-05 -6.66584e-06)
(3.81226e-05 -3.54142e-05 -6.39443e-06)
(3.87638e-05 -3.59362e-05 -6.13772e-06)
(3.86832e-05 -3.59139e-05 -6.39879e-06)
(3.87618e-05 -3.60337e-05 -6.67064e-06)
(4.20449e-05 -3.89113e-05 -6.41491e-06)
(4.21233e-05 -3.90328e-05 -6.68873e-06)
(4.15663e-05 -3.8435e-05 -6.15288e-06)
(4.14851e-05 -3.84119e-05 -6.41326e-06)
(4.15635e-05 -3.85332e-05 -6.68682e-06)
(4.60047e-05 -4.22712e-05 -5.47917e-06)
(4.66469e-05 -4.27552e-05 -4.9978e-06)
(4.61303e-05 -4.23923e-05 -5.52423e-06)
(4.65508e-05 -4.28478e-05 -5.9382e-06)
(4.6018e-05 -4.23693e-05 -5.93207e-06)
(4.61241e-05 -4.2288e-05 -5.00474e-06)
(4.65397e-05 -4.27517e-05 -5.48494e-06)
(4.31559e-05 -3.97233e-05 -5.46905e-06)
(4.26058e-05 -3.93179e-05 -5.92022e-06)
(4.32608e-05 -3.98242e-05 -5.50722e-06)
(4.26987e-05 -3.92244e-05 -4.98707e-06)
(4.31658e-05 -3.98177e-05 -5.92118e-06)
(4.25959e-05 -3.92236e-05 -5.46817e-06)
(4.32592e-05 -3.97245e-05 -4.98809e-06)
(1.25603e-05 -1.20955e-05 -4.55845e-06)
(1.20955e-05 -1.16151e-05 -4.1186e-06)
(1.25847e-05 -1.20099e-05 -3.75858e-06)
(1.21158e-05 -1.16748e-05 -4.49743e-06)
(1.21384e-05 -1.15907e-05 -3.70716e-06)
(1.21147e-05 -1.14804e-05 -2.93294e-06)
(1.25003e-05 -1.19089e-05 -3.38186e-06)
(1.20686e-05 -1.15524e-05 -3.73827e-06)
(1.25693e-05 -1.19545e-05 -3.39072e-06)
(1.20547e-05 -1.14926e-05 -3.3366e-06)
(1.21228e-05 -1.15366e-05 -3.34422e-06)
(1.25618e-05 -1.18969e-05 -2.97398e-06)
(1.29131e-05 -1.25463e-05 -5.21215e-06)
(1.28441e-05 -1.24815e-05 -5.025e-06)
(1.33528e-05 -1.29082e-05 -4.85246e-06)
(1.32968e-05 -1.29076e-05 -5.08523e-06)
(1.33663e-05 -1.29744e-05 -5.27559e-06)
(1.63244e-05 -1.6073e-05 -7.93731e-06)
(1.58449e-05 -1.5619e-05 -7.86152e-06)
(1.61156e-05 -1.55404e-05 -5.41295e-06)
(1.5695e-05 -1.50972e-05 -5.1214e-06)
(1.61881e-05 -1.56183e-05 -5.62127e-06)
(1.56342e-05 -1.50932e-05 -5.36226e-06)
(1.57063e-05 -1.51693e-05 -5.56775e-06)
(1.95731e-05 -1.85995e-05 -4.88346e-06)
(2.0169e-05 -1.90574e-05 -4.46416e-06)
(2.01015e-05 -1.91429e-05 -5.31933e-06)
(1.96657e-05 -1.86698e-05 -4.89401e-06)
(2.00855e-05 -1.90665e-05 -4.91642e-06)
(1.95893e-05 -1.8675e-05 -5.28351e-06)
(1.96557e-05 -1.859e-05 -4.43341e-06)
(1.70639e-05 -1.63019e-05 -4.70027e-06)
(1.6591e-05 -1.59203e-05 -5.04058e-06)
(1.665e-05 -1.58388e-05 -4.22523e-06)
(1.71529e-05 -1.63652e-05 -4.70546e-06)
(1.65735e-05 -1.58506e-05 -4.65984e-06)
(1.70811e-05 -1.63726e-05 -5.08448e-06)
(1.71414e-05 -1.62905e-05 -4.26281e-06)
(1.32649e-05 -1.27832e-05 -4.33977e-06)
(1.28782e-05 -1.23443e-05 -3.88111e-06)
(1.28309e-05 -1.24198e-05 -4.63756e-06)
(1.33468e-05 -1.28335e-05 -4.33598e-06)
(1.28117e-05 -1.23595e-05 -4.28859e-06)
(1.32839e-05 -1.28447e-05 -4.6931e-06)
(1.33328e-05 -1.27684e-05 -3.92846e-06)
(1.56054e-05 -1.49573e-05 -4.57508e-06)
(1.6105e-05 -1.54709e-05 -4.99526e-06)
(1.56919e-05 -1.5016e-05 -4.57694e-06)
(1.61626e-05 -1.53901e-05 -4.18648e-06)
(1.56233e-05 -1.50247e-05 -4.94853e-06)
(1.60873e-05 -1.54024e-05 -4.61812e-06)
(1.56795e-05 -1.49446e-05 -4.14652e-06)
(1.68081e-05 -1.65298e-05 -8.01082e-06)
(1.7296e-05 -1.69895e-05 -8.08209e-06)
(2.01845e-05 -1.931e-05 -5.99315e-06)
(2.01093e-05 -1.92195e-05 -5.7645e-06)
(1.96645e-05 -1.87599e-05 -5.47514e-06)
(1.95974e-05 -1.87508e-05 -5.72564e-06)
(1.96724e-05 -1.88399e-05 -5.95198e-06)
(1.66012e-05 -1.59907e-05 -5.4621e-06)
(1.66741e-05 -1.60703e-05 -5.67319e-06)
(1.71543e-05 -1.645e-05 -5.2648e-06)
(1.7091e-05 -1.6444e-05 -5.50972e-06)
(1.71643e-05 -1.65253e-05 -5.72352e-06)
(1.30101e-05 -1.25203e-05 -4.61795e-06)
(1.30362e-05 -1.24333e-05 -3.80874e-06)
(1.34462e-05 -1.28854e-05 -4.28219e-06)
(1.34652e-05 -1.29491e-05 -4.67593e-06)
(1.3493e-05 -1.28607e-05 -3.85765e-06)
(1.63628e-05 -1.60633e-05 -7.75252e-06)
(1.58832e-05 -1.5609e-05 -7.67795e-06)
(1.63345e-05 -1.55008e-05 -4.12538e-06)
(1.57969e-05 -1.50774e-05 -4.52749e-06)
(1.62974e-05 -1.5597e-05 -4.99272e-06)
(1.5814e-05 -1.51473e-05 -4.94357e-06)
(1.58496e-05 -1.50523e-05 -4.08379e-06)
(1.98272e-05 -1.8572e-05 -3.47399e-06)
(2.02612e-05 -1.90479e-05 -3.95835e-06)
(1.9755e-05 -1.86593e-05 -4.40212e-06)
(2.03433e-05 -1.91155e-05 -3.98576e-06)
(1.97469e-05 -1.85802e-05 -3.93011e-06)
(1.98283e-05 -1.86466e-05 -3.95646e-06)
(2.03426e-05 -1.904e-05 -3.49993e-06)
(1.73017e-05 -1.62695e-05 -3.3308e-06)
(1.68113e-05 -1.58857e-05 -3.75912e-06)
(1.67342e-05 -1.58268e-05 -3.73945e-06)
(1.72367e-05 -1.63528e-05 -4.22734e-06)
(1.72269e-05 -1.62789e-05 -3.7738e-06)
(1.68078e-05 -1.58172e-05 -3.29941e-06)
(1.73048e-05 -1.63391e-05 -3.79462e-06)
(1.34717e-05 -1.27423e-05 -3.05309e-06)
(1.29512e-05 -1.23293e-05 -3.426e-06)
(1.30213e-05 -1.23765e-05 -3.43608e-06)
(1.34201e-05 -1.28178e-05 -3.88642e-06)
(1.30142e-05 -1.23176e-05 -3.01402e-06)
(1.34073e-05 -1.27537e-05 -3.46902e-06)
(1.34784e-05 -1.28025e-05 -3.48033e-06)
(1.58323e-05 -1.49218e-05 -3.23382e-06)
(1.63219e-05 -1.54354e-05 -3.72255e-06)
(1.5772e-05 -1.50023e-05 -4.10854e-06)
(1.62455e-05 -1.53778e-05 -3.70405e-06)
(1.57611e-05 -1.49319e-05 -3.66759e-06)
(1.58367e-05 -1.49881e-05 -3.68491e-06)
(1.6318e-05 -1.53679e-05 -3.26709e-06)
(1.68467e-05 -1.65204e-05 -7.82487e-06)
(1.73348e-05 -1.69803e-05 -7.89502e-06)