/*--------------------------------*- C++ -*----------------------------------*\
| =========                 |                                                 |
| \\      /  F ield         | OpenFOAM: The Open Source CFD Toolbox           |
|  \\    /   O peration     | Version:  2012                                  |
|   \\  /    A nd           | Website:  www.openfoam.com                      |
|    \\/     M anipulation  |                                                 |
\*---------------------------------------------------------------------------*/
FoamFile
{
    version     2.0;
    format      ascii;
    class       volVectorField;
    location    "0.104/solid";
    object      D_0_0_0;
}
// * * * * * * * * * * * * * * * * * * * * * * * * * * * * * * * * * * * * * //

dimensions      [0 1 0 0 0 0 0];


internalField   nonuniform List<vector> 
3125
(
(1.42856e-05 -1.14277e-05 -2.18007e-06)
(2.46119e-05 -1.95716e-05 -2.57446e-06)
(3.34904e-05 -2.65447e-05 -2.74285e-06)
(4.53525e-05 -3.58593e-05 -2.82786e-06)
(5.50619e-05 -4.33795e-05 -2.18406e-06)
(1.44796e-05 -1.14133e-05 -1.27801e-06)
(2.33911e-05 -1.86114e-05 -2.54119e-06)
(1.53473e-05 -1.22679e-05 -2.23493e-06)
(2.36412e-05 -1.86024e-05 -1.50185e-06)
(1.55494e-05 -1.22543e-05 -1.31177e-06)
(2.48676e-05 -1.95632e-05 -1.52275e-06)
(3.37779e-05 -2.65401e-05 -1.63021e-06)
(4.40264e-05 -3.48167e-05 -2.82374e-06)
(3.47934e-05 -2.75673e-05 -2.75862e-06)
(4.43349e-05 -3.48151e-05 -1.68509e-06)
(3.50843e-05 -2.75631e-05 -1.64055e-06)
(5.50631e-05 -4.32426e-05 -1.56042e-06)
(5.52143e-05 -4.32424e-05 -1.01359e-06)
(4.56625e-05 -3.58579e-05 -1.6882e-06)
(5.52171e-05 -4.33794e-05 -1.62366e-06)
(1.46843e-05 -1.22564e-05 -5.54769e-06)
(1.4677e-05 -1.21617e-05 -4.96154e-06)
(3.39009e-05 -2.77302e-05 -6.98478e-06)
(2.94016e-05 -2.41436e-05 -6.80268e-06)
(2.4417e-05 -2.00232e-05 -5.825e-06)
(2.83546e-05 -2.25129e-05 -2.65986e-06)
(2.87762e-05 -2.35055e-05 -6.05849e-06)
(2.44126e-05 -2.01461e-05 -6.51104e-06)
(2.87677e-05 -2.3637e-05 -6.77132e-06)
(3.39134e-05 -2.75908e-05 -6.25013e-06)
(2.96251e-05 -2.35106e-05 -2.68377e-06)
(2.94106e-05 -2.40109e-05 -6.08662e-06)
(5.50422e-05 -4.44775e-05 -7.21665e-06)
(5.03834e-05 -4.07889e-05 -7.22949e-06)
(4.5107e-05 -3.64511e-05 -6.44638e-06)
(4.93282e-05 -3.89898e-05 -2.83493e-06)
(4.97418e-05 -4.01145e-05 -6.46948e-06)
(4.50888e-05 -3.66006e-05 -7.20256e-06)
(4.97222e-05 -4.02657e-05 -7.22779e-06)
(5.50689e-05 -4.43357e-05 -6.48109e-06)
(5.06528e-05 -4.00346e-05 -2.83569e-06)
(5.04033e-05 -4.06376e-05 -6.47108e-06)
(1.48026e-05 -1.2228e-05 -4.9743e-06)
(1.47698e-05 -1.21421e-05 -4.51007e-06)
(1.52135e-05 -1.26901e-05 -5.6184e-06)
(1.90824e-05 -1.58428e-05 -6.06293e-06)
(1.9826e-05 -1.5804e-05 -2.4261e-06)
(2.38076e-05 -1.9535e-05 -5.7862e-06)
(1.96559e-05 -1.61974e-05 -5.47389e-06)
(1.52069e-05 -1.25934e-05 -5.0249e-06)
(1.86743e-05 -1.48958e-05 -2.38246e-06)
(1.9081e-05 -1.57335e-05 -5.42327e-06)
(2.38037e-05 -1.96565e-05 -6.46776e-06)
(1.96566e-05 -1.63084e-05 -6.1194e-06)
(1.53343e-05 -1.26624e-05 -5.03895e-06)
(1.92197e-05 -1.58201e-05 -5.44595e-06)
(2.00574e-05 -1.57931e-05 -1.43003e-06)
(2.39284e-05 -1.95229e-05 -5.27363e-06)
(1.97656e-05 -1.61822e-05 -4.98395e-06)
(1.53018e-05 -1.25744e-05 -4.5686e-06)
(1.88988e-05 -1.48842e-05 -1.40293e-06)
(1.9189e-05 -1.57178e-05 -4.93707e-06)
(2.39571e-05 -1.9639e-05 -5.81778e-06)
(1.9796e-05 -1.62863e-05 -5.49774e-06)
(3.40778e-05 -2.77215e-05 -6.29642e-06)
(2.95695e-05 -2.41313e-05 -6.12698e-06)
(2.45392e-05 -2.00116e-05 -5.30969e-06)
(2.86256e-05 -2.25062e-05 -1.57678e-06)
(2.89075e-05 -2.34967e-05 -5.52716e-06)
(2.45677e-05 -2.01292e-05 -5.85762e-06)
(2.89342e-05 -2.36242e-05 -6.09793e-06)
(3.40529e-05 -2.75848e-05 -5.70674e-06)
(2.99006e-05 -2.35045e-05 -1.59205e-06)
(2.9543e-05 -2.40025e-05 -5.55345e-06)
(3.45511e-05 -2.82473e-05 -7.00576e-06)
(3.91386e-05 -3.18893e-05 -7.1214e-06)
(4.00533e-05 -3.16957e-05 -2.8045e-06)
(4.44445e-05 -3.59275e-05 -6.44099e-06)
(3.98138e-05 -3.2266e-05 -6.38423e-06)
(3.4564e-05 -2.81071e-05 -6.26899e-06)
(3.87328e-05 -3.0659e-05 -2.79541e-06)
(3.91542e-05 -3.17441e-05 -6.37303e-06)
(4.44265e-05 -3.60767e-05 -7.19663e-06)
(3.97978e-05 -3.24118e-05 -7.13383e-06)
(3.47291e-05 -2.82391e-05 -6.31606e-06)
(3.93232e-05 -3.18841e-05 -6.42516e-06)
(4.03557e-05 -3.16931e-05 -1.67137e-06)
(4.45945e-05 -3.59257e-05 -5.88898e-06)
(3.99601e-05 -3.22627e-05 -5.8339e-06)
(3.47044e-05 -2.81015e-05 -5.72451e-06)
(3.90327e-05 -3.06561e-05 -1.66513e-06)
(3.92999e-05 -3.17405e-05 -5.82318e-06)
(4.46164e-05 -3.60741e-05 -6.49793e-06)
(3.99832e-05 -3.2407e-05 -6.43702e-06)
(5.52399e-05 -4.44777e-05 -6.50805e-06)
(5.05765e-05 -4.07882e-05 -6.53192e-06)
(4.52574e-05 -3.64494e-05 -5.89432e-06)
(4.96418e-05 -3.8989e-05 -1.69412e-06)
(4.98942e-05 -4.01138e-05 -5.91799e-06)
(4.52792e-05 -3.65983e-05 -6.50383e-06)
(4.99151e-05 -4.02648e-05 -6.52998e-06)
(5.52237e-05 -4.43358e-05 -5.92529e-06)
(5.09672e-05 -4.00339e-05 -1.69513e-06)
(5.05558e-05 -4.06371e-05 -5.91975e-06)
(1.47916e-05 -1.2595e-05 -7.35813e-06)
(1.46108e-05 -1.18368e-05 -3.15323e-06)
(3.39567e-05 -2.82304e-05 -9.26099e-06)
(3.20202e-05 -2.66755e-05 -9.16825e-06)
(2.43695e-05 -1.95943e-05 -3.69814e-06)
(2.58468e-05 -2.05425e-05 -2.60528e-06)
(2.62222e-05 -2.10593e-05 -3.76638e-06)
(2.44903e-05 -2.05865e-05 -8.63462e-06)
(2.63332e-05 -2.2084e-05 -8.79414e-06)
(3.388e-05 -2.71006e-05 -3.96567e-06)
(3.21941e-05 -2.55273e-05 -2.72518e-06)
(3.19355e-05 -2.55684e-05 -3.92598e-06)
(5.50551e-05 -4.50186e-05 -9.61132e-06)
(5.30763e-05 -4.34424e-05 -9.58459e-06)
(4.50845e-05 -3.59224e-05 -4.08794e-06)
(4.66784e-05 -3.69025e-05 -2.83103e-06)
(4.70732e-05 -3.74894e-05 -4.09582e-06)
(4.51272e-05 -3.7138e-05 -9.54595e-06)
(4.7112e-05 -3.87129e-05 -9.56361e-06)
(5.50504e-05 -4.37895e-05 -4.07929e-06)
(5.33391e-05 -4.21577e-05 -2.83583e-06)
(5.30487e-05 -4.22081e-05 -4.10481e-06)
(1.48779e-05 -1.25693e-05 -6.96202e-06)
(1.47258e-05 -1.18222e-05 -2.60342e-06)
(1.5319e-05 -1.30357e-05 -7.45186e-06)
(1.69377e-05 -1.43831e-05 -7.71857e-06)
(2.21857e-05 -1.76628e-05 -2.50541e-06)
(2.37592e-05 -1.91111e-05 -3.67383e-06)
(2.19508e-05 -1.76785e-05 -3.59483e-06)
(1.51417e-05 -1.22612e-05 -3.19301e-06)
(1.64336e-05 -1.31267e-05 -2.28692e-06)
(1.67718e-05 -1.3562e-05 -3.30717e-06)
(2.38832e-05 -2.00919e-05 -8.57732e-06)
(2.2085e-05 -1.86235e-05 -8.39268e-06)
(1.54068e-05 -1.30106e-05 -7.05178e-06)
(1.70301e-05 -1.436e-05 -7.30727e-06)
(2.24298e-05 -1.76531e-05 -1.47946e-06)
(2.39086e-05 -1.9102e-05 -3.04506e-06)
(2.20948e-05 -1.76685e-05 -2.97771e-06)
(1.52595e-05 -1.2247e-05 -2.63697e-06)
(1.66435e-05 -1.31138e-05 -1.34382e-06)
(1.68965e-05 -1.35488e-05 -2.73363e-06)
(2.39907e-05 -2.00759e-05 -8.13134e-06)
(2.21891e-05 -1.86058e-05 -7.95392e-06)
(3.40783e-05 -2.82223e-05 -8.7909e-06)
(3.21397e-05 -2.66661e-05 -8.70101e-06)
(2.45208e-05 -1.95855e-05 -3.06575e-06)
(2.61079e-05 -2.05347e-05 -1.54218e-06)
(2.63783e-05 -2.10515e-05 -3.12413e-06)
(2.4599e-05 -2.0571e-05 -8.18644e-06)
(2.64449e-05 -2.20701e-05 -8.33996e-06)
(3.40523e-05 -2.70961e-05 -3.2958e-06)
(3.24778e-05 -2.55222e-05 -1.61872e-06)
(3.21045e-05 -2.55631e-05 -3.26133e-06)
(3.46057e-05 -2.87506e-05 -9.28865e-06)
(3.65613e-05 -3.03158e-05 -9.36241e-06)
(4.27008e-05 -3.3775e-05 -2.81855e-06)
(4.44216e-05 -3.54003e-05 -4.08464e-06)
(4.24333e-05 -3.38347e-05 -4.07225e-06)
(3.45314e-05 -2.76137e-05 -3.97741e-06)
(3.6102e-05 -2.85942e-05 -2.77257e-06)
(3.64942e-05 -2.91595e-05 -4.009e-06)
(4.44657e-05 -3.66127e-05 -9.53838e-06)
(4.24823e-05 -3.50364e-05 -9.50994e-06)
(3.47279e-05 -2.87429e-05 -8.81777e-06)
(3.66853e-05 -3.03094e-05 -8.88956e-06)
(4.30075e-05 -3.3773e-05 -1.68129e-06)
(4.46068e-05 -3.53988e-05 -3.40148e-06)
(4.26168e-05 -3.38328e-05 -3.39004e-06)
(3.47049e-05 -2.76094e-05 -3.306e-06)
(3.63962e-05 -2.85905e-05 -1.64977e-06)
(3.66707e-05 -2.91558e-05 -3.33368e-06)
(4.45949e-05 -3.66101e-05 -9.06305e-06)
(4.26105e-05 -3.5033e-05 -9.03456e-06)
(5.33577e-05 -4.18777e-05 -1.49922e-06)
(5.36478e-05 -4.18772e-05 -4.49519e-07)
(5.51865e-05 -4.50189e-05 -9.1416e-06)
(5.32075e-05 -4.34417e-05 -9.112e-06)
(4.52702e-05 -3.59211e-05 -3.40456e-06)
(4.69898e-05 -3.69014e-05 -1.6907e-06)
(4.72602e-05 -3.74884e-05 -3.41211e-06)
(4.52567e-05 -3.71356e-05 -9.07071e-06)
(4.72421e-05 -3.87112e-05 -9.08881e-06)
(5.52269e-05 -4.37894e-05 -3.44398e-06)
(5.36557e-05 -4.21571e-05 -1.69181e-06)
(5.32378e-05 -4.22078e-05 -3.42242e-06)
(1.47561e-05 -1.25022e-05 -6.89037e-06)
(1.46245e-05 -1.19179e-05 -3.60123e-06)
(2.9467e-05 -2.46191e-05 -9.02051e-06)
(3.13786e-05 -2.61595e-05 -9.13397e-06)
(3.39352e-05 -2.80959e-05 -8.67291e-06)
(3.19605e-05 -2.61852e-05 -6.91449e-06)
(3.19976e-05 -2.65436e-05 -8.58594e-06)
(2.94428e-05 -2.4491e-05 -8.44746e-06)
(3.13174e-05 -2.56726e-05 -6.88853e-06)
(3.13556e-05 -2.60284e-05 -8.5538e-06)
(2.43794e-05 -1.97006e-05 -4.22529e-06)
(2.62664e-05 -2.15027e-05 -5.93309e-06)
(2.62312e-05 -2.11691e-05 -4.30336e-06)
(2.70948e-05 -2.15232e-05 -2.63373e-06)
(2.87359e-05 -2.30446e-05 -3.84531e-06)
(2.6846e-05 -2.15524e-05 -3.78723e-06)
(2.68895e-05 -2.20003e-05 -5.9664e-06)
(2.87441e-05 -2.31586e-05 -4.39384e-06)
(2.6855e-05 -2.16633e-05 -4.32738e-06)
(2.88346e-05 -2.41086e-05 -8.97905e-06)
(2.69541e-05 -2.25873e-05 -8.84329e-06)
(2.44628e-05 -2.04674e-05 -8.08588e-06)
(2.62602e-05 -2.16295e-05 -6.63155e-06)
(2.63069e-05 -2.19612e-05 -8.23534e-06)
(2.881e-05 -2.39815e-05 -8.4086e-06)
(2.68826e-05 -2.21284e-05 -6.66869e-06)
(2.69282e-05 -2.24634e-05 -8.28139e-06)
(3.38868e-05 -2.72217e-05 -4.53195e-06)
(3.19715e-05 -2.60485e-05 -6.187e-06)
(3.19429e-05 -2.56871e-05 -4.48647e-06)
(3.09053e-05 -2.45157e-05 -2.70551e-06)
(2.9371e-05 -2.35459e-05 -3.8629e-06)
(3.12913e-05 -2.50605e-05 -3.91144e-06)
(3.1328e-05 -2.55369e-05 -6.16369e-06)
(2.93791e-05 -2.3661e-05 -4.41411e-06)
(3.12987e-05 -2.51782e-05 -4.46969e-06)
(5.04169e-05 -4.13334e-05 -9.57934e-06)
(5.24042e-05 -4.29093e-05 -9.58398e-06)
(5.50585e-05 -4.48873e-05 -9.0064e-06)
(5.30474e-05 -4.28985e-05 -7.23226e-06)
(5.30607e-05 -4.32956e-05 -8.97793e-06)
(5.04016e-05 -4.11876e-05 -8.9728e-06)
(5.23738e-05 -4.23648e-05 -7.23215e-06)
(5.2389e-05 -4.27629e-05 -8.977e-06)
(4.5089e-05 -3.60528e-05 -4.67279e-06)
(4.70944e-05 -3.80216e-05 -6.45915e-06)
(4.70774e-05 -3.76206e-05 -4.68191e-06)
(4.80037e-05 -3.7946e-05 -2.83337e-06)
(4.97221e-05 -3.95788e-05 -4.10211e-06)
(4.77357e-05 -3.80117e-05 -4.09778e-06)
(4.77566e-05 -3.8545e-05 -6.46239e-06)
(4.97261e-05 -3.97108e-05 -4.68926e-06)
(4.77399e-05 -3.81432e-05 -4.68421e-06)
(4.97563e-05 -4.08097e-05 -9.57728e-06)
(4.77734e-05 -3.92375e-05 -9.56798e-06)
(4.51106e-05 -3.6994e-05 -8.94085e-06)
(4.70755e-05 -3.81721e-05 -7.21657e-06)
(4.70959e-05 -3.85681e-05 -8.95765e-06)
(4.97409e-05 -4.06641e-05 -8.97081e-06)
(4.77375e-05 -3.86957e-05 -7.2201e-06)
(4.77574e-05 -3.90924e-05 -8.96183e-06)
(5.50528e-05 -4.39245e-05 -4.68157e-06)
(5.30716e-05 -4.27502e-05 -6.47544e-06)
(5.30528e-05 -4.23414e-05 -4.69378e-06)
(5.19835e-05 -4.10854e-05 -2.83563e-06)
(5.03838e-05 -4.01012e-05 -4.10306e-06)
(5.2376e-05 -4.16757e-05 -4.10467e-06)
(5.23963e-05 -4.22151e-05 -6.47424e-06)
(5.03877e-05 -4.02334e-05 -4.69039e-06)
(5.23798e-05 -4.18085e-05 -4.69279e-06)
(1.48588e-05 -1.24734e-05 -6.40933e-06)
(1.47345e-05 -1.19014e-05 -3.07078e-06)
(1.5284e-05 -1.29411e-05 -6.97815e-06)
(1.68377e-05 -1.40172e-05 -5.8196e-06)
(1.69042e-05 -1.42832e-05 -7.22791e-06)
(1.91754e-05 -1.6234e-05 -8.04104e-06)
(1.7489e-05 -1.48403e-05 -7.8027e-06)
(1.73907e-05 -1.44679e-05 -5.88308e-06)
(1.91437e-05 -1.61276e-05 -7.52991e-06)
(1.74559e-05 -1.47387e-05 -7.30669e-06)
(2.09969e-05 -1.67266e-05 -2.46707e-06)
(1.95998e-05 -1.58126e-05 -3.47662e-06)
(2.13565e-05 -1.72072e-05 -3.56688e-06)
(2.37691e-05 -1.92162e-05 -4.1973e-06)
(2.20025e-05 -1.80865e-05 -5.6612e-06)
(2.19615e-05 -1.77798e-05 -4.10698e-06)
(1.96114e-05 -1.59082e-05 -3.97162e-06)
(2.14091e-05 -1.76095e-05 -5.61662e-06)
(2.13673e-05 -1.7307e-05 -4.0748e-06)
(1.51553e-05 -1.23441e-05 -3.647e-06)
(1.68334e-05 -1.39149e-05 -5.2052e-06)
(1.67845e-05 -1.36499e-05 -3.77743e-06)
(1.7543e-05 -1.4003e-05 -2.33608e-06)
(1.90239e-05 -1.53548e-05 -3.44487e-06)
(1.73265e-05 -1.40041e-05 -3.34287e-06)
(1.73871e-05 -1.43637e-05 -5.26209e-06)
(1.90356e-05 -1.5449e-05 -3.93508e-06)
(1.73391e-05 -1.40937e-05 -3.81851e-06)
(1.97478e-05 -1.67056e-05 -8.11587e-06)
(2.14939e-05 -1.81395e-05 -8.32681e-06)
(2.38551e-05 -1.99741e-05 -8.03221e-06)
(2.20006e-05 -1.82037e-05 -6.32835e-06)
(2.20556e-05 -1.85097e-05 -7.85926e-06)
(1.97166e-05 -1.65976e-05 -7.59999e-06)
(2.14079e-05 -1.77252e-05 -6.27862e-06)
(2.14641e-05 -1.80271e-05 -7.79756e-06)
(1.53886e-05 -1.2913e-05 -6.49222e-06)
(1.69658e-05 -1.39917e-05 -5.22304e-06)
(1.70145e-05 -1.42574e-05 -6.72818e-06)
(1.92732e-05 -1.62133e-05 -7.61642e-06)
(1.75827e-05 -1.48177e-05 -7.3879e-06)
(1.75212e-05 -1.4443e-05 -5.28116e-06)
(1.92611e-05 -1.61045e-05 -7.01376e-06)
(1.7568e-05 -1.47136e-05 -6.80265e-06)
(2.12348e-05 -1.67164e-05 -1.45553e-06)
(1.97358e-05 -1.58012e-05 -2.87723e-06)
(2.14984e-05 -1.71968e-05 -2.95399e-06)
(2.39124e-05 -1.9206e-05 -3.59187e-06)
(2.21188e-05 -1.80731e-05 -5.15758e-06)
(2.20995e-05 -1.77685e-05 -3.5126e-06)
(1.97416e-05 -1.58954e-05 -3.39407e-06)
(2.15238e-05 -1.75956e-05 -5.11623e-06)
(2.15033e-05 -1.72953e-05 -3.48441e-06)
(1.52678e-05 -1.23281e-05 -3.11065e-06)
(1.69341e-05 -1.38973e-05 -4.73527e-06)
(1.69039e-05 -1.36351e-05 -3.22442e-06)
(1.77604e-05 -1.39908e-05 -1.3742e-06)
(1.91576e-05 -1.53431e-05 -2.85035e-06)
(1.74538e-05 -1.39913e-05 -2.7638e-06)
(1.74897e-05 -1.43466e-05 -4.78789e-06)
(1.91637e-05 -1.54358e-05 -3.36212e-06)
(1.74608e-05 -1.40793e-05 -3.26027e-06)
(1.9847e-05 -1.66855e-05 -7.68821e-06)
(2.15969e-05 -1.81212e-05 -7.89066e-06)
(2.3985e-05 -1.99563e-05 -7.48969e-06)
(2.21483e-05 -1.81843e-05 -5.68956e-06)
(2.21811e-05 -1.849e-05 -7.32566e-06)
(1.98357e-05 -1.65752e-05 -7.08009e-06)
(2.15535e-05 -1.77051e-05 -5.64388e-06)
(2.1588e-05 -1.80067e-05 -7.26719e-06)
(2.95832e-05 -2.46078e-05 -8.55819e-06)
(3.14973e-05 -2.61496e-05 -8.66783e-06)
(3.40831e-05 -2.80871e-05 -8.10039e-06)
(3.21337e-05 -2.6175e-05 -6.23084e-06)
(3.21427e-05 -2.65333e-05 -8.017e-06)
(2.95838e-05 -2.44785e-05 -7.88466e-06)
(3.14894e-05 -2.5662e-05 -6.20668e-06)
(3.14997e-05 -2.60176e-05 -7.98624e-06)
(2.45244e-05 -1.96908e-05 -3.61646e-06)
(2.63927e-05 -2.14923e-05 -5.41025e-06)
(2.6381e-05 -2.11603e-05 -3.68517e-06)
(2.7361e-05 -2.1516e-05 -1.56018e-06)
(2.8898e-05 -2.3038e-05 -3.19181e-06)
(2.70039e-05 -2.15448e-05 -3.14194e-06)
(2.7017e-05 -2.19903e-05 -5.44128e-06)
(2.88998e-05 -2.31512e-05 -3.76504e-06)
(2.70064e-05 -2.16548e-05 -3.70634e-06)
(2.895e-05 -2.40968e-05 -8.51818e-06)
(2.70667e-05 -2.2574e-05 -8.38729e-06)
(2.4594e-05 -2.04503e-05 -7.54064e-06)
(2.64204e-05 -2.16144e-05 -5.96873e-06)
(2.64421e-05 -2.19459e-05 -7.68265e-06)
(2.895e-05 -2.39685e-05 -7.8476e-06)
(2.70445e-05 -2.21138e-05 -6.00302e-06)
(2.70646e-05 -2.24487e-05 -7.72645e-06)
(3.40523e-05 -2.72166e-05 -3.8878e-06)
(3.21082e-05 -2.60415e-05 -5.64741e-06)
(3.21051e-05 -2.56811e-05 -3.84721e-06)
(3.1185e-05 -2.45101e-05 -1.60601e-06)
(2.95347e-05 -2.35395e-05 -3.2069e-06)
(3.14588e-05 -2.50549e-05 -3.24879e-06)
(3.14636e-05 -2.55296e-05 -5.62556e-06)
(2.95362e-05 -2.36538e-05 -3.78298e-06)
(3.14597e-05 -2.5172e-05 -3.83229e-06)
(3.45845e-05 -2.86153e-05 -8.69886e-06)
(3.65103e-05 -2.98041e-05 -7.06178e-06)
(3.65411e-05 -3.01784e-05 -8.76807e-06)
(3.91851e-05 -3.24109e-05 -9.44066e-06)
(3.72157e-05 -3.08389e-05 -9.38404e-06)
(3.71659e-05 -3.03245e-05 -7.07824e-06)
(3.91661e-05 -3.22709e-05 -8.84159e-06)
(3.71958e-05 -3.07008e-05 -8.78839e-06)
(4.13762e-05 -3.27345e-05 -2.81217e-06)
(3.97869e-05 -3.17515e-05 -4.04942e-06)
(4.17711e-05 -3.33134e-05 -4.0673e-06)
(4.44262e-05 -3.55303e-05 -4.66895e-06)
(4.24578e-05 -3.43572e-05 -6.42099e-06)
(4.24383e-05 -3.39636e-05 -4.65464e-06)
(3.97924e-05 -3.18785e-05 -4.62831e-06)
(4.17961e-05 -3.3834e-05 -6.41294e-06)
(4.17761e-05 -3.34418e-05 -4.64889e-06)
(3.4538e-05 -2.77356e-05 -4.5455e-06)
(3.65245e-05 -2.96616e-05 -6.31935e-06)
(3.65003e-05 -2.92834e-05 -4.58174e-06)
(3.74154e-05 -2.9625e-05 -2.7848e-06)
(3.91268e-05 -3.12319e-05 -4.04249e-06)
(3.71508e-05 -2.96764e-05 -4.01819e-06)
(3.71804e-05 -3.01813e-05 -6.33416e-06)
(3.91323e-05 -3.13583e-05 -4.62029e-06)
(3.71569e-05 -2.98011e-05 -4.59237e-06)
(3.98433e-05 -3.29356e-05 -9.45691e-06)
(4.18218e-05 -3.4511e-05 -9.49839e-06)
(4.44488e-05 -3.64691e-05 -8.93367e-06)
(4.24406e-05 -3.45051e-05 -7.17455e-06)
(4.24647e-05 -3.4894e-05 -8.9068e-06)
(3.98246e-05 -3.27951e-05 -8.85687e-06)
(4.17792e-05 -3.39814e-05 -7.16565e-06)
(4.1804e-05 -3.43691e-05 -8.89591e-06)
(3.47332e-05 -2.8607e-05 -8.12533e-06)
(3.66914e-05 -2.97972e-05 -6.36869e-06)
(3.66921e-05 -3.01714e-05 -8.19205e-06)
(3.93112e-05 -3.24058e-05 -8.96613e-06)
(3.73402e-05 -3.08328e-05 -8.91068e-06)
(3.73479e-05 -3.03181e-05 -6.38422e-06)
(3.93199e-05 -3.22656e-05 -8.26337e-06)
(3.73476e-05 -3.06942e-05 -8.2117e-06)
(4.16809e-05 -3.27322e-05 -1.67674e-06)
(3.99677e-05 -3.17489e-05 -3.36944e-06)
(4.1954e-05 -3.33113e-05 -3.38555e-06)
(4.46042e-05 -3.55287e-05 -4.0127e-06)
(4.26064e-05 -3.43547e-05 -5.86938e-06)
(4.26146e-05 -3.39615e-05 -3.9992e-06)
(3.99661e-05 -3.18756e-05 -3.97484e-06)
(4.19442e-05 -3.38313e-05 -5.86157e-06)
(4.19519e-05 -3.34395e-05 -3.99384e-06)
(3.47047e-05 -2.77308e-05 -3.89993e-06)
(3.66673e-05 -2.96568e-05 -5.77211e-06)
(3.66699e-05 -2.92793e-05 -3.93252e-06)
(3.77126e-05 -2.96217e-05 -1.65795e-06)
(3.93067e-05 -3.12291e-05 -3.36328e-06)
(3.73283e-05 -2.9673e-05 -3.34174e-06)
(3.73241e-05 -3.01768e-05 -5.78616e-06)
(3.93052e-05 -3.13551e-05 -3.9675e-06)
(3.73273e-05 -2.97972e-05 -3.94213e-06)
(3.99698e-05 -3.29309e-05 -8.9821e-06)
(4.19496e-05 -3.45073e-05 -9.02308e-06)
(4.46066e-05 -3.64664e-05 -8.35422e-06)
(4.26289e-05 -3.45016e-05 -6.47626e-06)
(4.26212e-05 -3.48905e-05 -8.32738e-06)
(3.9979e-05 -3.27901e-05 -8.27828e-06)
(4.19668e-05 -3.39776e-05 -6.46762e-06)
(4.196e-05 -3.43652e-05 -8.31661e-06)
(5.05479e-05 -4.13325e-05 -9.10565e-06)
(5.25354e-05 -4.29086e-05 -9.11105e-06)
(5.52199e-05 -4.48874e-05 -8.42889e-06)
(5.32414e-05 -4.28982e-05 -6.53527e-06)
(5.32212e-05 -4.32953e-05 -8.40157e-06)
(5.05618e-05 -4.11868e-05 -8.39509e-06)
(5.25675e-05 -4.23644e-05 -6.5353e-06)
(5.25495e-05 -4.27625e-05 -8.40022e-06)
(4.52675e-05 -3.60513e-05 -4.01638e-06)
(4.72458e-05 -3.80205e-05 -5.90718e-06)
(4.72572e-05 -3.76196e-05 -4.02529e-06)
(4.83163e-05 -3.7945e-05 -1.69265e-06)
(4.99104e-05 -3.95781e-05 -3.41846e-06)
(4.79231e-05 -3.80108e-05 -3.41403e-06)
(4.79083e-05 -3.8544e-05 -5.91051e-06)
(4.9907e-05 -3.97102e-05 -4.03282e-06)
(4.792e-05 -3.81423e-05 -4.02759e-06)
(4.98872e-05 -4.08087e-05 -9.10335e-06)
(4.79037e-05 -3.92359e-05 -9.09337e-06)
(4.52687e-05 -3.69916e-05 -8.36147e-06)
(4.72672e-05 -3.81705e-05 -6.51805e-06)
(4.7255e-05 -3.85664e-05 -8.37872e-06)
(4.99009e-05 -4.06632e-05 -8.39283e-06)
(4.79296e-05 -3.86943e-05 -6.52172e-06)
(4.79168e-05 -3.9091e-05 -8.38312e-06)
(5.52236e-05 -4.39246e-05 -4.06682e-06)
(5.32249e-05 -4.275e-05 -5.92395e-06)
(5.32346e-05 -4.23412e-05 -4.03814e-06)
(5.22985e-05 -4.10849e-05 -1.69539e-06)
(5.05723e-05 -4.01007e-05 -3.41949e-06)
(5.2565e-05 -4.16754e-05 -3.42177e-06)
(5.25494e-05 -4.22148e-05 -5.9233e-06)
(5.05689e-05 -4.02329e-05 -4.03407e-06)
(5.25615e-05 -4.18082e-05 -4.03705e-06)
(1.48896e-05 -1.2871e-05 -8.56703e-06)
(1.43701e-05 -1.24311e-05 -8.45522e-06)
(3.40127e-05 -2.8583e-05 -1.07754e-05)
(3.33665e-05 -2.80623e-05 -1.07416e-05)
(2.45644e-05 -2.0912e-05 -1.005e-05)
(2.51739e-05 -2.14112e-05 -1.0114e-05)
(5.49509e-05 -4.52568e-05 -1.10631e-05)
(5.43982e-05 -4.48181e-05 -1.10637e-05)
(4.51687e-05 -3.75063e-05 -1.11011e-05)
(4.58297e-05 -3.8032e-05 -1.11085e-05)
(1.49358e-05 -1.28568e-05 -8.38729e-06)
(1.44158e-05 -1.24166e-05 -8.2773e-06)
(1.54155e-05 -1.33152e-05 -8.67599e-06)
(1.59476e-05 -1.37636e-05 -8.78212e-06)
(2.39585e-05 -2.04151e-05 -9.98346e-06)
(2.33565e-05 -1.99206e-05 -9.91451e-06)
(1.54622e-05 -1.33013e-05 -8.49449e-06)
(1.59947e-05 -1.37501e-05 -8.59891e-06)
(2.40107e-05 -2.0406e-05 -9.78175e-06)
(2.34084e-05 -1.99112e-05 -9.71381e-06)
(3.40683e-05 -2.8578e-05 -1.05633e-05)
(3.3422e-05 -2.80571e-05 -1.05299e-05)
(2.46168e-05 -2.09032e-05 -9.84728e-06)
(2.52266e-05 -2.14027e-05 -9.91044e-06)
(3.46606e-05 -2.91045e-05 -1.08073e-05)
(3.531e-05 -2.96268e-05 -1.08374e-05)
(4.45078e-05 -3.69804e-05 -1.10927e-05)
(4.38471e-05 -3.64544e-05 -1.10833e-05)
(3.47164e-05 -2.90997e-05 -1.05948e-05)
(3.53659e-05 -2.96223e-05 -1.06246e-05)
(4.45651e-05 -3.69783e-05 -1.08786e-05)
(4.39043e-05 -3.64522e-05 -1.08691e-05)
(5.45997e-05 -4.27556e-05 -1.01635e-06)
(5.53659e-05 -4.32459e-05 -4.83176e-07)
(5.47554e-05 -4.27612e-05 -4.80831e-07)
(5.50219e-05 -4.52542e-05 -1.07961e-05)
(5.44687e-05 -4.48223e-05 -1.08299e-05)
(4.5226e-05 -3.75043e-05 -1.0887e-05)
(4.58871e-05 -3.80301e-05 -1.08945e-05)
(5.47738e-05 -4.30361e-05 -1.6601e-06)
(5.5223e-05 -4.35172e-05 -2.22632e-06)
(5.46026e-05 -4.2893e-05 -1.62857e-06)
(5.53714e-05 -4.33829e-05 -1.08407e-06)
(5.46074e-05 -4.30298e-05 -2.23099e-06)
(5.47616e-05 -4.29001e-05 -1.08771e-06)
(5.53913e-05 -4.35219e-05 -1.6411e-06)
(1.47012e-05 -1.23402e-05 -6.03321e-06)
(1.41616e-05 -1.18273e-05 -5.47514e-06)
(1.46133e-05 -1.22552e-05 -5.76763e-06)
(1.4092e-05 -1.1827e-05 -5.69297e-06)
(1.4179e-05 -1.19094e-05 -5.95439e-06)
(1.40515e-05 -1.16727e-05 -4.84017e-06)
(1.46596e-05 -1.20791e-05 -4.49133e-06)
(1.41535e-05 -1.17346e-05 -4.89654e-06)
(1.45973e-05 -1.21754e-05 -5.31653e-06)
(1.40755e-05 -1.17489e-05 -5.24772e-06)
(1.41356e-05 -1.16539e-05 -4.43251e-06)
(1.45736e-05 -1.20974e-05 -4.90354e-06)
(2.95309e-05 -2.49609e-05 -1.04973e-05)
(3.01646e-05 -2.54746e-05 -1.05432e-05)
(3.39027e-05 -2.78544e-05 -7.59393e-06)
(3.32523e-05 -2.72141e-05 -6.96259e-06)
(3.37979e-05 -2.77061e-05 -7.24112e-06)
(3.31499e-05 -2.71904e-05 -7.21858e-06)
(3.32545e-05 -2.73375e-05 -7.56986e-06)
(2.93033e-05 -2.41233e-05 -7.05563e-06)
(2.9406e-05 -2.42616e-05 -7.39636e-06)
(3.00379e-05 -2.46517e-05 -6.83265e-06)
(2.99389e-05 -2.46308e-05 -7.08622e-06)
(3.00419e-05 -2.47708e-05 -7.42888e-06)
(2.49049e-05 -2.04132e-05 -5.7794e-06)
(2.44058e-05 -1.99139e-05 -5.27255e-06)
(2.43127e-05 -2.00276e-05 -6.2287e-06)
(2.50301e-05 -2.0514e-05 -5.86241e-06)
(2.49245e-05 -2.05178e-05 -6.26809e-06)
(2.42928e-05 -1.99241e-05 -5.74316e-06)
(2.50192e-05 -2.04034e-05 -5.30639e-06)
(2.8015e-05 -2.28932e-05 -5.94062e-06)
(2.86643e-05 -2.35066e-05 -6.47422e-06)
(2.81445e-05 -2.30019e-05 -6.02908e-06)
(2.87672e-05 -2.33879e-05 -5.48377e-06)
(2.80336e-05 -2.30034e-05 -6.44335e-06)
(2.8646e-05 -2.33953e-05 -5.969e-06)
(2.81352e-05 -2.28854e-05 -5.45717e-06)
(2.88998e-05 -2.44486e-05 -1.04493e-05)
(2.82713e-05 -2.39379e-05 -1.03991e-05)
(2.44206e-05 -2.02554e-05 -7.07972e-06)
(2.43213e-05 -2.01311e-05 -6.75725e-06)
(2.5025e-05 -2.06382e-05 -6.55275e-06)
(2.49328e-05 -2.06225e-05 -6.79998e-06)
(2.50325e-05 -2.07487e-05 -7.12501e-06)
(2.86703e-05 -2.36174e-05 -7.0236e-06)
(2.87726e-05 -2.37541e-05 -7.36232e-06)
(2.81366e-05 -2.31323e-05 -6.73855e-06)
(2.80399e-05 -2.31132e-05 -6.99012e-06)
(2.81419e-05 -2.32483e-05 -7.32675e-06)
(3.31293e-05 -2.69561e-05 -6.13423e-06)
(3.39066e-05 -2.74657e-05 -5.65712e-06)
(3.32643e-05 -2.70756e-05 -6.2302e-06)
(3.37945e-05 -2.75886e-05 -6.67475e-06)
(3.31462e-05 -2.70737e-05 -6.65396e-06)
(3.32573e-05 -2.69513e-05 -5.63909e-06)
(3.37777e-05 -2.74702e-05 -6.15333e-06)
(2.99157e-05 -2.4405e-05 -6.02208e-06)
(2.92977e-05 -2.40115e-05 -6.50374e-06)
(3.00474e-05 -2.4518e-05 -6.11352e-06)
(2.94019e-05 -2.38923e-05 -5.50922e-06)
(2.99336e-05 -2.45182e-05 -6.53194e-06)
(2.92796e-05 -2.38993e-05 -5.99615e-06)
(3.0039e-05 -2.43984e-05 -5.53356e-06)
(5.04543e-05 -4.1705e-05 -1.11364e-05)
(5.11143e-05 -4.22288e-05 -1.11379e-05)
(5.50376e-05 -4.4616e-05 -7.85755e-06)
(5.44252e-05 -4.39906e-05 -7.22992e-06)
(5.49164e-05 -4.44354e-05 -7.47669e-06)
(5.42933e-05 -4.39435e-05 -7.48951e-06)
(5.44121e-05 -4.41187e-05 -7.85487e-06)
(5.02716e-05 -4.07568e-05 -7.48525e-06)
(5.0379e-05 -4.09241e-05 -7.85829e-06)
(5.10448e-05 -4.13124e-05 -7.23079e-06)
(5.09328e-05 -4.12801e-05 -7.48639e-06)
(5.10401e-05 -4.14475e-05 -7.85969e-06)
(4.56273e-05 -3.68393e-05 -6.34286e-06)
(4.51037e-05 -3.6316e-05 -5.83465e-06)
(4.49791e-05 -3.6444e-05 -6.87659e-06)
(4.57695e-05 -3.69747e-05 -6.45118e-06)
(4.56413e-05 -3.69674e-05 -6.88133e-06)
(4.49649e-05 -3.63162e-05 -6.33853e-06)
(4.57664e-05 -3.68393e-05 -5.839e-06)
(4.89373e-05 -3.9454e-05 -6.35718e-06)
(4.96122e-05 -4.01063e-05 -6.8988e-06)
(4.90803e-05 -3.95914e-05 -6.46752e-06)
(4.97394e-05 -3.99776e-05 -5.85561e-06)
(4.89509e-05 -3.95834e-05 -6.89701e-06)
(4.95987e-05 -3.99767e-05 -6.35881e-06)
(4.90778e-05 -3.94547e-05 -5.85383e-06)
(4.97942e-05 -4.11811e-05 -1.11344e-05)
(4.91339e-05 -4.06569e-05 -1.1132e-05)
(4.50859e-05 -3.67341e-05 -7.82956e-06)
(4.49785e-05 -3.65701e-05 -7.45985e-06)
(4.57511e-05 -3.71245e-05 -7.20783e-06)
(4.56406e-05 -3.70937e-05 -7.46496e-06)
(4.5748e-05 -3.72583e-05 -7.83522e-06)
(4.96106e-05 -4.02338e-05 -7.48374e-06)
(4.97181e-05 -4.04009e-05 -7.85648e-06)
(4.90609e-05 -3.97425e-05 -7.22568e-06)
(4.89495e-05 -3.97108e-05 -7.48183e-06)
(4.9057e-05 -3.98775e-05 -7.85424e-06)
(5.42856e-05 -4.36897e-05 -6.37243e-06)
(5.50644e-05 -4.41968e-05 -5.87005e-06)
(5.44539e-05 -4.38497e-05 -6.49107e-06)
(5.49323e-05 -4.43246e-05 -6.92022e-06)
(5.43031e-05 -4.38235e-05 -6.91324e-06)
(5.44464e-05 -4.37077e-05 -5.87685e-06)
(5.49176e-05 -4.4193e-05 -6.37949e-06)
(5.09213e-05 -4.10226e-05 -6.36111e-06)
(5.02733e-05 -4.06292e-05 -6.90022e-06)
(5.10652e-05 -4.11613e-05 -6.47236e-06)
(5.0401e-05 -4.05006e-05 -5.85708e-06)
(5.09347e-05 -4.11524e-05 -6.90132e-06)
(5.02599e-05 -4.04995e-05 -6.3601e-06)
(5.10631e-05 -4.10242e-05 -5.85827e-06)
(1.48263e-05 -1.23088e-05 -5.42944e-06)
(1.42772e-05 -1.17982e-05 -4.90799e-06)
(1.48621e-05 -1.21967e-05 -4.5337e-06)
(1.43014e-05 -1.18771e-05 -5.35709e-06)
(1.4335e-05 -1.17671e-05 -4.47248e-06)
(1.43076e-05 -1.16206e-05 -3.5642e-06)
(1.4754e-05 -1.20609e-05 -4.03055e-06)
(1.42442e-05 -1.17146e-05 -4.45003e-06)
(1.48438e-05 -1.2123e-05 -4.09884e-06)
(1.42279e-05 -1.16352e-05 -3.97687e-06)
(1.43163e-05 -1.16951e-05 -4.04344e-06)
(1.48357e-05 -1.20466e-05 -3.61319e-06)
(1.52298e-05 -1.27757e-05 -6.11004e-06)
(1.51411e-05 -1.2688e-05 -5.84038e-06)
(1.57489e-05 -1.31282e-05 -5.68727e-06)
(1.56751e-05 -1.31252e-05 -5.91124e-06)
(1.57646e-05 -1.32155e-05 -6.18488e-06)
(1.92618e-05 -1.65359e-05 -9.3607e-06)
(1.86958e-05 -1.60648e-05 -9.27109e-06)
(1.90009e-05 -1.58347e-05 -6.29741e-06)
(1.85132e-05 -1.53808e-05 -6.00472e-06)
(1.90949e-05 -1.59398e-05 -6.59299e-06)
(1.84329e-05 -1.53734e-05 -6.23761e-06)
(1.85263e-05 -1.54763e-05 -6.52977e-06)
(2.30797e-05 -1.89538e-05 -5.66654e-06)
(2.3796e-05 -1.94269e-05 -5.23744e-06)
(2.37044e-05 -1.95398e-05 -6.18782e-06)
(2.32019e-05 -1.90494e-05 -5.74597e-06)
(2.36843e-05 -1.94376e-05 -5.70554e-06)
(2.31e-05 -1.90547e-05 -6.14543e-06)
(2.319e-05 -1.89427e-05 -5.20105e-06)
(2.01189e-05 -1.65787e-05 -5.45002e-06)
(1.9562e-05 -1.62059e-05 -5.85832e-06)
(1.96418e-05 -1.60995e-05 -4.95489e-06)
(2.02356e-05 -1.66648e-05 -5.52298e-06)
(1.95403e-05 -1.61133e-05 -5.4023e-06)
(2.01403e-05 -1.66728e-05 -5.91015e-06)
(2.02219e-05 -1.65653e-05 -4.9993e-06)
(1.56367e-05 -1.29606e-05 -5.02541e-06)
(1.51899e-05 -1.2509e-05 -4.54865e-06)
(1.51256e-05 -1.26065e-05 -5.38359e-06)
(1.57431e-05 -1.30296e-05 -5.08662e-06)
(1.5102e-05 -1.25267e-05 -4.96527e-06)
(1.566e-05 -1.30421e-05 -5.4489e-06)
(1.57264e-05 -1.29433e-05 -4.6045e-06)
(1.8398e-05 -1.51932e-05 -5.30235e-06)
(1.89885e-05 -1.57426e-05 -5.80485e-06)
(1.85111e-05 -1.52732e-05 -5.37111e-06)
(1.90665e-05 -1.56371e-05 -4.90909e-06)
(1.84201e-05 -1.52828e-05 -5.74973e-06)
(1.89666e-05 -1.56514e-05 -5.35309e-06)
(1.84963e-05 -1.51784e-05 -4.8619e-06)
(1.98328e-05 -1.70104e-05 -9.44763e-06)
(2.04088e-05 -1.74881e-05 -9.53192e-06)
(2.38122e-05 -1.97646e-05 -7.03272e-06)
(2.37134e-05 -1.96422e-05 -6.7129e-06)
(2.31987e-05 -1.91695e-05 -6.4229e-06)
(2.31094e-05 -1.91559e-05 -6.66691e-06)
(2.32077e-05 -1.92763e-05 -6.984e-06)
(1.95739e-05 -1.62994e-05 -6.35542e-06)
(1.96686e-05 -1.64069e-05 -6.65434e-06)
(2.02357e-05 -1.67774e-05 -6.17416e-06)
(2.01518e-05 -1.67676e-05 -6.41166e-06)
(2.02471e-05 -1.68774e-05 -6.71383e-06)
(1.53575e-05 -1.2745e-05 -5.49997e-06)
(1.53955e-05 -1.2631e-05 -4.5934e-06)
(1.58722e-05 -1.31012e-05 -5.10195e-06)
(1.5895e-05 -1.31856e-05 -5.5687e-06)
(1.59351e-05 -1.30696e-05 -4.65159e-06)
(1.93113e-05 -1.65244e-05 -9.16836e-06)
(1.8745e-05 -1.60529e-05 -9.08015e-06)
(1.9292e-05 -1.57878e-05 -4.96957e-06)
(1.86483e-05 -1.53573e-05 -5.3926e-06)
(1.92397e-05 -1.59146e-05 -5.94399e-06)
(1.86688e-05 -1.54502e-05 -5.88579e-06)
(1.87191e-05 -1.53251e-05 -4.92022e-06)
(2.34194e-05 -1.89212e-05 -4.20732e-06)
(2.39193e-05 -1.94157e-05 -4.71338e-06)
(2.33212e-05 -1.90369e-05 -5.23627e-06)
(2.4028e-05 -1.95074e-05 -4.80516e-06)
(2.33118e-05 -1.8931e-05 -4.67997e-06)
(2.34195e-05 -1.90211e-05 -4.7705e-06)
(2.40284e-05 -1.94062e-05 -4.238e-06)
(2.04355e-05 -1.65403e-05 -4.03772e-06)
(1.98551e-05 -1.61651e-05 -4.53675e-06)
(1.97537e-05 -1.60853e-05 -4.4543e-06)
(2.0347e-05 -1.66501e-05 -5.02942e-06)
(2.03356e-05 -1.65515e-05 -4.49498e-06)
(1.98519e-05 -1.60738e-05 -4.00048e-06)
(2.04381e-05 -1.66332e-05 -4.57885e-06)
(1.59107e-05 -1.29124e-05 -3.70753e-06)
(1.52864e-05 -1.24912e-05 -4.08288e-06)
(1.53777e-05 -1.25554e-05 -4.15288e-06)
(1.584e-05 -1.3011e-05 -4.62564e-06)
(1.53701e-05 -1.24772e-05 -3.66096e-06)
(1.5825e-05 -1.29261e-05 -4.13389e-06)
(1.59176e-05 -1.29923e-05 -4.20554e-06)
(1.86994e-05 -1.51512e-05 -3.92259e-06)
(1.92768e-05 -1.57005e-05 -4.49338e-06)
(1.86173e-05 -1.5257e-05 -4.88877e-06)
(1.91767e-05 -1.56225e-05 -4.41238e-06)
(1.86046e-05 -1.51633e-05 -4.36919e-06)
(1.87036e-05 -1.52395e-05 -4.44871e-06)
(1.92732e-05 -1.56107e-05 -3.9621e-06)
(1.98828e-05 -1.69992e-05 -9.25396e-06)
(2.04591e-05 -1.74772e-05 -9.33695e-06)