/*--------------------------------*- C++ -*----------------------------------*\
| =========                 |                                                 |
| \\      /  F ield         | OpenFOAM: The Open Source CFD Toolbox           |
|  \\    /   O peration     | Version:  2012                                  |
|   \\  /    A nd           | Website:  www.openfoam.com                      |
|    \\/     M anipulation  |                                                 |
\*---------------------------------------------------------------------------*/
FoamFile
{
    version     2.0;
    format      ascii;
    class       pointVectorField;
    location    "0.104/solid";
    object      pointD;
}
// * * * * * * * * * * * * * * * * * * * * * * * * * * * * * * * * * * * * * //

dimensions      [0 1 0 0 0 0 0];


internalField   nonuniform List<vector> 
4493
(
(7.56896e-06 -1.81861e-05 -4.41376e-07)
(1.40505e-05 -3.24985e-05 -4.8862e-07)
(4.68312e-06 -1.14872e-05 -3.79703e-07)
(1.07481e-05 -2.52821e-05 -4.75378e-07)
(1.73582e-05 -3.97355e-05 -4.89541e-07)
(4.71148e-06 -1.16313e-05 -1.56109e-06)
(1.07565e-05 -2.5421e-05 -1.95973e-06)
(1.73582e-05 -3.98446e-05 -2.02722e-06)
(6.07711e-06 -1.47609e-05 -4.14343e-07)
(7.58627e-06 -1.83395e-05 -1.81666e-06)
(9.13357e-06 -2.17068e-05 -4.61463e-07)
(1.23927e-05 -2.88846e-05 -4.84059e-07)
(1.40529e-05 -3.2618e-05 -2.01829e-06)
(1.57093e-05 -3.61173e-05 -4.90362e-07)
(9.14608e-06 -2.18547e-05 -1.90072e-06)
(1.57095e-05 -3.62293e-05 -2.02702e-06)
(6.09973e-06 -1.49139e-05 -1.70433e-06)
(1.23976e-05 -2.90134e-05 -1.99747e-06)
(4.73873e-06 -1.17082e-05 -2.17069e-06)
(1.07647e-05 -2.54916e-05 -2.72112e-06)
(1.73575e-05 -3.98981e-05 -2.8485e-06)
(6.81242e-06 -1.64584e-05 -4.28768e-07)
(7.57529e-06 -1.82649e-05 -1.13128e-06)
(8.34365e-06 -1.99374e-05 -4.52244e-07)
(1.32208e-05 -3.06908e-05 -4.86777e-07)
(1.40512e-05 -3.2559e-05 -1.25669e-06)
(1.48803e-05 -3.43072e-05 -4.89757e-07)
(4.69361e-06 -1.15636e-05 -9.72015e-07)
(5.36624e-06 -1.3101e-05 -3.98007e-07)
(7.60302e-06 -1.8419e-05 -2.52403e-06)
(1.07511e-05 -2.53526e-05 -1.22033e-06)
(9.93593e-06 -2.34896e-05 -4.69138e-07)
(1.15678e-05 -2.70812e-05 -4.80308e-07)
(1.40554e-05 -3.26776e-05 -2.80068e-06)
(1.73579e-05 -3.9791e-05 -1.2638e-06)
(1.6544e-05 -3.79452e-05 -4.90602e-07)
(5.39168e-06 -1.32508e-05 -1.63671e-06)
(6.12153e-06 -1.49941e-05 -2.36882e-06)
(9.15828e-06 -2.19306e-05 -2.63998e-06)
(9.94627e-06 -2.36333e-05 -1.93313e-06)
(1.15743e-05 -2.7215e-05 -1.981e-06)
(1.24026e-05 -2.90782e-05 -2.77269e-06)
(1.57103e-05 -3.6285e-05 -2.81187e-06)
(1.65413e-05 -3.80499e-05 -2.02841e-06)
(6.08544e-06 -1.48405e-05 -1.06129e-06)
(8.35849e-06 -2.00886e-05 -1.86203e-06)
(6.83232e-06 -1.66125e-05 -1.7642e-06)
(9.13809e-06 -2.17822e-05 -1.18362e-06)
(1.23943e-05 -2.89498e-05 -1.24377e-06)
(1.48816e-05 -3.44229e-05 -2.02385e-06)
(1.32244e-05 -3.08147e-05 -2.0097e-06)
(1.5709e-05 -3.61738e-05 -1.26212e-06)
(9.95641e-06 -2.37067e-05 -2.68459e-06)
(8.34905e-06 -2.00147e-05 -1.15954e-06)
(8.37289e-06 -2.01666e-05 -2.58665e-06)
(9.93963e-06 -2.35626e-05 -1.20379e-06)
(1.65399e-05 -3.81006e-05 -2.81387e-06)
(1.48806e-05 -3.43658e-05 -1.26014e-06)
(1.48832e-05 -3.44804e-05 -2.80792e-06)
(1.65405e-05 -3.79942e-05 -1.26312e-06)
(5.41616e-06 -1.33299e-05 -2.27532e-06)
(6.81973e-06 -1.6538e-05 -1.0986e-06)
(5.37563e-06 -1.31795e-05 -1.01916e-06)
(6.85154e-06 -1.66928e-05 -2.45158e-06)
(1.15809e-05 -2.72827e-05 -2.75024e-06)
(1.3222e-05 -3.07535e-05 -1.25136e-06)
(1.15701e-05 -2.7149e-05 -1.23354e-06)
(1.3228e-05 -3.08768e-05 -2.78923e-06)
(4.30779e-06 -1.0757e-05 -1.67485e-06)
(7.90415e-06 -1.91095e-05 -1.94222e-06)
(1.0294e-05 -2.44285e-05 -2.01688e-06)
(1.44255e-05 -3.34369e-05 -2.06077e-06)
(1.69266e-05 -3.88998e-05 -2.06435e-06)
(4.40522e-06 -1.07429e-05 2.83504e-07)
(7.13785e-06 -1.73713e-05 -1.90505e-06)
(4.97331e-06 -1.2344e-05 -1.74613e-06)
(7.24283e-06 -1.73624e-05 2.66654e-07)
(5.07491e-06 -1.23312e-05 2.82051e-07)
(8.00791e-06 -1.91018e-05 2.59439e-07)
(1.03899e-05 -2.44239e-05 2.3745e-07)
(1.35944e-05 -3.16301e-05 -2.05705e-06)
(1.11117e-05 -2.62224e-05 -2.03193e-06)
(1.36771e-05 -3.16285e-05 2.17921e-07)
(1.12042e-05 -2.62187e-05 2.31109e-07)
(1.69391e-05 -3.88534e-05 -1.04755e-06)
(1.7002e-05 -3.88529e-05 8.3554e-07)
(1.45055e-05 -3.34357e-05 2.15682e-07)
(1.70016e-05 -3.88994e-05 2.14193e-07)
(4.33549e-06 -1.08223e-05 -2.01893e-06)
(7.92354e-06 -1.91811e-05 -2.37251e-06)
(8.68754e-06 -2.08684e-05 -1.97275e-06)
(8.7053e-06 -2.09387e-05 -2.41532e-06)
(1.03087e-05 -2.44949e-05 -2.47919e-06)
(9.48508e-06 -2.26427e-05 -1.99739e-06)
(9.50128e-06 -2.27112e-05 -2.45062e-06)
(1.44349e-05 -3.34917e-05 -2.54789e-06)
(1.52558e-05 -3.52446e-05 -2.06302e-06)
(1.52645e-05 -3.52979e-05 -2.55185e-06)
(1.69344e-05 -3.89506e-05 -2.55545e-06)
(1.60845e-05 -3.70539e-05 -2.06419e-06)
(1.60927e-05 -3.71059e-05 -2.55401e-06)
(4.40644e-06 -1.08015e-05 -4.41813e-07)
(6.39176e-06 -1.56595e-05 -1.86049e-06)
(7.15892e-06 -1.74435e-05 -2.32141e-06)
(6.41453e-06 -1.57315e-05 -2.26125e-06)
(4.99942e-06 -1.24127e-05 -2.11074e-06)
(5.66912e-06 -1.39811e-05 -1.80777e-06)
(5.69358e-06 -1.4052e-05 -2.19128e-06)
(6.49694e-06 -1.56493e-05 2.73138e-07)
(7.23979e-06 -1.74304e-05 -5.77933e-07)
(6.49476e-06 -1.57167e-05 -5.47338e-07)
(5.07485e-06 -1.2394e-05 -4.79007e-07)
(5.77324e-06 -1.39697e-05 2.78431e-07)
(5.77205e-06 -1.40353e-05 -5.14276e-07)
(8.00409e-06 -1.91698e-05 -6.05837e-07)
(8.78924e-06 -2.08617e-05 2.5192e-07)
(8.78474e-06 -2.0929e-05 -6.30869e-07)
(1.03842e-05 -2.44882e-05 -6.71863e-07)
(9.58409e-06 -2.26372e-05 2.44479e-07)
(9.57898e-06 -2.27032e-05 -6.52902e-07)
(1.27639e-05 -2.98248e-05 -2.05138e-06)
(1.36045e-05 -3.1687e-05 -2.54157e-06)
(1.2775e-05 -2.98839e-05 -2.53226e-06)
(1.1125e-05 -2.62864e-05 -2.50182e-06)
(1.19357e-05 -2.80218e-05 -2.04322e-06)
(1.19478e-05 -2.80833e-05 -2.51926e-06)
(1.28497e-05 -2.98226e-05 2.21243e-07)
(1.36699e-05 -3.16848e-05 -7.17837e-07)
(1.28428e-05 -2.98808e-05 -7.10554e-07)
(1.1198e-05 -2.62811e-05 -6.87737e-07)
(1.20248e-05 -2.80189e-05 2.25662e-07)
(1.20182e-05 -2.80792e-05 -7.00587e-07)
(1.4498e-05 -3.34903e-05 -7.22707e-07)
(1.53336e-05 -3.52439e-05 2.14415e-07)
(1.53259e-05 -3.5297e-05 -7.25539e-07)
(1.69934e-05 -3.89505e-05 -7.28388e-07)
(1.61606e-05 -3.70534e-05 2.13953e-07)
(1.61527e-05 -3.71055e-05 -7.26814e-07)
(4.76064e-06 -1.1785e-05 -2.58137e-06)
(1.07711e-05 -2.55407e-05 -3.22985e-06)
(1.73549e-05 -3.99397e-05 -3.56551e-06)
(7.52652e-06 -1.81897e-05 -1.29189e-06)
(7.61051e-06 -1.8186e-05 4.12455e-07)
(7.18824e-06 -1.73189e-05 -4.35295e-07)
(7.57156e-06 -1.82267e-05 -7.91731e-07)
(7.95423e-06 -1.90591e-05 -4.47022e-07)
(1.40185e-05 -3.24987e-05 -1.37345e-06)
(1.40824e-05 -3.24979e-05 4.0098e-07)
(1.36356e-05 -3.15945e-05 -4.87797e-07)
(1.40507e-05 -3.25293e-05 -8.78749e-07)
(1.44655e-05 -3.34027e-05 -4.89267e-07)
(4.68747e-06 -1.15273e-05 -6.80463e-07)
(4.35304e-06 -1.07005e-05 -3.69792e-07)
(4.64076e-06 -1.14947e-05 -1.1542e-06)
(4.72403e-06 -1.14888e-05 3.97173e-07)
(5.021e-06 -1.22878e-05 -3.89105e-07)
(7.61632e-06 -1.84822e-05 -2.99839e-06)
(1.07493e-05 -2.53181e-05 -8.53724e-07)
(1.0341e-05 -2.43848e-05 -4.7243e-07)
(1.07107e-05 -2.52833e-05 -1.35402e-06)
(1.07851e-05 -2.52814e-05 4.07357e-07)
(1.11572e-05 -2.61809e-05 -4.77999e-07)
(1.4057e-05 -3.27166e-05 -3.32173e-06)
(1.7358e-05 -3.97633e-05 -8.75663e-07)
(1.69721e-05 -3.88855e-05 -4.90682e-07)
(1.73282e-05 -3.97356e-05 -1.39578e-06)
(1.73884e-05 -3.97352e-05 4.17664e-07)
(4.724e-06 -1.16674e-05 -1.86465e-06)
(4.70142e-06 -1.15977e-05 -1.26312e-06)
(4.38289e-06 -1.08408e-05 -1.52018e-06)
(4.67873e-06 -1.16424e-05 -2.23042e-06)
(4.74089e-06 -1.16217e-05 -8.496e-07)
(5.04789e-06 -1.2435e-05 -1.59992e-06)
(6.13897e-06 -1.50645e-05 -2.81538e-06)
(9.16785e-06 -2.19865e-05 -3.13479e-06)
(1.07603e-05 -2.5456e-05 -2.33949e-06)
(1.07534e-05 -2.53866e-05 -1.58601e-06)
(1.03503e-05 -2.45262e-05 -1.94713e-06)
(1.07242e-05 -2.54219e-05 -2.70969e-06)
(1.07877e-05 -2.54157e-05 -1.15558e-06)
(1.11646e-05 -2.63173e-05 -1.971e-06)
(1.24063e-05 -2.91216e-05 -3.2898e-06)
(1.57105e-05 -3.63209e-05 -3.33371e-06)
(1.73583e-05 -3.98716e-05 -2.42156e-06)
(1.7358e-05 -3.9818e-05 -1.64587e-06)
(1.69712e-05 -3.89937e-05 -2.02909e-06)
(1.73332e-05 -3.98434e-05 -2.79173e-06)
(1.7383e-05 -3.98434e-05 -1.23007e-06)
(6.44192e-06 -1.56055e-05 -4.21784e-07)
(5.71842e-06 -1.39258e-05 -4.06417e-07)
(6.03376e-06 -1.47663e-05 -1.23469e-06)
(6.1193e-06 -1.47615e-05 4.08883e-07)
(6.08056e-06 -1.48022e-05 -7.42866e-07)
(7.58008e-06 -1.83021e-05 -1.47012e-06)
(7.59396e-06 -1.83782e-05 -2.16921e-06)
(7.55074e-06 -1.83444e-05 -2.54567e-06)
(7.97028e-06 -1.92116e-05 -1.84021e-06)
(7.20682e-06 -1.74729e-05 -1.79134e-06)
(7.61974e-06 -1.83317e-05 -1.03796e-06)
(8.73689e-06 -2.08201e-05 -4.57053e-07)
(9.53336e-06 -2.25967e-05 -4.65487e-07)
(9.0933e-06 -2.1709e-05 -1.33024e-06)
(9.13541e-06 -2.17454e-05 -8.28216e-07)
(9.17318e-06 -2.17062e-05 4.11032e-07)
(1.28065e-05 -2.97875e-05 -4.85538e-07)
(1.19797e-05 -2.79825e-05 -4.82322e-07)
(1.23581e-05 -2.88852e-05 -1.36724e-06)
(1.24269e-05 -2.88839e-05 4.0356e-07)
(1.23933e-05 -2.89179e-05 -8.6992e-07)
(1.40519e-05 -3.25883e-05 -1.63349e-06)
(1.4054e-05 -3.26479e-05 -2.40882e-06)
(1.40254e-05 -3.26168e-05 -2.77291e-06)
(1.44673e-05 -3.35203e-05 -2.02141e-06)
(1.36385e-05 -3.17162e-05 -2.01441e-06)
(1.40801e-05 -3.26149e-05 -1.20724e-06)
(1.52948e-05 -3.52119e-05 -4.90115e-07)
(1.61245e-05 -3.70259e-05 -4.90521e-07)
(1.56787e-05 -3.61165e-05 -1.37565e-06)
(1.5709e-05 -3.61459e-05 -8.82387e-07)
(1.57391e-05 -3.61161e-05 4.00025e-07)
(9.11173e-06 -2.18573e-05 -2.64349e-06)
(9.17894e-06 -2.18481e-05 -1.10568e-06)
(9.15169e-06 -2.1892e-05 -2.26931e-06)
(9.54476e-06 -2.27427e-05 -1.91768e-06)
(8.75054e-06 -2.09698e-05 -1.88219e-06)
(9.14157e-06 -2.18182e-05 -1.53821e-06)
(1.56836e-05 -3.62274e-05 -2.78246e-06)
(1.57351e-05 -3.62268e-05 -1.21454e-06)
(1.57098e-05 -3.62572e-05 -2.41893e-06)
(1.61236e-05 -3.71348e-05 -2.02791e-06)
(1.52957e-05 -3.53259e-05 -2.0257e-06)
(1.57092e-05 -3.62015e-05 -1.64062e-06)
(6.06455e-06 -1.49216e-05 -2.40998e-06)
(6.13224e-06 -1.49051e-05 -9.52346e-07)
(5.74243e-06 -1.40774e-05 -1.6715e-06)
(6.10974e-06 -1.49524e-05 -2.03538e-06)
(6.09169e-06 -1.48772e-05 -1.37914e-06)
(6.46316e-06 -1.57592e-05 -1.73521e-06)
(1.23678e-05 -2.9013e-05 -2.7507e-06)
(1.24268e-05 -2.90093e-05 -1.1887e-06)
(1.19854e-05 -2.81138e-05 -1.9898e-06)
(1.23999e-05 -2.90458e-05 -2.38427e-06)
(1.23958e-05 -2.89814e-05 -1.61659e-06)
(1.28107e-05 -2.99138e-05 -2.00408e-06)
(8.30211e-06 -2.00207e-05 -2.17046e-06)
(9.8951e-06 -2.35667e-05 -2.23012e-06)
(1.48449e-05 -3.43664e-05 -2.29891e-06)
(1.65037e-05 -3.79882e-05 -2.30241e-06)
(6.77182e-06 -1.65464e-05 -2.0826e-06)
(5.32896e-06 -1.31907e-05 -1.96042e-06)
(6.86538e-06 -1.65342e-05 -1.18737e-07)
(5.4194e-06 -1.31752e-05 -8.21025e-08)
(8.39432e-06 -2.00116e-05 -1.526e-07)
(9.983e-06 -2.35602e-05 -1.81215e-07)
(1.31837e-05 -3.07549e-05 -2.2888e-06)
(1.15286e-05 -2.71515e-05 -2.26765e-06)
(1.32599e-05 -3.07525e-05 -2.17021e-07)
(1.16108e-05 -2.71473e-05 -2.02903e-07)
(1.49162e-05 -3.43653e-05 -2.24068e-07)
(1.65718e-05 -3.79879e-05 -2.26045e-07)
(4.41156e-06 -1.09161e-05 -2.11409e-06)
(5.07374e-06 -1.25132e-05 -2.22442e-06)
(5.43579e-06 -1.34036e-05 -2.70498e-06)
(9.9643e-06 -2.37591e-05 -3.18712e-06)
(1.03595e-05 -2.45982e-05 -2.70383e-06)
(1.1172e-05 -2.63865e-05 -2.73656e-06)
(1.15858e-05 -2.73288e-05 -3.26379e-06)
(1.65379e-05 -3.81313e-05 -3.33552e-06)
(1.69689e-05 -3.90421e-05 -2.81581e-06)
(6.76932e-06 -1.64629e-05 -1.26593e-06)
(6.85449e-06 -1.64586e-05 4.11483e-07)
(6.81543e-06 -1.64996e-05 -7.68924e-07)
(7.52764e-06 -1.8272e-05 -2.13043e-06)
(7.96009e-06 -1.91373e-05 -1.14594e-06)
(7.19505e-06 -1.73982e-05 -1.1155e-06)
(7.62098e-06 -1.82614e-05 -1.36186e-07)
(8.30218e-06 -1.99403e-05 -1.31315e-06)
(8.34586e-06 -1.99771e-05 -8.1144e-07)
(8.38435e-06 -1.9937e-05 4.12184e-07)
(1.31876e-05 -3.06911e-05 -1.37102e-06)
(1.32538e-05 -3.06901e-05 4.02068e-07)
(1.32212e-05 -3.07228e-05 -8.75124e-07)
(1.40143e-05 -3.25599e-05 -2.29493e-06)
(1.4466e-05 -3.34622e-05 -1.25862e-06)
(1.36365e-05 -3.16561e-05 -1.25428e-06)
(1.40879e-05 -3.25583e-05 -2.21349e-07)
(1.48492e-05 -3.43071e-05 -1.37489e-06)
(1.48803e-05 -3.4337e-05 -8.81077e-07)
(1.49112e-05 -3.43066e-05 4.00313e-07)
(4.36408e-06 -1.07753e-05 -9.4652e-07)
(4.64862e-06 -1.15762e-05 -1.88458e-06)
(4.73536e-06 -1.1559e-05 -6.36725e-08)
(5.03093e-06 -1.23654e-05 -9.96221e-07)
(5.3231e-06 -1.31074e-05 -1.19763e-06)
(5.40807e-06 -1.3102e-05 4.0425e-07)
(5.37013e-06 -1.3142e-05 -7.1342e-07)
(6.86686e-06 -1.67597e-05 -2.913e-06)
(8.38428e-06 -2.02261e-05 -3.07211e-06)
(7.98584e-06 -1.92905e-05 -2.55654e-06)
(7.22479e-06 -1.75529e-05 -2.48906e-06)
(1.03443e-05 -2.44566e-05 -1.21249e-06)
(1.07081e-05 -2.53557e-05 -2.25128e-06)
(1.07932e-05 -2.53505e-05 -1.92993e-07)
(1.11598e-05 -2.62501e-05 -1.22733e-06)
(9.89702e-06 -2.34913e-05 -1.34369e-06)
(9.93742e-06 -2.3527e-05 -8.42244e-07)
(9.97428e-06 -2.34889e-05 4.09326e-07)
(1.15318e-05 -2.7082e-05 -1.36172e-06)
(1.16034e-05 -2.70805e-05 4.0537e-07)
(1.15687e-05 -2.71158e-05 -8.62871e-07)
(1.32306e-05 -3.09178e-05 -3.30878e-06)
(1.48841e-05 -3.45177e-05 -3.32966e-06)
(1.44693e-05 -3.35788e-05 -2.80477e-06)
(1.36416e-05 -3.1777e-05 -2.79554e-06)
(1.69678e-05 -3.89325e-05 -1.26387e-06)
(1.73242e-05 -3.97919e-05 -2.31068e-06)
(1.73917e-05 -3.97917e-05 -2.41503e-07)
(1.6512e-05 -3.79399e-05 -1.37654e-06)
(1.65415e-05 -3.79686e-05 -8.82627e-07)
(1.65443e-05 -3.79169e-05 -1.05738e-07)
(1.65713e-05 -3.79395e-05 4.00528e-07)
(5.35742e-06 -1.32601e-05 -2.32604e-06)
(5.40292e-06 -1.32884e-05 -1.9548e-06)
(5.38265e-06 -1.32153e-05 -1.32438e-06)
(5.42294e-06 -1.32415e-05 -9.03042e-07)
(5.76556e-06 -1.41572e-05 -2.32344e-06)
(6.48366e-06 -1.58396e-05 -2.41152e-06)
(9.55592e-06 -2.28173e-05 -2.66334e-06)
(8.76383e-06 -2.10468e-05 -2.61444e-06)
(9.91289e-06 -2.3635e-05 -2.68014e-06)
(9.95093e-06 -2.36696e-05 -2.30787e-06)
(9.94252e-06 -2.35978e-05 -1.56447e-06)
(9.97841e-06 -2.36274e-05 -1.13282e-06)
(1.15433e-05 -2.72152e-05 -2.73294e-06)
(1.15773e-05 -2.72487e-05 -2.36474e-06)
(1.15719e-05 -2.71818e-05 -1.60324e-06)
(1.16046e-05 -2.72104e-05 -1.17413e-06)
(1.19912e-05 -2.818e-05 -2.76225e-06)
(1.2815e-05 -2.99772e-05 -2.78165e-06)
(1.61237e-05 -3.71889e-05 -2.813e-06)
(1.52969e-05 -3.53824e-05 -2.81024e-06)
(1.65146e-05 -3.8045e-05 -2.78413e-06)
(1.65394e-05 -3.80728e-05 -2.42057e-06)
(1.65413e-05 -3.80229e-05 -1.64206e-06)
(1.65651e-05 -3.80447e-05 -1.21537e-06)
(6.03782e-06 -1.48502e-05 -2.02618e-06)
(6.44973e-06 -1.56851e-05 -1.08054e-06)
(5.72727e-06 -1.40049e-05 -1.04084e-06)
(6.13048e-06 -1.48364e-05 -1.00587e-07)
(8.3234e-06 -2.00923e-05 -2.59893e-06)
(8.35317e-06 -2.00515e-05 -1.50688e-06)
(8.36511e-06 -2.01268e-05 -2.22325e-06)
(8.39181e-06 -2.00815e-05 -1.07407e-06)
(6.79674e-06 -1.66187e-05 -2.48294e-06)
(6.82523e-06 -1.65752e-05 -1.42764e-06)
(6.84115e-06 -1.66514e-05 -2.10673e-06)
(6.86555e-06 -1.66042e-05 -9.97358e-07)
(9.09222e-06 -2.17871e-05 -2.20343e-06)
(8.74184e-06 -2.08966e-05 -1.17208e-06)
(9.53746e-06 -2.2671e-05 -1.19418e-06)
(9.18255e-06 -2.17793e-05 -1.67689e-07)
(1.23545e-05 -2.89517e-05 -2.27992e-06)
(1.28079e-05 -2.98514e-05 -1.24787e-06)
(1.19817e-05 -2.8049e-05 -1.23901e-06)
(1.24336e-05 -2.89485e-05 -2.10904e-07)
(1.48551e-05 -3.44213e-05 -2.77892e-06)
(1.4881e-05 -3.43942e-05 -1.63803e-06)
(1.48824e-05 -3.44517e-05 -2.4153e-06)
(1.4908e-05 -3.44202e-05 -1.21202e-06)
(1.31958e-05 -3.08139e-05 -2.76376e-06)
(1.3223e-05 -3.07839e-05 -1.62652e-06)
(1.32261e-05 -3.08458e-05 -2.39873e-06)
(1.32525e-05 -3.08112e-05 -1.19962e-06)
(1.56741e-05 -3.61738e-05 -2.30123e-06)
(1.52949e-05 -3.52695e-05 -1.26129e-06)
(1.61232e-05 -3.70799e-05 -1.26268e-06)
(1.57436e-05 -3.61732e-05 -2.25458e-07)
(4.43463e-06 -1.09944e-05 -2.51447e-06)
(4.3113e-06 -1.07086e-05 -1.12994e-06)
(4.35763e-06 -1.07399e-05 -6.62634e-07)
(4.63654e-06 -1.15436e-05 -1.71174e-06)
(4.32024e-06 -1.07888e-05 -1.84266e-06)
(1.03666e-05 -2.4649e-05 -3.20964e-06)
(7.51867e-06 -1.82375e-05 -1.92451e-06)
(7.91223e-06 -1.90624e-05 -1.30307e-06)
(7.95663e-06 -1.90994e-05 -8.01963e-07)
(7.91274e-06 -1.91438e-05 -2.15137e-06)
(8.29389e-06 -1.99867e-05 -1.95826e-06)
(7.99817e-06 -1.93518e-05 -3.03667e-06)
(1.03028e-05 -2.43863e-05 -1.34921e-06)
(1.03423e-05 -2.44215e-05 -8.4829e-07)
(1.07019e-05 -2.53246e-05 -2.02491e-06)
(1.03005e-05 -2.44602e-05 -2.24134e-06)
(9.88828e-06 -2.35344e-05 -2.00773e-06)
(1.69604e-05 -3.90583e-05 -3.34119e-06)
(1.401e-05 -3.25334e-05 -2.05912e-06)
(1.44339e-05 -3.34028e-05 -1.37427e-06)
(1.44656e-05 -3.34331e-05 -8.80058e-07)
(1.44297e-05 -3.3463e-05 -2.29716e-06)
(1.48409e-05 -3.43407e-05 -2.06205e-06)
(1.44705e-05 -3.36169e-05 -3.32625e-06)
(1.69425e-05 -3.88861e-05 -1.38941e-06)
(1.69697e-05 -3.89088e-05 -8.80636e-07)
(1.73201e-05 -3.97634e-05 -2.02927e-06)
(1.69267e-05 -3.89166e-05 -2.30299e-06)
(1.65008e-05 -3.79653e-05 -2.06428e-06)
(4.39325e-06 -1.07023e-05 3.9259e-07)
(7.14542e-06 -1.73229e-05 -1.27953e-06)
(4.97818e-06 -1.22947e-05 -1.17675e-06)
(7.23009e-06 -1.73189e-05 4.12148e-07)
(5.06245e-06 -1.22891e-05 4.01044e-07)
(4.73628e-06 -1.15302e-05 2.83079e-07)
(4.40452e-06 -1.07707e-05 -5.46031e-08)
(5.09451e-06 -1.25885e-05 -2.64486e-06)
(7.19104e-06 -1.73599e-05 -7.80725e-07)
(6.76207e-06 -1.65116e-05 -1.88374e-06)
(7.1472e-06 -1.74059e-05 -2.10754e-06)
(5.02512e-06 -1.23284e-05 -6.97387e-07)
(4.985e-06 -1.23773e-05 -1.92381e-06)
(5.31765e-06 -1.31568e-05 -1.77811e-06)
(7.23909e-06 -1.76179e-05 -2.95719e-06)
(7.62316e-06 -1.82292e-05 2.6311e-07)
(6.8673e-06 -1.65021e-05 2.70016e-07)
(7.24078e-06 -1.73945e-05 -1.27571e-07)
(5.07379e-06 -1.23609e-05 -7.28557e-08)
(5.42071e-06 -1.31448e-05 2.80481e-07)
(7.99538e-06 -1.90589e-05 4.12451e-07)
(1.03786e-05 -2.43842e-05 4.08358e-07)
(1.3603e-05 -3.15947e-05 -1.37238e-06)
(1.11205e-05 -2.6182e-05 -1.35817e-06)
(1.3668e-05 -3.15939e-05 4.0147e-07)
(1.11935e-05 -2.61802e-05 4.06352e-07)
(8.00562e-06 -1.9134e-05 -1.44542e-07)
(8.39672e-06 -1.99795e-05 2.55692e-07)
(1.07961e-05 -2.53205e-05 2.34177e-07)
(1.0387e-05 -2.44543e-05 -1.87332e-07)
(9.98577e-06 -2.35293e-05 2.40893e-07)
(1.11776e-05 -2.64341e-05 -3.24787e-06)
(1.36359e-05 -3.16259e-05 -8.77116e-07)
(1.3179e-05 -3.07273e-05 -2.05449e-06)
(1.35989e-05 -3.16572e-05 -2.29217e-06)
(1.11582e-05 -2.62163e-05 -8.58575e-07)
(1.11175e-05 -2.62529e-05 -2.26002e-06)
(1.1523e-05 -2.71216e-05 -2.038e-06)
(1.36436e-05 -3.18169e-05 -3.31595e-06)
(1.40913e-05 -3.2532e-05 2.16669e-07)
(1.32632e-05 -3.07253e-05 2.19443e-07)
(1.36738e-05 -3.16552e-05 -2.19401e-07)
(1.12012e-05 -2.62482e-05 -1.98186e-07)
(1.16138e-05 -2.71182e-05 2.28262e-07)
(1.69718e-05 -3.8856e-05 -1.0622e-07)
(1.651e-05 -3.79106e-05 -1.03807e-06)
(1.44968e-05 -3.34022e-05 4.00595e-07)
(1.70023e-05 -3.88857e-05 4.12389e-07)
(1.65727e-05 -3.79102e-05 8.27711e-07)
(1.45021e-05 -3.34616e-05 -2.22894e-07)
(1.49197e-05 -3.43397e-05 2.14936e-07)
(1.7396e-05 -3.97631e-05 2.76497e-07)
(1.69945e-05 -3.89163e-05 -2.27019e-07)
(1.65762e-05 -3.79649e-05 2.14233e-07)
(4.35113e-06 -1.08528e-05 -2.17802e-06)
(4.39606e-06 -1.08759e-05 -1.81589e-06)
(4.37231e-06 -1.08083e-05 -1.22999e-06)
(4.66346e-06 -1.16108e-05 -2.06629e-06)
(9.56463e-06 -2.28715e-05 -3.1622e-06)
(1.03174e-05 -2.45275e-05 -2.69575e-06)
(1.03545e-05 -2.45619e-05 -2.32451e-06)
(9.51087e-06 -2.27448e-05 -2.66275e-06)
(9.54989e-06 -2.27795e-05 -2.28949e-06)
(8.31246e-06 -2.00577e-05 -2.3949e-06)
(7.93493e-06 -1.92159e-05 -2.57343e-06)
(7.5389e-06 -1.83095e-05 -2.34805e-06)
(7.96454e-06 -1.91743e-05 -1.4892e-06)
(8.69539e-06 -2.0902e-05 -2.18778e-06)
(9.08472e-06 -2.17539e-05 -1.98576e-06)
(8.69599e-06 -2.08227e-05 -1.32218e-06)
(8.73891e-06 -2.08594e-05 -8.20183e-07)
(8.71579e-06 -2.0973e-05 -2.62224e-06)
(9.10169e-06 -2.18234e-05 -2.43386e-06)
(8.74563e-06 -2.0933e-05 -1.5232e-06)
(8.77429e-06 -2.11045e-05 -3.10479e-06)
(7.97743e-06 -1.92502e-05 -2.19726e-06)
(8.75664e-06 -2.10076e-05 -2.24725e-06)
(9.90373e-06 -2.36019e-05 -2.4657e-06)
(1.03469e-05 -2.44912e-05 -1.5758e-06)
(1.07159e-05 -2.53898e-05 -2.4912e-06)
(9.49223e-06 -2.26755e-05 -2.21751e-06)
(9.49375e-06 -2.25987e-05 -1.33739e-06)
(9.53502e-06 -2.26348e-05 -8.35562e-07)
(9.54064e-06 -2.27066e-05 -1.55195e-06)
(1.61235e-05 -3.72238e-05 -3.33485e-06)
(1.69431e-05 -3.89849e-05 -2.7843e-06)
(1.69672e-05 -3.90118e-05 -2.4215e-06)
(1.60975e-05 -3.71319e-05 -2.7835e-06)
(1.61233e-05 -3.71615e-05 -2.41994e-06)
(1.48498e-05 -3.43947e-05 -2.55013e-06)
(1.44403e-05 -3.35189e-05 -2.77627e-06)
(1.40197e-05 -3.25892e-05 -2.54506e-06)
(1.44665e-05 -3.34911e-05 -1.63604e-06)
(1.52597e-05 -3.527e-05 -2.30024e-06)
(1.56703e-05 -3.61488e-05 -2.06371e-06)
(1.52641e-05 -3.52116e-05 -1.37534e-06)
(1.52948e-05 -3.52412e-05 -8.81843e-07)
(1.52695e-05 -3.53242e-05 -2.78096e-06)
(1.56787e-05 -3.62014e-05 -2.55312e-06)
(1.52953e-05 -3.52976e-05 -1.63954e-06)
(1.52974e-05 -3.5419e-05 -3.33209e-06)
(1.44682e-05 -3.35496e-05 -2.41247e-06)
(1.52963e-05 -3.53542e-05 -2.41742e-06)
(1.6509e-05 -3.80173e-05 -2.55467e-06)
(1.69695e-05 -3.8963e-05 -1.64373e-06)
(1.73286e-05 -3.98184e-05 -2.56303e-06)
(1.60881e-05 -3.70784e-05 -2.30192e-06)
(1.60934e-05 -3.70232e-05 -1.37587e-06)
(1.61235e-05 -3.70527e-05 -8.82716e-07)
(1.61235e-05 -3.71075e-05 -1.64138e-06)
(6.39864e-06 -1.56104e-05 -1.251e-06)
(5.6751e-06 -1.39316e-05 -1.21692e-06)
(6.4841e-06 -1.56058e-05 4.10411e-07)
(5.76049e-06 -1.39265e-05 4.06846e-07)
(4.41114e-06 -1.08311e-05 -8.21385e-07)
(4.73683e-06 -1.15911e-05 -4.60632e-07)
(5.0143e-06 -1.24452e-05 -2.27973e-06)
(5.05976e-06 -1.2472e-05 -1.91094e-06)
(5.78408e-06 -1.42293e-05 -2.76181e-06)
(5.70764e-06 -1.40859e-05 -2.36943e-06)
(5.75305e-06 -1.41155e-05 -1.99627e-06)
(6.40189e-06 -1.56942e-05 -2.05551e-06)
(6.0273e-06 -1.48156e-05 -1.83519e-06)
(6.44514e-06 -1.56468e-05 -7.5631e-07)
(6.78399e-06 -1.65839e-05 -2.29251e-06)
(7.17122e-06 -1.74784e-05 -2.51553e-06)
(7.20019e-06 -1.74355e-05 -1.44961e-06)
(6.05092e-06 -1.48873e-05 -2.22754e-06)
(6.42772e-06 -1.57662e-05 -2.44778e-06)
(6.4556e-06 -1.57222e-05 -1.40416e-06)
(5.34294e-06 -1.32268e-05 -2.15237e-06)
(5.03835e-06 -1.24004e-05 -1.29457e-06)
(5.68004e-06 -1.40153e-05 -1.99452e-06)
(5.72208e-06 -1.3967e-05 -7.28574e-07)
(5.7339e-06 -1.40412e-05 -1.35256e-06)
(6.50002e-06 -1.59083e-05 -2.86575e-06)
(7.21508e-06 -1.75117e-05 -2.13905e-06)
(6.47258e-06 -1.5798e-05 -2.07219e-06)
(5.07831e-06 -1.24256e-05 -8.76827e-07)
(5.77439e-06 -1.40684e-05 -9.28221e-07)
(6.49515e-06 -1.56812e-05 -1.09727e-07)
(6.13212e-06 -1.48049e-05 2.75964e-07)
(6.86468e-06 -1.657e-05 -5.62959e-07)
(7.24023e-06 -1.74648e-05 -1.01822e-06)
(7.61972e-06 -1.82973e-05 -5.92234e-07)
(6.13042e-06 -1.48715e-05 -5.311e-07)
(6.4961e-06 -1.57507e-05 -9.75397e-07)
(5.42006e-06 -1.32091e-05 -4.969e-07)
(5.77176e-06 -1.40007e-05 -9.13623e-08)
(8.77706e-06 -2.08197e-05 4.11697e-07)
(9.57235e-06 -2.25962e-05 4.10229e-07)
(1.27726e-05 -2.97879e-05 -1.36932e-06)
(1.19444e-05 -2.79832e-05 -1.36472e-06)
(1.28401e-05 -2.97868e-05 4.02767e-07)
(1.20146e-05 -2.79818e-05 4.04432e-07)
(1.0382e-05 -2.45206e-05 -1.14474e-06)
(9.57729e-06 -2.27364e-05 -1.11981e-06)
(8.39254e-06 -2.00473e-05 -6.18722e-07)
(8.00372e-06 -1.92042e-05 -1.05658e-06)
(8.78674e-06 -2.08935e-05 -1.60326e-07)
(9.18515e-06 -2.17478e-05 2.48167e-07)
(8.78367e-06 -2.0963e-05 -1.09044e-06)
(9.18033e-06 -2.18145e-05 -6.42267e-07)
(9.98039e-06 -2.35946e-05 -6.6277e-07)
(1.07902e-05 -2.53838e-05 -6.80184e-07)
(9.58141e-06 -2.26684e-05 -1.74661e-07)
(1.11329e-05 -2.63179e-05 -2.72205e-06)
(1.1168e-05 -2.63517e-05 -2.35287e-06)
(1.19954e-05 -2.82247e-05 -3.27773e-06)
(1.1955e-05 -2.81137e-05 -2.74246e-06)
(1.19881e-05 -2.81468e-05 -2.37518e-06)
(1.27688e-05 -2.9853e-05 -2.28475e-06)
(1.23494e-05 -2.8923e-05 -2.04765e-06)
(1.2807e-05 -2.98201e-05 -8.72736e-07)
(1.31896e-05 -3.07852e-05 -2.53733e-06)
(1.36105e-05 -3.17151e-05 -2.76877e-06)
(1.36374e-05 -3.16859e-05 -1.63034e-06)
(1.2361e-05 -2.89833e-05 -2.52627e-06)
(1.27815e-05 -2.99131e-05 -2.75777e-06)
(1.28091e-05 -2.98824e-05 -1.62195e-06)
(1.15357e-05 -2.71843e-05 -2.51114e-06)
(1.11619e-05 -2.62835e-05 -1.59514e-06)
(1.19411e-05 -2.80511e-05 -2.27425e-06)
(1.19805e-05 -2.80164e-05 -8.66643e-07)
(1.19833e-05 -2.80812e-05 -1.61038e-06)
(1.28181e-05 -3.00194e-05 -3.30011e-06)
(1.36399e-05 -3.17466e-05 -2.40427e-06)
(1.28127e-05 -2.99454e-05 -2.39209e-06)
(1.11953e-05 -2.63124e-05 -1.16537e-06)
(1.20151e-05 -2.81094e-05 -1.18189e-06)
(1.28464e-05 -2.98502e-05 -2.14194e-07)
(1.24368e-05 -2.89204e-05 2.23317e-07)
(1.32561e-05 -3.07826e-05 -7.14517e-07)
(1.36662e-05 -3.17128e-05 -1.20381e-06)
(1.40839e-05 -3.25874e-05 -7.20554e-07)
(1.24301e-05 -2.89797e-05 -7.05921e-07)
(1.28393e-05 -2.991e-05 -1.1946e-06)
(1.16075e-05 -2.71796e-05 -6.94533e-07)
(1.20216e-05 -2.80474e-05 -2.07142e-07)
(1.53253e-05 -3.52112e-05 4.00126e-07)
(1.61532e-05 -3.70228e-05 4.0001e-07)
(1.69932e-05 -3.89848e-05 -1.21509e-06)
(1.61485e-05 -3.71315e-05 -1.21514e-06)
(1.49121e-05 -3.43935e-05 -7.24352e-07)
(1.44941e-05 -3.35174e-05 -1.20995e-06)
(1.53301e-05 -3.52691e-05 -2.2491e-07)
(1.57471e-05 -3.61482e-05 2.14082e-07)
(1.53217e-05 -3.53233e-05 -1.21353e-06)
(1.57394e-05 -3.62007e-05 -7.26331e-07)
(1.65685e-05 -3.8017e-05 -7.27239e-07)
(1.73873e-05 -3.98184e-05 -7.42446e-07)
(1.61569e-05 -3.70779e-05 -2.25768e-07)
(1.71233e-05 -3.94331e-05 -3.59391e-06)
(1.71985e-05 -3.93342e-05 1.77399e-07)
(1.714e-05 -3.94404e-05 -3.15438e-06)
(1.72014e-05 -3.93677e-05 -1.84377e-07)
(4.52524e-06 -1.1268e-05 -2.32058e-06)
(4.52138e-06 -1.12249e-05 -1.80288e-06)
(1.05274e-05 -2.49986e-05 -2.86075e-06)
(9.31875e-06 -2.23258e-05 -2.8062e-06)
(7.75339e-06 -1.87599e-05 -2.1063e-06)
(8.92475e-06 -2.13962e-05 -2.17004e-06)
(7.75139e-06 -1.88052e-05 -2.70397e-06)
(8.92149e-06 -2.14401e-05 -2.784e-06)
(1.05319e-05 -2.49577e-05 -2.23138e-06)
(9.32236e-06 -2.22826e-05 -2.18776e-06)
(1.71482e-05 -3.94464e-05 -2.94752e-06)
(1.58942e-05 -3.66985e-05 -2.94956e-06)
(1.42432e-05 -3.30546e-05 -2.29533e-06)
(1.54867e-05 -3.57634e-05 -2.30164e-06)
(1.42373e-05 -3.30882e-05 -2.94033e-06)
(1.54805e-05 -3.57952e-05 -2.94818e-06)
(1.71741e-05 -3.94612e-05 -2.33006e-06)
(1.59007e-05 -3.66675e-05 -2.30275e-06)
(4.58149e-06 -1.12474e-05 -1.13219e-06)
(4.55931e-06 -1.12132e-05 -9.8004e-07)
(4.85671e-06 -1.20652e-05 -2.37511e-06)
(5.8958e-06 -1.45274e-05 -2.51995e-06)
(7.3713e-06 -1.78907e-05 -2.08127e-06)
(6.25546e-06 -1.53221e-05 -1.99383e-06)
(4.85367e-06 -1.20212e-05 -1.84589e-06)
(5.89497e-06 -1.44817e-05 -1.96034e-06)
(7.36979e-06 -1.79364e-05 -2.67248e-06)
(6.25563e-06 -1.5368e-05 -2.56225e-06)
(4.91441e-06 -1.20456e-05 -1.16683e-06)
(5.95633e-06 -1.45108e-05 -1.26219e-06)
(7.41334e-06 -1.78834e-05 -1.17728e-06)
(6.29712e-06 -1.53133e-05 -1.11262e-06)
(4.89271e-06 -1.20101e-05 -1.00904e-06)
(5.93623e-06 -1.44723e-05 -1.08859e-06)
(7.43104e-06 -1.79236e-05 -1.36914e-06)
(6.31665e-06 -1.53524e-05 -1.29111e-06)
(1.05833e-05 -2.49922e-05 -1.51452e-06)
(9.37735e-06 -2.23172e-05 -1.47041e-06)
(7.79531e-06 -1.87531e-05 -1.19638e-06)
(8.96572e-06 -2.13909e-05 -1.24641e-06)
(7.81237e-06 -1.87933e-05 -1.39226e-06)
(8.98085e-06 -2.14307e-05 -1.45299e-06)
(1.05707e-05 -2.49541e-05 -1.29693e-06)
(9.36285e-06 -2.22778e-05 -1.26073e-06)
(1.09349e-05 -2.58934e-05 -2.87526e-06)
(1.21669e-05 -2.85857e-05 -2.90926e-06)
(1.38284e-05 -3.21524e-05 -2.29198e-06)
(1.25854e-05 -2.94484e-05 -2.27713e-06)
(1.09396e-05 -2.58534e-05 -2.24301e-06)
(1.21723e-05 -2.85483e-05 -2.2703e-06)
(1.38225e-05 -3.21867e-05 -2.93618e-06)
(1.25799e-05 -2.9485e-05 -2.91775e-06)
(1.09897e-05 -2.58877e-05 -1.5266e-06)
(1.22186e-05 -2.85818e-05 -1.5555e-06)
(1.38618e-05 -3.21513e-05 -1.34978e-06)
(1.26207e-05 -2.94465e-05 -1.33657e-06)
(1.09777e-05 -2.58501e-05 -1.30683e-06)
(1.22083e-05 -2.8546e-05 -1.33053e-06)
(1.38702e-05 -3.21847e-05 -1.57885e-06)
(1.26306e-05 -2.94817e-05 -1.56285e-06)
(1.71914e-05 -3.94463e-05 -1.58217e-06)
(1.59384e-05 -3.66981e-05 -1.58956e-06)
(1.4276e-05 -3.30537e-05 -1.35273e-06)
(1.55181e-05 -3.5763e-05 -1.35809e-06)
(1.42841e-05 -3.30866e-05 -1.58238e-06)
(1.55252e-05 -3.57946e-05 -1.58861e-06)
(1.72059e-05 -3.94612e-05 -1.34016e-06)
(1.59317e-05 -3.66672e-05 -1.35894e-06)
(4.55961e-06 -1.13404e-05 -2.61943e-06)
(4.46262e-06 -1.11218e-05 -1.55221e-06)
(1.05485e-05 -2.50657e-05 -3.27058e-06)
(1.01441e-05 -2.41739e-05 -3.25033e-06)
(7.70479e-06 -1.86451e-05 -1.76202e-06)
(8.09271e-06 -1.95201e-05 -1.77636e-06)
(7.77937e-06 -1.88799e-05 -3.0776e-06)
(8.16449e-06 -1.97532e-05 -3.11299e-06)
(1.04933e-05 -2.48514e-05 -1.83508e-06)
(1.00863e-05 -2.39558e-05 -1.8281e-06)
(1.71471e-05 -3.94722e-05 -3.38977e-06)
(1.67395e-05 -3.85769e-05 -3.38089e-06)
(1.42149e-05 -3.29642e-05 -1.8654e-06)
(1.46304e-05 -3.38682e-05 -1.86642e-06)
(1.42505e-05 -3.31438e-05 -3.36967e-06)
(1.46646e-05 -3.40448e-05 -3.37363e-06)
(1.71328e-05 -3.93392e-05 -1.86762e-06)
(1.67134e-05 -3.84175e-05 -1.86825e-06)
(4.45224e-06 -1.1083e-05 -1.34877e-06)
(4.57603e-06 -1.10771e-05 8.91302e-07)
(7.31398e-06 -1.77366e-05 -1.50432e-06)
(6.93501e-06 -1.68731e-05 -1.49076e-06)
(4.78572e-06 -1.18757e-05 -1.37475e-06)
(5.12699e-06 -1.26818e-05 -1.39868e-06)
(7.43847e-06 -1.77328e-05 9.70845e-07)
(7.06054e-06 -1.68691e-05 9.64765e-07)
(4.91093e-06 -1.187e-05 9.05683e-07)
(5.25319e-06 -1.26764e-05 9.1863e-07)
(4.60529e-06 -1.13252e-05 -1.97824e-06)
(4.57123e-06 -1.11111e-05 5.46456e-07)
(4.89062e-06 -1.21388e-05 -2.68373e-06)
(5.22929e-06 -1.29495e-05 -2.7445e-06)
(7.32132e-06 -1.77757e-05 -1.74614e-06)
(6.94271e-06 -1.69125e-05 -1.72862e-06)
(4.7957e-06 -1.1915e-05 -1.58383e-06)
(5.13658e-06 -1.27213e-05 -1.61315e-06)
(7.39868e-06 -1.80117e-05 -3.03933e-06)
(7.0228e-06 -1.71491e-05 -2.99809e-06)
(4.93574e-06 -1.21244e-05 -2.03208e-06)
(5.27378e-06 -1.29359e-05 -2.08333e-06)
(7.43445e-06 -1.7769e-05 5.7019e-07)
(7.05643e-06 -1.69053e-05 5.69547e-07)
(4.90622e-06 -1.19048e-05 5.52237e-07)
(5.24858e-06 -1.27117e-05 5.57073e-07)
(7.43825e-06 -1.80023e-05 -2.33792e-06)
(7.06329e-06 -1.7139e-05 -2.30165e-06)