/*--------------------------------*- C++ -*----------------------------------*\
| =========                 |                                                 |
| \\      /  F ield         | OpenFOAM: The Open Source CFD Toolbox           |
|  \\    /   O peration     | Version:  2012                                  |
|   \\  /    A nd           | Website:  www.openfoam.com                      |
|    \\/     M anipulation  |                                                 |
\*---------------------------------------------------------------------------*/
FoamFile
{
    version     2.0;
    format      ascii;
    class       volScalarField;
    location    "0.104/solid";
    object      sigmaEq;
}
// * * * * * * * * * * * * * * * * * * * * * * * * * * * * * * * * * * * * * //

dimensions      [1 -1 -2 0 0 0 0];


internalField   nonuniform List<scalar> 
3125
(
117970
70967.3
45981.7
21351.5
1834.67
65571.4
75274
111807
52882.3
64132.6
51072.8
37132.2
23950.9
42988.2
19588.2
34991.2
2097.61
2494.39
17388.2
2223.52
209413
188988
65646.2
90464.8
113087
59247.3
86992.1
123672
94341
61342.5
55707
83536.4
1843.25
9812.96
22202.5
13577.3
11375
22597.7
11226.6
1737.01
10962.1
9993.58
172760
159798
203863
166689
89529.8
117078
146749
184088
94742.1
151225
128166
161633
168858
141942
57992.8
104612
128111
156217
59597.2
131561
112431
138171
60103.9
81638.1
101363
45358.5
79543.1
108866
84902.7
56994.5
43358.4
76574.3
62436.4
42345.9
31835.7
23954.8
38048
58462
34527
40343.1
24476.2
39819.2
57237.4
38855.4
26234.7
21985.1
35474.3
54388.5
28448
37638.7
21847.4
36488.1
909.65
8042.98
20300.9
10854.2
10027.5
20043.3
9333.88
1002.45
8662.23
8740.64
256585
132697
78494.6
91653.2
82676.6
66865.4
75191.7
152463
136129
49270.2
49088.2
55177.2
1393.92
2868.03
21710.8
18756.8
17594.4
22182.8
15766
1439.03
5215.57
5612.99
252573
100138
249999
230541
79800
85255.7
93287.9
129416
105880
119789
158062
175294
246165
227215
54633.7
71591
76924.6
98352.8
62664.9
93023.6
156233
173169
77489.1
90588.5
69817.9
49218.3
64540.7
150722
134620
44285.3
39240.6
49187.3
74307.5
62361.6
26557.7
23111.1
27454.3
47386.3
40090.1
41945
24564
32434.6
73314
61388.7
21798.5
20821.9
24851.6
42687
32830.1
37974.7
23477.5
31410.4
4998.6
4215.05
903.772
1955.27
19525.2
15203.2
15723.2
21076.8
14620.6
1518.03
4063.69
4806.71
245499
146436
110534
96233.1
75240.5
75781.5
87652.6
105515
79328
91979.7
89965.3
101502
81471.2
62963.8
65853.6
72794.8
97773
70864.8
78743.2
115482
130843
145394
110638
129826
110206
106447
124797
52094.4
70421.9
58755.9
52322.8
63634.9
57222.7
73592.9
68341.1
61075.4
7470.2
3847.58
1592.45
4541.47
3381.81
8234.16
5803.41
4459.11
21888.4
17278.8
17599.9
16162.3
12292.8
16258.1
15740.5
12160.4
16214.9
8893.18
13869.1
22403.2
17371.2
16330.9
9662.27
15755.8
14516
1471.34
4704.48
5457.29
8299.2
10987
7003.53
6000.32
10831.2
6836.25
230083
114266
239125
187559
220328
205369
224163
182248
196079
214175
84549.1
104626
96048.2
92897.3
129430
101999
114826
133670
105130
142748
169684
131932
100193
107566
116676
164988
118152
128420
199227
181178
150738
142087
167218
190174
146869
172855
224402
157225
207569
202639
220993
153380
185664
202033
56341.5
84074.7
78713.5
79287.8
114532
85724.7
94425.3
117890
87888.5
112051
145551
105423
61149.9
85871.6
91228.8
142029
96616.9
103214
196628
178943
144058
123305
159281
180294
126984
164461
109322
95138.3
72659.9
69036.2
84615.9
101655
72113.9
88761.9
77162.4
91801.2
70860.9
47308.5
57612.2
62797
88684.3
62666.2
68789.5
114219
129403
139095
98371.8
124567
106099
94946.7
119851
47177.3
65114.8
52827.3
41321.2
55905.6
50843.6
67912.1
60660.8
54752
71297.8
53315
60063.7
47927.8
58590.6
50445
46519.9
56522.7
29182
33589.6
28942.2
23367.8
29585.4
27987.8
34641.5
31594.5
29593.8
49970.6
50257.1
43884.1
37274.4
35191.7
40210.2
47669.3
36403.5
41947.3
44597.1
35297.1
24641.6
30561.7
32015.6
43399.9
32749.1
34694.8
68842.8
48982.3
57920.8
46958.5
57621.5
46356.7
44665.1
54464.6
24019.3
30496
26226.4
21119.4
27405
25446.3
31625.4
29329.9
26944.6
45344.2
46876.4
39991.4
30645.4
31949.8
36447.4
44485.3
33240
38264.4
43623.2
34290
22960.1
27697.2
30318.1
41594.4
29789.8
32983.1
6362.95
2862.97
818.922
3316.66
2295.25
6798.24
4438.89
3269.33
19737.5
15590.2
15745.8
13027.2
10863.1
14495.8
14131.6
10732.5
14465.8
7770.02
12721.9
20725.8
15059.7
14689.8
8171.39
13536.2
12900.2
1283.24
3857.45
4626.24
6471.42
9670.42
6054.14
5050.94
9514.92
5872.54
290654
298120
87492
92460.8
172599
166284
313.869
475.066
21818.4
19183.1
298054
305863
283240
275872
178995
185469
290302
282610
182081
188761
88325.8
93382.3
175488
168985
82636.9
77893.5
24602.4
27535.3
83386.3
78568.2
24679.6
27632
2872.2
2846.2
3016.27
186.18
228.99
21876.6
19224.1
2599.96
1983.91
2625.03
2561.17
2517.57
2752.28
2316.63
221398
215020
219748
225900
227287
201836
173814
193938
208803
214689
178321
196271
124506
118912
68887.7
68940.1
66940.6
70306.4
72418.7
92487.8
95456.2
86669.8
88553.4
91400.9
109694
104885
120926
109159
116521
113792
101328
90505
91968.8
90516.3
81258.4
95835.9
86927.2
84448.2
130200
135989
130840
127296
119251
122626
126141
96517.1
99595.3
98295.5
100637
103817
64304.8
58029.9
64295.6
64301.1
67444.1
60707.4
61411.5
80033.6
88191.3
80150.9
78131.7
84506.1
83437.3
75067.4
5269.39
3989.24
1908.84
2322.14
2238.49
2736.56
2325.4
10574.2
9537.5
8440.84
9156.1
8159.15
22018.4
22089.9
23640.8
20508.2
21900.2
23679.3
20485.5
14253.7
12420.1
12790
11667.7
13901.1
12790.2
13055.1
6734.18
8386.32
22790.3
23562.4
20790.2
21745.3
20884.3
12030.3
10966.9
12684.8
13523.5
12455.4
2935.84
1631.59
2283.79
2168.06
2819.49
2339.7
2087.87
9937.75
10969.9
8640.89
10305.7
9550.71
11353.7
8961.43
190956
176676
157031
195442
160294
126499
144967
163393
140650
148130
143390
124265
215566
213671
198369
207667
209791
232816
239849
173271
171810
176404
178803
181811
122245
108501
125420
121132
117976
130000
112175
144873
159298
135413
142331
149650
154203
131402
185362
169353
202992
179235
190779
197254
164938
159452
164478
155756
139477
169739
154511
143594
225852
218947
135614
132057
132733
136904
140463
167820
171064
156644
162455
165791
186488
153764
164965
182037
150493
237779
245083
130877
145735
155807
160118
134141
89431
96201.2
107889
96146.8
99111
98923.5
87060.6
101245
115673
117021
124682
113989
103590
112878
119762
141816
137904
152648
122020
138674
135149
108266
118467
135031
120071
123138
121261
105933
230546
223390
122422
116025
105042
126474
108230
127619
151523
134417
147267
124363
126098
120373
63947.2
63025.3
57275.1
67185.6
60010.5
77246.7
87893.1
78418.9
84301.1
74289.7
82327.3
93316.2
98143.8
93377.8
90456.3
84690.5
90620.3
70579.9
74354.4
82550.8
73883.8
76568.3
77023.6
68257.7
131926
137861
118408
105333
101869
114434
98710.6
80234.6
91537.6
88209.9
95234.5
83251.1
52434.5
53681.5
59651.1
53874.4
56070.8
56332.3
50257.3
63651.1
71705.6
73645.5
71233
68614.6
69080.6
65945.4
65445.3
63666.4
59310.7
60487.2
62091.3
51945.6
55961.1
43339.5
44959.4
43879.5
45968.1
46684.1
27149.9
23741.3
25439
25766.3
25389.7
27296.2
25442.4
36796.6
39904.2
36809.6
35825.2
38921.4
37611.4
34767.9
55871.8
55417
61246.1
55654.2
58601.5
58281.1
52867.7
43389.8
42278.8
42711.3
38913.7
44735.3
41118.8
41081
48059.4
44301.9
24777.6
25446.5
26425.9
27397.5
26849
40800
41167.9
37377.3
38350.5
38549.5
60772
54584.1
54425.6
57662.5
51936.5
52263.7
56327.3
37147.5
41288.6
40522.4
43191.7
39473.9
21698.9
21760.4
23728.4
20532.8
23386.1
22226.7
20133.9
30239.5
33581.1
34198.6
33368.2
32273.5
32075.5
31557.8
45984.6
51335.8
51453.4
51832.1
48104.4
49032.3
49069.5
35869.4
35654.4
39863.3
36172.9
38198.1
37777.5
33955
48333.9
44537.8
22023.5
23722.8
20735.7
24045.4
22555.6
34879.5
37928.5
34185
35410.6
32667.2
5169.36
3863.92
792.908
1246.14
574.158
1043.9
1080.89
7438.44
7528.43
6798.7
6281.13
6260.82
17143
20183.5
18674
18897.7
18653.1
18612.3
17322.4
10502
9061.8
11351.8
10353.2
11646.5
10312.2
9295.02
6660.64
8334.4
20086.2
18310.2
18986.2
18234
17307.2
8667.65
8838.96
10678.5
10217.1
9953.71
1517.64
1059.26
1557.05
751.453
1730.58
1296.07
953.642
6961.45
7853.01
7485.11
9086.54
7840.8
6681.51
8113.06
270609
263219
277563
148950
132120
135834
144781
102726
97541.2
82238.1
82780.8
86823.3
96302.5
87168.9
91513.9
80642.3
76406.6
83150.1
74194.6
77695.4
69523.4
71592
75349.2
153901
160052
160941
146941
155092
143627
141495
149320
51412.6
47043.6
48511.9
49790.6
53427.3
51790.2
50258.2
55137.5
1306.18
830.543
765.825
1545.33
899.143
2025.58
2058.69
1333.92
22529.3
23308.7
23940.3
21895.2
21149.6
19192.7
20627.6
19735.3
14373.3
16698.4
21734.7
19923.2
19309.2
14870.6
17782.9
17018.9
3198.06
1480.75
3173.26
1489.61
5190.62
6897.67
5068.52
7041.29
120724
72868.4
74606.6
73610.5
75428.5
80242.2
78280.3
116627
113565
106777
109637
47724.7
48610.5
51101.5
50148.1
70482.3
68879.8
65167.6
66633.8
277135
259024
284390
65206.1
67857.3
67817.5
65166.2
263704
243461
256845
261294
268559
236975
243280
250038
88953.1
79185.6
86274.5
81550.1
92270.8
87040.8
84519.6
95122.7
136136
127736
140115
124189
131659
116636
120013
127867
198644
192021
166869
163733
172869
185087
169479
178944
269934
239801
262789
267405
274974
233484
248674
255702
49321.8
47608.9
47725.1
49046.4
50874
49720.9
49648.5
51101.8
62844.4
64648.7
64693.5
62883.9
60708.7
61753.5
61705.8
60656.6
202372
195523
169559
161812
175747
188360
167458
182015
70936.8
69254.5
65187.7
66750.2
45486.3
46671.9
49553.4
48348.4
46286.6
45444.7
43285.8
44096.3
31799.6
32609
34420.6
33626.1
24432.1
25792.8
28374.6
27053.7
43902.5
42728
40046
41223.6
16942.2
17967
19851.6
18846.2
30815.6
29978.3
28155.2
29020.9
103845
98556.1
82785.5
81759.4
87461.9
97139.8
86128.5
92249
47207.1
45813.2
47539.3
45641.6
45769.4
43737.5
43967.5
45373.2
156250
162570
163451
145282
157428
145635
139914
151488
34588.5
32696.2
33313.1
33841.1
35830.8
35096.8
34542.1
36526.6
77757.5
70222.3
73382
68756.5
73266.7
66239.2
64955.6
69114.1
26735.1
24594.2
25343.9
25983.4
28163.2
28650.1
27280.5
29551.8
46340.8
45394.6
47895.1
43976.4
44545.3
41029.9
42411.6
43052.8
33829.6
30612
24296.3
27065.7
26992.2
32780.5
29690.4
29821.8
78217.7
69237.7
73760.8
69293.5
73869.1
65261.1
65185.7
69415.2
18290.2
17239.7
18245.1
17278
19343.6
20192.8
19217.2
20341.3
31813.7
31509.3
30829.2
32607.7
30614.4
28945.1
29684.9
29769.1
33970.9
30730.3
23959
25999.5
26687
32547.2
28646.3
29551.3
23177.2
21780.7
19107.6
20538.8
1541.78
3224.27
6925.77
5097.46
16076.5
15030.5
13113.3
14177.1
3128.66
3214.13
4607.21
3661.76
1092.13
574.759
563.793
773.392
566.192
1511.4
1219.67
890.176
15235.1
16294.4
16249.8
15264.9
14244.4
13295.1
14347
13219.2
14380.1
16725.4
21366.5
18799.4
18910.8
14420.5
16646.2
16593.4
2451.29
1762.38
2240.77
1828.9
2418.37
2155.59
2269.99
2831.33
2869.88
3033.21
2583.63
3489.77
4583.2
3597.53
4465.94
232923
251925
239054
108018
113415
116429
105677
111258
101191
100909
106177
71966.5
79281
75747.9
72318.3
77320
79749.5
73764.3
76039.8
83420.1
83590.3
79624.2
100352
100914
96030.5
82957.6
80971.1
83545.6
84714.8
87429.8
96402
87646.2
91794.5
105683
105297
107979
94392.7
101759
112207
97829.7
67788.6
61070.1
65733.3
62885.4
70388.1
67091.8
72583.4
65157.3
94169.1
94110.1
103840
91016.9
97919.7
99792.9
87701.9
147843
141870
121695
120517
127049
138018
125638
132491
137909
140127
132938
114906
113557
116974
118047
121519
134937
123225
128043
104760
114985
109253
102331
109159
112510
104851
108123
119850
118488
113830
67280.3
67322.9
73995.3
66258.3
70673.5
70339.3
63451.4
61372.8
58950.1
63301.7
57243.9
59086.3
53647.9
57277.7
55258.9
76716.1
76836.7
77408.8
69130
80912.1
73485.3
72066.9
2003.26
2902.13
6289.26
6157.52
5011.22
2876.04
4950.35
3875.38
1764.63
1807.44
2043.07
3342.2
5092.36
4335.8
3831.76
3210.71
2451.73
3834.15
2802
8875.89
6894.08
7514.62
7106.55
6415.52
5551.18
7772.57
6830.28
5636.48
4985.45
6218.16
20395.1
18867.6
18568.9
17401.6
18807
20211.1
18922.9
15597.1
13781
14167.1
15246.8
16936.2
17935.8
18368.9
16483.8
15742
14244.1
16971.3
15920.7
17257.8
15416.1
14473.1
12210.6
10211
7710.73
10432.8
9281.78
12864.2
12089.8
10998.7
22561.7
20274.9
20549.4
19049.2
18297.4
17300.9
19991.7
19054.7
18250.5
16795.4
18627.3
10305.1
11184.1
11808.9
14192.9
16656.4
15619.7
15064.8
14004.5
12800.5
15051.4
13389.4
4315.79
3438.62
5394.84
4971.22
4060.75
5719.42
3635.17
11359.8
12551.2
12831.5
11047.3
10025.5
8261.85
8516.05
9816.45
8532.24
7312.98
6766.88
6304.14
8152.95
7129.04
7630.93
90910.4
88613.8
83275.6
85401.2
94306.1
96781.3
103021
100361
56632.2
55517.9
52734.3
53767.4
58502.5
59724
63053.8
61714.8
211348
235797
216482
226845
232805
220822
192934
195883
198415
201736
204073
226538
208942
214854
254089
246939
216806
211575
223340
236578
217840
229931
176996
190111
192818
184416
187283
185895
202050
191565
203089
208083
197296
105368
99108.9
96251.8
108589
101666
90202.2
98629
92892
126601
125250
139423
119698
131042
134668
115908
140178
137970
144265
123543
135568
149192
127445
180023
174433
186010
156251
191593
174762
160570
115894
102670
105699
112484
119985
112666
123584
109467
164475
160345
180507
151982
175082
169578
147762
205344
212112
210337
193146
203927
191301
187130
197583
142956
156158
148078
137374
146865
150381
141841
145386
161653
158538
153273
180292
184336
174754
151722
151976
155447
157174
160584
178562
163874
169280
206241
218756
201161
161088
173202
143951
177608
147222
213145
191088
196110
259897
252456
221187
208704
227963
241707
214823
234804
149549
168817
140681
164454
137410
171323
191080
176215
186097
196538
181140
54619.3
54046.9
54048.4
54752.2
52914.3
51790.9
52737.7
51823.8
91800.3
111199
105002
104495
102048
94166.2
101708
98892.3
121274
107976
107287
110974
96530.2
110082
117486
149092
132420
129609
135541
132383
115196
56660.4
56449.9
56426.7
56564.9
58560.3
58969.2
58632.1
59008.5
110587
138522
129313
126832
126219
124050
112897
209298
216306
214481
190674
207844
194781
184779
201277
133634
149079
138193
119652
134690
114653
130564
111435
154154
147446
142797
166470
174970
161654
130689
138851
117881
143043
121116
169693
152141
156878
57831.4
59204.1
62845.4
61389.2
55791.4
54492.5
51340.8
52585.3
39256.7
40027.3
42019
41231.6
38112
37338.6
35466.1
36248.8
33482.9
32238.1
29654.1
30934.5
34820.2
36036.3
38608.4
37415.7
23569.9
22617.2
20737.1
21718.7
24480.9
25403.3
27219.6
26325.4
109243
114755
117728
104508
112432
102135
99779.9
107234
68455.5
76562.6
72036.5
66007
73857
65614.8
70491.1
62796
80550.6
79419.1
75692.8
95009
97284.2
91012.9
75243.1
77280.7
68469.6
80762
71362.7
92987
83216.7
87082.2
79964
94955.1
84812.1
85135.3
87619.7
77604.1
87870.5
42160.7
40033.7
40388.4
41645.1
43513.8
42162.1
43969.3
41870.2
72912.9
85598.5
82037.2
82416.4
79288.5
75255.7
79710.4
150022
143892
123122
119200
128613
139871
124261
134196
129125
134193
124667
101834
106617
92459.2
110504
95572.6
129349
115908
120261
99068.3
110616
103191
91556.6
102775
89365.7
98979.1
86293.6
115200
111611
107371
54636.7
62361.9
60975.1
61347.7
58505.1
58827.3
56861.5
39733.8
38625
38201.8
40309.7
38441.2
36378
37803.2
36866.9
61371.5
70758.3
63482.1
63897.1
66030.6
66477.7
59106
68278.1
67454.5
64683.1
56271.1
54406.6
55654.9
57401.6
58827.6
63708.7
57775.4
61181.1
64370.9
60103
49459.7
51370.2
53159.1
60911.2
54925.4
56977.1
47659.1
51501.5
52573.8
48689.2
49582
45128.5
49747.9
48141
54467.9
53083.8
51255.5
33898.2
34012.1
32666.7
35296.3
32396
29968.3
31011.5
31320.8
28958.2
27643.9
31203.3
29002
30822.2
29214.9
27196.3
34740.6
33674.1
33264.4
30864.7
32750
35398.9
32786.9
53220.4
52919.1
52607.9
47961
55402.7
50647.5
50381.9
38270
35397.7
36743.2
36854.2
39897.5
39535.8
41349.1
38177.2
45733.1
45153.6
49897.7
45604.6
47274.9
48151.5
43311
37182.4
40676.9
45879
41380.8
42418.4
35865.6
38280.6
39080.5
24669.4
26989.7
26874.5
28454.9
31531.8
31255.7
29424.3
29008.4
29448.3
31582.1
29179.1
42216.4
40389.3
39405
35020.5
33719.6
33592.7
35989.8
36024.2
37487.9
34086.1
36694.9
64950.2
65113.4
61522.4
51672.1
51656.3
46790.4
54623
49335.6
61471.8
54908.6
58174.7
64844.9
60521.9
49447.5
50402.7
53200.7
61073.4
53958
57076.5
43789.9
48761.2
44299.7
45938
41859.2
42691.3
47834.9
45616.4
51725.5
51102.7
48628
23526.9
24056.3
23158.9
24479.9
22414.3
21192.8
21432.4
22133
23315.8
25538.4
26792.4
25795.4
25066
24981.4
23984.1
28444.5
31319.1
28566.6
27661.5
30394.8
26690
29583.9
43893.8
49325.9
44556.5
44418.3
46770.7
46722
41833.6
26545.7
25110.1
25959.9
25624
27700.7
27833.5
28583.7
27037.2
37820.8
42145.6
42392.1
42161.5
40271.3
39946.1
39810.4
37352.6
40878
45816.2
40398.9
42308.5
35671.3
37288.3
38927.1
22571.8
25304.5
24756.4
25674.8
28345.6
26406.3
26153.6
24449.1
27759.2
29415
27038.6
39855.1
38623.2
37107.8
31953.2
30620.9
28430.4
32976.5
30518.1
35753.9
31887.4
34453
13736
15210.7
17878.9
16424.4
12529.2
11024.6
8261.89
9813.86
9247.44
10344.5
12266.6
11188
8405.54
7286.87
5384.85
6463.12
1823.06
2747.95
5741.42
5074.47
4451.44
2328.2
3906.47
3312.23
867.294
794.149
946.591
2242.13
2910.3
2996.98
1922.62
2007.24
1450.81
2648.67
1724.2
7233.24
5522.71
5966.33
5598.63
3974.37
4044.56
5097.91
5129.32
4346.15
3675.29
4780.77
15725.1
17102.7
15728.4
14351
17167.5
14354.4
15806.8
10291.3
9354.47
10449.2
9249.49
11227.9
12400
12255.8
11326.9
11744
12718.3
14332.6
12953.4
12971.9
13028.9
11607.4
12200.7
10182.5
7180.07
9298.04
8769.09
12390.8
10946.3
10504.3
20485.7
18603
18498.5
16648.8
14786.9
14163.2
16468.5
15698.6
16590.8
14817.7
16609.7
8578.44
9645.29
10007
12075.3
13184.9
12694.7
11661.8
11292.7
11218.9
13121
11518.4
2552.44
2682.56
4167.02
3353.47
2938.54
2303.72
3626.92
7265.05
8483.66
7362
8322.09
6362.72
5416.88
5332.87
6508.82
5837.34
6257.75
5392.82
4441.17
6612.67
5546.64
4729.86
2939.74
1603.13
2634.65
1512.04
2784.45
2581.57
1417.44
2810.24
1695.29
2844.31
2998.99
1533.51
2483.79
1830.09
3071.77
2412.2
1949.3
1757.09
1137.55
2046.79
1486.8
2008.74
1886.82
1194.38
155787
118214
136035
161362
120876
151246
166004
85187.6
75403
93792.8
80132.6
88237.8
73233.3
90596.8
82393.8
84380.9
77644
68993.9
71098.3
87417.4
79508.5
53524.3
46528.4
51200.2
53430.2
48252.8
51480
55611.4
55510.8
60194.4
53164.9
51728.2
49943.5
57886.5
57670.8
22223.6
21442.3
23477.9
20320.2
23685.2
20067.2
22012.8
20831.1
19116.7
18952.9
17444.4
18800
20553.2
19379.3
3128.33
1470.01
2547.74
1668.06
2584.56
1523.13
3084.86
4947.31
6367.27
4124.13
5732.31
4146.38
4809.15
6662.85
70356
91533.5
101893
79679.9
92023.2
70436.7
80625.9
94400.2
77621.9
97138.8
87889.7
91185.9
79855.1
100493
97513.4
107528
84458.9
90561.3
82163.3
100898
104008
142558
115235
156681
126160
146948
112616
152190
138431
143339
122961
107162
109737
147670
134208
56515.6
66588.5
73361
62127.8
67571.7
55881.8
63384.3
57909.4
65826.7
70651.8
75148.4
69716.3
58462.7
64608
68809
89013.5
78773.9
96589.6
68816.3
88448.5
77792.2
67244.6
75807.8
94795
85347
85982.4
76835.7
67130.9
53785.7
64500.6
68055.5
60866.5
63470.8
54489.1
59581.3
52411.4
56970.3
66291.9
60364.4
61434.8
58287.8
51630
38760.6
42255.5
45904.2
40473.8
43488.1
37681.1
41872.5
40092.9
44675
47539.3
46406.7
45193.7
43280.2
41139.3
26590.5
22731.5
24973.6
24539.4
25100.2
24124.9
26478
28025.1
29563.7
26862.6
25981.5
25442.3
29540
28012.3
47665.5
44900.5
51277.7
45533.1
49599.5
43229.2
49215.4
45874.4
45224.7
43724.4
40038.8
41657.1
47180.8
44034.8
19581.4
20500.6
22147
19008.3
21775
18438.9
20243
20750.3
22781.4
24310.6
23486.7
23036.1
21911.8
21509.5
35244.1
40610.8
39067.6
41097.8
36351.7
39363.6
37673.4
33938.4
34887.5
39530.3
36513.3
37773.9
36274
32804.9
16169.8
19291.6
18237.3
17783.5
18023.8
17299
16587.2
15071.8
14248.2
16975.5
15593.7
16859.7
15404.9
13962.7
3302.47
4290.01
3503.01
5015.7
3544.37
3220.28
4393.89
189971
160054
150174
172992
177983
164176
184685
103260
97339.9
100387
87082.1
96872
107072
94120.2
99531.6
90082.7
84251.4
87847.5
93432.1
95890.9
90955.3
71644.1
60957.3
72892.6
68124.5
75621.7
69068.2
62929.9
74139.8
81362
66942.5
70432.8
76868.4
78480.2
64903.6
85469.2
75980.1
77487.5
73438.5
80509.7
82166.4
78860.6
88859.2
86807
84796.2
76064.1
92332.6
83620.4
81800.1
61337.9
54997.5
54264.1
56051.7
58469.6
57418.1
58682.9
64073.4
63525.3
56485.2
62434.6
60961.9
66885.6
59898.6
64285.8
59061.6
70187.1
61451.4
66715.7
67604.7
57151.8
62061.2
62608.2
53481.4
59320
59770.3
65048.8
55328.9
75807.1
73156.5
74535.3
65867.9
78945.7
71670
70389.3
72750.9
66166.4
65027.7
63446.2
69778.6
68876.6
67679.6
22082.8
22001.4
23665
20435.1
22132.7
23678.1
20475.8
20520.4
19139.5
19004.6
17522.5
20625.2
18987.9
18982.4
15208
12280.2
13470.4
13607
14862.9
13781.4
13615.4
16570
17683.2
16196.2
14923.9
18001.6
16271.7
14851.1
14533.9
11939.4
13365.3
13495.9
14783.3
13094.9
13301.1
15995.9
17669.5
16091.5
14846.6
17481.2
16217.4
14684.8
4523.29
6256.08
3996.26
5228.67
4715.18
5997.21
3829.36
10989.2
11051.5
12070.5
9668.62
12421
10679.7
9692.29
9620.88
7857.19
7053.86
8350.08
8146.58
9275.96
8448.36
10256
10593.8
11951.3
9504.94
11669.8
10542.9
9258.13
8850.56
7718.97
6590.73
8176.49
7437.68
9136.84
7927.87
109407
129335
116473
92513.5
93780
132015
107693
111173
94121.1
122593
101718
118745
114898
91706
107727
111210
86856.2
98866.5
104175
114892
89215.1
114951
100614
103996
95880.3
107678
110970
103942
119020
115306
98913.6
110764
111455
123172
107327
136138
125038
131571
111545
127385
140626
121392
131731
119252
108314
114253
123270
127410
117796
174339
155977
168063
139096
163227
179472
151943
169281
153778
135494
144015
158454
164305
147956
122403
96705.4
126613
110563
118512
130621
99178.1
126189
138984
104383
113590
130250
134811
101859
149852
128734
135853
121529
145199
140204
132481
154589
149167
140123
124949
159406
144651
136277
61783.2
76809.4
82293.9
70482.9
75981.5
69338.9
62163.2
60354.7
67010
72845.2
80496.8
59877.7
73733
68198.5
79897.4
87566.7
81420.3
69449.4
71021.6
90082.2
77945.7
81843.6
74129.8
83570.9
95166.6
72584.3
92618
83782.9
89525.4
105501
92242.2
80146.1
102899
78666.1
91417.5
87624.3
75657.7
90058.3
97729.9
100307
77170.4
85710
104203
126660
91232.2
109843
89917.6
105960
123990
102431
87232.4
107627
118667
88588.6
121324
100638
63923.4
79109.4
87653.5
71580.9
79877.9
63626
72691.8
65404
74804.1
82938.1
89451
65607.3
82233.6
73737.7
95153.3
108115
98809.7
81601.2
110739
93294.6
83041.5
96998.4
85857.5
116016
101012
113374
98827.9
84456.8
74015.4
85067.6
75049.2
67862.1
66262.2
82586.8
75982.2
72047
63034.3
72946.1
77684.3
64651.9
80124.6
70073.9
48057.8
54213.9
59330.1
51599.9
55351.9
52962.1
47156.7
49416.9
55648.2
58386
61060.2
50259
57279.2
54309.3
64151
68147.7
64688.9
56486.6
70495.7
58131.1
62181.4
66123.6
61406.4
75266.5
66731.6
72869.9
68098.9
59772.9
48576
50354
49035
43311
44942.8
52471.1
46681.2
50486.7
48232.3
50921.6
56805.5
46588.7
54623.8
52413.5
44839.3
52344.7
54206.1
50228.9
51175.6
45792.8
48851
43491.7
46073.2
48164.4
52521.8
42485
49361
47466.5
58249.8
65825.1
58671
54837.4
63527.8
60211
53185.4
56296.5
49882.2
59015.9
56701.8
61257.9
54350.5
51533.1
34086.5
32530.3
36108.4
32009.5
34426.8
35695.3
31043.6
32572.5
31157
28209.2
30466.6
31011.5
32768.5
29661
26973.8
23562.4
25222.5
24874.9
26805.5
25307.9
25162.3
28684.1
30075.2
26415.4
28489.6
28422.4
30439.6
26805.3
36011.6
35699.8
37098.9
32920.2
35273.6
37983.5
33823.6
34098.8
31765.8
31236.9
30218.9
33496.4
32243.5
31996.2
53593.9
52633.2
53694.8
47894.7
51409.2
56102.4
50324.1
51158.3
47028.6
45865.4
45873
49186.6
48795.7
48070
38943.8
33953.5
37849
36834.2
37265
39613.2
35479.3
40577.4
43295.7
38520.5
38500.6
42327.7
41440.9
36949.6
42110.2
37627
38976.2
38207.1
40015.4
40901.2
39607.8
44272.2
44926.2
43731.2
40054.2
46500.5
42885.5
41642.5
25509.1
29545.8
29052.1
28049.2
28270.9
26717.3
26676.4
24281.6
24080.6
25622.7
27633.6
23114.7
26903.7
25387
21165.5
21460.4
22530.8
19286.2
20619.3
22975
19719.5
22648.2
23372.7
23975.2
26124.3
21985.8
24530.8
24170.2
28940.4
32894.4
30036.1
29177.4
31142.5
27694.1
30595.3
27318.8
24789.9
28475.4
27756.6
29429.5
26228.1
25728.4
42941.2
48270.2
41685.3
43533.2
40071.9
44799.1
46219.6
41104.5
36879.2
41748.3
42224.9
38466.5
44203.7
39288.1
29091.9
30965.5
33434.2
29402.7
32241.5
27933.3
30758.5
30361.4
33500.6
34984
34926.1
31511.9
33715.8
32128.4
33992.7
34683.7
34887.3
30682.3
36512.3
32282.5
32206.4
35730.5
35304.4
40284.3
36560.4
38379.1
37496.1
33748.3
16942.8
19984
18380.5
17981.6
16708.4
18544.2
18308.9
15615
14242.4
17050
15771.1
15459.5
17140.2
14322.2
10748.9
10851.1
12066.6
9762.75
12118.4
10862.6
9663.68
11793.2
13102.5
14471.5
13271.7
12891.7
13209.3
11979.2
10650.8
10580.6
11960.6
9603.67
11841.7
10735.5
9480.41
11842.8
13050.1
14433.7
13204.8
13124.9
13064.5
11885.1
2791.21
4094.82
3329.16
4415.87
3013.07
3149.22
3874.33
7527.97
9779.34
8468.66
8661.02
8495.8
8625.3
7568.48
6502.45
5395.37
6121.4
7268.16
5427.1
7425.97
6474.49
7201.94
9337.5
8301.85
8485.62
8106.61
8329.94
7381.32
6087.64
5193.72
5660.34
7090.06
6884.26
4982.75
6282.04
)
;

boundaryField
{
    left
    {
        type            calculated;
        value           nonuniform List<scalar> 0();
    }
    bottom
    {
        type            calculated;
        value           nonuniform List<scalar> 0();
    }
    interface
    {
        type            calculated;
        value           nonuniform List<scalar> 
2171
(
1560.39
1855.58
2345.31
2058.05
1721.81
1587.62
794.304
878.377
261950
79115
92475
154549
137826
1363.83
1408.91
2849.97
22255
15807.2
1098.8
248293
255117
234961
160289
177982
242072
223655
154387
170957
76933.5
89871.4
148988
133198
74868.8
62770.7
24648.6
32563.9
72805
60999.9
23326.4
31231.5
883.849
512.402
1865.01
20932.2
14494.9
1330.35
249017
111692
97131.3
75606.6
88150.8
106236
92528.6
116737
132421
146731
130904
110991
125796
7471.01
3832.86
1545.93
1621.09
3358.63
8215.21
4435.66
8900.19
13901.1
22420.6
16331.9
9646.1
14511.5
1164.34
227110
242479
223218
208953
228363
198413
216919
202618
184032
152170
168956
192380
174703
221559
205096
199726
217603
183637
199676
193865
176600
142766
157737
178370
162828
108333
94359.6
72257.3
84101.8
100954
88205.5
113152
128076
137881
123568
105345
118917
71624.9
60291.7
48181.6
58955.7
46648.1
56722
44819.8
35445.7
24666.3
32066
43508
34757
68472
57633.4
46689.9
57267.2
44460.7
54200.6
43377.9
34098.2
22838.6
30175.9
41405.8
32832.1
6270.38
2780.61
782.58
454.502
2243.44
6727.35
3216.71
7671.78
12602.8
20609
14589.1
8095.1
12804.8
1078.52
87894.9
173852
293.377
295038
87942.9
174298
83005.2
83035.1
24558.8
2766.86
185.913
21759.6
1809.27
2472.02
2209.35
223415
220674
226869
202599
209336
215246
196998
125221
69026.6
67039.1
70415.9
92681.5
95797
109934
121147
116728
114052
90660.5
92103.9
95981.9
87068.1
130970
131544
127653
96727.7
99973.8
100865
64365.8
64367.2
67517.4
61463.8
80148.2
88316.2
84621.4
83564.8
5307.99
1922.4
1809.14
2070.77
2241.44
2740.8
10571.2
9504.56
22008.2
23642.9
21901.1
23669.9
14242.9
12415.5
13897.1
12779.6
22759.5
23567.6
21749.2
12027.5
10933.5
2938.33
1432.81
1949.09
2166.3
2816.65
1803.6
2087.6
9928.82
10965.2
9545.87
11343.9
188856
156513
159753
126015
140523
143254
123801
217483
214553
208508
234939
173889
177706
122546
125654
118255
130249
145294
159647
150098
154534
186021
203503
191472
197743
159955
164846
170125
154985
136374
132438
137311
168405
172289
184477
153269
235754
130527
154360
133771
89217.8
96114.7
98887.2
86860.6
100960
115607
103289
112818
119337
137784
121577
135037
107932
118395
121183
105616
228630
121484
104826
127287
150148
124049
63625.2
57219
77137.6
87363.2
74189.8
82151.2
93349.6
84502.7
90595.4
70456.2
74345.1
77012.2
68143.2
117523
101666
80115.7
90971
83122.4
52369.3
53872.8
56330.3
50197.5
63552.8
71698.2
69074.5
65839.2
65562.4
63754.7
52139.3
43373.6
43892.4
27141.2
25442.4
25380.3
27301.1
36796.1
39923.9
38923.7
37627.6
55909.4
61305.8
58646.4
58334.6
43399.4
42302.2
44762.8
41124.3
24749.1
25452.9
27405.7
40828.7
41171.1
60472.1
54533.4
51890.9
52069.1
37124
40341.7
39447.7
21676.3
20517.8
22212.8
20111.9
30211.8
33575
32046.2
31550.6
45933.7
51451.8
48049
49067.5
35835.6
35649.3
37773.1
33923.9
21907.9
20721.4
34858.4
37759.2
5086.99
489.137
705.06
514.326
455.643
1028.19
7426.31
7466.1
6248.18
17122
18881.4
18590.3
17305.1
10485.9
9043.8
10294.1
9280.08
19975.2
18971.8
8655.63
8771.19
1490.9
888.189
673.049
604.605
1248.32
849.737
851.238
6948.19
7835.29
6663.86
8098.95
276861
268838
149739
145620
83043.9
83463.5
97348.1
87918.3
80909
77888.3
154930
163474
148891
145707
143316
51453.5
49850.9
53505.7
770.582
746.145
1538.19
2041.33
2041.21
22529.8
14448.6
21884.4
19984.7
14983.9
17834.2
3197.99
477.869
1480.67
389.757
5190.74
270751
254552
65431
269680
248339
263902
241620
248475
89229.4
92634.1
136894
140824
169564
166108
188315
172007
263844
235891
229751
243417
49290.8
49016.2
50854.8
63011.8
200846
166907
159848
185162
165373
103354
82016.7
81153.6
96140.7
85469.4
47169.8
47501.4
45727.8
155275
160967
143657
143611
138392
34560.9
33812.7
78492.6
70729.1
66695.3
65509.3
26731.2
46386.1
33952.6
24460.2
27163.3
32996.3
29802.8
77514.6
68772
64835.4
64652.6
18287.2
17274.3
19338.6
31789.7
32584.2
30595.3
33834.5
23762.2
25840.2
32311.2
28478.4
628.975
3092.48
1034.12
380.867
554.481
543.898
1412.98
1099.66
15232.5
16247.5
14243.1
21179.1
18661.5
14259.1
16514.1
2401.03
1590.8
1792.17
1725.61
2102.52
2091.32
2256.86
2825.68
2832.08
2575.77
2553.37
3480.49
236289
255611
108581
117875
106743
102326
101888
72317
79687.5
77454.3
79962.4
83870.9
84067.2
101042
101574
81118.7
83787.4
84876.9
97004.1
88172
105905
108160
101963
112400
67915.1
65887.8
94340
104009
98106.6
99950
123254
121874
139957
127103
139190
141374
113846
117525
136097
124258
105512
115838
109426
113014
120774
119445
67350.8
74083.8
70754.2
70419.4
61498
76818.2
77505.8
81017.9
73576
2005.48
6344.53
6152.73
2903.62
4940.58
1760.06
1696.17
1809.26
5090.79
4314.4
3832.37
2433.52
3812.35
8857.97
6873.69
6413.12
5524.83
5614.15
4964.39
20384.6
18567.7
18796.7
20211.2
15594.4
15731.2
16969.3
17247.3
15413.1
12280.4
7776.03
10447
12965.9
12112.7
22578
20286.6
18298.8
17267.7
18256.1
16796.6
10290.7
11170.5
16657
15585.2
12791.7
15046.8
4313.65
5390.41
4057.16
5714.04
11359.1
10024.4
8524.09
6762.11
8148.26
7121.87
208533
232691
230054
236000
196646
200052
202537