/*--------------------------------*- C++ -*----------------------------------*\
| =========                 |                                                 |
| \\      /  F ield         | OpenFOAM: The Open Source CFD Toolbox           |
|  \\    /   O peration     | Version:  2012                                  |
|   \\  /    A nd           | Website:  www.openfoam.com                      |
|    \\/     M anipulation  |                                                 |
\*---------------------------------------------------------------------------*/
FoamFile
{
    version     2.0;
    format      ascii;
    class       volScalarField;
    location    "0.104/solid";
    object      sigmaMin;
}
// * * * * * * * * * * * * * * * * * * * * * * * * * * * * * * * * * * * * * //

dimensions      [1 -1 -2 0 0 0 0];


internalField   nonuniform List<scalar> 
3125
(
-8597.76
-11421.8
-13428.2
-10104.7
-833.079
-28367.5
-10947.7
-8376.66
-20355.5
-27218.8
-19507
-14190.2
-10888.2
-13440.9
-8418.65
-13481.1
-779.012
-651.367
-7627.52
-695.92
-1141.66
-3271.36
-3683.47
-2049.72
-3012.04
-12621.1
-4263.23
-734.822
-1775.29
-5366.23
-12921.1
-4424.17
-1979.43
-3856.99
-5726.72
-7149.94
-4398.74
-5093.96
-4110.84
-1808.31
-5941.09
-4097.28
-15432.2
-10131.2
-1108.89
-907.437
-9443.41
-2830.4
-2400.8
-3152.44
-8978.76
-2467.16
-745.351
-883.088
-14937.7
-11837.8
-23076.4
-7479.58
-8460.86
-9921.22
-24051.7
-8621.64
-9063.76
-11450.6
-5641.41
-6826.02
-7360.4
-17124.5
-6643.54
-8772.23
-7034.46
-6026.67
-16367.3
-6556.6
-3872.08
-4850.04
-12590.7
-5820.46
-5994.17
-5472.15
-12948.4
-5963.53
-5139.16
-4942.08
-5507.39
-4734.35
-10652.1
-4859.91
-5443.98
-5960.82
-11366.8
-5511.21
-4050.05
-4644.58
-979.632
-2669.85
-4746.64
-4983.09
-3466.02
-3955.97
-2905.11
-1025.56
-3954.22
-3188.37
17211.2
-4896.44
1670.91
2716.34
-8427.97
-11864.3
-8875.69
6872.15
5609.69
-10059.6
-13330.2
-9916.21
-1570.06
-1534.18
-8337.29
-9221.07
-7397.19
-1830.4
-1986.72
-1179.42
-2971.24
-3070.28
-28984.3
-13333.7
16446.8
14273
-10450.7
-8225.82
-7714.6
-5180.26
-8374.99
-5808.88
7326.74
8805.93
-27744.5
-24229.7
-21226
-11805.4
-12096.8
-13231.4
-26122.5
-12932.7
-13123
-15470
-4917.47
-5945.28
-11727.2
-18689.9
-11427
-12400.6
-10413.3
-10129
-14903.4
-10510.4
1315.52
375.654
-11560.4
-8591.96
-9247.67
-10104.9
-13370.2
-10096.9
-1751.95
-1440.56
-4619.26
-3851.87
-9182.2
-7276.19
-8004.54
-10021.5
-12777.5
-9589.62
-2282.93
-2492.48
-2594.81
-1512.86
-889.724
-945.688
-7027.14
-6798.38
-6122.41
-2225.11
-2052.43
-836.901
-1426.66
-2162.05
11645.5
-3371.49
3841.48
2973.69
-330.574
-3051.35
531.065
1878.63
-2817.36
848.09
-6987.1
-3567.48
-7481.01
-12265.9
-9415.17
-9048.38
-3748.91
-8063.7
-7642.66
4160.87
5221.72
4441.55
-793.184
3518.83
2231.55
-955.803
3215.1
-8845.92
-5004.77
-8624.9
-13160.1
-9552.66
-9820.48
-4869.07
-8196.51
-8526.17
-1945.58
-1657.01
-1808.11
-2583.65
-1869.07
-2535.36
-2932.29
-2058.47
-7727.23
-5312.42
-6927.52
-8227.33
-5786.76
-7041.37
-5127.16
-5491.16
-6609.82
-1993.39
-2011.59
-2821.7
-4826.74
-2854.34
-2646.62
-4690.45
-2832.03
-1360.99
-2610.97
-2995.14
-4635.54
-5317.05
-3693.33
-3020.52
-5060.67
-3571
-21784.6
-12201.4
11115.2
-1016.38
9606.44
11647.8
13586.6
-986.947
7782.22
9130.08
-9943.82
-6924.99
-7486.91
-6800.5
-2399.71
-6243.94
-5428.78
-2338.33
-6035.62
-3627.86
-2824.02
-4310.63
-8599.69
-6675.92
-6076.72
-2724.3
-5202.41
-4553.19
11039.3
9334.39
4764.41
-795.959
5802.48
7360.12
-815.496
6171.79
-20915.7
-13527.7
-18447.5
-20010
-23123.9
-13088
-15473.6
-17671.3
-22132.8
-12464.8
-12176.5
-10498.9
-7869.18
-10790.1
-11191.4
-8008.43
-10881.7
-12078.4
-9325.62
-11727.7
-25062.8
-12549.7
-12840.7
-9141.92
-11290.9
-11615.9
-19036.5
-16312.7
-10584.9
-10013.3
-12258.5
-14787.2
-10354.4
-12858.8
-7664.11
-6335.52
-4637.28
-6096.75
-5403.93
-6660.44
-6266.17
-5693.08
-10409.9
-7027.29
-10126.5
-17892.3
-11031
-11348.4
-6926.39
-9761.44
-10041
-8158.14
-9806.65
-10069.9
-7960.85
-8645.69
-7020.1
-7714.21
-8211.16
-8987.9
-6239.18
-9296.45
-15628.1
-10946.7
-10603.5
-6314.14
-9675.45
-9384.26
-588.423
-4362.38
-1271.97
-607.55
102.464
-4504.83
-1986.31
-1471.49
-12129
-9812.4
-9409.19
-7941.72
-5988.77
-8457.39
-8860.83
-6009.89
-8583.92
-8901.61
-5737.56
-8986.19
-13204.7
-9894.25
-10084.2
-5809.93
-8914.18
-8991.57
-807.574
-1306.29
-2782.35
-5155.38
-2583.72
-2132.22
-5125.38
-2491.76
-4414.39
-5141.5
-3830.71
-3086.96
-3632.8
-5033.15
-3232.39
-3663.11
-9923.03
-8800.38
-8200.9
-6666.15
-5144.33
-7259.49
-7905.35
-5225.39
-7427.31
-8889.57
-5767.45
-8547.43
-12073.2
-8957.96
-9461.35
-5704.63
-8039.98
-8434.47
-2937.23
-2583.15
-2522.65
-4305.94
-2732.04
-3112.71
-4388.46
-2815.2
-1589.78
-1124.95
-818.232
-1475.99
-945.623
-1697.07
-1812.54
-1156.62
-6448.74
-4320.1
-5679.7
-5922.04
-4649.26
-5799.03
-4140.94
-4367.67
-5389
-1710.96
-1983.46
-2459.31
-3610.42
-2255.15
-1842.55
-3465.16
-2172.42
-854.266
-1797.22
-2074.2
-2853.96
-4225.21
-2737.2
-2190.85
-3976.73
-2609.84
10051.2
10493.8
1304.16
1422.98
4096.85
3844.88
-426.436
-437.899
-271.825
-326.969
-18349
-19183.8
9607.21
9186.6
4359.76
4633.87
-17533.5
-16742.8
-7935.36
-8426.11
-2590.77
-2795.97
-7461.28
-7012.29
1183.79
1080.6
-208.771
-145.715
-2400.18
-2227.36
-1012.04
-1033.95
-731.979
-515.282
-563.388
-340.019
-438.074
-998.73
-988.682
-460.119
-752.943
-890.195
-523.975
-781.107
-573.2
-516.263
6419.96
-1175.52
2725.55
2863.57
6727.39
2285.55
-2572.47
-3394.17
1502.01
1578.46
-2663.94
2170.44
2345.71
2166.34
-2263
-3484.12
-3453.53
-3138.65
-1987.14
-864.094
7.42454
-2316.17
-1290.2
-366.695
-793.323
-4371.51
338.447
-3197.97
150.22
-318.194
-4555.46
-2963.44
-2214.11
-4096.82
-5542.18
-1823.36
-3354.71
-5391.62
2528.49
2727.12
2334.91
924.136
-728.475
847.131
2160.6
-420.138
398.064
-1493.48
41.3455
804.916
-5663.13
-6506.58
-5252.63
-4811.61
-4542.1
-6412.33
-5927.29
-4091.38
-2591.55
-4578.51
-5688.09
-2954.8
-3729.89
-5826.86
-599.421
-605.724
-2177.18
-1989.32
-2378.79
-2416.94
-2145.41
-4454.75
-3666.48
-3575.1
-4150.8
-3428.57
-7159.09
-6385.81
-6529.59
-5613.73
-6422.49
-7300.51
-6233.25
-5968.95
-5157.75
-4669.53
-4762.22
-5444.54
-5635.62
-5076.59
-577.782
-552.68
-4547
-5791.06
-5028.62
-5720.9
-4522.58
-4729.75
-3872.61
-4334
-4966.21
-4049.55
-2500.22
-1660.66
-1854.81
-2323.33
-2435.74
-1798.71
-2224.52
-4878.94
-4836.54
-3765.51
-4419.23
-4487.14
-5270.4
-4045.11
-21216.7
-15944.8
-25001.4
-22024.8
-25919
-22318.5
-10232.3
-10351
-21504.9
-10396.3
-22226.5
-21634.7
6119.93
2593.79
-1076
2466.11
5828.11
6853.65
7207.42
1762.63
-932.13
4230.03
1872.6
4477.68
670.253
-4183.1
440.01
-2659.9
171.761
514.801
-3991.5
1180
884.568
-2790.99
-2351.21
1266.63
823.918
-2988.4
1952.4
-2487.71
1427.59
-3038.35
2059.51
1355.77
-2412.57
1449.64
947.736
-2544.68
-2607.14
1013.15
1356.91
-2452.41
6493.89
6165.58
2516.67
1003.34
-759.747
1089.09
2705.29
1657.09
3990.03
-858.803
1554.9
3758.02
-20430.6
-24104.6
-14452.7
-19662.4
-23227.5
-12444.6
-13103.6
-18455.1
-12240.6
-15507.7
-16148.8
-19193.2
-13323.9
-8198.16
-7603.65
-12293.2
-8298.82
-12750
-12880.8
-15724.6
-15814.2
-8966.56
-8304.95
-8847.11
-16242.3
-15265.3
-20333.6
-10074.9
-20805
-9716.46
-20974.9
-9921.92
-20124.9
-17340.9
-16378.8
-8788.34
-9092.07
-9220.83
-16964.3
-16784.5
-11803.7
-11194
-11072.5
-9367.97
-13282
-11560
-13851.2
-17737.3
-14883.5
-11071
-14279.3
-17033.2
-4367.91
-4061.7
-5615.33
-5785.05
-6641.04
-5839.02
-6925.4
-8987.32
-7493.85
-6629.59
-7179.35
-8600.4
-12055.8
-8102.86
-7244.26
-11851.5
-8011.19
-12458.9
-11428.1
-10207.1
-9179.86
-6733.62
-7502.23
-7581.58
-9520.42
-9871.05
-4688.81
-5034.9
-10603.6
-8488.46
-12726.8
-10152.3
-12188.4
-9391.45
-7821.45
-7249.23
-8165.88
-9807.1
-7873
-6919.48
-6095.56
-6916.8
-6990.65
-7159.88
-7626.7
-9248.07
-8852.04
-6472.42
-7427.4
-7352.48
-8541.27
-9553.04
-2523.06
-3748.46
-4047.1
-4024.53
-2765.67
503.05
599.038
-5294.06
-4746.9
-3913.61
-5128.01
-3760.11
-7514.28
-6518.37
-6611.14
-5894.21
-7423.4
-6665.79
-6631.55
-7543.41
-6465.54
-6926.13
-6013.03
-7471.57
-6556.86
-6916.46
-6403.41
-6593.19
-5064.17
-5569.62
-6172.75
-5301.59
-6670.99
-7270.02
-6354.81
-5922.31
-6924.17
-6225.54
-7382.91
-6910.43
394.701
291.231
-4550.3
-5833.6
-5162.88
-5847.45
-4533.79
-5439.34
-4051.18
-5016.22
-5561.49
-4171.9
-5403.46
-6369.83
-5377.4
-5201.99
-6111.17
-1429.84
-1535.81
-4839.63
-4829.53
-4247.71
-4381.56
-5021.52
-4849.13
-5483.88
-4963.59
-4200.09
-5619.37
-4336.08
-4689.03
-5649.23
-5189.01
-6242.43
-5374.1
-6153.49
-5817.26
-5034.92
-7173.16
-6849.99
-6687.96
-5895.6
-7394.58
-6779.94
-6471.63
-6173.99
-5349.11
-5576.55
-6328.32
-6410.93
-5517.29
-5992.44
-1340.12
-1261.63
-3422.49
-4138.43
-3682.93
-3511.74
-3805.03
-4666.5
-4120.86
-4555.82
-4002.2
-4500.98
-872.333
-837.175
-818.188
-852.574
-418.107
-666.274
-442.733
-2194.41
-2196.47
-2408.3
-1966.96
-1945.77
-4357.72
-5338.34
-4619.97
-4062.55
-5178.77
-4528.16
-3919.61
-3316.3
-2782.66
-3716.67
-3804.8
-4094.07
-3019.02
-3049.59
-902.088
-928.034
-3331.5
-3851.76
-3557.53
-3234.24
-3428.98
-2425.78
-2401.87
-3114.07
-2584.67
-2634.17
-434.968
-962.42
-1025.52
-444.499
-1014.22
-470.939
-407.957
-2446.8
-2523.83
-2883.42
-3488.9
-3145.17
-2242.86
-2761.25
14150.5
17996
14819.6
2168.06
-341.835
-486.219
2412.21
1696.32
1552.05
1120.75
2048.89
1306.59
1719.79
2438.47
1504.09
-7725.45
-8599.03
-7099.4
-9104.39
-8140.97
-10046.1
-9566.11
-8731.89
3373.73
3597.43
5291.38
6433.05
4913.74
4213.75
6012
4552.16
-12728.6
-13891.5
-13710.8
-13016.7
-12555
-13268
-13512.9
-12204.6
-538.787
-510.053
-905.548
-1480.67
-800.274
-786.755
-1462.62
-751.745
-11048.5
-11643.2
-11475.8
-11136.6
-10622.6
-10141.3
-10714.6
-10130.9
-425.392
-379.396
-783.324
-1894.54
-822.216
-887.999
-1944.3
-856.384
-2191.99
-1047.2
-2065.42
-1210.34
-3417.49
-4240.79
-3221.06
-4459.95
-356.921
-67391.3
-69522.2
-10300.5
-9526
-8405.07
-9220.16
-834.788
-1717.45
-3054.11
-2163.07
-35965.9
-37186
-40316
-38994
-64496.2
-62494.1
-57897.2
-59771
-40368.1
-30257.3
-42170.8
-49832.6
-54060.7
-54964.6
-48953.6
13490.7
15702.5
12853.6
8366.3
8761.06
14977.1
11627.2
12225.9
-6001.71
-8099.13
-6650.74
-7575.72
-5519.94
-6505.3
-7042.39
-4847.16
2106.89
-740.102
1807.03
-624.546
1185.79
-1390.75
-1262.94
833.477
5216.14
4913.5
5676.71
7800.96
6082.9
6942.92
8293.1
6499.82
-38611.3
-26538.7
-36901
-15221.2
-15964
-25365.9
-33615.9
-35234.9
-27722.2
-29628
-30145.7
-27214.4
-29327.4
-32526.4
-31970.6
-29883.1
-45569.6
-51071.9
-50223.1
-46397
-43175.7
-46635.3
-47418.5
-42411.7
-9472.48
-8934.14
-17743.4
-13873.4
-18822.8
-21111.9
-14654.9
-19946.5
-10586.4
-11315.6
-12254.2
-11572
-15738.8
-15481.7
-15117.8
-15459
-34287.5
-33153
-30546
-31599.3
-18458
-19175.7
-20875.1
-20113.1
-12778.9
-13228.5
-14028.4
-13655
-15709.8
-15880.7
-15877
-15798.4
-8349.58
-8908.42
-9964.36
-9402.82
-17594.7
-16913.3
-15471.6
-16119
-3252.59
-3014.13
-5809.45
-5235.87
-6281.59
-7324.16
-5577.07
-6786.3
-25226.8
-27942
-25715.4
-27446.3
-23844.4
-25428.2
-25897.6
-23390.1
-6166.34
-6575.44
-16704.1
-11707.9
-15709.4
-13836.8
-11044.9
-14753.3
-14995.4
-15963.3
-16358.4
-14646.2
-15859.9
-17677.5
-17272.4
-16228.9
939.444
982.105
772.382
883.097
975.212
670.137
460.49
610.165
-12191.9
-12009.7
-11851.8
-12445.6
-12498.6
-13105.2
-12744.3
-12765.9
-13351
-14033.5
-13135
-14142.2
-13419.1
-14263.4
-14227.3
-13563.2
7.11573
-73.5788
-736.936
-1661.28
-685.465
-558.498
-1557.95
-626.888
-5370.18
-4342.43
-4960.91
-1913.52
-2064.7
-4086.81
-4225.41
-4579.77
-7414.62
-7712.38
-8148.01
-7065.57
-7871.07
-9027.15
-8601.72
-8212.68
-13501.7
-15127.1
-14731.1
-13849
-12771.1
-13577
-13971
-12435.1
-1091.31
-1059.83
-1867.36
-2344.42
-1954.57
-2170.28
-2412.78
-2054.09
-12295.1
-11765.5
-10636.4
-11237
-925.139
-1971.69
-4258.12
-3226.32
-7877.34
-7319.68
-6300.58
-6862.05
-380.049
-378.032
-1433.73
-774.626
-659.856
-599.507
-688.154
-708.769
-630.636
-837.725
-793.262
-738.437
-6270.15
-7282.46
-6636.9
-6828.53
-5850.78
-5938.43
-6415.89
-5465.54
-969.39
-984.243
-1790.68
-2168.16
-1720.15
-1594.59
-2112.06
-1656.3
-476.439
-802.936
-921.069
-508.757
-950.583
-468.042
-466.415
-285.905
-364.809
-371.46
-317.783
-752.533
-1469.02
-791.426
-1328.09
11057.4
12189.2
11571.2
1842.96
1999.45
2693.28
3535.57
2426.84
1940.81
3246.29
2176.67
-1071.73
-59.697
-789.003
-3274.84
-2456.01
-1387.99
-2808.03
-1696.2
226.302
-174.059
-490.318
1249.58
1524.29
869.968
-2572.86
-2086.6
-1064.23
-1697.85
-723.403
1178.28
157.535
505.481
-1256.03
-3383.38
-587.339
-4905.32
-1704.39
-182.738
-4732.64
-10018.3
-11710.2
-10530.8
-11304.7
-9673.05
-10472.4
-9115.57
-10918.4
-2557.34
-3924.94
-1005.56
-5073.82
-2138.06
-1419.72
-5236.47
3142.31
2931.47
2966.28
4498.25
3257.91
3877.97
4851.2
3560.08
4190.31
4126.12
3877.24
-738.62
699.851
1827.59
772.603
1991.57
3819.33
3225.08
3560.31
1643.08
2574.56
2046.57
-1211.22
629.662
1630.44
507.325
1226.42
2901.76
2854.55
2455.08
-5380.83
-5133.52
-3953.96
-6200.68
-4256.78
-5083
-6311.44
-11304.3
-12054.9
-10838.6
-12412.4
-11570.8
-13016.9
-11982.8
-12712.2
-4438.44
-4727.89
-3636.31
-6082.44
-3303.86
-4768.46
-5958.35
-577.247
-602.894
-954.089
-1872.37
-929.927
-841.492
-1771.5
-891.017
-2036.55
-1697
-1903.62
-2264.6
-3093.78
-2587.51
-2747.08
-2331.59
-1740.67
-2191.02
-2006.45
-3055.46
-2399.86
-2869.4
-3263.65
-3464.69
-2881.25
-3814.4
-3160.52
-2236.9
-2430.78
-2656.82
-6980.73
-5473.91
-6117.69
-5847.94
-6768.15
-6281.94
-6052.35
-8552.09
-7820.81
-7933.98
-8505.02
-9077.84
-9664.96
-9646.58
-9031.95
-6266.72
-4911.97
-5922.13
-5620.49
-6532.34
-5696.81
-5364.89
-472.888
-513.258
-960.402
-2017.85
-954.21
-914.258
-2021.66
-936.54
-3596.64
-2849.29
-3604.18
-4939.73
-5505.98
-4407.48
-5624
-4476.41
-2859.71
-3563.46
-3593.77
-3211.52
-2732.89
-3338.59
-4524.75
-5353.32
-4312.69
-5173.49
-4193.67
-2793.51
-3510.4
-3436.89
-3031.71
-2218.24
-3275.11
-2739.21
-2865.02
-3516.92
-2272.43
-6638.12
-7237.89
-7344.58
-6474.76
-5988.08
-5002.37
-5217.7
-5828.57
-4452.7
-3405.13
-3702.1
-3205.81
-4105.64
-4000.31
-3638.74
-6015.56
-6878.98
-8074.61
-7235.93
-5642.05
-4759.45
-3470.72
-4366.84
-47300.6
-45778.9
-42263.4
-43679.1
-49546.4
-51184.9
-55341.9
-53580.7
-21507.7
-22678.8
-22365.9
10555.6
10598
10065.7
-1044.95
2217.44
5265.59
2340.94
5543
10095.3
9125.71
9589.4
7964.76
7583.94
9373.9
12273.4
9906.04
11033.8
12919.3
10460.5
-958.48
2098.77
4995.09
1984.95
4732.53
7392.19
8217.53
7806.21
8673.21
8665.66
8232.66
-3104.56
-4284.03
-4802.07
-2415.8
-3650.81
-5938.73
-4332.81
-5405.56
854.985
-2511.67
640.887
-3595.87
932.735
579.609
-3795.94
1095.3
-2326.16
700.888
-3393.21
1012.4
762.024
-3190.93
1846.04
-2928.69
1213.17
-2306.85
1284.3
1742.44
-2350.12
-1158.67
-3640.37
-3172.49
-1827.08
-516.464
-2120.98
94.4785
-2481.98
1544.99
-2631.13
1145.08
-2298.7
1079.06
1642.09
-2344.43
5516.11
5833.14
8848.28
10452
8348.68
7391.7
9883.07
7859.82
4505.91
5097.69
4827.95
-775.636
1266.27
3104.62
1175.76
2901.62
5443.3
5504.41
5160.54
6990.6
6950.16
6600.34
-835.692
1357.57
3314.8
1455.62
3532.41
6553.42
5857.98
6222.38
-20672.7
-20072.5
-19860
-13984.7
-18196.1
-21550.2
-18918.1
-22376.1
-19249.2
-18300.7
-19069.7
-14491.3
-13786.4
-27601.2
-21013.1
-29036
-32044.5
-22051.1
-30519.5
-12658
-17493
-20744.8
-16807.9
-19958.7
-15448.4
-16184.7
-16128.4
-17554.7
-16919.5
-16831.4
-34038.1
-37851.4
-37218.2
-34668.6
-32194.2
-34499.7
-31612.7
-35090.1
-13774.9
-7735.02
-8508.2
-13707.9
-8403.76
-14235.8
-13220.8
-15216.7
-8153.49
-8617.03
-14208.8
-8732.44
-14717.1
-14728.2
-19701.3
-9518
-9626.93
-18805.6
-9771.53
-19457.3
-19083.6
-37318.1
-40142.9
-40820.1
-36655.3
-39430.9
-44003.8
-40152.8
-43274.1
-17905.7
-8963.03
-9488.3
-18174.9
-9353.03
-17562.8
-18487.2
-10021.7
-10597.2
-26214.1
-18096.3
-24874.5
-22321.8
-17187.8
-23577.5
-10766.4
-11123.8
-11279.7
-9685.47
-12590.4
-15067.9
-12065.2
-14447.6
-11682.2
-12366.7
-11813.5
-14790.3
-14124.9
-14153
-10706
-13134
-15702.5
-13696.7
-16355.1
-13483.4
-12941.1
-13537.4
-13861.6
-13297.7
-12478.7
-13105.5
-14016.8
-14510.7
-15046.8
-14626.7
-25895.9
-26813
-29116.8
-28129
-24680.6
-23822
-21900.5
-22703.6
-15184.2
-14992.6
-14394.2
-14679.8
-15437
-15540
-15744.1
-15730.3
-12226.3
-11638.7
-10498.4
-11066.7
-12844.2
-13446.5
-14740.5
-14116.9
-3504.81
-3776.32
-9839.87
-7193.83
-9156.22
-7899.56
-6750.7
-8511.26
-5087.53
-4878.56
-5316
-5937.59
-6331.3
-7549.56
-6076.49
-7229.41
-5134.25
-5817.47
-5559.11
-7017.47
-6321.46
-6691.75
-6443.53
-6598.28
-7884.09
-6878.28
-8233.62
-6001.14
-6092.6
-6384.47
-11657.8
-7133.79
-7830.34
-10620.4
-7919.75
-11271.2
-11015.8
-20472.5
-21811.2
-22242.5
-20064.9
-21663
-24000.6
-22101
-23548.8
-10551.6
-6827.45
-7746.38
-10238.6
-7664.97
-10904.2
-9871.35
-5767.51
-5392.01
-10563.1
-8679.75
-11325.5
-12960.7
-9228.47
-12125.1
-10273.4
-9577.65
-9800.02
-8220.13
-9306.12
-11184.1
-9720.32
-11674
-9102.63
-8911.68
-9346.68
-7360.56
-7400.59
-7721.11
-7475.37
-8908.64
-10707
-8528.04
-10245.6
-7798.3
-8495.9
-8099.73
-8125.31
-6167.21
-7132.5
-7673.56
-7061.84
-7411.83
-8386.57
-18561.4
-20609.6
-20187.2
-18959.6
-17546.3
-18680.1
-17170.1
-19090.4
-8949.07
-6392.83
-7204.53
-7949.21
-7278.64
-8240.02
-8661.88
-1339.4
-832.558
-1591.07
-4211.55
-4521.9
-3208.37
-4281.26
-2994.65
-1059.51
-2049.31
-1827.57
784.536
694.818
-76.0492
-387.983
45.4496
313.756
-151.545
176.137
-4632.43
-4743.64
-3407.21
-4945.89
-3590.07
-2791.77
-1829.23
-2627.96
-2256.04
-1659.22
-2449.72
-13361.5
-13989
-13787.6
-13459.4
-13187.7
-13339.7
-13011.2
-13619.7
-7572.19
-5950.81
-6695.11
-6796.7
-7604.15
-6693.21
-6724.41
-7591.13
-6018.41
-6671.16
-6851.01
-7609.34
-6626.04
-6892.42
-6614.31
-5657.83
-5721.7
-6796.01
-5520.3
-6804.84
-6737.84
-13586.6
-14091
-14211.3
-13576.7
-13636.2
-14287.9
-13571.3
-14247.2
-7133.4
-5871.31
-5907.24
-6845.52
-6075.31
-6979.14
-6883.79
95.0023
187.085
-191.951
-990.145
-297.041
-481.721
-1156.3
-394.517
-3570.77
-2731.47
-3528.92
-5168.94
-5807
-4442.39
-5839.1
-4497.41
-2665.19
-3394.45
-3469.91
-2942.27
-2266.27
-3077.06
-5079.14
-5749.64
-4370.52
-5665.64
-4280.21
-2387.35
-3304.52
-3198.65
-4874.31
-4207.69
-4674.59
-5257.15
-4842.59
-5640.46
-5015.96
-5868.37
-4013.09
-4315.59
-4489.09
-1775.36
-1651.54
-3069.05
-3251.47
-3320.9
-3897.91
-3432.6
-3596.97
-4928.77
-4678.06
-5423.06
-4522.41
-5216.78
-3740.03
-3365.55
-3867.47
-4154.22
-3510.29
-4005.44
-9564.76
-10870.6
-10462.8
-9900.28
-9036.49
-9516.6
-8701.5
-9930.73
-5005.75
-5057.22
-5854.17
-4604.45
-5741.24
-5160.96
-4468.42
-5483.34
-5301.24
-5961.18
-4743.36
-6061.86
-5320.82
-4885.44
-6956.4
-5831.34
-6636.58
-6061.66
-6709.15
-6262.1
-6748.71
-10803.2
-11451.6
-11850.5
-10471.6
-11423.8
-12881.2
-11760.2
-12484
-6359.01
-5641.64
-6563.03
-5871.51
-6488.31
-5691.64
-6549.71
-1137.74
-1195.99
-2842.97
-2803.13
-2640.77
-2306.55
-2684.79
-2462.26
-3019.19
-2589.67
-3091.02
-4222.62
-3693.96
-4065
-3600.75
-3931.96
-2658.69
-3241.86
-3164.32
-3623
-3005.02
-3515.04
-4470.34
-3791.01
-4203.05
-3892.46
-4345.87
-2906.5
-3326.1
-3416.57
-8079.45
-8797.23
-10069.6
-9407.81
-7423.03
-6637.25
-5078.05
-5926.11
-4208.29
-4809.2
-5841.91
-5267.18
-3736.55
-3103.2
-1957.91
-2598.28
-736.474
-792.707
-1237.51
-1450.07
-1149.5
-948.723
-1292.83
-1050.86
-960.177
-617.003
-719.185
-1147.45
-1155.91
-1048.04
-880.003
-726.587
-760.602
-1119.76
-891.876
-2023.65
-1534.12
-1826.34
-2122.23
-1446.49
-1376.41
-1715.19
-1671.66
-1352.14
-1373.57
-1607.57
-4179.51
-4478.02
-4808.66
-3605.62
-5003.29
-3990.73
-3768.83
-4208.33
-4069.59
-4609.9
-3755.76
-4635.92
-5532.02
-5052.27
-5023.39
-3560.86
-3940.39
-4592.2
-3427.7
-4355.65
-3784.14
-3234.28
-962.207
-947.832
-1318.2
-1814.89
-1393.2
-1530
-1905.09
-1462.52
-2947.43
-2395.98
-2871.8
-3737.63
-3019.17
-3154.37
-3131.56
-3294.69
-2329.15
-2703.48
-2792.25
-2199.08
-1970.02
-2352.81
-3299.85
-2891.5
-2997.68
-2747.2
-2825.56
-2079.66
-2601.64
-2486.06
-881.193
-1402.42
-1922.27
-1223.16
-1466.6
-837.797
-1314.27
-2812.99
-3639.43
-3046.32
-3322.35
-2328.1
-1966.57
-1800.83
-2575.17
-2102.95
-2549.9
-2367.47
-1599.05
-2771.22
-1934.24
-1730.57
-1921.62
-921.51
-1237.63
-894.434
-1607.11
-1314.57
-1071.53
-1039.24
-806.45
-1383.01
-2434.92
-1504.81
-1702.23
-1856.3
-2416.31
-1753.47
-2032.59
-425.271
-899.945
-940.577
-388.048
-402.664
-994.41
-377.423
-947.223
-6634.02
-4716.95
2362.54
-6778.46
-938.204
2477.35
-6527.21
-10001.9
-4791.04
-8563.84
-6126.57
-10086
-5193.77
-6993.26
-6009.77
-8750.43
-10375.9
-10278.4
-5630.68
-7389.33
-10920.7
-11338.4
-10033
-9679.53
-11234
-11159
-9488.96
-10728.8
-9011.22
-9964.3
-11179.1
-11294.3
-9242.04
-10453.2
-9927.35
-8825.85
-9375.55
-8045.97
-10224.6
-8592.75
-9083.38
-9525.29
-8413.91
-7737.88
-7854.71
-8142.62
-8768.84
-9148.53
-2312.26
-1034.91
-1615.7
-1632.27
-1528.36
-1386.72
-2331.04
-3214.99
-3870.73
-2348.08
-3082.48
-2262.27
-3125.05
-4099.97
-31564
-16931.7
-13433.2
-26762.3
-16021.3
-31245.9
-27511
-5204.74
-9763.86
-4330.96
-8081.25
-5619.94
-9703.62
-3905.58
-4663.05
-2979.12
-9380.11
-7866.92
-9422.26
-4249.82
-3424.22
-911.916
-7169.1
2189.33
-5358.25
-928.663
-7054.15
2054.58
-909.356
1505.95
-5633.56
-7465.71
-7559.21
1811.23
-898.226
-19790.7
-14092.4
-11910.8
-17136.5
-13914.1
-19434
-17628.3
-20636.9
-18647.1
-14180.2
-11992.4
-14425.4
-20977.7
-18132.6
-29473.8
-15752.2
-26047
-13131.5
-29782.1
-16546.1
-25341.3
-28112.2
-23978.3
-13031.6
-16178
-15481.5
-24654.8
-27779.6
-18309.6
-13653.8
-11618.3
-16657.3
-13755.8
-18651.5
-16198.6
-17592.2
-15304.3
-11538.6
-13425.6
-13385.8
-15743.5
-17234.9
-12312
-11344.8
-10273
-10874.8
-11612.1
-11962.1
-11193.7
-12729.1
-11850.5
-10373.8
-11939.7
-11711.9
-11519.7
-13070.5
-10811.1
-9233.98
-9622.98
-8838.24
-10575.9
-9410.42
-9857.17
-11090.1
-10205.2
-9906.34
-9046.47
-9781.93
-11251.2
-10036.4
-11491
-11238.3
-9884.14
-10106.6
-11294.5
-11326.7
-10033.8
-11574
-10295.2
-10122.1
-11251
-11184.6
-10193.1
-11717.2
-7098.95
-7596.12
-7543.52
-6433.09
-8106.47
-6741.38
-6705.61
-7360.76
-7232.36
-8667.19
-7762.12
-8183.93
-7707.45
-6968.1
-11239.6
-11269.5
-10563.2
-9869.19
-11578.4
-10963
-10264.3
-10885
-9674.92
-9752.19
-10565.7
-10908
-9965.69
-10540.7
-6108.54
-7489.52
-6732.55
-6160.03
-6958.48
-6476.9
-5878.19
-5827.76
-5284.02
-6450.82
-6260.28
-6819.96
-5589.01
-5443.46
-932.775
-1619.57
-1493.13
-2108.65
-1241.61
-1027.92
-1585.71
2233.52
-2527.23
-3150.08
2357
2481.26
-2597.43
2118.78
-2451.4
-5711.35
-3258.61
-7151.94
-3699.9
-2008.15
-5883.25
-2883.45
-4551.43
-7325.6
-6212.85
-4136.2
-3302.18
-6051.4
-8572.03
-10863.5
-7486.27
-9315.51
-7159.37
-8934.78
-10746.1
-8190.2
-6420.56
-10527.3
-9161.31
-7813.51
-6775.63
-10638.9
-4480.64
-6806
-6097.86
-7932.5
-5736.3
-4846.88
-6667.5
-4100.03
-4963.09
-6371.04
-7784.94
-3708.91
-5352.25
-6521.72
-6993.13
-7661.77
-8782.73
-8456.15
-8226.68
-7583.52
-7235.24
-6733.6
-7705.14
-8706.28
-7400.58
-7971.32
-6460.51
-7496.66
-9608.44
-10930
-7840.43
-9636.85
-9271.56
-8138.08
-11052.7
-9900.84
-8725.16
-11194.9
-9754.41
-10210.7
-8461.24
-11076.9
-5535.24
-6939.66
-6454.67
-8310.94
-5199
-6786.18
-7065.09
-5859.28
-7412.74
-7295.76
-8426.29
-6167.74
-7111.94
-7184.69
-7836.91
-7060.54
-8789.87
-7485.75
-8545.47
-8033.83
-6864
-7614.56
-7973.88
-7216.44
-6395.9
-8274.8
-7359.37
-6641.8
-7747.84
-6072.82
-6719.58
-6233.9
-7194.01
-7246.69
-6477.9
-8256.76
-8040.74
-7363.71
-6646.98
-8689.61
-7626.61
-7013.98
-6407.43
-5134.56
-6459.7
-5890.99
-6884.25
-6029.84
-5493.08
-6753.69
-7641.89
-6122.65
-6263.31
-7073.31
-7275.96
-5822.28
-3084.35
-3843.37
-2369.03
-2874.67
-3182.92
-3656.92
-2330.87
-6110.87
-5487.51
-6221.55
-4807.69
-6670.7
-5686.33
-5006.87
-5480.14
-4521.7
-3826.31
-4273.36
-4839.29
-5125.65
-4369.55
-5172.6
-4746.15
-6005.65
-4595.73
-5615.7
-5511.33
-4327.88
-4701.39
-4440.63
-3397.61
-4100.41
-4200.75
-4994
-3877.86
-22856.5
-10684.8
-12321.3
-24140.1
-24823.8
-10808.2
-22211.1
-2638.16
-8686.04
-1017.43
-7090.01
-1494.7
-2226.31
-8678.69
-3248.7
-2477.43
-9056.18
-7328.29
-3669.67
-2014.7
-9042.59
-1082.68
-5531.8
-2798.46
-6624.85
-2334.51
-1551.15
-5350.56
-601.445
-1363.42
-6427.58
-4971.71
-1850.49
-111.293
-5162.31
1106.03
-4164.28
684.941
-5627.24
167.338
1206.17
-4370.46
872.104
-860.122
-5844.02
-4773.68
-353.916
388.329
-4575.78
1900.27
-2529.03
2232.05
-3846.32
2111.91
2007.92
-2662.06
1793.97
1876.35
-4095.76
-3079.58
1992.04
1689.87
-2865.32
-1215.09
-8281.32
-482.925
-6507.34
-1603.42
5.94115
-8321.75
-937.368
1020.11
-7942.25
-6249
-908.105
544.836
-7878.66
1394.19
-3950.68
1177.79
-4997.36
1299.76
1486.36
-3738.59
1491.18
1757.12
-3302.14
-4762.78
1588.46
1637.45
-3519.14
-23258.6
-14700.3
-12363.7
-20865.9
-15105.7
-20293.3
-23589.8
-22257.7
-19180.6
-14763
-12280.5
-21904.7
-14439.6
-19730.5
-14214.2
-9092.73
-10595.9
-15249
-15698.6
-9176.19
-13792.7
-14654.9
-16647.3
-10687
-9348.62
-16164.2
-9261.19
-15111.2
-16540
-9714.32
-11084.4
-18699.8
-9619.52
-18159.3
-17049.1
-16051.5
-17134.8
-10983.1
-9435.83
-9527.18
-17640.8
-15576.3
-20961.8
-10565.3
-23480.8
-11958
-22821.3
-21581.7
-10449.4
-20363.4
-21572.6
-11839.6
-10224.2
-22193.9
-10335
-19776.5
-25023.5
-15456.5
-12650.9
-21458.1
-14955.3
-24680.6
-22070.5
-26190
-23326.5
-15219.7
-12740.2
-26516.7
-15813.2
-22687.3
-18095.4
-9810.23
-11397.3
-19240.8
-9910.35
-17567.4
-19802.5
-18642.3
-20970.2
-10117.6
-11502.4
-10013
-19204.4
-20373.9
-12973.6
-9012.76
-10309.3
-14809
-14377.2
-8931.82
-13378.6
-12587.6
-13564.4
-10222.4
-8776.01
-13966
-8854.28
-12213.6
-15636.2
-12756.7
-11150.2
-13667.1
-12832.8
-14060.8
-15279.8
-16234
-14875.9
-13114.2
-11232.9
-16579.4
-13092.3
-14465
-11148.3
-8475.41
-9858.29
-12069.2
-8551.27
-12424.1
-10820.1
-11492
-13172.8
-8701.41
-9940.95
-8625.02
-11848.7
-12790.8
-8776.8
-7875.06
-9096.43
-9559.16
-9837.99
-7954.45
-8525.76
-9040.99
-10430.4
-9188.75
-8106.22
-10129
-8029.86
-9314.74
-14386.1
-12547.9
-10822.1
-13281.8
-12413.1
-14730
-12914.4
-13883.6
-12196
-12066.9
-10734.5
-13531.4
-12251.8
-12548.9
-10184.2
-8402.75
-9573
-11720.1
-8327.57
-10497.8
-11379.8
-9885.47
-10736.9
-8179.68
-9485.52
-8255.63
-9596.47
-11053.3
-11720.9
-10641.3
-10533.1
-9691.16
-10484.5
-11743.3
-10607.1
-11567.8
-10321.3
-10236.6
-9569.84
-11471.1
-10431.4
-10314.3
-8331.45
-7233.86
-8993.05
-8134.91
-9170.72
-8201.12
-7385.11
-8434.38
-9431.76
-8306.39
-7624.86
-9314.55
-8512.3
-7515.23
-8561.75
-7884.38
-9588.42
-8785.71
-9586.34
-8530.24
-7844.14
-8573.59
-9509.88
-8693.17
-7715.27
-9565
-8557.5
-7788.05
-7660.72
-7731.47
-8673.74
-8939.69
-8860.88
-7457.78
-7790.44
-7848.04
-9183.4
-8970.01
-7876.66
-9036.66
-8014.22
-7838.9
-11806.5
-10895.2
-10528.4
-9982.35
-11840.6
-10526.3
-10891.4
-11836.7
-10407.3
-11071.4
-10028.6
-11743.6
-10462.9
-11110.2
-8388.89
-7909.04
-9552.47
-8955.28
-8472.87
-9499.96
-7920.55
-8284.48
-9315.16
-7903.82
-8977.9
-8161.46
-9414.55
-7918.56
-8595.35
-9664.87
-8596.72
-8291.94
-9230.39
-8026.4
-8936.91
-8319.58
-7495.33
-8726.35
-8422.39
-7974.09
-9188.92
-7760.37
-5423.51
-6097.57
-6879.49
-5750.41
-5975.61
-6266.3
-5235.36
-5611.84
-6420.49
-7067.61
-6565.66
-6197.61
-6419.94
-5799.14
-6363.63
-7061.25
-7747.87
-7316.46
-6946.61
-7088.64
-6559.39
-6172.68
-6642.26
-7597.43
-6700.63
-6828.63
-6863.42
-5986.36
-8041.3
-7797.83
-9283.42
-8772.03
-9015.53
-8280.63
-7715.5
-7812.77
-8506.36
-8668.68
-7546.59
-8757.64
-7634.11
-7591.77
-9569.67
-9703.68
-9146.35
-8562.39
-10109.5
-9225.09
-8835.45
-9874.64
-9388.92
-10520.4
-9287.58
-10213
-10148.1
-9111.66
-6955.82
-7166.74
-8181.26
-7547.08
-7270.03
-6756.48
-7777.75
-7162.59
-8257.49
-7458.54
-8301.91
-7365.2
-7374.47
-8015.58
-4837.23
-5917.82
-6205.39
-5517.76
-5279.86
-5720.5
-5041.46
-4625.76
-4772.4
-5956.6
-5276.77
-5032.53
-5509.08
-4403.7
-4386.61
-4641.74
-5064.34
-3909.36
-5255.6
-4282.84
-3941.3
-4727.27
-4967.61
-6074.22
-5431.52
-5138.4
-5493.46
-4634.88
-3627.35
-4123.06
-4735.53
-3559.26
-4449.82
-3892.23
-3328.88
-3906.24
-4496.64
-5023.57
-5069.2
-4748.18
-4163.65
-4204.69
-925.751
-1465.07
-1494.5
-2033.56
-939.913
-1515.24
-1407.99
-3066.18
-4334.87
-3756.61
-3510.85
-3685.22
-3560.14
-3090.61
-2622.92
-2155.03
-2630.45
-3270.61
-2101.91
-3305.06
-2634.71
-2656.64
-3769.58
-3551.4
-3199.36
-3385.88
-3007.08
-2818.32
-2276.5
-1956.68
-2525.91
-3100.62
-2972.59
-1864.5
-2403.77
)
;

boundaryField
{
    left
    {
        type            calculated;
        value           nonuniform List<scalar> 0();
    }
    bottom
    {
        type            calculated;
        value           nonuniform List<scalar> 0();
    }
    interface
    {
        type            calculated;
        value           nonuniform List<scalar> 
2171
(
-776.331
-731.732
-629.808
-675.413
-1922.5
-1735.44
-916.257
-978.364
-135.362
-213.621
-207.375
-181.113
-188.065
-1554.45
-1490.72
-1527.24
-1991.62
-2101.85
-1060.19
-21653.3
-137.38
-146.239
-179.598
-172.032
-20747.3
-18180
-10047.5
-11769.4
-3999.66
-4764.41
-9516.71
-8056.65
-214.657
-291.589
-1931.92
-1688.29
-3776.53
-3201.19
-1987.1
-2162.59
-903.094
-650.072
-737.386
-1935.79
-1783.2
-813.421
-200.824
-198.805
-205.886
-922.005
-275.234
-263.116
-270.749
-196.992
-189.719
-246.567
-253.989
-262.295
-254.795
-1992.09
-1665.16
-1798.69
-1709.48
-1840.29
-2544.5
-2041.62
-2052.36
-2112.65
-2901.76
-2907.5
-2664.7
-2875.52
-1223.65
-16793.2
-202.205
-212.563
-158.109
-148.517
-224.649
-214.242
-160.927
-169.998
-245.916
-237.75
-226.728
-236.433
-16147.3
-14312.1
-15095.1
-17371.7
-12098.1
-13734.6
-14382.4
-12387.2
-8447.08
-9699.09
-11586.5
-10148
-6034.43
-5053.42
-3965.89
-4551.38
-5501.68
-4771.33
-6398.24
-7610.71
-8061.27
-6993.9
-5772.83
-6667.87
-1125.72
-1669.49
-1043.7
-499.418
-2238.11
-1827.41
-1197.02
-1583.37
-2874.47
-2716.53
-2353.77
-2643.14
-3794.47
-3344.73
-2624.37
-3036.4
-2878.83
-3214.58
-2510.16
-2235.41
-2295.63
-2475.21
-2784
-2545.09
-1362.48
-914.318
-847.499
-552.526
-810.949
-1536.02
-1018.37
-1476.92
-1722.2
-2238.35
-2055.38
-1675.39
-1979.32
-815.571
-66.9842
-34.5101
-421.635
-10473.9
-1554.2
-4201.13
-69.6844
-1460.42
-829.826
-516.826
-327.597
-826.859
-730.831
-522.527
-503.845
-251.706
-265.62
-260.414