/*--------------------------------*- C++ -*----------------------------------*\
| =========                 |                                                 |
| \\      /  F ield         | OpenFOAM: The Open Source CFD Toolbox           |
|  \\    /   O peration     | Version:  2012                                  |
|   \\  /    A nd           | Website:  www.openfoam.com                      |
|    \\/     M anipulation  |                                                 |
\*---------------------------------------------------------------------------*/
FoamFile
{
    version     2.0;
    format      ascii;
    class       volVectorField;
    location    "0.104/fluid";
    object      cellMotionU;
}
// * * * * * * * * * * * * * * * * * * * * * * * * * * * * * * * * * * * * * //

dimensions      [0 1 -1 0 0 0 0];


internalField   nonuniform List<vector> 
16422
(
(1.75503e-05 -1.34824e-07 1.74907e-07)
(0.000140623 3.61822e-06 1.77664e-06)
(0.000214091 1.87869e-05 3.40443e-06)
(0.000251172 4.32435e-05 4.89929e-06)
(0.000261269 7.6436e-05 6.36334e-06)
(0.000238848 0.000117535 7.84939e-06)
(0.000177767 0.00016342 9.30467e-06)
(8.17873e-05 0.000207271 1.03749e-05)
(-3.34212e-05 0.000238938 1.12252e-05)
(-0.000135426 0.000248156 1.10955e-05)
(-0.000196891 0.000228566 1.00617e-05)
(-0.00019766 0.000178746 7.33387e-06)
(-0.000148655 0.000108192 2.83526e-06)
(-8.22912e-05 4.11022e-05 -1.61303e-06)
(-1.64407e-05 5.59723e-06 -1.01863e-06)
(1.865e-05 9.11504e-08 1.98511e-07)
(0.000150787 4.31089e-06 1.98214e-06)
(0.000236228 1.63292e-05 3.7746e-06)
(0.000285071 3.50338e-05 5.45263e-06)
(0.000302855 6.10433e-05 7.10587e-06)
(0.000284047 9.38832e-05 8.76002e-06)
(0.000225708 0.000129961 1.01638e-05)
(0.000132074 0.000163822 1.11266e-05)
(1.77926e-05 0.000188805 1.16592e-05)
(-8.95691e-05 0.000198192 1.15869e-05)
(-0.000162353 0.000186797 1.02542e-05)
(-0.000179659 0.000152135 7.4862e-06)
(-0.000147605 0.000101629 3.27437e-06)
(-9.52964e-05 5.2146e-05 -9.6571e-07)
(-3.56097e-05 2.09361e-05 -1.86688e-06)
(1.90612e-05 1.00257e-07 2.18061e-07)
(0.000154737 2.58105e-06 2.12887e-06)
(0.000246901 8.90013e-06 3.9928e-06)
(0.000303016 1.86684e-05 5.74556e-06)
(0.000326305 3.2317e-05 7.45319e-06)
(0.000311614 4.9573e-05 9.07093e-06)
(0.000256977 6.84178e-05 1.04074e-05)
(0.000166473 8.59571e-05 1.12036e-05)
(5.36013e-05 9.92577e-05 1.14829e-05)
(-5.57507e-05 0.000105578 1.0982e-05)
(-0.000135003 0.000101614 9.36916e-06)
(-0.000167083 8.67959e-05 6.69089e-06)
(-0.000150558 6.40249e-05 3.23418e-06)
(-0.000101695 4.0438e-05 1.51637e-07)
(-4.24463e-05 2.70923e-05 -3.01121e-07)
(1.88352e-05 -1.1562e-07 1.78264e-06)
(0.000151121 3.32476e-06 1.64401e-05)
(0.000234595 1.85058e-05 3.13943e-05)
(0.000280126 4.33671e-05 4.54548e-05)
(0.000297847 7.70832e-05 5.90575e-05)
(0.000283311 0.000118685 7.23938e-05)
(0.000229693 0.000165823 8.51067e-05)
(0.000143198 0.000211077 9.57508e-05)
(3.91236e-05 0.000243838 0.000101881)
(-5.43035e-05 0.000254286 0.000101823)
(-0.000113735 0.000235132 9.17252e-05)
(-0.000124885 0.000183603 6.7339e-05)
(-0.000111409 0.000111582 2.55318e-05)
(-9.24755e-05 4.26382e-05 -1.55533e-05)
(-1.98475e-05 5.70404e-06 -7.72061e-06)
(2.00536e-05 1.61035e-07 2.05684e-06)
(0.000161888 4.33904e-06 1.85771e-05)
(0.000257461 1.62141e-05 3.49221e-05)
(0.000314824 3.51655e-05 5.03154e-05)
(0.0003403 6.14049e-05 6.51129e-05)
(0.000329518 9.44103e-05 7.94606e-05)
(0.000278648 0.000131117 9.21873e-05)
(0.000193211 0.000165733 0.000101574)
(8.75458e-05 0.00019154 0.000105865)
(-1.42327e-05 0.000201865 0.000103511)
(-8.70101e-05 0.000190039 9.11938e-05)
(-0.000116091 0.000153993 6.65687e-05)
(-0.00011392 0.000103043 2.95205e-05)
(-9.56111e-05 5.1731e-05 -7.96126e-06)
(-5.10656e-05 1.9917e-05 -1.52356e-05)
(2.04324e-05 1.43985e-07 2.20534e-06)
(0.000165923 2.64244e-06 1.97851e-05)
(0.000268229 8.75222e-06 3.68165e-05)
(0.000333004 1.84062e-05 5.2776e-05)
(0.000364041 3.20551e-05 6.80971e-05)
(0.000357105 4.92595e-05 8.24466e-05)
(0.000308775 6.83261e-05 9.42475e-05)
(0.000223668 8.64314e-05 0.000101936)
(0.000116673 0.000100409 0.000104305)
(1.07893e-05 0.000107032 9.90099e-05)
(-7.00705e-05 0.00010242 8.4274e-05)
(-0.000113222 8.63415e-05 6.01278e-05)
(-0.000120646 6.28495e-05 2.90212e-05)
(-0.00010041 4.01772e-05 1.97137e-06)
(-6.32011e-05 2.99822e-05 -1.63201e-06)
(2.20702e-05 -2.34026e-07 3.27488e-06)
(0.000179314 2.20474e-06 2.94347e-05)
(0.000285772 1.60284e-05 5.48495e-05)
(0.00035047 4.12062e-05 7.92874e-05)
(0.000384304 7.66094e-05 0.00010306)
(0.000385587 0.000120084 0.000125788)
(0.000353903 0.000167564 0.000147261)
(0.000292565 0.000213661 0.000165401)
(0.000213072 0.0002484 0.00017563)
(0.000134848 0.000261861 0.000173952)
(8.34125e-05 0.000242453 0.000155858)
(5.67261e-05 0.000188611 0.000115707)
(6.51272e-06 0.00011316 4.57785e-05)
(-7.5107e-05 4.11691e-05 -2.1804e-05)
(-2.0186e-05 5.97609e-06 -1.24311e-05)
(2.33899e-05 6.94795e-08 3.69507e-06)
(0.000190754 3.42434e-06 3.26897e-05)
(0.000310154 1.45125e-05 6.08229e-05)
(0.000387531 3.34936e-05 8.74387e-05)
(0.000430179 6.03918e-05 0.000112858)
(0.000435836 9.40237e-05 0.000136848)
(0.000403275 0.000131324 0.000158475)
(0.000338092 0.000167465 0.000174824)
(0.000251931 0.000195329 0.00018183)
(0.000162907 0.000207245 0.000176223)
(9.4297e-05 0.00019408 0.000154402)
(4.57416e-05 0.000155042 0.000113203)
(-6.65129e-06 0.000101261 5.03388e-05)
(-6.71518e-05 4.81969e-05 -1.02101e-05)
(-6.85394e-05 1.81583e-05 -2.39211e-05)
(2.37965e-05 1.05003e-07 3.93961e-06)
(0.000195018 2.23776e-06 3.46695e-05)
(0.000320697 7.86235e-06 6.38645e-05)
(0.000405013 1.71893e-05 9.11018e-05)
(0.00045333 3.0751e-05 0.000117128)
(0.000462088 4.81014e-05 0.000141184)
(0.000427966 6.7574e-05 0.000161469)
(0.000357457 8.66651e-05 0.000175059)
(0.000264461 0.000102131 0.000178589)
(0.000168999 0.000109837 0.00016895)
(8.66881e-05 0.000104264 0.000143782)
(2.21295e-05 8.58987e-05 0.000102914)
(-3.0497e-05 6.12246e-05 5.09173e-05)
(-7.09163e-05 3.91842e-05 6.3074e-06)
(-7.89785e-05 3.27528e-05 -1.3419e-06)
(-9.94317e-06 2.80316e-06 -3.32523e-07)
(1.21796e-06 2.03403e-06 -2.48175e-07)
(-9.30119e-06 3.38729e-06 -1.88674e-06)
(1.45279e-05 8.83119e-06 -5.97036e-07)
(-7.5989e-06 4.06595e-06 -2.05665e-06)
(1.77052e-05 9.17968e-06 -3.04259e-07)
(-2.47206e-06 4.93145e-06 -3.96107e-06)
(4.93294e-05 -4.40686e-06 8.82323e-07)
(1.6703e-06 6.7572e-06 -3.96632e-06)
(5.41034e-05 -6.38107e-06 7.89087e-07)
(-7.89235e-05 3.7893e-05 -1.49248e-06)
(-2.31057e-05 7.35261e-06 -1.05972e-06)
(-8.95751e-05 4.00534e-05 -1.2801e-05)
(-2.91924e-05 7.84422e-06 -7.7037e-06)
(-6.6797e-06 1.25728e-06 -2.32702e-08)
(-3.72401e-06 1.07869e-06 9.76739e-07)
(1.5215e-06 3.29797e-06 -3.50196e-07)
(-3.25532e-05 1.66508e-05 -2.00969e-06)
(-4.72013e-07 1.29166e-05 -3.17835e-07)
(-1.79861e-05 5.85268e-06 -5.79312e-06)
(1.13283e-05 6.64573e-06 -6.992e-07)
(-4.1318e-05 1.55305e-05 -1.29579e-05)
(-1.76156e-06 1.26355e-05 -2.20764e-06)
(-9.14021e-05 3.97673e-05 -1.6108e-05)
(-3.05135e-05 8.07147e-06 -9.37447e-06)
(-8.68669e-05 3.86959e-05 -2.32445e-05)
(-3.58368e-05 8.23924e-06 -1.48723e-05)
(1.63958e-06 3.37569e-06 2.19459e-06)
(4.85043e-06 3.52691e-06 2.26546e-06)
(1.70268e-05 6.43804e-06 -3.55386e-07)
(-4.61222e-05 1.49036e-05 -1.60114e-05)
(-1.97913e-06 1.27523e-05 -2.60891e-06)
(-1.82709e-05 5.39645e-06 -1.06061e-05)
(4.01174e-05 -3.05881e-06 1.56534e-07)
(-5.94925e-05 1.26225e-05 -2.34606e-05)
(-4.0886e-07 1.43325e-05 -4.12832e-06)
(-7.75008e-05 3.8189e-05 -2.3415e-05)
(-3.39428e-05 9.49386e-06 -1.54317e-05)
(1.68775e-05 6.21986e-06 2.09532e-06)
(2.20104e-05 9.52824e-06 2.13899e-06)
(4.8514e-05 -5.75765e-06 -1.45296e-07)
(-6.14971e-05 1.19985e-05 -2.48554e-05)
(1.91572e-06 1.58348e-05 -4.09645e-06)
(-4.75083e-06 1.04897e-06 2.58899e-07)
(-2.33639e-06 9.05868e-07 3.23376e-07)
(-9.9817e-06 2.70358e-06 -8.11373e-07)
(-3.95806e-06 1.04572e-06 1.24056e-06)
(-1.14113e-06 1.04827e-06 1.09005e-06)
(-1.17446e-06 1.22621e-06 1.14857e-07)
(4.29595e-06 5.04972e-06 -1.21022e-06)
(7.42045e-07 2.93293e-06 1.57288e-07)
(-3.51512e-07 2.98082e-06 2.35009e-06)
(-2.03173e-06 1.8023e-06 2.05385e-06)
(-9.20597e-06 2.59251e-06 -1.00764e-06)
(-2.28237e-09 2.58318e-06 2.67085e-06)
(4.48979e-06 2.66813e-06 2.7983e-06)
(-1.92859e-06 8.52869e-07 2.34211e-06)
(1.33357e-06 1.1965e-06 2.07595e-06)
(6.07086e-06 6.65921e-06 -1.26888e-06)
(7.56606e-06 6.25413e-06 1.6399e-06)
(2.31495e-06 3.81088e-06 6.68501e-07)
(3.56116e-06 3.41947e-06 3.29707e-06)
(9.02026e-06 3.46844e-06 3.80348e-06)
(-6.00281e-06 4.20466e-06 -2.55574e-06)
(7.30701e-06 3.60315e-06 3.51759e-06)
(1.39678e-05 3.3774e-06 4.44601e-06)
(1.03575e-05 6.84343e-06 2.29879e-06)
(2.9823e-05 5.77689e-06 5.80655e-07)
(1.8433e-05 6.12962e-06 3.46143e-06)
(1.33103e-05 4.37811e-06 2.4578e-06)
(9.69624e-06 3.86486e-06 2.74934e-06)
(-2.5257e-06 4.52655e-06 -2.53185e-06)
(1.61812e-05 4.7552e-06 3.51561e-06)
(2.55104e-05 3.60663e-06 5.09987e-06)
(1.29267e-05 3.95324e-06 4.12088e-06)
(2.04769e-05 3.33759e-06 5.24665e-06)
(3.40411e-05 4.04528e-06 7.765e-07)
(3.13874e-05 2.47863e-06 4.10279e-06)
(2.24913e-05 5.49349e-06 4.0576e-06)
(2.25587e-05 7.03785e-06 3.84013e-06)
(3.27193e-05 5.33051e-06 5.42592e-06)
(4.08262e-06 9.63843e-06 -4.69112e-06)
(2.74381e-05 1.07492e-05 3.55704e-06)
(3.84119e-05 8.28105e-06 5.09935e-06)
(3.60446e-05 1.79538e-06 4.39713e-06)
(7.01147e-05 -1.10717e-05 4.66516e-08)
(4.52223e-05 1.45898e-06 3.74804e-06)
(2.7161e-05 1.41142e-05 1.99419e-06)
(7.46229e-06 1.32307e-05 -5.16606e-06)
(3.24764e-05 1.58381e-05 3.29056e-06)
(4.41404e-05 1.24611e-05 4.71318e-06)
(7.53114e-05 -1.23726e-05 -1.96162e-07)
(5.02956e-05 1.34273e-06 3.81764e-06)
(2.7825e-07 3.85325e-07 1.72709e-06)
(3.23276e-06 1.62565e-06 4.02289e-06)
(2.57466e-06 1.03314e-06 4.03002e-06)
(1.76593e-06 7.69069e-07 2.70742e-06)
(1.39091e-06 5.21359e-07 2.92211e-06)
(1.34512e-06 1.11066e-06 2.88895e-06)
(-4.46757e-07 2.6642e-08 4.00959e-07)
(-5.98186e-07 3.69327e-08 6.01277e-08)
(2.1759e-07 3.8995e-08 1.24856e-06)
(1.43299e-05 3.71626e-06 5.9378e-06)
(2.45965e-05 4.26834e-06 9.42046e-06)
(2.35416e-05 4.82294e-06 1.02597e-05)
(2.13305e-05 4.58473e-06 9.06449e-06)
(2.04494e-05 5.01786e-06 9.85406e-06)
(1.78524e-05 4.05839e-06 6.74843e-06)
(1.17539e-05 3.89953e-06 5.72095e-06)
(1.46907e-05 4.74291e-06 7.92846e-06)
(1.38613e-05 4.82522e-06 8.44916e-06)
(1.02761e-05 4.21507e-06 5.85201e-06)
(1.79892e-05 4.89701e-06 8.61676e-06)
(1.7269e-05 5.22001e-06 9.33491e-06)
(3.89941e-05 7.76777e-06 7.7353e-06)
(5.8551e-05 1.16128e-05 1.28356e-05)
(5.69528e-05 1.09348e-05 1.36065e-05)
(5.51164e-05 9.01036e-06 1.28246e-05)
(5.37673e-05 8.7832e-06 1.36876e-05)
(4.40174e-05 1.01731e-05 8.47633e-06)
(3.57844e-05 6.6541e-06 7.74418e-06)
(4.54844e-05 5.7192e-06 1.18367e-05)
(4.41868e-05 6.02111e-06 1.28094e-05)
(3.45457e-05 5.08225e-06 8.12966e-06)
(5.07709e-05 7.33555e-06 1.25687e-05)
(4.96544e-05 7.31211e-06 1.35248e-05)
(3.98646e-06 2.55963e-06 4.1457e-06)
(8.47195e-07 9.50351e-07 3.11555e-07)
(4.44239e-06 5.21141e-06 7.53204e-07)
(1.68222e-06 1.91949e-06 5.13787e-07)
(-2.20602e-07 4.37087e-07 1.90553e-06)
(2.66538e-06 5.79649e-07 3.91787e-06)
(3.03855e-06 7.96724e-07 3.45174e-06)
(1.4845e-06 4.55957e-07 2.89078e-06)
(1.77473e-06 6.36839e-07 2.56671e-06)
(8.66577e-07 4.48292e-07 2.68072e-06)
(-1.0703e-06 3.09411e-07 1.00827e-06)
(-3.25753e-07 -1.82271e-08 3.51238e-07)
(-2.1943e-08 -1.07156e-07 5.39953e-07)
(3.49435e-07 5.49253e-08 1.55973e-06)
(6.87128e-07 1.01574e-07 1.53078e-06)
(-1.34719e-06 2.92425e-07 3.81918e-07)
(1.26347e-06 1.64377e-06 1.98993e-07)
(3.21107e-06 2.19285e-06 2.53054e-06)
(1.26212e-06 6.90181e-07 1.57818e-06)
(3.49353e-06 4.50825e-06 6.65023e-07)
(7.46153e-07 1.28265e-06 -2.84229e-07)
(1.2652e-07 5.49276e-07 -1.91926e-07)
(7.91532e-07 1.8638e-06 -1.24007e-06)
(4.38741e-08 2.41938e-07 -3.33552e-08)
(1.23163e-06 1.93717e-06 -2.5394e-07)
(3.42376e-06 5.58639e-06 -1.93869e-06)
(3.42373e-06 4.90461e-06 -3.65974e-08)
(1.26325e-06 2.5687e-06 -1.46606e-06)
(7.95869e-07 9.19615e-07 1.71391e-07)
(-5.31214e-08 -6.17367e-08 2.44847e-07)
(7.77187e-07 3.3761e-07 1.19591e-06)
(4.70206e-08 1.02458e-07 4.58576e-08)
(3.9481e-06 2.20258e-06 4.2047e-06)
(5.08748e-06 2.76942e-06 5.21592e-06)
(4.32189e-06 1.63324e-06 5.21005e-06)
(2.90779e-06 2.07289e-06 3.95225e-06)
(7.14798e-06 3.59274e-06 6.1401e-06)
(6.35687e-06 2.57186e-06 6.21608e-06)
(5.98801e-06 3.29737e-06 4.91987e-06)
(1.19399e-05 4.64637e-06 7.44545e-06)
(1.11479e-05 4.56798e-06 7.80465e-06)
(8.04638e-06 4.01756e-06 5.53763e-06)
(9.5944e-06 4.54241e-06 6.97891e-06)
(8.79694e-06 3.96536e-06 7.16951e-06)
(5.00085e-06 3.37419e-06 4.72247e-06)
(8.0827e-06 5.45119e-06 5.8904e-06)
(1.48927e-05 1.0847e-05 -5.83609e-07)
(1.05054e-05 9.85129e-06 1.60919e-07)
(5.5367e-06 6.1481e-06 6.96431e-07)
(9.15065e-06 8.96582e-06 3.19959e-07)
(9.34005e-06 5.9732e-06 6.22463e-06)
(3.6485e-06 2.5947e-07 4.03059e-06)
(4.53161e-06 7.07599e-07 5.13092e-06)
(4.92297e-06 9.97098e-07 4.5235e-06)
(2.66417e-06 8.6951e-07 3.70919e-06)
(6.73723e-06 1.95192e-06 6.18925e-06)
(7.21496e-06 1.9597e-06 5.54369e-06)
(5.85041e-06 2.16558e-06 4.75227e-06)
(1.16199e-05 4.17384e-06 7.82653e-06)
(1.25185e-05 3.68227e-06 7.3089e-06)
(9.27718e-06 3.66185e-06 7.15698e-06)
(9.96746e-06 3.41174e-06 6.55984e-06)
(8.46826e-06 3.38191e-06 5.66678e-06)
(7.95967e-06 8.34186e-06 1.88851e-06)
(4.13762e-06 2.6019e-06 3.00317e-06)
(4.43191e-06 5.3258e-06 9.46359e-07)
(7.39701e-06 4.39948e-06 4.32437e-06)
(9.18475e-06 1.00787e-05 1.18896e-06)
(1.3823e-05 1.15912e-05 -1.28531e-06)
(9.10063e-06 1.0128e-05 -1.78499e-06)
(1.3831e-05 1.22452e-05 2.27017e-06)
(7.91467e-06 8.68217e-06 9.53163e-07)
(4.34443e-06 6.45046e-06 -1.95821e-06)
(4.36298e-06 5.71957e-06 1.90042e-07)
(7.80146e-06 9.09365e-06 -1.84686e-06)
(9.3637e-06 8.71673e-06 2.34022e-06)
(1.28226e-05 6.67628e-06 6.05868e-06)
(8.75326e-06 5.30545e-06 4.79291e-06)
(1.40148e-05 1.0912e-05 3.54264e-06)
(1.64979e-05 1.06666e-05 -8.46662e-07)
(2.1667e-05 9.30704e-06 -1.60873e-06)
(2.9322e-05 6.86022e-06 -2.44321e-06)
(2.34727e-05 8.48478e-06 -1.85604e-06)
(1.59349e-05 3.56399e-06 6.98084e-06)
(2.46504e-05 4.64511e-06 1.05805e-05)
(2.62996e-05 3.73461e-06 1.02755e-05)
(2.15705e-05 4.84057e-06 1.02048e-05)
(2.29785e-05 3.95047e-06 9.83197e-06)
(1.98603e-05 4.02092e-06 7.877e-06)
(1.3233e-05 3.72281e-06 6.62502e-06)
(1.47851e-05 4.76103e-06 8.73061e-06)
(1.58913e-05 4.13363e-06 8.29137e-06)
(1.82987e-05 5.13183e-06 9.64016e-06)
(1.15176e-05 4.07235e-06 6.50766e-06)
(1.95431e-05 4.25309e-06 9.21634e-06)
(2.34176e-05 1.15931e-05 5.61952e-06)
(2.68463e-05 7.10094e-06 9.19613e-06)
(2.1538e-05 7.45489e-06 8.29283e-06)
(2.99665e-05 1.04108e-05 6.75226e-06)
(2.12966e-05 1.25178e-05 3.83616e-06)
(1.55429e-05 1.14818e-05 -1.0907e-06)
(1.55548e-05 1.22394e-05 2.68136e-06)
(2.11208e-05 1.13841e-05 -5.5912e-07)
(2.14671e-05 1.10731e-05 5.23155e-06)
(1.45815e-05 7.17971e-06 6.58286e-06)
(1.57376e-05 1.08651e-05 3.98766e-06)
(1.97992e-05 7.5671e-06 7.9435e-06)
(2.34102e-05 1.15494e-05 4.2255e-06)
(2.98484e-05 8.41227e-06 1.14741e-07)
(2.98928e-05 1.03491e-05 5.20143e-06)
(2.32015e-05 1.04953e-05 -3.78881e-07)
(2.30939e-05 3.87383e-06 6.9483e-06)
(2.87912e-05 4.22707e-06 1.00734e-05)
(2.77197e-05 4.82708e-06 1.10057e-05)
(2.17255e-05 4.03442e-06 7.32931e-06)
(3.2992e-05 4.26964e-06 1.06721e-05)
(3.19079e-05 4.81662e-06 1.16532e-05)
(2.70227e-05 3.85116e-06 7.3807e-06)
(4.12358e-05 4.9669e-06 1.14852e-05)
(4.01034e-05 5.35569e-06 1.25037e-05)
(3.12591e-05 4.77213e-06 8.07021e-06)
(3.75441e-05 4.33314e-06 1.12566e-05)
(3.6534e-05 4.91808e-06 1.22953e-05)
(2.52279e-05 4.00731e-06 8.09204e-06)
(2.89754e-05 4.68981e-06 1.13199e-05)
(3.07573e-05 3.76651e-06 1.09883e-05)
(2.4111e-05 4.01997e-06 8.581e-06)
(3.31985e-05 4.71947e-06 1.18921e-05)
(3.50576e-05 3.92969e-06 1.14921e-05)
(2.93169e-05 4.09431e-06 8.48791e-06)
(4.10076e-05 5.37997e-06 1.24127e-05)
(4.32773e-05 5.08009e-06 1.19534e-05)
(3.78245e-05 4.89338e-06 1.24402e-05)
(3.98336e-05 4.2036e-06 1.19722e-05)
(3.38218e-05 5.29766e-06 9.05225e-06)
(3.94769e-05 6.62358e-06 7.83985e-06)
(2.92518e-05 6.96584e-06 9.62473e-06)
(3.2244e-05 9.3536e-06 7.04607e-06)
(3.57185e-05 5.95075e-06 1.04367e-05)
(4.20192e-05 5.36522e-06 6.39986e-06)
(5.00321e-05 -1.80784e-06 4.13907e-07)
(4.19621e-05 2.6114e-06 4.56896e-07)
(4.98197e-05 2.13776e-06 6.71284e-06)
(3.95998e-05 5.95307e-06 6.15353e-06)
(3.21885e-05 7.09514e-06 2.21571e-07)
(3.22214e-05 9.06145e-06 5.45851e-06)
(3.94685e-05 3.57543e-06 3.84768e-07)
(4.20627e-05 5.11352e-06 7.97296e-06)
(4.43324e-05 4.95131e-06 1.09761e-05)
(3.82813e-05 5.54601e-06 1.07272e-05)
(4.98031e-05 2.61965e-06 8.38895e-06)
(4.3164e-05 9.37562e-06 8.77016e-06)
(5.83341e-05 1.14753e-05 1.32167e-05)
(6.13565e-05 1.3276e-05 1.24959e-05)
(5.53954e-05 9.13243e-06 1.34377e-05)
(5.80146e-05 1.02954e-05 1.26944e-05)
(4.83748e-05 1.2033e-05 9.32019e-06)
(4.0112e-05 7.89618e-06 8.97763e-06)
(4.60325e-05 6.2195e-06 1.29044e-05)
(4.85381e-05 6.2806e-06 1.23823e-05)
(5.13558e-05 7.57277e-06 1.34257e-05)
(3.88936e-05 5.97117e-06 9.54662e-06)
(5.38552e-05 8.1243e-06 1.2733e-05)
(6.33377e-05 -2.39225e-06 8.58401e-06)
(6.27192e-05 6.86615e-06 1.13721e-05)
(5.68397e-05 5.42259e-06 1.15693e-05)
(7.18593e-05 -4.23454e-06 8.4899e-06)
(6.07862e-05 -2.93669e-06 6.73946e-06)
(5.27208e-05 -3.17196e-06 2.99388e-07)
(5.2515e-05 7.93276e-07 6.70439e-06)
(6.0717e-05 -5.93686e-06 -3.47018e-08)
(6.0628e-05 -1.42508e-06 8.46712e-06)
(4.72452e-05 4.75669e-06 1.12491e-05)
(5.24568e-05 1.42459e-06 8.39919e-06)
(5.46598e-05 5.14957e-06 1.15665e-05)
(6.36615e-05 -3.97929e-06 6.59308e-06)
(7.2193e-05 -9.57849e-06 -5.9308e-07)
(7.20382e-05 -5.88456e-06 6.41026e-06)
(6.35508e-05 -6.87537e-06 -2.31593e-07)
(4.47168e-05 1.59317e-05 6.96184e-06)
(6.36713e-05 1.41025e-05 1.32142e-05)
(6.19707e-05 1.32582e-05 1.39322e-05)
(4.90444e-05 1.21205e-05 8.84533e-06)
(6.73779e-05 1.78951e-05 1.3194e-05)
(6.49892e-05 1.67837e-05 1.3701e-05)
(4.73886e-05 1.95183e-05 6.57988e-06)
(7.14596e-05 2.18471e-05 1.31567e-05)
(6.69844e-05 2.10191e-05 1.30313e-05)
(4.71249e-05 1.84213e-05 7.35131e-06)
(6.34856e-05 1.39137e-05 1.3482e-05)
(6.65381e-05 1.61927e-05 1.26439e-05)
(5.34756e-05 1.42995e-05 9.52628e-06)
(6.61485e-05 1.75524e-05 1.31414e-05)
(6.94489e-05 2.01389e-05 1.2284e-05)
(4.75615e-05 2.21979e-05 6.26581e-06)
(6.78106e-05 2.16497e-05 1.23549e-05)
(7.19488e-05 2.41649e-05 1.16656e-05)
(8.33154e-05 -5.86635e-06 8.11818e-06)
(6.58606e-05 6.96001e-06 1.15043e-05)
(7.46489e-05 -4.51269e-06 8.35664e-06)
(7.07958e-05 9.51163e-06 1.09552e-05)
(8.68238e-05 -9.03023e-06 5.98427e-06)
(8.67792e-05 -1.20228e-05 -1.28734e-06)
(8.38242e-05 -7.92047e-06 5.96142e-06)
(7.50827e-05 -1.00569e-05 -7.85013e-07)
(7.49002e-05 -6.22997e-06 6.23789e-06)
(8.37815e-05 -1.08344e-05 -1.25158e-06)
(8.64128e-05 -5.24748e-06 7.94139e-06)
(7.32974e-05 1.02529e-05 1.08435e-05)
(3.16217e-06 1.75438e-06 4.42525e-06)
(4.34096e-06 3.91962e-06 5.62678e-06)
(4.36159e-06 2.1787e-06 5.39263e-06)
(3.50275e-06 3.11187e-06 4.99519e-06)
(3.52731e-06 1.59083e-06 4.76406e-06)
(3.97247e-06 2.38187e-06 5.05972e-06)
(2.786e-08 -2.3112e-08 1.25979e-07)
(6.23516e-08 1.23235e-08 1.86871e-08)
(1.09407e-07 2.96342e-08 2.07994e-08)
(2.74587e-07 -1.54924e-07 5.76547e-07)
(2.46695e-07 1.07435e-07 3.35387e-08)
(4.53954e-06 4.0678e-06 -2.51905e-07)
(3.13715e-06 2.95244e-06 -4.79034e-08)
(2.5479e-05 6.47285e-06 1.12945e-05)
(2.956e-05 9.499e-06 1.26555e-05)
(2.94102e-05 7.63661e-06 1.30349e-05)
(2.74369e-05 9.70495e-06 1.23109e-05)
(2.73696e-05 8.03318e-06 1.26996e-05)
(2.76948e-05 6.80742e-06 1.17703e-05)
(1.65587e-05 6.56784e-06 9.62035e-06)
(1.60482e-05 9.56963e-06 1.00777e-05)
(1.61156e-05 7.59028e-06 1.02412e-05)
(1.50938e-05 6.87444e-06 9.33954e-06)
(1.77828e-05 9.80812e-06 1.04886e-05)
(1.78496e-05 8.02717e-06 1.0713e-05)
(1.58593e-05 7.45429e-06 -2.3076e-06)
(1.83711e-05 7.13711e-06 -2.71971e-06)
(2.9735e-05 3.13254e-06 -4.01133e-06)
(2.67059e-05 4.47032e-06 -3.76449e-06)
(6.23027e-05 1.20603e-05 1.56129e-05)
(7.04247e-05 1.73755e-05 1.75605e-05)
(6.90007e-05 8.37612e-06 1.7345e-05)
(6.7676e-05 1.58442e-05 1.73594e-05)
(6.6476e-05 7.66051e-06 1.72253e-05)
(6.53264e-05 1.34839e-05 1.59392e-05)
(5.01089e-05 7.99258e-06 1.46036e-05)
(5.13285e-05 1.01971e-05 1.56892e-05)
(5.05994e-05 6.00494e-06 1.58467e-05)
(4.80756e-05 7.22072e-06 1.44678e-05)
(5.40282e-05 1.0915e-05 1.60173e-05)
(5.32787e-05 6.18593e-06 1.61502e-05)
(4.91401e-05 -4.91003e-06 -4.19477e-06)
(5.29314e-05 -5.89267e-06 -4.04455e-06)
(6.90485e-05 -7.13753e-06 -3.22634e-06)
(6.48921e-05 -7.24546e-06 -3.43663e-06)
(3.28491e-06 2.04462e-06 3.9828e-06)
(4.67003e-06 2.76686e-06 5.47483e-06)
(3.40084e-06 1.79006e-06 4.55447e-06)
(4.58048e-06 3.14983e-06 4.77686e-06)
(1.68329e-07 8.32457e-08 1.65936e-07)
(1.70474e-07 6.7357e-08 -5.0075e-08)
(3.04397e-06 2.58082e-06 1.20901e-06)
(4.50151e-06 3.9439e-06 1.32481e-07)
(3.10452e-06 2.84652e-06 2.60658e-07)
(4.42024e-06 3.63778e-06 1.32043e-06)
(2.65974e-07 1.49761e-09 3.72941e-07)
(9.20828e-08 9.02623e-08 -9.43127e-08)
(3.18044e-06 1.23683e-06 3.87222e-06)
(4.40972e-06 2.0194e-06 5.04798e-06)
(4.74068e-06 3.41814e-06 4.60551e-06)
(3.56103e-06 1.52415e-06 4.42778e-06)
(3.80454e-06 2.7121e-06 4.0037e-06)
(4.02607e-06 1.65524e-06 4.4329e-06)
(3.02998e-07 -2.15554e-07 8.38731e-07)
(1.25417e-07 -4.1998e-08 1.48637e-07)
(2.06694e-07 -1.80476e-07 3.66486e-07)
(4.36293e-07 -2.63164e-07 8.02048e-07)
(5.42966e-07 -3.18659e-07 9.68467e-07)
(6.05521e-08 -1.12022e-07 2.69099e-07)
(2.89272e-06 1.65153e-06 2.18581e-06)
(4.52465e-06 2.30773e-06 4.15246e-06)
(3.17414e-06 1.39446e-06 3.36586e-06)
(4.29813e-06 2.77443e-06 2.81297e-06)
(6.99636e-08 1.80637e-07 -3.06223e-07)
(-2.29211e-08 8.87633e-08 -9.97312e-08)
(9.61064e-08 3.59792e-07 -5.82431e-07)
(-3.49515e-08 2.80526e-08 -4.40539e-08)
(2.44529e-06 2.5411e-06 -7.77524e-07)
(3.73901e-06 4.03424e-06 -1.81735e-06)
(3.78724e-06 3.60182e-06 -7.38335e-07)
(2.4244e-06 2.93943e-06 -1.66333e-06)
(2.76683e-07 -4.09159e-07 6.68969e-07)
(1.3834e-07 -2.11579e-07 1.96432e-07)
(5.07544e-07 -4.49782e-07 1.04119e-06)
(1.97233e-08 -1.68649e-07 1.53235e-07)
(5.83509e-06 3.33598e-06 6.15529e-06)
(5.28852e-06 4.85992e-06 6.25037e-06)
(5.32535e-06 2.85216e-06 6.04412e-06)
(4.92938e-06 3.16721e-06 5.70552e-06)
(6.3261e-06 5.67923e-06 6.82538e-06)
(6.38721e-06 3.58207e-06 6.66375e-06)
(1.20635e-05 6.05743e-06 8.51078e-06)
(1.44273e-05 9.30776e-06 9.69049e-06)
(1.4501e-05 7.38907e-06 9.79984e-06)
(1.35773e-05 6.71278e-06 8.99184e-06)
(1.28778e-05 8.99757e-06 9.27667e-06)
(1.29676e-05 7.03364e-06 9.34106e-06)
(6.61392e-06 4.68785e-06 5.66123e-06)
(5.14815e-06 3.18705e-06 5.77854e-06)
(5.05636e-06 3.53425e-06 5.01596e-06)
(6.71579e-06 4.25458e-06 6.59655e-06)
(1.24908e-05 7.10116e-06 9.64327e-07)
(1.49826e-05 7.4155e-06 -1.46167e-06)
(1.26684e-05 7.2852e-06 -1.09417e-06)
(1.47897e-05 7.32953e-06 7.6452e-07)
(6.55429e-06 5.00554e-06 1.33698e-06)
(5.01145e-06 4.3047e-06 7.37331e-08)
(4.92254e-06 3.99038e-06 1.33808e-06)
(6.66696e-06 5.32642e-06 -1.4647e-07)
(1.24009e-05 7.55126e-06 7.08806e-06)
(1.47411e-05 7.39839e-06 9.08367e-06)
(1.2522e-05 6.94765e-06 8.58336e-06)
(1.46802e-05 8.13571e-06 7.43712e-06)
(5.95671e-06 1.72983e-06 5.58642e-06)
(5.42847e-06 2.68702e-06 5.69909e-06)
(5.81318e-06 4.21835e-06 5.22813e-06)
(5.08149e-06 2.30732e-06 5.07106e-06)
(6.52798e-06 3.45811e-06 6.31939e-06)
(6.96131e-06 4.93328e-06 5.82491e-06)
(1.2672e-05 5.33561e-06 8.2395e-06)
(1.48816e-05 7.30146e-06 9.65156e-06)
(1.59574e-05 8.44899e-06 9.34645e-06)
(1.33297e-05 7.04541e-06 9.1561e-06)
(1.42936e-05 8.22263e-06 8.81634e-06)
(1.43686e-05 5.95883e-06 8.79475e-06)
(6.54184e-06 4.3326e-06 3.71837e-06)
(5.04159e-06 2.62132e-06 4.43795e-06)
(4.82043e-06 3.16406e-06 3.03232e-06)
(6.70514e-06 3.42417e-06 5.28344e-06)
(1.23171e-05 7.08057e-06 2.30434e-07)
(1.46742e-05 7.50022e-06 -1.44624e-06)
(1.21531e-05 7.36975e-06 -1.61477e-06)
(1.48576e-05 7.3127e-06 5.60324e-07)
(5.95757e-06 4.97386e-06 -5.58367e-07)
(4.23215e-06 4.39407e-06 -1.84829e-06)
(4.28988e-06 3.95542e-06 -7.06218e-07)
(5.87067e-06 5.41317e-06 -1.88513e-06)
(1.30011e-05 7.23399e-06 5.92488e-06)
(1.55458e-05 6.9658e-06 8.57109e-06)
(1.30915e-05 6.50598e-06 7.7953e-06)
(1.55488e-05 7.82951e-06 6.67517e-06)
(-1.43928e-08 1.1099e-07 -1.17645e-07)
(1.10742e-07 4.21003e-07 -6.67038e-07)
(3.73737e-06 4.18895e-06 -2.15824e-06)
(2.43105e-06 3.07822e-06 -1.94158e-06)
(1.50534e-05 7.48995e-06 -2.16788e-06)
(1.27341e-05 7.38999e-06 -1.74911e-06)
(5.05141e-06 4.43296e-06 -3.34686e-07)
(6.71331e-06 5.46258e-06 -6.23535e-07)
(1.46268e-05 7.59879e-06 -2.09616e-06)
(1.21129e-05 7.50013e-06 -2.21025e-06)
(4.22748e-06 4.55259e-06 -2.20976e-06)
(5.85674e-06 5.57862e-06 -2.30743e-06)
(2.6374e-05 7.98698e-06 8.6803e-06)
(2.95811e-05 7.27451e-06 1.15407e-05)
(2.65429e-05 7.66268e-06 1.11329e-05)
(2.94501e-05 7.42433e-06 8.96213e-06)
(1.80842e-05 7.20185e-06 4.82586e-07)
(1.57865e-05 7.3918e-06 -1.58513e-06)
(1.82938e-05 7.11671e-06 -1.95041e-06)
(1.55892e-05 7.34427e-06 6.94518e-07)
(1.79765e-05 8.5496e-06 7.84441e-06)
(1.55354e-05 7.61629e-06 9.25616e-06)
(1.80927e-05 7.89168e-06 9.77191e-06)
(1.54771e-05 8.27907e-06 7.54437e-06)
(2.63908e-05 5.21257e-06 -3.67208e-08)
(2.96424e-05 3.34323e-06 -3.08093e-06)
(2.66192e-05 4.61449e-06 -2.87187e-06)
(2.94129e-05 4.13955e-06 -1.29128e-07)
(2.66937e-05 5.88123e-06 1.15354e-05)
(3.01024e-05 7.73701e-06 1.31758e-05)
(3.17808e-05 8.67704e-06 1.28765e-05)
(2.80684e-05 8.10144e-06 1.28376e-05)
(2.9641e-05 8.84219e-06 1.25405e-05)
(2.90283e-05 6.32308e-06 1.19956e-05)
(1.76017e-05 5.97515e-06 9.68845e-06)
(1.65904e-05 7.78077e-06 1.01714e-05)
(1.77739e-05 8.7889e-06 9.90085e-06)
(1.83706e-05 8.1032e-06 1.06792e-05)
(1.61363e-05 6.44618e-06 9.33871e-06)
(1.96094e-05 8.9509e-06 1.04052e-05)
(2.85345e-05 7.72309e-06 9.59915e-06)
(3.13798e-05 6.92287e-06 1.21796e-05)
(2.81622e-05 7.27269e-06 1.16428e-05)
(3.19302e-05 7.17126e-06 1.01483e-05)
(1.85466e-05 7.19043e-06 1.00942e-06)
(1.55593e-05 7.47674e-06 -1.38631e-06)
(1.57484e-05 7.32883e-06 6.72844e-07)
(1.83413e-05 7.2019e-06 -1.20309e-06)
(1.92219e-05 8.25732e-06 7.65179e-06)
(1.64402e-05 7.21623e-06 8.8457e-06)
(1.64385e-05 7.97643e-06 6.92273e-06)
(1.91694e-05 7.47249e-06 9.63257e-06)
(2.79703e-05 5.21418e-06 1.8785e-06)
(3.11771e-05 3.43638e-06 -6.84135e-07)
(3.14194e-05 4.14612e-06 2.08049e-06)
(2.77372e-05 4.70258e-06 -7.57107e-07)
(3.17653e-05 6.3419e-06 1.23537e-05)
(3.18165e-05 9.38086e-06 1.30294e-05)
(3.16227e-05 7.61956e-06 1.34157e-05)
(2.99306e-05 6.76914e-06 1.215e-05)
(3.40998e-05 9.30316e-06 1.3385e-05)
(3.388e-05 7.42355e-06 1.37829e-05)
(4.31331e-05 6.4675e-06 1.38673e-05)
(4.87772e-05 9.83074e-06 1.53939e-05)
(4.81207e-05 6.1293e-06 1.55944e-05)
(4.57792e-05 7.25376e-06 1.42651e-05)
(4.62407e-05 9.44771e-06 1.50775e-05)
(4.57169e-05 6.22795e-06 1.53465e-05)
(3.37636e-05 6.47366e-06 9.37134e-06)
(3.06683e-05 7.19044e-06 1.16963e-05)
(3.05027e-05 7.20291e-06 9.06029e-06)
(3.40348e-05 6.78229e-06 1.21639e-05)
(4.39433e-05 -1.16621e-06 1.1887e-07)
(4.78082e-05 -3.98545e-06 -3.13688e-06)
(4.41598e-05 -2.78001e-06 -3.2558e-06)
(4.75961e-05 -2.20981e-06 3.17486e-07)
(3.36564e-05 2.52742e-06 -1.66924e-07)
(3.06853e-05 2.89091e-06 -3.13691e-06)
(3.04515e-05 3.75088e-06 -1.48041e-07)
(3.38851e-05 1.47257e-06 -3.26306e-06)
(4.42242e-05 4.18043e-06 1.04634e-05)
(4.81354e-05 5.51362e-06 1.38775e-05)
(4.45635e-05 5.58987e-06 1.34844e-05)
(4.79269e-05 3.54142e-06 1.08603e-05)
(3.3006e-05 5.88979e-06 1.25042e-05)
(3.23761e-05 7.69162e-06 1.35787e-05)
(3.41252e-05 8.6029e-06 1.32521e-05)
(3.13846e-05 6.30352e-06 1.24158e-05)
(3.46566e-05 7.49854e-06 1.3944e-05)
(3.6393e-05 8.58025e-06 1.35554e-05)
(4.41292e-05 6.40179e-06 1.35963e-05)
(4.88798e-05 6.20401e-06 1.55827e-05)
(5.08306e-05 9.68418e-06 1.48393e-05)
(4.65452e-05 6.31541e-06 1.54e-05)
(4.84008e-05 9.17181e-06 1.4703e-05)
(4.69044e-05 7.29553e-06 1.39206e-05)
(3.66246e-05 6.22877e-06 1.07746e-05)
(3.25635e-05 6.84732e-06 1.23853e-05)
(3.30872e-05 6.95325e-06 1.03165e-05)
(3.60136e-05 6.45951e-06 1.28985e-05)
(4.7645e-05 -1.13716e-06 2.26273e-06)
(5.13874e-05 -3.87987e-06 -1.17172e-06)
(4.74027e-05 -2.67823e-06 -9.73009e-07)
(5.16311e-05 -2.1752e-06 2.15411e-06)
(3.61947e-05 2.54109e-06 2.25798e-06)
(3.23505e-05 2.98336e-06 -6.69955e-07)
(3.2595e-05 3.75977e-06 2.13508e-06)
(3.59519e-05 1.56591e-06 -6.65221e-07)
(4.78963e-05 3.95511e-06 1.17159e-05)
(5.06265e-05 5.39294e-06 1.4248e-05)
(4.69399e-05 5.39257e-06 1.40279e-05)
(5.18342e-05 3.32199e-06 1.19113e-05)
(1.55092e-05 7.56271e-06 -2.05409e-06)
(1.82849e-05 7.24551e-06 -1.92268e-06)
(3.10986e-05 3.24481e-06 -1.58666e-06)
(2.76654e-05 4.57791e-06 -1.61834e-06)
(4.78997e-05 -4.53239e-06 -4.23584e-06)
(4.42511e-05 -3.27221e-06 -4.32645e-06)
(3.07779e-05 2.65935e-06 -4.07916e-06)
(3.39761e-05 1.17367e-06 -4.23983e-06)
(5.1299e-05 -4.41219e-06 -2.2484e-06)
(4.73165e-05 -3.15492e-06 -2.02309e-06)
(3.22704e-05 2.76905e-06 -1.58661e-06)
(3.58717e-05 1.28517e-06 -1.61933e-06)
(6.5061e-05 2.69327e-06 1.26325e-05)
(6.92037e-05 8.09631e-06 1.59449e-05)
(6.52732e-05 7.02023e-06 1.5656e-05)
(6.92238e-05 3.0243e-06 1.29931e-05)
(5.26312e-05 -3.31864e-06 6.43487e-07)
(4.90481e-05 -4.34637e-06 -3.0866e-06)
(5.28395e-05 -5.28296e-06 -2.9096e-06)
(4.88374e-05 -2.52063e-06 3.93191e-07)
(5.30246e-05 2.89928e-06 1.14112e-05)
(4.94051e-05 5.42079e-06 1.40245e-05)
(5.33654e-05 5.63571e-06 1.44912e-05)
(4.91846e-05 3.35523e-06 1.09962e-05)
(6.45911e-05 -4.29037e-06 1.50181e-06)
(6.89539e-05 -6.41572e-06 -2.00343e-06)
(6.4799e-05 -6.53983e-06 -2.23384e-06)
(6.87423e-05 -4.11407e-06 1.785e-06)
(6.31624e-05 1.29941e-05 1.45225e-05)
(6.98202e-05 8.6022e-06 1.69746e-05)
(7.18585e-05 1.84441e-05 1.56654e-05)
(6.73734e-05 7.85697e-06 1.69131e-05)
(6.92741e-05 1.6741e-05 1.56254e-05)
(6.62798e-05 1.45189e-05 1.47928e-05)
(5.14851e-05 8.30593e-06 1.41527e-05)
(5.15301e-05 6.21078e-06 1.58522e-05)
(5.35438e-05 1.02032e-05 1.50396e-05)
(5.42029e-05 6.32986e-06 1.60993e-05)
(4.96889e-05 7.48292e-06 1.41992e-05)
(5.61468e-05 1.10379e-05 1.5186e-05)
(6.96923e-05 2.50109e-06 1.22172e-05)