/*--------------------------------*- C++ -*----------------------------------*\
| =========                 |                                                 |
| \\      /  F ield         | OpenFOAM: The Open Source CFD Toolbox           |
|  \\    /   O peration     | Version:  2012                                  |
|   \\  /    A nd           | Website:  www.openfoam.com                      |
|    \\/     M anipulation  |                                                 |
\*---------------------------------------------------------------------------*/
FoamFile
{
    version     2.0;
    format      ascii;
    class       surfaceScalarField;
    location    "0.104/fluid";
    object      meshPhi;
}
// * * * * * * * * * * * * * * * * * * * * * * * * * * * * * * * * * * * * * //

dimensions      [0 3 -1 0 0 0 0];
oriented        oriented;


internalField   nonuniform List<scalar> 
46880
(
-3.57177e-08
-8.1948e-07
3.59038e-08
4.71837e-09
-3.00453e-07
2.92008e-06
-3.52216e-06
3.00772e-07
3.86977e-08
-5.69389e-07
5.25621e-06
-5.83984e-06
5.67131e-07
6.66049e-08
-9.01032e-07
7.691e-06
-8.35329e-06
8.94008e-07
9.23999e-08
-1.31425e-06
1.05013e-05
-1.12757e-05
1.30071e-06
1.16775e-07
-1.7945e-06
1.37771e-05
-1.46632e-05
1.77182e-06
1.33147e-07
-2.28666e-06
1.73906e-05
-1.83045e-05
2.25459e-06
1.3711e-07
-2.72167e-06
2.10997e-05
-2.20663e-05
2.68428e-06
1.32107e-07
-3.02826e-06
2.49858e-05
-2.58999e-05
2.99057e-06
1.01339e-07
-3.11537e-06
2.82356e-05
-2.88525e-05
3.09015e-06
2.30702e-08
-2.92128e-06
3.00878e-05
-3.0241e-05
2.9234e-06
-1.14998e-07
-2.41766e-06
2.96741e-05
-2.90906e-05
2.47403e-06
-3.13445e-07
-1.63272e-06
2.60002e-05
-2.44866e-05
1.76397e-06
-5.88887e-07
-7.47765e-07
1.84713e-05
-1.60642e-05
-9.80667e-07
9.38798e-07
-2.86033e-07
8.77043e-06
-6.8394e-06
-1.32981e-06
4.5175e-07
-3.24717e-08
-8.45901e-07
3.00722e-08
5.14699e-09
-2.71093e-07
3.01142e-06
-3.63162e-06
2.50666e-07
4.28007e-08
-5.06495e-07
5.4174e-06
-6.01997e-06
4.67153e-07
7.56094e-08
-7.92253e-07
7.95163e-06
-8.65109e-06
7.29681e-07
1.05919e-07
-1.1453e-06
1.09239e-05
-1.17404e-05
1.0539e-06
1.3325e-07
-1.55061e-06
1.4352e-05
-1.52762e-05
1.42658e-06
1.54913e-07
-1.97526e-06
1.81877e-05
-1.92053e-05
1.82162e-06
1.66129e-07
-2.36634e-06
2.23692e-05
-2.34508e-05
2.19074e-06
1.59776e-07
-2.6539e-06
2.66548e-05
-2.76761e-05
2.46411e-06
1.23275e-07
-2.77963e-06
3.04213e-05
-3.11937e-05
2.59268e-06
4.51748e-08
-2.71176e-06
3.29607e-05
-3.33308e-05
2.55658e-06
-7.28625e-08
-2.46781e-06
3.3627e-05
-3.34262e-05
2.37861e-06
-2.24109e-07
-2.0754e-06
3.18578e-05
-3.10022e-05
2.09845e-06
-4.01333e-07
-1.61464e-06
2.7552e-05
-2.62124e-05
1.78382e-06
-5.48062e-07
-1.39851e-06
2.23889e-05
-2.14258e-05
-4.04272e-07
1.70113e-06
-1.95023e-08
-8.40729e-07
1.5071e-08
5.31811e-09
-1.62282e-07
3.00365e-06
-3.62979e-06
1.25485e-07
4.46661e-08
-3.00629e-07
5.44723e-06
-6.06241e-06
2.32025e-07
7.95008e-08
-4.67744e-07
8.02928e-06
-8.73997e-06
3.60306e-07
1.11472e-07
-6.75715e-07
1.10445e-05
-1.18737e-05
5.20522e-07
1.40051e-07
-9.2059e-07
1.4549e-05
-1.55072e-05
7.12454e-07
1.60709e-07
-1.19672e-06
1.8536e-05
-1.95849e-05
9.3636e-07
1.64619e-07
-1.46343e-06
2.27841e-05
-2.38666e-05
1.15042e-06
1.55284e-07
-1.6578e-06
2.71147e-05
-2.81814e-05
1.30252e-06
1.24448e-07
-1.7621e-06
3.11487e-05
-3.20256e-05
1.3871e-06
6.29747e-08
-1.78134e-06
3.41981e-05
-3.47649e-05
1.41053e-06
-2.10205e-08
-1.74803e-06
3.59493e-05
-3.61685e-05
1.40493e-06
-1.24196e-07
-1.73139e-06
3.62531e-05
-3.6083e-05
1.43143e-06
-2.15258e-07
-1.75432e-06
3.50732e-05
-3.46285e-05
1.50275e-06
-2.23832e-07
-1.95696e-06
3.33395e-05
-3.30057e-05
1.72328e-06
-4.75497e-08
-1.82035e-08
-3.3933e-08
-7.71355e-07
3.42931e-08
2.23778e-08
-1.49558e-07
-2.92354e-07
2.82477e-06
-3.42711e-06
2.93652e-07
1.83863e-07
-2.56678e-07
-5.62753e-07
5.16041e-06
-5.74548e-06
5.60513e-07
3.15428e-07
-3.54532e-07
-9.01718e-07
7.60695e-06
-8.2703e-06
8.91041e-07
4.34936e-07
-4.47092e-07
-1.32885e-06
1.04114e-05
-1.11818e-05
1.30853e-06
5.47614e-07
-5.18304e-07
-1.83336e-06
1.36742e-05
-1.45652e-05
1.79967e-06
6.36819e-07
-5.46412e-07
-2.35717e-06
1.73796e-05
-1.83589e-05
2.30966e-06
6.75323e-07
-5.2189e-07
-2.8429e-06
2.14134e-05
-2.24664e-05
2.78496e-06
6.44757e-07
-3.9453e-07
-3.21787e-06
2.56479e-05
-2.66872e-05
3.15577e-06
4.87725e-07
-7.88328e-08
-3.38064e-06
2.96114e-05
-3.0479e-05
3.3282e-06
1.09118e-07
4.43825e-07
-3.23214e-06
3.25102e-05
-3.29362e-05
3.21088e-06
-5.16209e-07
1.17959e-06
-2.69468e-06
3.3381e-05
-3.32508e-05
2.72659e-06
-1.40749e-06
2.26435e-06
-1.85456e-06
3.20475e-05
-3.1355e-05
1.97078e-06
-2.73336e-06
-7.92908e-07
3.81635e-06
2.82846e-05
-2.69516e-05
-4.61189e-06
1.02288e-06
1.99426e-07
4.96693e-06
2.26043e-05
-2.14005e-05
-5.93782e-06
2.31035e-07
-1.97648e-08
-3.12977e-08
-8.04871e-07
2.91137e-08
2.42278e-08
-1.64639e-07
-2.66471e-07
2.95478e-06
-3.58342e-06
2.46867e-07
2.0173e-07
-2.90206e-07
-4.99507e-07
5.36834e-06
-5.9625e-06
4.60294e-07
3.55268e-07
-4.06001e-07
-7.81141e-07
7.87272e-06
-8.57197e-06
7.17539e-07
4.96728e-07
-5.10084e-07
-1.13594e-06
1.08528e-05
-1.1673e-05
1.04133e-06
6.2398e-07
-5.93542e-07
-1.55058e-06
1.43041e-05
-1.52423e-05
1.42043e-06
7.26217e-07
-6.36151e-07
-1.99222e-06
1.82324e-05
-1.92918e-05
1.82915e-06
7.78143e-07
-6.11838e-07
-2.41686e-06
2.26246e-05
-2.37788e-05
2.22777e-06
7.48541e-07
-4.7582e-07
-2.76125e-06
2.72728e-05
-2.84237e-05
2.55555e-06
5.85377e-07
-1.77807e-07
-2.96058e-06
3.16859e-05
-3.26717e-05
2.7591e-06
2.28289e-07
2.72863e-07
-2.94861e-06
3.51323e-05
-3.57431e-05
2.78199e-06
-3.12819e-07
8.42249e-07
-2.67688e-06
3.68799e-05
-3.70276e-05
2.58218e-06
-1.00111e-06
1.51436e-06
-2.26169e-06
3.67462e-05
-3.6411e-05
2.28155e-06
-1.81684e-06
2.06821e-06
-1.80938e-06
3.47465e-05
-3.40236e-05
1.99313e-06
-2.49131e-06
-1.62838e-06
1.52212e-06
3.18028e-05
-3.12133e-05
-1.83421e-06
1.9784e-06
-2.04328e-08
-1.90689e-08
-8.04868e-07
1.48146e-08
2.50196e-08
-1.71965e-07
-1.60781e-07
2.95488e-06
-3.5879e-06
1.24539e-07
2.10513e-07
-3.05413e-07
-2.96383e-07
5.42396e-06
-6.04708e-06
2.29132e-07
3.73494e-07
-4.26955e-07
-4.58447e-07
8.03655e-06
-8.75289e-06
3.53544e-07
5.21393e-07
-5.35338e-07
-6.62777e-07
1.10533e-05
-1.18743e-05
5.1026e-07
6.5356e-07
-6.16719e-07
-9.06684e-07
1.45178e-05
-1.54711e-05
6.99224e-07
7.55068e-07
-6.44156e-07
-1.18263e-06
1.85335e-05
-1.96226e-05
9.176e-07
7.94441e-07
-6.1011e-07
-1.4633e-06
2.30572e-05
-2.42479e-05
1.1409e-06
7.51883e-07
-4.86768e-07
-1.69848e-06
2.78397e-05
-2.90248e-05
1.32637e-06
5.98696e-07
-2.44892e-07
-1.8604e-06
3.2402e-05
-3.34434e-05
1.45182e-06
3.03567e-07
9.76549e-08
-1.93052e-06
3.61836e-05
-3.69581e-05
1.51441e-06
-1.14948e-07
4.87553e-07
-1.9116e-06
3.88313e-05
-3.93025e-05
1.53528e-06
-5.81974e-07
8.04739e-07
-1.89042e-06
4.01765e-05
-4.0286e-05
1.56529e-06
-9.58185e-07
8.2778e-07
-1.93489e-06
4.01726e-05
-4.0024e-05
1.65249e-06
-9.87199e-07
1.70668e-07
-2.21025e-06
3.94794e-05
-3.93116e-05
1.93285e-06
-1.99172e-07
-3.33877e-08
-3.25213e-08
-7.20979e-07
3.30468e-08
3.64701e-08
-2.75319e-07
-2.83129e-07
2.66587e-06
-3.25468e-06
2.8652e-07
3.00773e-07
-4.73384e-07
-5.62673e-07
5.00879e-06
-5.60468e-06
5.59114e-07
5.1836e-07
-6.49418e-07
-9.13661e-07
7.46515e-06
-8.12176e-06
8.96381e-07
7.10428e-07
-8.11772e-07
-1.35988e-06
1.02555e-05
-1.10303e-05
1.32616e-06
8.85646e-07
-9.42458e-07
-1.89875e-06
1.35786e-05
-1.45073e-05
1.8443e-06
1.02553e-06
-1.0087e-06
-2.48076e-06
1.75134e-05
-1.85805e-05
2.40827e-06
1.09809e-06
-9.7189e-07
-3.0474e-06
2.19478e-05
-2.31272e-05
2.96038e-06
1.06219e-06
-7.54597e-07
-3.52898e-06
2.67995e-05
-2.8055e-05
3.42695e-06
8.36022e-07
-2.61787e-07
-3.79565e-06
3.18029e-05
-3.30079e-05
3.6862e-06
3.22304e-07
5.6653e-07
-3.74583e-06
3.64057e-05
-3.74652e-05
3.66734e-06
-5.44354e-07
1.82635e-06
-3.29682e-06
4.04471e-05
-4.14069e-05
3.27363e-06
-1.87795e-06
3.71135e-06
-2.53926e-06
4.43306e-05
-4.5334e-05
2.61041e-06
-3.87699e-06
-1.5226e-06
6.30647e-06
4.82601e-05
-4.91288e-05
-6.61663e-06
1.75188e-06
-3.47554e-07
7.99085e-06
5.08862e-05
-5.11868e-05
-8.39281e-06
9.75992e-07
-3.60021e-08
-3.10237e-08
-7.74228e-07
2.91762e-08
3.92932e-08
-3.00502e-07
-2.65663e-07
2.87049e-06
-3.49591e-06
2.48072e-07
3.27916e-07
-5.27513e-07
-4.97414e-07
5.29201e-06
-5.89527e-06
4.58301e-07
5.7629e-07
-7.34059e-07
-7.74227e-07
7.82528e-06
-8.5222e-06
7.08584e-07
8.0041e-07
-9.19965e-07
-1.12678e-06
1.07825e-05
-1.15965e-05
1.02797e-06
1.00116e-06
-1.06852e-06
-1.55147e-06
1.42519e-05
-1.52225e-05
1.4117e-06
1.16055e-06
-1.14376e-06
-2.03071e-06
1.83984e-05
-1.95504e-05
1.85154e-06
1.24144e-06
-1.10271e-06
-2.5221e-06
2.32434e-05
-2.45421e-05
2.31359e-06
1.19951e-06
-8.84568e-07
-2.95207e-06
2.85456e-05
-2.9898e-05
2.72764e-06
9.72002e-07
-4.20616e-07
-3.23101e-06
3.39063e-05
-3.5207e-05
3.01774e-06
4.89779e-07
3.00947e-07
-3.29998e-06
3.89053e-05
-4.00546e-05
3.11085e-06
-2.64202e-07
1.26427e-06
-3.08946e-06
4.32082e-05
-4.4166e-05
2.95596e-06
-1.28499e-06
2.41975e-06
-2.77018e-06
4.68121e-05
-4.76198e-05
2.74805e-06
-2.51335e-06
3.38049e-06
-2.49144e-06
4.97448e-05
-5.03314e-05
2.63402e-06
-3.5335e-06
-2.55656e-06
2.5027e-06
5.16399e-05
-5.19116e-05
-2.62223e-06
2.8557e-06
-3.69182e-08
-1.97772e-08
-7.85858e-07
1.55056e-08
4.01777e-08
-3.1109e-07
-1.65593e-07
2.90949e-06
-3.54681e-06
1.29089e-07
3.38399e-07
-5.50763e-07
-2.95631e-07
5.4194e-06
-6.06756e-06
2.29281e-07
5.99678e-07
-7.65096e-07
-4.49184e-07
8.15276e-06
-8.89046e-06
3.46037e-07
8.31422e-07
-9.57559e-07
-6.4484e-07
1.11751e-05
-1.19675e-05
4.9298e-07
1.03927e-06
-1.10999e-06
-8.81234e-07
1.45449e-05
-1.5506e-05
6.73204e-07
1.20367e-06
-1.17609e-06
-1.16727e-06
1.87281e-05
-1.99236e-05
8.96469e-07
1.27439e-06
-1.11498e-06
-1.48841e-06
2.38176e-05
-2.51912e-05
1.15106e-06
1.2106e-06
-8.98245e-07
-1.79475e-06
2.93762e-05
-3.07723e-05
1.39575e-06
9.83691e-07
-4.96179e-07
-2.03661e-06
3.4871e-05
-3.61996e-05
1.58735e-06
5.63545e-07
7.31667e-08
-2.16715e-06
4.00122e-05
-4.12109e-05
1.70573e-06
-3.06947e-08
7.02982e-07
-2.17173e-06
4.45043e-05
-4.54905e-05
1.75048e-06
-6.93504e-07
1.2201e-06
-2.21037e-06
4.80866e-05
-4.88262e-05
1.82505e-06
-1.24407e-06
1.28218e-06
-2.37677e-06
5.06542e-05
-5.11262e-05
2.00469e-06
-1.31649e-06
2.26677e-07
-2.7834e-06
5.21342e-05
-5.23234e-05
2.37994e-06
-2.13601e-07
6.10807e-06
-2.06585e-07
-3.96207e-06
-1.62817e-06
4.54494e-08
-2.61718e-08
4.66173e-07
1.0138e-08
-6.1606e-06
1.53975e-05
-7.00608e-08
4.80181e-06
3.33466e-07
-1.37672e-05
7.682e-08
8.80942e-08
-7.11124e-08
-5.57821e-08
3.42476e-06
2.09095e-05
5.58607e-07
-1.95688e-05
-7.3404e-06
1.00467e-07
-6.35833e-08
4.18805e-06
7.9695e-08
-9.81282e-06
4.23666e-05
5.48614e-09
9.16211e-06
5.52749e-07
-4.2169e-05
7.48112e-08
3.77283e-07
-7.61027e-08
-3.09503e-07
1.10686e-05
5.06024e-05
2.36102e-07
-5.08781e-05
-1.03028e-05
4.51528e-07
-3.80544e-07
1.22083e-05
7.0004e-08
1.65311e-05
-5.93978e-07
-1.39608e-05
-1.03828e-06
3.28608e-07
-2.14998e-07
-1.48545e-06
8.58712e-06
-4.11662e-06
2.29708e-05
7.53487e-07
3.14757e-06
-5.85918e-07
-2.11561e-05
-5.77452e-06
7.45673e-08
4.46955e-06
1.40521e-07
1.72588e-05
2.90784e-08
6.17025e-07
-1.69228e-08
-1.64184e-07
-3.69687e-07
7.47729e-08
-3.51131e-06
-5.63246e-07
-1.01175e-06
-6.27948e-07
-9.75273e-07
4.93427e-06
3.00197e-07
3.62465e-07
3.00439e-07
3.88398e-07
-5.60181e-08
-4.88898e-08
-5.78299e-08
4.70804e-06
-7.61796e-08
4.50039e-07
1.89264e-05
-1.04754e-06
-1.77219e-05
-5.67302e-07
1.62863e-06
-1.19819e-06
1.63491e-05
1.34748e-07
1.7383e-05
3.86093e-06
-1.59095e-05
2.71917e-07
-2.94135e-07
-7.87443e-08
-4.79489e-08
-4.85314e-08
2.17348e-07
1.42991e-05
5.98965e-07
-2.13176e-06
2.53782e-05
1.52288e-06
1.64708e-06
-1.11018e-06
-2.44555e-05
4.8816e-07
1.90081e-06
-3.82082e-07
-1.45293e-06
2.33996e-05
2.68913e-05
-6.18442e-07
-2.5508e-05
-4.98376e-06
-7.32563e-09
2.74759e-07
-6.91369e-06
2.24289e-05
-6.8274e-06
4.20337e-05
1.23499e-06
6.34876e-06
-1.05917e-06
-4.2345e-05
-9.30352e-06
2.70726e-07
8.67643e-06
9.29262e-08
4.25176e-05
-8.30376e-06
6.96644e-06
-6.4108e-07
-4.88901e-06
-4.02479e-06
-4.0741e-06
-4.83468e-06
1.91967e-05
-7.74657e-07
-9.41272e-06
-5.76013e-06
-6.62332e-06
-5.70125e-06
-6.6851e-06
2.58732e-05
-4.97076e-08
-1.17876e-07
-5.73988e-08
2.00956e-05
-3.76013e-07
7.26624e-07
2.94183e-05
-1.18509e-06
-2.86774e-05
-2.56696e-06
2.08981e-06
-1.6356e-06
2.78258e-05
5.76949e-07
4.30484e-05
7.45128e-06
-4.29112e-05
6.16938e-07
-6.07904e-07
-3.12194e-07
-2.63209e-07
-2.05679e-07
5.37419e-07
4.27561e-05
1.66949e-06
-3.50281e-06
4.54116e-05
2.23828e-06
3.25826e-06
-1.77439e-06
-4.54083e-05
7.50395e-07
2.98542e-06
-7.06046e-07
-2.58981e-06
4.53893e-05
4.7678e-05
-1.35467e-06
-4.86617e-05
-7.16615e-06
6.03637e-07
-2.37339e-07
-9.76862e-06
5.01732e-05
-1.15376e-05
1.1012e-05
-2.27194e-07
-1.30606e-05
-1.18529e-05
-1.19188e-05
-1.29934e-05
4.96881e-05
3.04427e-07
-1.19006e-05
-1.4212e-05
-1.53196e-05
-1.41472e-05
-1.5385e-05
5.83303e-05
-3.29699e-07
-5.34563e-07
-4.06034e-07
5.14841e-05
-6.67936e-07
2.21802e-06
5.14819e-05
-2.11704e-06
-5.17721e-05
-3.6766e-06
3.39038e-06
-3.05082e-06
5.20748e-05
7.82254e-07
-1.75646e-06
-5.8379e-07
-2.63016e-07
-4.25676e-07
-4.48368e-07
-2.8904e-08
-2.53277e-08
-3.25601e-08
4.05669e-06
-1.62269e-06
-6.57397e-07
-6.20037e-08
-6.79954e-08
-7.37233e-08
-6.05818e-08
-7.73165e-07
-3.63998e-07
-4.8966e-07
2.77686e-07
-1.2527e-07
-5.77408e-06
-3.27265e-06
2.19199e-07
7.80404e-06
-3.74629e-06
-8.4074e-07
-1.06109e-06
-6.99392e-07
-1.19174e-06
6.02461e-06
-1.34212e-06
-3.20271e-06
-5.23878e-08
-3.30491e-08
-6.2436e-08
-2.72337e-08
-1.08495e-06
-1.00758e-06
-7.38962e-07
2.0786e-07
7.27208e-08
-5.40654e-07
-1.59117e-07
-7.04454e-08
4.59913e-08
6.06533e-08
-3.42924e-08
-4.20917e-08
1.15315e-06
-6.07436e-07
5.54554e-08
-5.08495e-08
4.61521e-07
-1.22981e-06
5.37638e-06
-4.07832e-07
-2.63224e-06
-3.2798e-06
-3.32128e-06
-2.60133e-06
1.33915e-05
-1.35593e-07
-2.011e-06
-1.46544e-06
-1.45944e-06
-1.99636e-06
8.58571e-06
7.85925e-08
-9.11391e-06
1.09747e-05
8.79721e-08
5.53246e-06
-7.09009e-06
-2.75506e-06
-3.30528e-06
-2.62886e-06
-3.4343e-06
1.40432e-05
4.65235e-06
-3.57688e-06
-5.93795e-06
9.62014e-08
1.45857e-07
1.00813e-07
1.36885e-07
-2.9003e-06
-3.37605e-06
-2.6889e-06
-1.23592e-07
-2.15425e-06
-1.50314e-06
-1.62993e-06
-2.02793e-06
9.42202e-06
-1.77643e-06
5.12438e-08
8.21142e-09
1.07898e-08
5.29035e-08
-1.53564e-06
-2.29415e-06
-2.06421e-06
5.81692e-08
6.61603e-08
5.57313e-08
-4.5561e-08
1.59252e-06
-1.12719e-06
-1.65487e-08
-3.49021e-06
1.00836e-06
4.40632e-08
3.72587e-08
-2.8903e-08
-1.66755e-06
-7.4835e-07
-8.42633e-06
-4.99377e-06
-4.04898e-06
-4.85864e-06
-4.1794e-06
1.97339e-05
-7.05504e-06
-4.33216e-06
2.09223e-07
1.89345e-07
1.77396e-07
2.26008e-07
-4.15173e-06
-5.14579e-06
-4.97563e-06
-2.73844e-07
6.95636e-07
-2.6351e-05
-8.34032e-06
-2.5252e-07
2.73541e-05
-9.54876e-06
-5.86206e-06
-6.64739e-06
-5.72487e-06
-6.79045e-06
2.63508e-05
-6.95566e-06
-8.00333e-06
2.37505e-07
2.78825e-07
2.57283e-07
2.53861e-07
-6.81746e-06
-6.02753e-06
-5.87934e-06
-3.41211e-07
-3.34577e-08
-4.25024e-06
6.40092e-08
-1.2387e-06
8.30506e-08
1.71596e-07
-8.23757e-08
-1.20164e-07
6.85012e-06
-1.52698e-06
-3.70946e-08
8.31872e-08
1.43833e-06
-6.90051e-06
1.03095e-05
-5.86541e-07
-9.72025e-06
-1.07415e-05
-1.08085e-05
-9.65459e-06
4.12721e-05
-7.65649e-07
-8.67068e-06
-7.59123e-06
-7.65488e-06
-8.6054e-06
3.32816e-05
7.02561e-07
-3.39408e-05
3.45621e-05
-1.92092e-07
1.0466e-05
-1.11912e-05
-9.83269e-06
-1.07666e-05
-9.67925e-06
-1.09268e-05
4.17247e-05
8.78595e-06
-1.11239e-05
-9.40827e-06
2.49332e-07
2.64831e-07
2.8544e-07
2.22946e-07
-1.00304e-05
-1.10549e-05
-9.95148e-06
-8.50369e-08
-8.78188e-06
-7.61539e-06
-7.76079e-06
-8.63014e-06
3.37348e-05
-7.94133e-06
2.60506e-07
2.92093e-07
2.6429e-07
2.93887e-07
-7.82702e-06
-8.96241e-06
-8.858e-06
-2.86753e-07
2.09598e-07
8.05837e-08
-1.53759e-07
7.84443e-06
-1.80425e-06
7.68099e-08
-1.11033e-05
1.7455e-06
-2.29585e-08
-2.67802e-08
7.30277e-08
-7.89144e-06
-1.60727e-06
-1.17379e-05
-1.31872e-05
-1.18776e-05
-1.30183e-05
-1.20394e-05
5.01561e-05
-9.88154e-06
-1.22539e-05
1.39473e-07
2.32945e-07
1.88771e-07
1.89495e-07
-1.22128e-05
-1.34002e-05
-1.33699e-05
2.72454e-07
-2.40394e-07
-5.98789e-05
-1.06354e-05
8.26287e-07
5.90613e-05
-1.21161e-05
-1.43405e-05
-1.53438e-05
-1.41715e-05
-1.55187e-05
5.88253e-05
-1.57482e-05
-1.02129e-05
8.30054e-08
7.02968e-08
1.34838e-07
1.27287e-08
-1.57637e-05
-1.45712e-05
-1.45726e-05
7.77544e-07
1.26929e-07
-1.22396e-05
-7.62625e-08
-1.85403e-06
6.33595e-08
7.25638e-07
-6.36051e-08
-6.4763e-07
1.57509e-05
-1.96635e-06
3.49893e-07
-3.01495e-07
1.9346e-06
-1.57678e-05
9.94674e-07
-1.7745e-05
-1.64923e-05
-1.65512e-05
-1.76871e-05
6.70814e-05
-8.64354e-07
-6.9035e-05
6.76002e-05
1.43122e-06
-1.7891e-05
-1.65157e-05
-1.66863e-05
-1.77114e-05
6.76334e-05
-1.69364e-05
-1.52897e-07
-4.34302e-09
-6.31265e-08
-8.76476e-08
-1.69914e-05
-1.81364e-05
-1.82072e-05
1.41682e-06
8.31741e-07
5.89194e-08
-7.52079e-07
1.69588e-05
4.36038e-07
-3.94351e-07
-1.69703e-05
-1.98675e-06
-4.98123e-07
3.27855e-08
-6.5794e-07
3.34909e-07
6.8137e-07
8.97342e-07
-2.39719e-07
-9.53549e-07
6.90337e-09
3.48239e-10
4.69349e-09
1.89405e-09
-2.42021e-07
-1.8665e-07
-1.91986e-07
7.99212e-07
-1.27015e-08
2.26439e-08
-1.07386e-06
-2.02144e-07
-2.47197e-07
-1.98239e-07
-2.53205e-07
9.49374e-09
1.13741e-08
1.21243e-08
8.40573e-09
1.02774e-07
9.9028e-08
-1.34976e-07
-1.03549e-07
-1.45553e-07
4.74206e-07
5.20256e-08
-1.56646e-07
-1.16003e-07
-1.14722e-07
-1.55118e-07
-9.41111e-07
2.52521e-08
2.70923e-07
-2.82614e-08
-6.29668e-08
1.65594e-08
2.27503e-08
4.2096e-09
3.41217e-08
-1.57228e-08
-1.44631e-08
-1.67886e-09
5.09021e-08
-3.77883e-08
-8.05808e-08
-7.52322e-08
-4.53745e-08
3.37461e-07
2.56926e-08
3.81833e-08
2.98355e-08
3.79594e-08
-5.69528e-06
-1.95375e-07
-2.33919e-06
2.17668e-06
2.26842e-06
6.63137e-06
-2.38628e-06
-4.76913e-08
-4.9854e-08
-5.00487e-08
-4.85246e-08
-1.70397e-06
-1.58401e-06
2.51041e-06
2.00306e-07
-2.67412e-07
-2.64377e-06
-1.57993e-06
-1.66349e-06
-1.54498e-06
-1.70213e-06
2.12256e-06
-4.87486e-08
-4.87799e-08
-4.64866e-08
-4.99186e-08
-1.35103e-06
-1.46438e-06
2.3464e-06
-2.51983e-07
-1.46509e-06
-1.31941e-06
-1.34968e-06
-1.43153e-06
-2.45471e-06
2.03157e-06
-4.81355e-06
-1.81997e-07
3.99089e-06
-1.97651e-06
1.80312e-06
-4.15224e-08
-3.93221e-08
-3.72083e-08
-4.25932e-08
-9.2928e-07
-1.02751e-06
1.58949e-07
-2.183e-06
1.98886e-06
-1.94912e-07
-1.03274e-06
-9.11055e-07
-9.32689e-07
-1.0083e-06
1.8397e-06
-4.30394e-08
-4.74079e-08
-4.63005e-08
-4.51176e-08
-1.23848e-06
-1.13233e-06
-2.28089e-07
-1.13355e-06
-1.21279e-06
-1.24169e-06
-1.10784e-06
-1.42886e-05
1.05254e-07
-3.04796e-06
2.98143e-06
2.93563e-06
1.54842e-05
-2.96539e-06
5.44597e-08
6.04017e-08
4.82608e-08
6.57602e-08
-3.96188e-06
-3.81084e-06
3.27406e-06
-1.95749e-07
4.56093e-08
-3.3103e-06
-3.77692e-06
-3.84329e-06
-3.6946e-06
-3.93082e-06
2.88147e-06
4.06043e-08
2.53202e-08
3.10065e-08
3.60808e-08
-3.50826e-06
-3.65725e-06
3.21234e-06
-3.49912e-08
-3.63028e-06
-3.40274e-06
-3.47869e-06
-3.54969e-06
-3.07186e-06
2.93928e-06
-1.311e-05
2.38558e-08
1.19508e-05
-2.83438e-06
2.76098e-06
-8.60426e-10
-1.1872e-08
-7.49644e-09
-4.07393e-09
-2.91823e-06
-3.06179e-06
4.38543e-08
-3.15613e-06
3.07224e-06
-1.63894e-07
-3.04295e-06
-2.83367e-06
-2.89692e-06
-2.97533e-06
2.85212e-06
9.97608e-09
1.45523e-08
1.8474e-08
5.19321e-09
-3.35697e-06
-3.2104e-06
-1.06466e-07
-3.18514e-06
-3.26022e-06
-3.33448e-06
-3.11575e-06
-2.13119e-07
-3.71534e-09
1.85301e-07
-2.3476e-07
1.41243e-08
5.27311e-09
3.20646e-08
1.70796e-08
-2.86705e-08
2.16319e-07
8.52921e-09
2.00535e-08
-5.63606e-08
-6.74285e-07
-7.73808e-07
5.07229e-07
8.20341e-07
2.40491e-08
-1.08296e-06
-2.08255e-07
-2.46713e-07
-1.98028e-07
-2.58986e-07
7.5558e-07
1.02818e-06
-2.61444e-07
-9.91056e-07
-9.50538e-09
-4.23337e-09
-1.05478e-08
-3.7051e-09
-2.48964e-07
-2.09942e-07
-1.98359e-07
5.26815e-07
-1.6494e-07
-1.17201e-07
-1.55439e-07
-1.25505e-07
5.05448e-07
-1.28969e-07
-1.51437e-08
-2.09478e-08
-1.90026e-08
-1.63935e-08
-1.66095e-07
-1.13967e-07
-1.52594e-07
-1.01616e-06
-6.52762e-08
-4.14324e-07
2.44582e-07
-2.20697e-07
5.14934e-08
-4.24359e-08
-1.66353e-08
-2.79426e-08
-3.14966e-08
-2.46918e-09
-6.39813e-09
-6.62636e-09
-2.54867e-07
2.71305e-07
-4.34082e-08
-1.64716e-08
-1.36765e-08
-1.95633e-08
-1.24472e-08
-2.49101e-08
-5.11053e-08
-3.5486e-08
-6.41497e-08
-8.39456e-08
-5.33287e-08
-9.27013e-08
-9.50866e-08
-2.07886e-08
-2.40364e-08
-2.15234e-08
-2.40591e-08
-8.08595e-08
-6.86456e-08
-5.49897e-08
-9.41899e-08
6.22864e-08
1.90871e-08
-2.12703e-08
9.88595e-08
-7.77204e-08
-2.18024e-07
1.09495e-08
-1.17123e-08
1.91696e-07
-2.50815e-07
1.11772e-07
2.02162e-08
-1.15468e-07
-1.39454e-07
-2.30376e-08
-2.28659e-07
-1.22342e-07
1.62873e-08
1.07967e-07
-1.97051e-08
2.35287e-07
-4.29083e-08
6.27421e-08
1.45041e-08
-1.53256e-08
-5.85891e-08
3.27416e-08
4.09953e-10
9.18965e-10
3.38555e-09
1.36988e-08
1.49152e-08
2.72134e-09
5.95346e-08
-1.07937e-08
-9.10487e-10
1.60899e-08
1.01069e-08
-1.18097e-08
-1.32774e-08
-9.0702e-09
1.48503e-08
-1.55934e-08
-5.34945e-08
-8.97859e-08
3.11973e-08
6.24242e-09
-2.41449e-09
2.27528e-07
-2.73805e-08
-8.4131e-08
1.27525e-08
7.42679e-08
-1.33762e-08
-2.24094e-07
3.91588e-09
9.11062e-08
-1.79187e-09
1.91493e-08
1.883e-08
-2.0825e-08
6.67893e-08
4.73795e-08
1.75735e-08
-1.73764e-08
-3.06541e-08
-3.1362e-08
2.21542e-08
-8.31279e-08
-2.47588e-08
8.40399e-08
1.33953e-08
-1.69755e-08
-1.2466e-08
1.81088e-08
1.22088e-06
-1.92299e-06
-5.82508e-08
-1.436e-06
1.37138e-06
-1.21033e-06
-3.01175e-07
-7.48069e-09
-4.13951e-09
-1.70478e-09
-8.99492e-09
-2.9875e-07
-3.62299e-07
-3.59128e-07
2.02979e-08
-1.33724e-06
-1.9158e-08
-3.69924e-07
-3.0078e-07
-3.08453e-07
-3.60419e-07
-1.42149e-06
-4.99787e-07
-1.15374e-08
-1.86385e-08
-1.7299e-08
-1.37665e-08
-4.28328e-07
-4.97154e-07
-4.26426e-07
-1.56715e-06
-6.5468e-08
-4.35117e-07
-4.94313e-07
-5.07169e-07
-4.24383e-07
-1.66248e-06
-2.54124e-06
-9.52329e-08
3.23246e-06
1.62766e-06
-2.98712e-08
-3.59289e-08
-3.48329e-08
-3.19121e-08
-8.32876e-07
-7.43097e-07
1.30166e-07
1.79367e-06
-1.56026e-07
-7.48536e-07
-8.19587e-07
-8.39957e-07
-7.30829e-07
-5.82294e-07
-2.65611e-08
-2.31975e-08
-2.10054e-08
-2.77792e-08
-5.74885e-07
-6.62583e-07
-6.55537e-07
-1.1171e-07
-6.643e-07
-5.68067e-07
-5.82234e-07
-6.47776e-07
-7.70246e-09
-2.92501e-07
-2.42269e-07
-3.14133e-07
-4.93731e-07
2.91124e-07
-2.15058e-08
5.8285e-08
4.32276e-08
-5.54556e-08
-4.57922e-08
4.92419e-08
3.18501e-08
1.98358e-08
2.73296e-07
3.6008e-08
-4.27764e-08
2.86186e-08
-5.7108e-07
-2.58115e-08
-3.37966e-07
1.2603e-06
7.08655e-08
-2.00451e-06
-1.47182e-06
-2.08646e-08
-1.33946e-06
-3.75203e-07
-2.99957e-07
-3.13204e-07
-3.59391e-07
1.47299e-06
-1.21947e-06
-3.2131e-07
1.00084e-08
2.87379e-09
3.3181e-09
1.00726e-08
-3.06696e-07
-3.81963e-07
-3.68688e-07
-1.56734e-06
-4.40062e-07
-4.92788e-07
-4.23064e-07
-5.12749e-07
-1.42811e-06
-5.21679e-07
1.77744e-08
2.54384e-08
2.47957e-08
1.78486e-08
-4.48334e-07
-5.10334e-07
-4.37723e-07
1.22681e-07
-2.61757e-06
-1.68941e-06
1.79177e-06
-1.72752e-07
-1.98782e-06
-7.54237e-07
-8.16659e-07
-7.28206e-07
-8.46379e-07
1.63099e-06
3.30743e-06
-8.64051e-07
-1.81218e-06
4.76846e-08
5.64071e-08
4.9004e-08
5.43204e-08
-8.53648e-07
-7.71664e-07
-7.61855e-07
-6.70154e-07
-5.66171e-07
-6.45563e-07
-5.87408e-07
-6.04336e-07
3.97396e-08
3.34313e-08
3.27804e-08
4.10715e-08
-5.89886e-07
-6.85667e-07
-6.72462e-07
-1.87078e-06
-4.90014e-07
-1.78117e-07
1.01277e-08
1.65255e-07
-1.62913e-08
4.99782e-07
5.24281e-09
-6.68324e-09
-3.08101e-07
-2.43775e-07
-2.85845e-07
1.49385e-08
-1.37264e-07
-1.88183e-08
2.93086e-07
-3.14762e-07
-8.15776e-09
-5.129e-07
2.91185e-07
8.91937e-09
1.22937e-07
5.68632e-07
5.84001e-09
-6.21952e-09
-5.63896e-07
-1.32681e-07
5.49903e-08
7.18928e-09
5.87496e-09
-5.27695e-08
8.42764e-07
-4.46555e-08
6.92831e-09
5.73712e-07
4.75994e-08
2.11052e-09
8.32501e-07
-1.58356e-07
2.35652e-09
1.50466e-07
-8.27782e-07
-2.93724e-09
7.11021e-09
1.14024e-07
-7.62436e-09
-4.8541e-07
6.65709e-09
-1.94693e-09
2.85613e-07
3.49278e-08
1.15797e-08
-9.45268e-08
-1.20827e-08
-2.81186e-07
6.86744e-09
4.93728e-07
-4.16629e-08
8.94075e-10
8.90349e-09
-1.57757e-08
5.79248e-07
-1.91863e-07
-4.0027e-07
-2.73414e-08
2.92242e-08
3.79556e-07
-8.57023e-07
-1.48285e-08
-5.91831e-07
1.44264e-08
-3.3769e-07
-2.28304e-07
5.76964e-09
2.17042e-07
-1.5881e-08
8.4646e-07
4.76873e-08
6.15059e-08
6.99914e-08
-6.73628e-08
6.36775e-08
9.23861e-08
-7.81932e-08
6.99664e-08
7.29177e-08
2.93956e-07
-5.78058e-06
-2.37903e-06
2.21409e-06
2.51258e-06
-3.18554e-07
-2.64884e-06
-1.58745e-06
-1.6563e-06
-1.53829e-06
-1.71024e-06
2.2954e-06
6.72216e-06
-1.75012e-06
-2.42351e-06
9.54287e-08
1.04742e-07
1.00601e-07
9.83969e-08
-1.74077e-06
-1.62794e-06
-1.61895e-06
2.34754e-06
-1.47291e-06
-1.31399e-06
-1.42551e-06
-1.35682e-06
2.14358e-06
-1.39649e-06
9.03041e-08
9.02094e-08
8.61833e-08
9.54642e-08
-1.38205e-06
-1.51088e-06
-1.4974e-06
-2.50319e-06
2.60237e-07
2.06191e-06
-4.89456e-06
-2.182e-06
-2.19494e-07
-1.03967e-06
-9.07659e-07
-1.00444e-06
-9.38875e-07
4.06793e-06
-1.98939e-06
-9.66493e-07
6.78859e-08
6.3977e-08
6.18823e-08
7.08849e-08
-9.52111e-07
-1.06574e-06
-1.05247e-06
-1.14032e-06
-1.20799e-06
-1.10345e-06
-1.24913e-06
-1.27731e-06
7.48699e-08
8.40605e-08
8.0061e-08
7.78646e-08
-1.26755e-06
-1.16868e-06
-1.15936e-06
2.72659e-07
-1.35731e-06
8.84659e-09
-2.50398e-08
1.37763e-06
-2.83814e-07
-5.37553e-07
-4.9476e-08
5.24837e-08
5.22508e-07
-1.74605e-06
4.74518e-07
-4.71689e-08
-1.38545e-06
4.79396e-08
-4.91625e-07
-1.7151e-06
-3.11151e-07
1.66998e-08
3.03119e-07
-3.76711e-08
1.74009e-06
1.24453e-06
-1.90099e-07
2.24327e-09
1.83278e-07
-3.07907e-09
-1.23958e-06
7.67948e-09
6.95483e-09
9.4159e-07
5.72037e-08
9.29614e-07
1.95665e-09
-1.67348e-07
-9.24723e-07
-2.41379e-09
6.24845e-08
1.0463e-08
1.26281e-06
-6.09541e-08
8.95092e-09
7.00932e-09
2.6301e-07
-2.20792e-08
1.2636e-06
-3.36677e-08
3.3974e-08
-9.5471e-07
-4.20278e-07
5.66867e-09
-2.40777e-07
-1.67139e-08
9.44636e-07
-4.22219e-08
-1.27184e-06
4.48534e-08
4.56639e-07
3.546e-09
-4.26496e-09
-1.98275e-07
-1.35214e-06
6.75021e-08
1.97164e-08
6.93078e-09
1.74247e-06
-6.65556e-08
-2.18034e-07
9.69106e-09
2.12301e-07
-1.10277e-08
-1.70978e-06
1.22175e-08
1.37758e-06
9.01775e-09
6.40535e-08
2.58994e-06
-8.64571e-06
-1.75192e-07
-2.67823e-06
7.61621e-06
-2.50583e-06
-4.53996e-08
-4.8496e-08
-4.58459e-08
-4.68997e-08
-1.82997e-06
-1.95585e-06
1.92945e-07
-2.77909e-06
-2.70953e-07
-1.95089e-06
-1.78267e-06
-1.82281e-06
-1.907e-06
-2.59756e-06
-4.1242e-08
-4.09394e-08
-3.90834e-08
-4.40671e-08
-2.21886e-06
-2.08762e-06
-2.88432e-06
-2.63816e-07
-2.07726e-06
-2.16132e-06
-2.21092e-06
-2.03181e-06
-2.78837e-06
-9.71414e-06
-1.4358e-07
1.08179e-05
2.69293e-06
-2.21442e-08
-1.95428e-08
-1.68026e-08
-2.5815e-08
-2.77301e-06
-2.63296e-06
1.00904e-07
2.99283e-06
-2.10566e-07
-2.61553e-06
-2.69665e-06
-2.75821e-06
-2.55854e-06
-2.96413e-08
-3.6501e-08
-3.31536e-08
-3.18467e-08
-2.35568e-06
-2.49157e-06
-2.42773e-07
-2.48008e-06
-2.29064e-06
-2.34182e-06
-2.42479e-06
2.64257e-06
3.36859e-07
-8.74732e-06
-2.74006e-06
-3.33413e-07
-2.78597e-06
-1.95918e-06
-1.77483e-06
-1.83049e-06
-1.89852e-06
7.71222e-06
-2.55056e-06
-1.88322e-06
1.03839e-07
1.0868e-07
1.02287e-07
1.11569e-07
-1.86859e-06
-2.01005e-06
-1.99622e-06
-2.89446e-06
-2.08503e-06
-2.15148e-06
-2.02256e-06
-2.21909e-06
-2.6534e-06
-2.27169e-06
1.06416e-07
1.15779e-07
1.06553e-07
1.14196e-07
-2.13866e-06
-2.26252e-06
-2.12968e-06
3.28855e-07
-9.8201e-06
-2.85476e-06
3.0049e-06
-3.08449e-07
-3.08773e-06
-2.62268e-06
-2.68357e-06
-2.54616e-06
-2.76555e-06
2.75651e-06
1.09285e-05
-2.83153e-06
-2.83565e-06
1.05931e-07
1.15575e-07
1.16911e-07
1.03032e-07
-2.82236e-06
-2.69005e-06
-2.68103e-06
-2.48798e-06
-2.27997e-06
-2.4133e-06
-2.34931e-06
-2.41579e-06
1.06253e-07
1.17008e-07
1.07704e-07
1.17142e-07
-2.40092e-06
-2.55249e-06
-2.53825e-06
-2.92766e-06
-2.23335e-06
-3.43655e-07
3.69863e-08
3.37218e-07
-6.46219e-08
2.26495e-06
-5.2286e-08
5.31888e-08
-1.87282e-06
-5.51841e-07
-1.84083e-06
2.10512e-08
-3.20928e-07
-4.33249e-08
1.86726e-06
-5.89726e-07
-4.6675e-08
-2.2688e-06
5.77388e-07
4.96832e-08
2.41996e-07
2.36936e-06
3.32536e-08
-3.5201e-08
-2.36329e-06
-2.48368e-07
7.19097e-08
6.37224e-08
-2.08252e-08
-7.17606e-08
2.8373e-06
-7.0487e-08
4.28913e-08
2.40921e-06
7.10616e-08
-6.24471e-09
2.78911e-06
-2.61909e-07
5.51016e-08
2.5836e-07
-2.78275e-06
-5.80336e-08
2.69188e-08
2.37369e-07
-2.89576e-08
-2.22756e-06
2.33271e-08
5.3289e-09
1.87042e-06
6.85137e-08
1.3295e-08
-2.25336e-07
-1.45385e-08
-1.83524e-06
3.70127e-08
2.27079e-06
-6.99995e-08
-2.51334e-09
4.42498e-08
-7.33041e-08
2.4025e-06
-3.5205e-07
-6.31389e-07
-3.23769e-08
3.50495e-08
6.2167e-07
-2.82974e-06
-4.68013e-08
-2.4061e-06
4.75575e-08
-6.01266e-07
-3.70235e-07
6.89808e-08
3.65394e-07
-1.03941e-07
2.82781e-06
1.75676e-07
-1.44081e-05
-3.13919e-06
3.06949e-06
3.29618e-06
-1.08712e-07
-3.33483e-06
-3.78045e-06
-3.82262e-06
-3.67472e-06
-3.93409e-06
3.03382e-06
1.56052e-05
-4.02827e-06
-3.07112e-06
6.88935e-08
8.06075e-08
8.74399e-08
6.01583e-08
-4.0188e-06
-3.8767e-06
-3.86715e-06
3.23294e-06
-3.63496e-06
-3.38495e-06
-3.53084e-06
-3.48339e-06
2.97361e-06
-3.57844e-06
7.50457e-08
9.90244e-08
8.25695e-08
9.3429e-08
-3.56301e-06
-3.72814e-06
-3.71278e-06
-3.16905e-06
2.316e-07
3.01926e-06
-1.32275e-05
-3.17359e-06
-2.76189e-07
-3.04965e-06
-2.81964e-06
-2.96037e-06
-2.90339e-06
1.20648e-05
-2.9165e-06
-2.98403e-06
9.66239e-08
1.13856e-07
1.01182e-07
1.11082e-07
-2.9688e-06
-3.12831e-06
-3.11351e-06
-3.19087e-06
-3.24349e-06
-3.09979e-06
-3.3402e-06
-3.42007e-06
9.32934e-08
1.03651e-07
8.73125e-08
1.07863e-07
-3.41077e-06
-3.27253e-06
-3.26322e-06
3.90976e-07
-3.52222e-06
1.25815e-07
-1.70213e-07
3.57023e-06
-3.96661e-07
-6.85932e-07
3.06296e-08
-2.95953e-08
6.80768e-07
-4.02839e-06
6.63221e-07
-6.93469e-10
-3.57028e-06
3.09353e-10
-6.69651e-07
-3.97585e-06
-4.06186e-07
1.67125e-07
4.04297e-07
-2.18078e-07
4.02984e-06
3.37279e-06
-2.77695e-07
9.43464e-08
2.75234e-07
-9.83579e-08
-3.36578e-06
7.20075e-08
-2.68591e-08