/*--------------------------------*- C++ -*----------------------------------*\
| =========                 |                                                 |
| \\      /  F ield         | OpenFOAM: The Open Source CFD Toolbox           |
|  \\    /   O peration     | Version:  2012                                  |
|   \\  /    A nd           | Website:  www.openfoam.com                      |
|    \\/     M anipulation  |                                                 |
\*---------------------------------------------------------------------------*/
FoamFile
{
    version     2.0;
    format      ascii;
    class       volScalarField;
    location    "0.104/fluid";
    object      p;
}
// * * * * * * * * * * * * * * * * * * * * * * * * * * * * * * * * * * * * * //

dimensions      [0 2 -2 0 0 0 0];


internalField   nonuniform List<scalar> 
16422
(
0.0550132
0.0540816
0.0539522
0.0535999
0.0535464
0.0536621
0.0539464
0.0544307
0.0551706
0.0561992
0.0576282
0.0597929
0.0637969
0.0711722
0.0470489
0.0549899
0.054027
0.0538491
0.0534349
0.0533047
0.0533193
0.0534436
0.0536901
0.0540514
0.0544804
0.0548902
0.0551205
0.0545578
0.0504194
0.0343352
0.054977
0.0539944
0.0537798
0.0533241
0.0531447
0.0530911
0.0531128
0.0532011
0.0533049
0.053301
0.0529515
0.051808
0.0489359
0.042669
0.031974
0.0548685
0.0540515
0.0539103
0.0535427
0.0534681
0.053555
0.0537894
0.0541963
0.0548106
0.0556791
0.0569121
0.0588783
0.0628621
0.071859
0.0723814
0.0548473
0.0539973
0.0538089
0.0533804
0.0532305
0.053216
0.0533026
0.0534865
0.0537512
0.05406
0.0543623
0.0545798
0.0543676
0.0516411
0.0382472
0.0548331
0.0539645
0.0537414
0.0532717
0.0530725
0.0529914
0.0529809
0.0530157
0.0530401
0.0529423
0.0525194
0.0513756
0.0486793
0.0428376
0.0324973
0.0548237
0.0539775
0.0538089
0.0534076
0.0532867
0.0533022
0.0534233
0.0536606
0.0540341
0.0545833
0.0554394
0.0571645
0.0619104
0.0769449
0.099335
0.0548052
0.0539253
0.0537096
0.0532492
0.0530561
0.0529778
0.0529677
0.0530098
0.0530801
0.0531465
0.0531888
0.0532763
0.0535017
0.0526202
0.0413987
0.0547928
0.0538938
0.0536436
0.0531435
0.052903
0.0527622
0.0526657
0.0525766
0.0524365
0.0521416
0.0515218
0.0502684
0.047711
0.0423749
0.0324579
0.0938873
-0.103474
0.0952598
-0.0688383
0.108423
-0.0642196
0.140623
-0.0574508
0.152013
-0.0599524
0.0794472
0.0941929
0.0730484
0.0901921
0.198683
0.162224
-0.108018
0.0344082
0.0113199
0.0631051
-0.0804951
0.0379039
0.0139303
0.0774414
0.100274
0.0814834
0.121263
0.152522
0.160273
-0.0703641
0.0404103
0.0164697
0.0930484
-0.0623299
0.0451797
0.0175721
0.0833606
0.129516
0.216604
0.231632
-0.0629579
0.0462879
0.0178225
0.137464
0.0656328
0.0844367
0.136005
0.0768099
-0.036512
-0.0865
-0.0263452
0.136023
0.132484
0.0909153
0.152103
0.0979638
0.146787
0.0861319
-0.0854804
0.0124899
-0.00715304
0.170273
0.11499
0.117046
0.182998
0.129573
0.0204793
-0.0558633
0.041482
0.195236
0.182165
0.131046
0.218883
0.160021
0.203222
0.146715
-0.0544903
0.0634148
0.0480678
0.237752
0.173557
0.159645
0.252668
0.183572
0.0676235
-0.0714543
0.076161
0.246886
0.164724
0.265012
0.190725
-0.0754056
0.0778787
0.0998951
0.0251978
0.274379
0.0548103
0.268547
0.0898475
0.13003
0.199564
0.268168
0.11951
0.101866
0.335862
0.0904348
0.319802
0.131322
0.117068
0.0795748
0.298921
0.110465
0.0872568
0.309645
0.209105
0.210719
0.459558
0.19449
0.442434
0.222047
0.199452
0.166576
0.411605
0.187764
0.181351
0.427962
-0.13017
-0.513445
-0.419166
-0.471186
0.11609
0.268397
0.105354
0.273306
0.0964792
0.114429
0.0207424
0.222086
-0.0234973
0.165528
0.123627
0.10216
-0.20511
0.0202096
-0.00202031
-0.190628
-0.22869
-0.212707
-0.234082
-0.204407
-0.226764
-0.2227
-0.213988
-0.236583
-0.209135
-0.0449369
-0.0351163
-0.182176
0.0925362
0.0451793
0.258555
0.0765325
0.0586871
0.270866
0.0898038
0.0654213
0.287009
0.0971577
0.0568719
0.276209
-0.102395
-0.0815962
-0.386706
-0.384598
-0.401389
-0.386168
-0.0859985
0.131849
0.279622
0.119732
0.129841
0.285083
0.127603
0.14078
0.307087
0.158463
0.292638
0.142936
0.153983
-0.161409
0.0267617
-0.183049
0.0437778
-0.180319
-0.184707
-0.197338
-0.160693
-0.187238
-0.217256
-0.207277
-0.201611
-0.153716
0.073912
0.0510308
-0.132319
-0.387351
-0.3946
-0.403948
-0.39685
0.184282
0.360242
0.215017
0.343512
0.199985
0.197284
0.174564
0.32017
0.172416
0.331945
0.164985
0.186148
-0.102008
0.128735
0.107953
-0.0869877
-0.138406
-0.181073
-0.154909
-0.172733
-0.107495
0.0809552
-0.126003
0.10169
-0.133712
-0.168134
-0.1213
-0.170937
0.15423
0.11589
0.350428
0.144751
0.127332
0.364789
0.16096
0.150887
0.395727
0.174517
0.136112
0.377831
0.21954
0.37546
0.228287
0.208556
0.390536
0.24171
0.229258
0.421591
0.267417
0.404077
0.254048
0.241342
-0.072212
0.134966
-0.0828983
0.152843
-0.108615
-0.180782
-0.172494
-0.105254
-0.110292
-0.167846
-0.118046
-0.170813
-0.0695378
0.174257
0.157873
-0.0628358
0.270791
0.483422
0.311885
0.46729
0.301123
0.280472
0.262034
0.437182
0.279
0.45324
0.251654
0.290812
-0.0581274
0.207869
0.196248
-0.0577642
-0.105545
-0.183919
-0.104924
-0.196323
-0.0584887
0.178942
-0.0614194
0.192547
-0.106311
-0.215245
-0.109524
-0.200618
0.24339
0.226243
0.474054
0.233487
0.241025
0.487964
0.251289
0.254059
0.49898
0.29447
0.496919
0.320824
0.28804
0.509708
0.328959
0.298964
0.519546
0.335192
-0.058963
0.210961
-0.058018
0.219473
-0.116167
-0.237236
-0.114961
-0.219792
-0.110848
-0.233727
-0.0593244
0.221574
0.143319
-0.0326804
0.490497
-0.0355311
0.500355
0.139436
0.118977
0.190236
-0.141743
0.187072
-0.576172
-0.511411
-0.536742
0.223424
0.0629492
0.599868
0.0533737
0.585486
0.233034
0.192793
0.0160582
0.539955
0.188621
0.0215085
0.545072
-0.512354
-0.518036
-0.552566
-0.542708
0.35948
0.222029
0.777763
0.208831
0.762273
0.371084
0.314374
0.146096
0.697033
0.307053
0.155494
0.70511
-0.581381
-0.582081
-0.58333
-0.583071
-0.513589
-0.288956
-0.304117
-0.495852
-0.729398
-0.616941
-0.667136
-0.561739
-0.587809
-0.640852
-0.617206
-0.235151
0.173895
0.483846
0.0313015
0.467641
0.0171649
0.194217
-0.00724204
0.185721
-0.117116
0.160616
-0.112205
-0.0281371
-0.326888
-0.17801
-0.195842
-0.305927
-0.403357
-0.325634
-0.349261
-0.374336
-0.419027
-0.350167
-0.406556
-0.361527
-0.310617
-0.119239
-0.297795
-0.296212
0.150973
-0.0317533
0.488183
0.13888
-0.0253144
0.493578
0.173459
0.00739917
0.530625
0.18094
-0.000133128
0.519429
-0.472144
-0.284183
-0.486465
-0.272137
-0.606495
-0.552118
-0.543195
-0.613795
-0.614663
-0.557534
-0.631497
-0.542616
-0.443721
-0.241461
-0.24945
-0.437567
0.201912
0.486433
0.041858
0.19953
0.487204
0.0497419
0.235256
0.531603
0.108537
0.519411
0.0977331
0.244963
-0.278862
-0.170314
-0.296753
-0.151026
-0.352151
-0.305283
-0.310252
-0.343353
-0.386856
-0.347427
-0.401531
-0.333612
-0.224186
-0.0886796
-0.103127
-0.206356
-0.295466
-0.311772
-0.311105
-0.322374
-0.508663
-0.499943
-0.509831
-0.495671
-0.272197
-0.276441
-0.309504
-0.296345
-0.41312
-0.195338
-0.205558
-0.405205
-0.618892
-0.555079
-0.561023
-0.613975
-0.429
-0.235595
-0.226916
-0.433881
-0.635058
-0.593921
-0.583999
-0.642829
0.2991
0.607662
0.187144
0.593557
0.175964
0.309467
0.258634
0.540819
0.116708
0.546562
0.252136
0.125078
-0.13917
-0.0114532
-0.0251479
-0.125354
-0.332777
-0.303637
-0.340461
-0.297797
-0.18603
-0.0843074
-0.201424
-0.0703088
-0.318157
-0.297043
-0.31682
-0.293773
0.246785
0.0719159
0.611059
0.241362
0.0792074
0.617327
0.286665
0.135983
0.685443
0.298196
0.123409
0.669345
-0.393311
-0.191156
-0.40161
-0.179243
-0.651571
-0.620077
-0.614854
-0.65312
-0.646473
-0.596192
-0.643015
-0.60136
-0.363283
-0.131467
-0.146077
-0.349687
0.324672
0.618089
0.195608
0.317193
0.625346
0.204281
0.366679
0.69484
0.264409
0.679674
0.253112
0.377216
-0.108473
-0.00771951
-0.121116
0.00560919
-0.325169
-0.329927
-0.31935
-0.330613
-0.31631
-0.297596
-0.316288
-0.299766
-0.0749217
0.056922
0.0443934
-0.0628652
-0.270998
-0.265828
-0.26849
-0.264475
-0.58072
-0.575405
-0.555189
-0.560434
-0.305561
-0.294187
-0.26934
-0.272222
-0.286929
-0.0513371
-0.06797
-0.269143
-0.651206
-0.620401
-0.620871
-0.652264
-0.33221
-0.126554
-0.112049
-0.344927
-0.641617
-0.620395
-0.620346
-0.637937
0.432754
0.784522
0.336423
0.770205
0.326203
0.442192
0.392456
0.705695
0.272758
0.71397
0.384868
0.281053
-0.0271725
0.115207
0.104625
-0.018347
-0.339238
-0.332593
-0.332103
-0.34159
-0.0520412
0.0602008
-0.0596124
0.0718678
-0.361966
-0.389488
-0.370982
-0.37557
0.38732
0.232664
0.788615
0.379667
0.242948
0.79689
-0.245987
-0.0459115
-0.262853
-0.0299454
-0.627671
-0.618785
-0.634997
-0.613459
0.455608
0.794756
0.344007
0.448998
0.802829
0.35151
-0.00900786
0.118129
-0.0155926
0.127935
-0.381891
-0.392824
-0.372756
-0.40354
-0.308578
-0.318202
-0.36946
-0.354821
-0.582127
-0.577375
-0.373266
-0.384584
0.152825
-0.0507742
0.523916
0.129187
-0.0278187
0.519135
0.17187
-0.0181771
0.507829
0.117037
0.0301771
0.45395
0.0831583
-0.13328
-0.539868
-0.61571
-0.607246
-0.593455
-0.549254
0.21621
0.0398537
0.569317
0.209898
0.0459973
0.575582
0.198072
0.0358189
0.56339
0.206427
0.0278033
0.552482
-0.530392
-0.522166
-0.533572
-0.539599
0.350358
0.187855
0.74191
0.342165
0.197863
0.750543
0.323039
0.178331
0.731706
0.334469
0.166022
0.71648
-0.585323
-0.58271
-0.585072
-0.583414
-0.640706
-0.708756
-0.733575
-0.616687
-0.518085
-0.334388
-0.296812
-0.545218
-0.651567
-0.790115
-0.751147
-0.687788
-0.726214
-0.599746
-0.72877
-0.669707
-0.645282
-0.734952
-0.764143
-0.857035
-0.756953
-0.795411
-0.758405
-0.836215
-0.759011
-0.862632
-0.687317
-0.694345
-0.719373
-0.662058
-0.679279
-0.644004
-0.601631
-0.716208
-0.700954
-0.773974
-0.735864
-0.739119
-0.56811
-0.315812
-0.233054
-0.548666
-0.799434
-0.206961
-0.805393
-0.872588
-0.729017
-0.810879
-0.70933
-0.856525
-0.842973
-0.862203
0.172295
0.488694
-0.013165
0.465442
0.185837
0.00587111
0.140992
0.507624
-0.044329
0.431999
0.16997
-0.10335
-0.427432
-0.466678
-0.481417
-0.409304
-0.336538
-0.251584
-0.203082
-0.341662
-0.434401
-0.490607
-0.488535
-0.44441
-0.412376
-0.385143
-0.433527
-0.363348
-0.422106
-0.395086
-0.439279
-0.381292
-0.430624
-0.474766
-0.4507
-0.452188
-0.437632
-0.452287
-0.466683
-0.424519
-0.423618
-0.377444
-0.432978
-0.36177
-0.442828
-0.475205
-0.472905
-0.450135
-0.313106
-0.252067
-0.27327
-0.327551
-0.404096
-0.403062
-0.4493
-0.350008
-0.417931
-0.488719
-0.444391
-0.462078
0.156207
-0.0126856
0.505671
0.162601
-0.0196922
0.49947
0.168312
-0.0101338
0.509324
0.164058
-0.00554588
0.512593
-0.588626
-0.695485
-0.605464
-0.677396
-0.46519
-0.259308
-0.267456
-0.454695
-0.58159
-0.658614
-0.668135
-0.570931
-0.606018
-0.540257
-0.605397
-0.540729
-0.6222
-0.639523
-0.63869
-0.627388
-0.622511
-0.643415
-0.622062
-0.640911
-0.634324
-0.681796
-0.652039
-0.663688
-0.611296
-0.538255
-0.605852
-0.542809
-0.629979
-0.647199
-0.655995
-0.62354
-0.446352
-0.258452
-0.252138
-0.451276
-0.558874
-0.64691
-0.646998
-0.554595
-0.5615
-0.653683
-0.567578
-0.650018
0.205713
0.498272
0.068483
0.490135
0.213085
0.058222
0.227128
0.504611
0.0783766
0.51058
0.219799
0.0878294
-0.380045
-0.457679
-0.400027
-0.440194
-0.27233
-0.130754
-0.145871
-0.253809
-0.372994
-0.417365
-0.433501
-0.355281
-0.355375
-0.321086
-0.366642
-0.3115
-0.365709
-0.366856
-0.380123
-0.355842
-0.369438
-0.399729
-0.381354
-0.385218
-0.403648
-0.44444
-0.418885
-0.427408
-0.382455
-0.323284
-0.370648
-0.33158
-0.398731
-0.405652
-0.421105
-0.385908
-0.230466
-0.124664
-0.108712
-0.247177
-0.325064
-0.376017
-0.390286
-0.30882
-0.331203
-0.411064
-0.348657
-0.395791
-0.34417
-0.325112
-0.336924
-0.321028
-0.49626
-0.496652
-0.493123
-0.497304
-0.286044
-0.277152
-0.287575
-0.295177
-0.415627
-0.216332
-0.208636
-0.419518
-0.533609
-0.639362
-0.64021
-0.527998
-0.535637
-0.641867
-0.539491
-0.64163
-0.632092
-0.637815
-0.627674
-0.638878
-0.620352
-0.572672
-0.564385
-0.627
-0.633089
-0.63951
-0.637853
-0.638501
-0.426857
-0.216874
-0.224294
-0.420958
-0.546945
-0.644474
-0.551365
-0.644361
-0.544976
-0.643009
-0.541241
-0.642547
-0.645053
-0.639828
-0.639354
-0.650663
-0.633817
-0.575267
-0.581279
-0.629012
-0.644342
-0.638947
-0.6402
-0.639409
0.290493
0.575286
0.156459
0.58298
0.282556
0.166027
0.265846
0.567135
0.146449
0.554908
0.275187
0.13469
-0.143922
-0.0449383
-0.0297212
-0.158955
-0.242331
-0.313304
-0.322393
-0.230193
-0.247233
-0.337088
-0.262147
-0.325922
-0.344085
-0.362461
-0.352593
-0.350259
-0.330423
-0.295933
-0.32509
-0.296852
-0.341277
-0.3354
-0.346187
-0.334681
-0.180782
-0.0499484
-0.0654373
-0.164529
-0.287104
-0.371246
-0.303521
-0.357796
-0.282087
-0.341285
-0.267335
-0.353325
-0.325733
-0.311467
-0.319027
-0.322943
-0.319193
-0.295252
-0.323213
-0.29342
-0.327238
-0.331686
-0.322064
-0.332361
0.254159
0.0985087
0.641461
0.264572
0.0879545
0.627458
0.278008
0.105544
0.649985
0.270402
0.113904
0.657883
-0.517487
-0.637353
-0.525065
-0.634559
-0.390168
-0.164433
-0.175782
-0.37962
-0.514619
-0.628822
-0.632411
-0.506366
-0.651871
-0.611292
-0.650723
-0.613755
-0.656258
-0.620805
-0.625805
-0.656372
-0.657011
-0.631767
-0.656225
-0.628141
-0.654047
-0.638497
-0.651103
-0.6372
-0.647054
-0.610182
-0.650718
-0.603454
-0.65431
-0.633474
-0.635685
-0.656584
-0.367452
-0.161983
-0.150237
-0.376342
-0.490673
-0.61206
-0.618534
-0.479362
-0.494405
-0.626629
-0.503479
-0.621436
0.332569
0.649835
0.225299
0.63574
0.342667
0.21384
0.358154
0.659559
0.234656
0.668202
0.350162
0.243638
-0.214096
-0.310431
-0.226205
-0.302514
-0.105248
0.0233116
0.00976851
-0.0920281
-0.210383
-0.293566
-0.299958
-0.199288
-0.323944
-0.310471
-0.319714
-0.316715
-0.324696
-0.28861
-0.290405
-0.328571
-0.324009
-0.294723
-0.321524
-0.291445
-0.320867
-0.309082
-0.322029
-0.302891
-0.316429
-0.308714
-0.319114
-0.301238
-0.32051
-0.296285
-0.300889
-0.321412
-0.07832
0.0273405
0.0405703
-0.0878204
-0.182868
-0.280865
-0.284587
-0.173536
-0.186017
-0.291389
-0.195542
-0.286252
-0.265169
-0.265321
-0.264836
-0.263745
-0.571224
-0.573987
-0.569807
-0.562999
-0.284312
-0.291173
-0.282233
-0.274065
-0.292098
-0.088221
-0.0731281
-0.306102
-0.42064
-0.558111
-0.569287
-0.404846
-0.425783
-0.584083
-0.439876
-0.573857
-0.653484
-0.617967
-0.655246
-0.611581
-0.650105
-0.62353
-0.621134
-0.648728
-0.651949
-0.600993
-0.608412
-0.649387
-0.327425
-0.0924704
-0.107422
-0.311858
-0.462808
-0.608564
-0.475091
-0.600741
-0.458351
-0.588075
-0.444732
-0.596972
-0.640696
-0.575042
-0.584793
-0.635901
-0.643843
-0.622947
-0.621065
-0.646936
-0.643377
-0.597502
-0.588852
-0.647237
0.424952
0.750056
0.309288
0.758851
0.417463
0.31747
0.40033
0.73971
0.300896
0.725143
0.41025
0.290056
-0.0297116
0.090279
0.101367
-0.0357432
-0.142456
-0.272733
-0.272758
-0.136284
-0.144666
-0.274004
-0.150228
-0.273285
-0.334853
-0.287992
-0.329575
-0.287349
-0.341147
-0.357773
-0.348781
-0.344953
-0.336213
-0.287562
-0.287128
-0.342309
-0.0492127
0.0870615
0.0752899
-0.0390059
-0.163184
-0.279641
-0.170651
-0.277106
-0.160633
-0.274701
-0.153124
-0.276209
-0.352227
-0.290626
-0.288738
-0.359522
-0.359862
-0.361006
-0.35066
-0.371847
-0.350756
-0.287511
-0.288661
-0.343753
0.395496
0.266319
0.820565
0.405622
0.25377
0.807341
0.41942
0.276222
0.829848
0.412863
0.285768
0.836576
-0.382353
-0.552943
-0.399079
-0.54028
-0.239589
-0.00794118
-0.0244368
-0.221165
-0.375931
-0.521038
-0.534607
-0.359326
-0.602366
-0.605631
-0.613651
-0.596044
-0.59801
-0.535803
-0.609014
-0.521518
-0.62549
-0.570411
-0.63258
-0.559236
-0.624136
-0.608493
-0.618155
-0.611575
-0.621457
-0.541776
-0.554028
-0.614009
-0.197148
-0.00232884
0.0127455
-0.214973
-0.334461
-0.514622
-0.3529
-0.499125
0.462037
0.824903
0.368283
0.812762
0.46967
0.359148
0.480096
0.833733
0.374925
0.840197
0.475093
0.381115
-0.128305
-0.272212
-0.133944
-0.272439
-0.00623055
0.14019
0.131012
4.36052e-06
-0.126041
-0.272037
-0.271767
-0.121081
-0.399585
-0.422464
-0.392805
-0.430132
-0.380339
-0.293869
-0.375296
-0.294953
-0.367731
-0.290664
-0.360707
-0.29266
-0.383409
-0.419878
-0.392106
-0.40692
-0.368427
-0.294526
-0.29248
-0.375362
0.00853985
0.143219
0.151253
0.00273717
-0.112839
-0.270936
-0.118538
-0.270621
-0.335624
-0.321971
-0.339276
-0.350647
-0.570413
-0.561301
-0.572847
-0.575922
-0.405163
-0.413473
-0.402014
-0.388487
-0.198632
-0.181065
-0.109313
-0.0958117
-0.0600023
-0.200066
-0.218061
-0.180723
-0.0744946
-0.150399
-0.0553652
-0.063165
-0.157967
-0.170909
-0.154167
-0.143914
-0.0498317
-0.0602502
-0.0445678
-0.161768
-0.138839
-0.135633
-0.055474
-0.138658
-0.0291209
-0.0294898
-0.13523
-0.135505
-0.138593
-0.143233
-0.0291109
-0.0634143
-0.0302889
-0.136601
-0.148791
-0.154785
-0.0822139
-0.0399506
-0.180075
0.150547
0.115252
0.095895
0.136637
0.602752
0.562614
0.929805
0.569357
0.917945
0.606885
0.149651
0.184627
0.060876
0.13571
0.0270241
0.215159
0.0977583
-0.0627198
-0.097772
-0.0337156
0.0125133
-0.00702609
-0.00452919
0.00561565
-0.0888098
-0.0151
-0.026865
0.0169092
0.00186048
4.30064e-05
0.0207837
0.725461
0.724098
1.09889
0.712587
1.0677
0.743793
0.655877
0.63206
0.996769
0.661148
0.63493
0.981023
-0.00377176
-0.0667811
0.00391964
0.0305304
0.00728109
0.0269961
0.00825365
-0.0615238
0.0168459
0.0123921
0.0354256
0.0104535
0.0111414
0.0375771
0.970716
1.01437
1.38755
1.00219
1.35586
0.988847
0.864744
0.869903
1.24733
0.867764
0.87747
1.23194
0.0207919
-0.0658514
0.0225495
0.0400598
0.00994321
0.0397005
0.00790263
-0.0684966
0.0230304
0.0393336
0.00555469
0.632808
0.903413
0.625731
0.885294
0.620693
0.646508
0.152083
0.192062
0.0587616
0.187429
0.114141
0.157229
-0.171949
-0.168998
-0.130884
-0.0430614
-0.0499525
-0.155802
-0.280343
-0.222553
-0.10029
-0.180804
-0.0763239
-0.0923318
-0.209283
-0.191122
-0.169576
-0.0352229
-0.0195116
-0.0671941
-0.0706123
-0.0243066
-0.167158
0.596834
0.565193
0.930892
0.605496
0.562677
0.910266
0.638972
0.62092
0.98901
0.653989
0.613047
0.96163
0.639223
0.90325
0.632854
0.648934
0.881974
0.62805
0.698687
0.96757
0.716941
0.938902
0.706442
0.717014
-0.191134
-0.078043
-0.175108
-0.0742804
-0.0693705
-0.201226
-0.165494
-0.131025
-0.0347705
0.00324198
0.0171838
-0.0428353
0.00422507
-0.119329
-0.143327
-0.015004
-0.0543883
-0.00493791
-0.0522432
-0.15178
-0.00687477
0.802557
1.08376
0.844213
1.05043
0.832328
0.823211
0.716714
0.975047
0.723889
0.958531
0.722616
0.72813
-0.0988492
-0.02753
0.0286071
0.0270316
-0.021206
-0.108259
0.0385403
-0.148332
-0.0578819
-0.133202
-0.0364953
-0.0403623
-0.143031
-0.135544
-0.0906465
0.0587446
0.0336159
-0.00895113
-0.0150194
0.0479175
-0.0822666
0.747984
0.733406
1.10961
0.750605
0.740035
1.09269
0.839768
0.860154
1.23745
0.859919
0.847155
1.20376
0.822886
1.09327
0.85217
0.830269
1.07462
0.857209
0.920061
1.22178
0.983957
1.1862
0.971747
0.941694
-0.136462
-0.054473
-0.132187
-0.0330671
-0.0308893
-0.139011
-0.132869
-0.0649467
0.00649416
0.0582139
0.0909317
0.0036408
0.0833146
-0.0607975
-0.0692856
0.068211
-0.00386878
0.0534576
0.00014662
-0.0750557
0.0763438
1.043
1.36581
1.12734
1.33361
1.11626
1.06241
0.942276
1.23092
0.992924
1.21319
0.949061
0.998468
-0.0558234
0.00873171
0.0972746
0.0708756
0.00986488
-0.0578609
0.102707
-0.141676
-0.0671839
-0.161863
-0.0338379
-0.0316713
-0.144835
-0.155217
-0.0548568
0.111655
0.073621
0.0109874
0.010813
0.10713
-0.0539484
0.99493
1.02394
1.39671
0.99611
1.03194
1.38382
1.06472
1.37454
1.13556
1.06879
1.35994
1.14198
-0.151847
-0.0792614
-0.168688
-0.035787
-0.0382149
-0.148591
-0.174845
-0.0543409
0.0791961
0.00995647
0.119151
-0.0540418
0.114922
0.0111434
0.0785246
0.0102111
-0.0539316
0.117399
0.652269
0.659927
1.00266
0.656668
0.629034
0.971105
0.648803
0.762496
1.07281
0.709358
0.717205
0.9819
0.184946
0.168974
0.139684
0.196962
0.125958
0.203723
0.160681
0.077903
0.00533791
0.0240374
-0.0264499
0.139535
0.168189
0.0929692
0.145068
0.694573
0.673825
1.04464
0.699085
0.676299
1.02924
0.680459
0.670662
1.03963
0.696079
0.663032
1.01247
0.928468
0.9448
1.32053
0.930357
0.952121
1.30681
0.904824
0.936575
1.31219
0.92368
0.924638
1.27926
-0.670979
-0.63484
-0.421902
-0.619433
-0.683323
-0.582969
-0.0764784
-0.147607
-0.311754
-0.0890419
-0.321799
-0.568378
-0.597064
-0.333655
-0.146645
-0.0784926
-0.0708428
-0.355702
-0.600036
-0.647147
-0.374796
-0.580443
-0.380379
-0.593446
-0.632365
-0.703052
-0.704491
-0.712385
-0.715327
-0.65574
-0.610602
-0.570058
-0.684236
-0.625578
-0.63086
-0.61258
-0.642633
-0.574561
-0.493367
-0.433732
-0.451361
-0.506076
-0.463992
-0.558841
-0.597553
-0.540408
-0.460397
-0.526995
-0.610675
-0.495342
-0.601953
-0.573931
-0.588463
-0.585465
-0.746634
-0.708829
-0.750083
-0.729038
-0.612968
-0.174643
-0.21871
-0.65335
0.63302
0.9456
0.643823
0.906395
0.649032
0.587076
0.631659
1.0318
0.730536
0.942334
0.696549
0.698207
-0.460652
-0.401287
-0.190159
-0.2048
-0.394719
-0.19157
-0.469254
-0.417821
0.0463461
0.00228668
-0.135568
0.0250761
-0.150552
-0.397163
-0.433765
-0.154773
0.00082132
0.0118997
0.0191251
-0.161379
-0.439445
-0.44944
-0.19769
-0.373803
-0.172193
-0.386801
-0.181802
-0.434496
-0.398397
-0.400222
-0.260631
-0.223762
-0.250822
-0.416281
-0.385328
-0.369754
-0.27577
-0.228107
-0.22238
-0.234163
-0.314937
-0.312588
-0.377482
-0.25156
-0.225922
-0.337331
-0.241707
-0.397522
-0.316911
-0.391211
-0.220875
-0.229117
-0.314885
-0.240871
-0.379384
-0.328217
-0.389405
-0.386166
-0.227545
-0.257052
-0.381156
-0.395174
-0.257447
-0.356896
-0.291103
-0.238378
-0.227281
-0.243087
-0.348287
-0.298314
-0.38328
-0.220519
-0.362604
-0.244083
-0.374668
-0.249882
-0.373036
-0.362612
-0.253092
-0.308654
-0.233935
-0.368339
-0.251714
-0.304802
-0.457507
-0.409397
-0.201415
-0.211694
-0.476286
-0.395378
-0.213058
-0.371656
0.0170394
-0.0826203
-0.217534
-0.130074
-0.139181
-0.372475
-0.429253
-0.188926
0.0174611
-0.0351688
0.0193333
-0.444681
-0.204118
-0.401253
-0.208226
-0.309899
-0.188058
-0.375866
-0.184966
-0.349722
0.610032
0.587327
0.946814
0.622282
0.583083
0.924413
0.618208
0.590118
0.951266
0.624188
0.590223
0.934689
-0.583328
-0.312893
-0.527539
-0.320292
-0.534151
-0.575818
-0.53302
-0.0621337
-0.277335
-0.0923187
-0.540605
-0.057581
-0.270293
-0.592263
-0.334982
-0.550088
-0.60093
-0.327457
-0.540754
-0.524172
-0.255825
-0.0881447
-0.0461628
-0.0533913
-0.26311
-0.516255
-0.540745
-0.52778
-0.542282
-0.526326
-0.52056
-0.465515
-0.385239
-0.464052
-0.520618
-0.517777
-0.384767
-0.460452
-0.518643
-0.460582
-0.542753
-0.526244
-0.527324
-0.542604
-0.543841
-0.52368
-0.529772
-0.53799
-0.522834
-0.471891
-0.430103
-0.396695
-0.532914
-0.422824
-0.463777
-0.547614
-0.544969
-0.55841
-0.534723
-0.52032
-0.389942
-0.457866
-0.414314
-0.514869
-0.461136
-0.572756
-0.314815
-0.530072
-0.575621
-0.528502
-0.509926
-0.0376642
-0.25012
-0.0443822
-0.251401
-0.505597
-0.513717
-0.260122
-0.0476572
-0.081144
-0.0475515
-0.516157
-0.255213
-0.570129
-0.526103
-0.527922
-0.567334
0.653666
0.919583
0.657553
0.89507
0.66966
0.650126
0.668567
0.924882
0.66562
0.907851
0.674969
0.668279
-0.396864
-0.169178
-0.328027
-0.140576
-0.340377
-0.148712
-0.384887
-0.372305
0.0538051
-0.125643
0.0287694
-0.38174
0.0583316
-0.12073
-0.407644
-0.176035
-0.360796
-0.163043
-0.419391
-0.349992
-0.156099
-0.361742
-0.104236
0.033925
0.0786006
0.0645513
-0.113009
-0.348836
-0.318515
-0.311087
-0.21269
-0.174141
-0.20669
-0.326353
-0.302932
-0.295144
-0.243237
-0.188398
-0.195048
-0.199507
-0.247865
-0.288696
-0.301101
-0.210017
-0.192554
-0.258334
-0.204399
-0.30797
-0.252636
-0.311361
-0.167638
-0.195225
-0.286052
-0.200928
-0.294672
-0.303806
-0.345506
-0.194567
-0.321063
-0.218639
-0.332395
-0.225012
-0.335226
-0.331538
-0.284091
-0.232728
-0.211942
-0.34038
-0.226105
-0.276666
-0.353909
-0.200844
-0.351604
-0.237681
-0.363851
-0.341459
-0.2312
-0.324618
-0.214708
-0.206592
-0.264329
-0.219929
-0.31558
-0.270908
-0.364295
-0.317408
-0.132178
-0.146922
-0.373529
-0.308791
-0.125146
-0.319025
0.115261
0.0639301
-0.0721273
0.101914
-0.0807485
-0.307969
-0.329184
-0.0956347
0.0875006
0.0560844
0.0927446
-0.337453
-0.0889035
-0.354541
-0.139767
-0.290362
-0.1095
-0.299697
-0.117421
-0.344892
-0.554112
-0.52287
-0.555608
-0.523023
-0.481963
-0.00508773
-0.0135728
-0.476792
-0.486013
-0.0187037
-0.0184208
-0.487832
-0.551787
-0.521016
-0.522666
-0.548832
-0.543001
-0.523661
-0.524126
-0.54336
-0.521581
-0.466248
-0.389751
-0.469102
-0.519243
-0.524423
-0.391004
-0.475527
-0.472553
-0.525582
-0.541043
-0.521856
-0.539356
-0.522999
-0.556869
-0.519181
-0.553633
-0.520531
-0.495219
-0.028335
-0.0297365
-0.496381
-0.492105
-0.0177978
-0.0263029
-0.486492
-0.558709
-0.520679
-0.560387
-0.52069
-0.550186
-0.528615
-0.529726
-0.548891
-0.535692
-0.489477
-0.401744
-0.486933
-0.536751
-0.532542
-0.480529
-0.399532
-0.483154
-0.530712
-0.552364
-0.53004
-0.530759
-0.552693
0.767092
1.02712
0.784354
1.01118
0.772292
0.789208
0.748123
1.02106
0.776358
0.992719
0.766315
0.766125
-0.297391
-0.253774
-0.0765486
-0.0969947
-0.304125
-0.248267
-0.0709321
-0.250272
0.181741
0.119896
-0.0180969
0.169402
-0.0251012
-0.241127
-0.258172
-0.0375258
0.156775
0.112991
0.161347
-0.264742
-0.0315996
-0.290637
-0.0920337
-0.236812
-0.0592473
-0.242596
-0.0651813
-0.283579
-0.287198
-0.144093
-0.259996
-0.176135
-0.180429
-0.267001
-0.281468
-0.279169
-0.239395
-0.190556
-0.177611
-0.186054
-0.28392
-0.23551
-0.29255
-0.14937
-0.190085
-0.279478
-0.184916
-0.298097
-0.273399
-0.274929
-0.179486
-0.174853
-0.22999
-0.182464
-0.270541
-0.23253
-0.320956
-0.113837
-0.260793
-0.0827736
-0.312145
-0.268708
-0.0898092
-0.292941
0.123264
-0.0652794
0.0860449
-0.299771
0.127436
-0.0588775
-0.329132
-0.119754
-0.282949
-0.102815
-0.336823
-0.276065
-0.0962737
-0.284192
-0.0442681
0.14888
0.0926419
0.135607
-0.273485
-0.0520432
-0.27329
-0.254138
-0.129619
-0.172414
-0.249775
-0.276845
-0.168876
-0.262482
-0.225436
-0.170951
-0.168234
-0.172133
-0.260645
-0.225546
-0.270106
-0.125507
-0.240698
-0.163107
-0.245344
-0.165711
-0.266856
-0.264518
-0.176811
-0.227914
-0.169363
-0.267154
-0.174257
-0.226327
0.781873
0.790162
1.16562
0.799579
0.779921
1.1342
0.801596
0.796193
1.17263
0.804825
0.801616
1.15797
-0.536934
-0.510786
-0.51417
-0.532077
-0.466766
0.00241906
-0.469865
0.00424606
-0.540647
-0.517506
-0.543724
-0.516253
-0.461911
0.0207276
0.0096696
-0.454224
-0.550519
-0.524535
-0.551782
-0.522863
-0.540569
-0.498046
-0.498483
-0.538838
-0.540831
-0.497808
-0.541284
-0.497974
-0.549175
-0.516431
-0.520433
-0.546297
-0.552428
-0.524434
-0.52695
-0.550973
-0.539053
-0.491122
-0.537628
-0.493081
-0.552269
-0.527776
-0.551671
-0.527767
-0.54044
-0.496182
-0.540016
-0.49497
-0.525606
-0.509775
-0.529693
-0.507115
-0.44061
0.0461282
0.0328569
-0.432146
-0.447212
0.0240159
0.0263921
-0.451406
-0.519861
-0.49839
-0.503329
-0.513762
0.859746
1.14978
0.911721
1.11721
0.880033
0.899938
0.88138
1.15751
0.920305
1.14146
0.88703
0.926084
-0.26825
-0.0759048
-0.221449
-0.0409282
-0.225503
-0.0456942
-0.262579
-0.229998
0.18889
-0.0125338
0.139019
-0.234745
0.191786
-0.00770042
-0.273447
-0.0792895
-0.232574
-0.0543874
-0.278233
-0.229222
-0.0500144
-0.223565
0.0035905
0.144762
0.210823
0.198766
-0.00251264
-0.214838
-0.26319
-0.229576
-0.155859
-0.10765
-0.155652
-0.262235
-0.229411
-0.266096
-0.244284
-0.177311
-0.174105
-0.172014
-0.239996
-0.268888
-0.263515
-0.16964
-0.174776
-0.233127
-0.170771
-0.261862
-0.236171
-0.26452
-0.106643
-0.156228
-0.228515
-0.155645
-0.229369
-0.26558
-0.263085
-0.113024
-0.230807
-0.156481
-0.233488
-0.157472
-0.262032
-0.259659
-0.225819
-0.169651
-0.168192
-0.259935
-0.168967
-0.226558
-0.263948
-0.115486
-0.237754
-0.160818
-0.2651
-0.235727
-0.158919
-0.260018
-0.169106
-0.16892
-0.230456
-0.168624
-0.260477
-0.228139
-0.25461
-0.21853
-0.0372097
-0.0673851
-0.258051
-0.216859
-0.0340686
-0.200116
0.237478
0.166708
0.0218692
0.226086
0.0165335
-0.191727
-0.205131
0.00825837
0.217189
0.161323
0.219731
-0.208936
0.0121371
-0.250905
-0.0652707
-0.212587
-0.027139
-0.214938
-0.0308054
-0.246602
-0.473256
-0.471641
-0.480284
-0.465855
-0.379125
0.112633
0.0990555
-0.368497
-0.387859
0.0857906
0.09029
-0.394307
-0.465316
-0.451246
-0.459167
-0.456257
-0.537135
-0.499034
-0.504776
-0.532438
-0.535067
-0.497009
-0.495663
-0.537098
-0.532997
-0.492223
-0.494336
-0.52964
-0.54029
-0.512195
-0.543101
-0.508914
-0.494719
-0.476936
-0.486711
-0.483519
-0.418851
0.0549913
0.0578241
-0.423647
-0.411278
0.0788391
0.0656757
-0.401269
-0.501416
-0.492808
-0.506799
-0.48903
-0.524483
-0.49479
-0.489874
-0.529024
-0.519666
-0.480484
-0.484397
-0.514653
-0.523212
-0.490332
-0.487234
-0.527041
-0.519852
-0.477023
-0.484277
-0.51353
1.00386
1.3017
1.06395
1.28628
1.00861
1.07033
0.981194
1.29322
1.05534
1.25964
1.00174
1.04345
-0.233573
-0.21072
-0.0162963
-0.0582051
-0.23467
-0.211713
-0.0151691
-0.16538
0.280092
0.202045
0.0471508
0.270868
0.0437824
-0.160118
-0.168979
0.0389192
0.26504
0.19821
0.266015
-0.170844
0.0410419
-0.232109
-0.0581305
-0.212376
-0.0121024
-0.212462
-0.013818
-0.229881
-0.274078
-0.105665
-0.233489
-0.16129
-0.159475
-0.233053
-0.276719
-0.275895
-0.248911
-0.175992
-0.187815
-0.178681
-0.272452
-0.253706
-0.270833
-0.105343
-0.156905
-0.229512
-0.158174
-0.268006
-0.230958
-0.280288
-0.184556
-0.191649
-0.264908
-0.181224
-0.284634
-0.259206
-0.239528
-0.0597068
-0.210409
-0.0179261
-0.236534
-0.211379
-0.0204646
-0.18524
0.243068
0.0255593
0.181505
-0.187728
0.244405
0.0284436
-0.241891
-0.0605396
-0.211691
-0.0245604
-0.243879
-0.211622
-0.0225492
-0.18102
0.0360258
0.260235
0.185892
0.249859
-0.174582
0.0317993
-0.284776
-0.236086
-0.107736
-0.163092
-0.238727
-0.280717
-0.165357
-0.299739
-0.289787
-0.198495
-0.209988
-0.194533
-0.304663
-0.283464
-0.289256
-0.108794
-0.243249
-0.169916
-0.241713
-0.167387
-0.292767
-0.294231
-0.187594
-0.270963
-0.205447
-0.289845
-0.191277
-0.276885
1.03422
1.09199
1.46017
1.05208
1.08138
1.42983
1.05721
1.10059
1.4683
1.05841
1.10761
1.45561
-0.430044
-0.418576
-0.428241
-0.419795
-0.35186
0.121604
-0.359221
0.126768
-0.439092
-0.443502
-0.447434
-0.436212
-0.342549
0.148974
0.135565
-0.331313
-0.470412
-0.43963
-0.479656
-0.4308
-0.476542
-0.454181
-0.485242
-0.445798
-0.495201
-0.44744
-0.456578
-0.486506
-0.504942
-0.476477
-0.510042
-0.471074
-0.501503
-0.470307
-0.507776