/*--------------------------------*- C++ -*----------------------------------*\
| =========                 |                                                 |
| \\      /  F ield         | OpenFOAM: The Open Source CFD Toolbox           |
|  \\    /   O peration     | Version:  2012                                  |
|   \\  /    A nd           | Website:  www.openfoam.com                      |
|    \\/     M anipulation  |                                                 |
\*---------------------------------------------------------------------------*/
FoamFile
{
    version     2.0;
    format      ascii;
    class       surfaceScalarField;
    location    "0.104/fluid";
    object      phi;
}
// * * * * * * * * * * * * * * * * * * * * * * * * * * * * * * * * * * * * * //

dimensions      [0 3 -1 0 0 0 0];
oriented        oriented;


internalField   nonuniform List<scalar> 
46880
(
2.2953e-08
0.00153235
-2.46396e-08
1.22449e-08
4.60255e-07
-0.00153661
0.00153778
-4.61406e-07
1.10055e-08
8.96393e-07
-0.00154104
0.00154208
-8.96276e-07
-4.81063e-08
1.38477e-06
-0.00154519
0.00154623
-1.37882e-06
-8.12108e-08
1.94079e-06
-0.00154947
0.00155058
-1.9305e-06
-1.10249e-07
2.51981e-06
-0.001554
0.00155516
-2.50703e-06
-1.22905e-07
2.971e-06
-0.00155859
0.00155968
-2.9603e-06
-1.17924e-07
3.15959e-06
-0.00156282
0.00156382
-3.16177e-06
-8.99173e-08
2.85076e-06
-0.00156658
0.00156731
-2.89842e-06
-1.24916e-09
1.76945e-06
-0.00156872
0.00156892
-1.89157e-06
1.95291e-07
-3.29908e-07
-0.00156862
0.00156814
7.78132e-08
5.1148e-07
-3.88296e-06
-0.00156518
0.00156359
3.44523e-06
1.05924e-06
-1.0025e-05
-0.00155654
0.00155326
9.38004e-06
2.17146e-06
-2.54798e-05
-0.0015401
0.00153504
5.05564e-06
2.32426e-05
-9.86326e-05
-0.00153822
0.00156957
7.04295e-06
5.91557e-05
2.53923e-08
0.00153246
-2.46255e-08
1.26188e-08
4.2658e-07
-0.00153702
0.0015383
-3.97585e-07
5.29737e-09
8.0666e-07
-0.00154184
0.00154297
-7.43066e-07
-6.32385e-08
1.23379e-06
-0.00154639
0.00154755
-1.13487e-06
-1.01409e-07
1.72285e-06
-0.00155115
0.00155239
-1.59331e-06
-1.30497e-07
2.22637e-06
-0.00155614
0.00155742
-2.06067e-06
-1.53379e-07
2.66832e-06
-0.00156128
0.00156257
-2.47895e-06
-1.5863e-07
2.90992e-06
-0.00156643
0.00156769
-2.72894e-06
-1.26284e-07
2.76467e-06
-0.00157117
0.00157219
-2.62134e-06
-4.11041e-08
2.04215e-06
-0.00157466
0.00157526
-2.00073e-06
1.14351e-07
5.61357e-07
-0.00157629
0.00157636
-7.11823e-07
3.53878e-07
-1.95005e-06
-0.00157565
0.0015751
1.45981e-06
6.82763e-07
-6.13432e-06
-0.00157274
0.00157182
4.92952e-06
1.07934e-06
-1.2754e-05
-0.00156979
0.00156972
9.86278e-06
1.43537e-06
-1.61741e-05
-0.00157369
0.0015766
8.82561e-07
1.10967e-05
1.72143e-08
0.00153247
-1.61663e-08
1.33849e-08
2.71854e-07
-0.00153709
0.0015384
-2.18789e-07
2.87527e-09
4.82432e-07
-0.00154211
0.0015433
-3.73877e-07
-7.11232e-08
7.29599e-07
-0.0015469
0.00154813
-5.6614e-07
-1.12251e-07
1.02885e-06
-0.00155192
0.00155321
-7.93902e-07
-1.42464e-07
1.34868e-06
-0.00155719
0.00155855
-1.04601e-06
-1.60613e-07
1.66676e-06
-0.00156268
0.00156405
-1.31493e-06
-1.53335e-07
1.88433e-06
-0.00156808
0.0015694
-1.5007e-06
-1.23981e-07
1.87152e-06
-0.00157319
0.00157439
-1.49506e-06
-5.32054e-08
1.54499e-06
-0.00157758
0.00157846
-1.2544e-06
7.14249e-08
8.36127e-07
-0.00158056
0.0015811
-7.32778e-07
2.34345e-07
-3.14909e-07
-0.00158232
0.00158262
1.0644e-07
4.24752e-07
-1.8875e-06
-0.00158343
0.00158369
1.18572e-06
5.75249e-07
-3.32401e-06
-0.00158481
0.00158532
2.07349e-06
5.35534e-07
-1.97849e-06
-0.00158722
0.00158784
9.68974e-07
1.56085e-07
5.25344e-08
1.80465e-08
0.00153228
-1.95549e-08
-6.39231e-08
1.33024e-07
4.56053e-07
-0.00153667
0.0015379
-4.58549e-07
-1.76288e-07
2.59843e-07
9.00269e-07
-0.00154124
0.00154229
-9.00725e-07
-3.24089e-07
3.80261e-07
1.40245e-06
-0.00154546
0.00154652
-1.39291e-06
-4.69858e-07
4.85892e-07
1.98287e-06
-0.00154978
0.0015509
-1.9649e-06
-5.97814e-07
5.52846e-07
2.6065e-06
-0.00155435
0.00155553
-2.57638e-06
-6.86184e-07
5.56857e-07
3.12265e-06
-0.00155909
0.00156028
-3.08922e-06
-6.91301e-07
4.57436e-07
3.39253e-06
-0.00156379
0.00156493
-3.36958e-06
-5.61161e-07
1.63477e-07
3.22436e-06
-0.00156815
0.00156912
-3.23734e-06
-2.03273e-07
-4.89251e-07
2.33149e-06
-0.00157162
0.00157227
-2.42261e-06
5.69455e-07
-1.52094e-06
4.28848e-07
-0.00157331
0.00157329
-6.45849e-07
1.8048e-06
-3.03061e-06
-2.85392e-06
-0.00157206
0.00157128
2.48705e-06
3.60493e-06
-5.37476e-06
-7.96104e-06
-0.00156788
0.00156635
7.56078e-06
6.36608e-06
-1.8372e-05
-8.83311e-06
-0.00156034
0.0015581
1.00977e-05
1.80559e-05
-6.62445e-05
-1.02745e-05
-0.0015617
0.00158084
1.11194e-05
4.53065e-05
5.65574e-08
2.04946e-08
0.0015324
-2.03895e-08
-6.9276e-08
1.5928e-07
4.23982e-07
-0.00153714
0.00153848
-3.95255e-07
-2.05326e-07
3.17449e-07
8.11749e-07
-0.0015421
0.00154323
-7.45682e-07
-3.91128e-07
4.60986e-07
1.23902e-06
-0.00154666
0.00154783
-1.13746e-06
-5.67236e-07
5.79472e-07
1.7372e-06
-0.00155148
0.00155273
-1.59685e-06
-7.18123e-07
6.67635e-07
2.2642e-06
-0.00155655
0.00155786
-2.08453e-06
-8.2301e-07
6.84985e-07
2.73372e-06
-0.00156184
0.0015632
-2.53087e-06
-8.44297e-07
5.97338e-07
3.04288e-06
-0.00156732
0.0015687
-2.83901e-06
-7.36467e-07
3.08436e-07
3.0185e-06
-0.00157269
0.00157394
-2.84487e-06
-3.9123e-07
-2.44025e-07
2.47681e-06
-0.00157728
0.00157823
-2.40218e-06
2.75526e-07
-1.06643e-06
1.18988e-06
-0.00158037
0.0015808
-1.30076e-06
1.26548e-06
-2.10184e-06
-1.17908e-06
-0.00158126
0.0015812
7.44951e-07
2.50351e-06
-3.30685e-06
-4.97588e-06
-0.00158066
0.00158048
3.93437e-06
3.94427e-06
-4.24121e-06
-1.06821e-05
-0.00158073
0.00158128
8.31708e-06
5.05375e-06
-1.38602e-05
-3.14668e-06
-0.001586
0.00158872
3.78643e-06
9.4566e-06
5.62823e-08
1.46238e-08
0.00153242
-1.44416e-08
-6.90289e-08
1.74491e-07
2.71624e-07
-0.00153721
0.00153858
-2.19087e-07
-2.23997e-07
3.47394e-07
4.86758e-07
-0.0015424
0.00154362
-3.78268e-07
-4.26436e-07
5.03364e-07
7.34396e-07
-0.0015473
0.00154856
-5.69981e-07
-6.15644e-07
6.26128e-07
1.02848e-06
-0.00155238
0.00155367
-7.9358e-07
-7.6303e-07
7.05367e-07
1.35168e-06
-0.00155762
0.00155898
-1.04588e-06
-8.62346e-07
6.94604e-07
1.6748e-06
-0.0015632
0.00156465
-1.30553e-06
-8.70197e-07
6.00886e-07
1.92732e-06
-0.00156906
0.00157053
-1.51533e-06
-7.46893e-07
3.42098e-07
1.9956e-06
-0.00157487
0.00157626
-1.57976e-06
-4.31174e-07
-1.11264e-07
1.79781e-06
-0.0015801
0.00158126
-1.43592e-06
1.18082e-07
-7.2084e-07
1.22511e-06
-0.00158424
0.00158508
-1.01714e-06
8.63789e-07
-1.4061e-06
1.76554e-07
-0.00158725
0.00158789
-2.82987e-07
1.67793e-06
-1.94688e-06
-1.28626e-06
-0.00158966
0.00159024
7.18491e-07
2.31596e-06
-1.96986e-06
-2.59987e-06
-0.00159225
0.001593
1.54362e-06
2.34083e-06
-8.70834e-07
-1.32946e-06
-0.0015953
0.00159594
4.68747e-07
1.03634e-06
9.88922e-08
9.32911e-09
0.0015322
-1.08956e-08
-1.07434e-07
2.79052e-07
4.61512e-07
-0.00153637
0.00153756
-4.66415e-07
-3.08025e-07
5.03977e-07
9.38831e-07
-0.00154091
0.00154197
-9.39521e-07
-5.55073e-07
7.13541e-07
1.47006e-06
-0.00154509
0.00154612
-1.45359e-06
-7.85709e-07
9.03482e-07
2.09198e-06
-0.00154931
0.00155041
-2.05678e-06
-9.92752e-07
1.02916e-06
2.78822e-06
-0.00155388
0.00155509
-2.73155e-06
-1.12347e-06
1.04677e-06
3.42299e-06
-0.00155888
0.00156017
-3.35492e-06
-1.14121e-06
8.62691e-07
3.85559e-06
-0.00156409
0.0015654
-3.78929e-06
-9.49775e-07
3.52541e-07
3.91744e-06
-0.00156933
0.00157062
-3.87219e-06
-4.13563e-07
-6.65785e-07
3.31272e-06
-0.00157428
0.00157539
-3.32123e-06
6.56452e-07
-2.29954e-06
1.76656e-06
-0.00157827
0.00157909
-1.90271e-06
2.36532e-06
-4.72887e-06
-9.65894e-07
-0.00158115
0.00158177
7.02281e-07
4.91673e-06
-8.24024e-06
-5.07358e-06
-0.00158352
0.00158403
4.85871e-06
8.61934e-06
-1.35561e-05
-1.25251e-05
-0.00158444
0.00158406
1.33108e-05
1.37099e-05
-6.16685e-05
-1.36662e-05
-0.00159032
0.00160957
1.51549e-05
4.07394e-05
1.06343e-07
1.30616e-08
0.00153234
-1.37266e-08
-1.1579e-07
3.26726e-07
4.35961e-07
-0.00153693
0.00153825
-4.08229e-07
-3.59897e-07
5.87853e-07
8.43312e-07
-0.00154186
0.001543
-7.79209e-07
-6.47296e-07
8.50416e-07
1.27828e-06
-0.00154642
0.00154757
-1.17629e-06
-9.29073e-07
1.06564e-06
1.78722e-06
-0.00155113
0.00155234
-1.64093e-06
-1.16633e-06
1.22158e-06
2.34932e-06
-0.00155612
0.00155744
-2.15434e-06
-1.33284e-06
1.26057e-06
2.90499e-06
-0.0015616
0.00156307
-2.67345e-06
-1.37535e-06
1.10762e-06
3.34628e-06
-0.00156766
0.00156923
-3.10552e-06
-1.21251e-06
6.34464e-07
3.5211e-06
-0.00157392
0.00157546
-3.3091e-06
-7.17831e-07
-2.48941e-07
3.23149e-06
-0.00157986
0.00158124
-3.11932e-06
2.01512e-07
-1.56949e-06
2.2502e-06
-0.00158502
0.00158613
-2.29523e-06
1.58866e-06
-3.27339e-06
2.60767e-07
-0.00158907
0.00158997
-5.65942e-07
3.39148e-06
-5.22537e-06
-2.90664e-06
-0.00159278
0.00159385
2.09074e-06
5.46756e-06
-6.71021e-06
-7.69603e-06
-0.00159788
0.00159962
5.74966e-06
7.0792e-06
-1.08187e-05
-5.11804e-06
-0.00160716
0.00161049
5.53357e-06
6.78656e-06
1.06086e-07
1.19003e-08
0.00153236
-1.29009e-08
-1.14669e-07
3.53251e-07
2.87363e-07
-0.00153704
0.00153841
-2.32711e-07
-3.8821e-07
6.34216e-07
5.11553e-07
-0.00154226
0.00154352
-3.98142e-07
-6.92015e-07
9.01088e-07
7.60761e-07
-0.00154733
0.0015486
-5.88908e-07
-9.79508e-07
1.12993e-06
1.04648e-06
-0.00155235
0.00155357
-8.03193e-07
-1.22701e-06
1.28376e-06
1.37263e-06
-0.00155734
0.00155868
-1.05951e-06
-1.39469e-06
1.31153e-06
1.73131e-06
-0.00156302
0.00156459
-1.34049e-06
-1.4272e-06
1.13965e-06
2.06289e-06
-0.00156959
0.00157132
-1.60624e-06
-1.24967e-06
6.98267e-07
2.28499e-06
-0.00157649
0.00157818
-1.79663e-06
-7.89062e-07
-5.22831e-08
2.28505e-06
-0.00158304
0.00158459
-1.81418e-06
1.28293e-09
-1.06785e-06
1.91727e-06
-0.001589
0.00159039
-1.56867e-06
1.06311e-06
-2.16118e-06
1.04664e-06
-0.00159429
0.00159551
-9.75916e-07
2.2092e-06
-3.0199e-06
-1.59927e-07
-0.00159913
0.00160035
-1.59163e-07
3.12308e-06
-3.08082e-06
-1.16093e-06
-0.00160418
0.00160546
4.58578e-07
3.20008e-06
-1.34463e-06
3.50165e-08
-0.00160898
0.00160989
-5.69517e-07
1.3943e-06
-0.00149215
-0.000108222
0.00148113
1.97728e-05
-2.57481e-05
2.51346e-05
-0.000298112
-5.04785e-06
1.47206e-05
-0.0015341
6.50898e-05
-1.55326e-05
-6.76667e-05
0.00153674
4.32292e-07
-7.79532e-06
-4.86494e-07
9.09484e-06
-0.000427881
-0.0015393
-6.99731e-05
0.00154253
1.44897e-05
-7.57487e-06
8.728e-06
-0.00042886
3.73911e-07
1.61151e-05
-0.00156089
6.18188e-05
-1.51829e-05
-6.51749e-05
0.001563
-2.26759e-07
-7.92651e-06
1.26836e-07
9.00039e-06
-0.000434799
-0.00156875
-6.57783e-05
0.00157105
1.79134e-05
-7.97037e-06
9.04196e-06
-0.000435738
-3.00631e-07
-0.00152932
-2.56021e-05
0.00151999
7.18292e-06
6.63227e-05
-7.75684e-05
1.58371e-05
-0.0014982
1.0378e-05
-0.00155049
1.82733e-05
-9.41094e-06
-1.6521e-05
0.00154625
1.43166e-05
4.39543e-05
-1.45104e-05
-4.22557e-05
-0.00153669
1.14357e-05
-0.00024612
-3.22577e-06
3.56403e-05
0.000202154
3.18603e-05
4.24741e-05
0.000382598
0.000360765
0.000374544
0.000367598
-0.00148878
-2.73457e-05
-2.78218e-05
-2.79495e-05
-2.37352e-05
1.93976e-05
1.91199e-06
-7.44408e-06
-0.00165024
-8.64803e-06
-4.14529e-06
-0.00157243
-2.57748e-05
0.00157893
1.66642e-06
-1.01315e-06
-6.08e-07
-0.00159114
-1.96856e-07
-0.0015567
-9.83482e-06
0.00157574
4.46016e-05
-2.81066e-07
7.80382e-06
-7.80041e-08
-2.15581e-07
8.79354e-07
-0.00165582
5.51954e-06
4.48547e-06
-0.00158281
1.39819e-05
-3.92399e-06
-2.18628e-05
0.00158883
2.66247e-07
-8.39366e-07
-6.39997e-07
-1.36733e-06
-0.00160068
-0.00155447
-1.67772e-05
0.00155048
1.16022e-05
4.48877e-05
-4.38912e-05
1.45856e-05
-0.00154153
1.38714e-05
-0.00157367
1.45093e-05
-1.31879e-05
-1.25728e-05
0.00157129
1.64653e-05
3.9999e-05
-1.55711e-05
-3.82078e-05
-0.00156375
1.85803e-05
-2.08044e-05
1.09113e-05
0.000359538
0.000356347
0.000358827
0.000357013
-0.00148712
3.94576e-06
1.67566e-05
0.000359958
0.000357477
0.000356937
0.000360342
-0.00149468
-5.71493e-07
7.56316e-06
-5.72744e-07
-0.00166024
1.30555e-06
5.87877e-06
-0.00158701
-2.18953e-05
0.00159315
5.19967e-06
-6.56305e-07
-1.56548e-06
-0.00160492
2.2495e-07
-0.00158234
-1.26715e-05
0.00160127
4.14133e-05
2.53549e-06
7.81821e-06
-2.19027e-07
-3.12441e-07
-2.37609e-06
-0.00168208
4.65195e-06
6.50848e-06
-0.00160387
1.16154e-05
-6.1098e-06
-1.9101e-05
0.00161033
-8.37131e-07
-2.17729e-06
4.94956e-07
5.16771e-09
-0.00162252
-0.00158026
-1.17141e-05
0.00157836
1.47427e-05
3.94723e-05
-3.8158e-05
1.81212e-05
-0.00157145
2.02392e-05
-1.79925e-05
5.15222e-06
0.000365182
0.000361284
0.000364004
0.00036239
-0.00151426
3.02896e-06
2.35835e-05
0.000365903
0.00036405
0.000362994
0.000367007
-0.00152304
-2.60902e-07
8.10987e-06
-1.50921e-07
-0.00169094
2.80309e-06
4.29105e-06
-0.00161018
-1.82109e-05
0.00161675
6.96343e-06
-2.59545e-06
4.11775e-07
-0.00162889
-1.12109e-06
3.35306e-05
0.000406074
0.000245268
0.000394701
0.000263957
-1.86665e-05
-7.07146e-06
-1.37932e-05
-0.00140165
1.94349e-05
0.000303392
-5.10817e-05
-4.68843e-05
-6.23551e-05
-3.61553e-05
0.000467509
0.000301087
0.000462417
0.000123557
-8.25199e-05
0.00155396
1.7351e-05
7.22904e-05
-0.00154201
2.68236e-05
0.000361588
0.000365458
0.000363882
0.000365742
-0.00150107
0.000417766
2.09176e-05
-4.57187e-05
-6.12561e-05
-6.36551e-05
-4.27604e-05
0.000414127
0.000414167
0.000411586
0.000108035
1.64305e-05
0.000289004
1.3783e-05
-1.57917e-05
5.73572e-07
-9.47948e-06
1.65162e-06
1.02203e-05
-0.000431348
4.13674e-06
2.3683e-05
-3.52604e-05
-1.08739e-06
0.000426316
-3.04712e-05
7.1074e-06
0.000359038
0.000355887
0.000359031
0.000355646
-0.00148293
1.9323e-05
0.000358223
0.00035868
0.000361901
0.000355485
-0.0014794
-7.81543e-05
0.00153335
-0.00152791
7.38184e-05
-1.90644e-05
1.72076e-05
0.000355781
0.000354994
0.000354868
0.000356078
-0.00148103
-1.53066e-05
0.000409764
1.35936e-05
-3.86322e-05
-5.65815e-05
-5.69209e-05
-3.83362e-05
0.000409284
0.000404976
0.000404475
9.99975e-05
0.000356323
0.000355922
0.000356421
0.000355159
-0.00147544
0.00040965
-4.01995e-05
-5.9127e-05
-4.11189e-05
-5.85556e-05
0.000405657
0.000409263
0.000404927
0.000108164
-7.49101e-06
3.1039e-07
9.03925e-06
-0.000429088
2.61915e-06
2.32749e-05
0.000420015
-2.92855e-06
-3.32199e-05
2.54315e-05
-3.5151e-05
0.000420565
2.95767e-06
1.61291e-05
0.000357917
0.000355895
0.000356635
0.000356982
-0.00148599
1.28858e-05
0.000410559
-3.89831e-05
-5.73794e-05
-3.91003e-05
-5.72357e-05
0.000405778
0.000411352
0.000406562
0.000101178
-6.53926e-05
0.00154833
1.44644e-05
6.2757e-05
-0.00154634
1.60381e-05
0.000357954
0.000357358
0.000356662
0.000358679
-0.00149247
0.000412599
1.27778e-05
-3.82216e-05
-5.65165e-05
-5.65511e-05
-3.81816e-05
0.000407723
0.000411752
0.000406834
9.84653e-05
2.36355e-05
0.000420898
-3.37823e-05
2.41786e-06
7.58884e-08
-7.68504e-06
-2.45188e-07
8.85804e-06
-0.000430839
2.42244e-06
2.31847e-05
-3.33368e-05
-2.5169e-06
0.000422824
-1.71932e-05
3.71938e-06
0.000362476
0.000360426
0.000363252
0.000359577
-0.00150753
7.53207e-06
0.000361855
0.000358272
0.00036083
0.000359237
-0.00149928
-6.73667e-05
0.00155555
-0.0015529
6.3468e-05
-1.67584e-05
1.78551e-05
0.000361248
0.000360703
0.000359738
0.000362245
-0.00150649
-1.32384e-05
0.000416503
1.40362e-05
-3.84686e-05
-5.68453e-05
-5.686e-05
-3.84539e-05
0.000415439
0.000411661
0.000410583
9.81778e-05
0.000360725
0.0003583
0.000359659
0.000359274
-0.00149879
0.00041365
-3.87745e-05
-5.7108e-05
-3.87752e-05
-5.70747e-05
0.000408811
0.000414702
0.000409871
9.92646e-05
-7.73816e-06
2.61247e-08
8.85779e-06
-0.000431896
2.60249e-06
2.31915e-05
0.000426755
-2.548e-06
-3.35247e-05
2.33098e-05
-3.35806e-05
0.000423947
2.37181e-06
2.0061e-05
0.00036433
0.000361571
0.000362674
0.000363139
-0.00151418
1.56113e-05
0.000417476
-3.87213e-05
-5.71577e-05
-3.87398e-05
-5.71028e-05
0.00041268
0.000418646
0.000413835
9.82298e-05
-6.43425e-05
0.00157927
2.04826e-05
6.03154e-05
-0.00157742
2.33729e-05
0.000365021
0.000364456
0.000363346
0.000366237
-0.0015228
0.000420602
1.82087e-05
-3.85862e-05
-5.69607e-05
-5.70467e-05
-3.85226e-05
0.000415789
0.000419417
0.000414639
9.72533e-05
2.32593e-05
0.000427779
-3.36371e-05
2.65072e-06
-4.44601e-07
-8.31588e-06
4.01385e-07
9.23682e-06
-0.000438779
3.30514e-06
2.30629e-05
-3.35463e-05
-3.01891e-06
0.000430792
2.72538e-06
0.000369185
0.000364835
0.000367703
0.000366102
-0.00153206
-6.32107e-05
0.00158802
-0.00158664
5.85916e-05
0.000368456
0.000365235
0.000366971
0.000366487
-0.00153225
0.000421303
-3.83543e-05
-5.69698e-05
-3.84751e-05
-5.67957e-05
0.000416546
0.000422588
0.000417737
9.58082e-05
-8.36165e-06
-4.711e-07
9.2401e-06
-0.000439423
2.29714e-05
-3.35141e-05
0.000431532
3.62092e-06
0.000401902
-2.81865e-05
1.51858e-05
-3.05042e-05
-1.23773e-05
-0.000376025
0.000104582
7.91801e-06
-1.35648e-05
-3.4376e-05
-3.4203e-05
-1.38266e-05
0.000106067
0.000106942
0.000107804
-9.25675e-06
3.11596e-05
8.32743e-06
8.86644e-06
8.85642e-05
7.25362e-05
7.317e-05
8.75625e-05
-1.26151e-05
-3.40682e-05
-1.18673e-05
-3.3339e-05
-5.10734e-06
-5.51055e-06
0.000112365
0.000116633
0.00011285
-1.45803e-05
1.08658e-05
9.23313e-05
7.75695e-05
9.51021e-05
7.60502e-05
1.00483e-05
-2.01429e-05
-0.000404591
9.79718e-05
0.000109994
-1.11043e-05
-1.00966e-05
-3.61033e-07
-2.90747e-05
2.07361e-05
6.97604e-06
1.71604e-06
2.51946e-05
9.21397e-05
8.42813e-05
0.000101534
7.71525e-05
-0.000389342
-7.09928e-06
-6.2154e-06
-7.22226e-06
-4.91e-06
0.000362862
-3.97157e-05
4.34269e-06
-4.86841e-06
-3.668e-06
-0.000363614
2.76005e-06
-1.51575e-05
-3.45218e-05
-3.45658e-05
-1.5092e-05
0.000103257
0.000103063
-4.2853e-06
3.99658e-05
3.07791e-07
3.88965e-06
8.6389e-05
7.24464e-05
7.19256e-05
8.69034e-05
-4.53289e-06
-1.5125e-05
-3.44972e-05
-1.50092e-05
-3.45402e-05
0.000102984
0.000102949
-4.43005e-06
4.19563e-07
8.63036e-05
7.21973e-05
8.66824e-05
7.18482e-05
3.50379e-06
-4.34402e-06
0.000362858
-3.76945e-05
-0.000362611
3.64639e-06
-3.21019e-06
-1.44348e-05
-3.4084e-05
-1.44464e-05
-3.40422e-05
0.000103152
0.000103101
3.76052e-05
4.28332e-06
-4.63805e-06
1.8993e-06
8.64118e-05
7.22183e-05
8.67678e-05
7.1892e-05
-4.33529e-06
-1.44595e-05
-3.403e-05
-1.44883e-05
-3.40523e-05
0.000103103
0.000103041
1.83294e-06
8.63959e-05
7.23202e-05
8.6809e-05
7.18844e-05
0.000368639
-4.01177e-05
5.14614e-06
-4.85567e-06
-4.57591e-06
-0.000369705
4.86331e-06
-1.53734e-05
-3.46771e-05
-3.46885e-05
-1.53676e-05
0.000104811
0.00010461
-5.27238e-06
4.03087e-05
3.18449e-07
5.76899e-06
8.77204e-05
7.37979e-05
7.32634e-05
8.82565e-05
-4.39994e-06
-1.534e-05
-3.46089e-05
-1.52613e-05
-3.46452e-05
0.00010442
0.000104471
-4.90303e-06
4.52384e-07
8.76263e-05
7.34518e-05
8.79089e-05
7.31827e-05
5.49615e-06
-4.26915e-06
0.000367927
-3.95102e-05
-0.000367045
3.80866e-06
-3.40102e-06
-1.50626e-05
-3.4408e-05
-1.50227e-05
-3.44224e-05
0.000104029
0.000104086
3.93921e-05
4.43857e-06
-4.3023e-06
9.22814e-07
8.73179e-05
7.3142e-05
8.75936e-05
7.28759e-05
-4.00458e-06
-1.51057e-05
-3.44642e-05
-1.5112e-05
-3.44709e-05
0.000104362
0.000104177
8.52136e-07
8.73805e-05
7.34455e-05
8.78918e-05
7.29291e-05
1.08322e-06
-2.81916e-05
-1.82867e-06
0.000116569
-1.02721e-05
-2.24945e-06
-4.90735e-06
3.21158e-06
3.72062e-06
-0.000133961
7.2859e-06
-6.64799e-06
-5.20465e-05
0.000368615
4.25916e-06
-4.85216e-06
-6.78951e-06
4.86859e-05
7.90156e-06
8.84148e-05
7.36412e-05
7.32401e-05
8.88097e-05
-3.71886e-06
-0.000369752
0.000102206
5.58493e-06
-1.70893e-05
-3.66002e-05
-3.72658e-05
-1.66757e-05
0.000104683
0.000102657
0.000104844
-6.79712e-06
8.68026e-05
7.44043e-05
7.20513e-05
8.96145e-05
-3.09329e-06
0.000103981
-1.72454e-05
-3.85128e-05
-1.73886e-05
-3.80065e-05
0.000101509
0.000106431
0.000103723
6.24957e-06
-6.23217e-05
0.000427439
-1.48793e-05
1.60542e-05
3.2633e-05
7.13499e-05
3.24917e-05
5.0424e-05
4.40519e-05
-1.15406e-06
-8.9463e-07
-5.99997e-09
4.28252e-06
-0.000245611
5.29503e-05
-1.48906e-05
-3.04406e-05
-3.19848e-05
-1.67922e-05
6.17709e-05
8.48198e-05
8.9152e-05
9.70281e-05
8.68691e-05
7.92677e-05
0.000103838
0.000121604
-1.69966e-05
-3.81126e-05
-1.78726e-05
-3.64362e-05
0.000122091
0.000115651
0.000116508
0.000128424
1.4458e-06
5.17898e-06
-7.16816e-06
-0.000127372
-4.94843e-07
1.32934e-06
1.71974e-05
-2.87776e-05
-1.4977e-06
0.000113972
2.04832e-07
1.75417e-05
0.000116346
-1.10663e-07
-2.99829e-05
0.000127114
4.66964e-07
5.70171e-06
-3.29453e-07
-7.20804e-06
-0.000125733
-1.62195e-06
-0.000144193
4.45093e-06
-7.38489e-06
0.000146276
2.47979e-06
-8.81971e-06
1.13891e-05
-1.17431e-06
-8.7764e-05
-1.99531e-06
-2.57787e-06
-0.000149413
2.64802e-06
1.2931e-06
-8.32172e-05
-2.40344e-06
-1.65973e-06
8.61145e-05
1.17447e-06
1.00641e-06
-3.41715e-06
-6.58689e-07
0.000129879
-5.15228e-07
-5.23658e-06
5.68586e-06
-0.000130088
9.501e-07
2.45115e-07
1.87159e-06
-4.02819e-08
-3.7811e-06
0.000128825
-6.37846e-06
-0.000130973
6.73552e-06
-1.60513e-06
7.86448e-06
-9.91171e-06
-0.00014291
2.22393e-06
7.85726e-06
-1.84011e-05
1.76046e-06
6.17535e-05
1.80516e-05
0.000132143
-2.86067e-05
2.40758e-07
7.40122e-07
-1.68475e-06
-2.87702e-06
-7.93801e-05
-1.04974e-05
0.000363751
-3.6762e-05
9.04384e-06
-0.000366069
8.67255e-06
0.000102526
-1.44667e-05
-3.45589e-05
-1.43733e-05
-3.44348e-05
0.000104505
0.000101845
0.000104037
3.60787e-05
9.06573e-06
3.26666e-06
8.69376e-05
7.26026e-05
8.76053e-05
7.21351e-05
8.23399e-06
0.000101471
-1.42413e-05
-3.40764e-05
-1.42692e-05
-3.41358e-05
0.000101858
0.000103681
0.000103823
7.53321e-06
2.98642e-06
8.6614e-05
7.21256e-05
8.68235e-05
7.1813e-05
6.47082e-06
0.000363296
-3.9124e-05
-0.000363082
-5.53385e-06
-1.51385e-05
-3.46701e-05
-1.50662e-05
-3.47394e-05
0.000103314
0.000103239
3.96859e-05
-5.89931e-06
5.9368e-07
8.63191e-05
7.21724e-05
8.67486e-05
7.17102e-05
0.000101405
-1.50343e-05
-3.4601e-05
-1.48689e-05
-3.4665e-05
0.000103497
0.00010129
0.000103337
1.16894e-06
8.63692e-05
7.21395e-05
8.68375e-05
7.17499e-05
-2.67966e-05
0.000114283
1.44999e-06
1.99504e-06
0.000113229
-1.974e-06
-2.66026e-05
-1.76182e-06
4.47378e-06
1.36745e-06
1.78509e-07
-4.04315e-07
4.70418e-06
7.22383e-06
-0.000130276
-3.34417e-06
8.15082e-07
5.67515e-06
0.000113136
-2.75054e-05
1.55573e-06
-4.26037e-06
-4.37916e-05
0.000360012
4.2029e-06
4.47501e-05
5.85771e-06
8.61233e-05
7.21141e-05
8.70472e-05
7.13062e-05
-0.000362118
4.08798e-06
0.00010082
-1.56183e-05
-3.57486e-05
-1.57106e-05
-3.56385e-05
0.000103254
0.00010052
0.000102735
5.49626e-06
8.58899e-05
7.15153e-05
7.11228e-05
8.6264e-05
3.70166e-06
9.98621e-05
-1.57225e-05
-3.55805e-05
-1.56323e-05
-3.5692e-05
0.000100083
0.00010228
0.00010234
-4.22411e-05
0.000359286
4.35898e-06
-5.12366e-06
4.17419e-05
4.36832e-06
8.5773e-05
7.15582e-05
7.1042e-05
8.62816e-05
-3.64912e-06
-0.000359929
9.98962e-05
3.46937e-06
-1.51672e-05
-3.5127e-05
-3.51173e-05
-1.51655e-05
0.000102283
9.9879e-05
0.000102113
8.57128e-05
7.14025e-05
7.10079e-05
8.61245e-05
9.96781e-05
-1.52638e-05
-3.52727e-05
-1.52975e-05
-3.52042e-05
0.000102083
9.97763e-05
0.000102016
3.92748e-06
0.000125049
3.78901e-07
5.45831e-06
-4.41986e-07
-6.9756e-06
-0.000123459
1.66803e-05
-2.81461e-05
0.000112721
9.09066e-07
0.000126156
5.1646e-06
5.67705e-07
-6.77297e-06
-0.000124636
7.82947e-07
1.65059e-05
0.000111514
-9.21419e-07
-2.80038e-05
-2.46981e-07
-0.000124719
1.54881e-06
-3.47453e-06
0.0001266
2.98107e-07
-1.83512e-08
-4.88094e-06
5.30603e-06
9.36199e-08
-0.000128444
1.22178e-07
-4.91764e-06
-0.000128312
-4.02778e-08
5.3628e-06
-0.000124839
3.51011e-07
1.47636e-06
-2.6558e-07
0.000126715
-3.43394e-06
1.89054e-06
-2.94194e-07
-3.7239e-06
0.000126935
-5.17534e-06
5.52576e-06
-0.000129613
-2.28307e-07
1.44375e-06
4.16495e-07
-3.46445e-06
0.000128012
-4.74617e-06
-0.000128668
1.60066e-07
5.25684e-06
5.1169e-06
-6.7126e-06
-0.000123145
4.11028e-07
7.31396e-07
1.60528e-05
-2.75164e-05
-8.09835e-07
0.000111451
1.62255e-05
0.000111275
-2.77019e-05
6.73601e-07
4.66084e-07
4.99753e-06
-3.93057e-07
-6.62331e-06
-0.000123278
5.67291e-06
-1.24995e-06
1.36319e-07
3.05896e-07
5.57314e-06
4.89133e-06
7.01919e-07
4.88695e-06
-4.8419e-08
-4.15752e-05
0.00036129
3.84686e-06
-3.80576e-06
-4.10529e-06
4.1557e-05
3.88275e-06
8.61955e-05
7.1984e-05
7.14456e-05
8.67358e-05
-3.37983e-06
-0.000362142
0.000100509
3.3587e-06
-1.52489e-05
-3.51753e-05
-3.51462e-05
-1.52604e-05
0.000102876
0.000100454
0.000102663
-4.16999e-06
8.60959e-05
7.17083e-05
7.13638e-05
8.64542e-05
-3.39151e-06
0.000100165
-1.52339e-05
-3.51473e-05
-1.5221e-05
-3.51231e-05
0.000102524
0.00010032
0.000102524
3.74237e-06
-4.25873e-05
-3.66013e-06
0.000361371
4.01224e-06
4.27192e-05
8.60665e-05
7.16737e-05
7.13288e-05
8.64234e-05
-0.000360904
3.33806e-06
0.00010007
-1.54613e-05
-3.5321e-05
-1.53733e-05
-3.53573e-05
0.000102459
0.000100249
0.000102468
8.60681e-05
7.18173e-05
7.13247e-05
8.65515e-05
0.000100241
-1.54508e-05
-3.52976e-05
-1.53905e-05
-3.53501e-05
0.000102609
0.000100278
0.000102487
-4.68403e-07
0.000125132
5.09754e-06
-6.68754e-06
-0.000123557
4.9016e-07
7.23877e-07
1.60949e-05
-2.75712e-05
-7.89539e-07
0.00011206
-7.58467e-07
1.61118e-05
0.0001117
-2.75548e-05
6.71507e-07
0.000125497
4.48339e-07
5.07876e-06
-4.09266e-07
-6.68129e-06
-0.000123929
-0.000125208
3.68259e-07
1.67315e-06
-3.38686e-07
-3.57948e-06
0.000127088
-4.79838e-06
5.21305e-06
-0.000128701
7.61536e-08
-0.000125084
1.64981e-06
4.18527e-07
0.000126964
-3.5919e-06
5.36721e-08
-4.76346e-06
-0.000128848
-1.65837e-08
5.22197e-06
5.19018e-06
-4.48526e-07
-6.7706e-06
-0.000123642
1.62194e-05
-2.77019e-05
0.000111641
6.5069e-07
5.17599e-06
5.12867e-07
-6.78712e-06
-0.000123511
1.62099e-05
0.000111786
-2.76862e-05
-8.16075e-07
1.59321e-06
-3.50967e-06
3.96908e-07
0.000127024
-2.77902e-08
-4.80539e-06
5.25317e-06
-0.000129178
6.25773e-08
3.33133e-07
1.57615e-06
-2.87382e-07
-3.50677e-06
0.000127383
-4.79544e-06
-0.000128812
5.24759e-06
7.99091e-08
-3.67824e-06
0.000364755
-3.86055e-05
4.28368e-06
-0.00036413
3.22581e-06
-1.47262e-05
-3.4186e-05
-1.47185e-05
-3.41778e-05
0.000103324
0.000103355
3.854e-05
3.82328e-06
1.36223e-06
8.67081e-05
7.25487e-05
8.70062e-05
7.22567e-05
3.95293e-06
-1.47676e-05
-3.42048e-05
-1.47796e-05
-3.42161e-05
0.000103534
0.000103386
4.17342e-06
1.34315e-06
8.67371e-05
7.27701e-05
8.72123e-05
7.22844e-05
4.2401e-06
0.000365251
-3.97961e-05
-0.000366247
-3.69221e-06
-1.52034e-05
-3.45333e-05
-1.51711e-05
-3.45551e-05
0.000103928
0.000103711
4.00021e-05
-4.30113e-06
4.71706e-07
8.69617e-05
7.30506e-05
8.74942e-05
7.25152e-05
-1.51705e-05
-3.4483e-05
-1.50823e-05
-3.4519e-05
0.000103535
0.000103562
5.53942e-07
8.68568e-05
7.27283e-05
8.71757e-05
7.24251e-05
-3.76288e-06
-4.24199e-05
0.000364109
4.00122e-06
4.23893e-05
3.88153e-06
8.65575e-05
7.21022e-05
8.68724e-05
7.1787e-05
-0.00036327
3.42687e-06
0.000100691
-1.5508e-05
-3.53404e-05
-1.54284e-05
-3.53714e-05
0.000103063
0.000100911
0.000103119
4.15988e-06
8.66147e-05
7.23573e-05
7.18307e-05
8.71415e-05
3.58518e-06
0.000101033
-1.55213e-05
-3.53689e-05
-1.54825e-05
-3.53937e-05
0.00010101
0.000103395
0.000103212
-4.19317e-05
0.00036463
4.09868e-06
-4.24303e-06
4.19589e-05
4.32081e-06
8.69198e-05
7.26605e-05
7.21123e-05
8.74723e-05
-3.64714e-06
-0.000365614
0.000101469
3.75934e-06
-1.54766e-05
-3.53635e-05
-3.5353e-05
-1.54728e-05
0.000103829
0.000101409
0.000103612
8.68187e-05
7.23384e-05
7.2027e-05
8.71372e-05
0.00010107
-1.54493e-05
-3.53216e-05
-1.54183e-05
-3.53142e-05
0.000103427
0.000101272
0.000103471
4.21304e-06
0.000126066
4.73824e-07
5.17845e-06
-4.39987e-07
-6.76773e-06
-0.000124508
1.61944e-05
-2.76955e-05
0.000112257
6.61553e-07
0.000125707
5.1555e-06
4.91976e-07
-6.75534e-06
-0.000124145
7.99128e-07
1.62271e-05
0.000112605
-8.43653e-07
-2.77482e-05
-3.53554e-07
-0.000126125
1.63489e-06
-3.55614e-06
0.000128011
3.91599e-07
-8.2849e-08
-4.84231e-06
5.31224e-06
1.21141e-07
-0.000130268
3.24721e-08
-4.8252e-06
-0.000129822
2.2894e-09
5.2939e-06
-0.00012656
3.46644e-07
1.63886e-06
-2.9745e-07
0.000128443
-3.57142e-06
1.65062e-06
-3.11665e-07
-3.57122e-06
0.000127945
-4.80656e-06
5.25367e-06
-0.000129361
2.61659e-08
1.63577e-06
3.88713e-07
-3.5657e-06
0.000127585
-4.81018e-06
-0.000129744
7.25647e-08
5.274e-06
5.16108e-06
-6.75027e-06
-0.000124561
5.0304e-07
8.19737e-07
1.62225e-05
-2.77645e-05
-8.66187e-07
0.000113063
1.62053e-05
0.000112649
-2.77056e-05
7.21346e-07
4.77684e-07
5.17031e-06
-4.37211e-07
-6.77e-06
-0.000124999
-4.21603e-05
0.000368325
5.05232e-06
-4.74247e-06
-5.21234e-06
4.21104e-05
5.72564e-06
8.77046e-05
7.33971e-05
7.28461e-05
8.8262e-05
-4.5089e-06
-0.000369352
0.000102452
4.94675e-06
-1.56467e-05
-3.54986e-05
-3.55115e-05
-1.56301e-05
0.000104793
0.000102396
0.000104593
-4.88822e-06
8.76214e-05
7.30639e-05
7.27737e-05
8.792e-05
-4.22382e-06
0.000102056
-1.56369e-05
-3.54904e-05
-1.55985e-05
-3.5485e-05
0.000104415
0.00010228
0.000104472
5.53818e-06
-4.23707e-05
-4.37104e-06
0.000367596
4.47943e-06
4.2359e-05
8.72689e-05
7.27431e-05
7.24472e-05
8.7567e-05
-0.000366623
3.9343e-06
0.000101603
-1.56242e-05
-3.54618e-05
-1.55643e-05
-3.54763e-05
0.000103967
0.000101834
0.000104035
8.73407e-05
7.30481e-05
7.25055e-05
8.7888e-05
0.000101992
-1.56382e-05
-3.54854e-05
-1.56103e-05
-3.5504e-05
0.000104347
0.000101947
0.000104147
-5.40145e-07
0.000127213
5.23789e-06
-6.84004e-06
-0.000125661
5.92e-07
1.09247e-06
1.63241e-05
-2.79361e-05
-1.09199e-06
0.000114068
-9.33038e-07
1.63146e-05
0.000113685
-2.78918e-05
8.79029e-07
0.000127596
6.44566e-07
5.24532e-06
-5.7773e-07
-6.86336e-06
-0.000126046
-0.000127118
3.95825e-07
1.67342e-06
-3.38954e-07
-3.60794e-06
0.000128995
-4.85693e-06
5.33314e-06
-0.000130404
-3.70556e-08
-0.000126712
1.66418e-06
4.03221e-07
0.000128589
-3.59625e-06
-9.34763e-08
-4.87585e-06
-0.000130836
1.36589e-07
5.35294e-06
5.22734e-06
-4.92312e-07
-6.82671e-06
-0.000125567
1.62781e-05
-2.78307e-05
0.000113213
7.61484e-07
5.20925e-06
5.24991e-07
-6.80668e-06
-0.000125158
1.63058e-05
0.000113607
-2.78908e-05
-9.58126e-07
1.68133e-06
-3.61484e-06
4.54084e-07
0.00012909
-9.88872e-08
-4.9102e-06
5.3875e-06
-0.000131334
1.43408e-07
4.78566e-07
1.68681e-06
-4.04124e-07
-3.63017e-06
0.000129463
-4.89409e-06
-0.000130935
5.37683e-06
-4.72845e-08
-6.16755e-06
0.000371437
-4.02662e-05
7.28775e-06
-0.000370415
5.56396e-06
-1.54001e-05
-3.46633e-05