/*--------------------------------*- C++ -*----------------------------------*\
| =========                 |                                                 |
| \\      /  F ield         | OpenFOAM: The Open Source CFD Toolbox           |
|  \\    /   O peration     | Version:  2012                                  |
|   \\  /    A nd           | Website:  www.openfoam.com                      |
|    \\/     M anipulation  |                                                 |
\*---------------------------------------------------------------------------*/
FoamFile
{
    version     2.0;
    format      ascii;
    class       volVectorField;
    location    "0.104/fluid";
    object      U;
}
// * * * * * * * * * * * * * * * * * * * * * * * * * * * * * * * * * * * * * //

dimensions      [0 1 -1 0 0 0 0];


internalField   nonuniform List<vector> 
16422
(
(1.19992 3.97507e-06 2.10727e-05)
(1.19963 8.13232e-05 5.01882e-05)
(1.19939 0.000140742 2.60875e-05)
(1.19952 0.000203972 2.605e-05)
(1.19948 0.000300277 2.73182e-05)
(1.19937 0.00045251 3.27881e-05)
(1.19923 0.000693818 4.37871e-05)
(1.19904 0.00107423 6.00396e-05)
(1.1988 0.00166677 8.85183e-05)
(1.19844 0.00258747 0.000139217)
(1.19794 0.004 0.000220877)
(1.19711 0.00622023 0.000394377)
(1.19515 0.0102516 0.000939286)
(1.19045 0.0213041 0.00283223)
(1.20926 0.0615557 0.00455488)
(1.19991 1.60868e-06 2.12295e-05)
(1.19963 5.52888e-05 5.24752e-05)
(1.19942 0.000105289 2.76623e-05)
(1.19958 0.000154706 2.70059e-05)
(1.19957 0.000227935 2.9238e-05)
(1.19953 0.000344215 3.25613e-05)
(1.19948 0.000523957 4.03349e-05)
(1.19946 0.000803695 5.42181e-05)
(1.19946 0.00123896 7.39756e-05)
(1.19953 0.00190351 0.000105402)
(1.1997 0.0029191 0.000155957)
(1.20007 0.00450344 0.000227391)
(1.20108 0.00706873 0.000332757)
(1.20433 0.0109183 0.000460554)
(1.21322 0.011542 0.000235689)
(1.19991 -6.5813e-06 2.14685e-05)
(1.19964 -4.01473e-07 5.37104e-05)
(1.19944 4.16841e-05 2.79826e-05)
(1.19962 7.11542e-05 2.68778e-05)
(1.19964 0.000112673 2.97665e-05)
(1.19963 0.000171976 3.28124e-05)
(1.19965 0.000264579 3.90616e-05)
(1.19972 0.000405487 5.01809e-05)
(1.19988 0.000622602 6.45982e-05)
(1.20019 0.000953268 8.55484e-05)
(1.20076 0.00144999 0.000112922)
(1.20179 0.00218009 0.000137906)
(1.20365 0.00315506 0.000146145)
(1.20685 0.00396525 0.000105897)
(1.21078 0.0027932 -9.74225e-07)
(1.19994 3.89728e-06 5.05039e-06)
(1.19985 8.10683e-05 5.70682e-05)
(1.19971 0.000138886 6.21352e-05)
(1.1999 0.00020124 7.40534e-05)
(1.19991 0.000296671 0.0001044)
(1.19988 0.000444909 0.000151914)
(1.19982 0.000676759 0.000225848)
(1.19974 0.00104188 0.000337648)
(1.19964 0.00160719 0.000504303)
(1.19953 0.00247267 0.000752637)
(1.19943 0.00377846 0.00112936)
(1.19932 0.00573603 0.00170933)
(1.19898 0.00891182 0.00257383)
(1.19814 0.0163082 0.00362662)
(1.21145 0.0427011 0.00331749)
(1.19994 1.66006e-06 4.89941e-06)
(1.19986 5.56577e-05 5.52155e-05)
(1.19974 0.000103372 5.7987e-05)
(1.19996 0.000152128 6.86765e-05)
(1.20002 0.000224826 9.59213e-05)
(1.20005 0.000337082 0.000138554)
(1.20008 0.000511464 0.00020077)
(1.20015 0.000780363 0.000290366)
(1.20028 0.00119457 0.000418774)
(1.20051 0.00181931 0.000595932)
(1.20091 0.00276153 0.000837761)
(1.20165 0.00419351 0.00115841)
(1.20309 0.00643141 0.00152975)
(1.20656 0.0096663 0.00175868)
(1.21437 0.0100728 0.00133072)
(1.19994 -6.35113e-06 4.75783e-06)
(1.19986 -1.02051e-07 5.42176e-05)
(1.19977 4.03567e-05 5.52659e-05)
(1.20001 6.94893e-05 6.58464e-05)
(1.20009 0.000109764 9.01734e-05)
(1.20015 0.000168879 0.000129793)
(1.20025 0.00025902 0.000184722)
(1.20041 0.000394047 0.000260578)
(1.20068 0.000600051 0.000364091)
(1.20111 0.00091192 0.000497248)
(1.20183 0.00137381 0.000660272)
(1.20302 0.00204256 0.00083913)
(1.20498 0.00292433 0.000983446)
(1.20807 0.00364767 0.000979882)
(1.21157 0.00252189 0.000675385)
(1.19994 3.78203e-06 7.27909e-06)
(1.19984 7.92515e-05 8.6243e-05)
(1.19972 0.000135513 0.00010615)
(1.19993 0.000193576 0.000130871)
(1.19997 0.000284271 0.000180187)
(1.19996 0.000424109 0.000259913)
(1.19995 0.000638713 0.000382712)
(1.19994 0.000970039 0.000568696)
(1.19994 0.00147563 0.000845396)
(1.19998 0.0022333 0.00124789)
(1.2001 0.00334239 0.00183348)
(1.20032 0.00492834 0.00267854)
(1.20039 0.00733321 0.00382587)
(1.19922 0.0132125 0.00493468)
(1.20862 0.0390693 0.00412683)
(1.19994 1.64607e-06 7.11337e-06)
(1.19985 5.46128e-05 8.35269e-05)
(1.19975 9.96209e-05 0.000101865)
(1.19999 0.000147057 0.000122735)
(1.20007 0.000215728 0.000166685)
(1.20012 0.000321476 0.0002362)
(1.20019 0.000482759 0.000341189)
(1.20031 0.000726838 0.000490622)
(1.20051 0.00109587 0.000703999)
(1.20083 0.00164315 0.000996308)
(1.20134 0.00244402 0.00138644)
(1.20218 0.00362156 0.00188527)
(1.20361 0.00542411 0.00243403)
(1.20658 0.00809516 0.00274437)
(1.21324 0.0085936 0.00214501)
(1.19994 -6.20051e-06 6.98104e-06)
(1.19986 -7.53451e-07 8.13214e-05)
(1.19978 3.81049e-05 9.84511e-05)
(1.20003 6.63347e-05 0.000117916)
(1.20013 0.000104504 0.000158248)
(1.20022 0.000161183 0.000221937)
(1.20035 0.000243753 0.000313524)
(1.20055 0.000366924 0.00044056)
(1.20086 0.000550762 0.000613348)
(1.20135 0.00082317 0.000835916)
(1.20211 0.00121695 0.00110345)
(1.2033 0.00177215 0.0013917)
(1.20514 0.00249207 0.00161609)
(1.2079 0.00307814 0.00159005)
(1.21095 0.00207222 0.00109607)
(1.17493 0.0945432 0.0124246)
(0.927084 -0.143471 -0.0187944)
(1.19177 0.0605617 0.00948721)
(1.32854 -0.0545817 -0.00585111)
(1.1913 0.0615946 0.00485149)
(1.32921 -0.0532342 0.00910254)
(1.18882 0.0578471 0.00460988)
(1.32416 -0.0537919 -0.00826047)
(1.1876 0.058136 0.0043232)
(1.32317 -0.0538475 0.00742931)
(1.18288 0.0223339 0.0043833)
(1.16694 0.0603511 0.0102189)
(1.19506 0.0156007 0.00583816)
(1.19295 0.0369493 0.00906779)
(0.652703 0.0180935 0.0906916)
(1.15694 -0.00526748 0.0338474)
(1.28944 0.00551214 -0.00515125)
(1.21715 0.0171962 0.000678737)
(1.23239 0.00154037 -4.3499e-06)
(1.21211 0.0420008 0.00527271)
(1.28411 0.0138267 -0.00104469)
(1.21934 0.0151726 0.00196325)
(1.23365 0.00268517 0.000833233)
(1.19461 0.0157997 0.00435084)
(1.1923 0.0378096 0.00513759)
(1.19621 0.0129081 0.00542356)
(1.19159 0.0336625 0.00534273)
(1.13154 -0.0209731 0.00763682)
(1.12984 -0.0279265 0.00834361)
(1.28252 0.0138049 2.57852e-05)
(1.21906 0.0152217 0.00178779)
(1.23298 0.00314958 0.000661612)
(1.20935 0.0391909 0.00399679)
(1.28033 0.0137938 0.0017722)
(1.21799 0.0137659 0.00221412)
(1.23135 0.00250913 0.000249161)
(1.1963 0.0124091 0.00553879)
(1.19071 0.0335718 0.00516133)
(1.12392 -0.0263352 0.00433475)
(1.12233 -0.0277675 0.0073631)
(1.27965 0.0142194 0.0015288)
(1.21745 0.0133704 0.00231769)
(1.23039 0.00238042 -0.000121236)
(1.06975 0.0807032 0.0221415)
(1.16702 0.10561 0.0108234)
(1.20746 0.067821 0.0167464)
(1.1569 0.0605321 0.0305955)
(1.24027 0.0994803 0.0216251)
(0.848404 0.0536931 0.0474849)
(1.34404 -0.0640773 -0.0048246)
(1.3154 0.091985 0.0206217)
(1.13285 -0.024545 0.0166765)
(1.13577 -0.0128563 0.0271453)
(1.1913 0.0691666 0.00776796)
(1.13007 0.0396686 0.0122518)
(1.2147 0.0919413 0.0085325)
(1.13146 0.0490971 0.0100161)
(1.21757 0.099334 0.00883359)
(1.33888 -0.0550271 0.00839732)
(1.28429 0.088645 0.00751714)
(1.29208 0.0956437 0.00489075)
(1.12959 0.0417997 0.00518063)
(1.21424 0.0931712 0.00398213)
(1.19079 0.0583437 0.00577222)
(1.12793 0.036919 0.00641316)
(1.21233 0.0910374 0.00447428)
(1.28438 0.0902593 0.00193522)
(1.3263 -0.0532882 -0.00696655)
(1.2815 0.0888282 0.00475656)
(1.12587 -0.0281558 0.00585456)
(1.1276 -0.0245138 0.00360101)
(1.1897 0.0591433 0.00358291)
(1.12504 0.0368688 0.0048677)
(1.20995 0.091487 0.00320836)
(1.12666 0.0392309 0.00358903)
(1.21161 0.0919676 0.00245228)
(1.32611 -0.0533532 0.00807609)
(1.27934 0.0895366 0.00392192)
(1.28162 0.0894682 0.000191107)
(1.12353 0.0379363 0.00445448)
(1.20864 0.0921115 0.00291197)
(1.18651 0.0574337 0.00604836)
(1.12203 0.0367775 0.00667564)
(1.20674 0.0920235 0.00449326)
(1.27881 0.0900318 4.37973e-05)
(1.32034 -0.0544774 -0.00945291)
(1.27587 0.0902586 0.00510526)
(1.121 -0.026802 0.00953993)
(1.18554 0.0566352 0.00800242)
(1.12087 0.0364882 0.00925326)
(1.20465 0.091716 0.00653608)
(1.31808 -0.0544293 0.00710696)
(1.27419 0.0904167 0.0020815)
(1.20133 -0.0896601 0.0739429)
(1.20613 -0.189537 0.0285477)
(1.13309 -0.0668566 0.0218632)
(1.28624 -0.160581 0.050353)
(1.18136 -0.0554091 0.0433505)
(1.14085 -0.100594 0.0262626)
(1.2519 -0.0867764 0.099893)
(0.28505 -0.0310249 0.0634809)
(1.18691 -0.00654856 0.045028)
(1.10325 -0.138076 0.00419131)
(1.15126 -0.215927 0.00376338)
(1.1103 -0.0934605 0.00615296)
(1.15185 -0.214969 0.00461892)
(1.11167 -0.092789 0.0049723)
(1.10237 -0.139005 0.00868201)
(1.10549 -0.130397 0.0125506)
(1.15854 -0.20301 0.000298606)
(1.11626 -0.0869883 0.0054282)
(1.10641 -0.129878 0.00208375)
(1.15607 -0.203717 0.0096386)
(1.11458 -0.0872127 0.00770347)
(1.09256 -0.138003 0.0015642)
(1.13987 -0.216381 0.00726861)
(1.09736 -0.0930039 0.00789109)
(1.14064 -0.215875 0.00182588)
(1.09866 -0.0928051 0.00339716)
(1.09181 -0.13822 0.0105681)
(1.09421 -0.136024 0.00844642)
(1.14401 -0.212399 -0.00146236)
(1.10216 -0.091332 0.00106215)
(1.09515 -0.135984 -0.00161383)
(1.14273 -0.212869 0.00592312)
(1.10079 -0.0913923 0.00530334)
(1.35608 -0.267861 0.0138999)
(1.82954 0.000133747 -0.107929)
(1.63845 0.073641 -0.090393)
(1.71532 0.1554 -0.129115)
(1.13661 0.177314 -0.0095187)
(1.16544 0.127135 0.0344846)
(1.19224 0.23333 0.0251451)
(1.16576 0.134443 0.00702724)
(1.19007 0.244283 -0.00244905)
(1.14268 0.162826 0.0320377)
(1.34571 0.205295 0.0474597)
(0.682421 0.0655546 0.0544696)
(0.785123 0.16893 0.0172957)
(1.3051 0.177191 0.0494286)
(1.39071 0.22456 0.0196636)
(0.736958 0.130358 0.045765)
(1.61013 0.0833316 0.00940606)
(1.33252 0.270395 0.0156628)
(1.36651 0.278673 -0.00565693)
(1.58957 0.0900977 -0.0201717)
(1.85418 0.0560439 -0.0586845)
(1.07454 -0.193016 0.0158533)
(1.8426 -0.106462 -0.0621664)
(1.08815 -0.0614203 0.00432224)
(1.64707 0.0045072 0.0143495)
(1.59947 -0.135866 -0.0436875)
(1.6312 0.0181588 -0.0299775)
(1.61312 -0.157667 0.00891387)
(1.80313 0.123884 -0.0497727)
(0.633141 0.14247 0.0321287)
(1.56752 0.261769 -0.000554736)
(1.01509 0.00483614 -0.00341933)
(1.11306 -0.126858 0.0333987)
(1.17458 -0.198446 0.025437)
(1.13125 -0.0817625 0.0320005)
(1.11914 -0.121756 0.03329)
(1.16957 -0.19961 0.0269614)
(1.12161 -0.0828201 0.024672)
(1.11159 -0.135731 0.0172808)
(1.16242 -0.21587 0.00902889)
(1.11838 -0.0920866 0.0125915)
(1.11012 -0.137954 0.0157971)
(1.16527 -0.213349 0.0173408)
(1.12008 -0.0899539 0.015709)
(1.32973 -0.24144 0.0160562)
(1.31951 -0.244762 0.0211565)
(1.59687 0.111478 -0.0547677)
(1.59956 0.115121 0.0298054)
(1.59615 0.154946 -0.0407642)
(1.59634 0.12912 -0.034629)
(1.31689 -0.257901 0.0229401)
(1.10833 0.149302 0.0131654)
(1.13466 0.110231 0.0164105)
(1.1676 0.222617 0.00743762)
(1.11532 0.153776 0.00617849)
(1.128 0.108101 0.0146652)
(1.15836 0.220724 0.0110513)
(1.10522 0.144346 0.0055114)
(1.12277 0.100712 0.0110404)
(1.15332 0.21344 0.00851489)
(1.12442 0.102682 0.0119814)
(1.15352 0.215254 0.00447333)
(1.1048 0.142489 0.0123675)
(1.55868 0.087256 -0.0211292)
(1.31669 0.264386 0.0133159)
(1.57594 0.0827239 0.0292971)
(1.29926 0.262464 0.00440493)
(1.59671 0.0151331 0.0316612)
(1.57302 -0.126927 -0.0334766)
(1.5749 -0.128174 0.0336427)
(1.59444 0.0143598 -0.0279216)
(1.6023 0.0194902 -0.0286167)
(1.59405 -0.133951 0.0310369)
(1.61909 0.0126791 0.0341876)
(1.58008 -0.126243 -0.0358093)
(1.55367 0.0827577 0.0261867)
(1.29461 0.256243 0.00203868)
(1.29578 0.258738 0.00755696)
(1.55164 0.0811599 -0.021141)
(1.58487 0.134612 0.00926882)
(1.57976 0.132851 -0.0305512)
(1.58036 0.121187 -0.043216)
(1.58195 0.12053 0.036121)
(1.10134 0.14168 0.00065132)
(1.11687 0.0992662 0.00533699)
(1.14841 0.213536 0.00505471)
(1.11789 0.0994398 0.00444729)
(1.1488 0.213537 0.000989774)
(1.10062 0.141349 0.00812039)
(1.10433 0.144802 0.00865455)
(1.12294 0.103725 0.00474102)
(1.15382 0.216593 0.00170343)
(1.12149 0.10316 0.0064021)
(1.10511 0.145527 0.000768632)
(1.15228 0.216074 0.00611269)
(1.5479 0.0825688 0.0258449)
(1.29005 0.256748 -0.000289078)
(1.29064 0.256764 0.0051182)
(1.54752 0.0825173 -0.0222884)
(1.5935 0.017162 -0.0275974)
(1.57469 -0.125834 0.034509)
(1.59636 0.016877 0.0325392)
(1.57222 -0.125206 -0.0317698)
(1.55043 0.0838921 -0.0213292)
(1.29551 0.258428 0.00586901)
(1.55323 0.0837513 0.0267971)
(1.29305 0.258238 0.00112642)
(1.59099 0.0160213 0.0318202)
(1.56985 -0.125606 -0.032759)
(1.5906 0.0159653 -0.0285436)
(1.57037 -0.125653 0.0349027)
(1.09925 -0.133636 0.00805131)
(1.15003 -0.208155 -0.00260897)
(1.10879 -0.0895981 0.000844564)
(1.1003 -0.133549 -0.00238651)
(1.14827 -0.208674 0.00566149)
(1.10733 -0.0896488 0.00438143)
(1.09752 -0.138061 0.000705715)
(1.14511 -0.215719 0.00389013)
(1.10364 -0.0931279 0.00502478)
(1.09671 -0.138573 0.00767382)
(1.14555 -0.21507 0.00123424)
(1.1049 -0.092755 0.00216563)
(1.09979 0.143894 0.00717897)
(1.11659 0.101973 0.00148442)
(1.14865 0.216139 -0.000436377)
(1.10051 0.143883 -0.00136789)
(1.11542 0.101899 0.00407154)
(1.1477 0.21639 0.00462661)
(1.09784 0.142546 -0.000767038)
(1.11188 0.100078 0.00436732)
(1.14496 0.216115 0.00454107)
(1.11291 0.100048 0.00230827)
(1.14558 0.2157 -0.000261674)
(1.09705 0.142553 0.00746185)
(1.54745 0.0841922 -0.0223296)
(1.2907 0.258128 0.00386784)
(1.54841 0.083663 0.025096)
(1.28955 0.258861 -0.000160132)
(1.58958 0.0169379 0.0308601)
(1.56813 -0.126274 -0.0337017)
(1.56855 -0.126129 0.0340328)
(1.58924 0.0172734 -0.029043)
(1.59065 0.0171673 -0.0285452)
(1.57022 -0.125762 0.0339613)
(1.59153 0.016843 0.031026)
(1.56945 -0.125813 -0.03284)
(1.54629 0.0839628 0.0248836)
(1.28754 0.259226 -0.000554827)
(1.28829 0.258483 0.00402555)
(1.54587 0.0845421 -0.0227485)
(1.09369 0.143537 0.000651739)
(1.10633 0.100603 0.00711)
(1.14037 0.218736 0.00701407)
(1.10755 0.100741 0.00362658)
(1.14139 0.218371 0.000889062)
(1.09289 0.143452 0.010089)
(1.09541 0.143962 0.00804535)
(1.11082 0.101473 0.00170432)
(1.14426 0.21773 -0.000398983)
(1.10962 0.101442 0.00486798)
(1.0962 0.14387 -0.00100296)
(1.14326 0.218155 0.00528381)
(1.54387 0.0861786 0.0252407)
(1.28351 0.262011 0.00196034)
(1.2851 0.261154 0.00488005)
(1.5422 0.0869734 -0.0211799)
(1.58825 0.0180972 -0.0286761)
(1.56771 -0.126613 0.0336155)
(1.58921 0.0176668 0.0305691)
(1.56686 -0.126727 -0.0340645)
(1.54475 0.085923 -0.0222337)
(1.28742 0.260026 0.00381202)
(1.54583 0.0851716 0.0246526)
(1.28614 0.261016 0.000371084)
(1.58744 0.0182036 0.0310603)
(1.56446 -0.127055 -0.0344092)
(1.58585 0.0186992 -0.0278728)
(1.56596 -0.127129 0.0337613)
(1.0893 -0.136855 0.0144206)
(1.13789 -0.215419 0.00327569)
(1.09553 -0.0924873 0.00583035)
(1.08992 -0.137172 0.00328745)
(1.13645 -0.21556 0.011531)
(1.09416 -0.0922844 0.0119379)
(1.08691 -0.136779 0.0104732)
(1.13331 -0.216032 0.0101578)
(1.09198 -0.0925524 0.0133768)
(1.09053 0.143347 0.0138436)
(1.10456 0.100994 0.00616241)
(1.1384 0.219483 0.00326324)
(1.0912 0.143689 0.00312543)
(1.1032 0.100615 0.0111692)
(1.1369 0.219596 0.0107751)
(1.08817 0.142635 0.00956316)
(1.10104 0.100211 0.013419)
(1.13381 0.219475 0.00930635)
(1.53733 0.0885295 -0.018512)
(1.28233 0.262389 0.00685835)
(1.5411 0.0874272 0.0265636)
(1.27951 0.263094 0.0059159)
(1.57898 0.0200149 0.0344308)
(1.55773 -0.127595 0.0338272)
(1.58106 0.0198359 -0.0257723)
(1.56327 -0.127585 0.0339381)
(1.58483 0.0189357 0.0321303)
(1.55975 -0.126904 -0.0347415)
(1.5351 0.0889217 0.0295659)
(1.27725 0.263093 0.0117035)
(1.12083 -0.172964 0.022302)
(1.11222 -0.663279 0.0503169)
(0.796765 -0.118307 0.0421313)
(1.12608 -0.658664 0.0268726)
(0.808321 -0.10538 0.0142422)
(1.1069 -0.180926 0.0227648)
(0.728405 -0.126384 0.0858184)
(0.156774 0.18441 0.0232668)
(0.859298 -0.494311 0.155586)
(0.678854 0.0644233 0.0167434)
(0.0855446 0.03699 -0.0468741)
(0.669434 0.111963 -0.13795)
(0.586564 0.112642 -0.187735)
(1.07472 -0.198991 0.00274625)
(1.08265 -0.657653 0.0177074)
(0.778814 -0.131551 0.0202453)
(1.0764 -0.658202 -0.0174968)
(0.771305 -0.133377 -0.0140254)
(1.08247 -0.197507 0.00599265)
(1.08384 -0.190484 0.0055742)
(1.09388 -0.653814 -0.0154359)
(0.788415 -0.127429 -0.0135396)
(1.09299 -0.190213 0.00145609)
(1.08505 -0.653206 0.0235133)
(0.779825 -0.127466 0.0211557)
(0.632654 0.110903 -0.0849619)
(0.641006 0.111137 0.0175903)
(0.6308 0.109435 0.0360436)
(0.613248 0.109562 -0.0705682)
(1.06013 -0.201004 0.00398107)
(1.06952 -0.661348 0.0220824)
(0.76282 -0.131751 0.0230605)
(1.06361 -0.661501 -0.0157348)
(0.755856 -0.132864 -0.0129559)
(1.06734 -0.200355 0.00883963)
(1.06551 -0.197778 0.00221053)
(1.0758 -0.657774 -0.0177463)
(0.770431 -0.129849 -0.0175678)
(1.0744 -0.196802 -0.0023897)
(1.06798 -0.658188 0.0205285)
(0.76186 -0.130792 0.018156)
(0.624618 0.111114 -0.0686719)
(0.628056 0.112806 0.0439893)
(0.632261 0.113147 0.0366953)
(0.615502 0.112555 -0.0659046)
(0.9088 -0.179407 0.039929)
(1.37207 -0.85258 0.0577265)
(1.40409 -0.856052 0.0354944)
(0.870509 -0.167471 -0.013516)
(0.103598 0.0064524 -0.0216615)
(0.0554658 -0.0120461 -0.0296877)
(0.567986 0.0455287 -0.160609)
(0.589898 0.0836625 -0.116625)
(0.52393 0.0854909 -0.168206)
(0.625537 0.0428646 -0.0935384)
(0.954587 -0.293216 -0.00680495)
(1.05138 -0.677356 0.0854274)
(1.12385 0.220905 0.0204732)
(0.813698 0.162368 0.0413332)
(1.13212 0.671364 0.0408489)
(0.802366 0.177427 -9.33256e-05)
(1.12489 0.685627 -0.000302777)
(1.13562 0.211325 0.0268272)
(1.00801 0.207754 0.0881184)
(0.311674 0.227068 0.0496967)
(0.61236 0.559582 -0.1211)
(0.637999 0.23513 0.0786765)
(1.01916 0.592883 -0.131863)
(0.478716 0.257734 0.065222)
(0.815592 0.163159 0.0157484)
(1.3706 0.853303 0.0429312)
(1.36113 0.873704 -0.00757461)
(0.838789 0.167061 -0.0210529)
(0.334666 -0.0467468 0.0926523)
(0.237171 -0.100892 0.0385538)
(0.395804 -0.0684842 0.134539)
(0.313808 -0.0781038 0.0437616)
(0.505035 -0.0516588 -0.0721003)
(0.526622 -0.0868655 0.0140936)
(0.52781 -0.0476242 0.0104208)
(0.51405 -0.0883717 -0.0741451)
(0.784047 0.172513 -0.104919)
(0.628358 0.451804 -0.0749702)
(1.32333 0.789204 -0.185582)
(0.624686 0.0623896 -0.0187343)
(1.1002 -0.191537 0.0297679)
(1.11167 -0.663972 0.0115777)
(0.79885 -0.128947 0.00919413)
(1.10761 -0.188224 0.0251722)
(1.10461 -0.661794 0.0454786)
(0.791488 -0.130225 0.0412764)
(1.08659 -0.198129 0.00991266)
(1.09413 -0.65963 0.0224044)
(0.788305 -0.131917 0.025288)
(1.09368 -0.196787 0.0113501)
(1.08909 -0.660641 -0.010758)
(0.781178 -0.133602 -0.00685323)
(0.863743 -0.165136 -0.0199804)
(1.37414 -0.851597 0.00831616)
(0.877947 -0.169156 0.0199314)
(1.36093 -0.844795 0.047745)
(0.537386 0.0475583 -0.0762647)
(0.548098 0.0828735 0.0037483)
(0.523231 0.0835748 -0.0768063)
(0.563535 0.0445431 0.00602645)
(0.634775 0.0471439 -0.0472484)
(0.600406 0.0888136 -0.134844)
(0.631971 0.0489351 -0.13849)
(0.597481 0.0875495 -0.0583325)
(0.833624 -0.162737 0.0161528)
(1.34618 -0.841118 0.0237141)
(1.34041 -0.843289 -0.0149281)
(0.839862 -0.16467 -0.0260943)
(1.09506 0.195607 0.0116667)
(0.797733 0.148488 0.000702411)
(1.11552 0.658822 0.00220961)
(1.11473 0.197094 0.0131863)
(0.78166 0.148678 0.0341205)
(1.09837 0.656326 0.0357867)
(1.08626 0.190031 0.00810463)
(0.782818 0.143382 0.0266121)
(1.09563 0.64953 0.0238553)
(0.774732 0.143837 -0.00971505)
(1.08876 0.649222 -0.0124529)
(1.09451 0.189699 0.00974116)
(0.820967 0.161202 -0.0145886)
(1.36154 0.847173 -0.00198861)
(0.838153 0.166619 0.0193843)
(1.33415 0.839283 0.0402177)
(0.529338 -0.0479149 -0.058884)
(0.533396 -0.0840975 0.0509112)
(0.523459 -0.084947 -0.0633672)
(0.539717 -0.0461947 0.0455627)
(0.523351 -0.049789 0.0243571)
(0.508546 -0.0866315 -0.0727972)
(0.504582 -0.0493194 -0.0732217)
(0.520507 -0.0866427 0.0278007)
(0.821774 0.161457 0.0197543)
(1.33458 0.832585 0.0279565)
(1.32578 0.832436 -0.0162297)
(0.827932 0.1631 -0.0178043)
(0.256724 -0.117844 0.050899)
(0.467538 -0.0845816 0.156159)
(0.612688 -0.112868 0.0139257)
(0.597076 -0.114763 -0.0810881)
(0.631327 0.108842 0.000903156)
(0.602339 0.10871 -0.0834417)
(0.68405 0.116274 -0.147686)
(0.679702 0.114224 -0.0702192)
(0.61851 -0.10963 0.0559471)
(0.606449 -0.110215 -0.0687969)
(0.59275 -0.112094 -0.0783639)
(0.603565 -0.111914 0.0298197)
(0.823348 -0.161245 0.01594)
(1.333 -0.836805 0.0202455)
(1.32448 -0.83762 -0.0217625)
(0.832393 -0.163676 -0.0245782)
(0.57477 0.0474283 0.0191177)
(0.549004 0.085054 -0.0778881)
(0.557764 0.0854472 0.0185567)
(0.564786 0.0465059 -0.0769338)
(0.836431 -0.162476 -0.021634)
(1.34728 -0.836819 -0.0219683)
(1.33451 -0.83454 0.0272108)
(0.845696 -0.164795 0.011876)
(0.541949 0.0482058 -0.0615012)
(0.546264 0.0837795 0.0343906)
(0.53156 0.0844693 -0.0649736)
(0.557056 0.0460213 0.0310337)
(1.07966 0.190759 0.00310467)
(0.775558 0.143887 0.022136)
(1.08993 0.650855 0.0197989)
(0.767886 0.143904 -0.0152123)
(1.083 0.649981 -0.0171552)
(1.08772 0.190757 0.00552909)
(1.08582 0.194235 0.00442889)
(0.78304 0.146343 -0.0144136)
(1.09665 0.652073 -0.0128631)
(0.774208 0.148043 0.0227015)
(1.09505 0.192333 0.00245516)
(1.08879 0.652916 0.0241728)
(0.82007 0.161032 0.0188929)
(1.32923 0.833045 0.0239688)
(1.32004 0.831727 -0.0206067)
(0.826574 0.162916 -0.0196323)
(0.534815 -0.0483221 0.045178)
(0.52819 -0.0836188 -0.0628969)
(0.533796 -0.0459054 -0.0568699)
(0.529389 -0.0850881 0.0506485)
(0.817902 0.160738 -0.0178259)
(1.33576 0.834747 -0.0160579)
(0.828599 0.163852 0.02133)
(1.32462 0.834721 0.0283501)
(0.533983 -0.0478743 -0.0556272)
(0.535348 -0.0843079 0.05335)
(0.541273 -0.046306 0.0477933)
(0.527719 -0.0849135 -0.0611395)
(1.07375 -0.193955 0.00182346)
(1.0832 -0.654514 -0.0186638)
(0.779134 -0.128473 -0.0176631)
(1.08265 -0.193482 -0.00266597)
(1.07506 -0.654568 0.0200956)
(0.770493 -0.128951 0.0178224)
(1.06711 -0.199441 0.00152877)
(1.07582 -0.658758 0.018179)
(0.77081 -0.131172 0.0198361)
(1.07467 -0.198437 0.00554932)
(1.06946 -0.658954 -0.018359)
(0.7635 -0.132579 -0.0153265)
(0.828155 -0.161858 -0.0213335)
(1.33426 -0.834495 -0.024301)
(0.835716 -0.163939 0.0139592)
(1.32315 -0.833722 0.0240445)
(0.542359 0.0494235 -0.0574661)
(0.546301 0.085577 0.0424216)
(0.534181 0.0859238 -0.0614923)
(0.554584 0.0476951 0.0379508)
(0.55976 0.0486455 0.0353222)
(0.543115 0.084805 -0.0670844)
(0.554436 0.0471236 -0.0636667)
(0.548023 0.0858807 0.0388799)
(0.82256 -0.161515 0.016801)
(1.32635 -0.836023 0.021568)
(1.31762 -0.836332 -0.0223655)
(0.831415 -0.163804 -0.0227927)
(1.07875 0.194676 0.00189154)
(0.775331 0.146218 -0.0179244)
(1.09049 0.653157 -0.0162802)
(1.08782 0.192902 -0.000795344)
(0.766372 0.147686 0.0198112)
(1.08285 0.654024 0.0211863)
(1.07392 0.193902 0.00200626)
(0.768054 0.14553 0.0215007)
(1.08516 0.654935 0.0191436)
(0.760658 0.14588 -0.0164887)
(1.07862 0.654359 -0.0182813)
(1.0817 0.193641 0.0048758)
(0.817307 0.160586 -0.0195919)
(1.32995 0.834673 -0.0196864)
(0.827007 0.163337 0.0198947)
(1.31954 0.835128 0.0251124)
(0.530929 -0.048604 -0.0557776)
(0.535119 -0.0853475 0.0494211)
(0.526499 -0.0857044 -0.0606669)
(0.538915 -0.0470681 0.044877)
(0.536683 -0.0485243 0.0464237)
(0.531312 -0.0840374 -0.0619369)
(0.537106 -0.0461731 -0.0558946)
(0.531383 -0.0855613 0.0516009)
(0.817534 0.160913 0.0182632)
(1.32502 0.836402 0.0230305)
(1.31643 0.835397 -0.0217322)
(0.824253 0.162862 -0.021007)
(0.613182 -0.10904 -0.0686968)
(0.61295 -0.11034 0.0556824)
(0.620691 -0.109883 0.0587851)
(0.61107 -0.110173 -0.0667289)
(0.631493 0.111158 0.0446793)
(0.616693 0.110992 -0.0665461)
(0.62716 0.110277 -0.0730171)
(0.631394 0.111329 0.0408296)
(0.621064 -0.111088 0.0541669)
(0.610194 -0.11108 -0.0662149)
(0.616451 -0.109521 -0.0677929)
(0.615162 -0.110932 0.0567486)
(0.82236 -0.161941 0.0183688)
(1.32014 -0.836185 0.0259947)
(1.31245 -0.836799 -0.0196064)
(0.82977 -0.163712 -0.020638)
(0.552262 0.0504212 0.038457)
(0.54023 0.0858084 -0.0633701)
(0.544327 0.0874956 0.0421265)
(0.548384 0.0482852 -0.0592852)
(0.824829 -0.161803 -0.0207228)
(1.32687 -0.835328 -0.0224203)
(1.31621 -0.834949 0.024566)
(0.832739 -0.163996 0.0163542)
(0.537229 0.0513107 -0.057696)
(0.546399 0.0878148 0.0358983)
(0.532595 0.0877479 -0.0611675)
(0.551166 0.0500936 0.03392)
(1.06699 0.196598 0.00412482)
(0.759424 0.146492 0.0243151)
(1.07847 0.658826 0.0219602)
(0.752307 0.147191 -0.0144903)
(1.07261 0.658668 -0.0162158)
(1.07441 0.196128 0.00761105)
(1.07195 0.196279 0.00203776)
(0.767189 0.146713 -0.0181737)
(1.08493 0.656407 -0.0166808)
(0.758195 0.147864 0.0200142)
(1.08112 0.194792 -0.00094888)
(1.07716 0.657064 0.0210474)
(0.813058 0.16079 0.01877)
(1.31825 0.83968 0.0256813)
(1.31099 0.839446 -0.0197448)
(0.818761 0.16248 -0.0210058)
(0.534017 -0.0494562 0.0429651)
(0.529519 -0.0849796 -0.0619674)
(0.53311 -0.0469899 -0.0567473)
(0.531171 -0.0867301 0.0464815)
(0.814924 0.160497 -0.0205941)
(1.32525 0.837495 -0.0202537)
(0.824416 0.163188 0.0191086)
(1.31457 0.837749 0.024699)
(0.523512 -0.0498545 -0.0576887)
(0.535402 -0.0867247 0.0373451)
(0.534999 -0.0486362 0.0362548)
(0.523017 -0.0866877 -0.061371)
(1.05729 -0.201191 0.00709981)
(1.06885 -0.66138 -0.0133122)
(0.761564 -0.131465 -0.0134282)
(1.0663 -0.199879 0.00189603)
(1.06088 -0.66183 0.0253342)
(0.753067 -0.132655 0.0227683)
(0.820623 -0.161411 -0.0190101)
(1.32032 -0.836538 -0.0173132)
(0.830368 -0.164167 0.0190637)
(1.30884 -0.835683 0.0295431)
(0.546271 0.0528698 0.0292809)
(0.535923 0.0873537 -0.0635867)
(0.539505 0.0501121 -0.0601924)
(0.54298 0.0895786 0.0298354)
(1.06372 0.197827 0.00638395)
(0.757847 0.146893 -0.0145786)
(1.07751 0.659617 -0.0133317)
(1.07312 0.196472 0.00271262)
(0.748929 0.147766 0.0243254)
(1.06934 0.659989 0.0252394)
(0.808322 0.159945 -0.0199881)
(1.31824 0.84065 -0.0169405)
(0.819118 0.163035 0.0198811)
(1.30645 0.840081 0.0288692)
(0.529917 -0.0511908 0.0308896)
(0.525516 -0.0859673 -0.06332)
(0.524404 -0.0483611 -0.0596674)
(0.531797 -0.0880718 0.0303119)
(0.615043 -0.110601 -0.0677839)
(0.615636 -0.112271 0.0505851)
(0.622435 -0.112511 0.0400027)
(0.607398 -0.112107 -0.0668495)
(0.620637 0.112314 -0.0686269)
(0.62741 0.114567 0.0296648)
(0.611805 -0.11158 -0.069092)
(0.617533 -0.113628 0.0318555)
(1.17065 -0.167092 0.037717)
(1.18712 -0.657883 0.0278975)
(0.860563 -0.0986994 -0.00446711)
(1.19979 -0.151161 0.0259865)
(1.16627 -0.651959 0.0688142)
(0.842846 -0.101046 0.0459963)
(1.0755 -0.0862326 0.0749548)
(1.26335 -0.540687 0.0154577)
(0.960345 -0.0315617 0.0263155)
(1.27609 -0.0882176 0.0387787)
(1.10841 -0.46479 -0.0879493)
(0.827449 0.000197023 -0.0735112)
(0.741753 -0.12259 0.13316)
(0.837669 -0.365712 0.191021)
(0.683317 0.00197029 -0.0554196)
(0.70586 0.107456 -0.281371)
(0.374181 0.0616752 -0.0729052)
(0.730896 0.123418 -0.259968)
(0.637486 0.114023 -0.202621)
(1.07509 -0.198878 0.00491211)
(1.08454 -0.657036 -0.0120534)
(0.780963 -0.131035 -0.0135818)
(1.08461 -0.196239 0.00149919)
(1.07669 -0.658046 0.0228385)
(0.771738 -0.133451 0.0206472)
(1.08201 -0.190582 0.00453886)
(1.08826 -0.652783 0.0244732)
(0.784607 -0.127329 0.0236236)
(1.08841 -0.19098 0.00944582)
(1.08299 -0.653034 -0.0145764)
(0.77838 -0.127486 -0.0118335)
(0.643856 0.110442 0.0355303)
(0.625487 0.11119 -0.0776092)
(0.618913 0.10854 -0.0729274)
(0.625525 0.110486 0.0364593)
(1.06074 -0.200871 0.00438788)
(1.07168 -0.660267 -0.0148209)
(0.765416 -0.131187 -0.0155003)
(1.06977 -0.199211 -0.00020623)
(1.06404 -0.661039 0.0225814)
(0.756711 -0.132787 0.0201728)
(1.0644 -0.198179 0.00185191)
(1.07302 -0.658809 0.0208361)
(0.767359 -0.130237 0.0212979)
(1.07143 -0.197839 0.00692225)
(1.06703 -0.658802 -0.0174698)
(0.760588 -0.131036 -0.0148484)
(0.633526 0.112395 0.0448802)
(0.6188 0.112175 -0.0661735)
(0.622368 0.111568 -0.067139)
(0.626509 0.113581 0.0405752)
(0.923364 -0.151806 0.0274128)
(0.708171 -0.0611378 -0.0296311)
(0.716789 -0.0672075 -0.04052)
(0.885033 -0.139685 -0.0241164)
(0.935145 -0.181712 0.00320775)
(1.47368 -0.852156 0.0255485)
(1.43053 -0.849896 0.0844509)
(0.974004 -0.194558 0.0452846)
(0.952878 -0.156099 -0.00926949)
(0.788562 -0.0768612 -0.051454)
(0.756613 -0.0719325 -0.0317921)
(0.997238 -0.16898 0.0286653)
(0.98649 -0.0651239 -0.017207)
(0.638552 -0.0313767 -0.0129099)
(0.479113 -0.00835713 -0.103422)
(0.607461 0.0730938 -0.213551)
(0.35424 0.0412938 -0.0671399)
(0.582855 0.014768 -0.124053)
(0.111729 0.0197402 -0.0204362)
(0.251204 -0.0380048 -0.0452155)
(0.523725 -0.022512 -0.101164)
(0.793442 -0.0886859 -0.058156)
(0.562802 -0.00991273 -0.0809413)
(0.82041 -0.0857379 -0.100662)
(1.01349 -0.0966539 -0.0317229)
(1.45158 -0.299018 -0.03012)
(0.554319 0.0229144 -0.121566)
(0.723243 -0.0379706 -0.0426218)
(0.712797 -0.0419985 -0.0780719)
(0.590373 0.0211766 -0.0636907)
(0.619504 0.0428844 -0.132419)
(0.656933 0.0939071 -0.223789)
(0.569365 0.0874064 -0.17147)
(0.688481 0.0482987 -0.19028)
(0.598919 0.0185942 -0.0875757)
(0.796454 -0.0512432 -0.0917494)
(0.762364 -0.0481349 -0.0519992)
(0.645815 0.0223186 -0.14136)
(1.06283 -0.218092 -0.0140179)
(1.52372 -0.749297 0.033805)
(1.32767 -0.659934 -0.057082)
(1.08287 -0.222675 -0.0162619)
(1.49 -0.568647 0.073786)
(0.950509 -0.451273 0.188804)
(0.849128 -0.230464 -0.0265876)
(0.381417 -0.0673464 -0.0361771)
(1.09848 -0.198425 -0.0402101)
(0.824768 -0.110211 -0.0413002)
(1.1037 -0.204823 -0.027265)
(0.835623 -0.102099 -0.0658706)
(1.74291 -0.606626 0.0494016)
(1.37522 -0.318752 -0.0146532)
(1.0923 0.218962 8.58676e-05)
(0.822809 0.179624 -0.0138949)
(1.16116 0.70829 0.00764185)
(0.777345 0.18096 0.02876)
(1.15573 0.219563 -0.0108107)
(1.10554 0.696237 0.034868)
(1.25461 0.213779 0.0334359)
(1.00732 0.199769 0.0498623)
(1.34516 0.709521 0.0140202)
(0.89538 0.201667 -0.0264538)
(1.37296 0.234805 0.0352044)
(1.25526 0.669127 -0.135742)
(0.80605 0.130852 0.0113917)
(0.632657 0.0584692 -0.0119717)
(0.597458 0.0528366 -0.0182365)
(0.835511 0.136467 -0.0260411)
(0.799953 0.154741 -0.0211443)
(1.43594 0.901738 -0.00156577)
(1.34162 0.874769 0.0392575)
(0.831018 0.166314 0.0257276)
(0.796001 0.123014 -0.0255813)
(0.605449 0.0548788 -0.00393571)
(0.611246 0.0500766 -0.00899654)
(0.817636 0.13227 0.0245604)
(0.336189 -0.0445693 0.0702714)