/*--------------------------------*- C++ -*----------------------------------*\
| =========                 |                                                 |
| \\      /  F ield         | OpenFOAM: The Open Source CFD Toolbox           |
|  \\    /   O peration     | Version:  2012                                  |
|   \\  /    A nd           | Website:  www.openfoam.com                      |
|    \\/     M anipulation  |                                                 |
\*---------------------------------------------------------------------------*/
FoamFile
{
    version     2.0;
    format      ascii;
    class       surfaceVectorField;
    location    "0.104/fluid";
    object      Uf;
}
// * * * * * * * * * * * * * * * * * * * * * * * * * * * * * * * * * * * * * //

dimensions      [0 1 -1 0 0 0 0];


internalField   nonuniform List<vector> 
46880
(
(1.19992 4.15632e-06 2.10701e-05)
(1.19998 8.65778e-06 3.60812e-05)
(1.19992 3.84462e-06 2.10906e-05)
(1.19993 4.00482e-06 2.44717e-05)
(1.19963 8.26012e-05 4.97784e-05)
(1.19981 6.62683e-05 5.52084e-05)
(1.19977 9.38721e-05 4.40544e-05)
(1.19963 7.94204e-05 5.05177e-05)
(1.19978 8.24523e-05 5.33378e-05)
(1.19939 0.000142951 2.58082e-05)
(1.19968 0.000135738 2.63346e-05)
(1.19966 0.000147153 2.60791e-05)
(1.1994 0.000137743 2.63498e-05)
(1.19961 0.000141568 2.99299e-05)
(1.19952 0.000207025 2.57817e-05)
(1.19959 0.000194672 2.60442e-05)
(1.19956 0.000214305 2.62036e-05)
(1.19953 0.000199627 2.6261e-05)
(1.19979 0.000204717 3.23062e-05)
(1.19946 0.000305529 2.70776e-05)
(1.19949 0.000286341 2.68058e-05)
(1.19947 0.000315915 2.8164e-05)
(1.19949 0.000293644 2.75479e-05)
(1.1998 0.000301024 3.82938e-05)
(1.19935 0.00046026 3.26182e-05)
(1.19938 0.000429938 3.23767e-05)
(1.19935 0.000477677 3.37704e-05)
(1.19939 0.000442605 3.27902e-05)
(1.19975 0.00045284 5.07659e-05)
(1.19919 0.00070599 4.41803e-05)
(1.19925 0.000657951 4.21109e-05)
(1.19921 0.00073404 4.54693e-05)
(1.19926 0.000678333 4.33075e-05)
(1.19966 0.000692635 7.16329e-05)
(1.19898 0.00109422 6.09488e-05)
(1.19907 0.00101847 5.73393e-05)
(1.19901 0.00113655 6.30326e-05)
(1.1991 0.00104885 5.91893e-05)
(1.19956 0.00107182 0.000102616)
(1.1987 0.00170118 9.08774e-05)
(1.19883 0.00157966 8.39553e-05)
(1.19876 0.00176412 9.41064e-05)
(1.19889 0.0016252 8.6465e-05)
(1.19942 0.00166057 0.000153405)
(1.19828 0.00264452 0.000143768)
(1.19849 0.0024534 0.000132219)
(1.19839 0.00273656 0.000147018)
(1.1986 0.00251952 0.000134557)
(1.19924 0.00257453 0.000237193)
(1.19769 0.00409552 0.000229981)
(1.19802 0.00379372 0.000207816)
(1.19786 0.00423032 0.000236408)
(1.19819 0.00389003 0.000212093)
(1.19903 0.00397503 0.000369963)
(1.19668 0.00636352 0.000422187)
(1.19724 0.00588934 0.000364791)
(1.19695 0.006601 0.000433847)
(1.19752 0.00605393 0.000369433)
(1.19871 0.00614535 0.000625553)
(1.1942 0.0104314 0.00107287)
(1.1955 0.00959527 0.000835056)
(1.19472 0.0110863 0.00108436)
(1.19606 0.00998901 0.000830918)
(1.19793 0.00989982 0.00128213)
(1.18667 0.0219544 0.00360784)
(1.19105 0.0192066 0.00249535)
(1.18967 0.0242746 0.00322189)
(1.19627 0.0194278 0.00330749)
(1.19333 0.020119 0.0023286)
(1.19208 0.0797131 0.00849335)
(1.19952 0.0544299 0.00467765)
(1.22504 0.0725061 0.00290395)
(1.21555 0.0542586 0.00474547)
(1.21152 0.0475024 0.00365725)
(1.19991 2.57322e-06 2.1205e-05)
(1.19998 3.61634e-06 3.65005e-05)
(1.19991 1.344e-06 2.12747e-05)
(1.19993 1.71243e-06 2.46087e-05)
(1.19963 6.13129e-05 5.22422e-05)
(1.19982 4.3387e-05 5.7364e-05)
(1.19978 6.56283e-05 4.63088e-05)
(1.19964 5.30082e-05 5.26769e-05)
(1.19979 5.59703e-05 5.45115e-05)
(1.19942 0.000111453 2.7524e-05)
(1.1997 0.000101263 2.80271e-05)
(1.19969 0.000110112 2.75483e-05)
(1.19942 9.96954e-05 2.77299e-05)
(1.19964 0.000105609 3.01668e-05)
(1.19957 0.000162742 2.70063e-05)
(1.19964 0.000147323 2.70095e-05)
(1.19963 0.000162607 2.71326e-05)
(1.19959 0.000146059 2.69715e-05)
(1.19986 0.000154674 3.17864e-05)
(1.19956 0.000239133 2.89881e-05)
(1.19959 0.000216914 2.87536e-05)
(1.19957 0.000240555 2.96862e-05)
(1.19958 0.000215903 2.93368e-05)
(1.19991 0.000228491 3.8772e-05)
(1.19951 0.000361092 3.27556e-05)
(1.19953 0.000327557 3.1918e-05)
(1.19952 0.000362728 3.33196e-05)
(1.19954 0.000325383 3.24113e-05)
(1.19992 0.000343756 4.84628e-05)
(1.19945 0.000550326 4.07154e-05)
(1.19949 0.000497164 3.91606e-05)
(1.19948 0.000553355 4.17303e-05)
(1.19951 0.000495136 4.00456e-05)
(1.19994 0.000523052 6.42666e-05)
(1.19941 0.000844904 5.49258e-05)
(1.19946 0.000762729 5.23401e-05)
(1.19946 0.000849426 5.63221e-05)
(1.19951 0.000758773 5.36432e-05)
(1.19999 0.000801947 8.99022e-05)
(1.19939 0.00130354 7.55956e-05)
(1.19946 0.00117538 7.11414e-05)
(1.19947 0.00130941 7.72071e-05)
(1.19953 0.00116904 7.2489e-05)
(1.20009 0.00123462 0.000127397)
(1.19941 0.00200524 0.000109064)
(1.19952 0.0018068 0.000100773)
(1.19954 0.00201081 0.000110687)
(1.19963 0.00179446 0.000102254)
(1.20028 0.0018939 0.000181966)
(1.19951 0.00307804 0.000163332)
(1.19967 0.00277069 0.000148666)
(1.19973 0.00308476 0.000163885)
(1.19987 0.00274945 0.000149212)
(1.20064 0.00289911 0.000264095)
(1.19975 0.00476063 0.000244421)
(1.20001 0.00426978 0.00021733)
(1.20015 0.00476702 0.000238486)
(1.20035 0.00422921 0.00021276)
(1.20131 0.00445837 0.000378896)
(1.20051 0.00755214 0.000380012)
(1.20088 0.00668623 0.00031726)
(1.20131 0.00749784 0.000349809)
(1.20153 0.0065632 0.000297905)
(1.20272 0.00695059 0.000536764)
(1.20356 0.0120665 0.000594729)
(1.20371 0.0104044 0.000448512)
(1.20509 0.0113827 0.000462142)
(1.20495 0.00990016 0.000382651)
(1.20638 0.0106107 0.000694974)
(1.21519 0.0141057 0.000457246)
(1.21182 0.0120319 0.000297019)
(1.21485 0.0103284 0.000155922)
(1.21502 0.0111728 0.000374907)
(1.21397 0.0104735 0.000199488)
(1.19991 -1.2992e-06 2.14629e-05)
(1.19998 -1.23038e-05 3.69617e-05)
(1.19991 -3.77781e-06 2.15558e-05)
(1.19993 -6.44219e-06 2.48415e-05)
(1.19964 1.99818e-05 5.36219e-05)
(1.19982 -7.93303e-06 5.85747e-05)
(1.19978 7.47699e-06 4.75041e-05)
(1.19965 7.55436e-06 5.37746e-05)
(1.1998 -1.69215e-07 5.53939e-05)
(1.19944 5.8011e-05 2.79617e-05)
(1.19972 3.82822e-05 2.85347e-05)
(1.19971 4.513e-05 2.77099e-05)
(1.19945 4.25595e-05 2.79121e-05)
(1.19967 4.16136e-05 2.97819e-05)
(1.19962 8.78095e-05 2.68932e-05)
(1.19968 6.72336e-05 2.68931e-05)
(1.19967 7.53101e-05 2.7024e-05)
(1.19962 6.64819e-05 2.68026e-05)
(1.1999 7.10279e-05 3.08944e-05)
(1.19963 0.000131876 2.97557e-05)
(1.19965 0.00010638 2.92535e-05)
(1.19964 0.00011931 2.98763e-05)
(1.19965 0.000100115 2.9684e-05)
(1.19998 0.000112582 3.80374e-05)
(1.19962 0.000196739 3.27211e-05)
(1.19963 0.000163447 3.19227e-05)
(1.19963 0.000181647 3.37319e-05)
(1.19964 0.000149602 3.28246e-05)
(1.20003 0.00017216 4.72171e-05)
(1.19964 0.00030042 3.91055e-05)
(1.19965 0.000251071 3.83953e-05)
(1.19966 0.000279202 4.02933e-05)
(1.19967 0.000227992 3.91141e-05)
(1.20012 0.000264643 6.05611e-05)
(1.1997 0.000458891 5.06115e-05)
(1.19971 0.000384532 4.89119e-05)
(1.19974 0.000428635 5.15849e-05)
(1.19975 0.000348152 4.98703e-05)
(1.20026 0.000404465 8.18194e-05)
(1.19985 0.000702758 6.5477e-05)
(1.19986 0.000590957 6.24237e-05)
(1.19991 0.00065773 6.69287e-05)
(1.19991 0.000532981 6.38325e-05)
(1.2005 0.000620296 0.000110493)
(1.20013 0.00107524 8.74063e-05)
(1.20014 0.000905237 8.25996e-05)
(1.20025 0.00100638 8.87588e-05)
(1.20024 0.00081466 8.40424e-05)
(1.20092 0.000948514 0.000148921)
(1.20067 0.00163713 0.000116899)
(1.20067 0.00137827 0.000109384)
(1.20086 0.00152899 0.000116399)
(1.20084 0.00123759 0.000109849)
(1.20162 0.00143996 0.000197817)
(1.20164 0.00247078 0.000145733)
(1.20163 0.00207609 0.000135159)
(1.20197 0.0022925 0.000140252)
(1.2019 0.00185792 0.000132118)
(1.20281 0.00216066 0.000246829)
(1.20345 0.00360902 0.000159909)
(1.20336 0.00302603 0.000146686)
(1.20397 0.00328198 0.000144093)
(1.20379 0.00267399 0.000136458)
(1.20481 0.00312167 0.000275358)
(1.20675 0.00461724 0.000124516)
(1.20638 0.0039023 0.000114078)
(1.20736 0.00397125 9.50302e-05)
(1.20694 0.00333998 9.48991e-05)
(1.20804 0.00392372 0.000233331)
(1.21163 0.00362773 1.45661e-05)
(1.21033 0.00311651 1.30554e-05)
(1.21119 0.00233036 -1.03351e-05)
(1.21091 0.00261405 8.91901e-07)
(1.21175 0.00277623 9.22827e-05)
(1.19994 3.92556e-06 6.35736e-06)
(1.19994 4.05158e-06 5.07016e-06)
(1.2 8.60595e-06 9.27311e-06)
(1.19994 3.79724e-06 5.03098e-06)
(1.19994 3.88629e-06 7.55526e-06)
(1.19984 8.19028e-05 6.16723e-05)
(1.19985 8.24929e-05 5.73706e-05)
(1.20001 6.61413e-05 4.91966e-05)
(1.2 9.34715e-05 6.12453e-05)
(1.19985 7.91397e-05 5.67931e-05)
(1.19984 8.1311e-05 6.76687e-05)
(1.19971 0.000139863 5.97684e-05)
(1.1997 0.000141064 6.26493e-05)
(1.19998 0.0001342 6.28496e-05)
(1.19998 0.000145038 6.25033e-05)
(1.19971 0.00013588 6.16168e-05)
(1.19971 0.000138826 7.25714e-05)
(1.1999 0.000202344 6.97478e-05)
(1.19989 0.000204448 7.49176e-05)
(1.19996 0.000192077 7.15609e-05)
(1.19995 0.000211331 7.70982e-05)
(1.19991 0.000196935 7.32628e-05)
(1.1999 0.000200687 8.54575e-05)
(1.19991 0.000297963 9.65739e-05)
(1.1999 0.00030182 0.000105595)
(1.19992 0.000282747 9.98586e-05)
(1.19991 0.000312202 0.000109428)
(1.19993 0.000290056 0.00010324)
(1.19992 0.000295604 0.000118177)
(1.19987 0.000446807 0.000139133)
(1.19985 0.000452667 0.0001539)
(1.19988 0.000423158 0.000144952)
(1.19987 0.000469141 0.000159699)
(1.1999 0.000434963 0.000150065)
(1.19988 0.000442962 0.000170108)
(1.19981 0.000680076 0.000205839)
(1.19978 0.000688891 0.000229459)
(1.19983 0.000642547 0.000215067)
(1.19981 0.000715125 0.000237781)
(1.19985 0.000661414 0.000222392)
(1.19983 0.000672994 0.00025151)
(1.19972 0.001048 0.000306573)
(1.19968 0.00106139 0.000344431)
(1.19975 0.000988437 0.000321537)
(1.19973 0.00110151 0.000355392)
(1.1998 0.00101731 0.000331082)
(1.19976 0.00103462 0.000374858)
(1.19961 0.00161787 0.000457352)
(1.19954 0.00163978 0.000516615)
(1.19965 0.00152471 0.000480179)
(1.19962 0.00169899 0.00053088)
(1.19973 0.00156727 0.000492541)
(1.19967 0.00159375 0.000559345)
(1.19949 0.00249256 0.00068397)
(1.19938 0.0025278 0.000775603)
(1.19954 0.00234707 0.000716743)
(1.19951 0.00261186 0.00079247)
(1.19966 0.0024073 0.000730858)
(1.19957 0.00244775 0.000833729)
(1.19937 0.00381617 0.00103018)
(1.19921 0.00386851 0.00117254)
(1.19944 0.00358967 0.00107444)
(1.19942 0.00398712 0.00119054)
(1.19963 0.00367482 0.00108846)
(1.1995 0.00373199 0.00124795)
(1.19924 0.00580643 0.0015757)
(1.199 0.00586117 0.0017928)
(1.19934 0.00545201 0.00162476)
(1.1993 0.00605431 0.00180308)
(1.19964 0.00558979 0.00163087)
(1.19944 0.00564435 0.00188773)
(1.19893 0.00900642 0.00246615)
(1.1984 0.00900285 0.00274063)
(1.19905 0.00841977 0.00245164)
(1.19889 0.00951066 0.00270405)
(1.19958 0.00874622 0.00242)
(1.19921 0.00868561 0.00289601)
(1.19637 0.0161236 0.00398876)
(1.19827 0.0162642 0.00387967)
(1.19818 0.0149565 0.00350142)
(1.19806 0.0182353 0.00372091)
(1.19852 0.0156107 0.00422545)
(1.19988 0.0159032 0.00333479)
(1.20136 0.0515398 0.00408524)
(1.21178 0.0423512 0.0041352)
(1.20553 0.0382473 0.00353148)
(1.22068 0.0515212 0.00289803)
(1.21109 0.0413521 0.0038984)
(1.21513 0.0354544 0.0030992)
(1.19994 1.69923e-06 6.20462e-06)
(1.19994 2.5565e-06 4.92238e-06)
(1.2 3.71423e-06 8.96342e-06)
(1.19994 1.38082e-06 4.90797e-06)
(1.19994 1.68533e-06 7.46168e-06)
(1.19985 5.60463e-05 6.04156e-05)
(1.19985 6.14873e-05 5.53766e-05)
(1.20001 4.37851e-05 4.76113e-05)
(1.20002 6.57505e-05 5.90309e-05)
(1.19986 5.33109e-05 5.5215e-05)
(1.19985 5.57649e-05 6.6232e-05)
(1.19974 0.0001041 5.64116e-05)
(1.19974 0.000109591 5.85053e-05)
(1.20001 9.94903e-05 5.8845e-05)
(1.20001 0.000108293 5.82955e-05)
(1.19974 9.78165e-05 5.75125e-05)
(1.19974 0.000103119 6.87168e-05)
(1.19996 0.000152791 6.54007e-05)
(1.19996 0.000160126 6.92166e-05)
(1.20002 0.000145079 6.64948e-05)
(1.20002 0.000159814 7.12922e-05)
(1.19997 0.00014361 6.82217e-05)
(1.19997 0.000151795 7.99841e-05)
(1.20002 0.000225845 8.95116e-05)
(1.20001 0.000236064 9.68553e-05)
(1.20003 0.000214195 9.171e-05)
(1.20003 0.000236662 0.000100541)
(1.20003 0.000212576 9.50493e-05)
(1.20003 0.000224036 0.00010934)
(1.20004 0.000338509 0.000127489)
(1.20003 0.000353936 0.000140065)
(1.20004 0.00032065 0.000132436)
(1.20005 0.000355433 0.000145291)
(1.20006 0.000318631 0.00013716)
(1.20005 0.000335598 0.000155651)
(1.20007 0.000513873 0.000183292)
(1.20005 0.00053715 0.00020354)
(1.20008 0.000485959 0.000191946)
(1.20009 0.000539863 0.000210366)
(1.20011 0.000483414 0.000198298)
(1.20009 0.000508622 0.000224214)
(1.20014 0.000784855 0.000264177)
(1.2001 0.000820565 0.000295538)
(1.20014 0.000741096 0.000277476)
(1.20016 0.000824171 0.00030438)
(1.20019 0.00073689 0.000285716)
(1.20017 0.000775015 0.000323138)
(1.20026 0.0012026 0.000380268)
(1.20021 0.00125705 0.000428284)
(1.20026 0.00113439 0.00040054)
(1.2003 0.00126109 0.000438505)
(1.20034 0.0011269 0.000410237)
(1.2003 0.00118453 0.000464665)
(1.20048 0.00183377 0.000540668)
(1.2004 0.00191631 0.000613181)
(1.20047 0.00172871 0.000571204)
(1.20055 0.00191974 0.000622707)
(1.2006 0.00171526 0.000580491)
(1.20054 0.00180105 0.00066074)
(1.20088 0.00278773 0.000762029)
(1.20075 0.00291117 0.000869412)
(1.20085 0.00262515 0.000803961)
(1.20098 0.00291281 0.000874085)
(1.20106 0.00260143 0.000809775)
(1.20096 0.00272806 0.000928079)
(1.2016 0.00424155 0.00105815)
(1.20139 0.00442861 0.00121707)
(1.20153 0.00398435 0.00111469)
(1.20178 0.00442747 0.00120405)
(1.20187 0.00394203 0.00110719)
(1.2017 0.00413162 0.0012807)
(1.20305 0.00651139 0.0014099)
(1.20268 0.00684394 0.00163625)
(1.20285 0.0061025 0.00148385)
(1.20338 0.00679713 0.00157221)
(1.20343 0.00599243 0.00143924)
(1.20315 0.00631432 0.00169172)
(1.20657 0.00975294 0.00165768)
(1.20614 0.0105598 0.00193632)
(1.20596 0.00924063 0.00174868)
(1.20727 0.0100459 0.00174749)
(1.20701 0.00885558 0.00162809)
(1.20658 0.00944477 0.00196413)
(1.21672 0.0123789 0.00155929)
(1.2145 0.0100982 0.00125762)
(1.21317 0.010503 0.00142949)
(1.21574 0.0090149 0.00120131)
(1.21426 0.00978687 0.00151332)
(1.21515 0.00936853 0.0012488)
(1.19994 -6.3254e-06 6.13093e-06)
(1.19994 -1.17944e-06 4.83119e-06)
(1.2 -1.20959e-05 8.69803e-06)
(1.19994 -3.74405e-06 4.8523e-06)
(1.19994 -6.30483e-06 7.32345e-06)
(1.19986 2.05715e-08 5.98113e-05)
(1.19987 2.0379e-05 5.44551e-05)
(1.20002 -7.66135e-06 4.6787e-05)
(1.20003 7.70565e-06 5.77422e-05)
(1.19988 7.7816e-06 5.42897e-05)
(1.19986 -8.55206e-08 6.52853e-05)
(1.19977 4.06197e-05 5.4121e-05)
(1.19977 5.67938e-05 5.54138e-05)
(1.20004 3.72864e-05 5.61212e-05)
(1.20004 4.359e-05 5.57604e-05)
(1.19977 4.15351e-05 5.49928e-05)
(1.19977 4.01946e-05 6.59835e-05)
(1.20001 6.98671e-05 6.30515e-05)
(1.2 8.62677e-05 6.60509e-05)
(1.20006 6.5524e-05 6.39598e-05)
(1.20006 7.37366e-05 6.80915e-05)
(1.20001 6.51319e-05 6.54008e-05)
(1.20001 6.92165e-05 7.69807e-05)
(1.20009 0.000110365 8.45254e-05)
(1.20009 0.000129053 9.06439e-05)
(1.20009 0.000103878 8.63398e-05)
(1.2001 0.000116137 9.44277e-05)
(1.2001 9.78222e-05 8.95633e-05)
(1.20009 0.000109284 0.000103408)
(1.20015 0.000169657 0.000119796)
(1.20015 0.000193592 0.000130525)
(1.20015 0.000160261 0.000124109)
(1.20016 0.00017852 0.000135939)
(1.20016 0.000146931 0.000129023)
(1.20016 0.000168152 0.000146425)
(1.20024 0.000260361 0.000169107)
(1.20024 0.000293998 0.000186267)
(1.20024 0.000246066 0.000177093)
(1.20027 0.000273278 0.000192963)
(1.20026 0.000223466 0.000183455)
(1.20026 0.000257545 0.00020671)
(1.2004 0.000396227 0.000237611)
(1.20039 0.000445824 0.000263331)
(1.20039 0.000374295 0.000249797)
(1.20044 0.000415967 0.000272186)
(1.20043 0.000338334 0.00025846)
(1.20043 0.000391351 0.000290329)
(1.20066 0.00060407 0.000330679)
(1.20064 0.000677466 0.000369137)
(1.20064 0.000570119 0.000349771)
(1.20072 0.000633314 0.000379338)
(1.2007 0.000513545 0.000360137)
(1.20069 0.000595063 0.00040431)
(1.20109 0.000919069 0.000450744)
(1.20106 0.00102888 0.000506345)
(1.20105 0.000866869 0.000479181)
(1.20118 0.000961617 0.000516287)
(1.20116 0.000779476 0.000490071)
(1.20114 0.000902787 0.000551603)
(1.20181 0.0013864 0.000598997)
(1.20175 0.00155106 0.000676474)
(1.20172 0.00130755 0.000638651)
(1.20195 0.00144657 0.000682461)
(1.2019 0.00117274 0.000647532)
(1.20186 0.00135745 0.000731387)
(1.203 0.00206452 0.00076126)
(1.2029 0.00231367 0.000867683)
(1.20284 0.00194784 0.000816961)
(1.20322 0.00214467 0.000860379)
(1.20311 0.00174137 0.000817179)
(1.20305 0.002014 0.000927651)
(1.20497 0.00296011 0.000891985)
(1.20484 0.00334023 0.00103027)
(1.20469 0.00280816 0.000969483)
(1.20531 0.00303842 0.000992974)
(1.20509 0.00248067 0.000948163)
(1.205 0.00287801 0.00108347)
(1.20809 0.00369584 0.000888127)
(1.20806 0.0042317 0.00104471)
(1.20764 0.0035928 0.00099177)
(1.20854 0.00364895 0.000957804)
(1.20812 0.00308287 0.00093396)
(1.20806 0.00358513 0.0010737)
(1.21163 0.00256379 0.000607316)
(1.21248 0.00333856 0.000742073)
(1.21118 0.00282717 0.000728866)
(1.21193 0.00208555 0.000613288)
(1.2117 0.00241096 0.00064369)
(1.21151 0.00246539 0.00073727)
(1.19994 3.79808e-06 7.08573e-06)
(1.19994 3.92781e-06 7.29725e-06)
(1.2 8.38526e-06 1.33485e-05)
(1.19994 3.69895e-06 7.26313e-06)
(1.19994 3.76515e-06 7.47374e-06)
(1.19984 7.96805e-05 8.4664e-05)
(1.19984 8.06333e-05 8.65189e-05)
(1.2 6.46149e-05 7.33519e-05)
(1.2 9.14681e-05 9.40471e-05)
(1.19984 7.73472e-05 8.59267e-05)
(1.19984 7.89177e-05 8.91374e-05)
(1.19972 0.000136078 0.000102356)
(1.19972 0.000137756 0.000106718)
(1.2 0.000131163 0.000105748)
(1.19999 0.000141182 0.000108014)
(1.19972 0.000132395 0.000105582)
(1.19972 0.000134955 0.000109801)
(1.19993 0.000194732 0.000125439)
(1.19992 0.00019668 0.000132058)
(1.19999 0.000184974 0.000126726)
(1.19998 0.000203103 0.000135747)
(1.19994 0.0001895 0.000129712)
(1.19994 0.000192383 0.000135649)
(1.19996 0.000286138 0.000172723)
(1.19995 0.000289174 0.000182174)
(1.19997 0.000270982 0.000172688)
(1.19997 0.000299082 0.000188567)
(1.19998 0.000278019 0.000178309)
(1.19998 0.000282266 0.000186672)
(1.19995 0.000427274 0.000249035)
(1.19994 0.000431311 0.00026329)
(1.19996 0.000403775 0.00024821)
(1.19996 0.00044671 0.000272921)
(1.19998 0.000414723 0.000256661)
(1.19997 0.000420634 0.000269249)
(1.19993 0.000644337 0.000366958)
(1.19991 0.000649987 0.000388696)
(1.19995 0.00060731 0.000364818)
(1.19995 0.00067372 0.00040256)
(1.19998 0.000624319 0.000376989)
(1.19997 0.000632609 0.000396196)
(1.19991 0.000980577 0.000545505)
(1.19988 0.000988374 0.000579824)
(1.19994 0.000921779 0.000541818)
(1.19994 0.00102361 0.000598381)
(1.19999 0.00094701 0.000557971)
(1.19997 0.000958686 0.000588622)
(1.19989 0.00149484 0.000811586)
(1.19985 0.0015057 0.000865712)
(1.19994 0.00140212 0.000805662)
(1.19994 0.00155698 0.000888924)
(1.20002 0.00143878 0.000825935)
(1.19999 0.001455 0.000874397)
(1.19991 0.00226779 0.00119951)
(1.19985 0.00228335 0.00128428)
(1.19997 0.00212444 0.00119026)
(1.19999 0.00235312 0.00131125)
(1.2001 0.00217406 0.00121312)
(1.20005 0.00219653 0.00128881)
(1.2 0.00340412 0.00176579)
(1.19992 0.00342232 0.00189815)
(1.20008 0.00318403 0.00174985)
(1.20012 0.00351551 0.00192532)
(1.20027 0.0032507 0.0017717)
(1.2002 0.0032775 0.00189045)
(1.20019 0.00503803 0.00258768)
(1.20007 0.00503445 0.0027923)
(1.20029 0.00470334 0.00255871)
(1.20035 0.0051758 0.00280832)
(1.20058 0.00480491 0.00256915)
(1.20046 0.00481463 0.00275418)
(1.20022 0.00752717 0.00370389)
(1.19997 0.00737667 0.00402367)
(1.20042 0.0069668 0.00367017)
(1.20034 0.00778051 0.0039846)
(1.20084 0.00722729 0.00363283)
(1.20057 0.00713581 0.00393334)
(1.19776 0.0128382 0.00523677)
(1.19917 0.0134876 0.00476449)
(1.19944 0.0120826 0.00483069)
(1.19889 0.0149206 0.00498294)
(1.19935 0.0128763 0.00519425)
(1.20079 0.0130042 0.00462716)
(1.1981 0.0480744 0.0042256)
(1.20898 0.0391308 0.00396623)
(1.20325 0.0344418 0.00440103)
(1.21719 0.0483027 0.00373372)
(1.20828 0.0386366 0.00477007)
(1.21251 0.0322407 0.00372017)
(1.19994 1.65959e-06 6.92897e-06)
(1.19994 2.4726e-06 7.14377e-06)
(1.2 3.68291e-06 1.29552e-05)
(1.19994 1.32239e-06 7.12303e-06)
(1.19994 1.63807e-06 7.31498e-06)
(1.19985 5.48981e-05 8.23565e-05)
(1.19985 6.02582e-05 8.38912e-05)
(1.20001 4.29707e-05 7.10186e-05)
(1.20001 6.4324e-05 9.1062e-05)
(1.19985 5.21855e-05 8.33009e-05)
(1.19985 5.43841e-05 8.64628e-05)
(1.19975 0.000100148 9.81767e-05)
(1.19975 0.000105791 0.000102368)
(1.20002 9.59013e-05 0.000101756)
(1.20003 0.000104493 0.000103262)
(1.19976 9.42081e-05 0.000101369)
(1.19975 9.9139e-05 0.000105622)
(1.19999 0.000147842 0.000117595)
(1.19998 0.000154687 0.000123588)
(1.20004 0.000140333 0.000119065)
(1.20005 0.000154323 0.000127084)
(1.2 0.000138901 0.00012197)
(1.2 0.000146222 0.00012739)
(1.20006 0.000217098 0.000159785)
(1.20006 0.000226562 0.000168168)
(1.20007 0.000205679 0.000160017)
(1.20008 0.0002269 0.000174078)
(1.20008 0.000203886 0.000165339)
(1.20008 0.000214264 0.000172689)
(1.20011 0.000323837 0.000226551)
(1.2001 0.000337522 0.00023883)
(1.20011 0.000306027 0.000226044)
(1.20013 0.000338639 0.000247527)
(1.20014 0.000303989 0.000233862)
(1.20013 0.000318862 0.000244472)
(1.20018 0.000487026 0.000327193)
(1.20017 0.000507065 0.000345818)
(1.20018 0.000459366 0.00032625)
(1.20021 0.000508677 0.000357428)
(1.20022 0.000456223 0.000336959)
(1.20021 0.000478156 0.000353178)
(1.20029 0.00073475 0.000470496)
(1.20027 0.000764125 0.000499281)
(1.20029 0.000691326 0.000469289)
(1.20033 0.000766295 0.000513974)
(1.20035 0.000686399 0.000482855)
(1.20034 0.000718305 0.000507895)
(1.20047 0.00111028 0.000675427)
(1.20044 0.00115325 0.000719707)
(1.20048 0.0010427 0.000673914)
(1.20054 0.00115452 0.000736461)
(1.20056 0.00103385 0.000689884)
(1.20054 0.00108042 0.000728459)
(1.20078 0.00166866 0.000956645)
(1.20073 0.00173065 0.0010241)
(1.20078 0.00156442 0.000955466)
(1.20088 0.00172965 0.00104022)
(1.20091 0.00154919 0.000971385)
(1.20088 0.00161591 0.00103007)
(1.20128 0.00248946 0.00133264)
(1.20121 0.00257619 0.00143586)
(1.20126 0.00232939 0.00133265)
(1.20143 0.00257009 0.00144385)
(1.20146 0.00230271 0.00134225)
(1.20141 0.0023958 0.00143208)
(1.2021 0.00370206 0.00181434)
(1.20197 0.0038218 0.0019728)
(1.20205 0.00345134 0.00181838)
(1.20232 0.00381084 0.00195417)
(1.20236 0.00340689 0.00180742)
(1.20226 0.00353661 0.00194475)
(1.20354 0.00556173 0.00234249)
(1.20328 0.00575982 0.00258531)
(1.20338 0.00515953 0.00236766)
(1.20387 0.00571984 0.00249433)
(1.20388 0.00506342 0.0023019)
(1.20369 0.0052782 0.00251287)
(1.20658 0.00829825 0.00263055)
(1.20626 0.00882127 0.00297364)
(1.20609 0.00773509 0.00273311)
(1.20716 0.00842649 0.00272664)
(1.207 0.00744509 0.00254851)
(1.20659 0.00787289 0.00285335)
(1.21534 0.0107455 0.00223141)
(1.2134 0.00875363 0.00203061)
(1.21217 0.00893866 0.00228095)
(1.21447 0.0076859 0.00196855)
(1.21308 0.00839726 0.00228196)
(1.21403 0.00802515 0.00187398)
(1.19994 -6.20768e-06 6.79464e-06)
(1.19994 -1.09592e-06 7.04736e-06)
(1.2 -1.19579e-05 1.27917e-05)
(1.19994 -3.88687e-06 7.06646e-06)
(1.19994 -6.1898e-06 7.21885e-06)
(1.19986 -6.28571e-07 8.03998e-05)
(1.19986 1.98071e-05 8.16895e-05)
(1.20002 -8.07041e-06 6.92043e-05)
(1.20003 6.73219e-06 8.86328e-05)
(1.19987 7.35756e-06 8.12486e-05)
(1.19986 -8.6624e-07 8.42294e-05)
(1.19977 3.84742e-05 9.48546e-05)
(1.19978 5.43952e-05 9.87273e-05)
(1.20005 3.50792e-05 9.84894e-05)
(1.20005 4.13163e-05 9.96852e-05)
(1.19978 3.98028e-05 9.80076e-05)
(1.19978 3.77382e-05 0.000102263)
(1.20003 6.67818e-05 0.000112999)
(1.20003 8.31294e-05 0.000118256)
(1.20008 6.25354e-05 0.000114456)
(1.20009 7.04279e-05 0.000121962)
(1.20004 6.26252e-05 0.000117347)
(1.20004 6.5873e-05 0.00012244)
(1.20013 0.000105296 0.000151614)
(1.20013 0.000123633 0.000158908)
(1.20013 9.89765e-05 0.000152138)
(1.20015 0.000110619 0.000165088)
(1.20014 9.37853e-05 0.000157298)
(1.20014 0.000103684 0.000164072)
(1.20021 0.000162337 0.000212991)
(1.20021 0.000185436 0.000223085)
(1.20021 0.000153064 0.000212803)
(1.20023 0.000170071 0.000231933)
(1.20023 0.000140877 0.000220649)
(1.20023 0.000159898 0.000229601)
(1.20033 0.000246038 0.000300695)
(1.20034 0.000277139 0.000316108)
(1.20033 0.000231855 0.000300578)
(1.20037 0.000256883 0.000327523)
(1.20036 0.000210452 0.00031131)
(1.20037 0.000241235 0.000324536)
(1.20053 0.000370935 0.000422544)
(1.20053 0.000415283 0.000445231)
(1.20052 0.000349077 0.000422687)
(1.20058 0.000386618 0.00045986)
(1.20057 0.000315195 0.000436901)
(1.20057 0.000362596 0.000456045)
(1.20083 0.000558034 0.000588305)
(1.20083 0.000622033 0.000621763)
(1.20082 0.000524211 0.000589403)
(1.20091 0.000580088 0.00063886)
(1.20089 0.000471622 0.000606683)
(1.20089 0.000542946 0.000634837)
(1.20132 0.000836081 0.000802056)
(1.2013 0.00092912 0.00085086)
(1.20128 0.000784126 0.000805821)
(1.20143 0.000865978 0.00086743)
(1.20139 0.000703731 0.000824146)
(1.20139 0.000809363 0.000864839)
(1.20207 0.0012396 0.0010592)
(1.20204 0.00137454 0.0011296)
(1.202 0.00116099 0.00106822)
(1.20224 0.00127794 0.00113948)
(1.20217 0.00103975 0.00108277)
(1.20216 0.00119277 0.00114109)
(1.20326 0.00181092 0.00133666)
(1.2032 0.00200713 0.00143665)
(1.20312 0.00169411 0.00135628)
(1.20349 0.00185589 0.00142539)
(1.20337 0.00151204 0.00135658)
(1.20334 0.00173085 0.00143815)
(1.20512 0.00255367 0.00155217)
(1.20502 0.00284468 0.00168834)
(1.20487 0.00239751 0.00159515)
(1.20544 0.00258491 0.00162945)
(1.20523 0.00211591 0.00156071)
(1.20517 0.00242607 0.00167005)
(1.20792 0.00315879 0.00152586)
(1.2079 0.00356898 0.00168563)
(1.20752 0.00303475 0.00161205)
(1.20831 0.00307541 0.00155254)
(1.20794 0.00260757 0.00151737)
(1.20787 0.00299059 0.00164519)
(1.21104 0.00213075 0.001049)
(1.21177 0.00281095 0.0011299)
(1.21061 0.00234107 0.00118161)
(1.21126 0.0016878 0.000996864)
(1.21108 0.00201999 0.0010092)
(1.21086 0.00201028 0.00113808)
(1.16767 0.0774389 0.0113193)
(1.1223 0.0874193 0.0173036)
(1.16041 0.100014 0.011628)
(1.19118 0.0811912 0.0151961)
(0.873689 -0.0885541 -0.0140811)
(0.991149 -0.0907399 -0.00348023)
(0.933685 -0.127183 -0.0129176)
(1.25844 -0.081738 -0.0169491)
(1.19153 0.0610769 0.00689945)
(1.1919 0.0487586 0.00927539)
(1.20192 0.0507046 0.00738137)
(1.19153 0.0648635 0.00891074)
(1.16084 0.0516529 0.0108727)
(1.19436 0.0762274 0.00900678)
(1.32887 -0.0539136 0.00165396)
(1.31295 -0.0289153 -0.00461677)
(1.32874 -0.0546433 0.00181363)
(1.35831 -0.0388139 -0.00445034)
(1.33056 -0.0323443 -0.00398199)
(1.1913 0.0497047 0.00499383)
(1.16037 0.0533274 0.00501626)
(1.19395 0.0773597 0.00441475)
(1.19105 0.0599676 0.00552491)
(1.31301 -0.0281124 0.00608452)
(1.35923 -0.0375389 0.00659577)
(1.33102 -0.0307685 0.00841675)
(1.32855 -0.0531499 0.00148535)
(1.18821 0.0579904 0.00432328)
(1.18965 0.0457582 0.00497573)
(1.19907 0.0479389 0.00430398)
(1.18926 0.0584938 0.00424163)
(1.15685 0.0491628 0.00473872)
(1.1904 0.0746474 0.0039065)
(1.32366 -0.0538256 -0.000424943)
(1.30884 -0.0284203 -0.0052125)
(1.32427 -0.0536473 -0.000124076)
(1.35425 -0.0376637 -0.00569784)
(1.3259 -0.0313583 -0.00667015)
(1.18858 0.0458569 0.00474179)
(1.15549 0.0498875 0.00438863)
(1.18909 0.0751037 0.00361445)
(1.18706 0.0577838 0.00525234)
(1.30813 -0.0283354 0.0055434)
(1.35356 -0.0375733 0.00549518)
(1.32494 -0.0312952 0.00656469)
(1.32291 -0.053996 -0.000703991)
(1.18478 0.020006 0.003768)
(1.17862 0.0221559 0.00536359)
(1.18029 0.0259622 0.00518838)
(1.19121 0.0197613 0.00500605)
(1.18042 0.0541077 0.00751162)
(1.15143 0.0641027 0.0138132)
(1.18536 0.0508605 0.0117746)
(1.16941 0.0506119 0.00914375)
(1.19483 0.0157002 0.00486084)
(1.19559 0.0144313 0.00536038)
(1.19673 0.0159714 0.00515429)
(1.19374 0.0171664 0.00491457)
(1.19349 0.0146577 0.00661302)
(1.19441 0.0174466 0.0063847)
(1.19262 0.0373796 0.00679736)
(1.19797 0.0348431 0.00738512)
(1.19198 0.0406059 0.00814494)
(1.18151 0.0337749 0.0106144)
(1.19171 0.0311607 0.00857921)
(0.667888 0.0409982 0.053954)
(0.774687 0.0201471 0.0488716)
(0.651008 0.0122415 0.0919336)
(1.00983 0.0412555 0.11619)
(0.637845 0.00806909 0.0665)
(1.15688 0.0292325 0.0322014)
(1.14634 -0.00903959 0.0324524)
(1.18924 -0.0623919 0.069046)
(1.138 -0.0340056 0.0238561)
(1.17799 -0.0209236 0.039019)
(1.14416 -0.0731243 0.0253344)
(1.16481 -0.00204939 0.0380191)
(1.21986 -0.0309376 0.0840605)
(1.28369 0.0494835 0.0885366)
(1.28583 -0.00762722 0.0873467)
(1.18478 0.0167275 0.0764976)
(0.873071 -0.0667578 -0.00332738)
(1.54971 -0.0100399 -0.0113261)
(1.54118 0.0225925 -0.00558603)
(1.28823 0.0283607 -0.00332412)
(1.29235 0.00961896 -0.00734059)
(1.27585 -0.00441582 -0.00303901)
(1.21458 0.0173235 0.000743671)
(1.2158 0.0213782 0.000860505)
(1.22054 0.0160105 0.000563808)
(1.2197 0.0166273 0.000884395)
(1.22616 0.000614077 -6.23937e-05)
(1.23334 0.00129775 -0.000370575)
(1.2309 0.0054312 7.66146e-05)
(1.23418 0.00203749 -3.42798e-05)
(1.20611 0.0376082 0.00548613)
(1.21279 0.0450942 0.00482059)
(1.22142 0.0508202 0.0046493)
(1.21565 0.0349039 0.00468091)
(1.28331 0.0138143 -0.000564686)
(1.31341 -0.029003 0.00607904)
(1.31347 -0.00174034 -0.00120521)
(1.31361 -0.00130264 0.00511523)
(1.28554 0.0155783 -0.0009846)
(1.28386 0.0314994 0.000350314)
(1.27277 0.00395529 0.000316789)
(1.2192 0.0151971 0.00181502)
(1.21699 0.0151769 0.00205305)
(1.21698 0.0123777 0.00161084)
(1.21946 0.015767 0.00179453)
(1.21786 0.0181256 0.00218277)
(1.22233 0.0143887 0.00180768)
(1.23331 0.00291731 0.000691309)
(1.22725 0.0010384 0.000573578)
(1.23369 0.00280417 0.000904658)
(1.23444 0.00221249 0.000470229)
(1.23214 0.00609341 0.00103802)
(1.19521 0.01455 0.00415808)
(1.19294 0.0149552 0.00473351)
(1.19388 0.0177475 0.00453592)
(1.19525 0.0149559 0.00511655)
(1.19738 0.0355492 0.00444224)
(1.18068 0.0350206 0.0055909)
(1.19255 0.0362529 0.00593627)
(1.19106 0.0319088 0.00508036)
(1.19625 0.0126587 0.00539221)
(1.19688 0.01192 0.00526432)
(1.19767 0.01336 0.00506736)
(1.19595 0.0133699 0.00522874)
(1.19482 0.0119315 0.00577616)
(1.19539 0.0145765 0.00552931)
(1.19115 0.0336179 0.00509999)
(1.19652 0.0316534 0.0049341)
(1.19169 0.0343675 0.00500837)
(1.17967 0.0303448 0.00567879)
(1.19103 0.0278622 0.00549587)