/*--------------------------------*- C++ -*----------------------------------*\
| =========                 |                                                 |
| \\      /  F ield         | OpenFOAM: The Open Source CFD Toolbox           |
|  \\    /   O peration     | Version:  2012                                  |
|   \\  /    A nd           | Website:  www.openfoam.com                      |
|    \\/     M anipulation  |                                                 |
\*---------------------------------------------------------------------------*/
FoamFile
{
    version     2.0;
    format      ascii;
    class       volScalarField::Internal;
    location    "0.104/fluid";
    object      V0;
}
// * * * * * * * * * * * * * * * * * * * * * * * * * * * * * * * * * * * * * //

dimensions      [0 3 0 0 0 0 0];


value           nonuniform List<scalar> 
16422
(
4.25476e-05
4.2545e-05
4.25394e-05
4.25384e-05
4.25366e-05
4.25308e-05
4.2526e-05
4.25239e-05
4.25216e-05
4.2523e-05
4.25258e-05
4.25296e-05
4.25289e-05
4.24995e-05
4.23982e-05
4.25526e-05
4.25495e-05
4.25453e-05
4.25421e-05
4.25368e-05
4.25345e-05
4.25302e-05
4.25289e-05
4.25278e-05
4.25286e-05
4.25313e-05
4.25325e-05
4.25308e-05
4.2523e-05
4.2524e-05
4.25555e-05
4.2553e-05
4.25483e-05
4.25433e-05
4.25382e-05
4.2536e-05
4.25337e-05
4.25335e-05
4.2533e-05
4.2534e-05
4.2537e-05
4.25407e-05
4.25449e-05
4.25517e-05
4.25658e-05
4.25468e-05
4.25453e-05
4.25395e-05
4.25376e-05
4.25349e-05
4.25301e-05
4.25246e-05
4.25226e-05
4.25216e-05
4.25231e-05
4.25247e-05
4.25297e-05
4.25322e-05
4.25117e-05
4.24363e-05
4.25522e-05
4.25496e-05
4.25444e-05
4.25413e-05
4.25369e-05
4.25323e-05
4.25292e-05
4.25287e-05
4.2528e-05
4.25282e-05
4.25296e-05
4.25307e-05
4.25314e-05
4.25287e-05
4.25302e-05
4.25555e-05
4.25524e-05
4.25474e-05
4.25434e-05
4.25385e-05
4.25342e-05
4.25334e-05
4.2533e-05
4.25321e-05
4.25328e-05
4.25355e-05
4.25384e-05
4.25435e-05
4.25524e-05
4.25672e-05
4.25477e-05
4.25433e-05
4.25401e-05
4.25363e-05
4.25332e-05
4.25264e-05
4.25232e-05
4.25198e-05
4.25212e-05
4.25214e-05
4.25223e-05
4.25254e-05
4.25277e-05
4.25229e-05
4.24553e-05
4.25516e-05
4.25484e-05
4.25446e-05
4.25398e-05
4.25352e-05
4.253e-05
4.2527e-05
4.25265e-05
4.25272e-05
4.25264e-05
4.25261e-05
4.25276e-05
4.25302e-05
4.25326e-05
4.25404e-05
4.2554e-05
4.25517e-05
4.25476e-05
4.25429e-05
4.25368e-05
4.25325e-05
4.25308e-05
4.25312e-05
4.25313e-05
4.25317e-05
4.25327e-05
4.2536e-05
4.25422e-05
4.25519e-05
4.25671e-05
4.23364e-05
5.31168e-06
4.24327e-05
5.31167e-06
4.24326e-05
5.31151e-06
4.24425e-05
5.31127e-06
4.2452e-05
5.31105e-06
4.25006e-05
4.23943e-05
4.25091e-05
4.2452e-05
5.27669e-06
4.2532e-05
4.25064e-05
4.25053e-05
4.25679e-05
4.24351e-05
4.25116e-05
4.25122e-05
4.25712e-05
4.25123e-05
4.24534e-05
4.25216e-05
4.24648e-05
4.23881e-05
4.23859e-05
4.251e-05
4.25142e-05
4.25724e-05
4.24464e-05
4.2514e-05
4.25234e-05
4.25786e-05
4.25249e-05
4.24742e-05
4.24014e-05
4.24177e-05
4.25182e-05
4.25282e-05
4.25821e-05
4.20552e-05
4.22266e-05
4.24158e-05
4.2326e-05
4.22234e-05
5.29869e-06
5.3123e-06
5.29789e-06
4.23988e-05
4.24341e-05
4.24319e-05
4.23154e-05
4.21997e-05
4.23236e-05
4.22058e-05
5.31199e-06
5.29698e-06
5.29759e-06
4.23137e-05
4.2198e-05
4.24339e-05
4.23151e-05
4.21987e-05
5.29691e-06
5.31135e-06
5.29693e-06
4.2392e-05
4.23873e-05
4.2437e-05
4.2324e-05
4.22049e-05
4.23184e-05
4.22008e-05
5.31124e-06
5.2975e-06
5.29687e-06
4.23336e-05
4.22113e-05
4.24686e-05
4.23502e-05
4.22232e-05
5.29731e-06
5.31207e-06
5.29926e-06
4.24466e-05
4.24973e-05
4.23803e-05
4.22469e-05
5.31254e-06
5.29943e-06
5.37049e-06
5.2895e-06
5.27105e-06
5.37536e-06
5.29859e-06
5.3397e-06
5.38311e-06
6.35773e-07
5.35685e-06
5.30153e-06
5.2382e-06
5.24998e-06
5.23863e-06
5.25029e-06
5.30023e-06
5.30048e-06
5.23959e-06
5.25061e-06
5.30275e-06
5.23872e-06
5.24999e-06
5.30169e-06
5.23872e-06
5.25196e-06
5.23835e-06
5.25108e-06
5.30279e-06
5.30136e-06
5.23806e-06
5.25044e-06
5.30101e-06
5.23817e-06
5.25085e-06
6.60623e-07
7.20566e-07
6.74412e-07
7.01013e-07
5.29556e-06
5.24107e-06
5.2229e-06
5.2517e-06
5.22931e-06
5.29264e-06
5.29056e-06
5.08422e-06
5.26293e-06
5.24635e-06
5.2419e-06
5.26222e-06
6.56055e-07
6.57061e-07
6.57584e-07
6.55857e-07
6.52429e-07
6.70481e-07
6.71462e-07
6.51757e-07
6.52269e-07
6.71142e-07
6.52083e-07
6.71314e-07
6.56226e-07
6.5871e-07
6.577e-07
6.55518e-07
5.3086e-06
5.26432e-06
5.26005e-06
5.32279e-06
5.24834e-06
5.25386e-06
5.30669e-06
5.2404e-06
5.25052e-06
5.30182e-06
5.24322e-06
5.25224e-06
6.60641e-07
6.57895e-07
6.71291e-07
6.71857e-07
6.73999e-07
6.7167e-07
6.58108e-07
5.28827e-06
5.23574e-06
5.22041e-06
5.28986e-06
5.23285e-06
5.21945e-06
5.28783e-06
5.23123e-06
5.21885e-06
5.23216e-06
5.21905e-06
5.28721e-06
6.55811e-07
6.57051e-07
6.55838e-07
6.56953e-07
6.52037e-07
6.71105e-07
6.71112e-07
6.52023e-07
6.5204e-07
6.71131e-07
6.52069e-07
6.7111e-07
6.55809e-07
6.56933e-07
6.56963e-07
6.55795e-07
6.71402e-07
6.71211e-07
6.71163e-07
6.71265e-07
5.28729e-06
5.23113e-06
5.21892e-06
5.23127e-06
5.21883e-06
5.2873e-06
5.28713e-06
5.23139e-06
5.21885e-06
5.23102e-06
5.28731e-06
5.21882e-06
6.55789e-07
6.56937e-07
6.56952e-07
6.55794e-07
6.52021e-07
6.71105e-07
6.52023e-07
6.71096e-07
6.55792e-07
6.56928e-07
6.55791e-07
6.56952e-07
6.52018e-07
6.71086e-07
6.52021e-07
6.71093e-07
5.30027e-06
5.23816e-06
5.25014e-06
5.30096e-06
5.23795e-06
5.24999e-06
5.30082e-06
5.23799e-06
5.25027e-06
5.30065e-06
5.23803e-06
5.25015e-06
5.28759e-06
5.23135e-06
5.21904e-06
5.28742e-06
5.23137e-06
5.21911e-06
5.28759e-06
5.23168e-06
5.21922e-06
5.23148e-06
5.21911e-06
5.288e-06
6.55799e-07
6.56926e-07
6.55796e-07
6.5694e-07
6.52017e-07
6.7108e-07
6.7107e-07
6.52028e-07
6.52022e-07
6.71081e-07
6.52023e-07
6.71083e-07
6.55788e-07
6.56946e-07
6.56931e-07
6.55807e-07
5.28861e-06
5.2333e-06
5.21993e-06
5.2324e-06
5.21952e-06
5.28996e-06
5.28867e-06
5.23178e-06
5.21925e-06
5.23223e-06
5.28794e-06
5.21942e-06
6.55806e-07
6.57014e-07
6.56954e-07
6.55844e-07
6.52036e-07
6.71072e-07
6.52021e-07
6.71102e-07
6.55817e-07
6.56916e-07
6.55795e-07
6.56975e-07
6.52025e-07
6.71102e-07
6.52065e-07
6.71082e-07
5.30571e-06
5.23921e-06
5.25237e-06
5.3032e-06
5.24037e-06
5.25425e-06
5.3072e-06
5.24207e-06
5.25566e-06
5.2926e-06
5.23357e-06
5.22015e-06
5.29001e-06
5.23536e-06
5.22093e-06
5.29345e-06
5.23661e-06
5.22199e-06
6.55931e-07
6.56963e-07
6.55828e-07
6.57123e-07
6.52163e-07
6.71187e-07
6.52163e-07
6.71085e-07
6.52053e-07
6.71196e-07
6.55929e-07
6.57051e-07
6.64649e-07
6.9117e-07
6.43474e-07
6.92181e-07
6.44378e-07
6.62444e-07
8.7696e-08
9.18222e-08
1.05259e-07
8.00782e-08
1.00997e-07
7.62319e-08
7.63029e-08
6.61109e-07
6.90113e-07
6.42903e-07
6.90134e-07
6.42863e-07
6.61118e-07
6.6108e-07
6.90217e-07
6.42894e-07
6.61231e-07
6.90181e-07
6.42829e-07
7.62227e-08
7.6221e-08
7.62199e-08
7.62196e-08
6.61172e-07
6.89896e-07
6.42987e-07
6.89889e-07
6.42904e-07
6.61283e-07
6.61112e-07
6.89995e-07
6.42872e-07
6.61158e-07
6.89967e-07
6.42844e-07
7.62219e-08
7.62226e-08
7.62218e-08
7.62219e-08
8.30997e-08
7.92196e-08
7.94307e-08
8.30338e-08
6.69268e-08
9.16986e-08
7.14594e-08
7.35287e-08
7.35932e-08
7.14022e-08
7.72207e-08
8.55797e-08
6.58751e-07
6.36441e-07
6.82977e-07
6.36966e-07
6.83119e-07
6.58327e-07
6.62443e-07
6.91527e-07
7.09519e-07
6.38686e-07
6.87109e-07
6.77403e-07
8.29975e-08
7.90899e-08
7.91051e-08
8.2996e-08
7.14619e-08
7.52058e-08
7.35899e-08
7.31267e-08
7.13919e-08
7.35223e-08
7.13914e-08
7.35228e-08
8.31003e-08
7.96728e-08
7.90683e-08
8.52684e-08
6.61581e-07
6.90896e-07
6.43403e-07
6.62651e-07
6.90559e-07
6.43029e-07
6.61241e-07
6.9021e-07
6.42853e-07
6.61128e-07
6.90243e-07
6.42874e-07
8.30237e-08
7.92616e-08
8.30495e-08
7.91876e-08
7.13947e-08
7.3521e-08
7.35246e-08
7.13911e-08
7.1396e-08
7.35433e-08
7.14149e-08
7.35242e-08
8.30188e-08
7.91666e-08
7.91775e-08
8.30132e-08
6.58088e-07
6.36416e-07
6.82936e-07
6.58305e-07
6.36153e-07
6.82887e-07
6.58022e-07
6.3607e-07
6.82838e-07
6.3606e-07
6.82836e-07
6.58029e-07
8.29961e-08
7.90938e-08
8.29965e-08
7.90887e-08
7.13916e-08
7.35205e-08
7.35221e-08
7.139e-08
7.13913e-08
7.35224e-08
7.13915e-08
7.35222e-08
8.29962e-08
7.90865e-08
7.90867e-08
8.29948e-08
7.86125e-08
7.63072e-08
7.62211e-08
7.62216e-08
7.62202e-08
7.62245e-08
7.62472e-08
7.6225e-08
7.62198e-08
7.62214e-08
7.62212e-08
7.62211e-08
8.30108e-08
7.91623e-08
7.91643e-08
8.30104e-08
7.13907e-08
7.35236e-08
7.35218e-08
7.13931e-08
8.30128e-08
7.91718e-08
7.91643e-08
8.30168e-08
7.1392e-08
7.35211e-08
7.35218e-08
7.13921e-08
6.58025e-07
6.36068e-07
6.82842e-07
6.36035e-07
6.82817e-07
6.58067e-07
6.57996e-07
6.36103e-07
6.82839e-07
6.36027e-07
6.58058e-07
6.82827e-07
8.2996e-08
7.90868e-08
7.90852e-08
8.29955e-08
7.13916e-08
7.35221e-08
7.13916e-08
7.35221e-08
8.29961e-08
7.90866e-08
8.29962e-08
7.90859e-08
7.13915e-08
7.35219e-08
7.13915e-08
7.3522e-08
6.61066e-07
6.90099e-07
6.42899e-07
6.61153e-07
6.90073e-07
6.42808e-07
6.611e-07
6.90012e-07
6.42868e-07
6.6115e-07
6.90016e-07
6.42825e-07
8.30103e-08
7.91635e-08
8.30112e-08
7.91619e-08
7.13925e-08
7.35233e-08
7.35228e-08
7.13927e-08
7.13914e-08
7.35218e-08
7.13921e-08
7.35212e-08
8.30101e-08
7.91607e-08
7.916e-08
8.301e-08
6.58051e-07
6.36105e-07
6.8285e-07
6.58085e-07
6.36084e-07
6.8284e-07
6.58075e-07
6.36175e-07
6.82792e-07
6.36112e-07
6.82792e-07
6.58133e-07
8.29955e-08
7.90854e-08
8.29957e-08
7.90859e-08
7.1391e-08
7.35219e-08
7.35214e-08
7.13914e-08
7.13915e-08
7.35219e-08
7.13915e-08
7.35219e-08
8.29945e-08
7.90844e-08
7.90819e-08
8.29952e-08
7.62215e-08
7.62215e-08
7.62213e-08
7.62214e-08
7.62225e-08
7.6222e-08
7.62207e-08
7.62202e-08
7.62212e-08
7.62208e-08
7.62213e-08
7.62214e-08
8.30063e-08
7.91547e-08
7.91523e-08
8.30051e-08
7.13926e-08
7.35232e-08
7.35235e-08
7.13925e-08
8.30091e-08
7.91598e-08
7.91594e-08
8.30096e-08
7.13914e-08
7.3522e-08
7.35225e-08
7.13918e-08
6.58167e-07
6.36286e-07
6.82701e-07
6.36192e-07
6.82698e-07
6.5827e-07
6.58114e-07
6.36178e-07
6.8278e-07
6.36141e-07
6.58132e-07
6.82761e-07
8.29949e-08
7.9081e-08
7.90776e-08
8.29952e-08
7.13914e-08
7.35223e-08
7.13914e-08
7.35224e-08
8.2995e-08
7.90813e-08
8.29956e-08
7.90812e-08
7.13914e-08
7.35222e-08
7.13913e-08
7.35224e-08
6.61293e-07
6.8988e-07
6.42984e-07
6.61268e-07
6.89867e-07
6.42994e-07
8.30048e-08
7.91519e-08
8.30034e-08
7.9155e-08
7.13919e-08
7.35204e-08
7.13905e-08
7.35216e-08
6.58275e-07
6.36279e-07
6.82681e-07
6.58243e-07
6.36272e-07
6.82666e-07
8.29955e-08
7.90769e-08
8.29945e-08
7.90798e-08
7.13917e-08
7.35214e-08
7.13906e-08
7.35226e-08
7.62212e-08
7.62213e-08
7.62211e-08
7.62212e-08
7.622e-08
7.62215e-08
7.62204e-08
7.62217e-08
6.66099e-07
7.02133e-07
6.49869e-07
6.73812e-07
6.94314e-07
6.45546e-07
7.09629e-07
7.19487e-07
6.59064e-07
6.8558e-07
7.56684e-07
6.81407e-07
8.59276e-08
1.02648e-07
1.09616e-07
7.80871e-08
8.62883e-08
7.7187e-08
7.62795e-08
6.61078e-07
6.90175e-07
6.42892e-07
6.61182e-07
6.90144e-07
6.42845e-07
6.61141e-07
6.90166e-07
6.42865e-07
6.61111e-07
6.90181e-07
6.42852e-07
7.62201e-08
7.62214e-08
7.62207e-08
7.62193e-08
6.61172e-07
6.8993e-07
6.42915e-07
6.61189e-07
6.89901e-07
6.42901e-07
6.61126e-07
6.89952e-07
6.42912e-07
6.61192e-07
6.89958e-07
6.4285e-07
7.62221e-08
7.62219e-08
7.62217e-08
7.62221e-08
7.48778e-08
7.09711e-08
7.1013e-08
7.48225e-08
8.30778e-08
8.08131e-08
7.93816e-08
8.36659e-08
7.4857e-08
7.13648e-08
7.09965e-08
7.52914e-08
7.31544e-08
9.21785e-08
7.39142e-08
7.54243e-08
8.317e-08
7.29587e-08
6.25704e-08
5.62889e-08
7.13733e-08
7.18901e-08
7.26782e-08
6.69921e-08
7.0381e-08
6.70622e-08
7.13954e-08
7.10596e-08
7.11041e-08
7.13436e-08
7.14405e-08
7.44936e-08
7.35722e-08
7.22265e-08
7.13745e-08
7.15163e-08
7.10885e-08
7.20646e-08
8.46702e-08
8.15013e-08
9.07389e-08
8.41775e-08
7.44095e-08
8.6891e-08
6.53123e-08
5.61288e-08
7.43798e-08
7.16743e-08
7.56303e-08
6.66924e-08
7.19872e-08
6.71819e-08
6.59159e-07
6.39857e-07
6.84002e-07
6.37582e-07
6.60522e-07
6.83371e-07
6.64086e-07
6.44174e-07
6.85063e-07
6.49922e-07
6.62345e-07
6.86205e-07
7.48054e-08
7.09689e-08
7.09691e-08
7.48038e-08
8.29978e-08
7.91501e-08
7.91006e-08
8.30022e-08
7.48057e-08
7.09719e-08
7.09694e-08
7.48096e-08
7.14223e-08
7.35277e-08
7.13959e-08
7.35584e-08
7.14073e-08
7.2919e-08
7.1131e-08
7.31205e-08
7.13658e-08
7.10591e-08
7.13404e-08
7.10859e-08
7.13366e-08
7.10552e-08
7.10554e-08
7.13366e-08
7.1393e-08
7.35256e-08
7.13945e-08
7.35229e-08
7.13372e-08
7.10581e-08
7.10554e-08
7.13392e-08
8.30439e-08
7.91449e-08
7.91316e-08
8.30056e-08
7.48869e-08
7.27842e-08
7.10403e-08
7.67329e-08
7.48442e-08
7.0973e-08
7.48116e-08
7.09982e-08
6.61721e-07
6.90344e-07
6.42906e-07
6.61284e-07
6.90477e-07
6.43043e-07
6.6114e-07
6.90324e-07
6.42957e-07
6.61445e-07
6.90246e-07
6.42835e-07
7.48146e-08
7.09817e-08
7.48357e-08
7.09655e-08
8.30322e-08
7.91763e-08
7.92098e-08
8.3019e-08
7.48218e-08
7.09627e-08
7.09711e-08
7.48108e-08
7.13923e-08
7.35257e-08
7.13961e-08
7.35229e-08
7.13381e-08
7.10485e-08
7.10519e-08
7.13346e-08
7.13361e-08
7.10531e-08
7.13398e-08
7.10499e-08
7.13392e-08
7.107e-08
7.13567e-08
7.10532e-08
7.14024e-08
7.35224e-08
7.13937e-08
7.35315e-08
7.13452e-08
7.10504e-08
7.10587e-08
7.13375e-08
8.30157e-08
7.91885e-08
7.91686e-08
8.30227e-08
7.48132e-08
7.09608e-08
7.09649e-08
7.48086e-08
7.48099e-08
7.0966e-08
7.48147e-08
7.09634e-08
6.58125e-07
6.36104e-07
6.82859e-07
6.36176e-07
6.58056e-07
6.82881e-07
6.57994e-07
6.36151e-07
6.82856e-07
6.36033e-07
6.58095e-07
6.82835e-07
7.48037e-08
7.0969e-08
7.48042e-08
7.09679e-08
8.29964e-08
7.90867e-08
7.90906e-08
8.29954e-08
7.4804e-08
7.09682e-08
7.09681e-08
7.48034e-08
7.13916e-08
7.35204e-08
7.139e-08
7.35221e-08
7.13368e-08
7.10532e-08
7.10548e-08
7.13352e-08
7.13368e-08
7.10533e-08
7.13352e-08
7.10548e-08
7.13365e-08
7.10553e-08
7.13367e-08
7.10547e-08
7.13915e-08
7.35221e-08
7.13917e-08
7.35224e-08
7.13367e-08
7.10548e-08
7.10548e-08
7.13368e-08
8.29962e-08
7.90888e-08
7.90864e-08
8.29955e-08
7.48037e-08
7.09665e-08
7.09682e-08
7.48019e-08
7.48037e-08
7.09666e-08
7.48026e-08
7.09682e-08
7.62274e-08
7.62627e-08
7.62251e-08
7.62217e-08
7.6226e-08
7.62219e-08
7.6223e-08
7.62326e-08
7.62197e-08
7.62214e-08
7.62213e-08
7.62212e-08
8.30109e-08
7.91669e-08
7.91633e-08
8.30119e-08
7.48077e-08
7.09601e-08
7.09613e-08
7.48074e-08
7.48073e-08
7.09618e-08
7.48083e-08
7.0961e-08
7.13347e-08
7.10505e-08
7.13366e-08
7.10488e-08
7.13919e-08
7.3522e-08
7.35225e-08
7.13912e-08
7.13359e-08
7.10487e-08
7.105e-08
7.13352e-08
8.30141e-08
7.91647e-08
7.91688e-08
8.30105e-08
7.48095e-08
7.09636e-08
7.48118e-08
7.09616e-08
7.48097e-08
7.09616e-08
7.48075e-08
7.09628e-08
7.13361e-08
7.10484e-08
7.10488e-08
7.13362e-08
7.13912e-08
7.3523e-08
7.35215e-08
7.1392e-08
7.13352e-08
7.10491e-08
7.10484e-08
7.13361e-08
6.58016e-07
6.36094e-07
6.82833e-07
6.3603e-07
6.58064e-07
6.82821e-07
6.58014e-07
6.36078e-07
6.82831e-07
6.36046e-07
6.58037e-07
6.82823e-07
8.2996e-08
7.90862e-08
7.90856e-08
8.29961e-08
7.48034e-08
7.0968e-08
7.0968e-08
7.48034e-08
7.48034e-08
7.0968e-08
7.48035e-08
7.0968e-08
7.13368e-08
7.10548e-08
7.13367e-08
7.10548e-08
7.13916e-08
7.35221e-08
7.13916e-08
7.3522e-08
7.13367e-08
7.10547e-08
7.10548e-08
7.13367e-08
8.29961e-08
7.9087e-08
7.90855e-08
8.29961e-08
7.48035e-08
7.09681e-08
7.48036e-08
7.09681e-08
7.48035e-08
7.0968e-08
7.48035e-08
7.09681e-08
7.13367e-08
7.10546e-08
7.10547e-08
7.13366e-08
7.13915e-08
7.3522e-08
7.13915e-08
7.3522e-08
7.13367e-08
7.10547e-08
7.10547e-08
7.13367e-08
6.61091e-07
6.90062e-07
6.42851e-07
6.6112e-07
6.90067e-07
6.42813e-07
6.61085e-07
6.90055e-07
6.42863e-07
6.61147e-07
6.90025e-07
6.42818e-07
7.48069e-08
7.09609e-08
7.48082e-08
7.09597e-08
8.30095e-08
7.91622e-08
7.91627e-08
8.30104e-08
7.48064e-08
7.0961e-08
7.09601e-08
7.4807e-08
7.13914e-08
7.35219e-08
7.13921e-08
7.35221e-08
7.13357e-08
7.10488e-08
7.10484e-08
7.13359e-08
7.13346e-08
7.1048e-08
7.13354e-08
7.10468e-08
7.13346e-08
7.10492e-08
7.13362e-08
7.10476e-08
7.13913e-08
7.3522e-08
7.13921e-08
7.35207e-08
7.13345e-08
7.1048e-08
7.10476e-08
7.13354e-08
8.30092e-08
7.91614e-08
7.91605e-08
8.30119e-08
7.48067e-08
7.09614e-08
7.09614e-08
7.48064e-08
7.48058e-08
7.09609e-08
7.48079e-08
7.09606e-08
6.58057e-07
6.36151e-07
6.82835e-07
6.36096e-07
6.58107e-07
6.8283e-07
6.58076e-07
6.36163e-07
6.82824e-07
6.36111e-07
6.58106e-07
6.82804e-07
7.48034e-08
7.0968e-08
7.48035e-08
7.09679e-08
8.29938e-08
7.90857e-08
7.90829e-08
8.29955e-08
7.48018e-08
7.09679e-08
7.09664e-08
7.48033e-08
7.13902e-08
7.35218e-08
7.13914e-08
7.35207e-08
7.13362e-08
7.1055e-08
7.10542e-08
7.13366e-08
7.13354e-08
7.10546e-08
7.13366e-08
7.10534e-08
7.13366e-08
7.10547e-08
7.13366e-08
7.10546e-08
7.13899e-08
7.35219e-08
7.13914e-08
7.35202e-08
7.1335e-08
7.10545e-08
7.1053e-08
7.13366e-08
8.29945e-08
7.90842e-08
7.90839e-08
8.29957e-08
7.48028e-08
7.09682e-08
7.09675e-08
7.48031e-08
7.4802e-08
7.09679e-08
7.48034e-08
7.09666e-08
7.62214e-08
7.62215e-08
7.62214e-08
7.62214e-08
7.62209e-08
7.62212e-08
7.6221e-08
7.62197e-08
7.62213e-08
7.622e-08
7.62213e-08
7.62196e-08
8.30062e-08
7.91562e-08
7.91547e-08
8.30087e-08
7.48081e-08
7.09668e-08
7.09652e-08
7.48073e-08
7.48078e-08
7.09643e-08
7.4807e-08
7.09649e-08
7.1336e-08
7.10489e-08
7.13358e-08
7.10491e-08
7.13925e-08
7.35232e-08
7.35232e-08
7.13916e-08
7.1336e-08
7.10504e-08
7.10493e-08
7.13351e-08
8.30099e-08
7.91575e-08
7.91572e-08
8.30093e-08
7.4806e-08
7.09614e-08
7.4806e-08
7.09617e-08
7.4807e-08
7.09635e-08
7.48069e-08
7.0962e-08
7.13356e-08
7.1054e-08
7.10522e-08
7.13365e-08
7.13916e-08
7.35228e-08
7.35228e-08
7.13915e-08
7.13357e-08
7.10509e-08
7.1052e-08
7.13356e-08
6.58171e-07
6.36215e-07
6.82729e-07
6.36186e-07
6.58177e-07
6.82711e-07
6.58109e-07
6.36217e-07
6.82746e-07
6.36144e-07
6.58185e-07
6.82744e-07
8.29958e-08
7.90795e-08
7.90806e-08
8.29956e-08
7.48026e-08
7.09685e-08
7.09682e-08
7.48029e-08
7.48033e-08
7.09683e-08
7.48031e-08
7.09681e-08
7.13366e-08
7.1055e-08
7.13366e-08
7.1055e-08
7.13914e-08
7.35225e-08
7.13913e-08
7.35224e-08
7.13366e-08
7.10549e-08
7.1055e-08
7.13366e-08
8.29951e-08
7.90814e-08
7.90792e-08
8.29955e-08
7.4803e-08
7.09683e-08
7.48032e-08
7.09682e-08
7.48027e-08
7.09682e-08
7.4803e-08
7.09682e-08
7.13366e-08
7.10549e-08
7.1055e-08
7.13365e-08
7.13913e-08
7.35225e-08
7.13913e-08
7.35224e-08
7.13365e-08
7.10549e-08
7.10549e-08
7.13366e-08
6.61284e-07
6.89886e-07
6.43124e-07
6.61465e-07
6.8986e-07
6.4299e-07
6.61577e-07
6.89882e-07
6.43111e-07
6.61435e-07
6.89906e-07
6.43185e-07
7.48077e-08
7.09656e-08
7.48062e-08
7.09666e-08
8.30038e-08
7.91597e-08
7.91512e-08
8.30037e-08
7.48066e-08
7.09668e-08
7.09667e-08
7.48068e-08
7.13936e-08
7.35225e-08
7.13914e-08
7.35237e-08
7.13376e-08
7.1054e-08
7.13365e-08
7.10545e-08
7.13364e-08
7.10528e-08
7.13352e-08
7.1054e-08
7.13918e-08
7.35218e-08
7.1391e-08
7.35213e-08
7.13364e-08
7.10532e-08
7.10539e-08
7.13357e-08
8.30061e-08
7.91542e-08
7.91627e-08
8.30036e-08
7.48084e-08
7.09675e-08
7.48066e-08
7.09685e-08
6.58232e-07
6.36401e-07
6.82651e-07
6.36269e-07
6.58386e-07
6.82643e-07
6.58449e-07
6.36369e-07
6.82625e-07
6.3642e-07
6.58311e-07
6.82644e-07
7.48034e-08
7.09679e-08
7.48023e-08
7.09688e-08
8.29944e-08
7.90811e-08
7.9075e-08
8.29954e-08
7.48027e-08
7.09677e-08
7.09682e-08
7.48035e-08
7.13932e-08
7.35227e-08
7.13928e-08
7.3524e-08
7.13374e-08
7.10551e-08
7.1337e-08
7.10568e-08
7.13368e-08
7.10542e-08
7.13358e-08
7.10554e-08
7.1391e-08
7.35218e-08
7.13915e-08
7.35218e-08
7.13362e-08
7.10542e-08
7.10547e-08
7.13361e-08
8.29982e-08
7.90738e-08
7.90823e-08
8.29957e-08
7.48056e-08
7.09686e-08
7.48036e-08
7.09706e-08
7.62212e-08
7.62212e-08
7.62211e-08
7.62212e-08
7.62217e-08
7.62233e-08
7.62207e-08
7.62212e-08
7.62217e-08
7.62234e-08
7.62208e-08
7.62209e-08
5.2567e-06
5.31724e-06
5.28726e-06
5.31267e-06
5.28816e-06
5.32089e-06
5.25403e-06
5.25357e-06
5.31176e-06
5.31824e-06
5.28666e-06
5.28681e-06
5.31831e-06
5.25344e-06
5.25331e-06
5.31814e-06
5.2865e-06
5.31141e-06
5.28646e-06
5.25334e-06
5.31807e-06
5.25326e-06
5.31121e-06
5.3178e-06
5.28668e-06
5.28645e-06
5.31782e-06
5.25331e-06
5.25354e-06
5.3178e-06
5.28659e-06
5.31132e-06
5.28704e-06
5.25336e-06
5.31794e-06
5.2588e-06
5.31677e-06
5.29287e-06
5.323e-06
4.24581e-05
4.25077e-05
4.2504e-05
4.2485e-05
9.67321e-08
5.46374e-08
7.72147e-08
5.464e-08
7.72251e-08
9.66893e-08
5.33714e-06
5.29038e-06
5.30405e-06
5.23091e-06
5.31591e-06
5.30429e-06
5.28056e-06
4.24317e-05
4.25123e-05
4.24386e-05
4.2479e-05
4.25483e-05
4.25513e-05
4.24757e-05
4.25125e-05
4.24372e-05
4.2438e-05
4.24809e-05
4.25536e-05
4.2553e-05
4.24818e-05
9.66645e-08
5.46224e-08
7.72336e-08
5.46256e-08
7.72214e-08
9.6669e-08
9.66696e-08
5.46381e-08
7.72179e-08
9.66828e-08
5.46364e-08
7.72122e-08
4.24361e-05
4.25099e-05
4.24364e-05
4.2483e-05
4.25538e-05
4.24822e-05
4.25545e-05
4.25113e-05
4.24426e-05
4.24384e-05
4.24854e-05
4.25593e-05
4.25562e-05
4.24898e-05
9.66228e-08
5.45845e-08
7.71611e-08
5.45848e-08
7.71557e-08
9.66292e-08
9.66385e-08
5.46035e-08
7.71743e-08
9.6651e-08
5.46013e-08
7.71687e-08
4.24488e-05
4.25283e-05
4.24607e-05
4.25059e-05
4.25639e-05
4.24959e-05
4.25725e-05
4.25508e-05
4.24842e-05
4.25221e-05
4.25876e-05
9.52482e-08
7.3621e-08
5.24824e-08
7.36252e-08
5.24829e-08
9.5241e-08
1.06263e-07
9.3416e-08
5.41384e-08
9.71981e-08
5.33681e-08
1.07154e-07
5.27711e-06
5.28873e-06
5.2989e-06
5.29286e-06
5.28914e-06
5.29298e-06
5.27504e-06
5.25569e-06
5.31264e-06
5.31921e-06
5.28748e-06
5.28795e-06
5.25461e-06
5.32017e-06
5.27571e-06
5.28899e-06
5.29865e-06
5.28812e-06
5.28873e-06
5.29083e-06
5.2744e-06
9.66789e-08
5.46399e-08
7.72247e-08
9.67241e-08
5.46364e-08
7.72102e-08
9.66735e-08
5.46364e-08
7.72159e-08
9.66767e-08
5.46372e-08
7.72126e-08
9.52325e-08
7.36288e-08
5.2483e-08
9.5251e-08
7.3613e-08
5.24816e-08
9.52308e-08
7.36141e-08
5.24801e-08
7.36094e-08
5.24801e-08
9.52364e-08
5.25371e-06
5.31184e-06
5.31866e-06
5.2871e-06
5.28692e-06
5.25398e-06
5.3184e-06
5.27314e-06
5.28715e-06
5.29721e-06
5.28715e-06
5.28733e-06
5.28733e-06
5.273e-06
5.27332e-06
5.28798e-06
5.28768e-06
5.29721e-06
5.28743e-06
5.27366e-06
5.28752e-06
9.52268e-08
7.35899e-08
5.24867e-08
7.35912e-08
5.24822e-08
9.52352e-08
9.52274e-08
7.36174e-08
5.24807e-08
7.36084e-08
9.52384e-08
5.24794e-08
5.27287e-06
5.28699e-06
5.28699e-06
5.29683e-06
5.28694e-06
5.27288e-06
5.28698e-06
5.25328e-06
5.3113e-06
5.31798e-06
5.28646e-06
5.28639e-06
5.2533e-06
5.31802e-06
5.27284e-06
5.28699e-06
5.29683e-06
5.28696e-06
5.28691e-06
5.28698e-06
5.27285e-06
9.66567e-08
5.46208e-08
7.72367e-08
9.66697e-08
5.46185e-08
7.72063e-08
9.66438e-08
5.46044e-08
7.71753e-08
9.66506e-08
5.46048e-08
7.71713e-08
9.52292e-08
7.35892e-08
5.24874e-08
9.52371e-08
7.3602e-08
5.24865e-08
9.52216e-08
7.36226e-08
5.24755e-08
7.3616e-08
5.24759e-08
9.52272e-08
5.25328e-06
5.31134e-06
5.31793e-06
5.28634e-06
5.28653e-06
5.25326e-06
5.31789e-06
5.27294e-06
5.28724e-06
5.29709e-06
5.28724e-06
5.28702e-06
5.28715e-06
5.27299e-06
5.27293e-06
5.287e-06
5.28688e-06
5.29714e-06
5.28709e-06
5.27286e-06
5.2871e-06
9.51997e-08
7.36049e-08
5.24564e-08
7.35976e-08
5.24569e-08
9.52058e-08
9.52169e-08
7.36216e-08
5.24745e-08
7.3613e-08
9.5228e-08
5.24729e-08
5.27329e-06
5.28714e-06
5.28723e-06
5.29805e-06
5.28764e-06
5.27304e-06
5.28753e-06
5.25367e-06
5.31125e-06
5.31845e-06
5.28788e-06
5.28699e-06
5.25413e-06
5.31805e-06
5.27347e-06
5.28828e-06
5.29791e-06
5.28852e-06
5.2876e-06
5.28774e-06
5.27391e-06
9.6617e-08
5.45827e-08
7.71582e-08
9.66285e-08
5.45811e-08
7.71528e-08
9.51933e-08
7.36018e-08
5.24542e-08
9.52048e-08
7.35939e-08
5.24524e-08
5.25617e-06
5.3146e-06
5.31915e-06
5.28834e-06
5.29048e-06
5.25481e-06
5.32052e-06
5.27868e-06
5.30364e-06
5.29349e-06
5.29268e-06
5.276e-06
5.2889e-06
5.28896e-06
5.30218e-06
5.29111e-06
5.27459e-06
5.29043e-06
9.69468e-08
5.49522e-08
7.75651e-08
9.75781e-08
5.47442e-08
7.73397e-08
9.95258e-08
5.53609e-08
7.77782e-08
9.79087e-08
5.62073e-08
7.8409e-08
6.72036e-07
6.20834e-07
6.51844e-07
6.44184e-07
6.64145e-07
6.40409e-07
7.29066e-08
6.86193e-07
6.87288e-07
6.83538e-07
6.96855e-07
6.66797e-07
6.50419e-07
6.6644e-07
7.61805e-08
9.66669e-08
5.4635e-08
7.72184e-08
9.66797e-08
5.46331e-08
7.72116e-08
9.66704e-08
5.46359e-08
7.72169e-08
9.66766e-08
5.46351e-08
7.7212e-08
9.6627e-08
5.45937e-08
7.7166e-08
9.66402e-08
5.45903e-08
7.71594e-08
9.66339e-08
5.45949e-08
7.71672e-08
9.66396e-08
5.45954e-08
7.71626e-08
6.74385e-07
6.60091e-07
6.69575e-07
6.55855e-07
6.79668e-07
6.72205e-07
6.47012e-07
6.64668e-07
6.65478e-07
6.49098e-07
6.68764e-07
6.70552e-07
6.75207e-07
6.81707e-07
6.67646e-07
6.62663e-07
6.52885e-07
6.71662e-07
6.82846e-07
6.7222e-07
6.64626e-07
6.52929e-07
6.67542e-07
6.54071e-07
6.70916e-07
7.00547e-07
6.63804e-07
6.76158e-07
6.74749e-07
7.50239e-07
7.2694e-07
7.93886e-07
6.99847e-07
6.53207e-07
6.5415e-07
6.49342e-07
6.60099e-07
6.61526e-07
6.80714e-07
6.78873e-07
6.6409e-07
6.82519e-07
6.68335e-07
6.59875e-07
6.64797e-07
6.97134e-07
6.83659e-07
6.86181e-07
6.7444e-07
6.72744e-07
6.50717e-07
6.46244e-07
6.47425e-07
6.49332e-07
7.02371e-07
6.68033e-07
6.90812e-07
6.74565e-07
7.23403e-07
6.83007e-07
7.15206e-07
7.00259e-07
9.53016e-08
7.37658e-08
5.25106e-08
7.36592e-08
9.54199e-08
5.24955e-08
9.56517e-08
7.38217e-08
5.25225e-08
7.40929e-08
9.54516e-08
5.25348e-08
6.69415e-07
6.51654e-07
6.62221e-07
6.55939e-07
6.51559e-07
6.62086e-07
6.69526e-07
6.68457e-07
6.43615e-07
6.57218e-07
6.62362e-07
6.43693e-07
6.62426e-07
6.68415e-07
6.6853e-07
6.62678e-07
6.57263e-07
6.44037e-07
6.43801e-07
6.62499e-07
6.6868e-07
6.6936e-07
6.55887e-07
6.51488e-07
6.61972e-07
6.51515e-07
6.62023e-07
6.69328e-07
6.48502e-07
6.45107e-07
6.5473e-07
6.52661e-07
6.54937e-07
6.48064e-07
6.4556e-07
6.59532e-07
6.78172e-07
6.71621e-07
6.60098e-07
6.61308e-07
6.80195e-07
6.57676e-07
6.58853e-07
6.61145e-07
6.71648e-07
6.7916e-07
6.61335e-07
6.58422e-07
6.79603e-07
6.49324e-07
6.52755e-07
6.53962e-07
6.45261e-07
6.54993e-07
6.46448e-07
6.47938e-07
6.47796e-07
6.44915e-07
6.52165e-07
6.54579e-07
6.44829e-07
6.47879e-07
6.5448e-07
6.58111e-07
6.78813e-07
6.60831e-07
6.71164e-07
6.60861e-07
6.58091e-07
6.78834e-07
6.47754e-07
6.52118e-07
6.44761e-07
6.5441e-07
6.44786e-07
6.54436e-07
6.4773e-07
6.58148e-07
6.60999e-07
6.78961e-07
6.71213e-07
6.58234e-07
6.60906e-07
6.78873e-07
6.70257e-07
6.51857e-07
6.62413e-07
6.56471e-07
6.69756e-07
6.52319e-07
6.627e-07
6.70675e-07
6.46644e-07
6.58361e-07
6.63384e-07
6.455e-07
6.63602e-07
6.70803e-07
6.69485e-07
6.62887e-07
6.44329e-07
6.58119e-07
6.44709e-07
6.6894e-07
6.63247e-07
6.71086e-07
6.56554e-07
6.51563e-07
6.61933e-07
6.53111e-07
6.62855e-07
6.69682e-07
9.6683e-08
5.46371e-08
7.72126e-08
9.66794e-08
5.46369e-08
7.7212e-08
9.66708e-08
5.46369e-08
7.72162e-08
9.66891e-08
5.46363e-08
7.72085e-08
6.69733e-07
6.62482e-07
6.51692e-07
6.63221e-07
6.51885e-07
6.69524e-07
6.69316e-07
6.46256e-07
6.65258e-07
6.58689e-07
6.69887e-07
6.45539e-07
6.63729e-07
6.6991e-07
6.64486e-07
6.52469e-07
6.70386e-07
6.63095e-07
6.52037e-07
6.69091e-07
6.63039e-07
6.58836e-07
6.44972e-07
6.45281e-07
6.63821e-07
6.68839e-07
6.47862e-07
6.4495e-07
6.47964e-07
6.44849e-07
6.58231e-07
6.78912e-07
6.71534e-07
6.78967e-07
6.58179e-07
6.58255e-07
6.71412e-07
6.79096e-07
6.58359e-07
6.78994e-07
6.4784e-07
6.44769e-07
6.44826e-07
6.47785e-07
6.48211e-07
6.45003e-07
6.45197e-07
6.48012e-07
6.58783e-07
6.80059e-07
6.63707e-07
6.72327e-07
6.59275e-07
6.62066e-07
6.79536e-07
6.4836e-07
6.45777e-07
6.48813e-07
6.45344e-07
6.58619e-07
6.72452e-07
6.79152e-07
6.62181e-07
6.58414e-07
6.79364e-07
6.69341e-07
6.62641e-07
6.51634e-07
6.69453e-07
6.51529e-07
6.68581e-07
6.44589e-07
6.62566e-07
6.44671e-07
6.62842e-07
6.68503e-07
6.68615e-07
6.63189e-07
6.44878e-07
6.57515e-07
6.4471e-07
6.68752e-07
6.62723e-07
6.69316e-07
6.5145e-07
6.51508e-07
6.69248e-07
9.52333e-08
7.36181e-08
5.24816e-08
7.36135e-08
9.52378e-08
5.24809e-08
9.52297e-08
7.36202e-08
5.24807e-08
7.36108e-08
9.52407e-08
5.24807e-08
6.69295e-07
6.55812e-07
6.51459e-07
6.61907e-07
6.51462e-07
6.61914e-07
6.69289e-07
6.68378e-07
6.43587e-07
6.62334e-07
6.56959e-07
6.68394e-07
6.43556e-07
6.62297e-07
6.69299e-07
6.55815e-07
6.51472e-07
6.61946e-07
6.69311e-07
6.51465e-07
6.61919e-07
6.68369e-07
6.62289e-07
6.56978e-07
6.43534e-07
6.43548e-07
6.62294e-07
6.68361e-07
6.47704e-07
6.4473e-07
6.54368e-07
6.52029e-07
6.54363e-07
6.47702e-07
6.44731e-07
6.58067e-07
6.78788e-07
6.71105e-07
6.60788e-07
6.60796e-07
6.78794e-07
6.5806e-07
6.58067e-07
6.60797e-07
6.71105e-07
6.78785e-07
6.60795e-07
6.58062e-07
6.78792e-07
6.47702e-07
6.5203e-07
6.54362e-07
6.44722e-07
6.54368e-07
6.4473e-07
6.47694e-07
6.47707e-07
6.52048e-07
6.44734e-07
6.54371e-07
6.44736e-07
6.54373e-07
6.47705e-07
6.58072e-07
6.78801e-07
6.60818e-07
6.71108e-07
6.5808e-07
6.60803e-07
6.78793e-07
6.4771e-07
6.52054e-07
6.44746e-07
6.54395e-07
6.47718e-07
6.44739e-07
6.5438e-07
6.58069e-07
6.60795e-07
6.71105e-07
6.78791e-07
6.60798e-07
6.58066e-07
6.7879e-07
6.69279e-07
6.51454e-07
6.61906e-07
6.55793e-07
6.69284e-07
6.51451e-07
6.61892e-07
6.68348e-07
6.43514e-07
6.56953e-07
6.62265e-07
6.4352e-07
6.62261e-07
6.68344e-07
6.68351e-07
6.62287e-07
6.43532e-07
6.56939e-07
6.43521e-07
6.68357e-07
6.62266e-07
6.6928e-07
6.55793e-07
6.51447e-07
6.61887e-07
6.51453e-07
6.61888e-07
6.69274e-07
6.69151e-07
6.51381e-07
6.69171e-07
6.51361e-07
6.68384e-07
6.44448e-07
6.44454e-07
6.68374e-07
6.68386e-07
6.44484e-07
6.44454e-07
6.68409e-07
6.69154e-07
6.51351e-07
6.51364e-07
6.69143e-07
6.47743e-07
6.44705e-07
6.44721e-07
6.47726e-07
6.58141e-07
6.78905e-07
6.7123e-07
6.7887e-07
6.58169e-07
6.58135e-07
6.71304e-07
6.78852e-07
6.78869e-07
6.58117e-07
6.47747e-07
6.44759e-07
6.47776e-07
6.44727e-07
6.69194e-07
6.5138e-07
6.69169e-07
6.51399e-07
6.68446e-07
6.44584e-07
6.44522e-07
6.68492e-07
6.68436e-07
6.44482e-07
6.44514e-07
6.68409e-07
6.69202e-07
6.51441e-07
6.69238e-07
6.51407e-07
6.4771e-07
6.44705e-07
6.44686e-07
6.47725e-07
6.58102e-07
6.78821e-07
6.71209e-07
6.78831e-07
6.58095e-07
6.58098e-07
6.78849e-07
6.71171e-07
6.7883e-07
6.58114e-07
6.47714e-07
6.44675e-07
6.44688e-07
6.47705e-07
9.52267e-08
7.36122e-08
5.24808e-08
7.36035e-08
9.52364e-08
5.24793e-08
9.52277e-08
7.36123e-08
5.24804e-08