/*--------------------------------*- C++ -*----------------------------------*\
| =========                 |                                                 |
| \\      /  F ield         | OpenFOAM: The Open Source CFD Toolbox           |
|  \\    /   O peration     | Version:  2012                                  |
|   \\  /    A nd           | Website:  www.openfoam.com                      |
|    \\/     M anipulation  |                                                 |
\*---------------------------------------------------------------------------*/
FoamFile
{
    version     2.0;
    format      ascii;
    class       volVectorField;
    location    "0.108/solid";
    object      D;
}
// * * * * * * * * * * * * * * * * * * * * * * * * * * * * * * * * * * * * * //

dimensions      [0 1 0 0 0 0 0];


internalField   nonuniform List<vector> 
3124
(
(2.15746e-05 -1.00867e-05 -3.53954e-06)
(-9.13333e-07 -1.34751e-06 -2.42457e-06)
(-7.04198e-06 1.19116e-06 -7.8843e-06)
(-5.98957e-05 -2.93866e-06 4.1835e-07)
(-8.04903e-06 4.42942e-06 -4.39795e-06)
(-8.18159e-07 -1.16231e-06 -2.33502e-06)
(-7.71986e-06 2.21312e-06 -8.18707e-06)
(-5.82132e-05 -4.13809e-06 5.58017e-06)
(-5.81315e-06 9.40328e-07 -3.43664e-06)
(-5.2645e-07 -1.41752e-06 -2.89416e-06)
(1.93327e-05 -2.40379e-05 -3.65656e-05)
(2.81828e-05 -2.7551e-06 9.81112e-06)
(2.64012e-06 -2.84778e-06 -9.87032e-06)
(-1.62081e-07 -4.88195e-08 -7.10653e-06)
(-5.59136e-07 -1.42416e-06 -3.68935e-06)
(2.34997e-06 -2.34567e-06 -9.19217e-06)
(2.22818e-05 -1.3357e-05 -4.51071e-05)
(3.47457e-06 -4.1636e-06 -1.08477e-05)
(3.23632e-06 -4.13974e-06 -9.38762e-06)
(-4.15312e-07 -7.83982e-06 9.98314e-06)
(8.91858e-07 -7.32321e-08 -1.18965e-05)
(7.21064e-07 -1.35911e-07 -1.27733e-05)
(-9.31341e-08 -1.22677e-07 -7.19797e-06)
(0.000101097 7.16096e-06 3.21853e-06)
(8.6821e-06 -4.64063e-06 -2.43736e-06)
(2.77043e-05 -1.90976e-05 -6.15429e-06)
(4.77536e-05 -1.17557e-05 2.07874e-06)
(0.000149239 2.23468e-05 -7.30341e-06)
(9.75297e-06 -5.79372e-06 -3.49701e-06)
(2.11924e-05 -4.30381e-06 1.676e-06)
(-7.07286e-06 4.26135e-07 -1.40299e-05)
(-2.47326e-06 2.21475e-07 -7.40591e-06)
(-3.87341e-06 2.73562e-07 -8.91812e-06)
(-0.000154794 -3.8824e-05 -5.53022e-06)
(-6.15844e-05 -9.89266e-06 2.32268e-06)
(-0.000148661 7.15671e-06 3.16146e-06)
(-5.49136e-05 -4.28125e-06 -2.43045e-06)
(-0.000165542 -3.74673e-05 1.1349e-05)
(-0.000130973 -4.66007e-06 -5.12086e-06)
(-5.83373e-05 -1.00496e-05 -2.60335e-07)
(3.53715e-05 -2.18495e-05 -8.07737e-06)
(-9.18493e-06 1.63684e-05 -2.18445e-05)
(-3.16438e-07 -9.46668e-07 -5.80289e-06)
(-5.81008e-06 1.3643e-06 -1.34317e-06)
(-1.52364e-06 -3.43529e-07 -9.08357e-06)
(-9.79061e-06 9.63668e-07 -1.3929e-05)
(-6.87123e-06 5.26054e-07 -1.30347e-05)
(-9.35812e-06 -1.21175e-06 -1.77348e-05)
(-0.000110946 -3.90287e-05 4.0363e-05)
(-4.70962e-05 -7.58607e-06 9.98691e-06)
(-5.86632e-05 -1.03386e-05 6.29336e-06)
(-0.000146085 4.20086e-06 8.89696e-06)
(-0.000163246 -3.74595e-05 1.49306e-05)
(-9.9225e-05 -2.38918e-05 2.47966e-05)
(-4.85473e-05 -1.13919e-05 9.90491e-06)
(-1.33756e-06 -7.6701e-07 -7.13288e-06)
(-6.60782e-07 -1.15456e-07 -1.52348e-05)
(-7.21807e-07 -2.02097e-07 -8.36215e-06)
(-2.67369e-06 -7.34254e-08 -7.85963e-06)
(1.68591e-06 -1.63963e-06 -1.32628e-06)
(2.12545e-07 -1.3126e-06 -7.85715e-06)
(5.40563e-06 -4.60897e-06 -4.47133e-06)
(6.41171e-06 -4.29746e-06 -4.29742e-07)
(2.96335e-05 -1.84866e-05 -1.79833e-05)
(1.4902e-05 -7.94491e-06 -2.06819e-05)
(0.000160596 -3.4196e-05 5.80533e-05)
(1.02051e-05 -6.23449e-06 -5.22439e-06)
(0.00010952 1.65678e-05 1.03391e-05)
(5.00956e-05 -8.67773e-07 6.38492e-06)
(7.63064e-05 1.33714e-05 2.20474e-05)
(6.4245e-06 -4.23774e-06 7.29168e-06)
(0.000159114 3.10729e-05 2.0349e-05)
(2.67992e-05 -1.61096e-05 4.67487e-05)
(2.33022e-05 -2.45719e-07 3.97074e-06)
(8.51607e-05 4.95058e-06 2.39099e-05)
(0.000183213 3.67852e-05 9.2554e-06)
(5.8032e-07 -1.25397e-06 -8.04606e-06)
(8.0899e-06 -6.93634e-06 -1.54397e-05)
(6.16463e-06 -4.23602e-06 -6.12637e-06)
(-9.45133e-06 -5.32634e-06 6.34097e-06)
(5.12542e-06 -4.38804e-06 1.46011e-06)
(-3.85518e-06 4.88377e-07 -1.04936e-05)
(-2.38907e-06 2.37877e-07 -6.91865e-06)
(-1.70376e-06 1.91928e-07 -7.28812e-06)
(-2.49863e-06 -7.85512e-08 -7.01501e-06)
(-4.00879e-06 2.46173e-07 -9.5566e-06)
(-2.13525e-06 -5.74326e-08 -5.85431e-06)
(-2.50263e-06 2.22075e-07 -7.13971e-06)
(-3.48627e-05 -6.99815e-07 2.13248e-06)
(-3.28404e-05 -5.20854e-07 -6.38616e-07)
(-0.000153363 9.22277e-06 3.06415e-06)
(-0.000135284 -7.85925e-06 -2.80351e-06)
(-0.00015078 -3.88561e-05 -6.52905e-06)
(-4.74557e-05 -6.29988e-06 -2.44939e-06)
(-0.000121624 -1.02059e-05 -4.85096e-06)
(-5.19226e-05 -1.02258e-05 -9.82641e-07)
(-0.000125779 -1.52809e-05 -2.48805e-06)
(-3.12615e-05 -6.61914e-07 -1.16331e-06)
(2.78348e-05 -2.10175e-05 -1.91739e-05)
(-2.04569e-05 1.51728e-05 -1.01379e-05)
(-5.18041e-07 -9.46144e-07 -5.57397e-06)
(-2.14554e-07 -7.85842e-07 -8.4579e-06)
(-9.23551e-07 -1.90063e-07 -8.91746e-06)
(-5.92392e-06 -4.88749e-07 -1.35142e-06)
(-1.56025e-06 -4.01862e-07 -8.91148e-06)
(2.06513e-07 -7.20744e-07 -8.4568e-06)
(7.13838e-06 -6.44838e-07 -7.18551e-06)
(-4.41518e-07 -1.99507e-07 -8.73159e-06)
(-2.43629e-06 3.96467e-06 -1.2217e-05)
(1.16242e-05 -3.86778e-06 -2.30462e-05)
(-3.93401e-06 1.76356e-06 -8.11875e-06)
(-3.6911e-06 5.56189e-07 -1.00183e-05)
(-5.77896e-06 -9.35234e-07 -1.50774e-05)
(9.55977e-06 -5.68338e-06 -2.15012e-05)
(-3.32472e-06 -1.74712e-07 -9.88539e-06)
(9.65917e-06 -2.44476e-06 -8.38505e-06)
(-9.88992e-05 -3.90455e-05 4.32254e-05)
(-2.69677e-05 -9.96191e-06 1.13285e-05)
(3.7181e-05 -7.56121e-06 2.40704e-05)
(-1.34341e-05 -9.15679e-06 9.65881e-06)
(9.76589e-06 -2.12514e-05 4.86841e-05)
(-7.13976e-05 -3.0126e-05 2.71216e-05)
(-3.2664e-05 -1.16508e-05 1.12078e-05)
(-3.41746e-05 -1.02066e-06 3.72177e-06)
(-2.78942e-05 -2.61651e-06 7.39679e-06)
(-0.000150823 5.85535e-06 7.98934e-06)
(-0.000102227 -3.00976e-05 2.38685e-05)
(4.291e-05 -1.87836e-05 2.74975e-05)
(-7.25026e-05 -4.09764e-05 2.79334e-05)
(-1.38423e-05 -4.99397e-06 7.46741e-06)
(-2.44004e-05 -3.52959e-06 8.21263e-06)
(-6.14089e-08 -6.02426e-07 -8.9274e-06)
(-3.28928e-07 -1.87374e-07 -1.46754e-05)
(-6.7339e-07 -2.29405e-07 -8.21986e-06)
(-2.57531e-06 -1.09905e-07 -7.29596e-06)
(-2.64009e-06 -9.28886e-08 -7.7793e-06)
(-2.42194e-06 -5.83432e-08 -6.66423e-06)
(-2.20303e-06 -7.41503e-08 -6.03786e-06)
(-2.39762e-06 -7.46132e-08 -6.59805e-06)
(-0.000118107 1.68538e-06 -5.75882e-06)
(-2.2132e-06 -2.26197e-06 -2.51413e-06)
(-2.79371e-06 -4.25354e-06 -5.35287e-07)
(6.66178e-07 1.3886e-06 -9.10568e-06)
(-5.23997e-06 4.51043e-08 -8.02301e-06)
(7.15891e-07 7.25307e-07 -7.75753e-06)
(-1.12591e-05 9.31038e-06 -8.80933e-06)
(-9.38794e-06 1.55546e-06 -2.94166e-05)
(-2.70607e-07 -7.10146e-07 -1.49157e-06)
(-2.48586e-06 -4.11193e-06 -1.43328e-06)
(-4.25903e-07 -8.99184e-07 -3.97055e-06)
(-1.05933e-05 6.47432e-06 -1.28359e-05)
(6.5057e-07 1.9926e-06 -9.8987e-06)
(9.0867e-07 4.45384e-06 -1.52111e-05)
(-4.20919e-06 -6.36383e-07 -4.33665e-06)
(2.3239e-06 -4.15759e-06 -1.59032e-05)
(-1.43204e-07 -1.44853e-06 -1.95174e-06)
(-8.54313e-07 -2.5128e-06 -5.95141e-06)
(5.54233e-08 7.07124e-07 -8.78323e-06)
(1.20757e-06 -1.03793e-06 -2.55487e-05)
(-3.39153e-07 -2.87581e-06 -4.51013e-06)
(1.04902e-06 -4.28231e-07 -2.50159e-06)
(5.02263e-05 -3.13573e-05 -3.69047e-05)
(1.66561e-05 -1.90994e-05 -2.84529e-05)
(3.49036e-05 5.31536e-06 -0.000142046)
(1.38534e-05 -1.86721e-05 -3.10041e-05)
(8.21695e-05 -0.000123502 -3.23093e-05)
(1.92242e-05 -3.43371e-05 -0.000100172)
(1.11628e-05 -1.61118e-05 -1.96975e-05)
(6.06833e-06 -3.42986e-06 -3.06899e-05)
(4.30948e-06 -5.55922e-06 -3.43278e-05)
(1.87588e-06 -2.17483e-06 -9.1624e-06)
(3.70277e-06 -3.23978e-06 -1.05214e-05)
(3.6415e-06 -2.94272e-06 -3.15099e-05)
(5.72062e-06 -4.04619e-06 -4.02063e-05)
(2.66441e-06 -2.89612e-06 -9.28708e-06)
(-4.06651e-07 1.33202e-07 -7.04382e-06)
(-8.98519e-07 -2.10718e-07 -5.80643e-06)
(-4.12954e-07 -1.39076e-08 -5.60612e-06)
(3.00624e-05 -2.14119e-05 -3.33737e-05)
(7.58095e-05 6.22094e-06 -0.000171587)
(3.98613e-05 -0.000129808 -7.45035e-05)
(-7.267e-07 6.08925e-08 -3.18009e-05)
(-4.36491e-07 -1.44157e-06 -4.18019e-06)
(-9.3767e-07 -2.20303e-06 -7.07243e-06)
(-6.41228e-08 9.50431e-07 -1.03388e-05)
(4.64319e-07 -6.28901e-07 -2.74976e-05)
(-8.03159e-07 -2.03445e-06 -7.79503e-06)
(-1.09344e-07 1.34809e-06 -1.27585e-05)
(3.2775e-06 -1.48072e-06 -2.98492e-05)
(4.6203e-06 -6.10246e-06 -3.37714e-05)
(1.59947e-06 -1.57851e-06 -8.89733e-06)
(2.37983e-06 -2.05178e-06 -9.07233e-06)
(3.3766e-06 -2.68266e-06 -3.16054e-05)
(7.65946e-06 -5.62599e-06 -3.26243e-05)
(1.43382e-06 -1.15508e-06 -8.82049e-06)
(5.29956e-06 -8.84955e-06 -6.88623e-05)
(3.83818e-06 -6.88181e-06 -3.33825e-05)
(3.72111e-06 -4.17374e-06 -1.17291e-05)
(5.10153e-06 -5.80237e-06 -1.23119e-05)
(4.89596e-06 -4.38056e-06 -3.56035e-05)
(3.60835e-06 -1.87335e-05 -3.23872e-05)
(4.82443e-06 -3.72093e-06 -1.55594e-05)
(1.13342e-05 -2.34103e-05 -2.90102e-05)
(4.72879e-06 -8.06607e-06 -3.40914e-05)
(3.05384e-06 -4.04923e-06 -9.09626e-06)
(4.18992e-06 -7.1908e-06 -9.98083e-06)
(9.25775e-06 -8.37455e-06 -3.50192e-05)
(4.8328e-06 -2.03829e-05 -3.41904e-05)
(4.45442e-06 -7.37761e-06 -9.16041e-06)
(8.74871e-07 -6.51888e-08 -1.10838e-05)
(4.00493e-07 -1.46514e-07 -1.34983e-05)
(-3.03119e-07 -2.05286e-07 -7.6148e-06)
(-1.04214e-06 -2.58067e-07 -5.94895e-06)
(-1.38757e-06 -3.04463e-07 -6.44132e-06)
(6.51833e-05 -4.9152e-06 7.38769e-06)
(0.000112453 3.77467e-05 1.34749e-05)
(5.99534e-05 -1.77854e-05 -1.01622e-05)
(5.32375e-05 1.8249e-06 6.98818e-06)
(4.0894e-05 -8.94756e-06 1.15641e-06)
(7.83744e-05 -4.90329e-06 9.13302e-06)
(7.73491e-05 1.06548e-05 1.45098e-05)
(4.43279e-05 -1.118e-05 -2.03635e-06)
(3.41701e-05 -1.4717e-05 -9.51213e-06)
(7.82306e-06 -4.48224e-06 -2.80769e-06)
(1.58639e-05 -8.03627e-06 -3.36628e-06)
(2.56979e-05 -1.11644e-05 -4.07121e-06)
(4.50823e-05 -1.77847e-05 -3.82118e-06)
(1.39599e-05 -5.27112e-06 -2.67566e-06)
(-1.68406e-06 -1.67623e-06 -1.54231e-06)
(2.09956e-06 8.8107e-07 -5.94467e-06)
(-5.15664e-06 4.0835e-07 -1.09702e-05)
(1.12023e-06 4.42866e-07 -5.249e-06)
(-4.36881e-06 1.52718e-07 -8.04718e-06)
(4.73243e-07 4.14991e-07 -6.10278e-06)
(7.37362e-07 6.97737e-07 -7.3225e-06)
(-5.32727e-06 3.67524e-07 -1.16599e-05)
(2.01469e-07 1.029e-07 -4.44569e-06)
(9.49496e-07 4.16986e-07 -4.93182e-06)
(-0.000126989 -2.18756e-05 -2.45708e-07)
(-0.000164255 -3.84592e-05 -3.60322e-07)
(-0.000143401 -3.30545e-05 -2.76498e-06)
(-0.000125817 -2.59821e-05 -2.05435e-06)
(-0.000131642 -2.59149e-05 5.85851e-07)
(-0.000150309 -3.15897e-05 -5.72873e-07)
(-0.000120562 -2.3103e-05 -2.29493e-06)
(-0.000130442 -2.12415e-05 1.99695e-06)
(-0.000166164 -3.8272e-05 2.04812e-06)
(-0.000134687 -2.58102e-05 7.83653e-06)
(-0.000154987 -2.99108e-05 7.39783e-06)
(-0.000131032 -2.10492e-05 6.40337e-06)
(-0.000134587 -2.5781e-05 3.15294e-06)
(-0.000154519 -3.03839e-05 2.67818e-06)
(-1.45425e-05 1.09086e-05 -1.71126e-05)
(-5.72009e-06 1.88201e-06 -2.72829e-05)
(-2.13025e-07 -1.42145e-06 -6.01332e-06)
(-1.10504e-06 -1.72096e-06 -8.52178e-06)
(-9.74733e-07 3.40087e-07 -2.05877e-05)
(-3.45507e-06 6.10836e-07 -3.08702e-05)
(-1.15619e-06 -2.22567e-06 -9.11949e-06)
(-2.16884e-06 4.61374e-06 -2.32467e-05)
(-9.99876e-06 4.57351e-07 -2.91783e-05)
(-1.98339e-05 5.06437e-07 -1.73206e-05)
(-3.90843e-06 -6.97294e-07 -7.98775e-06)
(-1.15886e-05 -3.29934e-06 -2.59407e-05)
(-4.94732e-07 -7.48465e-07 -4.08111e-06)
(-7.84136e-06 2.8858e-07 -3.06977e-05)
(-4.40622e-06 -1.00349e-06 -2.77959e-05)
(-1.20604e-06 -6.7046e-07 -9.07704e-06)
(-2.24138e-06 -7.10736e-07 -8.78932e-06)
(-3.6564e-06 -1.98958e-07 -3.17837e-05)
(-9.25872e-06 -2.81885e-06 -2.77384e-05)
(-1.84854e-06 -8.27166e-07 -8.96622e-06)
(-1.08344e-05 6.76274e-06 -1.55907e-05)
(2.0057e-06 1.7287e-06 -2.44309e-05)
(1.16665e-06 4.83115e-06 -1.76287e-05)
(2.45093e-06 1.29737e-06 -6.59624e-06)
(-9.28233e-06 8.46709e-07 -1.72849e-05)
(4.50961e-06 3.08371e-06 -1.00916e-05)
(8.70283e-06 1.4677e-06 -1.76651e-05)
(-8.78898e-06 8.85549e-07 -1.60683e-05)
(5.26771e-06 3.45204e-06 -1.21055e-05)
(-0.000108041 -2.46615e-05 1.90702e-05)
(-0.000140069 -3.74926e-05 3.01e-05)
(-0.000105949 -3.61993e-05 2.96376e-05)
(-9.61545e-05 -2.77931e-05 2.57687e-05)
(-9.06177e-05 -2.68114e-05 2.25432e-05)
(-0.000111996 -2.68131e-05 2.15237e-05)
(-0.000125933 -3.42295e-05 2.46029e-05)
(-0.000119285 -2.33775e-05 1.54647e-05)
(-0.000147517 -3.71165e-05 2.63997e-05)
(-0.000131122 -2.57832e-05 1.17569e-05)
(-0.000150617 -3.0381e-05 1.27973e-05)
(-0.000127817 -2.14633e-05 1.0141e-05)
(-0.000122825 -2.63776e-05 1.74061e-05)
(-0.000140832 -3.22549e-05 1.88891e-05)
(-2.78394e-06 -7.90584e-07 -5.99132e-06)
(-9.21878e-07 9.80613e-08 -1.55933e-05)
(-9.07518e-07 3.37181e-08 -8.65525e-06)
(-1.70033e-06 -1.99358e-07 -7.23575e-06)
(-1.84911e-06 -1.64092e-07 -6.98788e-06)
(4.16975e-05 -1.22751e-05 5.29467e-06)
(2.22063e-05 -1.35694e-05 -3.93769e-06)
(7.11266e-06 -4.08967e-06 -1.38869e-05)
(6.15205e-07 -1.48573e-06 -1.34401e-06)
(3.2591e-06 -3.78857e-06 -2.59295e-06)
(3.16491e-06 -3.44454e-06 -3.0893e-06)
(1.08519e-05 -8.17542e-06 -8.86124e-06)
(1.10563e-06 -3.05361e-06 -3.24835e-06)
(1.84886e-06 -1.5146e-06 -1.91872e-06)
(3.78741e-06 -4.57785e-06 -1.89925e-05)
(-3.30355e-07 -1.83221e-06 -7.37082e-06)
(2.29827e-06 -1.90753e-06 -2.88871e-05)
(1.09987e-06 -2.04321e-06 -7.10747e-06)
(6.93737e-06 -3.6826e-06 -2.46568e-05)
(1.50893e-06 -1.50311e-06 -2.70902e-05)
(3.06312e-07 -2.65562e-06 -6.2474e-06)
(8.94599e-06 -6.88553e-06 -1.88059e-05)
(2.71057e-05 -1.29692e-05 -1.24322e-05)
(4.44007e-06 -4.23708e-06 -3.40377e-06)
(2.64668e-06 -3.28032e-06 -6.08654e-06)
(1.73581e-05 -1.09661e-05 -5.73541e-06)
(9.85193e-06 -4.66972e-06 -2.38467e-05)
(1.62648e-06 -3.67453e-06 -4.72827e-06)
(1.39592e-05 -1.23245e-05 5.14512e-06)
(6.18384e-06 -5.18944e-06 -1.97237e-06)
(1.69214e-05 -1.5226e-05 -5.78869e-07)
(0.000148255 3.97659e-05 9.71849e-06)
(8.69521e-05 -2.51965e-05 -5.69998e-07)
(1.57918e-05 -2.32676e-05 -8.37453e-05)
(1.93169e-05 -6.37886e-06 -2.14292e-05)
(0.000100205 -1.8571e-05 -9.13612e-05)
(2.55801e-05 -1.40464e-05 -9.45591e-06)
(6.86021e-05 -3.28387e-05 -4.02203e-06)
(5.25176e-05 7.33151e-05 -0.00011778)
(1.45436e-05 -1.39411e-05 -1.5194e-05)
(3.43107e-05 -2.03596e-05 -4.89544e-05)
(1.42098e-05 -1.32379e-05 -3.05328e-05)
(1.45239e-05 -1.03241e-05 -3.77685e-05)
(1.06407e-05 -9.52646e-06 -1.40567e-05)
(1.60478e-05 -5.75698e-06 -3.35797e-05)
(2.45433e-05 -1.59309e-05 -0.000141582)
(1.17111e-05 -1.45158e-05 -1.76591e-05)
(0.000143936 3.09425e-05 1.46338e-05)
(0.000140041 1.956e-05 2.13244e-05)
(9.14142e-05 -2.81415e-05 -1.31481e-06)
(3.20168e-05 -2.2248e-05 -2.02961e-05)
(3.46486e-05 -1.27666e-05 -1.39651e-05)
(1.59383e-05 -9.42748e-06 -5.34134e-06)
(9.78482e-06 -7.79556e-06 -8.20722e-06)
(6.15191e-05 -2.35555e-05 -5.19662e-06)
(1.84285e-05 -7.07458e-06 -2.61625e-05)
(1.34197e-05 -1.17028e-05 -9.90936e-06)
(6.64758e-05 1.90512e-05 1.31368e-05)
(0.000118277 5.38331e-05 1.52702e-05)
(8.73541e-05 6.67206e-06 3.0976e-05)
(5.31566e-05 7.31344e-06 1.05787e-05)
(7.75506e-05 2.01876e-05 1.3394e-05)
(0.000102871 4.6868e-05 1.78807e-05)
(4.21061e-05 5.31136e-06 1.44805e-05)
(4.8325e-05 1.1628e-05 1.46058e-05)
(7.33373e-05 2.95353e-07 3.61433e-05)
(4.48335e-05 9.21179e-06 2.73014e-05)
(5.08666e-06 -9.19531e-06 2.32153e-05)
(7.61206e-05 2.88082e-05 2.24772e-05)
(2.60502e-05 -5.48016e-07 1.88251e-05)
(2.40212e-05 -1.96948e-07 1.71916e-05)
(0.000153887 5.26543e-05 1.23016e-05)
(0.000125187 4.15526e-05 2.42039e-05)
(0.00012565 2.88019e-05 1.94017e-05)
(5.39522e-05 4.31204e-06 3.39843e-05)
(0.000108309 3.84305e-05 2.56631e-05)
(0.000148801 4.49116e-05 1.61054e-05)
(0.000159209 3.66228e-05 1.69078e-05)
(0.000122864 4.66288e-05 2.15845e-05)
(5.22466e-05 -5.09478e-07 3.99654e-05)
(0.000108703 3.32398e-05 2.90538e-05)
(6.17326e-06 -3.30934e-06 -2.82288e-05)
(1.09884e-06 -1.6384e-06 -8.44546e-06)
(2.52375e-06 -1.92788e-06 -2.87913e-05)
(1.49237e-06 -1.81087e-06 -7.41603e-06)
(6.73699e-06 -3.35081e-06 -2.38228e-05)
(3.33645e-06 -2.50635e-06 -3.07301e-05)
(1.84926e-06 -2.35433e-06 -8.03694e-06)
(7.34709e-06 -3.5542e-06 -3.00758e-05)
(6.43586e-06 -4.21628e-06 -1.25077e-05)
(1.05304e-05 -2.83803e-06 -6.10534e-05)
(7.09453e-06 -6.52915e-06 -1.11408e-05)
(1.32743e-05 -5.33289e-06 -3.26368e-05)
(6.02433e-06 -1.76816e-06 -4.00972e-05)
(4.57733e-06 -4.40862e-06 -9.85694e-06)
(7.69001e-06 -3.62485e-06 -2.69865e-05)
(2.58546e-05 -9.72087e-06 -1.48427e-05)
(3.29943e-06 -2.71195e-06 -6.78111e-06)
(5.88524e-06 -5.00472e-06 -7.62192e-06)
(9.43116e-06 -4.01549e-06 -2.21932e-05)
(1.51969e-05 -5.37301e-06 -2.74655e-05)
(3.48293e-06 -3.4292e-06 -7.6803e-06)
(4.17838e-05 -1.06304e-05 7.82697e-06)
(2.31325e-05 -1.34437e-05 1.57562e-05)
(-2.55065e-05 -1.69925e-05 1.59737e-05)
(-4.77445e-06 -5.012e-06 4.77991e-06)
(-1.28267e-05 -1.47059e-05 1.2182e-05)
(-1.35792e-05 -1.96821e-05 2.54533e-05)
(1.51483e-05 -1.44689e-05 1.83953e-05)
(1.31113e-05 -1.05712e-05 5.06188e-06)
(5.0872e-07 -4.71087e-06 2.86861e-06)
(-7.67917e-07 -1.35243e-05 8.3392e-06)
(-4.83098e-07 -1.7415e-08 -1.26921e-06)
(-2.84429e-06 3.67504e-07 -8.28777e-06)
(-4.91309e-07 -6.33872e-09 -1.15986e-06)
(-2.99062e-06 3.39772e-07 -8.58155e-06)
(-7.65938e-07 -1.64424e-08 -1.34139e-06)
(-6.4846e-07 -5.13681e-08 -1.31924e-06)
(-7.1152e-07 1.45137e-07 -7.08479e-06)
(2.90465e-07 2.79639e-07 -5.89182e-06)
(-2.43806e-07 5.32215e-08 -5.61906e-06)
(-1.29097e-06 -2.89105e-07 -5.41073e-06)
(-2.93825e-06 1.09653e-07 -7.73154e-06)
(-8.5063e-07 -1.67981e-07 -4.89526e-06)
(-6.12418e-08 -2.7398e-09 -4.48617e-06)
(-2.88948e-06 1.65401e-07 -7.45094e-06)
(-6.9999e-07 -1.2619e-07 -4.78126e-06)
(-1.14897e-06 -1.27163e-08 -1.75457e-06)
(-2.2069e-06 9.79759e-08 -6.11015e-06)
(-1.06121e-06 -1.15809e-08 -1.65076e-06)
(-9.09318e-07 -1.68784e-08 -1.49775e-06)
(-2.15465e-06 1.31807e-07 -6.02268e-06)
(-9.90692e-07 -1.05618e-08 -1.57136e-06)
(-0.000124671 -1.96527e-05 -2.91668e-06)
(-0.000132447 -2.00671e-05 9.66933e-07)
(-0.000104295 -1.28118e-05 5.98291e-06)
(-3.47839e-05 -5.49229e-07 1.08939e-06)
(-0.000104216 -1.24754e-05 2.95131e-06)
(-0.000133727 -2.03694e-05 8.95034e-06)
(-0.000133789 -2.0027e-05 2.43367e-06)
(-9.80031e-05 -1.18007e-05 -1.41426e-06)
(-3.39924e-05 -5.37602e-07 -6.36624e-08)
(-0.000102016 -1.23457e-05 4.44187e-07)
(-0.000146164 -4.02807e-05 -3.48619e-06)
(-0.000156717 -3.74871e-05 4.08621e-08)
(-0.000157986 -2.07138e-05 7.69207e-06)
(-0.000150538 6.50554e-06 -4.7314e-07)
(-0.000156235 -2.16281e-05 9.09861e-07)
(-0.000159897 -3.52735e-05 8.96073e-06)
(-0.000158966 -3.65343e-05 1.54301e-06)
(-0.000142211 -2.79244e-05 -3.1798e-06)
(-0.000143979 -1.58577e-08 -2.28516e-06)
(-0.000153574 -2.2817e-05 -4.89256e-07)
(-0.00013512 -3.4163e-05 -3.68003e-06)
(-0.000119474 -2.59051e-05 -2.91313e-06)
(-0.000113866 -2.37753e-05 -2.72478e-06)
(-0.000141927 -4.10936e-05 -3.93013e-06)
(-0.000137728 -2.94049e-05 -3.51945e-06)
(-0.000121809 -1.97496e-05 -3.42876e-06)
(-9.35309e-05 -1.19463e-05 -2.46995e-06)
(2.98576e-05 -1.02494e-05 -2.35137e-05)
(7.28228e-05 6.93193e-05 -0.000117388)
(-3.11059e-06 2.06202e-05 -1.85951e-05)
(5.89005e-05 -3.70775e-05 -0.000112732)
(-1.07179e-06 1.19946e-07 -3.23404e-05)
(-4.74477e-07 -1.42597e-06 -4.55117e-06)
(-7.47246e-07 -1.88211e-06 -8.34268e-06)
(-1.35658e-06 2.80972e-07 -1.95248e-05)
(-2.57532e-06 5.32293e-07 -3.13165e-05)
(-7.3484e-07 -1.93e-06 -8.17316e-06)
(-3.1107e-07 1.40775e-06 -1.28232e-05)
(-7.08725e-07 -4.2638e-07 -3.24368e-05)
(-6.1331e-07 -1.27893e-06 -8.22465e-06)
(1.50596e-06 -1.54734e-06 -3.00092e-05)
(-3.8568e-07 -4.72318e-07 -8.88636e-06)
(6.95715e-07 -1.10325e-06 -2.87293e-05)
(-2.22822e-07 -7.63171e-07 -3.23642e-05)
(-6.45215e-07 -9.47825e-07 -8.79612e-06)
(-1.16434e-06 -3.27338e-07 -3.28199e-05)
(-3.11004e-06 -6.92917e-07 -3.12811e-05)
(-8.88222e-07 -5.59186e-07 -9.05701e-06)
(-4.33235e-07 -3.23936e-07 -8.99262e-06)
(-2.85846e-06 -1.95652e-07 -3.24541e-05)
(-7.59982e-07 -6.12039e-07 -3.261e-05)
(-6.64928e-07 -6.96833e-07 -9.03404e-06)
(-2.28817e-05 -1.32791e-06 -1.60733e-05)
(-1.70892e-06 -1.01083e-06 -4.35288e-06)
(-1.21921e-05 -5.26912e-06 -2.50434e-05)
(1.33928e-06 -3.5822e-07 -5.23067e-06)
(1.97185e-06 -7.34816e-07 -3.07054e-05)
(-4.50796e-06 -1.28942e-06 -2.94591e-05)
(-2.61682e-06 -1.70717e-06 -8.96917e-06)
(-7.36229e-07 -5.19345e-07 -9.39183e-06)
(-7.68865e-06 -3.83415e-06 -2.64787e-05)
(-1.18082e-06 -1.0053e-06 -2.91716e-05)
(2.38239e-06 -1.033e-06 -3.19447e-05)
(8.40832e-07 -1.01953e-06 -8.53566e-06)
(1.79473e-06 -1.61122e-06 -2.97865e-05)
(-1.30052e-07 -3.83639e-07 -8.83888e-06)
(2.99859e-06 -2.20419e-06 -3.1269e-05)
(1.48783e-07 -7.63731e-07 -3.21938e-05)
(3.02273e-07 -4.81915e-07 -8.75669e-06)
(3.26698e-06 -1.21667e-06 -3.3047e-05)
(4.13871e-06 -1.84138e-06 -9.74861e-06)
(1.87051e-05 -1.27099e-06 -3.21269e-05)
(2.9926e-06 3.48031e-09 -9.61868e-06)
(2.9677e-06 7.96032e-08 -3.09045e-05)
(9.41728e-06 -4.58489e-06 -3.53797e-05)
(1.92382e-06 -5.59101e-07 -9.23679e-06)
(1.14638e-06 -3.69972e-07 -3.06574e-05)
(-3.10675e-06 -7.51817e-07 -2.92109e-05)
(-8.79594e-08 -3.27561e-07 -9.03864e-06)
(7.95174e-07 -1.73592e-07 -9.0029e-06)
(-4.52393e-07 -5.54623e-07 -3.24841e-05)
(1.39687e-07 -1.0535e-07 -2.97794e-05)
(5.68777e-07 -2.33842e-07 -9.2842e-06)
(2.97131e-05 -3.24945e-05 -0.000116034)
(7.09003e-06 1.66977e-05 -2.88337e-05)
(4.07633e-06 -6.11127e-07 -2.18304e-05)
(4.2451e-05 1.04793e-06 -0.000108775)
(7.95024e-06 3.28291e-06 -1.71631e-05)
(2.34942e-05 -1.67652e-05 -0.000102982)
(9.65023e-06 -1.06739e-07 -1.60555e-05)
(5.47988e-06 2.57428e-06 -1.09763e-05)
(1.22443e-05 -3.20742e-06 -7.50959e-05)
(8.42495e-06 2.71185e-06 -1.54304e-05)
(-2.32519e-07 -4.11177e-09 -9.94984e-07)
(-5.24276e-06 7.69917e-07 -1.34952e-05)
(-3.45646e-07 2.48315e-08 -1.36781e-06)
(-4.90019e-06 7.77558e-07 -1.28109e-05)
(-5.25049e-07 5.74648e-08 -1.47093e-06)
(-4.0813e-07 6.7545e-08 -1.4133e-06)
(1.1729e-05 -4.97978e-06 -4.63868e-05)
(9.01851e-06 -3.0008e-06 -1.4134e-05)
(1.47292e-05 -5.4646e-06 -9.45623e-05)
(9.61489e-06 1.58781e-07 -2.10937e-05)
(6.46056e-06 -2.73887e-06 -2.35251e-05)
(1.5915e-05 -2.79546e-06 -6.67391e-05)
(7.03968e-06 -1.7392e-06 -1.55905e-05)
(6.13664e-06 -8.21954e-06 -5.03558e-05)
(2.90257e-06 -5.71592e-06 -5.65671e-06)
(4.46138e-06 -2.52313e-05 -3.57943e-05)
(2.5703e-06 6.89296e-07 -7.37774e-06)
(8.99648e-06 -4.57527e-06 -4.6096e-05)
(4.74888e-06 1.08811e-06 -9.56434e-06)
(-4.91669e-07 3.27982e-07 -1.58601e-06)
(1.1232e-05 -5.15992e-06 -6.37324e-05)
(2.70597e-06 3.30043e-07 -6.78194e-06)
(1.45945e-05 -2.38365e-05 -2.76718e-05)
(5.61347e-06 -4.1135e-06 -1.07309e-05)
(2.04619e-05 -6.17771e-06 -3.49216e-05)
(1.1181e-05 -5.07105e-06 -8.44099e-06)
(1.18227e-05 -9.25426e-06 -3.67197e-05)
(2.7344e-05 -2.26185e-05 -3.51513e-05)
(6.58934e-06 -8.63244e-06 -9.81971e-06)
(1.18278e-05 -3.08608e-05 -2.8041e-05)
(2.92337e-06 -7.04876e-06 -5.09962e-06)
(6.10967e-06 -2.76537e-05 -3.33684e-05)
(2.55009e-06 -7.62121e-06 -4.22905e-06)
(1.51579e-05 -3.19524e-05 -2.76141e-05)
(1.10727e-05 -7.42896e-06 -7.06232e-06)
(2.56625e-05 -2.90348e-05 -2.90853e-05)
(7.38461e-06 -1.93632e-05 -6.70917e-06)
(-4.85528e-05 -2.44063e-05 2.3802e-05)
(-5.63934e-05 -3.56243e-05 4.9098e-05)
(-8.16802e-05 -3.60926e-05 3.30461e-05)
(-7.95645e-05 -2.76826e-05 2.79934e-05)
(-7.2512e-05 -2.66708e-05 2.39865e-05)
(-5.3173e-05 -3.25015e-05 3.42961e-05)
(-5.82155e-05 -2.5614e-05 2.89721e-05)
(-2.60473e-05 -1.93347e-05 2.25875e-05)
(-4.08436e-05 -3.34656e-05 5.00344e-05)
(1.14145e-05 -9.25062e-06 3.10548e-05)
(-1.49718e-05 -1.53694e-05 2.61805e-05)
(7.64828e-07 -9.57895e-06 1.97304e-05)
(-2.19008e-05 -2.35895e-05 3.36899e-05)
(-3.83209e-05 -2.24062e-05 2.84986e-05)
(-9.52634e-05 -2.33819e-05 2.69831e-05)
(-0.0001162 -2.17752e-05 2.09743e-05)
(-0.000102022 -1.34091e-05 9.50301e-06)
(-3.28439e-05 -1.37949e-06 4.9616e-06)
(-9.6844e-05 -1.36184e-05 1.29914e-05)
(-0.000132132 -2.05093e-05 1.11259e-05)
(-0.000121075 -2.12056e-05 1.88004e-05)
(-8.01565e-05 -1.54107e-05 1.89357e-05)
(-3.04518e-05 -2.07783e-06 6.46224e-06)
(-8.96607e-05 -1.50152e-05 1.62997e-05)
(-0.000103019 -4.31402e-05 3.4818e-05)
(-0.000135168 -3.96049e-05 2.49241e-05)
(-0.000156156 -2.17429e-05 1.02527e-05)
(-0.000141803 -4.13349e-06 1.36173e-05)
(-0.000141272 -2.95533e-05 1.97754e-05)
(-0.000157817 -3.53071e-05 1.15882e-05)
(-0.000142907 -3.8434e-05 2.17564e-05)
(-0.000100346 -4.00618e-05 3.16184e-05)
(-0.000125659 -1.74438e-05 1.87714e-05)
(-0.000133374 -3.24192e-05 2.27435e-05)
(-8.99611e-05 -4.37144e-05 3.75805e-05)
(-4.28165e-05 -3.82434e-05 4.29932e-05)
(3.5309e-05 -6.54356e-06 3.59121e-05)
(1.31877e-06 -3.62893e-05 2.96079e-05)
(-2.17752e-05 -3.30462e-05 3.8612e-05)
(3.26073e-05 -9.56528e-06 4.17924e-05)
(-2.52664e-05 -3.44315e-05 4.39309e-05)
(-8.69653e-05 -4.14621e-05 3.40153e-05)
(-3.76051e-05 -4.38099e-05 2.96595e-05)
(-3.91732e-05 -3.76318e-05 3.81016e-05)
(-8.7899e-05 -2.40333e-05 2.81658e-05)
(-6.04433e-05 -2.38932e-05 3.02124e-05)
(-3.61828e-05 -1.68227e-05 1.8786e-05)
(-1.74299e-05 -4.81408e-06 8.22e-06)
(-4.7754e-05 -1.8079e-05 2.06188e-05)
(-2.21371e-05 -2.04473e-05 2.71717e-05)
(-5.20119e-05 -2.38571e-05 2.99266e-05)
(-6.98189e-05 -1.70996e-05 2.06346e-05)
(-2.13095e-05 -4.03069e-06 8.40144e-06)
(-5.85487e-05 -1.69189e-05 2.1274e-05)
(5.62528e-07 -2.14072e-07 -1.01064e-05)
(4.29414e-08 -1.70184e-07 -1.41218e-05)
(-3.50959e-07 -2.33702e-07 -7.7481e-06)
(-1.66701e-06 -2.47158e-07 -7.09981e-06)
(-1.47431e-06 -3.03677e-07 -6.61052e-06)
(-1.40364e-06 -3.12704e-07 -5.60724e-06)
(-2.52049e-06 -1.27548e-07 -7.36842e-06)
(-1.67962e-06 -3.05548e-07 -6.20578e-06)
(-1.84532e-06 -2.14186e-07 -6.86972e-06)
(-2.56858e-06 -1.26085e-07 -7.53179e-06)
(-1.73511e-06 -2.9391e-07 -6.37979e-06)
(-1.36616e-06 -3.74929e-09 -2.04988e-06)
(-1.20648e-06 -1.31612e-08 -1.82631e-06)
(-2.26845e-06 -9.52856e-08 -6.23201e-06)
(-1.28173e-06 -8.67381e-09 -1.9306e-06)
(-2.30941e-06 -9.13855e-08 -6.35306e-06)
(-1.3523e-06 -4.93948e-09 -2.03121e-06)
(-1.30847e-06 -7.9865e-09 -1.96695e-06)
(-5.39936e-06 -6.34082e-06 -6.72566e-06)
(-1.17039e-06 -1.88469e-06 -2.90361e-06)
(-2.13026e-06 -3.49394e-06 -3.93911e-06)
(-2.30261e-06 -1.77458e-06 -6.69439e-06)
(-4.98743e-06 -5.69593e-06 -9.43058e-06)
(-2.73275e-06 -4.31467e-06 -3.10921e-06)
(-2.37945e-06 -1.97515e-06 -6.65694e-06)
(-6.41013e-06 -5.13052e-06 -1.19103e-05)
(-6.25263e-07 -1.06322e-06 -2.23163e-06)
(-1.78113e-06 -2.82509e-06 -3.81118e-06)
(-2.3491e-06 -1.63972e-06 -7.20127e-06)
(-5.01767e-06 -5.35585e-06 -1.10538e-05)
(-1.50163e-06 -2.44982e-06 -3.90696e-06)
(-3.13697e-06 -1.90894e-06 -7.62323e-06)
(3.74361e-05 -2.04323e-05 -0.000164894)
(1.7012e-05 7.83145e-06 -5.39238e-05)
(5.00017e-05 -2.84654e-05 -0.000112301)
(2.04024e-05 -1.10494e-05 -3.51686e-05)
(3.7991e-05 -1.87092e-05 -7.49283e-05)
(3.97589e-05 -5.44564e-06 -0.000218028)
(1.92579e-05 -1.9909e-06 -4.45625e-05)
(7.66536e-05 1.16823e-05 7.33791e-06)
(0.000102668 2.55216e-05 7.16962e-06)
(9.67123e-05 4.58694e-06 -3.00292e-06)
(7.14268e-05 1.70373e-06 6.55929e-06)
(7.03933e-05 1.53382e-07 2.22537e-06)
(9.78233e-05 1.75085e-05 3.41482e-06)
(8.3251e-05 2.23008e-05 9.79696e-06)
(6.59202e-05 -1.55266e-05 -5.14229e-06)
(2.66118e-05 -1.13601e-05 -7.33201e-06)
(6.35979e-05 -7.9732e-05 -1.23441e-05)
(2.25105e-05 -1.09207e-05 -4.8739e-06)
(8.12838e-05 -1.55726e-05 -1.60715e-05)
(5.42498e-05 -1.86433e-05 -4.78372e-06)
(2.08566e-05 -8.06574e-06 -4.08003e-06)
(-3.59236e-06 6.08757e-08 -6.45323e-07)
(-5.95266e-06 4.18698e-07 -1.20022e-05)
(-3.94786e-06 7.67976e-08 -3.20265e-06)
(-4.65317e-06 3.04894e-07 -1.05525e-05)
(-3.179e-06 -1.19872e-08 -4.9614e-06)
(-3.28514e-06 3.89331e-08 -4.26776e-06)
(-0.000145965 -3.36032e-05 -2.22622e-06)
(-0.000158442 -3.8746e-05 -4.16321e-06)
(-0.000151686 -4.03974e-05 -4.35155e-06)
(-0.000148412 -3.36908e-05 -4.37145e-06)
(-0.00015211 -3.36803e-05 -3.06605e-06)
(-0.000155441 -4.03752e-05 -3.15337e-06)
(-0.000142299 -3.37273e-05 -3.1946e-06)
(-0.000154709 -3.23891e-05 7.01179e-06)
(-0.00016701 -3.78259e-05 7.93338e-06)
(-0.000159255 -3.3079e-05 1.07505e-05)
(-0.000163271 -3.86058e-05 1.045e-05)
(-0.000153572 -3.23145e-05 9.55972e-06)
(-0.00016064 -3.33337e-05 7.58153e-06)
(-0.000164616 -3.88878e-05 7.48453e-06)
(2.95306e-05 -1.29191e-05 -9.57357e-06)
(8.44131e-05 -2.23924e-05 -2.2416e-05)
(-9.37103e-06 1.34379e-06 -9.68036e-06)
(-1.17293e-05 1.54698e-06 -6.69066e-06)
(-3.95858e-06 4.42633e-07 -3.29176e-06)
(-9.81219e-06 2.17653e-07 -1.00413e-05)
(-3.89632e-06 7.4531e-07 -3.02146e-06)
(-4.02745e-06 1.86725e-07 -1.76554e-06)
(-8.19867e-06 6.22285e-07 -1.54494e-05)
(-3.39686e-06 3.56517e-07 1.59634e-06)
(1.28115e-06 3.00096e-09 1.06159e-05)
(-9.65694e-06 -1.34917e-07 -1.76602e-05)
(-1.946e-06 3.62701e-07 3.62127e-06)
(-0.000112942 -3.44079e-05 2.99024e-05)
(-0.00012172 -3.85468e-05 3.71785e-05)
(-0.000108134 -3.9668e-05 3.72909e-05)
(-0.000108237 -3.5024e-05 3.5892e-05)
(-0.00010274 -3.45047e-05 3.20587e-05)
(-0.000118535 -3.45056e-05 3.31993e-05)
(-0.000119066 -3.97785e-05 3.43857e-05)
(-0.000147806 -3.23859e-05 1.5331e-05)
(-0.000159121 -3.70436e-05 1.87085e-05)
(-0.000157164 -3.31592e-05 1.37114e-05)
(-0.000161033 -3.86834e-05 1.37802e-05)
(-0.00015138 -3.23307e-05 1.24656e-05)
(-0.000153133 -3.28202e-05 1.72178e-05)
(-0.000156988 -3.83493e-05 1.71065e-05)
(-2.86025e-06 -8.72115e-08 -8.92041e-06)
(-2.70892e-06 -5.15989e-08 -7.93706e-06)
(-2.88857e-06 -5.61285e-08 -8.99659e-06)
(6.03253e-05 -2.33949e-05 3.98405e-06)
(6.11302e-05 -2.01686e-05 -1.66166e-06)
(0.000131449 2.52705e-05 3.19773e-07)
(0.000121421 1.60916e-05 -8.74515e-06)
(8.20088e-05 2.86831e-05 1.44124e-05)
(0.000111462 3.84271e-05 1.1583e-05)
(0.000104021 1.2772e-05 1.8102e-05)
(7.53611e-05 9.09015e-06 1.11106e-05)
(8.39123e-05 2.73294e-05 1.30566e-05)
(0.00010628 3.42984e-05 1.64416e-05)
(7.09247e-05 6.59975e-06 1.55638e-05)
(3.12129e-05 1.58123e-06 2.94976e-05)
(4.32595e-05 -1.07503e-05 4.40536e-05)
(3.10536e-05 -5.27687e-06 4.15468e-05)
(9.35913e-06 -1.66533e-05 3.79013e-05)
(4.7915e-05 2.81826e-06 3.89315e-05)
(2.28026e-05 -1.20468e-05 3.55348e-05)
(1.73784e-05 -5.21807e-06 3.16332e-05)
(0.000143896 4.0091e-05 1.02771e-05)