/*--------------------------------*- C++ -*----------------------------------*\
| =========                 |                                                 |
| \\      /  F ield         | OpenFOAM: The Open Source CFD Toolbox           |
|  \\    /   O peration     | Version:  2012                                  |
|   \\  /    A nd           | Website:  www.openfoam.com                      |
|    \\/     M anipulation  |                                                 |
\*---------------------------------------------------------------------------*/
FoamFile
{
    version     2.0;
    format      ascii;
    class       volVectorField;
    location    "0.108/solid";
    object      D_0;
}
// * * * * * * * * * * * * * * * * * * * * * * * * * * * * * * * * * * * * * //

dimensions      [0 1 0 0 0 0 0];


internalField   nonuniform List<vector> 
3124
(
(-7.7955e-09 6.38569e-09 5.80004e-09)
(2.89888e-10 4.0642e-10 7.05345e-10)
(5.96613e-10 -4.12048e-10 3.18326e-09)
(-3.97292e-09 7.27173e-09 -6.91386e-09)
(1.14164e-09 -4.10356e-10 6.35345e-09)
(2.73999e-10 3.4888e-10 6.70399e-10)
(5.75312e-10 -3.72879e-10 3.36182e-09)
(-7.5051e-09 9.09262e-09 -8.14819e-09)
(9.54845e-10 -6.00063e-10 5.60336e-09)
(-2.14425e-10 6.94631e-10 1.77639e-09)
(1.79958e-09 5.99313e-09 9.36033e-09)
(-3.02411e-08 1.97623e-08 -4.18538e-09)
(-5.63438e-10 1.05912e-09 4.18377e-09)
(3.08453e-10 -2.41589e-10 1.2584e-09)
(-1.85298e-10 6.17392e-10 1.72071e-09)
(-3.33198e-10 1.03589e-09 3.81526e-09)
(1.07845e-09 3.31124e-09 1.02376e-08)
(-5.20083e-10 1.57038e-09 4.19692e-09)
(-3.01327e-10 1.54349e-09 3.81622e-09)
(-2.51273e-08 1.70411e-08 -8.18979e-09)
(5.32321e-10 -3.9489e-10 2.22963e-09)
(4.90923e-10 -3.44692e-10 1.95826e-09)
(3.23003e-10 -2.25601e-10 1.18578e-09)
(-2.44541e-08 4.23941e-08 1.16573e-08)
(-3.94894e-09 4.34e-09 4.46483e-09)
(-7.07906e-09 6.04928e-09 5.64251e-09)
(-2.13918e-08 1.63888e-08 1.12881e-08)
(-5.9904e-08 5.52364e-08 2.36634e-08)
(-3.31426e-09 2.89732e-09 3.72471e-09)
(-9.72347e-09 1.20077e-08 8.38725e-09)
(8.79101e-10 -1.32606e-10 2.63588e-09)
(3.97747e-10 -3.87247e-10 2.0749e-09)
(6.6095e-10 -1.16272e-10 1.91045e-09)
(4.24436e-09 1.37437e-08 -1.09027e-08)
(-1.60162e-09 6.45712e-09 -6.52319e-09)
(-1.35296e-08 2.39261e-08 -1.46028e-08)
(-1.56874e-09 5.81918e-09 -5.70535e-09)
(-3.1624e-09 2.01491e-08 -1.53925e-08)
(-3.7744e-09 1.67597e-08 -1.10983e-08)
(2.24693e-10 5.23372e-09 -5.45328e-09)
(-7.4577e-09 6.46411e-09 6.391e-09)
(2.62835e-09 2.50671e-10 8.75497e-09)
(1.37573e-10 3.60958e-10 1.64343e-09)
(2.83983e-09 -3.29588e-10 2.20654e-11)
(6.17847e-10 5.04046e-10 2.81134e-09)
(1.27473e-09 4.57237e-10 4.55471e-09)
(9.14277e-10 -1.30236e-10 2.74956e-09)
(1.09462e-09 1.99554e-10 3.48823e-09)
(-1.95697e-08 3.03277e-08 -1.80483e-08)
(-1.23686e-08 1.13414e-08 -9.16017e-09)
(-4.28895e-09 7.9263e-09 -7.48124e-09)
(-1.81256e-08 2.65107e-08 -1.56818e-08)
(-4.84216e-09 2.10854e-08 -1.59812e-08)
(-3.72736e-08 3.80332e-08 -1.82967e-08)
(-7.91704e-09 9.63478e-09 -8.03498e-09)
(7.12771e-10 -6.31171e-10 3.78184e-09)
(3.45426e-10 -2.00789e-10 1.17307e-09)
(2.29778e-10 -1.34397e-10 7.2464e-10)
(2.99622e-10 -5.24254e-11 7.94972e-10)
(-1.07283e-09 1.21564e-09 1.46525e-09)
(-6.56e-10 5.4736e-10 3.90621e-09)
(-1.86333e-09 2.32139e-09 3.60598e-09)
(-2.27173e-09 5.94521e-09 4.26712e-09)
(-5.90249e-09 4.15327e-09 6.66823e-09)
(-6.93049e-10 1.72416e-09 6.69991e-09)
(-5.36003e-08 7.62579e-08 3.69581e-09)
(-1.92142e-09 3.0102e-09 4.11824e-09)
(-2.88559e-08 4.43921e-08 9.6962e-09)
(-3.06971e-08 2.03032e-08 3.77748e-09)
(-7.62594e-08 6.35787e-08 -1.13518e-08)
(-1.91878e-08 1.49744e-08 -2.57304e-09)
(-7.39495e-08 6.97259e-08 9.03439e-09)
(-3.9357e-08 4.31607e-08 -7.75746e-09)
(-1.77555e-08 1.51235e-08 3.21033e-09)
(-7.70076e-08 7.55966e-08 -9.01173e-09)
(-7.26224e-08 8.0824e-08 7.63595e-09)
(-6.49909e-10 5.36898e-10 4.01702e-09)
(-8.33822e-10 1.35489e-09 5.85824e-09)
(-9.91062e-10 2.27148e-09 4.49938e-09)
(-6.03704e-09 6.89694e-09 -1.45116e-09)
(-4.60461e-09 6.77928e-09 2.73679e-09)
(7.74064e-10 -9.51522e-11 2.20101e-09)
(5.88483e-10 -8.31364e-11 1.61525e-09)
(4.31832e-10 -3.67976e-10 1.95427e-09)
(4.60814e-10 -8.23064e-11 1.27304e-09)
(6.32558e-10 -1.12421e-10 1.81712e-09)
(4.12608e-10 -6.01224e-11 1.09061e-09)
(5.63774e-10 -8.05844e-11 1.53946e-09)
(4.48445e-10 3.07678e-09 -3.54502e-09)
(1.33854e-09 2.12553e-09 -2.66115e-09)
(-1.41103e-08 2.8765e-08 -1.36045e-08)
(-3.9158e-09 2.04618e-08 -1.05813e-08)
(4.95847e-09 1.31452e-08 -1.02983e-08)
(-1.89307e-11 4.66717e-09 -4.62993e-09)
(-1.72963e-09 1.51797e-08 -1.00876e-08)
(1.37326e-09 4.23584e-09 -4.43598e-09)
(-1.71683e-09 1.83689e-08 -9.6281e-09)
(1.66976e-09 1.84742e-09 -2.3565e-09)
(-3.13166e-09 4.07489e-09 7.43821e-09)
(4.52459e-09 1.53329e-09 8.10088e-09)
(3.61125e-11 3.82649e-10 1.67901e-09)
(-4.79234e-10 4.20626e-10 3.6323e-09)
(2.31649e-10 4.55634e-10 2.96148e-09)
(2.96815e-09 5.97152e-10 -2.23083e-11)
(8.4959e-10 7.95333e-10 2.80213e-09)
(-4.60344e-10 4.50749e-10 3.69893e-09)
(1.85624e-09 1.39012e-09 1.24675e-09)
(3.80838e-10 6.00529e-10 2.97544e-09)
(5.29258e-10 1.91977e-10 4.88166e-09)
(-6.30874e-10 1.58605e-09 6.86639e-09)
(7.93819e-10 1.16066e-09 3.19082e-09)
(8.03052e-10 -9.40814e-11 2.29153e-09)
(9.62979e-10 1.57711e-10 2.86842e-09)
(-7.84366e-10 1.49101e-09 5.95864e-09)
(6.94499e-10 1.0662e-09 2.59203e-09)
(2.17507e-09 1.05855e-09 1.24076e-09)
(-2.22226e-08 3.16114e-08 -1.78361e-08)
(-1.84847e-08 1.40386e-08 -9.47616e-09)
(-6.99336e-08 5.86211e-08 -1.47825e-08)
(-1.66086e-08 1.34272e-08 -6.05992e-09)
(-3.79992e-08 4.20643e-08 -9.8964e-09)
(-4.50841e-08 4.20858e-08 -1.84386e-08)
(-1.2279e-08 1.15244e-08 -7.75084e-09)
(-2.7684e-10 3.5134e-09 -3.84285e-09)
(-2.16859e-09 4.83356e-09 -4.24564e-09)
(-1.8988e-08 3.21762e-08 -1.45131e-08)
(-3.86876e-08 4.54127e-08 -1.61726e-08)
(-7.11338e-08 6.92562e-08 -1.19019e-08)
(-4.67418e-08 5.06433e-08 -1.60139e-08)
(-5.38065e-09 6.59613e-09 -2.55349e-09)
(-3.29602e-09 5.37643e-09 -4.14888e-09)
(6.64606e-10 -5.7509e-10 3.31013e-09)
(3.78344e-10 -2.29292e-10 1.33243e-09)
(2.24415e-10 -1.4349e-10 7.6844e-10)
(4.39749e-10 -7.83628e-11 1.20889e-09)
(3.14594e-10 -5.51632e-11 8.38107e-10)
(2.69375e-10 -3.89658e-11 6.8896e-10)
(3.93954e-10 -5.73496e-11 1.0371e-09)
(2.82729e-10 -4.09455e-11 7.25488e-10)
(-3.58836e-09 1.52715e-08 -9.44586e-09)
(6.30359e-10 6.42382e-10 7.20801e-10)
(9.25662e-10 1.38078e-09 1.50335e-10)
(6.01162e-10 -2.74378e-10 2.62227e-09)
(4.5239e-10 -4.35213e-10 2.655e-09)
(5.31427e-10 -2.72034e-10 2.23762e-09)
(1.4703e-09 -7.60566e-11 7.17145e-09)
(4.65499e-09 -5.16208e-10 8.01134e-09)
(8.85752e-11 2.03395e-10 4.40635e-10)
(9.40329e-10 1.44515e-09 4.29079e-10)
(2.70249e-10 3.16364e-10 1.15821e-09)
(8.50812e-10 -1.71689e-10 3.96771e-09)
(6.2815e-10 -2.65272e-10 2.75837e-09)
(7.30907e-10 -1.95781e-10 3.18058e-09)
(8.42329e-10 -6.67991e-10 4.92345e-09)
(-1.37027e-09 1.89659e-09 1.15159e-08)
(-2.43082e-10 8.3311e-10 1.68074e-09)
(-4.3235e-10 1.01846e-09 3.28702e-09)
(-2.48435e-10 -4.83935e-10 5.30332e-09)
(-1.05078e-09 2.7743e-10 1.28799e-08)
(-4.76343e-10 1.26803e-09 3.13593e-09)
(-5.30298e-10 -3.45417e-11 4.79943e-09)
(-5.46438e-09 1.10338e-08 2.55475e-08)
(1.90267e-09 5.44189e-09 8.43412e-09)
(9.55706e-09 -1.85434e-09 3.67002e-08)
(8.30899e-10 3.95541e-09 8.7331e-09)
(-5.50986e-09 3.40496e-08 1.91541e-08)
(6.07708e-09 8.45709e-09 2.78292e-08)
(1.5373e-09 4.58121e-09 7.2656e-09)
(-5.5926e-10 1.878e-09 1.67967e-08)
(-5.67434e-11 3.11213e-09 1.40955e-08)
(-5.98311e-10 7.47485e-10 4.15399e-09)
(-7.22782e-10 1.09584e-09 4.6282e-09)
(-2.37441e-10 1.65716e-09 1.42325e-08)
(-2.97625e-10 3.28646e-09 1.6668e-08)
(-7.613e-10 8.28225e-10 4.59215e-09)
(3.76188e-10 -2.91782e-10 1.52092e-09)
(3.31036e-10 -1.5637e-10 1.12871e-09)
(3.75239e-10 -1.85798e-10 1.3424e-09)
(9.44496e-11 6.39161e-09 9.80973e-09)
(7.93069e-09 -2.02193e-09 4.25832e-08)
(1.32579e-08 3.95846e-08 2.19958e-08)
(-6.98563e-11 1.54645e-10 1.14501e-08)
(-1.38534e-10 5.72469e-10 1.63304e-09)
(-3.78623e-10 8.67263e-10 3.15752e-09)
(-1.91556e-10 -4.99401e-10 5.22278e-09)
(-7.02047e-10 1.98316e-10 1.25716e-08)
(-2.7461e-10 7.8989e-10 2.97918e-09)
(-5.29505e-11 -4.78222e-10 4.82138e-09)
(8.9578e-10 1.8214e-09 1.18206e-08)
(1.36457e-10 3.08865e-09 1.34855e-08)
(-3.80141e-10 7.25542e-10 3.79301e-09)
(-1.85163e-11 1.04941e-09 3.50766e-09)
(-6.40689e-11 1.6478e-09 1.36357e-08)
(1.34498e-09 3.17197e-09 1.15475e-08)
(-9.13988e-11 7.60241e-10 3.49184e-09)
(-4.12563e-10 6.98571e-09 1.31493e-08)
(-1.0221e-11 3.94057e-09 1.39376e-08)
(-6.68497e-10 1.52182e-09 4.66649e-09)
(-4.18383e-10 2.54572e-09 4.06604e-09)
(-2.39391e-10 4.12573e-09 1.64631e-08)
(1.71431e-10 8.58696e-09 1.23244e-08)
(-4.7034e-10 2.63498e-09 4.63251e-09)
(1.70429e-09 7.65694e-09 9.87922e-09)
(1.85486e-10 3.88914e-09 1.33231e-08)
(4.65607e-11 1.52722e-09 3.50064e-09)
(-2.29481e-10 2.44877e-09 3.66999e-09)
(1.47532e-09 3.87027e-09 1.13466e-08)
(3.47584e-10 8.36483e-09 1.16846e-08)
(1.55444e-10 2.35892e-09 3.35498e-09)
(5.75108e-10 -4.51209e-10 2.54096e-09)
(4.51281e-10 -3.00652e-10 1.72126e-09)
(2.64826e-10 -1.85976e-10 9.82595e-10)
(3.17302e-10 -1.47566e-10 1.06538e-09)
(2.77962e-10 -1.23728e-10 8.95808e-10)
(-2.3658e-08 2.22187e-08 1.50328e-08)
(-3.42312e-08 4.51525e-08 1.32849e-08)
(-9.86345e-09 2.79364e-08 1.05034e-08)
(-2.2223e-08 3.00418e-08 1.07262e-08)
(-1.5456e-08 1.97954e-08 1.34964e-08)
(-2.17034e-08 3.30825e-08 1.6049e-08)
(-3.25912e-08 3.51636e-08 1.12501e-08)
(-1.57077e-08 1.3181e-08 1.26663e-08)
(-1.21066e-08 9.52421e-09 1.2517e-08)
(-3.39905e-09 2.95649e-09 3.72115e-09)
(-4.76333e-09 4.07755e-09 4.13329e-09)
(-1.08986e-08 1.02058e-08 1.08069e-08)
(-1.38793e-08 1.46212e-08 1.18721e-08)
(-5.04137e-09 3.80511e-09 4.32233e-09)
(4.89081e-10 4.79714e-10 4.40559e-10)
(6.00415e-10 -2.33163e-10 2.47256e-09)
(7.79889e-10 -1.29274e-10 2.30749e-09)
(5.34574e-10 -2.29342e-10 2.12414e-09)
(4.93057e-10 -4.29042e-10 2.50507e-09)
(4.56822e-10 -2.3934e-10 1.79006e-09)
(5.11862e-10 -2.66038e-10 2.11839e-09)
(7.48519e-10 -1.26481e-10 2.20298e-09)
(4.60794e-10 -2.02552e-10 1.71411e-09)
(5.15349e-10 -2.2419e-10 2.01547e-09)
(-1.59075e-09 1.3401e-08 -1.12611e-08)
(1.81938e-09 1.62729e-08 -1.28256e-08)
(6.57818e-10 1.52843e-08 -1.14827e-08)
(2.27261e-09 1.05787e-08 -9.84052e-09)
(8.03429e-10 1.21258e-08 -1.09747e-08)
(-1.34328e-09 1.71784e-08 -1.27186e-08)
(2.7611e-10 1.16926e-08 -1.00955e-08)
(-3.53389e-09 1.44609e-08 -1.21912e-08)
(6.77356e-10 1.70288e-08 -1.34747e-08)
(-3.28648e-09 1.50004e-08 -1.30497e-08)
(-6.89246e-09 2.1235e-08 -1.51145e-08)
(-6.36773e-09 1.65694e-08 -1.33545e-08)
(-9.8801e-10 1.31151e-08 -1.19499e-08)
(-3.83218e-09 1.88924e-08 -1.38873e-08)
(1.8979e-09 6.99261e-10 7.88697e-09)
(2.70114e-09 -5.30772e-10 6.69879e-09)
(2.20753e-10 4.33007e-10 1.75692e-09)
(3.45593e-10 6.9301e-10 2.54797e-09)
(6.96808e-10 4.13259e-11 5.51117e-09)
(1.47246e-09 1.19842e-10 9.43991e-09)
(5.71304e-10 7.93826e-10 2.67153e-09)
(2.19602e-09 -2.36762e-09 6.11477e-09)
(4.93193e-09 -3.31159e-10 8.00887e-09)
(8.53004e-09 5.32441e-10 4.15648e-09)
(2.00058e-09 5.35587e-10 2.33313e-09)
(5.2551e-09 1.90493e-09 7.35149e-09)
(3.3238e-10 3.25467e-10 1.20083e-09)
(3.77961e-09 -4.81642e-11 8.47144e-09)
(2.00414e-09 1.17396e-09 8.07876e-09)
(4.27298e-10 4.53201e-10 2.77064e-09)
(1.14221e-09 5.51383e-10 2.62971e-09)
(1.59673e-09 4.50312e-10 9.5999e-09)
(4.32156e-09 1.79784e-09 7.98719e-09)
(9.1765e-10 4.67885e-10 2.66253e-09)
(8.89573e-10 -3.43822e-11 4.15499e-09)
(7.42443e-10 2.60416e-10 3.56723e-09)
(7.66702e-10 -1.16098e-10 3.31938e-09)
(6.25172e-10 -2.26606e-10 2.59455e-09)
(1.02765e-09 -1.0258e-10 3.09345e-09)
(7.11084e-10 -1.76779e-10 2.97052e-09)
(7.25741e-10 1.72745e-10 3.33028e-09)
(1.05766e-09 -5.78647e-11 3.19919e-09)
(7.38287e-10 -1.04897e-10 3.09222e-09)
(-1.71134e-08 2.19613e-08 -1.56429e-08)
(-1.25808e-08 2.59715e-08 -1.77794e-08)
(-2.53191e-08 3.20587e-08 -1.7971e-08)
(-1.68796e-08 2.23602e-08 -1.53064e-08)
(-2.22491e-08 2.49486e-08 -1.59454e-08)
(-1.26913e-08 1.98331e-08 -1.52196e-08)
(-1.97903e-08 2.87226e-08 -1.77072e-08)
(-1.3229e-08 2.04148e-08 -1.51284e-08)
(-1.03332e-08 2.48448e-08 -1.74451e-08)
(-5.90983e-09 1.61992e-08 -1.3922e-08)
(-1.05471e-08 2.33447e-08 -1.61588e-08)
(-9.23237e-09 1.78637e-08 -1.42e-08)
(-9.18534e-09 1.84304e-08 -1.47255e-08)
(-1.48677e-08 2.61878e-08 -1.71168e-08)
(7.68574e-10 -6.68423e-10 4.31806e-09)
(3.14922e-10 -1.76244e-10 1.03283e-09)
(1.88532e-10 -1.1149e-10 6.01383e-10)
(2.21082e-10 -9.2337e-11 6.71184e-10)
(2.21158e-10 -8.13608e-11 6.60795e-10)
(-1.63346e-08 2.68689e-08 9.57607e-09)
(-8.8848e-09 1.42631e-08 1.25215e-08)
(-4.45937e-09 1.84931e-09 1.05534e-08)
(-5.2842e-10 1.00667e-09 1.4533e-09)
(-2.03407e-09 2.51743e-09 2.97453e-09)
(-9.18724e-10 2.98453e-09 4.21881e-09)
(-6.44795e-09 6.13207e-09 1.10144e-08)
(-1.16023e-09 1.63347e-09 2.8191e-09)
(6.51219e-10 1.03823e-09 2.6252e-09)
(-1.76542e-09 2.07938e-09 1.25562e-08)
(-5.89714e-10 6.73279e-10 3.73832e-09)
(-7.61815e-10 8.20933e-10 1.37278e-08)
(-7.79922e-10 8.8972e-10 4.13169e-09)
(-1.84277e-09 1.53079e-09 1.54009e-08)
(-1.04941e-09 5.24543e-10 1.31157e-08)
(-6.75798e-10 1.09558e-09 3.74268e-09)
(-4.33279e-09 3.45551e-09 1.20838e-08)
(-7.86614e-09 8.63665e-09 1.07311e-08)
(-2.38e-09 2.32605e-09 3.38288e-09)
(-9.71252e-10 1.61988e-09 4.03172e-09)
(-7.64226e-09 9.70182e-09 1.1025e-08)
(-2.58949e-09 2.15552e-09 1.56578e-08)
(-1.159e-09 1.75822e-09 3.40462e-09)
(-7.02125e-09 1.83974e-08 7.12183e-09)
(-2.1854e-09 5.27458e-09 5.334e-09)
(-9.9832e-09 1.39959e-08 1.03572e-08)
(-3.70781e-08 5.90981e-08 9.97937e-09)
(-2.06213e-08 3.22896e-08 1.59228e-08)
(3.21458e-09 1.00459e-08 2.25513e-08)
(-2.94925e-10 9.1729e-10 5.75438e-09)
(-2.32344e-08 6.32619e-09 3.28868e-08)
(-5.36663e-09 3.85229e-09 4.90265e-09)
(-1.62096e-08 1.89204e-08 1.51766e-08)
(4.92456e-09 -2.20678e-08 2.92757e-08)
(-2.49451e-10 4.13863e-09 5.17531e-09)
(-2.48176e-09 7.33001e-09 2.62905e-08)
(-3.01517e-10 2.30692e-09 7.78957e-09)
(6.72545e-10 4.14887e-09 2.31195e-08)
(-8.11181e-10 2.13058e-09 6.43084e-09)
(-6.8358e-10 3.74802e-09 2.26446e-08)
(8.25378e-10 5.18857e-09 2.37409e-08)
(-3.97141e-10 3.34216e-09 7.11942e-09)
(-4.3839e-08 6.39898e-08 1.00442e-08)
(-4.18396e-08 1.84847e-08 1.78784e-08)
(-2.33279e-08 3.29676e-08 1.76123e-08)
(-2.16797e-09 1.00754e-08 2.18077e-08)
(-8.45328e-09 1.00392e-08 1.00985e-08)
(-3.47615e-09 3.27272e-09 4.06652e-09)
(-8.1943e-10 2.93101e-09 5.45932e-09)
(-1.60215e-08 1.30908e-08 1.63483e-08)
(-1.56656e-09 3.88679e-09 2.21242e-08)
(-9.15516e-10 4.07304e-09 5.361e-09)
(-4.5178e-08 3.97916e-08 1.66246e-09)
(-4.42473e-08 5.06915e-08 7.52818e-09)
(-3.81909e-08 4.61753e-08 2.60468e-09)
(-2.89159e-08 3.23692e-08 7.5421e-09)
(-3.96229e-08 3.79316e-08 7.91301e-09)
(-5.05518e-08 5.22261e-08 1.77045e-09)
(-3.39536e-08 3.37217e-08 2.23086e-09)
(-4.65489e-08 3.92878e-08 -2.85733e-09)
(-3.94307e-08 4.59232e-08 -1.29468e-10)
(-5.16679e-08 4.85563e-08 -8.22677e-09)
(-3.54164e-08 3.19102e-08 -6.39792e-09)
(-5.27428e-08 5.11651e-08 -3.51461e-09)
(-3.58413e-08 3.33795e-08 -1.71142e-09)
(-4.52581e-08 3.71192e-08 -7.76294e-09)
(-4.3189e-08 6.20034e-08 7.56936e-09)
(-5.37562e-08 6.32388e-08 5.14779e-10)
(-8.01377e-08 8.10283e-08 -4.92204e-09)
(-6.02837e-08 6.16356e-08 -9.37365e-09)
(-6.24202e-08 6.75658e-08 -2.70486e-09)
(-5.08443e-08 6.67836e-08 7.84139e-09)
(-7.85324e-08 8.49586e-08 -5.75274e-10)
(-6.13373e-08 6.8486e-08 -2.24443e-10)
(-5.37224e-08 5.74308e-08 -8.73811e-09)
(-5.50365e-08 6.25577e-08 -1.89238e-09)
(-7.02524e-10 1.64483e-09 1.67482e-08)
(-6.2988e-10 5.94962e-10 4.10142e-09)
(-6.42606e-10 9.1205e-10 1.38508e-08)
(-8.03295e-10 7.70224e-10 4.37489e-09)
(-1.48013e-09 1.44822e-09 1.57961e-08)
(-3.16391e-10 1.38506e-09 1.42281e-08)
(-7.87967e-10 7.45014e-10 4.51818e-09)
(-5.86399e-10 2.04453e-09 1.76736e-08)
(-8.11634e-10 1.18725e-09 5.16531e-09)
(3.3076e-10 3.78544e-09 2.16596e-08)
(-9.13397e-10 1.39431e-09 5.75137e-09)
(-6.89536e-10 3.11939e-09 2.14195e-08)
(-2.44581e-10 3.37649e-09 1.75852e-08)
(-8.7039e-10 1.01842e-09 5.12364e-09)
(-7.83286e-10 1.83166e-09 1.76195e-08)
(-5.64338e-09 7.14833e-09 1.41162e-08)
(-8.77237e-10 1.33389e-09 4.64833e-09)
(-8.92695e-10 1.81698e-09 5.3776e-09)
(-2.0112e-09 1.92739e-09 1.62928e-08)
(-1.21893e-09 3.13034e-09 2.11642e-08)
(-8.95048e-10 1.09423e-09 4.98851e-09)
(-2.03374e-08 2.7226e-08 8.08111e-09)
(-2.69803e-08 2.87198e-08 2.10121e-09)
(-1.90402e-08 1.93296e-08 -3.64162e-09)
(-5.92332e-09 7.01503e-09 -2.50168e-10)
(-1.88056e-08 1.98624e-08 -6.04975e-10)
(-2.78877e-08 2.72065e-08 -5.96384e-09)
(-2.78716e-08 2.86109e-08 -7.18311e-12)
(-1.50131e-08 1.92076e-08 6.25294e-09)
(-5.51318e-09 6.92066e-09 1.2951e-09)
(-1.7305e-08 1.99232e-08 2.58362e-09)
(3.78626e-10 -6.1485e-12 6.28889e-10)
(6.91142e-10 -9.21331e-11 1.93828e-09)
(3.42215e-10 -5.7146e-12 5.65952e-10)
(6.64416e-10 -9.00572e-11 1.8537e-09)
(3.23151e-10 -5.12527e-12 4.86855e-10)
(3.37479e-10 9.65562e-12 5.46547e-10)
(3.53244e-10 -3.1154e-10 1.61488e-09)
(4.39895e-10 -2.29037e-10 1.69071e-09)
(3.90549e-10 -1.96375e-10 1.42219e-09)
(3.32446e-10 -1.34921e-10 1.09684e-09)
(5.29346e-10 -9.50522e-11 1.4852e-09)
(3.77192e-10 -1.5908e-10 1.29783e-09)
(4.43261e-10 -1.94276e-10 1.62234e-09)
(5.54108e-10 -9.95881e-11 1.56314e-09)
(3.92918e-10 -1.67768e-10 1.37243e-09)
(2.30429e-10 -4.44469e-12 3.42752e-10)
(4.73058e-10 -6.89297e-11 1.26673e-09)
(2.62779e-10 -4.95296e-12 3.92514e-10)
(3.10713e-10 -5.58742e-12 4.67157e-10)
(4.94835e-10 -7.20165e-11 1.33108e-09)
(2.74185e-10 -5.13565e-12 4.10238e-10)
(4.03821e-09 8.80062e-09 -8.75039e-09)
(2.33778e-09 1.05636e-08 -1.02459e-08)
(6.47023e-10 9.1799e-09 -9.13525e-09)
(7.03599e-10 2.74742e-09 -3.26838e-09)
(1.62026e-09 8.20433e-09 -8.41475e-09)
(-1.31818e-09 1.31641e-08 -1.22046e-08)
(1.4252e-09 1.10111e-08 -1.07473e-08)
(3.5651e-09 6.52647e-09 -6.88969e-09)
(1.21165e-09 2.39288e-09 -2.94152e-09)
(3.04164e-09 7.34424e-09 -7.64e-09)
(1.28777e-09 1.7512e-08 -1.11248e-08)
(-1.88419e-09 2.07602e-08 -1.29334e-08)
(-1.03039e-08 2.67568e-08 -1.5135e-08)
(-1.00258e-08 2.56053e-08 -1.25959e-08)
(-5.0667e-09 2.25105e-08 -1.34072e-08)
(-8.06586e-09 2.56892e-08 -1.53064e-08)
(-3.20995e-09 2.16453e-08 -1.35259e-08)
(-1.83955e-10 1.81502e-08 -1.10857e-08)
(-6.65474e-09 2.29344e-08 -1.15945e-08)
(-3.64105e-09 2.15349e-08 -1.28329e-08)
(2.23008e-09 1.39075e-08 -1.03748e-08)
(3.40082e-09 9.78161e-09 -8.91912e-09)
(1.50054e-09 1.08349e-08 -9.21796e-09)
(2.12436e-09 1.68088e-08 -1.05637e-08)
(7.25951e-10 1.73769e-08 -1.05417e-08)
(4.63562e-09 8.45177e-09 -8.28157e-09)
(4.50026e-09 5.85284e-09 -6.15965e-09)
(-9.42978e-10 1.21145e-09 6.48766e-09)
(4.74038e-09 -2.71265e-08 3.31137e-08)
(3.71987e-09 3.21611e-09 1.02353e-08)
(1.14345e-08 1.08081e-08 3.86548e-08)
(1.26039e-10 1.82431e-10 1.11008e-08)
(-7.27632e-11 5.39126e-10 1.5564e-09)
(5.88111e-11 7.59876e-10 2.64691e-09)
(2.92038e-10 4.98385e-11 5.5126e-09)
(1.05387e-09 1.41563e-10 9.81988e-09)
(-1.30631e-10 7.5823e-10 2.79658e-09)
(-6.79335e-13 -4.57523e-10 4.68106e-09)
(-2.67609e-11 4.03012e-10 1.15629e-08)
(-4.59688e-10 5.08372e-10 3.53456e-09)
(-5.31961e-10 7.79741e-10 1.32649e-08)
(-2.85792e-10 3.88069e-10 3.38187e-09)
(-7.08264e-10 4.27984e-10 1.27737e-08)
(2.01307e-10 8.32815e-10 1.17447e-08)
(-3.03419e-10 4.4996e-10 3.31405e-09)
(2.08317e-10 4.21726e-10 1.12074e-08)
(1.64786e-09 1.20472e-09 9.95868e-09)
(1.38561e-10 4.26331e-10 2.9209e-09)
(-5.91601e-11 4.00058e-10 3.15577e-09)
(1.1828e-09 4.83638e-10 9.96679e-09)
(4.8099e-10 8.97235e-10 1.13317e-08)
(-1.03526e-10 4.31995e-10 3.10712e-09)
(9.63417e-09 1.40074e-09 3.72952e-09)
(1.00913e-09 6.21018e-10 1.2762e-09)
(5.67642e-09 2.91035e-09 6.89192e-09)
(1.00762e-09 8.78661e-10 1.44951e-09)
(4.81677e-09 3.76485e-09 8.37132e-09)
(2.46426e-09 1.75856e-09 9.46599e-09)
(1.65687e-09 1.26378e-09 2.59421e-09)
(1.61306e-09 1.48265e-09 2.76036e-09)
(4.05338e-09 2.54869e-09 7.11771e-09)
(3.94266e-09 3.25572e-09 8.83347e-09)
(7.13098e-10 1.54387e-09 1.1835e-08)
(-4.30367e-10 5.46283e-10 3.75467e-09)
(-4.32855e-10 8.79971e-10 1.33594e-08)
(-2.44407e-10 4.40412e-10 3.4223e-09)
(-1.4502e-10 1.38086e-09 1.36417e-08)
(3.09648e-10 9.80348e-10 1.17689e-08)
(-1.87381e-10 5.63672e-10 3.46635e-09)
(1.35269e-09 2.00981e-09 1.12901e-08)
(5.07011e-10 1.1639e-09 3.29744e-09)
(5.47058e-09 4.04312e-09 8.5683e-09)
(1.08499e-09 1.28344e-09 3.03962e-09)
(3.73018e-09 3.07301e-09 9.24815e-09)
(1.98259e-09 3.19544e-09 1.10163e-08)
(3.16489e-10 8.77123e-10 3.24763e-09)
(9.3963e-10 1.58957e-09 9.44946e-09)
(1.91181e-09 1.52169e-09 9.92404e-09)
(3.29447e-11 4.85858e-10 3.18687e-09)
(6.27788e-10 8.578e-10 2.99924e-09)
(6.0628e-10 1.05423e-09 1.13445e-08)
(3.1173e-09 2.65969e-09 9.49575e-09)
(1.49878e-10 6.45974e-10 3.23979e-09)
(4.23225e-09 1.31706e-08 2.57215e-08)
(9.50094e-10 1.35969e-09 9.13828e-09)
(5.79741e-10 3.40046e-10 3.46214e-09)
(8.99919e-09 1.16372e-08 3.48778e-08)
(9.30229e-12 5.17922e-10 3.73728e-09)
(3.14831e-09 1.3165e-08 2.37649e-08)
(6.44698e-10 2.78579e-10 3.24201e-09)
(-2.23661e-10 7.00484e-10 3.13062e-09)
(1.22682e-09 1.25241e-08 1.90573e-08)
(-3.87568e-11 6.17606e-10 3.4985e-09)
(3.9255e-10 -6.08436e-12 6.51711e-10)
(8.9358e-10 -7.69688e-11 2.56312e-09)
(4.28828e-10 -5.50441e-12 7.16722e-10)
(9.19517e-10 -4.64018e-11 2.64581e-09)
(4.97091e-10 -3.41013e-11 8.00191e-10)
(4.48039e-10 -2.33905e-11 7.40893e-10)
(-3.19019e-10 7.14225e-09 1.49187e-08)
(-7.77087e-10 1.48817e-09 5.16716e-09)
(-4.23221e-10 4.65962e-09 1.7473e-08)
(-5.88087e-10 2.71679e-09 5.81221e-09)
(-1.99651e-10 4.2493e-09 1.74101e-08)
(4.12051e-11 7.45891e-09 1.69144e-08)
(-6.0503e-10 2.59251e-09 5.00987e-09)
(1.3199e-10 1.16935e-08 1.32337e-08)
(-2.21864e-10 2.26101e-09 1.71473e-09)
(2.90238e-10 1.10497e-08 1.07727e-08)
(-2.38269e-10 1.22639e-09 2.18368e-09)
(2.29722e-10 1.17419e-08 1.41608e-08)
(-2.21004e-10 8.28209e-10 2.78078e-09)
(4.63943e-10 2.49513e-10 7.56898e-10)
(8.05871e-10 1.23799e-08 1.77772e-08)
(-2.6009e-10 9.3902e-10 2.12956e-09)
(2.49134e-09 7.51327e-09 9.30975e-09)
(6.82512e-10 1.64934e-09 3.31274e-09)
(5.8156e-09 4.28658e-09 8.3238e-09)
(2.43556e-09 1.59442e-09 9.35251e-10)
(2.15083e-09 4.01619e-09 9.11152e-09)
(6.38565e-09 7.38047e-09 6.53546e-09)
(7.93358e-10 2.59601e-09 3.00942e-09)
(1.79774e-09 9.6666e-09 8.63324e-09)
(-1.63293e-10 2.28557e-09 1.64535e-09)
(4.53872e-10 1.07188e-08 1.01792e-08)
(2.95294e-10 2.11253e-09 1.44777e-09)
(2.59078e-09 9.35598e-09 8.13214e-09)
(2.45324e-09 2.17357e-09 6.50504e-10)
(6.49927e-09 9.30797e-09 5.24914e-09)
(9.45891e-10 4.82238e-09 2.01215e-09)
(-3.27035e-08 3.00554e-08 -1.4869e-08)
(-2.97425e-08 3.63159e-08 -1.59267e-08)
(-3.12203e-08 3.49882e-08 -1.7622e-08)
(-2.10265e-08 2.39149e-08 -1.50185e-08)
(-2.6955e-08 2.67366e-08 -1.57515e-08)
(-3.73333e-08 3.87061e-08 -1.6626e-08)
(-2.56077e-08 2.65765e-08 -1.38381e-08)
(-3.74228e-08 3.20074e-08 -1.34877e-08)
(-3.22749e-08 3.7642e-08 -1.48326e-08)
(-4.82055e-08 4.56165e-08 -1.19631e-08)
(-3.32479e-08 3.0592e-08 -9.37534e-09)
(-4.23148e-08 3.53036e-08 -1.07714e-08)
(-4.31474e-08 4.18919e-08 -1.47714e-08)
(-2.95955e-08 2.81451e-08 -1.23188e-08)
(-1.33287e-08 1.97783e-08 -1.40694e-08)
(-8.28298e-09 1.6921e-08 -1.39716e-08)
(-1.3747e-09 1.02385e-08 -9.82253e-09)
(-6.7941e-10 3.90042e-09 -4.04798e-09)
(-2.86759e-09 1.13594e-08 -1.03294e-08)
(-2.62002e-09 1.37195e-08 -1.26559e-08)
(-6.57433e-09 1.6263e-08 -1.37189e-08)
(-7.47503e-09 1.38145e-08 -1.06999e-08)
(-1.63415e-09 4.40934e-09 -4.22121e-09)
(-5.51958e-09 1.25943e-08 -1.06935e-08)
(-2.82404e-08 3.89857e-08 -1.77424e-08)
(-1.94864e-08 3.31111e-08 -1.74835e-08)
(-1.23879e-08 2.79847e-08 -1.56521e-08)
(-2.47104e-08 3.61791e-08 -1.53223e-08)
(-1.97509e-08 3.32384e-08 -1.6988e-08)
(-1.00122e-08 2.67979e-08 -1.58364e-08)
(-1.68643e-08 3.17539e-08 -1.71852e-08)
(-3.19948e-08 4.10443e-08 -1.76272e-08)
(-3.12934e-08 4.04648e-08 -1.58841e-08)
(-2.25646e-08 3.47492e-08 -1.72907e-08)
(-3.13839e-08 4.05748e-08 -1.75598e-08)
(-4.10063e-08 4.72107e-08 -1.58766e-08)
(-5.80983e-08 5.96751e-08 -1.11405e-08)
(-6.35277e-08 6.26883e-08 -1.40182e-08)
(-4.93066e-08 5.20711e-08 -1.51548e-08)
(-5.19132e-08 5.57794e-08 -1.05723e-08)
(-4.40924e-08 4.89713e-08 -1.49343e-08)
(-3.54017e-08 4.28318e-08 -1.74818e-08)
(-5.5179e-08 5.65572e-08 -1.53488e-08)
(-4.58791e-08 5.00559e-08 -1.60223e-08)
(-1.53274e-08 2.05007e-08 -1.39039e-08)
(-2.07642e-08 2.34391e-08 -1.23041e-08)
(-1.72805e-08 1.85463e-08 -6.21146e-09)
(-4.97677e-09 6.27894e-09 -3.30539e-09)
(-1.57528e-08 1.75394e-08 -8.19217e-09)
(-2.68184e-08 2.66948e-08 -7.5813e-09)
(-2.26861e-08 2.41308e-08 -1.14749e-08)
(-1.05946e-08 1.51343e-08 -1.03958e-08)
(-3.87052e-09 5.78694e-09 -3.84756e-09)
(-1.27012e-08 1.63411e-08 -9.54616e-09)
(6.19131e-10 -5.12465e-10 2.89862e-09)
(4.13688e-10 -2.62394e-10 1.51402e-09)
(2.7374e-10 -1.73813e-10 9.26308e-10)
(2.31559e-10 -9.78369e-11 7.1106e-10)
(2.65831e-10 -1.167e-10 8.45561e-10)
(3.18426e-10 -1.27641e-10 1.037e-09)
(3.81552e-10 -6.75451e-11 1.0342e-09)
(2.78712e-10 -1.07843e-10 8.75914e-10)
(2.31803e-10 -8.60339e-11 6.99128e-10)
(3.63707e-10 -6.42252e-11 9.81447e-10)
(2.66363e-10 -1.01946e-10 8.27982e-10)
(1.52614e-10 -3.04335e-12 2.2455e-10)
(2.20462e-10 -4.2513e-12 3.27439e-10)
(3.4232e-10 -4.97631e-11 8.90806e-10)
(1.92346e-10 -3.78618e-12 2.84824e-10)
(3.26447e-10 -4.73957e-11 8.46436e-10)
(1.59908e-10 -3.18825e-12 2.35588e-10)
(1.8377e-10 -3.61488e-12 2.71748e-10)
(1.64012e-09 1.89003e-09 1.95893e-09)
(3.52552e-10 5.66487e-10 8.49476e-10)
(6.8633e-10 1.08315e-09 1.14015e-09)
(7.1095e-10 5.27756e-10 1.95024e-09)
(1.55926e-09 1.69855e-09 2.71077e-09)
(8.44195e-10 1.32408e-09 9.06632e-10)
(7.14644e-10 5.87001e-10 1.95032e-09)
(2.17631e-09 1.49426e-09 3.23618e-09)
(2.2113e-10 3.13963e-10 6.27913e-10)
(6.02642e-10 8.91627e-10 1.10064e-09)
(7.51336e-10 4.84559e-10 2.08494e-09)
(1.62407e-09 1.63262e-09 3.24202e-09)
(5.31515e-10 7.71822e-10 1.1037e-09)
(1.03049e-09 5.39964e-10 2.10176e-09)
(3.91691e-09 8.49745e-09 2.62826e-08)
(1.38532e-09 2.09674e-09 9.85212e-09)
(5.79496e-09 9.40376e-09 2.96054e-08)
(-4.94828e-11 2.39648e-09 8.91725e-09)
(2.26588e-09 6.0007e-09 2.63841e-08)
(6.97673e-09 8.32833e-09 3.04942e-08)
(3.86737e-10 2.26517e-09 8.44707e-09)
(-2.44032e-08 3.63028e-08 1.29855e-08)
(-2.86901e-08 4.55815e-08 1.11562e-08)
(-1.89586e-08 3.93365e-08 1.1608e-08)
(-2.4332e-08 3.80803e-08 1.10365e-08)
(-1.93536e-08 3.49541e-08 1.22016e-08)
(-2.30607e-08 4.23491e-08 1.14347e-08)
(-2.89361e-08 4.02431e-08 1.0854e-08)
(-2.1195e-08 1.48721e-08 1.4788e-08)
(-7.63131e-09 5.07788e-09 6.25446e-09)
(-1.86252e-08 2.83929e-08 1.65408e-08)
(-6.17537e-09 4.51736e-09 5.02595e-09)
(-2.53256e-08 1.47732e-08 1.89763e-08)
(-1.63219e-08 1.42153e-08 1.37903e-08)
(-6.63172e-09 4.41671e-09 5.07111e-09)
(9.40858e-10 -1.74214e-10 3.00249e-09)
(8.45181e-10 -1.32617e-10 2.52468e-09)
(9.02923e-10 -1.74947e-10 2.86919e-09)
(6.888e-10 -1.19862e-10 2.00355e-09)
(7.02886e-10 -1.53627e-10 2.14495e-09)
(7.33102e-10 -1.58458e-10 2.25488e-09)
(1.83771e-09 1.3861e-08 -1.13712e-08)
(3.56185e-09 1.45495e-08 -1.1502e-08)
(3.14181e-09 1.4659e-08 -1.11108e-08)
(3.81607e-09 1.23589e-08 -1.06214e-08)
(3.13602e-09 1.31573e-08 -1.12294e-08)
(2.46272e-09 1.55005e-08 -1.16967e-08)
(2.56954e-09 1.31024e-08 -1.07855e-08)
(-3.68311e-09 1.81458e-08 -1.43445e-08)
(-1.78756e-09 1.90444e-08 -1.47323e-08)
(-3.33623e-09 1.83268e-08 -1.48937e-08)
(-4.73476e-09 2.13752e-08 -1.54743e-08)
(-5.11091e-09 1.9173e-08 -1.49047e-08)
(-1.98387e-09 1.72373e-08 -1.42888e-08)
(-3.35387e-09 2.02249e-08 -1.48608e-08)
(-7.22923e-09 4.66619e-09 7.06945e-09)
(-2.53899e-08 1.55733e-08 2.22689e-08)
(4.4903e-09 -1.51533e-10 2.4603e-09)
(5.49102e-09 8.30161e-11 1.29804e-09)
(2.00226e-09 1.01231e-11 8.71176e-10)
(4.68075e-09 4.53937e-10 2.65258e-09)
(1.95866e-09 -2.16252e-10 7.37854e-10)
(9.80206e-10 -1.69898e-10 3.13806e-09)
(9.5122e-10 -1.2635e-10 2.8646e-09)
(1.0217e-09 -1.63745e-10 3.2753e-09)
(1.15965e-09 1.59189e-10 4.05141e-09)
(1.0817e-09 1.60869e-10 3.38827e-09)
(1.16716e-09 1.94254e-10 3.9018e-09)
(-1.93957e-08 2.73057e-08 -1.73267e-08)
(-1.71953e-08 2.88228e-08 -1.80609e-08)
(-2.22325e-08 3.20496e-08 -1.80137e-08)
(-1.91453e-08 2.74867e-08 -1.73125e-08)
(-2.18369e-08 2.86933e-08 -1.72623e-08)
(-1.68014e-08 2.60333e-08 -1.73799e-08)
(-1.98204e-08 3.04878e-08 -1.80549e-08)
(-8.50205e-09 2.11552e-08 -1.59323e-08)
(-6.4988e-09 2.22964e-08 -1.64891e-08)
(-4.95699e-09 1.90147e-08 -1.54319e-08)
(-6.63139e-09 2.23704e-08 -1.60614e-08)
(-6.79327e-09 2.00259e-08 -1.54444e-08)
(-6.59339e-09 2.02026e-08 -1.59466e-08)
(-8.30105e-09 2.36235e-08 -1.65408e-08)
(3.15834e-10 -6.67282e-11 8.6595e-10)
(2.85336e-10 -4.98587e-11 7.53936e-10)
(3.00494e-10 -6.34129e-11 8.19713e-10)
(-2.03249e-08 3.58825e-08 1.18277e-08)
(-1.56554e-08 3.31944e-08 1.19597e-08)
(-2.81723e-08 4.98658e-08 1.11203e-08)
(-2.15538e-08 4.67876e-08 1.02949e-08)
(-3.7196e-08 4.32417e-08 6.45151e-09)
(-3.34938e-08 4.79257e-08 8.70233e-09)
(-3.29362e-08 4.54674e-08 7.7653e-09)
(-2.86569e-08 3.94252e-08 9.23291e-09)
(-3.34559e-08 4.19382e-08 8.712e-09)
(-3.77453e-08 4.88294e-08 6.93215e-09)
(-3.25353e-08 4.04811e-08 7.09292e-09)
(-4.33217e-08 4.19616e-08 -5.96206e-09)
(-3.99466e-08 4.43344e-08 -5.34014e-09)
(-4.39537e-08 4.58663e-08 -8.13794e-09)
(-3.83102e-08 3.85012e-08 -7.59124e-09)
(-4.45676e-08 4.71858e-08 -5.9085e-09)
(-3.8942e-08 3.96091e-08 -5.25077e-09)
(-4.25328e-08 4.08458e-08 -8.05502e-09)
(-3.27945e-08 5.25664e-08 8.97235e-09)
(-3.73568e-08 5.36456e-08 7.23657e-09)
(-4.39929e-08 5.01896e-08 -8.0341e-09)
(-4.47072e-08 5.16763e-08 -5.64017e-09)
(-2.44624e-08 3.7434e-08 1.00983e-08)
(-2.80168e-08 3.84379e-08 8.01742e-09)
(-3.40672e-08 3.70539e-08 -7.19687e-09)
(-3.45631e-08 3.79841e-08 -4.76304e-09)
(6.5412e-10 -5.76367e-11 1.71173e-09)
(7.45976e-10 -9.48195e-11 2.11231e-09)
(6.31251e-10 -5.73263e-11 1.64634e-09)
(6.12836e-10 -8.55352e-11 1.69137e-09)
(5.00643e-10 -5.0464e-11 1.2705e-09)
(5.21053e-10 -5.15714e-11 1.32865e-09)
(4.88035e-10 -1.06534e-10 1.40732e-09)
(4.82759e-10 -8.64128e-11 1.34031e-09)
(5.114e-10 -1.11972e-10 1.48402e-09)
(6.7211e-10 -1.4811e-10 2.03527e-09)
(6.06143e-10 -1.08366e-10 1.73015e-09)