/*--------------------------------*- C++ -*----------------------------------*\
| =========                 |                                                 |
| \\      /  F ield         | OpenFOAM: The Open Source CFD Toolbox           |
|  \\    /   O peration     | Version:  2012                                  |
|   \\  /    A nd           | Website:  www.openfoam.com                      |
|    \\/     M anipulation  |                                                 |
\*---------------------------------------------------------------------------*/
FoamFile
{
    version     2.0;
    format      ascii;
    class       volVectorField;
    location    "0.108/solid";
    object      D_0_0_0;
}
// * * * * * * * * * * * * * * * * * * * * * * * * * * * * * * * * * * * * * //

dimensions      [0 1 0 0 0 0 0];


internalField   nonuniform List<vector> 
3124
(
(9.30435e-12 6.08111e-11 4.72953e-11)
(-2.14698e-14 2.16134e-13 -1.05285e-12)
(4.14695e-12 -1.38069e-12 2.37834e-11)
(7.19047e-11 2.30202e-10 -1.52901e-11)
(3.31006e-12 -1.642e-13 4.39483e-11)
(3.95348e-14 1.4537e-13 -1.96735e-12)
(5.19996e-12 -1.30599e-12 2.4505e-11)
(6.8337e-11 2.36977e-10 -1.64776e-11)
(2.47119e-12 -9.81871e-13 4.30353e-11)
(-5.29271e-13 9.47789e-12 2.05648e-11)
(1.56432e-11 4.38227e-11 6.19e-11)
(5.01526e-11 2.44193e-10 2.55492e-11)
(-2.79447e-12 -1.01946e-11 3.67568e-11)
(7.73446e-13 -7.6049e-13 1.49042e-11)
(-5.24206e-12 7.97572e-12 1.79324e-11)
(2.80057e-12 -5.98644e-12 3.40275e-11)
(3.12414e-12 2.20775e-11 6.19155e-11)
(1.70054e-12 -5.3809e-12 2.91862e-11)
(7.72748e-12 -3.00347e-12 2.89311e-11)
(5.44267e-11 2.46644e-10 5.04356e-12)
(-9.3083e-13 -1.21843e-12 2.86988e-11)
(-1.17052e-12 -1.01733e-12 2.80922e-11)
(7.55207e-13 -7.04518e-13 1.47006e-11)
(4.20099e-10 5.31535e-10 5.21245e-11)
(2.6184e-11 4.58388e-11 4.02037e-11)
(1.33915e-11 6.74682e-11 4.38177e-11)
(3.40362e-11 1.64823e-10 1.07836e-10)
(1.1346e-10 6.27589e-10 2.18053e-10)
(1.63707e-11 3.31701e-11 3.25444e-11)
(1.01886e-10 1.39582e-10 8.87004e-11)
(2.03423e-12 -1.29586e-12 8.96665e-12)
(2.00187e-12 -2.53089e-12 1.99707e-11)
(2.07297e-12 -8.05193e-13 8.0961e-12)
(3.80186e-10 3.97342e-10 -1.84819e-11)
(6.22352e-11 1.5678e-10 -1.30744e-11)
(2.22442e-10 9.03379e-10 -2.99916e-11)
(7.39775e-11 2.25783e-10 -1.29388e-11)
(3.85847e-10 4.20468e-10 -2.20166e-11)
(2.31863e-10 8.83946e-10 -2.21924e-11)
(6.25099e-11 1.52867e-10 -1.19666e-11)
(1.25659e-11 7.22366e-11 4.46006e-11)
(1.05513e-11 -1.17028e-11 5.40834e-11)
(-3.40166e-12 1.87393e-12 -5.46873e-12)
(-3.72009e-12 9.10075e-12 1.55685e-12)
(-1.22059e-11 1.38375e-11 4.80401e-12)
(9.97133e-12 1.74543e-13 3.14754e-11)
(2.72896e-12 -1.73398e-12 1.04643e-11)
(7.72496e-12 -2.21391e-13 2.22074e-11)
(3.77819e-10 4.48367e-10 -1.56666e-11)
(6.38625e-11 2.43312e-10 -1.33923e-11)
(5.86912e-11 1.61236e-10 -1.3685e-11)
(2.18905e-10 9.18977e-10 -3.0387e-11)
(3.83174e-10 4.22097e-10 -2.24492e-11)
(2.02107e-10 9.59923e-10 -2.05739e-11)
(5.60918e-11 1.66111e-10 -1.28654e-11)
(1.42456e-12 -3.93044e-12 3.83257e-11)
(-1.78542e-12 -6.04761e-13 2.5914e-11)
(3.52993e-13 -4.08528e-13 1.33232e-11)
(-6.23691e-13 -1.50204e-13 -3.88847e-13)
(1.52929e-12 1.05895e-11 1.09824e-11)
(-5.59125e-12 1.20649e-11 6.95198e-11)
(2.72349e-11 3.30975e-11 3.89244e-11)
(5.80306e-11 4.98527e-11 3.3386e-11)
(2.30002e-12 4.78747e-11 5.42784e-11)
(4.18258e-12 -3.86129e-12 6.56808e-11)
(1.59053e-10 8.81218e-10 7.32734e-12)
(2.81685e-11 4.46484e-11 4.1551e-11)
(4.18954e-10 5.31732e-10 4.43694e-11)
(4.91925e-11 2.23228e-10 6.92808e-11)
(1.46356e-10 9.36647e-10 1.97187e-11)
(6.7915e-11 1.78142e-10 1.44768e-11)
(1.17669e-10 8.17139e-10 1.14989e-10)
(3.89706e-10 4.95046e-10 1.22768e-11)
(7.61123e-11 1.73185e-10 5.04207e-11)
(1.74977e-10 1.18435e-09 5.41357e-12)
(1.33149e-10 1.01005e-09 7.78493e-11)
(-7.5435e-12 3.04267e-12 7.19647e-11)
(-4.9154e-12 -9.80283e-12 6.03944e-11)
(3.47562e-11 3.95962e-11 5.95425e-11)
(4.40211e-11 5.39726e-11 4.50248e-12)
(4.81731e-11 5.68943e-11 2.21316e-11)
(4.9986e-13 -1.00044e-12 5.87227e-12)
(4.3016e-13 -4.81656e-13 5.37169e-12)
(2.29883e-12 -2.63244e-12 1.89322e-11)
(1.20795e-13 -3.61824e-13 1.22645e-12)
(1.40341e-12 -1.07709e-12 5.64033e-12)
(-1.12534e-12 -3.1869e-13 2.05434e-13)
(-1.13485e-13 -6.51085e-13 3.70017e-12)
(3.85732e-11 4.55453e-11 -5.73452e-12)
(3.73603e-11 4.32055e-11 -5.65287e-12)
(2.54736e-10 1.15921e-09 -2.45428e-11)
(2.65191e-10 1.14255e-09 -1.96224e-11)
(3.79577e-10 3.95553e-10 -1.78397e-11)
(7.4942e-11 2.22832e-10 -1.14551e-11)
(2.33724e-10 8.82257e-10 -2.28648e-11)
(6.13389e-11 1.49703e-10 -1.04829e-11)
(2.67397e-10 1.14202e-09 -1.99855e-11)
(3.7417e-11 4.25073e-11 -4.62371e-12)
(2.27481e-11 5.03075e-11 5.62604e-11)
(2.63017e-11 2.61013e-12 5.01748e-11)
(-6.9591e-12 2.82991e-12 -5.72685e-13)
(-1.47395e-11 1.06993e-11 5.91464e-11)
(-1.75633e-11 1.35938e-11 1.57287e-11)
(2.18561e-13 8.49234e-12 -2.71046e-12)
(-9.52799e-12 1.64797e-11 1.22613e-11)
(-1.30124e-11 2.62801e-12 6.17755e-11)
(3.41321e-11 1.29336e-11 5.25872e-12)
(-1.30813e-11 1.33428e-11 2.21157e-11)
(-3.56447e-12 -3.66779e-12 3.7432e-11)
(-2.42944e-12 -2.09145e-12 5.01778e-11)
(6.45741e-12 6.49531e-12 2.41595e-11)
(1.15289e-12 -1.4131e-12 7.2954e-12)
(5.05644e-12 3.72501e-13 1.67464e-11)
(-6.3764e-12 -6.14124e-12 4.30545e-11)
(3.90186e-12 5.77627e-12 1.6333e-11)
(4.52134e-11 3.79354e-12 2.71488e-12)
(3.79506e-10 4.53035e-10 -1.36828e-11)
(5.91951e-11 2.46095e-10 -6.29261e-12)
(1.57875e-10 9.34831e-10 6.18529e-12)
(6.42644e-11 1.75904e-10 1.10697e-13)
(3.93658e-10 4.9373e-10 7.38762e-12)
(1.92905e-10 9.54569e-10 -1.20649e-11)
(5.94434e-11 1.71546e-10 -8.891e-12)
(3.79101e-11 4.63526e-11 -6.37601e-12)
(3.94294e-11 4.89619e-11 -5.64233e-12)
(2.51511e-10 1.18346e-09 -2.63722e-11)
(2.37085e-10 1.2472e-09 -1.62985e-11)
(1.87761e-10 1.17642e-09 3.0473e-13)
(2.26795e-10 1.23285e-09 -8.70466e-12)
(4.43788e-11 5.37336e-11 1.48555e-12)
(3.93093e-11 5.0275e-11 -5.40657e-12)
(7.58384e-13 -3.91585e-12 3.39171e-11)
(-1.67082e-12 -6.86581e-13 2.63723e-11)
(3.43763e-13 -4.16878e-13 1.34477e-11)
(-5.8934e-14 -3.07785e-13 8.95034e-13)
(-5.55305e-13 -1.58647e-13 -2.35338e-13)
(-1.74899e-12 -1.04898e-13 -1.29868e-12)
(-1.29055e-12 -2.45909e-13 -1.61454e-13)
(-1.68148e-12 -1.34075e-13 -1.14531e-12)
(2.51114e-10 9.51854e-10 -2.23163e-11)
(-6.87052e-12 -2.71704e-12 -3.56655e-12)
(-4.60374e-13 -4.91584e-13 6.09369e-14)
(3.09242e-14 -8.43011e-13 1.79974e-11)
(2.50689e-12 -1.32457e-12 2.26467e-11)
(-1.16239e-13 -8.69103e-13 1.77967e-11)
(5.47343e-12 4.06274e-13 4.584e-11)
(-7.7315e-12 1.17638e-11 -4.04975e-11)
(-4.15545e-14 7.0842e-14 -9.50259e-13)
(-7.87214e-13 -4.39399e-13 1.37314e-14)
(-9.45448e-14 3.01036e-12 -3.68603e-12)
(8.28141e-12 -1.11221e-12 2.72707e-11)
(-5.54485e-14 -1.10514e-12 1.82441e-11)
(4.23095e-14 -1.40508e-12 2.05028e-11)
(2.88456e-12 -1.62241e-12 4.2317e-11)
(5.18844e-11 1.26225e-11 1.42027e-10)
(4.0337e-12 9.98846e-12 1.73994e-11)
(-1.32641e-12 1.95049e-11 4.43334e-11)
(-7.49945e-13 -6.08526e-12 5.767e-11)
(-2.82478e-12 2.9816e-12 1.91236e-10)
(1.06421e-11 2.11111e-11 3.88738e-11)
(2.76586e-12 -2.32107e-12 4.66926e-11)
(-1.49226e-11 1.34562e-10 2.95892e-10)
(2.6982e-11 4.85447e-11 6.95333e-11)
(5.51049e-11 -2.62177e-11 2.5093e-10)
(1.69834e-11 2.3993e-11 6.78277e-11)
(-3.33992e-11 3.33143e-10 1.64715e-10)
(5.04711e-11 7.41648e-11 1.94559e-10)
(3.51547e-11 4.37252e-11 6.93966e-11)
(7.66319e-12 1.10722e-11 2.64506e-10)
(1.04467e-11 5.56297e-12 1.05823e-10)
(-7.75195e-12 -1.25762e-11 5.08635e-11)
(-6.7938e-12 -1.24974e-11 4.34468e-11)
(4.6544e-12 6.28985e-12 1.88192e-10)
(3.60108e-12 9.19243e-12 1.39209e-10)
(-8.17354e-12 -1.31223e-11 6.12634e-11)
(1.233e-12 -1.37706e-12 1.57832e-11)
(-2.48632e-12 -5.19303e-13 1.05776e-11)
(-2.27714e-12 -9.99309e-13 1.13119e-11)
(-4.04529e-12 4.92259e-11 6.97391e-11)
(-6.73906e-12 -2.89537e-11 2.60489e-10)
(9.49085e-11 3.4809e-10 1.44157e-10)
(-1.0926e-11 5.43836e-12 9.35071e-11)
(-7.76134e-12 6.16268e-12 1.22817e-11)
(-1.18259e-11 1.62686e-11 3.77663e-11)
(-1.5863e-12 -5.61892e-12 5.34579e-11)
(-3.34152e-12 3.16752e-12 1.72099e-10)
(-1.67199e-11 1.32397e-11 2.62958e-11)
(-3.16701e-12 -2.41086e-12 2.75353e-11)
(1.47955e-11 1.46988e-11 1.51124e-10)
(1.4703e-11 6.52599e-12 1.03909e-10)
(-4.03573e-12 -8.51634e-12 4.38154e-11)
(7.76401e-12 -1.06652e-12 3.37626e-11)
(5.12541e-12 6.9484e-12 1.71235e-10)
(3.81193e-11 1.67827e-11 1.08585e-10)
(-8.55184e-13 -2.50902e-12 4.02547e-11)
(1.7988e-12 1.21795e-11 8.17222e-11)
(1.24014e-11 6.07076e-12 9.88481e-11)
(-3.86795e-12 -7.17605e-12 3.27964e-11)
(5.45967e-12 -2.73516e-12 2.44459e-11)
(2.53984e-12 1.05363e-11 1.25532e-10)
(1.86019e-11 1.06978e-11 8.36353e-11)
(-1.45122e-12 -1.61381e-12 2.66743e-11)
(6.50259e-11 1.88415e-11 7.98617e-11)
(1.78298e-11 6.61165e-12 9.79898e-11)
(1.46258e-11 3.95031e-13 3.03582e-11)
(1.16101e-11 -1.60027e-12 2.52126e-11)
(4.55471e-11 1.57274e-11 1.10002e-10)
(2.6312e-11 1.08478e-11 7.80724e-11)
(2.05813e-11 8.30125e-13 2.63786e-11)
(-6.02732e-13 -1.73305e-12 2.94224e-11)
(-1.34659e-12 -8.87626e-13 2.74855e-11)
(5.34329e-13 -5.38081e-13 1.41288e-11)
(-2.52676e-12 -4.72976e-13 1.0412e-11)
(-2.65617e-12 -3.64269e-13 9.89461e-12)
(1.06469e-10 2.66686e-10 1.60215e-10)
(2.68045e-10 5.83206e-10 1.12116e-10)
(3.16139e-10 3.89475e-10 7.03034e-12)
(2.60829e-10 3.85711e-10 9.55516e-11)
(1.83378e-10 2.52773e-10 1.38244e-10)
(2.09635e-10 4.21521e-10 1.49805e-10)
(1.83701e-10 4.37185e-10 1.08958e-10)
(3.65745e-11 1.45015e-10 1.31467e-10)
(3.12237e-11 7.79007e-11 1.06054e-10)
(1.35842e-11 3.26974e-11 3.34198e-11)
(1.46801e-11 4.62574e-11 3.52503e-11)
(4.99846e-11 1.10563e-10 9.96987e-11)
(6.34421e-11 1.68979e-10 1.04963e-10)
(7.92361e-12 4.03057e-11 3.9763e-11)
(-5.87694e-12 -4.8053e-12 -5.88891e-12)
(-2.40717e-12 -8.16285e-13 1.60271e-11)
(1.46324e-12 -2.9283e-13 7.27701e-12)
(-3.25313e-12 -7.71889e-13 1.53843e-11)
(2.40969e-12 -1.53544e-12 2.22458e-11)
(-8.37476e-13 -1.84286e-12 1.52476e-11)
(-2.25949e-13 -1.08928e-12 1.74146e-11)
(1.27213e-12 -1.74328e-13 7.07493e-12)
(-3.37589e-12 -1.67535e-12 1.29266e-11)
(-3.15259e-12 -9.18086e-13 1.49514e-11)
(1.80585e-10 4.46725e-10 -2.32806e-11)
(3.8576e-10 4.08085e-10 -2.00185e-11)
(2.72989e-10 5.88886e-10 -2.18819e-11)
(2.23576e-10 3.12127e-10 -2.0223e-11)
(2.25989e-10 3.1753e-10 -2.12475e-11)
(2.74246e-10 5.93179e-10 -2.38375e-11)
(1.79891e-10 4.42273e-10 -2.14901e-11)
(1.80246e-10 4.4982e-10 -2.39281e-11)
(3.8571e-10 4.10197e-10 -2.07768e-11)
(2.25007e-10 3.27008e-10 -2.17372e-11)
(2.72136e-10 6.07159e-10 -2.66942e-11)
(1.77562e-10 4.57253e-10 -2.50581e-11)
(2.26446e-10 3.21074e-10 -2.19603e-11)
(2.74225e-10 5.97959e-10 -2.43535e-11)
(7.18037e-12 4.25615e-12 4.69843e-11)
(-8.40571e-12 9.23616e-12 -4.00291e-11)
(-1.5322e-13 8.01989e-13 -6.23503e-12)
(-9.55202e-12 6.50784e-12 -4.67767e-12)
(-2.34937e-12 4.04529e-12 -2.66348e-11)
(-9.3892e-12 9.91385e-12 -1.41099e-11)
(-4.27452e-12 4.05722e-12 -8.94518e-12)
(5.63721e-12 3.47111e-12 -3.2158e-11)
(-5.89183e-13 1.44157e-11 -3.24994e-11)
(1.42122e-11 2.9351e-11 -1.29048e-11)
(-3.99575e-12 1.52267e-11 -5.81209e-13)
(4.53757e-12 2.69925e-11 1.60329e-12)
(-1.41548e-12 4.26219e-12 -2.98378e-12)
(-4.79742e-12 1.29369e-11 -3.09928e-11)
(-1.39787e-11 2.46629e-11 3.37118e-12)
(-1.11882e-11 1.043e-11 -2.55826e-13)
(-4.76523e-12 1.25943e-11 -5.95447e-13)
(-9.59267e-12 1.17162e-11 -2.97753e-12)
(2.417e-12 2.48087e-11 -4.30364e-12)
(-6.22637e-12 9.94456e-12 -4.37105e-12)
(8.60154e-12 -7.88222e-13 2.82962e-11)
(6.51085e-13 9.92824e-13 2.42599e-11)
(1.91993e-13 -1.06923e-12 2.14418e-11)
(-1.96831e-12 -9.37532e-13 1.62922e-11)
(7.0745e-12 -1.64164e-12 1.81471e-11)
(-1.59794e-12 -1.16731e-12 1.77613e-11)
(1.60618e-13 -1.00479e-13 2.14255e-11)
(7.54453e-12 -1.25438e-12 1.85537e-11)
(-1.56836e-12 -9.80171e-13 1.84096e-11)
(1.65697e-10 4.81503e-10 -2.39091e-11)
(3.74405e-10 4.32657e-10 -2.0544e-11)
(2.56811e-10 6.54018e-10 -2.24269e-11)
(2.13982e-10 3.4702e-10 -2.06385e-11)
(1.64431e-10 4.88874e-10 -2.20369e-11)
(2.12378e-10 3.3869e-10 -2.12835e-11)
(2.58033e-10 6.44861e-10 -2.49141e-11)
(1.68917e-10 4.74678e-10 -2.49803e-11)
(3.77301e-10 4.30435e-10 -2.14127e-11)
(2.21065e-10 3.30053e-10 -2.17031e-11)
(2.67871e-10 6.18358e-10 -2.67432e-11)
(1.74116e-10 4.63686e-10 -2.49241e-11)
(2.15804e-10 3.35319e-10 -2.10181e-11)
(2.62357e-10 6.32492e-10 -2.74622e-11)
(2.19014e-12 -2.54917e-12 4.13401e-11)
(-1.86309e-12 -5.06187e-13 2.55057e-11)
(2.40916e-13 -2.93789e-13 1.29913e-11)
(-2.78892e-12 -2.72017e-13 9.23509e-12)
(-5.6476e-12 -2.41852e-13 7.03077e-12)
(3.32523e-10 3.31814e-10 6.08203e-11)
(1.69142e-10 1.67109e-10 1.30976e-10)
(-1.53986e-11 -2.80903e-12 1.24932e-10)
(3.24534e-12 9.21316e-12 1.20724e-11)
(4.78892e-13 1.94413e-11 3.18618e-11)
(2.28822e-11 3.22649e-11 3.16627e-11)
(-3.84413e-11 5.76221e-11 1.64106e-10)
(5.64308e-12 1.68598e-11 2.98245e-11)
(1.7711e-11 6.76062e-13 1.59609e-11)
(4.68935e-11 2.18659e-11 1.92084e-10)
(-3.45305e-12 1.72998e-11 5.98615e-11)
(3.08248e-12 1.05069e-11 2.63015e-10)
(1.10577e-11 1.86115e-11 7.27134e-11)
(2.40399e-11 2.31315e-11 3.01316e-10)
(-1.14275e-12 6.8454e-12 2.12392e-10)
(1.41005e-11 2.33744e-11 5.7974e-11)
(1.15675e-11 4.24968e-11 1.82665e-10)
(7.35431e-11 9.44088e-11 7.41955e-11)
(1.1972e-11 2.29543e-11 3.32935e-11)
(2.88429e-11 3.11523e-11 6.07694e-11)
(8.25078e-11 1.02654e-10 1.17496e-10)
(3.61063e-11 3.04986e-11 2.85012e-10)
(2.21874e-11 2.72529e-11 4.3287e-11)
(2.60511e-10 2.30316e-10 2.11607e-11)
(2.54769e-11 5.4948e-11 4.68696e-11)
(9.46254e-12 1.77143e-10 1.00691e-10)
(3.43963e-10 7.5501e-10 4.85122e-11)
(1.5858e-10 3.99634e-10 1.30999e-10)
(1.08827e-10 1.41083e-10 2.26826e-10)
(2.07062e-11 1.62386e-11 4.60323e-11)
(-1.9624e-11 8.33458e-11 2.98016e-10)
(2.40488e-12 4.53184e-11 3.98863e-11)
(8.44857e-11 2.22146e-10 1.34909e-10)
(4.74235e-11 -1.835e-10 2.4785e-10)
(3.18534e-11 5.29774e-11 4.53663e-11)
(1.00366e-11 9.33393e-11 3.13882e-10)
(7.83422e-12 5.74115e-12 6.9324e-11)
(9.11108e-12 3.17212e-11 2.19875e-10)
(9.54628e-12 1.68557e-11 8.08701e-11)
(2.32063e-11 5.11698e-11 3.27823e-10)
(1.45786e-11 3.56952e-11 2.03986e-10)
(1.64896e-11 3.23314e-11 7.93151e-11)
(2.7758e-10 7.88702e-10 6.25012e-11)
(6.25673e-11 2.63969e-10 1.3315e-10)
(1.4164e-10 4.02475e-10 1.53141e-10)
(4.95997e-11 1.35332e-10 2.47499e-10)
(7.86355e-11 1.23537e-10 5.1575e-11)
(1.43081e-11 4.02016e-11 3.45823e-11)
(2.56494e-11 4.41287e-11 6.76189e-11)
(5.87242e-11 1.33037e-10 1.56644e-10)
(3.11567e-11 5.58719e-11 3.13974e-10)
(2.67322e-11 5.62772e-11 5.67443e-11)
(1.78224e-10 4.95757e-10 5.54539e-11)
(2.71539e-10 6.46473e-10 6.46851e-11)
(3.93123e-10 5.11799e-10 3.57543e-11)
(2.63847e-10 3.91577e-10 6.28336e-11)
(1.90379e-10 4.66286e-10 8.88672e-11)
(2.61517e-10 6.70683e-10 4.09205e-11)
(2.4935e-10 3.92905e-10 3.9163e-11)
(1.73126e-10 5.01541e-10 3.51569e-11)
(3.92988e-10 5.09697e-10 2.89376e-11)
(2.56936e-10 6.69687e-10 1.21237e-11)
(2.35485e-10 3.81158e-10 1.44117e-11)
(2.56562e-10 6.73701e-10 2.40409e-11)
(2.39285e-10 3.8649e-10 2.72619e-11)
(1.70484e-10 5.00856e-10 1.74301e-11)
(3.44004e-10 7.93265e-10 3.00192e-11)
(3.4384e-10 8.2768e-10 2.16134e-11)
(1.61495e-10 1.17545e-09 1.9395e-11)
(2.88328e-10 9.20134e-10 4.84959e-12)
(2.79774e-10 9.21436e-10 1.95769e-11)
(2.73358e-10 8.36069e-10 5.04845e-11)
(1.53752e-10 1.13551e-09 3.16845e-11)
(2.78744e-10 9.12082e-10 2.53253e-11)
(3.50822e-10 8.19094e-10 5.41591e-12)
(3.44389e-10 8.29834e-10 1.66597e-11)
(1.10676e-11 1.33549e-11 2.94287e-10)
(-9.33221e-12 -6.89813e-12 6.52108e-11)
(3.27136e-12 1.09406e-11 2.65253e-10)
(3.64056e-12 8.82221e-12 7.92342e-11)
(2.16669e-11 2.22729e-11 3.1145e-10)
(3.6044e-12 6.84037e-12 2.16024e-10)
(-3.85363e-12 -2.86765e-12 7.57078e-11)
(1.05236e-11 1.57045e-11 2.85141e-10)
(-6.49945e-12 -1.22286e-11 5.14269e-11)
(6.53604e-12 2.71125e-11 2.01646e-10)
(1.6214e-12 2.55372e-12 7.84306e-11)
(1.9631e-11 4.00025e-11 3.24567e-10)
(2.97973e-12 1.32993e-11 1.56474e-10)
(-4.15095e-12 -8.22684e-12 7.10909e-11)
(1.50152e-11 1.84269e-11 3.09002e-10)
(7.67159e-11 9.95841e-11 1.66856e-10)
(2.05543e-11 2.23908e-11 7.64886e-11)
(1.73898e-11 2.52722e-11 7.79558e-11)
(2.956e-11 3.05024e-11 3.06818e-10)
(2.8825e-11 4.52468e-11 3.18379e-10)
(6.42899e-12 7.82427e-12 8.08857e-11)
(3.13512e-10 3.12241e-10 5.17413e-11)
(2.94061e-10 3.05532e-10 3.33388e-11)
(2.00965e-10 2.014e-10 1.11675e-11)
(4.39591e-11 5.45303e-11 8.36579e-12)
(1.97631e-10 2.02894e-10 2.11277e-11)
(2.82817e-10 2.93078e-10 1.21164e-11)
(2.87727e-10 2.99783e-10 2.64099e-11)
(1.96773e-10 2.08123e-10 5.69308e-11)
(4.69824e-11 5.40303e-11 1.24704e-11)
(2.12086e-10 2.10682e-10 2.60896e-11)
(-1.26043e-13 -1.89326e-13 -4.76855e-13)
(2.36284e-13 -2.16207e-13 4.86615e-12)
(-4.96967e-13 -1.75658e-14 -9.25024e-13)
(-2.07903e-14 -9.98688e-14 4.4873e-12)
(-4.71712e-13 -4.04907e-14 -1.09926e-12)
(-4.70944e-13 -2.80617e-14 -8.8933e-13)
(1.31093e-12 -1.70187e-12 1.62399e-11)
(-1.1695e-12 -1.97721e-12 1.42918e-11)
(-2.1334e-12 -1.30541e-12 1.17377e-11)
(-5.42997e-12 -4.40227e-13 8.29588e-12)
(7.6792e-13 -7.32698e-13 2.48578e-12)
(-5.26321e-12 -9.01917e-13 8.99002e-12)
(-3.88218e-12 -1.87238e-12 1.20052e-11)
(1.15619e-12 -9.75085e-13 3.39504e-12)
(-5.12413e-12 -1.20833e-12 9.38184e-12)
(-9.75265e-13 -2.89548e-14 -2.08444e-12)
(-6.91835e-13 -5.45842e-13 1.3029e-12)
(-7.5159e-13 -2.86136e-14 -1.78099e-12)
(-4.64958e-13 -3.65146e-14 -1.20552e-12)
(-3.88154e-13 -7.00772e-13 2.09508e-12)
(-6.94611e-13 -4.30657e-14 -1.69258e-12)
(2.56939e-10 2.31746e-10 -1.66416e-11)
(2.61928e-10 2.38736e-10 -1.8761e-11)
(1.80667e-10 1.68573e-10 -1.50678e-11)
(3.81375e-11 4.48281e-11 -6.27947e-12)
(1.8015e-10 1.66047e-10 -1.50891e-11)
(2.61128e-10 2.45891e-10 -1.94298e-11)
(2.61882e-10 2.40234e-10 -1.87264e-11)
(1.76074e-10 1.59858e-10 -1.36463e-11)
(3.83985e-11 4.3994e-11 -5.45459e-12)
(1.80106e-10 1.63349e-10 -1.43236e-11)
(3.84117e-10 7.35159e-10 -2.0662e-11)
(3.83889e-10 7.39856e-10 -2.13709e-11)
(3.30802e-10 8.78126e-10 -2.48667e-11)
(2.58304e-10 1.14489e-09 -2.17755e-11)
(3.33804e-10 8.59529e-10 -2.25382e-11)
(3.81637e-10 7.57571e-10 -2.28427e-11)
(3.83353e-10 7.40205e-10 -2.20077e-11)
(3.36265e-10 8.57552e-10 -2.09348e-11)
(2.62081e-10 1.14191e-09 -2.0189e-11)
(3.34591e-10 8.58904e-10 -2.17747e-11)
(2.71573e-10 5.85816e-10 -2.17096e-11)
(2.21686e-10 3.09057e-10 -1.86685e-11)
(1.79011e-10 4.40348e-10 -2.06836e-11)
(3.83975e-10 7.34668e-10 -1.98811e-11)
(3.36475e-10 8.5732e-10 -2.04021e-11)
(2.5621e-10 2.30422e-10 -1.64747e-11)
(1.75053e-10 1.57552e-10 -1.24513e-11)
(3.42155e-12 1.63022e-11 4.82513e-11)
(2.49926e-11 -1.93022e-10 2.49651e-10)
(1.13739e-11 3.60368e-11 6.56138e-11)
(3.00825e-11 5.49958e-11 2.18092e-10)
(-1.15478e-11 6.79271e-12 7.03135e-11)
(-8.18816e-12 4.4138e-12 5.80831e-12)
(-1.4562e-11 8.20273e-12 3.11386e-12)
(-9.33884e-12 3.82937e-12 -6.71939e-12)
(-9.77786e-12 8.70802e-12 -2.05925e-13)
(-1.71146e-11 1.04868e-11 1.39828e-11)
(-3.29857e-12 -1.03277e-12 1.77724e-11)
(-1.10025e-11 8.26804e-12 1.07428e-10)
(-1.45325e-11 1.47962e-11 5.04116e-11)
(-9.26823e-13 9.93571e-12 2.44603e-10)
(-1.97775e-11 1.1835e-11 4.54435e-11)
(-2.67516e-12 6.23808e-12 1.91757e-10)
(-7.97564e-12 1.25329e-11 1.6338e-10)
(-1.97818e-11 1.37116e-11 3.66125e-11)
(-1.15255e-11 9.0556e-12 8.35425e-11)
(-5.8037e-12 1.92048e-11 4.78406e-11)
(-1.71274e-11 1.14169e-11 8.93519e-12)
(-2.08354e-11 1.25782e-11 2.98652e-11)
(-9.91229e-12 1.14833e-11 1.0053e-11)
(-8.64107e-12 1.3858e-11 1.34197e-10)
(-2.0305e-11 1.26238e-11 2.20201e-11)
(2.00277e-11 4.01932e-11 -1.68134e-11)
(-1.65795e-12 8.45285e-12 6.73239e-13)
(6.91581e-12 3.43595e-11 -8.11531e-12)
(4.36609e-12 1.06569e-11 9.27802e-12)
(6.38271e-11 5.57127e-11 6.10792e-11)
(-3.33748e-13 2.50606e-11 4.15735e-11)
(-3.1767e-12 1.74363e-11 3.69293e-12)
(-1.72249e-12 2.04788e-11 1.5491e-11)
(3.68568e-12 3.30016e-11 6.14342e-12)
(3.61664e-11 4.52485e-11 6.53368e-11)
(6.6046e-12 1.49018e-11 1.77551e-10)
(-9.52447e-12 -5.57621e-12 5.55778e-11)
(-6.21514e-14 1.02031e-11 2.47657e-10)
(-1.68234e-11 6.05014e-12 5.00696e-11)
(3.51012e-12 7.21142e-12 1.96939e-10)
(-5.55498e-12 1.43743e-11 1.74514e-10)
(-1.0173e-11 -2.22816e-13 4.81691e-11)
(1.91061e-11 2.30675e-11 1.2818e-10)
(1.39717e-11 4.69814e-12 3.10663e-11)
(1.17776e-10 4.01881e-11 6.87362e-11)
(1.1316e-11 1.58897e-11 2.55826e-11)
(5.12005e-11 4.38134e-11 7.58328e-11)
(5.08316e-11 2.09273e-11 1.00301e-10)
(1.51015e-12 6.27821e-12 3.36303e-11)
(-4.12164e-12 1.93961e-11 1.0544e-10)
(-1.18362e-12 2.24443e-11 5.93793e-11)
(-1.77684e-11 9.33267e-12 3.50599e-11)
(-3.45174e-12 1.3335e-11 2.47314e-11)
(-5.98047e-12 1.50487e-11 1.46003e-10)
(3.00539e-11 3.79141e-11 7.91909e-11)
(-1.08324e-11 6.752e-12 3.57446e-11)
(1.52811e-11 1.09848e-10 1.46296e-10)
(-7.80549e-12 1.84648e-11 5.66687e-11)
(-6.84925e-13 2.24355e-12 2.42374e-11)
(3.11188e-11 6.61354e-11 1.96955e-10)
(-2.73273e-12 4.4634e-12 2.30588e-11)
(1.13897e-11 1.04857e-10 1.36837e-10)
(7.29175e-13 1.20602e-12 2.13659e-11)
(-2.33017e-12 8.70041e-13 1.80522e-11)
(5.21161e-12 8.45555e-11 1.05504e-10)
(-2.11036e-12 3.63219e-12 2.13604e-11)
(1.7536e-12 -1.94569e-13 1.13423e-12)
(4.19298e-12 -1.57717e-12 1.40962e-11)
(3.25547e-12 -2.21353e-13 2.27262e-12)
(4.67515e-12 -1.16612e-12 1.47069e-11)
(4.45366e-12 2.27476e-15 4.28935e-12)
(5.04736e-12 -2.97366e-13 3.83328e-12)
(-2.87475e-12 2.508e-11 8.97831e-11)
(-3.86722e-12 -7.58335e-12 3.62236e-11)
(-3.34867e-12 1.30003e-11 1.18308e-10)
(-5.61287e-12 6.73568e-12 3.55152e-11)
(2.45832e-12 1.48405e-11 1.41608e-10)
(-2.60029e-12 3.86451e-11 1.09282e-10)
(-3.71712e-12 2.6722e-12 2.9335e-11)
(3.86228e-12 3.84137e-11 6.68433e-11)
(4.52197e-12 -3.93896e-12 1.08413e-11)
(2.01369e-11 1.12409e-11 6.58074e-11)
(-1.88526e-13 -1.88989e-12 1.12073e-11)
(2.58239e-12 4.83344e-11 6.95273e-11)
(-2.19639e-12 1.04918e-12 1.57011e-11)
(2.16319e-12 7.29592e-13 3.30224e-12)
(3.41886e-12 7.86914e-11 9.73278e-11)
(-1.09974e-12 -1.34346e-12 1.08443e-11)
(8.47547e-11 2.24782e-11 7.57109e-11)
(2.49867e-11 4.51582e-12 2.84559e-11)
(1.34865e-10 2.98159e-11 7.05597e-11)
(6.15689e-11 -2.43898e-12 -5.89941e-12)
(6.4005e-11 1.86072e-11 6.61964e-11)
(1.79334e-10 2.17607e-11 2.41863e-11)
(3.2592e-11 1.66773e-12 2.46423e-11)
(6.9129e-11 2.11329e-11 6.31112e-11)
(6.43024e-12 -4.19442e-12 1.12961e-11)
(2.87727e-11 1.11631e-11 6.48807e-11)
(1.45254e-11 3.62543e-13 1.21042e-11)
(9.02943e-11 2.56197e-11 6.11376e-11)
(6.26003e-11 -4.16562e-12 -7.43252e-12)
(1.91208e-10 2.50963e-11 -1.04859e-13)
(3.89312e-11 -2.73918e-12 2.0226e-11)
(1.69288e-10 4.9412e-10 -1.26327e-11)
(3.92288e-10 4.75748e-10 -6.48571e-12)
(2.59166e-10 6.57168e-10 -1.70552e-11)
(2.19114e-10 3.54154e-10 -1.88683e-11)
(1.66371e-10 4.91029e-10 -1.83878e-11)
(2.62538e-10 6.58866e-10 -1.21452e-11)
(2.27203e-10 3.64226e-10 -1.2998e-11)
(1.71195e-10 4.94891e-10 -5.35941e-12)
(3.93401e-10 4.80346e-10 -3.91988e-12)
(2.61021e-10 6.63902e-10 1.95198e-12)
(2.34526e-10 3.76653e-10 4.80141e-12)
(1.70718e-10 4.98044e-10 5.46118e-12)
(2.63825e-10 6.59995e-10 -5.11024e-12)
(2.32186e-10 3.70273e-10 -6.09941e-12)
(2.55821e-10 2.6017e-10 -1.72229e-11)
(2.50567e-10 2.50298e-10 -1.79653e-11)
(1.76868e-10 1.69738e-10 -1.52825e-11)
(3.85765e-11 4.69626e-11 -5.84915e-12)
(1.75182e-10 1.70487e-10 -1.51197e-11)
(2.58972e-10 2.46696e-10 -1.9008e-11)
(2.5257e-10 2.49489e-10 -1.87256e-11)
(1.76928e-10 1.76391e-10 -1.41035e-11)
(3.82024e-11 4.79039e-11 -6.23448e-12)
(1.71776e-10 1.71369e-10 -1.46841e-11)
(3.74439e-10 8.23637e-10 -1.84723e-11)
(3.779e-10 8.07519e-10 -2.29933e-11)
(3.29626e-10 8.86997e-10 -2.55619e-11)
(2.48383e-10 1.21357e-09 -2.66078e-11)
(3.26673e-10 9.26521e-10 -2.5451e-11)
(3.80767e-10 7.6471e-10 -2.33617e-11)
(3.78511e-10 7.97201e-10 -2.31012e-11)
(3.19985e-10 9.51756e-10 -1.7842e-11)
(2.44308e-10 1.23948e-09 -2.32232e-11)
(3.25424e-10 9.37464e-10 -2.48355e-11)
(3.72892e-10 8.20813e-10 -1.72544e-11)
(3.67197e-10 8.11976e-10 -1.04865e-11)
(2.92681e-10 9.15497e-10 1.35929e-12)
(2.00918e-10 1.18033e-09 -1.09256e-12)
(3.05157e-10 9.15657e-10 -6.15933e-12)
(3.5424e-10 8.15089e-10 1.71239e-12)
(3.65022e-10 8.09774e-10 -7.96028e-12)
(3.17543e-10 9.47319e-10 -1.58282e-11)
(2.14077e-10 1.20485e-09 -2.87559e-12)
(3.08357e-10 9.22153e-10 -8.25202e-12)
(2.57997e-10 2.63454e-10 -1.54205e-11)
(2.73553e-10 2.7939e-10 -9.08418e-12)
(2.00929e-10 1.99081e-10 3.89053e-12)
(4.26523e-11 5.28464e-11 -2.08479e-12)
(1.95922e-10 1.95038e-10 -3.5371e-12)
(2.82309e-10 2.90979e-10 6.783e-12)
(2.75821e-10 2.8235e-10 -5.44868e-12)
(1.80388e-10 1.81951e-10 -1.213e-11)
(4.14919e-11 5.16796e-11 -3.62987e-12)
(1.91196e-10 1.90161e-10 -8.46182e-12)
(-4.65637e-14 -2.73992e-12 3.08138e-11)
(-1.50011e-12 -7.99185e-13 2.69148e-11)
(5.38926e-13 -5.4209e-13 1.3967e-11)
(-2.76586e-12 -2.80296e-13 9.34448e-12)
(-2.68239e-12 -3.50915e-13 9.75991e-12)
(-5.45655e-12 -4.13344e-13 8.13829e-12)
(-3.06868e-13 -2.00287e-13 3.69777e-13)
(-5.54489e-12 -3.04323e-13 7.6436e-12)
(-5.62909e-12 -2.33978e-13 7.13102e-12)
(-3.9107e-13 -1.84816e-13 1.87599e-13)
(-5.56437e-12 -3.03365e-13 7.51748e-12)
(-1.27899e-12 -4.80709e-15 -2.50354e-12)
(-1.0324e-12 -1.48329e-14 -2.16041e-12)
(-1.47967e-12 -1.70472e-13 -6.19528e-13)
(-1.12108e-12 -1.65658e-14 -2.30951e-12)
(-1.56419e-12 -1.33264e-13 -8.07915e-13)
(-1.24351e-12 -1.62509e-14 -2.46184e-12)
(-1.15454e-12 -6.42654e-15 -2.35129e-12)
(3.86933e-13 1.39256e-12 2.42429e-12)
(-1.47189e-12 3.81279e-14 -6.87217e-13)
(4.00278e-13 1.04058e-12 7.43371e-13)
(-4.29453e-13 3.29376e-13 -4.20413e-12)
(8.77041e-13 2.41751e-12 2.89922e-12)
(-1.02482e-12 2.31457e-13 9.07331e-13)
(-1.14218e-12 8.83036e-14 -2.38232e-12)
(-1.19474e-12 1.37167e-12 -4.86754e-12)
(7.21767e-14 5.12556e-14 -1.73273e-12)
(6.59246e-13 7.43754e-13 -1.04919e-12)
(-1.53547e-12 -2.60398e-13 -1.13004e-11)
(1.90147e-13 1.19048e-12 -3.61531e-12)
(6.08716e-13 9.07731e-13 -1.73269e-12)
(-2.15114e-12 5.42374e-14 -8.84331e-12)
(1.32896e-11 6.77143e-11 1.58119e-10)
(3.52277e-12 1.66755e-11 5.80716e-11)
(1.23893e-11 7.15724e-11 1.68501e-10)
(1.7947e-13 1.29323e-11 5.89591e-11)
(1.46645e-12 4.37904e-11 1.70406e-10)
(2.41024e-11 5.83719e-11 1.7374e-10)
(1.69265e-13 1.64435e-11 5.16573e-11)
(2.97332e-10 4.72222e-10 1.02748e-10)
(3.83116e-10 5.99575e-10 5.76651e-11)
(4.13827e-10 5.12969e-10 2.56967e-11)
(3.74654e-10 4.75417e-10 5.97607e-11)
(3.69707e-10 4.54325e-10 6.12317e-11)
(3.7212e-10 5.64731e-10 4.74374e-11)
(3.16232e-10 5.1788e-10 7.23461e-11)
(1.88953e-11 1.65031e-10 1.35977e-10)
(7.42871e-12 5.05345e-11 4.94617e-11)
(8.05326e-11 3.06374e-10 1.35456e-10)
(1.22374e-11 5.18932e-11 4.2424e-11)
(2.19806e-11 1.54127e-10 1.55434e-10)
(7.05608e-11 1.64194e-10 1.20264e-10)
(3.97908e-12 4.61456e-11 4.35166e-11)
(-5.99753e-13 -1.412e-12 4.59474e-12)
(1.89728e-12 -8.91765e-13 8.47716e-12)
(-1.17528e-12 -1.07616e-12 3.2496e-12)
(1.40709e-12 -4.49506e-13 6.91684e-12)
(-8.92485e-13 -1.39885e-12 2.42311e-12)
(-1.32321e-12 -8.87437e-13 2.18372e-12)
(2.82596e-10 4.37406e-10 -2.15229e-11)
(3.82587e-10 4.01199e-10 -1.87199e-11)
(3.58697e-10 4.86846e-10 -2.00854e-11)
(3.108e-10 3.47737e-10 -1.94959e-11)
(3.13166e-10 3.51386e-10 -1.95086e-11)
(3.61006e-10 4.90343e-10 -2.05855e-11)
(2.80992e-10 4.34752e-10 -2.08507e-11)
(2.84391e-10 4.51618e-10 -2.37241e-11)
(3.85728e-10 4.16667e-10 -2.17782e-11)
(3.1599e-10 3.69012e-10 -2.22153e-11)
(3.62623e-10 5.10002e-10 -2.28949e-11)
(2.82716e-10 4.54879e-10 -2.37601e-11)
(3.1699e-10 3.65479e-10 -2.25222e-11)
(3.62448e-10 5.05277e-10 -2.27968e-11)
(1.72732e-11 5.31273e-11 4.92704e-11)
(5.24784e-11 1.63588e-10 1.54528e-10)
(-1.33981e-11 2.72564e-11 -2.57236e-12)
(-4.65937e-12 2.54803e-11 -8.90649e-13)
(-3.01437e-12 1.01972e-11 -3.31879e-13)
(-5.41736e-12 2.68862e-11 -5.54907e-13)
(-7.06305e-12 1.00752e-11 2.2971e-14)
(1.6461e-13 -1.63567e-12 5.8869e-12)
(3.9443e-12 -2.05644e-12 1.29699e-11)
(1.4662e-12 -1.66096e-12 7.78232e-12)
(5.36315e-12 -1.83227e-12 1.63318e-11)
(8.43238e-12 -1.26997e-13 2.16833e-11)
(4.53444e-12 -6.95225e-13 1.09231e-11)
(2.6815e-10 4.8323e-10 -2.16408e-11)
(3.74057e-10 4.40834e-10 -1.74358e-11)
(3.52861e-10 5.49164e-10 -1.88565e-11)
(3.03133e-10 3.92564e-10 -1.76515e-11)
(2.70101e-10 4.87501e-10 -2.07487e-11)
(2.99372e-10 3.8551e-10 -1.96442e-11)
(3.49177e-10 5.41923e-10 -1.96598e-11)
(2.7757e-10 4.62367e-10 -2.35614e-11)
(3.82043e-10 4.25395e-10 -2.2089e-11)
(3.12543e-10 3.69697e-10 -2.27459e-11)
(3.59784e-10 5.13936e-10 -2.30907e-11)
(2.80322e-10 4.58333e-10 -2.37081e-11)
(3.10178e-10 3.72822e-10 -2.20011e-11)
(3.5851e-10 5.18322e-10 -2.27842e-11)
(-4.22841e-12 -1.98477e-13 -7.71769e-12)
(-6.1632e-13 -1.43646e-13 -4.79455e-13)
(-4.29791e-12 -1.99715e-13 -8.01468e-12)
(4.11123e-10 4.2616e-10 5.94095e-11)
(4.1146e-10 4.18665e-10 3.1942e-11)
(4.25024e-10 6.54643e-10 4.15622e-11)
(4.15629e-10 6.25066e-10 2.24607e-12)
(3.04953e-10 5.30426e-10 4.8503e-11)
(3.83061e-10 6.13496e-10 4.02843e-11)
(4.03704e-10 5.199e-10 4.64377e-11)
(3.6447e-10 4.68942e-10 4.70407e-11)
(3.12576e-10 5.26074e-10 5.81159e-11)
(3.66754e-10 6.00224e-10 4.12317e-11)
(3.49227e-10 4.59087e-10 4.51794e-11)
(2.84814e-10 5.21896e-10 1.59412e-11)
(3.90364e-10 4.99785e-10 1.7552e-11)
(3.57429e-10 5.83585e-10 1.07186e-11)
(3.26267e-10 4.35244e-10 1.21808e-11)
(3.57355e-10 5.88154e-10 1.48221e-11)
(3.26888e-10 4.39719e-10 1.77058e-11)
(2.85429e-10 5.18367e-10 1.12734e-11)
(4.38087e-10 6.72815e-10 3.22232e-11)
(4.2319e-10 6.61395e-10 3.814e-11)
(4.2556e-10 6.44558e-10 9.92073e-12)
(4.24048e-10 6.48862e-10 1.46667e-11)
(3.99852e-10 4.17653e-10 5.20366e-11)
(3.86716e-10 4.09514e-10 5.11966e-11)
(3.59291e-10 3.82351e-10 1.35447e-11)
(3.60805e-10 3.87072e-10 1.94911e-11)
(-9.10944e-13 -6.53859e-13 1.61456e-12)
(4.79989e-13 -6.38363e-13 5.67693e-12)
(-8.61671e-13 -3.83409e-13 1.64219e-12)
(6.12043e-14 -2.61163e-13 4.56926e-12)
(-1.09899e-12 -3.59625e-13 1.10779e-12)
(-1.11563e-12 -2.22358e-13 9.71765e-13)
(-3.68774e-12 -3.48144e-13 -6.65314e-12)
(3.13975e-13 -4.45393e-13 1.50844e-12)
(-3.55963e-12 -4.26452e-13 -6.59776e-12)
(-1.89483e-12 -1.73523e-12 -1.24819e-12)
(1.86294e-12 -1.18479e-12 5.94189e-12)
(-1.93223e-12 -1.74555e-12 -2.42204e-12)
(-2.38563e-12 -2.00755e-13 -2.61397e-12)
(-9.82395e-13 -3.79056e-13 4.77232e-13)