/*--------------------------------*- C++ -*----------------------------------*\
| =========                 |                                                 |
| \\      /  F ield         | OpenFOAM: The Open Source CFD Toolbox           |
|  \\    /   O peration     | Version:  2012                                  |
|   \\  /    A nd           | Website:  www.openfoam.com                      |
|    \\/     M anipulation  |                                                 |
\*---------------------------------------------------------------------------*/
FoamFile
{
    version     2.0;
    format      ascii;
    class       volVectorField;
    location    "0.108/solid";
    object      D_0_0;
}
// * * * * * * * * * * * * * * * * * * * * * * * * * * * * * * * * * * * * * //

dimensions      [0 1 0 0 0 0 0];


internalField   nonuniform List<vector> 
3124
(
(-1.07404e-11 7.92249e-11 6.43283e-11)
(8.86926e-13 1.4815e-12 1.13864e-12)
(6.029e-12 -2.48871e-12 3.35005e-11)
(5.95737e-11 2.53144e-10 -3.32231e-11)
(7.0673e-12 -9.71109e-13 6.33096e-11)
(8.90583e-13 1.23053e-12 1.18708e-13)
(7.0634e-12 -2.25422e-12 3.47576e-11)
(4.70208e-11 2.65075e-10 -3.74871e-11)
(5.51375e-12 -2.52252e-12 6.02175e-11)
(-9.05635e-13 1.15768e-11 2.6e-11)
(2.38706e-11 6.19587e-11 8.92722e-11)
(-2.89698e-11 3.02396e-10 1.55965e-11)
(-4.36723e-12 -6.98032e-12 4.95053e-11)
(1.75236e-12 -1.45782e-12 1.90605e-11)
(-5.63835e-12 9.86774e-12 2.32515e-11)
(1.88937e-12 -2.87767e-12 4.56172e-11)
(9.13139e-12 3.26451e-11 9.19969e-11)
(2.24639e-13 -6.20626e-13 4.19512e-11)
(6.88651e-12 1.61569e-12 4.05133e-11)
(-1.15235e-11 2.97099e-10 -1.60089e-11)
(7.70139e-13 -2.36157e-12 3.60693e-11)
(4.12875e-13 -2.01539e-12 3.46818e-11)
(1.77971e-12 -1.35496e-12 1.86532e-11)
(3.7118e-10 6.55577e-10 8.40482e-11)
(1.65759e-11 5.84022e-11 5.31377e-11)
(-3.78132e-12 8.51352e-11 6.02891e-11)
(-2.16846e-11 2.12562e-10 1.41743e-10)
(-3.99562e-11 7.91764e-10 2.88393e-10)
(8.24475e-12 4.15595e-11 4.31442e-11)
(7.94234e-11 1.74765e-10 1.13713e-10)
(4.71237e-12 -1.67405e-12 1.70294e-11)
(3.2328e-12 -3.63517e-12 2.64604e-11)
(4.13456e-12 -1.12582e-12 1.40728e-11)
(3.93726e-10 4.42166e-10 -4.33316e-11)
(5.8422e-11 1.76937e-10 -2.92812e-11)
(1.82622e-10 9.78201e-10 -6.56427e-11)
(6.79009e-11 2.44529e-10 -2.78423e-11)
(3.82744e-10 4.82878e-10 -5.66348e-11)
(2.16476e-10 9.37885e-10 -4.95141e-11)
(6.32817e-11 1.69609e-10 -2.56248e-11)
(-4.53006e-12 9.10834e-11 6.3227e-11)
(1.99393e-11 -9.66237e-12 8.03483e-11)
(-2.96819e-12 3.01293e-12 -2.63895e-13)
(5.22099e-12 8.03774e-12 1.59499e-12)
(-1.01442e-11 1.53746e-11 1.36596e-11)
(1.44665e-11 2.10904e-12 4.50956e-11)
(5.51616e-12 -2.10343e-12 1.88485e-11)
(1.10831e-11 4.39293e-13 3.27314e-11)
(3.3725e-10 5.37708e-10 -5.60731e-11)
(3.02864e-11 2.77694e-10 -3.69948e-11)
(4.82244e-11 1.85432e-10 -3.21855e-11)
(1.67821e-10 1.00125e-09 -6.84626e-11)
(3.76315e-10 4.86983e-10 -5.82545e-11)
(1.04213e-10 1.07383e-09 -6.52258e-11)
(3.66692e-11 1.94957e-10 -3.27382e-11)
(3.65113e-12 -5.7245e-12 5.01495e-11)
(-6.24704e-13 -1.18052e-12 3.0257e-11)
(1.11135e-12 -7.92516e-13 1.59556e-11)
(4.20095e-13 -3.00728e-13 2.42846e-12)
(-1.1763e-12 1.40137e-11 1.50864e-11)
(-7.03322e-12 1.37927e-11 8.15315e-11)
(2.3236e-11 3.99963e-11 4.92428e-11)
(5.44835e-11 6.64586e-11 4.54208e-11)
(-1.13815e-11 5.98335e-11 7.351e-11)
(2.94719e-12 1.62059e-12 8.56065e-11)
(2.56131e-11 1.10581e-09 2.16755e-11)
(2.42084e-11 5.3782e-11 5.34094e-11)
(3.59604e-10 6.61245e-10 7.10397e-11)
(-3.10845e-11 2.82923e-10 8.16894e-11)
(-4.93528e-11 1.12392e-09 -7.10267e-12)
(2.01908e-11 2.21972e-10 8.68335e-12)
(-7.26287e-11 1.02251e-09 1.44575e-10)
(3.02929e-10 6.19498e-10 -3.69399e-12)
(3.21274e-11 2.17475e-10 6.08294e-11)
(-1.83777e-11 1.4062e-09 -1.40909e-11)
(-4.97798e-11 1.24868e-09 1.03277e-10)
(-9.10478e-12 4.75949e-12 8.43373e-11)
(-6.80163e-12 -5.50563e-12 7.79626e-11)
(3.33575e-11 4.67679e-11 7.27741e-11)
(3.00488e-11 7.30978e-11 1.18369e-12)
(3.79251e-11 7.58615e-11 2.98812e-11)
(2.85534e-12 -1.27571e-12 1.25896e-11)
(2.27362e-12 -7.11172e-13 1.04211e-11)
(3.62641e-12 -3.6838e-12 2.50838e-11)
(1.6242e-12 -5.9596e-13 5.40672e-12)
(3.38567e-12 -1.38926e-12 1.13504e-11)
(2.24982e-13 -4.89667e-13 3.78259e-12)
(1.65835e-12 -8.74351e-13 8.53548e-12)
(4.09735e-11 5.47399e-11 -1.42445e-11)
(4.18682e-11 4.99087e-11 -1.21381e-11)
(2.1438e-10 1.24865e-09 -5.62472e-11)
(2.49786e-10 1.20783e-09 -4.44747e-11)
(3.94864e-10 4.3869e-10 -4.13232e-11)
(7.30081e-11 2.38213e-10 -2.3615e-11)
(2.23658e-10 9.31431e-10 -4.77742e-11)
(6.51173e-11 1.63626e-10 -2.16652e-11)
(2.57548e-10 1.20103e-09 -4.26551e-11)
(4.28424e-11 4.84762e-11 -1.03824e-11)
(1.82384e-11 6.18875e-11 7.76897e-11)
(4.20738e-11 8.81165e-12 7.41787e-11)
(-6.79258e-12 4.03278e-12 4.74048e-12)
(-1.58279e-11 1.19868e-11 7.03705e-11)
(-1.66593e-11 1.49752e-11 2.5028e-11)
(9.56257e-12 1.03488e-11 -2.79659e-12)
(-6.72539e-12 1.88922e-11 2.10809e-11)
(-1.41277e-11 3.99496e-12 7.31559e-11)
(3.99325e-11 1.70837e-11 9.0917e-12)
(-1.17035e-11 1.51552e-11 3.14444e-11)
(-1.01122e-12 -2.45455e-12 5.1963e-11)
(-3.61216e-12 2.96081e-12 7.06552e-11)
(8.92172e-12 1.01126e-11 3.37288e-11)
(3.59933e-12 -1.68572e-12 1.42807e-11)
(7.99243e-12 8.81242e-13 2.53999e-11)
(-8.24037e-12 -1.43902e-12 6.09263e-11)
(6.05291e-12 9.07299e-12 2.41424e-11)
(5.20242e-11 6.8951e-12 6.4909e-12)
(3.32891e-10 5.45708e-10 -5.34629e-11)
(1.01858e-11 2.88052e-10 -3.07994e-11)
(-2.14626e-11 1.10758e-09 -2.96624e-11)
(2.3081e-11 2.15291e-10 -1.48462e-11)
(3.10394e-10 6.1492e-10 -1.36787e-11)
(7.57791e-11 1.07998e-09 -5.70155e-11)
(2.91626e-11 2.05605e-10 -2.81441e-11)
(3.85067e-11 5.66716e-11 -1.55752e-11)
(3.54532e-11 6.267e-11 -1.58222e-11)
(1.99477e-10 1.2827e-09 -6.01079e-11)
(1.38049e-10 1.3825e-09 -5.37449e-11)
(9.31604e-12 1.3799e-09 -2.65393e-11)
(1.08294e-10 1.38301e-09 -4.58344e-11)
(3.21816e-11 7.206e-11 -4.59705e-12)
(3.24294e-11 6.53848e-11 -1.5352e-11)
(2.84092e-12 -5.56286e-12 4.43976e-11)
(-4.13741e-13 -1.344e-12 3.11718e-11)
(1.08752e-12 -8.29027e-13 1.6206e-11)
(1.38507e-12 -5.30921e-13 4.89384e-12)
(5.31238e-13 -3.17107e-13 2.70506e-12)
(-8.07376e-13 -2.1708e-13 1.1331e-12)
(6.70265e-15 -4.0936e-13 3.26328e-12)
(-7.01839e-13 -2.5158e-13 1.39051e-12)
(2.33531e-10 1.00166e-09 -4.57274e-11)
(-4.86537e-12 -6.90716e-13 -1.29748e-12)
(2.4242e-12 3.81579e-12 5.25415e-13)
(1.89417e-12 -1.62125e-12 2.5991e-11)
(3.90606e-12 -2.55684e-12 3.08042e-11)
(1.54068e-12 -1.64946e-12 2.46724e-11)
(1.04339e-11 8.10545e-13 6.75792e-11)
(6.89253e-12 1.01259e-11 -1.51558e-11)
(2.17343e-13 7.09542e-13 4.17106e-13)
(2.13879e-12 4.06917e-12 1.34065e-12)
(7.25487e-13 4.02117e-12 -3.12398e-14)
(1.10762e-11 -1.31749e-12 3.92584e-11)
(1.89239e-12 -1.84741e-12 2.66485e-11)
(2.34756e-12 -1.89403e-12 3.01222e-11)
(5.51769e-12 -3.47343e-12 5.74846e-11)
(5.03222e-11 1.77626e-11 1.75857e-10)
(3.71003e-12 1.24451e-11 2.24204e-11)
(-2.08085e-12 2.2597e-11 5.43964e-11)
(-1.27531e-12 -7.6336e-12 7.40229e-11)
(-5.03824e-12 3.71848e-12 2.31034e-10)
(1.00396e-11 2.48691e-11 4.82351e-11)
(1.67157e-12 -2.5202e-12 6.13212e-11)
(-2.53012e-11 1.67496e-10 3.71173e-10)
(3.5365e-11 6.47086e-11 9.39719e-11)
(8.96594e-11 -2.8966e-11 3.58401e-10)
(2.12283e-11 3.60371e-11 9.35143e-11)
(-4.08872e-11 4.30897e-10 2.20276e-10)
(7.21125e-11 9.98448e-11 2.77545e-10)
(4.14355e-11 5.75845e-11 9.05955e-11)
(6.87481e-12 1.71393e-11 3.16167e-10)
(1.05801e-11 1.51325e-11 1.48729e-10)
(-9.38075e-12 -1.03025e-11 6.36096e-11)
(-8.71622e-12 -9.12992e-12 5.75334e-11)
(4.4982e-12 1.15067e-11 2.32072e-10)
(3.18968e-12 1.95242e-11 1.89861e-10)
(-1.0109e-11 -1.05554e-11 7.53293e-11)
(2.4019e-12 -2.21573e-12 2.06931e-11)
(-1.40824e-12 -9.65989e-13 1.42827e-11)
(-1.07946e-12 -1.52937e-12 1.56221e-11)
(1.12099e-12 6.82204e-11 9.82054e-11)
(2.86086e-11 -3.10805e-11 3.85874e-10)
(1.44503e-10 4.60876e-10 2.08896e-10)
(-1.06445e-11 5.85552e-12 1.29007e-10)
(-8.06964e-12 7.93193e-12 1.73619e-11)
(-1.26351e-11 1.89329e-11 4.75262e-11)
(-1.98089e-12 -7.2094e-12 6.96185e-11)
(-4.58891e-12 3.68683e-12 2.10995e-10)
(-1.73249e-11 1.5674e-11 3.55425e-11)
(-3.22169e-12 -3.93515e-12 4.25733e-11)
(1.79705e-11 2.02542e-11 1.87014e-10)
(1.54038e-11 1.59397e-11 1.44844e-10)
(-5.07245e-12 -6.32979e-12 5.53884e-11)
(7.88644e-12 2.05503e-12 4.44273e-11)
(5.42422e-12 1.20858e-11 2.13074e-10)
(4.25573e-11 2.62785e-11 1.43712e-10)
(-9.35673e-13 -2.29318e-13 5.0887e-11)
(8.1241e-13 3.36318e-11 1.21463e-10)
(1.26037e-11 1.80987e-11 1.413e-10)
(-5.68497e-12 -2.50149e-12 4.69621e-11)
(4.28125e-12 4.89934e-12 3.68123e-11)
(2.22113e-12 2.34066e-11 1.75474e-10)
(1.92231e-11 3.65922e-11 1.21231e-10)
(-2.71417e-12 6.42823e-12 4.07401e-11)
(7.05351e-11 4.10908e-11 1.1024e-10)
(1.86116e-11 1.83927e-11 1.38466e-10)
(1.49407e-11 4.9076e-12 4.10035e-11)
(1.09963e-11 5.61693e-12 3.63809e-11)
(5.03563e-11 2.72132e-11 1.44529e-10)
(2.74818e-11 3.58424e-11 1.13777e-10)
(2.12222e-11 7.6931e-12 3.66217e-11)
(1.22028e-12 -3.03818e-12 3.76947e-11)
(1.22704e-13 -1.75591e-12 3.33936e-11)
(1.39381e-12 -1.07373e-12 1.74971e-11)
(-1.48598e-12 -8.9461e-13 1.3939e-11)
(-1.7267e-12 -7.18579e-13 1.29378e-11)
(4.80323e-11 3.32568e-10 2.0522e-10)
(1.87829e-10 7.16584e-10 1.51694e-10)
(3.00385e-10 4.72096e-10 3.41744e-11)
(2.11073e-10 4.74092e-10 1.27065e-10)
(1.48287e-10 3.10727e-10 1.77739e-10)
(1.59833e-10 5.19322e-10 1.97202e-10)
(1.0507e-10 5.41367e-10 1.42598e-10)
(-3.14379e-12 1.83593e-10 1.68893e-10)
(1.25684e-12 1.04224e-10 1.41265e-10)
(5.0397e-12 4.12142e-11 4.40719e-11)
(2.80968e-12 5.8117e-11 4.71808e-11)
(2.29733e-11 1.39866e-10 1.30631e-10)
(2.95571e-11 2.11669e-10 1.39549e-10)
(-5.06829e-12 5.1398e-11 5.23343e-11)
(-4.32106e-12 -3.28278e-12 -4.48732e-12)
(-5.33038e-13 -1.47459e-12 2.35741e-11)
(3.85231e-12 -6.67465e-13 1.43774e-11)
(-1.57987e-12 -1.43388e-12 2.19277e-11)
(3.92493e-12 -2.75733e-12 2.99729e-11)
(5.95441e-13 -2.53231e-12 2.0837e-11)
(1.37106e-12 -1.85283e-12 2.395e-11)
(3.5774e-12 -5.39763e-13 1.38735e-11)
(-1.91694e-12 -2.2618e-12 1.82876e-11)
(-1.54303e-12 -1.56603e-12 2.11793e-11)
(1.76172e-10 4.89175e-10 -5.06715e-11)
(3.93883e-10 4.59961e-10 -4.90689e-11)
(2.74364e-10 6.37916e-10 -4.91339e-11)
(2.31163e-10 3.4617e-10 -4.37228e-11)
(2.30212e-10 3.55894e-10 -4.72139e-11)
(2.70878e-10 6.4769e-10 -5.38069e-11)
(1.80244e-10 4.79799e-10 -4.59575e-11)
(1.7116e-10 4.95391e-10 -5.34404e-11)
(3.91264e-10 4.64129e-10 -5.1167e-11)
(2.19434e-10 3.73181e-10 -5.24727e-11)
(2.5546e-10 6.73029e-10 -6.22136e-11)
(1.61768e-10 5.08622e-10 -5.70609e-11)
(2.26402e-10 3.62136e-10 -5.00827e-11)
(2.64988e-10 6.57379e-10 -5.6872e-11)
(1.37753e-11 7.2547e-12 7.07801e-11)
(8.92411e-14 7.61834e-12 -1.87355e-11)
(4.91578e-13 2.17871e-12 -7.14442e-13)
(-8.43445e-12 8.69368e-12 3.39445e-12)
(-1.99694e-13 4.15017e-12 -9.16919e-12)
(-4.57685e-12 1.02519e-11 1.58651e-11)
(-2.49758e-12 6.58071e-12 -5.04213e-13)
(1.23065e-11 -3.81601e-12 -1.28788e-11)
(1.50094e-11 1.33972e-11 -7.11664e-12)
(4.13362e-11 3.08891e-11 1.16384e-13)
(2.3345e-12 1.68772e-11 6.76789e-12)
(2.13057e-11 3.29062e-11 2.48136e-11)
(-3.79834e-13 5.29819e-12 8.10077e-13)
(7.20685e-12 1.28216e-11 -4.10117e-12)
(-7.38717e-12 2.82887e-11 2.87654e-11)
(-9.7543e-12 1.18244e-11 8.50461e-12)
(-1.09118e-12 1.42922e-11 7.71144e-12)
(-4.32183e-12 1.31142e-11 2.74471e-11)
(1.62638e-11 3.03953e-11 2.09514e-11)
(-3.29597e-12 1.14196e-11 4.04494e-12)
(1.16226e-11 -5.17043e-13 4.08153e-11)
(3.13351e-12 1.96467e-12 3.49577e-11)
(2.63176e-12 -1.30308e-12 3.14628e-11)
(-3.13512e-14 -1.57324e-12 2.41941e-11)
(1.01998e-11 -1.92131e-12 2.75054e-11)
(6.15733e-13 -1.6349e-12 2.67558e-11)
(2.52433e-12 5.56738e-13 3.14457e-11)
(1.07583e-11 -1.39895e-12 2.82219e-11)
(7.49421e-13 -1.21937e-12 2.77595e-11)
(1.23736e-10 5.47969e-10 -6.15528e-11)
(3.49827e-10 5.10457e-10 -6.03863e-11)
(1.96461e-10 7.49398e-10 -6.45725e-11)
(1.7608e-10 4.12948e-10 -5.66136e-11)
(1.1046e-10 5.63423e-10 -6.01556e-11)
(1.84589e-10 3.97784e-10 -5.68316e-11)
(2.11071e-10 7.31243e-10 -6.61255e-11)
(1.36438e-10 5.36701e-10 -6.12681e-11)
(3.5811e-10 5.0525e-10 -6.03871e-11)
(2.09297e-10 3.79534e-10 -5.4381e-11)
(2.42667e-10 6.90103e-10 -6.44601e-11)
(1.51417e-10 5.18684e-10 -5.8833e-11)
(1.96453e-10 3.9071e-10 -5.53598e-11)
(2.27094e-10 7.12001e-10 -6.72471e-11)
(4.59235e-12 -4.44436e-12 5.47147e-11)
(-7.89816e-13 -1.00872e-12 2.94519e-11)
(8.82494e-13 -6.11822e-13 1.52756e-11)
(-2.02191e-12 -5.3629e-13 1.16381e-11)
(-4.86783e-12 -4.74854e-13 9.38954e-12)
(3.00702e-10 4.10107e-10 8.72267e-11)
(1.50345e-10 2.07752e-10 1.66944e-10)
(-2.75095e-11 1.64762e-12 1.55653e-10)
(2.09437e-12 1.20585e-11 1.62347e-11)
(-4.93348e-12 2.63193e-11 4.04882e-11)
(2.16135e-11 4.091e-11 4.34538e-11)
(-5.67535e-11 7.47022e-11 1.98023e-10)
(2.90739e-12 2.14275e-11 3.8008e-11)
(2.05766e-11 3.27078e-12 2.32032e-11)
(4.41126e-11 2.76682e-11 2.29521e-10)
(-4.62002e-12 1.93715e-11 7.13414e-11)
(1.84517e-12 1.31076e-11 3.05446e-10)
(9.64405e-12 2.14358e-11 8.52893e-11)
(2.04223e-11 2.78341e-11 3.48509e-10)
(-3.23874e-12 8.37887e-12 2.52988e-10)
(1.30821e-11 2.67351e-11 6.92541e-11)
(6.8602e-13 5.253e-11 2.18643e-10)
(5.58003e-11 1.18935e-10 1.03368e-10)
(6.07496e-12 2.94451e-11 4.29258e-11)
(2.73189e-11 3.62439e-11 7.27366e-11)
(6.50036e-11 1.30056e-10 1.49026e-10)
(3.08753e-11 3.68879e-11 3.32664e-10)
(1.99711e-11 3.24848e-11 5.32115e-11)
(2.51151e-10 2.84039e-10 3.95851e-11)
(2.10393e-11 7.01773e-11 6.20537e-11)
(-1.71587e-11 2.17474e-10 1.3031e-10)
(2.60359e-10 9.29672e-10 7.78639e-11)
(1.11708e-10 4.94876e-10 1.77386e-10)
(1.23195e-10 1.71192e-10 2.92657e-10)
(2.26427e-11 1.98804e-11 6.27018e-11)
(-7.65431e-11 1.0151e-10 3.93662e-10)
(-1.06828e-11 5.65506e-11 5.40361e-11)
(4.66098e-11 2.77703e-10 1.79633e-10)
(7.00743e-11 -2.44474e-10 3.34621e-10)
(3.31409e-11 6.5532e-11 6.03366e-11)
(6.91204e-12 1.15472e-10 3.9144e-10)
(8.1552e-12 1.29753e-11 9.23134e-11)
(1.25095e-11 4.49012e-11 2.89198e-10)
(8.18921e-12 2.35093e-11 9.98949e-11)
(2.33687e-11 6.30189e-11 3.95149e-10)
(1.97194e-11 5.19895e-11 2.74254e-10)
(1.67175e-11 4.25589e-11 1.00191e-10)
(1.74374e-10 9.77815e-10 9.2831e-11)
(-4.11233e-11 3.23884e-10 1.88465e-10)
(8.71118e-11 5.00303e-10 2.0513e-10)
(4.81028e-11 1.65451e-10 3.1167e-10)
(5.98743e-11 1.52743e-10 7.86751e-11)
(6.05051e-12 4.98061e-11 4.62622e-11)
(2.46438e-11 5.32506e-11 8.36605e-11)
(2.04876e-11 1.70566e-10 2.04562e-10)
(2.91595e-11 6.79612e-11 3.79965e-10)
(2.57354e-11 6.86724e-11 7.23251e-11)
(6.72282e-11 6.13181e-10 6.28067e-11)
(1.66526e-10 7.9582e-10 8.7966e-11)
(3.10061e-10 6.45535e-10 4.51713e-11)
(1.9765e-10 4.86487e-10 8.52099e-11)
(9.41612e-11 5.78371e-10 1.13324e-10)
(1.40703e-10 8.24202e-10 4.86387e-11)
(1.70683e-10 4.91244e-10 4.71698e-11)
(5.88636e-11 6.17277e-10 3.01927e-11)
(3.06969e-10 6.42291e-10 3.1554e-11)
(1.32784e-10 8.1181e-10 -5.98415e-12)
(1.52574e-10 4.73868e-10 1.34254e-13)
(1.30374e-10 8.23649e-10 1.80384e-11)
(1.5589e-10 4.83514e-10 2.50783e-11)
(5.99872e-11 6.10001e-10 -3.4537e-13)
(2.45243e-10 9.76227e-10 5.26386e-11)
(2.18332e-10 1.01334e-09 2.65267e-11)
(-3.99616e-11 1.41331e-09 1.0729e-11)
(1.43003e-10 1.10111e-09 -1.52217e-11)
(1.29392e-10 1.11988e-09 1.62641e-11)
(1.52334e-10 1.03334e-09 7.47439e-11)
(-4.37885e-11 1.38519e-09 3.44872e-11)
(1.31567e-10 1.11331e-09 2.84146e-11)
(2.25164e-10 9.87083e-10 -1.26268e-11)
(2.16132e-10 1.01275e-09 1.53906e-11)
(1.00311e-11 1.87005e-11 3.45997e-10)
(-1.09715e-11 -5.03129e-12 7.78581e-11)
(2.31806e-12 1.38706e-11 3.08024e-10)
(1.92585e-12 1.13157e-11 9.26511e-11)
(1.89889e-11 2.68476e-11 3.60002e-10)
(3.29585e-12 1.12443e-11 2.60086e-10)
(-5.71571e-12 -4.86694e-13 8.9604e-11)
(9.81424e-12 2.233e-11 3.3929e-10)
(-8.52425e-12 -8.52312e-12 6.70539e-11)
(8.62801e-12 3.91883e-11 2.66814e-10)
(-2.87305e-13 6.96989e-12 9.56633e-11)
(1.93951e-11 4.99678e-11 3.88661e-10)
(2.83073e-12 2.39655e-11 2.09808e-10)
(-6.17989e-12 -5.01037e-12 8.66466e-11)
(1.39314e-11 2.43809e-11 3.63131e-10)
(6.50627e-11 1.20687e-10 2.07525e-10)
(1.90547e-11 2.66919e-11 9.05282e-11)
(1.58503e-11 3.1032e-11 9.40341e-11)
(2.57428e-11 3.64567e-11 3.56659e-10)
(2.74366e-11 5.51561e-11 3.81864e-10)
(4.55721e-12 1.13276e-11 9.60505e-11)
(2.71e-10 3.90892e-10 7.40376e-11)
(2.35007e-10 3.8811e-10 4.04847e-11)
(1.59416e-10 2.56721e-10 3.23404e-12)
(3.03102e-11 7.40099e-11 8.1776e-12)
(1.56848e-10 2.59806e-10 2.0914e-11)
(2.21256e-10 3.70943e-10 -8.49768e-13)
(2.2667e-10 3.81836e-10 2.81206e-11)
(1.64587e-10 2.63177e-10 7.47589e-11)
(3.4474e-11 7.32788e-11 1.62704e-11)
(1.75479e-10 2.68029e-10 3.38489e-11)
(1.0171e-12 -2.05966e-13 1.42927e-12)
(2.35752e-12 -4.7944e-13 1.082e-11)
(5.6196e-13 -3.2966e-14 8.26174e-13)
(2.02787e-12 -3.55483e-13 1.02017e-11)
(5.44439e-13 -5.46473e-14 4.34472e-13)
(5.77168e-13 3.63349e-15 8.07711e-13)
(2.41356e-12 -2.59836e-12 2.14219e-11)
(2.08483e-13 -2.63644e-12 1.95923e-11)
(-8.93702e-13 -1.8684e-12 1.62765e-11)
(-4.33315e-12 -8.24805e-13 1.18951e-11)
(2.46482e-12 -1.00348e-12 7.26687e-12)
(-4.04197e-12 -1.35389e-12 1.31548e-11)
(-2.47796e-12 -2.43385e-12 1.70862e-11)
(2.92765e-12 -1.25902e-12 8.40837e-12)
(-3.85912e-12 -1.68788e-12 1.37563e-11)
(-2.21529e-13 -4.15739e-14 -9.58689e-13)
(8.27735e-13 -7.41791e-13 5.37616e-12)
(9.379e-14 -4.27263e-14 -5.14729e-13)
(5.16382e-13 -5.23199e-14 2.71964e-13)
(1.19673e-12 -9.05324e-13 6.35903e-12)
(1.83548e-13 -5.77122e-14 -3.75694e-13)
(2.70699e-10 2.60198e-10 -3.71433e-11)
(2.71886e-10 2.72009e-10 -4.25932e-11)
(1.86579e-10 1.96626e-10 -3.65617e-11)
(4.10968e-11 5.3167e-11 -1.4157e-11)
(1.88171e-10 1.91464e-10 -3.49097e-11)
(2.6267e-10 2.861e-10 -4.75298e-11)
(2.69695e-10 2.74717e-10 -4.35861e-11)
(1.8866e-10 1.80778e-10 -3.00424e-11)
(4.2683e-11 5.14146e-11 -1.25564e-11)
(1.91687e-10 1.86534e-10 -3.23634e-11)
(3.86791e-10 7.91706e-10 -4.61133e-11)
(3.79169e-10 8.05745e-10 -5.07803e-11)
(3.04311e-10 9.6111e-10 -5.94517e-11)
(2.27866e-10 1.22521e-09 -5.11924e-11)
(3.19616e-10 9.30537e-10 -5.33225e-11)
(3.62699e-10 8.37258e-10 -5.73296e-11)
(3.75658e-10 8.0858e-10 -5.25874e-11)
(3.33742e-10 9.15879e-10 -4.65592e-11)
(2.39903e-10 1.21443e-09 -4.73039e-11)
(3.23923e-10 9.26966e-10 -5.11478e-11)
(2.76862e-10 6.30875e-10 -4.64196e-11)
(2.32137e-10 3.40853e-10 -3.99826e-11)
(1.8243e-10 4.75427e-10 -4.31854e-11)
(3.88675e-10 7.89029e-10 -4.40533e-11)
(3.36243e-10 9.13252e-10 -4.47419e-11)
(2.71544e-10 2.57917e-10 -3.59098e-11)
(1.90051e-10 1.76661e-10 -2.71578e-11)
(5.06345e-12 2.12446e-11 6.71221e-11)
(4.8848e-11 -2.67905e-10 3.47909e-10)
(2.55373e-11 4.6958e-11 9.59172e-11)
(7.10227e-11 9.03121e-11 3.34518e-10)
(-1.06611e-11 7.29489e-12 1.04388e-10)
(-8.31915e-12 6.09574e-12 1.06956e-11)
(-1.4261e-11 1.05949e-11 1.14987e-11)
(-8.30811e-12 3.95293e-12 1.07246e-11)
(-6.25794e-12 9.10185e-12 3.1054e-11)
(-1.72867e-11 1.28447e-11 2.27542e-11)
(-3.20454e-12 -2.49723e-12 3.24486e-11)
(-1.05105e-11 9.47575e-12 1.43433e-10)
(-1.55354e-11 1.63627e-11 6.13484e-11)
(-1.61971e-12 1.2388e-11 2.85635e-10)
(-2.03671e-11 1.30113e-11 5.59418e-11)
(-3.86133e-12 7.49417e-12 2.31338e-10)
(-6.77037e-12 1.51251e-11 1.99955e-10)
(-2.04283e-11 1.50994e-11 4.69058e-11)
(-1.03788e-11 1.03701e-11 1.1843e-10)
(-2.85207e-13 2.29297e-11 7.91635e-11)
(-1.65324e-11 1.27059e-11 1.81534e-11)
(-2.07773e-11 1.37914e-11 3.97232e-11)
(-5.91549e-12 1.29645e-11 4.16642e-11)
(-6.62873e-12 1.66421e-11 1.69574e-10)
(-2.03684e-11 1.39413e-11 3.17478e-11)
(5.06183e-11 4.4429e-11 -5.08141e-12)
(1.54779e-12 1.03555e-11 4.70415e-12)
(2.50167e-11 4.33836e-11 1.37042e-11)
(7.58198e-12 1.32884e-11 1.37954e-11)
(7.91234e-11 6.72617e-11 8.71901e-11)
(7.739e-12 3.04934e-11 7.14133e-11)
(2.11918e-12 2.13102e-11 1.18749e-11)
(3.48344e-12 2.49835e-11 2.4145e-11)
(1.66543e-11 4.08899e-11 2.85978e-11)
(4.88002e-11 5.52629e-11 9.29981e-11)
(9.26697e-12 1.96085e-11 2.13566e-10)
(-1.06627e-11 -3.91709e-12 6.70798e-11)
(-5.15228e-13 1.3002e-11 2.88834e-10)
(-1.72946e-11 7.34037e-12 6.06368e-11)
(3.63322e-12 1.15588e-11 2.38874e-10)
(-4.02797e-12 1.74215e-11 2.11109e-10)
(-1.0507e-11 1.43804e-12 5.87745e-11)
(2.36975e-11 2.91626e-11 1.62806e-10)
(1.57448e-11 8.15045e-12 4.12041e-11)
(1.34971e-10 5.23667e-11 9.52671e-11)
(1.48576e-11 1.97267e-11 3.50127e-11)
(6.31247e-11 5.31983e-11 1.0469e-10)
(5.72686e-11 3.04625e-11 1.34109e-10)
(2.7256e-12 8.89258e-12 4.36329e-11)
(-7.08504e-13 2.42034e-11 1.3471e-10)
(5.1787e-12 2.7143e-11 9.06425e-11)
(-1.74143e-11 1.07768e-11 4.49916e-11)
(-1.30594e-12 1.58977e-11 3.40954e-11)
(-3.58599e-12 1.83214e-11 1.81439e-10)
(4.01198e-11 4.60664e-11 1.08876e-10)
(-1.01108e-11 8.65815e-12 4.5778e-11)
(3.04822e-11 1.51062e-10 2.2338e-10)
(-2.86939e-12 2.33868e-11 8.37828e-11)
(1.36949e-12 3.46851e-12 3.46061e-11)
(6.32407e-11 1.03554e-10 3.01732e-10)
(-2.14341e-12 6.3138e-12 3.42221e-11)
(2.27109e-11 1.45912e-10 2.08225e-10)
(2.89371e-12 2.19708e-12 3.11075e-11)
(-2.76917e-12 3.1579e-12 2.74712e-11)
(9.81771e-12 1.23268e-10 1.62926e-10)
(-1.80664e-12 5.73756e-12 3.18386e-11)
(2.95458e-12 -2.12161e-13 3.11975e-12)
(6.90629e-12 -1.79002e-12 2.18578e-11)
(4.53176e-12 -2.37121e-13 4.43294e-12)
(7.4665e-12 -1.28679e-12 2.27086e-11)
(5.93746e-12 -1.00858e-13 6.69667e-12)
(6.37964e-12 -3.669e-13 6.06552e-12)
(-3.33238e-12 4.71827e-11 1.3466e-10)
(-5.88825e-12 -2.9429e-12 5.18316e-11)
(-3.70102e-12 2.76981e-11 1.70554e-10)
(-6.97919e-12 1.52542e-11 5.29762e-11)
(2.33803e-12 2.81587e-11 1.94294e-10)
(-1.68099e-12 6.17781e-11 1.60064e-10)
(-5.29097e-12 1.07189e-11 4.44776e-11)
(4.53552e-12 7.43915e-11 1.07023e-10)
(3.9135e-12 2.73315e-12 1.60795e-11)
(2.1167e-11 4.45481e-11 9.87693e-11)
(-8.20925e-13 1.83683e-12 1.78311e-11)
(3.64541e-12 8.45584e-11 1.12473e-10)
(-2.68559e-12 3.68658e-12 2.40967e-11)
(3.56293e-12 1.48942e-12 5.58991e-12)
(6.54433e-12 1.16893e-10 1.51087e-10)
(-1.79581e-12 1.56057e-12 1.73045e-11)
(9.28114e-11 4.41862e-11 1.04589e-10)
(2.72746e-11 9.34786e-12 3.86256e-11)
(1.53229e-10 4.26357e-11 9.61442e-11)
(6.92248e-11 2.21206e-12 -3.08356e-12)
(7.10179e-11 3.04808e-11 9.44353e-11)
(1.99885e-10 4.32974e-11 4.42493e-11)
(3.52365e-11 9.15343e-12 3.39205e-11)
(7.49407e-11 4.90869e-11 8.98913e-11)
(6.00549e-12 2.50271e-12 1.63382e-11)
(3.03258e-11 4.31602e-11 9.61336e-11)
(1.55247e-11 6.42338e-12 1.65823e-11)
(9.86517e-11 5.24594e-11 8.66379e-11)
(7.02477e-11 2.2018e-12 -5.43046e-12)
(2.12009e-10 5.21823e-11 1.64062e-11)
(4.20366e-11 1.10447e-11 2.66129e-11)
(8.922e-11 5.8305e-10 -4.86422e-11)
(3.27963e-10 5.81118e-10 -4.1977e-11)
(1.84881e-10 7.60653e-10 -5.8186e-11)
(1.71272e-10 4.2437e-10 -5.41722e-11)
(1.00961e-10 5.70551e-10 -5.60681e-11)
(1.73535e-10 7.72744e-10 -5.09011e-11)
(1.6851e-10 4.41669e-10 -4.54085e-11)
(7.96295e-11 5.89475e-10 -3.78728e-11)
(3.23282e-10 5.89241e-10 -3.67264e-11)
(1.4557e-10 7.97378e-10 -2.56408e-11)
(1.57133e-10 4.65407e-10 -1.68248e-11)
(6.75349e-11 6.01857e-10 -2.00775e-11)
(1.60901e-10 7.82898e-10 -3.93751e-11)
(1.63817e-10 4.52054e-10 -3.48518e-11)
(2.29096e-10 3.177e-10 -4.95704e-11)
(2.356e-10 3.00322e-10 -5.00608e-11)
(1.77875e-10 2.00535e-10 -3.82421e-11)
(3.82889e-11 5.82759e-11 -1.55016e-11)
(1.72925e-10 2.04285e-10 -3.92442e-11)
(2.57446e-10 2.88379e-10 -4.8019e-11)
(2.41983e-10 2.97781e-10 -5.01198e-11)
(1.63596e-10 2.16611e-10 -3.91573e-11)
(3.55311e-11 6.05238e-11 -1.63048e-11)
(1.63036e-10 2.08309e-10 -3.95839e-11)
(3.08818e-10 9.3969e-10 -5.83211e-11)
(3.32564e-10 9.07606e-10 -6.21938e-11)
(2.9831e-10 9.73447e-10 -6.12213e-11)
(1.82507e-10 1.32448e-09 -6.22085e-11)
(2.78144e-10 1.02751e-09 -6.40635e-11)
(3.57395e-10 8.47418e-10 -5.88921e-11)
(3.3949e-10 8.93391e-10 -6.14864e-11)
(2.42881e-10 1.07391e-09 -5.7813e-11)
(1.62975e-10 1.36174e-09 -5.94387e-11)
(2.70465e-10 1.04251e-09 -6.39068e-11)
(3.00063e-10 9.41188e-10 -5.65121e-11)
(2.71443e-10 9.5077e-10 -4.59071e-11)
(1.53164e-10 1.09038e-09 -2.30125e-11)
(4.12192e-11 1.36495e-09 -3.33666e-11)
(1.86377e-10 1.069e-09 -4.03876e-11)
(2.33104e-10 9.7796e-10 -2.09221e-11)
(2.62321e-10 9.53397e-10 -4.096e-11)
(2.32426e-10 1.07449e-09 -5.54195e-11)
(7.4981e-11 1.37181e-09 -3.83367e-11)
(1.9837e-10 1.06944e-09 -4.43143e-11)
(2.26551e-10 3.22938e-10 -4.72616e-11)
(2.29185e-10 3.46768e-10 -3.73567e-11)
(1.63946e-10 2.522e-10 -1.04881e-11)
(3.1435e-11 7.032e-11 -1.00265e-11)
(1.62497e-10 2.45301e-10 -2.2659e-11)
(2.23658e-10 3.67333e-10 -1.01504e-11)
(2.26927e-10 3.51614e-10 -3.16082e-11)
(1.59471e-10 2.25667e-10 -3.63911e-11)
(3.32182e-11 6.78774e-11 -1.28608e-11)
(1.65513e-10 2.37227e-10 -3.07638e-11)
(1.90379e-12 -4.21369e-12 4.01188e-11)
(-1.38301e-13 -1.55456e-12 3.2229e-11)
(1.42513e-12 -1.041e-12 1.71756e-11)
(-1.9684e-12 -5.6117e-13 1.18623e-11)
(-1.78684e-12 -6.84764e-13 1.26613e-11)
(-4.39863e-12 -7.77288e-13 1.15689e-11)
(9.70882e-13 -3.92934e-13 3.8701e-12)
(-4.59973e-12 -6.12974e-13 1.0616e-11)
(-4.81847e-12 -4.81045e-13 9.5997e-12)
(8.36609e-13 -3.6845e-13 3.53898e-12)
(-4.6542e-12 -5.95019e-13 1.03537e-11)
(-7.4787e-13 -1.36491e-14 -1.71553e-12)
(-3.06976e-13 -2.70418e-14 -1.07804e-12)
(-3.29619e-13 -3.12333e-13 2.38852e-12)
(-4.76598e-13 -2.73935e-14 -1.34909e-12)
(-4.5867e-13 -2.68945e-13 2.0749e-12)
(-6.91337e-13 -2.54207e-14 -1.64197e-12)
(-5.34441e-13 -1.67918e-14 -1.42809e-12)
(5.50045e-12 7.29467e-12 8.52398e-12)
(-3.57045e-13 1.80823e-12 1.95829e-12)
(2.54912e-12 4.41131e-12 4.28349e-12)
(1.78579e-12 1.97146e-12 1.84564e-12)
(5.72893e-12 7.6913e-12 1.13045e-11)
(1.63176e-12 4.37873e-12 3.73332e-12)
(1.09544e-12 1.92019e-12 3.68852e-12)
(5.55256e-12 6.01369e-12 5.18307e-12)
(7.52638e-13 1.02885e-12 2.20977e-13)
(2.53173e-12 3.51508e-12 2.3711e-12)
(8.00365e-13 1.24771e-12 -4.80356e-12)
(5.23884e-12 6.2607e-12 6.4694e-12)
(2.24852e-12 3.31015e-12 1.7018e-12)
(1.05483e-12 1.73544e-12 -2.29915e-12)
(2.817e-11 9.46632e-11 2.36421e-10)
(9.90117e-12 2.3883e-11 8.72294e-11)
(3.602e-11 1.00625e-10 2.56508e-10)
(1.77612e-12 2.0556e-11 8.53051e-11)
(1.21985e-11 6.26066e-11 2.48913e-10)
(5.01671e-11 8.56956e-11 2.64753e-10)
(2.66995e-12 2.3933e-11 7.67429e-11)
(2.43982e-10 5.79162e-10 1.39951e-10)
(3.22327e-10 7.333e-10 8.89372e-11)
(3.78698e-10 6.28578e-10 5.62809e-11)
(3.25363e-10 5.86951e-10 9.01107e-11)
(3.3234e-10 5.57131e-10 9.42728e-11)
(3.25348e-10 6.89543e-10 7.86761e-11)
(2.53145e-10 6.36147e-10 1.02999e-10)
(-3.49538e-11 2.08699e-10 1.79484e-10)
(-1.17617e-11 6.51581e-11 6.76254e-11)
(3.54526e-11 3.89464e-10 1.84801e-10)
(-3.09875e-12 6.50616e-11 5.70896e-11)
(-4.23795e-11 1.97883e-10 2.10977e-10)
(3.09491e-11 2.06032e-10 1.60989e-10)
(-1.30686e-11 5.88344e-11 5.82865e-11)
(2.29982e-12 -1.90059e-12 1.38507e-11)
(4.4706e-12 -1.27355e-12 1.62067e-11)
(1.60664e-12 -1.57821e-12 1.21094e-11)
(3.54304e-12 -7.83695e-13 1.31426e-11)
(1.3148e-12 -1.82706e-12 9.1792e-12)
(9.6307e-13 -1.33125e-12 9.23208e-12)
(2.89067e-10 4.81878e-10 -4.7904e-11)
(3.94689e-10 4.4828e-10 -4.47942e-11)
(3.68416e-10 5.34295e-10 -4.54689e-11)
(3.23455e-10 3.8795e-10 -4.38679e-11)
(3.24352e-10 3.93825e-10 -4.51499e-11)
(3.69307e-10 5.40215e-10 -4.71774e-11)
(2.89255e-10 4.77011e-10 -4.57919e-11)
(2.78004e-10 5.08026e-10 -5.66217e-11)
(3.85837e-10 4.76097e-10 -5.48103e-11)
(3.12501e-10 4.25548e-10 -5.58545e-11)
(3.54451e-10 5.76049e-10 -5.77341e-11)
(2.73338e-10 5.13989e-10 -5.76192e-11)
(3.16588e-10 4.19079e-10 -5.4749e-11)
(3.57479e-10 5.68261e-10 -5.62025e-11)
(1.32639e-13 6.65737e-11 6.97016e-11)
(-1.04766e-11 2.09541e-10 2.19236e-10)
(8.23683e-13 2.66975e-11 5.16315e-12)
(1.27217e-11 2.56623e-11 3.11875e-12)
(3.28317e-12 1.01977e-11 2.40411e-12)
(9.41387e-12 2.82156e-11 7.82237e-12)
(-8.92863e-13 9.38196e-12 2.34195e-12)
(3.17338e-12 -2.10502e-12 1.54897e-11)
(6.84989e-12 -2.41053e-12 2.16912e-11)
(4.59447e-12 -2.11135e-12 1.77442e-11)
(8.95905e-12 -1.26519e-12 2.85878e-11)
(1.17259e-11 4.06835e-13 3.19028e-11)
(8.13031e-12 -3.15931e-14 2.27542e-11)
(2.25157e-10 5.64228e-10 -6.11025e-11)
(3.39166e-10 5.26133e-10 -5.76746e-11)
(3.04496e-10 6.43663e-10 -5.91767e-11)
(2.63374e-10 4.73324e-10 -5.6541e-11)
(2.21942e-10 5.72086e-10 -5.97162e-11)
(2.65068e-10 4.62371e-10 -5.85396e-11)
(3.06556e-10 6.32311e-10 -5.99259e-11)
(2.60019e-10 5.26888e-10 -5.99688e-11)
(3.71465e-10 4.93487e-10 -5.8973e-11)
(3.05332e-10 4.28037e-10 -5.75149e-11)
(3.47229e-10 5.82674e-10 -5.91425e-11)
(2.66922e-10 5.19752e-10 -5.87944e-11)
(2.99238e-10 4.34302e-10 -5.78587e-11)
(3.42301e-10 5.90475e-10 -5.98303e-11)
(-3.11344e-12 -3.90048e-13 -4.60039e-12)
(3.86028e-13 -2.8679e-13 2.21973e-12)
(-3.22671e-12 -3.81637e-13 -5.02898e-12)
(3.72873e-10 5.30054e-10 9.12735e-11)
(3.84508e-10 5.15377e-10 6.30258e-11)
(3.66619e-10 8.0098e-10 7.24901e-11)
(3.73784e-10 7.63014e-10 2.96011e-11)
(2.20636e-10 6.56989e-10 6.78441e-11)
(3.10635e-10 7.5376e-10 6.47982e-11)
(3.34119e-10 6.52109e-10 6.86046e-11)
(3.04561e-10 5.8403e-10 7.24961e-11)
(2.38099e-10 6.49004e-10 8.31737e-11)
(2.83861e-10 7.42869e-10 6.1554e-11)
(2.79475e-10 5.76802e-10 6.54428e-11)
(1.84925e-10 6.43715e-10 3.61824e-12)
(3.02742e-10 6.27474e-10 7.49653e-12)
(2.57899e-10 7.1623e-10 -6.17224e-12)
(2.41491e-10 5.46239e-10 -3.78721e-12)
(2.5697e-10 7.24686e-10 3.34487e-12)
(2.40855e-10 5.53748e-10 7.41309e-12)
(1.88058e-10 6.36698e-10 -5.99071e-12)
(3.6863e-10 8.2674e-10 5.73983e-11)
(3.42278e-10 8.18145e-10 5.94555e-11)
(3.27199e-10 7.89938e-10 -6.2401e-12)
(3.24203e-10 7.98596e-10 4.29042e-12)
(3.51485e-10 5.25609e-10 7.92958e-11)
(3.29277e-10 5.19949e-10 7.35445e-11)
(2.86156e-10 4.87895e-10 -1.40876e-12)
(2.86586e-10 4.95244e-10 1.04225e-11)
(1.07991e-12 -8.19091e-13 6.83087e-12)
(2.75494e-12 -9.11796e-13 1.2132e-11)
(1.07315e-12 -5.46968e-13 6.67944e-12)
(1.96784e-12 -5.00176e-13 9.81957e-12)
(4.79997e-13 -4.98938e-13 5.09631e-12)
(5.13686e-13 -3.64908e-13 5.1098e-12)
(-2.0804e-12 -6.51499e-13 -1.99031e-12)
(1.87971e-12 -6.90973e-13 5.87968e-12)
(-1.8852e-12 -7.45103e-13 -1.71748e-12)
(2.32769e-13 -2.1511e-12 5.19982e-12)
(3.78273e-12 -1.48853e-12 1.14336e-11)
(1.24852e-13 -2.14852e-12 3.75683e-12)
(-1.22993e-12 -3.06889e-13 2.40527e-13)
(4.21799e-13 -5.5769e-13 4.21097e-12)
(-1.06787e-12 -3.40023e-13 6.03236e-13)
(3.68189e-14 -5.70211e-13 3.87971e-12)
(1.85656e-12 -9.67043e-13 8.55903e-12)