/*--------------------------------*- C++ -*----------------------------------*\
| =========                 |                                                 |
| \\      /  F ield         | OpenFOAM: The Open Source CFD Toolbox           |
|  \\    /   O peration     | Version:  2012                                  |
|   \\  /    A nd           | Website:  www.openfoam.com                      |
|    \\/     M anipulation  |                                                 |
\*---------------------------------------------------------------------------*/
FoamFile
{
    version     2.0;
    format      ascii;
    class       volScalarField;
    location    "0.108/solid";
    object      epsilonEq;
}
// * * * * * * * * * * * * * * * * * * * * * * * * * * * * * * * * * * * * * //

dimensions      [0 0 0 0 0 0 0];


internalField   nonuniform List<scalar> 
3124
(
0.00214649
0.000679822
0.00225753
0.00331544
0.000378043
0.000731418
0.00237072
0.00316299
0.000327342
0.000642181
0.00739613
0.0023952
0.0016496
0.00170491
0.000818652
0.00154753
0.008392
0.00191973
0.00156528
0.00128544
0.00152719
0.00167135
0.0017254
0.00196434
0.00106825
0.00490705
0.00326552
0.00462452
0.00170254
0.00159948
0.00254401
0.0018868
0.00194075
0.00108633
0.00337188
0.00227734
0.00309336
0.000847243
0.00196325
0.00322041
0.00541658
0.00126223
0.000951347
0.000680853
0.00150181
0.00333278
0.00255864
0.00268323
0.00128269
0.00257968
0.00319854
0.00222018
0.000864808
0.00184249
0.00268961
0.000742786
0.00208458
0.00203785
0.00191778
0.000413863
0.00133512
0.00121973
0.000871685
0.00561871
0.00401867
0.00532527
0.00182061
0.00230551
0.00341679
0.00312572
0.00113835
0.0039899
0.00180528
0.00155049
0.00257535
0.00366854
0.00134342
0.00280706
0.00129549
0.00165291
0.00081594
0.00294533
0.00207046
0.00181078
0.0016876
0.00192572
0.00167855
0.00200954
0.00405531
0.00383147
0.000834286
0.000759069
0.00110588
0.00269613
0.00177918
0.00288274
0.000728519
0.00365903
0.00550914
0.00409933
0.000964184
0.00145778
0.00150605
0.000704756
0.0013875
0.00143002
0.00210023
0.00144464
0.00164797
0.00443234
0.00157531
0.00304914
0.00385245
0.00370353
0.00267536
0.00233645
0.00136599
0.0017009
0.00275031
0.00119864
0.00178874
0.00190421
0.00194367
0.00398135
0.00328579
0.000881836
0.00127888
0.00227427
0.00151
0.00198526
0.00297052
0.000995835
0.00199492
0.0019989
0.00172258
0.00190023
0.0018802
0.00170077
0.001861
0.00181421
0.00065499
0.00120322
0.00257872
0.00221292
0.00216159
0.00083182
0.000773682
0.000694202
0.00106458
0.00133762
0.00368272
0.00280827
0.00439977
0.000381538
0.000636825
0.000448951
0.00106576
0.0011164
0.00108757
0.000806995
0.000546842
0.00354213
0.00797739
0.00838348
0.00585837
0.00533667
0.00485662
0.00538432
0.00134044
0.00153783
0.00155363
0.00168619
0.00140868
0.00187783
0.00156016
0.00169937
0.00156523
0.00150408
0.00818874
0.00872251
0.00535981
0.0014174
0.000921679
0.00129294
0.00131951
0.00118833
0.0014329
0.00163654
0.00136042
0.001525
0.0015056
0.00157722
0.00143379
0.00156187
0.00150246
0.00192075
0.00151733
0.00200576
0.00218873
0.00180885
0.00154087
0.00261253
0.00163314
0.0015463
0.00160514
0.00174809
0.00165661
0.00157641
0.00172868
0.00137848
0.00179687
0.0018355
0.00161098
0.00176122
0.00256416
0.00314776
0.00259214
0.00174186
0.0017357
0.00295763
0.0029515
0.0021228
0.00237104
0.00141621
0.00247372
0.00146087
0.00241815
0.00217167
0.000985791
0.00163123
0.00225688
0.00140177
0.00215408
0.00165728
0.00203848
0.00221587
0.00118465
0.00134305
0.0024398
0.000985029
0.00159204
0.00193067
0.00197736
0.00164977
0.00234122
0.0025014
0.000960271
0.00199417
0.00164957
0.00247909
0.00201772
0.00167164
0.00161047
0.00128991
0.000785826
0.00144233
0.0013444
0.00129661
0.00126426
0.00235266
0.00092997
0.000464956
0.0011003
0.000768574
0.0013756
0.00109069
0.00132186
0.00153994
0.00138426
0.00131993
0.000942446
0.00145542
0.00434848
0.00730019
0.00518255
0.00176131
0.00300917
0.0028451
0.00496206
0.00311338
0.00339484
0.00203133
0.000991281
0.0014316
0.00167027
0.0018583
0.0017208
0.00144343
0.00223207
0.000916009
0.00192808
0.00159272
0.002388
0.00183304
0.00150565
0.000538984
0.00214702
0.00212033
0.00200318
0.00198891
0.000992999
0.00120322
0.00148961
0.000380917
0.000686109
0.000684856
0.000908814
0.00059893
0.000725965
0.000819225
0.00128683
0.00127108
0.00120378
0.00101382
0.00116019
0.00109947
0.0016947
0.00213895
0.000954635
0.00111132
0.000973195
0.00102354
0.000889799
0.00119322
0.000913243
0.00133292
0.00439123
0.00360369
0.00451863
0.00743904
0.010875
0.00439435
0.0057243
0.0354256
0.00498431
0.00283909
0.0052454
0.00173961
0.00305597
0.00159014
0.00466312
0.00395216
0.00254646
0.014288
0.00583193
0.00161615
0.00245045
0.00286886
0.00184767
0.00331072
0.0011877
0.0029805
0.00295743
0.00305289
0.00194039
0.00185403
0.00310564
0.00271223
0.00190328
0.00263588
0.00185862
0.00202644
0.00166637
0.00236423
0.00185088
0.00215456
0.0041492
0.00255865
0.00290491
0.00203633
0.0023284
0.0025935
0.00365621
0.00237782
0.00196516
0.00226156
0.00119419
0.00141353
0.00127134
0.00120635
0.00096162
0.0013752
0.0013124
0.00130861
0.00230412
0.00308287
0.00194507
0.00145968
0.00190631
0.00167939
0.00111435
0.0020961
0.00114085
0.00139281
0.000888822
0.00112649
0.00126251
0.00107868
0.00142284
0.00132665
0.00129046
0.00130855
0.00153029
0.0014987
0.00118079
0.000968557
0.00127272
0.00110787
0.00250356
0.00103338
0.00241599
0.00119152
0.00114496
0.001724
0.00159673
0.00150472
0.0015103
0.00171008
0.00135157
0.0012091
0.00172632
0.00130373
0.00152225
0.00172341
0.00142869
0.00129897
0.00176455
0.00137242
0.0017726
0.00183582
0.00162522
0.00405012
0.00163282
0.001839
0.00185242
0.00160665
0.00396994
0.00161469
0.000989759
0.000913555
0.00136586
0.000811873
0.00140029
0.000811013
0.000914485
0.00130781
0.000788621
0.00136802
0.00151513
0.00182697
0.00219601
0.000967468
0.0012424
0.00172889
0.00153321
0.00771934
0.0359416
0.00660334
0.00415886
0.00144088
0.000967251
0.00146253
0.00136395
0.00134697
0.00148328
0.00168926
0.00144461
0.00145548
0.00134455
0.00153997
0.00124847
0.00148409
0.00156443
0.00145862
0.00135097
0.00156716
0.0015422
0.0013915
0.00148838
0.00159157
0.00047504
0.00124083
0.000671149
0.00147925
0.00131716
0.00121798
0.00123476
0.00128082
0.000998841
0.00121903
0.00142905
0.00143216
0.00133642
0.00151799
0.00142007
0.00148269
0.00148772
0.00153272
0.00180145
0.00162071
0.00157657
0.00147954
0.00173746
0.00160656
0.00146217
0.00124066
0.00155116
0.00147106
0.00149284
0.00134881
0.001599
0.00382213
0.00675147
0.0065131
0.00227168
0.00632049
0.0042253
0.00432042
0.00391569
0.00359811
0.0058782
0.000924987
0.00372627
0.00122268
0.00389993
0.00132998
0.00128363
0.00235371
0.00269338
0.00335411
0.00361307
0.00115037
0.00340379
0.00286832
0.0022007
0.00217769
0.00165644
0.00248024
0.00209626
0.00345669
0.00116855
0.00260483
0.00253886
0.00171199
0.00207336
0.00174389
0.00256981
0.00187304
0.00186921
0.00203256
0.00169378
0.0021481
0.00162481
0.00211104
0.00178632
0.00248675
0.00153996
0.00175955
0.00159341
0.0016004
0.00149256
0.00155445
0.00167912
0.00157148
0.00155003
0.00159582
0.0016555
0.00182716
0.00159408
0.0018089
0.0016708
0.00148827
0.00163008
0.00169349
0.0016015
0.00381567
0.00158689
0.00181919
0.00172534
0.00151807
0.00358362
0.00154642
0.00122874
0.000911811
0.00132622
0.000970792
0.00125464
0.000788353
0.000883351
0.00140192
0.00109167
0.001207
0.00131373
0.00161897
0.00194384
0.00200892
0.00175444
0.00187491
0.00171121
0.00144634
0.00175259
0.00168432
0.0015872
0.00157262
0.00138038
0.00231892
0.00138881
0.00158358
0.00152796
0.00146581
0.00263858
0.00144391
0.001213
0.00189996
0.00187036
0.00196159
0.00181374
0.00157697
0.00180011
0.00175521
0.00195384
0.00183014
0.00181084
0.00177127
0.00157758
0.00176542
0.00166941
0.00179047
0.00175573
0.00169884
0.000876067
0.000646324
0.000905376
0.00100735
0.000951827
0.000906615
0.000942433
0.00101736
0.000761376
0.000986383
0.00111184
0.00101774
0.001031
0.00110802
0.00743658
0.00921278
0.00741616
0.00692218
0.00572261
0.00839155
0.00770649
0.00239815
0.00174393
0.00218192
0.0018529
0.00173728
0.00180897
0.00252267
0.00289075
0.00390455
0.00478731
0.00376068
0.00419843
0.00406776
0.00303376
0.00129821
0.00241166
0.00135881
0.00204887
0.00136157
0.00133748
0.00165532
0.00105583
0.000998388
0.00113145
0.00110987
0.000970846
0.00162778
0.00167054
0.000894528
0.000994557
0.000798579
0.00164575
0.000989905
0.000803793
0.00474021
0.00497539
0.000772741
0.000566926
0.000918244
0.000669623
0.000885004
0.00130481
0.00272286
0.00123653
0.000665663
0.00321033
0.00118737
0.00145039
0.0011858
0.00124726
0.00131109
0.00145953
0.00122612
0.00114917
0.00157335
0.000841547
0.000964293
0.000780835
0.00161246
0.00100631
0.000821014
0.00195148
0.00193111
0.00196262
0.00224566
0.00177832
0.00286975
0.00235964
0.00261093
0.00182442
0.00202446
0.00198248
0.00263596
0.00177331
0.00196956
0.0019946
0.00180943
0.0017279
0.00171448
0.00173372
0.00176524
0.00177639
0.00233359
0.0023626
0.00175991
0.00171962
0.00217394
0.00228085
0.00190225
0.00193616
0.00237598
0.00276042
0.00221226
0.00219035
0.00175895
0.00183457
0.00161153
0.00168552
0.00156019
0.00139005
0.00183284
0.00142404
0.00163521
0.00167807
0.001622
0.00174987
0.00190816
0.00169972
0.00108503
0.00105818
0.000909792
0.00093783
0.000967044
0.000948485
0.000696232
0.000728519
0.0015594
0.00100816
0.00111668
0.00112674
0.00159784
0.0010291
0.00114226
0.00100819
0.00100994
0.00110207
0.00110335
0.000613357
0.000579871
0.00090462
0.000638363
0.000773334
0.00184825
0.00162585
0.00573043
0.00549657
0.0037153
0.00438956
0.00456319
0.00424191
0.0058077
0.000644229
0.00252997
0.00248424
0.00243983
0.00328788
0.00266186
0.00425574
0.00326925
0.00338739
0.00272658
0.00257151
0.00267043
0.00150262
0.00144765
0.00133703
0.00135691
0.00144819
0.00142557
0.00144803
0.00163364
0.00174889
0.00173877
0.00171702
0.00174065
0.00169296
0.00167078
0.00135331
0.00127533
0.000939789
0.000927766
0.00121545
0.00110715
0.000700659
0.000700779
0.00132659
0.00141605
0.00175676
0.00174245
0.0014333
0.00151052
0.0018831
0.00184602
0.00166256
0.00174322
0.00171563
0.00193458
0.00188008
0.00190977
0.00189592
0.00184464
0.0018592
0.00166248
0.00171848
0.00168565
0.00183838
0.00182693
0.00180534
0.000553617
0.000983004
0.000965853
0.000924474
0.000936064
0.00105771
0.00086591
0.00113882
0.00298163
0.0031839
0.0026458
0.00242169
0.00311202
0.00250505
0.00304389
0.00288245
0.00222547
0.00228957
0.00279555
0.00235167
0.0027554
0.00291735
0.000825188
0.000975811
0.00178352
0.00102636
0.00134306
0.00190149
0.00171971
0.000981884
0.00105539
0.00107263
0.000941363
0.00119968
0.00108576
0.00140151
0.00112921
0.00140833
0.00124529
0.00117964
0.00104246
0.00144387
0.00115665
0.0013322
0.00139536
0.00163067
0.00367651
0.00341314
0.00288846
0.00316746
0.00330547
0.0032311
0.00377675
0.00424581
0.00458356
0.00508912
0.00372389
0.00500688
0.00382381
0.00436325
0.000902516
0.000837614
0.000967843
0.00103769
0.000708957
0.000845267
0.000688735
0.000564466
0.000554152
0.000831809
0.000668283
0.000659571
0.00108584
0.000870967
0.000879989
0.000792035
0.00068637
0.000892679
0.000857047
0.000924559
0.0010954
0.000968433
0.00100881
0.000980981
0.000791312
0.000514718
0.000536971
0.000571974
0.000640351
0.000430324
0.000527977
0.000703442
0.00597434
0.00587027
0.00343169
0.00329447
0.0035021
0.00807079
0.00385382
0.00150551
0.00135518
0.00156326
0.00138633
0.00150578
0.00142266
0.0014712
0.00157572
0.00152347
0.0015107
0.00161265
0.00155105
0.00152754
0.00156292
0.00149014
0.00139633
0.00147697
0.00146278
0.00149774
0.00150484
0.00143486
0.00163532
0.001696
0.00166422
0.0014346
0.00157945
0.0015952
0.00166144
0.00161113
0.00166214
0.00152931
0.00153243
0.00161396
0.00149491
0.00165989
0.00162916
0.0014711
0.00171147
0.00151293
0.00166393
0.001481
0.00167817
0.00133835
0.00136404
0.00144294
0.00135303
0.00137608
0.00140096
0.00129275
0.00101955
0.00124906
0.00101348
0.00148512
0.000922811
0.00114189
0.00138317
0.0012559
0.0012999
0.00123005
0.00109074
0.00114863
0.00131738
0.00121596
0.00109366
0.00125621
0.00152081
0.00159947
0.00112981
0.00122595
0.00147272
0.00145781
0.00135609
0.00150905
0.00147738
0.00148867
0.00142253
0.00151665
0.00148049
0.00147403
0.00149677
0.00146375
0.00150201
0.00141786
0.00147049
0.00146117
0.0014317
0.00147451
0.00145374
0.00147324
0.00146367
0.0014199
0.00148523
0.00158334
0.00142725
0.0015926
0.00144206
0.00150195
0.00156643
0.00193724
0.00160699
0.00156658
0.00154659
0.00172461
0.00158086
0.00180471
0.00212792
0.00228263
0.00169263
0.00150869
0.00178454
0.00209473
0.00193758
0.00223407
0.00212148
0.00137166
0.00172219
0.00170861
0.0021165
0.0021445
0.00148786
0.00148625
0.00157881
0.00160743
0.0015164
0.0015261
0.0015365
0.00144347
0.00147085
0.00139094
0.00152589
0.00139
0.00137576
0.00140601
0.00144488
0.00156711
0.00127931
0.00156161
0.0014089
0.00130287
0.00148436
0.00150324
0.00155168
0.00149403
0.0014409
0.00137038
0.00154615
0.00155381
0.00147048
0.00151069
0.00143763
0.00136265
0.00160289
0.00159856
0.00171903
0.00170587
0.00167012
0.00168191
0.00157413
0.00166028
0.00163752
0.00162577
0.00171236
0.00170779
0.00172704
0.0017885
0.0017102
0.00175078
0.00167375
0.00174778
0.00229986
0.00188279
0.00176732
0.0021757
0.00207242
0.0016518
0.00193128
0.00177808
0.00159697
0.00170232
0.00215353
0.00195078
0.0014318
0.0019178
0.00108737
0.00074621
0.000593635
0.00175093
0.00153964
0.0016837
0.000467883
0.000633011
0.00239345
0.00137659
0.00135537
0.000523517
0.00147795
0.00147594
0.000741862
0.00153876
0.000766401
0.000715026
0.00226357
0.00213347
0.00166566
0.00176349
0.00177858
0.00209496
0.00229529
0.0024571
0.00208381
0.00265218
0.00190234
0.00263201
0.00194923
0.00248595
0.00208017
0.00135004
0.00134458
0.00068935
0.000910492
0.00116896
0.00120927
0.00118412
0.000846645
0.000847245
0.000771323
0.00136471
0.000787366
0.0012698
0.000614351
0.00130472
0.000801301
0.00167159
0.00102937
0.00106286
0.00090609
0.00168592
0.00108643
0.000940987
0.00168428
0.000906323
0.0010405
0.000871175
0.00169304
0.00102655
0.000843119
0.00629527
0.00436332
0.00230575
0.0037873
0.00135891
0.00131319
0.00138003
0.00131251
0.00138395
0.00135379
0.00136645
0.00126762
0.00190989
0.00132287
0.00202377
0.00144975
0.00134659
0.00189626
0.000795703
0.000600896
0.000856609
0.00109476
0.00103011
0.000710669
0.00101464
0.000968516
0.00124555
0.0011124
0.00069053
0.000502883
0.000519123
0.000632673
0.000550283
0.000739455
0.000666406
0.000780456
0.000855664
0.000589707
0.000867128
0.000709985
0.00094749
0.000659418
0.00103299
0.00128767
0.00130547
0.0013987
0.00142813
0.00123856
0.00124376
0.00127486
0.00120554
0.00105406
0.00121794
0.00117728
0.00133227
0.00117403
0.00137472
0.00125232
0.00136514
0.00141463
0.00128021
0.00138376
0.00144149
0.0012469
0.000989553
0.00111852
0.00107738
0.00112951
0.00112047
0.00125786
0.00768634
0.00803077
0.00773684
0.00685248
0.00701355
0.00832681
0.00770083
0.0069416
0.00530131
0.0060084
0.00603018
0.0058522
0.00623037
0.00691604
0.000622529
0.000533819
0.00196436
0.00199617
0.00218491
0.000748201
0.000591487
0.00277227
0.00129561
0.00129432
0.000960391
0.00314251
0.00235973
0.000885019
0.00262009
0.000934806
0.00067588
0.00210356
0.00175101
0.00573412
0.00459277
0.00525335
0.00204042
0.0014812
0.00337273
0.00140195
0.00133933
0.0014597
0.00376022
0.00400991
0.00107654
0.00447555
0.00146704
0.00133038
0.00144943
0.0010759
0.0010672
0.000959532
0.0014333
0.00116646
0.0010605
0.00152858
0.000897414
0.00104889
0.000906326
0.0014782
0.000991335
0.000834864
0.00107348
0.0011965
0.00118135
0.00102436
0.00197803
0.00202188
0.00207973
0.00205432
0.00202567
0.00201449
0.00197573
0.00203497
0.00200997
0.00198852
0.00204932
0.00205201
0.00204463
0.00208744
0.00205637
0.00206694
0.00203246
0.00207397
0.00197452
0.00197313
0.00197054
0.00201277
0.00199825
0.00195376
0.00198604
0.00193987
0.00196984
0.00197444
0.00202828
0.0020146
0.00199552
0.00229722
0.00163013
0.00150988
0.00125921
0.00118551
0.00114843
0.00150177
0.00136121
0.00153607
0.00153726
0.00179448
0.00161026
0.00127784
0.00134241
0.00208696
0.00144973
0.000526071
0.00193195
0.000641954
0.00101585
0.000477278
0.000676314
0.00104422
0.000589292
0.000761684
0.000568303
0.000767819
0.000464389
0.000798823
0.000601158
0.00105025
0.000957079
0.000963018
0.000911518
0.00100289
0.00104009
0.00101797
0.00122322
0.00128712
0.00117908
0.00124589
0.00114447
0.0012143
0.00129107
0.00111282
0.00096256
0.0010958
0.00105424
0.00105341
0.00109062
0.00110542
0.00117467
0.00102141
0.00122276
0.00122662
0.00112583
0.0011154
0.00125153
0.00095835
0.00194224
0.00106076
0.000917748
0.00148865
0.000848573
0.00094919
0.00114395
0.00138631
0.00198631
0.00169571
0.00128033
0.00187603
0.00119991
0.000964856
0.00164629
0.0014068
0.000837745
0.00109469
0.00162963
0.000876369
0.00109756
0.000996214
0.00117625
0.000997161
0.00144204
0.00103872
0.00105139
0.00118891
0.00295719
0.00128988
0.00117654
0.00100298
0.00103119
0.000955404
0.00105742
0.00145888
0.00140932
0.00171611
0.00128114
0.000940289
0.00101701
0.00104627
0.00110774
0.00111797
0.00397909
0.00348913
0.00146584
0.00292323
0.00307787
0.00201572
0.00413487
0.00307385
0.00321064
0.00230755
0.00261126
0.00415404
0.0061561
0.0157308
0.00256742
0.00439426
0.0156684
0.00246108
0.00447429
0.00417226
0.0077856
0.00429907
0.00685554
0.0114031
0.00335223
0.00607432
0.0302052
0.0119509
0.0294542
0.00876302
0.0302692
0.00943799
0.00384934
0.00243804
0.0034798
0.00252457
0.00362367
0.00326133
0.00250447
0.00461475
0.00321818
0.00175156
0.00536427
0.00432901
0.00307175
0.00541471
0.00328224
0.0020375
0.00206423
0.0019064
0.0026649
0.00212402
0.00230104
0.0131199
0.00520599
0.00492308
0.0151275
0.0106074
0.0389865
0.0448944
0.0239899
0.00151582
0.00351046
0.000947528
0.00233783
0.00209897
0.00199791
0.00150414
0.00166186
0.00160099
0.00231045
0.00173872
0.00184431
0.00243042
0.00120343
0.00215386
0.0035983
0.00288933
0.00278421
0.00242821
0.00321149
0.00247755
0.00137807
0.00126286
0.000820704
0.00123454
0.00148269
0.00125216
0.00104751
0.00258231
0.00198822
0.00175062
0.00189149
0.00238847
0.00171573
0.00194102
0.00205849
0.00181311
0.00175255
0.00185538
0.00229289
0.0017053
0.00179562
0.00098841
0.00348001
0.00352078
0.00128063
0.00304711
0.0018718
0.00190711
0.00235881
0.00296456
0.00137639
0.00113439
0.00263567
0.0021106
0.00224968
0.00228494
0.00205718
0.00222442
0.00254082
0.00231079
0.002318
0.00307813
0.00558919
0.00373161
0.00236413
0.0028346
0.0024462
0.00268034
0.00358503
0.00179976
0.00178174
0.00164749
0.00195944
0.00196147
0.00154703
0.00200673
0.00218752
0.00141178
0.00212484
0.00152726
0.00209317
0.00120242
0.00104925
0.00125943
0.00118056
0.00126757
0.00115885
0.00110487
0.00123046
0.00130535
0.00117694
0.00130457
0.00122987
0.00121997
0.00131378
0.00112431
0.000999239
0.00107469
0.0010586
0.00112744
0.00111596
0.00101891
0.00128758
0.00133072
0.00138951
0.00132777
0.0013277
0.00125513
0.00136284
0.00161121
0.00133936
0.00159206
0.00140749
0.00154918
0.00172892
0.00142557
0.00236696
0.00259802
0.00237578
0.00289568
0.00195275
0.00224385
0.002912
0.00181052
0.00136649
0.00205152
0.00155441
0.00160427
0.00182114
0.00152532
0.00215551
0.00173961
0.00181026
0.00240043
0.00188275
0.0019932
0.00253426
0.000976457
0.000935412
0.00107525
0.00112296
0.000844123
0.0010152
0.00106389
0.000961873
0.00145658
0.00119097
0.00131355
0.00118079
0.00105386
0.00101563
0.00090052
0.000903003
0.000895683
0.000992846
0.0010259
0.000870617
0.000915179
0.000994054
0.00108274
0.000818628
0.000979723
0.000952559
0.000813304
0.0010724
0.00210556
0.00215438
0.00167246
0.0015174
0.00129234
0.00132573
0.00158775
0.00149379
0.00135882
0.00163498
0.00147444
0.00155447
0.00134554
0.0015029
0.00167076
0.0013655
0.00158941
0.0017958
0.00181
0.00156877
0.00155312
0.00175928
0.00163223
0.00153303
0.00158882
0.00181314
0.00179703
0.00162256
0.00149019
0.00119128
0.00140584
0.00138425
0.00205898
0.00201226
0.00175002
0.00166756
0.00156125
0.00171044
0.00165621
0.00165912
0.00177392
0.00176222
0.00159333
0.00163323
0.0015822
0.00167919
0.00174524
0.00165186
0.00150606
0.00174475
0.00167477
0.00154448
0.00112242
0.00101925
0.00104362
0.000976982
0.00146605
0.00160706
0.00142929
0.00165362
0.00122282
0.00107455
0.00134206
0.000981574
0.00203159
0.00109734
0.00188615
0.00266771
0.00201255
0.00215418
0.00108251
0.00172062
0.0018557
0.00227124
0.00197431
0.00186397
0.00158345
0.00118908
0.00164162
0.00172638
0.00116719
0.00164086
0.00187376
0.00200847
0.00158649
0.00155482
0.00197018
0.00154416
0.0019132
0.00178453
0.00147911
0.00176096
0.0015227
0.00171371
0.00149662
0.00182841
0.00137689
0.00152283
0.00147135
0.00145223
0.0014047
0.00150514
0.00145458
0.00167187
0.00148694
0.00152291
0.00136436
0.00130414
0.00139906
0.00131783
0.00136168
0.00122697
0.00138316
0.00104754
0.00100916
0.00117769
0.00123697
0.000888264
0.00121253
0.00109352
0.00180606
0.00146582
0.00144114
0.00106163
0.00126656
0.00126786
0.001243
0.00122137
0.00121159
0.00117363
0.00160815
0.00149139
0.00159502
0.00168256
0.00162741
0.00161252
0.00145811
0.00158033
0.00157528
0.00161384
0.00133199
0.00158725
0.00184594
0.00164015
0.00168111
0.00135965
0.0015684
0.00159623
0.000998372
0.00102853
0.00108379
0.00109696
0.0017319
0.00110355
0.0010553
0.00107107
0.00111798
0.00105962
0.0010246
0.00101582
0.00174129
0.00100924
0.001036
0.00103484
0.00184421
0.0011944
0.00117917
0.00184014
0.00242231
0.00406602
0.00240631
0.00409773
0.00184384
0.00117268
0.00117432
0.00182893
0.00241871
0.00407835
0.00241524
0.0040929
0.000982275
0.00093911
0.000978795
0.000968727
0.00176983
0.000979304
0.000932505
0.000965207
0.000965062
0.000980284
0.00100626
0.000996904
0.00177438
0.000965447
0.00102073
0.000979856
0.0018195
0.00120422
0.0012187
0.0018397
0.00233747
0.00386028
0.00230645
0.00393896
0.00182626
0.00125429
0.00123987
0.00179219
0.00237798
0.00404322
0.00239549
0.00399332
0.000862525
0.000897777
0.000852268
0.000951214
0.00100815
0.000791513
0.00100295
0.000950045
0.000698713
0.000965876
0.000773636
0.000972733
0.000276769
0.0005574
0.000245152
0.000542417
0.000286693
0.000512462
0.000342008
0.00050153
0.000811211
0.000766208
0.000541175
0.000845175
0.000757884
0.000578312
0.000798757
0.000899074
0.000674792
0.000859589
0.00060038
0.000863262
0.000417732
0.000486449
0.000463421
0.00046839
0.000408806
0.000472455
0.000353009
0.000494855
0.000858378
0.00102291
0.000990354
0.000902541
0.00101551
0.000509328
0.000479996
0.000472234
0.000489131
0.00112837
0.00108448
0.0011029
0.00162917
0.00113074
0.00107638
0.00109821
0.00221919
0.0037861
0.00226062
0.00368791
0.00172558
0.00124703
0.001774
0.00124089
0.00215535
0.00360511
0.0114331
0.0294762
0.00874823
0.00556962
0.015108
0.0348881
0.0256125
0.00239213
0.0024962
0.00274606
0.00245061
0.00405425
0.00290505
0.00242184
0.0029871
0.010008
0.0298604
0.00572115
0.0160517
0.00837848
0.000493452
0.0005351
0.000619458
0.000560241
0.00100229
0.000837828
0.000660678
0.000756284
0.00237839
0.00218711
0.0018768
0.0020844
0.00115086
0.00134303
0.00173032
0.00149567
0.00142594
0.00145553
0.00147557
0.00137894
0.00142228
0.00147755
0.00141601
0.00142544
0.00143312
0.00140441
0.0013295
0.00137325
0.00145308
0.00140851
0.00121793
0.00128597
0.00157662
0.00187268
0.00117546
0.0013814
0.00169017
0.0014838
0.00140021
0.00148046
0.00151802
0.00148295
0.00144314
0.00151387
0.00143745
0.00136946
0.00132747
0.00140684
0.00138121
0.00140118
0.00141799
0.00142058
0.00134523
0.00133758
0.00131013
0.00141292
0.00135659
0.00139309
0.00149111
0.00148101
0.00145106
0.00150034
0.00144768
0.00151918
0.00147017
0.00149709
0.00145923
0.00148928
0.00153763
0.00147032
0.00152972
0.00152168
0.0014578
0.00137522
0.00141953
0.00134534
0.00144854
0.00137795
0.00141359
0.0014828
0.00143405
0.00141082
0.0014506
0.00146429
0.00143235
0.00150215
0.00147617
0.00148652
0.00142571
0.00149821
0.00143105
0.00151494
0.00145169
0.000497232
0.000653615
0.00039126
0.000538178
0.000371068
0.000465889
0.000257644
0.000737842
0.0011045
0.000969244
0.00106014
0.000783743
0.000846607
0.000943518
0.00051909
0.00056727
0.000484162
0.000789575
0.000572758
0.000426862
0.000657893
0.000950443
0.00082251
0.00151718
0.00171367
0.00138253
0.00162491
0.0013913
0.00144333
0.00130581
0.00147182
0.00159216
0.00117551
0.00116709
0.00141792
0.00133388
0.0010048
0.00116522
0.0013538
0.00094039
0.00072563
0.000956553
0.000941745
0.000794836
0.000977747
0.00121924
0.00131344
0.00127808
0.0011763
0.00131973
0.00117587
0.00126509
0.00111458
0.00115919
0.00119694
0.00126723
0.00108382
0.00111105
0.00122571
0.00101804
0.00106382
0.00118304
0.00094373
0.00105375
0.00116294
0.00142592
0.00128104
0.00152505
0.00144888
0.00139383
0.00131464
0.00149117
0.00137144
0.00137257
0.00136217
0.00138563
0.00136438
0.00141173
0.00138342
0.00136552
0.00136964
0.00140099
0.00138173
0.00136573
0.00138565
0.00134062
0.00144175
0.00151536
0.00142798
0.00150395
0.00146663
0.00141032
0.00150507
0.00167504
0.00159555
0.00158005
0.00153088
0.00158467
0.00160596
0.00161428
0.00183815
0.0019442
0.00184992
0.00198801
0.00175187
0.0018297
0.00200038
0.00167861
0.00160267
0.00160858
0.00149533
0.00164255
0.00166666
0.00155545
0.00180212
0.00169932
0.00177459
0.00185504
0.00166387
0.00174034
0.00202498
0.00140672
0.00132525
0.00135512
0.00126209
0.00139185
0.00130626
0.00136813
0.00149453
0.00152271
0.00145254
0.00151458
0.00146296
0.00145524
0.00155391
0.00145435
0.00150658
0.00128816
0.00141796
0.00134538
0.00140048
0.00150905
0.00317474
0.00373959
0.00287302
0.00468383
0.00471313
0.00264067
0.00387757
0.00644126
0.00713892
0.00673374
0.00522736
0.0071834
0.00569298
0.00575147
0.00576254
0.00420497
0.00527382
0.00823152
0.00608744
0.00911483
0.00599082
0.00436979
0.006011
0.00662362
0.00546265
0.00681659
0.00475347
0.0055631
0.00577878
0.00407532
0.00457742
0.00484603
0.00541365
0.00487237
0.00477586
0.0043848
0.00143207
0.00514446
0.00373407
0.00233405
0.00496482
0.00197127
0.00496627
0.00366142
0.00396686
0.00453789
0.00487263
0.00429793
0.00384806
0.0051958
0.00390172
0.00333753
0.00365433
0.00525367
0.00430292
0.00339975
0.00518931
0.00592049
0.00485567
0.00518747
0.00484103
0.00530482
0.00404749
0.00203022
0.00105416
0.00224985
0.00343188
0.00303176
0.00277741
0.00112479
0.00258375
0.00233105
0.00426066
0.0031281
0.00338838
0.00271241
0.00141075
0.00279106
0.00263473
0.00142545
0.00286287
0.00342956
0.000568364
0.00202499
0.00304997
0.00182041
0.00302423
0.0030852
0.00214737
0.0027366
0.00197466
0.00233131
0.00229864
0.00219181
0.00250917
0.00197648
0.00181527
0.00177082
0.00229145
0.00218473
0.00165578
0.00208884
0.00174616
0.00165441
0.00160311
0.00160421
0.00193848
0.00167427
0.00152986
0.0023857
0.00256707
0.00239169
0.00259625
0.00254141
0.00264946
0.00251168
0.00205567
0.00199674
0.00269901
0.00218073
0.00215079
0.00212281
0.00238393
0.00274787
0.00319953
0.00334416
0.00303093
0.00317314
0.00278746
0.00291737
0.00216915
0.00197152
0.00256869
0.00212271
0.00224726
0.00234403
0.00288236
0.00239116
0.00221708
0.00239434
0.00239578
0.00250455
0.0026777
0.00254333
0.00246216
0.00246293
0.00261717
0.00217677
0.00168916
0.00209806
0.00182953
0.00182302
0.00223258
0.00201191
0.00212482
0.00199574
0.00221645
0.00170144
0.00210623
0.00193279
0.00222396
0.00154806
0.00158158
0.00170554
0.00161051
0.00151335
0.00163346
0.00161697
0.00150079
0.00173463
0.00160838
0.0020805
0.00160924
0.00149861
0.00165922
0.00149446
0.00156668
0.00148921
0.00157215
0.00149478
0.0014563
0.00160024
0.00152152
0.00167916
0.00201434
0.00175728
0.00161919
0.00156349
0.00164894
0.00182142
0.00184681
0.00178255
0.00173337
0.00179308
0.00189765
0.00169342
0.00172281
0.00177585
0.00131568
0.00173511
0.00152326
0.00169725
0.00182591
0.00150547
0.00153597
0.00157131
0.00156532
0.00151374
0.00150573
0.0015013
0.00161351
0.00169495
0.0016173
0.00157912
0.00150847
0.00166507
0.00164005
0.00109201
0.00117786
0.00128912
0.00133766
0.00161673
0.00139179
0.00126594
0.00130054
0.00137375
0.00120817
0.00116257
0.00110962
0.00161961
0.00117596
0.00114788
0.00121879
0.00181481
0.00127586
0.00122841
0.00177718
0.00236465
0.00404129
0.0023937
0.0039677
0.00179884
0.00117981
0.00182841
0.00119233
0.00232885
0.00379264
0.00228322
0.00391477
0.00101489
0.000987564
0.000986571
0.000951404
0.00171108
0.000984649
0.000975643
0.000991833
0.00100098
0.00103366
0.00111028
0.00107325
0.00168975
0.000999272
0.00107429
0.00104057
0.00172747
0.0013142
0.00134431
0.00178448
0.00212239
0.00325735
0.00206344
0.00344503
0.00174953
0.00146958
0.0014045
0.00170798
0.00218194
0.00370634
0.00224422
0.00354561
0.000896071
0.000994055
0.00115244
0.00109794
0.00112644
0.00102573
0.00100076
0.000776459
0.000801992
0.00103943
0.000931597
0.000885968
0.000302917
0.00058209
0.000259816
0.000635481
0.000372683
0.000729483
0.000649241
0.000475579
0.0008046
0.000757701
0.000549453
0.00080776
0.000696422
0.000587086
0.000675958
0.000704412
0.000727941
0.000800135
0.000628253
0.000662913
0.000810891
0.00107843
0.000916928
0.000962471
0.000708606
0.000741325
0.000867087
0.000566543
0.00158525
0.00152497
0.00124861
0.00143765
0.00125159
0.00135951
0.00137131
0.0015844
0.00152196
0.00153476
0.0014471
0.0014885
0.00186331
0.00211798
0.00194552
0.00206868
0.00175101
0.00182666
0.00191515
0.00164366
0.00165945
0.00168389
0.00165075
0.00189596
0.00185957
0.00165711
0.00184625
0.00168473
0.00158502
0.00175966
0.00161616
0.00176092
0.00124227
0.00121453
0.00136491
0.00109572
0.00137987
0.00165153
0.00152547
0.00150856
0.00166756
0.0016067
0.00150624
0.00138283
0.00155219
0.00144505
0.00144719
0.00144539
0.00149054
0.00159088
0.0016507
0.0015926
0.00156298
0.0015375
0.00166138
0.00157509
0.00162097
0.00170026
0.00171084
0.00166508
0.00171285
0.00190909
0.00165796
0.0021272
0.00163485
0.00181244
0.0016284
0.00176672
0.00175902
0.002479
0.00182708
0.00225936
0.00172194
0.00176618
0.00177599
0.00171725
0.00176019
0.00157458
0.00180636
0.00169757
0.00173141
0.00171876
0.00166643
0.0015971
0.00155026
0.00163271
0.00169489
0.00167375
0.00167826
0.00166915
0.00160257
0.00166006
0.0019541
0.00313592
0.00202417
0.00293108
0.00165826