/*--------------------------------*- C++ -*----------------------------------*\
| =========                 |                                                 |
| \\      /  F ield         | OpenFOAM: The Open Source CFD Toolbox           |
|  \\    /   O peration     | Version:  2012                                  |
|   \\  /    A nd           | Website:  www.openfoam.com                      |
|    \\/     M anipulation  |                                                 |
\*---------------------------------------------------------------------------*/
FoamFile
{
    version     2.0;
    format      ascii;
    class       volSymmTensorField;
    location    "0.108/solid";
    object      epsilon;
}
// * * * * * * * * * * * * * * * * * * * * * * * * * * * * * * * * * * * * * //

dimensions      [0 0 0 0 0 0 0];


internalField   nonuniform List<symmTensor> 
3124
(
(-0.000705525 0.0011753 0.00136062 -0.000221535 -0.00024804 9.19977e-05)
(-1.25853e-05 -0.000180924 -0.000133729 -0.000413704 -0.000426249 -0.000684596)
(0.000250128 3.4912e-05 -0.00107315 -0.000140812 0.000177448 -0.00273807)
(-0.00012552 -0.00286822 0.000115956 -0.000192483 3.39394e-05 -0.00023026)
(-0.000451408 3.71851e-05 -0.000238802 -0.000277673 0.000176908 -0.000191893)
(1.02163e-05 -0.000168277 -0.000147066 -0.000367008 -0.000455809 -0.000747465)
(0.000270638 5.59761e-05 -0.00116077 -0.00019508 0.000289374 -0.00282233)
(4.37796e-06 -0.00270979 -0.000150293 -0.000352164 0.000318447 -0.00029153)
(-0.000508147 9.84602e-05 -0.000168286 -0.000149199 2.32774e-05 -0.000158991)
(-2.60493e-05 -7.15741e-06 -6.35976e-05 -0.000184835 -0.000410049 -0.000731761)
(-0.000629724 -4.28166e-05 0.00256548 0.00135693 -0.00197183 -0.00905479)
(-0.0013331 0.00162186 -0.000947344 0.000198346 0.0002213 7.96537e-05)
(-4.73034e-05 4.23941e-05 0.000250742 -0.000112239 -0.000257638 -0.00247275)
(-0.000136024 -1.65662e-07 -0.000146973 -1.16174e-05 1.57416e-06 -0.0026162)
(-1.32816e-06 -2.42139e-05 -6.00923e-05 -0.000151794 -0.000479904 -0.000963937)
(-1.02863e-07 5.31061e-05 0.000254429 -0.000149254 -0.000233854 -0.00231186)
(-0.000514595 -0.000247513 0.00245832 0.000735801 -0.00117174 -0.011502)
(-2.07497e-05 1.236e-05 0.000408743 -0.000196791 -0.000509427 -0.00275237)
(1.09441e-05 3.06951e-05 0.000327206 -0.000291219 -0.000432178 -0.00227554)
(-0.000681357 0.000259351 -0.000955935 -0.000612805 0.000298995 6.20363e-05)
(-0.000328971 -4.293e-05 -0.000118043 -5.06447e-06 -1.10513e-05 -0.00243005)
(-0.000294827 -4.28354e-05 -0.000143653 -8.54128e-06 -1.25013e-05 -0.00263278)
(-0.000148321 1.1427e-06 -0.000147092 -1.01316e-05 -1.02698e-05 -0.00265192)
(-0.00106983 0.00112997 0.000219839 0.000407012 4.72112e-05 0.00141902)
(-0.000544098 0.0005983 0.00062169 -0.000266706 -0.000160726 4.06901e-05)
(-0.000554369 0.000466402 0.00345603 -0.000312735 -0.00220452 -0.00218557)
(-0.00153454 0.00254016 0.000490943 -5.87838e-05 0.000424604 0.000521866)
(-0.00307016 0.00223648 0.00112735 0.000482882 0.00235509 0.000493319)
(-0.000659259 0.000161457 0.00125864 -0.000125914 -0.000683134 -0.000671624)
(-0.00109036 0.00113714 0.000176052 -0.000149265 0.0002816 0.000319299)
(-0.000344065 2.20479e-05 -0.00116309 -7.7972e-06 4.36274e-05 -0.00340264)
(4.21537e-05 8.34366e-05 -0.000455968 -1.13544e-05 6.37514e-05 -0.00269589)
(-0.000147719 1.66877e-05 -0.000695268 -2.64609e-06 3.13563e-05 -0.00272185)
(-0.00137103 -0.000596483 0.00024061 -0.00143471 -0.000173611 -0.000253644)
(-0.000417754 -0.0028955 4.20138e-05 -0.000921356 0.000112135 -0.000226054)
(-7.84328e-05 -0.00190659 0.000157396 0.000416436 4.60839e-05 -0.000537801)
(-0.000243451 -0.00266064 0.000248341 -0.000346925 -0.000131038 -7.53105e-05)
(-0.00122942 -0.00066469 -8.21993e-05 -0.0012855 8.05958e-05 -0.000759919)
(-0.000463056 -0.0015647 0.000569945 -7.74369e-05 -0.000249508 -3.64379e-05)
(-0.00046694 -0.00275232 0.00016617 -0.000945976 -3.84541e-05 -0.000115082)
(-0.000843092 0.000110118 0.00374408 -0.000282662 -0.00256473 -0.00255124)
(-0.000948444 -0.000627374 -0.000216467 -0.000152956 0.000336174 -0.00175474)
(-4.18656e-05 -7.36019e-05 -8.14903e-05 -3.71604e-05 -0.000425657 -0.00124643)
(-0.000628172 0.000211441 -0.000403813 -0.000372447 -6.75139e-05 -0.00109778)
(-9.59078e-05 -3.26813e-05 -0.000186174 -1.42235e-05 -3.10224e-05 -0.0022821)
(0.000137212 -0.000404212 -0.00161085 -0.000283688 0.000611511 -0.00400546)
(-0.000399716 2.37576e-05 -0.00125425 -1.54746e-05 5.08685e-05 -0.00335248)
(-0.000884657 -0.00024601 -0.00177312 -0.000187635 -0.000198408 -0.00300667)
(-0.00113156 -0.000343128 -0.00077668 -0.00110114 0.000664724 -0.000655138)
(2.55308e-05 -0.00208059 -0.000467927 -0.00077009 0.000523701 -0.000192853)
(-0.000392448 -0.00271921 -0.000159541 -0.000968007 0.000338016 -0.000269013)
(2.7126e-05 -0.00182366 -0.000167564 0.000341832 0.000305234 -0.000637407)
(-0.00121824 -0.000667288 -0.000172767 -0.00127079 0.000138693 -0.000799976)
(-8.22409e-05 -0.000817522 -0.00122283 -0.000608023 0.00055883 -0.000400731)
(-0.00044699 -0.0021931 -0.000347363 -0.00108098 0.000533629 -0.000189825)
(-0.000511894 2.96334e-05 -0.000112716 1.52975e-05 -4.78923e-05 -0.00124093)
(-0.000217441 -2.38104e-05 -0.000257185 5.60487e-06 -4.78311e-06 -0.00319458)
(-0.000141371 -3.18596e-06 -0.000243215 5.68437e-06 -2.619e-05 -0.00309243)
(-2.20123e-05 -1.80514e-06 -0.000483237 2.61829e-06 -9.68478e-06 -0.00276177)
(-0.000134428 0.00016018 0.000154826 -0.000293996 -0.000268573 -0.000245986)
(-9.05847e-05 5.74048e-05 3.57584e-05 2.50568e-05 -0.000112581 -0.00201997)
(-0.00052016 0.000137664 0.00070983 2.66146e-05 -0.000555465 -0.00103997)
(-0.000326006 0.000331441 -1.21839e-05 -0.00112593 0.000107982 0.00020394)
(-0.000315533 0.000254983 0.00373999 -0.000786702 -0.00269621 -0.00317782)
(-0.000416496 0.000159616 0.00144086 0.000271092 -0.000758741 -0.00535952)
(-0.00212037 0.00269433 3.58758e-05 0.00358576 -0.00207801 0.00288913)
(-0.000719809 0.000116229 0.00127419 -1.77643e-05 -0.000722143 -0.00115148)
(-0.000616113 0.00161699 -4.8236e-05 0.00111009 0.000173049 0.00158262)
(-0.0017857 0.00261373 -0.000448923 0.000398679 0.000578 7.28323e-05)
(-0.00175703 0.000790024 -0.00207461 0.000678653 -0.000867482 0.000161807)
(-0.00124173 0.000268833 -0.000511936 -0.000171598 0.000282945 0.000195305)
(-0.00303122 0.00234131 -0.000413157 0.00147667 0.000946366 0.000188904)
(-0.0010107 0.000441352 -0.0010529 -0.000336184 0.000750725 0.000505825)
(-0.00133308 0.000922202 -0.000313065 0.000166215 0.000331505 0.000156864)
(-0.000998973 0.00110985 -0.00166661 0.000632633 -0.0004263 0.000411068)
(-0.00189435 0.00228386 -6.60209e-05 0.00220654 0.00059891 0.00112084)
(-8.37592e-05 5.20723e-05 7.26234e-05 -1.83289e-05 -0.000114369 -0.00204963)
(-0.000314314 0.000121544 0.000726615 8.78865e-05 -0.00068601 -0.00392998)
(-0.000505306 8.39454e-05 0.000724183 4.6026e-05 -0.000425862 -0.00141693)
(-0.000809807 -0.00105049 -0.000189639 -0.00113658 0.000690468 0.000130646)
(-0.000472693 0.000142792 -0.00012043 -0.0011063 0.000243747 0.00016651)
(0.000148435 1.35414e-05 -0.000582978 -6.48266e-06 7.15175e-05 -0.00422614)
(7.1316e-05 7.09258e-06 -0.000442688 -2.77126e-06 4.41703e-05 -0.0029736)
(-1.7145e-05 5.91884e-05 -0.00037955 -5.93406e-06 4.75745e-05 -0.00264365)
(-3.7013e-05 1.76639e-06 -0.000448262 -4.38555e-06 -1.09226e-05 -0.00242986)
(-0.000122533 1.35325e-05 -0.000648139 -3.96191e-06 2.33862e-05 -0.00272237)
(-9.63451e-06 -7.41694e-07 -0.000438714 -3.58147e-06 -5.73828e-06 -0.002407)
(5.66076e-05 3.53586e-06 -0.00044453 -3.01549e-06 3.36973e-05 -0.00288647)
(-0.00111494 -0.00344678 1.5145e-06 8.08307e-05 0.000227365 -0.000150951)
(-0.00110155 -0.00325264 4.29002e-05 9.79199e-05 -7.27879e-05 -6.5019e-05)
(0.000170413 -0.000594289 0.000160628 0.00039019 -6.03177e-06 -0.000346433)
(-0.000330309 -0.000416402 0.000459845 -8.67378e-05 -0.000147698 -2.98272e-05)
(-0.00137303 -0.000573295 0.000253325 -0.00143558 -0.000177457 -0.000189505)
(-0.000292297 -0.00229487 0.000253877 -0.000593837 -0.000134759 4.69976e-05)
(-0.000535354 -0.00138576 0.000556397 -0.000279162 -0.000219612 8.12915e-05)
(-0.00049649 -0.00244029 0.000192049 -0.000976603 -8.5073e-05 -1.01862e-05)
(-0.000460325 -0.000355592 0.000439795 -0.000260314 -0.000129733 3.22013e-05)
(-0.0010824 -0.00309939 8.49859e-05 7.02684e-05 -0.000147952 -3.53842e-05)
(-0.00059351 -7.5606e-05 0.00327225 -0.000817611 -0.00309343 -0.00342646)
(-6.06324e-05 -0.00150197 0.00205184 -0.00157912 0.00167813 -0.00368949)
(-3.91778e-07 -2.13571e-05 -6.41291e-05 -6.70041e-05 -0.000434751 -0.00126156)
(-4.61166e-05 4.41739e-05 -1.33369e-05 1.88216e-05 -6.20963e-05 -0.00219549)
(-8.17272e-05 4.10171e-06 -0.000106174 1.03704e-05 -8.26662e-07 -0.00228583)
(-0.000607951 1.41453e-05 -0.000536402 -0.000369819 -6.91826e-06 -0.000948316)
(-0.000141708 -2.55018e-05 -0.000179721 -2.98516e-05 -3.45225e-05 -0.00213999)
(-5.14538e-05 5.11168e-05 3.4883e-05 -1.33647e-05 -6.32313e-05 -0.0021717)
(0.000492393 0.000348448 0.000756538 -0.000238276 -0.000420456 -0.00250213)
(-0.000105195 3.31033e-05 -4.88407e-05 -1.82279e-06 -2.0254e-05 -0.00221592)
(2.73483e-05 -0.00104948 -0.000454725 -0.000444535 0.000539931 -0.00127839)
(-0.000345918 2.52517e-05 0.00123581 0.000352915 -0.000405014 -0.00622231)
(-0.000726302 -0.000376935 -0.00115608 -0.000162957 -8.28173e-05 -0.00138758)
(0.000156642 2.01393e-05 -0.000600182 -1.04989e-05 9.4952e-05 -0.00437541)
(4.04123e-05 -0.000157588 -0.000742145 -8.53215e-05 -0.000189251 -0.00563913)
(-0.000170263 3.23201e-05 0.000850976 0.000237314 -0.000435603 -0.00525721)
(-0.000101023 -0.000324982 -0.000516112 -9.68818e-05 -0.000293031 -0.00393704)
(0.000862376 0.000135845 0.000747604 -0.000303476 -0.000466655 -0.00270014)
(-0.00113005 -0.000265856 -0.000855626 -0.00107569 0.000709726 -0.000576866)
(-0.000187369 -0.00104129 -0.000755761 -0.00100181 0.000489023 -2.1803e-05)
(-0.00132532 0.000517032 -0.00205132 -0.000115303 -0.000740448 0.000202125)
(-0.000933479 -0.000558217 -0.000501625 -0.000763078 0.000442557 0.000117962)
(-0.00104545 0.000316194 -0.00109801 -0.00053657 0.000770131 0.000352989)
(-0.000291167 -0.000393981 -0.00151327 -0.00089037 0.000359237 -0.000182784)
(-0.000626194 -0.00141997 -0.00046001 -0.00108678 0.000568028 -2.6223e-05)
(-0.00109849 -0.00337052 -7.12716e-05 2.08347e-05 0.000403146 -0.000162737)
(-0.000965566 -0.00269462 -0.000144599 -0.000378117 0.000785762 -9.28305e-05)
(0.000235313 -0.000598498 -9.48932e-05 0.000355266 0.00014785 -0.000460815)
(-0.000162091 -0.00019136 -0.00101179 -0.000377369 0.000340202 -0.000611725)
(-0.000938264 0.000777743 -0.00169837 -7.23428e-05 -0.00028464 9.81669e-05)
(-0.00042329 6.60293e-05 -0.00127098 -0.000595133 0.000287144 -0.000547749)
(-0.000841367 -0.00139463 -0.000175262 -0.00103636 0.000783915 9.48983e-05)
(-0.000953498 -0.00236918 -0.00017835 -0.000561471 0.000878372 -5.76988e-05)
(-0.000469575 3.31432e-06 -9.22659e-05 5.49616e-06 -4.27996e-05 -0.00165716)
(-0.000232004 -2.87264e-05 -0.000232733 1.1619e-06 -7.65994e-06 -0.0030732)
(-0.00014082 -8.96385e-06 -0.000230854 4.75724e-06 -3.04166e-05 -0.00303642)
(-3.12947e-05 -7.51412e-07 -0.000447001 -2.27198e-06 -1.7887e-05 -0.00248161)
(-2.0748e-05 -1.68514e-06 -0.000476737 2.21999e-06 -1.1547e-05 -0.00273723)
(-2.17015e-05 -1.66796e-06 -0.000501829 1.9737e-06 -9.59991e-06 -0.00269275)
(-1.34654e-05 -2.32078e-06 -0.000448321 -1.82248e-06 -1.27909e-05 -0.00243762)
(-2.1599e-05 -1.62516e-06 -0.00049694 1.47084e-06 -1.10447e-05 -0.00266542)
(-0.000384599 -0.00141941 0.000542961 8.65955e-05 -0.000272526 0.000146962)
(-0.000170662 -0.000305388 -0.000261057 -0.000548761 -0.0003086 -0.000656555)
(-0.000289981 -0.000420815 -0.000529267 -0.000697393 -0.000760427 -0.000656622)
(0.000266166 -2.30629e-05 8.74376e-06 -7.52773e-05 0.000202549 -0.00374508)
(0.000187186 0.000109323 -0.000834764 -3.90447e-06 3.01995e-05 -0.00288524)
(0.000135451 -9.76208e-06 5.36474e-05 -1.22428e-05 0.000112031 -0.00317106)
(-0.000448683 -0.000112886 -0.000431896 -0.000369319 0.000483735 -0.000911275)
(-0.000473032 -5.23492e-06 -4.2258e-05 -0.000286061 4.65178e-05 -0.00152351)
(-8.66928e-05 -9.96722e-05 -8.472e-05 -0.000252444 -0.000431528 -0.000843156)
(-0.000170494 -0.000246981 -0.000427387 -0.000561673 -0.000681013 -0.000925491)
(-9.99597e-05 -1.42213e-05 -0.000149564 9.34126e-05 -0.000203863 -0.001954)
(0.00040244 -8.92871e-05 -0.00151966 -0.000120402 0.000958926 -0.00439768)
(0.000327198 -3.68908e-05 -4.2099e-06 -0.000109236 0.000291417 -0.00405546)
(0.000557054 -8.75702e-05 -6.78293e-05 -9.2603e-05 0.000655836 -0.0062417)
(-0.000553615 8.63375e-05 -0.000150662 -3.68789e-05 -4.75313e-05 -0.000468558)
(-0.000510615 0.000177411 -6.10096e-05 -0.000216256 -0.000183643 -0.00116389)
(-6.49906e-05 3.91699e-05 -3.16287e-05 -0.00024638 -0.000333978 -0.000449964)
(-5.4514e-05 4.13863e-05 -7.18298e-05 -6.96463e-06 -0.000252362 -0.00156119)
(-4.18235e-05 6.82745e-05 -9.81833e-05 -3.91537e-05 -0.00071973 -0.00113929)
(-0.000142334 8.58163e-05 -6.43072e-05 -0.00013951 -4.61083e-05 -0.0017597)
(-0.000114212 7.66293e-05 -1.41602e-05 -5.69353e-05 -0.000340477 -0.00113288)
(-8.99676e-05 0.000282122 -5.72736e-05 -0.000384399 -0.00034602 -0.000235089)
(-0.0020074 0.00226679 0.00052886 0.000756867 0.000727691 -0.00278316)
(-0.000353408 0.000243264 0.00305144 0.00205731 -0.00519031 -0.00461607)
(-0.00171028 -0.000304036 0.00237392 0.00346846 -0.00106556 -0.0099575)
(-0.000551652 0.000207165 0.00169424 0.00073765 -0.00174155 -0.00753165)
(-0.00211306 0.0024404 0.00130502 -0.00560132 0.00178114 -0.00859648)
(-0.00119888 4.89725e-05 0.000901555 0.000248782 -0.00107069 -0.00722884)
(-0.000844358 0.00030853 0.0024264 0.000617695 -0.0029128 -0.0046106)
(-0.000277071 7.71555e-06 1.10906e-05 -4.19041e-05 -0.000134157 -0.00214612)
(6.14996e-06 -5.80628e-05 2.27221e-05 -0.000282929 1.79556e-05 -0.00242876)
(-5.88205e-05 6.60351e-05 0.000188782 -6.25737e-05 -0.000218566 -0.00233395)
(-0.000202319 5.09782e-05 0.000303043 -4.36917e-05 -0.000252397 -0.00255282)
(-0.000107054 5.86611e-05 3.35063e-05 -0.000118609 -6.28075e-05 -0.00221977)
(-0.000156384 -0.000103585 -0.000259866 -0.000107669 0.000288883 -0.00286097)
(-0.000155149 8.37694e-05 0.000256842 -4.16344e-05 -0.000290164 -0.00233346)
(-0.000109298 1.90024e-05 -0.000193104 -5.45755e-06 3.23825e-05 -0.00258195)
(-6.90145e-05 -2.04499e-05 -0.000218285 -8.6444e-06 -2.55254e-05 -0.00235476)
(-5.79217e-05 -2.53418e-05 -0.000131433 -9.43005e-06 3.04577e-06 -0.00227745)
(-0.00056137 -0.000327136 0.00260941 0.00229468 -0.00530563 -0.00542299)
(-0.00370969 0.000102624 0.00089861 0.00404214 -0.00112599 -0.0107818)
(-0.00371665 -0.00200089 0.00243676 -0.00522208 0.00128853 -0.00977336)
(-8.31165e-05 8.6228e-06 -2.48393e-05 -0.000132705 2.39362e-05 -0.00223268)
(-1.68555e-06 -2.8887e-05 -4.48402e-05 -0.0001337 -0.000525553 -0.00109781)
(-1.40624e-05 2.01143e-05 -8.61953e-05 2.49697e-05 -0.000203054 -0.00189533)
(-2.99562e-05 3.75944e-05 -7.99389e-05 5.74191e-06 -0.000830598 -0.00136246)
(-0.000130055 6.13113e-05 -5.42281e-05 -0.000138489 -2.02485e-05 -0.00191076)
(-5.11107e-06 7.28086e-06 -7.42636e-05 4.60952e-05 -0.000177667 -0.00210233)
(-1.59424e-05 -2.53081e-05 1.48175e-05 7.98463e-05 -0.00100718 -0.0016924)
(2.78168e-05 0.000185297 -7.76075e-05 -0.000116069 -3.00282e-05 -0.00205034)
(8.28981e-05 -9.95207e-06 9.19117e-05 -0.000369211 -2.94904e-05 -0.00239063)
(-2.2278e-05 6.96386e-05 0.000179299 -7.89789e-05 -0.000168094 -0.00226472)
(9.14242e-05 7.30888e-05 0.000212285 -0.000184708 -0.000238507 -0.00233096)
(-5.89409e-05 8.3071e-05 5.87635e-05 -0.000133404 -5.09803e-05 -0.00223684)
(0.0003514 0.000230824 -0.000136753 -0.000513765 -7.2286e-05 -0.00224815)
(1.80376e-05 9.59053e-05 0.000130271 -9.21078e-05 -0.00011015 -0.00226305)
(-0.000412979 -0.000254145 0.000199365 -0.000329697 -0.000326131 -0.00313965)
(0.000103508 -0.00014449 -3.38581e-05 -0.000365785 -3.65645e-05 -0.00235485)
(-0.000205489 -3.40697e-05 0.000297313 -8.06996e-05 -0.000506143 -0.00297206)
(-7.81496e-06 -0.00016743 0.00056909 -0.000259975 -0.000641539 -0.00303917)
(-0.00020785 -6.96611e-05 -0.000861592 -8.77778e-07 0.000306088 -0.00229687)
(0.000497006 -0.00022277 0.000220965 -0.00123352 -0.000298311 -0.00196004)
(-0.000104282 -0.000181673 0.000379421 0.000106884 -0.000425131 -0.00377367)
(0.000654138 -8.65133e-06 0.000223955 -0.00144531 -0.000261937 -0.00192489)
(0.000153594 -7.24018e-05 9.67122e-05 -0.000493863 -5.06758e-05 -0.00240932)
(0.000125786 5.62859e-05 0.000273764 -0.000332567 -0.000425091 -0.00230862)
(3.00466e-05 -1.94639e-05 0.000400215 -0.000486525 -0.000792495 -0.00230421)
(0.000448694 0.000178038 -0.000351439 -0.000735343 -0.000133227 -0.00228912)
(0.000375785 -0.000121577 -0.000160655 -0.00133802 -0.000281592 -0.0022215)
(0.000150431 1.26084e-05 0.000424126 -0.000583418 -0.0008057 -0.00217412)
(-0.000371929 -3.58475e-05 -9.9914e-05 -7.88475e-07 -1.16564e-05 -0.00222055)
(-0.000268289 -3.90002e-05 -0.000174123 -5.40546e-06 -8.13585e-06 -0.00280464)
(-0.000148553 -1.03596e-05 -0.000172635 -2.88754e-06 -2.42033e-05 -0.0028094)
(-7.05688e-05 -1.79919e-05 -0.000245915 -5.53796e-06 -3.24642e-05 -0.00241516)
(-6.75421e-05 -1.11089e-05 -0.000311147 -9.72467e-07 -3.92947e-05 -0.00261892)
(-0.00223037 0.000877957 0.000995921 0.000328739 0.000644312 0.00087906)
(-0.0020792 0.00156523 0.000525786 0.00138789 0.0011764 0.000627707)
(-0.00170032 0.000421943 0.00168193 -0.000118027 -0.000985876 0.000232654)
(-0.00199472 0.00020098 0.00011991 0.000306245 0.000462438 0.000587534)
(-0.00179134 0.000454546 0.000602371 -5.98943e-05 0.000221644 0.000709704)
(-0.00187697 0.00134119 0.00136058 3.70321e-06 0.0009117 0.000957002)
(-0.00237866 0.00130984 0.00023186 0.00153823 0.000848491 0.000370911)
(-0.00166038 0.000540152 0.0013662 -0.000212752 -3.63896e-06 0.000509986)
(-0.00204128 0.000281634 0.00135165 0.000275026 -0.000869489 -8.41675e-05)
(-0.000557058 0.000205443 0.0010775 -0.000146562 -0.000506645 -0.000433361)
(-0.000780694 0.000259123 0.00194109 -0.000295875 -0.000833959 -0.000511981)
(-0.00135946 0.000426188 0.000837903 -0.000174845 -0.000229106 0.000202735)
(-0.00158426 0.000689292 0.00165988 -0.000588688 -0.000375673 0.000429782)
(-0.00067416 0.000262252 0.00175779 -0.000190203 -0.000562018 -0.000321536)
(-0.000176165 -0.000466533 -0.000367864 -0.000785495 -0.000511341 -0.000735217)
(-5.36681e-05 -5.76736e-05 0.000191122 -4.98708e-05 0.00012676 -0.00246408)
(-0.000239769 2.16178e-05 -0.000925096 -2.04419e-06 4.28489e-05 -0.00309474)
(-0.000110005 -3.24045e-05 9.73721e-05 -9.17676e-06 6.09342e-05 -0.00215023)
(0.000138253 7.73584e-05 -0.000742803 1.01241e-05 5.12262e-05 -0.00288331)
(1.64571e-05 -2.95259e-05 2.55193e-05 -2.1123e-05 6.3465e-05 -0.00248469)
(0.000100155 -1.13074e-05 5.57143e-05 -5.22141e-06 0.000107136 -0.00300167)
(-0.000211159 2.03968e-05 -0.000867531 -3.51767e-06 4.85284e-05 -0.00306525)
(-0.0001331 -3.34522e-05 -2.75248e-05 -1.66294e-05 1.15171e-05 -0.00184728)
(-0.000120331 -2.69469e-05 6.92071e-05 -6.3827e-06 6.1913e-05 -0.00206853)
(-0.000677306 -0.00207046 0.000291492 -0.000823213 -7.36994e-05 -0.00025449)
(-0.00133645 -0.000655733 0.000166192 -0.00139975 -0.000108444 -0.000489448)
(-0.000805274 -0.00123708 0.000399176 -0.00104706 -0.000121504 -0.000187503)
(-0.00116421 -0.00155966 0.000301715 -0.00101065 -9.84906e-05 -0.000210281)
(-0.00112058 -0.00164471 0.000199617 -0.000983771 -7.71186e-05 -0.00032368)
(-0.000725069 -0.00134151 0.000333381 -0.00100927 -9.90456e-05 -0.00031807)
(-0.000731046 -0.00193827 0.000437513 -0.000876759 -9.61971e-05 -0.000137309)
(-0.000613388 -0.00214362 0.000240922 -0.000771186 7.00015e-06 -0.000376126)
(-0.00132634 -0.000679365 0.000115449 -0.00138684 -7.7551e-05 -0.000563249)
(-0.00106354 -0.00170127 -5.95569e-05 -0.000923767 9.34439e-05 -0.000532043)
(-0.000553864 -0.00141281 5.15033e-06 -0.00092457 4.95554e-05 -0.000584717)
(-0.0005455 -0.00213997 -3.74238e-05 -0.000745735 9.35644e-05 -0.000474526)
(-0.0011013 -0.00170672 0.000141944 -0.000954517 2.49318e-05 -0.000442206)
(-0.000637154 -0.00141038 0.000202826 -0.000961673 -3.74422e-05 -0.000462985)
(-0.00058775 -0.000308503 -0.000677436 -0.000496144 0.000780854 -0.00207094)
(-0.000321569 5.07804e-05 -4.23756e-05 -0.000179407 -2.71512e-05 -0.00217746)
(-0.000226344 -9.93391e-05 -0.000161259 1.29232e-05 -0.000383896 -0.000999314)
(-6.79893e-05 -2.19087e-05 -0.000157011 1.73353e-05 -6.54273e-05 -0.00216706)
(-0.000197932 -0.000135327 7.40354e-05 -1.02136e-05 -0.000495031 -0.00190233)
(-0.000196107 -2.45597e-05 -7.27211e-05 -0.000127175 1.88125e-05 -0.00210081)
(-0.00017202 9.97361e-05 -0.000229706 -8.75544e-06 -6.67124e-05 -0.00192746)
(-0.000218618 -0.00035815 9.57958e-05 -0.000158022 -0.000136579 -0.00364993)
(-0.00062586 5.89595e-05 -3.15635e-05 -0.000214893 -4.35933e-05 -0.00176206)
(-0.000712228 0.00017255 -1.23773e-05 -0.000530933 2.88878e-05 -0.00122943)
(-0.000288289 4.12474e-05 -0.000330435 -0.000154738 -4.21479e-05 -0.00176184)
(-0.000552728 -3.75078e-05 -5.12937e-05 -0.00039227 -6.98832e-06 -0.00161159)
(-0.000107545 -3.20037e-05 -0.000216203 5.9629e-05 -0.000134081 -0.00203378)
(-0.00041012 -5.25302e-05 -6.02632e-05 -0.000235976 3.65372e-05 -0.00194499)
(-0.000270117 -6.28418e-05 -0.000109111 -7.60801e-05 9.44178e-06 -0.00213661)
(-7.53664e-05 -6.36035e-06 -0.000169034 9.48237e-06 -2.09093e-05 -0.00232274)
(-0.000143605 -3.58286e-05 -0.000238518 -7.29635e-05 -6.54411e-05 -0.00213813)
(-0.000216392 -1.63361e-05 -3.5832e-05 -0.00011595 1.22038e-05 -0.00214287)
(-0.000450691 -9.15552e-05 -5.50491e-05 -0.000287738 -1.11559e-05 -0.00176346)
(-8.64843e-05 -2.64402e-05 -0.00021211 -1.32619e-05 4.97028e-06 -0.00220042)
(0.000347014 -4.75172e-05 -0.00167793 -1.67411e-05 0.00102376 -0.00538908)
(0.000888761 -0.000204267 6.82978e-05 0.000317511 0.000357948 -0.010312)
(0.000644147 -0.000100747 -7.58351e-05 -4.4573e-05 0.000756624 -0.00733641)
(-2.5109e-05 -7.71074e-05 0.000235497 -7.28636e-05 0.000180574 -0.0026367)
(-0.000567177 1.49385e-05 -0.00158474 -5.70319e-06 9.46197e-05 -0.00383267)
(8.80641e-05 -0.000133989 0.000393228 -6.42836e-05 0.00043834 -0.00412347)
(0.000278314 -0.000130204 0.000917384 9.11765e-05 0.000337655 -0.00705787)
(-0.000643966 1.57321e-05 -0.00169359 2.29234e-05 0.000111398 -0.00389288)
(0.000132836 -0.000156495 0.000468238 -2.63481e-05 0.000496327 -0.00489063)
(-0.000530321 -0.001557 -0.000640742 -0.000916839 0.000445037 -0.000452454)
(-0.00108666 -0.000477901 -0.000529383 -0.00111496 0.000446201 -0.000805617)
(-0.00065088 -0.000631756 -0.000936473 -0.000961698 0.000460289 -0.000532482)
(-0.00112353 -0.00106026 -0.000696596 -0.000977867 0.000583662 -0.000409606)
(-0.000630462 -0.00120816 -0.000892291 -0.000951591 0.000484762 -0.000321907)
(-0.0010117 -0.00127361 -0.000523561 -0.000954327 0.000505411 -0.000530032)
(-0.00053057 -0.000906674 -0.000734381 -0.000963726 0.000387781 -0.000637949)
(-0.000481858 -0.00182571 -0.000504463 -0.000816854 0.000340036 -0.000524392)
(-0.00109165 -0.000520178 -0.000447312 -0.001133 0.000362222 -0.000827726)
(-0.00102055 -0.00162521 -0.000185706 -0.000922397 0.000246899 -0.000588228)
(-0.000496004 -0.00132943 -0.000242366 -0.000920216 0.000175695 -0.00066604)
(-0.000501188 -0.00204107 -0.000183783 -0.000776142 0.000233551 -0.000532992)
(-0.00102902 -0.00147486 -0.000416789 -0.000907058 0.000346524 -0.000591364)
(-0.000484468 -0.00114802 -0.000497965 -0.000930651 0.000290628 -0.000689981)
(-0.000550175 5.94002e-05 -0.000140525 -4.3884e-06 -3.93041e-05 -0.000873737)
(-0.000203885 -2.03812e-05 -0.000274478 1.08114e-05 6.27291e-06 -0.00327614)
(-0.000129702 -9.07103e-06 -0.000269172 1.43022e-05 4.80689e-06 -0.00320131)
(-5.31463e-05 -2.44987e-06 -0.000379044 7.75405e-06 -2.62539e-05 -0.00295404)
(-4.23939e-05 4.44332e-07 -0.000416807 6.91231e-06 -2.06133e-05 -0.00291191)
(-0.000839639 0.000195764 -2.01243e-05 -0.00079055 0.000181561 0.000599727)
(-0.00100274 0.000279671 0.000304831 -0.000657304 -0.000405903 0.000639747)
(-2.14814e-05 0.000567022 -0.000917713 -0.000348339 -0.000687316 -0.000249131)
(-0.000103624 0.000104328 6.54094e-05 -0.000314005 -0.00028628 -0.000252604)
(-0.000287148 0.000131026 0.000393589 -0.000135702 -0.000384143 -0.000499583)
(-0.00014632 0.000366947 0.000152123 -0.000628193 -0.000296174 -6.95547e-06)
(-0.00115884 6.69194e-05 0.000325094 -0.000465774 -0.000340883 9.26888e-05)
(-0.000197158 8.51141e-05 0.00012392 -0.000134601 -0.000409897 -0.000647885)
(-6.96451e-05 0.000325744 -2.65949e-06 -0.000706479 -0.000391155 -6.51323e-05)
(-0.000497729 0.000270069 -1.85327e-06 -0.000103836 -0.000142068 -0.00135639)
(-7.72676e-05 6.52559e-05 -1.52216e-05 4.21023e-05 -0.000163364 -0.00192063)
(-0.000210047 7.46866e-05 -1.02543e-05 -1.78936e-06 -3.01993e-06 -0.00199948)
(-0.000182134 8.074e-05 0.000153822 4.78975e-05 -0.000187728 -0.00180623)
(-0.000505094 0.000120269 7.33971e-05 6.05847e-05 -4.50401e-07 -0.00164109)
(-0.0001665 8.54125e-05 -3.99753e-05 -7.56551e-05 -9.76886e-06 -0.0018518)
(-0.000151411 0.000106843 7.44894e-05 4.03647e-05 -0.000278683 -0.00160744)
(-0.000359638 0.000903234 -0.000709009 0.000256027 -0.000771916 -0.000711034)
(-0.00214171 0.00024158 0.000827169 0.000623212 -0.000839891 -0.00029401)
(-0.000415846 0.000127442 0.0005735 -7.76833e-05 -0.000503281 -0.00065837)
(-0.000327904 0.000128577 0.000342354 8.25245e-05 -0.000350467 -0.00149483)
(-0.000891522 0.000372206 0.000308078 -0.000434425 -0.000409061 0.000215633)
(-0.000731379 0.000154694 0.000131711 0.00013014 7.15634e-06 -0.00159543)
(-0.000280632 0.000146573 0.000212107 5.63089e-06 -0.000445848 -0.00109885)
(-0.000119903 0.000696021 -0.000153032 -0.000845831 2.43354e-05 0.000649793)
(-0.000296675 0.000470708 5.32853e-05 -0.000993683 -0.000187419 0.000211308)
(-0.00166848 0.000192887 0.000321021 -0.00065616 -0.000285208 0.000438975)
(0.00261502 0.00361696 0.000554179 0.00127664 0.000530388 0.000930663)
(-0.00253164 0.000574278 0.00242914 -0.00027424 -0.000433225 0.00107564)
(0.000227964 0.0014333 0.000545736 -0.000300276 -0.000650317 -0.00615221)
(-0.000159488 0.000471025 0.00343639 -0.00135352 -0.00538027 -0.00147063)
(-0.00196462 -0.00201261 0.00302514 -0.0119799 -0.00464543 0.0023294)
(-0.000814418 0.000383225 0.00327743 -0.00051724 -0.00182542 -0.00151451)
(-0.00385511 0.00257418 0.00284603 -0.000133569 -0.00196041 0.000768105)
(-0.00549976 -0.00165436 0.000582445 0.0336301 -0.0205113 -0.00603345)
(-0.00085857 0.000544101 0.00315437 -0.000484185 -0.00276984 -0.002099)
(-0.00172885 0.000876321 0.000269181 0.00107321 -0.00038542 -0.00337421)
(-8.28595e-05 0.000293615 0.00134339 0.00034932 -0.00102548 -0.00714271)
(0.000540656 0.000641474 0.000414759 -0.000480531 0.00034653 -0.00194886)
(-0.000406845 0.000264839 0.00132397 -1.96821e-05 -0.00119148 -0.00355575)
(-0.000591144 -8.75567e-05 0.000224307 0.000199028 -0.000239388 -0.00240402)
(-0.0010713 0.000401603 0.00105313 -0.000241023 -0.00163232 -0.00670628)
(-0.000369784 0.000142635 0.00155182 -3.20791e-06 -0.00177319 -0.00446729)
(-0.000741948 -0.00125815 0.00047081 0.00198309 0.00108045 0.000296935)
(-0.00274785 -0.00339807 0.00273302 -0.0196338 0.00293945 0.00155707)
(-0.0042901 0.00271854 0.00254509 -0.000558977 -0.000464358 0.00245746)
(-0.000479641 0.000446755 0.00102321 -0.00029696 -0.000559186 -0.00147189)
(-0.00244205 -0.000239648 0.00114062 0.000680429 -0.000813268 -0.000508521)
(-0.000957631 0.000229877 0.00214266 -0.000209222 -0.00115138 -0.00101897)
(-0.000578901 0.000114871 0.00110417 -0.00012617 -0.000803907 -0.00172786)
(-0.00271369 0.000489465 0.00194524 -0.000594914 -0.0012872 0.000408176)
(-0.000865 -8.2457e-05 0.000213941 0.000149099 -0.000359924 -0.00172041)
(-0.000867168 7.24784e-05 0.00200348 -0.000113429 -0.00134706 -0.00192567)
(-0.00232781 0.00103145 -0.000874916 0.00199769 4.56703e-05 0.000225505)
(-0.0019678 0.00159808 -0.000409071 0.00209339 0.000194427 0.000631452)
(-0.00086679 0.000966 -0.000773724 0.00045166 0.00040673 0.0012333)
(-0.00210001 4.55593e-05 -0.000341523 0.000553987 0.000337351 0.000551348)
(-0.00239156 0.00131007 -0.000378674 0.00214861 0.00043875 0.00016978)
(-0.00180852 0.00121938 -0.000925807 0.00162189 -0.000182131 0.000677485)
(-0.00210124 2.31807e-05 -0.000625923 0.000428087 0.000202715 0.000596001)
(-0.0021414 0.000786129 -0.00108677 0.00146094 -0.000166794 0.000307315)
(-0.000974635 0.000719053 -0.000910909 0.000118428 0.000493039 0.00102339)
(-0.00147724 0.00061261 -0.00123949 0.000295998 -8.28342e-05 0.000470426)
(-0.00182527 9.32661e-06 -0.000778193 -0.000234082 0.0003432 0.000446287)
(-0.00165281 0.000872123 -0.00116105 0.000959885 -0.000228841 0.000640407)
(-0.00205814 -7.19189e-06 -0.000759174 6.23978e-05 0.000246273 0.000559149)
(-0.00186317 0.000463282 -0.00115787 0.000689658 -0.000113393 0.000336647)
(0.00248566 0.00352645 0.00015001 0.00122495 -4.73139e-05 0.00145289)
(0.00100575 0.0018777 -0.00115203 0.000824121 6.11474e-05 0.00128279)
(-0.00110746 0.00153668 -0.00148686 0.00135585 -0.000336844 0.00073977)
(-0.000990008 -0.000550061 -0.0014684 0.000253686 -0.000115364 0.000499964)
(-0.000957567 -0.00102519 -0.00121781 0.00129454 -0.000347972 0.00082336)
(-0.000957447 -0.00144177 5.32463e-05 0.00241265 0.000351348 0.000757641)
(-0.00128816 0.00225718 -0.00111393 0.00244394 -0.000360054 0.00106299)
(-0.0008609 -0.00114326 -0.0011469 0.00159744 -8.74093e-05 0.000914882)
(-0.00022075 0.000723636 -0.0014623 -0.000105692 0.000254324 0.00054338)
(0.000607659 0.00152807 -0.00119565 0.000469437 -3.3849e-05 0.000981684)
(-0.000319605 2.11648e-05 -8.37185e-06 -2.55826e-05 -9.04635e-05 -0.00193832)
(-6.7431e-05 6.3459e-05 0.000120579 -5.08529e-05 -0.000163269 -0.00214716)
(-0.00020203 6.9161e-05 -9.04158e-06 -1.06769e-05 -1.43583e-05 -0.00200215)
(-0.000174554 5.41589e-05 0.000171322 -1.25784e-05 -0.000162523 -0.00184816)
(-0.000478404 7.09636e-05 3.96023e-05 4.67617e-05 3.10098e-05 -0.00157636)
(-0.000134655 6.5263e-05 1.14003e-05 -7.93843e-05 -4.37085e-05 -0.00216468)
(-0.000153655 6.7524e-05 0.000192579 -6.01835e-05 -0.000232486 -0.00199947)
(-0.000361509 6.37401e-06 4.68515e-05 -7.70542e-06 -0.000165366 -0.00210044)