/*--------------------------------*- C++ -*----------------------------------*\
| =========                 |                                                 |
| \\      /  F ield         | OpenFOAM: The Open Source CFD Toolbox           |
|  \\    /   O peration     | Version:  2012                                  |
|   \\  /    A nd           | Website:  www.openfoam.com                      |
|    \\/     M anipulation  |                                                 |
\*---------------------------------------------------------------------------*/
FoamFile
{
    version     2.0;
    format      ascii;
    class       pointVectorField;
    location    "0.108/solid";
    object      pointD;
}
// * * * * * * * * * * * * * * * * * * * * * * * * * * * * * * * * * * * * * //

dimensions      [0 1 0 0 0 0 0];


internalField   nonuniform List<vector> 
5201
(
(-2.21288e-05 -1.69275e-08 -1.95051e-06)
(8.77878e-07 5.40716e-07 1.10805e-06)
(-8.5219e-06 8.4304e-07 -2.13922e-06)
(-1.45326e-05 1.08426e-06 3.90802e-07)
(-3.63525e-07 -2.53836e-07 3.37531e-06)
(3.29186e-07 -9.2637e-06 -3.41732e-06)
(-2.53314e-06 -6.2889e-07 3.90328e-06)
(9.07733e-07 -3.63065e-07 -1.82329e-07)
(1.05752e-06 -7.02293e-07 1.24107e-07)
(-5.67277e-06 6.93404e-07 -5.31946e-07)
(2.90816e-06 -1.8197e-06 -5.42224e-06)
(2.16146e-05 -8.00841e-06 2.20789e-06)
(6.88112e-07 -6.50285e-07 3.03018e-06)
(-3.04592e-06 1.16709e-06 1.90741e-06)
(-1.99172e-05 -2.16589e-06 -5.9439e-06)
(-2.37777e-06 3.90461e-07 -3.65245e-06)
(-2.59633e-06 -5.51837e-07 -1.03837e-06)
(1.17599e-06 -2.91401e-07 -7.72782e-09)
(-1.56719e-05 3.3221e-07 5.04486e-06)
(-1.18812e-06 -4.08575e-06 4.28461e-07)
(-0.000157984 1.99687e-05 4.76636e-06)
(-8.55511e-06 -6.5904e-07 -2.84553e-06)
(-4.38223e-07 -2.62277e-07 -1.62749e-07)
(4.94105e-06 -3.57785e-06 8.74439e-07)
(5.8583e-05 -1.24413e-05 2.01946e-05)
(-1.9142e-06 -2.48503e-06 3.71438e-07)
(4.16575e-06 -4.28427e-08 -2.49622e-06)
(5.15151e-08 -6.17129e-08 -1.03601e-07)
(0.000177421 -1.59057e-05 3.33814e-05)
(-0.000132027 -2.1894e-06 -5.99657e-06)
(-8.94553e-05 -3.16093e-05 2.73115e-05)
(2.47688e-07 -1.63205e-06 -9.06426e-07)
(-7.01953e-07 2.23737e-07 -1.32603e-06)
(-4.53377e-06 -1.1724e-06 -6.76289e-06)
(-7.34945e-08 2.3218e-07 -1.17409e-07)
(1.84028e-07 -6.00948e-08 1.96946e-08)
(1.27334e-06 -7.55058e-08 -1.26285e-06)
(-2.09526e-07 -3.75322e-06 8.4814e-08)
(-1.67407e-06 -3.44448e-06 1.25407e-06)
(5.96918e-05 -9.86001e-06 1.59704e-06)
(-0.000109588 -1.57769e-05 -1.39205e-07)
(-9.0268e-06 7.74216e-07 -3.30945e-05)
(-9.80352e-05 -1.87901e-05 1.45798e-05)
(5.51691e-06 -4.49876e-06 -1.97629e-05)
(2.92088e-05 -2.19454e-05 -5.45385e-05)
(5.64928e-05 8.811e-06 1.12591e-05)
(6.95767e-06 -2.49303e-06 -3.25353e-05)
(-8.53672e-05 -1.93364e-05 -1.99701e-06)
(-7.6885e-07 3.26638e-07 -3.70616e-05)
(2.9094e-06 -1.0543e-06 -3.71084e-05)
(3.08392e-05 -2.76589e-05 -0.0001517)
(6.78846e-06 -7.66498e-06 -6.22694e-05)
(1.36511e-05 -2.91501e-05 -3.10357e-05)
(-3.06245e-05 -1.96813e-05 1.82974e-05)
(-1.63545e-05 -1.12687e-06 -2.31024e-06)
(5.22083e-06 -4.86516e-07 -4.36418e-06)
(1.75467e-05 -1.31107e-05 -4.98324e-06)
(1.50287e-06 -3.63815e-07 2.52596e-06)
(1.1652e-06 1.13857e-06 9.51973e-07)
(-1.19124e-06 -2.25608e-06 1.28612e-06)
(-1.21928e-05 4.0339e-06 -4.74745e-06)
(3.26066e-06 7.86462e-07 -4.17861e-07)
(-5.97371e-06 -6.54256e-07 -1.80912e-06)
(1.10984e-06 8.8127e-09 -1.43816e-08)
(-1.63457e-05 1.14432e-06 3.72994e-06)
(-1.18278e-05 -3.17621e-06 3.63667e-07)
(-0.000109018 6.7738e-06 3.5626e-06)
(-1.13828e-05 1.15e-07 -2.37059e-06)
(-8.14248e-07 5.64763e-07 1.63042e-06)
(6.90025e-08 -7.21493e-07 4.45626e-06)
(-9.47781e-07 -1.30112e-06 -4.30765e-07)
(2.20786e-07 2.71908e-06 -6.592e-06)
(1.72227e-06 1.04688e-05 -8.97095e-06)
(-1.66278e-05 1.29226e-05 -1.07569e-05)
(6.28236e-05 1.43827e-07 -0.000189575)
(4.30929e-06 -5.53768e-06 3.33747e-07)
(1.14817e-05 -1.2939e-07 3.55016e-06)
(-1.14585e-05 -5.2448e-07 3.99697e-06)
(4.82399e-05 -1.05224e-05 2.24305e-05)
(-2.12544e-06 -1.00262e-06 -9.09966e-07)
(6.10222e-07 -6.07274e-08 1.9778e-06)
(-1.96629e-07 -3.42551e-07 -5.02311e-07)
(1.21122e-06 -3.40211e-07 -5.84554e-08)
(2.57786e-07 -2.24977e-07 -1.60177e-08)
(-6.72004e-06 -8.62389e-07 -1.80311e-06)
(3.92504e-06 -6.62253e-06 -3.85284e-05)
(1.58226e-07 -5.4966e-07 -1.95463e-07)
(2.85981e-06 -1.47078e-06 1.80291e-06)
(-1.07097e-07 -2.88623e-07 -2.10525e-07)
(1.01641e-06 -1.11449e-06 -3.93461e-07)
(-5.17986e-07 -2.94163e-09 3.3591e-07)
(0.00014397 3.85132e-05 1.61736e-05)
(3.87195e-05 -1.45036e-05 -1.41793e-05)
(3.56625e-05 -6.54982e-06 6.51969e-06)
(-0.000142931 -3.28589e-05 -3.56214e-06)
(-0.000111552 -2.14095e-05 -2.10436e-06)
(-4.2102e-06 -1.18543e-06 -3.43565e-05)
(-9.53095e-05 -4.04256e-05 3.29231e-05)
(-8.37095e-05 -2.41054e-05 2.35989e-05)
(-1.15361e-07 -1.31434e-06 -1.0509e-06)
(-2.54108e-07 -2.47387e-06 -2.24093e-06)
(0.000113076 -5.21483e-05 -3.01748e-05)
(2.75099e-06 -1.52882e-06 -3.9504e-07)
(0.000137923 -1.21159e-05 2.22744e-05)
(7.80048e-06 -3.57028e-07 -4.92471e-07)
(5.68171e-08 -1.22442e-06 -3.96509e-07)
(-3.55674e-07 2.47189e-06 -2.23119e-05)
(-2.31643e-05 1.13962e-06 -1.59858e-05)
(3.23097e-07 -1.67404e-07 -6.21375e-07)
(7.91913e-06 -1.29065e-06 -3.5387e-06)
(-1.34277e-06 3.28816e-07 -2.35346e-06)
(-3.69551e-06 7.00907e-07 -5.39824e-06)
(1.32099e-06 8.25845e-08 3.19034e-08)
(1.71741e-07 -1.58848e-07 -6.7758e-08)
(-6.84989e-05 -1.59932e-05 2.15681e-05)
(-8.76014e-06 -2.91337e-06 1.51816e-06)
(-0.000120978 -2.23159e-05 8.92386e-06)
(-7.05461e-07 -4.07504e-06 1.27177e-07)
(-1.47893e-06 -3.7948e-06 9.14879e-07)
(-0.000159576 -2.68062e-05 9.56466e-06)
(-0.000151417 1.45935e-05 -4.93273e-06)
(-0.000138124 -6.44095e-07 1.85873e-05)
(-8.97903e-05 -2.00507e-06 -6.46207e-06)
(-8.17439e-06 -3.48487e-06 -4.86988e-07)
(2.45273e-06 -1.7178e-06 -3.33639e-05)
(-5.5432e-07 -5.95667e-07 -5.66173e-07)
(-1.77015e-07 -7.51633e-08 -1.21278e-07)
(1.22629e-05 -5.43385e-06 -6.76278e-05)
(1.44062e-06 -3.5317e-06 9.95316e-07)
(1.55939e-06 1.15217e-06 7.7861e-08)
(0.00013476 1.79663e-05 2.13303e-05)
(4.01353e-05 -2.49352e-06 3.15768e-05)
(-2.03567e-05 -4.11808e-05 2.5794e-05)
(-1.88062e-05 -1.69354e-05 2.10712e-05)
(-2.79382e-07 -9.70596e-07 -1.04713e-06)
(-1.95382e-06 -3.08861e-06 1.07566e-06)
(6.20056e-06 -4.29447e-07 -3.9842e-06)
(1.04354e-07 5.01804e-07 1.01992e-09)
(3.67386e-07 3.3456e-07 2.1513e-06)
(-1.38213e-07 -2.33463e-08 8.84675e-07)
(-1.91709e-07 1.29169e-07 -4.63937e-07)
(1.63505e-07 -8.42455e-08 2.04578e-08)
(-6.47451e-07 2.18361e-09 2.61276e-07)
(1.07155e-07 -3.27358e-06 2.42959e-07)
(9.2507e-05 -1.76598e-05 -8.09023e-06)
(2.05405e-05 -1.15895e-05 -3.99669e-06)
(7.14719e-05 -2.53998e-05 2.18851e-06)
(7.70485e-05 6.52779e-06 1.4599e-05)
(-0.00011113 -1.55032e-05 6.5261e-06)
(-0.000103061 5.23672e-06 -4.58656e-06)
(-0.00012086 -2.19667e-05 1.90572e-06)
(-0.00015794 -2.80194e-05 3.0363e-07)
(-9.88651e-05 -1.78979e-05 -2.77196e-06)
(-9.91334e-05 -2.49693e-06 1.43339e-05)
(-3.32006e-06 5.43744e-07 -3.57771e-05)
(-1.16337e-05 -4.52955e-06 -3.04938e-05)
(-7.00137e-05 -2.24584e-05 1.93299e-05)
(-0.000108119 -2.29165e-05 1.72908e-05)
(-0.000138942 -3.33961e-05 2.20471e-05)
(8.97626e-06 -3.70003e-06 -2.67685e-05)
(1.65389e-06 -3.97769e-07 -3.12375e-05)
(1.50485e-05 -2.9918e-06 -3.31283e-05)
(6.32622e-05 4.06965e-05 -0.000149225)
(2.58458e-05 -1.84926e-05 -0.00012956)
(0.000110257 3.83099e-05 2.0805e-05)
(1.40463e-05 -9.228e-06 1.30142e-05)
(0.000112091 -1.51818e-07 2.198e-05)
(1.4399e-05 -6.58489e-06 1.411e-05)
(3.42588e-06 -2.34108e-06 -3.55934e-05)
(4.60852e-06 -2.53645e-06 -3.65421e-05)
(-9.85255e-05 -2.02803e-05 -3.05062e-06)
(-7.60707e-05 -8.52006e-06 -3.87419e-06)
(5.44195e-05 -2.8833e-05 -0.000209235)
(-1.73205e-05 -2.04385e-05 2.29634e-05)
(-2.71929e-07 -6.7716e-07 -3.69269e-05)
(3.52751e-07 -6.01537e-08 -3.32374e-05)
(1.05707e-05 -6.82331e-06 -4.16334e-05)
(1.1713e-05 -6.23803e-06 -8.55312e-05)
(3.1461e-06 -2.44445e-05 -3.75419e-05)
(-3.3188e-05 -3.42673e-05 3.66107e-05)
(-5.23468e-05 -2.26809e-05 2.5057e-05)
(3.42479e-06 -9.65497e-07 -1.72758e-06)
(2.21201e-06 3.54201e-07 -1.40926e-07)
(5.88941e-06 2.54436e-06 -9.23792e-07)
(7.68723e-07 -7.01994e-07 -4.01276e-07)
(-4.01102e-06 -1.31316e-06 -7.31232e-07)
(3.79774e-07 -1.58487e-06 -4.41496e-08)
(-1.12479e-06 -1.44743e-06 -6.74152e-07)
(6.27661e-07 -9.07916e-08 2.00696e-08)
(-3.65034e-07 -1.11939e-08 5.32112e-07)
(2.3069e-07 -5.57012e-08 1.24491e-06)
(8.766e-07 -1.14866e-08 2.53976e-06)
(5.10683e-07 8.3623e-07 1.58334e-07)
(3.91763e-06 1.23918e-06 -1.27968e-06)
(-5.71366e-08 -3.06621e-06 -3.09265e-07)
(-3.73262e-07 -1.14955e-06 -4.08043e-07)
(-2.34564e-07 4.23923e-09 -1.47037e-07)
(-6.08346e-07 2.31619e-09 2.64094e-07)
(1.36637e-07 -2.30289e-07 -4.41411e-08)
(5.86208e-06 -6.96402e-06 -2.91344e-06)
(-1.04707e-05 -3.48611e-06 -5.46753e-07)
(-1.11258e-05 -2.92622e-06 1.49495e-06)
(1.19659e-06 8.32491e-08 -3.04624e-07)
(3.9519e-06 2.55148e-06 -1.94562e-06)
(-6.12387e-06 -3.13053e-06 2.2348e-07)
(8.08813e-08 3.54256e-06 -8.69022e-06)
(-5.7098e-06 -2.56724e-06 3.16256e-10)
(-7.18858e-06 1.4834e-06 -4.74204e-05)
(2.12388e-06 7.72381e-06 1.57939e-05)
(-8.12626e-06 -6.4866e-06 -1.58209e-05)
(-1.08279e-05 4.75766e-06 -5.96218e-05)
(7.69498e-06 -4.42629e-07 1.56488e-05)
(-5.72699e-07 -3.79363e-06 -8.40749e-06)
(3.94249e-05 -5.04237e-05 -5.18596e-05)
(4.39038e-06 -4.48015e-06 -1.96675e-05)
(-4.30085e-06 3.4383e-07 -2.55661e-05)
(4.82959e-05 -5.18299e-05 -6.45679e-05)
(-1.17303e-06 -3.20589e-06 -1.42126e-05)
(3.44182e-06 -3.00704e-06 -1.77919e-05)
(6.72281e-06 -8.56092e-06 -3.08375e-05)
(6.12306e-06 -1.04684e-05 -1.70733e-05)
(3.31886e-06 6.48012e-07 -1.81575e-05)
(9.50478e-07 4.57805e-07 -2.37836e-05)
(-5.24372e-06 1.50509e-08 -2.55783e-05)
(7.17396e-05 8.05769e-06 9.60822e-06)
(2.48091e-05 -1.0446e-05 -4.03223e-06)
(-5.11149e-06 1.01552e-06 -3.86891e-05)
(-0.000141293 -3.0728e-05 -1.27043e-06)
(-0.000148629 -2.96041e-05 5.29318e-06)
(4.77475e-08 2.46975e-05 1.63513e-05)
(-3.08792e-06 -1.43144e-06 -1.67214e-05)
(-9.75517e-06 1.15464e-06 -1.46747e-05)
(-3.51285e-06 -8.42732e-07 -1.85613e-05)
(-1.70115e-05 1.00848e-05 -0.000110969)
(-0.000112918 -3.20779e-05 2.57874e-05)
(-0.000140021 -3.00379e-05 1.54226e-05)
(8.04501e-06 -8.03416e-07 5.07138e-06)
(-2.075e-06 2.98651e-07 -2.88826e-05)
(-7.20734e-06 1.8346e-08 -2.98657e-05)
(3.58164e-06 -5.00537e-06 -4.00467e-06)
(1.14027e-06 -3.01829e-06 -1.49725e-05)
(7.34807e-06 -7.87444e-06 -7.87376e-06)
(9.46182e-06 -1.19573e-05 -1.27167e-06)
(5.35108e-05 -5.00133e-05 -2.02048e-05)
(2.32842e-05 -1.88716e-05 -5.28509e-05)
(0.000113478 3.93808e-05 -4.31285e-05)
(2.53529e-05 -1.4528e-05 -1.12936e-05)
(7.70918e-05 3.11884e-05 1.46641e-05)
(3.65214e-05 8.37797e-06 2.24215e-05)
(9.08343e-05 5.74382e-05 4.36613e-05)
(0.000146534 0.000122192 1.56278e-05)
(2.33609e-06 -2.76993e-06 -1.57383e-05)
(1.08294e-05 -8.67189e-06 -2.38663e-05)
(8.86357e-06 -5.54756e-06 -1.25923e-05)
(-2.1756e-05 -1.16154e-05 1.18128e-05)
(-9.24048e-07 -1.16977e-05 5.57359e-06)
(-4.14368e-06 6.91363e-07 -2.98771e-05)
(-7.82866e-05 3.90279e-06 3.06919e-06)
(-7.52797e-05 3.96672e-06 -1.01289e-06)
(-0.000139873 -2.84744e-06 3.31189e-06)
(-0.000131806 -1.39069e-05 5.87762e-07)
(-0.000125883 -3.14676e-05 -3.50656e-06)
(-0.00011774 -2.69615e-05 -5.52014e-07)
(-6.86804e-05 3.30853e-06 -2.90532e-06)
(5.41585e-05 -6.25473e-05 -2.46563e-05)
(5.42326e-05 4.43522e-05 0.000124298)
(-1.32027e-06 -2.21415e-06 -1.60623e-05)
(-6.40603e-07 -1.1769e-06 -1.79608e-05)
(-1.38848e-06 -4.79026e-07 -1.83491e-05)
(-1.14518e-05 -7.08145e-06 -1.17409e-05)
(8.41788e-06 -4.11807e-06 -2.14898e-05)
(-4.53119e-06 -2.2329e-06 -1.86358e-05)
(6.07533e-07 -9.88797e-07 -1.69185e-05)
(7.10984e-06 -1.14744e-06 -1.91313e-05)
(1.80829e-07 -3.70353e-07 -1.87552e-05)
(2.99666e-05 -1.33662e-05 -6.31787e-05)
(1.38341e-05 1.51989e-05 -2.40337e-05)
(1.58376e-05 -3.79498e-06 -4.64447e-05)
(1.21533e-05 -1.60791e-05 -2.28788e-05)
(1.41166e-05 -2.64089e-06 -3.09749e-05)
(1.77281e-05 -1.03159e-05 -2.55385e-05)
(1.02175e-05 -2.98625e-05 -1.14195e-05)
(1.56013e-05 -3.12597e-05 -9.68023e-06)
(-7.01296e-05 -3.08385e-05 3.11447e-05)
(-1.72296e-05 -1.72746e-05 2.93726e-05)
(-7.51583e-05 2.57189e-06 8.61318e-06)
(-6.53982e-05 -3.82924e-07 1.37642e-05)
(-0.00013525 -9.68514e-06 8.92721e-06)
(-0.000110158 -3.20068e-05 2.07505e-05)
(1.10808e-05 -1.45814e-05 4.8242e-05)
(-6.0538e-05 -4.34981e-05 3.61864e-05)
(-3.76599e-05 -8.65218e-06 1.57761e-05)
(-5.18642e-05 -4.4845e-06 1.65035e-05)
(5.79777e-06 3.43835e-08 -9.87326e-06)
(-7.61637e-07 2.53543e-07 -2.66785e-05)
(-6.34199e-06 -1.07194e-07 -2.76321e-05)
(8.3235e-07 4.35012e-07 1.63298e-06)
(8.24291e-07 4.37637e-07 1.71688e-07)
(-2.86097e-07 -1.00663e-06 -1.00705e-06)
(-1.64081e-06 2.90038e-07 -7.37449e-06)
(-1.00756e-05 3.11871e-06 -2.66932e-06)
(-1.26798e-05 -1.91111e-06 -3.02356e-06)
(-2.01654e-06 1.04941e-06 -1.32443e-06)
(-7.30664e-06 -4.02288e-07 -1.90085e-06)
(-1.43243e-06 2.70891e-06 -1.72094e-05)
(-5.93782e-07 1.39614e-07 2.4449e-06)
(-1.03055e-07 -4.74506e-07 4.03394e-06)
(-9.18477e-07 -1.71456e-06 -1.17068e-06)
(-3.37408e-07 -8.61738e-07 -5.13806e-07)
(1.03944e-06 -4.70054e-07 -1.21138e-05)
(3.95726e-05 -1.29168e-05 -9.82036e-05)
(3.83381e-06 -8.75265e-06 2.08763e-06)
(4.81944e-07 -3.24172e-07 -3.12499e-07)
(1.1301e-06 -3.65134e-07 -1.17666e-07)
(-3.5706e-06 7.40833e-07 -2.75257e-05)
(2.71869e-06 -9.35108e-07 -1.56121e-07)
(4.91737e-07 -1.36026e-07 -1.49236e-07)
(4.69386e-06 -5.64345e-06 -1.90485e-05)
(6.08209e-07 -6.16952e-07 -4.17169e-07)
(1.07272e-06 -1.35895e-06 -4.95912e-08)
(4.88283e-07 -3.11226e-07 1.82241e-07)
(1.9276e-06 -8.57898e-07 -1.5151e-07)
(0.000135276 6.27717e-05 9.10315e-06)
(5.82255e-05 -9.5013e-06 8.14041e-06)
(-0.000148916 -4.26146e-05 -4.75728e-06)
(-0.00014311 -2.91904e-05 -4.68454e-06)
(-0.000100702 -4.15618e-05 3.91929e-05)
(-0.000102313 -3.2154e-05 3.53499e-05)
(-8.74016e-07 8.44474e-07 9.82192e-07)
(-5.84368e-07 -1.39734e-06 -1.33437e-06)
(-7.36992e-07 -1.14305e-06 -1.68315e-06)
(2.3999e-06 1.58218e-05 -1.391e-05)
(6.04833e-05 -1.57602e-05 -5.5746e-05)
(4.68457e-06 -1.47328e-06 -2.34123e-06)
(1.15822e-06 2.4941e-08 -3.61278e-06)
(2.66418e-06 -1.80073e-06 2.44148e-06)
(1.08128e-07 -6.91913e-07 3.78533e-06)
(1.65777e-08 -1.56287e-06 -1.83203e-06)
(-4.881e-08 -1.12042e-06 -7.03579e-06)
(1.08487e-06 5.35102e-07 1.05874e-06)
(-1.65653e-05 1.59e-06 -8.50234e-06)
(-8.68748e-08 -2.2355e-07 -7.83923e-07)
(-1.29344e-05 2.661e-06 -7.83679e-06)
(-1.73931e-05 8.15391e-06 -1.89609e-06)
(-4.48731e-06 7.96916e-06 -4.53124e-05)
(-3.63351e-05 -2.11632e-07 -1.20093e-05)
(-1.04072e-05 -2.79933e-06 -6.23608e-06)
(-4.66934e-08 -1.33927e-07 3.45046e-06)
(8.85611e-07 1.2259e-07 4.82304e-07)
(-1.77995e-06 3.40666e-07 -2.93343e-06)
(-3.09266e-06 5.51392e-07 -4.50885e-06)
(-4.32326e-06 -5.28876e-07 -1.40399e-06)
(-1.18821e-06 -4.68332e-07 -7.90563e-07)
(-4.30518e-07 1.44478e-06 -2.40808e-05)
(5.74624e-08 3.4709e-07 -6.16197e-07)
(-7.83737e-08 -2.71254e-06 9.4471e-07)
(1.14046e-06 -1.72842e-07 -1.649e-08)
(1.21123e-06 -3.27033e-07 -1.72948e-08)
(-6.45334e-06 2.28211e-07 -3.27923e-05)
(2.43204e-06 -4.77713e-07 -3.39269e-07)
(3.82003e-07 -2.02199e-07 -8.12491e-08)
(-3.17292e-06 -2.20485e-06 1.6819e-07)
(-6.81446e-05 -1.33503e-05 5.17415e-06)
(1.44926e-06 -4.69219e-06 2.69486e-07)
(1.07327e-06 -4.50459e-06 5.28103e-07)
(-0.000148064 2.62745e-05 2.52239e-06)
(-0.000156723 -2.74595e-06 7.35482e-06)
(-0.000157265 1.98879e-05 -1.18539e-06)
(-0.000151757 1.25644e-05 1.19183e-05)
(-6.45544e-07 -5.39438e-07 -2.17494e-07)
(-2.22351e-07 -3.32583e-07 -1.66951e-07)
(5.85629e-07 -1.55833e-06 -1.6714e-05)
(-5.41823e-07 -4.28005e-07 -2.25546e-07)
(-3.69745e-07 -8.56805e-08 -8.92481e-09)
(6.4894e-06 -3.06504e-06 -9.99416e-07)
(4.42399e-06 -3.08828e-06 -1.6695e-06)
(1.74241e-05 -8.78449e-06 -3.79502e-05)
(4.4062e-06 -4.63435e-06 9.00756e-07)
(4.2052e-06 -3.52726e-07 -5.67656e-07)
(5.87964e-05 -2.14627e-05 3.07931e-05)
(9.78033e-05 7.75186e-06 1.95637e-05)
(5.3138e-05 6.79758e-06 2.37034e-05)
(1.8516e-05 -3.05307e-05 2.29624e-05)
(-2.33847e-06 -1.10957e-06 3.83918e-07)
(-2.18582e-05 -1.05755e-05 1.0012e-05)
(-2.18383e-07 -1.60536e-06 -2.5577e-07)
(-2.91631e-07 -2.47786e-06 5.25921e-07)
(7.37429e-07 -2.91228e-07 7.90976e-08)
(2.54409e-05 -4.13595e-06 -2.48628e-05)
(5.88233e-06 -2.98846e-07 -3.6156e-06)
(5.62213e-07 3.65357e-07 2.21194e-07)
(1.18133e-06 -8.51427e-06 3.09867e-06)
(-1.27639e-07 -3.2008e-07 -7.66154e-09)
(4.35105e-08 -3.44067e-08 1.88892e-08)
(-4.33805e-08 1.95573e-08 -2.32004e-07)
(1.18614e-07 -8.29409e-08 -2.64468e-08)
(0.00015592 4.50527e-05 2.60446e-05)
(0.000157957 -1.78507e-05 3.24904e-05)
(0.000167172 4.26686e-06 5.84834e-06)
(0.000164141 1.57805e-05 2.12743e-05)
(3.22688e-05 -3.08947e-06 4.45994e-05)
(-5.77896e-06 -2.30649e-05 3.62871e-05)
(-0.000154524 -2.92678e-05 1.19763e-05)
(-0.000162216 -3.97893e-05 1.18055e-05)
(-0.000135455 -1.63673e-05 -4.1286e-06)
(-0.000128879 1.44357e-05 -5.44778e-06)
(-0.000142398 6.36099e-06 -6.26579e-06)
(-0.000125455 -3.16203e-06 -2.89959e-07)
(-0.000121424 -9.93557e-06 -4.60341e-06)
(-9.074e-05 -3.46035e-05 2.88378e-05)
(-0.000117019 -1.64182e-05 2.38873e-05)
(-5.67242e-05 -4.14201e-05 2.77376e-05)
(-8.61674e-05 -3.60777e-05 2.07608e-05)
(1.65012e-05 -9.73097e-06 -8.82809e-06)
(-4.0292e-07 -1.30593e-06 -5.51101e-07)
(8.12389e-07 -2.05003e-06 -6.92728e-07)
(-3.2716e-07 -1.14363e-06 -8.90544e-07)
(5.58717e-07 -1.74274e-06 -5.44559e-07)
(-1.02342e-06 2.87461e-07 -1.84389e-06)
(-8.04783e-07 -2.57496e-07 1.1068e-06)
(3.51609e-07 1.10171e-08 2.25557e-07)
(-4.13043e-07 2.00546e-07 -8.41492e-07)
(8.60818e-06 7.51546e-07 5.80022e-06)
(-4.80249e-06 -3.45787e-08 -7.44599e-06)
(-5.2957e-07 1.13227e-06 -1.38734e-08)
(8.036e-07 -3.69524e-07 4.28017e-08)
(5.61985e-06 -7.08085e-06 4.03762e-07)
(-2.49677e-06 -3.46161e-07 -1.76681e-05)
(2.19558e-08 -1.30828e-07 -2.30887e-07)
(6.65047e-08 2.18695e-07 -7.72234e-07)
(5.57985e-08 -4.4866e-10 2.6446e-08)
(-1.97956e-07 6.09561e-07 -6.69695e-08)
(2.63864e-07 -1.21346e-07 -1.19111e-07)
(1.69799e-07 -2.88026e-08 -4.92544e-09)
(1.85687e-07 -7.95157e-08 3.35015e-08)
(3.379e-08 -2.08496e-08 1.55158e-08)
(9.89861e-06 -4.32528e-06 2.92865e-06)
(3.06211e-07 -8.73117e-07 -1.28443e-06)
(2.74909e-07 1.08867e-07 -3.0772e-07)
(1.52593e-06 -1.72906e-07 -1.51638e-06)
(-6.2409e-05 -1.23091e-05 -6.92795e-07)
(1.72666e-06 -4.46891e-06 1.79719e-07)
(-2.89467e-06 -2.01345e-06 -8.64441e-08)
(1.82238e-06 -4.01078e-06 2.55319e-07)
(-4.99762e-05 -1.41249e-05 1.27912e-05)
(6.66913e-07 -3.93512e-06 8.36119e-07)
(1.74592e-07 -3.20886e-06 9.32209e-07)
(-2.96567e-06 -1.76908e-06 5.61406e-07)
(3.69311e-05 -9.81615e-06 3.74377e-07)
(6.45247e-05 -1.51253e-05 3.56679e-06)
(7.57183e-05 -2.451e-06 1.33152e-05)
(3.42379e-05 -8.32386e-06 -4.67208e-06)
(-4.69257e-06 6.00021e-07 -2.24715e-05)
(-0.000112952 -1.57458e-05 2.81184e-06)
(-0.000114358 -2.11312e-05 1.40205e-06)
(-0.000142742 -2.13485e-05 1.28923e-08)
(-0.000105885 -1.71724e-05 -1.92993e-06)
(-5.70683e-06 1.16105e-06 -3.62751e-05)
(-1.07392e-05 -1.25112e-06 -3.14259e-05)
(-3.1636e-06 -5.25932e-07 -1.78213e-05)
(-5.70769e-06 4.23809e-06 -3.27854e-05)
(-1.07363e-05 3.84356e-06 -5.24124e-05)
(-0.000107482 -1.73064e-05 1.07012e-05)
(-8.64253e-05 -2.12601e-05 1.75708e-05)
(-0.000101794 -2.22159e-05 1.53332e-05)
(-0.00012609 -2.58635e-05 1.92542e-05)
(-7.39207e-06 6.31737e-08 -2.54498e-05)
(4.06297e-06 -1.93845e-05 -7.32334e-06)
(8.5183e-06 -4.64164e-06 -2.52361e-05)
(3.73425e-06 -1.41254e-06 -2.61075e-05)
(1.51916e-06 -5.79133e-06 -9.14005e-06)
(5.08955e-06 -3.58515e-06 -7.05477e-06)
(6.41172e-05 -2.0556e-05 -1.74442e-05)
(2.18474e-05 -7.24818e-06 -3.5279e-05)
(3.36852e-05 -1.97377e-05 -9.61065e-05)
(2.20934e-05 -4.79441e-06 -0.000108593)
(3.43752e-05 -2.69084e-05 -2.47997e-05)
(7.14103e-05 1.16106e-05 1.21774e-05)
(8.0008e-05 3.44925e-05 1.59922e-05)
(3.38671e-05 7.27283e-06 1.06308e-05)
(3.66749e-05 1.43217e-06 1.21632e-05)
(0.0001161 2.811e-05 3.90711e-05)
(8.00669e-06 -2.89746e-06 -2.69261e-05)
(1.03746e-05 -2.70635e-06 -3.20876e-05)
(4.75041e-06 -2.54686e-06 -3.46113e-05)
(5.76515e-06 -2.48298e-06 -4.06083e-05)
(5.27029e-06 -5.11214e-06 -1.64419e-05)
(6.61605e-06 -2.82698e-05 2.18951e-05)
(-4.27623e-06 1.12652e-08 -1.7609e-05)
(-0.000139512 1.26512e-06 5.46543e-07)
(-0.000146053 -3.3233e-05 1.02928e-06)
(-9.29575e-05 -1.90567e-05 -2.6499e-06)
(-9.11022e-05 -2.14253e-05 -1.71205e-06)
(0.000115582 -3.64087e-05 -0.000159622)
(-1.892e-06 5.70698e-07 -3.74919e-05)
(3.14892e-07 1.16816e-07 -3.51057e-05)
(-7.36329e-07 -6.55114e-07 -3.74411e-05)
(-1.17558e-06 -1.68483e-06 -1.85377e-05)
(-4.00972e-07 2.69797e-06 -3.18067e-05)
(-1.24493e-05 -9.21203e-06 -2.70259e-05)
(-2.62053e-06 -4.51113e-06 -3.04438e-05)
(3.05241e-06 -1.98657e-06 -3.30996e-05)
(1.20711e-06 -3.16767e-07 -3.92334e-05)
(1.58574e-06 -2.86795e-07 -3.87945e-05)
(6.34153e-06 -2.48589e-06 -3.73492e-05)
(1.5472e-06 -7.51589e-07 -1.86458e-05)
(1.76063e-05 -3.69496e-05 -0.000102277)
(3.58401e-05 -5.27563e-05 -0.000194305)
(1.94381e-05 1.00585e-06 -0.000111293)
(2.89496e-05 2.63174e-06 -7.84676e-05)
(5.15296e-06 -5.74893e-06 -4.70146e-05)
(1.02507e-05 -6.47513e-06 -6.34681e-05)
(1.08449e-05 -4.83375e-06 -5.77392e-05)
(-3.3114e-07 -1.67333e-05 -6.17188e-05)
(7.73634e-06 -1.69313e-06 -3.22817e-05)
(1.27552e-05 -1.48594e-05 -3.78631e-05)
(8.05749e-06 -2.71908e-05 -3.45515e-05)
(2.11721e-05 -2.80222e-05 -3.68753e-05)
(1.40011e-05 -4.4122e-05 -2.61629e-05)
(1.00112e-05 -2.05962e-05 -1.69155e-05)
(-5.18265e-05 -2.24106e-05 1.93495e-05)
(-8.45972e-06 -1.4184e-05 1.59915e-05)
(-3.52309e-05 -2.52073e-05 2.63085e-05)
(-4.06659e-05 -1.97491e-05 2.01571e-05)
(-0.000125397 -3.3452e-06 2.2013e-05)
(-0.000132781 -3.93735e-05 2.11846e-05)
(-3.24711e-05 -4.248e-05 5.10212e-05)
(-6.6378e-05 -1.86245e-05 3.3676e-05)
(-6.20544e-06 -1.8139e-07 -2.20775e-05)
(3.03711e-07 -1.04988e-06 -6.06377e-07)
(1.88516e-07 -1.06681e-06 -3.32545e-06)
(3.59975e-07 -1.12162e-06 6.90158e-08)
(-6.50648e-06 8.88128e-06 -4.22408e-05)
(-2.42846e-05 3.84468e-06 -8.04525e-06)
(-3.24161e-06 3.58301e-06 -1.59784e-06)
(-6.12076e-06 1.61195e-06 -2.91657e-05)
(2.63192e-06 4.12337e-07 -2.97767e-07)
(4.35104e-06 1.75654e-06 -5.12747e-07)
(2.57806e-07 1.37918e-06 -2.27505e-05)
(-8.30673e-07 4.1312e-07 -1.06943e-06)
(-4.05634e-06 -3.28769e-06 7.3338e-07)
(-7.21553e-06 2.91204e-07 -3.45113e-05)
(2.17868e-06 6.49004e-08 -3.90586e-07)
(3.90627e-07 -7.24655e-09 -7.20275e-08)
(-5.3321e-07 -1.35111e-06 -5.63467e-07)
(-3.35536e-08 -4.40435e-07 -3.73956e-09)
(-4.16166e-07 -1.86615e-06 -1.54148e-06)
(-2.61718e-07 -1.09717e-06 -7.06178e-07)
(-8.40293e-07 -2.75895e-06 -1.57025e-05)
(-1.16921e-06 -1.37922e-06 -5.26814e-07)
(-6.68162e-07 -1.17142e-06 -4.08195e-07)
(9.66733e-07 1.70209e-06 -2.46271e-05)
(3.80584e-07 1.90402e-06 -3.59016e-06)
(1.49585e-07 3.28926e-06 -8.72449e-06)
(4.52886e-05 -0.000121583 -9.38953e-06)
(-4.27077e-06 6.7521e-06 -3.88797e-06)
(3.36175e-06 6.78251e-06 -1.19948e-05)
(2.5262e-05 3.8881e-05 -0.000116981)
(-2.13444e-05 2.56621e-05 -1.61496e-05)
(-1.46474e-06 4.35005e-06 -1.68609e-06)
(6.75949e-05 -7.80155e-05 -0.000148482)
(3.55928e-05 -1.59597e-05 -0.000140825)
(0.000109895 -1.01828e-05 -0.000151382)
(2.49628e-05 -2.01609e-05 -6.93076e-05)
(-1.84497e-06 -5.46699e-06 -4.04314e-06)
(3.28354e-07 -2.80632e-08 1.51566e-06)
(7.12754e-07 -3.52151e-08 2.28794e-06)
(-1.96605e-06 1.10456e-06 -2.58887e-05)
(4.35302e-07 1.03948e-07 -3.29121e-07)
(2.11387e-06 -1.47452e-06 2.62276e-07)
(-5.17705e-06 3.28189e-07 -3.02063e-05)
(2.67587e-06 -6.37718e-07 -3.49962e-07)
(4.36753e-07 -2.27427e-07 -9.04931e-08)
(-5.16557e-06 -1.37148e-07 -1.93922e-05)
(4.10388e-07 -1.54918e-07 2.17173e-09)
(1.70006e-07 -2.35512e-07 -3.52016e-08)
(3.92146e-06 -3.87159e-06 -3.79132e-05)
(3.80879e-06 -4.99381e-06 -4.08842e-05)
(6.1401e-06 -7.32807e-06 -3.23845e-05)
(3.06363e-06 -1.18008e-05 -3.64397e-05)
(2.44291e-06 -2.65021e-06 -1.7677e-05)
(7.64303e-08 -9.70282e-07 -1.93215e-07)
(-9.03138e-09 -2.19675e-07 1.84266e-07)
(8.94364e-06 -5.30549e-06 -1.95833e-05)
(1.54695e-06 -1.78112e-06 2.91707e-07)
(2.8259e-06 -1.02676e-06 6.79285e-07)
(6.15619e-06 -5.3238e-06 -2.08442e-05)
(-1.80653e-07 -5.72458e-07 -3.04467e-07)
(3.59969e-08 -1.22212e-07 7.16798e-08)
(7.18608e-06 -1.68677e-05 -2.11058e-05)
(8.40178e-07 6.16953e-07 -9.40181e-07)
(6.34235e-07 -3.40727e-07 -6.3487e-07)
(-4.56563e-07 -3.78075e-09 4.05633e-07)
(-5.78694e-07 3.49273e-09 2.79046e-07)
(0.000119339 4.12841e-06 1.86423e-05)
(0.000105071 3.73523e-05 1.66287e-05)
(0.000132791 1.86434e-05 -2.04895e-06)
(0.000136082 4.7509e-05 1.63624e-05)
(0.000102437 3.95927e-05 3.10057e-05)
(3.77557e-05 -1.25345e-05 2.47519e-05)
(3.19117e-05 -1.52293e-05 -5.67754e-06)
(5.51489e-05 -1.97362e-05 -5.17304e-06)
(1.90324e-05 -7.13162e-06 -2.23131e-05)
(2.44436e-05 -5.92095e-06 -2.12152e-05)
(3.15912e-05 -1.10397e-05 3.0374e-06)
(5.30528e-05 9.23485e-06 1.00047e-05)
(3.37662e-05 -2.48242e-05 5.94882e-06)
(2.82786e-05 -6.05769e-06 8.92799e-06)
(-0.000155001 -2.93538e-05 1.36713e-06)
(-0.000162115 -4.10113e-05 9.2697e-07)
(-0.000151424 -3.04117e-05 -2.23277e-06)
(-0.000128958 -2.51051e-05 -3.38503e-06)
(-0.000133785 -3.87756e-05 -2.94698e-06)
(-0.000133522 -3.48528e-05 -3.844e-06)
(-0.000117327 -2.21404e-05 -4.72519e-07)
(-0.000104396 -2.16574e-05 -1.65405e-06)
(-0.000129941 4.76932e-07 -5.4364e-06)
(-0.000105541 -2.12831e-05 -2.85833e-06)
(-3.86027e-06 -6.57037e-07 -3.70573e-05)
(-7.34377e-06 -2.63978e-06 -3.59714e-05)
(-1.94453e-06 -6.58117e-07 -3.50681e-05)
(-3.37456e-06 -9.62282e-07 -3.20757e-05)
(1.14133e-05 -1.42423e-05 -6.88069e-05)
(-4.07665e-05 -3.2653e-05 4.66381e-05)
(-5.62029e-05 -3.08936e-05 3.97939e-05)
(-0.000136052 -2.9668e-05 2.47605e-05)
(-0.000141833 -4.07987e-05 2.59394e-05)
(-8.81818e-05 -3.13504e-05 2.65758e-05)
(-0.000119717 -3.74245e-05 2.78984e-05)
(-6.62571e-05 -4.03511e-05 3.58913e-05)
(-9.38919e-05 -4.72713e-05 3.67459e-05)
(-7.56866e-05 -2.35291e-05 2.04186e-05)
(-9.74866e-05 -2.38922e-05 2.09617e-05)
(-6.88944e-05 -2.40099e-05 2.50306e-05)
(-9.94741e-05 -1.01974e-05 3.06833e-05)
(1.14084e-05 -7.11943e-06 -4.927e-06)
(-1.09683e-07 -8.31984e-07 -1.30545e-06)
(-6.17888e-07 -1.45578e-06 -5.61384e-07)
(1.18452e-05 -7.92698e-06 -4.07913e-06)
(1.00859e-06 2.21573e-07 -8.7649e-07)
(0.000109777 -5.5172e-05 -8.36447e-06)
(9.78283e-05 -0.000214798 -1.40957e-05)
(4.001e-05 -1.9141e-05 -6.39714e-06)
(7.80456e-07 -8.43853e-07 2.21283e-07)
(4.54715e-07 2.29354e-07 -2.8876e-06)
(-2.14541e-06 -1.11317e-06 -1.83021e-05)
(7.77919e-07 -1.74924e-06 -1.10078e-06)
(-1.30395e-07 -1.15083e-06 -4.11874e-07)
(-2.12274e-06 2.33101e-06 -3.21898e-05)
(-6.99763e-07 2.50824e-06 -1.31779e-05)
(-2.03392e-07 3.27342e-06 -1.49746e-05)
(-1.73292e-05 -4.05584e-06 -2.26429e-05)
(-6.2259e-06 -2.77877e-06 -1.69828e-05)
(2.60197e-07 -2.1339e-07 -4.23868e-07)
(-4.9073e-07 -9.99479e-07 -1.62049e-07)
(6.1246e-05 -9.91732e-05 -1.65673e-05)
(-9.06618e-06 3.00932e-06 -8.68247e-05)
(7.64854e-06 2.08429e-06 -1.60549e-06)
(4.09849e-06 -4.92837e-07 7.35466e-07)
(-7.34462e-07 -3.90111e-08 1.97832e-06)
(6.21533e-07 7.2726e-08 3.66701e-07)
(2.76857e-06 8.56201e-07 5.55657e-06)
(1.13659e-06 1.95933e-07 6.12334e-07)
(-3.85612e-06 2.16563e-07 -1.76855e-05)
(1.79519e-06 3.21823e-07 -2.55508e-08)
(9.22301e-07 -1.06381e-08 2.5684e-08)
(-7.05159e-06 -1.15598e-07 -2.44952e-05)
(2.21237e-07 -7.84545e-08 -7.38994e-08)
(1.38794e-07 -2.08266e-07 -5.2363e-08)
(-0.000115005 -2.10225e-05 7.67446e-06)
(-0.000122778 -2.26131e-05 5.14259e-06)
(-0.000116548 -2.29427e-05 1.31251e-05)
(-0.000139171 3.66943e-07 1.06315e-05)
(-6.76785e-05 -1.29305e-05 1.42239e-06)
(-3.08007e-06 -2.17414e-06 -3.88747e-09)
(-6.18489e-05 -1.37162e-05 9.59626e-06)
(-3.12995e-06 -2.06065e-06 3.87976e-07)
(-0.00014428 -2.06076e-05 8.53095e-06)
(-0.000161089 -2.65535e-05 4.28501e-06)
(-0.000152275 -2.93313e-05 1.57132e-05)
(-0.000148152 -3.17852e-05 8.82518e-06)
(-0.000152518 -5.42548e-06 -1.68127e-06)
(-0.000142273 1.78255e-05 -6.6133e-07)
(-0.000137003 -1.74261e-05 1.96863e-05)
(-0.000131136 1.92223e-06 1.01065e-05)
(4.73264e-06 -2.45879e-06 -3.02331e-05)
(2.03218e-06 -1.44543e-06 -3.31621e-05)
(2.89691e-06 -1.84789e-06 -3.40859e-05)
(1.03144e-06 -1.06225e-06 -3.51822e-05)
(4.54768e-06 -3.6693e-06 -1.38949e-05)
(-2.66122e-07 -8.18465e-07 -5.79663e-08)
(-9.36576e-07 -1.06178e-06 -7.80251e-07)
(-4.56959e-07 -5.63593e-07 -1.83386e-05)
(-2.31851e-07 -2.53373e-07 -1.68901e-07)
(-2.58073e-07 -1.28976e-08 -3.03631e-07)
(1.05505e-05 -1.02408e-06 -4.85447e-05)
(1.25618e-05 -1.12829e-05 -0.000126261)
(3.5629e-06 -3.3049e-08 -8.15094e-05)
(1.61598e-05 -5.30737e-06 -9.95444e-05)
(1.39838e-05 -1.10911e-05 -1.66608e-05)
(6.91751e-07 -5.01684e-06 5.21513e-07)
(7.97354e-07 -2.55962e-06 -2.24248e-07)
(1.61047e-05 1.84117e-06 -4.41943e-05)
(1.41612e-06 8.49951e-07 3.3763e-07)
(3.5226e-06 2.02835e-06 1.45509e-07)
(0.000125679 5.65076e-05 1.79152e-05)
(0.00013194 1.58371e-05 2.05809e-05)
(7.66175e-05 1.8622e-05 2.67433e-05)
(2.49469e-05 1.00095e-06 2.05527e-05)
(4.52157e-05 -1.09501e-05 5.51161e-05)
(2.67368e-06 -2.15604e-05 3.51143e-05)
(-1.93248e-05 -5.19099e-05 2.95804e-05)
(-2.41671e-05 -3.18795e-05 2.97934e-05)
(-2.89446e-06 -1.32495e-05 1.73654e-05)
(-2.11461e-06 -7.61242e-06 1.57289e-05)
(-3.05094e-05 -2.58532e-05 3.04447e-05)
(-3.61465e-05 -2.03121e-05 2.36695e-05)
(-5.4788e-06 -6.37208e-06 4.6255e-06)
(-1.24723e-06 -5.6608e-07 -5.93032e-08)
(-3.60563e-05 -1.33304e-05 1.30661e-05)
(-2.7763e-06 -1.45962e-06 5.90712e-07)
(9.81131e-06 8.59779e-07 -3.44275e-05)
(1.40757e-05 -5.12158e-06 -4.41781e-05)
(2.98273e-05 -1.97445e-05 -2.59424e-05)
(1.27805e-06 -1.78357e-06 -1.77963e-07)
(1.84388e-06 -1.86415e-07 -1.85017e-05)
(1.43065e-07 2.53555e-07 -2.00947e-07)
(1.13787e-06 -9.53159e-07 1.81577e-07)
(8.246e-06 -3.77765e-05 -3.32853e-05)
(7.6754e-07 -1.47582e-08 3.15592e-06)
(7.25618e-07 3.55097e-06 3.87165e-06)
(7.62269e-07 -1.29149e-05 4.41053e-06)
(-2.91588e-07 -1.0238e-08 6.62735e-07)
(-2.74893e-08 -6.5929e-08 1.13056e-06)
(-4.27234e-07 -2.33178e-07 3.59209e-07)
(1.3657e-07 4.52353e-09 7.89489e-08)
(2.63017e-08 -3.03192e-08 1.26023e-08)