/*--------------------------------*- C++ -*----------------------------------*\
| =========                 |                                                 |
| \\      /  F ield         | OpenFOAM: The Open Source CFD Toolbox           |
|  \\    /   O peration     | Version:  2012                                  |
|   \\  /    A nd           | Website:  www.openfoam.com                      |
|    \\/     M anipulation  |                                                 |
\*---------------------------------------------------------------------------*/
FoamFile
{
    version     2.0;
    format      ascii;
    class       volVectorField;
    location    "0.108/solid";
    object      sigmaMinDir;
}
// * * * * * * * * * * * * * * * * * * * * * * * * * * * * * * * * * * * * * //

dimensions      [1 -1 -2 0 0 0 0];


internalField   nonuniform List<vector> 
3124
(
(0.65694 0.394672 0.642389)
(0.907205 -0.414092 0.0742105)
(0.951058 -0.0290193 -0.307646)
(0.711338 -0.702567 0.0199396)
(-0.380156 0.441558 0.812717)
(0.908041 -0.413533 0.066726)
(0.946505 -0.0461432 -0.319373)
(0.723395 -0.681054 -0.113424)
(-0.414897 -0.332848 0.846802)
(0.339531 0.819564 -0.461556)
(-0.253726 0.939633 -0.229592)
(0.572158 0.763656 -0.299105)
(0.96994 0.231573 0.0747661)
(-0.00219171 0.999997 0.000728052)
(0.048062 0.905086 -0.422505)
(0.981067 0.171833 0.0893375)
(-0.396301 0.903729 -0.161925)
(0.919443 -0.34127 0.195342)
(0.981596 -0.107996 0.1575)
(-0.55067 0.079027 0.830974)
(-0.129826 0.991535 0.00179682)
(-0.146442 0.989214 0.00329605)
(0.0131809 0.999902 -0.00462085)
(0.190167 0.243239 0.951142)
(0.615046 0.329556 0.716318)
(0.654176 -0.386689 0.650019)
(0.564496 0.736392 0.372922)
(0.336211 0.698039 0.632221)
(0.568136 -0.431759 0.700576)
(0.463562 0.697225 0.546797)
(0.940887 0.123235 -0.315506)
(0.899912 0.414668 -0.134943)
(0.938767 0.252645 -0.234281)
(0.301344 -0.25901 0.917663)
(0.736744 -0.675927 -0.0182005)
(-0.660574 0.750298 -0.0263738)
(0.710884 -0.694918 0.108315)
(0.643106 -0.617132 -0.45339)
(-0.64148 0.684732 -0.345898)
(0.736114 -0.673439 0.0679439)
(0.607742 -0.478465 0.633815)
(-0.475856 0.858026 0.193268)
(-0.296099 0.916371 -0.269423)
(0.609164 0.727087 -0.316644)
(-0.358533 0.93337 0.0165772)
(0.841552 -0.431016 -0.325599)
(0.937127 0.0623812 -0.343367)
(0.831536 -0.333131 -0.444491)
(-0.503588 0.465841 0.727593)
(0.729033 -0.612233 -0.306075)
(0.733116 -0.664695 -0.14395)
(-0.668705 0.733012 0.124607)
(0.618879 -0.58523 -0.523922)
(0.689777 -0.430065 -0.582454)
(0.709414 -0.630108 -0.315746)
(0.0648829 0.996936 -0.0436887)
(-0.113491 0.99351 0.00762943)
(-0.00881478 0.999931 -0.00776038)
(0.985657 -0.00249542 -0.168745)
(0.140702 -0.624233 0.768464)
(0.361917 0.931156 -0.044333)
(-0.281272 0.826026 -0.488434)
(0.0316794 0.088128 0.995605)
(0.685837 -0.40241 0.606377)
(-0.0715693 0.986317 -0.148515)
(0.264654 0.795596 -0.544963)
(0.527817 -0.586731 0.614131)
(0.493522 0.838658 0.230409)
(0.538897 0.834505 0.114854)
(-0.45672 -0.579662 0.674832)
(-0.227721 0.331542 0.915545)
(0.346258 0.89466 0.282291)
(-0.351649 0.326284 0.877429)
(0.345669 0.86954 0.352723)
(-0.530532 -0.558895 0.637317)
(0.386399 0.893488 0.228854)
(0.455555 0.889585 -0.0332923)
(0.00229134 0.986558 -0.163398)
(-0.262089 0.897073 -0.355766)
(-0.442503 0.518443 0.731716)
(-0.135142 0.164496 0.977076)
(0.991408 0.0179773 -0.129562)
(0.990003 0.0058096 -0.14093)
(0.821138 0.560998 -0.104946)
(0.981134 0.0752657 -0.178079)
(0.951115 0.214699 -0.222003)
(0.984644 0.00378234 -0.174536)
(0.989178 -0.0114226 -0.146274)
(-0.641989 0.764736 0.0550347)
(-0.639479 0.768261 -0.0290119)
(-0.643719 0.760295 -0.0870509)
(0.582149 -0.534568 0.61265)
(0.284937 -0.239522 0.928138)
(0.723487 -0.674224 0.148288)
(-0.635936 0.642449 -0.427604)
(0.737152 -0.666147 0.11338)
(0.533431 -0.416568 0.736153)
(-0.637747 0.76772 -0.0623196)
(0.602224 -0.535049 0.592494)
(0.902571 -0.33688 0.268101)
(-0.0064809 0.950993 -0.309146)
(0.447799 0.893713 -0.0274615)
(0.0473225 0.998876 -0.00254753)
(0.803161 0.0988947 -0.587497)
(-0.215758 0.976444 0.00239503)
(0.563179 0.826201 -0.0148549)
(0.947803 0.257588 0.187929)
(0.285762 0.958183 -0.0149998)
(0.738344 -0.611965 -0.283455)
(-0.1007 0.991723 -0.0796506)
(0.720847 -0.509 -0.470424)
(0.991219 0.0316556 -0.128384)
(0.896925 -0.430714 -0.100057)
(-0.109009 0.989522 -0.0946751)
(0.729974 -0.682158 -0.0424143)
(0.980603 0.0326485 0.193267)
(-0.492462 0.445452 0.747699)
(0.665828 -0.449021 -0.595864)
(-0.525301 -0.390946 0.755791)
(-0.41494 0.426964 0.803447)
(-0.387487 0.324229 0.862977)
(-0.678094 0.226241 0.699288)
(0.619676 -0.556414 -0.553539)
(-0.639752 0.760043 0.114241)
(-0.62443 0.727713 0.283763)
(-0.663509 0.7377 0.124716)
(0.730176 -0.304398 -0.611706)
(-0.585413 -0.383831 0.714118)
(0.712439 -0.108703 -0.693264)
(-0.511858 0.593276 0.621309)
(-0.604658 0.706524 0.367714)
(0.0120676 0.999579 -0.026382)
(-0.127359 0.991831 0.00716156)
(-0.0516407 0.998647 -0.00606673)
(0.983575 0.047437 -0.174153)
(0.985776 0.00478299 -0.167998)
(0.983893 0.00111005 -0.178754)
(0.984353 -0.000445768 -0.176209)
(0.983862 0.0055959 -0.178843)
(-0.619779 0.686007 -0.381141)
(0.901837 -0.397976 -0.168243)
(-0.50908 -0.425563 0.748154)
(0.997697 -0.0678218 -0.00124941)
(0.945057 0.225727 -0.236464)
(0.998404 -0.0546295 0.0143423)
(-0.536902 0.654017 0.532914)
(-0.0363221 0.99859 0.0387166)
(-0.526652 0.777812 -0.342996)
(0.756235 0.328844 -0.565659)
(0.00258369 0.995152 -0.0983121)
(0.884854 -0.345865 -0.312107)
(0.99609 -0.0880792 -0.00680838)
(0.987699 -0.154407 -0.0246929)
(0.199697 0.965691 -0.166018)
(0.410968 0.894179 -0.177621)
(0.475239 0.706232 -0.524771)
(0.428886 0.88949 -0.157686)
(0.262365 0.861362 -0.434995)
(0.703038 0.709687 -0.0456236)
(0.381439 0.888475 -0.255179)
(0.622466 0.585148 -0.519748)
(0.48483 0.856536 0.176882)
(-0.244584 0.823854 -0.511316)
(-0.0992513 0.990496 -0.0952181)
(-0.0989029 0.971513 -0.215363)
(0.846637 0.476216 0.237537)
(-0.0512177 0.988152 -0.14468)
(-0.292995 0.83491 -0.465918)
(0.028686 0.997589 -0.0631895)
(0.981891 -0.18929 0.00773084)
(0.70182 0.712285 -0.00991253)
(0.136712 0.987221 -0.0818812)
(0.73771 0.675068 -0.00816305)
(-0.624933 0.769231 0.133201)
(0.346062 0.934987 -0.0777246)
(0.175945 0.9844 -0.000813417)
(-0.356921 0.933852 0.0229778)
(-0.432545 0.901234 0.0261354)
(-0.254753 0.842316 -0.474979)
(0.00445327 0.99717 -0.0750412)
(0.861669 -0.468773 0.194369)
(0.986814 0.161573 -0.00959655)
(-0.0854656 0.913326 -0.398161)
(0.387522 0.915008 -0.112196)
(0.154072 0.891849 -0.425286)
(0.73419 0.67832 -0.0291104)
(0.19799 0.976346 -0.0868848)
(-0.0526948 0.909902 -0.411462)
(0.825637 0.563009 -0.0366772)
(0.999008 -0.0242302 0.0373547)
(0.853825 0.519768 0.0286879)
(0.980827 0.182941 0.0671613)
(0.841482 0.540195 0.00981632)
(0.968068 0.244289 -0.056286)
(0.874354 0.484598 0.0258863)
(-0.632693 0.764696 -0.122228)
(0.962321 -0.271766 -0.00906004)
(-0.359592 0.913728 -0.189193)
(0.804812 -0.541547 0.24291)
(0.715627 -0.621624 -0.318531)
(0.984734 -0.140123 0.103265)
(-0.52167 0.842099 -0.136856)
(0.996068 -0.014861 0.0873355)
(0.992918 -0.112045 0.0394982)
(0.994059 0.0217038 0.106658)
(0.900667 -0.348737 0.259195)
(0.979781 0.152367 -0.129669)
(0.996631 -0.0611369 -0.0546756)
(0.94793 -0.213368 0.236438)
(-0.0950162 0.995475 -0.000949189)
(-0.147656 0.989019 0.00629725)
(-0.0651683 0.997864 -0.00459561)
(-0.308977 0.950886 0.0186813)
(-0.200219 0.979709 0.00908454)
(0.31541 0.548932 0.774074)
(0.31358 0.797173 0.515929)
(0.382937 -0.407082 0.829243)
(0.0734549 0.599196 0.797225)
(0.252939 0.313989 0.915114)
(0.407882 0.525274 0.746806)
(0.263145 0.87358 0.409404)
(0.449403 0.168476 0.877298)
(0.250908 -0.64043 0.725876)
(0.600653 -0.310406 0.736793)
(0.620235 -0.265314 0.738185)
(0.386013 -0.0622609 0.92039)
(0.491614 0.00600742 0.870792)
(0.641089 -0.168443 0.748754)
(0.907102 -0.387526 -0.164284)
(0.723303 -0.690226 0.0205376)
(0.935239 0.225031 -0.273293)
(-0.26836 0.9632 0.0151374)
(0.955256 0.199856 -0.218044)
(0.875046 -0.484028 -0.00333215)
(0.995809 -0.0902636 0.01476)
(0.947918 0.180261 -0.262596)
(-0.259432 0.96571 0.00992688)
(-0.205066 0.978491 0.0224189)
(0.714165 -0.68152 0.159686)
(0.37641 -0.332505 0.864729)
(0.672195 -0.567149 0.475916)
(-0.660265 0.670663 -0.338025)
(-0.68231 0.703455 -0.199007)
(0.713618 -0.618481 0.328984)
(0.704557 -0.656611 0.269185)
(0.719513 -0.688441 0.0913734)
(0.410049 -0.374736 0.831525)
(-0.689446 0.719145 0.0865714)
(0.751285 -0.659588 -0.0226713)
(0.722351 -0.689971 -0.0463634)
(-0.691793 0.718582 -0.0711503)
(0.74103 -0.652802 0.157237)
(-0.59677 0.690188 0.409275)
(0.308515 0.951023 -0.019302)
(-0.122256 0.9462 -0.299598)
(-0.21104 0.977376 -0.0140688)
(-0.374657 0.898723 -0.22788)
(-0.319191 0.947464 0.020701)
(0.476497 0.875078 -0.0847865)
(-0.675059 0.7365 -0.0431687)
(0.14097 0.989542 -0.0305649)
(0.515755 0.856431 0.0228552)
(0.464168 0.878055 -0.11648)
(-0.217928 0.975958 0.00354984)
(-0.116161 0.991906 -0.0512724)
(-0.274769 0.961044 0.029952)
(-0.291664 0.956319 0.0196419)
(-0.0661285 0.997802 -0.00415197)
(-0.432918 0.901182 0.021282)
(-0.159326 0.987187 0.00874844)
(-0.411055 0.911574 0.00821326)
(-0.387014 0.921231 0.0394218)
(0.883713 -0.364233 -0.293914)
(0.951569 -0.307409 -0.00399827)
(0.985603 -0.167194 -0.0251571)
(0.841419 -0.539065 0.0377348)
(0.89582 -0.24807 -0.368737)
(0.895957 -0.442607 0.0368669)
(0.956035 -0.273819 0.104974)
(0.837017 -0.405719 -0.367144)
(0.88521 -0.4638 0.035963)
(0.686116 -0.591569 -0.423428)
(-0.553542 0.508803 0.659326)
(-0.640625 0.420726 0.642332)
(-0.55176 0.555412 0.622156)
(0.643748 -0.50968 -0.570802)
(-0.606244 0.614951 0.504286)
(0.687734 -0.500217 -0.526123)
(0.708801 -0.637323 -0.302358)
(-0.572589 0.521942 0.632233)
(-0.676242 0.700766 0.227208)
(0.744503 -0.632737 -0.212976)
(0.721503 -0.676728 -0.146532)
(-0.646137 0.66293 0.378194)
(0.722177 -0.577618 -0.380549)
(0.122018 0.990476 -0.0637814)
(-0.107099 0.994189 0.0108332)
(-0.0772767 0.996978 0.00795717)
(0.0714704 0.997281 -0.0179849)
(0.946183 0.293359 -0.13667)
(0.00346754 0.127863 0.991786)
(0.125422 -0.246379 0.961024)
(0.638294 0.47935 -0.602333)
(-0.232723 -0.685337 0.690038)
(-0.363286 0.686978 -0.629352)
(0.0648559 -0.342861 0.937145)
(0.18347 -0.384809 0.904577)
(0.0539346 0.877571 -0.476403)
(-0.556263 -0.482962 0.676254)
(0.44383 0.891483 -0.0909548)
(0.382246 0.920765 -0.0779766)
(0.306208 0.95196 -0.00297508)
(0.249683 0.965374 -0.0755783)
(0.20062 0.979634 0.00827418)
(0.516992 0.855843 -0.01588)
(0.331307 0.93361 -0.13641)
(0.541082 0.716194 -0.44079)
(-0.0732137 0.841113 -0.535881)
(-0.364167 0.710797 -0.601789)
(0.130192 0.975169 -0.17915)
(0.103668 -0.390443 0.914772)
(0.173871 0.98462 0.0170833)
(0.161883 0.939451 -0.302035)
(-0.273854 -0.108904 0.955586)
(-0.0500211 -0.168544 0.984424)
(0.122426 -0.211196 0.969746)
(0.758496 0.632491 0.156965)
(0.443374 -0.0516016 0.89485)
(0.768597 0.639734 0.000451701)
(0.421878 -0.570531 0.704637)
(0.43096 -0.27979 0.857899)
(0.645503 -0.336501 0.685633)
(0.208271 -0.449261 0.868785)
(-0.0365252 0.920038 -0.390124)
(0.536529 -0.513878 0.669378)
(0.26862 0.961171 -0.0631979)
(0.293979 0.952789 -0.0759541)
(0.880264 0.439514 0.178782)
(-0.330236 0.867259 -0.372566)
(-0.131817 0.986151 -0.100652)
(0.13614 0.968373 -0.209091)
(-0.432642 0.808121 -0.399703)
(-0.276101 0.899236 0.339328)
(0.403257 0.0581852 0.913235)
(0.355855 0.137023 0.924441)
(0.854487 0.294696 0.427792)
(-0.21411 0.826845 -0.52008)
(0.586382 -0.406658 0.700561)
(-0.507862 0.685193 -0.522098)
(0.328522 -0.39996 0.855632)
(-0.11103 0.97506 -0.192171)
(0.555681 -0.575436 0.600077)
(0.233888 0.969008 -0.079497)
(0.325062 0.945357 0.0252052)
(-0.258581 0.133065 0.956781)
(-0.0718602 0.686213 0.723842)
(0.244102 0.959826 0.13838)
(0.345457 0.881254 -0.32257)
(-0.184766 0.436081 0.880735)
(0.270451 0.911796 -0.309007)
(-0.299424 0.189533 0.935106)
(-0.457037 -0.37807 0.805097)
(-0.270676 0.303456 0.913591)
(0.394424 0.691238 -0.605492)
(-0.24294 0.295746 0.923859)
(-0.366893 -0.640748 0.674412)
(0.766878 0.641441 0.0212439)
(0.713231 0.561918 -0.418987)
(0.489852 0.71046 -0.505264)
(-0.538484 0.170245 0.825258)
(-0.451947 0.845677 0.283855)
(-0.33821 0.930822 0.138508)
(0.443928 0.845504 -0.296732)
(-0.442623 0.82721 0.346134)
(-0.631756 -0.14528 0.761432)
(0.692256 0.502083 -0.518357)
(0.0716472 0.996308 -0.0472905)
(0.632173 0.774476 -0.0233258)
(0.307996 0.951352 -0.00816521)
(0.224803 0.972281 -0.0642893)
(0.132969 0.990875 0.0220363)
(0.549439 0.835413 -0.0142092)
(0.352368 0.932841 -0.0751259)
(0.00734455 0.996916 -0.0781255)
(0.202138 0.974655 -0.095851)
(0.573134 0.730942 -0.370462)
(0.0625945 0.976564 -0.205926)
(-0.105543 0.988499 -0.10831)
(0.786903 -0.616553 -0.0254014)
(0.262498 0.957912 -0.116191)
(0.0283304 0.997788 -0.0601417)
(-0.137721 0.892494 -0.429519)
(0.0508759 0.989898 -0.132341)
(-0.317597 0.881439 -0.349567)
(0.099901 0.993872 0.0473035)
(-0.0918471 0.988227 -0.12236)
(0.0792382 0.984041 -0.159326)
(-0.0589474 0.187113 0.980568)
(-0.237264 0.243162 0.94052)
(-0.159553 0.368733 0.91574)
(-0.363605 0.411734 0.835623)
(-0.182216 0.299254 0.936613)
(-0.236192 0.368029 0.899315)
(-0.225667 0.284025 0.931882)
(-0.0950132 0.172782 0.980367)
(-0.263776 0.27689 0.923988)
(-0.202646 0.200674 0.95847)
(0.967418 -0.135859 -0.213647)
(0.991281 0.0265508 -0.129064)
(0.971353 -0.0581561 -0.230417)
(0.991194 0.00900325 -0.132115)
(0.961963 -0.0468131 -0.269139)
(0.967135 -0.0626655 -0.246421)
(0.340925 0.939973 -0.0148407)
(0.74139 -0.67092 -0.0143952)
(-0.478156 0.877903 0.0255711)
(-0.228908 0.973361 0.0129913)
(0.972362 0.134163 -0.191083)
(-0.207502 0.978173 0.0110057)
(-0.236988 0.971474 0.00866036)
(0.959455 0.202202 -0.196369)
(-0.206844 0.97832 0.0102994)
(0.956567 -0.0130234 -0.291223)
(0.986103 -0.00733829 -0.165975)
(0.957365 -0.0233123 -0.287939)
(0.959096 -0.0527925 -0.278116)
(0.986881 0.00992755 -0.161143)
(0.958366 -0.0206688 -0.284792)
(-0.594485 0.700106 -0.395524)
(-0.635553 0.759499 -0.138685)
(-0.57376 0.802174 0.165279)
(-0.641333 0.766725 0.0287241)
(-0.579388 0.813073 0.0567649)
(-0.629221 0.75391 0.188947)
(-0.641591 0.763698 -0.0715975)
(-0.561919 0.795425 -0.227037)
(-0.64014 0.768052 -0.0177734)
(-0.571395 0.809422 -0.135439)
(0.466144 -0.335712 0.81854)
(0.585684 -0.52177 0.620266)
(0.723037 -0.689101 -0.0485469)
(-0.630393 0.722939 -0.282779)
(0.694906 -0.6549 0.297005)
(0.741659 -0.667997 -0.0609992)
(0.642475 -0.546833 0.536842)
(0.599891 -0.51766 0.610049)
(-0.612272 0.641641 -0.461973)
(0.681193 -0.652085 0.332808)
(0.617383 -0.500665 0.606772)
(-0.630502 0.634224 -0.447467)
(0.698227 -0.644665 0.311264)
(0.405924 -0.307922 0.86047)
(0.568769 -0.497306 0.655125)
(-0.570858 0.686041 -0.451075)
(-0.522482 0.75752 -0.391377)
(0.406345 -0.624905 0.666617)
(-0.0394225 0.917489 -0.395802)
(0.209717 0.847072 0.488353)
(-0.13543 0.889385 0.436639)
(0.998236 0.058898 -0.00746705)
(0.065572 0.923286 -0.378475)
(0.0327397 0.998503 -0.0438167)
(-0.180375 0.958452 -0.220983)
(-0.48645 0.873679 -0.00715706)
(0.24611 0.966705 -0.070078)
(-0.00310039 0.906069 -0.423118)
(0.422613 0.906243 0.0110508)
(0.39953 0.915336 -0.0503673)
(0.353323 0.9355 0.00163574)
(0.458984 0.888248 -0.0187045)
(0.506931 0.861971 -0.00527128)
(0.31348 0.94959 0.00307409)
(0.338496 0.940409 -0.032411)
(0.243379 0.969774 0.0174909)
(-0.1206 0.991601 0.0467332)
(-0.0373112 0.999248 -0.0105264)
(0.349219 0.936979 -0.0107814)
(-0.240315 0.970658 0.00850876)
(0.227229 0.973827 0.00539536)
(0.186647 0.982251 -0.0185975)
(0.297131 0.95145 0.0803546)
(0.973426 0.0365183 -0.226071)
(-0.585878 0.810398 -0.00145317)
(0.734413 0.676367 0.0562585)
(0.508994 0.86042 -0.0245507)
(-0.202644 0.978504 0.0382798)
(-0.681541 0.730932 0.035215)
(0.536944 0.842079 -0.050938)
(-0.535916 0.843991 0.0217592)
(0.31648 0.948085 -0.0312443)
(0.787835 0.614944 -0.0340705)
(0.717999 0.696041 0.00210527)
(0.378967 0.925406 -0.00270021)
(0.577864 0.815912 -0.0189967)
(0.676751 0.736178 0.00704801)
(0.38925 0.921072 -0.0105486)
(0.725942 0.68774 -0.00464966)
(0.766308 0.642466 -0.0031279)
(0.968474 0.2142 0.127187)
(0.943366 0.327823 0.0509266)
(0.816807 0.568322 0.0991805)
(0.615431 0.788155 0.0075649)
(0.955869 0.293761 -0.00441031)
(0.889974 0.451239 0.0657995)
(0.62234 0.782725 0.00588967)
(-0.0629928 0.997846 0.0183367)
(0.571065 0.820785 -0.0140398)
(0.519361 0.854536 0.00567731)
(0.293767 0.955852 -0.0069364)
(0.499943 0.866048 -0.00428412)
(0.755626 0.654879 0.0127933)
(0.799068 0.597037 0.0709779)
(-0.673941 0.737255 -0.0475336)
(0.955955 -0.289937 0.0456728)
(0.186578 0.381916 0.905168)
(0.944693 -0.288303 0.15632)
(0.659092 0.745066 0.102345)
(0.986087 -0.0160579 0.165454)
(-0.585833 0.80789 -0.0641299)
(-0.583836 0.811416 -0.0271949)
(0.970256 0.0783377 0.229055)
(0.979329 -0.0853069 -0.183406)
(0.991273 -0.00641877 -0.13167)
(0.982467 -0.0372673 -0.182674)
(0.991803 0.00795195 -0.127525)
(0.970521 -0.0981969 -0.220104)
(0.98112 0.00338151 -0.193371)
(-0.0388189 0.998551 -0.0372561)
(-0.226763 0.961347 -0.156172)
(0.0762602 0.97245 -0.220283)
(-0.446322 0.892646 -0.0630914)
(0.957359 0.0600788 0.282584)
(-0.101851 0.991572 0.0800713)
(-0.303717 0.949538 -0.0783152)
(-0.430876 0.901663 0.0367386)
(0.727452 -0.580592 0.365686)
(0.9942 -0.098006 0.0442854)
(-0.314781 0.945735 -0.0806132)
(0.0558349 0.994751 -0.0857474)
(0.898064 -0.391768 0.199998)
(0.902202 -0.392217 -0.179435)
(0.860954 -0.502873 0.0766606)
(0.518061 0.851567 0.0802966)
(0.998411 0.0264671 -0.049753)
(0.983538 0.0353727 0.177207)
(0.992096 0.11796 0.0427808)
(0.960758 -0.12357 0.248345)
(0.990787 0.132772 0.0266877)
(0.999583 0.0141197 0.0252027)
(0.975185 -0.0350666 0.218595)
(0.997383 -0.0267662 0.0671608)
(0.657724 -0.615168 0.434704)
(0.999382 -0.0346794 0.00575935)
(-0.613051 0.620086 -0.489552)
(0.99978 0.011646 0.0174733)
(0.939529 -0.178524 0.292257)
(0.997629 -0.058937 0.0355353)
(0.95764 -0.0590423 0.281851)
(-0.537954 0.302929 0.786663)
(-0.4492 0.395248 0.801248)
(-0.597408 0.32019 0.735243)
(-0.498072 0.488201 0.716648)
(-0.588979 0.422062 0.689179)
(-0.560318 0.208591 0.801582)
(-0.435512 0.427803 0.792031)
(-0.479148 0.155202 0.863904)
(-0.433343 0.384352 0.815161)
(-0.496735 -0.115139 0.860231)
(-0.325284 0.323969 0.888389)
(-0.449665 -0.123121 0.884671)
(-0.52794 0.0704273 0.846356)
(-0.376156 0.364263 0.85195)
(-0.455394 0.570706 0.683309)
(-0.535295 0.670332 0.51392)
(-0.542223 0.771388 0.333099)
(-0.63869 0.753567 0.155602)
(-0.518694 0.732686 0.440599)
(-0.617669 0.747001 0.245915)
(-0.558216 0.681126 0.473774)
(-0.425125 0.625852 0.653894)
(-0.629992 0.74233 0.228159)
(-0.460467 0.685903 0.563478)
(-0.664973 0.314973 0.677202)
(0.701571 -0.444936 -0.556624)
(0.726027 -0.680135 -0.101496)
(0.691215 -0.649926 -0.315941)
(0.715513 -0.556092 -0.42285)
(0.749892 -0.641607 -0.161254)
(0.711822 -0.485021 -0.508)
(0.67101 -0.353666 -0.651663)
(0.72374 -0.498725 -0.476942)
(0.711134 -0.52174 -0.471248)
(-0.649121 0.283136 0.706028)
(-0.634467 0.149425 0.758369)
(-0.553211 0.100014 0.827016)
(-0.635841 -0.229063 0.737046)
(-0.596338 0.165522 0.785483)
(-0.643123 -0.100584 0.759128)
(-0.620806 0.111942 0.775931)
(-0.654775 0.323818 0.682943)
(-0.679106 -0.0740058 0.7303)
(-0.61263 0.181717 0.769197)
(-0.432607 0.557605 0.708469)
(-0.338893 0.467045 0.816713)
(-0.219302 0.408701 0.885929)
(-0.550545 0.642782 0.532665)
(-0.243488 0.468992 0.848976)
(-0.249985 0.384246 0.888742)
(-0.317111 0.45402 0.83265)
(-0.354484 0.577716 0.735245)
(-0.58831 0.680311 0.437114)
(-0.31511 0.511679 0.799306)
(-0.0444056 0.998985 -0.00758178)
(-0.140158 0.990101 0.0074985)
(-0.0262301 0.999624 -0.00804603)
(0.000206252 0.999935 -0.0114128)
(-0.159642 0.987162 0.00504589)
(-0.207654 0.97814 0.0110105)
(0.98499 0.0367707 -0.168647)
(-0.109782 0.993956 0.00054143)
(0.932632 0.333892 -0.136796)
(0.985617 0.0219195 -0.167568)
(0.135053 0.990286 -0.0330899)
(0.955639 -0.00120482 -0.294537)
(0.956106 -0.0135763 -0.292708)
(0.983801 0.0166496 -0.178491)
(0.955888 -0.00340608 -0.293711)
(0.98382 0.011056 -0.178818)
(0.955701 -0.00139164 -0.294335)
(0.955778 -0.00352529 -0.294067)
(0.930027 -0.343292 -0.13115)
(0.947622 -0.313389 -0.0616442)
(0.963729 -0.190327 -0.187087)
(0.89046 -0.440147 0.115549)
(0.944155 -0.318596 -0.0840701)
(0.950883 -0.202102 -0.234472)
(0.920419 -0.388903 0.0397893)
(0.938196 -0.330972 -0.101226)
(0.926494 -0.376295 0.00324062)
(0.960466 -0.240353 -0.140482)
(0.874252 -0.469992 0.121616)
(0.945182 -0.315921 -0.0826173)
(0.974293 -0.120923 -0.190079)
(0.788272 -0.567054 0.23891)
(0.74023 -0.653447 0.158325)
(-0.434127 0.89961 -0.0472762)
(-0.385379 0.897042 -0.216329)
(-0.0714206 0.989625 -0.124666)
(0.142496 0.982646 -0.118746)
(-0.485583 0.874109 -0.0119259)
(-0.452011 0.885387 -0.108518)
(0.193748 0.721133 0.665153)
(0.265786 0.661113 0.701632)
(0.582398 0.690678 0.428692)
(0.0378345 0.345461 0.93767)
(0.101571 0.0755579 0.991955)
(0.254614 0.330473 0.908823)
(0.13355 0.899817 0.415324)
(0.492023 0.0705121 0.867722)
(0.699075 -0.162815 0.696266)
(0.490364 -0.241502 0.837389)
(0.668383 -0.235879 0.705426)
(0.538433 0.0335927 0.841998)
(0.54213 0.0577838 0.838306)
(0.670022 -0.157482 0.725445)
(0.86925 0.047194 -0.492115)
(0.931842 0.203012 -0.30076)
(0.872048 0.163008 -0.461476)
(0.950167 0.192742 -0.245019)
(0.646649 0.727358 -0.229774)
(0.75803 0.587555 -0.283141)
(0.67057 -0.584204 0.457211)
(0.325945 -0.277303 0.903805)
(0.387555 -0.279276 0.878525)
(0.389947 -0.35283 0.85056)
(0.425795 -0.395425 0.813841)
(0.421289 -0.314267 0.850736)
(0.635314 -0.53851 0.553519)
(0.74307 -0.669155 0.00886996)
(0.705889 -0.679757 -0.199124)
(-0.665674 0.677393 0.313078)
(0.750753 -0.612232 -0.248077)
(0.737766 -0.662302 -0.130607)
(-0.695068 0.714123 0.0831214)
(0.777 -0.629152 0.0209676)
(0.692856 -0.199043 0.69306)
(0.533412 0.0113261 0.84578)
(0.550638 0.832004 -0.067574)
(0.616939 0.780739 -0.0991587)
(0.7965 0.505587 -0.331616)
(0.589007 0.800731 -0.109092)
(0.639243 0.751573 -0.162809)
(0.845997 0.0359662 -0.531973)
(0.933856 -0.0342051 -0.35601)
(0.831696 -0.0404062 -0.553758)
(-0.652303 0.345044 0.674867)
(0.799684 -0.465192 -0.379608)
(0.78146 -0.151504 -0.605283)
(-0.600153 0.504394 0.620808)
(-0.515996 0.482455 0.707803)
(-0.565276 0.421906 0.708843)
(-0.490814 0.485496 0.723461)
(-0.568235 0.465839 0.678309)
(-0.506522 0.510227 0.695056)
(-0.578361 0.441357 0.686077)
(0.713872 -0.623868 -0.318081)
(0.60024 -0.56236 -0.568738)
(-0.6406 0.654428 0.40169)
(0.720445 -0.569957 -0.395105)
(0.732009 -0.653058 -0.19411)
(0.619142 -0.61416 -0.489358)
(0.691421 -0.54037 -0.479517)
(0.986034 -0.0391249 -0.161882)
(0.985502 -0.0029501 -0.169636)
(0.986191 -0.0311956 -0.162649)
(0.0160669 -0.0247028 0.999566)
(0.0923869 -0.133161 0.986779)
(0.410066 -0.560892 0.719198)
(0.278085 -0.110295 0.954203)
(0.151279 0.985857 -0.0721161)
(0.0253637 0.401972 0.915301)
(-0.263056 -0.203813 0.943007)
(-0.0387252 0.310767 0.949697)
(0.12643 0.941619 0.312041)
(-0.277875 -0.424947 0.861513)
(-0.105503 0.203115 0.973454)
(-0.30191 0.172282 0.93764)
(-0.307243 0.331223 0.892128)
(-0.403161 0.257969 0.878017)
(-0.272765 0.395501 0.877028)
(-0.357386 0.293746 0.88656)
(-0.259653 0.38327 0.886389)
(-0.324628 0.1418 0.935152)
(-0.321408 0.801489 0.504295)
(-0.337585 0.417293 0.843743)
(-0.458089 0.340259 0.821206)
(-0.43931 0.370669 0.818297)
(-0.0378022 0.0982689 0.994442)
(-0.100074 0.112623 0.988585)
(-0.277761 0.375096 0.884394)
(-0.266558 0.352834 0.896914)
(0.986924 -0.0216289 -0.159731)
(0.991114 0.0351395 -0.12829)
(0.987228 -0.00260516 -0.15929)
(0.990482 0.00119647 -0.137636)
(0.98485 -0.0306738 -0.170675)
(0.985313 -0.0288734 -0.168299)
(0.972118 0.141588 -0.186922)
(0.980293 0.0781671 -0.181428)
(0.91595 0.356456 -0.184321)
(0.550862 0.815185 -0.178951)
(0.941923 0.261806 -0.210331)
(0.511013 0.846512 -0.149277)
(0.981792 -0.00704256 -0.189829)
(0.985002 -0.00655847 -0.172417)
(0.981822 -0.0126404 -0.18938)
(0.983576 -0.0451305 -0.174762)
(0.988522 0.00773155 -0.150879)
(0.983634 -0.0268103 -0.17817)
(0.268991 -0.283641 0.92043)
(0.289792 -0.298957 0.9092)
(-0.528793 0.629478 0.569329)
(-0.559653 0.668169 0.490244)
(0.297728 -0.205342 0.932305)
(0.318632 -0.214566 0.923274)
(0.669927 -0.539819 -0.509699)
(0.478654 -0.384219 0.789472)
(0.569454 -0.463594 0.678825)
(0.355162 -0.259485 0.898069)
(0.267605 -0.221497 0.937724)
(0.348375 -0.321592 0.880462)
(0.601666 -0.511575 0.613424)
(0.332476 -0.22929 0.914815)
(0.33875 -0.29456 0.893579)
(0.280057 -0.183323 0.942317)
(0.26253 -0.173311 0.949232)
(0.257386 -0.270406 0.927703)
(0.250847 -0.256276 0.933487)
(0.947324 0.152639 -0.281564)
(0.378593 0.923608 -0.0601327)
(0.882193 0.211364 -0.420787)
(0.679625 0.712406 -0.174894)
(0.905276 -0.217098 -0.365161)
(0.8602 0.496129 0.11795)
(0.83319 0.548255 0.0721805)
(0.381939 0.922208 0.0604541)
(0.247911 0.968379 -0.0279512)
(0.391207 0.918943 0.0500154)
(-0.154847 0.987747 -0.0194464)
(0.384387 0.922732 0.0285004)
(-0.12993 0.991517 -0.00360279)
(-0.0250895 0.999252 -0.0294232)
(-0.25563 0.278925 0.925664)
(-0.629711 0.755046 0.182675)
(-0.46066 0.783778 0.416515)
(0.987574 -0.00712439 -0.156992)
(0.991259 0.0181604 -0.130671)
(0.987353 -0.00121967 -0.15853)
(0.97737 -0.173895 -0.120448)
(0.970247 -0.197065 -0.140662)
(0.987003 -0.0607683 -0.148768)
(-0.669455 0.741052 -0.0516893)
(0.863585 -0.495065 -0.0955555)
(-0.684426 0.722713 -0.096157)
(-0.5213 0.391075 0.75849)
(-0.478734 0.429448 0.765759)
(-0.546016 0.400427 0.735883)
(-0.469403 0.468228 0.748614)
(-0.544065 0.439252 0.714878)
(-0.531928 0.381365 0.756051)
(-0.459701 0.442222 0.770139)
(-0.392997 0.193852 0.898874)
(-0.400639 0.346404 0.848229)
(-0.432199 0.27448 0.858991)
(-0.322272 0.376427 0.868587)
(-0.359989 0.214061 0.908067)
(-0.449982 0.281002 0.847676)
(-0.344809 0.374198 0.860861)
(-0.431249 0.496461 0.75336)
(-0.44344 0.515951 0.732909)
(-0.522839 0.614198 0.591102)
(-0.514515 0.602267 0.610367)
(-0.566678 0.412154 0.713446)
(-0.583398 0.412743 0.699493)
(0.660183 -0.507958 -0.553297)
(0.641418 -0.494162 -0.586845)
(-0.558759 0.38845 0.732731)
(-0.546694 0.38067 0.745799)
(-0.489441 0.323624 0.809762)
(-0.490339 0.333739 0.8051)
(-0.418284 0.481442 0.770229)
(-0.412767 0.461248 0.785413)
(-0.308138 0.379466 0.872385)
(-0.325266 0.387124 0.86275)
(0.98376 -0.00666507 -0.179366)
(0.983685 0.0528809 -0.171954)
(0.984309 -0.0172167 -0.175613)
(0.985943 -0.0398437 -0.162263)
(0.985878 0.00664091 -0.167333)
(0.985655 -0.0453618 -0.162563)
(0.983924 0.000456189 -0.178585)
(0.981954 0.0031419 -0.189096)
(0.981988 0.00219326 -0.188931)
(0.981711 -0.00564478 -0.190295)
(0.984082 0.0129696 -0.17724)
(0.981688 0.00445818 -0.190445)
(0.983849 0.00610717 -0.178896)
(0.981902 0.00558299 -0.189309)
(0.981839 0.00648205 -0.189603)
(0.954434 -0.281257 -0.0997532)
(0.88337 -0.150204 -0.443955)
(0.867122 -0.49771 0.019584)
(0.935542 -0.166521 -0.3115)
(0.8988 -0.436841 0.0364558)
(0.932968 -0.0179861 -0.35951)
(0.917865 -0.36788 -0.14896)
(0.870762 -0.0342597 -0.490509)
(0.98023 0.197407 0.0133849)
(0.998424 0.0210745 -0.0520174)
(0.999411 -0.0339162 -0.00515179)
(0.998442 -0.0555506 0.0052503)
(0.994259 0.107001 -0.000260104)
(0.999757 -0.0220333 -0.00024183)
(0.998029 0.0477338 -0.0407306)
(0.936936 0.348311 0.0288113)
(0.999533 0.0270173 0.0142699)
(0.999343 -0.0348993 0.00976966)
(0.99689 0.0758843 -0.0212401)
(0.999353 0.0343096 0.01075)
(0.865427 0.499466 0.0396099)
(0.997194 0.0681367 -0.031017)
(-0.0123079 0.976696 0.214275)
(-0.0858775 0.99283 0.0831483)
(-0.240789 0.957548 0.158502)
(-0.0919832 0.943195 0.319254)
(-0.212543 0.955313 0.205435)
(0.465549 0.884487 -0.0307718)
(-0.539682 0.836149 -0.0979686)
(0.913063 -0.380629 -0.146413)
(0.962023 -0.0753705 -0.262358)
(-0.57154 0.806424 -0.151728)
(0.940066 -0.32135 -0.114065)
(-0.606083 0.793593 -0.0535974)
(0.956922 -0.230689 -0.176306)
(0.754657 -0.632639 0.173958)
(-0.661883 0.74701 0.0623472)
(-0.170621 0.982555 0.0739841)
(0.100249 0.979723 -0.173471)
(-0.405066 0.908621 -0.101634)
(0.19914 0.970424 -0.136459)
(-0.388727 0.920259 0.0448793)
(-0.0720009 0.978185 -0.194857)
(-0.60854 0.787708 -0.0958909)
(-0.324579 0.926287 -0.191417)
(0.793027 -0.608831 -0.0208181)
(0.999339 -0.00493724 -0.0360233)
(0.998053 -0.00358155 -0.0622662)
(0.998263 -0.0568478 -0.0154962)
(0.993778 -0.110508 -0.0138891)
(0.997777 0.0648425 -0.0154007)
(0.997296 -0.0710888 -0.018644)
(0.996474 -0.0385385 -0.074524)
(0.99655 -0.0559108 -0.0613416)
(0.993052 -0.112986 -0.0328833)
(0.988504 -0.120456 -0.0913813)
(0.992161 -0.123554 -0.0187351)
(0.94736 -0.307407 -0.0895012)
(0.997526 -0.066017 -0.0241501)
(0.993875 -0.0704086 -0.0851751)
(-0.0173188 0.998786 0.0461044)
(0.0098459 0.999592 0.0267987)
(-0.0112849 0.999711 -0.0212246)
(-0.00314266 0.999979 -0.0056284)
(0.602317 0.760092 -0.243876)
(0.694771 0.712587 -0.0975366)
(0.4501 0.861485 -0.235059)
(0.460104 0.843967 -0.275723)
(0.52011 0.789597 -0.325611)
(0.526529 0.838673 -0.139265)
(0.691778 0.699372 -0.179782)
(0.623789 0.707083 -0.333049)
(0.0746643 0.754413 -0.65214)
(0.866301 0.471382 -0.165291)
(0.391462 0.801949 -0.451261)
(0.703693 0.660109 -0.262816)
(0.782426 0.580677 -0.224996)
(0.135413 0.724949 -0.675361)
(0.540259 0.825408 -0.163775)
(0.559521 0.8263 -0.064539)
(0.53923 0.839717 -0.0640873)
(0.782813 0.616405 -0.0851375)
(0.684215 0.717577 -0.13013)
(0.430392 0.897589 -0.0953741)
(0.651864 0.747469 -0.127918)
(0.651512 0.662506 -0.369619)
(0.626278 0.677575 -0.385575)
(-0.438275 -0.546604 0.71354)
(0.517727 0.713629 -0.471902)
(0.584504 0.669588 -0.458266)
(0.737674 0.609208 -0.291039)
(-0.291368 -0.653091 0.698983)
(0.0763329 0.951769 -0.297169)
(0.625143 0.716482 0.309596)
(-0.00341812 0.983408 -0.181374)
(0.375176 0.926944 -0.00419266)
(0.567005 0.822839 0.0379635)
(0.0656489 0.979286 -0.191546)
(0.00522943 0.961696 -0.274067)
(0.345746 0.937151 -0.0469836)
(0.147336 0.98779 -0.0506205)
(-0.147266 0.98838 -0.0376625)
(0.31315 0.94693 -0.0725309)
(0.00811914 0.998958 -0.0449051)
(0.445556 0.893734 -0.0521446)