/*--------------------------------*- C++ -*----------------------------------*\
| =========                 |                                                 |
| \\      /  F ield         | OpenFOAM: The Open Source CFD Toolbox           |
|  \\    /   O peration     | Version:  2012                                  |
|   \\  /    A nd           | Website:  www.openfoam.com                      |
|    \\/     M anipulation  |                                                 |
\*---------------------------------------------------------------------------*/
FoamFile
{
    version     2.0;
    format      ascii;
    class       volVectorField;
    location    "0.108/solid";
    object      sigmaMaxDir;
}
// * * * * * * * * * * * * * * * * * * * * * * * * * * * * * * * * * * * * * //

dimensions      [1 -1 -2 0 0 0 0];


internalField   nonuniform List<vector> 
3124
(
(0.744488 -0.474097 -0.470074)
(0.20522 0.5896 0.78119)
(0.305531 -0.0606999 0.950246)
(0.702742 0.710445 -0.0376986)
(0.763731 -0.345786 0.545112)
(0.192354 0.553163 0.810562)
(0.314061 -0.0956179 0.944576)
(0.680439 0.731089 -0.0501236)
(0.907566 -0.217566 0.359151)
(0.0639085 0.469471 0.880632)
(-0.257624 0.16314 0.952373)
(0.814156 -0.484876 0.319444)
(-0.101859 0.107328 0.988992)
(0.0589494 -0.000597588 0.998261)
(0.0543507 0.419997 0.905897)
(-0.108721 0.106906 0.988307)
(-0.204741 0.0849342 0.975124)
(-0.13862 0.183578 0.973182)
(-0.133742 0.199955 0.970634)
(0.747062 -0.397439 0.532861)
(0.0560275 0.00552665 0.998414)
(0.0612002 0.00573434 0.998109)
(0.0584477 0.0038429 0.998283)
(0.879576 -0.472567 -0.0550072)
(0.755112 -0.507709 -0.414774)
(-0.54303 0.358096 0.75953)
(0.801708 -0.59667 -0.0353389)
(0.900052 -0.435776 0.00250117)
(-0.644851 0.295321 0.704949)
(0.831005 -0.556244 0.00476456)
(0.319407 -0.0127738 0.947531)
(0.160682 -0.027641 0.986619)
(0.245135 -0.0119113 0.969416)
(0.692014 0.721498 -0.0236026)
(0.675224 0.73687 -0.033098)
(0.747242 0.653674 -0.11975)
(0.700934 0.712677 -0.027983)
(0.691974 0.721922 -0.00112154)
(0.757927 0.635363 -0.147852)
(0.676044 0.736436 -0.0250341)
(-0.537633 0.339506 0.771808)
(0.136819 -0.144851 0.979948)
(0.0740563 0.303248 0.95003)
(0.508305 -0.0514957 0.859636)
(0.0844387 0.01474 0.99632)
(0.311874 -0.104463 0.944363)
(0.344863 -0.0147249 0.938537)
(0.493633 0.0762509 0.866321)
(0.655028 -0.34326 0.673135)
(0.630437 0.77475 -0.0480892)
(0.66599 0.744533 -0.0461288)
(0.729024 0.679327 -0.0838933)
(0.695121 0.718658 0.0183524)
(0.707313 0.228433 0.668974)
(0.646451 0.760211 -0.0646511)
(0.147711 0.0337037 0.988456)
(0.0854541 0.00211042 0.99634)
(0.0815908 0.00845401 0.99663)
(0.168753 0.00345975 0.985652)
(-0.404406 0.672243 0.620117)
(-0.0200753 0.0553309 0.998266)
(-0.516276 0.29879 0.802611)
(-0.336602 0.93886 -0.0723947)
(-0.477363 0.38017 0.792209)
(-0.257879 0.125537 0.957987)
(0.907486 -0.396644 -0.138356)
(-0.595578 0.259835 0.760114)
(0.856143 -0.515102 0.0410958)
(0.814113 -0.550975 0.18343)
(0.84882 -0.0568809 0.525614)
(0.913183 -0.253658 0.318989)
(0.89892 -0.4025 0.173024)
(0.76572 -0.438944 0.470107)
(0.87737 -0.432803 0.207131)
(0.840569 -0.249786 0.480678)
(0.90802 -0.412048 0.0756033)
(-0.0381816 0.0568893 0.99765)
(-0.187015 0.160939 0.969084)
(-0.459313 0.208264 0.863514)
(0.599383 0.777904 -0.188694)
(-0.222924 0.955792 -0.191746)
(0.129866 -0.0169085 0.991387)
(0.141002 -0.0147384 0.9899)
(0.140568 -0.0205793 0.989857)
(0.178275 0.00416186 0.983972)
(0.229222 -0.00900808 0.973333)
(0.174528 0.00232938 0.984649)
(0.146144 -0.0114764 0.989197)
(0.763986 0.644104 -0.0381406)
(0.768512 0.639825 0.00363275)
(-0.544877 -0.375489 0.749744)
(0.812832 0.401314 -0.422198)
(0.692445 0.720983 -0.0265175)
(0.684476 0.728533 -0.0270768)
(0.749412 0.646397 -0.143359)
(0.672084 0.740183 -0.0207886)
(0.828516 0.432585 -0.355572)
(0.768868 0.639356 0.00807276)
(-0.423459 0.415064 0.805235)
(-0.406933 -0.464123 0.786763)
(0.048021 0.309092 0.949819)
(0.00562446 0.0278969 0.999595)
(0.0480039 0.000273241 0.998847)
(0.590618 -0.00285434 0.806947)
(0.0890446 0.0172329 0.995879)
(-0.0171375 0.029651 0.999413)
(-0.240511 0.190598 0.951749)
(0.0229802 0.00879625 0.999697)
(-0.08715 -0.503342 0.859681)
(-0.19692 0.0586066 0.978666)
(0.607583 0.137478 0.782268)
(0.129102 -0.0217619 0.991393)
(0.128197 0.0367279 0.991068)
(-0.159727 0.0765686 0.984187)
(0.136537 0.0847394 0.987004)
(-0.195974 0.180713 0.963814)
(0.648699 -0.384874 0.656552)
(0.569286 0.82197 0.0167225)
(0.821354 -0.000873628 0.570417)
(0.785598 0.613589 0.079651)
(0.748483 -0.435832 0.499824)
(0.724321 0.0442979 0.688038)
(0.634503 0.77027 -0.0639573)
(0.759874 0.647789 -0.0544154)
(0.727767 0.673975 -0.126938)
(-0.0334788 -0.195804 0.980072)
(0.599723 -0.143433 0.787248)
(0.80861 -0.212696 0.548553)
(0.66624 -0.205443 0.71688)
(0.63754 0.747089 -0.188151)
(0.710679 0.687026 -0.151428)
(0.0768359 0.025379 0.996721)
(0.0811343 0.00322156 0.996698)
(0.0789963 0.0101406 0.996823)
(0.174021 0.00693557 0.984718)
(0.167979 0.00413576 0.985782)
(0.178749 0.00349736 0.983888)
(0.176209 0.00516651 0.984339)
(0.178822 0.0040465 0.983873)
(0.772413 0.61911 -0.14171)
(0.398328 0.614911 0.680603)
(0.418968 0.636772 0.647293)
(-0.00248557 -0.0549582 0.998486)
(0.246771 -0.0181735 0.968903)
(-0.0162932 -0.0354353 0.999239)
(0.368805 -0.386171 0.845491)
(0.0398518 -0.0372639 0.998511)
(0.12095 0.467944 0.875443)
(0.321455 0.566266 0.758953)
(0.0794035 0.0977978 0.992034)
(0.263362 -0.181254 0.947516)
(0.00033978 -0.0732481 0.997314)
(0.00848521 -0.104757 0.994462)
(0.806854 -0.0659257 0.587061)
(0.0417351 0.176177 0.983473)
(0.0033466 0.594973 0.803739)
(0.041624 0.154911 0.987051)
(0.0398161 0.44074 0.896752)
(0.0382328 0.026343 0.998922)
(-0.00694985 0.278799 0.960324)
(-0.30586 0.793153 0.526648)
(0.861115 -0.432098 -0.267904)
(-0.331108 0.42467 0.842628)
(-0.253767 0.0673309 0.964919)
(-0.21564 0.190357 0.957739)
(-0.0268925 -0.4075 0.912809)
(-0.14119 0.136251 0.980562)
(-0.366949 0.351791 0.861157)
(-0.00615513 0.0633906 0.99797)
(-0.00953522 -0.00862348 0.999917)
(-0.0837257 0.0962984 0.991825)
(-0.125977 0.0993125 0.98705)
(-0.0166718 0.0303038 0.999402)
(0.0897082 -0.0987341 0.991062)
(-0.117341 0.125326 0.985152)
(0.0774712 -0.013023 0.99691)
(0.0943046 0.0115494 0.995476)
(0.0589004 -0.000680139 0.998264)
(-0.262545 0.412487 0.87231)
(-0.123377 0.0750165 0.98952)
(-0.366291 -0.309435 0.877543)
(0.0115968 -0.0114414 0.999867)
(0.0395963 0.402421 0.914598)
(0.0438438 0.103274 0.993686)
(0.0326078 0.425601 0.904323)
(0.0300497 0.010369 0.999495)
(0.0347041 0.0816017 0.996061)
(-0.00144272 0.411965 0.911199)
(0.0361897 0.0120264 0.999273)
(-0.0370138 0.014368 0.999211)
(-0.0808708 0.0780027 0.993668)
(-0.0884246 0.110665 0.989916)
(-0.0278896 0.0252857 0.999291)
(0.0492392 0.0348628 0.998178)
(-0.0588039 0.0528481 0.99687)
(-0.0614301 0.107778 0.992275)
(0.0149042 0.0194481 0.9997)
(-0.0993299 0.16412 0.981427)
(-0.158898 0.197732 0.967292)
(0.330514 -0.100382 0.938447)
(-0.0534052 0.321427 0.945427)
(-0.0952614 0.101916 0.990221)
(-0.0745181 0.392594 0.916688)
(-0.0369225 0.0249712 0.999006)
(-0.108843 0.200553 0.973618)
(-0.136422 0.339399 0.930697)
(0.120364 0.068822 0.990341)
(0.0698748 0.283812 0.956331)
(-0.144682 0.372858 0.916539)
(0.0539271 0.00609933 0.998526)
(0.0682283 0.0038339 0.997662)
(0.0645008 0.00880809 0.997879)
(0.103277 0.0140193 0.994554)
(0.119355 0.0151867 0.992736)
(0.947409 -0.228699 -0.223858)
(0.935351 -0.352965 -0.0231284)
(0.801382 -0.300129 -0.517406)
(0.996294 -0.0799583 -0.0316999)
(0.959667 -0.201408 -0.196147)
(0.902378 -0.35652 -0.242089)
(0.956395 -0.291959 0.00825266)
(0.885159 -0.216491 -0.411855)
(0.852649 -0.2088 -0.47895)
(-0.672189 0.302885 0.67559)
(0.677959 -0.292045 -0.674597)
(0.879866 -0.274935 -0.387615)
(0.821528 -0.33484 -0.461492)
(0.706764 -0.250708 -0.661537)
(0.400661 0.67537 0.61915)
(-0.0794804 -0.0536715 0.99539)
(0.283567 -0.0140235 0.95885)
(-0.0479609 -0.0290535 0.998427)
(0.226848 -0.0219799 0.973682)
(-0.0104963 -0.0258571 0.999611)
(-0.0180495 -0.035736 0.999198)
(0.269726 -0.0157992 0.962808)
(0.0159331 -0.00599756 0.999855)
(-0.0358245 -0.0303942 0.998896)
(0.695995 0.715678 -0.0582757)
(0.692226 0.721283 -0.0239737)
(0.679172 0.728266 -0.0914027)
(0.726691 0.684157 -0.0620371)
(0.722677 0.690125 -0.0382812)
(0.673532 0.734875 -0.0794529)
(0.697204 0.711193 -0.0900589)
(0.694258 0.716348 -0.0696557)
(0.692294 0.721432 -0.0162691)
(0.721213 0.69264 -0.0100575)
(0.659102 0.751614 -0.0257147)
(0.689993 0.72359 -0.0180973)
(0.722001 0.689933 -0.0520314)
(0.667049 0.742513 -0.060984)
(0.268538 -0.308861 0.91241)
(0.0224537 0.0130051 0.999663)
(0.1932 0.318776 0.927931)
(0.0743896 0.0304105 0.996765)
(-0.0217893 0.237179 0.971222)
(0.0379756 -0.00903864 0.999238)
(0.125973 0.0274865 0.991653)
(-0.0240269 0.0365348 0.999044)
(0.0263063 0.0271183 0.999286)
(0.0408054 -0.0512029 0.997854)
(0.208623 0.0194271 0.977803)
(0.0485228 0.00720205 0.998796)
(0.110507 0.0642082 0.991799)
(0.0384599 -0.0201408 0.999057)
(0.0580665 -0.00279491 0.998309)
(0.074601 0.00909346 0.997172)
(0.117494 0.0330036 0.992525)
(0.0185394 -0.00586817 0.999811)
(0.0425232 0.0101736 0.999044)
(0.0988484 -0.00105621 0.995102)
(0.250992 -0.161232 0.954467)
(-0.00670187 -0.033744 0.999408)
(0.00808555 -0.102013 0.99475)
(-0.0904928 -0.0717167 0.993312)
(0.375607 -0.0208609 0.926544)
(-0.0939411 -0.107723 0.989733)
(-0.122642 -0.0481772 0.991281)
(0.392044 -0.0234052 0.919649)
(-0.0937099 -0.102063 0.990354)
(0.671192 0.739257 0.0547757)
(0.767113 0.619716 0.1658)
(0.766525 0.399609 0.502745)
(0.75187 0.654081 0.0828846)
(0.698128 0.696627 0.165314)
(0.717711 0.696204 0.0138351)
(0.672987 0.711064 0.203658)
(0.679013 0.732581 0.0476076)
(0.727278 0.679334 0.0978416)
(0.716282 0.697539 -0.0195047)
(0.650387 0.759403 0.0174319)
(0.681671 0.731353 -0.0211532)
(0.725486 0.687367 0.0346032)
(0.64984 0.755058 0.0871484)
(0.347306 0.0175906 0.937587)
(0.0882837 -0.00134361 0.996094)
(0.0866386 -0.00123584 0.996239)
(0.127451 0.00875236 0.991806)
(0.140881 0.00683102 0.990003)
(0.729858 -0.678306 0.0848968)
(0.814248 -0.527856 -0.241593)
(0.484952 0.357275 0.798233)
(-0.237354 0.728089 0.643078)
(-0.506987 0.420967 0.752164)
(-0.445552 0.830365 0.33463)
(0.941713 -0.195162 -0.274024)
(-0.20649 0.476587 0.854533)
(-0.309773 0.875635 0.370546)
(-0.0344153 0.118382 0.992372)
(0.00528044 0.0822069 0.996601)
(0.00567593 0.00129944 0.999983)
(-0.0968079 0.102545 0.990006)
(-0.0647137 0.00482439 0.997892)
(0.0234782 0.00436701 0.999715)
(-0.0603588 0.16525 0.984403)
(0.554487 0.0902486 0.827284)
(0.902116 -0.173252 -0.395184)
(-0.539295 0.365866 0.758487)
(-0.260984 0.208021 0.942663)
(0.797012 -0.517591 -0.311241)
(-0.148957 0.00914804 0.988801)
(-0.234243 0.333907 0.913037)
(-0.521107 0.851891 -0.0522536)
(-0.442638 0.887311 0.129425)
(0.963187 -0.210345 -0.167407)
(-0.637774 0.769948 -0.0206173)
(0.874901 -0.192113 -0.444568)
(-0.111569 0.133347 0.98477)
(-0.353798 0.611974 0.707329)
(0.0986798 0.959628 0.263396)
(-0.59396 0.343181 0.727625)
(0.798605 -0.43471 -0.416242)
(0.0119519 0.390759 0.920415)
(-0.512257 0.432028 0.742256)
(-0.210265 0.122537 0.969935)
(-0.180967 0.133512 0.974385)
(-0.114695 -0.168518 0.979003)
(-0.32096 0.268016 0.908379)
(-0.115333 0.0855915 0.989632)
(-0.176789 0.231415 0.956657)
(-0.282294 0.299623 0.911337)
(0.806785 0.408719 -0.426668)
(0.204847 0.96691 -0.152059)
(0.86491 -0.422963 -0.270246)
(-0.510759 0.326424 0.795344)
(0.902426 -0.0363509 -0.429309)
(-0.639644 0.29818 0.70848)
(-0.467092 0.290212 0.835226)
(0.8363 -0.297837 -0.460322)
(-0.200279 0.167446 0.965324)
(-0.541814 0.296808 0.786348)
(0.939724 -0.204327 0.274169)
(0.93538 -0.325328 0.13866)
(0.846097 -0.446718 0.290796)
(0.991022 -0.0329113 0.129585)
(0.951039 -0.264838 0.15933)
(0.927344 -0.267885 0.261286)
(0.975836 -0.0249611 0.217076)
(0.929495 -0.163687 0.330523)
(0.835567 -0.421062 0.352894)
(0.889376 -0.205731 0.40827)
(0.951284 -0.0612182 0.302177)
(0.913017 -0.220168 0.343403)
(0.964851 -0.0247155 0.261631)
(0.91615 -0.123073 0.381474)
(-0.641708 0.76582 0.0415943)
(0.696228 -0.63706 0.330787)
(0.865176 -0.324823 0.382047)
(0.836277 0.228063 0.498626)
(0.852493 0.315756 0.416598)
(0.933425 0.350532 -0.0764569)
(0.892004 -0.385501 0.236048)
(0.871604 0.30619 0.382824)
(0.735785 -0.421499 0.530055)
(0.709579 -0.60441 0.362196)
(0.00453841 0.0470863 0.998881)
(-0.059518 0.0785537 0.995132)
(0.00475158 0.00704412 0.999964)
(-0.102329 0.0891699 0.990746)
(-0.0348465 -0.0175462 0.999239)
(-0.00629107 0.021142 0.999757)
(-0.104623 0.119037 0.987362)
(-0.0269165 0.0782964 0.996567)
(-0.232483 0.142828 0.962056)
(0.401169 0.143932 0.904626)
(-0.263606 0.215181 0.940324)
(-0.0180777 0.106993 0.994095)
(-0.0668719 -0.126125 0.989758)
(-0.194933 0.170574 0.965871)
(-0.0107632 0.0604669 0.998112)
(0.886188 -0.0826532 -0.455893)
(-0.257368 0.141032 0.955966)
(-0.355951 0.230869 0.905538)
(-0.107626 -0.0364687 0.993522)
(-0.0133707 0.121644 0.992484)
(-0.21742 0.173041 0.960617)
(-0.65556 0.733527 -0.179382)
(0.911269 -0.279745 0.30221)
(-0.385839 0.830543 -0.401654)
(0.528175 0.830022 -0.17915)
(-0.440362 0.826851 -0.349855)
(0.875237 -0.321459 0.36142)
(0.92475 -0.238447 0.296615)
(-0.540696 0.817932 -0.196557)
(0.285614 0.937378 -0.199367)
(-0.508457 0.814935 -0.278123)
(0.216063 0.00312138 0.976374)
(0.129557 -0.0177604 0.991413)
(0.230879 0.00125977 0.972982)
(0.132242 -0.0154638 0.991097)
(0.269566 0.00293472 0.962978)
(0.247724 0.0138235 0.968732)
(0.0875015 -0.0160107 0.996036)
(0.00300058 -0.0181365 0.999831)
(0.0443561 -0.00493965 0.999004)
(0.128734 0.0170409 0.991533)
(0.193345 -0.0039105 0.981123)
(0.105251 0.0111391 0.994383)
(0.0413252 0.00117408 0.999145)
(0.202664 -0.0107068 0.97919)
(0.0932638 0.00923733 0.995599)
(0.291273 0.0021082 0.956638)
(0.165936 -0.00568148 0.98612)
(0.288066 0.00218982 0.957608)
(0.278693 0.00375104 0.960373)
(0.161253 -0.0115287 0.986846)
(0.284886 0.00166708 0.95856)
(0.772747 0.633437 -0.0402341)
(0.768031 0.640275 -0.0132358)
(0.809899 0.585734 -0.0312986)
(0.766533 0.641906 -0.0195817)
(0.812871 0.581526 -0.0326853)
(0.766601 0.642061 -0.00896589)
(0.766985 0.639918 -0.047303)
(0.818491 0.57436 -0.013502)
(0.768247 0.640085 -0.00941219)
(0.81757 0.575771 -0.0082242)
(0.742681 0.65126 -0.155839)
(0.710746 0.698467 -0.0835671)
(0.690096 0.723698 0.00544553)
(0.70838 0.386744 -0.590446)
(0.710342 0.689423 -0.141809)
(0.670517 0.740829 0.0397361)
(0.704404 0.697273 -0.132758)
(0.731719 0.663365 -0.156633)
(0.778312 0.386324 -0.494958)
(0.712565 0.694869 -0.0969948)
(0.680915 0.726373 -0.0934717)
(0.724413 0.687843 -0.0458085)
(0.693893 0.716388 -0.072814)
(0.741254 0.661661 -0.112907)
(0.729076 0.673527 -0.121697)
(0.771788 0.635805 -0.00973875)
(0.821737 0.569836 0.00592534)
(-0.244759 0.628459 0.738331)
(-0.305026 0.366153 0.879142)
(-0.226935 -0.443653 0.866991)
(0.913178 -0.0589344 0.403277)
(0.00824622 -0.0129974 0.999882)
(0.047495 0.375974 0.925412)
(0.0385098 0.0425474 0.998352)
(0.0692979 0.236493 0.969159)
(-0.0133841 0.000739063 0.99991)
(0.0326893 0.063982 0.997416)
(0.0200697 0.423091 0.905865)
(0.0107048 -0.0171836 0.999795)
(0.0245596 0.0442357 0.998719)
(0.00266025 -0.00275324 0.999993)
(0.0156276 0.0129781 0.999794)
(0.0196222 -0.00542582 0.999793)
(0.0119456 -0.00718046 0.999903)
(0.0260716 0.0250579 0.999346)
(0.00554139 -0.0194231 0.999796)
(0.0412513 -0.0420302 0.998264)
(0.0456742 0.012228 0.998882)
(0.0175396 0.00496749 0.999834)
(0.000891336 -0.00854497 0.999963)
(-0.00986985 -0.00323708 0.999946)
(0.0267979 0.0138328 0.999545)
(0.790213 -0.29227 0.538648)
(0.219928 0.126061 0.967337)
(0.0117449 0.0102839 0.999878)
(-0.127611 0.0561973 0.990231)
(0.0136403 0.0204556 0.999698)
(0.0810481 -0.0221976 0.996463)
(0.132242 0.0756907 0.988323)
(-0.00480328 0.0634311 0.997975)
(0.0254248 -0.00962762 0.99963)
(0.0263462 0.0241395 0.999361)
(0.0847049 -0.0533938 0.994974)
(-0.0498809 0.0484372 0.99758)
(-0.00377713 0.00446461 0.999983)
(0.00817985 0.0174851 0.999814)
(-0.0309263 0.0188623 0.999344)
(0.0203694 0.00284188 0.999788)
(-0.0130581 0.0205422 0.999704)
(0.0318991 -0.0331846 0.99894)
(-0.153322 0.110122 0.982021)
(-0.0439163 -0.0287571 0.998621)
(-0.139005 0.0270251 0.989923)
(-0.0338525 0.0168423 0.999285)
(-0.0221031 0.0868742 0.995974)
(-0.086398 0.0251742 0.995943)
(-0.0133033 0.00305349 0.999907)
(0.00954394 -0.01777 0.999797)
(0.000185333 0.016974 0.999856)
(-0.0334361 0.013682 0.999347)
(-0.00929136 0.0101116 0.999906)
(-0.0395161 0.0277524 0.998833)
(-0.0258744 0.0103271 0.999612)
(-0.0574142 -0.0417412 0.997477)
(-0.282607 -0.197821 0.938616)
(-0.0386572 0.0298812 0.998806)
(0.0925593 0.910415 -0.403209)
(-0.190761 -0.0953427 0.976995)
(-0.115548 -0.0341488 0.992715)
(-0.165131 0.0196954 0.986075)
(-0.235881 -0.0942708 0.967199)
(-0.0522966 -0.00415955 0.998623)
(-0.222624 -0.0829158 0.971372)
(0.183987 -0.00107067 0.982928)
(0.131511 -0.0209449 0.991093)
(0.182542 -0.00696171 0.983173)
(0.127683 -0.0243535 0.991516)
(0.219889 -0.013144 0.975436)
(0.1934 -0.0155711 0.980996)
(-0.129931 0.0319236 0.991009)
(-0.230803 0.102739 0.967561)
(-0.119176 0.228232 0.966285)
(-0.181608 -0.0213163 0.98314)
(-0.245834 -0.344386 0.906071)
(-0.121338 -0.0922716 0.988313)
(-0.168647 0.0273216 0.985298)
(0.0855192 0.000270781 0.996336)
(-0.182725 0.349785 0.918837)
(-0.0265643 0.175234 0.984168)
(-0.165048 0.029098 0.985856)
(0.140909 0.077171 0.98701)
(-0.234476 -0.0416865 0.971228)
(0.204501 0.0227055 0.978603)
(-0.0819844 0.0115588 0.996567)
(-0.184047 0.0193029 0.982728)
(0.0400987 0.286689 0.957184)
(-0.180665 0.172364 0.968324)
(-0.0675753 0.214996 0.974274)
(-0.202901 0.297416 0.932939)
(-0.0439444 0.128794 0.990697)
(-0.0255228 0.0229704 0.99941)
(-0.198997 0.293873 0.9349)
(-0.0523766 0.372837 0.926418)
(-0.183394 0.428954 0.884514)
(0.00212762 0.223197 0.974771)
(-0.168471 0.502794 0.84783)
(-0.0204378 0.348639 0.937034)
(-0.195513 0.421046 0.885717)
(-0.00514183 0.45107 0.892474)
(-0.219846 0.482263 0.847992)
(0.84189 0.240384 0.483153)
(0.671503 -0.4422 0.594595)
(0.769567 -0.02896 0.637909)
(0.78916 0.597716 0.141287)
(0.750769 0.60136 0.273334)
(0.787898 -0.164252 0.593496)
(0.887717 0.350026 0.299066)
(0.876927 0.042452 0.478745)
(0.690836 -0.439192 0.574331)
(0.860067 -0.198184 0.470115)
(0.938181 -0.00701746 0.346075)
(0.893045 -0.0802723 0.442749)
(0.824958 -0.194271 0.530758)
(0.920801 0.0446335 0.387471)
(0.772144 0.635247 -0.0159665)
(0.757534 0.650129 -0.0589556)
(0.803208 0.592246 -0.064043)
(0.7525 0.653933 -0.0781999)
(0.792976 0.604932 -0.0724326)
(0.762209 0.645639 -0.0467686)
(0.771502 0.636202 -0.00563196)
(0.736844 0.658858 -0.15155)
(0.743169 0.66154 -0.100327)
(0.773536 0.621437 -0.12433)
(0.654705 -0.1905 0.731486)
(0.711719 0.398682 0.578368)
(0.678704 0.732468 -0.0533921)
(0.35503 -0.0753857 0.931811)
(0.694 0.635148 0.339046)
(0.648703 0.760962 -0.0110439)
(0.698467 0.564879 0.439381)
(0.701852 0.0195974 0.712053)
(0.517046 -0.0658225 0.853423)
(0.702667 0.54975 0.451702)
(0.663588 -0.242975 0.707541)
(0.696097 -0.316049 0.644641)
(0.823285 0.217135 0.524456)
(0.771752 -0.201423 0.603182)
(0.800255 0.0457472 0.597912)
(0.722203 -0.409253 0.557615)
(0.721486 -0.305615 0.621335)
(0.710514 -0.0444377 0.702279)
(0.726968 -0.205581 0.655175)
(0.783817 0.014626 0.620819)
(0.737994 0.670399 -0.0770072)
(0.874347 0.476862 0.09011)
(-0.196629 0.870888 -0.450435)
(0.664674 0.723568 -0.186165)
(-0.00387467 0.874842 -0.484392)
(0.918545 -0.196196 0.343193)
(0.888465 0.449352 0.0933486)
(0.647293 0.719058 -0.252918)
(0.688111 0.705102 -0.171272)
(0.4763 0.81373 -0.333141)
(0.0583831 0.0101713 0.998242)
(0.0750874 0.00307729 0.997172)
(0.0681747 0.00981885 0.997625)
(0.127199 0.0112939 0.991813)
(0.122503 0.0147385 0.992359)
(0.133582 0.0172047 0.990888)
(0.168534 0.00617397 0.985677)
(0.140746 0.0150061 0.989932)
(0.141801 0.00946362 0.98985)
(0.167467 0.00636255 0.985857)
(0.14176 0.013741 0.989806)
(0.294538 0.00058077 0.95564)
(0.292763 0.00221778 0.956183)
(0.178433 0.00491957 0.98394)
(0.293717 0.00131745 0.955892)
(0.178766 0.00551435 0.983876)
(0.294336 0.000732499 0.955702)
(0.294073 0.00125181 0.955782)
(0.325633 0.604411 0.727083)
(0.253287 0.619778 0.742779)
(0.252227 0.420447 0.871554)
(0.192793 0.594895 0.78034)
(0.222576 0.42853 0.875684)
(0.306024 0.499715 0.81033)
(0.204148 0.564953 0.79947)
(0.228457 0.372502 0.899472)
(0.208572 0.520666 0.827892)
(0.219225 0.341946 0.913791)
(0.218862 0.605176 0.765416)
(0.210995 0.397756 0.892901)
(0.217846 0.290693 0.931687)
(0.238683 0.639644 0.730675)
(-0.191503 0.0208177 0.981271)
(-0.161955 -0.0263154 0.986447)
(-0.225079 0.135975 0.964806)
(-0.202142 0.108031 0.97338)
(-0.210991 0.147369 0.966315)
(-0.168722 -0.0803246 0.982385)
(-0.193156 0.0216185 0.98093)
(0.978514 -0.190783 -0.0781849)
(0.951471 -0.297 -0.0805799)
(0.805736 -0.560345 -0.191843)
(0.995387 -0.095815 -0.00486277)
(0.99378 -0.0534679 -0.0976855)
(0.961677 -0.185396 -0.202006)
(0.988248 -0.152364 0.0123264)
(0.81046 -0.401071 -0.426962)
(-0.621525 0.343103 0.704264)
(0.707239 -0.451197 -0.544274)
(-0.629766 0.325201 0.705435)
(-0.550895 0.770141 0.321555)
(0.736952 -0.512019 -0.441292)
(-0.672284 0.285697 0.682943)
(0.492739 -0.00185414 0.870175)
(0.30953 -0.0121526 0.950812)
(0.466306 0.00961482 0.884571)
(0.252086 -0.0126507 0.967622)
(0.329594 0.00522452 0.944108)
(0.351905 -0.00293809 0.936031)
(0.676424 0.734568 -0.0534813)
(0.692389 0.720961 -0.0284971)
(0.655731 0.753351 -0.0497871)
(0.718457 0.694341 -0.0413564)
(0.71748 0.695574 -0.0374181)
(0.65556 0.753728 -0.0462051)
(0.676988 0.733234 -0.0636764)
(0.669013 0.742459 -0.0342824)
(0.692599 0.721288 -0.00704223)
(0.714387 0.699733 0.00496695)
(0.631625 0.775272 -0.00182091)
(0.667842 0.7443 -0.00183919)
(0.714826 0.698809 -0.0262617)
(0.629495 0.776701 -0.0217186)
(-0.61516 0.338292 0.712135)
(-0.628927 0.673942 0.387624)
(0.114251 0.00507206 0.993439)
(0.137089 0.0174598 0.990405)
(0.397762 -0.0250751 0.917146)
(0.189747 -0.00581203 0.981816)
(0.322348 -0.0696638 0.944055)
(0.53213 0.00583951 0.846642)
(0.355698 -0.0150263 0.93448)
(0.553939 -0.00760513 0.832523)
(0.747141 0.442594 0.495873)
(0.441234 0.0265245 0.897)
(0.622404 0.120915 0.7733)
(0.716306 0.684308 0.136487)
(0.687793 -0.25917 0.678065)
(0.636402 -0.323678 0.700161)
(0.762191 -0.163023 0.626489)
(0.78331 0.558731 0.272479)
(0.861211 0.260262 0.436554)
(0.63372 -0.28652 0.718544)
(0.665352 0.745917 0.0302504)
(0.698284 0.715201 0.0297811)
(0.713547 0.700599 -0.00346852)
(0.625445 0.780123 0.0150895)
(0.664908 0.746906 -0.00543278)
(0.718482 0.694541 0.0373623)
(0.630269 0.775598 0.0347656)
(0.16212 0.00297833 0.986767)
(0.169643 0.00222344 0.985503)
(0.162783 0.00176358 0.98666)
(0.930478 0.3663 -0.00590378)
(0.995469 0.0347459 -0.0885117)
(0.865135 0.48887 -0.112013)
(0.896636 0.386128 -0.216676)
(0.981309 -0.141001 0.13096)
(0.98551 -0.163661 0.0445655)
(0.877399 -0.457013 0.14598)
(0.999249 0.0110614 0.0371262)
(0.981848 -0.163622 0.0959318)
(0.948549 -0.263089 0.176177)
(0.990943 -0.0602997 0.11998)
(0.931691 -0.155075 0.328488)
(0.781669 -0.446852 0.435106)
(0.826305 -0.309725 0.470416)
(0.885743 -0.252637 0.389403)
(0.853787 -0.282025 0.437619)
(0.910965 -0.207418 0.356538)
(0.921811 -0.174021 0.346384)
(0.93325 0.358337 0.0252846)
(0.884034 0.448418 0.13193)
(0.846716 -0.114212 0.519642)
(0.862705 -0.0799184 0.499352)
(0.955427 0.29514 0.00715394)
(0.944808 0.322283 0.0589266)
(0.910055 -0.192088 0.36729)
(0.947291 -0.0756874 0.311304)
(0.159472 -0.013218 0.987114)
(0.129001 -0.0187527 0.991467)
(0.159233 -0.0152406 0.987123)
(0.137639 -0.0141416 0.990381)
(0.170541 -0.00694392 0.985326)
(0.168149 -0.00755812 0.985733)
(0.187287 0.0108599 0.982245)
(0.181758 0.00293195 0.983339)
(0.19379 0.00930538 0.980999)
(0.300765 0.00611167 0.953679)
(0.221345 -0.0129615 0.97511)
(0.27754 0.0018724 0.960712)
(0.189858 0.00372913 0.981804)
(0.172428 0.00111082 0.985021)
(0.189428 0.00265461 0.981891)
(0.17477 -0.00380976 0.984602)
(0.150978 -0.014401 0.988432)
(0.178076 -0.00586227 0.983999)
(0.765313 0.643154 -0.0254633)
(0.768285 0.639166 -0.0347116)
(0.763589 0.645686 -0.00468013)
(0.765256 0.643715 -0.00373703)
(0.655414 0.754032 -0.0432268)
(0.647421 0.760704 -0.0466468)
(0.628236 0.778021 0.00173053)
(0.628684 0.777656 -0.00270117)
(0.677691 0.73215 -0.0684912)
(0.660799 0.749222 -0.04485)
(0.692892 0.720515 -0.0275448)
(0.718001 0.695391 -0.0300992)
(0.67712 0.734034 -0.0519808)
(0.661549 0.74803 -0.0529433)
(0.720612 0.691869 -0.045111)
(0.654348 0.754691 -0.0476509)
(0.663846 0.74637 -0.0473282)
(0.767296 0.640761 -0.0261137)
(0.766376 0.641702 -0.0297706)
(0.298658 -0.103494 0.948732)
(0.372494 -0.092568 0.923407)
(0.422081 0.041238 0.90562)
(0.330533 -0.0845568 0.939999)
(0.388475 0.0751601 0.918389)
(-0.219776 0.151957 0.963643)
(-0.182112 0.148795 0.971954)
(-0.200476 0.0188178 0.979518)
(-0.204727 0.080568 0.975498)
(-0.120202 -0.00286077 0.992745)
(-0.194943 -0.0112521 0.98075)
(-0.132397 0.0245478 0.990893)
(-0.119367 -0.0120347 0.992777)
(-0.227129 0.0229649 0.973594)
(0.681298 0.731298 -0.0322111)
(-0.176195 -0.367848 0.913041)
(-0.196085 -0.547545 0.813477)
(0.156847 -0.0177138 0.987464)
(0.131035 -0.0205311 0.991165)
(0.15848 -0.0184923 0.987189)
(0.122401 0.000514383 0.992481)
(0.146639 0.0160014 0.989061)
(0.148952 -0.00152024 0.988843)
(-0.155454 -0.0717129 0.985237)
(0.13296 0.0407933 0.990282)
(-0.132377 0.0065126 0.991178)
(0.837794 0.0654759 0.542046)
(0.647744 -0.416003 0.638254)
(0.657305 -0.339856 0.672643)
(0.693678 -0.329021 0.640746)
(0.830197 0.405219 0.382846)
(0.664786 -0.364967 0.651812)
(0.706764 -0.34292 0.618781)
(0.891763 -0.158103 0.423984)
(0.733296 -0.433823 0.523521)
(0.806045 -0.309526 0.504465)
(0.855865 -0.276222 0.43726)
(0.902293 -0.167607 0.39721)
(0.774755 -0.34925 0.527047)
(0.831702 -0.303385 0.465005)
(0.705035 -0.335595 0.624741)
(0.893527 0.318785 0.316203)
(0.767259 0.641217 0.0123813)
(0.768788 0.639271 0.0172692)
(0.651147 -0.306548 0.694287)
(0.667092 -0.24776 0.702569)
(0.627543 0.777808 0.0346989)
(0.634497 0.77169 0.0436881)
(0.670218 -0.308876 0.674836)
(0.660844 -0.350819 0.663484)
(0.796674 -0.21168 0.566129)
(0.789705 -0.220654 0.572431)
(0.681475 -0.394292 0.616543)
(0.615143 -0.494767 0.613844)
(0.833271 -0.33481 0.439957)
(0.82264 -0.334088 0.460053)
(0.179431 0.0110431 0.983708)
(0.171863 0.00629845 0.985101)
(0.175808 0.0105132 0.984368)
(0.162566 0.00446125 0.986688)
(0.1673 0.00533208 0.985892)
(0.162987 0.00580205 0.986611)
(0.178583 0.00231764 0.983922)
(0.189088 0.00259836 0.981957)
(0.188928 0.0017332 0.981989)
(0.190323 0.00494267 0.981709)
(0.177195 0.00454644 0.984165)
(0.190426 0.00449255 0.981691)
(0.178868 0.00498665 0.983861)
(0.189293 0.00317295 0.981915)
(0.189582 0.00381239 0.981858)
(0.258635 0.612841 0.746682)
(0.422764 0.664262 0.616463)
(0.328678 0.601289 0.728301)
(0.342766 0.640934 0.686815)
(0.242824 0.565393 0.788268)
(0.32528 0.469845 0.820633)
(0.351114 0.577649 0.736913)
(0.401407 0.62567 0.668887)
(-0.00807776 -0.0276651 0.999585)
(0.0530117 -0.0497476 0.997354)
(0.00378941 -0.0401116 0.999188)
(-0.00765785 -0.0432161 0.999036)
(0.00405469 -0.035247 0.99937)
(-0.000470045 -0.0322982 0.999478)
(0.0425476 -0.0376877 0.998383)
(-0.0202488 -0.0281992 0.999397)
(-0.0134706 -0.0295362 0.999473)
(-0.011124 -0.0388246 0.999184)
(0.0237068 -0.0317536 0.999215)
(-0.00960314 -0.0334192 0.999395)
(-0.0291509 -0.0287281 0.999162)
(0.03333 -0.0330751 0.998897)
(0.999777 0.0156973 -0.0141238)
(0.996285 0.0850386 0.0135855)
(0.173253 -0.118279 0.977749)
(0.958358 0.170901 -0.228784)
(0.00638881 -0.208875 0.977921)
(-0.179974 0.128657 0.975221)
(-0.0984847 0.0528665 0.993733)
(0.252771 0.24646 0.935609)
(0.270795 0.384589 0.882475)
(0.273735 0.361685 0.891209)
(0.25006 0.422242 0.87131)
(0.327285 0.310234 0.892546)
(0.244921 0.315236 0.916864)
(0.184514 0.459061 0.869032)
(0.23407 0.126947 0.963896)
(0.0594691 -0.0646796 0.996133)
(0.0869189 0.165059 0.982446)
(0.155306 0.177927 0.971711)
(0.106548 0.116982 0.987402)
(0.0801582 -0.0147462 0.996673)
(0.156271 0.204015 0.966415)
(0.10593 0.200401 0.97397)
(-0.0822249 0.173975 0.981311)
(0.270329 0.321078 0.907651)
(0.0355829 -0.0709576 0.996844)
(0.0618686 -0.0693793 0.99567)
(0.0124075 -0.0542893 0.998448)
(0.00365439 -0.0922835 0.995726)
(0.0187912 -0.0520063 0.99847)
(0.0135437 -0.071564 0.997344)
(0.0707796 -0.0907793 0.993353)
(0.0559377 -0.0935654 0.99404)
(0.0237782 -0.0810087 0.99643)
(0.0781892 -0.110036 0.990847)
(0.005355 -0.107748 0.994164)
(0.0645529 -0.0904093 0.99381)
(0.0179393 -0.0931018 0.995495)
(0.0772419 -0.108603 0.99108)
(0.935435 -9.73728e-05 0.353498)
(0.969347 -0.0161208 0.245168)
(0.81054 0.0215755 0.585286)
(0.757391 0.00605532 0.652933)
(0.0582265 0.262863 0.963075)
(0.0415624 0.0956077 0.994551)
(0.0584034 0.234268 0.970416)
(0.018173 0.301529 0.953284)
(0.0473769 0.353975 0.934054)
(0.0104414 0.157419 0.987477)
(0.073443 0.179534 0.981006)
(0.105538 0.346012 0.932275)
(0.0514449 0.65018 0.758036)
(0.0799105 0.195859 0.977371)
(0.0385827 0.475661 0.878782)
(0.0737337 0.300056 0.951068)
(0.0978263 0.242205 0.965281)
(0.0491196 0.675889 0.735364)
(0.0562025 0.158795 0.985711)
(0.0309179 0.0570059 0.997895)
(0.0342301 0.0541822 0.997944)
(0.064564 0.0556229 0.996362)
(0.0664282 0.116372 0.990982)
(0.0245342 0.0939892 0.995271)
(0.0723712 0.106595 0.991665)
(0.0531542 0.446152 0.893377)
(-0.39942 0.703613 0.587701)
(-0.11553 0.821516 0.558358)
(-0.00832071 0.555754 0.831305)
(-0.102171 0.621033 0.777097)
(0.0892982 0.339244 0.93645)
(0.00955161 0.728664 0.684805)
(-0.532794 0.290856 0.794691)
(-0.586255 0.692898 -0.419759)
(0.88893 0.0860637 0.449884)
(-0.424271 0.17574 0.888318)
(0.644107 -0.414172 -0.643108)
(-0.55547 0.195333 0.808269)
(-0.243468 0.267048 0.932421)
(-0.0546215 0.0700878 0.996044)
(-0.00798855 0.0523658 0.998596)
(-0.00307368 0.0376201 0.999287)
(-0.053288 0.0937714 0.994167)
(-0.0148493 0.045022 0.998876)
(-0.0416108 0.0788567 0.996017)