/*--------------------------------*- C++ -*----------------------------------*\
| =========                 |                                                 |
| \\      /  F ield         | OpenFOAM: The Open Source CFD Toolbox           |
|  \\    /   O peration     | Version:  2012                                  |
|   \\  /    A nd           | Website:  www.openfoam.com                      |
|    \\/     M anipulation  |                                                 |
\*---------------------------------------------------------------------------*/
FoamFile
{
    version     2.0;
    format      ascii;
    class       volScalarField;
    location    "0.108/solid";
    object      sigmaHyd;
}
// * * * * * * * * * * * * * * * * * * * * * * * * * * * * * * * * * * * * * //

dimensions      [1 -1 -2 0 0 0 0];


internalField   nonuniform List<scalar> 
3124
(
-2.71395e+07
-3.61038e+07
-8.54346e+07
-1.78186e+07
-2.99317e+07
-3.58884e+07
-8.927e+07
-2.07778e+07
-2.6531e+07
-3.0636e+07
-2.70647e+08
-3.42909e+07
-8.55494e+07
-8.98249e+07
-3.63044e+07
-7.99896e+07
-3.66625e+08
-9.65222e+07
-8.30639e+07
-4.00441e+07
-8.98328e+07
-9.54248e+07
-9.1337e+07
2.45766e+07
-2.50287e+07
-9.9212e+07
-3.48225e+07
-6.80538e+07
-4.73459e+07
-2.99107e+07
-1.22021e+08
-8.66155e+07
-9.33471e+07
-9.94298e+07
-5.08678e+07
-6.49342e+06
-2.16348e+07
-1.06432e+08
-1.87503e+07
-4.96599e+07
-1.19502e+08
-9.28246e+07
-4.30773e+07
-6.81981e+07
-7.77475e+07
-1.34938e+08
-1.22449e+08
-1.32566e+08
-9.38548e+07
-3.04659e+07
-5.29577e+07
-8.72462e+06
-1.06893e+08
-3.54573e+07
-5.58285e+07
-5.64696e+07
-1.10708e+08
-1.04914e+08
-9.03879e+07
-2.19183e+07
-6.77786e+07
-4.98391e+07
-4.056e+07
-1.39102e+08
-1.7891e+08
1.41522e+08
-6.13944e+07
6.74892e+07
-4.27111e+07
-2.97884e+07
-3.95856e+07
-4.43834e+07
-2.73345e+07
-3.2825e+07
1.45368e+06
4.65731e+07
-6.99308e+07
-1.35083e+08
-6.09768e+07
-5.90115e+07
-4.59057e+07
-1.32736e+08
-9.44142e+07
-8.66686e+07
-8.03158e+07
-9.2588e+07
-7.86571e+07
-9.20684e+07
-3.85145e+07
-3.47312e+07
6.96052e+06
-1.45234e+07
-9.74385e+07
-2.72719e+07
-2.38298e+07
-4.82066e+07
-2.23742e+07
-3.40444e+07
-1.57221e+08
-1.732e+08
-4.31912e+07
-7.22404e+07
-7.66085e+07
-6.25978e+07
-7.51254e+07
-7.2687e+07
-7.30604e+07
-7.54953e+07
-5.51061e+07
-2.01998e+08
-7.39973e+07
-1.37451e+08
-1.84731e+08
-1.6868e+08
-1.34386e+08
-6.95904e+07
-9.04347e+07
-3.93571e+07
-4.02511e+07
-5.13043e+07
-3.99437e+07
-4.43404e+07
-5.65239e+07
-4.03127e+07
-4.66867e+07
4.21731e+06
-3.74135e+07
-2.96543e+07
-5.09006e+07
-5.79419e+07
-5.11117e+07
-6.89402e+07
-1.07381e+08
-1.03106e+08
-8.17433e+07
-8.95622e+07
-8.81554e+07
-7.97195e+07
-8.72802e+07
-4.90883e+06
-4.47193e+07
-5.34299e+07
-1.15511e+08
-8.78138e+07
-9.90551e+07
-5.62015e+07
-7.41847e+07
-3.84245e+07
-5.38739e+07
-6.37177e+07
-1.33758e+08
-1.24719e+08
-1.87761e+08
-3.44192e+07
-6.14498e+07
-2.47434e+07
-5.27366e+07
-3.96587e+07
-6.63503e+07
-4.23808e+07
-2.30573e+07
-1.31095e+08
-9.46453e+07
-2.66478e+08
-2.38734e+08
-5.30103e+08
-2.65815e+08
-1.57211e+08
-8.01158e+07
-8.793e+07
-7.97986e+07
-9.09619e+07
-7.94766e+07
-1.01563e+08
-8.2233e+07
-8.76431e+07
-7.90535e+07
-7.6206e+07
-1.19915e+08
-3.39603e+08
-6.08143e+08
-7.95764e+07
-4.00787e+07
-6.12437e+07
-4.50669e+07
-7.08275e+07
-6.69937e+07
-5.29261e+07
-6.95041e+07
-8.70006e+07
-7.68942e+07
-7.87879e+07
-7.89484e+07
-7.83418e+07
-7.59564e+07
-1.26176e+08
-8.50566e+07
-1.05893e+08
-1.07476e+08
-8.14319e+07
-8.76379e+07
-1.2256e+08
-8.82722e+07
-8.93618e+07
-8.17504e+07
-8.97223e+07
-8.37126e+07
-1.03471e+08
-8.47309e+07
-8.4281e+07
-1.00046e+08
-9.62273e+07
-8.09661e+07
-8.73416e+07
-3.32334e+07
-2.06727e+06
-5.15349e+07
-3.57806e+07
-3.70999e+07
-2.97786e+07
-1.52593e+07
-4.43023e+07
-6.01386e+07
-3.69519e+07
-5.16279e+07
-4.32761e+07
-5.66528e+07
-3.85417e+07
-5.51485e+07
-8.34476e+07
-1.08438e+08
-7.37559e+07
-8.88852e+07
-8.09041e+07
-9.44689e+07
-1.06598e+08
-6.49027e+07
-7.13453e+07
-5.70378e+07
-1.04834e+08
-6.62947e+07
-7.7517e+07
-7.89111e+07
-6.67031e+07
-5.67162e+07
-5.72228e+07
-1.06484e+08
-8.18789e+07
-6.70524e+07
-5.73872e+07
-8.11858e+07
-6.70089e+07
-1.02532e+08
-8.70491e+07
-3.94139e+07
-7.20757e+07
-6.85903e+07
-7.8783e+07
-6.85176e+07
-1.30864e+08
-8.45914e+07
-8.03592e+07
-7.16581e+07
-8.3089e+07
-6.76553e+07
-8.42102e+07
-8.06912e+07
-7.76302e+07
-7.65277e+07
-8.04443e+07
-8.13115e+07
-7.47555e+07
-1.64411e+08
-2.95936e+08
-2.18947e+08
-8.88768e+07
-1.43181e+08
-1.3324e+08
-2.17372e+08
-1.46702e+08
-1.55485e+08
-6.17375e+07
-9.77353e+07
-6.97144e+07
-8.16075e+07
-6.18787e+07
-8.1122e+07
-6.9298e+07
-5.92509e+07
-9.92021e+07
-8.22633e+07
-6.76734e+07
-5.88355e+07
-8.21418e+07
-6.84158e+07
-4.64198e+07
-1.1275e+08
-1.07793e+08
-9.74815e+07
-9.57902e+07
-3.349e+07
-3.31597e+07
-2.01159e+07
-2.17826e+07
-2.99791e+07
-2.53978e+07
-4.97877e+07
-3.18384e+07
-2.73408e+07
-6.36335e+07
-6.35634e+07
-7.18679e+07
-6.30652e+07
-6.77819e+07
-6.80537e+07
-5.58507e+07
-2.64759e+07
-5.89066e+07
-3.74367e+07
-5.65569e+07
-3.60852e+07
-7.13917e+07
-4.46503e+07
-1.02681e+07
-3.50691e+07
-6.1284e+07
1.56725e+08
-5.62326e+07
-2.02297e+08
-9.69683e+07
-3.77491e+08
-9.25004e+07
-1.04669e+08
7.1815e+08
-1.11857e+08
-1.3097e+08
-2.23478e+08
-6.13837e+07
-1.29424e+08
-9.08743e+07
-2.60605e+08
-1.57309e+08
4.99876e+07
-6.76799e+08
-7.77275e+07
-7.30759e+07
-7.37795e+07
-7.10394e+07
-7.90702e+07
-9.4264e+07
-7.91802e+07
-9.44536e+07
-3.39989e+06
2.46041e+07
2.65906e+07
-3.23269e+07
-2.3778e+06
1.59526e+07
-3.50073e+07
-1.21271e+07
5.43341e+06
-2.31014e+07
-5.24248e+07
-1.70682e+06
-4.66894e+07
-2.7198e+07
1.67814e+08
1.01161e+08
3.21152e+07
-7.68164e+06
3.77109e+07
7.19175e+07
7.211e+07
5.36712e+07
7.0505e+06
6.69103e+07
-7.42139e+07
-7.36268e+07
-7.19827e+07
-6.6147e+07
-6.526e+07
-7.73083e+07
-7.19327e+07
-8.02637e+07
-1.11648e+08
-1.19755e+08
-9.91053e+07
-9.05253e+07
-9.15517e+07
-8.79652e+07
-7.28797e+07
-7.28178e+07
-6.30375e+07
-7.37312e+07
-6.47259e+07
-8.01257e+07
-7.13137e+07
-3.49362e+07
-4.54707e+07
-4.83713e+07
-5.62023e+07
-4.07329e+07
-6.43601e+07
-5.40857e+07
-2.40044e+07
-5.16749e+07
-2.36248e+07
-4.98655e+07
-1.1296e+08
-4.65198e+07
-1.09317e+08
-5.32256e+07
-5.18995e+07
-8.73657e+07
-7.88552e+07
-7.60569e+07
-7.59117e+07
-8.18298e+07
-6.99877e+07
-6.55086e+07
-8.27557e+07
-6.83494e+07
-6.82128e+07
-8.0276e+07
-6.40378e+07
-5.82137e+07
-8.18672e+07
-6.14268e+07
-8.04996e+07
-8.3903e+07
-6.86675e+07
-3.70673e+07
-6.72041e+07
-8.79551e+07
-8.57225e+07
-6.41884e+07
-3.61237e+07
-6.51495e+07
-6.91608e+07
-6.97797e+07
-4.88643e+07
2.55043e+06
-5.06505e+07
-6.97439e+07
-7.00684e+07
-5.49869e+07
-5.58464e+06
-5.23015e+07
-6.51948e+07
-7.39955e+07
-5.64941e+07
-6.84462e+07
-5.62614e+07
-7.74514e+07
-6.05826e+07
-1.18667e+08
7.32891e+08
-2.18964e+08
-2.37831e+08
-8.10385e+07
-4.23124e+07
-7.16152e+07
-6.74907e+07
-7.88924e+07
-7.03881e+07
-5.21338e+07
-7.86693e+07
-6.99411e+07
-7.34681e+07
-7.54745e+07
-7.1535e+07
-7.79505e+07
-7.44284e+07
-7.98923e+07
-7.71401e+07
-7.71375e+07
-7.65427e+07
-8.08412e+07
-7.89458e+07
-7.64548e+07
-8.2388e+07
-6.8929e+07
-8.40357e+07
-7.10012e+07
-7.2399e+07
-7.50059e+07
-7.42274e+07
-7.09475e+07
-8.30079e+07
-7.25268e+07
-7.46459e+07
-7.37755e+07
-7.33681e+07
-7.55473e+07
-7.78078e+07
-7.74495e+07
-7.52635e+07
-7.74812e+07
-7.80193e+07
-3.69511e+07
-7.25288e+07
-7.09016e+07
-8.33536e+07
-7.55577e+07
-7.7463e+07
-7.16487e+07
-7.68235e+07
-7.46685e+07
-7.85458e+07
-7.12487e+07
-7.71302e+07
-2.78269e+08
-2.98569e+08
-2.76192e+08
-3.64103e+08
-2.75457e+08
-2.53513e+08
-1.96835e+08
-1.70804e+08
-1.60749e+08
-2.4607e+08
-4.07207e+07
-1.68685e+08
-5.43026e+07
-1.75935e+08
-6.11308e+07
-5.68902e+07
-1.28858e+08
-1.31513e+08
-1.79926e+08
-1.65078e+08
-3.5754e+07
-1.78246e+08
-1.37857e+08
-1.23843e+08
-9.76173e+07
-1.1239e+08
-1.15933e+08
-1.06661e+08
-1.58486e+08
-5.31275e+07
-1.49079e+08
-1.19809e+08
-8.17142e+07
-8.13024e+07
-4.89528e+07
-6.76394e+07
-8.31048e+07
-6.309e+07
-8.11972e+07
-1.01153e+08
-8.92837e+07
-1.16531e+08
-7.49691e+07
-9.60571e+07
-6.441e+07
-5.97971e+07
-9.05521e+07
-5.78524e+07
-7.49302e+07
-6.89628e+07
-7.75454e+07
-6.16422e+07
-6.49676e+07
-7.71529e+07
-5.06713e+07
-6.91738e+07
-4.13306e+07
-6.55933e+07
-4.06924e+07
-5.59804e+07
-6.79787e+07
-8.66671e+07
-8.62022e+07
-6.92508e+07
-4.17295e+07
-7.10821e+07
-8.7664e+07
-8.81365e+07
-7.17568e+07
-4.49827e+07
-7.05005e+07
-7.24113e+07
-7.39138e+07
-4.95784e+07
-6.47981e+06
-5.36415e+07
-7.10307e+07
-7.21806e+07
-6.25378e+07
-2.15508e+07
-5.66342e+07
-7.13025e+07
-6.36232e+07
-2.54383e+07
-4.95908e+07
-5.26991e+07
-1.93522e+07
-5.12108e+07
-6.40369e+07
-5.65333e+07
-6.03155e+07
-8.31171e+07
-8.16764e+07
-6.02822e+07
-5.70706e+07
-6.34837e+07
-7.14388e+07
-7.6407e+07
-6.94998e+07
-5.29405e+07
-6.93126e+07
-7.75761e+07
-1.03925e+08
-9.80466e+07
-9.57724e+07
-8.95704e+07
-7.85326e+07
-8.50406e+07
-8.58862e+07
-9.42856e+07
-8.63751e+07
-8.82369e+07
-7.94533e+07
-7.07324e+07
-8.28111e+07
-7.48672e+07
-8.39908e+07
-7.87542e+07
-7.62059e+07
-6.91601e+07
-3.91641e+07
-5.15599e+07
-6.06174e+07
-7.4892e+07
-5.31637e+07
-6.30581e+07
-6.9022e+07
-3.59236e+07
-5.1292e+07
-5.66922e+07
-7.0372e+07
-5.04848e+07
-5.26873e+07
-3.77483e+08
-3.74569e+08
-4.17508e+08
-3.01866e+08
-2.86585e+08
-4.74491e+08
-3.19173e+08
-1.55727e+07
4.75347e+07
4.27409e+07
2.34054e+06
-2.18352e+07
6.07322e+06
-6.70109e+06
-7.75563e+07
-8.65866e+07
-5.68827e+06
-7.00549e+07
-1.48525e+08
-7.29534e+07
-5.53292e+07
-5.73963e+07
-1.15757e+08
-6.15672e+07
-9.86699e+07
-6.6713e+07
-6.53735e+07
-8.23551e+07
-1.01302e+08
-8.63774e+07
-8.96088e+07
-9.13922e+07
-8.74778e+07
-8.14213e+07
-8.6312e+07
-1.07842e+08
-9.68361e+07
-9.18279e+07
-8.60996e+07
-9.61841e+07
-9.10275e+07
-1.12991e+08
-1.91111e+08
-7.73475e+07
-7.8615e+07
-5.96804e+07
-7.35221e+07
-6.80299e+07
-5.52489e+07
-1.29918e+08
-5.05725e+07
-2.53958e+07
-1.50225e+08
-4.10666e+07
-8.16059e+07
-9.50079e+07
-8.33228e+07
-8.86757e+07
-8.19779e+07
-8.96557e+07
-8.40034e+07
-8.62841e+07
-1.03572e+08
-9.54166e+07
-9.02015e+07
-8.54107e+07
-9.64074e+07
-9.10639e+07
-9.27116e+07
-9.10115e+07
-9.31831e+07
-7.2225e+07
-4.09594e+07
3.27194e+07
2.76645e+07
3.20902e+06
3.60311e+07
4.01528e+07
-7.22446e+06
4.44873e+06
4.99494e+07
2.81133e+06
-3.32687e+07
-1.63293e+07
-2.71226e+07
-4.37379e+07
-2.1315e+07
-3.92685e+07
-3.86095e+07
8.80135e+07
5.35338e+07
-1.68248e+07
-1.6188e+06
-5.45311e+07
-6.388e+07
-7.34063e+07
-7.24087e+07
-1.05443e+08
-1.24342e+08
-9.83712e+07
-9.96526e+07
-7.99487e+07
-8.31015e+07
-7.82843e+07
-8.03587e+07
-7.60945e+07
-6.86873e+07
-8.7994e+07
-7.02682e+07
-7.61789e+07
-7.85419e+07
-7.54882e+07
-7.99407e+07
-8.77193e+07
-7.79368e+07
-9.87917e+07
-1.01292e+08
-1.09121e+08
-1.10389e+08
-9.59666e+07
-9.83489e+07
-1.02775e+08
-1.03109e+08
-7.87524e+07
-8.41203e+07
-9.49329e+07
-8.7375e+07
-7.91494e+07
-8.31809e+07
-8.6095e+07
-9.4766e+07
-9.19606e+07
-9.66743e+07
-9.4303e+07
-8.08461e+07
-7.76075e+07
-6.1397e+07
-7.65077e+07
-7.15867e+07
-6.70848e+07
-5.57046e+07
-2.88367e+08
-2.40963e+08
-1.88111e+08
-2.0432e+08
-2.40971e+08
-2.09192e+08
-2.54285e+08
1.17359e+06
-1.20638e+08
-8.72533e+07
-1.07716e+08
-1.48434e+08
-1.17431e+08
-1.94043e+08
-1.47402e+08
-1.48457e+08
-1.2684e+08
-1.20203e+08
-1.14305e+08
-7.85813e+07
-8.66099e+07
-8.03706e+07
-8.56667e+07
-7.87723e+07
-7.91465e+07
-8.41634e+07
-5.45724e+07
-5.32246e+07
-4.18787e+07
-5.43981e+07
-4.96518e+07
-4.73961e+07
-5.88273e+07
-9.91951e+07
-1.0114e+08
-1.10054e+08
-1.07677e+08
-8.80265e+07
-9.026e+07
-1.02439e+08
-1.00622e+08
-8.55143e+07
-8.14501e+07
-2.94044e+07
-4.65829e+07
-9.76212e+07
-9.48777e+07
-7.49597e+07
-7.94631e+07
-8.04009e+07
-8.25836e+07
-8.26867e+07
-9.20007e+07
-8.8634e+07
-9.09418e+07
-8.88678e+07
-8.59673e+07
-8.66225e+07
-7.74817e+07
-8.05793e+07
-7.85967e+07
-8.62328e+07
-8.51753e+07
-8.41914e+07
-3.76953e+07
-5.85013e+07
-5.98711e+07
-5.71816e+07
-6.03036e+07
-5.47167e+07
-6.60957e+07
-5.58415e+07
-1.47474e+08
-1.37059e+08
-1.21034e+08
-1.09055e+08
-1.54696e+08
-1.1514e+08
-1.31001e+08
-1.4155e+08
-1.02599e+08
-1.03989e+08
-1.21212e+08
-1.07954e+08
-1.348e+08
-1.25885e+08
-9.23751e+07
-1.21407e+08
-1.97947e+08
-1.21827e+08
-8.10511e+07
-1.14583e+08
-7.88956e+07
-6.98769e+07
-5.406e+07
-5.42826e+07
-6.73526e+07
-5.55963e+07
-5.53115e+07
-6.97916e+07
-6.20808e+07
-6.89698e+07
-6.14702e+07
-5.87549e+07
-6.72157e+07
-5.81083e+07
-5.82348e+07
-5.45874e+07
-1.0415e+08
-5.44595e+07
-1.82614e+08
-1.46749e+08
-1.32138e+08
-1.39069e+08
-1.65209e+08
-1.45794e+08
-1.61626e+08
-2.09415e+08
-2.03674e+08
-2.14162e+08
-1.60492e+08
-2.44448e+08
-1.70794e+08
-1.84995e+08
-9.98474e+07
-8.32253e+07
-8.75729e+07
-9.7974e+07
-4.44457e+07
-5.55399e+07
-4.64536e+07
-4.3394e+07
-4.1362e+07
-4.87386e+07
-4.56825e+07
-3.94328e+07
-2.80789e+07
-5.54244e+07
-3.31523e+07
-4.20912e+07
-4.70535e+07
-2.66636e+07
-5.24535e+07
-6.29305e+07
-5.73394e+07
-5.9982e+07
-5.44838e+07
-5.61719e+07
-5.39644e+07
-3.40266e+07
-2.82465e+07
-2.52343e+07
-2.68818e+07
-3.13585e+07
-3.78534e+07
-2.48385e+07
-1.84028e+08
-3.30208e+08
-6.6959e+07
-1.98499e+08
-2.3977e+08
-6.32545e+07
-2.02792e+08
-8.55051e+07
-8.02027e+07
-8.99896e+07
-8.34744e+07
-8.78145e+07
-8.32845e+07
-8.47233e+07
-8.82122e+07
-8.74016e+07
-8.68354e+07
-9.20265e+07
-8.71375e+07
-8.75206e+07
-8.98459e+07
-8.2255e+07
-8.04069e+07
-8.37837e+07
-8.06762e+07
-8.20699e+07
-8.62988e+07
-8.08146e+07
-9.40471e+07
-9.43622e+07
-9.88906e+07
-8.83097e+07
-9.32111e+07
-9.30493e+07
-9.46386e+07
-8.5267e+07
-8.38196e+07
-7.95609e+07
-7.7644e+07
-8.53059e+07
-7.78793e+07
-8.33881e+07
-8.60934e+07
-7.62491e+07
-8.45026e+07
-7.66911e+07
-8.75668e+07
-7.70598e+07
-8.36707e+07
-6.71417e+07
-7.74936e+07
-7.02592e+07
-7.68493e+07
-6.80036e+07
-6.9215e+07
-7.43346e+07
-4.93654e+07
-3.02876e+07
-6.23214e+07
-4.97491e+07
-4.72035e+07
-6.81616e+07
-3.15762e+07
-6.29154e+07
-7.46733e+07
-6.35041e+07
-6.5691e+07
-6.10971e+07
-6.5034e+07
-7.06956e+07
-5.27121e+07
-7.31796e+07
-3.37399e+07
-5.31434e+07
-5.39262e+07
-7.22232e+07
-3.29418e+07
-7.60684e+07
-6.88608e+07
-7.52813e+07
-7.6597e+07
-7.59072e+07
-7.66142e+07
-7.6883e+07
-8.06535e+07
-8.20311e+07
-8.4548e+07
-7.93657e+07
-8.20227e+07
-8.03365e+07
-7.95624e+07
-7.80182e+07
-7.57857e+07
-8.19425e+07
-7.81897e+07
-7.88649e+07
-7.85244e+07
-7.6509e+07
-7.8867e+07
-7.83513e+07
-7.16354e+07
-8.01343e+07
-7.99159e+07
-7.64899e+07
-7.84522e+07
-1.02226e+08
-9.6165e+07
-8.54781e+07
-8.61825e+07
-9.89831e+07
-9.80533e+07
-9.97382e+07
-1.10379e+08
-8.35315e+07
-9.39682e+07
-9.80162e+07
-1.05683e+08
-1.1754e+08
-1.06139e+08
-1.14202e+08
-1.25316e+08
-7.40153e+07
-1.12608e+08
-1.10784e+08
-1.16702e+08
-1.18283e+08
-8.74465e+07
-7.84979e+07
-9.74858e+07
-9.12582e+07
-8.3321e+07
-8.51536e+07
-9.38802e+07
-8.60666e+07
-8.53037e+07
-7.6046e+07
-9.26366e+07
-8.31828e+07
-8.54963e+07
-7.87327e+07
-8.54179e+07
-8.28359e+07
-6.33325e+07
-8.10745e+07
-8.33572e+07
-6.57918e+07
-8.19677e+07
-9.12858e+07
-1.00464e+08
-9.41869e+07
-9.85649e+07
-9.07639e+07
-9.14311e+07
-9.90789e+07
-9.3117e+07
-9.74509e+07
-9.85748e+07
-9.14636e+07
-9.88186e+07
-9.73947e+07
-1.00922e+08
-1.00877e+08
-8.75041e+07
-8.48448e+07
-8.16223e+07
-8.30281e+07
-8.62203e+07
-8.39344e+07
-8.6274e+07
-8.89903e+07
-8.83231e+07
-8.97048e+07
-8.51744e+07
-9.0748e+07
-8.60084e+07
-8.7898e+07
-3.06387e+07
-1.98446e+07
-4.32739e+07
-4.22287e+07
-4.40005e+07
-2.51102e+07
-4.04207e+06
-5.87702e+07
-5.5696e+07
-5.28826e+07
-4.82281e+07
-5.46352e+07
-5.22973e+07
-5.98517e+07
-4.95643e+07
-4.16961e+07
-3.65783e+07
-8.74677e+07
-7.94548e+07
-8.4792e+07
-2.01565e+07
-3.877e+07
-1.14985e+08
-6.47824e+07
-6.31322e+07
-2.96355e+07
-7.53245e+07
-7.68621e+07
-4.36546e+07
-7.79337e+07
-4.30964e+07
-4.25643e+07
-1.12447e+08
-9.80294e+07
-8.10341e+07
-8.4587e+07
-8.47717e+07
-1.0552e+08
-1.03479e+08
-1.20913e+08
-9.67712e+07
-1.15911e+08
-8.93991e+07
-1.28896e+08
-9.15725e+07
-1.09988e+08
-1.00068e+08
-6.47363e+07
-6.48618e+07
-3.95603e+07
-5.05792e+07
-6.25917e+07
-6.60547e+07
-6.28977e+07
-4.68811e+07
-4.82687e+07
-4.36138e+07
-7.04257e+07
-4.57669e+07
-6.83298e+07
-3.56224e+07
-6.79935e+07
-4.62033e+07
-8.40105e+07
-1.0368e+08
-9.40766e+07
-8.98552e+07
-8.40728e+07
-9.29005e+07
-8.8881e+07
-8.61847e+07
-1.06472e+08
-9.48594e+07
-9.04562e+07
-8.51517e+07
-9.65535e+07
-9.15724e+07
-3.74837e+08
-3.83794e+08
-2.22022e+08
-3.69262e+08
-7.69821e+07
-8.50398e+07
-7.68565e+07
-8.03456e+07
-7.8449e+07
-9.00533e+07
-7.47145e+07
-6.77088e+07
-1.22652e+08
-5.28785e+07
-5.93508e+07
-8.10103e+07
-7.8758e+07
-4.02809e+07
-8.20003e+07
-8.448e+07
-8.3845e+07
-7.4092e+07
-7.45375e+07
-8.47957e+07
-7.8964e+07
-7.4607e+07
-3.89533e+07
-6.09928e+07
-7.89266e+07
-8.01135e+07
-8.27041e+07
-8.06362e+07
-7.88166e+07
-8.17869e+07
-8.12327e+07
-7.80402e+07
-8.34798e+07
-8.24547e+07
-7.91829e+07
-8.26862e+07
-7.6724e+07
-8.03861e+07
-7.79348e+07
-7.08666e+07
-5.41317e+07
-6.98413e+07
-5.54422e+07
-7.58761e+07
-6.18232e+07
-7.96735e+07
-8.4856e+07
-8.19845e+07
-7.75323e+07
-8.24411e+07
-7.9991e+07
-7.9054e+07
-7.99069e+07
-8.19756e+07
-8.15205e+07
-7.92542e+07
-8.17509e+07
-7.95063e+07
-7.96577e+07
-8.02014e+07
-8.07865e+07
-8.3389e+07
-8.14982e+07
-8.17881e+07
-8.02975e+07
-8.12387e+07
-3.81828e+08
-3.22701e+08
-3.35054e+08
-2.8272e+08
-3.07712e+08
-4.18746e+08
-3.14965e+08
-3.38458e+08
-2.33592e+08
-2.50249e+08
-2.51569e+08
-2.83235e+08
-2.72365e+08
-2.85344e+08
-1.65242e+07
-3.2822e+07
-9.77894e+07
-9.87513e+07
-1.06888e+08
-3.92541e+07
-3.29929e+07
-1.31478e+08
-5.22362e+07
-5.13085e+07
-4.41701e+07
-1.48864e+08
-1.13004e+08
-4.14941e+07
-1.25597e+08
-2.91029e+07
-3.40312e+07
-8.15254e+07
-5.31937e+07
-2.81242e+08
-2.017e+08
-2.48242e+08
-5.12956e+07
-4.6967e+07
-1.60698e+08
-5.50406e+07
-5.43227e+07
-4.7995e+07
-1.76858e+08
-1.81255e+08
-4.5891e+07
-2.12957e+08
-6.31694e+07
-5.38079e+07
-8.34687e+07
-9.55557e+07
-9.13959e+07
-8.62333e+07
-8.23465e+07
-9.14986e+07
-8.6278e+07
-8.46517e+07
-1.03439e+08
-9.35109e+07
-8.88262e+07
-8.42541e+07
-9.38847e+07
-8.85391e+07
-8.75758e+07
-9.6786e+07
-1.06074e+08
-9.11018e+07
-1.09406e+08
-1.11307e+08
-1.1271e+08
-1.11831e+08
-1.01949e+08
-9.92215e+07
-9.87661e+07
-9.87881e+07
-1.00131e+08
-1.00475e+08
-1.00632e+08
-1.02946e+08
-1.01412e+08
-1.02128e+08
-9.96671e+07
-1.0345e+08
-1.00992e+08
-1.01618e+08
-9.60963e+07
-9.41452e+07
-9.7142e+07
-9.68353e+07
-9.83139e+07
-9.52066e+07
-9.46884e+07
-9.14208e+07
-9.3468e+07
-9.60075e+07
-9.75192e+07
-9.89936e+07
-9.5093e+07
-5.37025e+07
-5.80191e+07
-3.35517e+07
-2.82985e+07
-3.51028e+07
-2.22577e+07
-4.38199e+07
-2.13867e+07
-4.69503e+07
-6.54378e+07
-5.95793e+07
-5.57065e+07
-3.85963e+07
-4.14396e+07
-3.98712e+07
-5.64108e+07
-4.21683e+07
-3.06834e+07
-5.10144e+07
-2.13997e+07
-4.39954e+07
-4.71312e+07
-4.50918e+07
-3.02955e+07
-2.35994e+07
-2.59259e+07
-3.38471e+07
-3.03227e+07
-2.09666e+07
-2.73022e+07
-5.95962e+07
-6.40525e+07
-6.00218e+07
-5.70766e+07
-5.75554e+07
-6.55132e+07
-5.86324e+07
-6.85613e+07
-6.95319e+07
-6.96248e+07
-7.11803e+07
-6.84567e+07
-6.83125e+07
-6.93692e+07
-6.5306e+07
-6.40803e+07
-6.88738e+07
-6.42705e+07
-6.75604e+07
-6.55616e+07
-6.51111e+07
-6.4765e+07
-6.54437e+07
-6.47583e+07
-7.04298e+07
-6.43267e+07
-6.79015e+07
-6.59493e+07
-5.74451e+07
-3.58584e+07
-6.4668e+07
-5.51789e+07
-4.19782e+07
-5.67079e+07
-5.26676e+07
-5.91077e+07
-5.69305e+07
-5.62484e+07
-5.60857e+07
-5.55251e+07
-5.06751e+07
-6.036e+07
-5.10658e+07
-5.26928e+07
-5.35261e+07
-4.8874e+07
-5.04271e+07
-4.76214e+07
-4.66585e+07
-6.37993e+07
-6.81574e+07
-7.30704e+07
-6.11367e+07
-5.16721e+07
-6.15047e+07
-5.92407e+07
-6.0551e+07
5.27414e+07
-6.87212e+07
-4.20777e+07
-4.06688e+07
-3.82062e+07
-4.51815e+07
-3.78122e+07
-2.92624e+07
-5.27485e+07
-3.52433e+07
-5.15405e+07
-3.05596e+07
-4.10454e+07
-1.47299e+07
-4.05125e+07
1.08863e+08
1.06254e+08
2.73499e+06
5.57133e+07
-1.06878e+06
-6.78231e+07
-1.85383e+07
-8.44523e+07
2.06301e+07
-3.04456e+07
-1.19817e+07
-5.66411e+07
-2.51579e+08
-1.02214e+08
1.5711e+08
-1.38295e+08
-2.58679e+08
9.14452e+07
-1.80206e+08
-1.52512e+08
-1.00943e+08
1.41518e+07
-1.19894e+08
-1.45331e+08
-3.62115e+08
-1.21158e+08
-2.61415e+08
5.33988e+08
-5.56175e+08
-3.85641e+08
-4.85169e+08
-2.50465e+08
-2.18064e+08
-1.75703e+08
-1.13467e+08
-1.33383e+08
-1.43943e+08
-1.72203e+08
-1.68531e+08
-1.4247e+08
-1.86424e+08
-1.78174e+08
-7.06063e+07
-2.36574e+08
-1.90423e+08
-1.80852e+08
-2.01783e+08
-1.44444e+08
-1.09563e+08
-1.0674e+08
-1.23706e+08
-1.34038e+08
-1.19319e+08
-1.34299e+08
-2.82136e+07
-3.53759e+08
-1.41431e+08
4.01966e+08
-3.65678e+08
1.00433e+09
1.37792e+09
-8.56441e+08
-9.44457e+07
-9.37477e+07
-6.63792e+07
-1.28016e+08
-8.71136e+07
-1.14095e+08
-1.1636e+08
-6.77802e+07
-6.59078e+07
-7.68116e+07
-8.63711e+07
-6.54947e+07
-7.76377e+07
-6.38881e+07
-7.89454e+07
-7.69587e+07
-1.02584e+08
-7.48301e+07
-7.26521e+07
-6.89153e+07
-7.96915e+07
-8.56602e+07
-9.24942e+07
-4.82528e+07
-8.78868e+07
-6.9967e+07
-8.76751e+07
-9.16878e+07
-625725
3.82294e+07
2.1895e+07
-1.288e+07
-6.37754e+06
2.71853e+07
-8.65548e+06
-2.41835e+07
-1.04607e+07
3.34378e+06
-2.3794e+07
-1.76337e+07
-4.50781e+06
-2.97015e+07
1.14462e+08
3.47928e+07
1.55259e+08
1.1861e+08
1.81552e+07
4.10426e+07
5.61108e+07
5.30161e+06
1.22767e+08
7.66379e+07
8.53359e+07
1.48826e+07
7.49021e+06
-6.11421e+07
-3.98368e+07
-1.06114e+07
3.36746e+07
-2.77496e+06
4.76807e+07
-3.90896e+07
7.10031e+07
1.36109e+08
2.46962e+07
-1.00509e+08
6.29326e+07
-5.82674e+07
5.73901e+07
4.85818e+07
2.39251e+07
3.16549e+06
-2.84946e+06
1.81767e+07
-4.02931e+07
4.70043e+06
-2.84444e+07
-5.15137e+06
4.33009e+07
5.00518e+07
3.19788e+07
-2.17387e+07
-7.36538e+07
-6.83289e+07
-7.58208e+07
-7.42364e+07
-7.52469e+07
-7.11972e+07
-7.30597e+07
-7.07825e+07
-7.15985e+07
-6.96644e+07
-7.34027e+07
-7.08604e+07
-7.13774e+07
-7.19198e+07
-6.86913e+07
-6.61493e+07
-6.76893e+07
-6.84774e+07
-6.86693e+07
-6.89657e+07
-6.75453e+07
-7.43653e+07
-7.71408e+07
-7.60257e+07
-7.47439e+07
-7.51996e+07
-7.33732e+07
-7.50273e+07
-9.25516e+07
-8.26968e+07
-9.16071e+07
-8.89422e+07
-9.15028e+07
-9.92103e+07
-9.03973e+07
-1.32218e+08
-1.36058e+08
-1.21978e+08
-1.54653e+08
-1.25267e+08
-1.2262e+08
-1.4007e+08
-1.05515e+08
-8.75177e+07
-1.17727e+08
-1.01927e+08
-1.01191e+08
-1.09622e+08
-1.00424e+08
-1.15156e+08
-9.15767e+07
-1.08591e+08
-1.16593e+08
-1.09811e+08
-1.02061e+08
-1.1759e+08
-7.47607e+07
-6.58704e+07
-7.31426e+07
-7.5287e+07
-6.39874e+07
-7.36216e+07
-7.49427e+07
-6.46327e+07
-6.9785e+07
-6.95656e+07
-8.93737e+07
-6.87231e+07
-6.41475e+07
-7.425e+07
-6.56861e+07
-6.49159e+07
-6.58768e+07
-6.73973e+07
-6.85699e+07
-6.6046e+07
-6.56561e+07
-7.98596e+07
-7.64473e+07
-6.40272e+07
-7.57189e+07
-8.15921e+07
-6.34667e+07
-7.81997e+07
-6.45858e+07
-6.47578e+07
-4.56227e+07
-3.84252e+07
-2.07353e+07
-3.94864e+07
-3.58825e+07
-3.34173e+07
-2.53709e+07
-5.21686e+07
-4.35776e+07
-4.21924e+07
-4.27737e+07
-3.95624e+07
-5.53499e+07
-3.48522e+07
-8.67866e+07
-8.07889e+07
-8.60268e+07
-7.99677e+07
-8.18039e+07
-5.40105e+07
-8.33057e+07
-5.42087e+07
-8.8506e+07
-9.22637e+07
-9.00391e+07
-9.1724e+07
-7.89613e+07
-5.30447e+07
-7.44364e+07
-5.51954e+07
-6.86852e+07
-7.07871e+07
-6.94242e+07
-6.14097e+07
-6.21327e+07
-7.05472e+07
-5.83567e+07
-6.50632e+07
-7.18192e+07
-6.38602e+07
-5.18376e+07
-4.99869e+07
-5.76149e+07
-5.48976e+07
-6.03514e+07
-5.95111e+07
-6.43749e+07
-7.41653e+07
-6.66346e+07
-7.5524e+07
-5.38827e+07
-4.12125e+07
-4.59898e+07
-4.55194e+07
-5.9779e+07
-4.58302e+07
-4.85736e+07
-5.28761e+07
-6.22505e+07
-5.15029e+07
-6.96464e+07
-4.76297e+07
-9.3706e+07
-4.92351e+07
-8.70171e+07
-1.20274e+08
-9.00135e+07
-9.61516e+07
-4.87766e+07
-7.96498e+07
-8.58376e+07
-1.02944e+08
-8.87522e+07
-8.40329e+07
-7.35728e+07
-5.30345e+07
-7.61968e+07
-8.0158e+07
-5.21515e+07
-7.60558e+07
-9.64058e+07
-9.38e+07
-7.87006e+07
-7.74676e+07
-1.00386e+08
-7.77615e+07
-9.06573e+07
-9.25249e+07
-7.61434e+07
-8.59334e+07
-7.65411e+07
-8.96108e+07
-7.62701e+07
-8.7971e+07
-6.98718e+07
-7.50442e+07
-7.55294e+07
-7.36881e+07
-7.27513e+07
-7.57201e+07
-7.22401e+07
-7.99473e+07
-7.31182e+07
-7.46309e+07
-6.96895e+07
-6.85899e+07
-7.16664e+07
-6.6714e+07
-7.09698e+07
-6.33862e+07
-6.93138e+07
-5.60064e+07
-5.46366e+07
-6.33722e+07
-6.62235e+07
-4.87689e+07
-6.4877e+07
-5.78286e+07
-8.65902e+07
-7.22556e+07
-7.11836e+07
-5.6187e+07
-6.70194e+07
-6.72201e+07
-6.37246e+07
-6.51675e+07
-6.3044e+07
-6.10417e+07
-7.50314e+07
-6.68472e+07
-7.44155e+07
-7.86238e+07
-7.54381e+07
-7.49447e+07
-6.53203e+07
-7.36813e+07
-7.34741e+07
-7.50776e+07
-5.95908e+07
-7.38468e+07
-8.5273e+07
-7.57832e+07
-7.73958e+07
-6.08959e+07
-7.30658e+07
-7.4329e+07
-1.05563e+08
-1.04355e+08
-1.0051e+08
-8.68586e+07
-7.96633e+07
-9.2364e+07
-8.83104e+07
-9.49689e+07
-9.76729e+07
-1.0371e+08
-9.82509e+07
-9.12013e+07
-8.13523e+07
-8.94782e+07
-1.04657e+08
-9.69415e+07
-8.52043e+07
-9.54587e+07
-9.68544e+07
-8.39946e+07
-6.33022e+07
-1.72778e+06
-6.45106e+07
-482246
-8.60926e+07
-9.83779e+07
-9.78642e+07
-8.69184e+07
-6.24287e+07
763796
-6.17102e+07
355466
-1.07633e+08
-1.08516e+08
-1.09748e+08
-9.50623e+07
-8.5665e+07
-1.02529e+08
-9.36813e+07
-1.0247e+08
-1.08714e+08
-1.07952e+08
-9.97244e+07
-9.23575e+07
-8.48414e+07
-9.39522e+07
-1.06528e+08
-1.01504e+08
-8.12157e+07
-9.41355e+07
-9.25972e+07
-8.31792e+07
-5.84427e+07
580048
-5.79287e+07
842123
-8.0414e+07
-8.83058e+07
-9.04335e+07
-7.83682e+07
-5.98426e+07
950300
-6.07629e+07
1.20949e+06
-1.01286e+08
-9.958e+07
-8.35273e+07
-6.94604e+07
-8.41222e+07
-8.36705e+07
-8.54217e+07
-8.65354e+07
-8.51778e+07
-6.98899e+07
-8.54414e+07
-8.58972e+07
-4.36109e+06
2.70433e+07
-2.43781e+06
2.47849e+07
-6.2457e+06
1.51651e+07
-1.14334e+07
1.95711e+07
-1.0191e+08
-1.02759e+08
-8.57652e+07
-7.03985e+07
-8.52167e+07
-8.65457e+07
-8.53102e+07
-8.61437e+07
-8.63616e+07
-6.98127e+07
-8.5843e+07
-8.63171e+07
-2.42146e+07
-1.06218e+07
-2.97799e+07
-7.12385e+06
-2.11422e+07
6.62071e+06
-1.46386e+07
1.7814e+06
-8.13705e+07
-8.31031e+07
-6.80177e+07
-8.0968e+07
-8.13398e+07
-3.68363e+07
-1.82321e+07
-3.20412e+07
-2.10041e+07
-9.40207e+07
-8.39481e+07
-9.04653e+07
-7.49307e+07
-9.59753e+07
-8.24213e+07
-8.87267e+07
-5.62148e+07
-218.686
-5.69745e+07
-132010
-7.52847e+07
-8.71559e+07
-7.76405e+07
-8.5182e+07
-5.44599e+07
-1.01089e+06
-5.72516e+08
-4.05915e+08
-2.45697e+08
-3.76011e+08
3.86315e+08
9.40413e+08
-8.79051e+08
-7.06939e+07
-6.30775e+07
-4.18328e+07
-5.15403e+07
7.99853e+07
-1.20466e+08
-7.22946e+07
-2.62313e+06
-5.8809e+08
9.4075e+08
-2.68288e+08
-2.02809e+08
-7.54951e+06
3.50618e+07
3.26933e+07
1.54915e+07
2.32752e+07
-3.75532e+07
-2.36736e+07
1.22765e+06
-8.85586e+06
-8.47662e+07
-8.33045e+07
-8.76424e+07
-9.37327e+07
-5.43722e+07
-6.97025e+07
-8.79994e+07
-7.8441e+07
-7.13262e+07
-8.22064e+07
-7.28489e+07
-7.73662e+07
-7.11018e+07
-7.33498e+07
-8.1537e+07
-7.37417e+07
-8.1945e+07
-7.51594e+07
-7.97466e+07
-7.34621e+07
-7.47361e+07
-8.25587e+07
-5.87082e+07
-7.30639e+07
-3.57292e+07
-5.98435e+07
-5.69811e+07
-7.873e+07
-3.64839e+07
-7.45259e+07
-7.68742e+07
-7.8991e+07
-7.52903e+07
-7.45554e+07
-7.73697e+07
-7.53801e+07
-7.34017e+07
-7.22134e+07
-7.32116e+07
-7.49683e+07
-7.25292e+07
-7.54503e+07
-7.32006e+07
-7.14731e+07
-7.46522e+07
-6.99786e+07
-7.29905e+07
-7.09913e+07
-7.02452e+07
-7.5591e+07
-7.58382e+07
-7.84078e+07
-7.61277e+07
-7.61087e+07
-7.68967e+07
-7.64833e+07
-7.53479e+07
-7.68799e+07
-8.06223e+07
-8.01045e+07
-7.7164e+07
-7.96281e+07
-7.72744e+07
-7.68118e+07
-7.82577e+07
-7.74197e+07
-8.05674e+07
-7.37465e+07
-7.85242e+07
-7.56825e+07
-7.74482e+07
-7.81452e+07
-8.09312e+07
-8.04639e+07
-7.7848e+07
-7.8385e+07
-7.88603e+07
-7.80444e+07
-7.72052e+07
-7.93769e+07
-7.6336e+07
-7.68673e+07
-7.72168e+07
-7.73274e+07
-7.67461e+07
-8.36207e+07
-8.39206e+07
-8.60911e+07
-8.14343e+07
-8.51688e+07
-8.21789e+07
-8.75121e+07
-7.93016e+07
-6.62715e+07
-7.70003e+07
-6.96963e+07
-7.66514e+07
-7.98082e+07
-6.87134e+07
-8.15558e+07
-8.4466e+07
-8.26653e+07
-8.14518e+07
-7.97814e+07
-8.40942e+07
-8.28968e+07
-7.53997e+07
-8.41701e+07
-4.92697e+07
-3.88956e+07
-6.63336e+07
-7.10562e+07
-7.04144e+07
-6.76304e+07
-6.81349e+07
-6.71904e+07
-6.83215e+07
-6.86276e+07
-7.64358e+07
-6.9993e+07
-7.01324e+07
-7.41657e+07
-7.25711e+07
-6.52201e+07
-8.21722e+07
-8.27421e+07
-7.76012e+07
-8.33176e+07
-8.30352e+07
-7.74041e+07
-7.84964e+07
-7.81944e+07
-8.49725e+07
-7.2077e+07
-7.91125e+07
-7.97648e+07
-7.69849e+07
-7.51116e+07
-7.75325e+07
-7.2813e+07
-7.43251e+07
-7.70506e+07
-7.27547e+07
-7.45285e+07
-7.95881e+07
-7.2027e+07
-7.13133e+07
-7.9112e+07
-7.64281e+07
-7.27955e+07
-7.66364e+07
-6.55424e+07
-7.9931e+07
-7.58505e+07
-7.58649e+07
-6.76072e+07
-7.6313e+07
-7.30843e+07
-7.34557e+07
-7.47946e+07
-7.37913e+07
-7.30319e+07
-7.38797e+07
-7.36936e+07
-7.40491e+07
-7.25096e+07
-7.49598e+07
-7.5935e+07
-7.41309e+07
-7.47305e+07
-7.16205e+07
-7.56486e+07
-7.94593e+07
-7.44105e+07
-7.6475e+07
-7.60971e+07
-7.26964e+07
-7.59736e+07
-7.58525e+07
-7.80042e+07
-7.60906e+07
-7.60489e+07
-7.5277e+07
-7.29859e+07
-7.61275e+07
-6.79121e+07
-4.20218e+07
-5.76264e+07
-7.44936e+07
-5.1315e+07
-6.74987e+07
-7.07392e+07
-7.15309e+07
-7.70163e+07
-6.6465e+07
-7.16005e+07
-6.89822e+07
-7.13382e+07
-7.28271e+07
-7.51894e+07
-7.92115e+07
-8.07793e+07
-7.79056e+07
-7.68337e+07
-7.38666e+07
-7.85994e+07
-7.62424e+07
-7.63635e+07
-7.39144e+07
-7.17634e+07
-7.6657e+07
-7.58885e+07
-7.51011e+07
-7.7539e+07
-8.10832e+07
-7.68236e+07
-7.74152e+07
-7.67836e+07
-7.84239e+07
-7.80516e+07
-7.60472e+07
-7.83838e+07
-7.07869e+07
-7.56645e+07
-7.53393e+07
-7.54993e+07
-7.57023e+07
-2.46169e+08
-3.23504e+08
-3.17035e+08
-3.16591e+08
-3.80281e+08
-3.405e+08
-2.15956e+08
-2.42349e+08
-3.08674e+08
-3.19536e+08
-2.45241e+08
-4.36056e+08
-1.86202e+08
-2.70044e+08
-1.16508e+08
-2.92298e+08
-3.60039e+08
1.82361e+08
-3.40785e+08
-3.45156e+08
-3.70767e+08
-2.77097e+08
-3.07186e+08
-2.88955e+08
-2.48917e+08
-3.39554e+08
-2.33645e+08
-2.64336e+08
-2.2236e+08
-2.52918e+08
-2.12333e+08
-2.72144e+08
-1.76755e+08
-2.64534e+08
-2.16992e+08
-1.65469e+08
-3.1393e+07
-2.6144e+08
-1.781e+08
-8.89342e+07
-1.90104e+08
-6.01588e+07
-2.03203e+08
-1.55559e+08
-1.70828e+08
-1.88172e+08