/*--------------------------------*- C++ -*----------------------------------*\
| =========                 |                                                 |
| \\      /  F ield         | OpenFOAM: The Open Source CFD Toolbox           |
|  \\    /   O peration     | Version:  2012                                  |
|   \\  /    A nd           | Website:  www.openfoam.com                      |
|    \\/     M anipulation  |                                                 |
\*---------------------------------------------------------------------------*/
FoamFile
{
    version     2.0;
    format      ascii;
    class       volScalarField;
    location    "0.108/solid";
    object      sigmaMax;
}
// * * * * * * * * * * * * * * * * * * * * * * * * * * * * * * * * * * * * * //

dimensions      [1 -1 -2 0 0 0 0];


internalField   nonuniform List<scalar> 
3124
(
8.8181e+07
5.6238e+07
1.51981e+08
1.03278e+08
3.98826e+07
5.76487e+07
1.58929e+08
1.01266e+08
3.6318e+07
4.98588e+07
4.89967e+08
1.03861e+08
1.35022e+08
1.40933e+08
6.0835e+07
1.26332e+08
6.17424e+08
1.54024e+08
1.29795e+08
7.27582e+07
1.35294e+08
1.45313e+08
1.4305e+08
3.37055e+07
5.59633e+07
2.39561e+08
1.27509e+08
1.7161e+08
9.60524e+07
7.62227e+07
1.98335e+08
1.43123e+08
1.51566e+08
1.2887e+08
1.42606e+08
5.76406e+07
1.03735e+08
1.31366e+08
6.95582e+07
1.38518e+08
2.71358e+08
1.19303e+08
7.14823e+07
8.71895e+07
1.22775e+08
2.31571e+08
1.99197e+08
2.12811e+08
1.17473e+08
9.59608e+07
1.39302e+08
5.56282e+07
1.31383e+08
6.96318e+07
1.28389e+08
7.68765e+07
1.73144e+08
1.6601e+08
1.47912e+08
3.43174e+07
1.07731e+08
8.56044e+07
6.56727e+07
2.98061e+08
2.99265e+08
1.12752e+06
1.14405e+08
1.01567e+06
1.39242e+08
1.13462e+08
7.22623e+07
1.555e+08
7.62277e+07
7.85821e+07
6.74484e+07
5.58442e+07
1.10182e+08
2.19043e+08
9.93599e+07
1.04258e+08
6.74359e+07
2.21006e+08
1.56483e+08
1.40957e+08
1.30937e+08
1.50356e+08
1.28998e+08
1.52316e+08
1.47292e+08
1.38325e+08
8.98564e+06
3.32971e+07
1.26847e+08
1.01228e+08
7.16095e+07
1.29073e+08
4.05318e+07
1.33334e+08
3.111e+08
2.92129e+08
7.20901e+07
1.15931e+08
1.21765e+08
8.35637e+07
1.1671e+08
1.15547e+08
1.33906e+08
1.18783e+08
8.46029e+07
3.34702e+08
1.20231e+08
2.28828e+08
3.00155e+08
2.79655e+08
2.14044e+08
1.36367e+08
1.17758e+08
7.86388e+07
1.1038e+08
7.81283e+07
8.65373e+07
8.3279e+07
1.08241e+08
1.46911e+08
1.35395e+08
1.16937e+07
6.92364e+07
8.93799e+07
8.95759e+07
1.12831e+08
1.3156e+08
9.76886e+07
1.67106e+08
1.63032e+08
1.33413e+08
1.4656e+08
1.44549e+08
1.30729e+08
1.43098e+08
5.20558e+07
6.36042e+07
8.94078e+07
1.92657e+08
1.53747e+08
1.63854e+08
7.85271e+07
9.71668e+07
5.91672e+07
8.57361e+07
1.03694e+08
2.42707e+08
2.0865e+08
3.19329e+08
4.39373e+07
7.85235e+07
3.80497e+07
8.46247e+07
7.23776e+07
9.88362e+07
6.62891e+07
3.76512e+07
1.90039e+08
3.18452e+08
5.0417e+08
4.13055e+08
6.49896e+08
4.09249e+08
3.13871e+08
1.20106e+08
1.33748e+08
1.26378e+08
1.4148e+08
1.21689e+08
1.57711e+08
1.2896e+08
1.38597e+08
1.26001e+08
1.21314e+08
3.44534e+08
5.64486e+08
7.58367e+08
1.22089e+08
6.76765e+07
1.00007e+08
8.38875e+07
1.06412e+08
1.09964e+08
1.01075e+08
1.09724e+08
1.32065e+08
1.2201e+08
1.25843e+08
1.2185e+08
1.21959e+08
1.20882e+08
1.82975e+08
1.29567e+08
1.65914e+08
1.7232e+08
1.35368e+08
1.22891e+08
2.00467e+08
1.2277e+08
1.34291e+08
1.294e+08
1.41672e+08
1.28188e+08
1.41138e+08
1.35725e+08
1.25129e+08
1.5376e+08
1.51242e+08
1.29288e+08
1.40175e+08
1.03336e+08
8.1917e+07
1.24006e+08
8.52111e+07
8.59803e+07
1.03772e+08
9.38596e+07
1.03516e+08
1.27719e+08
7.75594e+07
1.20456e+08
8.58134e+07
1.2315e+08
9.90576e+07
8.41109e+07
1.32357e+08
1.76141e+08
1.15762e+08
1.53262e+08
1.30609e+08
1.55597e+08
1.73071e+08
1.00366e+08
1.1158e+08
1.2441e+08
1.33341e+08
1.11461e+08
1.33416e+08
1.35684e+08
1.13022e+08
1.22207e+08
1.25097e+08
1.3483e+08
1.37583e+08
1.11376e+08
1.2339e+08
1.38479e+08
1.1316e+08
1.47023e+08
1.25628e+08
6.22297e+07
1.15322e+08
1.08232e+08
1.17654e+08
1.0619e+08
2.00315e+08
1.11485e+08
9.25758e+07
1.04605e+08
1.05947e+08
1.08835e+08
1.16741e+08
1.20153e+08
1.23811e+08
1.18037e+08
1.2e+08
1.0927e+08
1.18399e+08
2.93921e+08
5.14616e+08
3.74017e+08
1.41666e+08
2.33442e+08
2.18498e+08
3.66122e+08
2.40094e+08
2.57226e+08
1.11667e+08
1.15277e+08
9.6097e+07
1.20178e+08
1.04259e+08
1.23878e+08
9.9299e+07
1.15629e+08
1.1781e+08
1.34897e+08
1.08494e+08
1.21292e+08
1.30255e+08
1.03919e+08
5.99326e+07
1.77072e+08
1.71368e+08
1.57577e+08
1.55457e+08
5.39029e+07
6.11914e+07
4.73555e+07
3.31064e+07
5.01509e+07
4.59163e+07
7.24876e+07
4.9235e+07
4.85456e+07
8.52522e+07
1.02031e+08
1.09741e+08
9.8882e+07
9.63015e+07
1.02698e+08
8.84294e+07
5.64431e+07
1.17295e+08
6.51847e+07
8.91635e+07
6.25884e+07
9.78811e+07
7.04014e+07
4.53012e+07
6.19537e+07
9.54193e+07
-5.64937e+07
1.55692e+08
3.29114e+08
3.02465e+08
6.65197e+08
2.15564e+08
2.74654e+08
-5.51646e+07
2.54083e+08
1.95109e+08
3.80697e+08
1.04209e+08
2.20854e+08
1.36439e+08
3.99291e+08
2.74835e+08
1.42427e+07
1.09303e+09
2.46254e+08
1.21345e+08
1.40329e+08
1.52322e+08
1.33482e+08
1.84021e+08
1.09634e+08
1.79828e+08
8.65739e+07
6.04941e+07
3.08732e+07
8.67655e+07
8.62406e+07
6.16045e+07
9.14678e+07
8.83843e+07
4.78894e+07
8.16314e+07
9.84861e+07
7.01759e+07
1.00238e+08
9.10551e+07
-6.42019e+07
-3.2243e+07
4.79952e+07
6.57843e+07
3.18647e+07
-4.69175e+06
2.68306e+07
1.58308e+07
4.57806e+07
-7.19526e+06
1.09657e+08
1.1599e+08
1.09903e+08
1.02209e+08
9.25285e+07
1.18491e+08
1.11237e+08
1.19008e+08
1.80667e+08
2.08951e+08
1.57258e+08
1.32801e+08
1.48576e+08
1.38212e+08
1.05524e+08
1.28329e+08
9.69534e+07
1.15317e+08
8.78035e+07
1.10265e+08
1.09087e+08
5.49013e+07
7.55375e+07
8.09477e+07
9.0412e+07
7.50951e+07
9.44319e+07
8.55517e+07
5.74832e+07
7.49551e+07
6.03434e+07
8.3067e+07
1.87995e+08
7.7485e+07
1.81732e+08
8.89287e+07
8.62134e+07
1.39069e+08
1.26745e+08
1.21184e+08
1.21215e+08
1.33126e+08
1.10511e+08
1.0171e+08
1.3454e+08
1.07427e+08
1.13831e+08
1.31957e+08
1.06853e+08
9.71415e+07
1.34779e+08
1.02554e+08
1.32526e+08
1.37246e+08
1.14129e+08
1.45858e+08
1.13626e+08
1.39988e+08
1.39389e+08
1.10905e+08
1.43084e+08
1.1156e+08
9.60008e+07
9.56459e+07
8.31988e+07
1.51865e+07
8.83679e+07
9.20618e+07
9.58671e+07
9.13033e+07
2.42609e+07
8.97592e+07
1.08488e+08
1.27287e+08
1.19031e+08
9.4634e+07
9.12179e+07
1.28202e+08
1.05167e+08
3.23102e+08
-3.5996e+07
4.0539e+08
3.18142e+08
1.2426e+08
7.12586e+07
1.15482e+08
1.08338e+08
1.19286e+08
1.14869e+08
1.01818e+08
1.21999e+08
1.13555e+08
1.13638e+08
1.21656e+08
1.08904e+08
1.22366e+08
1.21338e+08
1.23644e+08
1.1749e+08
1.24124e+08
1.22794e+08
1.22563e+08
1.23475e+08
1.2418e+08
9.50906e+07
1.06133e+08
1.03945e+08
1.15316e+08
1.10935e+08
1.11191e+08
1.11176e+08
1.09363e+08
1.12322e+08
1.08292e+08
1.17234e+08
1.16686e+08
1.13309e+08
1.21066e+08
1.20315e+08
1.21768e+08
1.19834e+08
1.22667e+08
1.31051e+08
6.9799e+07
1.19188e+08
1.1345e+08
1.31896e+08
1.23365e+08
1.20995e+08
1.08582e+08
1.23339e+08
1.18679e+08
1.23131e+08
1.10864e+08
1.25031e+08
3.87635e+08
5.00597e+08
4.71057e+08
4.24939e+08
4.64985e+08
3.68593e+08
3.26135e+08
2.88112e+08
2.62964e+08
4.22409e+08
6.84219e+07
2.80382e+08
9.0932e+07
2.92856e+08
1.00956e+08
9.53404e+07
1.99125e+08
2.12113e+08
2.79007e+08
2.73343e+08
6.95706e+07
2.79982e+08
2.2353e+08
1.87143e+08
1.61185e+08
1.52489e+08
1.90324e+08
1.68985e+08
2.62073e+08
8.81771e+07
2.26987e+08
1.95932e+08
1.15086e+08
1.41615e+08
8.18221e+07
1.40747e+08
1.31959e+08
9.90787e+07
1.39059e+08
1.34717e+08
1.52751e+08
1.53146e+08
1.36303e+08
1.30659e+08
1.33636e+08
8.40769e+07
1.36254e+08
9.35451e+07
1.11845e+08
9.88327e+07
1.09856e+08
9.81368e+07
1.01064e+08
1.08633e+08
9.1978e+07
1.0864e+08
9.17434e+07
1.05322e+08
9.30842e+07
9.86589e+07
1.00892e+08
1.23717e+08
1.29743e+08
1.12552e+08
1.44064e+08
1.12807e+08
1.38606e+08
1.33655e+08
1.07021e+08
1.41113e+08
1.08287e+08
1.00385e+08
9.07159e+07
8.18729e+07
2.62791e+07
7.904e+07
9.20388e+07
9.00212e+07
9.31668e+07
4.70015e+07
7.936e+07
1.02237e+08
1.03951e+08
7.98098e+07
1.01426e+08
9.66691e+07
6.82281e+07
9.51094e+07
9.64113e+07
1.01327e+08
1.0139e+08
1.17397e+08
1.09887e+08
8.93179e+07
1.20767e+08
9.04075e+07
1.02068e+08
1.01279e+08
9.97309e+07
1.25176e+08
9.76294e+07
1.1321e+08
1.60774e+08
1.54108e+08
1.54619e+08
1.43981e+08
1.25838e+08
1.39035e+08
1.38542e+08
1.52901e+08
1.41271e+08
1.42562e+08
1.32537e+08
1.1801e+08
1.35761e+08
1.24897e+08
1.37693e+08
1.31372e+08
1.27118e+08
9.25857e+07
5.80015e+07
7.84398e+07
8.91131e+07
1.00408e+08
7.98315e+07
8.9269e+07
9.75967e+07
5.86112e+07
8.06974e+07
8.90067e+07
9.77867e+07
8.13406e+07
8.50759e+07
6.0057e+08
6.48894e+08
6.36992e+08
5.09287e+08
4.579e+08
7.23697e+08
5.49827e+08
7.96962e+07
3.58119e+06
2.19205e+07
5.2851e+07
7.13454e+07
4.48986e+07
7.86408e+07
1.5057e+08
1.92723e+08
1.43272e+08
1.7641e+08
2.49842e+08
1.86093e+08
1.38524e+08
9.62635e+07
1.88101e+08
1.02282e+08
1.60132e+08
1.07556e+08
1.05495e+08
1.30266e+08
1.30512e+08
1.1331e+08
1.21596e+08
1.23321e+08
1.14079e+08
1.2862e+08
1.33393e+08
1.34622e+08
1.25434e+08
1.1482e+08
1.31888e+08
1.25261e+08
1.14715e+08
2.43358e+08
3.11774e+08
9.90823e+07
9.41649e+07
8.68306e+07
9.27357e+07
9.37967e+07
9.42184e+07
2.11591e+08
8.74399e+07
4.1579e+07
2.46509e+08
7.62182e+07
1.10851e+08
1.15264e+08
1.08525e+08
1.11178e+08
1.09479e+08
1.0954e+08
1.05839e+08
1.27683e+08
1.25513e+08
1.22154e+08
1.11474e+08
1.2968e+08
1.2251e+08
1.11662e+08
1.51251e+08
1.48936e+08
1.52057e+08
1.30817e+08
8.34598e+07
5.33529e+07
4.24568e+07
7.33027e+07
1.74253e+07
2.03182e+07
6.4961e+07
7.12505e+07
2.95414e+06
5.56363e+07
9.25539e+07
6.64665e+07
7.31357e+07
8.71613e+07
6.72567e+07
8.49875e+07
9.0313e+07
-1.81925e+07
1.69192e+07
5.93455e+07
4.37764e+07
1.09644e+08
1.21979e+08
1.11009e+08
1.10581e+08
1.76624e+08
2.07071e+08
1.64652e+08
1.65311e+08
1.32675e+08
1.3809e+08
1.2663e+08
1.30917e+08
1.229e+08
1.10385e+08
1.42976e+08
1.12986e+08
1.25218e+08
1.28867e+08
1.2413e+08
1.32401e+08
1.44932e+08
1.28898e+08
1.2863e+08
1.31057e+08
1.35726e+08
1.38408e+08
1.19986e+08
1.22779e+08
1.23466e+08
1.24935e+08
1.23919e+08
1.10639e+08
1.24126e+08
1.18878e+08
1.25581e+08
1.09977e+08
1.1756e+08
1.19372e+08
1.15858e+08
1.26413e+08
1.23586e+08
9.91556e+07
9.4275e+07
8.81878e+07
9.54036e+07
9.38266e+07
1.21698e+08
1.01352e+08
4.5911e+08
4.05598e+08
2.98354e+08
3.35687e+08
3.74993e+08
3.34853e+08
4.28339e+08
1.54193e+07
1.91675e+08
1.60984e+08
1.80796e+08
2.46973e+08
1.97163e+08
3.21661e+08
2.45309e+08
2.49946e+08
2.05308e+08
1.97043e+08
1.92287e+08
1.07592e+08
1.17231e+08
1.09404e+08
1.10836e+08
1.05085e+08
1.10772e+08
1.12876e+08
9.7849e+07
9.66518e+07
8.61512e+07
9.56742e+07
9.89228e+07
9.04892e+07
9.81942e+07
1.21096e+08
1.22197e+08
1.36519e+08
1.31796e+08
1.14655e+08
1.12906e+08
1.22465e+08
1.18627e+08
1.15429e+08
1.14716e+08
7.25512e+07
8.76552e+07
1.22789e+08
1.23016e+08
1.11489e+08
1.15618e+08
1.30277e+08
1.34873e+08
1.34154e+08
1.50034e+08
1.45027e+08
1.48231e+08
1.45733e+08
1.4129e+08
1.42382e+08
1.27339e+08
1.32121e+08
1.2915e+08
1.41372e+08
1.39967e+08
1.38336e+08
5.34672e+07
8.75597e+07
8.78375e+07
8.42905e+07
8.6947e+07
8.63856e+07
9.05719e+07
8.99176e+07
2.36891e+08
2.3213e+08
2.0019e+08
1.81567e+08
2.47999e+08
1.90144e+08
2.21982e+08
2.28007e+08
1.69303e+08
1.72596e+08
2.04896e+08
1.78407e+08
2.17453e+08
2.13162e+08
1.152e+08
1.39011e+08
2.40974e+08
1.45033e+08
1.20007e+08
1.7153e+08
1.29197e+08
9.85116e+07
8.56831e+07
8.62235e+07
9.387e+07
8.51946e+07
8.78724e+07
1.10353e+08
9.52123e+07
1.09696e+08
9.85818e+07
9.32675e+07
9.77215e+07
9.61345e+07
9.27477e+07
8.65436e+07
1.44684e+08
9.69849e+07
2.92818e+08
2.48571e+08
2.18495e+08
2.33699e+08
2.6428e+08
2.42383e+08
2.74284e+08
3.36715e+08
3.40829e+08
3.66259e+08
2.71788e+08
3.94593e+08
2.85162e+08
3.15262e+08
1.20454e+08
1.05968e+08
1.11562e+08
1.22906e+08
6.48858e+07
8.01393e+07
6.5452e+07
5.57469e+07
5.62576e+07
7.26867e+07
6.45988e+07
5.89918e+07
5.94489e+07
8.11876e+07
5.85954e+07
6.5709e+07
6.68932e+07
5.24758e+07
7.79378e+07
9.03207e+07
8.99364e+07
8.88357e+07
8.46e+07
8.51469e+07
7.72207e+07
4.85853e+07
3.92152e+07
4.16755e+07
4.46309e+07
4.24535e+07
5.17765e+07
4.50813e+07
3.38344e+08
4.96734e+08
1.28248e+08
2.77909e+08
3.11691e+08
2.31703e+08
3.00351e+08
1.30544e+08
1.20759e+08
1.36766e+08
1.24812e+08
1.32959e+08
1.25802e+08
1.28576e+08
1.35458e+08
1.32933e+08
1.32037e+08
1.40296e+08
1.33572e+08
1.33281e+08
1.36712e+08
1.26917e+08
1.2226e+08
1.28043e+08
1.24436e+08
1.26918e+08
1.31438e+08
1.23774e+08
1.4305e+08
1.45132e+08
1.48768e+08
1.30939e+08
1.4057e+08
1.40895e+08
1.44251e+08
1.33549e+08
1.33676e+08
1.25407e+08
1.23606e+08
1.33672e+08
1.22694e+08
1.33178e+08
1.34918e+08
1.20354e+08
1.35842e+08
1.22066e+08
1.37439e+08
1.21459e+08
1.3401e+08
1.0729e+08
1.18398e+08
1.1352e+08
1.17398e+08
1.09282e+08
1.11213e+08
1.13075e+08
7.99365e+07
6.62934e+07
9.25173e+07
9.35101e+07
7.4876e+07
1.02253e+08
7.14041e+07
1.00569e+08
1.13636e+08
1.00292e+08
9.83211e+07
9.5536e+07
1.04486e+08
1.07113e+08
8.55073e+07
1.10729e+08
7.72876e+07
1.00285e+08
8.78043e+07
1.0887e+08
7.52304e+07
1.19379e+08
1.09134e+08
1.19505e+08
1.20331e+08
1.19844e+08
1.18929e+08
1.21548e+08
1.2462e+08
1.2574e+08
1.29092e+08
1.21674e+08
1.26811e+08
1.22036e+08
1.22864e+08
1.21602e+08
1.18528e+08
1.25993e+08
1.2165e+08
1.2291e+08
1.22026e+08
1.18889e+08
1.22728e+08
1.24041e+08
1.11673e+08
1.25994e+08
1.21985e+08
1.2018e+08
1.2421e+08
1.59668e+08
1.43918e+08
1.3191e+08
1.29244e+08
1.50448e+08
1.44688e+08
1.51453e+08
1.74145e+08
1.5075e+08
1.44097e+08
1.42966e+08
1.59127e+08
1.7897e+08
1.64101e+08
1.79432e+08
1.83307e+08
1.05687e+08
1.60277e+08
1.60378e+08
1.7399e+08
1.78822e+08
1.28013e+08
1.11156e+08
1.33128e+08
1.31723e+08
1.20341e+08
1.24618e+08
1.34438e+08
1.2695e+08
1.28324e+08
1.14551e+08
1.35103e+08
1.23165e+08
1.24791e+08
1.15768e+08
1.25776e+08
1.2175e+08
9.58978e+07
1.25106e+08
1.2343e+08
9.69836e+07
1.21699e+08
1.32955e+08
1.35893e+08
1.32574e+08
1.37465e+08
1.28915e+08
1.30869e+08
1.40663e+08
1.36441e+08
1.41875e+08
1.40386e+08
1.31109e+08
1.46315e+08
1.44873e+08
1.52143e+08
1.51626e+08
1.37562e+08
1.35294e+08
1.28815e+08
1.32831e+08
1.35296e+08
1.32678e+08
1.37636e+08
1.40182e+08
1.40111e+08
1.43352e+08
1.36476e+08
1.43234e+08
1.36195e+08
1.40323e+08
9.02226e+07
7.19994e+07
9.22332e+07
1.04596e+08
1.00149e+08
7.1233e+07
5.52483e+07
1.0886e+08
1.02048e+08
9.93664e+07
1.10512e+08
1.08527e+08
9.33614e+07
1.1525e+08
8.19931e+07
6.40198e+07
5.42355e+07
1.3997e+08
1.25616e+08
1.35286e+08
3.39927e+07
5.75705e+07
1.86785e+08
1.06067e+08
1.03775e+08
4.53073e+07
1.19655e+08
1.21108e+08
6.57456e+07
1.24095e+08
6.6012e+07
6.38507e+07
1.80351e+08
1.61977e+08
1.30996e+08
1.37477e+08
1.38117e+08
1.68364e+08
1.72259e+08
1.94621e+08
1.59246e+08
1.95347e+08
1.46451e+08
2.07851e+08
1.50026e+08
1.84468e+08
1.62471e+08
1.05232e+08
1.05194e+08
6.01531e+07
7.78158e+07
9.76139e+07
1.02262e+08
9.83913e+07
7.22047e+07
7.35889e+07
6.66715e+07
1.11356e+08
6.92514e+07
1.06356e+08
5.39762e+07
1.07116e+08
7.01193e+07
1.32204e+08
1.32854e+08
1.25384e+08
1.15836e+08
1.3271e+08
1.24401e+08
1.15333e+08
1.34053e+08
1.33567e+08
1.25653e+08
1.15929e+08
1.33741e+08
1.26994e+08
1.16488e+08
5.42122e+08
4.95171e+08
2.77288e+08
4.77598e+08
1.17522e+08
1.24389e+08
1.18159e+08
1.19677e+08
1.19873e+08
1.30498e+08
1.15611e+08
1.05318e+08
1.79826e+08
8.83549e+07
1.18978e+08
1.23697e+08
1.186e+08
9.40539e+07
1.0463e+08
9.8191e+07
1.08725e+08
1.05725e+08
1.02952e+08
1.04677e+08
1.09089e+08
1.01225e+08
7.21593e+07
9.15151e+07
9.83657e+07
9.3661e+07
9.72066e+07
9.85806e+07
9.42457e+07
1.02558e+08
1.00278e+08
1.00703e+08
1.0878e+08
9.99885e+07
1.05135e+08
1.03373e+08
1.04936e+08
1.00006e+08
1.07632e+08
1.08589e+08
9.13815e+07
1.11784e+08
9.35372e+07
1.12885e+08
9.82889e+07
1.17834e+08
1.20933e+08
1.1327e+08
1.13895e+08
1.17536e+08
1.19935e+08
1.1409e+08
1.21092e+08
1.19495e+08
1.22366e+08
1.21632e+08
1.19995e+08
1.20982e+08
1.22822e+08
1.17488e+08
1.1018e+08
1.16587e+08
1.13701e+08
1.15394e+08
1.13765e+08
1.18815e+08
6.12021e+08
5.63229e+08
5.66401e+08
4.87937e+08
5.17733e+08
6.66719e+08
5.45583e+08
5.46558e+08
3.92304e+08
4.30023e+08
4.32109e+08
4.5875e+08
4.58958e+08
4.92416e+08
3.42254e+07
4.86975e+07
1.56666e+08
1.58563e+08
1.72369e+08
6.16059e+07
5.06717e+07
2.14629e+08
9.08531e+07
8.98461e+07
7.28302e+07
2.43051e+08
1.83712e+08
6.79898e+07
2.04125e+08
5.63048e+07
5.42617e+07
1.43845e+08
1.02855e+08
4.53088e+08
3.39377e+08
4.05777e+08
1.056e+08
9.03003e+07
2.61868e+08
9.68851e+07
9.4171e+07
9.053e+07
2.89595e+08
3.01444e+08
7.80714e+07
3.47171e+08
1.06959e+08
9.3382e+07
1.14045e+08
1.13027e+08
1.12077e+08
1.01842e+08
1.15785e+08
1.11747e+08
1.04277e+08
1.23851e+08
1.24792e+08
1.16462e+08
1.06284e+08
1.20239e+08
1.17671e+08
1.06696e+08
1.15025e+08
1.27739e+08
1.36073e+08
1.16507e+08
1.68532e+08
1.71784e+08
1.74951e+08
1.73289e+08
1.62698e+08
1.59653e+08
1.58026e+08
1.59837e+08
1.60419e+08
1.60108e+08
1.62109e+08
1.64487e+08
1.62742e+08
1.64749e+08
1.61358e+08
1.65441e+08
1.61956e+08
1.63834e+08
1.55332e+08
1.53336e+08
1.56255e+08
1.57218e+08
1.58258e+08
1.53819e+08
1.54267e+08
1.49608e+08
1.52558e+08
1.55241e+08
1.58367e+08
1.59429e+08
1.54956e+08
1.10788e+08
9.66967e+07
6.44534e+07
4.80968e+07
5.79591e+07
5.12837e+07
7.28627e+07
5.17482e+07
7.80085e+07
9.02697e+07
1.04411e+08
9.29504e+07
6.62405e+07
7.02368e+07
8.51155e+07
8.87714e+07
5.77295e+07
6.48102e+07
6.76256e+07
3.92176e+07
5.61195e+07
6.64553e+07
6.47301e+07
4.7877e+07
4.29101e+07
4.27084e+07
5.67447e+07
4.35795e+07
4.24761e+07
4.5265e+07
8.99698e+07
8.9798e+07
8.79829e+07
8.2461e+07
8.66847e+07
9.56855e+07
8.69069e+07
1.0482e+08
1.07918e+08
1.04537e+08
1.08308e+08
1.023e+08
1.04353e+08
1.07867e+08
9.78357e+07
9.05766e+07
1.00824e+08
9.43734e+07
9.81586e+07
9.66e+07
9.74975e+07
9.94616e+07
9.56656e+07
1.01219e+08
1.07013e+08
9.76872e+07
1.00877e+08
1.03199e+08
8.03411e+07
7.17852e+07
8.79496e+07
7.82817e+07
7.10253e+07
7.92762e+07
7.58618e+07
8.92127e+07
9.58193e+07
1.07103e+08
9.72406e+07
9.17592e+07
9.45047e+07
9.06133e+07
7.85247e+07
9.29228e+07
8.80739e+07
7.32502e+07
8.19262e+07
8.65817e+07
7.19828e+07
9.05593e+07
9.22801e+07
9.68485e+07
8.79641e+07
7.9003e+07
8.8979e+07
8.46402e+07
8.74595e+07
1.30159e+07
9.57487e+07
7.38286e+07
6.70787e+07
6.90376e+07
7.0118e+07
6.9477e+07
6.81528e+07
9.28563e+07
7.7173e+07
8.81622e+07
5.59621e+07
7.1385e+07
4.42625e+07
7.36569e+07
-7.85423e+07
-9.52986e+06
1.00373e+08
-2.26832e+07
8.59561e+07
1.58334e+08
7.23024e+07
1.97431e+08
5.04924e+07
1.25128e+08
5.77614e+07
1.25854e+08
3.73346e+08
2.34661e+08
2.11392e+08
2.05712e+08
3.84836e+08
3.25084e+08
2.50286e+08
2.78978e+08
2.0901e+08
2.14602e+08
2.45417e+08
3.44213e+08
6.97464e+08
2.18192e+08
4.36279e+08
4.0519e+07
9.13672e+08
1.13127e+09
7.38092e+08
1.00226e+09
4.92637e+08
2.88841e+08
1.72176e+08
2.23523e+08
2.14281e+08
2.74636e+08
2.55662e+08
2.12214e+08
3.24817e+08
2.72603e+08
1.20701e+08
3.95001e+08
3.17545e+08
2.71078e+08
3.63927e+08
2.42565e+08
1.65385e+08
1.68496e+08
1.79192e+08
2.11689e+08
1.81791e+08
2.0133e+08
3.30717e+08
4.75941e+08
2.35843e+08
-1.16661e+08
6.07521e+08
-2.91313e+08
-5.40916e+08
1.5605e+09
1.36693e+08
1.7745e+08
8.87814e+07
1.97078e+08
1.40701e+08
1.67169e+08
1.56517e+08
1.15955e+08
1.1009e+08
1.40667e+08
1.33567e+08
1.1834e+08
1.46489e+08
9.81847e+07
1.40891e+08
1.73346e+08
1.81575e+08
1.5404e+08
1.42448e+08
1.55892e+08
1.50223e+08
1.25466e+08
1.22542e+08
7.03941e+07
1.22665e+08
1.11304e+08
1.22785e+08
1.19993e+08
7.71078e+07
2.12516e+07
2.867e+07
6.68764e+07
7.75603e+07
2.27659e+07
6.47319e+07
8.54749e+07
6.05537e+07
4.55999e+07
7.49783e+07
8.63951e+07
5.15284e+07
7.76024e+07
-8.56941e+07
6.93207e+07
-6.6849e+07
-8.43167e+07
7.2428e+07
1.06646e+07
-1.33883e+06
6.0883e+07
-4.68794e+07
-3.88128e+07
-5.31707e+07
6.21251e+07
5.00808e+07
1.20526e+08
9.93012e+07
6.79192e+07
2.97928e+07
7.34591e+07
1.83249e+07
1.00903e+08
1.56405e+07
1.68613e+07
8.18539e+07
1.53768e+08
1.85468e+07
1.28728e+08
1.90363e+07
4.96639e+07
2.35369e+07
4.06725e+07
4.69044e+07
3.44388e+07
8.77185e+07
3.57757e+07
7.84099e+07
6.35863e+07
-5.45708e+06
8.3713e+06
9.93708e+06
7.46228e+07
1.0951e+08
9.91449e+07
1.13409e+08
1.09319e+08
1.13054e+08
1.0562e+08
1.05848e+08
1.07507e+08
1.10604e+08
1.04597e+08
1.12366e+08
1.0751e+08
1.07689e+08
1.11184e+08
1.02064e+08
9.49964e+07
9.9181e+07
9.92599e+07
1.02011e+08
1.01887e+08
9.74265e+07
1.12867e+08
1.16971e+08
1.17578e+08
1.14459e+08
1.14918e+08
1.1085e+08
1.15786e+08
1.40257e+08
1.22116e+08
1.39039e+08
1.30584e+08
1.37244e+08
1.50594e+08
1.32633e+08
2.02587e+08
2.12409e+08
1.92958e+08
2.38454e+08
1.82493e+08
1.88018e+08
2.26805e+08
1.58939e+08
1.27362e+08
1.78802e+08
1.47549e+08
1.47584e+08
1.63403e+08
1.45322e+08
1.79376e+08
1.43485e+08
1.61843e+08
1.88023e+08
1.65529e+08
1.61167e+08
1.93431e+08
1.03062e+08
9.25674e+07
1.04112e+08
1.0832e+08
8.65976e+07
1.03356e+08
1.0609e+08
9.09694e+07
1.09022e+08
9.60493e+07
1.19694e+08
9.94192e+07
9.2891e+07
9.84032e+07
9.04959e+07
8.96178e+07
8.51419e+07
9.51615e+07
9.59488e+07
8.74951e+07
9.17248e+07
1.08126e+08
1.06771e+08
7.70468e+07
1.02957e+08
1.07949e+08
8.28509e+07
1.09291e+08
1.13878e+08
1.17187e+08
7.74956e+07
6.65026e+07
5.14064e+07
6.2503e+07
6.88649e+07
5.80748e+07
5.59078e+07
8.17846e+07
7.76465e+07
6.84483e+07
6.8327e+07
6.36019e+07
8.54266e+07
6.67103e+07
1.23607e+08
1.27266e+08
1.31909e+08
1.18533e+08
1.17626e+08
9.85756e+07
1.20289e+08
9.31565e+07
1.24841e+08
1.36317e+08
1.34804e+08
1.26963e+08
1.1279e+08
8.21976e+07
1.06886e+08
8.92658e+07
1.13626e+08
1.12882e+08
1.03783e+08
9.49446e+07
9.41596e+07
1.09448e+08
9.07426e+07
1.03735e+08
1.07672e+08
9.73973e+07
8.87109e+07
7.83652e+07
8.90264e+07
8.53796e+07
9.23306e+07
9.6895e+07
1.04307e+08
1.21004e+08
1.11963e+08
1.14672e+08
8.02455e+07
7.13634e+07
7.22511e+07
7.31645e+07
9.75868e+07
8.94613e+07
8.74831e+07
9.74295e+07
9.09878e+07
7.769e+07
1.0049e+08
7.37364e+07
1.54622e+08
8.21223e+07
1.43574e+08
2.00227e+08
1.50318e+08
1.60699e+08
8.12208e+07
1.31243e+08
1.41483e+08
1.71024e+08
1.47919e+08
1.39898e+08
1.21058e+08
8.8672e+07
1.25427e+08
1.31926e+08
8.7134e+07
1.25262e+08
1.52599e+08
1.54022e+08
1.26289e+08
1.24101e+08
1.59479e+08
1.24076e+08
1.48037e+08
1.46031e+08
1.20494e+08
1.38757e+08
1.22209e+08
1.40983e+08
1.21153e+08
1.42815e+08
1.11169e+08
1.20728e+08
1.19651e+08
1.17245e+08
1.14869e+08
1.20868e+08
1.15876e+08
1.30097e+08
1.17725e+08
1.20318e+08
1.10609e+08
1.07679e+08
1.13622e+08
1.06241e+08
1.11792e+08
1.00178e+08
1.10805e+08
8.73904e+07
8.48577e+07
9.8652e+07
1.03271e+08
7.53615e+07
1.01202e+08
9.05965e+07
1.40768e+08
1.16228e+08
1.14415e+08
8.80018e+07
1.04975e+08
1.05208e+08
1.01001e+08
1.0176e+08
9.93684e+07
9.62265e+07
1.23261e+08
1.11541e+08
1.22251e+08
1.29082e+08
1.24238e+08
1.233e+08
1.09017e+08
1.21076e+08
1.20717e+08
1.23475e+08
9.9507e+07
1.21448e+08
1.40623e+08
1.24963e+08
1.27802e+08
1.01642e+08
1.20102e+08
1.222e+08
1.3479e+08
1.33896e+08
1.31485e+08
1.18248e+08
1.30071e+08
1.23512e+08
1.18803e+08
1.25891e+08
1.29004e+08
1.34578e+08
1.28678e+08
1.21273e+08
1.31808e+08
1.19043e+08
1.35241e+08
1.27234e+08
1.3904e+08
1.31288e+08
1.32114e+08
1.3789e+08
1.31147e+08
1.05658e+08
1.31708e+08
1.05174e+08
1.39495e+08
1.32346e+08
1.32586e+08
1.39554e+08
1.30532e+08
1.03582e+08
1.29846e+08
1.04417e+08
1.36853e+08
1.36685e+08
1.38876e+08
1.22936e+08
1.35697e+08
1.30772e+08
1.21031e+08
1.31108e+08
1.36813e+08
1.37345e+08
1.29829e+08
1.22111e+08
1.35413e+08
1.22669e+08
1.37026e+08
1.30839e+08
1.34784e+08
1.30155e+08
1.28855e+08
1.37219e+08
1.24842e+08
9.88192e+07
1.2368e+08
1.00408e+08
1.34182e+08
1.2492e+08
1.26996e+08
1.31231e+08
1.27388e+08
1.02665e+08
1.28535e+08
1.01361e+08
1.25113e+08
1.23377e+08
1.03798e+08
9.58349e+07
1.10742e+08
1.03e+08
1.12443e+08
1.1317e+08
1.03729e+08
9.66459e+07
1.05072e+08
1.12572e+08
1.12181e+07
-1.45884e+07
8.80378e+06
-1.17818e+07
1.33992e+07
-2.17064e+06
1.90528e+07
-7.6169e+06
1.25036e+08
1.25346e+08
1.01716e+08
9.41993e+07
1.07687e+08
1.03693e+08
1.08914e+08
1.11836e+08
1.05017e+08
9.42928e+07
1.03277e+08
1.115e+08
3.33032e+07
2.29832e+07
3.87346e+07
1.8682e+07
2.95039e+07
5.13691e+06
2.28975e+07
1.0973e+07
1.01135e+08
1.09715e+08
9.42098e+07
1.01485e+08
1.07266e+08
4.60829e+07
2.94534e+07
4.16167e+07
3.26683e+07
1.24773e+08
1.14376e+08
1.21255e+08
1.22625e+08
1.27154e+08
1.12341e+08
1.1892e+08
1.19819e+08
9.7581e+07
1.21402e+08
9.55561e+07
1.26176e+08
1.23183e+08
1.2982e+08
1.20833e+08
1.16135e+08
9.43216e+07
9.08038e+08
1.17871e+09
4.87683e+08
5.30667e+08
-1.07667e+08
-3.43398e+08
1.63094e+09
1.29662e+08
1.19411e+08
1.04819e+08
1.09122e+08
2.45406e+07
2.04313e+08
1.39975e+08
7.38426e+07
7.7403e+08
-3.39502e+08
4.14457e+08
4.65002e+08
2.23446e+08
-2.19868e+07
-1.89259e+07
302294
-8.62612e+06
6.46735e+07
4.69957e+07
1.60819e+07
2.91861e+07
1.38323e+08
1.36461e+08
1.34788e+08
1.4219e+08
8.59472e+07
1.04332e+08
1.29673e+08
1.16707e+08
1.14092e+08
1.25871e+08
1.17084e+08
1.18684e+08
1.13756e+08
1.17647e+08
1.23975e+08
1.16491e+08
1.24933e+08
1.17234e+08
1.19586e+08
1.14625e+08
1.18293e+08
1.24775e+08
9.51899e+07
1.1146e+08
8.07125e+07
1.14858e+08
9.21953e+07
1.19954e+08
8.43123e+07
1.18974e+08
1.18861e+08
1.23369e+08
1.20805e+08
1.19007e+08
1.20615e+08
1.20752e+08
1.16433e+08
1.13142e+08
1.12885e+08
1.17045e+08
1.13815e+08
1.17383e+08
1.15627e+08
1.13989e+08
1.1497e+08
1.09991e+08
1.1217e+08
1.13316e+08
1.10772e+08
1.17311e+08
1.20505e+08
1.22772e+08
1.19554e+08
1.21068e+08
1.20251e+08
1.22016e+08
1.19375e+08
1.21744e+08
1.24392e+08
1.24746e+08
1.23264e+08
1.23704e+08
1.23135e+08
1.22418e+08
1.21899e+08
1.1852e+08
1.23061e+08
1.1398e+08
1.21861e+08
1.16959e+08
1.19735e+08
1.22561e+08
1.23941e+08
1.22721e+08
1.21307e+08
1.22235e+08
1.21793e+08
1.23063e+08
1.21431e+08
1.23899e+08
1.18989e+08
1.21764e+08
1.20081e+08
1.2273e+08
1.20222e+08
9.8196e+07
1.03382e+08
9.74623e+07
9.55088e+07
9.46107e+07
9.51756e+07
9.45877e+07
1.01312e+08
9.93075e+07
1.06044e+08
1.01387e+08
1.0015e+08
1.04979e+08
9.66945e+07
9.71183e+07
1.01408e+08
9.71455e+07
1.05041e+08
9.69491e+07
9.68722e+07
1.02505e+08
1.03021e+08
1.08179e+08
8.79814e+07
8.15852e+07
1.07351e+08
1.19582e+08
1.11645e+08
1.10921e+08
1.07227e+08
1.10388e+08
1.15891e+08
1.03205e+08
1.11145e+08
1.10151e+08
1.09266e+08
1.03835e+08
1.07349e+08
1.03708e+08
1.10167e+08
1.03711e+08
1.06041e+08
1.10781e+08
1.06533e+08
1.06714e+08
1.14648e+08
1.17366e+08
1.22748e+08
1.06813e+08
1.1842e+08
1.14114e+08
1.14585e+08
1.08256e+08
1.11867e+08
1.08031e+08
1.1176e+08
1.08752e+08
1.05969e+08
1.10721e+08
1.10019e+08
1.03794e+08
1.06799e+08
1.07219e+08
1.08012e+08
1.07647e+08
1.1925e+08
1.03689e+08
1.25415e+08
1.18967e+08
1.17398e+08
1.06829e+08
1.20929e+08
1.14074e+08
1.14503e+08
1.15528e+08
1.15224e+08
1.13827e+08
1.16119e+08
1.15059e+08
1.1484e+08
1.13452e+08
1.16859e+08
1.17276e+08
1.14905e+08
1.16164e+08
1.11694e+08
1.18788e+08
1.2469e+08
1.17125e+08
1.21541e+08
1.20016e+08
1.1485e+08
1.2104e+08
1.23952e+08
1.24477e+08
1.21989e+08
1.21127e+08
1.21415e+08
1.18803e+08
1.23531e+08
1.17003e+08
8.44306e+07
1.04653e+08
1.26092e+08
9.53328e+07
1.1593e+08
1.22951e+08
1.18685e+08
1.23353e+08
1.10108e+08
1.15065e+08
1.14266e+08
1.17706e+08
1.18241e+08
1.25596e+08
1.27677e+08
1.31239e+08
1.2841e+08
1.24578e+08
1.22351e+08
1.34333e+08
1.18243e+08
1.15911e+08
1.14347e+08
1.09291e+08
1.18248e+08
1.1476e+08
1.15864e+08
1.22238e+08
1.26463e+08
1.2021e+08
1.22794e+08
1.20579e+08
1.21826e+08
1.24588e+08
1.19354e+08
1.22727e+08
1.08989e+08
1.17508e+08
1.1523e+08
1.17129e+08
1.20471e+08
3.27183e+08
4.25255e+08
3.74871e+08
4.52804e+08
5.08993e+08
4.11382e+08
3.30571e+08
4.02317e+08
5.21699e+08
5.20049e+08
4.0114e+08
6.43512e+08
3.49739e+08
4.409e+08
2.56116e+08
3.8783e+08
5.17108e+08
2.90493e+06
4.97427e+08
6.02907e+08
5.47102e+08
4.02239e+08
4.85713e+08
4.8734e+08
4.12488e+08
5.4148e+08
3.72075e+08
4.30681e+08
3.93932e+08
3.64796e+08
3.41982e+08
4.17023e+08
3.29445e+08
4.10656e+08
3.58434e+08
2.96406e+08
7.00386e+07
4.15403e+08
2.8951e+08
1.56514e+08
3.35918e+08
1.17312e+08
3.519e+08
2.64329e+08
2.87989e+08
3.24103e+08
3.35682e+08
2.982e+08
2.64301e+08
3.10129e+08
2.971e+08
2.79099e+08
2.78545e+08
2.84201e+08
3.24241e+08
2.5111e+08
3.59957e+08
4.49075e+08
3.55966e+08
3.71373e+08
3.73818e+08
3.80618e+08
2.75901e+08
1.54203e+08
7.85454e+07
1.70934e+08
2.57904e+08
2.24203e+08
2.05296e+08
8.35584e+07
1.96154e+08
1.76771e+08
3.20787e+08
2.30649e+08
2.50135e+08
2.08303e+08
1.04608e+08
2.11849e+08
1.99744e+08
1.0539e+08
2.17225e+08
2.41125e+08
3.56669e+07
1.92716e+08
2.17636e+08
1.78205e+08
2.22842e+08
2.09688e+08
1.83108e+08
2.05909e+08
1.86041e+08
1.9778e+08
1.91572e+08
1.97021e+08
1.69841e+08
1.77287e+08
1.61165e+08
1.60435e+08
1.71033e+08
1.79941e+08
1.67714e+08
1.61322e+08
1.77941e+08
1.62027e+08
1.58022e+08
1.69348e+08
1.74932e+08
1.77312e+08
1.68497e+08
1.8513e+08
2.01727e+08
1.82397e+08
1.74374e+08
1.93613e+08
1.84871e+08
1.57186e+08
1.84278e+08
1.65354e+08
1.97233e+08
1.87069e+08
1.90888e+08
1.90497e+08
1.70173e+08
2.22657e+08
2.45207e+08
2.64303e+08
2.35489e+08
2.59509e+08
2.3228e+08
2.22606e+08
1.68576e+08
1.52704e+08
1.82033e+08
1.99689e+08
1.96872e+08
2.38008e+08
2.50091e+08
2.29556e+08
2.12551e+08
2.16724e+08
2.05659e+08
1.9923e+08
2.11605e+08
1.85927e+08
2.08663e+08
1.93903e+08
2.03591e+08
1.33176e+08
1.17632e+08
1.47344e+08
1.38007e+08
1.36202e+08
1.55006e+08
1.26412e+08
1.33476e+08
9.06256e+07
1.40218e+08
7.87277e+07
1.31843e+08
8.84856e+07
1.41076e+08
1.47427e+08
1.40297e+08
1.45667e+08
1.35527e+08
1.39232e+08
1.50975e+08
1.46209e+08
1.49591e+08
1.5794e+08
1.50088e+08
1.4455e+08
1.44915e+08
1.60771e+08
1.40889e+08
1.54918e+08
1.43689e+08
1.48451e+08
1.64205e+08
1.43501e+08
1.62493e+08
1.57395e+08
1.35324e+08
1.35898e+08
1.39255e+08
1.33979e+08
1.41726e+08
1.37536e+08
1.21136e+08
1.33869e+08
1.29292e+08
1.46196e+08
1.32856e+08
1.35791e+08
1.26708e+08
1.44014e+08
1.17759e+08
1.18387e+08
9.48849e+07
8.53084e+07
8.98983e+07
1.25303e+08
1.14998e+08
1.04496e+08
1.15807e+08
1.0841e+08
1.10521e+08
1.06371e+08
1.0894e+08
1.10499e+08
1.04117e+08
1.01907e+08
1.02633e+08
1.05742e+08
1.01244e+08
1.00229e+08
1.0497e+08
1.243e+08
1.22478e+08
1.22595e+08
1.09898e+08
1.22025e+08
1.19146e+08
1.10815e+08