/*--------------------------------*- C++ -*----------------------------------*\
| =========                 |                                                 |
| \\      /  F ield         | OpenFOAM: The Open Source CFD Toolbox           |
|  \\    /   O peration     | Version:  2012                                  |
|   \\  /    A nd           | Website:  www.openfoam.com                      |
|    \\/     M anipulation  |                                                 |
\*---------------------------------------------------------------------------*/
FoamFile
{
    version     2.0;
    format      ascii;
    class       volVectorField;
    location    "0.106/solid";
    object      D_0;
}
// * * * * * * * * * * * * * * * * * * * * * * * * * * * * * * * * * * * * * //

dimensions      [0 1 0 0 0 0 0];


internalField   nonuniform List<vector> 
3124
(
(3.49211e-11 5.30825e-11 3.5538e-11)
(2.28725e-12 -1.75534e-12 -7.38381e-12)
(-3.7239e-11 4.70397e-11 -2.55957e-11)
(-4.88473e-12 -3.19118e-12 2.60148e-11)
(3.02887e-12 -2.74038e-13 1.84464e-11)
(3.53725e-12 -2.06404e-14 1.78814e-11)
(5.77192e-12 -1.48295e-12 -8.68664e-12)
(1.88901e-13 3.70822e-11 4.60997e-11)
(1.88163e-10 2.20813e-10 4.19762e-11)
(-1.57368e-11 3.4701e-11 3.2282e-13)
(-6.72295e-12 -2.82048e-12 2.71702e-11)
(-9.49766e-11 4.65419e-11 -2.55448e-11)
(6.10673e-12 2.0038e-11 4.537e-11)
(-1.6799e-11 -2.77764e-12 5.65822e-11)
(-4.0661e-11 2.95231e-11 4.32342e-12)
(1.83931e-10 2.32704e-10 2.56297e-11)
(-1.13194e-11 -5.07e-12 5.35694e-11)
(-1.81996e-12 -4.43756e-13 4.22555e-11)
(3.54926e-12 -1.26757e-13 1.79002e-11)
(3.09089e-12 -1.52749e-13 1.8393e-11)
(-1.05833e-12 -1.74761e-13 4.14718e-11)
(-1.60238e-12 -3.49554e-13 4.21502e-11)
(-1.04639e-12 -1.4141e-13 4.13849e-11)
(1.051e-11 -1.2271e-12 -2.884e-12)
(6.71474e-11 1.23429e-11 3.75488e-11)
(2.21071e-11 -2.23449e-11 -1.26788e-12)
(1.67958e-10 3.02713e-10 7.06571e-11)
(6.07165e-11 3.10582e-11 2.12102e-11)
(1.00205e-10 1.3996e-10 8.56611e-11)
(1.67393e-10 5.95375e-10 1.90837e-10)
(3.46969e-11 2.58503e-11 1.71337e-11)
(1.89153e-10 8.02774e-11 4.66307e-11)
(-3.45666e-12 1.10338e-14 5.86871e-11)
(-2.23221e-12 5.11957e-12 5.25737e-11)
(2.77584e-10 4.32918e-10 1.76043e-11)
(2.79381e-10 9.92331e-10 1.48203e-11)
(-3.32266e-12 -2.42742e-12 5.71932e-11)
(2.76132e-13 -2.10833e-12 5.19675e-11)
(-3.07466e-12 -3.03666e-13 4.67078e-11)
(-2.90802e-12 -4.40691e-13 4.72908e-11)
(-3.10676e-12 -2.2262e-13 4.6577e-11)
(-3.17247e-12 -2.92021e-14 4.64168e-11)
(4.45116e-12 -2.73933e-12 -3.96707e-12)
(1.22155e-11 -3.97844e-13 -1.08287e-11)
(1.58014e-11 -2.18326e-11 -8.96518e-12)
(7.17267e-11 -7.50102e-12 3.55435e-11)
(2.8745e-11 -3.42848e-11 1.28564e-11)
(1.57019e-11 2.26606e-12 -1.31683e-11)
(-8.40484e-10 3.621e-10 -1.8131e-10)
(1.2717e-11 -3.23639e-11 -1.03813e-11)
(1.40213e-12 -1.11336e-12 1.94416e-11)
(1.7159e-12 -7.55698e-13 1.92095e-11)
(3.60533e-12 -6.2088e-14 1.78035e-11)
(3.62386e-12 4.286e-14 1.78024e-11)
(1.82466e-11 5.04216e-12 5.37161e-12)
(1.0704e-11 4.90511e-12 -1.19342e-11)
(3.1072e-11 1.45942e-11 6.94507e-12)
(1.45668e-10 2.32675e-11 2.18106e-11)
(5.80516e-12 1.34924e-11 3.49582e-11)
(9.81268e-11 8.4532e-10 1.02386e-11)
(1.86435e-11 2.90241e-11 2.00674e-11)
(1.73932e-10 3.46271e-10 6.9174e-11)
(1.66655e-10 1.9314e-10 7.14193e-11)
(2.7594e-10 9.28131e-10 4.83425e-11)
(2.95825e-10 1.32724e-10 4.01883e-11)
(2.19846e-10 7.76379e-10 1.10404e-10)
(2.63083e-10 4.36398e-10 4.34425e-11)
(2.56368e-10 1.17879e-10 3.85531e-11)
(2.47242e-10 1.18779e-09 2.87351e-11)
(1.85738e-10 9.78442e-10 7.6086e-11)
(1.19688e-11 7.69249e-12 -1.04003e-11)
(4.28975e-12 1.52252e-11 2.6876e-11)
(1.96414e-11 1.95083e-11 1.11277e-11)
(2.02324e-10 3.42795e-11 2.36692e-11)
(1.64559e-10 2.48848e-11 2.17299e-11)
(-3.31586e-11 5.59212e-12 2.6815e-11)
(-1.22836e-09 2.07922e-10 7.41458e-11)
(-3.02279e-11 6.87999e-12 2.66689e-11)
(1.95125e-12 1.3146e-11 3.52271e-11)
(-4.3037e-14 9.29901e-12 4.71209e-11)
(-6.31244e-12 1.164e-13 6.38628e-11)
(-3.85786e-11 1.60174e-12 4.81482e-11)
(-5.4576e-12 7.49316e-12 5.38769e-11)
(-1.91357e-12 1.37622e-11 2.96713e-11)
(-5.44671e-11 1.08356e-11 3.56356e-11)
(-4.34737e-12 1.07357e-11 4.51298e-11)
(2.68854e-10 4.41929e-10 2.13173e-11)
(1.82478e-10 2.38296e-10 1.35215e-11)
(2.77462e-10 9.35414e-10 3.87534e-11)
(2.84301e-10 1.49545e-10 2.7071e-11)
(2.43194e-10 4.60788e-10 4.05192e-11)
(2.80758e-10 9.80001e-10 2.32572e-11)
(2.84042e-10 1.50996e-10 1.21981e-11)
(1.90414e-10 4.25514e-11 2.02083e-12)
(2.61291e-10 1.28697e-09 1.48809e-11)
(2.54762e-10 1.19176e-09 2.6803e-11)
(2.63445e-10 1.2654e-09 2.19973e-11)
(1.97199e-10 4.00185e-11 1.88282e-11)
(1.913e-10 4.31157e-11 3.73134e-12)
(-6.03754e-12 -3.04396e-12 6.27348e-11)
(-4.38352e-12 -2.14459e-12 4.32112e-11)
(-2.12273e-12 -2.29858e-12 5.38696e-11)
(-2.33783e-12 -9.06476e-13 4.85513e-11)
(-6.56328e-13 -2.03999e-12 5.10249e-11)
(-3.28466e-12 -1.15147e-12 4.2737e-11)
(-4.0143e-12 -7.71857e-13 5.25867e-11)
(-2.53251e-12 -1.43963e-12 5.36452e-11)
(3.45241e-12 -6.95986e-14 1.80942e-11)
(3.44427e-12 -1.69819e-13 1.81264e-11)
(-2.47282e-12 -6.79481e-13 4.82642e-11)
(-2.81844e-12 -4.94698e-13 4.75198e-11)
(-4.80722e-12 -2.78488e-13 5.12664e-11)
(-1.15799e-12 -2.35074e-13 4.179e-11)
(-4.66863e-12 -4.062e-13 5.17601e-11)
(-4.19671e-12 -5.87956e-13 5.24032e-11)
(-1.2251e-12 -2.39837e-13 4.18932e-11)
(-4.57883e-12 -4.22723e-13 5.19252e-11)
(-4.83104e-12 -2.29241e-13 5.11474e-11)
(-9.73374e-13 -2.67929e-14 4.12742e-11)
(-4.87196e-12 -5.8517e-15 5.10223e-11)
(-3.18282e-12 5.99063e-14 4.64604e-11)
(-9.35902e-13 2.07831e-15 4.12921e-11)
(-4.87685e-12 5.03819e-14 5.10793e-11)
(1.10332e-10 1.90233e-11 7.6934e-11)
(3.6402e-11 1.93801e-11 1.36002e-11)
(-1.39233e-12 3.65333e-13 4.44972e-11)
(-1.29213e-12 1.6478e-12 4.39325e-11)
(-5.78157e-13 -1.17532e-12 4.36352e-11)
(3.70481e-13 -5.75929e-13 4.25975e-11)
(-1.99575e-12 -2.49232e-13 3.5192e-11)
(-1.96383e-12 -3.15131e-13 3.53711e-11)
(-2.02487e-12 -2.02296e-13 3.50602e-11)
(-2.06462e-12 -1.43335e-13 3.4961e-11)
(2.33267e-11 -8.08612e-12 -2.85862e-11)
(1.64973e-12 -2.24311e-12 -5.23458e-12)
(4.98428e-12 -1.43833e-12 -1.19773e-11)
(4.91551e-12 3.49646e-12 -2.68151e-11)
(2.45181e-11 1.88666e-12 -4.96788e-11)
(4.9004e-12 -3.95996e-12 -8.93016e-12)
(3.92185e-12 4.19247e-13 -1.30702e-11)
(4.17539e-11 4.08346e-11 -1.57147e-10)
(-1.11573e-10 1.11373e-10 -1.36271e-10)
(1.3205e-12 2.24929e-11 -1.73411e-11)
(-9.5208e-11 7.15154e-11 -6.32275e-11)
(-2.24719e-11 6.55146e-11 -2.42874e-11)
(-2.57074e-10 2.01305e-10 -3.67798e-10)
(1.43525e-11 1.45763e-11 -4.4329e-11)
(-1.37754e-11 -2.22905e-13 3.4787e-12)
(-4.08505e-13 -2.88575e-12 2.19421e-11)
(-6.71657e-12 -2.51966e-13 2.62338e-12)
(2.71545e-12 -3.05361e-13 1.86756e-11)
(-1.80686e-12 -2.83857e-14 1.97682e-12)
(-2.12457e-12 -4.33125e-14 2.01701e-12)
(-1.09479e-12 -9.091e-15 1.87109e-12)
(3.58488e-12 -9.59135e-14 1.7853e-11)
(-9.71677e-13 -5.51476e-15 1.84191e-12)
(3.7288e-12 4.57558e-14 1.78348e-11)
(-7.78746e-13 -4.64485e-15 1.81872e-12)
(8.56485e-11 1.24076e-11 -3.80803e-11)
(1.17938e-11 -4.46316e-13 -5.7663e-12)
(1.06803e-11 -7.49534e-13 -1.51889e-11)
(6.23311e-12 4.42074e-12 -3.04266e-11)
(2.52541e-11 4.13145e-12 -6.55802e-11)
(2.22033e-11 1.95701e-14 -1.10336e-11)
(1.73422e-11 5.51928e-12 -2.96745e-11)
(5.51242e-11 1.2724e-10 1.99648e-10)
(-5.18302e-13 2.43791e-11 4.83585e-11)
(-2.08291e-11 6.72459e-11 1.50825e-10)
(-8.66498e-12 3.63375e-11 4.96962e-11)
(-1.11933e-11 3.78437e-11 -8.24041e-12)
(-1.26238e-10 8.30735e-11 -8.7721e-12)
(4.84737e-14 2.60027e-11 -7.17225e-12)
(-7.49534e-12 2.77763e-11 1.2201e-11)
(-2.60669e-11 6.09441e-11 -4.08394e-11)
(-5.45784e-11 4.53352e-11 5.75352e-11)
(4.28283e-12 2.41859e-11 1.66582e-12)
(-1.72436e-11 -1.61827e-13 3.63886e-12)
(-1.67949e-11 -5.56791e-13 2.95246e-11)
(-3.51014e-11 2.49307e-13 5.29801e-12)
(-6.08928e-10 -5.01072e-11 -2.74668e-10)
(-2.3583e-10 9.69867e-11 -9.67842e-11)
(-3.23551e-10 8.1809e-11 -3.17331e-11)
(-1.10687e-10 2.89141e-11 -1.21985e-11)
(-6.84427e-10 1.42677e-10 -4.49237e-10)
(-2.87011e-10 2.76987e-11 -6.32556e-11)
(-2.83651e-10 1.57674e-11 -2.55494e-11)
(-1.2433e-11 -6.78679e-13 6.1921e-11)
(-2.35269e-11 4.91509e-13 5.70206e-11)
(-1.50004e-11 2.95834e-12 5.98308e-11)
(-8.52441e-11 3.26675e-11 5.77621e-11)
(-1.80702e-10 7.70729e-11 -2.59594e-11)
(-1.88487e-11 2.15864e-11 1.96523e-11)
(-5.31377e-11 2.5595e-11 9.01165e-12)
(-6.62953e-11 4.28343e-11 7.69815e-11)
(-2.15603e-10 3.1493e-11 -1.44374e-11)
(-2.62038e-11 1.69381e-11 2.24737e-11)
(-9.58222e-12 -4.14855e-12 6.08039e-11)
(-7.69826e-12 -5.36623e-12 4.87496e-11)
(-7.12837e-12 -5.52407e-12 5.65291e-11)
(-1.67411e-12 -6.48776e-13 3.69074e-11)
(-1.7042e-12 -1.06966e-12 3.71365e-11)
(-2.10832e-12 -5.69999e-13 4.2408e-11)
(-4.43496e-12 -3.85962e-13 5.1386e-11)
(-4.4565e-12 -4.77844e-13 5.13396e-11)
(-1.09419e-12 -1.02346e-14 1.86931e-12)
(3.54598e-12 -5.18649e-14 1.79888e-11)
(-1.0608e-12 -1.25359e-14 1.861e-12)
(-1.75354e-12 -2.48749e-14 1.97509e-12)
(3.31611e-12 -2.03092e-13 1.82754e-11)
(-1.41627e-12 -1.84517e-14 1.91144e-12)
(-1.67125e-12 -5.22371e-13 3.67638e-11)
(-1.7121e-12 -4.89092e-13 3.65547e-11)
(-4.36288e-12 -2.06186e-13 5.0967e-11)
(-1.0925e-12 -1.97212e-13 4.15802e-11)
(-4.36879e-12 -2.47752e-13 5.10702e-11)
(-4.41236e-12 -3.24481e-13 5.14302e-11)
(-1.45476e-12 -3.01427e-13 4.20715e-11)
(-4.39287e-12 -2.89457e-13 5.14283e-11)
(-4.35659e-12 -1.83073e-13 5.08691e-11)
(-1.04497e-12 -1.06681e-13 4.1335e-11)
(-4.35183e-12 -1.22088e-13 5.07926e-11)
(-2.13228e-12 1.02219e-13 3.50199e-11)
(-8.64256e-13 1.08862e-15 4.13929e-11)
(-4.25678e-12 5.5021e-14 5.09861e-11)
(7.05934e-11 1.02908e-11 8.00121e-12)
(2.38175e-11 1.76417e-11 6.96486e-12)
(1.56811e-11 -4.21907e-12 -3.41108e-12)
(2.38505e-11 -3.48968e-12 -5.2397e-12)
(4.87393e-11 -1.84267e-11 -4.36711e-12)
(3.44194e-11 1.10759e-11 4.94617e-12)
(5.20826e-11 3.65032e-11 1.86547e-11)
(1.07737e-10 6.3559e-13 7.27169e-11)
(1.76921e-10 7.2494e-12 1.32834e-10)
(4.64432e-11 -1.47896e-11 1.81656e-11)
(1.11836e-10 -8.85413e-11 8.05756e-11)
(3.1508e-11 9.1751e-12 9.67066e-12)
(8.87789e-11 -1.1214e-11 4.28085e-11)
(7.18981e-11 -7.00537e-11 -3.48301e-12)
(1.73791e-11 -1.1834e-11 -2.51329e-12)
(3.1949e-11 -2.57063e-11 7.13341e-12)
(5.33833e-11 -2.81618e-11 1.79582e-12)
(1.0875e-10 -1.0555e-10 7.18174e-11)
(2.81481e-11 -6.26706e-12 5.11842e-12)
(1.93618e-10 2.33316e-10 8.92359e-11)
(1.98865e-10 5.58455e-10 1.08624e-10)
(7.16809e-11 1.79667e-10 5.31867e-11)
(3.45905e-10 2.22099e-10 6.00457e-11)
(2.46016e-10 1.31089e-10 5.1798e-11)
(1.21754e-10 4.01761e-10 1.08074e-10)
(2.88098e-10 3.85154e-10 9.00275e-11)
(1.18797e-10 1.29516e-10 7.46407e-11)
(9.32739e-11 8.36738e-11 5.74493e-11)
(4.25192e-11 2.00488e-11 1.68138e-11)
(3.4556e-11 4.57791e-11 2.45019e-11)
(1.33425e-10 7.20908e-11 5.5772e-11)
(9.12139e-11 1.75681e-10 7.44857e-11)
(4.06833e-11 3.6663e-11 2.4981e-11)
(-4.90177e-13 5.60914e-14 4.366e-11)
(-2.98252e-13 3.32696e-12 4.26197e-11)
(-1.22114e-12 1.75115e-13 5.23676e-11)
(-3.43323e-12 2.66452e-12 5.81207e-11)
(-1.26625e-12 2.28897e-12 5.18707e-11)
(3.55018e-13 2.33261e-12 4.90311e-11)
(-3.17634e-12 5.87615e-12 5.56156e-11)
(-7.53981e-13 4.66801e-12 4.9926e-11)
(3.44556e-10 7.98539e-10 1.22137e-11)
(4.99662e-10 3.48015e-10 9.26114e-12)
(4.28432e-10 5.67249e-10 9.99601e-12)
(-1.00583e-12 -1.80966e-12 5.09035e-11)
(-2.37139e-12 -2.87684e-12 5.46857e-11)
(-3.92728e-13 -1.48775e-12 4.90728e-11)
(2.14286e-13 -2.40745e-12 4.28723e-11)
(8.92492e-13 -6.57012e-13 4.3642e-11)
(-4.69292e-13 -2.47008e-12 5.29941e-11)
(1.18773e-12 -2.16093e-12 4.8707e-11)
(1.08769e-12 -1.20579e-12 4.91756e-11)
(-1.86396e-12 -3.94497e-13 3.57906e-11)
(-1.92144e-12 -3.46472e-13 3.55694e-11)
(-1.79216e-12 -2.90289e-13 4.13824e-11)
(-3.01565e-12 -3.73486e-13 4.69007e-11)
(-1.75062e-12 -3.60299e-13 4.15826e-11)
(-1.63567e-12 -4.38033e-13 4.20014e-11)
(-2.96421e-12 -3.98498e-13 4.70969e-11)
(-1.7001e-12 -3.90358e-13 4.17888e-11)
(-1.82516e-12 -2.17349e-13 4.1246e-11)
(-3.1191e-12 -1.57405e-13 4.65054e-11)
(-1.85844e-12 -1.55589e-13 4.11657e-11)
(-2.10675e-12 -2.96132e-14 3.48457e-11)
(-2.09139e-12 -1.08805e-13 3.48881e-11)
(-3.14073e-12 -1.07508e-13 4.64506e-11)
(-1.90503e-12 -3.42208e-14 4.10541e-11)
(-1.88535e-12 -1.11746e-13 4.11004e-11)
(2.54133e-11 -1.15827e-11 -2.49205e-11)
(2.76364e-12 -2.79387e-12 -4.02635e-12)
(9.99446e-12 -6.67331e-12 -5.87063e-12)
(1.26302e-11 -4.40944e-12 -1.02429e-11)
(3.97911e-11 -1.82564e-11 -1.05702e-11)
(6.73788e-12 -6.18605e-12 -7.24556e-12)
(4.50294e-12 -4.42965e-13 -9.16929e-12)
(2.84295e-11 -1.08028e-11 -3.04354e-11)
(8.37248e-12 -3.18501e-13 -1.10997e-11)
(2.94628e-11 6.05999e-12 -3.3866e-11)
(1.50165e-11 -8.72867e-12 -1.30033e-11)
(4.36277e-11 -1.57774e-11 -5.05368e-11)
(2.71844e-11 1.05557e-12 -4.20976e-11)
(9.78427e-12 -5.67014e-12 -1.0083e-11)
(3.1225e-11 -1.51818e-11 -2.71386e-11)
(7.31169e-11 -7.26748e-11 -1.80049e-11)
(1.27302e-11 -1.20201e-11 -6.36669e-12)
(1.48649e-11 -1.759e-11 -1.32457e-11)
(4.59558e-11 -2.64982e-11 -6.67091e-12)
(5.02064e-11 -2.80863e-11 -5.06593e-11)
(1.08063e-11 -1.03202e-11 -9.12654e-12)
(2.04636e-10 -2.74805e-12 1.42683e-10)
(2.93439e-11 -2.33619e-11 1.05985e-11)
(1.29934e-10 -1.3765e-10 1.06737e-10)
(-1.20714e-10 6.62031e-11 3.47708e-11)
(1.41204e-10 -3.31117e-10 1.93603e-10)
(1.02588e-10 -1.07137e-10 2.33748e-11)
(6.59202e-11 -8.86556e-11 2.85518e-11)
(2.0216e-11 -3.0919e-11 6.64074e-11)
(1.38332e-10 -1.91084e-10 6.86752e-11)
(1.43199e-10 -2.83691e-10 2.06432e-10)
(4.18274e-11 1.50263e-11 -1.27526e-10)
(1.27696e-11 1.24847e-11 -1.45662e-11)
(2.78532e-11 1.17459e-11 -3.81867e-11)
(1.96732e-11 -8.51063e-12 -1.97304e-11)
(4.76583e-11 -1.52667e-11 -5.98518e-11)
(-1.72993e-13 4.87111e-11 -3.60117e-11)
(2.04152e-11 6.90133e-13 -2.86027e-11)
(9.60158e-11 -6.88624e-12 -1.49297e-10)
(-2.02857e-10 1.48662e-10 -1.17149e-10)
(2.3279e-09 -1.53319e-09 -2.33463e-09)
(-1.49015e-10 9.27538e-12 -7.55743e-11)
(2.36766e-10 -3.82228e-10 -8.38913e-11)
(-3.63337e-10 3.38426e-10 -4.64969e-10)
(-3.53829e-11 2.26496e-11 -7.18438e-11)
(7.87509e-11 -6.63222e-11 -1.3407e-10)
(9.34298e-11 -8.79323e-11 -7.40074e-12)
(1.63479e-11 -2.44872e-11 -2.18153e-11)
(5.19989e-12 -8.47526e-11 -3.41974e-11)
(5.8207e-11 -3.20106e-11 -6.19865e-11)
(1.54341e-10 -2.85358e-10 -3.94899e-11)
(9.01831e-12 -3.27618e-11 -4.05869e-11)
(-1.58977e-13 -2.3213e-12 2.10521e-11)
(-3.62403e-12 -1.23913e-13 2.25638e-12)
(-5.79476e-12 -2.35393e-13 2.558e-12)
(2.55684e-12 -4.64196e-13 1.87722e-11)
(-3.2543e-12 -9.87792e-14 2.20309e-12)
(-2.28902e-12 -5.19373e-14 2.04484e-12)
(3.59166e-12 1.14769e-14 1.78422e-11)
(-9.86069e-13 -1.75314e-15 1.85202e-12)
(-9.50703e-13 -4.98984e-15 1.83728e-12)
(3.70024e-12 -5.23021e-14 1.78291e-11)
(-9.64634e-13 -1.01387e-15 1.84901e-12)
(-8.08718e-13 -3.0239e-15 1.82239e-12)
(4.47729e-10 9.14487e-11 7.82898e-11)
(2.30256e-10 8.18647e-11 2.78054e-11)
(3.73885e-11 3.0782e-11 -2.62753e-11)
(1.45463e-11 3.10239e-12 1.07407e-12)
(2.48508e-11 1.69769e-11 1.09695e-12)
(5.80557e-11 3.65215e-12 1.38626e-11)
(3.76921e-11 3.52167e-11 -5.5047e-11)
(2.31886e-11 6.79777e-12 -2.33671e-12)
(4.1438e-11 1.58159e-11 8.41087e-12)
(7.40903e-11 7.48865e-12 -6.0572e-11)
(1.05739e-11 2.7496e-12 -1.47335e-11)
(2.74079e-11 8.67633e-12 -3.75965e-11)
(1.76762e-11 7.59312e-12 -1.29508e-11)
(2.7527e-11 2.95176e-12 -5.76936e-11)
(3.19907e-11 1.12979e-11 -5.68006e-11)
(2.24353e-11 1.94013e-12 -1.4588e-11)
(5.123e-11 1.1811e-12 -6.49106e-11)
(7.23778e-11 5.87662e-11 3.67986e-11)
(3.54375e-11 1.67727e-11 6.72012e-12)
(2.81761e-11 6.88484e-12 -6.21659e-12)
(1.51628e-10 6.43534e-11 1.89213e-11)
(3.92787e-11 1.42542e-11 -5.30491e-11)
(3.27289e-11 2.82106e-12 -5.11583e-12)
(4.34439e-10 1.33533e-11 9.7697e-11)
(9.39376e-11 4.14316e-12 1.51576e-11)
(1.25989e-10 2.00537e-11 3.09826e-11)
(3.6364e-11 7.87913e-10 6.02377e-11)
(4.26868e-11 4.11877e-10 1.16378e-10)
(-4.60295e-11 1.33033e-10 2.14721e-10)
(1.05118e-10 8.40047e-11 2.63119e-10)
(3.11179e-11 4.44339e-11 3.39872e-11)
(4.5836e-11 2.33708e-10 1.21318e-10)
(-1.86866e-12 4.65033e-11 3.76057e-11)
(2.41094e-11 8.70803e-11 2.08146e-10)
(4.80018e-12 1.35586e-11 4.2982e-11)
(-9.48818e-12 3.18667e-11 1.15378e-10)
(1.20278e-11 2.0136e-11 3.64923e-11)
(-2.05579e-13 4.60525e-11 1.23704e-10)
(5.66322e-12 4.01827e-11 1.19265e-10)
(8.15643e-12 2.77022e-11 4.79209e-11)
(7.08885e-11 8.44812e-10 6.81598e-11)
(1.03121e-10 2.7279e-10 1.2036e-10)
(4.56308e-11 4.18066e-10 1.38836e-10)
(4.34518e-12 1.30565e-10 2.21773e-10)
(5.06079e-11 8.73324e-11 3.00111e-11)
(2.35885e-11 3.51334e-11 2.524e-11)
(1.09899e-11 3.16202e-11 3.03007e-11)
(6.78021e-11 1.53203e-10 1.42309e-10)
(4.06144e-12 4.90395e-11 1.311e-10)
(7.86414e-12 4.57764e-11 3.71959e-11)
(3.98062e-10 5.08698e-10 7.30201e-11)
(2.49412e-10 6.68524e-10 7.97153e-11)
(2.48539e-10 3.88826e-10 6.89211e-11)
(4.14108e-10 2.69907e-10 7.31508e-11)
(3.39642e-10 4.51937e-10 8.80232e-11)
(2.99017e-10 7.30543e-10 6.99448e-11)
(4.80706e-10 3.03321e-10 5.96222e-11)
(4.2971e-10 5.29615e-10 6.70155e-11)
(2.72671e-10 3.87228e-10 6.31217e-11)
(3.32543e-10 7.8871e-10 5.60614e-11)
(5.19109e-10 3.40406e-10 6.87891e-11)
(3.30065e-10 7.63979e-10 6.0476e-11)
(5.24543e-10 3.10963e-10 6.35313e-11)
(4.33384e-10 5.54604e-10 6.35867e-11)
(6.10292e-11 8.50012e-10 4.69196e-11)
(1.14401e-10 9.49891e-10 4.72406e-11)
(2.36451e-10 1.1648e-09 3.75355e-11)
(1.82977e-10 1.07849e-09 3.72394e-11)
(1.68935e-10 1.04612e-09 4.60902e-11)
(1.03508e-10 9.02881e-10 6.12236e-11)
(2.12771e-10 1.11045e-09 4.33618e-11)
(1.5699e-10 1.02482e-09 4.86859e-11)
(1.37252e-10 1.00143e-09 3.96281e-11)
(1.26752e-10 9.68092e-10 4.42486e-11)
(-6.53766e-13 3.31588e-11 -8.8031e-12)
(8.377e-12 1.53223e-11 -1.04617e-11)
(2.46103e-11 1.38177e-11 -3.81205e-11)
(1.46081e-11 1.20412e-11 -7.31127e-12)
(-4.32959e-12 4.58988e-11 -5.03677e-11)
(2.41358e-11 1.55978e-11 -3.48154e-11)
(1.23165e-11 1.61241e-11 -3.92818e-12)
(-8.08059e-12 3.46134e-11 2.04444e-11)
(-7.30938e-13 2.05038e-11 1.93924e-11)
(-1.44464e-11 3.07248e-11 1.00871e-10)
(1.19011e-11 1.75897e-11 2.4389e-11)
(-1.24189e-12 3.88004e-11 9.67532e-11)
(-3.97089e-11 3.84263e-11 6.55589e-11)
(9.25718e-12 1.94415e-11 1.26554e-11)
(1.62114e-13 3.13261e-11 1.65698e-11)
(4.33699e-11 5.61393e-11 4.17081e-11)
(1.94399e-11 1.49339e-11 7.00683e-14)
(1.595e-11 2.11336e-11 1.99549e-11)
(2.632e-11 1.72648e-11 -3.02204e-11)
(2.60836e-12 3.98261e-11 9.98365e-11)
(1.55772e-11 1.76819e-11 7.43874e-12)
(4.66888e-10 1.25643e-10 7.7759e-11)
(5.88819e-10 1.30551e-10 5.80849e-11)
(6.11166e-10 5.46505e-11 5.64295e-11)
(2.02085e-10 2.96458e-11 2.00823e-11)
(6.21519e-10 3.42893e-11 4.75188e-11)
(6.02285e-10 1.70179e-10 6.43866e-11)
(6.19498e-10 1.30631e-10 5.83853e-11)
(4.53592e-10 5.71068e-11 4.65245e-11)
(1.87782e-10 2.86008e-11 2.1514e-11)
(5.67618e-10 3.93133e-11 5.44252e-11)
(-2.08392e-11 6.13281e-13 2.95278e-11)
(-6.60485e-11 3.20363e-12 7.05988e-12)
(-4.29775e-11 5.58921e-13 5.89568e-12)
(-7.24128e-10 -1.20164e-10 -3.94082e-10)
(-7.08422e-10 1.43306e-10 1.00906e-10)
(-3.68778e-09 -6.72647e-10 2.61183e-09)
(-5.51405e-10 -1.34657e-10 4.22102e-11)
(-1.03377e-09 1.51789e-10 -3.39609e-10)
(-3.56595e-10 3.54474e-10 3.18412e-10)
(-5.80963e-10 -1.29333e-10 4.31874e-11)
(-4.96929e-10 -3.88266e-11 -1.18366e-10)
(-4.21045e-11 1.86135e-11 8.77854e-12)
(-6.90025e-11 8.55275e-12 6.64841e-12)
(-2.70037e-10 2.4574e-11 4.30645e-13)
(-1.02703e-10 1.15857e-11 -2.74841e-12)
(-5.58504e-10 -5.69741e-11 -2.113e-10)
(-3.55361e-10 -3.71099e-11 -4.2905e-11)
(-4.66539e-10 3.59785e-10 -1.77204e-10)
(-1.55361e-10 -2.53241e-11 -4.09585e-12)
(-4.46134e-13 3.31771e-11 1.55056e-10)
(9.67317e-12 6.55876e-12 4.13922e-11)
(5.98337e-12 1.78406e-11 4.36934e-11)
(9.66241e-13 3.10566e-11 1.53176e-10)
(2.41444e-12 8.21272e-12 4.53351e-11)
(-1.9057e-13 1.38587e-11 4.20668e-11)
(-1.53745e-11 2.22569e-11 1.41312e-10)
(1.53805e-12 1.55965e-11 4.32177e-11)
(-9.12603e-12 1.43334e-13 6.51415e-11)
(-6.27117e-12 3.19324e-12 6.26624e-11)
(-9.91632e-12 3.6417e-12 6.31275e-11)
(-2.99684e-11 6.18544e-12 5.33005e-11)
(-1.86646e-11 8.12789e-12 4.61216e-11)
(-1.73155e-11 7.18261e-12 5.44662e-11)
(-5.94547e-12 6.94213e-12 5.92733e-11)
(-1.07533e-11 8.63307e-12 5.11587e-11)
(-1.03453e-11 7.58762e-12 5.85359e-11)
(-4.59027e-11 2.84953e-11 6.99695e-11)
(-9.47276e-12 1.67176e-11 2.54132e-11)
(-1.67878e-11 2.71501e-11 8.0966e-11)
(-3.54835e-12 1.40176e-11 3.34e-11)
(-4.8339e-11 3.72449e-11 8.68852e-11)
(-2.20353e-11 2.88919e-11 9.36911e-11)
(-1.26293e-11 1.49461e-11 2.88213e-11)
(-7.8518e-11 1.77971e-11 9.40097e-11)
(-5.66951e-11 3.13374e-11 2.42905e-11)
(-3.18762e-11 8.65649e-12 3.7296e-11)
(-2.06585e-10 1.84994e-11 1.27553e-11)
(-3.17144e-11 1.55723e-11 2.93499e-11)
(-5.99174e-11 1.62614e-11 1.11483e-10)
(-4.61553e-12 1.30496e-11 3.81498e-11)
(-1.33513e-11 1.06705e-11 4.08468e-11)
(-2.05691e-11 2.09146e-11 1.32352e-10)
(-1.49278e-11 1.254e-11 3.40057e-11)
(4.14841e-10 5.67395e-10 2.47644e-11)
(2.50058e-10 4.59608e-10 3.21942e-11)
(3.36411e-10 7.97671e-10 1.92007e-11)
(4.89049e-10 3.56156e-10 1.15793e-11)
(4.22727e-10 5.67073e-10 1.57043e-11)
(3.27229e-10 7.95711e-10 2.47869e-11)
(4.78185e-10 3.65076e-10 2.36998e-11)
(4.1146e-10 5.68814e-10 3.59844e-11)
(2.39932e-10 4.69372e-10 3.47239e-11)
(3.20273e-10 7.97451e-10 4.33276e-11)
(4.89404e-10 3.62922e-10 5.97643e-11)
(4.18984e-10 5.62762e-10 5.24182e-11)
(3.18885e-10 7.97908e-10 3.45543e-11)
(4.73062e-10 3.729e-10 3.44691e-11)
(5.64581e-10 1.87051e-10 9.47229e-12)
(5.54781e-10 8.65994e-11 6.42361e-12)
(1.53958e-10 1.01474e-09 1.44705e-11)
(1.99334e-10 1.1155e-09 1.58173e-11)
(1.52893e-10 1.0116e-09 1.80974e-11)
(1.47873e-10 9.98046e-10 2.54451e-11)
(1.83986e-10 1.07898e-09 3.45483e-11)
(2.59425e-10 1.20418e-09 2.77107e-11)
(1.9217e-10 1.08222e-09 2.87545e-11)
(1.3653e-10 1.00251e-09 3.53281e-11)
(1.44517e-10 9.98515e-10 2.9264e-11)
(1.99024e-10 1.11015e-09 1.84169e-11)
(2.62315e-10 1.23299e-09 2.69247e-11)
(1.94725e-10 1.0864e-09 2.63571e-11)
(5.58744e-10 1.91907e-10 1.06719e-11)
(5.42993e-10 2.06964e-10 2.44564e-11)
(5.5872e-10 9.14889e-11 4.67839e-11)
(1.9322e-10 4.33159e-11 1.10729e-11)
(5.40272e-10 1.05641e-10 2.79827e-11)
(5.77e-10 1.87928e-10 5.99485e-11)
(5.39508e-10 2.11217e-10 2.84748e-11)
(5.47476e-10 9.42802e-11 9.45565e-12)
(1.92811e-10 4.37928e-11 7.22645e-12)
(5.45124e-10 1.00932e-10 1.91543e-11)
(-7.84982e-12 -3.52265e-12 6.43996e-11)
(-4.72398e-12 -4.41955e-12 5.93484e-11)
(-6.11383e-12 -5.3579e-12 6.04537e-11)
(-5.74568e-12 -3.86251e-12 4.50167e-11)
(-5.16762e-12 -2.11458e-12 5.06332e-11)
(-5.81721e-12 -4.28581e-12 5.23765e-11)
(-2.94394e-12 -3.90707e-12 5.57718e-11)
(-4.24165e-12 -2.35071e-12 5.38687e-11)
(-4.77351e-12 -4.57562e-12 5.60243e-11)
(-9.41397e-13 -2.85434e-12 3.99946e-11)
(-1.57712e-12 -1.90818e-12 3.78843e-11)
(-1.30902e-12 -8.62858e-13 4.33549e-11)
(-2.12203e-12 -1.29717e-12 4.90529e-11)
(-1.2529e-12 -1.32642e-12 4.38257e-11)
(-8.27222e-14 -2.65736e-12 4.67127e-11)
(-1.65287e-12 -1.76144e-12 4.99005e-11)
(-9.82645e-13 -2.0586e-12 4.48102e-11)
(-2.5556e-12 -7.72346e-13 4.25635e-11)
(-4.70767e-12 -8.85864e-13 5.08238e-11)
(-4.4984e-12 -5.83654e-13 5.11963e-11)
(-5.01642e-12 -5.49276e-13 5.40983e-11)
(-3.72965e-12 -1.03702e-12 5.29223e-11)
(-4.8108e-12 -6.98073e-13 5.4192e-11)
(-4.22723e-12 -1.05538e-12 5.39819e-11)
(-3.2431e-12 -1.26335e-12 5.33792e-11)
(-4.50215e-12 -8.12375e-13 5.42422e-11)
(3.54223e-12 -1.58675e-13 1.80177e-11)
(-1.27634e-12 -1.46506e-14 1.89737e-12)
(-1.08804e-12 -1.37302e-14 1.86786e-12)
(3.35924e-12 -9.21047e-14 1.82372e-11)
(-1.29122e-12 -1.56041e-14 1.89674e-12)
(-1.36223e-12 -1.69537e-14 1.90232e-12)
(-1.81468e-12 -4.28727e-13 3.60282e-11)
(-1.76093e-12 -4.84773e-13 3.62938e-11)
(-1.34485e-12 -6.51536e-13 4.3083e-11)
(-2.5893e-12 -5.87237e-13 4.80328e-11)
(-1.41236e-12 -5.78068e-13 4.28311e-11)
(-1.5686e-12 -4.93627e-13 4.22537e-11)
(-2.70544e-12 -5.49877e-13 4.77795e-11)
(-1.49147e-12 -5.53523e-13 4.25444e-11)
(-5.4928e-12 -2.46239e-13 5.33589e-11)
(-4.74775e-12 -3.42198e-13 5.14055e-11)
(-5.48802e-12 -2.99723e-13 5.3469e-11)
(-1.13042e-12 -2.27932e-13 4.16903e-11)
(-4.37256e-12 -2.84865e-13 5.13225e-11)
(-4.37235e-12 -2.72263e-13 5.11897e-11)
(-4.70544e-12 -3.81493e-13 5.15772e-11)
(-5.43705e-12 -3.48932e-13 5.37746e-11)
(-5.4667e-12 -3.35772e-13 5.36132e-11)
(-5.14891e-12 -4.36408e-13 5.4063e-11)
(-4.32983e-12 -5.08397e-13 5.22554e-11)
(-5.23242e-12 -3.84446e-13 5.40123e-11)
(-1.32688e-12 -2.54688e-13 4.19844e-11)
(-4.37633e-12 -2.38324e-13 5.13962e-11)
(-4.38216e-12 -2.58951e-13 5.14128e-11)
(-4.45591e-12 -4.66274e-13 5.20901e-11)
(-5.39203e-12 -3.25187e-13 5.38829e-11)
(-5.31636e-12 -3.4643e-13 5.39493e-11)
(-5.50163e-12 -2.15162e-13 5.32515e-11)
(-4.824e-12 -1.61886e-13 5.10528e-11)
(-5.51576e-12 -1.48096e-13 5.31575e-11)
(-1.02007e-12 -6.05874e-14 4.12988e-11)
(-4.32643e-12 -1.94828e-15 5.07719e-11)
(-4.34209e-12 -6.72338e-14 5.07602e-11)
(-4.83686e-12 -8.47958e-14 5.1009e-11)
(-5.5028e-12 1.79568e-15 5.31468e-11)
(-5.5172e-12 -7.2606e-14 5.31214e-11)
(-2.12009e-12 2.48377e-14 3.4863e-11)
(-2.13814e-12 8.23636e-14 3.4926e-11)
(-3.14278e-12 1.19406e-13 4.67006e-11)
(-1.90582e-12 1.17023e-13 4.1298e-11)
(-1.91596e-12 4.69368e-14 4.10839e-11)
(-3.16389e-12 1.07773e-13 4.65734e-11)
(-1.92028e-12 9.89455e-14 4.11833e-11)
(-9.09991e-13 5.79809e-15 4.13388e-11)
(-4.30976e-12 2.39719e-14 5.08188e-11)
(-4.28665e-12 5.44605e-14 5.08863e-11)
(-4.81713e-12 1.2556e-13 5.12947e-11)
(-5.46354e-12 1.02753e-13 5.33962e-11)
(-5.49296e-12 3.88708e-14 5.32031e-11)
(-4.84023e-12 9.30427e-14 5.1162e-11)
(-5.49047e-12 7.67337e-14 5.32726e-11)
(-2.90682e-11 -2.99363e-12 5.01528e-11)
(-5.01845e-12 -2.93331e-12 2.05221e-11)
(-3.77043e-11 -4.58061e-12 8.59758e-11)
(-2.67328e-12 -3.37687e-12 2.45298e-11)
(-3.46579e-11 -3.00137e-12 5.43642e-11)
(-3.20645e-11 -4.49279e-12 8.03219e-11)
(-2.62218e-12 -2.96366e-12 1.92038e-11)
(-1.34958e-11 -2.92969e-13 3.59965e-11)
(-1.68687e-11 -3.87683e-13 6.38543e-11)
(2.93498e-12 -2.31988e-13 1.85355e-11)
(4.02848e-12 -2.23754e-13 1.37274e-11)
(-1.71252e-11 -4.97296e-13 6.42718e-11)
(-1.32885e-11 -2.91592e-13 3.56026e-11)
(3.96067e-12 -1.73406e-13 1.38191e-11)
(-1.18727e-11 -8.41317e-14 3.42333e-11)
(4.607e-12 -5.63308e-15 1.31898e-11)
(-1.5615e-11 -1.16605e-13 6.24991e-11)
(3.5521e-12 -8.71593e-14 1.78926e-11)
(-1.19264e-11 -4.67617e-14 3.41194e-11)
(-1.55875e-11 -5.90763e-14 6.25596e-11)
(4.6502e-12 -8.45113e-14 1.32024e-11)
(-4.57642e-11 -2.87549e-12 6.01272e-11)
(-7.42761e-12 -3.0281e-12 2.15355e-11)
(-4.13622e-11 -3.94119e-12 8.80948e-11)
(-9.82097e-12 -2.30839e-12 2.83166e-11)
(-3.82399e-11 -2.98783e-12 5.59308e-11)
(-4.78993e-11 -3.79951e-12 9.17247e-11)
(-1.13318e-11 -2.90669e-12 2.28312e-11)
(-1.22195e-12 3.93291e-11 1.20338e-10)
(8.11711e-13 1.79511e-11 4.31672e-11)
(1.41651e-11 5.88041e-11 1.18672e-10)
(6.51041e-12 1.58576e-11 4.24612e-11)
(1.27393e-11 3.44903e-11 1.2076e-10)
(1.69448e-12 3.65117e-11 1.24234e-10)
(1.25882e-12 1.50708e-11 4.13691e-11)
(-1.19424e-11 -5.77635e-14 3.43702e-11)
(4.61746e-12 -9.1273e-14 1.31997e-11)
(-1.56007e-11 -1.06023e-13 6.25196e-11)
(3.54122e-12 -6.07616e-14 1.79534e-11)
(-1.19106e-11 -8.90013e-14 3.41165e-11)
(-1.56913e-11 -1.66001e-13 6.28211e-11)
(4.64648e-12 -1.7785e-14 1.32478e-11)
(-1.29791e-11 -2.46887e-13 3.54526e-11)
(-1.67647e-11 -3.68121e-13 6.38527e-11)
(4.09321e-12 -1.2345e-13 1.36766e-11)
(3.17336e-12 -2.08962e-13 1.83711e-11)
(-1.31702e-11 -2.25507e-13 3.54873e-11)
(-1.66042e-11 -2.86771e-13 6.37961e-11)
(4.20851e-12 -1.93479e-13 1.36479e-11)
(2.53982e-10 3.49953e-10 8.24005e-11)
(1.70111e-10 4.62495e-10 7.39968e-11)
(1.34965e-10 2.6582e-10 6.25088e-11)
(3.12403e-10 2.57914e-10 8.02974e-11)
(2.77686e-10 2.20151e-10 7.79526e-11)
(1.36859e-10 4.17783e-10 6.0805e-11)
(2.85821e-10 4.04543e-10 8.23843e-11)
(1.26905e-10 1.52179e-10 9.95582e-11)
(4.43702e-11 2.84209e-10 1.12208e-10)
(3.1486e-11 5.23126e-11 3.37239e-11)
(7.09636e-11 1.66672e-10 1.0054e-10)
(3.99957e-11 4.3832e-11 3.19218e-11)
(2.83625e-10 6.16741e-10 1.40304e-11)
(4.30664e-10 3.76002e-10 1.40053e-11)
(4.1449e-10 5.50415e-10 1.10842e-11)
(-8.68275e-10 2.55932e-10 -2.46178e-10)
(-1.7447e-09 7.0571e-10 -1.70568e-10)
(-1.79617e-11 -1.48394e-12 3.99153e-11)
(9.18945e-13 -1.39642e-12 1.98108e-11)
(-2.01285e-11 -1.70345e-12 6.55115e-11)
(2.24106e-12 -9.22513e-13 1.48381e-11)
(-1.6907e-11 -1.2101e-12 3.88815e-11)
(-2.12977e-11 -2.18413e-12 6.65416e-11)
(1.78916e-12 -1.12404e-12 1.51822e-11)
(-1.53958e-11 -8.32699e-13 3.76376e-11)
(2.05626e-12 -6.60672e-13 1.90438e-11)
(-1.94751e-11 -1.38593e-12 6.52894e-11)
(2.6067e-12 -6.59963e-13 1.45851e-11)
(-1.61267e-11 -9.76962e-13 3.81731e-11)
(-1.87862e-11 -1.09051e-12 6.49529e-11)
(2.98567e-12 -6.00086e-13 1.43967e-11)
(-1.17318e-11 -5.39384e-15 3.40938e-11)
(3.59625e-12 4.17834e-15 1.78368e-11)
(-1.54281e-11 -1.96997e-14 6.22683e-11)
(4.6868e-12 -5.50575e-14 1.31167e-11)
(-1.17269e-11 -4.04616e-14 3.39129e-11)
(-1.54689e-11 -7.55546e-14 6.24251e-11)
(4.70751e-12 2.16581e-14 1.31498e-11)
(-1.16598e-11 -4.25682e-14 3.40768e-11)
(3.64084e-12 -2.6706e-14 1.78344e-11)
(-1.53963e-11 -3.38856e-14 6.22721e-11)
(4.70814e-12 2.93616e-14 1.31121e-11)
(-1.16898e-11 -1.44061e-15 3.38922e-11)
(-1.54104e-11 1.58791e-14 6.24643e-11)
(4.76169e-12 -4.96228e-14 1.3141e-11)
(3.23438e-10 1.28599e-10 8.21445e-11)
(2.91523e-10 9.91495e-11 8.92736e-11)
(3.0249e-11 5.15418e-10 5.41989e-11)
(-5.25546e-12 4.74291e-10 2.77745e-11)
(3.41064e-10 4.68938e-10 7.11522e-11)
(1.76279e-10 5.165e-10 6.48175e-11)
(2.05457e-10 3.62785e-10 7.33504e-11)
(3.26535e-10 2.94557e-10 8.17198e-11)
(3.13537e-10 4.38317e-10 7.94974e-11)
(2.07752e-10 5.35989e-10 6.77016e-11)
(3.58332e-10 3.1189e-10 7.43691e-11)
(4.25582e-10 5.38968e-10 6.2179e-11)
(2.76381e-10 4.152e-10 4.92042e-11)
(2.66662e-10 6.26557e-10 5.15561e-11)
(4.32735e-10 3.7784e-10 5.67217e-11)
(2.78657e-10 6.11535e-10 5.32213e-11)
(4.56187e-10 3.54532e-10 6.15575e-11)
(4.11261e-10 5.53963e-10 6.1725e-11)
(2.91962e-11 5.75776e-10 4.7023e-11)
(5.96007e-11 5.96904e-10 5.81063e-11)
(1.08766e-10 6.92283e-10 4.18656e-11)
(1.1123e-10 6.79301e-10 4.38582e-11)
(3.3267e-10 1.68376e-10 8.64213e-11)
(3.64864e-10 1.80537e-10 8.61936e-11)