/*--------------------------------*- C++ -*----------------------------------*\
| =========                 |                                                 |
| \\      /  F ield         | OpenFOAM: The Open Source CFD Toolbox           |
|  \\    /   O peration     | Version:  2012                                  |
|   \\  /    A nd           | Website:  www.openfoam.com                      |
|    \\/     M anipulation  |                                                 |
\*---------------------------------------------------------------------------*/
FoamFile
{
    version     2.0;
    format      ascii;
    class       volVectorField;
    location    "0.106/solid";
    object      D_0_0;
}
// * * * * * * * * * * * * * * * * * * * * * * * * * * * * * * * * * * * * * //

dimensions      [0 1 0 0 0 0 0];


internalField   nonuniform List<vector> 
3124
(
(3.27952e-11 5.523e-11 3.72645e-11)
(2.18982e-12 -1.24213e-13 -5.30917e-12)
(-9.10661e-11 4.70387e-11 -2.97868e-12)
(-6.18488e-12 -3.51924e-12 2.78307e-11)
(2.24011e-12 -3.26701e-13 1.95478e-11)
(2.76783e-12 -1.56918e-14 1.8903e-11)
(5.01274e-12 -4.12353e-14 -6.60049e-12)
(-1.34793e-12 3.87522e-11 4.89866e-11)
(1.8046e-10 2.2733e-10 4.0906e-11)
(-4.42374e-11 3.35529e-11 1.34038e-11)
(-8.0834e-12 -3.16494e-12 2.91132e-11)
(-1.16672e-10 3.47235e-11 -8.07866e-12)
(5.06385e-12 2.07764e-11 4.85053e-11)
(-1.88485e-11 -3.36147e-12 6.04069e-11)
(-5.57938e-11 2.20527e-11 1.54185e-11)
(1.77773e-10 2.38302e-10 2.39438e-11)
(-1.31023e-11 -5.60603e-12 5.695e-11)
(-2.93515e-12 -5.50046e-13 4.43854e-11)
(2.78272e-12 -1.2455e-13 1.89201e-11)
(2.30434e-12 -1.97697e-13 1.94808e-11)
(-2.12821e-12 -1.73715e-13 4.34069e-11)
(-2.69348e-12 -4.33326e-13 4.42242e-11)
(-2.12584e-12 -1.34978e-13 4.3325e-11)
(1.45014e-11 -1.57999e-12 -2.04478e-12)
(8.5501e-11 -2.25512e-12 4.18118e-11)
(4.43699e-11 -2.60527e-11 1.74543e-12)
(1.32514e-10 3.30707e-10 7.13843e-11)
(5.6603e-11 3.33794e-11 2.30626e-11)
(9.40528e-11 1.45519e-10 8.90179e-11)
(1.5099e-10 6.12976e-10 1.9686e-10)
(3.11554e-11 2.80698e-11 1.88054e-11)
(1.76443e-10 8.70459e-11 5.02426e-11)
(-3.84871e-12 -4.20336e-13 6.17509e-11)
(-2.91906e-12 4.64553e-12 5.65239e-11)
(2.59641e-10 4.44962e-10 1.73027e-11)
(2.6953e-10 1.00579e-09 1.24037e-11)
(-3.63171e-12 -2.80748e-12 5.99967e-11)
(1.48277e-13 -2.35987e-12 5.43328e-11)
(-3.18184e-12 -3.22508e-13 4.83821e-11)
(-2.99357e-12 -4.86188e-13 4.90141e-11)
(-3.22043e-12 -2.35567e-13 4.82426e-11)
(-3.30719e-12 -3.04525e-14 4.80766e-11)
(7.14261e-12 -2.22258e-12 -2.66992e-12)
(5.06287e-12 1.27705e-11 -4.56156e-12)
(2.8922e-11 -7.33804e-12 -2.76821e-12)
(9.82197e-11 -2.99703e-11 4.63653e-11)
(6.93336e-11 -4.25711e-11 2.1601e-11)
(-1.77851e-12 2.26947e-11 -4.78904e-12)
(-9.35117e-10 3.54489e-10 -2.48353e-10)
(2.52226e-11 6.10837e-12 5.17213e-12)
(4.81993e-13 -1.24873e-12 2.07503e-11)
(8.0628e-13 -8.72979e-13 2.04815e-11)
(2.8022e-12 -5.05222e-14 1.88523e-11)
(2.81624e-12 5.52355e-14 1.88566e-11)
(1.71284e-11 5.76114e-12 5.96242e-12)
(3.71203e-12 1.33506e-11 -6.12791e-12)
(2.63565e-11 1.75319e-11 9.30273e-12)
(1.36024e-10 2.57711e-11 2.28629e-11)
(1.94536e-12 1.35998e-11 3.94811e-11)
(8.04629e-11 8.7088e-10 9.94711e-12)
(1.42937e-11 3.1913e-11 2.24055e-11)
(1.37396e-10 3.74361e-10 6.95207e-11)
(1.5808e-10 2.00028e-10 7.22488e-11)
(2.58885e-10 9.47678e-10 4.63166e-11)
(2.85218e-10 1.39403e-10 3.86828e-11)
(2.01623e-10 7.98008e-10 1.12507e-10)
(2.33744e-10 4.56025e-10 4.3897e-11)
(2.44107e-10 1.25524e-10 3.9326e-11)
(2.29396e-10 1.21225e-09 2.7321e-11)
(1.67206e-10 1.00513e-09 7.77465e-11)
(-1.02637e-12 1.90572e-11 -3.37912e-12)
(-1.41751e-12 1.47872e-11 3.22478e-11)
(1.36994e-11 2.30366e-11 1.489e-11)
(1.95808e-10 3.61206e-11 2.30374e-11)
(1.55906e-10 2.76716e-11 2.20495e-11)
(-3.40745e-11 5.87088e-12 2.99333e-11)
(-1.1937e-09 2.78912e-10 -1.35354e-10)
(-2.99459e-11 6.82577e-12 3.05047e-11)
(-1.08261e-12 1.2599e-11 3.9729e-11)
(-9.38879e-13 8.87676e-12 5.10196e-11)
(-6.99017e-12 -4.2272e-13 6.72636e-11)
(-4.01884e-11 2.06925e-13 5.41707e-11)
(-6.35941e-12 6.90102e-12 5.84602e-11)
(-6.25373e-12 1.23321e-11 3.48664e-11)
(-5.31105e-11 1.0786e-11 4.12403e-11)
(-5.22762e-12 1.01112e-11 4.96521e-11)
(2.50092e-10 4.54309e-10 2.1077e-11)
(1.77745e-10 2.43071e-10 1.18649e-11)
(2.61906e-10 9.53604e-10 3.62483e-11)
(2.7607e-10 1.54891e-10 2.53125e-11)
(2.15288e-10 4.79291e-10 4.08578e-11)
(2.69671e-10 9.94096e-10 2.06054e-11)
(2.7772e-10 1.55359e-10 1.07051e-11)
(1.86686e-10 4.36327e-11 1.71191e-12)
(2.50408e-10 1.30313e-09 1.30772e-11)
(2.3832e-10 1.21432e-09 2.50601e-11)
(2.51347e-10 1.28253e-09 1.98084e-11)
(1.91278e-10 4.16307e-11 1.82304e-11)
(1.87238e-10 4.4268e-11 3.34575e-12)
(-6.60748e-12 -3.52608e-12 6.58112e-11)
(-5.71183e-12 -2.41138e-12 4.5774e-11)
(-2.44029e-12 -2.58177e-12 5.63739e-11)
(-2.42468e-12 -1.03149e-12 5.04944e-11)
(-7.71521e-13 -2.26535e-12 5.32484e-11)
(-4.53433e-12 -1.36343e-12 4.51516e-11)
(-4.26854e-12 -9.06945e-13 5.46476e-11)
(-2.82617e-12 -1.68864e-12 5.6005e-11)
(2.69131e-12 -8.36282e-14 1.91183e-11)
(2.68475e-12 -1.89371e-13 1.91543e-11)
(-2.55738e-12 -7.83092e-13 5.01476e-11)
(-2.89954e-12 -5.55925e-13 4.92717e-11)
(-5.07144e-12 -2.93081e-13 5.30597e-11)
(-2.22528e-12 -2.61332e-13 4.37326e-11)
(-4.90522e-12 -4.49367e-13 5.3589e-11)
(-4.446e-12 -6.99285e-13 5.44026e-11)
(-2.29337e-12 -2.86449e-13 4.38556e-11)
(-4.80993e-12 -4.88101e-13 5.37803e-11)
(-5.10212e-12 -2.37739e-13 5.29346e-11)
(-2.09293e-12 -8.0089e-15 4.32522e-11)
(-5.16691e-12 -5.27543e-16 5.28133e-11)
(-3.32491e-12 5.77309e-14 4.81245e-11)
(-2.07395e-12 1.98657e-14 4.32897e-11)
(-5.18098e-12 5.42676e-14 5.28791e-11)
(1.34174e-10 2.6496e-12 8.17113e-11)
(4.4993e-11 1.63694e-11 1.36705e-11)
(-1.35201e-12 1.31586e-13 4.681e-11)
(-1.30078e-12 1.41522e-12 4.64157e-11)
(-5.05784e-13 -1.37589e-12 4.57828e-11)
(4.69232e-13 -7.21171e-13 4.4669e-11)
(-1.90286e-12 -2.70442e-13 3.65541e-11)
(-1.86504e-12 -3.41194e-13 3.67481e-11)
(-1.93784e-12 -2.19563e-13 3.64102e-11)
(-1.98322e-12 -1.5683e-13 3.63021e-11)
(2.69101e-11 2.70653e-12 -1.49859e-11)
(2.33669e-12 -6.03233e-13 -3.3365e-12)
(4.33031e-12 2.86009e-12 -7.92282e-12)
(4.60908e-12 3.71135e-12 -2.10471e-11)
(2.11941e-11 1.08093e-11 -3.45432e-11)
(6.01966e-12 7.55223e-13 -5.14117e-12)
(4.85499e-12 7.33721e-13 -8.16278e-12)
(-1.8533e-10 1.99602e-10 -8.90055e-11)
(-2.40117e-10 1.157e-10 -7.96438e-11)
(-5.44567e-11 4.50428e-11 1.16407e-12)
(-1.88873e-10 7.6074e-11 -1.89454e-11)
(-1.19579e-10 1.05714e-10 6.09408e-12)
(-5.86112e-10 2.33934e-10 -2.13009e-10)
(-8.59262e-11 6.92702e-11 -7.58362e-12)
(-1.6133e-11 -2.57133e-13 3.86291e-12)
(-1.46736e-12 -3.10895e-12 2.34705e-11)
(-8.71272e-12 -2.7747e-13 2.95205e-12)
(1.88399e-12 -3.79727e-13 1.98331e-11)
(-3.30195e-12 -3.5044e-14 2.21762e-12)
(-3.68532e-12 -5.29007e-14 2.26959e-12)
(-2.51908e-12 -8.87462e-15 2.09958e-12)
(2.8024e-12 -8.79079e-14 1.88835e-11)
(-2.41408e-12 -4.9043e-15 2.07243e-12)
(2.89043e-12 5.02766e-14 1.89132e-11)
(-2.30953e-12 -5.6626e-15 2.05852e-12)
(7.62098e-11 1.66819e-11 -2.75688e-11)
(1.0494e-11 7.27793e-13 -4.06794e-12)
(8.70243e-12 2.73671e-12 -1.11804e-11)
(5.61707e-12 4.52253e-12 -2.44797e-11)
(2.09357e-11 1.1831e-11 -5.00457e-11)
(1.92792e-11 2.66142e-12 -7.78245e-12)
(1.57864e-11 5.54122e-12 -2.4339e-11)
(5.2087e-11 1.3232e-10 2.10764e-10)
(-2.64042e-12 2.55501e-11 5.18435e-11)
(-2.51014e-11 6.99804e-11 1.61319e-10)
(-1.14771e-11 3.82541e-11 5.26698e-11)
(-4.22643e-11 4.44878e-11 1.5311e-11)
(-1.91262e-10 7.69717e-11 3.07489e-11)
(-3.03365e-11 3.48664e-11 4.22592e-12)
(-2.34061e-11 2.65074e-11 2.08786e-11)
(-9.89583e-11 8.55559e-11 -1.32011e-11)
(-8.0567e-11 4.03691e-11 8.11947e-11)
(-1.25068e-11 2.75895e-11 1.00048e-11)
(-1.97697e-11 -2.00409e-13 4.07526e-12)
(-1.84247e-11 -1.02344e-12 3.18774e-11)
(-3.80451e-11 1.69992e-13 5.79322e-12)
(-5.33732e-10 9.19465e-12 -2.01941e-10)
(-2.94059e-10 7.97138e-11 -4.88637e-11)
(-3.13441e-10 6.6847e-11 -1.58952e-11)
(-1.08883e-10 2.41861e-11 -3.70607e-13)
(-7.79201e-10 1.535e-10 -3.63101e-10)
(-2.70508e-10 2.11452e-11 -2.64237e-11)
(-2.56689e-10 2.66069e-11 -1.25655e-11)
(-1.38167e-11 -1.30163e-12 6.55362e-11)
(-2.5774e-11 -1.63129e-13 6.13712e-11)
(-1.65397e-11 2.28157e-12 6.39437e-11)
(-9.06287e-11 2.36417e-11 7.93444e-11)
(-2.22982e-10 6.10869e-11 1.29139e-11)
(-2.94938e-11 1.70468e-11 2.76171e-11)
(-5.59192e-11 1.98215e-11 1.78205e-11)
(-8.62892e-11 3.5353e-11 1.00435e-10)
(-2.06051e-10 2.20067e-11 1.72079e-11)
(-3.00244e-11 1.23587e-11 2.94666e-11)
(-1.0793e-11 -4.70576e-12 6.4023e-11)
(-9.27522e-12 -5.79868e-12 5.17768e-11)
(-8.18686e-12 -5.986e-12 5.94264e-11)
(-1.54467e-12 -7.35639e-13 3.85092e-11)
(-1.57367e-12 -1.17065e-12 3.87934e-11)
(-3.2563e-12 -7.0433e-13 4.46105e-11)
(-5.1497e-12 -5.07395e-13 5.34262e-11)
(-5.19265e-12 -6.3075e-13 5.34524e-11)
(-2.51399e-12 -1.02489e-14 2.09731e-12)
(2.78591e-12 -5.40958e-14 1.90063e-11)
(-2.47232e-12 -1.31693e-14 2.08849e-12)
(-3.23165e-12 -3.07582e-14 2.21273e-12)
(2.55104e-12 -2.36339e-13 1.93303e-11)
(-2.85962e-12 -2.29947e-14 2.14229e-12)
(-1.54382e-12 -5.97054e-13 3.83173e-11)
(-1.58789e-12 -5.52915e-13 3.80671e-11)
(-5.05513e-12 -2.09281e-13 5.27866e-11)
(-2.15586e-12 -2.02287e-13 4.35142e-11)
(-5.05539e-12 -2.55416e-13 5.28926e-11)
(-5.11178e-12 -4.21035e-13 5.34151e-11)
(-2.52866e-12 -3.69887e-13 4.41021e-11)
(-5.08148e-12 -3.71654e-13 5.33719e-11)
(-5.05647e-12 -1.8043e-13 5.26894e-11)
(-2.13606e-12 -9.54805e-14 4.32838e-11)
(-5.06113e-12 -1.14447e-13 5.26176e-11)
(-2.07611e-12 8.1995e-14 3.63449e-11)
(-2.04688e-12 -4.18335e-15 4.34392e-11)
(-5.03129e-12 4.22758e-14 5.28864e-11)
(9.22817e-11 1.44431e-12 1.17198e-11)
(2.75669e-11 1.88218e-11 7.97927e-12)
(2.39855e-11 -5.00513e-12 -2.09275e-12)
(3.1427e-11 -5.00237e-12 -1.35425e-12)
(6.79703e-11 -2.14167e-11 3.93402e-12)
(4.60536e-11 7.64824e-12 4.99633e-12)
(6.08735e-11 3.69493e-11 2.35862e-11)
(1.34939e-10 -2.43138e-11 7.62825e-11)
(2.23027e-10 -5.75445e-11 1.40918e-10)
(6.89661e-11 -4.06643e-11 1.6725e-11)
(1.6284e-10 -1.61153e-10 8.84374e-11)
(4.04877e-11 3.58458e-12 8.88424e-12)
(1.15794e-10 -3.24234e-11 4.69664e-11)
(1.214e-10 -7.56121e-11 7.37408e-12)
(3.04351e-11 -1.39358e-11 -8.39305e-13)
(5.37467e-11 -4.58709e-11 6.73999e-12)
(7.76887e-11 -3.19248e-11 1.10772e-11)
(1.62128e-10 -1.70516e-10 8.15865e-11)
(4.29641e-11 -1.5611e-11 4.71638e-12)
(1.787e-10 2.45147e-10 9.57833e-11)
(1.72557e-10 5.83041e-10 1.12126e-10)
(4.58729e-11 2.01157e-10 5.20805e-11)
(3.18669e-10 2.41554e-10 6.3626e-11)
(2.2643e-10 1.44308e-10 5.81671e-11)
(1.01524e-10 4.20404e-10 1.14041e-10)
(2.65839e-10 4.0372e-10 9.33275e-11)
(1.10766e-10 1.3612e-10 8.03749e-11)
(8.36764e-11 8.87261e-11 6.24706e-11)
(3.94537e-11 2.21104e-11 1.84535e-11)
(3.14633e-11 4.8041e-11 2.60835e-11)
(1.24193e-10 7.84874e-11 6.02499e-11)
(8.15841e-11 1.83419e-10 7.89885e-11)
(3.81228e-11 3.85632e-11 2.67549e-11)
(-7.04387e-13 -1.61871e-13 4.64495e-11)
(-3.71968e-13 3.15588e-12 4.52578e-11)
(-1.38669e-12 -1.44052e-13 5.50467e-11)
(-3.91108e-12 2.22172e-12 6.14726e-11)
(-1.49631e-12 1.96818e-12 5.47684e-11)
(-8.54251e-14 1.97942e-12 5.23538e-11)
(-3.75691e-12 5.46953e-12 5.92731e-11)
(-1.06873e-12 4.39105e-12 5.30378e-11)
(3.30659e-10 8.11716e-10 1.0553e-11)
(4.8682e-10 3.56618e-10 7.84747e-12)
(4.17411e-10 5.77228e-10 7.94554e-12)
(-1.11945e-12 -2.09216e-12 5.33816e-11)
(-2.59252e-12 -3.18233e-12 5.7305e-11)
(-4.44256e-13 -1.71111e-12 5.143e-11)
(3.29689e-13 -2.57126e-12 4.47803e-11)
(1.00103e-12 -8.13717e-13 4.56562e-11)
(-6.24269e-13 -2.73473e-12 5.54881e-11)
(1.19136e-12 -2.37158e-12 5.08602e-11)
(1.07919e-12 -1.41574e-12 5.14489e-11)
(-1.75319e-12 -4.33016e-13 3.72079e-11)
(-1.81681e-12 -3.78046e-13 3.69646e-11)
(-1.7852e-12 -3.11276e-13 4.29054e-11)
(-3.11645e-12 -3.99003e-13 4.8587e-11)
(-1.73733e-12 -3.87532e-13 4.31201e-11)
(-1.60968e-12 -4.81339e-13 4.35786e-11)
(-3.05798e-12 -4.32716e-13 4.87993e-11)
(-1.68031e-12 -4.24565e-13 4.33441e-11)
(-1.82423e-12 -2.32971e-13 4.27584e-11)
(-3.23917e-12 -1.6533e-13 4.81655e-11)
(-1.86371e-12 -1.66809e-13 4.26708e-11)
(-2.03828e-12 -3.89766e-14 3.61739e-11)
(-2.01622e-12 -1.19636e-13 3.62218e-11)
(-3.2678e-12 -1.11108e-13 4.81089e-11)
(-1.92411e-12 -4.00413e-14 4.25519e-11)
(-1.89718e-12 -1.20097e-13 4.26007e-11)
(3.21666e-11 -1.60139e-12 -1.17524e-11)
(4.4269e-12 -1.44377e-12 -2.43515e-12)
(1.62838e-11 -4.57864e-12 -3.49428e-12)
(1.79689e-11 -4.11651e-12 -5.61928e-12)
(5.64771e-11 -1.73269e-11 -1.09237e-12)
(1.02731e-11 -2.02716e-12 -3.99257e-12)
(5.9766e-12 -2.15353e-13 -4.58242e-12)
(3.13041e-11 5.86404e-12 -1.61257e-11)
(5.86706e-12 7.39684e-12 -6.01963e-12)
(8.148e-12 3.61782e-11 -1.48559e-11)
(9.96299e-12 1.02788e-11 -6.12563e-12)
(3.13532e-11 3.52293e-11 -3.0434e-11)
(2.17613e-11 1.39623e-11 -2.64552e-11)
(9.71323e-12 3.98792e-12 -5.07855e-12)
(3.82956e-11 5.64812e-13 -1.32711e-11)
(1.1389e-10 -4.60637e-11 5.24082e-12)
(2.21054e-11 -6.46879e-12 -2.79962e-12)
(1.67523e-11 3.67062e-12 -6.05301e-12)
(6.72053e-11 -2.36481e-11 3.80206e-12)
(4.7816e-11 2.5773e-11 -2.97235e-11)
(1.50501e-11 -7.72673e-13 -4.52029e-12)
(2.70254e-10 -7.43805e-11 1.60917e-10)
(4.75783e-11 -4.50467e-11 1.10073e-11)
(1.96512e-10 -2.34073e-10 1.25166e-10)
(-6.18573e-11 3.79827e-11 3.94387e-11)
(7.59622e-11 -3.62998e-11 3.58231e-10)
(1.66939e-10 -1.12842e-10 4.82142e-11)
(1.10082e-10 -1.28244e-10 3.2968e-11)
(1.04885e-10 -7.66601e-11 8.5278e-11)
(2.18234e-10 -2.75986e-10 9.07154e-11)
(2.16837e-10 -1.30667e-10 3.59512e-10)
(-9.84731e-11 1.51015e-10 -7.43808e-11)
(-2.08378e-11 3.79974e-11 -2.52931e-12)
(-3.42167e-12 4.78955e-11 -1.90304e-11)
(1.8972e-12 2.39298e-11 -9.11847e-12)
(2.04593e-11 5.45318e-11 -3.85415e-11)
(-7.94114e-11 9.40302e-11 -9.20792e-12)
(-2.6113e-11 4.89817e-11 -9.95671e-12)
(-1.89432e-10 2.27779e-10 -7.19108e-11)
(-3.81304e-10 1.70468e-10 -3.21126e-11)
(-1.05927e-09 1.99299e-10 -2.17091e-09)
(-2.33922e-10 1.53763e-10 -1.80541e-12)
(-5.27174e-11 1.03802e-10 7.99561e-11)
(-8.03861e-10 3.69531e-10 -2.67376e-10)
(-1.51822e-10 1.21041e-10 -8.06968e-12)
(-4.56098e-11 1.32902e-10 -6.93862e-11)
(1.41161e-10 -5.44813e-11 1.93506e-11)
(8.19141e-12 1.99693e-11 -7.77135e-12)
(-1.00727e-11 9.8191e-12 9.1115e-12)
(4.19116e-11 4.71147e-11 -3.86542e-11)
(9.2263e-11 1.9762e-11 1.17022e-10)
(-3.37148e-11 4.95142e-11 -1.07876e-11)
(-1.20126e-12 -2.51874e-12 2.2516e-11)
(-5.3765e-12 -1.4049e-13 2.54245e-12)
(-7.71488e-12 -2.58141e-13 2.87298e-12)
(1.71999e-12 -5.49715e-13 1.99521e-11)
(-4.95879e-12 -1.13451e-13 2.48048e-12)
(-3.88215e-12 -6.2757e-14 2.30258e-12)
(2.80557e-12 2.17738e-14 1.88763e-11)
(-2.46056e-12 -1.1887e-15 2.08655e-12)
(-2.40062e-12 -4.24142e-15 2.06865e-12)
(2.86733e-12 -4.31132e-14 1.89026e-11)
(-2.44849e-12 -6.40006e-16 2.08479e-12)
(-2.32636e-12 -3.10888e-15 2.06172e-12)
(4.14662e-10 1.09661e-10 7.95007e-11)
(2.12123e-10 9.02151e-11 3.40879e-11)
(3.29202e-11 3.31877e-11 -1.74384e-11)
(1.32466e-11 3.92141e-12 2.01163e-12)
(2.30973e-11 1.81727e-11 3.05323e-12)
(5.35171e-11 5.84142e-12 1.54495e-11)
(3.58346e-11 3.89591e-11 -4.40969e-11)
(2.078e-11 8.47692e-12 -1.88676e-13)
(3.74911e-11 1.54946e-11 9.35718e-12)
(6.41109e-11 1.35443e-11 -4.80719e-11)
(6.89871e-12 8.31125e-12 -9.81777e-12)
(7.04825e-12 3.22341e-11 -1.85282e-11)
(1.13196e-11 1.29813e-11 -7.74661e-12)
(2.11076e-11 1.39905e-11 -4.17231e-11)
(1.73021e-11 2.16921e-11 -3.89978e-11)
(1.80577e-11 5.96498e-12 -1.03476e-11)
(4.44376e-11 7.38353e-12 -5.27608e-11)
(6.02418e-11 6.55956e-11 4.03896e-11)
(3.22029e-11 1.86503e-11 8.61926e-12)
(2.23618e-11 1.09071e-11 -2.18306e-12)
(1.39909e-10 7.02013e-11 2.46893e-11)
(2.61902e-11 2.20892e-11 -3.58992e-11)
(2.84548e-11 5.88342e-12 -2.22585e-12)
(4.04774e-10 2.63577e-11 9.59531e-11)
(8.75415e-11 7.53544e-12 1.74333e-11)
(1.1939e-10 2.92777e-11 3.60446e-11)
(8.97272e-12 8.18348e-10 6.14133e-11)
(2.70691e-11 4.29257e-10 1.21655e-10)
(-5.36439e-11 1.38769e-10 2.24338e-10)
(1.00553e-10 8.64827e-11 2.73466e-10)
(2.90611e-11 4.62809e-11 3.56131e-11)
(3.56308e-11 2.42363e-10 1.26674e-10)
(-4.57176e-12 4.87382e-11 3.95628e-11)
(1.94263e-11 9.08425e-11 2.20751e-10)
(2.09989e-12 1.40693e-11 4.69602e-11)
(-1.70113e-11 3.13661e-11 1.3135e-10)
(7.80014e-12 2.14387e-11 4.09672e-11)
(-9.54685e-12 4.89732e-11 1.40097e-10)
(6.9257e-13 4.14884e-11 1.30662e-10)
(5.05353e-12 2.94017e-11 5.1644e-11)
(4.66023e-11 8.73753e-10 6.96892e-11)
(9.13151e-11 2.8074e-10 1.24648e-10)
(3.11057e-11 4.33949e-10 1.44753e-10)
(-1.87954e-12 1.36411e-10 2.32181e-10)
(3.88414e-11 9.50263e-11 3.23751e-11)
(2.06594e-11 3.71766e-11 2.68838e-11)
(6.33788e-12 3.43345e-11 3.40359e-11)
(5.83288e-11 1.58651e-10 1.49064e-10)
(-5.4494e-12 5.27545e-11 1.47559e-10)
(4.42748e-12 4.84833e-11 3.98959e-11)
(3.74456e-10 5.27018e-10 7.25764e-11)
(2.20918e-10 6.9456e-10 8.07491e-11)
(2.13649e-10 4.13881e-10 6.95781e-11)
(3.85042e-10 2.89356e-10 7.41302e-11)
(3.15628e-10 4.70647e-10 8.97564e-11)
(2.70823e-10 7.5575e-10 6.94187e-11)
(4.52578e-10 3.21548e-10 5.88756e-11)
(4.07429e-10 5.47067e-10 6.53491e-11)
(2.3873e-10 4.11209e-10 6.37121e-11)
(3.08199e-10 8.09705e-10 5.42407e-11)
(4.95768e-10 3.54901e-10 6.67969e-11)
(3.03433e-10 7.87368e-10 5.91109e-11)
(4.98316e-10 3.27791e-10 6.19982e-11)
(4.13253e-10 5.70144e-10 6.11487e-11)
(3.27997e-11 8.81343e-10 4.72404e-11)
(8.61882e-11 9.79082e-10 4.70694e-11)
(2.1754e-10 1.191e-09 3.66989e-11)
(1.60723e-10 1.10245e-09 3.60464e-11)
(1.44117e-10 1.07376e-09 4.54069e-11)
(7.85365e-11 9.3258e-10 6.20984e-11)
(1.93309e-10 1.13807e-09 4.31336e-11)
(1.31622e-10 1.05329e-09 4.8298e-11)
(1.1267e-10 1.02558e-09 3.8944e-11)
(9.91878e-11 9.96403e-10 4.38605e-11)
(-2.94819e-11 4.25712e-11 1.35038e-11)
(-1.34698e-11 2.78197e-11 -1.62562e-12)
(-3.67307e-12 4.14105e-11 -1.8639e-11)
(5.18524e-12 1.84332e-11 -1.1141e-12)
(-6.66301e-11 7.65677e-11 -2.50889e-11)
(6.15466e-12 2.685e-11 -1.64644e-11)
(-1.15977e-12 2.22632e-11 3.36154e-12)
(-3.21007e-11 3.90184e-11 4.28153e-11)
(-9.87801e-12 1.94998e-11 2.59992e-11)
(-2.35575e-11 2.95316e-11 1.17899e-10)
(5.68092e-12 1.86692e-11 2.97962e-11)
(-1.26713e-11 4.14708e-11 1.14073e-10)
(-5.92936e-11 3.43816e-11 8.76692e-11)
(-6.27067e-13 2.09222e-11 1.92808e-11)
(-2.25611e-11 3.77426e-11 3.80386e-11)
(3.11222e-11 6.34983e-11 5.10617e-11)
(1.22567e-11 1.90686e-11 5.30126e-12)
(9.80478e-12 2.37458e-11 2.49102e-11)
(1.11518e-11 2.56726e-11 -1.22071e-11)
(-8.82982e-12 4.36108e-11 1.17171e-10)
(6.81403e-12 2.10158e-11 1.35344e-11)
(4.34832e-10 1.42207e-10 7.8317e-11)
(5.58624e-10 1.45674e-10 5.74973e-11)
(5.91577e-10 6.24786e-11 5.50587e-11)
(1.94686e-10 3.17885e-11 1.9592e-11)
(5.98871e-10 4.36735e-11 4.65516e-11)
(5.78111e-10 1.81556e-10 6.31338e-11)
(5.9035e-10 1.45011e-10 5.74737e-11)
(4.29083e-10 6.78788e-11 4.79275e-11)
(1.79698e-10 3.09487e-11 2.11503e-11)
(5.42496e-10 4.99615e-11 5.3378e-11)
(-2.24676e-11 1.24471e-13 3.21116e-11)
(-7.01077e-11 2.38182e-12 8.2575e-12)
(-4.61163e-11 5.09944e-13 6.43563e-12)
(-6.12603e-10 4.39595e-12 -2.96724e-10)
(-6.72424e-10 1.61466e-10 5.99061e-11)
(-3.70335e-09 -1.41028e-10 -7.82877e-10)
(-5.46249e-10 -4.86778e-13 5.14718e-11)
(-1.13748e-09 1.58375e-10 -3.61779e-10)
(-1.01005e-10 7.00057e-10 6.42733e-10)
(-5.18775e-10 -4.69996e-11 4.93353e-11)
(-4.08234e-10 4.09284e-11 -6.60533e-11)
(-3.79087e-11 1.50506e-11 1.24526e-11)
(-6.99925e-11 1.16422e-11 8.01049e-12)
(-2.41031e-10 2.44751e-11 3.00793e-11)
(-8.89029e-11 1.60257e-11 1.92345e-12)
(-4.4186e-10 8.4819e-11 -1.48361e-10)
(-3.37115e-10 4.96117e-11 -2.27476e-11)
(-2.78789e-10 6.99025e-10 1.0597e-11)
(-1.32054e-10 3.44357e-13 -1.49287e-12)
(-1.68158e-12 3.41474e-11 1.66748e-10)
(9.31164e-12 6.51189e-12 4.40466e-11)
(5.24745e-12 1.78356e-11 4.66429e-11)
(-3.53251e-13 3.16163e-11 1.65467e-10)
(1.6846e-12 8.00322e-12 4.85611e-11)
(-1.49185e-12 1.32136e-11 4.60413e-11)
(-1.7217e-11 2.17083e-11 1.56152e-10)
(4.60763e-13 1.5313e-11 4.66154e-11)
(-1.01346e-11 -4.6971e-13 6.87532e-11)
(-7.05415e-12 2.62844e-12 6.64362e-11)
(-1.10481e-11 2.99505e-12 6.71852e-11)
(-3.22377e-11 5.86995e-12 5.83327e-11)
(-1.98544e-11 7.75864e-12 5.14768e-11)
(-1.89744e-11 6.62803e-12 5.91832e-11)
(-6.807e-12 6.42602e-12 6.346e-11)
(-1.18416e-11 7.97554e-12 5.62176e-11)
(-1.15605e-11 7.01771e-12 6.30923e-11)
(-5.07117e-11 2.33266e-11 8.50633e-11)
(-1.61331e-11 1.39686e-11 3.1521e-11)
(-2.52497e-11 2.42401e-11 9.58175e-11)
(-6.07764e-12 1.24028e-11 3.83928e-11)
(-6.40229e-11 3.12253e-11 1.08409e-10)
(-2.63294e-11 2.64428e-11 1.08899e-10)
(-1.58631e-11 1.20002e-11 3.44145e-11)
(-7.58906e-11 1.26973e-11 1.15306e-10)
(-5.16977e-11 2.91561e-11 3.08787e-11)
(-3.21779e-11 8.61567e-12 4.22246e-11)
(-1.88236e-10 1.26647e-11 4.22882e-11)
(-3.14599e-11 1.26873e-11 3.49266e-11)
(-5.95617e-11 1.20435e-11 1.28934e-10)
(-5.84161e-12 1.18554e-11 4.26671e-11)
(-1.37093e-11 1.00719e-11 4.55693e-11)
(-2.2344e-11 1.96304e-11 1.48194e-10)
(-1.55704e-11 1.06169e-11 3.88321e-11)
(4.00849e-10 5.79063e-10 2.21923e-11)
(2.27836e-10 4.74076e-10 3.21627e-11)
(3.20943e-10 8.11654e-10 1.73985e-11)
(4.74848e-10 3.65229e-10 1.00195e-11)
(4.10407e-10 5.77579e-10 1.34509e-11)
(3.09862e-10 8.11072e-10 2.27972e-11)
(4.61999e-10 3.75314e-10 2.18772e-11)
(3.95683e-10 5.81395e-10 3.33108e-11)
(2.16484e-10 4.84571e-10 3.47898e-11)
(2.98382e-10 8.16401e-10 4.13155e-11)
(4.68578e-10 3.75963e-10 5.76765e-11)
(4.00986e-10 5.771e-10 4.9693e-11)
(2.9936e-10 8.14808e-10 3.25168e-11)
(4.54901e-10 3.84074e-10 3.25317e-11)
(5.50457e-10 1.93829e-10 8.60412e-12)
(5.43883e-10 9.09791e-11 5.63886e-12)
(1.38506e-10 1.03074e-09 1.33535e-11)
(1.85333e-10 1.13165e-09 1.4298e-11)
(1.3667e-10 1.02798e-09 1.69969e-11)
(1.28854e-10 1.01686e-09 2.43751e-11)
(1.6271e-10 1.10198e-09 3.3227e-11)
(2.44522e-10 1.22488e-09 2.5716e-11)
(1.73959e-10 1.10192e-09 2.72063e-11)
(1.13068e-10 1.02565e-09 3.45371e-11)
(1.24431e-10 1.01811e-09 2.82646e-11)
(1.8431e-10 1.12669e-09 1.68722e-11)
(2.48917e-10 1.25194e-09 2.4772e-11)
(1.77441e-10 1.10534e-09 2.47639e-11)
(5.44052e-10 1.98812e-10 9.76557e-12)
(5.25189e-10 2.15199e-10 2.3329e-11)
(5.41125e-10 9.83482e-11 4.54423e-11)
(1.88106e-10 4.47205e-11 1.05352e-11)
(5.25329e-10 1.1136e-10 2.67941e-11)
(5.54e-10 1.98704e-10 5.864e-11)
(5.20845e-10 2.19756e-10 2.73303e-11)
(5.35739e-10 9.885e-11 8.57093e-12)
(1.88154e-10 4.50589e-11 6.76812e-12)
(5.31459e-10 1.06195e-10 1.80657e-11)
(-8.72329e-12 -4.06978e-12 6.76401e-11)
(-5.18654e-12 -4.81159e-12 6.21759e-11)
(-6.85732e-12 -5.81367e-12 6.33966e-11)
(-7.17971e-12 -4.20471e-12 4.77756e-11)
(-6.02794e-12 -2.40813e-12 5.3095e-11)
(-6.75904e-12 -4.65761e-12 5.50236e-11)
(-3.31442e-12 -4.22976e-12 5.84234e-11)
(-4.80516e-12 -2.65514e-12 5.64094e-11)
(-5.40893e-12 -4.94754e-12 5.874e-11)
(-8.14624e-13 -2.99926e-12 4.17985e-11)
(-1.44649e-12 -2.02902e-12 3.96056e-11)
(-1.27352e-12 -9.70198e-13 4.51355e-11)
(-2.21466e-12 -1.44814e-12 5.1067e-11)
(-1.22054e-12 -1.45464e-12 4.56697e-11)
(-6.64941e-14 -2.8467e-12 4.87363e-11)
(-1.75574e-12 -1.94802e-12 5.2004e-11)
(-9.56205e-13 -2.21535e-12 4.6731e-11)
(-3.74709e-12 -9.41687e-13 4.48597e-11)
(-5.51214e-12 -1.12195e-12 5.31441e-11)
(-5.26335e-12 -7.75218e-13 5.34015e-11)
(-5.48044e-12 -6.83622e-13 5.61977e-11)
(-3.9928e-12 -1.20362e-12 5.50592e-11)
(-5.28836e-12 -8.6624e-13 5.63678e-11)
(-4.75097e-12 -1.30997e-12 5.63775e-11)
(-3.52006e-12 -1.47006e-12 5.56136e-11)
(-4.9994e-12 -1.02164e-12 5.65157e-11)
(2.78338e-12 -1.64006e-13 1.90358e-11)
(-2.69158e-12 -1.66747e-14 2.12207e-12)
(-2.49817e-12 -1.46995e-14 2.09527e-12)
(2.59318e-12 -1.21557e-13 1.9284e-11)
(-2.70958e-12 -1.82395e-14 2.12207e-12)
(-2.79621e-12 -2.10558e-14 2.13139e-12)
(-1.69889e-12 -4.752e-13 3.74723e-11)
(-1.64083e-12 -5.39843e-13 3.77699e-11)
(-1.30884e-12 -7.42218e-13 4.48092e-11)
(-2.6734e-12 -6.75086e-13 4.98662e-11)
(-1.37808e-12 -6.55203e-13 4.45112e-11)
(-1.53828e-12 -5.48086e-13 4.38592e-11)
(-2.78772e-12 -6.25522e-13 4.95693e-11)
(-1.45896e-12 -6.1945e-13 4.41847e-11)
(-5.95286e-12 -2.54997e-13 5.52072e-11)
(-5.00502e-12 -3.63608e-13 5.3208e-11)
(-5.94137e-12 -3.13897e-13 5.53234e-11)
(-2.1915e-12 -2.41337e-13 4.36268e-11)
(-5.05898e-12 -3.06439e-13 5.31331e-11)
(-5.0553e-12 -2.83868e-13 5.30131e-11)
(-4.95467e-12 -4.11416e-13 5.33919e-11)
(-5.86907e-12 -3.78789e-13 5.56296e-11)
(-5.91291e-12 -3.54422e-13 5.54728e-11)
(-5.60411e-12 -5.45163e-13 5.61033e-11)
(-4.57775e-12 -6.03595e-13 5.42046e-11)
(-5.68264e-12 -4.80316e-13 5.6008e-11)
(-2.39224e-12 -3.12816e-13 4.39791e-11)
(-5.06747e-12 -3.14754e-13 5.32334e-11)
(-5.07306e-12 -3.38367e-13 5.33114e-11)
(-4.6947e-12 -5.51842e-13 5.39898e-11)
(-5.82096e-12 -3.9409e-13 5.57546e-11)
(-5.7571e-12 -4.47662e-13 5.58812e-11)
(-5.96944e-12 -2.17894e-13 5.50972e-11)
(-5.10196e-12 -1.64954e-13 5.28373e-11)
(-5.99186e-12 -1.45734e-13 5.5004e-11)
(-2.12475e-12 -4.51014e-14 4.32604e-11)
(-5.05763e-12 1.38851e-14 5.26161e-11)
(-5.06169e-12 -5.47695e-14 5.25928e-11)
(-5.12243e-12 -8.32129e-14 5.27946e-11)
(-5.99802e-12 1.31099e-14 5.50064e-11)
(-6.00231e-12 -6.54909e-14 5.49722e-11)
(-2.05692e-12 1.49511e-14 3.61881e-11)
(-2.0786e-12 7.02627e-14 3.62504e-11)
(-3.29399e-12 9.25648e-14 4.83817e-11)
(-1.93839e-12 9.2325e-14 4.28044e-11)
(-1.94095e-12 4.07559e-14 4.25822e-11)
(-3.31155e-12 1.00685e-13 4.82453e-11)
(-1.94935e-12 8.91242e-14 4.26849e-11)
(-2.0704e-12 1.97118e-14 4.33594e-11)
(-5.05452e-12 3.96111e-14 5.26783e-11)
(-5.04578e-12 6.53178e-14 5.27647e-11)
(-5.1347e-12 9.78512e-14 5.31203e-11)
(-5.99169e-12 7.94535e-14 5.53032e-11)
(-5.99998e-12 4.9397e-14 5.50755e-11)
(-5.15166e-12 9.00065e-14 5.2974e-11)
(-6.00878e-12 8.08818e-14 5.51616e-11)
(-3.30968e-11 -3.26543e-12 5.41455e-11)
(-6.62298e-12 -3.20482e-12 2.21152e-11)
(-4.17187e-11 -5.03352e-12 9.10099e-11)
(-3.84943e-12 -3.65697e-12 2.62281e-11)
(-3.88248e-11 -3.30367e-12 5.84852e-11)
(-3.58073e-11 -4.87792e-12 8.50983e-11)
(-4.13238e-12 -3.18708e-12 2.07095e-11)
(-1.61621e-11 -3.52058e-13 3.86135e-11)
(-1.93137e-11 -4.66629e-13 6.69271e-11)
(2.12909e-12 -2.90101e-13 1.9654e-11)
(3.01645e-12 -2.64808e-13 1.47062e-11)
(-1.96171e-11 -5.84807e-13 6.73942e-11)
(-1.59154e-11 -3.44376e-13 3.81823e-11)
(2.93305e-12 -2.18303e-13 1.48123e-11)
(-1.43731e-11 -7.97995e-14 3.66425e-11)
(3.63066e-12 -6.79618e-16 1.41005e-11)
(-1.79411e-11 -1.10486e-13 6.53414e-11)
(2.77823e-12 -8.12062e-14 1.8917e-11)
(-1.44177e-11 -4.24638e-14 3.65223e-11)
(-1.79247e-11 -5.11073e-14 6.54121e-11)
(3.6694e-12 -7.93447e-14 1.41155e-11)
(-5.05171e-11 -3.22722e-12 6.49147e-11)
(-9.16925e-12 -3.30974e-12 2.32806e-11)
(-4.5665e-11 -4.41266e-12 9.35701e-11)
(-1.12913e-11 -2.67801e-12 3.03889e-11)
(-4.29446e-11 -3.31873e-12 6.06339e-11)
(-5.24521e-11 -4.30678e-12 9.74788e-11)
(-1.31315e-11 -3.21057e-12 2.46581e-11)
(-3.18131e-12 4.01976e-11 1.30084e-10)
(-1.11595e-13 1.82337e-11 4.61939e-11)
(1.26773e-11 6.08406e-11 1.27307e-10)
(5.07062e-12 1.62754e-11 4.5943e-11)
(1.05591e-11 3.53228e-11 1.30732e-10)
(2.73648e-13 3.76262e-11 1.33134e-10)
(6.11491e-14 1.51421e-11 4.47002e-11)
(-1.44205e-11 -5.64635e-14 3.67649e-11)
(3.64465e-12 -8.92087e-14 1.41086e-11)
(-1.79207e-11 -1.03043e-13 6.53582e-11)
(2.77743e-12 -5.99107e-14 1.8972e-11)
(-1.43946e-11 -8.80364e-14 3.65147e-11)
(-1.80061e-11 -1.65955e-13 6.56592e-11)
(3.67678e-12 -1.6018e-14 1.41554e-11)
(-1.55498e-11 -2.89535e-13 3.79716e-11)
(-1.91923e-11 -4.36951e-13 6.68885e-11)
(3.08999e-12 -1.57962e-13 1.46429e-11)
(2.39889e-12 -2.49438e-13 1.94461e-11)
(-1.57699e-11 -2.71619e-13 3.8035e-11)
(-1.89992e-11 -3.48846e-13 6.67987e-11)
(3.21638e-12 -2.25158e-13 1.46035e-11)
(2.25527e-10 3.72661e-10 8.61909e-11)
(1.37123e-10 4.91127e-10 7.52926e-11)
(1.00904e-10 2.9324e-10 6.18076e-11)
(2.7717e-10 2.83254e-10 8.15377e-11)
(2.44267e-10 2.44686e-10 7.93747e-11)
(1.05435e-10 4.45407e-10 6.16025e-11)
(2.54802e-10 4.29277e-10 8.42992e-11)
(1.19813e-10 1.58735e-10 1.04734e-10)
(3.61849e-11 2.9411e-10 1.16906e-10)
(2.88165e-11 5.43946e-11 3.54296e-11)
(6.21124e-11 1.72924e-10 1.05145e-10)
(3.78028e-11 4.5682e-11 3.36529e-11)
(2.66673e-10 6.29903e-10 1.32565e-11)
(4.13903e-10 3.86622e-10 1.33247e-11)
(3.99187e-10 5.61918e-10 9.83983e-12)
(-9.15803e-10 2.14909e-10 -2.58094e-10)
(-1.74441e-09 3.49133e-10 -3.6342e-10)
(-2.11657e-11 -1.63526e-12 4.30811e-11)
(-4.79226e-14 -1.54676e-12 2.11658e-11)
(-2.30077e-11 -1.90249e-12 6.91562e-11)
(1.05641e-12 -1.02884e-12 1.60018e-11)
(-2.00062e-11 -1.34437e-12 4.19479e-11)
(-2.43011e-11 -2.40622e-12 7.03099e-11)
(5.63976e-13 -1.243e-12 1.63847e-11)
(-1.83308e-11 -9.41254e-13 4.05343e-11)
(1.18332e-12 -7.64979e-13 2.02802e-11)
(-2.22981e-11 -1.55893e-12 6.88318e-11)
(1.44887e-12 -7.51805e-13 1.57144e-11)
(-1.91458e-11 -1.09449e-12 4.11491e-11)
(-2.1514e-11 -1.24689e-12 6.84036e-11)
(1.86149e-12 -6.83542e-13 1.54958e-11)
(-1.42934e-11 3.93787e-15 3.65509e-11)
(2.80023e-12 1.42697e-14 1.88802e-11)
(-1.78379e-11 -6.71808e-15 6.51832e-11)
(3.67153e-12 -4.60444e-14 1.40522e-11)
(-1.43044e-11 -3.47993e-14 3.63823e-11)
(-1.78629e-11 -6.47829e-14 6.5329e-11)
(3.69931e-12 3.04803e-14 1.40805e-11)
(-1.42723e-11 -3.58168e-14 3.65741e-11)
(2.8241e-12 -1.44332e-14 1.88952e-11)
(-1.78199e-11 -2.09021e-14 6.52025e-11)
(3.68603e-12 4.00509e-14 1.40528e-11)
(-1.42834e-11 7.03015e-15 3.63756e-11)
(-1.78565e-11 2.83731e-14 6.54133e-11)
(3.73093e-12 -3.94948e-14 1.40871e-11)
(2.85888e-10 1.52539e-10 8.29734e-11)
(2.55343e-10 1.22833e-10 8.83974e-11)
(-1.90861e-12 5.46215e-10 5.48107e-11)
(-3.62736e-11 5.0459e-10 2.64322e-11)
(3.09194e-10 4.93277e-10 7.14544e-11)
(1.42162e-10 5.45466e-10 6.52218e-11)
(1.69091e-10 3.90042e-10 7.4067e-11)
(2.90696e-10 3.19711e-10 8.2139e-11)
(2.8176e-10 4.62955e-10 8.06034e-11)
(1.73814e-10 5.64117e-10 6.81205e-11)
(3.22812e-10 3.36214e-10 7.47704e-11)
(3.98398e-10 5.58451e-10 6.07907e-11)
(2.45333e-10 4.36307e-10 4.97566e-11)
(2.39094e-10 6.47369e-10 5.11121e-11)
(4.04689e-10 3.95122e-10 5.62003e-11)
(2.49398e-10 6.33834e-10 5.28581e-11)
(4.26295e-10 3.73294e-10 6.10929e-11)
(3.85584e-10 5.72193e-10 6.02458e-11)
(-4.49541e-12 6.07127e-10 4.71428e-11)
(2.59357e-11 6.27502e-10 5.87964e-11)
(8.06419e-11 7.1514e-10 4.23788e-11)
(8.16507e-11 7.03668e-10 4.44503e-11)
(2.94513e-10 1.91908e-10 8.68795e-11)