/*--------------------------------*- C++ -*----------------------------------*\
| =========                 |                                                 |
| \\      /  F ield         | OpenFOAM: The Open Source CFD Toolbox           |
|  \\    /   O peration     | Version:  2012                                  |
|   \\  /    A nd           | Website:  www.openfoam.com                      |
|    \\/     M anipulation  |                                                 |
\*---------------------------------------------------------------------------*/
FoamFile
{
    version     2.0;
    format      ascii;
    class       volScalarField;
    location    "0.106/solid";
    object      epsilonEq;
}
// * * * * * * * * * * * * * * * * * * * * * * * * * * * * * * * * * * * * * //

dimensions      [0 0 0 0 0 0 0];


internalField   nonuniform List<scalar> 
3124
(
7.04521e-09
3.57832e-09
1.88743e-08
6.60238e-09
4.50429e-09
4.32207e-09
4.18845e-09
9.35606e-09
2.12803e-08
8.59348e-09
6.98619e-09
1.79014e-08
6.67896e-09
7.31459e-09
7.27592e-09
2.18896e-08
6.90673e-09
5.46999e-09
4.32932e-09
4.48887e-09
5.34997e-09
5.45728e-09
5.33343e-09
1.41389e-09
7.4833e-09
5.32185e-09
5.91666e-09
6.48661e-09
1.30066e-08
1.57332e-08
7.80679e-09
1.35781e-08
7.40273e-09
6.57729e-09
5.40835e-09
2.20767e-08
7.21475e-09
6.57284e-09
5.95758e-09
6.0347e-09
5.93996e-09
5.91333e-09
1.93877e-09
6.40021e-09
7.589e-09
6.12124e-09
1.20316e-08
8.93604e-09
2.91971e-07
1.67826e-08
4.75944e-09
4.70214e-09
4.28283e-09
4.28022e-09
2.84673e-09
6.10862e-09
7.18213e-09
2.03294e-08
5.09647e-09
1.64649e-08
6.63675e-09
5.20359e-09
1.87713e-08
1.97721e-08
2.27569e-08
1.78273e-08
5.66723e-09
2.04199e-08
1.34142e-08
1.33549e-08
6.7166e-09
3.85445e-09
5.43965e-09
2.85833e-08
2.41736e-08
8.96529e-09
2.91052e-07
9.16472e-09
4.71696e-09
6.70296e-09
7.82211e-09
6.59748e-09
6.41303e-09
3.82232e-09
9.14492e-09
5.81672e-09
5.35449e-09
2.22448e-08
1.96288e-08
2.20843e-08
5.57854e-09
2.14595e-08
2.16669e-08
2.54583e-08
1.51712e-08
1.34866e-08
1.48302e-08
2.7065e-08
2.56029e-08
7.71725e-09
5.55643e-09
6.5487e-09
6.18018e-09
6.4782e-09
5.50487e-09
6.48504e-09
6.56667e-09
4.39634e-09
4.4067e-09
6.15073e-09
6.06341e-09
6.3367e-09
5.40233e-09
6.39982e-09
6.47037e-09
5.41948e-09
6.41941e-09
6.32042e-09
5.30392e-09
6.29663e-09
5.91761e-09
5.30131e-09
6.30176e-09
6.30152e-09
5.6823e-09
6.41738e-09
6.30499e-09
6.2699e-09
6.11001e-09
5.14863e-09
5.17447e-09
5.12962e-09
5.11529e-09
4.19866e-09
2.92862e-09
5.18302e-09
6.83499e-09
5.53426e-09
4.38464e-09
4.71324e-09
3.46577e-08
1.77272e-08
1.65382e-08
4.28997e-08
1.02294e-08
5.95479e-08
3.62031e-08
3.38837e-09
5.42445e-09
1.93639e-09
4.56869e-09
9.64825e-10
1.01903e-09
8.40415e-10
4.309e-09
8.23414e-10
4.28074e-09
8.04625e-10
7.00781e-09
4.09928e-09
6.30992e-09
7.41767e-09
6.77331e-09
6.66495e-09
1.0145e-08
1.24814e-08
8.19403e-09
8.93925e-09
1.08518e-08
4.53105e-09
1.04895e-08
8.90086e-09
4.62567e-09
8.48271e-09
4.06549e-09
5.59405e-09
4.09335e-09
7.93909e-09
7.69416e-09
3.95123e-08
1.79737e-08
3.71829e-08
1.5637e-08
5.4294e-08
1.61118e-08
3.14866e-08
8.02543e-09
7.27162e-09
7.65328e-09
4.18355e-09
1.20296e-08
3.74458e-09
6.97838e-09
3.54543e-09
1.17203e-08
3.84076e-09
7.92083e-09
6.27695e-09
7.33667e-09
5.36902e-09
5.38501e-09
5.48526e-09
6.7433e-09
6.72554e-09
8.4221e-10
4.36246e-09
8.44398e-10
9.52712e-10
4.45559e-09
9.01664e-10
5.3611e-09
5.33852e-09
6.69234e-09
5.36893e-09
6.70865e-09
6.75662e-09
5.44744e-09
6.76137e-09
6.6756e-09
5.32207e-09
6.66083e-09
5.1236e-09
5.30543e-09
6.66715e-09
4.36017e-09
4.54814e-09
2.26355e-09
2.45223e-09
2.66595e-09
3.34985e-09
3.88439e-09
5.63927e-09
7.76501e-09
4.88677e-09
6.10125e-09
5.63607e-09
4.68831e-09
5.81689e-09
2.95079e-09
3.08183e-09
3.12615e-09
4.50746e-09
2.75042e-09
1.57531e-08
1.51574e-08
8.04444e-09
1.56205e-08
1.40588e-08
1.5046e-08
1.73863e-08
1.11368e-08
6.09571e-09
8.36435e-09
9.21767e-09
1.02561e-08
1.15403e-08
9.38221e-09
6.4128e-09
6.16617e-09
7.01567e-09
7.28868e-09
6.909e-09
6.60578e-09
6.95228e-09
6.6633e-09
1.54758e-08
1.67686e-08
2.16452e-08
6.79862e-09
6.88175e-09
6.53676e-09
6.27252e-09
6.34414e-09
6.67451e-09
6.60496e-09
6.61339e-09
5.2349e-09
5.20359e-09
5.61417e-09
5.98454e-09
5.64282e-09
5.69947e-09
6.01084e-09
5.67161e-09
5.59526e-09
5.92994e-09
5.58422e-09
5.0969e-09
5.10359e-09
5.9206e-09
5.56547e-09
5.57375e-09
3.87418e-09
2.44663e-09
3.09045e-09
2.55493e-09
2.67351e-09
3.83109e-09
4.18822e-09
4.59931e-09
5.4362e-09
5.5967e-09
7.69037e-09
7.86244e-09
5.16839e-09
5.37053e-09
4.34246e-09
9.14807e-09
4.28395e-09
8.36501e-09
3.13163e-09
8.35633e-09
5.15883e-09
8.74246e-09
5.48256e-09
7.80533e-09
1.16181e-07
1.77872e-07
1.30074e-08
6.85107e-09
3.48712e-08
5.05469e-09
8.0447e-08
2.48494e-08
1.25596e-08
6.21012e-09
1.3809e-08
9.81377e-09
8.80271e-09
2.25772e-08
5.3659e-08
1.02256e-07
6.52929e-07
1.47513e-07
1.77982e-07
1.37799e-07
8.99527e-08
3.33333e-08
1.3344e-08
1.68948e-08
4.60231e-08
1.07482e-08
7.08772e-08
3.67223e-08
5.19016e-09
1.31084e-09
1.73059e-09
4.59374e-09
1.23286e-09
1.05329e-09
4.30393e-09
8.20968e-10
8.20462e-10
4.28191e-09
8.18742e-10
8.06419e-10
1.26932e-08
1.50114e-08
3.01599e-08
3.2401e-09
5.07861e-09
5.03919e-09
1.59435e-08
5.66814e-09
1.36941e-08
7.7958e-09
6.41037e-09
5.35193e-09
6.75985e-09
6.27731e-09
6.25272e-09
7.34964e-09
2.48312e-08
8.61894e-09
7.50614e-09
7.0676e-09
1.2622e-08
6.68408e-09
7.36507e-09
9.58374e-09
1.11822e-08
2.52327e-08
1.0534e-08
1.47996e-08
1.96655e-08
2.26677e-08
9.68339e-09
1.62911e-08
1.10862e-08
1.18592e-08
6.65073e-09
4.11693e-09
6.20614e-09
4.73355e-09
6.78548e-09
8.66541e-09
1.29737e-08
3.34577e-08
1.89382e-08
1.59923e-08
7.83031e-09
8.35518e-09
6.69444e-09
1.30376e-08
5.60881e-09
9.14404e-09
2.03394e-08
1.4959e-08
5.30182e-09
1.60794e-08
1.92354e-08
1.50295e-08
1.72588e-08
2.14259e-08
5.70969e-09
1.52936e-08
1.80221e-08
1.5429e-08
1.85561e-08
2.13494e-08
1.11472e-08
1.05567e-08
1.33024e-08
1.2962e-08
1.29783e-08
1.30483e-08
1.26575e-08
1.25953e-08
1.13482e-08
1.11765e-08
4.30919e-09
7.80544e-09
5.62148e-09
5.91821e-09
7.98028e-09
4.79157e-09
5.9409e-09
2.90243e-09
3.58714e-09
3.23223e-09
4.13266e-09
3.29532e-09
3.05921e-09
3.88461e-09
2.84054e-09
5.17069e-09
5.35362e-09
4.49433e-09
4.88198e-09
3.68848e-09
4.29448e-09
1.33285e-08
1.54152e-08
1.04657e-08
2.89373e-08
1.02086e-08
1.56042e-08
1.62655e-08
1.17956e-08
2.72385e-08
9.34791e-09
8.20184e-09
1.39871e-08
9.25367e-09
5.30777e-08
1.16033e-07
1.22243e-06
1.25382e-07
1.09547e-07
1.33141e-07
9.12885e-08
2.27052e-08
1.23419e-08
1.48867e-08
1.29084e-08
2.69208e-08
2.93821e-08
6.19262e-08
6.19877e-08
3.58076e-08
4.50695e-09
8.01912e-09
8.16691e-09
4.6334e-09
7.40344e-09
6.61056e-09
3.92907e-09
7.46141e-09
8.07975e-09
7.60118e-09
7.71922e-09
6.87292e-09
5.73338e-09
6.85908e-09
7.13676e-09
6.00957e-09
7.05688e-09
3.40625e-09
3.43268e-09
3.01367e-09
4.46046e-09
2.88952e-09
4.11651e-09
3.75112e-09
3.56726e-09
8.70674e-09
5.16912e-09
1.16492e-08
4.74599e-09
3.03765e-09
5.41484e-09
5.08339e-09
3.54455e-09
4.60885e-09
2.08658e-08
5.39765e-09
1.51159e-08
1.63477e-08
2.12722e-08
1.46952e-08
1.59404e-08
2.06433e-08
5.33302e-09
1.48781e-08
1.63727e-08
2.10129e-08
1.44788e-08
1.5735e-08
1.35165e-08
9.4521e-09
1.16378e-08
1.38671e-08
1.15525e-08
1.13682e-08
1.29296e-08
1.37422e-08
1.27938e-08
1.1338e-08
1.11079e-08
1.37196e-08
1.42827e-08
1.30587e-08
1.33044e-08
1.30289e-08
1.03626e-08
2.62554e-08
9.97302e-09
1.41238e-08
1.2989e-08
9.54576e-09
2.58847e-08
9.42491e-09
8.04356e-09
7.2764e-09
7.52554e-09
5.78233e-09
6.53963e-09
6.75473e-09
6.78747e-09
6.63619e-09
6.9105e-09
5.80938e-09
5.48053e-09
5.86415e-09
6.23754e-09
5.91861e-09
6.32508e-09
6.34226e-09
6.04857e-09
5.49636e-09
6.60869e-09
6.69057e-09
6.78896e-09
6.51849e-09
6.7884e-09
6.70352e-09
6.56561e-09
6.77777e-09
4.37174e-09
8.73873e-10
8.49952e-10
4.44422e-09
8.78251e-10
8.91019e-10
5.26723e-09
5.3037e-09
5.83595e-09
6.12712e-09
5.80815e-09
5.73238e-09
6.09674e-09
5.77139e-09
6.71175e-09
6.35481e-09
6.72701e-09
5.3864e-09
6.74107e-09
6.72623e-09
6.37735e-09
6.76363e-09
6.74631e-09
6.79409e-09
6.45856e-09
6.79516e-09
5.43565e-09
6.75336e-09
6.76102e-09
6.43981e-09
6.77662e-09
6.78826e-09
6.69561e-09
6.30509e-09
6.67935e-09
5.31215e-09
6.65018e-09
6.65217e-09
6.29658e-09
6.67194e-09
6.67106e-09
5.09983e-09
5.10978e-09
5.94735e-09
5.59845e-09
5.56911e-09
5.93232e-09
5.58348e-09
5.30301e-09
6.65256e-09
6.65734e-09
6.3239e-09
6.6942e-09
6.6762e-09
6.30927e-09
6.68127e-09
4.8275e-09
5.3062e-09
6.03908e-09
6.16029e-09
5.16246e-09
5.74537e-09
4.92706e-09
3.61796e-09
4.36586e-09
4.53091e-09
3.43079e-09
4.38237e-09
3.58483e-09
3.45423e-09
3.45737e-09
3.27306e-09
4.20791e-09
4.32411e-09
3.4446e-09
4.2134e-09
3.27756e-09
5.70825e-09
5.7299e-09
6.32202e-09
7.37139e-09
5.38344e-09
6.52091e-09
6.19573e-09
5.95706e-09
6.83207e-09
5.76169e-09
6.29728e-09
6.01728e-09
6.18189e-09
6.44562e-09
3.4763e-09
3.27911e-09
4.2168e-09
4.34832e-09
3.44892e-09
4.23332e-09
3.29506e-09
3.57776e-09
4.34767e-09
3.41566e-09
4.48337e-09
3.57345e-09
4.35183e-09
3.4117e-09
1.48963e-08
7.63164e-09
6.20974e-09
7.86469e-09
8.78555e-09
8.68898e-09
1.35241e-08
1.16844e-08
1.42006e-08
1.09255e-08
1.34418e-08
1.01276e-08
8.07094e-09
7.54234e-09
1.4427e-08
2.42324e-07
4.80075e-07
3.88089e-09
4.85786e-09
4.55915e-09
3.69525e-09
3.79999e-09
4.62771e-09
3.78129e-09
3.72372e-09
4.66271e-09
4.50392e-09
3.6331e-09
3.75135e-09
4.48588e-09
3.59175e-09
3.43727e-09
4.29672e-09
4.17466e-09
3.24185e-09
3.4158e-09
4.18808e-09
3.25491e-09
3.43252e-09
4.28797e-09
4.17243e-09
3.23943e-09
3.41356e-09
4.18172e-09
3.24767e-09
7.57161e-09
8.12099e-09
7.98996e-09
9.01179e-09
1.37867e-08
7.93429e-09
5.12432e-09
7.54395e-09
1.3922e-08
7.58616e-09
7.09898e-09
1.4936e-08
5.75676e-09
8.03637e-09
8.10988e-09
7.97688e-09
8.26807e-09
1.45321e-08
8.62417e-09
8.10591e-09
8.94242e-09
9.03831e-09
6.77777e-09
6.28449e-09
7.19186e-09
8.08005e-09
7.28035e-09
8.74891e-09
7.90932e-09
9.87558e-09
8.00823e-09
6.65597e-09
9.29849e-09
1.48928e-08
1.03436e-08
8.22539e-09
1.04667e-08
8.82469e-09
1.0559e-08
1.18798e-08
5.65976e-09
5.62761e-09
4.3499e-09
5.39543e-09
5.38739e-09
5.10553e-09
6.01728e-09
1.38944e-08
5.33042e-09
8.03307e-09
7.38961e-09
1.41756e-08
7.93803e-09
7.33215e-09
1.35909e-08
5.37361e-09
7.97591e-09
7.4458e-09
1.39397e-08
7.92776e-09
7.23678e-09
6.19565e-09
8.91464e-09
8.82048e-09
8.76165e-09
8.84549e-09
8.66906e-09
5.99748e-09
5.87466e-09
6.18063e-09
5.73979e-09
3.51062e-09
4.39497e-09
4.27373e-09
3.33294e-09
3.50095e-09
4.27783e-09
3.33425e-09
3.53709e-09
4.42731e-09
4.28637e-09
3.34222e-09
3.50858e-09
4.3022e-09
3.35973e-09
5.24871e-09
6.80033e-09
5.3697e-09
5.00284e-09
5.7972e-09
4.99099e-09
6.28191e-09
6.25248e-09
6.04438e-09
6.46521e-09
5.14944e-09
5.30058e-09
5.1124e-09
5.09531e-09
6.18751e-09
6.58905e-09
6.45011e-09
6.34637e-09
5.80052e-09
6.24026e-09
5.89471e-09
6.2022e-09
5.41787e-09
5.12921e-09
5.11156e-09
5.59912e-09
6.28081e-09
6.14839e-09
6.00808e-09
6.31906e-09
5.08981e-09
5.11586e-09
5.04328e-09
5.15827e-09
4.17833e-09
4.1942e-09
4.22295e-09
4.19625e-09
5.03362e-09
5.1225e-09
5.06588e-09
5.09689e-09
4.99819e-09
5.10119e-09
5.06477e-09
5.03093e-09
4.1757e-09
4.16115e-09
4.14645e-09
4.16658e-09
5.04429e-09
5.07983e-09
5.02162e-09
5.10653e-09
4.39407e-09
4.47403e-09
4.13707e-09
3.77002e-09
3.90149e-09
4.44877e-09
4.31234e-09
4.2074e-09
6.1936e-09
5.60733e-09
6.172e-09
4.86576e-09
5.02267e-09
5.63196e-09
4.94365e-09
5.02033e-09
5.53765e-09
5.68691e-09
5.66597e-09
4.89288e-09
5.06651e-09
3.662e-09
3.67216e-09
4.49516e-09
5.44776e-09
3.18457e-09
4.34499e-09
5.06212e-09
3.35227e-08
2.37384e-08
4.46282e-08
3.94841e-08
2.63089e-08
2.7832e-08
4.97051e-08
2.0139e-08
1.49412e-08
1.26286e-08
1.20862e-08
1.42228e-08
1.68772e-08
1.70071e-08
4.13931e-08
5.58227e-08
3.57307e-08
6.24903e-08
4.254e-08
3.34522e-08
6.19737e-08
2.3937e-09
3.67644e-09
2.75276e-09
2.84363e-09
3.22369e-09
4.58197e-09
5.79285e-09
5.13992e-09
4.28295e-09
5.41179e-09
4.29122e-09
4.57065e-09
2.16293e-09
2.29758e-09
2.55291e-09
1.86072e-09
2.84483e-09
3.63381e-09
4.55144e-09
4.4086e-09
3.48851e-09
4.40409e-09
3.63926e-09
3.47374e-09
1.1594e-09
1.59162e-09
9.70109e-10
1.14048e-09
1.61038e-09
1.17134e-09
1.65719e-09
9.86193e-10
1.18938e-09
1.63052e-09
1.00102e-09
1.41908e-09
8.32414e-10
9.99592e-10
1.41607e-09
3.46093e-09
4.32146e-09
4.19827e-09
3.26207e-09
4.20857e-09
3.4389e-09
3.27457e-09
9.94394e-10
8.26227e-10
1.39636e-09
9.76662e-10
1.40782e-09
4.17629e-09
3.23815e-09
3.42096e-09
9.56356e-10
1.35819e-09
9.44824e-10
7.62999e-09
9.15404e-09
8.44146e-09
8.12849e-09
8.61199e-09
7.90155e-09
8.65846e-09
6.14652e-09
6.64341e-09
6.32236e-09
8.02284e-09
5.46524e-09
6.89006e-09
7.01707e-09
7.03099e-09
6.99942e-09
6.37851e-09
6.76365e-09
6.36388e-09
7.10002e-09
7.0799e-09
6.53179e-09
1.01986e-08
7.09963e-09
8.24388e-09
7.66156e-09
7.66758e-09
7.09313e-09
1.38801e-08
1.21983e-08
1.34327e-08
1.20143e-08
1.10736e-08
1.9353e-08
1.11169e-08
5.48378e-09
6.55742e-09
3.79105e-09
4.76924e-09
5.21254e-09
5.66402e-09
4.5108e-09
7.011e-09
1.13607e-08
9.72908e-09
6.62682e-09
1.07945e-08
7.18103e-09
6.54063e-09
7.49952e-09
7.69154e-09
9.40865e-09
8.27228e-09
9.51562e-09
6.69821e-09
7.41784e-09
4.70647e-09
3.92411e-09
5.21064e-09
4.31244e-09
5.06195e-09
5.36894e-09
3.98511e-09
3.87386e-09
4.22757e-09
5.14223e-09
3.134e-09
4.94554e-09
5.87822e-09
7.68364e-09
6.69883e-09
7.21389e-09
6.63885e-09
6.12814e-09
6.69256e-09
4.49988e-09
6.31693e-09
6.6738e-09
5.30045e-09
5.76484e-09
3.36324e-08
4.59818e-08
2.79487e-08
4.30491e-08
3.53461e-08
5.01072e-08
2.79474e-08
2.6203e-08
1.7453e-08
2.71721e-08
1.81735e-08
2.93952e-08
1.76786e-08
2.5199e-08
4.1682e-08
4.5085e-08
3.96514e-08
6.65024e-08
4.39898e-08
3.81665e-08
5.40412e-08
2.31269e-08
2.12602e-08
1.81825e-08
1.50316e-08
1.595e-08
2.50788e-08
2.07999e-08
7.44947e-09
6.89175e-09
7.64453e-09
6.55327e-09
6.82605e-09
5.98711e-09
6.30651e-09
7.46183e-09
7.23677e-09
6.21268e-09
6.06506e-09
6.49605e-09
6.94391e-09
8.03506e-09
7.81237e-09
7.29924e-09
7.25981e-09
1.11509e-08
7.72944e-09
1.25519e-08
6.7622e-09
1.13263e-08
8.37172e-09
4.59688e-09
3.61572e-09
5.02367e-09
3.50989e-09
4.25512e-09
5.37895e-09
3.51376e-09
6.97669e-09
8.41566e-09
1.25928e-08
1.10265e-08
1.07383e-08
8.60066e-09
7.39357e-09
6.49085e-09
7.12249e-09
6.92598e-09
6.81226e-09
7.09373e-09
6.00981e-09
5.52051e-09
6.69744e-09
6.27328e-09
5.04038e-09
5.5068e-09
6.45948e-09
7.53045e-09
7.26888e-09
6.87349e-09
7.793e-09
5.32124e-09
5.31024e-09
5.14628e-09
5.45715e-09
4.33178e-09
4.45785e-09
4.46636e-09
4.3467e-09
5.13908e-09
5.42547e-09
5.32438e-09
5.27249e-09
6.26629e-09
6.3154e-09
5.96563e-09
6.59205e-09
5.74501e-09
4.49091e-09
4.5526e-09
5.92622e-09
5.9228e-09
4.56873e-09
4.52096e-09
5.71831e-09
6.0054e-09
6.60065e-09
6.27285e-09
6.35271e-09
1.01069e-09
1.42278e-09
8.38477e-10
1.00086e-09
1.42823e-09
3.48798e-09
4.35927e-09
4.24478e-09
3.3032e-09
4.24501e-09
3.4781e-09
3.304e-09
1.01084e-09
8.38513e-10
1.4317e-09
1.00455e-09
1.43051e-09
1.11632e-09
1.57473e-09
9.2859e-10
1.12952e-09
1.55776e-09
3.57639e-09
4.47398e-09
4.32835e-09
3.38313e-09
4.33921e-09
3.54984e-09
3.40125e-09
1.099e-09
9.0923e-10
1.51733e-09
1.07643e-09
1.53759e-09
5.14669e-09
5.37483e-09
5.29741e-09
5.24038e-09
4.44313e-09
4.33468e-09
5.31712e-09
5.26002e-09
5.15893e-09
5.40055e-09
4.31748e-09
4.422e-09
6.14725e-09
6.4164e-09
6.48123e-09
6.07325e-09
5.76507e-09
4.38063e-09
4.41355e-09
5.80142e-09
5.81881e-09
4.4224e-09
4.41064e-09
5.77566e-09
6.06985e-09
6.45949e-09
6.12716e-09
6.40668e-09
6.05764e-09
6.59028e-09
6.40251e-09
6.25408e-09
5.92053e-09
4.51849e-09
5.76148e-09
4.48343e-09
6.26921e-09
6.37743e-09
6.03144e-09
6.59714e-09
5.77717e-09
4.46819e-09
4.51651e-09
5.9114e-09
6.04695e-09
6.42833e-09
6.3819e-09
6.08919e-09
5.78316e-09
4.38577e-09
4.37943e-09
5.75311e-09
5.74013e-09
4.36476e-09
4.38821e-09
5.76919e-09
6.10975e-09
6.39436e-09
6.05922e-09
6.44209e-09
5.07521e-09
5.00746e-09
4.1523e-09
6.41439e-09
6.07359e-09
4.35136e-09
4.3666e-09
5.75797e-09
3.00103e-09
2.28486e-09
4.18968e-09
4.46324e-09
3.8339e-09
2.696e-09
2.93952e-09
2.9581e-09
3.08476e-09
2.5921e-09
2.343e-09
3.03136e-09
2.99521e-09
2.30987e-09
3.64671e-09
4.50489e-09
4.51853e-09
4.87078e-09
4.23657e-09
3.69396e-09
3.91929e-09
6.53408e-09
6.45028e-09
5.44917e-09
5.60682e-09
6.22725e-09
6.45158e-09
5.38654e-09
6.98163e-09
8.05667e-09
7.40409e-09
7.74367e-09
8.4145e-09
7.88911e-09
7.7997e-09
7.0316e-09
6.06391e-09
6.91614e-09
5.38194e-09
7.84272e-09
5.47643e-09
6.91596e-09
5.32191e-09
7.45472e-09
6.41955e-09
5.3761e-09
7.08536e-09
4.95193e-09
6.31601e-09
5.23356e-09
6.58869e-09
3.74692e-09
3.91962e-09
4.4861e-09
4.58809e-09
4.09336e-09
3.50795e-09
4.30387e-09
3.6321e-09
3.29455e-09
3.85954e-09
3.15663e-09
3.65041e-09
3.28623e-09
3.97835e-09
4.38748e-09
4.26869e-09
4.75876e-09
4.12963e-09
4.40326e-09
4.21131e-09
5.12403e-09
1.46767e-08
7.33288e-09
1.10712e-08
1.12083e-08
1.42949e-08
9.10275e-09
9.4193e-09
9.57213e-09
6.12897e-09
9.65988e-09
9.44192e-09
1.18015e-08
7.56546e-09
8.2742e-09
6.01002e-09
6.43518e-09
6.33737e-09
6.26455e-09
6.42908e-09
7.76858e-09
5.32657e-09
5.33807e-09
7.11281e-09
6.9749e-09
6.91535e-09
6.08026e-09
6.93705e-09
6.52578e-09
6.81581e-09
6.70215e-09
7.00094e-09
7.42487e-09
7.27656e-09
7.11478e-09
6.78311e-09
6.96624e-09
6.68876e-09
7.01398e-09
7.14617e-09
7.00328e-09
6.84061e-09
7.30468e-09
6.56117e-09
6.67973e-09
6.37639e-09
6.81662e-09
6.64635e-09
6.47295e-09
6.37713e-09
6.7416e-09
6.79658e-09
6.45459e-09
6.80078e-09
6.75732e-09
6.52942e-09
7.09412e-09
6.9078e-09
6.72929e-09
6.25942e-09
6.461e-09
6.19048e-09
6.47834e-09
7.02727e-09
6.9366e-09
6.81427e-09
7.20053e-09
6.73649e-09
6.49632e-09
6.66652e-09
6.55378e-09
6.51328e-09
6.76892e-09
6.69428e-09
6.62191e-09
6.29779e-09
6.10815e-09
5.93132e-09
6.43632e-09
5.39732e-09
5.21679e-09
5.61966e-09
5.33742e-09
6.08778e-09
6.2184e-09
6.27288e-09
6.04034e-09
6.49819e-09
6.29336e-09
6.29649e-09
6.5497e-09
6.35912e-09
6.39868e-09
6.27021e-09
6.43852e-09
6.52932e-09
6.40384e-09
6.42459e-09
6.45031e-09
6.38668e-09
6.42989e-09
6.40504e-09
6.44656e-09
5.06568e-09
5.20047e-09
5.1308e-09
5.13657e-09
4.29066e-09
4.24228e-09
4.21751e-09
4.26099e-09
5.16768e-09
5.16183e-09
5.22912e-09
5.09648e-09
5.54689e-09
5.43875e-09
5.49589e-09
5.48596e-09
5.68938e-09
5.85011e-09
5.73773e-09
5.79617e-09
5.46795e-09
5.46317e-09
5.42803e-09
5.50485e-09
5.77123e-09
5.8105e-09
5.69867e-09
5.88771e-09
5.50629e-09
5.53702e-09
5.46222e-09
5.58914e-09
5.83954e-09
5.84647e-09
5.74669e-09
5.94648e-09
5.61115e-09
5.49232e-09
5.56944e-09
5.52858e-09
5.71924e-09
5.92563e-09
5.81126e-09
5.82791e-09
5.44105e-09
5.4356e-09
5.39356e-09
5.48873e-09
5.72339e-09
5.78463e-09
5.67722e-09
5.83594e-09
5.49159e-09
5.41445e-09
5.44676e-09
5.45203e-09
5.65877e-09
5.83052e-09
5.71145e-09
5.77335e-09
5.01172e-09
5.0565e-09
4.9864e-09
5.08123e-09
4.13415e-09
4.13505e-09
4.14695e-09
4.13715e-09
4.99143e-09
5.06623e-09
5.05249e-09
5.00718e-09
5.46987e-09
5.38418e-09
5.43506e-09
5.41803e-09
5.65754e-09
5.79991e-09
5.76731e-09
5.68628e-09
5.69426e-09
5.76885e-09
5.65223e-09
5.81273e-09
5.43063e-09
5.40926e-09
5.38745e-09
5.45155e-09
3.17232e-09
3.45811e-09
3.83162e-09
3.38708e-09
3.56727e-09
3.48375e-09
3.09491e-09
2.86103e-09
2.96958e-09
2.79995e-09
2.27927e-09
2.47623e-09
3.07814e-09
2.62399e-09
2.66431e-09
3.20405e-09
4.1069e-09
4.04138e-09
2.86686e-09
3.05997e-09
3.97491e-09
5.33136e-09
5.43767e-09
4.67002e-09
4.87879e-09
4.97291e-09
5.30743e-09
5.40356e-09
5.87915e-09
5.95464e-09
6.30031e-09
5.14296e-09
5.49934e-09
6.46183e-09
5.60813e-09
6.48477e-09
6.28783e-09
7.07985e-09
8.19066e-09
5.93382e-09
6.94125e-09
7.44803e-09
5.18322e-09
4.89116e-09
5.51265e-09
5.11417e-09
5.09444e-09
5.16703e-09
5.28388e-09
4.99717e-09
3.92056e-09
5.28445e-09
4.65845e-09
4.90007e-09
4.31468e-09
5.28632e-09
7.06644e-09
9.42819e-09
6.09407e-09
8.88437e-09
6.85902e-09
6.23449e-09
8.85664e-09
4.57173e-09
3.44522e-09
4.2241e-09
3.50396e-09
4.42525e-09
4.57959e-09
3.82163e-09
7.22091e-09
6.39927e-09
8.50008e-09
8.74963e-09
6.26778e-09
7.16213e-09
8.98256e-09
9.98477e-09
1.10354e-08
9.18915e-09
7.77476e-09
9.43432e-09
8.43718e-09
1.0687e-08
8.6553e-09
9.09583e-09
9.30849e-09
6.64794e-09
8.39439e-09
9.35853e-09
8.69225e-09
1.05298e-08
1.17756e-08
6.0932e-07
7.72272e-07
1.43034e-07
1.99187e-07
1.59919e-07
8.43709e-08
1.03911e-07
1.6835e-07
1.22812e-07
2.98335e-07
1.33919e-07
2.59871e-07
1.98278e-07
4.15421e-07
1.26433e-07
2.97988e-07
1.63737e-08
1.18036e-08
1.98011e-08
1.6043e-08
1.87094e-08
1.10329e-08
1.73508e-08
1.43462e-08
7.82258e-09
2.00689e-08
8.95464e-09
1.46422e-08
2.19196e-08
2.95907e-08
4.14681e-08
4.2638e-08
8.14281e-08
2.74205e-08
4.30666e-08
4.95139e-08
1.68581e-08
1.67127e-08
2.79743e-08
1.71869e-08
1.95149e-08
2.01352e-08
1.64762e-08
1.80785e-08
1.77985e-08
2.97817e-08
2.08155e-08
1.39195e-08
2.12163e-08
9.55651e-09
6.9443e-09
7.26672e-09
7.09281e-09
8.05267e-09
8.82107e-09
8.01037e-09
1.29229e-08
1.37517e-08
8.45563e-09
1.18719e-08
9.99132e-09
1.10168e-08
1.65272e-08
1.16126e-08
1.21157e-08
1.00441e-08
8.08941e-09
1.35511e-08
1.05023e-08
9.14987e-09
1.63725e-07
9.46279e-08
8.56732e-08
6.52421e-08
9.4789e-08
1.57817e-07
1.01305e-07
5.11756e-07
8.84515e-07
8.13934e-07
3.74443e-07
8.03131e-07
5.97651e-07
3.5787e-07
2.91286e-07
1.41851e-07
3.50937e-07
1.88901e-07
3.42315e-07
2.98004e-07
1.4901e-07
2.36383e-07
1.22119e-07
1.455e-07
2.06779e-07
1.18373e-07
2.6477e-07
1.97117e-07
1.97419e-08
1.58433e-08
1.22817e-08
1.98992e-08
1.51309e-08
2.24193e-08
1.80758e-08
2.08293e-08
1.56026e-08
1.15574e-08
1.3131e-08
1.44466e-08
1.69448e-08
1.88076e-08
4.37282e-08
5.66805e-08
4.13011e-08
7.29883e-08
4.93287e-08
3.46412e-08
6.25665e-08
3.9825e-09
4.98606e-09
4.90247e-09
4.06207e-09
4.13146e-09
4.75585e-09
3.90651e-09
1.51686e-09
1.96002e-09
1.40063e-09
1.44098e-09
2.05651e-09
1.6081e-09
2.34513e-09
1.53268e-09
1.76267e-09
2.18579e-09
3.70055e-09
4.62959e-09
4.43439e-09
3.51639e-09
3.66105e-09
4.4543e-09
3.55359e-09
1.31805e-09
1.87912e-09
1.15221e-09
1.3775e-09
1.80816e-09
1.26727e-09
1.69661e-09
1.08995e-09
1.22371e-09
1.7472e-09
3.44868e-09
4.3044e-09
4.19249e-09
3.25743e-09
3.43487e-09
4.1947e-09
3.26109e-09
9.8148e-10
1.38602e-09
8.19332e-10
9.71603e-10
1.39203e-09
9.8268e-10
1.39118e-09
8.18393e-10
9.71551e-10
1.39314e-09
3.43957e-09
4.28982e-09
4.17612e-09
3.23932e-09
3.42164e-09
4.18331e-09
3.24873e-09
9.7174e-10
1.38185e-09
8.13587e-10
9.67685e-10
1.37983e-09
9.65974e-10
1.36238e-09
8.0987e-10
9.48655e-10
1.37307e-09
1.32768e-08
7.8384e-09
8.14708e-09
7.03488e-09
1.31763e-08
5.86601e-09
6.61411e-09
9.3997e-09
7.72911e-09
8.03486e-09
1.51806e-08
1.2398e-08
1.3788e-08
8.01837e-09
2.17769e-08
1.13338e-08
3.4113e-09
3.53547e-08
7.6493e-09
2.60893e-08
6.90281e-09
5.87119e-09
2.37871e-08
2.08603e-09
1.66562e-08
7.08286e-09
1.4613e-08
5.83378e-09
1.2864e-08
6.73374e-09
7.27154e-09
8.72642e-09
8.52133e-09
8.4538e-09
7.9285e-09
7.79123e-09
8.17544e-09
6.19965e-09
5.49814e-09
5.36118e-09
5.36225e-09
5.5634e-09
5.89177e-09
5.67963e-09
6.61353e-09
6.79544e-09
6.23804e-09
5.78333e-09
7.08572e-09
5.74733e-09
6.48845e-09
6.72444e-09
7.65824e-09
5.86038e-09
6.29662e-09
6.74166e-09
7.59761e-09
5.84829e-09
8.56422e-09
2.67929e-08
1.02919e-08
9.57679e-09
1.91471e-08
6.49192e-09
9.34019e-09
6.46367e-09
5.00499e-09
1.03554e-08
1.03842e-08
5.58598e-09
1.54144e-08
6.37015e-09
5.92153e-09
1.65853e-08
1.07179e-08
1.00996e-08
6.8757e-09
1.71244e-08
5.91113e-09
8.81101e-09
8.05367e-09
7.47581e-09
6.24884e-09
1.39644e-08
8.23878e-09
7.14965e-09
1.86815e-08
4.63163e-08
1.06693e-08
2.12738e-08
1.48829e-08
2.16127e-08
1.46938e-08
1.94307e-08
1.56653e-08
5.25741e-09
1.56676e-08
1.07152e-08
1.04968e-08
1.60698e-08
9.73455e-09
1.70424e-08
8.53111e-09
1.10106e-08
8.61425e-09
9.35385e-09
1.06178e-08
1.64603e-08
8.34796e-09
2.50812e-08
1.15844e-08
1.48441e-08
9.68726e-09
8.6409e-09
1.0993e-08
2.96321e-08
4.22617e-08
1.45812e-08
1.3559e-08
4.29648e-08
1.08215e-08
9.70025e-09
1.64824e-08
2.13326e-08
1.16943e-08
1.721e-08
2.59519e-08
7.43305e-09
1.40977e-08
6.94176e-08
1.82454e-08
6.7115e-08
8.03056e-09
9.60049e-09
1.06689e-08
1.11685e-08
1.0016e-08
8.1127e-09
9.45233e-09
5.6533e-09
4.27975e-09
4.49328e-09
4.88297e-09
5.39777e-09
4.57999e-09
4.98933e-09
6.3324e-09
6.94678e-09
4.69101e-09
5.41443e-09
6.24704e-09
7.37487e-09
5.00399e-09
3.01735e-08
5.68558e-09
2.14754e-08
9.72912e-08
1.05556e-08
2.64525e-08
1.07308e-08
1.25866e-08
1.82088e-08
1.18588e-08
9.87395e-09
6.56482e-09
4.84836e-09
1.34162e-08
9.51061e-09
6.26548e-09
1.61026e-08
5.25223e-09
7.19477e-09
2.02014e-08
1.47811e-08
8.59705e-09
7.63276e-09
1.8972e-08
7.17442e-09
8.30312e-09
8.15448e-09
5.63518e-09
5.58072e-09
9.05863e-09
7.49986e-09
5.93649e-09
1.43352e-08
5.0823e-09
7.68311e-09
7.77274e-09
1.44578e-08
7.63585e-09
7.59704e-09
1.5178e-08
5.80019e-09
7.95504e-09
8.46447e-09
1.51333e-08
7.99227e-09
8.47181e-09
9.04122e-09
1.00691e-08
1.06217e-08
8.83764e-09
9.38709e-09
8.48204e-09
8.43687e-09
9.74695e-09
1.07594e-08
8.93969e-09
9.10679e-09
9.5493e-09
1.18989e-08
1.19166e-08
1.13435e-08
1.1381e-08
9.0739e-09
1.21696e-08
1.13904e-08
1.00942e-08
8.95172e-09
9.05721e-09
9.7581e-09
1.12719e-08
1.05488e-08
9.62449e-09
1.04425e-08
1.0031e-08
9.5428e-09
1.11407e-08
9.5558e-09
1.03079e-08
5.63136e-09
6.17225e-09
4.0813e-09
4.96234e-09
6.01288e-09
5.64585e-09
4.69809e-09
6.05534e-09
5.94013e-09
6.34956e-09
5.10068e-09
6.45884e-09
5.70892e-09
5.55742e-09
6.64996e-09
7.27019e-09
7.39091e-09
7.26631e-09
7.08968e-09
7.05479e-09
6.53683e-09
5.28832e-09
3.95043e-09
4.99311e-09
5.39691e-09
5.33949e-09
4.89734e-09
4.69152e-09
2.47224e-09
1.86432e-09
2.5462e-09
3.17691e-09
3.14264e-09
1.85792e-09
2.62587e-09
2.8478e-09
3.61437e-09
3.33755e-09
2.25234e-09
3.63079e-09
2.21519e-09
3.05277e-09
2.72349e-09
1.98153e-09
3.4162e-09
3.88253e-09
3.64969e-09
2.18662e-09
2.73169e-09
2.69557e-09
2.62425e-09
3.54701e-09
2.38751e-09
2.92677e-09
1.85555e-09
3.04847e-09
2.95289e-09
2.96148e-09
1.89172e-09
3.37188e-09
2.06537e-09
3.37978e-09
2.58979e-09
3.38377e-09
3.87585e-09
4.04473e-09
2.98247e-09
4.57832e-09
3.58214e-09
2.1987e-09
3.55789e-09
3.48946e-09
4.36319e-09
5.05444e-09
5.10563e-09
2.74842e-09
3.92533e-09
2.99934e-09
2.07287e-09
3.84602e-09
3.90647e-09
4.20762e-09
2.14362e-09
2.77285e-09
6.97802e-09
6.74581e-09
6.27324e-09
7.52583e-09
6.94045e-09
1.29792e-08
6.77794e-09
6.65686e-09
6.27337e-09
6.79317e-09
5.66818e-09
7.33297e-09
1.35605e-08
6.64155e-09
6.81933e-09
5.67301e-09
1.23627e-08
5.55912e-09
5.74426e-09
1.1883e-08
1.80265e-08
2.66935e-08
1.78638e-08
2.68441e-08
1.22102e-08
5.20348e-09
5.82635e-09
1.15477e-08
1.84018e-08
2.64774e-08
1.78765e-08
2.68955e-08
8.03719e-09
7.99165e-09
7.7994e-09
7.45327e-09
1.52695e-08
5.75442e-09
7.15972e-09
6.23146e-09
6.90596e-09
7.89653e-09
6.15385e-09
6.91346e-09
1.55341e-08
7.21215e-09
8.09937e-09
6.2278e-09
1.10326e-08
5.26223e-09
6.34741e-09
1.18986e-08
1.56582e-08
2.26661e-08
1.45266e-08
2.42237e-08
1.18513e-08
7.14958e-09
1.11288e-08
6.93669e-09
1.68724e-08
2.60998e-08
1.76191e-08
2.51272e-08
6.88197e-09
8.46456e-09
6.70978e-09
7.8183e-09
6.35569e-09
6.8572e-09
8.57353e-09
8.57089e-09
1.09354e-08
1.26839e-08
9.58203e-09
9.97026e-09
7.23374e-09
7.68463e-09
1.09027e-08
6.1596e-09
8.84564e-09
1.54156e-07
6.21693e-08
6.98591e-08
5.83285e-08
7.08889e-08
1.03545e-07
9.61892e-08
4.22712e-07
6.77209e-07
5.34286e-07
4.7376e-07
4.92468e-07
6.03181e-07
3.08554e-07
1.45693e-08
9.92853e-09
1.81417e-08
2.71153e-08
1.88321e-08
9.81689e-09
1.44125e-08
1.63281e-08
1.18172e-08
1.23939e-08
1.55101e-08
1.64267e-08
1.28936e-08
1.38585e-08
1.63027e-08
1.1576e-08
1.80196e-08
1.00653e-08
1.38109e-08
1.64777e-08
1.45322e-08
1.30874e-08
1.50567e-08
1.62518e-08
9.48225e-09
1.41815e-08
1.7188e-08
2.7975e-08
1.97001e-08
2.11079e-08
1.94125e-08
1.86816e-08
1.68024e-08
3.64549e-08
3.92671e-08
1.52974e-08
3.73414e-08
3.06402e-08
5.33519e-08
2.11787e-08
4.7701e-08
4.3671e-08
5.37583e-08
7.09429e-08
4.72276e-08
6.70518e-08
4.71976e-08
5.67304e-08
5.33633e-08
8.56639e-08
5.89811e-08
8.04656e-08
5.32838e-08
5.93798e-08
3.78316e-08
4.02221e-08
5.48079e-08
2.86287e-08
5.85643e-08
2.43027e-08
3.96683e-08
1.1272e-08
7.67946e-09
4.87579e-09
6.15444e-09
5.60786e-09
8.22441e-09
1.06545e-08
1.1554e-08
1.62568e-08
6.65729e-09
1.01648e-08
1.02841e-08
6.07804e-09
1.81217e-08
4.55292e-09
6.48131e-09
1.15265e-08
8.55519e-09
7.19628e-09
4.38604e-09
5.7791e-09
6.39068e-09
9.137e-09
5.88068e-09
5.19512e-09
7.36025e-09
7.78279e-09
5.4307e-09
5.79151e-09
8.96674e-09
8.59034e-09
5.31553e-09
7.40941e-09
4.30634e-09
5.17142e-09
5.21904e-09
5.92388e-09
5.52834e-09
6.85173e-09
7.60093e-09
7.05791e-09
7.76795e-09
7.02586e-09
7.30456e-09
7.65227e-09
7.24955e-09
7.83827e-09
7.54208e-09
7.05959e-09
7.45981e-09
7.06077e-09
7.32996e-09
8.19222e-09
7.46027e-09
7.94931e-09
5.75715e-09
7.03886e-09
6.83856e-09
6.10849e-09
5.81337e-09
8.58574e-09
4.7637e-09
6.54767e-09
5.83806e-09
5.6858e-09
6.73828e-09
6.089e-09
5.8375e-09
5.28739e-09
6.09098e-09
5.15885e-09
6.4717e-09
7.17283e-09
7.13619e-09
6.28961e-09
6.45216e-09
6.14814e-09
6.57304e-09
5.88987e-09
6.57556e-09
7.13593e-09
6.64368e-09
7.15298e-09
6.33745e-09
5.19497e-09
6.11809e-09
5.64656e-09
3.0175e-09
2.86536e-09
3.08292e-09
2.6639e-09
3.08572e-09
2.92893e-09
2.65433e-09
7.06545e-09
5.41733e-09
4.26657e-09
4.24032e-09
4.93864e-09
5.85695e-09
5.34542e-09
1.19876e-08
7.7131e-09
2.46264e-08
9.41044e-09
1.37234e-08
8.55354e-09
1.09627e-08
2.02391e-08
6.89565e-09
1.83853e-08
1.45015e-08
3.80691e-09
5.62218e-09
5.75058e-09
5.07528e-09
4.87946e-09
2.8289e-09
3.37962e-09
3.83872e-09
3.14766e-09
3.98931e-09
4.38666e-09
4.65682e-09
6.71305e-09
4.90515e-09
6.15215e-09
5.35842e-09
2.92378e-09
4.56043e-09
4.6801e-09
5.87974e-09
3.6924e-09
4.1119e-09
4.4306e-09
5.3753e-09
5.80313e-09
3.95612e-09
1.36822e-08
5.38158e-09
7.8754e-09
7.27888e-09
1.34534e-08
7.89412e-09
7.27316e-09
1.32597e-08
5.29543e-09
7.81727e-09
7.04159e-09
1.32817e-08
7.78254e-09
7.04214e-09
6.25544e-09
4.62576e-09
6.04198e-09
1.61361e-08
2.46284e-08
1.61886e-08
2.44831e-08
4.2198e-09
4.19007e-09
1.04544e-08
1.02452e-08
1.09969e-08
1.34114e-08
8.70945e-09
8.7424e-09
1.01386e-08
1.14503e-08
1.09509e-08
1.00666e-08
1.0901e-08