/*--------------------------------*- C++ -*----------------------------------*\
| =========                 |                                                 |
| \\      /  F ield         | OpenFOAM: The Open Source CFD Toolbox           |
|  \\    /   O peration     | Version:  2012                                  |
|   \\  /    A nd           | Website:  www.openfoam.com                      |
|    \\/     M anipulation  |                                                 |
\*---------------------------------------------------------------------------*/
FoamFile
{
    version     2.0;
    format      ascii;
    class       volVectorField;
    location    "0.106/solid";
    object      sigmaMinDir;
}
// * * * * * * * * * * * * * * * * * * * * * * * * * * * * * * * * * * * * * //

dimensions      [1 -1 -2 0 0 0 0];


internalField   nonuniform List<vector> 
3124
(
(0.343366 0.680577 0.647237)
(0.787651 0.577107 -0.215764)
(-0.506174 0.85972 -0.0683312)
(-0.184551 -0.0421669 0.981918)
(-0.0456321 -0.00671238 0.998936)
(-0.0250397 -0.000518467 0.999686)
(0.850176 0.519116 -0.0878627)
(0.0732705 0.171418 0.98247)
(0.234132 0.970228 0.0619729)
(-0.220767 0.957794 0.184097)
(-0.209955 -0.0389793 0.976934)
(0.868733 -0.485907 -0.0959008)
(0.0628231 0.101413 0.992859)
(-0.209069 -0.00679253 0.977877)
(0.701318 -0.692187 -0.170383)
(0.224586 0.973811 0.0353994)
(-0.187561 -0.0176349 0.982095)
(-0.142956 -0.00176033 0.989728)
(-0.0254423 -0.00379524 0.999669)
(-0.0434925 -0.00332168 0.999048)
(-0.136741 -0.00117961 0.990606)
(-0.141432 -0.000748578 0.989948)
(-0.136435 -0.000419989 0.990649)
(0.030183 0.982121 -0.185817)
(0.00248181 0.322178 0.946676)
(0.698359 -0.693513 -0.177014)
(0.249607 0.857349 0.450165)
(0.566384 0.586908 0.578575)
(0.28203 0.914614 0.289724)
(-0.0856323 0.956081 0.280313)
(0.510134 0.355497 0.783189)
(0.501664 0.799559 0.330209)
(0.000753358 0.00718884 0.999974)
(0.00249535 0.0893104 0.996001)
(0.335653 0.941491 -0.0305381)
(-0.0207771 0.999628 0.0176419)
(0.000359844 -0.00767211 0.999971)
(0.0210437 -0.00629788 0.999759)
(0.00250008 -0.00124354 0.999996)
(0.00338618 -0.00150325 0.999993)
(0.00235765 -0.000845936 0.999997)
(0.00218745 -0.000135744 0.999998)
(-0.324559 0.874679 -0.359998)
(0.891694 0.439194 0.109502)
(0.908643 -0.416138 -0.0345999)
(0.0128462 0.40211 0.915501)
(0.679279 -0.671536 -0.296006)
(0.78328 0.612663 0.105439)
(0.717649 -0.362032 -0.594906)
(0.943585 -0.324455 -0.0661566)
(-0.0877776 -0.021147 0.995916)
(-0.0795817 -0.0149222 0.996717)
(-0.0206992 -0.00264593 0.999782)
(-0.0200262 0.000660758 0.999799)
(0.759631 0.513033 0.399696)
(0.898388 0.405343 0.169103)
(0.67998 0.116452 0.723924)
(0.615387 0.750656 0.240448)
(0.192798 0.149901 0.969721)
(-0.0982609 0.88982 0.445606)
(0.418263 0.446922 0.79077)
(0.146915 0.928939 0.339837)
(0.244544 0.962218 0.119731)
(-0.0608676 0.998134 0.00483418)
(0.455754 0.886902 0.0754565)
(-0.0786122 0.98609 0.146445)
(0.21969 0.97222 0.0807749)
(0.466744 0.872317 0.145646)
(-0.181587 0.983307 -0.0115833)
(-0.260667 0.965364 0.0112221)
(0.760697 0.625271 0.17429)
(0.265111 0.262783 0.927718)
(0.63266 0.290315 0.717955)
(0.602785 0.794576 0.0727998)
(0.606552 0.783714 0.133743)
(-0.472563 0.0847358 0.877214)
(-0.57607 0.126599 0.807537)
(-0.5033 0.12479 0.855053)
(0.111627 0.195883 0.974253)
(0.0105767 0.0652841 0.997811)
(-0.0297716 0.00890987 0.999517)
(-0.337715 0.142463 0.930405)
(-0.0248257 0.0958204 0.995089)
(0.111238 0.280936 0.953258)
(-0.338972 0.0590812 0.93894)
(-0.0169435 0.0875025 0.99602)
(0.298535 0.953854 -0.032222)
(0.216695 0.975954 0.0235917)
(-0.0541892 0.998528 0.00247855)
(0.434162 0.899963 0.0396271)
(0.123909 0.991168 0.0472517)
(-0.023458 0.999205 0.0322356)
(0.431038 0.902159 0.0177539)
(0.584571 0.811329 0.00463484)
(-0.112237 0.993615 0.011477)
(-0.173411 0.984808 -0.00901361)
(-0.119028 0.992633 0.0226401)
(0.58902 0.806531 0.0506317)
(0.582239 0.812835 0.0172239)
(-0.0299705 -0.00768444 0.999521)
(-0.159206 -0.00725781 0.987219)
(-0.011319 -0.00590813 0.999918)
(0.00612291 -0.00279969 0.999977)
(0.0160751 -0.0079852 0.999839)
(-0.152934 -0.00348336 0.98823)
(-0.0202652 -0.00192899 0.999793)
(-0.0128069 -0.00250934 0.999915)
(-0.0310129 -0.00155004 0.999518)
(-0.0319261 -0.00469519 0.999479)
(0.00553378 -0.00183068 0.999983)
(0.00381916 -0.00169826 0.999991)
(-0.0240898 -0.000932057 0.999709)
(-0.137978 -0.000592401 0.990435)
(-0.0232943 -0.00122487 0.999728)
(-0.0210903 -0.00115826 0.999777)
(-0.13856 -0.00126335 0.990353)
(-0.0228494 -0.00115499 0.999738)
(-0.024169 -0.000914181 0.999707)
(-0.135465 -0.000701376 0.990782)
(-0.0241948 5.75756e-05 0.999707)
(0.0022371 0.000436906 0.999997)
(-0.135068 4.26633e-05 0.990836)
(-0.0240997 0.000210563 0.99971)
(-0.0600712 0.0622045 0.996254)
(0.0695922 0.424073 0.90295)
(0.039473 0.0108601 0.999162)
(0.0409316 0.0257818 0.998829)
(0.0425027 -0.00564907 0.99908)
(0.0473762 0.003896 0.99887)
(0.0328638 -0.00129878 0.999459)
(0.0329148 -0.00184444 0.999456)
(0.0326897 -0.00124182 0.999465)
(0.0323655 -0.00070567 0.999476)
(0.993518 0.113165 0.0107744)
(0.776009 0.569505 -0.271059)
(0.947054 0.320016 0.0260478)
(0.472495 0.807716 -0.352624)
(0.967939 0.24996 -0.0247689)
(0.967324 0.253468 -0.0062367)
(0.442026 0.801174 -0.403402)
(0.530495 0.847489 -0.0183462)
(-0.491129 0.864803 -0.104437)
(0.183288 0.982852 -0.0202027)
(-0.586341 0.797199 -0.143796)
(0.182175 0.982004 -0.0497951)
(-0.486269 0.853116 -0.18904)
(0.249662 0.960853 -0.120127)
(-0.676801 -0.029639 0.735569)
(-0.129277 -0.0457298 0.990553)
(-0.569467 -0.0294481 0.821486)
(-0.0545234 -0.00647039 0.998492)
(-0.28534 -0.0051427 0.958413)
(-0.328018 -0.0104742 0.944613)
(-0.150973 -0.00347322 0.988532)
(-0.0228584 -0.0033273 0.999733)
(-0.126403 -0.00201622 0.991977)
(-0.016481 0.000917759 0.999864)
(-0.0735522 -0.00149264 0.99729)
(0.837973 0.478166 0.262981)
(0.889985 0.381375 0.24996)
(0.974606 0.189545 0.119229)
(0.505519 0.798023 -0.328039)
(0.975598 0.21858 -0.0207787)
(0.929946 0.0814054 0.358571)
(0.832109 0.529574 0.164764)
(-0.0181163 0.0478387 0.998691)
(0.0943551 0.165308 0.981718)
(0.0706562 -0.0320145 0.996987)
(0.174643 0.325465 0.929286)
(-0.0879775 0.991499 0.095863)
(-0.617564 0.782067 -0.0835858)
(0.233046 0.957321 0.170957)
(0.0716331 0.803178 0.591417)
(0.0842702 0.99602 0.0290132)
(-0.52962 0.753533 0.389476)
(0.346566 0.848109 0.400753)
(-0.70049 -0.031295 0.712976)
(-0.314992 -0.00784026 0.949062)
(0.757102 0.0245358 -0.652836)
(0.876217 0.463818 0.130834)
(0.82599 -0.55999 0.0644403)
(0.93407 -0.34935 -0.0739453)
(0.925656 -0.205751 -0.317532)
(0.80181 -0.595726 0.04702)
(0.998989 -0.0336409 -0.0298204)
(0.942003 0.198405 -0.270676)
(-0.0991146 0.00673416 0.995053)
(-0.236979 0.00987014 0.971465)
(-0.115325 0.0267529 0.992968)
(0.958178 -0.257712 -0.124419)
(0.795082 -0.600587 0.0845003)
(-0.233976 0.649144 0.723786)
(0.789044 -0.447595 -0.420794)
(0.755356 -0.60672 -0.247644)
(0.993463 -0.105125 -0.0444901)
(-0.471393 0.485764 0.736085)
(-0.0847088 -0.0123755 0.996329)
(-0.174127 -0.0201822 0.984516)
(-0.0747892 -0.0230593 0.996933)
(0.0334816 -0.00193552 0.999437)
(0.0321897 -0.00414568 0.999473)
(-0.145084 -0.00174861 0.989418)
(-0.058903 -0.000473394 0.998264)
(-0.0596771 -0.000895991 0.998217)
(-0.153793 -0.00175645 0.988102)
(-0.0267833 -0.00108002 0.999641)
(-0.15863 -0.00409932 0.98733)
(-0.276395 -0.00663775 0.961021)
(-0.0368516 -0.0054139 0.999306)
(-0.229562 -0.00453863 0.973284)
(0.0341787 -0.00193219 0.999414)
(0.034166 -0.00192941 0.999414)
(-0.0563556 -0.000774771 0.99841)
(-0.137139 -0.000632897 0.990552)
(-0.0564683 -0.0010282 0.998404)
(-0.0582608 -0.000389104 0.998301)
(-0.140287 -0.00115826 0.99011)
(-0.0577211 -0.000395528 0.998333)
(-0.0561879 -0.000950187 0.99842)
(-0.136227 -0.000840052 0.990677)
(-0.0559745 -0.000549687 0.998432)
(0.0322932 0.000575251 0.999478)
(-0.134283 -0.000100501 0.990943)
(-0.0546297 -0.000116465 0.998507)
(-0.422791 0.750829 0.507448)
(-0.261097 0.773958 0.576903)
(-0.483499 0.875311 0.00777715)
(0.126267 0.976077 -0.177002)
(-0.455245 0.888288 0.0607994)
(-0.229794 0.726612 0.64748)
(-0.370137 0.877519 0.304892)
(-0.0547684 0.0435726 0.997548)
(0.0471658 -0.0224621 0.998634)
(-0.148702 0.513637 0.845023)
(-0.137952 0.18625 0.972769)
(0.0976865 0.424666 0.900064)
(-0.41417 0.714566 0.563789)
(-0.605159 0.7906 0.0934612)
(-0.657671 0.750542 0.0644635)
(-0.489363 0.737546 0.465349)
(-0.568849 0.820493 0.056589)
(-0.507899 0.680807 0.527769)
(-0.369274 0.767803 0.52356)
(0.276038 0.82107 0.499646)
(0.0633297 0.96371 0.25933)
(0.377707 0.556038 0.740378)
(0.363626 0.834395 0.414199)
(0.457427 0.650705 0.606089)
(0.177714 0.826481 0.534179)
(0.23012 0.907897 0.350383)
(0.348584 0.67464 0.650654)
(0.460843 0.466322 0.755094)
(0.563638 0.366101 0.740461)
(0.402113 0.439318 0.803309)
(0.595964 0.453 0.663036)
(0.268398 0.614136 0.742159)
(0.433501 0.430358 0.79175)
(0.0434548 0.109541 0.993032)
(0.0453448 0.0426426 0.998061)
(0.0317088 0.00808118 0.999464)
(0.000404132 0.023235 0.99973)
(0.0305209 0.0243395 0.999238)
(0.0302486 0.0920366 0.995296)
(0.000241649 0.0430141 0.999074)
(0.0313195 0.0421844 0.998619)
(0.128855 0.991649 0.00531574)
(0.362885 0.931794 0.00869155)
(0.238842 0.970849 0.02016)
(0.0319825 -0.00824986 0.999454)
(0.00479433 -0.00920781 0.999946)
(0.0346984 -0.00183979 0.999396)
(0.0435032 -0.0153437 0.998935)
(0.049098 0.00460633 0.998783)
(0.0157053 -0.00750702 0.999848)
(0.043693 -0.00926705 0.999002)
(0.0425864 0.00148747 0.999092)
(0.0336297 -0.00202978 0.999432)
(0.0331865 -0.00174641 0.999448)
(0.0294407 -0.00139447 0.999566)
(0.00277162 -0.00153213 0.999995)
(0.029514 -0.00172676 0.999563)
(0.0301258 -0.00176175 0.999545)
(0.00306107 -0.00137492 0.999994)
(0.0297519 -0.00160499 0.999556)
(0.0292909 -0.000959466 0.99957)
(0.00232265 -0.00058317 0.999997)
(0.0290856 -0.000649633 0.999577)
(0.0322849 1.15446e-05 0.999479)
(0.032196 -0.000771873 0.999481)
(0.00225989 -0.000484746 0.999997)
(0.0290398 -0.000166312 0.999578)
(0.028986 -0.000598474 0.99958)
(0.999685 -0.0242329 0.00645553)
(-0.461249 0.788267 -0.407289)
(0.748747 -0.658915 0.0721746)
(0.173156 0.941406 -0.289434)
(-0.601762 0.798592 0.0115976)
(0.985024 -0.169489 0.0316483)
(0.334716 0.834216 -0.438234)
(0.995473 0.0910233 0.0273484)
(0.935261 0.345581 0.0765591)
(0.847444 0.530387 0.0229939)
(0.958515 0.276586 0.0689106)
(0.965292 0.258079 0.0400737)
(0.964766 0.262898 -0.0105426)
(0.975548 0.215401 0.0436809)
(0.998174 -0.0603772 0.00205442)
(0.823083 -0.567859 0.00840763)
(0.859273 -0.511205 0.0178588)
(0.999731 -0.0171809 0.0155927)
(0.721431 -0.69227 -0.017323)
(0.996381 0.0849599 -0.00259137)
(0.994412 -0.103118 0.0226241)
(0.0577516 -0.0383766 0.997593)
(-0.473743 0.608984 0.636165)
(-0.0438559 0.0374944 0.998334)
(0.680916 -0.536088 -0.498962)
(0.936539 -0.342677 -0.0739355)
(0.774763 -0.622642 -0.109813)
(-0.385411 0.730312 0.564006)
(0.744316 -0.64604 -0.169194)
(-0.117665 0.747866 0.653339)
(0.851401 -0.522197 -0.0492664)
(0.683695 0.724246 0.0896055)
(0.635958 0.759017 0.139464)
(0.757373 0.65281 0.014999)
(0.901814 0.424048 0.0831564)
(0.924662 0.379029 0.0365565)
(0.396621 0.914396 0.0810647)
(0.810262 0.570664 0.133485)
(0.615941 0.784654 -0.0702442)
(-0.685638 0.719957 -0.107533)
(0.051032 0.901924 0.42887)
(0.863267 -0.348834 0.364809)
(0.991518 0.121445 0.0462931)
(-0.294515 0.933916 -0.202638)
(0.887804 0.386348 0.250078)
(0.890687 0.446738 0.0842673)
(0.889387 -0.456189 -0.0296989)
(0.99122 0.12869 0.0303673)
(0.951384 -0.306763 0.0276575)
(0.980754 0.195236 -0.00210985)
(0.995449 -0.0896859 0.0322061)
(0.958354 0.257042 0.124449)
(-0.1171 -0.0375538 0.99241)
(-0.447502 -0.018974 0.894082)
(-0.546136 -0.0258547 0.837297)
(-0.0589033 -0.0106059 0.998207)
(-0.424345 -0.0182022 0.905318)
(-0.345173 -0.0108343 0.938476)
(-0.0222422 0.000108394 0.999753)
(-0.116233 -0.000559975 0.993222)
(-0.120743 -0.00230297 0.992681)
(-0.0172568 -0.00244447 0.999848)
(-0.110386 -0.00207014 0.993887)
(-0.0806801 -0.00102747 0.99674)
(0.353544 0.859174 0.3699)
(0.602602 0.314007 0.733669)
(0.785954 0.0139286 0.618128)
(0.750608 0.473322 0.461035)
(0.662895 0.423095 0.617706)
(0.693039 0.595115 0.40686)
(0.283598 0.584571 0.760164)
(0.73952 0.182823 0.647831)
(0.696582 0.530016 0.483586)
(0.97908 0.0914876 0.18175)
(0.970752 0.192237 0.143824)
(0.820011 0.572347 0.00142768)
(0.954218 0.119406 0.274244)
(0.97419 0.223869 -0.0289286)
(0.998792 -0.0381613 0.0309544)
(0.954245 -0.00577763 0.298971)
(0.773641 -0.281904 0.567459)
(0.729346 -0.0830406 0.679087)
(0.642459 0.244741 0.726187)
(0.868812 0.00116378 0.495141)
(0.707767 0.311902 0.633863)
(0.904252 -0.420133 0.0762639)
(0.809493 0.0834494 0.581169)
(0.704619 0.364056 0.609078)
(0.581501 0.72531 0.368486)
(0.275836 0.765517 0.58129)
(-0.339505 0.940557 0.00942939)
(-0.143974 0.891799 0.428913)
(-0.202752 0.268769 0.941624)
(-0.156061 0.930762 0.330646)
(0.323548 0.486072 0.811819)
(0.335134 0.628901 0.701547)
(0.248358 0.55869 0.791318)
(0.0842726 0.0264826 0.996091)
(0.129488 0.130091 0.98301)
(0.0851587 0.0143359 0.996264)
(0.254775 0.179182 0.950254)
(0.184218 0.0301989 0.982421)
(0.0831622 -0.0438842 0.995569)
(0.173041 0.18361 0.967649)
(-0.0815273 0.991362 0.102732)
(-0.242797 0.96992 0.0174665)
(0.234282 0.795609 0.558676)
(-0.00885212 0.223603 0.97464)
(0.254057 0.538517 0.803402)
(0.321904 0.529054 0.785162)
(0.310165 0.342873 0.8867)
(-0.0442759 0.880309 0.472329)
(0.189013 0.0973211 0.97714)
(0.227293 0.421859 0.877709)
(0.220951 0.969008 0.110475)
(0.0588483 0.987933 0.143263)
(0.199116 0.974206 0.106184)
(0.343884 0.90444 0.252452)
(0.230615 0.948467 0.217316)
(0.0626716 0.994999 0.0777828)
(0.36026 0.920909 0.148794)
(0.216296 0.973072 0.0796613)
(0.27448 0.95871 0.0744012)
(0.0560808 0.99836 0.0114597)
(0.343119 0.938533 0.037752)
(0.0578507 0.997578 0.0386152)
(0.3442 0.933861 0.0971108)
(0.21138 0.977125 0.0233653)
(-0.350071 0.935909 0.0390429)
(-0.309642 0.950833 0.00620781)
(-0.188643 0.982041 0.00308453)
(-0.0526819 0.998281 -0.0256703)
(-0.0541179 0.998176 0.0267546)
(-0.109038 0.991856 0.0658162)
(-0.185961 0.981229 0.0510812)
(-0.0531505 0.998104 0.0310309)
(-0.302623 0.952962 -0.0168194)
(-0.290769 0.956624 0.0180111)
(0.0182728 0.999625 -0.0203822)
(0.532396 0.830906 0.161705)
(0.693778 0.720175 -0.00454306)
(0.8478 0.419089 0.324962)
(0.286491 0.957831 0.0219672)
(0.290615 0.948597 0.12533)
(0.672674 0.649305 0.354841)
(-0.0975336 0.989697 0.104821)
(0.248373 0.520281 0.817079)
(0.120508 0.0338143 0.992136)
(0.401655 0.254495 0.879719)
(0.22947 0.0695641 0.970827)
(-0.436467 0.73759 0.515226)
(0.55418 0.450429 0.699998)
(0.00380325 0.999534 0.0303036)
(0.732182 0.101216 0.673546)
(0.828116 0.235343 0.508761)
(0.495387 0.316398 0.809002)
(-0.178775 0.974776 0.133611)
(0.256387 0.112115 0.96005)
(0.703149 0.374994 0.60412)
(0.400014 0.835628 0.376451)
(0.404823 0.90047 0.15897)
(0.537086 0.836561 0.108188)
(0.613763 0.785596 0.0783181)
(0.556792 0.810084 0.183702)
(0.382468 0.921187 0.0716493)
(0.412955 0.894071 0.173507)
(0.467333 0.798861 0.378709)
(0.609338 0.784699 0.113819)
(0.553497 0.784041 0.280929)
(-0.352556 -0.000324265 0.935791)
(0.789786 -0.0148091 -0.613204)
(0.769974 0.0197175 -0.63777)
(0.747335 0.650789 0.134032)
(0.8848 -0.15325 -0.440049)
(-0.31024 0.29313 0.904337)
(-0.438513 -0.452107 0.776728)
(0.958147 -0.284504 -0.0317916)
(0.123316 0.95828 -0.257862)
(0.782656 0.396988 -0.479427)
(0.789629 0.601292 0.122207)
(-0.66236 0.328423 0.673363)
(0.79253 -0.0429213 -0.608321)
(0.989773 -0.0455407 -0.135188)
(0.807786 0.125251 -0.576015)
(0.593098 0.774624 0.219528)
(-0.432266 -0.630625 0.64456)
(-0.188597 0.957495 0.218254)
(0.746782 0.387326 -0.540643)
(-0.0133577 0.349307 0.936913)
(0.00108453 0.0410076 0.999158)
(0.0255296 0.132298 0.990881)
(-0.013583 0.302568 0.953031)
(0.022893 0.0519335 0.998388)
(0.0263365 0.127133 0.991536)
(0.0357401 0.205759 0.97795)
(0.0278514 0.125415 0.991713)
(-0.0665698 0.0101428 0.99773)
(-0.028908 0.0238782 0.999297)
(-0.0701069 0.0263725 0.997191)
(-0.281374 0.0250172 0.959272)
(-0.170357 0.124915 0.977433)
(-0.133418 0.0580438 0.989359)
(-0.0282706 0.0455667 0.998561)
(-0.0759038 0.107648 0.991287)
(-0.070893 0.0523722 0.996108)
(-0.200467 0.244474 0.948707)
(0.0041384 0.415952 0.909377)
(0.0433056 0.151935 0.987441)
(0.0249204 0.247203 0.968643)
(-0.514684 0.499002 0.697207)
(0.0541906 0.181039 0.981982)
(-0.125059 0.339878 0.932118)
(0.980828 -0.00539598 0.1948)
(-0.568491 0.279963 0.773588)
(-0.204645 0.123382 0.971029)
(0.990662 -0.0626678 -0.121082)
(-0.360814 0.274455 0.89134)
(-0.173801 0.15661 0.972248)
(-0.00220102 0.144995 0.98943)
(-0.0995999 0.107627 0.98919)
(0.0496454 0.188001 0.980913)
(-0.134655 0.192485 0.972017)
(0.224036 0.974373 0.020126)
(0.296675 0.954473 -0.0310818)
(0.120906 0.992632 0.0079334)
(0.354934 0.934884 -0.00378771)
(0.233579 0.972336 0.00211693)
(0.103049 0.994673 0.0027093)
(0.341157 0.939998 0.00401919)
(0.215772 0.976442 -0.00190395)
(0.229603 0.972858 -0.0287995)
(0.059327 0.998187 -0.0101476)
(0.328088 0.944485 0.0175051)
(0.210496 0.97732 0.0231684)
(0.0808795 0.996679 -0.00941487)
(0.33483 0.942245 -0.00794038)
(0.411505 0.911354 0.00986791)
(0.523611 0.851852 0.0134247)
(-0.1843 0.982809 0.0109927)
(0.0368985 0.999217 0.0143029)
(-0.190755 0.981633 -0.00309533)
(-0.209223 0.977863 0.00298215)
(-0.0449709 0.998784 -0.0201785)
(-0.158005 0.98735 0.0131733)
(-0.00134285 0.999998 -0.00113778)
(-0.291361 0.956559 -0.0102366)
(-0.233201 0.972327 -0.0140191)
(0.0363793 0.999289 0.00993266)
(-0.136704 0.990262 0.0263362)
(0.0115559 0.999834 0.0140691)
(0.405667 0.913923 -0.013377)
(0.382765 0.923778 0.0112267)
(0.510566 0.856648 0.0740076)
(0.579848 0.813705 0.0407509)
(0.502189 0.863726 0.0422409)
(0.367331 0.926655 0.0798649)
(0.377922 0.925811 -0.00697919)
(0.514048 0.857625 0.0152968)
(0.581112 0.813574 0.0201777)
(0.509774 0.859819 0.0290183)
(-0.0617434 -0.0087998 0.998053)
(-0.0251886 -0.0166284 0.999544)
(-0.0566534 -0.0212998 0.998167)
(-0.16583 -0.0139891 0.986055)
(-0.0678447 -0.00506628 0.997683)
(-0.0705116 -0.0178909 0.997351)
(-0.0164589 -0.0164277 0.99973)
(-0.052466 -0.00549496 0.998608)
(-0.0532874 -0.0196725 0.998385)
(0.0354712 -0.019755 0.999175)
(0.0319382 -0.0100236 0.99944)
(0.0306892 -0.00284748 0.999525)
(0.00710871 -0.00464432 0.999964)
(0.0302622 -0.00501241 0.999529)
(0.0366453 -0.0146877 0.99922)
(0.00983338 -0.00716943 0.999926)
(0.0312759 -0.00950535 0.999466)
(-0.148137 -0.00296891 0.988962)
(-0.0639446 -0.000169673 0.997953)
(-0.0610475 -0.000850886 0.998134)
(-0.0555052 -0.000861057 0.998458)
(-0.0188959 -0.0031816 0.999816)
(-0.0544534 -0.00153431 0.998515)
(-0.0522466 7.17566e-05 0.998634)
(-0.0164174 -0.00397793 0.999857)
(-0.0530698 -0.00146456 0.99859)
(-0.027632 -0.00448005 0.999608)
(-0.196292 -0.00463736 0.980534)
(-0.165011 -0.00339235 0.986286)
(-0.035203 -0.00206317 0.999378)
(-0.201181 -0.00279027 0.97955)
(-0.219946 -0.00534317 0.975498)
(0.0338827 -0.00184044 0.999424)
(0.033998 -0.00233113 0.999419)
(0.0309905 -0.00207211 0.999518)
(0.00496401 -0.00168268 0.999986)
(0.0308647 -0.00199436 0.999522)
(0.0303783 -0.0019548 0.999537)
(0.00437321 -0.00184241 0.999989)
(0.0305858 -0.00221404 0.99953)
(-0.0572404 -0.000771845 0.99836)
(-0.0237205 -0.0011851 0.999718)
(-0.0573521 -0.00102383 0.998353)
(-0.137525 -0.00117342 0.990498)
(-0.0569611 -0.000852164 0.998376)
(-0.0566483 -0.000878175 0.998394)
(-0.0234829 -0.00123189 0.999723)
(-0.0569895 -0.000917105 0.998374)
(-0.057265 -0.00101725 0.998358)
(-0.0560821 -0.00051964 0.998426)
(-0.0217146 -0.0011138 0.999764)
(-0.0564267 -0.000554422 0.998407)
(-0.139372 -0.000610414 0.99024)
(-0.057226 -0.000700329 0.998361)
(-0.0573959 -0.00054986 0.998351)
(-0.0222799 -0.00126529 0.999751)
(-0.0569147 -0.000772278 0.998379)
(-0.0567849 -0.000758909 0.998386)
(-0.0572044 -0.000953719 0.998362)
(-0.0239974 -0.000648947 0.999712)
(-0.0573084 -0.000613537 0.998356)
(-0.135905 -0.000289484 0.990722)
(-0.0556013 -5.93638e-05 0.998453)
(-0.055776 -0.000496813 0.998443)
(-0.0240038 -0.000292334 0.999712)
(-0.056965 7.07764e-05 0.998376)
(-0.0572418 -0.000327266 0.99836)
(0.0322881 0.000153187 0.999479)
(0.0321376 0.000762019 0.999483)
(0.00264 0.000528934 0.999996)
(0.0292596 0.000598299 0.999572)
(0.0290771 0.000435206 0.999577)
(0.00242647 0.000669037 0.999997)
(0.0290848 0.00075873 0.999577)
(-0.134716 -0.000525125 0.990884)
(-0.0553367 -0.000184629 0.998468)
(-0.0549611 7.21165e-05 0.998488)
(-0.0234429 0.000520676 0.999725)
(-0.0564514 0.000246064 0.998405)
(-0.0567797 -1.07816e-05 0.998387)
(-0.0236705 0.000365877 0.99972)
(-0.0567392 0.000177233 0.998389)
(-0.120851 -0.0338174 0.992094)
(-0.204124 -0.044596 0.977929)
(-0.236488 -0.0251613 0.971309)
(-0.162599 -0.0488906 0.98548)
(-0.142621 -0.030607 0.989304)
(-0.227228 -0.0348505 0.973218)
(-0.172297 -0.0473903 0.983904)
(-0.0122779 -0.00511205 0.999912)
(-0.161241 -0.00833723 0.98688)
(-0.048348 -0.00526559 0.998817)
(0.00151368 -0.00600593 0.999981)
(-0.163049 6.72461e-05 0.986618)
(-0.0101204 -0.00478287 0.999937)
(-0.00135322 -0.00669902 0.999977)
(0.00967386 -2.57874e-06 0.999953)
(0.0326613 -0.00160325 0.999465)
(-0.150342 0.00461559 0.988623)
(-0.0247109 -0.00255852 0.999691)
(0.00911648 -0.000107313 0.999958)
(-0.150736 -0.00422283 0.988565)
(0.0340818 -0.00149212 0.999418)
(-0.206967 -0.0294682 0.977904)
(-0.24207 -0.0422918 0.969337)
(-0.250841 -0.0275494 0.967636)
(-0.241908 -0.0287108 0.969874)
(-0.164899 -0.0303454 0.985844)
(-0.271093 -0.0167259 0.962408)
(-0.288044 -0.0388766 0.956828)
(0.0339602 0.142037 0.989279)
(0.0525306 0.184606 0.981408)
(0.0671181 -0.0293024 0.997315)
(0.0715824 0.129667 0.98897)
(0.0789288 0.0212711 0.996653)
(0.0415806 0.150155 0.987788)
(0.0556559 0.191302 0.979952)
(0.0086227 -0.00279236 0.999959)
(0.0320602 -0.00261097 0.999483)
(-0.150507 -0.00683272 0.988585)
(-0.0261015 -0.00177733 0.999658)
(0.00906791 -0.00249154 0.999956)
(-0.15119 0.00194848 0.988503)
(0.0320654 -0.00284957 0.999482)
(-0.00608933 -0.002128 0.999979)
(-0.160231 0.00276639 0.987076)
(0.00463803 -0.00475152 0.999978)
(-0.0413624 -0.00499956 0.999132)
(-0.00836525 -0.0024158 0.999962)
(-0.15944 -0.00559428 0.987192)
(0.00845623 -0.0043801 0.999955)
(0.319466 0.829723 0.457714)
(0.194615 0.939136 0.283104)
(0.282612 0.808631 0.515991)
(0.225827 0.879273 0.419381)
(0.292699 0.808644 0.510315)
(0.269613 0.870272 0.412232)
(0.291911 0.90391 0.312626)
(0.211079 0.750542 0.626205)
(0.223469 0.595437 0.771697)
(0.328746 0.437641 0.836897)
(0.207904 0.657329 0.724359)
(0.341314 0.47513 0.811022)
(0.283045 0.959091 -0.00538486)
(0.298432 0.954405 -0.00705524)
(0.341747 0.93948 0.0242001)
(0.72959 -0.473734 -0.493229)
(0.818399 -0.445437 0.363055)
(-0.0621934 -0.0164075 0.997929)
(-0.0970214 -0.025329 0.99496)
(-0.186277 -0.0145273 0.98239)
(-0.059278 -0.0213705 0.998013)
(-0.0528792 -0.0138768 0.998504)
(-0.192188 -0.00856665 0.981321)
(-0.0717662 -0.0261285 0.997079)
(-0.0356258 -0.00898667 0.999325)
(-0.0715524 -0.0136831 0.997343)
(-0.181462 -0.00319365 0.983393)
(-0.0471004 -0.0172354 0.998741)
(-0.0440747 -0.0107536 0.99897)
(-0.176642 -0.0101409 0.984223)
(-0.0354777 -0.0143156 0.999268)
(0.0126593 -0.00217774 0.999917)
(-0.0216063 -0.000633711 0.999766)
(-0.148134 -0.00626979 0.988947)
(0.0394218 -0.00162783 0.999221)
(0.0132836 -0.00189351 0.99991)
(-0.149106 0.00256181 0.988818)
(0.0390274 -0.00183392 0.999236)
(0.0146147 0.000810255 0.999893)
(-0.0194715 -0.00141045 0.999809)
(-0.147829 0.00523161 0.988999)
(0.0405355 -0.000616042 0.999178)
(0.0140139 0.000478577 0.999902)
(-0.14807 -0.0036073 0.98897)
(0.0423108 -0.000429104 0.999104)
(0.275806 0.764839 0.582196)
(0.3143 0.641241 0.700019)
(0.311608 0.916933 0.249266)
(0.211985 0.947715 0.238535)
(0.287728 0.94388 0.162179)
(0.24148 0.933626 0.26463)
(0.252462 0.932814 0.257141)
(0.270713 0.885153 0.378442)
(0.284299 0.917279 0.278879)
(0.224695 0.964208 0.140765)
(0.262626 0.935687 0.235623)
(0.28317 0.956356 0.0720945)
(0.24357 0.966552 0.0803163)
(0.213082 0.976975 0.010771)
(0.24666 0.967711 0.0519135)
(0.221704 0.973843 0.049774)
(0.247224 0.964936 0.0882042)
(0.279891 0.959857 -0.0183209)
(0.211184 0.963596 0.163963)
(0.3092 0.943074 0.122503)
(0.290201 0.956847 0.0150959)
(0.287336 0.957011 0.0396034)
(0.23294 0.752423 0.616116)
(0.315797 0.83537 0.449922)
(0.318071 0.937383 0.141931)
(0.344201 0.917727 0.198248)
(-0.539318 0.00197203 0.8421)
(-0.432455 0.0437435 0.900594)
(-0.526816 0.0894905 0.845255)
(-0.554973 0.0623736 0.829527)
(-0.605238 0.0354826 0.795254)
(-0.448122 0.0178333 0.893794)
(-0.521624 0.0215679 0.852903)
(0.810843 -0.0424478 -0.583722)
(-0.558763 0.182593 0.808977)
(-0.299485 -0.0585846 0.952301)
(-0.568001 0.105851 0.816193)
(-0.622076 0.0512101 0.781281)
(-0.548023 0.149946 0.822914)
(-0.600981 0.153493 0.784386)
(0.0272274 0.145721 0.988951)
(0.0843088 0.162435 0.983111)
(0.0901689 0.11606 0.989141)
(0.053089 0.20493 0.977336)
(0.066581 0.0775416 0.994763)
(0.0531541 0.141075 0.988571)
(0.0491801 0.189426 0.980663)
(0.325635 0.945111 0.0269496)
(0.294499 0.95549 -0.0175945)
(0.281451 0.959193 -0.0270944)
(0.29845 0.953984 -0.0290147)
(0.332558 0.942805 -0.0228781)
(0.275582 0.961273 0.00277983)
(0.290871 0.956759 0.00233888)
(0.27206 0.961586 -0.0365465)
(0.20071 0.979649 0.00192712)
(0.228108 0.973573 0.0110432)
(0.251399 0.967095 0.0390743)
(0.260335 0.965407 0.0146484)
(0.219407 0.975023 -0.0345172)
(0.247527 0.968857 -0.00686082)
(0.360424 0.932758 -0.0075364)
(0.342096 0.939607 -0.010398)
(0.332727 0.94259 -0.0285719)
(0.333623 0.942686 -0.0062364)
(0.243346 0.969834 0.0143009)
(0.298408 0.954237 -0.0195992)
(0.346765 0.936614 -0.0500721)
(0.338227 0.940997 0.0112779)
(0.295838 0.943704 0.147998)
(0.301949 0.952515 0.0392797)
(0.00458776 -0.000747065 0.999989)
(-0.0301714 -0.00358176 0.999538)
(-0.153456 0.00393563 0.988148)
(0.0233991 -0.00272639 0.999722)
(0.00354064 -0.000954345 0.999993)
(-0.153494 -0.00470903 0.988138)
(0.0255135 -0.00261217 0.999671)
(0.00202475 -0.00323707 0.999993)
(-0.0331469 -0.00258184 0.999447)
(-0.153877 -0.00733883 0.988063)
(0.0220346 -0.00364321 0.999751)
(0.00293356 -0.00323248 0.99999)
(-0.154913 0.00163701 0.987927)
(0.0212207 -0.00375026 0.999768)
(-0.163709 0.228289 0.959731)
(-0.0961295 0.0835598 0.991855)
(-0.273758 0.383539 0.882017)
(-0.215353 0.395986 0.892647)
(-0.0392248 0.443088 0.89562)
(-0.327083 0.511791 0.794409)
(0.0688399 -0.00229683 0.997625)
(0.0589006 0.0358025 0.997622)
(0.0645391 0.0405966 0.997089)
(0.0558653 0.00264583 0.998435)
(0.0227431 0.0127449 0.99966)
(0.0331378 0.0113866 0.999386)
(0.0302005 -0.0120105 0.999472)
(0.0227337 0.0460774 0.998679)
(0.0602601 0.007974 0.998151)
(0.0592498 0.00946985 0.998198)
(0.068412 0.0127397 0.997576)
(0.0575258 0.00848375 0.998308)
(0.0742924 0.00277557 0.997233)
(0.0679502 0.00606762 0.99767)
(0.0653182 0.00526141 0.997851)
(0.0795935 0.0106944 0.99677)
(0.0644369 -0.00422098 0.997913)
(0.0353446 -0.00497585 0.999363)
(0.0713559 0.00532329 0.997437)
(0.0754018 0.00508485 0.99714)
(0.0775975 -0.0165305 0.996848)
(0.0637303 -0.0145104 0.997862)
(0.0612437 -0.0154309 0.998004)
(0.0608412 -0.0242741 0.997852)
(0.0659289 -0.00235178 0.997822)
(0.0617871 0.0016215 0.998088)
(0.0642607 -0.000747038 0.997933)
(0.0616842 -0.00487232 0.998084)
(0.0326798 0.00421554 0.999457)
(0.0345163 -0.00404856 0.999396)
(0.0342633 -0.00653673 0.999391)
(0.0326374 0.003117 0.999462)
(0.0643838 -0.000477357 0.997925)
(0.062001 -0.00332462 0.998071)
(0.066161 -0.000397983 0.997809)
(0.0617376 0.00176013 0.998091)
(0.0642291 -0.00102107 0.997935)
(0.0615415 -0.00229284 0.998102)
(0.0614097 0.00117952 0.998112)
(0.065714 0.000319765 0.997838)
(0.0337119 -0.00537148 0.999417)
(0.0331465 0.00238407 0.999448)
(0.0321439 0.00359548 0.999477)
(0.0335647 -0.0036435 0.99943)
(0.0657006 -0.000431867 0.997839)
(0.0620543 0.00084291 0.998072)
(0.064957 -0.00162209 0.997887)
(0.0617535 -0.00258087 0.998088)
(0.955451 0.293762 -0.0285953)
(0.9823 0.18728 0.003688)
(0.988296 0.151499 0.0178901)
(0.9855 0.1681 -0.0230484)
(0.983268 0.181191 -0.0188232)
(0.957962 0.286435 0.0162382)
(0.9752 0.219196 -0.0306201)
(0.911949 0.392941 -0.118096)
(0.275053 0.765607 -0.581542)
(0.927961 0.366344 -0.0684166)
(0.456737 0.809286 -0.369387)
(0.883676 0.457303 -0.0999529)
(0.944398 0.321656 -0.0681851)
(0.208746 0.766161 -0.607801)
(0.957764 0.287028 -0.0174162)
(0.975291 0.220845 -0.00594434)
(0.94925 0.314519 -0.00177524)
(0.960005 0.278428 -0.0294517)
(0.944261 0.3285 -0.0214061)
(0.953424 0.301302 0.0141079)
(0.96911 0.245428 -0.0242919)
(0.90843 0.400041 -0.121337)
(0.965434 0.246303 -0.0852766)
(0.14946 0.751273 -0.642846)
(0.451226 0.804711 -0.385792)
(0.944518 0.302334 -0.128373)
(0.953367 0.289658 -0.0847877)
(0.19945 0.756862 -0.622398)
(0.148755 0.980717 -0.126751)
(0.447015 0.894294 0.0203863)
(0.331407 0.938181 -0.0999271)
(0.575014 0.817928 -0.018777)
(0.191713 0.978166 -0.0802311)
(0.48307 0.874651 0.0403468)
(0.224063 0.951142 -0.212423)
(0.0908074 0.984234 -0.151779)
(0.312715 0.949508 -0.025357)
(-0.0357424 0.990171 -0.135215)
(0.254138 0.967124 -0.0092029)
(0.0124078 0.994414 -0.10482)
(0.111682 0.984974 -0.13173)
(0.36847 0.929499 -0.0161489)
(-0.127461 0.980933 -0.146712)
(-0.0588242 0.976497 -0.207349)
(-0.551841 0.815757 -0.173237)
(-0.571273 0.805912 -0.155414)
(-0.591106 0.777297 -0.215416)
(-0.108947 0.981082 -0.160024)
(-0.157794 0.957361 -0.241995)
(-0.412017 -0.0318032 0.910621)
(-0.445635 -0.038877 0.89437)
(-0.64331 -0.0327889 0.764903)
(-0.462824 -0.0295877 0.885956)
(-0.413052 -0.0410098 0.909784)
(-0.107621 -0.0318734 0.993681)
(-0.144413 -0.0472125 0.988391)
(-0.21065 -0.0305692 0.977083)
(-0.121338 -0.0431198 0.991674)
(-0.21737 -0.02558 0.975754)
(-0.0907319 -0.0293904 0.995442)
(-0.144156 -0.046548 0.98846)
(-0.387649 -0.0281976 0.921376)
(-0.611512 -0.0321309 0.790582)
(-0.352208 -0.0359533 0.935231)
(-0.33961 -0.0245933 0.940245)
(-0.380972 -0.0393474 0.923749)