/*--------------------------------*- C++ -*----------------------------------*\
| =========                 |                                                 |
| \\      /  F ield         | OpenFOAM: The Open Source CFD Toolbox           |
|  \\    /   O peration     | Version:  2012                                  |
|   \\  /    A nd           | Website:  www.openfoam.com                      |
|    \\/     M anipulation  |                                                 |
\*---------------------------------------------------------------------------*/
FoamFile
{
    version     2.0;
    format      ascii;
    class       volScalarField;
    location    "0.106/solid";
    object      sigmaHyd;
}
// * * * * * * * * * * * * * * * * * * * * * * * * * * * * * * * * * * * * * //

dimensions      [1 -1 -2 0 0 0 0];


internalField   nonuniform List<scalar> 
3124
(
181.599
-143.286
-545.426
334.079
240.407
230.657
-140.67
286.68
648.032
-231.8
351.038
-380.553
337.227
388.187
-131.214
693.905
368.179
291.129
231.153
239.519
283.536
290.166
282.62
-72.9076
3.48918
-200.22
108.374
139.179
348.119
592.176
118.71
209.842
370.526
310.193
245.555
926.778
364.672
335.649
303.474
307.309
302.542
301.174
-101.913
-288.015
-283.54
33.1225
-190.628
-361.868
5838.41
-420.336
253.649
250.33
228.578
228.408
28.7114
-258.122
50.5155
-8.196
200.454
471.346
84.4243
211.807
557.49
846.178
247.594
734.629
241.605
177.961
1032.06
950.976
-274.566
126.108
21.0076
2.10755
-53.5
324.11
7947.16
308.323
214.33
324.354
393.628
283.876
312.219
162.561
433.849
297.179
279.427
721.841
857.109
329.821
339.863
910.544
367.949
123.628
1147.56
1030.74
1120.11
74.5868
126.273
389.933
298.979
340.765
315.069
329.958
295.287
332.307
338.982
234.637
235.291
313.329
308.781
323.532
286.519
326.859
331.159
287.527
327.978
322.647
280.928
321.346
301.311
280.732
321.503
-45.9847
-26.6105
313.46
305.651
309.611
303.769
253.527
254.806
252.565
251.853
-234.22
-131.08
-231.163
-200.734
-263.964
-212.977
-164.521
-1121.39
-385.211
-556.731
-1163.84
-286.085
-1559.11
-1113.87
159.305
287.68
98.8239
243.421
52.8163
56.4636
42.6636
229.8
40.8946
228.135
37.6616
-359.317
-80.2216
-235.898
-207.181
-274.812
-153.502
-58.3267
464.072
283.977
335.643
265.726
-161.894
-115.152
-291.368
-44.572
-296.236
51.6106
-140.509
185.127
372.019
321.613
166.859
-167.746
-846.208
-84.5729
-1161.12
75.8035
-228.529
408.675
385.47
393.654
143.652
-66.5065
46.4425
15.0975
128.782
94.5013
112.245
401.546
336.568
375.048
265.309
267.088
292.422
337.623
337.806
42.8487
232.637
43.1691
52.1435
237.715
48.3403
264.264
262.879
332.383
284.549
333.305
337.506
289.333
337.171
331.485
281.94
330.72
252.157
280.723
330.456
-165.787
-155.913
-143.884
-132.18
-194.776
-99.7235
-210.601
-72.1369
-16.7825
-10.0794
-38.6844
-14.1215
-120.807
-186.138
-166.572
-96.7124
-187.201
-50.0362
-89.4925
248.467
502.359
179.804
32.9708
225.83
271.143
243.61
213.061
133.375
129.383
176.999
209.653
197.16
184.572
286.993
298.175
346.437
362.233
338.702
302.094
343.833
324.483
679.939
211.042
477.166
340.292
351.791
330.796
305.836
311.014
341.944
328.473
331.39
257.713
256.194
282.308
304.756
283.657
286.448
306.043
285.034
281.337
301.959
280.725
250.968
251.308
301.494
279.863
280.223
-232.992
-117.48
-172.744
-154.874
-199.109
-195.768
-150.028
-248.902
-254.598
-263.586
-330.889
-385.515
-241.408
-256.841
-249.772
-252.252
-213.084
-340.733
-204.482
-394.363
-247.285
-4.80043
-10.8062
-36.8659
15.4905
-901.195
-328.862
-8.72452
-241.499
36.4951
367.527
-914.054
-465.692
-288.815
-514.206
-436.5
-337.194
-743.729
-1373.22
-1505.5
-44970.7
-2808.93
-2699.46
-3170.81
-2594.91
-1103.49
-384.124
-582.299
-811.734
-457.067
-670.162
-1087.37
273.49
71.3126
91.4353
244.837
67.7752
58.1883
229.463
40.3516
40.5029
228.207
39.9913
38.0928
-178.623
147.548
481.924
-5.64345
11.4243
163.882
-288.679
-8.6131
173.632
-322.873
-255.832
-251.726
-226.83
-253.366
-242.293
-212.705
329.595
146.688
54.8877
-100.942
225.922
-240.916
-45.7125
204.247
73.1858
-776.935
849.222
592.497
259.035
707.874
180.18
319.407
174.83
395.854
257.933
180.748
202.005
174.773
271.372
287.403
756.005
1611.59
455.847
455.511
43.1828
122.227
153.422
484.854
182.653
180.041
314.756
537.461
182.837
43.68
290.982
569.156
30.2744
363.703
117.424
627.22
77.9721
600.109
40.6566
385.069
833.311
889.359
1029.59
946.515
924.376
828.233
958.482
896.975
937.419
913.478
-165.959
-297.499
-265.787
-203.2
-349.455
-196.535
-186.053
-76.0827
47.2456
140.265
95.7772
109.439
61.9652
-18.8728
-85.926
79.6978
-104.477
58.6498
-178.141
111.244
-63.5733
-218.442
-222.573
-24.4128
-44.8055
-67.839
-154.745
-250.334
-191.083
-45.0725
-32.4884
370.73
512.634
379.216
-15.9109
1215.13
59147.5
2603.21
577.225
-4178.72
1331.17
508.716
106.262
530.495
300.842
164.044
440.853
1122.07
268.603
306.683
360.949
368.275
353.063
349.205
350.187
297.766
314.064
329.247
408.965
381.725
392.787
364.202
297.492
359.367
357.558
305.741
360.733
176.46
114.072
167.479
207.588
139.047
196.037
164.793
239.448
260.681
271.237
226.434
205.841
278.229
258.15
272.072
287.226
224.026
476.013
301.011
673.275
216.331
474.448
670.026
227.047
454.727
345.701
649.447
179.189
433.233
660.716
212.629
-13.1179
111.922
956.815
1003.82
947.364
932.833
949.348
1043.58
953.7
940.407
922.243
991.399
1079.96
966.266
-1.67322
10.38
36.1819
110.609
78.1152
-64.9999
6.42443
107.812
125.894
113.103
406.671
372.287
384.934
311.38
336.74
348.802
352.069
346.026
359.207
286.533
272.379
294.957
318.097
297.971
316.166
323.229
304.248
293.722
336.325
337.569
345.535
334.343
346.267
345.83
337.176
346.86
233.236
45.9955
43.6584
237.032
46.3269
47.6183
259.346
261.146
293.247
311.939
291.703
288.091
310.403
289.929
339.488
324.512
340.364
285.543
335.2
334.279
325.665
342.402
341.395
345.155
330.221
344.721
288.503
336.034
336.729
329.126
343.258
344.067
338.613
321.888
337.81
281.378
330.001
330.222
321.439
337.276
337.354
251.057
251.493
302.567
281.249
279.976
301.88
280.545
280.691
329.995
330.126
322.453
338.111
337.383
321.82
337.584
283.168
270.368
351.873
319.698
306.95
332.569
251.875
187.104
237.498
241.414
169.936
239.172
185.209
171.041
172.194
159.408
225.167
230.603
172.203
225.408
159.14
355.348
290.409
373.985
361.865
328.103
390.217
310.539
261.959
302.008
366.063
288.869
275.183
267.734
300.942
173.475
159.766
225.693
231.8
172.505
226.743
160.219
183.247
236.228
168.966
239.129
184.081
235.875
168.156
215.763
372.518
108.749
79.0421
66.2771
265.427
220.928
343.266
146.199
233.872
303.105
255.167
460.038
250.122
377.531
5332.29
14650.2
214.504
257.957
256.883
187.256
208.277
262.147
192.24
199.369
248.282
252.275
183.358
203.307
249.523
180.31
170.242
229.045
222.68
157.188
169.487
223.571
157.526
169.359
228.547
222.443
156.947
169.154
222.858
156.805
-265.569
-267.84
477.218
450.196
259.588
319.681
172.999
111.119
252.5
373.851
124.732
296.426
175.732
437.434
183.606
402.698
134.744
325.971
548.975
519.468
595.522
564.195
-128.751
-153.609
-133.186
-252.962
453.374
351.533
336.17
376.369
428.569
428.545
386.066
271.535
264.24
461.015
356.789
418.036
449.237
304.91
254.603
251.626
208.977
250.103
232.881
235.765
283.508
390.023
290.685
463.759
260.115
388.897
470.164
267.493
393.98
336.948
458.094
243.599
379.783
485.34
278.724
-46.0238
573.918
593.135
595.915
661.127
636.023
-14.0404
1.84765
-12.3716
32.3241
176.498
234.436
229.736
163.241
176.77
229.772
162.778
178.599
236.024
230.533
163.805
177.385
231.727
164.43
-77.4248
-118.777
-126.654
-99.764
-99.6036
-152.249
325.614
308.287
286.481
340.115
276.415
293.519
292.345
259.174
305.312
343.632
329.542
323.154
295.976
324.985
308.276
315.029
290.812
282.47
276.656
295.136
318.233
324.531
308.392
328.032
260.035
269.758
257.793
271.764
230.515
231.936
233.002
231.905
256.768
270.1
258.887
268.374
255.164
268.491
266.917
256.8
230.567
230.088
228.982
230.059
257.536
267.524
256.276
268.988
-222.586
-237.399
-219.577
-219.624
-216.296
-225.67
-236.031
-182.346
-119.844
-279.425
-193.538
-191.981
-264.444
-119.562
-230.34
-241.517
-243.951
-276.626
-241.623
-228.946
-252.638
-174.198
-218.933
-113.154
-181.369
-166.856
-245.24
-116.495
-1085.76
-658.858
-1477.08
-1144.6
-787.929
-999.852
-1240.9
-553.78
-395.136
-399.181
-521.338
-486.59
-467.842
-605.733
-1106.99
-1212.94
-932.734
-950.506
-981.703
-890.043
-1089.93
169.724
194.925
133.3
198.396
174.718
264.002
300.355
294.696
219.642
310.322
245.288
234.131
154.032
115.194
143.431
134.538
157.339
188.582
242.581
241.898
173.59
240.83
190.051
172.259
81.714
94.5651
52.9896
80.679
95.5132
82.8101
98.2853
53.8509
84.9084
96.6802
67.5327
84.0418
41.1277
68.4316
83.5486
171.922
230.281
224.268
158.234
225.12
170.754
158.739
66.6875
40.2282
82.5455
66.2111
83.0007
221.944
155.94
167.845
62.3648
79.7545
62.6544
-169.489
-233.437
-130.595
-248.418
-70.5551
-177.125
-236.09
-185.412
-116.31
-287.291
-199.816
-187.24
-281.557
-104.723
-241.215
-325.925
-230.419
-287.774
-230.782
-257.123
-311.053
-143.751
-92.8729
-23.8858
-209.828
-39.2305
-256.967
-87.9058
284.645
852.156
356.051
366.713
392.181
197.324
324.303
-157.726
-258.462
-94.2716
-132.139
-142.959
-157.793
-128.592
-176.161
-255.728
-226.539
53.2929
-271.716
-158.485
-89.0179
-268.704
-303.276
-275.626
-315.186
-287.844
-169.57
-282.879
-53.9533
-77.616
36.5633
-15.2505
-41.8306
-112.78
-38.4162
261.843
218.427
226.674
218.193
247.433
378.252
369.76
410.228
347.779
406.569
399.663
330.604
300.115
270.72
312.989
344.325
279.515
-128.814
-543.372
70.4452
166.52
-360.092
-222.563
43.3125
-313.218
-283.714
-419.532
-129.745
-389.986
-237.865
-310.25
-435.222
-742.453
-643.915
-1012.85
-625.712
-279.725
-566.002
-40.3021
73.1665
-81.8083
35.4
-44.2532
-232.063
48.3162
447.485
401.781
446.72
392.731
403.609
373.088
392.218
434.495
431.664
390.799
393.704
380.732
415.825
462.297
457.398
426.266
-31.8418
-125.117
62.2384
-58.3045
-63.9246
-95.4608
63.9581
63.954
138.885
94.1338
51.9172
43.0745
119.753
92.0115
76.3584
105.385
-3.63857
77.0695
40.3915
96.2735
85.6201
385.713
414.557
407.022
399.257
411.982
369.848
338.378
398.358
367.688
302.628
330.429
374.217
439.609
431.055
414.899
449.701
272.668
280.877
264.518
287.588
238.905
244.984
244.426
239.452
263.973
285.879
272.859
278.619
362.856
367.72
348.576
380.465
326.844
259.356
263.026
335.2
336.418
265.314
262.434
326.887
349.121
380.117
362.048
368.385
68.4261
84.303
41.9249
68.5439
84.4175
174
232.424
227.428
160.912
227.479
173.866
160.61
68.325
41.7811
84.9148
68.7904
84.5765
77.9927
93.5901
49.9481
79.7896
92.4289
182.279
238.468
233.728
166.286
234.979
180.508
167.231
76.2966
48.4081
90.2588
75.1617
91.2488
263.323
282.571
270.569
276.354
244.104
239.173
272.022
277.606
264.392
284.319
237.933
242.874
353.187
369.014
372.139
349.481
323.78
249.766
251.484
325.601
326.796
252.02
251.655
324.475
348.886
370.997
352.063
368.063
350.381
378.873
369.786
360.173
334.344
260.312
326.821
258.299
361.365
369.319
349.906
379.592
326.857
256.545
259.475
333.1
347.509
368.876
366.691
349.617
324.437
249.825
249.474
322.975
322.271
248.308
249.847
323.435
350.687
367.485
348.34
369.6
267.445
255.73
229.533
367.673
348.113
246.522
247.45
322
-131.572
-37.4023
-112.031
-191.665
-164.722
-78.0809
-55.7352
-165.463
-190.76
-167.613
-192.434
-169.804
-196.623
-164.611
-159.486
-202.543
-194.778
-91.843
-180.787
-186.313
-55.2302
-60.4187
-68.957
-86.7793
-80.4056
-72.1693
-48.5525
-72.3668
-54.7142
-25.7342
-36.6873
-18.6323
0.944409
-4.55172
-11.5614
-56.1034
-32.6562
-47.8995
-67.4139
-27.6824
-40.5807
-39.862
-46.5523
-18.0978
-54.7605
-81.2747
-64.7669
1.0993
-96.2505
-50.9101
20.4239
-127.471
-132.352
-110.263
-111.106
-140.388
-131.715
-109.39
-175.811
-158.125
-193.945
-183.189
-170.266
-171.025
-189.491
-121.413
-81.0245
-104.702
-88.2317
-128.612
-86.8049
-127.433
188.808
105.731
98.3434
348.363
136.178
74.0353
365.517
165.695
115.799
129.905
243.453
150.724
145.464
119.551
247.036
337.372
330.752
276.882
386.829
32.8465
215.364
307.514
370.023
217.428
355.66
167.916
365.226
328.786
359.537
338.789
367.872
396.758
385.485
378.481
351.182
365.118
345.145
368.141
380.34
367.237
354.057
392.1
308.263
349.658
293.911
355.603
351.697
274.198
252.301
360.865
355.175
223.63
354.99
253.072
320.221
378.18
365.449
336.987
333.155
340.84
327.18
344.609
372.129
376.52
366.002
384.168
353.179
344.897
348.941
349.163
350.168
367.398
359.369
360.099
326.652
320.919
306.967
339.194
290.282
282.925
304.764
288.905
312.037
327.016
328.421
310.155
348.158
332.499
335.274
347.962
340.429
349.324
340.463
347.42
352.571
347.884
344.006
353.909
339.01
340.789
338.033
343.242
258.674
273.685
262.013
270.69
236.522
234.27
232.69
234.933
263.968
271.845
275.394
260.176
294.011
287.346
290.097
291.206
305.235
316.073
308.116
313.045
289.793
288.576
286.318
292.097
309.685
314.308
306.259
317.845
292.121
291.99
288.377
295.939
313.32
315.904
308.32
321.102
297.441
289.693
293.918
293.075
307.157
319.7
311.571
315.104
288.579
286.636
284.753
290.621
307.032
312.225
304.42
315.004
291.05
285.523
287.432
288.878
303.832
314.503
306.226
311.946
255.826
266.659
254.9
267.619
228.223
228.959
228.949
228.902
254.575
267.108
266.054
255.819
289.852
284.391
288.307
285.897
303.4
313.094
311.267
305.141
305.511
311.729
303.547
313.744
287.735
285.603
284.183
289.117
-198.074
-223.589
-211.489
-213.646
-206.289
-205.591
-217.375
-190.351
-207.47
-185.435
-203.677
-182.496
-191.431
-208.265
-155.473
-202.201
-110.553
-150.147
-159.742
-202.197
-107.7
-265.327
-281.647
-240.362
-259.408
-258.642
-263.395
-266.347
-292.75
-295.276
-303.418
-237.866
-262.059
-302.895
-281.515
-323.03
-314.257
-339.276
-355.604
-287.255
-336.172
-346.591
-254.2
-232.177
-259.747
-235.459
-253.125
-244.89
-258.003
-253.191
-238.73
-278.863
-255.068
-257.503
-249.063
-261.96
-317.551
-218.207
-273.837
-330.514
-297.508
-284.197
-283.855
-222.236
-225.044
-209.718
-217.234
-215.291
-231.925
-231.047
-340.153
-316.891
-360.984
-364.678
-298.729
-343.077
-348.476
-152.941
-87.0994
136.511
-0.0550626
41.4039
37.9446
110.581
36.1779
-66.8733
-25.0876
-28.206
12.8147
-33.4349
-26.8681
100.425
131.369
-29779.4
-36735.8
8623.36
2269.49
-258.734
721.816
2620.16
-1212.52
3526.79
7907.7
2860.89
-3475.53
-832.502
8793.15
2710.06
10.4981
-104.519
-131.781
835.029
154.284
-5.80619
516.966
6.43752
-322.602
-183.22
-52.4229
-242.811
88.4407
7.63046
-81.0372
1232.18
1.81389
662.867
382.786
848.704
-447.611
-254.716
-166.982
-39.6838
-191.757
381.224
-311.986
-666.698
-770.55
-608.199
-884.045
-769.501
-587.16
-741.845
-401.001
-344.877
-337.846
-326.253
-374.117
-402.963
-380.572
-539.847
-607.593
-376.254
-502.334
-458.916
-486.583
-594.855
-482.859
-436.712
-457.888
-368.44
-508.873
-472.476
-431.048
-2643.61
-2264.3
-2177.77
-1831.34
-2409.71
-3363.81
-2214.99
-5879
-36005.8
-24464.3
-9352.33
-22101.4
-10724.6
2222.76
-2723.55
-2988.32
-6647.06
-1905.54
-2437.13
-5025.7
-3179.89
-3031.96
-2093.59
-2354.89
-3282.97
-1915.82
-4593.62
2188.04
-410.219
-443.465
-437.352
-241.454
-507.403
-184.659
-487.756
-644.855
-689.656
-437.101
-537.082
-549.628
-585.378
-689.849
-1206.28
-1314.78
-555.661
84.5919
-887.279
-967.703
-732.295
222.841
265.668
279.833
207.973
233.347
271.055
199.273
109.999
113.83
75.5235
104.677
118.668
116.843
133.344
81.5223
127.666
125.266
196.023
246.422
244.058
175.425
192.525
246.614
177.664
94.8341
109.696
63.331
99.7177
106.031
90.6236
100.35
59.9223
87.6029
102.872
170.733
229.404
223.881
157.901
170.342
224.068
157.768
65.6208
81.8239
39.4388
65.7692
81.9334
65.5433
82.2028
39.2256
65.7186
82.0161
169.216
228.524
222.105
156.156
168.165
222.846
156.554
64.5168
81.5234
38.4266
65.3513
81.0447
63.6769
80.0872
37.5489
63.1382
80.5345
107.747
-220.953
-437.352
-141.939
-102.215
-481.911
-96.123
-255.283
-411.856
-344.412
-237.867
-165.326
-27.6911
-176.089
233.162
-547.703
-121.215
194.402
-242.053
423.121
-185.232
-165.074
-175.312
31.5329
296.954
-7.226
-128.103
-60.8374
42.6697
40.4023
-217.168
-259.055
-284.795
-181.426
-207.177
-291.783
-197.679
-256.198
-259.35
-240.452
-244.972
-258.594
-254.713
-256.414
-256.955
-306.755
-247.136
-244.447
-267.953
-245.763
-278.744
-231.833
-256.866
-253.769
-209.12
-283.718
-220.021
-219.142
-179.944
341.438
-269.498
-171.802
278.204
-191.779
-87.1644
-39.2813
25.6585
118.409
143.589
32.2202
230.818
-19.5665
-48.6408
-91.5143
-88.1971
19.763
39.0171
207.782
-11.0709
-140.279
-274.789
-162.151
-128.761
113.6
-127.442
-80.2831
-664.301
1854
-401.269
175.108
-191.091
74.7267
-354.757
56.247
34.7678
-672.39
-334.866
-517.966
-119.436
-78.1144
583.375
-100.742
775.065
699.438
925.314
570.786
834.191
28.8208
430.959
134.386
706.726
218.381
808.422
804.779
487.679
-254.378
-686.451
273.85
483.091
-549.44
441.235
309
196.876
1.89277
285.419
317.66
805.772
313.403
462.6
-1571.12
948.292
96.0999
269.58
309.665
335.168
307.922
280.169
299.947
288.127
217.594
183.544
190.025
200.514
228.171
186.327
204.936
205.832
234.902
176.416
188.154
238.351
217.883
178.188
587.551
1294.96
1007.75
-3255.03
315.26
-261.849
405.102
175.19
-105.404
359.597
212.941
186.668
147.235
112.969
-29.7588
163.432
-156.044
156.562
268.241
-40.2933
375.673
217.026
212.992
-142.652
264.055
134.132
253.284
203.68
146.564
207.078
154.888
142.058
254.699
155.607
353.891
88.5801
257.507
362.32
117.203
266.26
139.232
374.155
101.668
256.067
373.77
91.149
716.415
927.166
872.494
770.267
917.943
553.876
506.933
965.355
878.057
775.933
757.932
924.411
1204.2
1193.53
1211
1191.12
1122.38
1023.77
1126.28
1201.04
514.163
538.126
832.249
935.202
992.75
815.372
995.288
964.669
788.855
919.781
797.077
987.487
-202.47
-270.466
-158.836
-177.98
-207.49
-244.788
-174.262
-280.139
-281.45
-302.513
-240.52
-291.892
-266.404
-265.047
-290.982
-338.909
-311.051
-345.033
-301.138
-312.634
-309.21
-211.474
-163.135
-221.861
-198.912
-212.258
-219.366
-193.335
-5.07422
-1.20839
-34.0805
-36.0525
-36.5375
33.3629
-9.49011
112.788
139.31
138.822
107.583
130.828
84.1896
124.328
79.3516
46.2729
126.274
105.54
105.905
73.0091
79.3703
48.6308
-28.9305
50.0053
95.7314
33.0833
39.971
70.4039
-54.7829
-98.6502
-11.694
-77.0777
-33.9137
-80.7312
-48.0167
14.3545
30.5982
-46.5229
63.2353
8.50309
37.1206
-19.7162
-82.4607
-127.052
-126.318
-121.869
-90.3174
-70.6215
-108.982
38.6116
43.1889
102.139
70.9835
60.6588
20.8667
46.0135
-217.176
-195.183
-297.674
-149.959
-355.152
-185.016
-256.248
-148.731
-369.592
-354.136
-465.373
-185.526
-175.441
-144.764
-370.339
-395.033
-425.667
-647.9
-659.955
-419.091
-239.833
239.664
-205.432
217.149
-392.84
-516.721
-617.509
-327.839
-277.653
186.937
-276.451
202.172
-307.207
-300.341
-409.086
-98.6092
-183.032
-376.559
-141.947
-473.001
-276.254
-465.786
-506.911
-173.097
-230.641
-194.574
-468.659
-528.232
-350.191
-594.853
-535.22
-435.29
-248.811
107.902
-205.765
122.114
-394.419
-411.44
-315.877
-444.34
-259.517
169.731
-285.676
158.492
436.219
368.818
421.365
365.377
420.52
414.203
377.77
502.696
418.874
500.255
497.432
418.682
440.207
349.263
435.341
391.78
385.539
2867.24
-605.444
-127.015
621.491
218.087
531.691
1588.82
7629.6
50904.4
704.787
22740.9
-2380.64
26153.3
6446.92
482.225
730.863
463.784
333.905
318.289
716.737
577.416
248.023
178.719
160.47
138.539
229.222
307.49
208.901
356.577
423.456
320.206
510.951
364.01
367.544
409.07
224.661
321.231
287.407
691.161
262.143
321.177
259.926
93.0076
255.397
195.775
386.046
225.422
218.24
139.091
585.467
344.529
275.769
495.181
509.13
142.947
709.31
2138.44
930.614
619.253
1073.54
430.314
-142.004
-414.733
-1040.78
984.081
-549.619
-71.3234
561.497
334.196
335.227
535.45
307.74
575.467
395.275
457.445
239.543
229.668
368.207
296.727
298.05
255.301
381.726
302.23
603.685
-226.105
472.343
333.976
192.466
525.35
372.983
330.687
43.3626
326.545
267.712
343.683
281.975
268.588
268.103
285.054
122.952
360.459
351.321
185.9
175.339
363.621
405.581
19.0024
268.462
326.808
267.661
264.116
280.427
268.037
287.525
428.474
398.282
437.317
394.292
404.564
418.235
395.919
431.565
419.136
381.864
409.547
389.392
412.957
454.19
419.291
444.073
337.518
413.026
418.483
350.774
386.886
236.061
394.622
142.344
322.452
388.414
409.728
372.304
368.056
257.241
355.417
234.298
355.707
406.585
401.436
353.348
363.922
276.049
362.146
276.879
354.38
390.214
348.272
397.807
359.529
266.198
355.181
275.995
141.545
151.433
101.524
149.236
125.592
114.458
149.967
155.874
182.797
263.451
199.345
181.712
229.822
249.81
216.982
438.743
-543.771
447.951
313.304
145.529
197.574
75.1011
202.194
235.257
54.6987
5.77562
325.793
272.906
241.137
244.854
261.019
242.619
208.155
205.009
219.095
212.423
163.381
337.238
163.318
322.812
248.824
265.743
251.27
242.652
251.388
214.134
228.689
179.287
278.466
317.169
156.565
399.289
290.353
483.624
288.352
402.187
474.416
275.551
407.609
341.395
481.021
289.756
410.159
489.313
293.846
21.1341
-192.164
-142.856
-66.9248
305.049
-67.9555
307.882
-305.711
-316.63
-178.111
830.902
1004.92
1307.37
600.401
593.623
830.165
943.934
996.713
828.355
986.342
963.263
825.946
932.221
822.141
975.424
1172.89
1178.84
1171.31
1190.45
637.834
632.444
843.595
988.538
931.115
839.46
970.114
970.944
826.732
930.927
835.102
955.793
1265.54
1291.31
1243.7
1210.05
16.3201
1.12931
-106.534
29.0504
6.35997
-178.173
30.7044
-113.045
-174.63
-107.985
-165.917
55.0202
14.691
39.151
-97.3549
-176.073
-226.134
-305.058
-315.719
-217.865
-125.066
255.405
-141.59
265.343
-237.793
-385.713
-276.641
-335.5
-108.17
280.074
-103.772
272.255
58.7308
58.4656
-88.4462
-23.9497
-262.799
-28.3621
-134.227
9.48338
-202.445
-63.8457
-162.117
44.8798
10.1354
40.9877
-59.7033
-168.094
-202.553
-315.556
-311.189
-208.772
-78.063
302.013
-69.5948
296.476
-191.93
-292.337
-182.198
-300.894
-89.0864
285.731
-96.9683
292.506
399.652
410.793
403.66
405.165
422.324
396.559
407.152
408.554
389.714
385.118
379.04
394.336
435.329
425.912
445.695
419.014
369.772
375.754
354.051
384.353
325.03
273.159
280.475
339.173
348.366
298.246
338.086
282.995
340.687
375.842
358.941
361.799
373.196
371.787
370.743
377.972
345.306
354.561
344.718
357.145
365.289
359.558
362.42
363.441
350.295
369.916
353.455
362.834
269.698
291.366
274.792
287.157
255.701
263.715
285.926
307.156
289.144
302.983
244.072
245.565
312.083
298.857
306.436
304.834
314.794
331.275
321.993
323.739
326.692
325.508
318.084
334.488
301.084
304.242
296.118
308.781
312.69
311.409
306.399
317.71
339.595
337.984
334.61
345.68
328.458
323.947
328.096
323.055
324.733
339.451
331.73
331.773
347.708
380.316
363.518
365.872
338.296
273.089
268.972
324.915
326.66
264.595
337.263
269.434
363.584
361.143
343.875
378.684
364.642
361.086
374.036
352.771
341.842
346.406
335.97
352.673
354.916
338.358
348.74
344.041
351.898
373.144
360.862
363.308
353.308
375.032
361.135
365.997
360.104
343.361
346.521
354.677
365.583
356.871
350.349
374.471
347.417
352.019
341.921
358.067
175.981
233.903
228.137
161.46
174.533
229.206
162.168
71.2358
87.527
44.2737
72.4019
86.8231
70.1244
85.4355
43.2138
69.4624
86.0743
179.288
236.729
232.774
165.508
179.519
232.62
165.001
72.9841
88.0187
45.7257
72.7941
88.3612
73.1923
89.4178
45.8587
74.1039
88.7752
268.202
274.962
262.226
280.036
235.116
238.8
260.873
277.621
266.334
273.102
240.577
236.901
297.77
300.692
293.67
304.738
321.845
320.261
313.176
329.413
306.675
294.992
302.651
299.099
311.912
327.671
319.824
319.388
302.159
292.273
298.244
296.351
309.493
322.988
315.296
317.066
294.531
296.077
299.537
290.838
317.459
318.417
310.735
325.371
353.691
360.655
364.361
349.795
337.18
333.014
329.595
340.721
341.844
330.398
334.316
337.814
349.229
363.303
359.918
352.696
350.112
373.758
354.663
369.415
329.543
254.378
253.466
326
325.303
251.893
328.041
254.059
356.301
369.769
375.055
350.551
350.563
366.016
355.128
361.167
344.979
332.238
337.683
339.5
338.71
335.989
331.238
343.34
356.777
361.566
367.538
351.36
351.801
371.676
361.846
361.201
351.477
334.906
341.056
344.906
362.379
361.445
372.598
351.775
340.887
343.219
334.24
350.101
359.194
370.218
350.666
377.822
326.565
254.055
256.409
330.846
332.103
257.182
326.667
256.114
350.879
376.684
357.721
369.924
359.547
362.01
351.763
370.458
339.927
339.464
332.921
346.572
348.308
333.626
341.23
340.529
351.471
368.776
358.335
361.868
347.901
361.068
358.549
350.241
339.376
328.97
331.799
336.734
335.939
330.879
328.278
338.386
351.292
359.381
361.986
348.812
348.83
366.587
347.176
367.971
321.653
247.219
248.143
322.331
322.754
248.341
321.816
248.537
347.154
367.733
366.26
348.576
349.752
358.376
347.445
360.233
335.534
330.077
327.907
337.862
337.913
327.908
330.295
335.451
347.578
360.098
358.302
349.754
254.942
268.103
256.215
266.592
228.601
228.727
255.62
266.144
255.091
267.225
228.555
229.319
285.324
289.221
312.805
304.56
288.397
286.399
284.582
290.366
305.44
311.275
303.405
313.388
289.406
284.31
287.674
285.79
303.798
314.235
306.011
312.007
347.632
367.723
348.001
366.872
322.059
247.092
247.521
321.708
321.789
246.747
321.807
247.625
348.194
366.615
347.524
367.448
359.68
348.766
329.135
336.776
348.248
360.042
358.892
349.442
337.778
328.144
336.018
330.193
349.51
358.684
348.087
359.944
336.266
330.512
328.493
337.837
-28.5827
-20.6944
58.9485
-0.85577
37.1258
423.466
589.245
179.24
519.448
581.97
347.897
430.598
873.134
745.702
710.065
167.225
-8.65644
57.899
38.532
173.821
-3429.89
1669.31
6139.37
3618.87
-6302.74
1353.83
-1485.2
611.264
672.663
829.162
800.77
649.246
780.655
633.185
565.69
688.544
540.903
787.19
504.067
609.734
744.077
8411.16
3512.57
14018.3
9075.51
1940.11
12723.7
5615.62
680.274
702.468
814.414
870.519
668.008
825.216
713.839
696.912
857.986
737.332
889.865
702.192
841.739
730.586
99.4183
18.5779
-30.7431
32.3517
23.7949
-10.172
105.012
792.282
825.052
714.955
1011.54
680.347
907.722
1195.41
1140.12
337.019
686.677
120.479
568.344
923.447
1085.92
1221.4
1043.75
943.624
1093.88
1041.25
1098.65
1213.77
1225.66
1078.31
1026.44
932.876
1037.37
1207.92
1096.39
1143.27
931.32
993.639
857.668
1089.63
935.652
1031.47
1145.19
1070.07
885.306
999.685
962.805
1038.41
1198.48
4638.42
5481.61
4231.74
2759.5
9408.02
2714.35
4224.44
5658.1
-833.765
17470.1
237.028
13711
2580.64
2329.12
1128.72
1144.26
1290.16
1186.15
1040.5
1084.75
950.695
1196.91
1041.62
1074.86
1184.58
1079.83
953.541
1052.33
1044.37
1069.5
1195.21
1256.44
1113.56
986.079
1132.02
1101.94
1273.1
1117.48
1233.8
1086.38
971.811
1069.11
1083.08
1102.59
1214.7
)
;

boundaryField
{
    left
    {
        type            zeroGradient;
    }
    bottom
    {
        type            zeroGradient;
    }
    interface
    {
        type            zeroGradient;
    }
    procBoundary0to1
    {
        type            processor;
        value           nonuniform List<scalar> 
224
(
233.393
319.511
478.355
238.566
238.566
238.566
249.832
249.832
249.832
303.541
687.297
24.6633
202.611
349.156
720.649
205.696
205.696
205.696
204.818
204.818
204.818
416.789
598.765
289.567
289.567
200.395
200.395
200.395
917.129
249.037
249.037
249.037
198.632
198.632
198.632
424.409
620.668
835.551
740.836
969.497
907.29
267.564
267.564
1564.66
-262.971
1179.25
1177.49
795.936
1229.2
555.031
555.031
555.031
740.972
844.102
900.658
1087.68
1348.14
1355.41
968.506
1164.39
1162.58
1060.6
1322.08
1300.7
226.613
226.613
226.613
200.185
200.185
200.185
230.576
230.576
230.576
257.552
257.552
257.552
24.6633
202.611
202.611
959.556
959.556
959.556
959.556
959.556
959.556
206.827
206.827
206.827
203.475
203.475
203.475
233.162
233.162
233.162
261.222
261.222
261.222
197.159
197.159
197.159
710.718
1595.15
970.21
908.989
65.4446
65.4446
65.4446
497.838
354.835
-1992.99
-2276.6
1978.25
1157.36
1203.35
1213.9
1023.97
462.743
462.743
462.743
462.743
402.247
402.247
981.718
1189.39
1172.38
1018.71
1228.2
1260.29
211.747
211.747
211.747
201.883
201.883
201.883
290.232
377.823
264.103
333.055
162.409
478.355
319.511
478.355
478.355
195.829
211.864
207.564
191.037
229.318
219.674
245.808
242.356
182.685
182.092
181.246
183.575
180.367
182.901
180.912
179.402
271.82
101.677
181.935
216.237
236.019
221.15
245.699
248.804
174.381
176.775
174.282
173.67
354.835
1058.59
497.838
-262.971
1564.66
1978.25
-2276.6
1177.49
1179.25
1203.35
1157.36
1229.2
795.936
1023.97
1213.9
-1069.12
372.117
323.179
333.055
68.9103
1348.14
1162.58
1164.39
1172.38
1189.39
1300.7
1322.08
1260.29
1228.2
195.389
207.197
187.179
183.636
177.466
176.633
177.264
180.319
191.852
582.525
633.32
777.998
724.565
824.295
707.015
606.882
789.015
675.64
748.215
856.787
754.73
771.223
877.808
766.832
)
;
    }
    procBoundary0to2
    {
        type            processor;
        value           nonuniform List<scalar> 
47
(
280.702
303.424
323.425
228.223
36.3138
253.065
256.607
268.558
228.223
222.264
321.889
330.91
348.091
367.713
282.136
306.531
314.694
290.878
286.973
338.933
338.529
331.099
350.015
360.187
168.366
168.366
222.264
155.902
62.5242
79.5717
79.5717
256.607
268.558
229.487
348.091
367.713
246.742
321.889
321.889
290.878
286.973
306.531
314.694
350.015
360.187
338.529
331.099
)
;
    }
    procBoundary0to3
    {
        type            processor;
        value           nonuniform List<scalar> 
43
(
194.692
194.692
194.692
193.778
193.778
193.778
192.144
192.144
192.144
192.132
192.132
192.132
195.871
195.871
195.871
193.023
193.023
193.023
192.954
192.954
192.482
192.482
192.482
192.391
192.391
192.391
171.492
171.773
171.84
173.891
169.964
171.692
169.753
170.092
169.928
168.477
169.762
168.758
170.207
168.606
169.477
168.437
169.794
)
;
    }
    procBoundary0to4
    {
        type            processor;
        value           nonuniform List<scalar> 
58
(
232.732
737.084
737.084
737.084
932.745
368.17
368.17
368.17
368.17
368.17
123.039
1154.53
1321.22
1301
1135.97
479.446
685.628
374.233
456.022
960.829
832.558
210.471
374.233
241.262
-7.78368
10.0361
-7.78368
110.805
-7.78368
-207.3
-181.693
960.829
1008.11
374.233
456.022
241.262
-61.6243
567.908
-158.993
10.0361
-207.3
-318.709
-181.693
-64.4317
309.642
-181.693
-181.693
832.558
1014.54
1321.22
713.733
880.708
1008.11
1135.97
749.083
1301
1135.97