/*--------------------------------*- C++ -*----------------------------------*\
| =========                 |                                                 |
| \\      /  F ield         | OpenFOAM: The Open Source CFD Toolbox           |
|  \\    /   O peration     | Version:  2012                                  |
|   \\  /    A nd           | Website:  www.openfoam.com                      |
|    \\/     M anipulation  |                                                 |
\*---------------------------------------------------------------------------*/
FoamFile
{
    version     2.0;
    format      ascii;
    class       volScalarField;
    location    "0.106/solid";
    object      sigmaMax;
}
// * * * * * * * * * * * * * * * * * * * * * * * * * * * * * * * * * * * * * //

dimensions      [1 -1 -2 0 0 0 0];


internalField   nonuniform List<scalar> 
3124
(
-38.191
250.113
1093.46
-228.193
-166.585
-159.703
264.797
-95.2861
-241.79
486.075
-239.585
867.038
-233.153
-261.69
337.028
-278.08
-252.029
-201.72
-160.048
-165.885
-196.283
-200.965
-195.649
109.807
182.493
340.271
20.2385
12.2792
-96.5109
-222.771
62.6745
113.139
-250.172
-197.076
-143.617
-571.272
-248.575
-232.468
-210.21
-212.803
-209.555
-208.649
159.813
476.46
498.178
120.12
504.954
626.51
-211.003
892.107
-176.927
-174.147
-158.276
-158.131
49.7124
438.823
131.31
535.318
-108.226
-8.89843
60.6533
-90.8499
-200.904
-538.276
296.928
-376.226
-126.454
310.051
-712.221
-609.939
473.52
-39.4332
119.603
734.734
680.38
-164.839
-1813.36
-142.694
-130.822
-214.332
-265.114
-141.485
-199.788
-83.0705
-249.67
-196.371
-169.836
-300.417
-545.199
169.527
-214.242
-569.637
117.935
515.402
-783.556
-705.336
-762.05
608.65
514.467
-264.728
-208.605
-237.497
-218.643
-228.607
-205.482
-230.448
-235.435
-162.438
-162.906
-217.179
-213.842
-224.064
-198.325
-226.303
-229.47
-199.032
-227.096
-223.45
-194.478
-222.585
-208.712
-194.325
-222.659
225.872
172.584
-212.781
-205.023
-212.206
-209.542
-175.584
-176.462
-174.912
-174.422
350.7
218.763
385.389
399.929
419.868
343.524
303.656
2002.67
798.161
1048.12
2396.03
477.752
3066.57
2196.63
-104.307
-200.54
-68.0962
-168.762
-36.5913
-39.1425
-29.5224
-159.134
-28.3157
-157.916
-25.0907
550.241
198.089
423.033
422.104
466.431
345.548
321.487
-147.843
-133.832
-165.402
-36.5938
283.765
371.027
554.052
178.05
468.771
45.2901
306.004
-117.168
-238.26
-188.406
676.475
521.864
1825.96
503.96
2250.11
311.929
1026.68
-274.014
-254.408
-260.999
-43.1462
295.112
57.5282
161.485
-31.9743
155.819
-17.9074
-272.149
-232.947
-258.356
-184.127
-185.902
-202.793
-233.892
-234.131
-29.6524
-161.091
-29.8786
-36.11
-164.647
-33.4806
-183.097
-182.011
-230.095
-197.006
-230.737
-233.713
-200.351
-233.416
-229.489
-195.216
-228.997
-174.621
-194.264
-228.675
291.07
287.473
201.854
185.233
246.312
194.9
322.341
238.407
237.917
138.512
221.252
159.266
259.849
301.264
236.919
159.362
237.157
182.822
162.551
123.961
-140.129
27.1735
346.73
141.699
90.5469
152.602
53.5305
11.5384
66.2042
31.4217
55.413
72.3838
26.8466
-173.788
-198.087
-234.467
-242.676
-227.304
-189.107
-228.73
-215.861
-442.341
179.845
-13.5649
-232.821
-242.157
-228.324
-209.639
-213.472
-236.271
-226.062
-228.105
-178.434
-177.39
-195.549
-211.056
-196.449
-198.359
-211.91
-197.367
-194.866
-209.145
-194.431
-173.847
-174.074
-208.847
-193.89
-194.11
342.3
190.876
263.867
230.829
269.184
310.02
274.197
373.295
414.956
410.849
556.66
572.167
384.87
414.948
367.433
461.786
335.737
584.428
273.581
586.884
398.824
250.159
114.388
269.883
2947.79
5656.98
606.395
173.667
1227.4
94.0018
1728.32
1457.34
837.922
444.871
923.362
658.88
482.379
1415.37
2867.53
4340.43
61910.2
7183.05
7829.22
7056.51
5293.45
1995.95
641.902
1079.29
2134.31
699.236
2563.35
2180.36
-190.676
-49.6139
-63.4125
-169.922
-47.0825
-40.3719
-158.89
-27.9187
-27.9864
-158.005
-27.5181
-25.6266
509.011
186.84
128.092
95.7196
109.94
-36.9217
733.082
159.885
141.612
545.561
445.78
400.489
427.281
430.441
429.254
427.498
213.678
14.6218
118.753
301.03
40.9497
439.236
241.332
26.2627
226.266
1522.97
-571.292
-214.976
193.745
-165.175
51.4881
90.2459
83.5703
-115.271
-154.611
-111.146
-98.0392
-86.0385
-153.649
-140.645
-426.516
-923.706
72.4269
-109.904
172.872
76.2697
-31.6788
-184.794
-67.037
15.7848
142.055
-217.569
-72.188
347.735
146.272
-273.616
403.162
121.591
-6.63135
-371.858
371.241
-331.558
432.014
87.9438
-528.433
-614.293
-713.331
-642.073
-628.544
-495.62
-645.819
-605.267
-637.153
-624.621
285.197
527.966
417.233
378.744
533.679
339.236
362.737
156.036
50.8303
-77.5389
-4.34645
-43.6343
18.6166
130.221
164.369
34.3437
260.247
43.3859
324.145
-34.7526
186.744
568.059
641.436
284.72
799.435
318.457
574.048
697.636
503.281
753.681
256.506
-230.703
-257.685
-217.634
1039.29
756.504
-30959
-252.148
1481.73
6872.32
460.286
-43.2199
208.453
-249.995
10.9512
558.036
101.871
436.063
1133
643.072
-259.607
-237.67
-215.584
-243.959
-230.517
-185.092
-247.821
-204.081
-274.76
-255.303
-262.007
-232.791
-182.956
-235.168
-237.333
-195.656
-238.366
-82.3035
-29.653
-100.689
-123.021
-54.9922
-104.329
-82.0557
-135.816
-51.0754
-162.137
37.6385
-94.8006
-193.618
-157.124
-175.657
-228.737
-127.083
-43.5592
-184.453
-438.504
155.928
-27.1481
-436.895
129.186
-31.5028
-223.342
-401.742
190.789
8.01214
-427.191
131.224
359.316
106.378
-645.523
-678.137
-635.967
-625.367
-641.468
-709.966
-644.238
-636.431
-619.525
-666.667
-733.575
-652.6
338.782
313.305
214.255
545.617
153.449
427.656
313.335
111.813
520.866
97.9536
-275.457
-255.715
-264.509
-217.11
-235.593
-243.602
-244.372
-242.036
-250.354
-198.189
-189.831
-204.755
-220.96
-207.248
-218.723
-224.397
-211.655
-203.908
-234.026
-234.13
-239.456
-231.956
-240.036
-240.569
-233.849
-240.519
-161.505
-31.822
-30.2313
-164.139
-32.0671
-32.9641
-179.584
-180.82
-203.251
-216.047
-202.016
-199.52
-214.953
-200.773
-235.056
-224.722
-235.658
-197.68
-232.005
-231.379
-225.48
-237.018
-236.332
-239.067
-228.68
-238.666
-199.747
-232.577
-233.073
-227.894
-237.619
-238.184
-234.461
-222.948
-233.946
-194.832
-228.475
-228.661
-222.657
-233.561
-233.644
-173.883
-174.159
-209.494
-194.756
-193.938
-209.043
-194.275
-194.291
-228.44
-228.514
-223.231
-234.022
-233.601
-222.84
-233.72
-194.286
-185.025
-239.365
-221.061
-209.458
-228.286
-173.553
-129.805
-164.619
-167.219
-117.757
-165.908
-128.353
-118.547
-119.247
-110.223
-155.853
-159.61
-119.187
-156.095
-109.75
-238.532
-196.996
-253.979
-241.467
-222.419
-261.191
-207.578
-157.16
-193.436
-268.259
-194.027
-176.934
-155.696
-199.793
-120.161
-110.472
-156.23
-160.438
-119.399
-157.038
-110.622
-126.957
-163.653
-117.021
-165.58
-127.505
-163.46
-116.395
139.464
-186.649
47.4084
85.6985
157.976
-63.1182
81.6722
-63.4123
175.842
0.497384
-7.11985
-31.3681
-294.724
-116.602
-87.3169
56.8071
-4755.62
-149.831
-180.098
-179.409
-130.505
-145.403
-182.948
-134.2
-138.768
-172.545
-175.841
-127.496
-141.64
-173.885
-125.177
-117.908
-158.525
-154.136
-108.279
-117.304
-154.813
-108.346
-117.237
-158.179
-153.946
-108.003
-117.047
-154.309
-107.6
453.479
482.496
-307.113
-234.789
42.8152
-153.678
-50.8108
57.203
53.0367
-195.655
36.5605
32.1893
-76.9127
-270.446
-10.6268
-254.436
33.3568
-16.4781
-349.134
-338.423
-391.589
-368.689
297.249
328.196
323.775
471.885
-282.157
-196.137
-136.077
-200.55
-237.708
-276.866
-221.44
118.657
-31.0937
-254.597
-164.662
-212.638
-141.329
-43.6609
-155.24
-163.739
-131.928
-159.776
-142.338
-141.394
-187.411
-123.961
-179.339
-298.08
-140.538
-112.595
-302.711
-146.253
-144.639
-215.757
-292.635
-110.716
-113.114
-311.343
-152.016
201.026
-373.136
-389.252
-391.427
-447.618
-425.435
161.122
138.113
166.95
102.25
-122.218
-162.252
-159.004
-113.001
-122.335
-159.118
-112.598
-123.719
-163.351
-159.594
-113.416
-122.784
-160.502
-113.841
228.125
310.088
276.135
238.072
257.694
287.574
-224.595
-197.8
-181.082
-232.934
-182.157
-201.042
-202.462
-161.321
-202.115
-234.449
-225.66
-214.753
-202.339
-222.395
-210.556
-215.064
-198.297
-193.347
-190.072
-201.015
-216.915
-222.909
-211.738
-223.209
-180.185
-186.923
-178.642
-188.331
-159.44
-160.747
-161.377
-160.725
-177.706
-187.246
-179.449
-185.75
-176.733
-185.902
-184.91
-177.825
-159.619
-159.341
-158.5
-159.334
-178.394
-185.175
-177.427
-186.344
349.318
360.78
337.227
324.637
329.577
351.313
356.309
305.574
298.169
438.134
374.459
333.594
406.421
282.414
373.778
380.413
403.749
437.454
406.265
368.156
394.545
280.949
322.44
243.708
341.624
260.653
367.935
263.169
2023.27
1265.3
2712.57
2252.95
1479.68
1751.03
2681.15
1073.64
738.087
645.724
794.097
839.071
823.002
1042.85
2254.89
2716.11
1742.37
2496.31
2054.2
1742.78
2817.32
-116.495
-133.238
-89.1235
-135.619
-120.124
-182.401
-207.795
-204.443
-153.101
-213.478
-170.381
-162.408
-106.511
-78.5023
-99.6233
-93.4661
-108.852
-130.925
-168.147
-167.958
-120.393
-167.25
-131.937
-119.432
-56.7442
-65.5139
-36.7301
-55.919
-66.2129
-57.5581
-68.1794
-37.3276
-58.9974
-67.0523
-46.7838
-58.1733
-28.3773
-47.3441
-57.8425
-119.119
-159.378
-155.284
-109.003
-155.959
-118.229
-109.323
-46.2437
-27.8026
-57.1686
-45.8453
-57.4878
-153.571
-106.745
-116.139
-43.1988
-55.2099
-43.3345
385.335
483.627
353.098
486.127
301.769
397.822
479.318
361.412
307.203
466.052
430.064
346.142
475.718
305.591
444.582
528.473
414.503
479.473
415.379
463.881
515.08
327.845
372.787
221.424
444.423
244.061
472.768
290.029
88.1986
-507.423
-10.3435
-62.5555
-84.3412
346.56
-59.9047
295.295
431.158
184.548
265.448
256.112
307.214
247.708
348.954
557.596
468.765
98.2464
573.331
328.05
233.078
450.659
487.278
474.249
492.287
520.51
311.804
461.158
157.554
166.366
70.0318
122.402
161.442
219.735
139.878
-176.091
-147.592
-139.993
-147.859
-164.346
-252.915
-244.13
-267.877
-225.409
-272.524
-263.418
-218.515
-200.881
-162.636
-199.972
-227.736
-182.723
896.474
1492.71
598.225
795.322
1140.79
1236.82
669.094
915.37
684.823
958.473
511.827
1073.49
641.037
860.087
1419.04
1729.88
1503.4
2656.84
1673.72
1128.62
1714.54
588.618
456.381
490.593
340.029
427.079
818.957
495.577
-301.445
-264.075
-300.238
-255.741
-270.613
-254.512
-264.326
-295.531
-292.199
-254.145
-266.864
-246.433
-278.077
-311.716
-309.103
-285.253
171.93
379.933
71.417
305.437
212.888
334.55
71.9854
42.0365
-41.5355
17.219
43.5775
62.7485
-7.16238
4.82837
71.1981
33.0738
270.065
172.43
194.13
55.9339
53.8685
-265.354
-286.649
-279.868
-276.179
-283.175
-254.486
-232.779
-273.398
-252.772
-208.694
-227.403
-258.968
-300.734
-295.362
-284.447
-306.957
-189.344
-195.337
-184.145
-199.829
-166.12
-170.091
-169.557
-166.663
-183.497
-198.477
-189.399
-193.571
-251.804
-255.463
-242.155
-263.981
-226.65
-179.769
-182.523
-232.285
-233.525
-184.315
-182.376
-227.004
-242.096
-263.477
-250.94
-255.458
-47.4154
-58.3554
-28.9981
-47.4186
-58.455
-120.58
-160.871
-157.465
-111.25
-157.621
-120.39
-110.877
-47.3841
-28.9268
-58.8089
-47.6272
-58.5855
-54.0619
-64.814
-34.5719
-55.2666
-64.009
-126.333
-165.063
-161.908
-115.181
-162.853
-125.026
-115.779
-52.9201
-33.5301
-62.5212
-52.0678
-63.212
-182.494
-195.683
-187.351
-191.537
-169.195
-166.024
-188.598
-192.565
-183.438
-197.169
-164.855
-168.183
-244.618
-255.542
-257.757
-242.019
-224.126
-172.917
-174.184
-225.462
-226.366
-174.483
-174.44
-224.645
-241.475
-257.055
-243.894
-254.744
-242.698
-262.494
-256.142
-249.541
-231.678
-180.421
-226.53
-179.09
-250.397
-256.093
-242.626
-263.04
-226.445
-177.74
-179.914
-230.742
-240.645
-255.481
-253.944
-242.15
-224.616
-172.92
-172.786
-223.573
-223.187
-171.929
-173.148
-223.961
-242.787
-254.482
-241.217
-255.899
-185.339
-177.241
-159.102
-254.465
-240.935
-170.558
-171.344
-222.802
207.366
100.204
230.212
317.621
267.572
158.731
127.147
217.528
254.204
219.953
247.224
228.827
253.461
220.389
252.207
333.49
325.663
186.965
301.628
283.691
146.03
248.785
256.455
249.399
243.434
251.436
236.63
230.43
247.033
234.477
246.612
232.385
244.029
230.458
235.752
257.528
209.116
248.346
228.013
262.387
203.09
243.548
202.685
239.343
233.26
230.391
254.143
124.754
273.507
198.577
144.201
228.805
243.758
243.423
245.906
255.826
225.886
236.011
253.392
234.476
260.741
240.26
258.685
235.357
270.199
232.849
204.664
228.891
204.83
246.367
204.786
249.204
169.674
93.8143
175.995
-58.8291
188.862
165.246
-109.663
42.7866
17.5024
77.819
8.6111
107.218
37.8675
42.9325
-129.339
-229.567
-228.541
-156.771
-283.028
174.251
-101.75
-215.536
-256.991
-66.5318
-237.742
-21.957
-247.859
-213.338
-245.013
-220.743
-246.183
-268.275
-261.252
-253.169
-234.56
-248.588
-230.488
-249.888
-257.357
-241.318
-232.061
-264.525
-186.221
-235.832
-173.447
-238.747
-235.511
-140.065
-119.768
-240.34
-237.821
-87.6597
-240.698
-111.279
-197.828
-252.566
-244.601
-211.231
-228.125
-233.922
-223.691
-236.783
-252.636
-257.312
-250.413
-260.678
-239.691
-236.73
-237.265
-239.177
-240.212
-253.133
-247.37
-247.319
-226.795
-221.094
-211.922
-235.304
-200.334
-196.579
-212.313
-200.124
-215.004
-226.748
-226.429
-215
-241.485
-228.464
-230.27
-241.281
-234.233
-242.724
-234.278
-241.16
-244.58
-238.994
-236.131
-245.782
-233.608
-236.28
-232.976
-238.208
-179.121
-189.516
-181.458
-187.464
-163.78
-162.201
-161.041
-162.717
-182.882
-188.126
-190.818
-180.091
-203.746
-199.146
-201.034
-201.838
-211.334
-219.141
-213.647
-216.744
-200.615
-200.086
-198.21
-202.54
-214.59
-217.816
-212.272
-220.211
-202.341
-202.197
-199.736
-204.923
-217.121
-218.635
-213.387
-222.498
-206.116
-200.485
-203.682
-202.813
-212.755
-221.388
-215.759
-218.235
-199.963
-198.483
-197.293
-201.249
-212.734
-216.119
-210.716
-218.248
-201.652
-197.63
-199.151
-199.943
-210.529
-217.797
-212.068
-216.128
-177.202
-184.841
-176.719
-185.4
-157.894
-158.717
-158.501
-158.72
-176.247
-185.156
-184.213
-177.334
-200.849
-197.129
-199.835
-198.086
-210.11
-216.985
-215.554
-211.509
-211.701
-216.026
-210.385
-217.386
-199.25
-197.983
-196.802
-200.416
291.408
322.422
321.079
309.844
310.442
305.401
307.793
274.571
291.24
258.361
269.683
252.678
278.41
285.906
235.191
293.794
229.794
269.58
244.8
291.433
222.105
408.151
426.451
366.134
394.021
395.809
404.652
409.828
449.343
454.659
463.287
376.064
405.579
471.3
434.661
493.081
473.001
512.128
558.012
438.767
516.33
535.991
394.727
364.582
416.499
375.83
394.704
383.508
405.12
381.303
343.426
418.597
383.187
384.309
366.33
400.593
489.299
418.975
396.928
529.107
457.961
418.39
480.107
334.771
313.028
300.002
300.309
312.088
345.311
331.526
520.353
474.242
550.437
574.199
444.066
525.655
557.444
440.732
400.942
136.59
213.865
240.268
213.183
195.935
221.26
329.797
304.049
227.475
239.006
313.451
279.32
181.45
219.975
44725.5
59330.5
-5442.91
2629.94
4468.57
1373.95
-289.9
5777.41
-865.575
-146.779
-633.436
8577.87
5954.59
1290
-667.758
7990.49
584.104
428.324
-254.801
299.08
554.412
-200.017
410.81
656.802
348.474
486.923
448.721
221.762
482.938
881.326
-224.859
1148.99
1357.51
368.196
207.477
1749.03
735.49
624.178
832.874
703.895
203.955
848.245
1088.47
1178.95
1007.55
1698.23
1316.1
893.517
1303.33
648.19
525.423
512.453
495.579
580.622
610.409
588.023
879.784
924.404
572.496
804.137
711.031
744.488
1035.46
771.753
668.306
681.135
543.599
845.392
694.967
650.753
7554.71
5048.93
4683.85
3703.67
5217.99
8059.53
5231.81
21212.5
61771.1
48283.5
18655.4
45929.6
28501.6
8311.84
11434.5
7161.01
16982.6
7353.91
12456.8
13878.8
7569.86
10014.7
5589.14
6358.7
8864.96
5312.2
12393.1
2969.25
870.701
805.885
680.126
642.495
872.777
671.821
878.34
1188.5
1048.94
678.475
860.709
904.951
950.81
1183.46
2425.43
2856.42
1676.61
1881.35
2232.85
1921.68
2481.21
-155.616
-185.631
-194.656
-145.2
-162.772
-189.266
-139.114
-76.9236
-79.266
-52.4981
-73.2346
-82.6577
-81.7402
-92.8278
-56.6116
-89.1005
-87.2479
-136.342
-170.943
-169.655
-121.717
-133.748
-171.585
-123.276
-66.147
-76.2589
-43.9596
-69.5791
-73.6641
-63.1524
-69.6513
-41.5887
-60.94
-71.4382
-118.31
-158.788
-155.015
-108.699
-117.951
-155.249
-108.46
-45.4642
-56.6384
-26.9466
-45.4969
-56.7301
-45.4564
-56.9305
-26.7073
-45.5035
-56.8094
-117.173
-158.122
-153.716
-106.988
-116.352
-154.331
-107.251
-44.6794
-56.4227
-25.7727
-45.1969
-56.1001
-44.1397
-55.4487
-24.8072
-43.6823
-55.7687
216.343
438.224
671.661
283.701
470.799
618.367
271.772
499.5
594.991
545.715
614.389
469.156
411.158
379.341
189.993
866.673
198.902
641.231
437.402
143.819
370.2
281.607
784.633
22.736
116.867
173.405
512.857
220.127
329.705
126.162
428.402
504.796
532.036
416.411
432.315
518.228
433.767
436.889
410.767
391.227
400.857
414.615
426.537
419.968
450.058
503.522
426.192
407.862
474.071
409.465
467.312
429.229
481.133
428.427
397.068
482.689
443.734
391.508
412.975
295.578
565.606
433.951
136.419
333.674
342.746
193.306
94.4302
102.364
70.2336
92.7505
97.1047
186.288
178.429
514.924
327.305
213.095
120.079
134.854
134.504
385.189
510.356
372.007
312.205
203.679
360.148
278.871
1210.58
-1055.15
703.505
284.941
553.47
460.914
745.223
443.919
309.965
809.603
708.648
794.687
408.759
491.479
-325.975
557.922
-542.475
-399.031
-675.734
-336.26
-540.31
402.556
-237.9
592.968
-400.064
207.692
-534.908
-557.288
-202.006
1071.97
1850.95
90.5835
-221.133
1677.79
-220.999
-65.8276
276.331
587.341
-16.643
93.1961
-246.217
-154.189
-151.233
3610.27
-652.096
1717.29
-115.31
-101.129
-104.611
-66.6169
-81.9422
-140.209
-91.7036
-128.628
-102.854
-121.354
-110.797
-135.892
-106.448
-119.251
-100.324
-96.1307
-98.4064
-94.7947
-124.739
-83.7682
-93.4464
263.729
-1134.61
-454.213
6142.9
-71.3807
1011.9
-180.793
124.55
624.514
-106.034
9.21456
-49.2124
-63.1807
264.43
298.542
-53.2415
623.534
-56.9688
-113.457
626.268
15.3772
-47.9931
-74.7932
692.428
-113.82
58.6267
-77.0508
-85.6691
-46.8684
12.8646
-0.726566
-24.1712
65.2018
-50.1708
-199.15
87.8827
66.0191
-204.197
54.3276
75.2083
-49.2974
-215.828
87.9087
86.9447
-233.429
87.7656
-474.722
-633.776
-589.116
-527.219
-641.363
-371.989
-325.36
-682.106
-593.751
-535.831
-512.684
-644.348
-852.156
-839.905
-875.853
-854.713
-855.158
-665.865
-790.27
-901.808
-323.081
-346.341
-562.695
-642.236
-684.569
-554.496
-691.945
-672.634
-531.459
-632.267
-540.644
-688.72
363.418
439.492
271.854
321.232
377.61
401.567
309.358
449.625
441.421
466.78
384.667
463.902
426.971
416.417
471.067
523.948
473.253
523.739
485.216
488.143
481.281
364.174
275.867
368.466
359.179
366.866
358.379
330.996
78.9617
56.0227
102.466
128.875
127.476
22.1497
85.9922
-41.3837
-58.5521
-75.6018
-52.0604
-53.0535
-28.9307
-46.7747
-10.6564
5.43219
-64.2055
-30.0571
-30.0282
-19.3241
-16.0227
30.2462
97.3351
46.8356
-30.6085
50.2028
15.5343
14.1443
138.223
179.465
66.9521
176.767
89.6194
178.464
124.675
77.1297
66.3691
155.225
-9.80686
117.692
37.8305
80.8891
188.192
227.114
256.73
272.762
242.264
149.251
224.916
30.9361
12.5072
-21.7812
4.10295
15.4201
32.4496
20.7475
412.19
380.107
475.107
335.129
517.146
530.413
421.885
326.958
535.368
550.263
625.651
384.061
536.932
319.71
566.021
551.136
774.988
789.956
816.024
750.844
729.966
405.693
685.738
437.572
741.346
665.228
781.88
654.565
777.489
460.542
761.874
453.21
529.812
518.033
632.237
294.341
598.905
546.706
326.087
655.477
472.624
692.001
682.178
355.44
656.78
381.609
703.512
710.031
646.593
714.68
684.525
762.41
661.837
455.812
594.091
470.297
719.239
563.561
616.808
605.683
714.718
466.271
758.905
458.688
-273.281
-220.154
-276.042
-231.591
-274.325
-256.544
-227.855
-318.303
-221.604
-274.862
-285.343
-243.407
-281.234
-218.037
-243.068
-256.772
-232.242
-286.215
1874.75
1518.08
438.309
1003.1
1687.5
-16.9565
931.606
-34931.1
14248
-9158.96
16483
-11203.2
-515.912
-116.088
-537.009
-43.8873
323.442
191.991
-505.47
-187.403
189.979
115.074
151.408
258.371
206.285
55.0962
131.858
67.9274
-205.51
63.877
-284.817
-60.4377
38.1759
-50.1088
102.582
90.4274
146.889
-489.165
134.874
141.05
487.582
425.114
303.086
343.266
141.368
190.269
609.866
691.311
-254.067
455.2
455.853
634.701
-38.853
996.594
524.986
-1077.38
825.795
475.814
348.125
912.54
1491.83
1353.9
2957.22
99.1945
2428.98
1290.46
722.596
614.035
640.228
810.718
524.892
714.113
290.398
681.779
-5.19188
-65.2466
-252.212
-190.298
-199.143
-112.321
-163.818
-32.2593
-275.058
424.236
-276.387
-150.564
-58.1995
-140.3
-266.094
-229.216
265.828
-155.556
-131.063
-255.497
-188.676
-139.765
-81.9208
-184.49
1.60665
-220.368
-209.149
-62.4773
-41.5906
-205.199
-243.441
120.16
-121.567
-245.229
-166.878
-166.724
-170.388
-175.973
-149.134
-287.713
-262.637
-293.341
-260.528
-270.671
-282.505
-265.101
-290.851
-281.666
-251.86
-275.795
-257.039
-276.355
-305.661
-280.45
-299.089
-206.101
-273.91
-278.635
-222.135
-267.347
4.10993
-277.991
39.3565
-189.65
-259.908
-274.119
-224.536
-244.362
-133.001
-231.341
-96.5775
-228.497
-269.317
-266.666
-226.544
-242.196
-146.526
-241.526
-151.149
-226.652
-260.232
-221.316
-264.746
-238.414
-149.718
-234.197
-153.423
-60.4063
-66.1872
-15.564
-75.2835
-38.2874
-35.0941
-73.005
54.1191
-55.3905
-136.118
-75.3766
-48.3115
-54.5967
-101.139
88.5297
-234.405
1262.31
-241.406
80.6903
45.5828
58.8399
502.06
-49.4568
306.891
372.25
106.791
-195.83
-141.465
-116.395
-127.245
-195.609
-153.703
-103.672
-121.503
-121.516
-98.4313
-47.4993
-208.012
-44.1713
-199.524
-126.813
-210.348
-157.604
-149.916
-126.633
-129.038
-134.396
-62.6954
-164.224
-196.997
-53.0313
-141.595
-176.517
-309.074
-158.964
-151.08
-304.823
-163.554
-176.965
-221.286
-311.57
-178.562
-174.805
-316.86
-179.184
126.735
327.437
309.672
492.824
280.903
495.364
273.893
430.525
440.845
469.112
-555.068
-681.337
-907.554
-391.295
-386.437
-554.558
-635.095
-674.082
-553.281
-664.852
-645.728
-548.75
-624.547
-546.566
-655.507
-799.921
-810.97
-790.884
-803.55
-426.439
-421.188
-572.221
-675.936
-627.631
-563.947
-655.432
-653.347
-554.574
-625.935
-558.841
-642.295
-870.75
-891.531
-848.493
-822.18
122.374
138.844
261.243
119.127
297.75
310.795
113.97
270.535
300.539
262.428
293.208
84.4133
284.074
99.8526
254.904
300.614
530.804
439.107
447.151
525.644
573.229
378.808
593.964
361.804
543.871
526.146
603.73
465.639
550.823
335.603
551.289
349.2
69.9545
67.719
231.714
195.42
408.948
330.141
288.015
143.296
326.439
207.009
290.847
104.451
277.329
103.453
204.861
291.195
496.516
443.649
431.459
506.874
509.807
288.078
497.618
299.395
485.59
416.767
476.332
423.167
525.834
323.338
539.564
309.197
-274.806
-283.975
-277.818
-279.749
-286.976
-271.164
-276.537
-279.544
-267.983
-265.634
-260.535
-272.248
-296.055
-291.798
-303.585
-286.911
-257.706
-259.163
-244.845
-267.845
-225.511
-190.387
-194.539
-236.531
-242.673
-206.043
-233.7
-196.625
-236.413
-262.188
-248.563
-252.441
-259.792
-256.156
-254.88
-263.294
-237.681
-246.477
-236.957
-248.577
-254.148
-246.937
-251.825
-249.841
-241.376
-257.859
-244.255
-252.772
-186.541
-202.479
-190.929
-198.717
-177.154
-180.832
-198.245
-211.499
-198.78
-209.895
-168.215
-170.187
-216.885
-207.75
-212.962
-211.789
-218.477
-229.9
-223.385
-224.735
-226.964
-226.076
-221.005
-232.309
-209.008
-211.24
-205.648
-214.402
-216.842
-216.342
-212.358
-220.593
-235.439
-234.68
-231.958
-239.906
-227.555
-223.771
-227.009
-223.767
-225.582
-235.549
-230.236
-230.662
-241.795
-264.089
-252.514
-254.516
-235.732
-190.116
-187.666
-226.088
-227.105
-184.002
-234.308
-187.568
-253.323
-251.472
-239.449
-263.749
-253.089
-250.856
-259.554
-245.122
-237.113
-240.323
-233.089
-244.608
-246.377
-235.073
-242.128
-238.985
-244.114
-258.682
-250.272
-251.935
-246.05
-260.412
-251.382
-254.089
-250.424
-238.648
-241.135
-246.369
-254.417
-248.544
-243.881
-260.744
-241.898
-244.269
-238.004
-248.543
-121.925
-161.869
-157.968
-111.723
-120.847
-158.781
-112.162
-49.3403
-60.575
-30.6098
-50.0788
-60.1043
-48.6222
-59.1678
-29.9363
-48.0943
-59.6167
-124.25
-163.872
-161.205
-114.63
-124.329
-161.205
-114.267
-50.5779
-60.9271
-31.6575
-50.3642
-61.1888
-50.7553
-61.9321
-31.753
-51.3195
-61.4951
-185.68
-190.661
-181.866
-193.909
-162.73
-165.501
-180.664
-192.461
-184.612
-189.141
-166.505
-164.331
-206.442
-208.275
-203.568
-211.106
-223.197
-222.106
-217.214
-228.404
-212.699
-204.613
-209.908
-207.45
-216.265
-227.009
-221.572
-221.443
-209.323
-202.66
-206.561
-205.476
-214.355
-223.934
-218.623
-219.56
-203.99
-205.282
-207.698
-201.455
-219.952
-220.729
-215.439
-225.45
-244.985
-249.766
-252.382
-242.305
-233.504
-230.873
-228.248
-236.178
-236.76
-228.941
-231.581
-234.037
-241.831
-251.757
-249.151
-244.46
-242.351
-258.895
-245.681
-255.712
-228.215
-176.076
-175.599
-225.67
-225.231
-174.444
-227.185
-176.052
-246.77
-256.045
-259.791
-242.737
-242.721
-253.517
-245.977
-250.033
-239.061
-229.986
-234.009
-235.028
-234.515
-232.685
-229.379
-237.788
-247.224
-250.355
-254.622
-243.283
-243.839
-257.514
-250.706
-250.262
-243.637
-232.277
-236.52
-239.116
-251.181
-250.636
-258.226
-243.965
-236.311
-237.784
-231.738
-242.553
-248.807
-256.444
-242.901
-261.694
-226.119
-175.91
-177.645
-229.073
-230.077
-178.122
-226.23
-177.578
-242.956
-260.873
-247.72
-256.166
-249.09
-250.798
-243.763
-256.603
-235.374
-235.328
-230.547
-240.202
-241.327
-231.254
-236.432
-235.999
-243.389
-255.469
-248.318
-250.576
-240.962
-250.064
-248.331
-242.585
-235.153
-227.737
-229.912
-233.117
-232.669
-229.153
-227.401
-234.361
-243.375
-248.853
-250.689
-241.52
-241.579
-253.932
-240.49
-254.855
-222.647
-171.122
-171.837
-223.158
-223.545
-171.968
-222.857
-172.252
-240.296
-254.73
-253.532
-241.426
-242.252
-248.249
-240.716
-249.512
-232.422
-228.725
-227.124
-234.069
-234.042
-227.219
-228.809
-232.422
-240.745
-249.447
-248.084
-242.303
-176.538
-185.516
-177.338
-184.631
-158.234
-158.376
-177.052
-184.204
-176.586
-185.104
-158.177
-158.769
-197.723
-200.401
-216.642
-210.994
-199.763
-198.177
-197.108
-200.909
-211.579
-215.484
-210.02
-217.065
-200.474
-196.78
-199.106
-197.989
-210.423
-217.442
-211.748
-216.079
-240.651
-254.539
-240.903
-253.995
-222.924
-171.011
-171.404
-222.687
-222.772
-170.75
-222.724
-171.542
-240.99
-253.896
-240.658
-254.324
-248.929
-241.408
-227.895
-233.135
-241.105
-249.194
-248.489
-241.871
-233.978
-227.207
-232.676
-228.732
-242.069
-248.403
-241.068
-249.189
-232.791
-228.737
-227.45
-233.819
217.373
202.058
100.989
186.64
139.007
-54.5836
-185.317
174.235
-186.077
-240.268
37.0705
-61.4906
-559.889
-317.197
-254.518
58.9108
186.3
65.791
158.788
-20.3654
15152.3
3419.69
5625.96
3338.28
21006.9
5767.04
6792.95
-177.363
-287.785
-522.475
-502.642
-280.069
-469.649
-198.092
-157.271
-312.254
-211.575
-455.951
-104.031
-267.801
-404.316
-944.317
1509.73
-5652.88
-4736.82
4566.1
-3903.02
-449.483
-257.102
-311.564
-522.135
-556.323
-240.866
-543.75
-319.084
-266.058
-558.765
-319.783
-564.62
-258.317
-555.534
-326.079
116.713
77.9845
198.049
138.949
170.467
223.57
39.9196
-295.253
-463.414
-394.26
-723.279
-336.607
-608.106
-942.211
-674.088
296.873
-296.342
521.383
-157.993
-587.187
-590.432
-853.359
-708.992
-644.176
-757.57
-706.13
-766.392
-844.188
-865.096
-756.378
-687.925
-637.325
-703.831
-850.772
-769.455
-814.738
-546.497
-668.919
-553.771
-736.949
-588.89
-723.762
-798.839
-759.197
-589.853
-668.912
-615.334
-728.961
-860.976
-686.214
-2661.55
-994.489
7.21137
-4412.3
-424.851
-184.479
-1302.75
2271.16
-8488.47
5501.24
-5921.06
588.222
114.712
-762.535
-780.507
-885.08
-809.163
-707.659
-742.899
-643.965
-821.411
-710.855
-729.874
-803.467
-729.449
-646.514
-715.72
-714.617
-722.814
-809.82
-856.906
-749.18
-665.182
-769.778
-745.079
-870.299
-757.703
-838.193
-733.216
-654.175
-726.886
-731.001
-745.466
-824.113
)
;

boundaryField
{
    left
    {
        type            calculated;
        value           nonuniform List<scalar> 
598
(
-63.759
1223.21
256.056
-163.317
-229.476
-155.681
-241.992
841.67
-213.728
390.181
-270.16
262.852
619.307
-39.609
-156.086
-162.435
-201.539
-196.199
-257.293
-202.479
-195.537
166.19
390.523
145.497
-198.106
-254.283
14.8471
79.4923
-216.891
-214.253
-253.158
-237.074
-213.578
-212.648
674.779
166.34
715.409
1091.85
6501.08
189.16
587.702
518.39
-171.967
-175.254
-153.932
-154.175
-164.714
1585.02
-177.914
-116.315
-186.686
-78.2889
-172.761
-62.7477
-271.16
-199.171
-164.861
447.323
190.805
19.631
-2.52115
159.213
515.185
33.8023
-86.631
-158.569
-159.143
-221.382
-217.957
-199.212
-232.808
-235.308
-229.672
-231.976
-198.422
-210.9
-244.07
-270.864
-236.336
-241.653
-207.426
-232.867
-222.876
-194.236
-228.131
-229.032
-228.193
-194.034
-212.701
213.143
-205.292
-213.441
-178.348
-177.474
-214.363
-212.339
-176.788
-176.287
1263.86
2579.08
2331.79
233.053
353.774
375.084
-165.661
-27.5812
-25.6071
-45.8351
-47.1387
-199.52
-153.519
-4.85192
-14.2355
-11.06
-155.066
-252.267
-21.1812
-38.7615
1415.53
895.916
442.342
182.294
12.542
126.077
-284.692
-270.199
-265.546
394.478
356.573
222.357
280.622
388.463
673.764
-56.2077
-123.651
-157.061
-14.8635
-14.498
-25.3507
-23.0352
-161.033
-185.055
-183.941
-200.768
-241.22
-241.593
-237.636
-238.312
-196.962
-235.565
-266.795
-282.101
-241.859
-242.228
-203.829
-187.576
-186.102
-195.06
-236.485
-237
-236.061
-193.855
-176.436
153.52
199.15
270.835
173.494
202.963
310.453
227.153
219.675
-178.335
-194.66
-227.665
-213.898
-191.724
-236.748
-228.936
-245.716
38.9671
31.6294
72.5609
-180.331
-179.278
-215.961
-199.957
-200.975
-198.139
-199.037
-215.097
-246.953
-231.95
-235.961
-228.549
-231.364
-241.122
-215.62
-210.651
-213.138
-196.984
-197.44
-196.449
-196.664
-212.839
-175.942
-175.714
1887.47
305.016
1100.3
145.525
1021.05
1575.57
967.509
2517.66
2277.56
1232.12
3490.43
4012.89
3530.26
287.852
331.11
210.162
685.708
442.027
376.131
424.288
446.828
635.508
-33.9135
-28.4674
-167.118
-189.629
-47.0826
-35.7636
-9.42951
-5.72558
-153.733
-154.739
-10.3308
-10.1357
47.0187
-11.2067
-245.365
865.656
240.798
-128.935
700.461
894.706
193.992
618.085
64.3189
-189.597
-159.293
-149.131
-162.039
-177.603
-130.463
-45.5911
131.536
-127.193
-101.489
-153.13
3.89415
-57.5546
-100.03
-260.147
-267.522
-281.49
-193.645
-238.543
-237.177
-234.243
-237.66
-182.842
420.446
422.818
428.501
181.533
344.156
355.907
115.56