/*--------------------------------*- C++ -*----------------------------------*\
| =========                 |                                                 |
| \\      /  F ield         | OpenFOAM: The Open Source CFD Toolbox           |
|  \\    /   O peration     | Version:  2012                                  |
|   \\  /    A nd           | Website:  www.openfoam.com                      |
|    \\/     M anipulation  |                                                 |
\*---------------------------------------------------------------------------*/
FoamFile
{
    version     2.0;
    format      ascii;
    class       volVectorField;
    location    "0.106/solid";
    object      D_0_0_0;
}
// * * * * * * * * * * * * * * * * * * * * * * * * * * * * * * * * * * * * * //

dimensions      [0 1 0 0 0 0 0];


internalField   nonuniform List<vector> 
3125
(
(5.87739e-11 2.23918e-10 -3.38222e-12)
(5.07141e-11 2.13214e-10 -4.27998e-12)
(3.2173e-11 1.89508e-10 3.5811e-11)
(5.97803e-11 2.25056e-10 -3.40711e-12)
(5.21787e-11 2.15067e-10 -4.228e-12)
(3.11815e-11 1.95112e-10 2.33146e-11)
(6.49017e-11 2.29757e-10 -3.66331e-12)
(5.59403e-11 2.20679e-10 -3.60502e-12)
(4.35312e-11 2.06193e-10 -1.5539e-12)
(6.34189e-11 2.28233e-10 -3.54729e-12)
(5.50408e-11 2.19444e-10 -3.72937e-12)
(4.02315e-11 2.03512e-10 1.48197e-12)
(3.33048e-10 3.89035e-10 -3.19568e-12)
(4.41086e-11 1.49598e-10 -2.68466e-12)
(1.97029e-10 8.86111e-10 -7.20249e-12)
(5.7814e-11 2.22857e-10 -3.3815e-12)
(3.40323e-10 3.93927e-10 -2.85019e-12)
(1.93604e-10 8.80668e-10 -5.82455e-12)
(4.28474e-11 1.48714e-10 -2.75988e-12)
(2.91995e-10 3.61262e-10 2.48813e-12)
(3.4139e-11 1.41139e-10 -3.17423e-12)
(1.76999e-10 8.49248e-10 -7.21608e-12)
(4.87882e-11 2.11108e-10 -4.04214e-12)
(3.06959e-10 3.70628e-10 -1.20063e-12)
(1.70051e-10 8.37419e-10 -3.57951e-12)
(3.15615e-11 1.3946e-10 -2.95377e-12)
(2.5423e-10 3.14013e-10 1.36235e-10)
(1.61621e-12 1.25953e-10 2.33453e-11)
(1.31461e-10 7.58281e-10 1.2778e-10)
(4.15884e-11 1.74532e-10 5.06558e-11)
(2.12983e-10 3.35071e-10 7.67788e-11)
(1.67945e-10 6.63232e-10 2.30347e-10)
(1.14933e-11 1.19391e-10 3.19894e-11)
(2.14367e-10 9.58417e-10 -6.31888e-12)
(2.18117e-10 9.64543e-10 -7.14139e-12)
(3.48644e-10 3.98988e-10 -2.39854e-12)
(6.08883e-11 2.26135e-10 -3.30468e-12)
(4.53512e-11 1.50496e-10 -2.72197e-12)
(1.98246e-10 8.88126e-10 -5.97395e-12)
(3.40791e-10 3.94066e-10 -2.99364e-12)
(2.02244e-10 8.94098e-10 -6.82003e-12)
(4.6737e-11 1.51393e-10 -2.63788e-12)
(2.13265e-10 9.56301e-10 -7.46366e-12)
(2.10216e-10 9.50563e-10 -6.15797e-12)
(1.96943e-10 9.21289e-10 -6.76959e-12)
(2.0099e-10 9.30659e-10 -8.0643e-12)
(3.17239e-10 3.7785e-10 -2.82694e-12)
(5.32598e-11 2.16689e-10 -4.0363e-12)
(3.59844e-11 1.42583e-10 -3.17732e-12)
(1.7887e-10 8.52338e-10 -6.2923e-12)
(3.07809e-10 3.70942e-10 -1.70207e-12)
(1.83313e-10 8.61436e-10 -7.74263e-12)
(3.72128e-11 1.4381e-10 -3.02116e-12)
(1.95359e-10 9.181e-10 -7.6081e-12)
(1.89314e-10 9.05854e-10 -4.06943e-12)
(1.61093e-10 8.23918e-10 1.14935e-10)
(1.64667e-10 8.5465e-10 5.02184e-11)
(2.34217e-10 3.37604e-10 3.76574e-11)
(3.33303e-11 1.98227e-10 1.36001e-11)
(2.10167e-12 1.28211e-10 1.60265e-11)
(1.30304e-10 7.69491e-10 1.03508e-10)
(2.12321e-10 3.33889e-10 7.06954e-11)
(1.37367e-10 7.91732e-10 4.68193e-11)
(7.2269e-12 1.29706e-10 1.01476e-11)
(1.62966e-10 8.07949e-10 1.44394e-10)
(1.97007e-10 6.85799e-10 2.74708e-10)
(2.1024e-10 9.03794e-10 -6.2322e-12)
(5.16856e-11 1.54369e-10 -2.6977e-12)
(3.59751e-10 4.05074e-10 -1.75676e-12)
(2.43089e-10 1.16699e-09 -5.62454e-12)
(3.14761e-11 4.40022e-11 -1.01438e-12)
(2.71474e-11 4.28455e-11 -6.63652e-13)
(2.57116e-11 4.24514e-11 -1.25094e-12)
(2.28892e-10 1.14456e-09 -5.7739e-12)
(2.25186e-10 1.13816e-09 -5.48752e-12)
(3.32591e-10 3.88904e-10 -3.04861e-12)
(5.68679e-11 2.21814e-10 -3.44579e-12)
(1.89078e-10 8.72998e-10 -6.24751e-12)
(4.0441e-11 1.46916e-10 -2.91039e-12)
(1.92449e-10 8.79161e-10 -7.16857e-12)
(3.25545e-10 3.83906e-10 -3.33909e-12)
(4.16216e-11 1.47838e-10 -2.7666e-12)
(2.20267e-10 1.12836e-09 -5.76937e-12)
(2.23948e-10 1.13618e-09 -5.75391e-12)
(2.40714e-11 4.19062e-11 -1.31812e-12)
(2.54581e-11 4.23233e-11 -7.16419e-13)
(2.12e-11 4.05841e-11 -7.13272e-13)
(1.81509e-11 3.99152e-11 -9.00868e-13)
(2.06926e-10 1.09776e-09 -4.41893e-12)
(1.99225e-10 1.08272e-09 -8.14352e-13)
(2.90441e-10 3.60797e-10 3.52309e-12)
(4.6395e-11 2.08757e-10 -3.2318e-12)
(1.57183e-10 8.18575e-10 6.78328e-12)
(2.41451e-11 1.35523e-10 -8.0464e-13)
(1.67189e-10 8.33426e-10 -3.23897e-12)
(2.68294e-10 3.49095e-10 1.27185e-11)
(2.82609e-11 1.37578e-10 -2.18467e-12)
(1.84816e-10 1.05804e-09 1.18655e-11)
(1.96075e-10 1.07723e-09 1.02864e-12)
(1.24044e-11 3.89205e-11 3.81733e-13)
(1.7309e-11 3.96881e-11 -1.67842e-13)
(-8.28924e-12 3.60741e-11 6.86607e-12)
(3.3386e-12 3.22901e-11 9.22879e-12)
(1.48335e-10 9.78761e-10 1.59757e-10)
(1.82614e-10 8.68863e-10 2.76177e-10)
(2.64974e-10 3.00472e-10 1.49773e-10)
(3.71532e-11 7.80117e-11 4.10282e-11)
(2.00296e-10 6.01877e-10 2.73757e-10)
(8.65833e-12 4.87501e-11 1.31837e-11)
(2.1884e-10 7.97169e-10 3.16169e-10)
(1.57982e-11 3.06278e-11 1.04337e-11)
(2.25199e-10 9.74849e-10 -6.60634e-12)
(2.23271e-10 9.71437e-10 -7.73466e-12)
(2.19254e-10 9.65575e-10 -5.89315e-12)
(3.49365e-10 3.99144e-10 -2.48572e-12)
(6.21063e-11 2.27086e-10 -3.32326e-12)
(2.08316e-10 9.0037e-10 -7.37939e-12)
(5.01278e-11 1.533e-10 -2.6462e-12)
(3.59201e-10 4.04999e-10 -1.72088e-12)
(2.03672e-10 8.9503e-10 -5.40474e-12)
(4.83992e-11 1.52302e-10 -2.68603e-12)
(2.74284e-11 4.29671e-11 -1.2041e-12)
(2.89727e-11 4.33581e-11 -6.01826e-13)
(2.30199e-10 1.14745e-09 -5.66829e-12)
(2.34559e-10 1.15545e-09 -5.39418e-12)
(2.40942e-10 1.16163e-09 -5.58351e-12)
(2.36058e-10 1.15639e-09 -4.94884e-12)
(3.10864e-11 4.38955e-11 -4.91986e-13)
(2.92883e-11 4.34804e-11 -1.15977e-12)
(2.06113e-10 9.42648e-10 -6.58565e-12)
(2.09229e-10 9.49008e-10 -7.38916e-12)
(2.05145e-10 9.40537e-10 -7.82759e-12)
(2.02073e-10 9.33063e-10 -6.87567e-12)
(3.17689e-10 3.78039e-10 -3.08942e-12)
(5.41631e-11 2.18125e-10 -3.88511e-12)
(1.8796e-10 8.70968e-10 -7.5708e-12)
(3.93096e-11 1.45936e-10 -2.93238e-12)
(3.25116e-10 3.83725e-10 -3.164e-12)
(1.84571e-10 8.63769e-10 -6.4729e-12)
(3.82325e-11 1.44902e-10 -3.02337e-12)
(2.15718e-11 4.07628e-11 -1.25886e-12)
(2.26074e-11 4.12032e-11 -7.4581e-13)
(2.08971e-10 1.102e-09 -4.79866e-12)
(2.13931e-10 1.11348e-09 -5.74827e-12)
(2.19067e-10 1.12557e-09 -5.95009e-12)
(2.15313e-10 1.11665e-09 -5.65654e-12)
(2.38456e-11 4.17704e-11 -7.92597e-13)
(2.2669e-11 4.13313e-11 -1.29907e-12)
(1.68098e-10 1.17052e-09 -1.51148e-12)
(1.78779e-10 8.85949e-10 6.66091e-12)
(1.86988e-10 9.01703e-10 -3.59559e-12)
(1.57126e-10 1.14472e-09 1.15817e-11)
(1.65612e-10 1.16487e-09 3.41503e-13)
(1.75907e-10 8.80695e-10 1.06339e-11)
(1.67145e-10 8.61317e-10 3.78414e-11)
(1.3411e-10 1.06035e-09 1.42134e-10)
(1.40802e-10 1.10219e-09 6.44146e-11)
(1.53916e-10 1.13748e-09 1.7477e-11)
(1.44106e-10 1.1117e-09 4.83684e-11)
(2.37069e-10 3.37464e-10 3.38626e-11)
(3.6678e-11 2.00843e-10 6.3662e-12)
(1.53347e-10 8.13746e-10 1.03915e-11)
(1.91455e-11 1.33402e-10 1.6075e-12)
(2.65864e-10 3.48595e-10 1.48166e-11)
(1.41306e-10 7.97023e-10 3.58211e-11)
(1.33388e-11 1.31395e-10 5.20149e-12)
(-8.05491e-12 3.67652e-11 5.92457e-12)
(9.36085e-13 3.77441e-11 4.34357e-12)
(1.48924e-10 9.92661e-10 1.2801e-10)
(1.60937e-10 1.02181e-09 6.03746e-11)
(1.8045e-10 1.05136e-09 1.74417e-11)
(1.66005e-10 1.02919e-09 4.59538e-11)
(1.09406e-11 3.869e-11 1.42446e-12)
(3.29115e-12 3.79483e-11 3.00531e-12)
(1.34188e-10 1.03887e-09 1.80027e-10)
(1.65619e-10 8.89731e-10 3.25916e-10)
(6.16522e-11 7.61097e-11 5.55579e-11)
(2.29619e-10 6.128e-10 3.31021e-10)
(1.99597e-10 8.02368e-10 3.77613e-10)
(1.35277e-10 1.85702e-10 1.6991e-10)
(3.61079e-11 1.18276e-11 6.05189e-11)
(2.04292e-10 1.94222e-10 2.71109e-10)
(1.94216e-11 1.70635e-11 3.32293e-11)
(4.31083e-11 7.46754e-12 7.35907e-11)
(2.35568e-10 1.82876e-10 3.12553e-10)
(1.42678e-10 4.39667e-10 -5.24376e-12)
(3.36464e-10 3.91404e-10 -2.94891e-12)
(2.29095e-10 5.83094e-10 -4.59875e-12)
(1.80654e-10 3.05679e-10 -4.30557e-12)
(1.82357e-10 3.06839e-10 -3.89219e-12)
(2.30693e-10 5.84601e-10 -5.35574e-12)
(1.4132e-10 4.38341e-10 -4.99294e-12)
(1.43891e-10 4.40458e-10 -4.94348e-12)
(3.36963e-10 3.91554e-10 -3.0979e-12)
(1.85403e-10 3.08726e-10 -3.78991e-12)
(2.33794e-10 5.87519e-10 -5.33246e-12)
(1.45205e-10 4.41878e-10 -5.20846e-12)
(1.83744e-10 3.07505e-10 -4.2236e-12)
(2.32246e-10 5.85878e-10 -4.5436e-12)
(1.19275e-10 4.15913e-10 -4.70972e-12)
(2.996e-10 3.66026e-10 6.04736e-13)
(1.97467e-10 5.49118e-10 -1.20897e-12)
(1.50398e-10 2.85558e-10 -2.17681e-12)
(1.54283e-10 2.87921e-10 -2.61976e-12)
(2.01084e-10 5.52558e-10 -3.14282e-12)
(1.16177e-10 4.13009e-10 -3.64358e-12)
(1.21746e-10 4.17576e-10 -4.91135e-12)
(3.00802e-10 3.66439e-10 -1.1069e-13)
(1.60164e-10 2.91299e-10 -3.54261e-12)
(2.07112e-10 5.58404e-10 -4.58757e-12)
(1.24138e-10 4.20156e-10 -5.49083e-12)
(1.57145e-10 2.89175e-10 -3.55008e-12)
(2.04254e-10 5.55351e-10 -3.23492e-12)
(7.4285e-11 3.74916e-10 9.63245e-11)
(2.26994e-10 3.33098e-10 1.05328e-10)
(1.71613e-10 4.74213e-10 1.63386e-10)
(1.02612e-10 2.49013e-10 9.06083e-11)
(8.44132e-11 2.60468e-10 7.55032e-11)
(1.51315e-10 4.95984e-10 1.37289e-10)
(9.3515e-11 3.55105e-10 1.17932e-10)
(6.5762e-11 3.80996e-10 8.18237e-11)
(2.19372e-10 3.32772e-10 9.71381e-11)
(7.87268e-11 2.66897e-10 5.43699e-11)
(1.33454e-10 5.10421e-10 9.60325e-11)
(6.22342e-11 3.86448e-10 6.68676e-11)
(7.82878e-11 2.63432e-10 6.4192e-11)
(1.38773e-10 5.05313e-10 1.16395e-10)
(1.49124e-10 4.45165e-10 -4.81499e-12)
(3.44675e-10 3.96472e-10 -2.78665e-12)
(2.40438e-10 5.93748e-10 -5.04398e-12)
(1.91951e-10 3.12434e-10 -3.63433e-12)
(1.50753e-10 4.46482e-10 -5.06405e-12)
(1.8995e-10 3.11187e-10 -4.02376e-12)
(2.38538e-10 5.92231e-10 -4.37348e-12)
(1.47793e-10 4.44285e-10 -5.14468e-12)
(3.44165e-10 3.96347e-10 -2.68121e-12)
(1.86761e-10 3.09378e-10 -4.13287e-12)
(2.35297e-10 5.88991e-10 -4.51558e-12)
(1.46405e-10 4.42774e-10 -4.90471e-12)
(1.88469e-10 3.1054e-10 -3.69718e-12)
(2.36876e-10 5.9077e-10 -5.27057e-12)
(1.29175e-10 4.25194e-10 -5.45815e-12)
(3.13263e-10 3.7475e-10 -2.61238e-12)
(2.15452e-10 5.67927e-10 -5.55259e-12)
(1.67748e-10 2.96737e-10 -4.05605e-12)
(1.30532e-10 4.27179e-10 -5.70678e-12)
(1.66056e-10 2.95136e-10 -4.39491e-12)
(2.13692e-10 5.65602e-10 -4.68118e-12)
(1.27797e-10 4.23886e-10 -5.70562e-12)
(3.12676e-10 3.74495e-10 -2.25677e-12)
(1.62297e-10 2.92388e-10 -4.18377e-12)
(2.09569e-10 5.6082e-10 -4.23189e-12)
(1.26005e-10 4.21621e-10 -5.38374e-12)
(1.64533e-10 2.94185e-10 -3.92004e-12)
(2.11784e-10 5.6347e-10 -5.27134e-12)
(6.96498e-11 3.89464e-10 3.64155e-11)
(2.21775e-10 3.34444e-10 5.00493e-11)
(1.47624e-10 5.17601e-10 4.00605e-11)
(9.96236e-11 2.68872e-10 2.51879e-11)
(7.49723e-11 3.91422e-10 2.72293e-11)
(9.25971e-11 2.67688e-10 3.16022e-11)
(1.41517e-10 5.15097e-10 5.18923e-11)
(6.56405e-11 3.88824e-10 4.46124e-11)
(2.19772e-10 3.35257e-10 5.4892e-11)
(8.16448e-11 2.66862e-10 4.60886e-11)
(1.33328e-10 5.11838e-10 7.98014e-11)
(6.26603e-11 3.87095e-10 5.63046e-11)
(8.70081e-11 2.67724e-10 3.84611e-11)
(1.36515e-10 5.13547e-10 6.39406e-11)
(1.63315e-10 4.55786e-10 -4.25053e-12)
(3.64851e-10 4.07528e-10 -7.00373e-13)
(2.55685e-10 6.06796e-10 -3.13892e-12)
(2.06314e-10 3.19462e-10 -3.07411e-12)
(1.61149e-10 4.54513e-10 -4.74029e-12)
(3.64001e-10 4.07431e-10 -8.84904e-13)
(2.50929e-10 6.01761e-10 -3.93134e-12)
(2.01872e-10 3.1741e-10 -3.37424e-12)
(2.53021e-10 6.04567e-10 -4.48823e-12)
(2.04011e-10 3.18692e-10 -2.81949e-12)
(1.59252e-10 4.52291e-10 -4.61127e-12)
(3.69511e-10 7.59643e-10 -2.65526e-12)
(2.45589e-10 1.17323e-09 -5.56091e-12)
(3.14846e-10 8.76266e-10 -4.37418e-12)
(3.18949e-10 8.8403e-10 -3.70129e-12)
(2.48257e-10 1.17826e-09 -4.40897e-12)
(3.20445e-10 8.86092e-10 -3.60885e-12)
(3.63595e-10 7.51531e-10 -3.37468e-12)
(3.67885e-10 7.57914e-10 -2.51753e-12)
(2.39081e-10 2.36458e-10 -1.50441e-12)
(1.57325e-10 1.60619e-10 -1.90434e-12)
(3.24241e-11 4.41271e-11 -4.51527e-13)
(1.59936e-10 1.61232e-10 -1.65469e-12)
(2.34429e-10 2.3521e-10 -1.99952e-12)
(2.38083e-10 2.36295e-10 -2.02285e-12)
(3.29366e-11 4.42418e-11 -8.97872e-13)
(1.61412e-10 1.61464e-10 -1.6107e-12)
(2.10829e-10 2.25408e-10 -2.97383e-12)
(2.1377e-10 2.26739e-10 -3.26682e-12)
(1.43253e-10 1.55539e-10 -2.30062e-12)
(2.67119e-11 4.27313e-11 -1.19045e-12)
(1.41734e-10 1.54816e-10 -2.51279e-12)
(2.17128e-10 2.28293e-10 -3.17155e-12)
(2.14384e-10 2.26964e-10 -2.90109e-12)
(1.38576e-10 1.53682e-10 -2.61353e-12)
(2.64303e-11 4.26068e-11 -7.42081e-13)
(1.40808e-10 1.54432e-10 -2.42306e-12)
(3.40011e-10 7.29579e-10 -4.50533e-12)
(3.42572e-10 7.3226e-10 -4.06725e-12)
(2.98755e-10 8.59524e-10 -4.76577e-12)
(2.27667e-10 1.14194e-09 -5.53149e-12)
(2.96448e-10 8.56319e-10 -4.95182e-12)
(3.45959e-10 7.3581e-10 -4.00492e-12)
(3.43398e-10 7.32789e-10 -4.42248e-12)
(2.93379e-10 8.53025e-10 -5.02076e-12)
(2.2645e-10 1.13998e-09 -5.59586e-12)
(2.95699e-10 8.55652e-10 -4.74559e-12)
(1.38863e-10 4.36156e-10 -5.1163e-12)
(2.27584e-10 5.81826e-10 -5.4486e-12)
(3.29287e-10 3.86539e-10 -3.28786e-12)
(1.79315e-10 3.05035e-10 -3.93737e-12)
(1.40138e-10 4.37557e-10 -5.3121e-12)
(2.26067e-10 5.80203e-10 -4.73832e-12)
(1.77708e-10 3.03825e-10 -4.39048e-12)
(1.37716e-10 4.35269e-10 -5.46423e-12)
(3.28854e-10 3.86382e-10 -3.13433e-12)
(2.23107e-10 5.76962e-10 -4.85488e-12)
(1.7479e-10 3.01895e-10 -4.52493e-12)
(2.24605e-10 5.7875e-10 -5.59148e-12)
(1.76409e-10 3.03147e-10 -4.0675e-12)
(1.36443e-10 4.33724e-10 -5.27739e-12)
(3.39194e-10 7.28975e-10 -4.14816e-12)
(3.36674e-10 7.26009e-10 -4.59506e-12)
(2.21513e-10 1.13108e-09 -5.88982e-12)
(2.87319e-10 8.44663e-10 -5.20528e-12)
(2.89613e-10 8.4825e-10 -4.96044e-12)
(2.9263e-10 8.52303e-10 -4.83345e-12)
(2.22739e-10 1.1337e-09 -5.71834e-12)
(2.90358e-10 8.49171e-10 -5.15299e-12)
(3.33314e-10 7.21914e-10 -4.62063e-12)
(3.35854e-10 7.25256e-10 -4.23053e-12)
(2.10252e-10 2.25193e-10 -3.32386e-12)
(2.07591e-10 2.23885e-10 -3.06853e-12)
(1.33168e-10 1.51442e-10 -2.77982e-12)
(2.47773e-11 4.20693e-11 -8.07027e-13)
(1.35341e-10 1.52211e-10 -2.56939e-12)
(2.04179e-10 2.22277e-10 -3.17469e-12)
(2.07026e-10 2.2366e-10 -3.42894e-12)
(1.37728e-10 1.53309e-10 -2.42689e-12)
(2.50424e-11 4.22063e-11 -1.23892e-12)
(1.36212e-10 1.52593e-10 -2.64854e-12)
(1.76154e-10 2.09122e-10 -3.95213e-13)
(1.82839e-10 2.1172e-10 -1.83568e-12)
(1.21834e-10 1.45747e-10 -2.14714e-12)
(2.02751e-11 4.03822e-11 -1.14177e-12)
(1.18663e-10 1.44506e-10 -2.14908e-12)
(1.89235e-10 2.14378e-10 -2.74123e-12)
(1.84136e-10 2.12113e-10 -1.83574e-12)
(1.11966e-10 1.42412e-10 -1.33266e-12)
(1.96241e-11 4.01689e-11 -5.85564e-13)
(1.16638e-10 1.43872e-10 -1.60482e-12)
(3.03215e-10 6.86648e-10 1.40187e-12)
(3.09242e-10 6.93164e-10 -5.07132e-13)
(2.71645e-10 8.20984e-10 -3.4224e-12)
(2.04657e-10 1.09292e-09 -3.50667e-12)
(2.67292e-10 8.14847e-10 -2.42284e-12)
(3.15848e-10 7.00362e-10 -2.36234e-12)
(3.11004e-10 6.94627e-10 -1.44406e-12)
(2.60268e-10 8.06168e-10 3.46143e-13)
(2.02105e-10 1.08796e-09 -2.49063e-12)
(2.65716e-10 8.13092e-10 -1.67454e-12)
(1.09274e-10 4.07959e-10 -1.13139e-12)
(1.93537e-10 5.45998e-10 -4.34871e-13)
(2.81221e-10 3.55419e-10 6.57459e-12)
(1.46787e-10 2.84161e-10 -7.56564e-13)
(1.13083e-10 4.11168e-10 -2.93966e-12)
(1.89108e-10 5.42146e-10 2.3442e-12)
(1.42021e-10 2.81514e-10 3.21066e-13)
(1.05484e-10 4.05942e-10 3.26612e-13)
(2.79225e-10 3.54875e-10 8.0617e-12)
(1.78985e-10 5.34588e-10 8.28046e-12)
(1.31773e-10 2.77232e-10 4.38512e-12)
(1.84309e-10 5.38663e-10 4.17445e-12)
(1.37556e-10 2.79985e-10 2.37846e-12)
(1.00853e-10 4.02567e-10 3.27015e-12)
(3.01059e-10 6.85016e-10 2.7241e-12)
(2.93728e-10 6.77655e-10 6.07976e-12)
(1.88902e-10 1.06462e-09 7.1779e-12)
(2.41494e-10 7.85711e-10 1.27566e-11)
(2.49378e-10 7.94125e-10 6.8073e-12)
(2.5833e-10 8.04221e-10 1.49455e-12)
(1.92645e-10 1.07103e-09 3.79553e-12)
(2.51719e-10 7.96352e-10 5.03145e-12)
(2.82381e-10 6.67907e-10 1.3576e-11)
(2.91109e-10 6.75786e-10 7.98732e-12)
(1.74506e-10 2.08698e-10 -1.55678e-13)
(1.66427e-10 2.05802e-10 2.02036e-12)
(9.40507e-11 1.37568e-10 2.48791e-12)
(1.45898e-11 3.92011e-11 4.27302e-13)
(1.00887e-10 1.39388e-10 1.45868e-12)
(1.54418e-10 2.02254e-10 5.75225e-12)
(1.64344e-10 2.05357e-10 2.56651e-12)
(1.09429e-10 1.41734e-10 -4.02776e-13)
(1.57268e-11 3.94386e-11 -3.76733e-13)
(1.04227e-10 1.40083e-10 1.81771e-13)
(1.05255e-10 1.69454e-10 6.78824e-11)
(8.20973e-11 1.80663e-10 5.1784e-11)
(3.87945e-11 1.25864e-10 2.31691e-11)
(-8.55016e-12 3.48843e-11 6.90519e-12)
(3.51177e-11 1.1919e-10 2.5353e-11)
(9.16572e-11 1.91267e-10 3.95657e-11)
(8.1997e-11 1.83661e-10 4.80077e-11)
(5.33812e-11 1.0497e-10 3.50854e-11)
(-3.77213e-12 3.32795e-11 8.06414e-12)
(3.9964e-11 1.11081e-10 2.8991e-11)
(2.69353e-10 5.81031e-10 2.11316e-10)
(2.40345e-10 6.20049e-10 1.65771e-10)
(1.94707e-10 7.43256e-10 1.23577e-10)
(1.5187e-10 9.56406e-10 1.95736e-10)
(2.00889e-10 7.27272e-10 1.64632e-10)
(2.29748e-10 6.35496e-10 1.14411e-10)
(2.35165e-10 6.25724e-10 1.51477e-10)
(2.37028e-10 6.68431e-10 2.29002e-10)
(1.62278e-10 9.21159e-10 2.35198e-10)
(2.06054e-10 7.18212e-10 1.80231e-10)
(1.50659e-10 2.90266e-10 1.70172e-10)
(1.99664e-10 4.36341e-10 1.94011e-10)
(3.22416e-10 2.50918e-10 1.99225e-10)
(1.27211e-10 2.37174e-10 1.08273e-10)
(1.16751e-10 3.23995e-10 1.39659e-10)
(2.4245e-10 3.94906e-10 2.4097e-10)
(1.61541e-10 2.13209e-10 1.32822e-10)
(1.7379e-10 2.56434e-10 2.01383e-10)
(3.11408e-10 5.47168e-10 3.97187e-10)
(2.98584e-10 4.691e-10 3.16809e-10)
(2.43157e-10 2.78241e-10 3.08534e-10)
(1.22977e-10 1.73299e-10 1.49514e-10)
(1.13589e-11 1.36707e-11 1.79398e-11)
(1.26171e-10 1.14142e-10 9.44093e-11)
(1.56663e-11 1.72885e-11 2.86634e-11)
(1.63751e-10 2.34962e-10 1.76622e-10)
(3.65314e-10 2.50658e-10 2.11867e-10)
(3.07617e-10 4.16515e-10 2.98878e-10)
(1.75289e-10 1.47546e-10 1.16729e-10)
(2.83015e-10 5.60062e-10 2.29087e-10)
(3.48278e-10 4.78454e-10 2.9509e-10)
(3.17405e-10 6.31103e-10 3.90548e-10)
(3.46124e-10 5.36299e-10 3.33745e-10)
(2.52574e-10 6.44995e-10 2.47707e-10)
(2.75067e-10 7.08669e-10 3.53836e-10)
(3.23395e-10 5.55617e-10 3.12832e-10)
(3.74683e-10 4.61845e-10 3.15681e-10)
(1.19993e-10 1.63696e-10 7.32141e-11)
(1.72454e-10 1.30498e-10 9.65414e-11)
(1.20288e-11 1.13163e-11 1.7975e-11)
(1.39914e-10 9.05356e-11 8.32624e-11)
(1.97065e-10 1.14059e-10 1.02451e-10)
(7.60578e-11 1.00217e-10 4.10987e-11)
(2.32245e-11 2.51853e-11 1.63014e-11)
(9.62967e-11 8.49074e-11 5.00121e-11)
(1.54279e-10 4.48387e-10 -5.06431e-12)
(3.5408e-10 4.02084e-10 -2.08551e-12)
(2.42508e-10 5.94803e-10 -4.12685e-12)
(1.93788e-10 3.13164e-10 -4.00356e-12)
(1.52353e-10 4.47157e-10 -4.76212e-12)
(2.44791e-10 5.9613e-10 -4.85642e-12)
(1.96182e-10 3.1452e-10 -3.60182e-12)
(1.55962e-10 4.49188e-10 -4.7518e-12)
(3.54885e-10 4.02287e-10 -2.18589e-12)
(2.49032e-10 5.99449e-10 -4.8372e-12)
(2.00247e-10 3.16733e-10 -3.22901e-12)
(1.57708e-10 4.50948e-10 -4.99925e-12)
(2.46985e-10 5.9738e-10 -4.02268e-12)
(1.98129e-10 3.15338e-10 -3.81845e-12)
(2.24585e-10 2.31362e-10 -2.94989e-12)
(2.21344e-10 2.29961e-10 -2.65868e-12)
(1.44088e-10 1.55893e-10 -2.47541e-12)
(2.81742e-11 4.31146e-11 -6.79774e-13)
(1.46318e-10 1.56603e-10 -2.27662e-12)
(2.17723e-10 2.28504e-10 -2.8019e-12)
(2.20694e-10 2.29762e-10 -3.05366e-12)
(1.49167e-10 1.57728e-10 -2.15053e-12)
(2.84904e-11 4.32386e-11 -1.12751e-12)
(1.47319e-10 1.56937e-10 -2.33972e-12)
(3.5347e-10 7.43601e-10 -3.6889e-12)
(3.50493e-10 7.40927e-10 -4.26461e-12)
(2.99533e-10 8.60502e-10 -4.97867e-12)
(2.31627e-10 1.15052e-09 -5.81597e-12)
(3.0205e-10 8.64428e-10 -4.71071e-12)
(3.46814e-10 7.36576e-10 -4.36439e-12)
(3.4955e-10 7.40075e-10 -3.91752e-12)
(3.05622e-10 8.6815e-10 -4.37429e-12)
(2.33099e-10 1.15339e-09 -5.54285e-12)
(3.02913e-10 8.65472e-10 -4.88198e-12)
(3.5449e-10 7.4394e-10 -4.00341e-12)
(3.57751e-10 7.45873e-10 -3.38121e-12)
(3.13679e-10 8.7438e-10 -4.19335e-12)
(2.39148e-10 1.1581e-09 -5.05443e-12)
(3.10461e-10 8.70055e-10 -4.29222e-12)
(3.62337e-10 7.50068e-10 -3.09971e-12)
(3.58818e-10 7.46048e-10 -3.67066e-12)
(3.06559e-10 8.68523e-10 -4.51683e-12)
(2.37595e-10 1.15691e-09 -4.97959e-12)
(3.09479e-10 8.69772e-10 -4.09832e-12)
(2.25389e-10 2.31611e-10 -2.56317e-12)
(2.29378e-10 2.33302e-10 -2.84698e-12)
(1.56407e-10 1.60395e-10 -1.84911e-12)
(3.05073e-11 4.37794e-11 -1.0855e-12)
(1.54498e-10 1.59601e-10 -2.15991e-12)
(2.33722e-10 2.3505e-10 -2.48167e-12)
(2.30254e-10 2.33595e-10 -2.41371e-12)
(1.50358e-10 1.58159e-10 -2.32833e-12)
(3.01258e-11 4.36482e-11 -6.30264e-13)
(1.53178e-10 1.59109e-10 -2.12795e-12)
(1.32957e-10 4.30093e-10 -5.68084e-12)
(3.21267e-10 3.80858e-10 -3.08554e-12)
(2.1705e-10 5.69762e-10 -4.84822e-12)
(1.69024e-10 2.97571e-10 -4.53062e-12)
(1.31686e-10 4.28316e-10 -5.437e-12)
(2.18639e-10 5.71821e-10 -5.66797e-12)
(1.70632e-10 2.98997e-10 -4.1679e-12)
(1.34085e-10 4.31122e-10 -5.38523e-12)
(3.21705e-10 3.81051e-10 -3.29063e-12)
(2.21653e-10 5.75407e-10 -5.67071e-12)
(1.735e-10 3.01163e-10 -4.14611e-12)
(1.35317e-10 4.3277e-10 -5.6001e-12)
(2.20145e-10 5.73494e-10 -4.90571e-12)
(1.7191e-10 2.99781e-10 -4.56744e-12)
(1.97184e-10 2.18506e-10 -3.37069e-12)
(1.94509e-10 2.16918e-10 -2.91183e-12)
(1.23136e-10 1.46309e-10 -2.5374e-12)
(2.2301e-11 4.09403e-11 -7.67217e-13)
(1.25685e-10 1.47299e-10 -2.38527e-12)
(1.90159e-10 2.14733e-10 -2.58672e-12)
(1.93926e-10 2.16605e-10 -3.15687e-12)
(1.27619e-10 1.48571e-10 -2.4579e-12)
(2.23678e-11 4.10771e-11 -1.21541e-12)
(1.26322e-10 1.47752e-10 -2.59367e-12)
(3.25344e-10 7.12028e-10 -3.90205e-12)
(3.22206e-10 7.07701e-10 -3.92396e-12)
(2.72896e-10 8.22485e-10 -3.91423e-12)
(2.10829e-10 1.106e-09 -5.33029e-12)
(2.76372e-10 8.27793e-10 -4.33405e-12)
(3.17238e-10 7.01611e-10 -3.04768e-12)
(3.21096e-10 7.06587e-10 -3.38394e-12)
(2.80181e-10 8.33771e-10 -4.7517e-12)
(2.12464e-10 1.10979e-09 -5.47843e-12)
(2.77372e-10 8.29126e-10 -4.68387e-12)
(3.26278e-10 7.12964e-10 -4.35914e-12)
(3.29053e-10 7.16778e-10 -4.15901e-12)
(2.86583e-10 8.43691e-10 -4.995e-12)
(2.17883e-10 1.12253e-09 -5.79473e-12)
(2.84283e-10 8.39925e-10 -5.17583e-12)
(3.32495e-10 7.21125e-10 -4.24132e-12)
(3.29912e-10 7.17605e-10 -4.56786e-12)
(2.81022e-10 8.349e-10 -5.02418e-12)
(2.16647e-10 1.11963e-09 -5.85839e-12)
(2.83516e-10 8.38911e-10 -4.94037e-12)
(1.97677e-10 2.18787e-10 -3.10824e-12)
(2.00433e-10 2.20291e-10 -3.50234e-12)
(1.32396e-10 1.51027e-10 -2.5835e-12)
(2.34457e-11 4.16375e-11 -1.28932e-12)
(1.309e-10 1.50242e-10 -2.7658e-12)
(2.03627e-10 2.22026e-10 -3.50376e-12)
(2.00973e-10 2.20559e-10 -3.19447e-12)
(1.28145e-10 1.48998e-10 -2.7451e-12)
(2.32561e-11 4.14897e-11 -8.37386e-13)
(1.30132e-10 1.49796e-10 -2.6209e-12)
(1.60221e-10 1.15168e-09 6.68736e-12)
(1.63031e-10 1.15841e-09 3.14219e-12)
(1.35586e-10 1.07693e-09 1.10291e-10)
(1.37898e-10 1.09076e-09 8.47917e-11)
(1.50723e-10 1.12932e-09 2.53512e-11)
(1.47476e-10 1.12066e-09 3.53157e-11)
(8.59182e-11 3.95439e-10 1.44931e-11)
(2.50503e-10 3.42436e-10 2.44736e-11)
(1.5412e-10 5.20151e-10 3.1679e-11)
(1.06101e-10 2.69615e-10 1.96263e-11)
(8.01033e-11 3.92685e-10 2.12043e-11)
(1.60764e-10 5.23596e-10 2.31091e-11)
(1.13462e-10 2.71709e-10 1.48101e-11)
(9.09911e-11 3.97264e-10 1.03956e-11)
(2.53321e-10 3.42772e-10 2.15989e-11)
(1.73313e-10 5.31031e-10 1.16247e-11)
(1.26385e-10 2.757e-10 7.38312e-12)
(9.63558e-11 4.00553e-10 5.83605e-12)
(1.67161e-10 5.26973e-10 1.75812e-11)
(1.19656e-10 2.73029e-10 1.06452e-11)
(1.21102e-10 1.95849e-10 2.04981e-11)
(1.08428e-10 1.94186e-10 2.75321e-11)
(4.02415e-11 1.28473e-10 2.07357e-11)
(-5.02043e-12 3.72008e-11 5.83622e-12)
(4.81094e-11 1.30738e-10 1.8693e-11)
(9.38974e-11 1.91974e-10 3.71397e-11)
(1.05375e-10 1.94284e-10 2.98368e-11)
(6.23128e-11 1.32467e-10 1.33676e-11)
(-2.5521e-12 3.7498e-11 4.6128e-12)
(5.32544e-11 1.30995e-10 1.56896e-11)
(2.51066e-10 6.47561e-10 4.81243e-11)
(2.40346e-10 6.41877e-10 6.76909e-11)
(1.95332e-10 7.45952e-10 1.11461e-10)
(1.51861e-10 1.0037e-09 1.0071e-10)
(2.01073e-10 7.5289e-10 8.01571e-11)
(2.30512e-10 6.36661e-10 1.03503e-10)
(2.37213e-10 6.40586e-10 7.56759e-11)
(2.13432e-10 7.62355e-10 4.96574e-11)
(1.56086e-10 1.01339e-09 7.85029e-11)
(2.0383e-10 7.55085e-10 7.13936e-11)
(2.5471e-10 6.49035e-10 4.24494e-11)
(2.65716e-10 6.56103e-10 2.9072e-11)
(2.38753e-10 7.83436e-10 1.54605e-11)
(1.7584e-10 1.04407e-09 2.48542e-11)
(2.29664e-10 7.74742e-10 2.48829e-11)
(2.79309e-10 6.66022e-10 1.63305e-11)
(2.69214e-10 6.57996e-10 2.50866e-11)
(2.16665e-10 7.64387e-10 4.36143e-11)
(1.71013e-10 1.03659e-09 3.40314e-11)
(2.26572e-10 7.72374e-10 2.8973e-11)
(1.24407e-10 1.9593e-10 1.85286e-11)
(1.37268e-10 1.98482e-10 1.26558e-11)
(8.99285e-11 1.369e-10 4.36401e-12)
(8.43815e-12 3.84304e-11 1.54145e-12)
(8.22117e-11 1.35021e-10 5.90801e-12)
(1.51853e-10 2.01837e-10 6.72364e-12)
(1.40317e-10 1.98784e-10 1.11933e-11)
(6.79293e-11 1.32746e-10 1.04102e-11)
(6.48466e-12 3.82093e-11 2.72135e-12)
(7.70684e-11 1.34502e-10 8.32922e-12)
(1.37567e-10 1.00631e-09 2.23925e-10)
(1.46584e-10 9.57859e-10 2.73382e-10)
(3.27201e-10 5.45997e-10 4.34107e-10)
(2.76114e-10 2.6864e-10 3.54188e-10)
(3.2082e-10 6.31132e-10 4.23395e-10)
(2.54344e-10 7.02136e-10 4.27117e-10)
(2.36616e-10 4.29263e-10 -4.21244e-12)
(3.34414e-10 3.90079e-10 -2.92857e-12)
(3.12803e-10 4.79459e-10 -3.76568e-12)
(2.63692e-10 3.40822e-10 -3.74657e-12)
(2.64929e-10 3.4183e-10 -3.10254e-12)
(3.14118e-10 4.804e-10 -3.72177e-12)
(2.35773e-10 4.28608e-10 -4.19336e-12)
(1.322e-10 5.33471e-10 -5.3045e-12)
(1.64546e-10 6.40671e-10 -7.2102e-12)
(2.08334e-10 7.62705e-10 -6.02084e-12)
(1.95896e-10 8.83959e-10 -5.86626e-12)
(1.33365e-10 5.35118e-10 -6.1987e-12)
(1.63487e-10 6.38804e-10 -5.32031e-12)
(2.07009e-10 7.60782e-10 -5.80548e-12)
(2.40864e-10 4.32365e-10 -4.1417e-12)
(3.38878e-10 3.9291e-10 -3.06263e-12)
(2.70516e-10 3.45228e-10 -3.0151e-12)
(3.19706e-10 4.84634e-10 -3.60912e-12)
(2.4172e-10 4.32921e-10 -4.14192e-12)
(2.69348e-10 3.44327e-10 -3.6527e-12)
(3.18321e-10 4.83593e-10 -3.63359e-12)
(1.31202e-10 5.32632e-10 -6.17333e-12)
(2.04341e-10 7.57737e-10 -5.80706e-12)
(1.94744e-10 8.82406e-10 -7.05187e-12)
(1.61578e-10 6.36288e-10 -5.31128e-12)
(1.62602e-10 6.37891e-10 -7.14648e-12)
(2.05683e-10 7.59355e-10 -5.92204e-12)
(1.30038e-10 5.31171e-10 -5.32103e-12)
(2.03295e-10 4.02426e-10 -1.00709e-12)
(2.95132e-10 3.63359e-10 1.99095e-12)
(2.74039e-10 4.4785e-10 1.49691e-12)
(2.2578e-10 3.16618e-10 8.29091e-13)
(2.28626e-10 3.18607e-10 7.56891e-13)
(2.77062e-10 4.49867e-10 8.01692e-13)
(2.0121e-10 4.01045e-10 -3.1973e-13)
(1.13149e-10 5.07619e-10 -5.67334e-12)
(1.47994e-10 6.13586e-10 -8.08034e-12)
(1.85219e-10 7.28809e-10 -5.73964e-12)
(1.74956e-10 8.45327e-10 -5.51252e-12)
(1.15229e-10 5.10628e-10 -6.82473e-12)
(1.46147e-10 6.10217e-10 -5.99705e-12)
(1.82783e-10 7.2524e-10 -5.07442e-12)
(2.11963e-10 4.08587e-10 -3.11589e-12)
(3.04538e-10 3.68923e-10 -9.92429e-13)
(2.39723e-10 3.24932e-10 -1.89976e-12)
(2.88225e-10 4.58173e-10 -2.20095e-12)
(2.13453e-10 4.09624e-10 -3.39556e-12)
(2.37681e-10 3.2338e-10 -2.18799e-12)
(2.85909e-10 4.56448e-10 -1.85667e-12)
(1.59077e-10 3.57635e-10 1.23701e-10)
(2.44779e-10 3.2455e-10 1.24782e-10)
(2.41191e-10 3.88803e-10 1.54379e-10)
(1.90594e-10 2.7769e-10 1.17209e-10)
(1.78544e-10 2.874e-10 1.09024e-10)
(2.31932e-10 4.0044e-10 1.41998e-10)
(1.70718e-10 3.47415e-10 1.33764e-10)
(1.30477e-10 3.74715e-10 8.17641e-11)
(2.12731e-10 3.33932e-10 8.30979e-11)
(1.48706e-10 2.95891e-10 6.78164e-11)
(1.99075e-10 4.16974e-10 8.5281e-11)
(1.29859e-10 3.74933e-10 7.46784e-11)
(1.48528e-10 2.9504e-10 7.30373e-11)
(1.98937e-10 4.15914e-10 9.31623e-11)
(2.09209e-10 6.74301e-10 -5.12266e-12)
(2.15634e-10 9.60812e-10 -7.41112e-12)
(2.1036e-10 6.76293e-10 -7.64833e-12)
(2.12523e-10 6.78924e-10 -7.53454e-12)
(2.16873e-10 9.62718e-10 -6.16221e-12)
(2.11363e-10 6.7734e-10 -5.00334e-12)
(2.47853e-10 4.37355e-10 -3.89357e-12)
(3.46899e-10 3.97864e-10 -2.64985e-12)
(3.27596e-10 4.90371e-10 -3.2752e-12)
(2.78355e-10 3.49632e-10 -2.65692e-12)
(2.4897e-10 4.3791e-10 -3.88719e-12)
(2.76872e-10 3.4863e-10 -3.32313e-12)
(3.25924e-10 4.89279e-10 -3.30406e-12)
(1.35624e-10 5.37951e-10 -6.14756e-12)
(1.65492e-10 6.41808e-10 -5.35417e-12)
(2.09688e-10 7.64544e-10 -5.90245e-12)
(1.99527e-10 8.90488e-10 -7.18847e-12)
(1.34385e-10 5.36146e-10 -5.31247e-12)
(1.66656e-10 6.43807e-10 -7.16179e-12)
(2.11122e-10 7.66721e-10 -6.01418e-12)
(2.43309e-10 4.34148e-10 -4.02481e-12)
(3.42143e-10 3.95099e-10 -2.71023e-12)
(2.71033e-10 3.45235e-10 -3.54966e-12)
(3.20114e-10 4.84984e-10 -3.57317e-12)
(2.42485e-10 4.33466e-10 -4.02479e-12)
(2.72238e-10 3.46228e-10 -2.88624e-12)
(3.21419e-10 4.85946e-10 -3.50774e-12)
(2.08274e-10 6.73126e-10 -7.6951e-12)
(2.12208e-10 9.54007e-10 -6.24599e-12)
(2.07246e-10 6.71197e-10 -5.10057e-12)
(2.11245e-10 9.52353e-10 -7.29138e-12)
(2.05482e-10 6.68603e-10 -5.08991e-12)
(2.06423e-10 6.70242e-10 -7.64082e-12)
(2.21091e-10 4.16263e-10 -4.25787e-12)
(3.15567e-10 3.7656e-10 -2.8932e-12)
(2.97927e-10 4.66583e-10 -3.63001e-12)
(2.48997e-10 3.31165e-10 -3.13473e-12)
(2.22008e-10 4.17022e-10 -4.34556e-12)
(2.47675e-10 3.30008e-10 -3.65472e-12)
(2.96335e-10 4.65265e-10 -3.52771e-12)
(1.18374e-10 5.14868e-10 -6.97229e-12)
(1.49394e-10 6.15343e-10 -6.37239e-12)
(1.87369e-10 7.31677e-10 -5.94298e-12)
(1.80511e-10 8.55702e-10 -7.66959e-12)
(1.16784e-10 5.12238e-10 -6.08505e-12)
(1.5085e-10 6.18271e-10 -8.18428e-12)
(1.89285e-10 7.34767e-10 -6.28348e-12)
(2.15956e-10 4.11589e-10 -3.72587e-12)
(3.09892e-10 3.72546e-10 -1.72324e-12)
(2.4058e-10 3.25006e-10 -2.70599e-12)
(2.88977e-10 4.58825e-10 -2.49583e-12)
(2.14696e-10 4.10523e-10 -3.50834e-12)
(2.42417e-10 3.26532e-10 -2.3152e-12)
(2.90979e-10 4.60355e-10 -2.69754e-12)
(1.19553e-10 5.16285e-10 -6.09459e-12)
(1.92501e-10 7.40029e-10 -6.43007e-12)
(1.53133e-10 6.22416e-10 -8.04397e-12)
(1.82004e-10 8.58426e-10 -6.53552e-12)
(1.51954e-10 6.19819e-10 -6.32784e-12)
(1.20807e-10 5.18601e-10 -6.89268e-12)
(1.90975e-10 7.37297e-10 -6.2613e-12)
(1.45972e-10 3.77071e-10 3.73099e-11)
(2.29073e-10 3.35713e-10 4.14519e-11)