/*--------------------------------*- C++ -*----------------------------------*\
| =========                 |                                                 |
| \\      /  F ield         | OpenFOAM: The Open Source CFD Toolbox           |
|  \\    /   O peration     | Version:  2012                                  |
|   \\  /    A nd           | Website:  www.openfoam.com                      |
|    \\/     M anipulation  |                                                 |
\*---------------------------------------------------------------------------*/
FoamFile
{
    version     2.0;
    format      ascii;
    class       volVectorField;
    location    "0.106/solid";
    object      D_0_0;
}
// * * * * * * * * * * * * * * * * * * * * * * * * * * * * * * * * * * * * * //

dimensions      [0 1 0 0 0 0 0];


internalField   nonuniform List<vector> 
3125
(
(5.97311e-11 2.21811e-10 -3.17446e-12)
(5.12498e-11 2.11321e-10 -4.16216e-12)
(3.29142e-11 1.87859e-10 3.53257e-11)
(6.07341e-11 2.22894e-10 -3.15845e-12)
(5.26468e-11 2.13147e-10 -4.15023e-12)
(3.19576e-11 1.93422e-10 2.30289e-11)
(6.5954e-11 2.27261e-10 -3.1804e-12)
(5.68383e-11 2.1869e-10 -3.5081e-12)
(4.42952e-11 2.04402e-10 -1.51295e-12)
(6.44126e-11 2.25841e-10 -3.13816e-12)
(5.58591e-11 2.1748e-10 -3.6688e-12)
(4.10183e-11 2.01746e-10 1.46855e-12)
(3.32545e-10 3.84004e-10 -2.92548e-12)
(4.44962e-11 1.47844e-10 -2.49349e-12)
(1.99465e-10 8.79086e-10 -6.75189e-12)
(5.8769e-11 2.20797e-10 -3.21074e-12)
(3.39717e-10 3.88666e-10 -2.49395e-12)
(1.96009e-10 8.73873e-10 -5.49964e-12)
(4.32513e-11 1.47005e-10 -2.60093e-12)
(2.91106e-10 3.56662e-10 2.52739e-12)
(3.39412e-11 1.39515e-10 -3.02396e-12)
(1.7861e-10 8.43046e-10 -7.04179e-12)
(4.94375e-11 2.09254e-10 -3.92331e-12)
(3.05509e-10 3.65839e-10 -1.10044e-12)
(1.71879e-10 8.31324e-10 -3.44267e-12)
(3.1596e-11 1.37887e-10 -2.82798e-12)
(2.53655e-10 3.10191e-10 1.34041e-10)
(1.83813e-12 1.24559e-10 2.29252e-11)
(1.33364e-10 7.53157e-10 1.26425e-10)
(4.22568e-11 1.72947e-10 4.98327e-11)
(2.12723e-10 3.30994e-10 7.5714e-11)
(1.69397e-10 6.58553e-10 2.276e-10)
(1.16247e-11 1.18033e-10 3.12789e-11)
(2.17728e-10 9.51233e-10 -5.84889e-12)
(2.21549e-10 9.57042e-10 -6.5187e-12)
(3.47865e-10 3.93384e-10 -1.88273e-12)
(6.18426e-11 2.23907e-10 -3.00971e-12)
(4.57141e-11 1.48691e-10 -2.49503e-12)
(2.00681e-10 8.81026e-10 -5.48983e-12)
(3.40168e-10 3.88778e-10 -2.62281e-12)
(2.04707e-10 8.86687e-10 -6.18189e-12)
(4.70759e-11 1.49529e-10 -2.3696e-12)
(2.16607e-10 9.49208e-10 -7.02598e-12)
(2.13497e-10 9.43701e-10 -5.84238e-12)
(1.99433e-10 9.14967e-10 -6.63949e-12)
(2.03617e-10 9.24221e-10 -7.95693e-12)
(3.15979e-10 3.73011e-10 -2.67254e-12)
(5.38044e-11 2.14753e-10 -4.00158e-12)
(3.56289e-11 1.40918e-10 -3.10361e-12)
(1.80441e-10 8.46105e-10 -6.14634e-12)
(3.06312e-10 3.66141e-10 -1.59549e-12)
(1.85032e-10 8.55099e-10 -7.6389e-12)
(3.69988e-11 1.4215e-10 -3.0371e-12)
(1.97862e-10 9.11862e-10 -7.4585e-12)
(1.9195e-10 8.9959e-10 -3.9071e-12)
(1.63893e-10 8.18295e-10 1.13814e-10)
(1.67476e-10 8.48855e-10 4.97296e-11)
(2.33881e-10 3.33291e-10 3.72444e-11)
(3.41232e-11 1.96504e-10 1.34363e-11)
(2.37618e-12 1.2678e-10 1.57698e-11)
(1.32284e-10 7.64245e-10 1.02443e-10)
(2.12054e-10 3.29781e-10 6.97452e-11)
(1.3942e-10 7.86123e-10 4.6345e-11)
(7.52873e-12 1.2825e-10 9.99875e-12)
(1.65777e-10 8.02309e-10 1.42962e-10)
(1.99676e-10 6.8002e-10 2.71812e-10)
(2.12946e-10 8.95714e-10 -5.28451e-12)
(5.20175e-11 1.52265e-10 -2.24925e-12)
(3.5888e-10 3.98976e-10 -9.49837e-13)
(2.45759e-10 1.15706e-09 -4.72435e-12)
(3.12414e-11 4.31688e-11 -8.09825e-13)
(2.70173e-11 4.21451e-11 -5.75315e-13)
(2.56213e-11 4.1778e-11 -1.17994e-12)
(2.31284e-10 1.13595e-09 -5.35129e-12)
(2.27546e-10 1.12983e-09 -5.17702e-12)
(3.32086e-10 3.83899e-10 -2.78481e-12)
(5.78067e-11 2.19793e-10 -3.31192e-12)
(1.91305e-10 8.66433e-10 -6.06466e-12)
(4.08e-11 1.45267e-10 -2.82376e-12)
(1.94828e-10 8.72423e-10 -6.87061e-12)
(3.24919e-10 3.79037e-10 -3.12895e-12)
(4.20224e-11 1.46164e-10 -2.64115e-12)
(2.22442e-10 1.12029e-09 -5.5933e-12)
(2.26282e-10 1.12793e-09 -5.47874e-12)
(2.39525e-11 4.12597e-11 -1.27189e-12)
(2.5368e-11 4.16585e-11 -6.5066e-13)
(2.04247e-11 3.9909e-11 -6.31491e-13)
(1.78559e-11 3.92942e-11 -8.6563e-13)
(2.08473e-10 1.09017e-09 -4.28145e-12)
(2.0102e-10 1.07521e-09 -6.73358e-13)
(2.89621e-10 3.56209e-10 3.55282e-12)
(4.71162e-11 2.06941e-10 -3.14021e-12)
(1.59196e-10 8.12709e-10 6.7759e-12)
(2.43962e-11 1.33998e-10 -7.79266e-13)
(1.69099e-10 8.27399e-10 -3.10977e-12)
(2.67794e-10 3.44575e-10 1.26236e-11)
(2.84415e-11 1.36036e-10 -2.11028e-12)
(1.8679e-10 1.05069e-09 1.18154e-11)
(1.97908e-10 1.06969e-09 1.12035e-12)
(1.22614e-11 3.831e-11 3.77899e-13)
(1.70724e-11 3.90724e-11 -1.45989e-13)
(-8.47261e-12 3.54844e-11 6.71217e-12)
(3.11928e-12 3.17124e-11 8.89104e-12)
(1.50301e-10 9.72451e-10 1.58113e-10)
(1.84418e-10 8.62466e-10 2.72766e-10)
(2.64231e-10 2.96683e-10 1.47369e-10)
(3.74922e-11 7.72259e-11 4.04075e-11)
(2.014e-10 5.97579e-10 2.70523e-10)
(8.5982e-12 4.80864e-11 1.26829e-11)
(2.20197e-10 7.91609e-10 3.12517e-10)
(1.55092e-11 3.00688e-11 9.97386e-12)
(2.28981e-10 9.66657e-10 -5.69318e-12)
(2.26943e-10 9.63397e-10 -6.87984e-12)
(2.22725e-10 9.57971e-10 -5.22682e-12)
(3.48571e-10 3.93504e-10 -1.94557e-12)
(6.30707e-11 2.24783e-10 -2.9756e-12)
(2.10937e-10 8.92436e-10 -6.49337e-12)
(5.0445e-11 1.51289e-10 -2.26934e-12)
(3.58319e-10 3.98963e-10 -9.5166e-13)
(2.06153e-10 8.87516e-10 -4.72163e-12)
(4.87207e-11 1.5037e-10 -2.36809e-12)
(2.72898e-11 4.22558e-11 -1.10685e-12)
(2.87831e-11 4.26106e-11 -4.76958e-13)
(2.32596e-10 1.13873e-09 -5.20696e-12)
(2.36981e-10 1.14636e-09 -4.79288e-12)
(2.43523e-10 1.15191e-09 -4.74855e-12)
(2.385e-10 1.14717e-09 -4.29533e-12)
(3.08456e-11 4.30841e-11 -3.08754e-13)
(2.90928e-11 4.27185e-11 -1.02199e-12)
(2.09197e-10 9.36001e-10 -6.40995e-12)
(2.12478e-10 9.42191e-10 -7.10341e-12)
(2.08152e-10 9.33914e-10 -7.67609e-12)
(2.04792e-10 9.26587e-10 -6.77826e-12)
(3.1651e-10 3.73203e-10 -2.93007e-12)
(5.4856e-11 2.16178e-10 -3.85066e-12)
(1.90103e-10 8.6445e-10 -7.41236e-12)
(3.95596e-11 1.443e-10 -2.89433e-12)
(3.24446e-10 3.78872e-10 -2.95854e-12)
(1.86395e-10 8.57391e-10 -6.37837e-12)
(3.82825e-11 1.43263e-10 -3.03294e-12)
(2.06464e-11 4.00651e-11 -1.19735e-12)
(2.19862e-11 4.05306e-11 -7.65926e-13)
(2.10493e-10 1.09435e-09 -4.66621e-12)
(2.15599e-10 1.10569e-09 -5.65321e-12)
(2.2116e-10 1.11755e-09 -5.80361e-12)
(2.17085e-10 1.10881e-09 -5.56211e-12)
(2.36875e-11 4.11272e-11 -7.55439e-13)
(2.22055e-11 4.06737e-11 -1.30789e-12)
(1.71005e-10 1.1629e-09 -1.43043e-12)
(1.81578e-10 8.79936e-10 6.66974e-12)
(1.89636e-10 8.95604e-10 -3.47371e-12)
(1.60202e-10 1.13734e-09 1.15136e-11)
(1.68534e-10 1.15698e-09 4.22215e-13)
(1.78729e-10 8.74685e-10 1.05808e-11)
(1.69955e-10 8.55496e-10 3.74922e-11)
(1.37143e-10 1.05336e-09 1.40761e-10)
(1.43847e-10 1.09511e-09 6.38143e-11)
(1.57007e-10 1.13011e-09 1.73366e-11)
(1.47184e-10 1.10454e-09 4.79205e-11)
(2.36723e-10 3.33123e-10 3.34998e-11)
(3.74728e-11 1.99098e-10 6.28469e-12)
(1.55386e-10 8.07942e-10 1.03263e-11)
(1.94323e-11 1.31897e-10 1.58665e-12)
(2.65391e-10 3.44075e-10 1.46983e-11)
(1.43366e-10 7.91357e-10 3.54764e-11)
(1.36413e-11 1.29914e-10 5.12706e-12)
(-8.22585e-12 3.61736e-11 5.80206e-12)
(7.98451e-13 3.71488e-11 4.2892e-12)
(1.50929e-10 9.86185e-10 1.26708e-10)
(1.6298e-10 1.01484e-09 5.9762e-11)
(1.82448e-10 1.04406e-09 1.73225e-11)
(1.68045e-10 1.02213e-09 4.55021e-11)
(1.08035e-11 3.8081e-11 1.41294e-12)
(3.15806e-12 3.73492e-11 2.96653e-12)
(1.37274e-10 1.03183e-09 1.78286e-10)
(1.68608e-10 8.8181e-10 3.22267e-10)
(6.20929e-11 7.52783e-11 5.49076e-11)
(2.32185e-10 6.07185e-10 3.275e-10)
(2.02706e-10 7.94307e-10 3.73523e-10)
(1.35458e-10 1.84176e-10 1.66978e-10)
(3.62326e-11 1.17213e-11 5.96084e-11)
(2.05074e-10 1.9265e-10 2.67792e-10)
(1.94556e-11 1.69439e-11 3.24042e-11)
(4.32566e-11 7.36897e-12 7.26508e-11)
(2.36531e-10 1.813e-10 3.09163e-10)
(1.43623e-10 4.35179e-10 -4.92328e-12)
(3.35928e-10 3.86281e-10 -2.64634e-12)
(2.29826e-10 5.77251e-10 -4.28829e-12)
(1.80938e-10 3.0191e-10 -4.03395e-12)
(1.82618e-10 3.0302e-10 -3.59668e-12)
(2.31416e-10 5.78687e-10 -5.00414e-12)
(1.42263e-10 4.33935e-10 -4.70802e-12)
(1.4482e-10 4.35934e-10 -4.58961e-12)
(3.36414e-10 3.86409e-10 -2.78367e-12)
(1.85619e-10 3.04801e-10 -3.4435e-12)
(2.34487e-10 5.8146e-10 -4.91242e-12)
(1.46118e-10 4.37301e-10 -4.81655e-12)
(1.83987e-10 3.03654e-10 -3.90009e-12)
(2.32955e-10 5.79902e-10 -4.16487e-12)
(1.19553e-10 4.11921e-10 -4.51769e-12)
(2.9846e-10 3.61344e-10 6.78039e-13)
(1.97693e-10 5.43911e-10 -1.07126e-12)
(1.50161e-10 2.82144e-10 -2.04404e-12)
(1.53843e-10 2.84471e-10 -2.45075e-12)
(2.01167e-10 5.47296e-10 -2.97062e-12)
(1.16588e-10 4.09083e-10 -3.48337e-12)
(1.21873e-10 4.13571e-10 -4.70215e-12)
(2.99581e-10 3.61734e-10 -2.86419e-14)
(1.59305e-10 2.87776e-10 -3.36213e-12)
(2.0694e-10 5.53049e-10 -4.41425e-12)
(1.24113e-10 4.16132e-10 -5.29448e-12)
(1.56503e-10 2.85711e-10 -3.36022e-12)
(2.04198e-10 5.50049e-10 -3.05437e-12)
(7.49031e-11 3.71642e-10 9.48126e-11)
(2.26735e-10 3.2924e-10 1.03702e-10)
(1.7199e-10 4.70091e-10 1.60998e-10)
(1.02485e-10 2.46154e-10 8.88789e-11)
(8.44651e-11 2.57557e-10 7.41488e-11)
(1.51872e-10 4.91744e-10 1.35353e-10)
(9.39543e-11 3.51969e-10 1.16032e-10)
(6.64497e-11 3.77639e-10 8.0631e-11)
(2.19148e-10 3.28893e-10 9.56652e-11)
(7.88914e-11 2.6383e-10 5.3539e-11)
(1.34129e-10 5.05893e-10 9.48223e-11)
(6.29675e-11 3.8297e-10 6.59519e-11)
(7.8419e-11 2.60468e-10 6.31358e-11)
(1.39413e-10 5.0094e-10 1.14859e-10)
(1.49986e-10 4.40385e-10 -4.31624e-12)
(3.43965e-10 3.91016e-10 -2.34122e-12)
(2.41044e-10 5.87332e-10 -4.4461e-12)
(1.92042e-10 3.08256e-10 -3.14211e-12)
(1.51596e-10 4.41625e-10 -4.5133e-12)
(1.90072e-10 3.07103e-10 -3.57173e-12)
(2.39161e-10 5.85921e-10 -3.83472e-12)
(1.48671e-10 4.39559e-10 -4.68591e-12)
(3.43469e-10 3.9093e-10 -2.25663e-12)
(1.8695e-10 3.05416e-10 -3.74799e-12)
(2.35967e-10 5.82862e-10 -4.06424e-12)
(1.47298e-10 4.38147e-10 -4.49131e-12)
(1.88616e-10 3.06504e-10 -3.28415e-12)
(2.3752e-10 5.84543e-10 -4.77158e-12)
(1.29143e-10 4.21089e-10 -5.39161e-12)
(3.11786e-10 3.69901e-10 -2.47862e-12)
(2.154e-10 5.6246e-10 -5.45731e-12)
(1.67077e-10 2.93161e-10 -4.02318e-12)
(1.30656e-10 4.23064e-10 -5.66132e-12)
(1.65161e-10 2.91567e-10 -4.34499e-12)
(2.1351e-10 5.60163e-10 -4.58212e-12)
(1.27677e-10 4.19804e-10 -5.60456e-12)
(3.1116e-10 3.69656e-10 -2.13308e-12)
(1.61304e-10 2.88853e-10 -4.03117e-12)
(2.09322e-10 5.55438e-10 -4.08758e-12)
(1.25884e-10 4.1758e-10 -5.23121e-12)
(1.63521e-10 2.90627e-10 -3.82942e-12)
(2.11531e-10 5.58059e-10 -5.15101e-12)
(7.04583e-11 3.85786e-10 3.59768e-11)
(2.21473e-10 3.30212e-10 4.94497e-11)
(1.48312e-10 5.12712e-10 3.96134e-11)
(9.98813e-11 2.65655e-10 2.48849e-11)
(7.57779e-11 3.87709e-10 2.69122e-11)
(9.28491e-11 2.64513e-10 3.11961e-11)
(1.4221e-10 5.10264e-10 5.12947e-11)
(6.64382e-11 3.85185e-10 4.40524e-11)
(2.19479e-10 3.31053e-10 5.42164e-11)
(8.18461e-11 2.63758e-10 4.54197e-11)
(1.34017e-10 5.07183e-10 7.88352e-11)
(6.3425e-11 3.83544e-10 5.55654e-11)
(8.72445e-11 2.64579e-10 3.79401e-11)
(1.3721e-10 5.08788e-10 6.31831e-11)
(1.64311e-10 4.50225e-10 -3.27399e-12)
(3.64022e-10 4.01128e-10 2.81057e-13)
(2.56447e-10 5.99464e-10 -2.05652e-12)
(2.06415e-10 3.1467e-10 -2.14865e-12)
(1.62082e-10 4.49042e-10 -3.82634e-12)
(3.63143e-10 4.01104e-10 5.11148e-14)
(2.5157e-10 5.94744e-10 -3.013e-12)
(2.01914e-10 3.12831e-10 -2.59153e-12)
(2.53707e-10 5.97378e-10 -3.4769e-12)
(2.04061e-10 3.13981e-10 -1.96326e-12)
(1.60129e-10 4.46994e-10 -3.78263e-12)
(3.70034e-10 7.50883e-10 -1.61979e-12)
(2.4838e-10 1.16307e-09 -4.5945e-12)
(3.15962e-10 8.6743e-10 -3.47072e-12)
(3.20175e-10 8.74901e-10 -2.68502e-12)
(2.51206e-10 1.16788e-09 -3.36648e-12)
(3.21722e-10 8.76881e-10 -2.54045e-12)
(3.6399e-10 7.43156e-10 -2.49486e-12)
(3.68365e-10 7.4927e-10 -1.5237e-12)
(2.38589e-10 2.32574e-10 -7.0118e-13)
(1.56763e-10 1.5809e-10 -1.37859e-12)
(3.21712e-11 4.32719e-11 -2.304e-13)
(1.59326e-10 1.58628e-10 -1.07532e-12)
(2.3392e-10 2.31527e-10 -1.33133e-12)
(2.37557e-10 2.32449e-10 -1.25561e-12)
(3.2694e-11 4.33606e-11 -6.51955e-13)
(1.60844e-10 1.58795e-10 -9.76955e-13)
(2.10709e-10 2.22401e-10 -2.7424e-12)
(2.1361e-10 2.23669e-10 -3.00823e-12)
(1.42963e-10 1.53416e-10 -2.06698e-12)
(2.66016e-11 4.20407e-11 -1.10608e-12)
(1.415e-10 1.52732e-10 -2.29825e-12)
(2.16892e-10 2.25139e-10 -2.86682e-12)
(2.14213e-10 2.23882e-10 -2.62893e-12)
(1.38394e-10 1.51653e-10 -2.43096e-12)
(2.63248e-11 4.19254e-11 -6.66506e-13)
(1.40587e-10 1.52373e-10 -2.22512e-12)
(3.40516e-10 7.22553e-10 -4.20961e-12)
(3.43071e-10 7.2512e-10 -3.72503e-12)
(2.99834e-10 8.51797e-10 -4.34081e-12)
(2.30054e-10 1.13343e-09 -5.14983e-12)
(2.97544e-10 8.48737e-10 -4.58291e-12)
(3.46419e-10 7.28509e-10 -3.59732e-12)
(3.43886e-10 7.25638e-10 -4.06335e-12)
(2.94474e-10 8.45608e-10 -4.71513e-12)
(2.2883e-10 1.13157e-09 -5.24881e-12)
(2.96798e-10 8.48124e-10 -4.39407e-12)
(1.39783e-10 4.3181e-10 -4.88834e-12)
(2.28306e-10 5.76036e-10 -5.15711e-12)
(3.28767e-10 3.81602e-10 -3.04966e-12)
(1.79598e-10 3.01298e-10 -3.6953e-12)
(1.41074e-10 4.33176e-10 -5.04468e-12)
(2.26766e-10 5.74461e-10 -4.48491e-12)
(1.77975e-10 3.00132e-10 -4.16953e-12)
(1.38595e-10 4.30952e-10 -5.26957e-12)
(3.28315e-10 3.81468e-10 -2.90344e-12)
(2.23704e-10 5.71313e-10 -4.663e-12)
(1.74963e-10 2.98256e-10 -4.35602e-12)
(2.25261e-10 5.73056e-10 -5.36275e-12)
(1.7664e-10 2.99483e-10 -3.87561e-12)
(1.37258e-10 4.29467e-10 -5.12103e-12)
(3.39693e-10 7.21991e-10 -3.86623e-12)
(3.37143e-10 7.19107e-10 -4.35306e-12)
(2.23757e-10 1.12295e-09 -5.6809e-12)
(2.88252e-10 8.37478e-10 -5.01862e-12)
(2.90637e-10 8.40978e-10 -4.72938e-12)
(2.93716e-10 8.44923e-10 -4.54432e-12)
(2.25035e-10 1.12551e-09 -5.47747e-12)
(2.91405e-10 8.41892e-10 -4.90537e-12)
(3.3367e-10 7.15134e-10 -4.42938e-12)
(3.36297e-10 7.18402e-10 -4.00404e-12)
(2.10128e-10 2.22199e-10 -3.10192e-12)
(2.07464e-10 2.20938e-10 -2.87138e-12)
(1.32908e-10 1.49486e-10 -2.66254e-12)
(2.46802e-11 4.14185e-11 -7.5454e-13)
(1.35142e-10 1.50246e-10 -2.42934e-12)
(2.03935e-10 2.19373e-10 -3.01688e-12)
(2.06877e-10 2.20724e-10 -3.24376e-12)
(1.37546e-10 1.51302e-10 -2.25625e-12)
(2.49566e-11 4.15484e-11 -1.17853e-12)
(1.36039e-10 1.50609e-10 -2.49442e-12)
(1.75535e-10 2.06353e-10 -3.19994e-13)
(1.8185e-10 2.08888e-10 -1.71105e-12)
(1.20071e-10 1.43713e-10 -1.98524e-12)
(1.97161e-11 3.97324e-11 -1.06377e-12)
(1.1739e-10 1.42559e-10 -1.99547e-12)
(1.87634e-10 2.1145e-10 -2.59193e-12)
(1.83023e-10 2.09284e-10 -1.69773e-12)
(1.1128e-10 1.40534e-10 -1.25319e-12)
(1.92028e-11 3.9537e-11 -5.28202e-13)
(1.15646e-10 1.41948e-10 -1.48001e-12)
(3.03304e-10 6.80394e-10 1.49203e-12)
(3.09151e-10 6.86815e-10 -3.79294e-13)
(2.71927e-10 8.14151e-10 -3.27578e-12)
(2.0627e-10 1.08544e-09 -3.37829e-12)
(2.67699e-10 8.08112e-10 -2.2769e-12)
(3.15544e-10 6.93893e-10 -2.22318e-12)
(3.10844e-10 6.88268e-10 -1.30658e-12)
(2.60899e-10 7.99555e-10 4.52257e-13)
(2.03792e-10 1.08053e-09 -2.33785e-12)
(2.66179e-10 8.06405e-10 -1.53665e-12)
(1.09885e-10 4.04074e-10 -1.04642e-12)
(1.93881e-10 5.4083e-10 -3.2357e-13)
(2.80575e-10 3.5087e-10 6.56117e-12)
(1.46683e-10 2.80764e-10 -6.68622e-13)
(1.136e-10 4.0726e-10 -2.80508e-12)
(1.89545e-10 5.37019e-10 2.40719e-12)
(1.42034e-10 2.78145e-10 3.69494e-13)
(1.0615e-10 4.02083e-10 3.70777e-13)
(2.78622e-10 3.50319e-10 8.02871e-12)
(1.79548e-10 5.29511e-10 8.2324e-12)
(1.31924e-10 2.73887e-10 4.366e-12)
(1.84815e-10 5.33567e-10 4.18581e-12)
(1.37642e-10 2.7662e-10 2.38896e-12)
(1.01564e-10 3.98733e-10 3.26791e-12)
(3.01204e-10 6.78814e-10 2.79434e-12)
(2.94028e-10 6.71531e-10 6.10015e-12)
(1.90853e-10 1.05722e-09 7.19906e-12)
(2.42424e-10 7.7927e-10 1.26825e-11)
(2.50228e-10 7.8764e-10 6.81691e-12)
(2.59006e-10 7.97631e-10 1.58454e-12)
(1.94562e-10 1.06357e-09 3.86171e-12)
(2.52539e-10 7.8989e-10 5.07003e-12)
(2.82805e-10 6.61822e-10 1.34833e-11)
(2.91439e-10 6.69725e-10 7.97306e-12)
(1.73953e-10 2.05924e-10 -9.67651e-14)
(1.66079e-10 2.03048e-10 2.03267e-12)
(9.37566e-11 1.35725e-10 2.46882e-12)
(1.44268e-11 3.85891e-11 4.28e-13)
(1.0053e-10 1.37531e-10 1.46053e-12)
(1.54208e-10 1.99526e-10 5.71195e-12)
(1.6403e-10 2.02596e-10 2.56452e-12)
(1.0887e-10 1.39855e-10 -3.49516e-13)
(1.55424e-11 3.88252e-11 -3.66834e-13)
(1.03812e-10 1.38221e-10 2.0153e-13)
(1.04718e-10 1.67034e-10 6.63328e-11)
(8.18023e-11 1.78219e-10 5.07293e-11)
(3.84511e-11 1.24098e-10 2.27041e-11)
(-8.73747e-12 3.42985e-11 6.71493e-12)
(3.47931e-11 1.17456e-10 2.47641e-11)
(9.14351e-11 1.88718e-10 3.89052e-11)
(8.17383e-11 1.81196e-10 4.70798e-11)
(5.29252e-11 1.03269e-10 3.40786e-11)
(-3.97059e-12 3.26993e-11 7.80885e-12)
(3.95931e-11 1.09366e-10 2.82229e-11)
(2.69764e-10 5.76162e-10 2.08463e-10)
(2.40936e-10 6.14971e-10 1.6364e-10)
(1.95769e-10 7.37554e-10 1.22163e-10)
(1.53768e-10 9.5047e-10 1.93671e-10)
(2.01919e-10 7.21927e-10 1.6264e-10)
(2.30371e-10 6.30046e-10 1.13038e-10)
(2.35782e-10 6.2056e-10 1.49563e-10)
(2.37881e-10 6.634e-10 2.26018e-10)
(1.64025e-10 9.15666e-10 2.32534e-10)
(2.07043e-10 7.12988e-10 1.78011e-10)
(1.506e-10 2.87663e-10 1.67366e-10)
(1.99723e-10 4.32438e-10 1.9116e-10)
(3.21225e-10 2.47573e-10 1.96049e-10)
(1.26761e-10 2.34355e-10 1.06083e-10)
(1.16921e-10 3.21015e-10 1.37341e-10)
(2.42255e-10 3.9137e-10 2.37627e-10)
(1.60832e-10 2.1072e-10 1.30254e-10)
(1.73991e-10 2.54357e-10 1.98128e-10)
(3.12409e-10 5.43394e-10 3.92279e-10)
(2.98724e-10 4.65574e-10 3.12696e-10)
(2.44105e-10 2.76067e-10 3.04852e-10)
(1.22954e-10 1.71783e-10 1.46706e-10)
(1.12571e-11 1.35586e-11 1.71996e-11)
(1.25485e-10 1.12765e-10 9.19181e-11)
(1.56724e-11 1.71667e-11 2.78591e-11)
(1.63682e-10 2.32917e-10 1.73515e-10)
(3.63943e-10 2.47451e-10 2.08491e-10)
(3.07388e-10 4.13081e-10 2.95001e-10)
(1.74384e-10 1.45659e-10 1.13985e-10)
(2.83303e-10 5.55342e-10 2.25972e-10)
(3.48171e-10 4.74318e-10 2.9117e-10)
(3.18561e-10 6.26452e-10 3.85508e-10)
(3.46262e-10 5.32316e-10 3.29374e-10)
(2.53292e-10 6.40165e-10 2.44446e-10)
(2.76293e-10 7.03765e-10 3.49225e-10)
(3.23704e-10 5.51446e-10 3.0872e-10)
(3.74416e-10 4.57928e-10 3.11528e-10)
(1.19324e-10 1.61245e-10 7.14363e-11)
(1.71372e-10 1.28513e-10 9.41337e-11)
(1.1878e-11 1.12185e-11 1.72379e-11)
(1.38995e-10 8.92523e-11 8.08808e-11)
(1.9588e-10 1.12299e-10 9.98151e-11)
(7.54503e-11 9.85114e-11 3.97391e-11)
(2.2877e-11 2.47344e-11 1.55371e-11)
(9.55377e-11 8.34392e-11 4.82659e-11)
(1.55116e-10 4.4334e-10 -4.41577e-12)
(3.53232e-10 3.96275e-10 -1.45791e-12)
(2.43098e-10 5.88293e-10 -3.48506e-12)
(1.93857e-10 3.08937e-10 -3.46099e-12)
(1.53183e-10 4.42235e-10 -4.17806e-12)
(2.45373e-10 5.89489e-10 -4.14396e-12)
(1.96222e-10 3.10193e-10 -3.00938e-12)
(1.56797e-10 4.44076e-10 -4.04851e-12)
(3.5403e-10 3.96435e-10 -1.52432e-12)
(2.49635e-10 5.92562e-10 -3.98593e-12)
(2.00273e-10 3.12232e-10 -2.52037e-12)
(1.58559e-10 4.45726e-10 -4.21976e-12)
(2.4757e-10 5.90634e-10 -3.25182e-12)
(1.98161e-10 3.10954e-10 -3.16804e-12)
(2.24184e-10 2.27988e-10 -2.51712e-12)
(2.2102e-10 2.26686e-10 -2.27899e-12)
(1.43782e-10 1.53746e-10 -2.22459e-12)
(2.80157e-11 4.23929e-11 -5.76227e-13)
(1.4595e-10 1.54411e-10 -2.00184e-12)
(2.17477e-10 2.25336e-10 -2.48302e-12)
(2.20373e-10 2.26504e-10 -2.69273e-12)
(1.4872e-10 1.55453e-10 -1.82325e-12)
(2.83233e-11 4.25038e-11 -1.0117e-12)
(1.46938e-10 1.54715e-10 -2.039e-12)
(3.53841e-10 7.3585e-10 -3.10423e-12)
(3.50897e-10 7.33369e-10 -3.75717e-12)
(3.00603e-10 8.52745e-10 -4.53307e-12)
(2.3403e-10 1.14169e-09 -5.31138e-12)
(3.03099e-10 8.56492e-10 -4.20172e-12)
(3.47265e-10 7.29246e-10 -3.93896e-12)
(3.4996e-10 7.32579e-10 -3.43473e-12)
(3.06648e-10 8.59984e-10 -3.76725e-12)
(2.35509e-10 1.14444e-09 -4.99137e-12)
(3.03955e-10 8.57511e-10 -4.34863e-12)
(3.54853e-10 7.36153e-10 -3.39099e-12)
(3.58103e-10 7.37859e-10 -2.67811e-12)
(3.14764e-10 8.6563e-10 -3.33056e-12)
(2.41665e-10 1.14856e-09 -4.28392e-12)
(3.115e-10 8.61546e-10 -3.53312e-12)
(3.62713e-10 7.41775e-10 -2.2566e-12)
(3.59167e-10 7.37989e-10 -2.93154e-12)
(3.07581e-10 8.60312e-10 -3.88084e-12)
(2.40066e-10 1.14754e-09 -4.26822e-12)
(3.10507e-10 8.61341e-10 -3.37392e-12)
(2.24981e-10 2.28219e-10 -2.10941e-12)
(2.28909e-10 2.29798e-10 -2.32506e-12)
(1.55829e-10 1.57924e-10 -1.37036e-12)
(3.02899e-11 4.29859e-11 -9.17257e-13)
(1.53981e-10 1.57194e-10 -1.72687e-12)
(2.332e-10 2.31399e-10 -1.84644e-12)
(2.29781e-10 2.30068e-10 -1.86356e-12)
(1.49902e-10 1.5585e-10 -1.9707e-12)
(2.99084e-11 4.28718e-11 -4.80106e-13)
(1.5266e-10 1.56746e-10 -1.7353e-12)
(1.33433e-10 4.25899e-10 -5.61742e-12)
(3.20345e-10 3.76026e-10 -2.90694e-12)
(2.17149e-10 5.64261e-10 -4.75744e-12)
(1.6857e-10 2.93989e-10 -4.48272e-12)
(1.31977e-10 4.24164e-10 -5.39876e-12)
(2.18891e-10 5.66279e-10 -5.55424e-12)
(1.70401e-10 2.95409e-10 -4.0975e-12)
(1.34695e-10 4.26903e-10 -5.29254e-12)
(3.20854e-10 3.76216e-10 -3.10468e-12)
(2.2216e-10 5.69796e-10 -5.50402e-12)
(1.73579e-10 2.97545e-10 -4.01612e-12)
(1.36047e-10 4.28531e-10 -5.46715e-12)
(2.20534e-10 5.67919e-10 -4.77171e-12)
(1.71846e-10 2.96184e-10 -4.46271e-12)
(1.95999e-10 2.1559e-10 -3.31525e-12)
(1.9286e-10 2.13945e-10 -2.85131e-12)
(1.21084e-10 1.44237e-10 -2.40779e-12)
(2.13537e-11 4.02376e-11 -7.57089e-13)
(1.23582e-10 1.45207e-10 -2.33894e-12)
(1.88456e-10 2.118e-10 -2.45254e-12)
(1.92181e-10 2.13635e-10 -3.07889e-12)
(1.2623e-10 1.46561e-10 -2.46456e-12)
(2.15421e-11 4.03855e-11 -1.22996e-12)
(1.24472e-10 1.45682e-10 -2.58528e-12)
(3.25186e-10 7.0542e-10 -3.79061e-12)
(3.21901e-10 7.01156e-10 -3.81198e-12)
(2.73151e-10 8.15641e-10 -3.77404e-12)
(2.12361e-10 1.09831e-09 -5.21221e-12)
(2.76633e-10 8.20895e-10 -4.21427e-12)
(3.16904e-10 6.9513e-10 -2.91486e-12)
(3.20757e-10 7.00079e-10 -3.27056e-12)
(2.80611e-10 8.26799e-10 -4.64676e-12)
(2.14049e-10 1.10206e-09 -5.37332e-12)
(2.77662e-10 8.22233e-10 -4.56902e-12)
(3.26184e-10 7.06348e-10 -4.24368e-12)
(3.29154e-10 7.1009e-10 -4.02316e-12)
(2.87471e-10 8.36539e-10 -4.82356e-12)
(2.19877e-10 1.11457e-09 -5.67314e-12)
(2.85019e-10 8.32833e-10 -5.04043e-12)
(3.3281e-10 7.14376e-10 -4.06231e-12)
(3.3007e-10 7.10916e-10 -4.41771e-12)
(2.8151e-10 8.27915e-10 -4.91643e-12)
(2.18531e-10 1.11174e-09 -5.75477e-12)
(2.84193e-10 8.31859e-10 -4.81672e-12)
(1.96628e-10 2.15864e-10 -3.04727e-12)
(1.99814e-10 2.17406e-10 -3.4056e-12)
(1.32053e-10 1.49088e-10 -2.4808e-12)
(2.32211e-11 4.09941e-11 -1.2649e-12)
(1.30381e-10 1.48289e-10 -2.69655e-12)
(2.03334e-10 2.19133e-10 -3.35786e-12)
(2.00441e-10 2.17664e-10 -3.08279e-12)
(1.27078e-10 1.47004e-10 -2.73548e-12)
(2.29431e-11 4.08425e-11 -8.27503e-13)
(1.2943e-10 1.4785e-10 -2.57521e-12)
(1.63287e-10 1.14426e-09 6.68394e-12)
(1.66032e-10 1.15082e-09 3.16716e-12)
(1.38574e-10 1.06996e-09 1.09225e-10)
(1.40899e-10 1.08371e-09 8.39948e-11)
(1.53825e-10 1.12206e-09 2.51392e-11)
(1.50567e-10 1.11343e-09 3.50052e-11)
(8.67091e-11 3.91653e-10 1.4338e-11)
(2.50112e-10 3.38018e-10 2.42347e-11)
(1.54794e-10 5.15215e-10 3.13362e-11)
(1.06351e-10 2.6637e-10 1.94053e-11)
(8.09012e-11 3.88943e-10 2.0962e-11)
(1.61422e-10 5.18616e-10 2.28716e-11)
(1.13699e-10 2.68435e-10 1.46557e-11)
(9.17616e-11 3.93462e-10 1.02957e-11)
(2.52913e-10 3.38318e-10 2.13967e-11)
(1.73916e-10 5.25969e-10 1.153e-11)
(1.26571e-10 2.72363e-10 7.32032e-12)
(9.71004e-11 3.96722e-10 5.79802e-12)
(1.67794e-10 5.21955e-10 1.7416e-11)
(1.19874e-10 2.69726e-10 1.05426e-11)
(1.20988e-10 1.93233e-10 2.02587e-11)
(1.08313e-10 1.91614e-10 2.71724e-11)
(3.99372e-11 1.26716e-10 2.03639e-11)
(-5.17737e-12 3.66105e-11 5.73847e-12)
(4.78438e-11 1.2899e-10 1.8403e-11)
(9.37008e-11 1.89424e-10 3.65487e-11)
(1.05247e-10 1.91723e-10 2.94268e-11)
(6.20792e-11 1.30694e-10 1.31987e-11)
(-2.69909e-12 3.69054e-11 4.54037e-12)
(5.30138e-11 1.29241e-10 1.54668e-11)
(2.51609e-10 6.41678e-10 4.76096e-11)
(2.4092e-10 6.36112e-10 6.69264e-11)
(1.96392e-10 7.40157e-10 1.10204e-10)
(1.53885e-10 9.96998e-10 9.96898e-11)
(2.02117e-10 7.46864e-10 7.92766e-11)
(2.31126e-10 6.31142e-10 1.02277e-10)
(2.3779e-10 6.34882e-10 7.48121e-11)
(2.14457e-10 7.56163e-10 4.91357e-11)
(1.58125e-10 1.00653e-09 7.77029e-11)
(2.04875e-10 7.49032e-10 7.06209e-11)
(2.55247e-10 6.43142e-10 4.2002e-11)
(2.66227e-10 6.50121e-10 2.87907e-11)
(2.39697e-10 7.77034e-10 1.5344e-11)
(1.77866e-10 1.03685e-09 2.46389e-11)
(2.30655e-10 7.68393e-10 2.46547e-11)
(2.79757e-10 6.59988e-10 1.62065e-11)
(2.69708e-10 6.52018e-10 2.48576e-11)
(2.17684e-10 7.58172e-10 4.31655e-11)
(1.7305e-10 1.02944e-09 3.37152e-11)
(2.27574e-10 7.66084e-10 2.86923e-11)
(1.24289e-10 1.933e-10 1.8322e-11)
(1.37132e-10 1.95803e-10 1.25278e-11)
(8.96583e-11 1.35064e-10 4.32675e-12)
(8.30863e-12 3.78243e-11 1.5244e-12)
(8.19683e-11 1.33199e-10 5.84719e-12)
(1.51658e-10 1.99108e-10 6.66901e-12)
(1.40172e-10 1.96089e-10 1.10874e-11)
(6.76973e-11 1.30955e-10 1.02854e-11)
(6.35362e-12 3.76064e-11 2.69325e-12)
(7.68305e-11 1.32692e-10 8.23908e-12)
(1.40697e-10 9.99333e-10 2.21707e-10)
(1.49769e-10 9.51265e-10 2.70489e-10)
(3.29024e-10 5.41541e-10 4.28899e-10)
(2.7729e-10 2.66409e-10 3.50371e-10)
(3.22665e-10 6.24699e-10 4.18414e-10)
(2.57148e-10 6.94142e-10 4.22546e-10)
(2.36821e-10 4.24317e-10 -3.91097e-12)
(3.33898e-10 3.8502e-10 -2.64832e-12)
(3.12688e-10 4.73945e-10 -3.47955e-12)
(2.63457e-10 3.36319e-10 -3.47289e-12)
(2.64683e-10 3.373e-10 -2.81901e-12)
(3.13992e-10 4.74853e-10 -3.42273e-12)
(2.3598e-10 4.23699e-10 -3.90426e-12)
(1.33695e-10 5.28605e-10 -4.93982e-12)
(1.66697e-10 6.3536e-10 -6.79268e-12)
(2.09868e-10 7.56057e-10 -5.57453e-12)
(1.98323e-10 8.7703e-10 -5.46326e-12)
(1.34848e-10 5.30181e-10 -5.78975e-12)
(1.6563e-10 6.33572e-10 -4.95071e-12)
(2.0855e-10 7.54214e-10 -5.40245e-12)
(2.41017e-10 4.27265e-10 -3.76561e-12)
(3.38292e-10 3.8769e-10 -2.72308e-12)
(2.70178e-10 3.40512e-10 -2.65501e-12)
(3.19503e-10 4.78876e-10 -3.22456e-12)
(2.41853e-10 4.27794e-10 -3.7496e-12)
(2.69033e-10 3.39653e-10 -3.30638e-12)
(3.18139e-10 4.77874e-10 -3.26663e-12)
(1.32698e-10 5.27809e-10 -5.83471e-12)
(2.05877e-10 7.51309e-10 -5.47991e-12)
(1.97162e-10 8.75538e-10 -6.67936e-12)
(1.63702e-10 6.31164e-10 -5.01403e-12)
(1.64738e-10 6.32696e-10 -6.80429e-12)
(2.07228e-10 7.52852e-10 -5.55243e-12)
(1.31524e-10 5.26417e-10 -5.02293e-12)
(2.0296e-10 3.97966e-10 -8.83242e-13)
(2.9416e-10 3.58725e-10 2.04212e-12)
(2.73514e-10 4.42858e-10 1.57144e-12)
(2.25101e-10 3.1249e-10 8.94298e-13)
(2.27857e-10 3.14447e-10 8.35654e-13)
(2.76456e-10 4.44848e-10 8.91781e-13)
(2.0095e-10 3.96599e-10 -2.12842e-13)
(1.13915e-10 5.03311e-10 -5.47615e-12)
(1.49403e-10 6.08895e-10 -7.89753e-12)
(1.85912e-10 7.22949e-10 -5.55376e-12)
(1.76634e-10 8.39135e-10 -5.34206e-12)
(1.15896e-10 5.06279e-10 -6.64337e-12)
(1.47609e-10 6.05565e-10 -5.81031e-12)
(1.83566e-10 7.19426e-10 -4.88154e-12)
(2.11205e-10 4.0403e-10 -2.95335e-12)
(3.03154e-10 3.64163e-10 -8.98649e-13)
(2.3839e-10 3.20643e-10 -1.77915e-12)
(2.87187e-10 4.53022e-10 -2.07145e-12)
(2.12619e-10 4.05053e-10 -3.2404e-12)
(2.36433e-10 3.19126e-10 -2.06853e-12)
(2.84935e-10 4.51313e-10 -1.72511e-12)
(1.59049e-10 3.54008e-10 1.21692e-10)
(2.44358e-10 3.20737e-10 1.22801e-10)
(2.40923e-10 3.84785e-10 1.51996e-10)
(1.90041e-10 2.74251e-10 1.15122e-10)
(1.78194e-10 2.83985e-10 1.07169e-10)
(2.31814e-10 3.96392e-10 1.39842e-10)
(1.70531e-10 3.43838e-10 1.31539e-10)
(1.30683e-10 3.70843e-10 8.06415e-11)
(2.1248e-10 3.29912e-10 8.19068e-11)
(1.48532e-10 2.92212e-10 6.68617e-11)
(1.99133e-10 4.12607e-10 8.415e-11)
(1.30066e-10 3.71019e-10 7.36746e-11)
(1.4836e-10 2.91421e-10 7.19747e-11)
(1.99002e-10 4.11605e-10 9.19007e-11)
(2.11996e-10 6.68857e-10 -4.68543e-12)
(2.19014e-10 9.53513e-10 -6.88696e-12)
(2.13161e-10 6.7076e-10 -7.16204e-12)
(2.15365e-10 6.73224e-10 -6.961e-12)
(2.20277e-10 9.5533e-10 -5.59792e-12)
(2.14181e-10 6.71757e-10 -4.48457e-12)
(2.47878e-10 4.31946e-10 -3.35997e-12)
(3.46142e-10 3.92313e-10 -2.1621e-12)
(3.27248e-10 4.84249e-10 -2.72236e-12)
(2.77852e-10 3.44606e-10 -2.13947e-12)
(2.48973e-10 4.32458e-10 -3.32994e-12)
(2.76395e-10 3.43658e-10 -2.82932e-12)
(3.25599e-10 4.83209e-10 -2.77902e-12)
(1.371e-10 5.32873e-10 -5.6609e-12)
(1.67645e-10 6.36457e-10 -4.90864e-12)
(2.11212e-10 7.57815e-10 -5.42286e-12)
(2.01966e-10 8.83294e-10 -6.65148e-12)
(1.35865e-10 5.31159e-10 -4.87475e-12)
(1.68813e-10 6.3836e-10 -6.66745e-12)
(2.12638e-10 7.59893e-10 -5.48406e-12)
(2.43416e-10 4.28943e-10 -3.59798e-12)
(3.41493e-10 3.89766e-10 -2.32502e-12)
(2.70686e-10 3.40505e-10 -3.17167e-12)
(3.19904e-10 4.79196e-10 -3.17318e-12)
(2.42605e-10 4.28309e-10 -3.61845e-12)
(2.71864e-10 3.41453e-10 -2.49371e-12)
(3.2118e-10 4.80105e-10 -3.0902e-12)
(2.1105e-10 6.6773e-10 -7.28715e-12)
(2.15536e-10 9.47001e-10 -5.85352e-12)
(2.10013e-10 6.65877e-10 -4.73796e-12)
(2.14553e-10 9.45404e-10 -6.92969e-12)
(2.08212e-10 6.63387e-10 -4.79908e-12)
(2.09177e-10 6.64958e-10 -7.30622e-12)
(2.2039e-10 4.11617e-10 -4.16698e-12)
(3.1422e-10 3.71716e-10 -2.74546e-12)
(2.97074e-10 4.61351e-10 -3.50556e-12)
(2.47907e-10 3.26841e-10 -3.00988e-12)
(2.21395e-10 4.12377e-10 -4.25429e-12)
(2.46483e-10 3.25677e-10 -3.53478e-12)
(2.95399e-10 4.60035e-10 -3.40691e-12)
(1.18999e-10 5.10448e-10 -6.8571e-12)
(1.50772e-10 6.10636e-10 -6.21803e-12)
(1.88012e-10 7.25778e-10 -5.79167e-12)
(1.82091e-10 8.49452e-10 -7.53924e-12)
(1.174e-10 5.07847e-10 -5.93145e-12)
(1.52238e-10 6.13529e-10 -8.05978e-12)
(1.89934e-10 7.28837e-10 -6.15635e-12)
(2.15045e-10 4.06992e-10 -3.59346e-12)
(3.08362e-10 3.67726e-10 -1.61402e-12)
(2.39193e-10 3.2072e-10 -2.58434e-12)
(2.87903e-10 4.53665e-10 -2.36796e-12)
(2.13812e-10 4.05951e-10 -3.36516e-12)
(2.40989e-10 3.22226e-10 -2.19623e-12)
(2.89871e-10 4.55178e-10 -2.57644e-12)
(1.20237e-10 5.1185e-10 -6.00905e-12)
(1.93312e-10 7.34026e-10 -6.334e-12)
(1.54656e-10 6.17622e-10 -7.95817e-12)
(1.83633e-10 8.5214e-10 -6.42795e-12)
(1.53389e-10 6.15057e-10 -6.22864e-12)
(1.21599e-10 5.14134e-10 -6.82593e-12)
(1.91684e-10 7.31331e-10 -6.15739e-12)
(1.46215e-10 3.72912e-10 3.68801e-11)
(2.28749e-10 3.31423e-10 4.09814e-11)
(2.19296e-10 4.16031e-10 3.85978e-11)
(1.7023e-10 2.93247e-10 3.25504e-11)