/*--------------------------------*- C++ -*----------------------------------*\
| =========                 |                                                 |
| \\      /  F ield         | OpenFOAM: The Open Source CFD Toolbox           |
|  \\    /   O peration     | Version:  2012                                  |
|   \\  /    A nd           | Website:  www.openfoam.com                      |
|    \\/     M anipulation  |                                                 |
\*---------------------------------------------------------------------------*/
FoamFile
{
    version     2.0;
    format      ascii;
    class       volSymmTensorField;
    location    "0.106/solid";
    object      epsilon;
}
// * * * * * * * * * * * * * * * * * * * * * * * * * * * * * * * * * * * * * //

dimensions      [0 0 0 0 0 0 0];


internalField   nonuniform List<symmTensor> 
3125
(
(-2.18111e-09 1.73567e-09 -1.79732e-11 2.44626e-08 -1.05945e-10 -1.66958e-11)
(-2.26195e-09 1.37576e-09 -3.16029e-11 2.34269e-08 -1.64323e-10 5.80392e-12)
(-2.80556e-09 9.96105e-10 -3.41402e-10 2.08764e-08 1.78646e-09 1.00145e-09)
(-2.17663e-09 1.77572e-09 -2.06753e-11 2.45619e-08 -9.73598e-11 -2.15839e-11)
(-2.24742e-09 1.43759e-09 -2.53109e-11 2.36192e-08 -1.6552e-10 -6.80486e-12)
(-2.78183e-09 7.55921e-10 -2.7126e-10 2.15106e-08 1.21294e-09 7.28995e-10)
(-2.1529e-09 2.02831e-09 -4.94123e-11 2.49071e-08 -4.34476e-11 -4.67422e-11)
(-2.20519e-09 1.62e-09 -1.80837e-11 2.41773e-08 -1.32326e-10 -1.99017e-11)
(-2.37688e-09 1.09781e-09 -8.54805e-11 2.26862e-08 -2.65172e-11 1.33541e-10)
(-2.14594e-09 1.94702e-09 -3.55141e-11 2.47793e-08 -6.13302e-11 -2.66914e-11)
(-2.21383e-09 1.58027e-09 -1.86426e-11 2.40588e-08 -1.43162e-10 -1.83751e-11)
(-2.4575e-09 9.72919e-10 -1.14848e-10 2.23999e-08 1.20017e-10 2.29436e-10)
(6.38629e-09 -1.79566e-10 -1.73342e-11 7.91635e-09 -2.4426e-12 -2.64744e-11)
(2.37494e-09 2.01994e-09 -7.67239e-12 1.50426e-08 -7.13825e-11 -1.11013e-11)
(-6.05436e-11 -3.88065e-09 -3.32778e-11 2.70332e-08 -7.5496e-11 -1.936e-11)
(-2.1889e-09 1.69743e-09 -1.75698e-11 2.43727e-08 -1.10173e-10 -1.67737e-11)
(6.52798e-09 -1.20592e-10 -1.54084e-11 8.05567e-09 1.67289e-11 -3.03149e-11)
(-1.0065e-10 -3.87913e-09 -4.0093e-11 2.69167e-08 -5.53269e-11 -2.51565e-11)
(2.34514e-09 1.96529e-09 -1.00328e-11 1.49741e-08 -7.76691e-11 -9.4121e-12)
(5.69603e-09 -2.64222e-10 -9.34507e-11 7.18272e-09 6.57508e-11 1.56409e-10)
(2.07104e-09 1.50843e-09 -1.24298e-11 1.42746e-08 -1.02641e-10 1.75482e-11)
(-3.42741e-10 -3.90327e-09 -6.35076e-11 2.6028e-08 -1.063e-10 4.14051e-11)
(-2.28406e-09 1.30081e-09 -4.37422e-11 2.32066e-08 -1.4835e-10 2.87113e-11)
(5.99373e-09 -1.65704e-10 -4.21977e-11 7.49033e-09 3.49523e-11 6.91759e-11)
(-4.59526e-10 -3.91645e-09 -1.04993e-10 2.56729e-08 -9.34769e-11 1.37121e-10)
(2.01027e-09 1.40168e-09 -2.89024e-11 1.41148e-08 -8.14732e-11 3.60119e-11)
(4.8175e-09 1.89873e-10 -8.88068e-10 6.25378e-09 7.94847e-10 2.53046e-09)
(6.27178e-10 3.33287e-11 -3.1365e-10 1.29122e-08 1.20323e-09 4.98371e-10)
(-1.83536e-09 -3.25015e-09 -8.17715e-10 2.29159e-08 1.00434e-09 2.93157e-09)
(-2.75951e-09 1.82636e-09 -3.80509e-10 1.9023e-08 2.62998e-09 1.78108e-09)
(4.74267e-09 -3.95863e-10 -8.69853e-10 6.27502e-09 9.37349e-10 1.29621e-09)
(-1.66253e-09 -1.37448e-09 -9.47637e-10 2.04825e-08 -1.71707e-10 4.45327e-09)
(3.1987e-10 3.90617e-10 3.51004e-11 1.21946e-08 1.64791e-09 8.1241e-10)
(-2.21678e-09 -1.62008e-09 -5.22593e-11 3.00118e-08 -9.39984e-11 -2.53961e-11)
(-2.20497e-09 -1.59608e-09 -5.67549e-11 3.01779e-08 -3.38281e-11 -4.53946e-11)
(6.62493e-09 -1.09899e-10 -3.49769e-11 8.16221e-09 3.19263e-11 -5.62837e-11)
(-2.16931e-09 1.82325e-09 -2.50564e-11 2.46478e-08 -7.92765e-11 -2.49799e-11)
(2.40347e-09 2.07304e-09 -1.13372e-11 1.5111e-08 -6.00982e-11 -1.46966e-11)
(-5.15986e-11 -3.88076e-09 -4.39091e-11 2.70976e-08 -8.49565e-11 -2.72877e-11)
(6.49465e-09 -1.63103e-10 -2.00968e-11 8.02753e-09 2.73593e-12 -3.84629e-11)
(-1.9413e-11 -3.86766e-09 -4.73083e-11 2.72604e-08 -1.92239e-11 -5.44915e-11)
(2.43293e-09 2.13515e-09 -1.73025e-11 1.51737e-08 -4.67954e-11 -1.77851e-11)
(-2.22028e-09 -1.62272e-09 -5.21144e-11 2.99433e-08 -9.0473e-11 -1.76008e-11)
(-2.24814e-09 -1.62717e-09 -4.33321e-11 2.98121e-08 -6.29082e-11 -2.21931e-11)
(-2.3999e-09 -1.69055e-09 -7.39582e-11 2.89874e-08 -1.17212e-10 2.29383e-11)
(-2.34623e-09 -1.66778e-09 -6.60829e-11 2.92567e-08 -1.08583e-10 -9.24548e-12)
(6.16842e-09 -1.54913e-10 -2.04771e-11 7.67918e-09 1.68162e-11 1.48048e-11)
(-2.23555e-09 1.49061e-09 -2.20831e-11 2.37857e-08 -1.6043e-10 -1.3528e-11)
(2.11958e-09 1.59458e-09 -9.82211e-12 1.44147e-08 -1.10136e-10 6.45395e-12)
(-3.14314e-10 -3.89867e-09 -6.31147e-11 2.61285e-08 -1.04907e-10 2.42445e-11)
(5.9504e-09 -2.29911e-10 -4.04396e-11 7.45481e-09 1.76854e-11 4.84321e-11)
(-2.43947e-10 -3.89089e-09 -4.43123e-11 2.63883e-08 -9.46415e-11 -8.26168e-12)
(2.16488e-09 1.66929e-09 -7.05247e-12 1.45366e-08 -1.11453e-10 -1.01227e-12)
(-2.4226e-09 -1.69827e-09 -8.59925e-11 2.88838e-08 -1.24049e-10 4.05451e-11)
(-2.52067e-09 -1.7279e-09 -1.09548e-10 2.85144e-08 -1.11245e-10 1.40937e-10)
(-3.81364e-09 -1.35601e-09 -6.56769e-10 2.55606e-08 8.21169e-10 3.00102e-09)
(-3.38997e-09 -1.67953e-09 -3.31581e-10 2.6731e-08 3.54366e-10 1.60973e-09)
(4.92298e-09 -3.11147e-10 -5.11076e-10 6.40025e-09 4.89508e-10 8.00987e-10)
(-2.68099e-09 7.54023e-10 -2.04164e-10 2.18353e-08 7.23198e-10 5.28228e-10)
(9.65018e-10 1.61436e-10 -2.98257e-10 1.3159e-08 9.1977e-10 4.057e-10)
(-1.78595e-09 -3.51844e-09 -7.13915e-10 2.3278e-08 9.32634e-10 2.52419e-09)
(4.63001e-09 -5.04671e-10 -8.39413e-10 6.1473e-09 8.78361e-10 1.19884e-09)
(-1.38773e-09 -3.86575e-09 -4.14289e-10 2.40982e-08 4.19969e-10 1.43895e-09)
(1.21856e-09 3.64104e-10 -2.45547e-10 1.3245e-08 6.0943e-10 3.41647e-10)
(-3.88246e-09 -1.13382e-09 -8.47257e-10 2.49969e-08 8.52254e-10 3.58569e-09)
(-3.64078e-09 3.25554e-10 -1.46197e-09 2.1621e-08 -5.85479e-10 5.8257e-09)
(4.04517e-11 -3.84742e-09 -1.03237e-10 2.74392e-08 -1.34992e-10 -6.88733e-11)
(2.52519e-09 2.38451e-09 -3.01224e-11 1.5358e-08 1.83229e-11 -4.06127e-11)
(6.72049e-09 -1.15707e-10 -5.94776e-11 8.25891e-09 5.24698e-11 -1.10472e-10)
(1.05562e-08 -1.72578e-09 -8.62405e-11 2.15778e-08 -7.52943e-11 -8.87981e-11)
(3.93224e-09 4.41713e-09 6.19369e-11 8.15107e-09 4.5933e-11 -1.84841e-11)
(3.72664e-09 3.97048e-09 -7.6554e-11 8.06604e-09 -2.88872e-11 -3.7412e-12)
(3.67533e-09 3.84689e-09 7.22568e-11 8.01057e-09 -6.94805e-11 -2.83551e-13)
(1.03307e-08 -1.72507e-09 -3.26234e-11 2.12391e-08 -2.48106e-11 -3.34564e-11)
(1.02566e-08 -1.72083e-09 -3.75615e-11 2.11435e-08 -1.17546e-11 -2.92048e-11)
(6.41872e-09 -1.37152e-10 -1.28145e-11 7.94457e-09 1.27575e-11 -1.92274e-11)
(-2.19752e-09 1.65878e-09 -1.77749e-11 2.42824e-08 -1.20567e-10 -1.94578e-11)
(-1.53809e-10 -3.88624e-09 -4.14769e-11 2.67132e-08 -8.62189e-11 -2.36862e-11)
(2.28299e-09 1.85651e-09 -7.91616e-12 1.48263e-08 -9.43855e-11 -9.94787e-12)
(-1.14256e-10 -3.88211e-09 -3.44385e-11 2.68791e-08 -6.31627e-11 -2.91493e-11)
(6.2745e-09 -1.90989e-10 -1.58203e-11 7.7976e-09 -4.31502e-12 -1.70978e-11)
(2.31501e-09 1.91062e-09 -6.29002e-12 1.4904e-08 -8.62787e-11 -1.02947e-11)
(1.01424e-08 -1.7211e-09 -3.76315e-11 2.09688e-08 -2.77244e-11 -2.25649e-11)
(1.02327e-08 -1.72191e-09 -3.39028e-11 2.1109e-08 -1.49544e-11 -2.68216e-11)
(3.59173e-09 3.67995e-09 7.2032e-11 7.92958e-09 -8.39146e-11 4.89097e-13)
(3.64728e-09 3.8092e-09 -7.3916e-11 7.99383e-09 -4.72465e-11 -1.96547e-12)
(3.32936e-09 3.20716e-09 -6.8924e-11 7.67814e-09 -5.18399e-11 1.10965e-11)
(3.2278e-09 2.97246e-09 5.60905e-11 7.57106e-09 -2.87788e-11 2.69549e-11)
(9.7494e-09 -1.72309e-09 -6.42739e-11 2.03788e-08 -2.70636e-11 6.97719e-11)
(9.53158e-09 -1.72456e-09 -1.06096e-10 2.00703e-08 -1.90188e-11 1.80713e-10)
(5.74434e-09 -1.84226e-10 -1.02485e-10 7.22173e-09 8.77758e-11 1.91939e-10)
(-2.32041e-09 1.20867e-09 -6.19733e-11 2.29584e-08 -1.08842e-10 6.87856e-11)
(-7.37686e-10 -3.93694e-09 -1.89203e-10 2.5062e-08 -7.6131e-12 4.45659e-10)
(1.8014e-09 1.082e-09 -8.73576e-11 1.37392e-08 3.42073e-11 1.17038e-10)
(-5.12788e-10 -3.92389e-09 -1.15794e-10 2.55376e-08 -8.34057e-11 1.8858e-10)
(5.31812e-09 -3.16639e-10 -2.1465e-10 6.79517e-09 1.78171e-10 3.75407e-10)
(1.92249e-09 1.26196e-09 -5.24447e-11 1.39348e-08 -4.1058e-11 6.80275e-11)
(9.10395e-09 -1.72228e-09 -2.0718e-10 1.95096e-08 2.49578e-11 5.27648e-10)
(9.44371e-09 -1.72731e-09 -1.21416e-10 1.99459e-08 -1.12923e-11 2.41774e-10)
(2.95668e-09 2.41006e-09 1.71966e-11 7.40582e-09 1.12563e-10 6.24319e-11)
(3.15364e-09 2.86824e-09 -8.78171e-11 7.53613e-09 1.22465e-11 2.90154e-11)
(1.91429e-09 5.25795e-10 -1.36835e-10 7.00376e-09 6.75265e-10 3.56428e-11)
(2.05145e-09 1.41603e-09 3.1968e-10 6.02007e-09 7.97062e-10 9.32269e-11)
(7.52909e-09 -1.44085e-09 -1.24225e-09 1.73208e-08 5.25766e-10 3.70351e-09)
(7.14717e-09 -6.47014e-10 -1.17835e-09 1.57817e-08 -2.17023e-10 4.73273e-09)
(4.42798e-09 2.13268e-10 -9.81361e-10 5.882e-09 6.05339e-10 2.89529e-09)
(-2.36843e-09 4.45395e-09 -5.85092e-10 1.64916e-08 4.65794e-09 1.89471e-09)
(-1.74671e-09 -3.12041e-10 -7.45825e-10 1.90517e-08 -9.33271e-10 5.15622e-09)
(4.04658e-10 1.32134e-09 1.99993e-10 9.7287e-09 1.70571e-09 5.99353e-10)
(6.73591e-09 -1.92344e-10 -6.10992e-10 1.50062e-08 -9.56116e-10 4.52295e-09)
(1.70882e-09 1.95703e-09 1.81501e-10 5.7242e-09 8.59626e-10 2.84391e-10)
(-2.17392e-09 -1.5726e-09 -1.22886e-10 3.03903e-08 -1.41484e-10 -6.45113e-11)
(-2.16113e-09 -1.59534e-09 -1.00676e-10 3.02629e-08 -1.14981e-10 -3.11682e-11)
(-2.1909e-09 -1.59445e-09 -4.70823e-11 3.01809e-08 -9.32089e-12 -3.6869e-11)
(6.59174e-09 -1.53387e-10 -4.393e-11 8.132e-09 1.7115e-11 -6.53871e-11)
(-2.15422e-09 1.88095e-09 -2.95941e-11 2.4704e-08 -6.27746e-11 -2.26208e-11)
(4.50056e-11 -3.86263e-09 -7.54848e-11 2.73063e-08 -9.56399e-11 -3.28676e-11)
(2.50038e-09 2.30572e-09 -2.22697e-11 1.5293e-08 -1.31362e-11 -3.03279e-11)
(6.77281e-09 -6.0219e-11 -5.20515e-11 8.29701e-09 6.04924e-11 -9.55418e-11)
(8.26459e-13 -3.86352e-09 -5.54698e-11 2.72574e-08 6.11139e-12 -4.69366e-11)
(2.46699e-09 2.21831e-09 -2.79898e-11 1.52313e-08 -3.12918e-11 -2.10455e-11)
(3.75352e-09 4.00688e-09 7.13874e-11 8.07906e-09 -5.01361e-11 -3.29526e-12)
(3.80843e-09 4.14327e-09 -8.18512e-11 8.11834e-09 2.90778e-12 -7.72811e-12)
(1.03603e-08 -1.72602e-09 -3.85945e-11 2.12934e-08 -3.41934e-11 -3.57021e-11)
(1.04419e-08 -1.72424e-09 -4.73665e-11 2.1434e-08 6.90556e-12 -4.76551e-11)
(1.05159e-08 -1.73251e-09 -6.90211e-11 2.14703e-08 -4.17704e-11 -8.1228e-11)
(1.04576e-08 -1.72439e-09 -5.52766e-11 2.14365e-08 2.35866e-11 -5.69285e-11)
(3.90225e-09 4.36674e-09 -8.91487e-11 8.15943e-09 5.69141e-11 -1.67106e-11)
(3.83742e-09 4.19405e-09 6.67401e-11 8.12985e-09 -1.68945e-11 -7.34615e-12)
(-2.28108e-09 -1.64678e-09 -4.96157e-11 2.9599e-08 -9.50375e-11 -2.38263e-11)
(-2.25709e-09 -1.63132e-09 -5.19761e-11 2.97725e-08 -7.42094e-11 -2.70821e-11)
(-2.29098e-09 -1.64956e-09 -5.54899e-11 2.95327e-08 -1.00751e-10 -2.13501e-11)
(-2.33138e-09 -1.6622e-09 -5.65755e-11 2.93302e-08 -9.93212e-11 -1.26975e-11)
(6.13083e-09 -2.08152e-10 -2.21378e-11 7.6475e-09 1.20095e-12 1.79035e-12)
(-2.2243e-09 1.53765e-09 -2.00715e-11 2.39299e-08 -1.51497e-10 -1.65318e-11)
(-1.68842e-10 -3.88656e-09 -3.52431e-11 2.66508e-08 -8.68622e-11 -2.11235e-11)
(2.24716e-09 1.7992e-09 -6.18879e-12 1.47391e-08 -1.02738e-10 -8.05634e-12)
(6.30714e-09 -1.45466e-10 -1.28281e-11 7.82574e-09 1.06555e-11 -8.03563e-12)
(-2.23836e-10 -3.88782e-09 -4.79781e-11 2.64595e-08 -8.99687e-11 -1.22519e-11)
(2.20765e-09 1.737e-09 -8.82451e-12 1.46433e-08 -1.07342e-10 -5.14708e-12)
(3.37539e-09 3.26319e-09 7.06708e-11 7.70697e-09 -8.02685e-11 1.10238e-11)
(3.4528e-09 3.4368e-09 -7.14505e-11 7.80137e-09 -6.77251e-11 2.57048e-12)
(9.80726e-09 -1.72106e-09 -6.06686e-11 2.04684e-08 -2.91379e-11 4.619e-11)
(9.9558e-09 -1.71989e-09 -4.38474e-11 2.06894e-08 -2.52138e-11 5.44415e-12)
(1.01085e-08 -1.72059e-09 -3.46715e-11 2.09142e-08 -2.51542e-11 -1.89627e-11)
(9.9967e-09 -1.71846e-09 -4.4845e-11 2.07532e-08 -2.503e-11 -4.1435e-12)
(3.55921e-09 3.63792e-09 -7.27854e-11 7.90798e-09 -6.23118e-11 -8.69082e-13)
(3.49221e-09 3.48648e-09 7.08902e-11 7.82702e-09 -9.09013e-11 3.68564e-12)
(8.83976e-09 -2.10768e-09 -1.07731e-10 2.29807e-08 -4.38301e-11 1.78436e-10)
(-2.76808e-09 -1.76521e-09 -1.6867e-10 2.78665e-08 -3.56847e-11 4.70676e-10)
(-2.56709e-09 -1.73767e-09 -1.28089e-10 2.8374e-08 -1.07377e-10 1.95018e-10)
(8.39988e-09 -2.10349e-09 -1.74189e-10 2.23972e-08 -1.87698e-11 5.57879e-10)
(8.751e-09 -2.10722e-09 -1.22652e-10 2.2853e-08 -4.27482e-11 2.44072e-10)
(-2.86045e-09 -1.76868e-09 -1.92287e-10 2.76772e-08 1.89081e-12 6.14615e-10)
(-3.23675e-09 -1.72332e-09 -2.72393e-10 2.69916e-08 2.3947e-10 1.28306e-09)
(6.72231e-09 -1.82445e-09 -8.1788e-10 2.00274e-08 2.63406e-10 3.80752e-09)
(7.51016e-09 -2.02682e-09 -4.00863e-10 2.1235e-08 1.27153e-10 1.94976e-09)
(8.25381e-09 -2.09837e-09 -2.01249e-10 2.22149e-08 -3.76683e-12 7.26528e-10)
(7.71632e-09 -2.05704e-09 -3.25021e-10 2.15297e-08 8.37063e-11 1.53101e-09)
(4.85999e-09 -4.07652e-10 -4.67545e-10 6.3441e-09 4.30457e-10 7.33458e-10)
(-2.5622e-09 8.48093e-10 -1.52901e-10 2.2114e-08 3.62059e-10 3.61932e-10)
(-8.38246e-10 -3.93937e-09 -2.12895e-10 2.48886e-08 3.87834e-11 5.77597e-10)
(1.64409e-09 8.61825e-10 -1.29445e-10 1.35418e-08 1.57802e-10 1.82987e-10)
(5.36894e-09 -2.22657e-10 -2.36357e-10 6.8363e-09 2.11811e-10 4.30537e-10)
(-1.2336e-09 -3.90156e-09 -3.54406e-10 2.43039e-08 2.92066e-10 1.165e-09)
(1.44856e-09 6.12728e-10 -1.85453e-10 1.33675e-08 3.47832e-10 2.62548e-10)
(2.05689e-09 5.83054e-10 -4.57119e-11 7.14245e-09 6.67269e-10 6.60943e-11)
(2.39421e-09 1.2688e-09 -1.89862e-10 7.25641e-09 4.75836e-10 8.92289e-11)
(7.6614e-09 -1.54706e-09 -1.05335e-09 1.76911e-08 4.78666e-10 3.13309e-09)
(8.25015e-09 -1.69102e-09 -5.52897e-10 1.85642e-08 2.30144e-10 1.70398e-09)
(8.96623e-09 -1.7214e-09 -2.43728e-10 1.93384e-08 4.95677e-11 6.78206e-10)
(8.44652e-09 -1.70016e-09 -4.48153e-10 1.87718e-08 1.66289e-10 1.36442e-09)
(2.84202e-09 2.22578e-09 -1.2592e-10 7.37108e-09 1.79797e-10 6.48769e-11)
(2.54146e-09 1.51965e-09 -4.58106e-11 7.27067e-09 3.91244e-10 9.90158e-11)
(6.46119e-09 -1.68948e-09 -1.06569e-09 1.95131e-08 2.54672e-10 4.60695e-09)
(5.9086e-09 -8.61932e-10 -1.90957e-09 1.72758e-08 -7.1525e-10 6.24661e-09)
(-2.8528e-09 6.80484e-09 -8.73369e-10 1.59668e-08 6.28935e-09 2.68297e-09)
(-3.62509e-09 1.14068e-09 -1.46691e-09 1.99145e-08 -1.52776e-09 6.67171e-09)
(5.65575e-09 -4.75703e-10 -1.75251e-09 1.64044e-08 -1.48687e-09 5.84022e-09)
(-3.68566e-09 3.05885e-09 -2.20077e-10 1.45455e-08 4.1268e-10 4.03907e-09)
(-2.00117e-09 8.62307e-09 -4.40857e-10 7.7323e-09 5.1908e-09 5.09962e-09)
(-7.22583e-09 5.92021e-09 -6.61652e-10 1.76214e-08 3.82756e-10 7.32491e-09)
(-1.19053e-09 4.50913e-09 -1.29725e-10 9.02212e-09 2.80904e-09 2.61236e-09)
(-2.0222e-09 9.83641e-09 -5.41499e-10 6.45982e-09 6.53996e-09 5.92257e-09)
(-7.81548e-09 7.08141e-09 -8.73379e-10 1.77622e-08 5.6337e-10 8.45874e-09)
(2.57554e-09 -2.46716e-09 -1.01773e-10 1.69864e-08 6.63332e-11 -2.5325e-11)
(6.47555e-09 -1.27763e-10 -1.54798e-11 8.00176e-09 1.35408e-11 -2.31097e-11)
(6.1822e-09 -2.60897e-09 -3.02186e-11 1.45584e-08 -2.68821e-11 -1.49606e-11)
(6.48162e-09 -1.12986e-09 1.08672e-11 1.08458e-08 -6.23561e-11 -9.75267e-12)
(6.50983e-09 -1.12751e-09 -4.01235e-11 1.08597e-08 1.06535e-11 -1.65902e-11)
(6.2073e-09 -2.60467e-09 -1.49436e-11 1.45815e-08 -4.71005e-12 -1.48995e-11)
(2.55202e-09 -2.4804e-09 5.00805e-11 1.69622e-08 -1.77024e-10 -1.31537e-11)
(2.59587e-09 -2.45871e-09 5.11771e-11 1.70279e-08 -1.75949e-10 -1.44752e-11)
(6.44495e-09 -1.68958e-10 -1.9379e-11 7.97428e-09 -1.81272e-12 -3.06593e-11)
(6.57174e-09 -1.10534e-09 -3.58577e-11 1.09128e-08 1.40238e-11 -2.0488e-11)
(6.25786e-09 -2.59938e-09 -9.78426e-12 1.4641e-08 -9.54021e-12 -1.88047e-11)
(2.61704e-09 -2.44913e-09 -9.71491e-11 1.7056e-08 6.49421e-11 -2.74377e-11)
(6.54923e-09 -1.10574e-09 1.12423e-11 1.09018e-08 -6.04459e-11 -1.4984e-11)
(6.23337e-09 -2.5977e-09 -2.86214e-11 1.46134e-08 -2.70442e-11 -1.68212e-11)
(2.12304e-09 -2.62059e-09 -1.42687e-10 1.61023e-08 4.76631e-11 5.7984e-11)
(5.88189e-09 -1.75399e-10 -6.62372e-11 7.36668e-09 5.49917e-11 1.1858e-10)
(5.55936e-09 -2.63945e-09 -9.14955e-11 1.36577e-08 1.54159e-13 1.4845e-10)
(5.74897e-09 -1.31099e-09 -3.63354e-11 1.01344e-08 -1.51655e-11 1.14202e-10)
(5.8131e-09 -1.31206e-09 -7.50407e-11 1.01742e-08 3.35067e-11 7.95194e-11)
(5.62558e-09 -2.63926e-09 -5.84782e-11 1.37416e-08 5.22528e-12 1.15608e-10)
(2.06659e-09 -2.64321e-09 -2.60684e-12 1.60256e-08 -1.68144e-10 1.09917e-10)
(2.16501e-09 -2.6091e-09 2.79172e-11 1.62074e-08 -1.93442e-10 5.93223e-11)
(5.83619e-09 -2.46301e-10 -6.11483e-11 7.3306e-09 3.5302e-11 9.16166e-11)
(5.93646e-09 -1.27498e-09 -5.15076e-11 1.03055e-08 1.01482e-11 4.4748e-11)
(5.73875e-09 -2.63081e-09 -3.33346e-11 1.39095e-08 -1.05356e-11 6.49026e-11)
(2.20723e-09 -2.59032e-09 -1.19284e-10 1.62739e-08 3.33417e-11 2.21131e-11)
(5.89168e-09 -1.27336e-09 -4.99644e-12 1.02745e-08 -4.80845e-11 6.67527e-11)
(5.68568e-09 -2.63045e-09 -5.92012e-11 1.38387e-08 -2.42211e-11 8.52506e-11)
(1.34204e-10 -1.85075e-09 -5.4418e-10 1.40841e-08 1.61281e-09 1.87515e-09)
(4.99097e-09 -9.75876e-11 -8.48232e-10 6.57595e-09 1.06468e-09 1.75359e-09)
(3.6034e-09 -1.37193e-09 -5.57322e-10 1.16749e-08 7.40943e-10 2.88512e-09)
(2.77596e-09 -5.70628e-10 -1.42527e-10 9.18171e-09 1.1966e-09 1.62301e-09)
(2.96245e-09 -1.07604e-09 -5.5172e-10 9.37794e-09 1.42794e-09 1.33282e-09)
(3.81651e-09 -1.8904e-09 -6.74905e-10 1.20001e-08 1.17001e-09 2.44905e-09)
(8.20257e-11 -1.20187e-09 -2.24607e-10 1.34328e-08 1.16471e-09 2.34715e-09)
(2.6336e-10 -2.31645e-09 -5.02253e-10 1.45487e-08 1.40214e-09 1.57851e-09)
(4.7905e-09 -3.47908e-10 -8.6199e-10 6.35994e-09 1.05656e-09 1.56314e-09)
(3.67005e-09 -1.5889e-09 -7.73486e-10 9.31698e-09 1.26348e-09 9.45103e-10)
(4.01299e-09 -2.5246e-09 -8.78854e-10 1.22281e-08 1.19133e-09 1.86768e-09)
(4.49979e-10 -2.62616e-09 -7.52024e-10 1.46373e-08 1.49103e-09 1.38796e-09)
(3.29588e-09 -1.37053e-09 -6.73452e-10 9.5e-09 1.30624e-09 1.08432e-09)
(3.90571e-09 -2.27292e-09 -8.52902e-10 1.21846e-08 1.25343e-09 2.12381e-09)
(2.66683e-09 -2.43658e-09 3.79997e-11 1.71759e-08 -1.60283e-10 -3.19319e-11)
(6.53292e-09 -1.67984e-10 -2.80764e-11 8.07204e-09 9.26736e-12 -5.24289e-11)
(6.34964e-09 -2.59991e-09 -3.80919e-11 1.47933e-08 1.82461e-11 -4.24619e-11)
(6.68907e-09 -1.07151e-09 -5.80741e-11 1.10165e-08 3.71276e-11 -3.61459e-11)
(2.69201e-09 -2.41554e-09 -1.22455e-10 1.71971e-08 9.82651e-11 -4.44972e-11)
(6.66616e-09 -1.08086e-09 -7.26312e-13 1.10061e-08 -4.32262e-11 -3.00144e-11)
(6.32364e-09 -2.60796e-09 -4.10871e-11 1.47704e-08 -1.90065e-11 -3.78493e-11)
(2.65045e-09 -2.44278e-09 -1.01897e-10 1.71341e-08 7.17493e-11 -3.7712e-11)
(6.57028e-09 -1.22808e-10 -2.05121e-11 8.10156e-09 2.39921e-11 -4.35553e-11)
(6.60717e-09 -1.09089e-09 9.85598e-12 1.09536e-08 -5.35173e-11 -2.06761e-11)
(6.28047e-09 -2.60184e-09 -2.63243e-11 1.46843e-08 -3.16094e-11 -2.42098e-11)
(2.63299e-09 -2.44743e-09 5.20708e-11 1.71021e-08 -1.75936e-10 -2.0667e-11)
(6.63114e-09 -1.09703e-09 -4.11068e-11 1.09671e-08 2.4137e-11 -2.99567e-11)
(6.30103e-09 -2.60937e-09 -1.44636e-11 1.47245e-08 -8.86188e-12 -2.99291e-11)
(2.30533e-09 -2.56147e-09 4.87766e-11 1.64993e-08 -2.04171e-10 1.06679e-11)
(6.04803e-09 -2.18657e-10 -2.92528e-11 7.5579e-09 6.4162e-12 1.98459e-11)
(5.91178e-09 -2.62273e-09 -1.54196e-11 1.41715e-08 -1.85721e-11 1.3535e-11)
(6.13937e-09 -1.2231e-09 -3.87598e-11 1.05151e-08 -3.22929e-12 6.29173e-12)
(2.33713e-09 -2.54886e-09 -1.04594e-10 1.65469e-08 3.34837e-11 -1.24192e-11)
(6.10404e-09 -1.21934e-09 1.33266e-11 1.04941e-08 -7.09246e-11 1.78906e-11)
(5.87309e-09 -2.62084e-09 -3.36789e-11 1.41214e-08 -3.90051e-11 2.10153e-11)
(2.27609e-09 -2.56788e-09 -1.10067e-10 1.64206e-08 3.05876e-11 1.12912e-13)
(6.08761e-09 -1.60972e-10 -2.90425e-11 7.59041e-09 2.2909e-11 3.59971e-11)
(6.00156e-09 -1.24261e-09 6.79323e-12 1.03912e-08 -6.28418e-11 3.90215e-11)
(5.78713e-09 -2.62425e-09 -4.22425e-11 1.39906e-08 -3.36789e-11 4.64883e-11)
(2.24037e-09 -2.58181e-09 4.23105e-11 1.63646e-08 -2.01871e-10 3.05387e-11)
(6.04535e-09 -1.24637e-09 -4.49112e-11 1.0419e-08 6.91835e-13 2.03119e-11)
(5.83112e-09 -2.62596e-09 -2.2102e-11 1.40503e-08 -1.7682e-11 3.38844e-11)
(9.45772e-10 -2.89284e-09 -4.23613e-10 1.49334e-08 6.44382e-10 9.54756e-10)
(4.68659e-09 -4.66299e-10 -6.56169e-10 6.1783e-09 6.3979e-10 9.51026e-10)
(4.52351e-09 -2.71852e-09 -5.35513e-10 1.25534e-08 5.32561e-10 1.04635e-09)
(4.50673e-09 -1.61763e-09 -4.76668e-10 9.33073e-09 6.39739e-10 6.43897e-10)
(1.1065e-09 -2.88326e-09 -5.3305e-10 1.49958e-08 6.96503e-10 8.1592e-10)
(4.35142e-09 -1.62098e-09 -4.84682e-10 9.31841e-09 7.03573e-10 7.20224e-10)
(4.38605e-09 -2.71224e-09 -6.52871e-10 1.24479e-08 6.54127e-10 1.22609e-09)
(7.98155e-10 -2.85985e-09 -6.69817e-10 1.48306e-08 1.07657e-09 1.08797e-09)
(4.77275e-09 -3.68777e-10 -7.05997e-10 6.25933e-09 7.09996e-10 1.02318e-09)
(3.96455e-09 -1.61307e-09 -6.23735e-10 9.32974e-09 1.0391e-09 8.54459e-10)
(4.13091e-09 -2.63465e-09 -8.50691e-10 1.22913e-08 1.02528e-09 1.63432e-09)
(6.26126e-10 -2.78666e-09 -5.4324e-10 1.48021e-08 1.07757e-09 1.22674e-09)
(4.15193e-09 -1.64566e-09 -6.27208e-10 9.27098e-09 9.448e-10 7.87741e-10)
(4.25322e-09 -2.69634e-09 -7.38936e-10 1.23413e-08 8.4828e-10 1.42778e-09)
(2.81354e-09 -2.30332e-09 -5.22298e-11 1.74712e-08 -8.49525e-11 -1.03234e-10)
(6.70637e-09 -1.55454e-10 -9.82651e-11 8.28197e-09 7.92935e-11 -1.64982e-10)
(6.50749e-09 -2.56855e-09 -1.32595e-10 1.51224e-08 3.81376e-11 -1.37326e-10)
(6.91993e-09 -9.63934e-10 -8.09709e-11 1.12139e-08 4.35093e-11 -9.85222e-11)
(2.80124e-09 -2.32342e-09 -1.42053e-10 1.74237e-08 1.16561e-10 -9.67367e-11)
(6.76879e-09 -9.16201e-11 -7.74073e-11 8.32161e-09 9.17048e-11 -1.47366e-10)
(6.4813e-09 -2.55043e-09 -5.22384e-11 1.49356e-08 -2.18158e-11 -8.54763e-11)
(6.87673e-09 -9.60146e-10 -1.54907e-11 1.11606e-08 6.46328e-12 -7.8687e-11)
(6.48664e-09 -2.57354e-09 -5.9783e-11 1.50338e-08 1.01847e-11 -1.0897e-10)
(6.88368e-09 -9.84718e-10 -7.70177e-11 1.11748e-08 9.9845e-11 -9.32774e-11)
(2.80219e-09 -2.32132e-09 2.67932e-11 1.73677e-08 -1.47629e-10 -6.79381e-11)
(8.08983e-09 -1.46763e-09 9.06967e-11 1.40928e-08 -3.68668e-11 -1.18516e-10)
(1.06014e-08 -1.71145e-09 -1.02533e-10 2.17132e-08 -6.96168e-11 -9.97051e-11)
(9.18469e-09 -2.25742e-09 1.40777e-10 1.63851e-08 -9.21813e-11 -7.84816e-11)
(9.21134e-09 -2.26724e-09 -3.06013e-10 1.6584e-08 -9.0071e-13 -1.32311e-10)
(1.06443e-08 -1.70067e-09 -1.22334e-10 2.18091e-08 -1.1028e-11 -1.18466e-10)
(9.22683e-09 -2.26103e-09 9.13695e-11 1.663e-08 -6.63332e-11 -1.43307e-10)
(8.04517e-09 -1.44486e-09 1.30309e-10 1.39153e-08 -4.93273e-11 -9.92539e-11)
(8.0753e-09 -1.46294e-09 -3.26493e-10 1.40508e-08 6.56312e-11 -1.28361e-10)
(8.36912e-09 1.52824e-09 -1.25409e-10 8.02295e-09 7.19325e-11 -1.1693e-10)
(8.00342e-09 2.29497e-09 1.63204e-11 7.76182e-09 9.29269e-12 -7.02404e-11)
(3.958e-09 4.49108e-09 -1.0595e-10 8.14252e-09 9.85412e-11 -2.46914e-11)
(8.00195e-09 2.29629e-09 -9.05284e-11 7.75903e-09 1.67372e-10 -7.44153e-11)
(8.28615e-09 1.50972e-09 -8.77149e-11 8.018e-09 3.2563e-11 -9.23414e-11)
(8.3327e-09 1.5087e-09 2.78219e-12 8.01301e-09 1.37808e-10 -1.12857e-10)
(3.99591e-09 4.57028e-09 5.91084e-11 8.13087e-09 9.13493e-11 -2.53194e-11)
(8.09972e-09 2.36538e-09 -7.78358e-12 7.7823e-09 5.35748e-11 -9.11831e-11)
(7.81596e-09 1.26781e-09 -5.10103e-11 7.76191e-09 -5.30198e-11 -2.54049e-11)
(7.86709e-09 1.27051e-09 4.10312e-11 7.78882e-09 1.25311e-11 -3.18592e-11)
(7.65929e-09 2.08097e-09 -4.68505e-11 7.59649e-09 4.46694e-11 -1.73508e-11)
(3.72211e-09 3.94108e-09 8.02629e-11 8.05097e-09 -6.01335e-11 -4.24687e-12)
(7.65697e-09 2.07825e-09 5.27581e-11 7.58594e-09 -8.30283e-11 -1.7313e-11)
(7.9348e-09 1.31234e-09 4.16518e-11 7.83587e-09 1.95521e-11 -3.60276e-11)
(7.89667e-09 1.29e-09 -5.53892e-11 7.80752e-09 -5.05146e-11 -3.05465e-11)
(7.60583e-09 2.05387e-09 4.73955e-11 7.53897e-09 -8.81151e-11 -1.81624e-11)
(3.69413e-09 3.90128e-09 -8.50855e-11 8.03399e-09 -4.11088e-11 -4.6465e-12)
(7.58942e-09 2.04389e-09 -5.42997e-11 7.5565e-09 3.62742e-11 -1.05761e-11)
(7.73219e-09 -1.47614e-09 1.7963e-10 1.35574e-08 -5.24746e-11 -1.99818e-11)
(7.7764e-09 -1.46749e-09 -2.38677e-10 1.35707e-08 6.40955e-11 -2.69162e-11)
(8.9564e-09 -2.27213e-09 -2.28873e-10 1.61211e-08 3.27095e-11 -2.99695e-11)
(1.03013e-08 -1.72117e-09 -3.44694e-11 2.12e-08 -2.01377e-11 -3.28611e-11)
(8.91496e-09 -2.26526e-09 1.74547e-10 1.60831e-08 -4.88617e-11 -2.14182e-11)
(7.82684e-09 -1.46751e-09 -2.40231e-10 1.36333e-08 5.88916e-11 -3.47855e-11)
(7.78567e-09 -1.46732e-09 1.80106e-10 1.36146e-08 -4.97858e-11 -2.67415e-11)
(8.86146e-09 -2.27149e-09 1.73136e-10 1.6033e-08 -5.11072e-11 -2.07637e-11)
(1.02772e-08 -1.72053e-09 -3.43843e-11 2.11675e-08 -4.86361e-12 -2.97401e-11)
(8.90226e-09 -2.26705e-09 -2.3205e-10 1.6056e-08 4.86032e-11 -2.47716e-11)
(2.51091e-09 -2.49979e-09 5.42214e-11 1.68911e-08 -1.87389e-10 -1.5539e-11)
(6.15728e-09 -2.61607e-09 -1.112e-11 1.45231e-08 -1.02158e-11 -1.45007e-11)
(6.33321e-09 -1.86971e-10 -1.57019e-11 7.85861e-09 -4.20852e-12 -2.27844e-11)
(6.44407e-09 -1.15019e-09 -3.47759e-11 1.08033e-08 5.56759e-12 -1.43167e-11)
(2.53266e-09 -2.48882e-09 -9.90675e-11 1.69197e-08 5.84562e-11 -2.6859e-11)
(6.13221e-09 -2.61626e-09 -2.54801e-11 1.44928e-08 -3.53007e-11 -1.43904e-11)
(6.42175e-09 -1.14949e-09 1.66015e-11 1.07916e-08 -6.81959e-11 -1.09672e-11)
(2.49159e-09 -2.50428e-09 -9.81619e-11 1.68415e-08 4.82418e-11 -2.76241e-11)
(6.36618e-09 -1.4303e-10 -1.19388e-11 7.88624e-09 1.10437e-11 -1.4764e-11)
(6.07822e-09 -2.6154e-09 -2.48315e-11 1.44111e-08 -3.81645e-11 -9.57164e-12)
(6.35173e-09 -1.16331e-09 1.56252e-11 1.07276e-08 -7.09178e-11 -6.14373e-12)
(6.10567e-09 -2.61885e-09 -8.92567e-12 1.44475e-08 -1.74616e-11 -1.14199e-11)
(6.3823e-09 -1.16735e-09 -3.54499e-11 1.07439e-08 1.03418e-12 -1.43602e-11)
(2.46774e-09 -2.51203e-09 5.44686e-11 1.68078e-08 -1.93855e-10 -1.13475e-11)
(7.72295e-09 -1.47598e-09 -2.38674e-10 1.35168e-08 6.16158e-11 -2.22148e-11)
(7.67919e-09 -1.47816e-09 1.79793e-10 1.34897e-08 -5.5828e-11 -1.49012e-11)
(1.01725e-08 -1.72087e-09 -3.51586e-11 2.10177e-08 -2.23736e-11 -2.3361e-11)
(8.74589e-09 -2.26792e-09 1.75145e-10 1.5875e-08 -6.23811e-11 -1.05173e-11)
(8.79228e-09 -2.27167e-09 -2.29339e-10 1.59273e-08 3.10298e-11 -1.99328e-11)
(8.84916e-09 -2.27396e-09 -2.314e-10 1.60056e-08 4.23989e-11 -2.42138e-11)
(1.02031e-08 -1.72068e-09 -3.59109e-11 2.10682e-08 -2.79195e-11 -2.56425e-11)
(8.80643e-09 -2.27023e-09 1.7601e-10 1.59618e-08 -6.22546e-11 -1.60459e-11)
(7.62104e-09 -1.47645e-09 1.78343e-10 1.34102e-08 -5.5764e-11 -1.04788e-11)
(7.66888e-09 -1.47604e-09 -2.39435e-10 1.34435e-08 5.58697e-11 -1.85499e-11)
(7.78686e-09 1.24843e-09 4.32274e-11 7.7438e-09 8.14517e-12 -2.75637e-11)
(7.7483e-09 1.23032e-09 -4.82779e-11 7.71421e-09 -5.73192e-11 -2.58955e-11)
(7.47674e-09 1.99142e-09 5.09256e-11 7.44289e-09 -9.60466e-11 -1.48208e-11)
(3.61156e-09 3.73677e-09 -8.26855e-11 7.95665e-09 -5.70518e-11 -4.36554e-12)
(7.46068e-09 1.97983e-09 -5.05903e-11 7.4636e-09 2.48031e-11 -7.61067e-12)
(7.66095e-09 1.21213e-09 -4.64242e-11 7.66406e-09 -5.98555e-11 -1.99168e-11)
(7.71767e-09 1.21144e-09 4.36327e-11 7.69507e-09 4.55874e-12 -2.78937e-11)
(7.53471e-09 2.01764e-09 -4.35739e-11 7.50902e-09 3.05983e-11 -1.17531e-11)
(3.64248e-09 3.77781e-09 8.06049e-11 7.97585e-09 -7.5531e-11 -3.10991e-12)
(7.53545e-09 2.01635e-09 5.68535e-11 7.49663e-09 -9.2414e-11 -1.42551e-11)
(6.95303e-09 9.51188e-10 -8.60076e-11 7.18555e-09 2.13523e-11 9.48977e-11)
(7.06305e-09 9.68376e-10 9.77434e-12 7.25573e-09 4.23839e-11 5.47668e-11)
(7.01135e-09 1.77394e-09 -4.8894e-11 7.12871e-09 3.96457e-11 3.3369e-11)
(3.31677e-09 3.14867e-09 7.45981e-11 7.64506e-09 -6.02951e-11 1.46762e-11)
(7.01645e-09 1.77475e-09 4.75295e-11 7.10323e-09 -5.62843e-11 3.62641e-11)
(7.19707e-09 1.03446e-09 2.6756e-11 7.35613e-09 1.78376e-11 2.64552e-11)
(7.12402e-09 1.00685e-09 -6.00175e-11 7.29362e-09 -1.93125e-11 5.07518e-11)
(6.88941e-09 1.71237e-09 2.33147e-11 7.00604e-09 -1.59777e-11 6.32166e-11)
(3.26072e-09 3.07584e-09 -8.20032e-11 7.61372e-09 -2.98774e-11 1.58657e-11)
(6.87133e-09 1.70075e-09 -6.92951e-11 7.04132e-09 6.66552e-11 6.12276e-11)
(7.03306e-09 -1.48589e-09 8.6181e-11 1.26577e-08 -1.09244e-11 1.97154e-10)
(7.15234e-09 -1.47895e-09 -2.96209e-10 1.27461e-08 8.0962e-11 1.26138e-10)
(8.38328e-09 -2.26534e-09 -2.55453e-10 1.53666e-08 3.80203e-11 6.37558e-11)
(9.68204e-09 -1.72201e-09 -7.57088e-11 2.02861e-08 -3.2654e-11 9.74564e-11)
(8.28741e-09 -2.25957e-09 1.2617e-10 1.52634e-08 -4.91835e-11 1.15126e-10)
(7.27677e-09 -1.47691e-09 -2.70369e-10 1.29123e-08 7.03717e-11 6.97986e-11)
(7.1785e-09 -1.48116e-09 1.2323e-10 1.284e-08 -3.1507e-11 1.18103e-10)
(8.13716e-09 -2.26212e-09 9.02248e-11 1.50698e-08 -2.99091e-11 1.96104e-10)
(9.60885e-09 -1.72349e-09 -8.7704e-11 2.01787e-08 -2.08846e-11 1.36251e-10)
(8.25345e-09 -2.26452e-09 -2.78881e-10 1.51902e-08 4.51236e-11 1.21585e-10)
(1.93146e-09 -2.6876e-09 -4.76537e-11 1.58164e-08 -1.23947e-10 1.90471e-10)
(5.48367e-09 -2.64933e-09 -9.80802e-11 1.35455e-08 3.54253e-11 1.94348e-10)
(5.52443e-09 -2.87498e-10 -1.43246e-10 7.00322e-09 1.09596e-10 2.48959e-10)
(5.64602e-09 -1.35584e-09 -1.12229e-10 1.00195e-08 7.39804e-11 1.37349e-10)
(2.00896e-09 -2.65794e-09 -1.81251e-10 1.59051e-08 7.95116e-11 1.19855e-10)
(5.39782e-09 -2.65072e-09 -1.40881e-10 1.34451e-08 3.68599e-11 2.46645e-10)
(5.56354e-09 -1.35683e-09 -8.13321e-11 9.97365e-09 3.48983e-11 1.84521e-10)
(1.85303e-09 -2.70681e-09 -2.37753e-10 1.56815e-08 1.4058e-10 2.20318e-10)
(5.57309e-09 -2.00386e-10 -1.57732e-10 7.0411e-09 1.36523e-10 2.93928e-10)
(5.19321e-09 -2.66659e-09 -2.13256e-10 1.32028e-08 1.06361e-10 3.93946e-10)
(5.32249e-09 -1.41603e-09 -1.46902e-10 9.78881e-09 1.18202e-10 2.86886e-10)
(5.30032e-09 -2.66302e-09 -1.58558e-10 1.33143e-08 8.6832e-11 3.17608e-10)
(5.43198e-09 -1.40991e-09 -1.6919e-10 9.84309e-09 1.4122e-10 2.22607e-10)