/*--------------------------------*- C++ -*----------------------------------*\
| =========                 |                                                 |
| \\      /  F ield         | OpenFOAM: The Open Source CFD Toolbox           |
|  \\    /   O peration     | Version:  2012                                  |
|   \\  /    A nd           | Website:  www.openfoam.com                      |
|    \\/     M anipulation  |                                                 |
\*---------------------------------------------------------------------------*/
FoamFile
{
    version     2.0;
    format      ascii;
    class       pointVectorField;
    location    "0.106/solid";
    object      pointD;
}
// * * * * * * * * * * * * * * * * * * * * * * * * * * * * * * * * * * * * * //

dimensions      [0 1 0 0 0 0 0];


internalField   nonuniform List<vector> 
5097
(
(2.02866e-11 9.51914e-12 -1.13445e-12)
(1.88129e-11 8.8549e-12 -2.27572e-12)
(1.29654e-11 1.09708e-11 -5.67431e-12)
(2.10516e-11 9.68074e-12 -9.90906e-13)
(1.96398e-11 9.23477e-12 -1.48464e-12)
(1.7148e-11 8.49895e-12 -3.13632e-12)
(2.06768e-11 9.66183e-12 -8.83544e-13)
(-3.10694e-11 -2.37571e-12 -4.0541e-13)
(2.06124e-10 1.06653e-09 -4.78876e-12)
(1.99978e-11 9.3986e-12 -1.20666e-12)
(1.92642e-11 9.0519e-12 -1.8062e-12)
(-2.99689e-11 -3.11047e-12 -7.61135e-13)
(1.85607e-10 1.02726e-09 -6.41263e-12)
(1.82102e-11 8.65622e-12 -2.82152e-12)
(1.5638e-11 8.61771e-12 -3.06512e-12)
(-3.15817e-11 -5.62287e-12 -2.98101e-12)
(1.41793e-10 9.19355e-10 1.30661e-10)
(3.34307e-12 5.18786e-12 -1.0991e-11)
(2.19171e-10 1.07928e-09 -2.56189e-12)
(-3.15501e-11 -1.98866e-12 -2.77118e-13)
(1.97049e-10 1.05095e-09 -6.28735e-12)
(-3.06584e-11 -2.71664e-12 -5.48219e-13)
(1.64205e-10 9.86413e-10 9.79575e-12)
(-2.89849e-11 -3.96137e-12 -1.43175e-12)
(2.01677e-10 1.05948e-09 -5.25387e-12)
(1.76768e-10 1.00938e-09 -2.84137e-12)
(1.96066e-10 7.54844e-10 2.77434e-10)
(2.1173e-10 1.07385e-09 -2.92027e-12)
(1.91993e-10 1.04065e-09 -6.77151e-12)
(1.49637e-10 9.59505e-10 4.55897e-11)
(-3.08821e-11 -2.5405e-12 -4.51532e-13)
(-2.931e-11 -3.37063e-12 -1.06076e-12)
(-2.09593e-11 -1.56234e-13 -4.36302e-12)
(-3.13238e-11 -2.19128e-12 -3.68609e-13)
(-3.04032e-11 -2.91425e-12 -6.53578e-13)
(-2.95232e-11 -4.96023e-12 -1.75794e-12)
(1.02274e-10 3.76478e-10 -3.75122e-12)
(8.35819e-11 3.5781e-10 -5.2676e-12)
(4.5926e-11 3.22876e-10 6.98656e-11)
(1.06187e-10 3.7976e-10 -2.98363e-12)
(8.97122e-11 3.64327e-10 -5.62401e-12)
(4.32843e-11 3.33811e-10 3.12082e-11)
(1.18603e-10 3.8589e-10 -1.43567e-14)
(9.84849e-11 3.73317e-10 -4.43825e-12)
(7.38955e-11 3.49505e-10 -2.25909e-12)
(1.37078e-10 2.23643e-10 1.52428e-10)
(1.11596e-10 3.81914e-10 -1.88934e-12)
(9.44568e-11 3.69276e-10 -5.16386e-12)
(5.92217e-11 3.40415e-10 7.96003e-12)
(2.05013e-11 9.63178e-12 -1.02057e-12)
(-4.16128e-11 3.09377e-12 -1.15152e-12)
(1.7545e-10 5.12065e-10 -4.13039e-12)
(2.01193e-11 9.435e-12 -1.15832e-12)
(1.90368e-11 8.9535e-12 -2.02289e-12)
(-4.11761e-11 2.3262e-12 -2.23529e-12)
(1.60427e-10 4.92077e-10 -6.71808e-12)
(1.85427e-11 8.75023e-12 -2.54667e-12)
(1.46685e-11 9.1096e-12 -3.52885e-12)
(-4.26241e-11 3.63403e-12 -4.86768e-12)
(1.30738e-10 4.42656e-10 6.70354e-11)
(8.97537e-12 1.58623e-11 -1.53528e-11)
(2.15759e-11 9.90375e-12 -7.21241e-13)
(2.07544e-11 9.59541e-12 -9.17325e-13)
(1.85003e-10 5.18683e-10 -2.25086e-12)
(-4.15633e-11 3.36285e-12 -1.08566e-12)
(1.98198e-11 9.32894e-12 -1.33252e-12)
(1.94481e-11 9.13557e-12 -1.63214e-12)
(1.68748e-10 5.04059e-10 -5.56058e-12)
(-4.15102e-11 2.76561e-12 -1.49101e-12)
(1.77312e-11 8.55929e-12 -3.03194e-12)
(1.64314e-11 8.48208e-12 -3.10303e-12)
(1.45382e-10 4.72286e-10 1.47096e-12)
(-4.11035e-11 1.64427e-12 -3.38014e-12)
(8.46217e-13 4.99586e-12 7.22109e-12)
(2.67756e-10 7.32595e-10 -3.78065e-12)
(1.65487e-10 2.12232e-10 -2.5697e-12)
(2.33661e-10 6.91914e-10 9.58777e-14)
(1.3418e-10 1.96984e-10 -1.3855e-12)
(2.2379e-10 5.72424e-10 2.03288e-10)
(8.17174e-11 1.59139e-10 5.8675e-11)
(2.80385e-10 7.43965e-10 -1.41397e-12)
(1.77211e-10 2.16857e-10 -1.00397e-12)
(2.54847e-10 7.17447e-10 -4.7176e-12)
(1.53195e-10 2.06262e-10 -3.39714e-12)
(1.89767e-10 6.5569e-10 4.05853e-11)
(8.75673e-11 1.84297e-10 1.5177e-11)
(1.7948e-10 5.15512e-10 -3.12704e-12)
(-4.16199e-11 3.26573e-12 -9.73547e-13)
(1.7101e-10 2.14667e-10 -1.94325e-12)
(-3.08888e-11 -2.45047e-12 -4.33998e-13)
(-3.10859e-11 -2.28506e-12 -3.84076e-13)
(2.73619e-10 7.38162e-10 -3.03604e-12)
(2.03937e-10 1.06241e-09 -4.89786e-12)
(2.08837e-10 1.07111e-09 -4.20116e-12)
(1.72139e-10 5.08336e-10 -4.70069e-12)
(-4.15707e-11 2.95272e-12 -1.2319e-12)
(1.65025e-10 4.98791e-10 -6.32182e-12)
(-4.14076e-11 2.55864e-12 -1.79958e-12)
(1.453e-10 2.02211e-10 -3.05737e-12)
(-2.95518e-11 -3.21065e-12 -8.71493e-13)
(-3.01353e-11 -3.00852e-12 -7.09458e-13)
(2.46125e-10 7.06513e-10 -3.8222e-12)
(1.81665e-10 1.01878e-09 -5.30836e-12)
(1.89072e-10 1.03432e-09 -6.83406e-12)
(1.54164e-10 4.83254e-10 -5.38209e-12)
(-4.08735e-11 2.05105e-12 -2.87653e-12)
(1.35482e-10 4.60004e-10 2.17686e-11)
(-4.20944e-11 1.31287e-12 -3.33263e-12)
(6.1367e-11 1.80632e-10 3.13121e-11)
(-3.24694e-11 -4.96133e-12 -4.61321e-12)
(-3.05097e-11 -5.49946e-12 -2.14333e-12)
(1.71302e-10 6.43251e-10 1.01901e-10)
(1.52681e-10 8.69419e-10 1.97209e-10)
(1.43641e-10 9.43193e-10 7.97306e-11)
(1.5947e-10 3.55418e-10 1.71518e-10)
(-1.87948e-11 2.9995e-12 -8.62664e-12)
(2.25619e-10 1.08729e-09 -6.72211e-13)
(2.89562e-10 7.48153e-10 3.82204e-13)
(2.14931e-10 1.07438e-09 -2.30757e-12)
(1.85252e-10 2.19181e-10 8.46873e-13)
(-3.16506e-11 -1.88777e-12 -2.90048e-13)
(-3.13385e-11 -2.07082e-12 -3.51544e-13)
(1.99441e-10 1.0555e-09 -5.85539e-12)
(2.61746e-10 7.25753e-10 -4.50518e-12)
(1.94702e-10 1.04581e-09 -6.57759e-12)
(1.59802e-10 2.09552e-10 -3.10993e-12)
(-3.06747e-11 -2.61932e-12 -4.96596e-13)
(-3.04534e-11 -2.80828e-12 -6.04369e-13)
(1.71013e-10 9.98391e-10 1.64833e-12)
(2.14794e-10 6.73713e-10 1.17023e-11)
(1.56929e-10 9.73207e-10 2.33554e-11)
(1.15009e-10 1.90337e-10 3.74701e-12)
(-2.9027e-11 -3.6119e-12 -1.2653e-12)
(-2.90189e-11 -4.41146e-12 -1.5873e-12)
(3.0897e-10 5.91575e-10 3.73722e-10)
(-5.82564e-12 2.21567e-12 8.51145e-13)
(1.04145e-10 3.78081e-10 -3.43384e-12)
(1.73737e-10 5.10065e-10 -4.40908e-12)
(1.68444e-10 2.1347e-10 -2.30596e-12)
(2.70731e-10 7.35167e-10 -3.38478e-12)
(1.00358e-10 3.74997e-10 -4.05864e-12)
(8.68938e-11 3.61296e-10 -5.61227e-12)
(1.5757e-10 4.87925e-10 -6.42266e-12)
(1.40611e-10 1.99771e-10 -2.45995e-12)
(2.40557e-10 6.99696e-10 -2.45439e-12)
(7.93334e-11 3.53878e-10 -4.31108e-12)
(3.9678e-11 3.31407e-10 4.83632e-11)
(1.37082e-10 4.18063e-10 1.05148e-10)
(5.33484e-11 1.71692e-10 4.09736e-11)
(1.81762e-10 6.28369e-10 1.47818e-10)
(7.47927e-11 2.92681e-10 1.03684e-10)
(1.77385e-10 5.14106e-10 -3.67307e-12)
(1.08633e-10 3.81011e-10 -2.43109e-12)
(1.73983e-10 2.15714e-10 -1.49648e-12)
(2.76716e-10 7.41755e-10 -2.4535e-12)
(1.62863e-10 4.95654e-10 -6.61523e-12)
(9.21773e-11 3.66969e-10 -5.4389e-12)
(1.49589e-10 2.04352e-10 -3.34797e-12)
(2.5081e-10 7.12392e-10 -4.5069e-12)
(1.31706e-10 4.53026e-10 4.04829e-11)
(5.07916e-11 3.366e-10 1.77073e-11)
(7.32624e-11 1.8274e-10 2.31969e-11)
(1.77617e-10 6.48734e-10 6.60738e-11)
(2.9563e-10 7.54752e-10 2.26098e-12)
(1.89727e-10 2.19583e-10 2.07987e-12)
(1.89282e-10 5.21348e-10 -1.0189e-12)
(1.14698e-10 3.83606e-10 -1.18175e-12)
(2.6481e-10 7.2946e-10 -4.20736e-12)
(1.62885e-10 2.10954e-10 -2.84609e-12)
(1.70469e-10 5.06352e-10 -5.11454e-12)
(9.6517e-11 3.7139e-10 -4.82516e-12)
(2.25137e-10 6.83097e-10 4.44716e-12)
(1.25852e-10 1.93783e-10 5.42658e-13)
(1.50067e-10 4.7797e-10 -3.03486e-12)
(6.71108e-11 3.44916e-10 1.57419e-12)
(3.16705e-10 4.70279e-10 2.88686e-10)
(1.45052e-10 1.21489e-10 8.39204e-11)
(2.28796e-10 2.46214e-10 2.8151e-10)
(1.81808e-10 5.16504e-10 -2.74186e-12)
(2.84786e-10 7.44665e-10 -3.96591e-13)
(1.81501e-10 2.18207e-10 -3.14318e-13)
(1.66948e-10 5.01508e-10 -5.96272e-12)
(2.58486e-10 7.21787e-10 -4.69251e-12)
(1.56797e-10 2.0797e-10 -3.30817e-12)
(1.40335e-10 4.66214e-10 9.25947e-12)
(2.0278e-10 6.64179e-10 2.31024e-11)
(1.02163e-10 1.86978e-10 8.57062e-12)
(-4.15541e-11 3.01049e-12 -1.17448e-12)
(-4.09728e-11 2.19807e-12 -2.52838e-12)
(-4.20773e-11 7.69769e-12 -1.13243e-11)
(-4.16284e-11 3.20335e-12 -1.0789e-12)
(-4.12956e-11 2.44339e-12 -1.99943e-12)
(-4.27706e-11 1.6333e-12 -3.56342e-12)
(-4.164e-11 3.59361e-12 -1.00063e-12)
(-4.15225e-11 2.8674e-12 -1.35165e-12)
(-4.08875e-11 1.85699e-12 -3.18876e-12)
(-3.01538e-12 2.05762e-12 7.84411e-13)
(-4.14973e-11 3.25972e-12 -9.87647e-13)
(-4.14414e-11 2.65962e-12 -1.63358e-12)
(-4.14812e-11 1.42468e-12 -3.40612e-12)
(1.96116e-10 4.19465e-10 -3.40391e-12)
(1.99011e-10 4.21343e-10 -3.01086e-12)
(1.65568e-10 3.95379e-10 -2.4383e-12)
(1.71431e-10 3.99929e-10 -3.72788e-12)
(1.20313e-10 3.5598e-10 1.07173e-10)
(9.9368e-11 3.68598e-10 7.67664e-11)
(2.04968e-10 4.25061e-10 -1.88757e-12)
(2.018e-10 4.2326e-10 -2.52602e-12)
(1.80303e-10 4.0731e-10 -4.60209e-12)
(1.76195e-10 4.03874e-10 -4.37912e-12)
(1.11212e-10 3.70572e-10 3.45661e-11)
(1.00932e-10 3.69429e-10 5.31845e-11)
(2.2447e-10 4.32248e-10 3.17574e-12)
(2.17972e-10 4.30293e-10 1.40605e-12)
(4.55182e-10 1.11953e-09 3.49305e-12)
(4.63598e-10 1.12753e-09 3.93398e-12)
(1.0774e-10 6.41489e-11 1.37557e-12)
(1.11382e-10 6.37879e-11 2.32776e-12)
(9.64493e-11 6.3872e-11 -6.96651e-13)
(9.45697e-11 6.3633e-11 -9.12946e-13)
(4.33538e-10 1.09815e-09 -2.0609e-12)
(4.3059e-10 1.09468e-09 -2.64346e-12)
(1.93247e-10 4.17544e-10 -3.74981e-12)
(1.90367e-10 4.15365e-10 -4.1161e-12)
(4.24322e-10 1.08607e-09 -2.94048e-12)
(4.27608e-10 1.09103e-09 -2.80299e-12)
(9.07234e-11 6.30527e-11 -1.18031e-12)
(9.27296e-11 6.33635e-11 -9.97314e-13)
(7.85458e-11 6.10999e-11 -8.37316e-13)
(7.51077e-11 6.06774e-11 -3.58652e-13)
(4.0305e-10 1.05206e-09 -5.10909e-14)
(3.96488e-10 1.04173e-09 2.58369e-12)
(1.58102e-10 3.90273e-10 -7.02697e-14)
(1.4867e-10 3.84656e-10 4.00397e-12)
(3.78849e-10 1.01679e-09 1.40564e-11)
(3.88546e-10 1.03013e-09 7.01667e-12)
(6.30058e-11 5.96769e-11 1.89461e-12)
(7.0075e-11 6.01922e-11 5.51992e-13)
(1.44883e-11 5.61308e-11 1.19241e-11)
(2.96213e-11 4.86206e-11 1.16479e-11)
(3.12128e-10 9.34297e-10 1.72803e-10)
(3.16379e-10 8.76173e-10 2.54173e-10)
(1.73088e-10 3.07964e-10 1.56157e-10)
(3.62849e-10 7.51909e-10 3.33456e-10)
(6.20179e-11 3.62685e-11 1.46376e-11)
(2.09143e-10 4.26573e-10 -1.13058e-12)
(2.13752e-10 4.28206e-10 -5.13968e-14)
(9.82358e-11 6.40463e-11 -5.25823e-13)
(1.00326e-10 6.42042e-11 -1.62339e-13)
(4.36995e-10 1.10326e-09 -1.45915e-12)
(4.40795e-10 1.10813e-09 -1.2098e-12)
(4.48298e-10 1.11019e-09 1.28207e-12)
(4.44225e-10 1.109e-09 -7.42155e-13)
(1.05242e-10 6.44144e-11 7.12419e-13)
(1.02624e-10 6.43353e-11 1.51888e-13)
(1.83958e-10 4.10278e-10 -4.58708e-12)
(1.87308e-10 4.12949e-10 -4.40007e-12)
(8.12218e-11 6.15046e-11 -1.18281e-12)
(8.38906e-11 6.1943e-11 -1.25861e-12)
(4.08489e-10 1.06085e-09 -1.65839e-12)
(4.13178e-10 1.06855e-09 -2.51039e-12)
(4.20887e-10 1.08065e-09 -3.01498e-12)
(4.17231e-10 1.07495e-09 -2.97413e-12)
(8.86933e-11 6.2743e-11 -1.22561e-12)
(8.63113e-11 6.23322e-11 -1.32738e-12)
(7.78304e-11 1.26501e-09 6.72914e-13)
(7.0142e-11 1.23751e-09 1.27621e-11)
(7.42463e-11 1.25261e-09 5.21365e-12)
(4.91852e-11 1.14038e-09 1.38506e-10)
(5.35281e-11 1.17607e-09 8.14847e-11)
(6.52699e-11 1.22093e-09 2.55656e-11)
(5.98189e-11 1.20016e-09 4.65646e-11)
(1.24327e-10 3.73938e-10 2.0496e-11)
(1.37267e-10 3.79001e-10 1.05683e-11)
(1.80592e-11 5.84229e-11 1.12241e-11)
(3.03514e-11 5.88058e-11 9.13055e-12)
(3.23533e-10 9.56732e-10 1.11493e-10)
(3.39256e-10 9.73396e-10 6.99999e-11)
(3.67451e-10 1.00278e-09 2.52809e-11)
(3.54089e-10 9.87775e-10 4.27684e-11)
(5.40787e-11 5.92463e-11 3.90588e-12)
(4.29367e-11 5.89387e-11 6.40221e-12)
(4.87197e-11 1.08506e-09 2.28619e-10)
(6.42843e-11 9.70246e-10 3.55587e-10)
(1.34653e-10 7.8068e-10 4.78907e-10)
(3.37846e-10 5.26409e-10 -2.68204e-12)
(2.50199e-10 2.77648e-10 -2.28498e-12)
(2.97907e-10 4.93006e-10 2.25112e-12)
(2.11475e-10 2.57743e-10 1.1588e-12)
(2.70262e-10 4.19674e-10 1.68909e-10)
(1.74458e-10 2.21251e-10 9.46087e-11)
(3.52175e-10 5.35922e-10 -3.84671e-13)
(2.64385e-10 2.83514e-10 -1.81622e-13)
(3.22795e-10 5.13907e-10 -3.20993e-12)
(2.35366e-10 2.6996e-10 -2.89437e-12)
(2.46184e-10 4.63622e-10 3.78134e-11)
(1.5877e-10 2.41054e-10 2.61898e-11)
(-3.01623e-12 2.75373e-12 -4.38216e-14)
(5.46682e-11 1.16732e-10 -1.43587e-12)
(-3.37399e-11 3.16004e-12 -3.77074e-13)
(-3.38829e-11 3.26105e-12 -4.24837e-13)
(2.48855e-10 1.278e-09 -3.24581e-12)
(2.2308e-10 9.30773e-10 -3.99939e-12)
(2.05001e-10 1.0643e-09 -4.88548e-12)
(2.0742e-10 1.06888e-09 -4.56503e-12)
(2.1815e-10 1.08592e-09 -4.87239e-12)
(-3.45285e-12 2.25336e-12 -7.55311e-14)
(4.11862e-11 1.09559e-10 -2.3988e-12)
(-3.19728e-11 2.13215e-12 -7.34139e-13)
(-3.23552e-11 2.28103e-12 -7.32977e-13)
(2.27219e-10 1.23116e-09 -3.32288e-12)
(1.99622e-10 8.94336e-10 -5.25135e-12)
(1.83718e-10 1.02322e-09 -6.01398e-12)
(1.87405e-10 1.03091e-09 -6.65333e-12)
(1.99671e-10 1.04668e-09 -6.36573e-12)
(-7.4712e-12 3.05402e-13 -4.22797e-13)
(-9.45922e-12 9.50981e-11 1.2206e-11)
(-3.16464e-11 -1.27047e-12 -2.34355e-12)
(-3.14022e-11 -1.08537e-12 -1.83365e-12)
(1.68936e-10 1.09595e-09 1.54329e-10)
(1.40281e-10 8.08085e-10 1.1732e-10)
(1.44765e-10 8.99809e-10 1.62094e-10)
(1.41905e-10 9.32465e-10 1.03034e-10)
(1.69819e-10 9.21927e-10 1.46789e-10)
(2.62533e-10 1.29287e-09 -3.13143e-13)
(2.22155e-10 1.08346e-09 -2.05548e-12)
(2.37306e-10 9.42249e-10 -1.25668e-12)
(2.30606e-10 1.09928e-09 -2.86489e-12)
(2.16812e-10 1.07602e-09 -2.50643e-12)
(-2.81669e-12 2.98903e-12 -6.89635e-16)
(6.21117e-11 1.19383e-10 1.44537e-13)
(-3.46219e-11 3.76916e-12 -3.11815e-13)
(-3.44728e-11 3.65669e-12 -2.79531e-13)
(2.3928e-10 1.25952e-09 -4.51649e-12)
(1.98249e-10 1.0533e-09 -6.05994e-12)
(2.12846e-10 9.16449e-10 -5.49782e-12)
(2.09804e-10 1.07021e-09 -6.28155e-12)
(1.95894e-10 1.04843e-09 -6.48189e-12)
(-3.22401e-12 2.53366e-12 -6.7154e-14)
(4.87141e-11 1.13755e-10 -2.20005e-12)
(-3.32533e-11 2.82249e-12 -5.44679e-13)
(-3.3078e-11 2.70064e-12 -5.28164e-13)
(2.04117e-10 1.18122e-09 1.62576e-11)
(1.67726e-10 9.92481e-10 5.22564e-12)
(1.73685e-10 8.56596e-10 1.07073e-11)
(1.82259e-10 1.00555e-09 1.05649e-11)
(1.60591e-10 9.80055e-10 1.57029e-11)
(-4.0345e-12 1.66251e-12 -1.26936e-13)
(2.46394e-11 1.02786e-10 3.57769e-13)
(-3.06999e-11 1.31227e-12 -1.26134e-12)
(-3.0344e-11 8.42041e-13 -1.32572e-12)
(2.29201e-10 1.08882e-09 1.66291e-12)
(3.62342e-10 5.40308e-10 2.22875e-12)
(2.7458e-10 2.86544e-10 2.15707e-12)
(2.5695e-10 2.80774e-10 -1.53714e-12)
(3.44592e-10 5.31262e-10 -1.85184e-12)
(2.18039e-10 9.24366e-10 -4.59878e-12)
(2.14089e-10 1.07863e-09 -5.33536e-12)
(2.02824e-10 1.06097e-09 -4.98819e-12)
(2.4413e-10 1.2698e-09 -3.9606e-12)
(2.00565e-10 1.05767e-09 -5.59058e-12)
(3.30892e-10 5.20804e-10 -3.20905e-12)
(2.43362e-10 2.74217e-10 -2.80198e-12)
(2.25524e-10 2.6467e-10 -2.02074e-12)
(3.12551e-10 5.04974e-10 -1.9683e-12)
(1.89172e-10 8.77611e-10 -1.51462e-12)
(1.92172e-10 1.02892e-09 -2.66577e-12)
(1.79341e-10 1.01421e-09 -4.23415e-12)
(2.17841e-10 1.20952e-09 1.60047e-12)
(1.74002e-10 1.00413e-09 -9.60515e-13)
(2.75697e-10 4.77904e-10 1.32733e-11)
(1.89082e-10 2.48903e-10 9.36406e-12)
(1.34231e-10 2.39575e-10 5.25988e-11)
(2.23969e-10 4.58659e-10 8.49006e-11)
(1.96051e-10 6.91903e-10 2.38323e-10)
(2.19678e-10 7.24042e-10 3.40477e-10)
(1.68347e-10 8.21959e-10 2.35816e-10)
(2.03856e-10 9.10759e-10 3.30229e-10)
(2.39418e-10 6.70049e-10 3.21584e-10)
(2.23574e-10 1.09306e-09 -3.40525e-12)
(2.29143e-10 9.3755e-10 -2.18624e-12)
(2.10265e-10 1.07295e-09 -3.61653e-12)
(2.13289e-10 1.07409e-09 -2.40625e-12)
(2.54693e-10 1.28713e-09 -2.13234e-12)
(2.05307e-10 1.0599e-09 -6.75594e-12)
(2.07008e-10 9.06886e-10 -5.86191e-12)
(1.90574e-10 1.03766e-09 -6.876e-12)
(1.93389e-10 1.04331e-09 -6.64427e-12)
(2.33939e-10 1.24724e-09 -4.58578e-12)
(1.72442e-10 9.74834e-10 4.89463e-11)
(1.53691e-10 8.33822e-10 4.34917e-11)
(1.4637e-10 9.52108e-10 6.08317e-11)
(1.5324e-10 9.66332e-10 3.32563e-11)
(1.86383e-10 1.14754e-09 5.5846e-11)
(-3.48914e-11 3.95632e-12 -3.19888e-13)
(5.17521e-11 1.15316e-10 -1.81894e-12)
(-3.35981e-11 3.04999e-12 -4.70824e-13)
(-3.11951e-12 2.64805e-12 -4.97861e-14)
(-3.34197e-11 2.93847e-12 -4.28318e-13)
(3.57185e-11 1.06637e-10 -1.86232e-12)
(-3.15283e-11 1.94595e-12 -9.29595e-13)
(-3.51166e-12 2.06705e-12 -1.03076e-13)
(-3.10945e-11 1.68022e-12 -1.06197e-12)
(1.8916e-11 8.14544e-11 2.23986e-11)
(-3.00207e-11 -2.29609e-13 -2.81289e-12)
(-3.43007e-12 1.60112e-12 -8.49884e-13)
(-1.49319e-11 4.49351e-12 -4.85286e-12)
(5.79384e-11 1.18033e-10 -9.18948e-13)
(-3.40611e-11 3.37596e-12 -3.38791e-13)
(-3.42976e-11 3.51507e-12 -4.0297e-13)
(-2.93609e-12 2.85724e-12 -2.16315e-14)
(4.5175e-11 1.11858e-10 -2.46581e-12)
(-3.26405e-11 2.42644e-12 -6.26894e-13)
(-3.28808e-11 2.56621e-12 -6.4402e-13)
(-3.35813e-12 2.39619e-12 -7.83676e-14)
(7.07707e-12 9.89319e-11 5.74572e-12)
(-3.04715e-11 -4.13167e-13 -1.50216e-12)
(-3.02087e-11 2.60174e-13 -1.43068e-12)
(-5.2865e-12 9.74041e-13 -1.55746e-13)
(1.01717e-10 3.80878e-10 -3.65174e-12)
(1.17838e-10 2.88422e-10 -3.22996e-12)
(1.69099e-10 5.66489e-10 -4.09555e-12)
(9.98138e-11 3.79361e-10 -3.96212e-12)
(8.37733e-11 3.63097e-10 -5.58885e-12)
(9.55802e-11 2.72727e-10 -4.2397e-12)
(1.44119e-10 5.39161e-10 -4.89942e-12)
(8.0027e-11 3.5935e-10 -4.99543e-12)
(3.92626e-11 3.32317e-10 5.88209e-11)
(3.67893e-11 2.50162e-10 5.576e-11)
(9.82813e-11 4.86649e-10 1.10885e-10)
(5.58059e-11 3.16223e-10 8.47906e-11)
(1.03644e-10 3.82571e-10 -3.28665e-12)
(1.05869e-10 3.84118e-10 -2.75625e-12)
(1.22372e-10 2.91049e-10 -2.42353e-12)
(1.74173e-10 5.7137e-10 -3.18344e-12)
(8.6807e-11 3.66374e-10 -5.74676e-12)
(8.94422e-11 3.69236e-10 -5.62962e-12)
(1.02829e-10 2.78144e-10 -4.77782e-12)
(1.52452e-10 5.48824e-10 -5.93875e-12)
(3.89607e-11 3.36158e-10 3.95763e-11)
(4.50682e-11 3.38576e-10 2.4106e-11)
(4.34979e-11 2.54378e-10 2.67781e-11)
(9.18409e-11 5.02509e-10 4.93497e-11)
(1.19959e-10 3.90235e-10 6.8701e-13)
(1.90363e-10 5.80668e-10 7.97713e-13)
(1.36031e-10 2.95821e-10 8.17421e-13)
(1.15033e-10 3.88465e-10 -7.12113e-13)
(4.98151e-10 8.9091e-10 4.87318e-12)
(2.90667e-10 1.34128e-10 4.13754e-12)
(2.6375e-10 1.32005e-10 -8.50126e-13)
(4.68715e-10 8.6672e-10 -2.10498e-12)
(9.79161e-11 3.778e-10 -4.29922e-12)
(1.64082e-10 5.61957e-10 -4.92975e-12)
(1.13347e-10 2.85671e-10 -3.85607e-12)
(9.5996e-11 3.75967e-10 -4.70873e-12)
(4.62076e-10 8.60027e-10 -2.60358e-12)
(2.56481e-10 1.30514e-10 -1.3072e-12)
(2.26822e-10 1.24055e-10 2.29174e-13)
(4.32739e-10 8.24402e-10 1.28329e-12)
(7.51948e-11 3.55172e-10 -3.55688e-12)
(1.31292e-10 5.26721e-10 8.94086e-15)
(8.38225e-11 2.65826e-10 -1.38833e-12)
(6.90491e-11 3.50627e-10 -6.93577e-13)
(4.14554e-10 8.04206e-10 9.89903e-12)
(2.07453e-10 1.20741e-10 4.48566e-12)
(1.03494e-10 9.90893e-11 3.17115e-11)
(3.4195e-10 7.34518e-10 1.76629e-10)
(9.72966e-11 2.69554e-10 1.2475e-10)
(2.17995e-10 3.52434e-10 2.41686e-10)
(1.27304e-10 1.79312e-10 1.12296e-10)
(1.72489e-10 2.48874e-10 2.07495e-10)
(6.37821e-11 1.00454e-10 7.77566e-11)
(4.41175e-10 5.60005e-10 3.21856e-10)
(2.029e-10 4.40458e-11 4.20357e-11)
(1.08618e-10 3.85095e-10 -2.21513e-12)
(1.11688e-10 3.86243e-10 -1.61299e-12)
(1.81358e-10 5.7421e-10 -1.55957e-12)
(1.28688e-10 2.93303e-10 -1.32561e-12)
(2.70974e-10 1.33201e-10 -4.6216e-14)
(4.76204e-10 8.74741e-10 -9.17429e-13)
(4.83661e-10 8.77726e-10 6.52935e-13)
(2.8042e-10 1.34341e-10 1.4667e-12)
(9.18111e-11 3.71713e-10 -5.39392e-12)
(9.39861e-11 3.73931e-10 -5.06998e-12)
(1.58782e-10 5.56058e-10 -5.65507e-12)
(1.0852e-10 2.8229e-10 -4.48941e-12)
(2.388e-10 1.26462e-10 -1.22808e-12)
(4.45184e-10 8.39658e-10 -1.89429e-12)
(4.54399e-10 8.5087e-10 -2.76921e-12)
(2.48408e-10 1.28669e-10 -1.49563e-12)
(5.33179e-11 3.41829e-10 1.23974e-11)
(6.16332e-11 3.46054e-10 4.35479e-12)
(1.12321e-10 5.12896e-10 1.49074e-11)
(6.52779e-11 2.5843e-10 7.65803e-12)
(1.40095e-10 1.13145e-10 2.44581e-11)
(3.56986e-10 7.59707e-10 7.80954e-11)
(3.88696e-10 7.806e-10 3.08017e-11)
(1.76934e-10 1.16567e-10 1.2932e-11)
(3.00924e-10 2.08734e-10 3.73885e-10)
(1.31515e-10 1.00832e-10 1.67934e-10)
(-1.13602e-12 3.08902e-12 2.68648e-12)
(3.18158e-12 7.70632e-12 1.43062e-11)
(2.99722e-10 7.5628e-10 4.06849e-12)
(3.68528e-10 5.43572e-10 4.30551e-12)
(2.79369e-10 2.86808e-10 4.09299e-12)
(1.93437e-10 2.20333e-10 2.59803e-12)
(2.53618e-10 2.79246e-10 -1.96396e-12)
(3.41255e-10 5.2882e-10 -2.31739e-12)
(2.69262e-10 7.33907e-10 -3.57173e-12)
(1.66566e-10 5.64392e-10 -4.47024e-12)
(4.65528e-10 8.63753e-10 -2.45217e-12)
(2.66307e-10 7.31135e-10 -4.00034e-12)
(3.34452e-10 5.23775e-10 -2.98979e-12)
(2.46864e-10 2.76013e-10 -2.57509e-12)
(1.67246e-10 2.12973e-10 -2.48067e-12)
(1.15547e-10 2.87113e-10 -3.52376e-12)
(2.59917e-10 1.31143e-10 -1.11074e-12)
(1.64476e-10 2.11721e-10 -2.70115e-12)
(2.19312e-10 2.61441e-10 -8.50118e-13)
(3.05995e-10 4.99401e-10 -4.09203e-13)
(2.37306e-10 6.95908e-10 -1.34633e-12)
(1.38439e-10 5.33294e-10 -3.20214e-12)
(4.24543e-10 8.14972e-10 4.58545e-12)
(2.2964e-10 6.87639e-10 1.98886e-12)
(2.87874e-10 4.85715e-10 6.55624e-12)
(2.01481e-10 2.53493e-10 4.39845e-12)
(1.37733e-10 1.98468e-10 -2.05013e-12)
(9.04805e-11 2.69471e-10 -3.29595e-12)
(2.18357e-10 1.2249e-10 1.9081e-12)
(1.30364e-10 1.9546e-10 -5.80041e-13)
(1.3599e-10 2.36937e-10 6.98272e-11)
(2.33529e-10 4.54538e-10 1.20545e-10)
(1.98435e-10 6.08367e-10 1.74256e-10)
(1.36918e-10 4.39953e-10 1.57863e-10)
(3.68683e-10 6.75131e-10 2.49317e-10)
(2.60834e-10 5.20527e-10 2.40757e-10)
(3.60601e-10 3.47945e-10 2.44263e-10)
(2.52337e-10 1.67154e-10 1.46021e-10)
(5.85476e-11 1.65401e-10 4.95008e-11)
(6.6461e-11 2.30433e-10 8.07557e-11)
(1.28023e-10 8.46599e-11 3.37647e-11)
(1.08836e-10 1.47376e-10 6.89348e-11)
(3.57144e-10 5.37802e-10 7.29628e-13)
(2.69718e-10 2.85329e-10 7.72837e-13)
(2.60235e-10 2.82059e-10 -9.44129e-13)
(3.48065e-10 5.33776e-10 -1.23137e-12)
(1.774e-10 5.7313e-10 -2.32305e-12)
(2.78481e-10 7.4317e-10 -1.96296e-12)
(2.82542e-10 7.44336e-10 -8.71284e-13)
(4.80062e-10 8.77368e-10 -5.28308e-13)
(1.25189e-10 2.92217e-10 -1.96081e-12)
(1.75854e-10 2.16403e-10 -1.25429e-12)
(1.79661e-10 2.17678e-10 -7.43855e-13)
(2.7507e-10 1.33609e-10 6.66238e-13)
(3.27049e-10 5.17532e-10 -3.30822e-12)
(2.39542e-10 2.72174e-10 -2.92615e-12)
(2.30769e-10 2.67479e-10 -2.64209e-12)
(3.18046e-10 5.09767e-10 -2.82412e-12)
(1.55766e-10 5.52705e-10 -5.87066e-12)
(2.52912e-10 7.15033e-10 -4.65425e-12)
(2.56726e-10 7.19675e-10 -4.72326e-12)
(4.50088e-10 8.45696e-10 -2.53135e-12)
(1.05766e-10 2.8036e-10 -4.68821e-12)
(1.51636e-10 2.05423e-10 -3.40004e-12)
(1.55235e-10 2.07225e-10 -3.40969e-12)
(2.43638e-10 1.27487e-10 -1.45769e-12)
(2.61514e-10 4.70102e-10 2.33128e-11)
(1.74551e-10 2.44463e-10 1.65164e-11)
(1.44167e-10 2.39642e-10 3.83506e-11)
(2.31879e-10 4.59568e-10 5.79183e-11)
(1.01452e-10 5.06971e-10 2.90811e-11)
(1.83394e-10 6.52043e-10 5.21625e-11)
(1.96336e-10 6.5969e-10 3.09985e-11)
(3.73214e-10 7.69502e-10 4.97912e-11)
(5.41283e-11 2.55689e-10 1.58963e-11)
(7.99028e-11 1.83438e-10 1.9028e-11)
(9.47719e-11 1.85557e-10 1.15977e-11)
(1.58356e-10 1.14621e-10 1.86345e-11)
(1.20025e-10 2.89766e-10 -2.86262e-12)
(1.70056e-10 2.1422e-10 -2.12949e-12)
(1.72786e-10 2.15345e-10 -1.76108e-12)
(2.6713e-10 1.32531e-10 -5.57733e-13)
(5.36098e-11 1.16055e-10 -1.65928e-12)
(-2.98948e-12 2.72061e-12 -5.01186e-14)
(5.65191e-11 1.17368e-10 -1.19237e-12)
(-2.86993e-12 2.8263e-12 -3.42983e-14)
(1.71555e-10 5.68832e-10 -3.75018e-12)
(2.72194e-10 7.3655e-10 -3.2183e-12)
(2.75131e-10 7.39953e-10 -2.79277e-12)
(4.7215e-10 8.7024e-10 -1.47458e-12)
(2.20586e-10 9.27142e-10 -4.20312e-12)
(2.16134e-10 1.08161e-09 -5.03556e-12)
(2.46502e-10 1.27307e-09 -3.59253e-12)
(2.20833e-10 1.09021e-09 -4.33944e-12)
(2.2592e-10 9.35063e-10 -3.42246e-12)
(2.51666e-10 1.28377e-09 -2.83776e-12)
(9.94786e-11 2.75633e-10 -4.65855e-12)
(1.43229e-10 2.01091e-10 -2.81119e-12)
(1.4766e-10 2.03388e-10 -3.28113e-12)
(2.33086e-10 1.2517e-10 -7.52765e-13)
(3.92246e-11 1.08211e-10 -2.20881e-12)
(-3.37914e-12 2.19657e-12 -7.95557e-14)
(4.35328e-11 1.1077e-10 -2.50029e-12)
(-3.34486e-12 2.34953e-12 -8.16615e-14)
(1.48641e-10 5.44347e-10 -5.67618e-12)
(2.43497e-10 7.03239e-10 -3.24763e-12)
(2.48571e-10 7.09542e-10 -4.22642e-12)
(4.39489e-10 8.32594e-10 -7.36893e-13)
(1.94954e-10 8.86447e-10 -4.01836e-12)
(1.96294e-10 1.03819e-09 -5.22236e-12)
(2.23029e-10 1.22087e-09 -1.59e-12)
(2.02729e-10 1.05357e-09 -6.80043e-12)
(2.03598e-10 9.01018e-10 -5.79592e-12)
(2.30853e-10 1.2396e-09 -4.23044e-12)
(3.60305e-11 2.54224e-10 3.96095e-11)
(5.57065e-11 1.77309e-10 3.52564e-11)
(6.62531e-11 1.82063e-10 2.72548e-11)
(1.23549e-10 1.10541e-10 2.90604e-11)
(-7.01818e-12 8.71662e-11 1.54447e-11)
(-7.46946e-12 6.54999e-13 -6.22668e-13)
(-2.83483e-12 9.74928e-11 9.26229e-12)
(-6.40411e-12 5.55312e-13 -2.54848e-13)
(8.77471e-11 4.98775e-10 7.65249e-11)
(1.73422e-10 6.38393e-10 1.23662e-10)
(1.73254e-10 6.4585e-10 8.26811e-11)
(3.43747e-10 7.5178e-10 1.18901e-10)
(1.51352e-10 7.75958e-10 1.7298e-10)
(1.80153e-10 8.58139e-10 2.31113e-10)
(1.70549e-10 1.03724e-09 2.37117e-10)
(1.69444e-10 9.53703e-10 8.71639e-11)
(1.44332e-10 8.22271e-10 7.36756e-11)
(1.76855e-10 1.12654e-09 9.46006e-11)
(2.43546e-10 9.50231e-10 6.16138e-13)
(2.68969e-10 1.30385e-09 9.60726e-13)
(2.37324e-10 1.10576e-09 -1.21967e-12)
(2.92341e-10 7.51463e-10 1.09369e-12)
(1.85408e-10 5.76818e-10 -8.47911e-13)
(4.89342e-10 8.81895e-10 3.04267e-12)
(2.87116e-10 7.45764e-10 -3.91267e-14)
(2.26428e-10 1.09424e-09 -2.95925e-12)
(2.581e-10 1.28702e-09 -1.20019e-12)
(2.3284e-10 9.37904e-10 -1.34711e-12)
(1.87692e-10 2.19567e-10 1.4621e-12)
(1.32054e-10 2.94556e-10 -2.69357e-13)
(2.85149e-10 1.34393e-10 2.37664e-12)
(1.83842e-10 2.18979e-10 2.36824e-13)
(6.46943e-11 1.19662e-10 7.24358e-13)
(-2.61054e-12 3.08352e-12 2.28424e-14)
(6.04718e-11 1.18827e-10 -5.26734e-13)
(-2.82589e-12 2.94819e-12 -2.16848e-14)
(2.15498e-10 9.20715e-10 -5.13065e-12)
(2.41779e-10 1.26499e-09 -4.29343e-12)
(2.12025e-10 1.07462e-09 -5.86033e-12)
(2.6331e-10 7.27637e-10 -4.3678e-12)
(1.61511e-10 5.59139e-10 -5.3337e-12)
(4.58329e-10 8.55567e-10 -2.74597e-12)
(2.60174e-10 7.23808e-10 -4.61432e-12)
(2.07717e-10 1.06496e-09 -6.57815e-12)
(2.36776e-10 1.25333e-09 -4.64488e-12)
(2.101e-10 9.11774e-10 -5.73768e-12)
(1.6162e-10 2.10383e-10 -3.02305e-12)
(1.1099e-10 2.8408e-10 -4.19883e-12)
(2.52425e-10 1.29522e-10 -1.45408e-12)
(1.58579e-10 2.08884e-10 -3.21978e-12)
(5.06418e-11 1.14586e-10 -2.01194e-12)
(-3.07728e-12 2.61192e-12 -5.84943e-14)
(4.73619e-11 1.12853e-10 -2.36581e-12)
(-3.21078e-12 2.48965e-12 -7.39938e-14)
(1.82125e-10 8.67466e-10 2.93489e-12)
(2.11612e-10 1.19602e-09 7.04046e-12)
(1.87555e-10 1.01776e-09 2.02023e-12)
(2.20201e-10 6.78415e-10 7.66504e-12)
(1.22508e-10 5.19786e-10 5.68745e-12)
(4.02615e-10 7.92614e-10 1.81196e-11)
(2.08993e-10 6.68962e-10 1.67778e-11)
(1.77083e-10 9.91135e-10 2.49097e-11)
(1.95665e-10 1.16474e-09 3.13424e-11)
(1.64042e-10 8.45053e-10 2.33585e-11)
(1.20701e-10 1.921e-10 1.90409e-12)
(7.53497e-11 2.62041e-10 2.06704e-12)
(1.93429e-10 1.18595e-10 8.10333e-12)
(1.08756e-10 1.8864e-10 5.90375e-12)
(3.12196e-11 1.04808e-10 -1.09897e-12)
(-3.65367e-12 1.91291e-12 -1.22307e-13)
(1.68209e-11 1.00751e-10 2.62764e-12)
(-4.47995e-12 1.36869e-12 -1.37716e-13)
(3.00413e-10 5.61941e-10 3.19169e-10)
(2.89969e-10 4.14605e-10 3.6026e-10)
(3.11394e-10 7.28096e-10 4.0643e-10)
(3.35029e-10 5.533e-10 4.64294e-10)
(5.32088e-11 6.28076e-11 3.86577e-11)
(-1.25293e-12 -1.22365e-12 4.68471e-12)
(-4.31836e-12 1.70087e-12 3.6e-13)
(9.16865e-11 1.07108e-10 1.14098e-10)
(1.7928e-10 7.83768e-11 2.3844e-10)
(1.97906e-10 4.19748e-10 -3.20374e-12)
(1.67333e-10 5.65961e-10 -4.29464e-12)
(1.15271e-10 2.89544e-10 -3.44373e-12)
(2.52057e-10 2.79004e-10 -2.11099e-12)
(3.39496e-10 5.27572e-10 -2.49285e-12)
(1.94989e-10 4.17886e-10 -3.5532e-12)
(1.17526e-10 2.90871e-10 -3.09144e-12)
(5.25458e-11 1.18212e-10 -1.50896e-12)
(1.69839e-10 5.68122e-10 -3.95425e-12)
(2.21825e-10 9.28802e-10 -4.11812e-12)
(2.00717e-10 4.21659e-10 -2.77224e-12)
(2.55487e-10 2.80614e-10 -1.7395e-12)
(3.42888e-10 5.29979e-10 -2.08359e-12)
(2.1933e-10 9.25791e-10 -4.3507e-12)
(5.10456e-11 1.17479e-10 -1.7962e-12)
(1.6903e-10 3.97112e-10 -3.16303e-12)
(1.40906e-10 5.36775e-10 -4.23079e-12)
(9.1761e-11 2.72843e-10 -3.95387e-12)
(2.15752e-10 2.60172e-10 8.1355e-14)
(3.02109e-10 4.96242e-10 7.91303e-13)
(1.6242e-10 3.92301e-10 -1.39181e-12)
(9.61963e-11 2.75944e-10 -4.56726e-12)
(3.86282e-11 1.10535e-10 -2.273e-12)
(1.45966e-10 5.42323e-10 -5.41115e-12)
(1.97404e-10 8.90563e-10 -4.76043e-12)
(1.74259e-10 4.01362e-10 -4.08755e-12)
(2.22708e-10 2.6365e-10 -1.46878e-12)
(3.09397e-10 5.02257e-10 -1.26454e-12)
(1.92224e-10 8.8215e-10 -2.93439e-12)
(3.59575e-11 1.09048e-10 -2.10249e-12)
(1.06157e-10 3.64768e-10 9.09e-11)
(1.13015e-10 4.7072e-10 1.31732e-10)
(4.57086e-11 2.45869e-10 6.72845e-11)
(1.48989e-10 2.32908e-10 8.10416e-11)
(2.49227e-10 4.4454e-10 1.42777e-10)
(1.43254e-10 3.35296e-10 1.26612e-10)
(3.31195e-11 2.55054e-10 4.71544e-11)
(-1.12346e-11 9.29043e-11 1.36509e-11)
(8.97361e-11 4.95164e-10 9.27445e-11)
(1.4299e-10 7.96149e-10 1.43824e-10)
(9.89332e-11 3.68972e-10 6.42431e-11)
(1.32554e-10 2.39238e-10 6.07631e-11)
(2.25462e-10 4.57731e-10 1.0156e-10)
(1.67977e-10 7.42341e-10 2.04548e-10)
(8.0004e-13 8.32873e-11 1.95572e-11)
(2.19403e-10 1.08815e-09 -4.62186e-12)
(2.22197e-10 1.09202e-09 -3.9233e-12)
(2.03597e-10 4.23544e-10 -2.20994e-12)
(1.75206e-10 5.72916e-10 -2.787e-12)
(1.22297e-10 2.93437e-10 -2.23392e-12)
(2.07225e-10 4.25187e-10 -1.50934e-12)
(2.6233e-10 2.83324e-10 -5.56293e-13)
(3.49977e-10 5.34889e-10 -8.22498e-13)
(1.19758e-10 2.92198e-10 -2.70374e-12)
(5.39483e-11 1.18883e-10 -1.3696e-12)
(1.72329e-10 5.70631e-10 -3.52943e-12)
(2.24451e-10 9.32947e-10 -3.78352e-12)
(2.58744e-10 2.82015e-10 -1.24332e-12)
(3.46231e-10 5.32466e-10 -1.55177e-12)
(2.27488e-10 9.36742e-10 -2.84712e-12)
(5.55997e-11 1.19529e-10 -1.0119e-12)
(2.17077e-10 1.08362e-09 -5.01342e-12)