/*--------------------------------*- C++ -*----------------------------------*\
| =========                 |                                                 |
| \\      /  F ield         | OpenFOAM: The Open Source CFD Toolbox           |
|  \\    /   O peration     | Version:  2012                                  |
|   \\  /    A nd           | Website:  www.openfoam.com                      |
|    \\/     M anipulation  |                                                 |
\*---------------------------------------------------------------------------*/
FoamFile
{
    version     2.0;
    format      ascii;
    class       volVectorField;
    location    "0.106/solid";
    object      sigmaMaxDir;
}
// * * * * * * * * * * * * * * * * * * * * * * * * * * * * * * * * * * * * * //

dimensions      [1 -1 -2 0 0 0 0];


internalField   nonuniform List<vector> 
3125
(
(0.997892 -0.0647134 0.00486558)
(0.998533 -0.0532611 0.00973952)
(0.992693 -0.0498586 0.109884)
(0.997803 -0.0659521 0.00625237)
(0.998447 -0.0552757 0.00694816)
(0.995509 -0.0352901 0.08784)
(0.997029 -0.0742831 0.0203862)
(0.998126 -0.0610378 0.00436559)
(0.998507 -0.0436135 0.032874)
(0.997331 -0.0717137 0.0137277)
(0.998201 -0.0598012 0.00438725)
(0.998274 -0.0392153 0.0437171)
(0.00271338 0.000368862 0.999996)
(-0.000900858 0.00486257 0.999988)
(0.987578 0.138847 0.0735618)
(0.997971 -0.0634981 0.00462165)
(0.00231201 -0.00203437 0.999995)
(0.987385 0.139094 0.07565)
(-7.35509e-05 0.00519306 0.999987)
(0.0164437 -0.0087352 0.999827)
(0.000829014 0.00711103 0.999974)
(0.986336 0.143215 0.0814354)
(0.998596 -0.0507379 0.0151937)
(0.00699437 -0.0045532 0.999965)
(0.984532 0.144661 0.0988387)
(0.011327 0.00465858 0.999925)
(0.313613 -0.190856 0.930172)
(0.565146 -0.079003 0.821199)
(0.984122 0.121479 0.129411)
(0.986366 -0.0976549 0.132457)
(0.205974 -0.155065 0.966193)
(0.986896 0.0617704 0.149067)
(0.996778 -0.042205 0.0682151)
(0.998429 0.0501338 0.025017)
(0.998453 0.0491175 0.0260446)
(0.00517202 -0.00381531 0.999979)
(0.997682 -0.0674942 0.0086634)
(0.00145274 0.00377405 0.999992)
(0.985715 0.138401 0.0959768)
(0.00306918 -0.000277127 0.999995)
(0.985787 0.137104 0.0970875)
(0.00498666 0.00237941 0.999985)
(0.998427 0.0503124 0.0247553)
(0.998517 0.0505862 0.0201148)
(0.998049 0.0537149 0.0318378)
(0.998177 0.0526287 0.0295347)
(0.00327401 -0.00212786 0.999992)
(0.99836 -0.0569692 0.00559434)
(-0.00122117 0.00777844 0.999969)
(0.986113 0.142656 0.0850262)
(0.00676651 -0.00217766 0.999975)
(0.987333 0.141521 0.0717348)
(-0.00290829 0.0079997 0.999964)
(0.99788 0.0541105 0.036165)
(0.997583 0.055511 0.0417972)
(0.995078 0.0432703 0.0891465)
(0.996649 0.054653 0.0608568)
(0.114126 -0.078858 0.990332)
(0.997016 -0.0326754 0.0699407)
(0.380552 -0.070254 0.922087)
(0.984194 0.130825 0.11936)
(0.198679 -0.143112 0.969559)
(0.984373 0.144201 0.101078)
(0.261813 -0.0524967 0.96369)
(0.993643 0.0356973 0.10677)
(0.988848 -0.00921711 0.148646)
(0.957017 0.13293 0.257776)
(0.0149998 -0.0035124 0.999881)
(0.00860135 -0.00614938 0.999944)
(0.00877691 0.00417386 0.999953)
(-0.0237183 0.00720229 0.999693)
(0.035007 -0.013643 0.999294)
(-0.0573649 0.0361704 0.997698)
(0.0033875 0.00144101 0.999993)
(0.0037962 0.000863703 0.999992)
(0.00195703 -0.00156822 0.999997)
(0.99805 -0.062257 0.00448547)
(0.987103 0.140135 0.0773976)
(-0.00188918 0.0065978 0.999976)
(0.987938 0.139399 0.0674217)
(0.00253312 0.000614071 0.999997)
(-0.00228843 0.00607779 0.999979)
(0.00398084 0.00164712 0.999991)
(0.00347067 0.00099028 0.999993)
(-0.0584846 0.0376655 0.997577)
(0.0279808 -0.00742201 0.999581)
(0.0238723 -0.00322585 0.99971)
(-0.0331531 0.0168695 0.999308)
(0.00698224 0.0019249 0.999974)
(0.0117072 0.00197112 0.99993)
(0.0180458 -0.0120054 0.999765)
(0.998601 -0.0475361 0.0231654)
(0.983642 0.146679 0.104564)
(0.0560802 -0.00695894 0.998402)
(0.984557 0.145319 0.0976203)
(0.041621 -0.0256136 0.998805)
(0.0279646 0.000414737 0.999609)
(0.0243149 0.000891495 0.999704)
(0.013521 0.00175817 0.999907)
(0.00937222 -0.0183964 0.999787)
(0.0454276 -0.0189752 0.998787)
(0.096412 -0.10201 0.9901)
(-0.0755877 -0.112978 0.990718)
(0.281754 -0.00704179 0.959461)
(0.382276 0.0387755 0.923234)
(0.427203 -0.175468 0.886966)
(0.911626 -0.270068 0.309842)
(0.993883 0.0197044 0.108667)
(0.905334 -0.193353 0.378135)
(0.24682 0.0904053 0.964835)
(0.13094 -0.195372 0.971949)
(0.99709 0.0482843 0.0589919)
(0.997642 0.0491301 0.0479305)
(0.998569 0.0490697 0.0212558)
(0.00655319 -0.00196511 0.999977)
(0.99752 -0.069493 0.0111174)
(0.973854 0.135867 0.182066)
(0.00929145 -0.00054086 0.999957)
(0.00751443 -0.00715286 0.999946)
(0.984625 0.136817 0.108603)
(0.010822 0.000477522 0.999941)
(-0.0540343 0.0329561 0.997995)
(0.0486955 -0.0251733 0.998496)
(0.00403266 0.00192943 0.99999)
(0.00452229 4.15236e-05 0.99999)
(0.00692046 0.00249438 0.999973)
(0.00514464 -0.000684617 0.999987)
(0.0744635 -0.0466505 0.996132)
(-0.0446518 0.0250773 0.998688)
(0.998403 0.051503 0.0232278)
(0.998421 0.0507733 0.0240521)
(0.998332 0.0516883 0.0257187)
(0.9983 0.0523434 0.0256215)
(0.00360989 -5.87946e-05 0.999993)
(0.998278 -0.0584607 0.00486544)
(0.987823 0.14046 0.0669019)
(-0.0031156 0.00734617 0.999968)
(0.00200081 -0.00132303 0.999997)
(0.986929 0.141101 0.0778592)
(-0.00194417 0.00755778 0.99997)
(-0.0525482 0.0326642 0.998084)
(0.021472 -0.000780159 0.999769)
(0.006564 0.00197987 0.999976)
(0.00468447 0.00160849 0.999988)
(0.00367895 0.00150401 0.999992)
(0.00475884 0.00159978 0.999987)
(0.0233599 -0.002868 0.999723)
(-0.0571612 0.037031 0.997678)
(0.0131992 0.00314184 0.999908)
(0.997062 0.0573055 0.05083)
(0.99734 0.0559858 0.0466769)
(0.0230194 0.00307579 0.99973)
(0.0152325 0.00330996 0.999879)
(0.996915 0.0575246 0.0534047)
(0.996865 0.0561813 0.055716)
(0.259982 0.013385 0.965521)
(0.0718903 0.000977771 0.997412)
(0.0275028 0.00286019 0.999618)
(0.0527423 0.00124419 0.998607)
(0.103779 -0.067647 0.992297)
(0.997827 -0.0350582 0.055785)
(0.984005 0.147034 0.100574)
(0.0977535 -0.0180395 0.995047)
(0.0462097 -0.0313219 0.998441)
(0.984097 0.145682 0.101641)
(0.165562 -0.0337902 0.98562)
(0.0495285 -0.0968946 0.994062)
(0.125723 -0.0870638 0.988238)
(0.213052 -0.00933268 0.976996)
(0.0822053 -0.00534397 0.996601)
(0.0293807 5.5158e-05 0.999568)
(0.0620758 -0.00346578 0.998065)
(0.0847214 -0.0501631 0.995141)
(0.0594554 -0.0666657 0.996002)
(0.431275 0.0323889 0.901639)
(0.735776 0.0843909 0.671947)
(0.863196 -0.365626 0.348154)
(0.990452 -0.0390148 0.132222)
(0.705417 0.109596 0.700268)
(0.986233 -0.161733 0.0344656)
(0.811469 -0.53191 0.242054)
(0.974276 -0.220657 0.0457894)
(0.900663 -0.381985 0.207106)
(0.768589 -0.57974 0.270505)
(0.966626 -0.250379 0.0542634)
(0.0409746 0.00204597 0.999158)
(0.00234954 -0.00164993 0.999996)
(0.0061131 0.0029389 0.999977)
(-0.000686718 0.00567239 0.999984)
(0.00608732 -0.000348441 0.999981)
(0.00274149 0.00081189 0.999996)
(-0.0109823 0.00882144 0.999901)
(-0.0114243 0.00867387 0.999897)
(0.00300013 0.00028977 0.999995)
(0.00531416 -0.000745387 0.999986)
(0.00197322 0.00100065 0.999998)
(0.0382128 0.00167927 0.999268)
(-0.000793473 0.00545635 0.999985)
(0.00577325 0.00287351 0.999979)
(0.0815591 0.0103535 0.996615)
(0.0112671 -0.00731255 0.99991)
(0.0186745 0.00363677 0.999819)
(0.00701348 0.00243099 0.999972)
(0.012703 -0.00166772 0.999918)
(0.0114937 0.00184271 0.999932)
(0.0200759 0.0138936 0.999702)
(0.00197635 0.0122959 0.999922)
(0.0104486 -0.00452033 0.999935)
(0.00876299 9.98746e-05 0.999962)
(0.00682922 0.00205866 0.999975)
(0.0639029 0.00813428 0.997923)
(0.00194031 0.00495246 0.999986)
(0.0125197 0.00415515 0.999913)
(0.97851 0.107142 0.176181)
(0.217769 -0.190871 0.957155)
(0.479591 0.000856916 0.877492)
(0.0413818 -0.149564 0.987886)
(0.197293 -0.140269 0.970258)
(0.326985 -0.0493651 0.943739)
(0.995049 0.0842626 0.0526964)
(0.975491 0.137321 0.171931)
(0.211436 -0.181474 0.960397)
(0.193852 -0.106668 0.975215)
(0.303786 -0.0343837 0.95212)
(0.937314 0.133717 0.32181)
(0.199056 -0.114672 0.973256)
(0.332599 -0.0408015 0.942185)
(-0.00649802 0.00839314 0.999944)
(0.00423647 -0.00105305 0.99999)
(0.00587762 -0.000199818 0.999983)
(0.00822616 -0.00256141 0.999963)
(0.0451732 0.000635063 0.998979)
(0.000752559 0.00399041 0.999992)
(0.00752774 0.00260915 0.999968)
(0.0390775 0.00138355 0.999235)
(0.00304746 -0.00289956 0.999991)
(-0.000695769 0.0048073 0.999988)
(0.00546053 0.00311489 0.99998)
(-0.0116756 0.008604 0.999895)
(0.00590639 -0.00160558 0.999981)
(0.00273119 0.00108364 0.999996)
(-0.0089827 0.0109841 0.999899)
(0.00482669 -0.000711143 0.999988)
(0.00348451 0.00195725 0.999992)
(0.00653229 0.00106755 0.999978)
(0.0506066 0.00576831 0.998702)
(-0.000853181 0.00667028 0.999977)
(0.00762801 0.00418384 0.999962)
(0.055899 0.00687932 0.998413)
(0.00472091 -0.00293181 0.999985)
(0.000128935 0.00608554 0.999981)
(0.00925769 0.00415726 0.999949)
(-0.00576733 0.0114445 0.999918)
(0.00762883 0.000847817 0.999971)
(0.00479027 0.00215893 0.999986)
(0.904614 0.160862 0.394712)
(0.152819 -0.103316 0.982839)
(0.139155 -0.0128603 0.990187)
(0.097741 -0.0544674 0.99372)
(0.796432 0.127794 0.591071)
(0.102543 -0.0612446 0.992841)
(0.184646 -0.0125098 0.982725)
(0.895602 0.142381 0.421456)
(0.164072 -0.116739 0.979516)
(0.141534 -0.0918863 0.98566)
(0.272669 -0.0245068 0.961796)
(0.946719 0.157798 0.280755)
(0.137318 -0.0817096 0.987151)
(0.220572 -0.0209444 0.975146)
(0.0242052 0.00800377 0.999675)
(0.0140879 -0.00912436 0.999859)
(0.0202972 0.000917592 0.999794)
(0.0111366 -0.00289669 0.999934)
(0.0486927 -0.00018764 0.998814)
(0.0110462 -0.0107052 0.999882)
(0.0091192 0.00300052 0.999954)
(0.00217338 -0.000389394 0.999998)
(0.00942546 0.000929289 0.999955)
(0.00990761 -0.00799322 0.999919)
(-0.00278629 0.00809526 0.999963)
(-0.0107826 0.00148038 0.999941)
(0.0102182 0.00399283 0.99994)
(-0.014306 0.00363638 0.999891)
(0.0338197 0.00463795 0.999417)
(0.0115855 0.00140135 0.999932)
(-0.00909125 0.00272884 0.999955)
(-0.0156557 0.00190493 0.999876)
(0.0396087 -0.000537949 0.999215)
(0.016932 -0.0120097 0.999785)
(-0.00183719 -0.000648152 0.999998)
(0.103352 -0.0686548 0.992273)
(0.018823 -0.0268514 0.999462)
(0.0115781 -0.00616895 0.999914)
(0.00279055 -0.0174694 0.999844)
(-0.00542354 -0.00815934 0.999952)
(0.00319179 -0.00776268 0.999965)
(0.00555003 0.00590424 0.999967)
(-0.00506904 -0.000778767 0.999987)
(0.00830732 -0.00813617 0.999932)
(-0.0605336 0.0370303 0.997479)
(-0.0106128 0.0138162 0.999848)
(-0.00495233 -0.00165809 0.999986)
(0.00610127 0.00543999 0.999967)
(-0.010092 0.0143975 0.999845)
(0.0359917 -0.0123532 0.999276)
(0.00909271 -0.00724861 0.999932)
(-0.0228913 0.00137467 0.999737)
(0.0302727 -0.00144367 0.999541)
(0.0258509 0.00161157 0.999665)
(0.00354118 0.00123546 0.999993)
(-0.0194455 0.00029821 0.999811)
(0.0303189 -0.00105088 0.99954)
(-0.0228113 0.00119462 0.999739)
(-0.0193683 0.000442338 0.999812)
(0.00342063 0.000507086 0.999994)
(0.0261359 0.000662955 0.999658)
(-0.0122796 0.00926549 0.999882)
(0.00227297 0.00111174 0.999997)
(0.00248782 0.000592995 0.999997)
(0.00539487 5.89404e-05 0.999985)
(0.0411314 0.00259356 0.99915)
(0.00561148 0.00344519 0.999978)
(-0.00148078 0.00615499 0.99998)
(0.0422585 0.00341541 0.999101)
(0.0018404 -0.00136443 0.999997)
(0.00565618 0.00367222 0.999977)
(-0.00127391 0.00646852 0.999978)
(0.00214226 0.00159568 0.999996)
(0.00563573 0.000515378 0.999984)
(-0.0121133 0.00971378 0.999879)
(0.0305402 -0.00121879 0.999533)
(-0.0230394 0.00161059 0.999733)
(0.00367848 0.00136416 0.999992)
(-0.0197018 0.00111315 0.999805)
(0.0264683 0.0018246 0.999648)
(0.0263305 0.0010907 0.999653)
(0.00378528 0.00163234 0.999992)
(-0.0196547 0.00110265 0.999806)
(-0.0230371 0.00161908 0.999733)
(0.0309567 -0.000753522 0.99952)
(-0.00550535 -0.000163671 0.999985)
(0.00516753 0.00658329 0.999965)
(-0.0109956 0.0158082 0.999815)
(0.0299744 -0.00690466 0.999527)
(0.00823125 -0.0055005 0.999951)
(0.00493725 0.00700993 0.999963)
(-0.00568001 0.000300694 0.999984)
(0.00739106 -0.00605075 0.999954)
(-0.0621531 0.0388298 0.997311)
(-0.0116452 0.0154237 0.999813)
(0.0132005 -0.00478099 0.999901)
(-0.000592404 -0.00580589 0.999983)
(0.00899746 -0.00783585 0.999929)
(-0.0494246 0.0282641 0.998378)
(-0.00943395 0.0103313 0.999902)
(-0.00345042 -0.0019466 0.999992)
(0.0082683 0.00151682 0.999965)
(-0.00425592 0.0033509 0.999985)
(0.0348868 -0.0101901 0.999339)
(0.0133671 -0.0128014 0.999829)
(-0.0127438 -0.000642961 0.999919)
(0.0417273 -0.00151822 0.999128)
(0.0312433 0.00214066 0.99951)
(0.00831612 0.00232663 0.999963)
(-0.015161 0.000984832 0.999885)
(0.0371911 -0.00119781 0.999307)
(-0.01735 0.000456157 0.999849)
(-0.0112754 0.000295872 0.999936)
(0.00959709 0.00186716 0.999952)
(0.0348576 0.00224428 0.99939)
(0.0536445 0.017141 0.998413)
(0.0191029 0.00113765 0.999817)
(0.0262914 -0.0150876 0.99954)
(0.0191658 -0.00485398 0.999805)
(0.114083 0.0141881 0.99337)
(0.0288614 0.00300394 0.999579)
(0.0147311 -0.00152262 0.99989)
(0.175003 0.0216332 0.98433)
(0.0290861 -0.0193372 0.99939)
(0.044884 0.00104803 0.998992)
(0.026761 -0.00844243 0.999606)
(0.0316733 -0.000187796 0.999498)
(0.0296315 -0.0103223 0.999508)
(0.12097 0.0243126 0.992358)
(0.0485629 -0.0025981 0.998817)
(-0.00520292 -0.00219567 0.999984)
(0.0197135 0.00130942 0.999805)
(0.00474126 -0.00275865 0.999985)
(0.0495497 0.00128631 0.998771)
(0.0404776 0.00178133 0.999179)
(0.0164893 0.00205772 0.999862)
(-0.00511685 -0.000436903 0.999987)
(0.00669191 -0.00524339 0.999964)
(0.059766 -0.00399893 0.998204)
(0.00521428 -0.0125526 0.999908)
(0.0209032 -0.0145978 0.999675)
(0.0127056 -0.0238876 0.999634)
(0.0664059 -0.0336589 0.997225)
(0.0285722 -0.0343175 0.999002)
(0.0323649 -0.0299876 0.999026)
(0.0140434 -0.0234989 0.999625)
(0.0185669 -0.0209865 0.999607)
(-0.0163585 0.00236955 0.999863)
(0.00194815 -0.00731563 0.999971)
(-0.0239569 -0.213726 0.9766)
(0.220123 -0.151607 0.963619)
(0.107267 -0.160869 0.98113)
(-0.000792325 -0.0989421 0.995093)
(0.0885995 -0.145758 0.985345)
(0.151282 -0.156971 0.975948)
(0.198382 -0.145379 0.969283)
(-0.0177344 -0.16905 0.985448)
(0.0203589 -0.10908 0.993824)
(0.0833523 -0.164869 0.982787)
(0.280334 -0.0169487 0.959753)
(0.36116 -0.0585603 0.930663)
(0.28225 -0.0281823 0.958927)
(0.350291 0.00175846 0.936639)
(0.250436 -0.0359171 0.967467)
(0.318867 -0.046477 0.946659)
(0.27858 -0.0584986 0.95863)
(0.192157 0.00722245 0.981338)
(0.396777 0.0173823 0.91775)
(0.322512 -0.0300117 0.946089)
(0.998456 -0.0460976 -0.0310076)
(0.950477 0.0729509 0.302112)
(-0.321113 -0.221914 0.920674)
(0.111199 -0.189365 0.97559)
(0.997751 0.0226944 0.0630702)
(0.976915 0.00934197 -0.213422)
(-0.56495 -0.155246 0.810389)
(0.993418 -0.110451 0.0303551)
(0.99975 -0.0192395 -0.0114177)
(0.99126 0.0672841 -0.113476)
(0.98446 -0.170038 0.0438807)
(0.985923 -0.166767 0.0120212)
(0.91253 -0.361427 0.191468)
(0.900897 -0.367386 -0.231111)
(0.917816 -0.35204 0.183525)
(0.991852 -0.12088 0.0402087)
(-0.38209 0.0764683 0.920956)
(0.9789 0.0306558 -0.202029)
(-0.52632 0.0694695 0.847444)
(0.387446 0.00296492 0.921888)
(0.797948 -0.014966 -0.60254)
(0.999118 0.0167606 -0.0384895)
(0.893804 0.0612007 -0.444263)
(0.237479 0.0348924 0.970766)
(-0.363227 0.137728 0.921464)
(0.76827 -0.0280986 -0.639509)
(0.943408 0.0335483 -0.329933)
(0.0885001 -0.228406 0.969535)
(0.038753 -0.225186 0.973545)
(0.881821 -0.429523 0.194685)
(-0.620608 0.418985 0.662795)
(-0.0525904 -0.198572 0.978674)
(0.00215106 -0.187954 0.982175)
(0.796027 -0.493505 0.350419)
(-0.0811996 -0.0675365 0.994407)
(0.0480019 -0.000143017 0.998847)
(0.0072682 -0.00477068 0.999962)
(0.0110115 0.001188 0.999939)
(0.00405314 0.00293252 0.999987)
(0.00176722 0.00792257 0.999967)
(0.00811276 -0.00112736 0.999966)
(0.0105604 -0.00356471 0.999938)
(-0.000286614 0.00777063 0.99997)
(0.00805763 -0.0032744 0.999962)
(0.00561579 0.000378361 0.999984)
(0.00772903 -0.00518528 0.999957)
(0.0402535 -0.000287201 0.999189)
(0.0101759 0.00125961 0.999947)
(0.0035684 0.00183828 0.999992)
(-0.00235223 -0.00505506 0.999984)
(0.00764517 0.00255235 0.999968)
(-0.00889889 0.0121595 0.999886)
(0.0456662 -0.0208367 0.998739)
(0.0104537 -0.0104158 0.999891)
(0.0063951 0.00421365 0.999971)
(-0.004199 -0.00348819 0.999985)
(0.0110443 -0.012638 0.999859)
(-0.0542606 0.0315253 0.998029)
(-0.00837014 0.0102639 0.999912)
(0.0318292 -0.00244557 0.99949)
(-0.0212254 0.00155932 0.999773)
(-0.0192903 0.00135533 0.999813)
(0.00414362 0.00171334 0.99999)
(0.0268405 0.0021282 0.999637)
(-0.0222858 0.00165145 0.99975)
(0.0314004 -0.000787246 0.999507)
(0.0279482 -0.000531945 0.999609)
(0.0045643 0.00148758 0.999988)
(-0.0181873 0.00127565 0.999834)
(-0.0199167 0.000258892 0.999802)
(0.031965 -0.00349511 0.999483)
(0.0290689 0.00306352 0.999573)
(0.00596312 0.00056836 0.999982)
(-0.015924 -0.00165438 0.999872)
(0.0344501 -0.00100336 0.999406)
(-0.0186856 -0.000420984 0.999825)
(-0.0165046 -0.00134598 0.999863)
(0.00511135 -0.00117913 0.999986)
(0.0281639 -0.00200618 0.999601)
(0.00970914 0.000754583 0.999953)
(-0.000645712 -0.00699501 0.999975)
(0.0142293 -0.0195856 0.999707)
(-0.04194 0.0209906 0.9989)
(-0.00499044 0.00476764 0.999976)
(-0.000561986 -0.0111585 0.999938)
(0.0110892 -0.00130423 0.999938)
(-0.00541356 0.00749174 0.999957)
(0.0652379 -0.0367805 0.997192)
(0.0141856 -0.0157398 0.999775)
(0.0476467 0.00493582 0.998852)
(0.0025871 -0.00155976 0.999995)
(0.00681058 0.00390689 0.999969)
(-0.000912935 0.00668227 0.999977)
(-0.0101588 0.0104851 0.999893)
(0.00303765 0.00183755 0.999994)
(0.00643821 0.00103719 0.999979)
(-0.0113486 0.010138 0.999884)
(0.0030043 0.00050625 0.999995)
(0.002265 0.00170619 0.999996)
(0.00564314 0.000924955 0.999984)
(0.0441674 0.00413118 0.999016)
(0.00613352 0.00383536 0.999974)
(-0.00134046 0.00676885 0.999976)
(-0.00515968 0.000582828 0.999987)
(0.00536328 0.0063961 0.999965)
(-0.010316 0.0137046 0.999853)
(0.0256679 -0.00255126 0.999667)
(0.00889205 -0.00586724 0.999943)
(0.00604249 0.00478713 0.99997)
(-0.00450993 -0.00026869 0.99999)
(0.00721643 -0.00470075 0.999963)
(-0.0587034 0.0368051 0.997597)
(-0.0118214 0.0155429 0.999809)
(0.0330203 -0.000955972 0.999454)
(-0.0214926 0.00132929 0.999768)
(-0.0173442 0.00106891 0.999849)
(0.00566868 0.00172379 0.999982)
(0.0293752 0.00221861 0.999566)
(-0.0200754 0.00099784 0.999798)
(0.0348032 -0.000826286 0.999394)
(0.0280603 0.00185445 0.999605)
(0.00532897 0.00208971 0.999984)
(-0.0184875 0.00124026 0.999828)
(-0.0223018 0.00143068 0.99975)
(0.0320286 -0.00087434 0.999487)
(0.0265654 0.00172685 0.999646)
(0.00410773 0.00176081 0.99999)
(-0.0194754 0.000998554 0.99981)
(0.0311442 -0.000901798 0.999514)
(-0.0228063 0.0014843 0.999739)
(-0.0190415 0.00101305 0.999818)
(0.00420308 0.00129589 0.99999)
(0.0273175 0.00172366 0.999625)
(0.0049873 0.00691345 0.999964)
(-0.00542498 0.000819235 0.999985)
(0.00690203 -0.0046111 0.999966)
(-0.0618827 0.0392414 0.997312)
(-0.0121273 0.0163352 0.999793)
(-0.00565691 0.000869875 0.999984)
(0.0049712 0.00725587 0.999961)
(-0.0111304 0.0159573 0.999811)
(0.026343 -0.00320577 0.999648)
(0.00814315 -0.0047155 0.999956)
(0.0201713 0.00335684 0.999791)
(0.0172231 0.00377846 0.999845)
(0.159109 0.00615607 0.987242)
(0.102997 0.00310527 0.994677)
(0.0328693 0.0031479 0.999455)
(0.0411891 0.00230017 0.999149)
(0.539499 0.0789192 0.838279)
(0.073503 -0.0501379 0.996034)
(0.115064 -0.00657666 0.993336)
(0.0702099 -0.0364176 0.996867)
(0.710202 0.123971 0.692997)
(0.0844937 -0.00690268 0.9964)
(0.0668743 -0.0335543 0.997197)
(0.293525 0.0491837 0.954685)
(0.0661786 -0.0419709 0.996925)
(0.051295 -0.0028503 0.998679)
(0.0443616 -0.0193309 0.998828)
(0.294719 0.0381846 0.954821)
(0.0712615 -0.00155628 0.997456)
(0.0441735 -0.0192834 0.998838)
(0.073461 -0.0981108 0.99246)
(0.101634 -0.121063 0.987428)
(0.0757908 -0.14042 0.987187)
(0.132404 -0.0982469 0.986315)
(0.0992181 -0.144682 0.984491)
(0.133557 -0.149288 0.979732)
(0.106292 -0.134871 0.985146)
(0.0793311 -0.113461 0.99037)
(0.0720048 -0.0866486 0.993633)
(0.0647773 -0.113434 0.991432)
(0.155868 -0.0192626 0.98759)
(0.130427 -0.0273585 0.99108)
(0.189753 -0.0323371 0.981299)
(0.155065 -0.00758405 0.987875)
(0.198132 -0.0147075 0.980065)
(0.217132 -0.0448247 0.975113)
(0.233052 -0.0295798 0.972014)
(0.129382 -0.00858212 0.991558)
(0.112805 -0.00569931 0.993601)
(0.108413 -0.0183068 0.993937)
(0.064849 -0.017256 0.997746)
(0.106764 -0.0113153 0.99422)
(0.0636647 -0.000702303 0.997971)
(0.0372215 -9.92924e-05 0.999307)
(0.0219876 -0.00539844 0.999744)
(0.07703 -0.00710514 0.997003)
(0.0278916 -0.00935161 0.999567)
(0.0526723 -0.011748 0.998543)
(0.0472519 -0.00179144 0.998881)
(0.0879836 -0.00303749 0.996117)
(0.0732694 -0.084173 0.993754)
(0.0465896 -0.064999 0.996797)
(0.0405851 -0.0536408 0.997735)
(0.0341413 -0.0419604 0.998536)
(0.0264789 -0.047465 0.998522)
(0.0272002 -0.0401972 0.998821)
(0.0493393 -0.0527664 0.997387)
(0.0456087 -0.078723 0.995853)
(0.109905 -0.0700136 0.991473)
(0.0592151 -0.0808038 0.99497)
(0.613379 0.0571563 0.787718)
(0.713716 0.0735669 0.696561)
(0.998531 -0.0431718 0.0327399)
(0.979414 -0.196046 0.048099)
(0.999728 -0.00967622 0.0212045)
(0.782066 0.115122 0.61247)
(0.028947 0.0026558 0.999577)
(0.00167798 -0.000280299 0.999999)
(-0.000462139 0.00145242 0.999999)
(-0.00942667 -0.000518086 0.999955)
(0.0127478 0.00249632 0.999916)
(0.00490722 -0.00192519 0.999986)
(-0.0197174 0.0025779 0.999802)
(0.994299 0.100605 -0.0353335)
(0.998771 0.0491062 0.00671855)
(0.0163857 0.00587204 0.999849)
(0.987411 0.138881 0.0757117)
(0.982076 0.0997867 0.159905)
(0.99862 0.0496243 0.0171733)
(0.0159299 0.00538857 0.999859)
(-0.0197113 0.00320425 0.999801)
(0.00379111 -0.000215522 0.999993)
(0.0118043 -0.000620826 0.99993)
(0.0043982 -0.0029934 0.999986)
(0.0251122 0.000597761 0.999684)
(-0.00873928 -0.00178562 0.99996)
(-0.000151751 0.00145976 0.999999)
(0.982944 0.100688 0.153893)
(0.0171125 0.00541116 0.999839)
(0.988164 0.139024 0.0648351)
(0.998586 0.050283 0.0172616)
(0.998745 0.0497092 0.00613596)
(0.0168378 0.00516344 0.999845)
(0.994319 0.101663 -0.0315201)
(0.0442823 0.00450159 0.999009)
(0.0138784 -0.00727164 0.999877)
(0.0100006 -0.00551453 0.999935)
(-0.000854055 -0.00965874 0.999953)
(0.0235672 -0.00349872 0.999716)
(0.0152525 -0.00682927 0.99986)
(-0.0118788 -0.00062933 0.999929)
(0.993808 0.110623 0.0104356)
(0.998321 0.055865 0.0152912)
(0.0389972 0.0121172 0.999166)
(0.985505 0.143602 0.0903275)
(0.986053 0.109637 0.125215)
(0.998026 0.0569849 0.0264151)
(0.0456435 0.0136283 0.998865)
(-0.0166892 0.00412448 0.999852)
(0.00962848 -0.00272362 0.99995)
(0.0156683 -0.00271141 0.999874)
(0.00806293 -0.0050389 0.999955)
(0.0313687 0.00197616 0.999506)
(-0.00581442 -0.00385373 0.999976)
(0.00421066 -0.000280135 0.999991)
(0.302631 -0.0886164 0.948979)
(0.252081 -0.197257 0.947388)
(0.28422 -0.125255 0.950542)
(0.210974 -0.202276 0.956334)
(0.214843 -0.195211 0.956941)
(0.239674 -0.161166 0.957383)
(0.2719 -0.0711612 0.959691)
(0.20128 -0.0719066 0.976891)
(0.21627 -0.158105 0.963447)
(0.181982 -0.150555 0.971708)
(0.19954 -0.129643 0.971276)
(0.269863 -0.0576023 0.961174)
(0.160138 -0.157485 0.974451)
(0.202628 -0.129327 0.970678)
(0.999246 -0.0327933 0.020796)
(0.998319 0.0497026 0.0298238)
(0.999431 -0.0332968 -0.00530334)
(0.999401 -0.0341057 -0.00593117)
(0.998455 0.0493399 0.0255385)
(0.999206 -0.0336173 0.0214056)
(-0.0158866 0.00258058 0.99987)
(0.00634803 -0.0016768 0.999978)
(0.00714413 -0.004534 0.999964)
(0.0147717 -0.00257177 0.999888)
(0.0292623 -0.000524498 0.999572)
(-0.00598103 -0.00344139 0.999976)
(0.0024822 0.000512779 0.999997)
(0.978184 0.0986186 0.182838)
(0.998619 0.0490074 0.0189292)
(0.0174643 0.00644969 0.999827)
(0.985797 0.137964 0.0957616)
(0.994481 0.0998187 -0.0323171)
(0.998796 0.0483054 0.00850063)
(0.0194221 0.00666263 0.999789)
(0.0273741 0.001688 0.999624)
(0.00192357 -0.00123193 0.999997)
(-0.00896948 -0.00114579 0.999959)
(-0.000368729 0.00103715 0.999999)
(-0.0198797 0.00215021 0.9998)
(0.0125785 0.0014874 0.99992)
(0.00486976 -0.00245491 0.999985)
(0.999448 -0.0326021 -0.00643447)
(0.998541 0.0503296 0.0195723)
(0.99929 -0.032317 0.0193508)
(0.998482 0.050369 0.0222755)
(0.99931 -0.0318242 0.0191308)
(0.999456 -0.0321816 -0.00726969)
(-0.0195239 0.00448652 0.999799)
(0.00524304 -0.000171923 0.999986)
(0.00511186 -0.00329068 0.999982)
(0.012709 -0.000441645 0.999919)
(0.0278481 0.00210441 0.99961)
(-0.00873285 -0.00146349 0.999961)
(0.000829184 0.00153471 0.999998)
(0.986179 0.107903 0.12573)
(0.998185 0.0555942 0.0231679)
(0.0337734 0.0109021 0.99937)
(0.986863 0.142258 0.0765737)
(0.994066 0.108688 -0.00449369)
(0.99843 0.0546054 0.012459)
(0.0307689 0.0101945 0.999475)
(0.0340278 0.004777 0.999409)
(0.00526334 -0.00184324 0.999984)
(-0.0079645 -0.00294316 0.999964)
(0.00216409 -0.000553642 0.999998)
(-0.0193145 0.00206388 0.999811)
(0.0158778 0.0015759 0.999873)
(0.00779557 -0.00295278 0.999965)
(0.994154 0.107075 -0.0138821)
(0.0251809 0.00869358 0.999645)
(0.99851 0.0535665 0.0103857)
(0.986636 0.141793 0.0802808)
(0.998296 0.0543939 0.0211136)
(0.986083 0.106446 0.127708)
(0.027164 0.00939648 0.999587)
(0.0982894 -0.0261661 0.994814)
(0.13059 -0.0836083 0.987905)
(0.104195 -0.0601603 0.992736)
(0.105722 -0.0739556 0.991642)
(0.156656 -0.0155114 0.987531)
(0.0875048 -0.0829087 0.992708)
(0.110035 -0.0616518 0.992014)
(0.259815 -0.0332678 0.965085)
(0.18697 -0.134388 0.97313)
(0.142221 -0.140662 0.979789)
(0.181172 -0.115632 0.97663)
(0.169474 -0.0659421 0.983326)
(0.167798 -0.125315 0.977824)
(0.180668 -0.107947 0.977602)
(0.0277316 -0.00245917 0.999612)
(0.0078655 -0.00790002 0.999938)
(0.00394979 -0.00275513 0.999988)
(-0.00437694 -0.00679232 0.999967)
(0.00941112 -0.00671064 0.999933)
(0.0164298 -0.00513821 0.999852)
(-0.0173689 -0.000723087 0.999849)
(0.00515707 -0.00208426 0.999985)
(0.0125805 -0.00831254 0.999886)
(0.00796918 -0.00546618 0.999953)
(0.00701841 -0.0107762 0.999917)
(0.00256913 0.00404723 0.999989)
(0.0015449 -0.000118688 0.999999)
(0.00132691 -0.0048687 0.999987)
(0.00329462 0.00114237 0.999994)
(-0.000822084 0.00235239 0.999997)
(0.0062775 -0.00338988 0.999975)
(0.00629931 -0.00418289 0.999971)
(-0.000705263 0.00211211 0.999998)
(-0.0200562 0.00370544 0.999792)
(0.00418725 -0.00280825 0.999987)
(0.00352514 0.000340972 0.999994)
(0.0117352 -6.07004e-05 0.999931)
(0.0259693 0.00118154 0.999662)
(-0.000297019 0.00191629 0.999998)
(-0.00928362 -0.00119101 0.999956)
(0.984604 0.103017 0.141215)
(0.998492 0.0518111 0.0181626)
(0.987681 0.139906 0.0700926)
(0.0187204 0.00691646 0.999801)
(0.0187231 0.00676088 0.999802)
(0.998662 0.0511681 0.00748393)
(0.994182 0.103607 -0.0294675)
(0.994209 0.102665 -0.0317444)
(0.017448 0.00582291 0.999831)
(0.998705 0.0504302 0.00674782)
(0.987167 0.139555 0.0776242)
(0.983879 0.101901 0.146966)
(0.0177124 0.00638545 0.999823)
(0.998537 0.051038 0.0178679)
(0.0288801 0.00349605 0.999577)
(0.00134768 8.16114e-05 0.999999)
(-0.000871755 0.0015649 0.999998)
(-0.0100577 -0.00022155 0.999949)
(0.0045415 -0.00161183 0.999988)
(0.0124245 0.00302795 0.999918)
(-0.0206329 0.00291109 0.999783)
(0.00603124 -0.00393479 0.999974)
(-0.000936912 0.00248068 0.999996)
(-0.000912114 0.00244584 0.999997)
(0.00621368 -0.00324038 0.999975)
(0.000953858 -0.00407282 0.999991)
(0.00285572 0.00206877 0.999994)
(0.00227336 0.00463264 0.999987)
(0.00120904 0.000577715 0.999999)
(0.0144807 -0.00769672 0.999866)
(0.0130544 -0.00896697 0.999875)
(0.00533023 -0.00794894 0.999954)
(0.00825244 -0.00141541 0.999965)
(0.0113308 -0.00445667 0.999926)
(0.0176898 -0.00909515 0.999802)
(0.0110021 -0.00639376 0.999919)
(0.00432759 1.60377e-05 0.999991)
(-0.00491906 0.00179651 0.999986)
(0.0174803 -0.0105238 0.999792)
(0.0224537 -0.0106107 0.999692)
(0.0251994 -0.0101393 0.999631)
(0.0436278 0.000350853 0.999048)
(0.0148395 -0.00614539 0.999871)
(0.00425297 -0.0117796 0.999922)
(0.072474 0.00215862 0.997368)
(0.0362607 -0.0221022 0.999098)
(0.0312367 -0.0181371 0.999347)
(0.0187791 -0.0266025 0.99947)
(0.0350835 -0.0176383 0.999229)
(0.0437825 -0.0177968 0.998883)
(0.0100476 -0.00762461 0.99992)
(0.0208934 -0.0120355 0.999709)
(0.0151894 -0.00596457 0.999867)
(0.033125 -0.0173287 0.999301)
(0.0375503 -0.0207191 0.99908)
(0.0154299 -0.0182182 0.999715)
(0.0200816 -0.0119286 0.999727)
(0.0367023 -0.0304141 0.998863)
(0.0337516 -0.0287676 0.999016)
(0.245419 -0.251537 0.936215)
(0.211033 -0.239387 0.947712)
(0.166238 -0.186449 0.968298)
(0.175186 -0.179523 0.96803)
(0.289155 -0.129107 0.948536)
(0.260411 -0.165435 0.951219)
(0.21632 -0.142107 0.965925)
(0.217694 -0.139158 0.966046)
(0.968033 0.119388 0.220587)
(0.372716 -0.126666 0.91926)
(0.477329 -0.217883 0.851284)
(0.365483 -0.188568 0.911518)
(0.589005 -0.0143837 0.808001)
(0.374477 -0.138719 0.916801)
(0.298822 -0.274907 0.913856)
(0.986214 -0.151037 0.0675941)
(0.884957 -0.3607 0.294529)
(0.97342 -0.158136 0.165669)
(0.954756 -0.183857 0.233747)
(0.989365 -0.0968523 0.108516)
(0.973011 -0.205354 0.105256)
(0.932804 -0.273258 0.234961)
(0.997243 -0.0711391 0.0211144)
(0.993207 0.0995135 0.0603096)
(0.990306 -0.0765232 0.115919)
(0.999596 -0.0278558 0.00568401)
(0.996969 -0.0182808 0.0756159)
(0.996123 0.0363946 -0.080086)
(0.991298 -0.118096 0.0581578)
(0.991096 -0.13211 0.0165996)
(-0.265792 -0.154492 0.951571)
(0.97715 -0.137325 0.162235)
(0.935459 -0.270415 0.227579)
(0.997473 -0.0643764 0.0300598)
(0.978023 -0.198237 -0.0645936)
(0.953347 -0.230262 0.195215)
(0.33447 -0.139022 0.932096)
(0.351839 -0.120999 0.928207)
(0.358722 -0.247945 0.899912)
(0.282098 -0.333683 0.899487)
(0.999365 -0.0356222 0.000677608)
(0.998298 0.0492953 0.0311729)
(0.999095 -0.034966 0.0242277)
(0.999196 -0.0343631 0.0206417)
(0.998456 0.0491253 0.0259317)
(0.999381 -0.0347518 -0.00552262)
(0.0336368 0.000753792 0.999434)
(0.00601726 -0.00289052 0.999978)
(0.00337291 -0.00023135 0.999994)
(-0.00498242 -0.00308207 0.999983)
(-0.013612 0.00160817 0.999906)
(0.00891769 -0.00399106 0.999952)
(0.0168288 -0.000455924 0.999858)
(-0.015531 0.000783581 0.999879)
(0.00880482 -0.00499198 0.999949)