/*--------------------------------*- C++ -*----------------------------------*\
| =========                 |                                                 |
| \\      /  F ield         | OpenFOAM: The Open Source CFD Toolbox           |
|  \\    /   O peration     | Version:  2012                                  |
|   \\  /    A nd           | Website:  www.openfoam.com                      |
|    \\/     M anipulation  |                                                 |
\*---------------------------------------------------------------------------*/
FoamFile
{
    version     2.0;
    format      ascii;
    class       volScalarField;
    location    "0.106/solid";
    object      sigmaEq;
}
// * * * * * * * * * * * * * * * * * * * * * * * * * * * * * * * * * * * * * //

dimensions      [1 -1 -2 0 0 0 0];


internalField   nonuniform List<scalar> 
3125
(
774.195
742.502
669.527
777.378
748.457
686.41
789.2
765.491
719.488
784.478
761.873
710.716
219.173
433.335
836.863
771.427
223.312
834.118
430.974
192.986
408.112
811.213
735.653
204.128
801.479
402.75
115.987
376.093
706.17
620.197
149.65
600.615
360.015
939.516
944.421
227.121
780.14
435.735
838.728
222.742
843.223
438.085
937.438
934.06
911.733
919.167
211.112
753.572
412.737
813.894
203.779
820.764
416.712
908.841
898.341
803.834
843.657
156.044
694.594
377.941
722.512
148.412
753.805
376.668
783.629
668.395
847.569
446.235
231.597
570.072
312.67
294.318
288.788
559.963
557.381
219.751
768.699
829.051
426.084
833.32
215.493
428.63
552.749
556.446
281.353
287.161
260.211
250.154
535.39
524.791
192.962
727.932
784.085
389.993
797.738
176.075
396.639
502.088
520.142
229.48
246.233
192.671
178.957
379.069
310.024
98.667
614.16
554.17
298.868
293.279
184.146
950.442
946.069
944.156
226.536
781.892
843.268
443.331
232.372
842.682
440.544
295.865
301.654
561.422
565.31
567.157
565.609
310.908
303.719
928.374
933.116
926.544
921.126
210.626
757.959
827.421
423.255
216.004
822.556
420.155
262.623
270.469
538.249
544.898
551.257
546.758
279.498
272.635
608.069
879.357
894.311
585.234
603.417
873.612
852.157
461.361
526.89
577.055
542.943
156.073
702.238
778.929
383.515
175.54
760.701
378.519
195.144
202.979
399.929
451.401
494.148
464.03
224.117
206.271
434.903
355.202
697.469
625.783
342.197
501.944
585.219
719.039
384.939
662.133
768.661
493.153
221.534
403.495
289.863
290.433
403.946
492.727
493.868
220.989
291.771
405.348
494.497
291.3
404.628
473.603
199.206
379.005
269.757
271.799
381.668
471.524
475.979
199.032
275.653
386.615
477.706
274.2
384.501
416.029
146.084
267.803
222.651
241.445
294.284
381.468
434.498
146.618
248.943
322.286
442.852
249.591
313.011
497.355
224.417
409.597
294.729
497.636
294.313
409.103
496.483
225.027
292.72
406.575
495.557
293.433
407.814
482.915
207.557
393.867
281.569
484.061
280.638
392.49
481.182
207.969
277.623
388.861
479.731
278.933
390.578
447.41
149.772
339.905
244.801
449.279
243.657
335.524
447.277
150.774
246.213
327.739
445.446
245.059
331.171
503.833
233.624
419.425
300.968
502.79
234.408
413.127
298.935
416.568
299.981
500.586
378.498
573.72
444.692
451.249
576.574
452.345
373.402
378.026
261.989
266.803
315.514
267.071
259.614
260.871
318.33
270.642
243.545
244.88
253.596
292.991
253.391
247.256
245.837
251.544
291.254
251.099
362.279
362.894
436.931
558.916
435.559
364.734
363.87
434.327
558.001
435.069
491.454
402.761
217.426
289.06
492.022
402.056
288.631
490.449
217.967
399.972
286.916
400.933
287.645
489.64
361.433
360.411
554.018
430.015
431.71
433.841
555.366
432.385
358.219
359.439
242.633
241.369
247.029
283.951
246.596
238.956
240.427
249.157
285.739
249.088
215.124
219.067
230.39
257.546
230.047
224.092
221.091
224.911
254.572
225.039
333.341
337.823
415.339
532.332
411.156
343.487
340.079
404.224
528.639
409.451
466.42
375.542
185.332
266.873
468.841
372.156
264.36
463.478
184.994
363.889
257.927
367.859
260.989
460.831
330.654
324.578
508.764
383.744
392.607
402.201
514.982
395.122
313.705
321.507
212.6
207.505
209.902
236.181
210.564
198.365
204.493
218.674
241.184
217.92
157.37
177.336
175.524
184.135
171.355
175.348
174.738
153.141
176.344
161.032
190.904
225.816
309.584
356.551
283.701
251.755
231.14
241.254
331.345
278.237
340.213
232.406
60.4429
185.708
365.606
209.728
168.023
488.803
572.522
339.164
730.366
430.985
237.99
209.308
346.475
408.781
156.596
230.5
164
180.776
155.167
445.338
229.251
231.19
299.365
225.845
141.763
144.327
115.376
211.34
189.276
145.179
138.44
177.493
135.975
497.374
229.887
409.635
295.384
497.597
409.18
296.01
497.612
229.335
410.327
297.682
498.639
409.191
296.945
251.92
250.4
255.967
298.264
255.693
248.187
249.515
258.317
300.042
258.097
369.043
367.973
437.6
562.915
439.86
365.688
367.217
441.847
564.359
440.509
369.751
369.497
443.523
565.815
441.582
372.145
370.85
442.059
565.379
441.264
253.065
255.203
263.896
309.186
263.299
258.611
256.569
260.938
306.86
260.674
486.426
213.721
395.372
282.974
485.478
396.482
283.892
487.666
213.239
398.764
285.804
488.49
397.791
285.157
231.888
229.779
234.668
265.875
234.424
225.797
228.328
238.215
268.28
238.108
351.623
349.568
416.706
540.572
419.856
345.382
347.956
423.691
542.939
421.025
352.99
354.54
429.276
549.828
427.394
357.122
355.79
424.62
548.218
426.57
233.191
235.046
244.244
277.709
244.159
237.878
236.222
241.589
275.603
241.177
591.77
598.215
485.801
508.098
567.432
555.871
452.889
165.203
344.695
245.931
450.539
349.272
248.555
455.276
165.761
359.12
254.522
457.964
354.553
251.401
177.497
175.315
182.592
198.035
181.535
175.176
174.395
185.443
199.244
185.925
282.065
267.862
310.931
418.856
329.819
251.906
266.9
349.443
436.277
332.073
284.815
296.91
380.952
485.389
369.359
310.27
300.246
352.252
475.192
366.243
179.978
185.317
201.593
217.561
200.571
194.98
188.578
192.16
212.445
192.503
406.267
376.271
605.029
781.696
457.385
348.063
328.907
220.316
266.177
251.515
250.731
265.561
328.877
687.229
864.736
639.69
835.449
688.3
863.55
638.751
330.101
221.258
253.62
268.511
331.35
253.552
268.17
686.386
637.83
834.643
861.542
862.216
638.095
685.693
308.399
196.223
239.223
225.313
225.07
239.571
306.67
663.826
837.392
618.524
808.147
666.317
834.836
616.145
313.001
200.822
232.918
248.022
315.062
232.669
247.211
224.846
133.118
130.859
140.946
155.405
147.216
199.74
262.329
147.167
177.675
181.588
270.596
176.4
178.243
979.114
941.537
980.906
983.542
943.405
982.661
333.552
224.81
272.45
257.597
334.579
257.497
272.107
690.939
866.598
641.338
840.722
689.587
868.052
643.024
331.868
223.873
255.242
269.752
331.613
254.489
269.185
977.032
935.705
975.48
934.658
973.019
973.95
319.566
208.493
255.641
240.444
321.131
240.361
255.106
670.719
840.581
621.043
816.271
668.634
842.673
622.912
316.495
206.005
235.899
250.333
315.578
235.312
250.137
672.678
626.707
847.192
818.603
845.408
674.429
625.092
274.493
151.599
195.056
184.858
279.42
183.724
192.46
272.823
149.844
179.545
183.099
269.013
178.746
184.235
338.368
233.068
278.572
264.542
278.257
263.737
337.328
290.04
291.064
213.001
213.922
200.203
200.863
203.82
202.225
276.534
277.39
280.513
278.879
327.607
264.948
217.703
249.882
328.729
264.607
249.866
682.764
856.273
830.556
633.706
634.855
857.552
681.517
683.915
637.095
860.265
832.052
684.887
636.223
859.261
325.954
216.763
262.338
247.665
261.801
246.924
325.679
276.625
275.01
272.404
273.327
200.149
198.553
196.437
197.259
174.558
177.148
184.47
181.803
246.929
249.877
258.876
256.055
302.916
235.984
188.562
221.223
306.01
234.517
220.507
296.068
180.44
221.394
208.649
222.608
208.949
293.27
246.092
242.022
227.176
231.688
173.702
170.018
158.71
162.317
125.354
139.1
139.75
137.068
135.201
152.169
181.762
175.919
151.709
113.5
71.057
119.032
184.437
89.1843
108.871
515.494
584.561
651.221
517.101
539.627
628.474
481.172
496.212
412.486
623.452
538.51
498.742
391.517
626.797
382.641
269.793
423.44
284.688
412.137
247.829
382.178
124.307
105.984
111.978
77.9331
987.77
943.591
985.406
984.102
943.325
984.178
334.307
228.067
273.824
259.353
334.461
273.169
258.661
334.988
229.921
277.021
262.576
336.761
276.586
262.495
207.698
205.91
203.89
204.543
284.801
282.881
280.388
281.174
284.575
285.923
290.058
288.02
207.887
208.765
213.111
211.225
966.77
929.944
968.354
971.577
931.615
970.245
964.637
924.545
962.856
321.97
212.244
257.379
242.734
321.493
256.946
242.019
678.846
854.334
632.238
825.705
680.194
852.923
631.03
324.074
213.766
260.926
245.793
325.404
260.513
245.733
677.446
628.396
849.468
824.091
676.023
850.883
629.553
191.355
189.274
184.885
186.552
266.878
264.751
259.261
261.106
267.019
268.273
272.411
270.632
191.563
192.694
196.306
194.538
281.676
160.186
198.483
188.812
278.444
200.171
189.032
288.449
170.101
217.27
203.572
292.838
214.888
202.205
141.609
138.068
138.21
139.312
200.05
193.8
180.794
185.205
200.852
206.342
225.876
220.181
141.758
144.784
157.443
152.812
707.413
725.836
724.727
706.442
623.839
727.88
586.667
483.26
559.062
615.79
497.197
547.56
647.986
682.806
612.654
434.037
443.643
496.621
670.621
728.732
328.827
219.437
251.754
266.695
329.96
251.663
266.4
330.148
222.137
253.385
267.971
330.099
252.592
267.317
308.521
195.389
227.764
242.731
311.054
227.309
241.655
312.916
201.715
231.266
245.479
311.666
230.797
245.521
229.109
138.116
170.12
166.272
248.566
163.786
156.601
263.032
148.985
175.785
172.754
252.69
176.029
177.072
333.707
225.653
257.242
271.74
333.569
256.453
271.211
331.95
222.928
255.555
270.475
333.329
255.478
270.067
319.538
209.434
239.682
254.229
318.866
238.994
253.908
316.579
205.037
237.072
252.222
318.409
236.894
251.578
276.279
152.555
182.104
188.895
273.033
181.688
190.34
270.073
147.947
179.734
186.844
274.961
179.292
184.773
341.996
235.696
282.056
267.516
341.386
281.944
266.886
338.817
231.791
280.348
265.19
341.034
279.513
265.15
293.288
295.163
352.142
379.817
330.752
331.388
353.125
533.811
606.258
608.293
532.552
534.44
611.255
536.243
608.148
537.584
610.424
536.485
612.464
293.079
290.981
326.953
374.635
347.735
327.301
348.854
350.832
329.795
375.62
328.342
349.904
215.136
216.584
271.274
276.581
250.659
259.541
248.585
270.998
276.705
237.822
274.639
274.144
238.731
198.462
207.96
196.096
210.535
238.575
272.752
274.127
236.211
198.751
213.896
199.364
212.214
215.328
213.24
267.769
247.207
256.923
272.932
245.291
273.022
267.899
267.94
274.739
248.116
256.783
246.004
269.931
273.062
242.149
276.767
278.189
239.837
214.945
200.016
201.962
200.388
251.41
233.116
241.056
257.002
231.327
256.992
251.675
251.358
257.881
233.612
240.933
231.605
252.698
256.696
225.367
258.506
259.681
223.952
186.965
191.847
186.244
191.868
225.318
259.83
259.876
224.879
186.864
190.295
185.674
191.312
202.086
202.781
253.787
235.654
243.35
260.47
233.687
259.172
255.391
253.548
259.026
235.105
243.273
233.254
253.649
259.066
222.699
257.159
257.26
223.074
184.551
186.128
182.615
187.696
223.411
256.455
257.614
221.31
184.94
189.586
185.104
188.985
278.621
276.929
314.078
362.143
335.185
313.827
335.915
336.781
314.856
362.726
314.535
336.021
521.875
596.849
522.653
595.707
467.445
558.625
436.186
453.193
557.218
452.68
468.044
467.024
451.692
435.805
556.61
557.056
452.276
466.562
521.427
594.951
521.013
595.57
278.445
279.344
316.817
364.322
338.57
316.399
337.864
336.993
315.997
363.667
315.654
337.734
465.411
555.773
434.501
450.281
555.98
450.851
464.996
519.279
592.896
518.964
593.321
465.76
451.385
434.74
556.526
555.868
451.058
466.062
519.805
594.422
520.332
593.731
327.667
218.585
264.379
249.733
327.518
263.812
248.924
325.964
215.839
263.065
247.987
327.268
262.691
247.921
313.061
334.876
361.02
312.593
334.212
274.548
275.407
333.288
360.468
312.105
311.95
333.995
514.518
587.656
588.306
513.918
460.899
550.889
430.511
445.532
551.683
446.371
460.222
461.479
447.516
553.172
430.967
551.83
462.121
446.896
515.104
589.897
515.921
588.905
463.937
555.613
449.803
433.249
464.454
554.53
449.376
517.629
592.424
518.341
591.453
463.493
448.21
432.894
553.559
554.385
448.941
462.817
517.136
590.414
516.547
591.185
274.594
272.925
309.928
358.251
331.013
309.773
331.865
332.886
311.015
358.991
310.543
332.1
198.433
199.19
249.21
231.569
255.818
238.865
250.775
229.75
254.622
249.125
254.514
231.2
238.867
229.312
249.12
254.583
217.985
252.287
252.33
218.359
180.164
179.601
178.194
181.272
218.659
251.388
252.7
216.505
180.623
183.293
180.792
182.671
198.368
196.734
246.883
228.979
236.681
252.213
227.276
252.365
246.94
246.813
253.274
229.526
236.553
227.626
248.231
252.094
220.822
253.736
254.967
219.37
182.829
185.478
182.077
185.615
220.773
255.021
220.339
255.096
182.638
184.052
181.435
185.035
179.747
176.633
223.291
206.569
214.247
227.493
205.472
228.888
221.655
223.48
230.815
208.793
214.47
206.812
226.012
228.977
202.098
232.406
234.56
199.864
166.384
162.728
166.011
162.517
201.913
235.139
234.661
202.057
165.922
160.157
164.294
161.579
180.354
182.462
229.322
213.914
219.874
236.393
212.088
234.73
231.649
229.079
233.501
212.375
219.653
210.969
227.843
234.501
196.744
229.578
228.867
197.903
161.8
153.711
159.215
156.244
197.511
226.507
229.179
194.176
162.641
159.163
163.207
158.036
253.257
249.863
284.262
334.565
304.118
285.241
306.639
310.143
288.713
336.426
287.302
307.922
494.172
569.352
496.113
567.389
442.121
535.792
413.818
429.362
533.344
427.877
443.647
492.738
563.915
490.746
565.912
253.843
256.195
294.605
342.412
316.205
293.497
314.483
311.569
291.247
340.947
291.89
313.527
484.549
555.01
482.054
557.362
486.447
561.9
488.895
559.459
302.821
189.185
231.215
217.797
300.497
232.03
217.838
296.032
179.983
227.449
213.081
299.827
225.529
212.007
281.189
302.259
328.693
279.306
299.489
238.084
241.813
294.556
326.524
275.24
276.786
297.667
459.748
526.776
531.377
455.299
463.065
539.48
467.291
535.012
476.414
552.296
479.587
549.08
473.919
542.807
470.441
546.377
236.967
232.063
264.034
316.255
282.317
266.058
286.208
292.079
271.598
318.889
269.183
288.598
167.349
170.539
216.182
202.216
224.072
207.561
219.344
200.142
221.861
215.728
219.513
199.228
207.122
198.324
213.393
221.369
182.089
214.353
212.765
184.504
149.48
136.585
146.234
140.122
183.068
209.4
213.133
178.383
150.797
144.671
152.105
142.341
166.215
161.956
206.749
190.253
198.49
210.269
189.627
212.476
203.997
207.177
215.363
194.019
198.936
191.768
210.703
212.907
190.918
218.535
221.763
187.248
157.475
152.305
157.844
150.966
190.524
222.97
191.751
221.792
156.417
146.399
153.836
149.229
144.697
139.448
137.264
131.983
157.388
126.609
143.651
130.903
130.595
141.072
148.629
153.863
159.524
147.66
147.478
137.582
157.918
161.174
169.238
158.032
128.367
127.8
128.778
126.491
154.575
171.731
168.445
153.66
129.124
117.502
128.082
124.014
139.702
141.039
161.166
158.766
168.576
172.024
156.998
167.608
166.352
157.237
156.394
156.336
171.531
156.129
152.221
164.575
154.123
151.863
142.188
153.272
133.548
91.9826
138.353
92.6201
150.364
128.731
134.96
147.783
131.072
109.239
127.389
100.024
168.389
154.929
149.392
203.44
158.054
162.7
171.276
188.896
184.701
212.476
175.489
180.049
305.934
366.994
316.538
350.117
295.583
321.76
285.549
338.339
170.312
177.598
205.207
242.146
209.168
200.784
205.053
195.486
192.892
242.301
198.322
201.056
263.626
291.961
257.609
295.434
268.214
312.396
276.579
299.06
140.978
65.3377
107.805
111.645
142.157
73.8851
79.7988
471.889
584.626
568.228
510.585
669.25
599.292
433.876
435.826
529.34
652.204
710.529
637.51
342.364
424.083
347.117
240.131
273.431
289.766
275.449
233.312
292.997
387.409
303.786
328.485
385.801
312.591
296.838
156.079
143.783
185.65
344.522
160.347
249.773
240.081
149.087
222.016
135.48
143.732
169.228
115.707
127.518
102.41
92.4247
92.3895
164.943
118.246
111.542
109.803
368.244
289.62
238.004
226.356
311.738
240.275
338.155
201.652
256.084
288.041
254.428
291.522
268.82
311.957
250.687
316.15
180.628
79.392
127.962
59.1838
83.9013
108.31
109.5
117.116
128.324
128.607
116.402
123.608
141.732
128.177
121.518
121.711
78.9373
93.7701
114.017
205.868
136.431
213.382
170.394
152.676
186.025
207.038
168.255
159.759
123.742
140.989
201.991
137.259
142.706
107.746
108.448
132.473
103.908
109.343
97.1215
120.007
106.366
120.174
120.324
129.94
118.575
89.86
139.232
85.5115
113.641
632.971
634.734
638.147
635.474
638.582
624.238
624.964
626.679
625.495
629
628.174
627.105
627.945
632.555
630.778
630.193
630.926
629.349
629.545
629.996
629.615
333.95
227.285
274.493
260.068
334.976
274.286
259.822
335.003
230.931
276.096
261.928
334.865
275.341
261.219
205.682
206.457
258.637
239.96
247.846
265.427
237.904
264.038
260.344
258.41
263.958
239.378
247.755
237.425
258.499
263.948
227.148
262.141
262.144
227.56
188.658
192.538
186.661
194.273
227.834
261.231
225.74
262.403
188.997
196.308
189.197
195.595
205.678
204.072
256.113
237.147
245.651
261.664
235.377
256.393
261.674
256.165
262.75
237.766
245.548
235.721
257.604
261.478
230.005
263.574
264.747
228.451
191.241
198.599
190.549
198.604
229.924
265.013
264.958
229.711
191.035
196.996
189.757
198.096
282.344
283.29
320.978
368.681
342.641
320.523
341.972
341.107
319.894
368.213
319.823
341.739
523.816
597.257
523.289
598.042
469.447
559.029
438.262
453.855
560.094
468.715
454.697
470.073
456.163
438.77
562.259
560.434
455.459
470.919
524.299
599.638
598.343
525.14
282.425
280.794
317.857
365.804
338.935
317.666
339.671
340.627
318.958
366.503
318.401
339.953
526.677
601.767
600.857
527.193
526.14
599.758
600.691
525.604
287.574
285.289
322.093
369.282
342.808
321.724
343.681
344.63
322.775
369.94
322.732
343.526
530.541
606.098
531.691
604.241
529.967
603.702
604.359
529.655
287.153
288.583
325.646
346.913
371.342
325.071
345.782
344.496
324.43
370.236
323.815
345.676
527.806
602.062
602.267
527.799
528.476
602.974
602.66
528.648
210.368
208.454
261.189
241.638
250.643
266.752
239.887
261.474
266.775
261.372
267.998
242.625
250.716
240.234
262.896
266.518
235.658
269.14
270.476
233.889
196.302
207.067
195.818
206.499
235.525
271.024
235.352
270.833
196.243
204.198
194.75
205.784
210.762
211.729
264.803
245.348
271.426
254.403
266.703
243.15
269.813
264.244
269.36
244.274
254.138
242.547
264.305
269.54
232.275
267.591
267.546
233.041
193.276
199.174
191.154
201.055
233.119
266.624
230.704
267.843
193.747
203.424
194.127
202.473
623.821
622.702
621.951
622.576
620.082
620.451
621.505
620.845
614.707
615.282
616.907
616.003
619.509
618.615
617.562
618.272
598.083
599.252
602.085
600.701
606.815
605.544
603.482
604.616
613.927
612.848
611.5
612.303
607.964
608.676
610.573
609.601
321.989
211.29
258.479
243.321
323.45
258.028
243.223
324.099
214.666
260.065
245.4
323.762
259.566
244.642
188.573
189.973
237.893
221.536
227.949
244.579
219.764
243.183
239.802
237.781
242.57
220.678
227.879
219.027
237.182
243.095
205.559
239.362
239.056
206.258
168.96
163.583
166.858
165.371
206.273
237.565
203.761
239.418
169.537
167.68
169.873
166.896
188.282
185.966
233.955
216.891
224.168
238.637
215.439
233.236
239.345
233.966
240.667
218.092
224.19
216.224
235.871
239.201
209.607
241.442
243.11
207.735
172.651
170.958
172.167
170.809
209.486
243.372
243.17
209.386
172.251
168.645
170.772
169.909
263.531
265.052
303.002
350.932
324.784
302.258
323.641
321.836
301.01
349.943
301.189
323.112
499.042
570.986
497.619
572.308
446.526
536.514
417.781
430.743
538.103
445.184
432.282
447.661
434.491
418.653
540.43
538.443
433.279
448.852
500.189
575.136
573.598
501.704
263.289
260.847
296.701
345.88
317.275
297.027
318.886
320.992
299.235
347.151
298.374
319.556
452.168
544.614
422.678
438.676
542.887
437.751
453.143
504.991
579.821
578.43
506.269
451.283
435.652
421.968
541.079
542.543
436.923
450.113
504.105
576.369
577.616
502.886
269.867
267.904
304.516
353.152
325.447
304.527
326.564
327.966
306.068
354.053
305.489
326.929
512.194
586.941
513.161
585.789
458.742
550.508
444.838
428.481
459.452
549.054
444.192
511.571
584.43
585.293
510.784
458.136
442.742
427.974
547.88
548.827
443.635
457.35
269.909
271.019
308.727
330.567
356.627
308.183
329.719
328.483
307.45
355.871
307.364
329.422
455.021
545.069
425.238
439.587
545.986
454.161
440.629
508.132
580.856
581.675
507.288
508.913
583.579
582.501
509.918
455.746
441.997
425.791
547.486
546.124
441.236
456.489
194.008
192.121
241.249
223.802
231.179
246.304
222.177
241.016
246.66
241.171
247.686
224.551
231.085
222.675
242.762
246.41
215.77
248.231
249.645
214.145
178.208
178.772
177.585
178.722
215.698
249.773
215.39
249.736
177.914
176.824
176.592
177.946
194.187
195.189
244.196
227.167
250.811
234.028
245.897
225.354
249.525
244.084
249.202
226.582
233.996
224.812
243.84
249.466
212.391
246.524
246.44
212.92
174.988
171.882
172.935
173.654
213.091
245.309
210.764
246.832
175.53
175.918
175.798
175.175
596.308
594.508
591.05
592.866
582.333
584.4
588.862
586.665
554.848
558.965
566.691
562.602
579.352
576.439
570.301
573.605
401.735
417.575
445.556
430.315
492.189
481.384
457.339
470.363
549.941
544.595
532.953
539.126
502.337
510.828
526.255
518.722
280.718
159.817
205.904
193.515
285.575
203.208
192.051
288.78
170.338
210.049
198.489
285.554
211.717
198.927
137.942
139.678
178.467
166.327
172.421
185.874
165.169
184.382
181.569
178.697
183.301
165.311
173.294
163.468
176.804
184.364
153.132
178.303
177.884
154.364
131.453
127.954
129.101
128.3
156.998
176.657
154.232
180.419
130.54
125.31
130.724
126.456
139.155
136.857
172.989
162.3
172.071
177.38
160.457
170.063
179.269
172.727
179.704
161.702
170.013
161.392
175.308
178.955
158.738
181.732
184.84
154.496
132.531
123.195
132.651
123.067
156.223
184.652
183.416
158.207
132.842
123.721
130.615
124.243
188.888
193.94
230.975
275.98
244.851
226.999
239.75
230.367
220.274
274.53
223.692
235.185
339.268
380.368
328.16
396.935
349.755
424.719
408.287
361.257
189.052
183.595
208.181
259.71
213.372
211.206
217.363
225.57
216.971
259.238
213.194
221.292
390.079
467.814
457.06
399.551
381.114
434.664
447.645
370.829
213.065
206.759
235.356
289.584
249.384
238.421
254.466
263.248
245.917
292.221
242.282
258.395
445.484
521.93
450.958
516.244
440.837
504.641
511.426
434.598
214.379
219.616
259.799
279.191
306.772
256.761
274.958
267.183
250.425
303.97
253.153
271.734
415.299
475.601
484.26
407.368
421.807
498.975
491.109
429.056
148.547
144.048
186.56
171.328
179.563
190.41
170.312
183.983
192.26
186.732
194.868
174.558
179.561
172.623
190.462
192.599
173.869
198.872
202.829
168.981
143.602
135.036
144.487
132.999
172.969
204.543
175.341
202.619
142.477
128.358
139.455
131.548
149.577
153.271
196.967
184.453
205.439
189.161
200.915
182.229
202.82
196.414
199.844
180.45
188.71
179.773
193.406
202.125
163.411
193.952
192.131
166.352
136.249
122.774
133.409
125.058
165.203
189.246
160.106
193.03
136.874
127.406
137.989
125.603
388.153
372.176
344.299
359.851
316.489
322.998
335.041
322.734
716.265
761.237
281.85
295.159
322.92
322.006
306.98
350.692
661.096
610.316
804.841
828.283
831.126
613.041
658.282
590.259
748.216
535.991
681.147
605.198
724.696
519.019
560.158
455.36
644.731
644.485
687.401
489.877
526.948
691.978
645.106
870.117
842.47
869.6
692.466
644.67
948.793
914.194
951.278
956.42
916.75
954.232
945.369
905.478
942.309
901.885
934.934
938.315
856.644
819.735
868.594
886.626
833.038
879.071
620.079
763.899
547.46
734.925
615.52
773.675
555.059
624.565
568.887
787.429
745.359
781.537
627.652
562.74
836.774
754.278
811.139
713.972
728.926
768.469
699.528
876.131
852.676
647.944
652.962
879.195
696.651
700.85
856.15
656.635
881.064
648.532
812.441
788.825
594.963
598.842
816.09
645.151
651.999
606.72
824.132
793.51
655.196
603.261
820.812
991.339
955.204
994.928
958.416
997.051
692.589
872.859
643.888
841.23
694.149
871.057
642.434
692.181
644.52
870.443
841.512
692.44
870.158
643.04
958.889
922.719
960.618
916.771
884.483
921.257
930.454
889.671
926.452
911.097
867.069
905.977
893.841
859.676
899.57
638.048
807.389
590.141
773.25
641.489
803.246
585.489
634.337
574.79
793.242
766.974
631.199
797.796
579.807
478.782
565.728
446.899
461.874
569.144
463.7
476.894
480.256
467.896
575.208
448.074
570.461
482.709
466.051
470.506
576.678
471.777
484.063
440.689
424.635
412.712
530.481
532.78
426.552
438.87
433.092
523.313
406.147
416.795
525.978
419.191
430.859
434.957
422.834
407.515
529.519
526.571
420.877
436.919
410.591
502.131
387.16
393.937
506.626
397.659
406.804
413.761
403.771
512.344
389.279
507.626
417.151
400.567
425.834
522.246
414.555
399.653
428.404
518.523
412.079
423.39
406.744
397.904
513.78
517.623
409.795
420.323
294.695
421.132
298.56
306.218
407.663
301.474
301.733
287.645
289.1
297.231
389.514
406.797
295.167
280.04
259.278
341.425
256.333
259.458
360.871
266.064
254.696
264.952
280.433
261.879
385.347
364.205
273.468
271.754
249.206
337.098
252.863
217.711
249.152
320.877
247.222
250.204
230.242
212.712
306.138
319.933
240.61
238.668
472.748
564.499
441.44
458.431
563.833
458.203
473.109
472.378
457.11
441.188
562.801
563.788
457.82
471.617
474.487
564.755
460.324
442.074
475.639
562.211
459.255
473.874
458.07
441.494
561.938
561.978
458.647
473.601
473.467
564.307
441.717
458.617
563.591
473.419
458.852
473.533
458.432
441.702
562.441
562.945
458.446
473.294
317.128
421.928
319.986
312.464
433.184
309.506
317.612
324.369
329.247
320.857
445.314
433.79
323.804
332.44
354.357
467.778
342.346
353.191
458.769
347.886
361.209
347.756
336.088
340.208
447.174
457.449
341.977
339.88
398.477
500.654
390.342
376.599
402.831
494.77
386.409
394.341
378.004
374.097
487.247
493.456
382.561
389.261
373.405
469.317
358.062
358.581
476.62
367.297
363.801
378.659
373.326
360.572
485.38
477.897
368.537
384.272
)
;

boundaryField
{
    left
    {
        type            calculated;
        value           nonuniform List<scalar> 0();
    }
    bottom
    {
        type            calculated;
        value           nonuniform List<scalar> 
214
(
744.081
711.47
638.605
747.271
717.437
655.322
759.298
734.918
688.536
755.012
731.186
679.819
433.658
431.709
741.159
412.468
408.171
704.652
394.671
369.751
592.146
750.105
437.435
435.614
722.622
419.624
416.281
663.777
393.098
395.79
250.93
443.143
237.962
241.383
233.616
237.196
738.246
429.76
427.599
216.605
221.792
208.45
215.142
696.96
403.478
398.711
180.134
222.402
167.233
595.684
294.699
694.316
441.119
439.155
752.226
246.213
250.241
242.138
245.502
425.188
422.545
727.134
228.472
232.651
222.867
227.392
394.628
392.383
671.392
207.625
207.618
224.141
210.891
671.855
390.772
795.505
253.019
253.954
239.674
240.517
235.418
236.31
219.066
220.269
211.14
212.659
195.752
215.162
202.374
146.354
346.219
221.295
248.266
249.172
243.873
244.631
230.439
231.498
224.895
226.045
206.833
206.163
220.001
214.876
493.926
455.32
568.585
268.124
362.012
413.925
720.197
548.284
470.96
279.537
281.204
272.176
274.31
283.716
241.282
241.92
236.421
237.59
245.542
245.52
243.233
243.854
231.057
231.808
225.803
227.192
235.353
235.279
233.083
233.741
191.464
192.708
183.554
186.089
198.102
198.248
194.295
195.292
163.686
167.1
151.841
156.35
179.064
180.985
170.496
173.852
110.761
123.156
92.4641
96.7518
142.016
141.19
137.79
142.203
168.726
243.43
130.789
126.614
190.879
146.288
292.548
264.016
263.203
263.994
257.586
258.98
269.35
269.752
265.71
266.839
252.165
252.889
246.967
248.293
256.531
256.478
254.249
254.916
218.844
219.781
213.105
214.653
224.135
224.343
221.238
222.088
205.432
206.325
199.621
201.036
211.274
211.566
207.878
208.865
128.174
131.41
120.441
123.434
144.905
148.347
134.358
138.821
130.166
126.997
139.135
136.67
120.289
120.656
122.202
121.318
)
;
    }
    interface
    {
        type            calculated;
        value           nonuniform List<scalar> 
1684
(
226.358
230.188
199.339
210.077
115.247
149.902
234.129
230.074
217.401
210.462
159.084
149.536
239.336
226.468
222.538
198.384
181.719
95.3012
234.068
239.58
217.515
222.539
160.108
180.089
500.495
533.578
718.842
354.009
594.816
769.404
228.325
228.255
204.931
205.58
144.075
146.004
231.838
231.988
214.354
214.11
152.52
152.693
241.553
241.757
224.544
224.606
191.407
190.047
52.6806
489.256
565.13
336.185
726.974
428.659
222.326
205.673
322.45
410.553
149.997
145.751
230.193
166.938
444.714
223.355
142.196
198.037
185.072
146.188
236.946
236.983
220.144
220.217
169.119
170.766
597.515
778.866
456.202
227.175
228.545
201.976
207.368
130.614
147.249
232.269
230.891
215.286
212.197
154.964
151.212
240.449
291.27
208.53
211.881
277.626
281.196
224.831
223.462
182.458
191.968
194.69
185.454
69.9917
116.425
109.333
235.199
237.616
215.836
212.274
285.441
281.517
285.783
290.848
218.727
220.744
267.372
260.361
268.091
272.991
199.737
204.173
163.865
175.362
147.056
142.222
201.531
225.805
148.169
164.02
586.013
478.757
603.846
451.483
647.433
677.121
428.522
409.17
653.776
722.477
226.647
229.064
201.771
207.71
136.896
148.565
232.732
230.299
215.779
211.726
155.205
149.886
243.152
239.625
353.439
315.838
530.666
531.487
311.871
349.613
350.494
352.263
314.98
207.352
265.767
170.123
207.066
264.066
265.447
171.225
262.853
280.291
280.224
210.507
209.985
263.872
263.679
196.95
250.408
251.56
162.102
196.877
161.664
249.526
267.619
265.975
195.108
159.908
194.942
160.67
298.934
336.585
338.049
300.543
337.492
518.929
464.661
452.043
451.725
465.075
518.409
279.573
302.39
339.916
338.514
300.832
339.112
462.578
449.227
449.689
462.172
516.21
515.936
516.806
225.365
222.901
298.59
336.076
335.582
275.618
334.634
297.01
511.426
510.927
458.035
444.406
445.083
457.331
461.219
448.542
461.531
448.281
514.604
294.808
332.356
334.033
296.59
206.723
245.123
262.838
246.755
261.285
191.239
156.737
191.081
243.564
244.871
157.535
258.873
258.879
193.294
159.048
193.223
158.643
233.315
234.724
219.007
177.711
225.319
227.395
146.759
177.619
227.583
146.117
225.822
242.825
240.722
173.607
143.183
173.57
144.148
253.562
268.742
305.059
310.781
274.486
491.174
439.229
427.627
426.401
440.668
489.552
280.344
316.984
312.621
275.906
481.341
194.615
185.78
266.962
302.719
239.241
295.324
259.578
298.103
456.348
459.949
473.356
470.578
248.055
282.792
286.336
292.31
257.305
230.267
215.708
227.495
161.102