/*--------------------------------*- C++ -*----------------------------------*\
| =========                 |                                                 |
| \\      /  F ield         | OpenFOAM: The Open Source CFD Toolbox           |
|  \\    /   O peration     | Version:  2012                                  |
|   \\  /    A nd           | Website:  www.openfoam.com                      |
|    \\/     M anipulation  |                                                 |
\*---------------------------------------------------------------------------*/
FoamFile
{
    version     2.0;
    format      ascii;
    class       volScalarField;
    location    "0.106/solid";
    object      sigmaDiff;
}
// * * * * * * * * * * * * * * * * * * * * * * * * * * * * * * * * * * * * * //

dimensions      [1 -1 -2 0 0 0 0];


internalField   nonuniform List<scalar> 
3125
(
-806.082
-775.116
-719.036
-809.216
-780.817
-733.083
-820.902
-797.445
-754.856
-816.177
-793.888
-748.178
-238.91
-461.06
-845.606
-803.346
-242.867
-843.386
-458.493
-212.247
-433.266
-825.26
-768.739
-223.198
-818.789
-427.205
-130.454
-385.829
-772.169
-676.324
-169.628
-673.799
-364.06
-971.782
-976.24
-246.803
-811.929
-463.674
-847.272
-242.497
-850.803
-466.205
-969.857
-966.781
-947.157
-953.428
-230.407
-785.779
-438.4
-827.262
-223.233
-832.507
-442.818
-944.819
-936.962
-887.594
-909.964
-174.601
-738.076
-390.423
-784.554
-168.88
-800.339
-391.268
-872.761
-765.36
-854.744
-474.835
-251.378
-657.953
-328.701
-312.822
-307.966
-646.171
-643.153
-239.283
-800.627
-839.193
-453.193
-842.725
-235.15
-455.967
-637.757
-642.061
-301.178
-306.312
-281.087
-271.682
-617.458
-604.976
-211.702
-761.881
-809.828
-411.739
-816.582
-195.168
-419.988
-577.944
-599.479
-252.059
-267.89
-214.978
-198.258
-426.871
-347.871
-110.926
-676.467
-628.554
-300.385
-324.535
-195.058
-981.721
-977.583
-975.885
-246.387
-813.625
-850.539
-471.792
-251.886
-850.098
-468.817
-314.353
-319.365
-647.862
-652.379
-654.589
-652.746
-327.444
-321.172
-961.539
-965.906
-959.883
-955.127
-230.215
-790.061
-837.803
-450.077
-235.429
-833.944
-446.642
-283.595
-290.812
-620.809
-628.592
-636.02
-630.765
-299.25
-293.065
-693.339
-925.382
-934.267
-664.58
-687.572
-922.563
-913.233
-500.713
-588.263
-654.075
-609.493
-175.302
-742.486
-807.813
-403.143
-193.97
-802.181
-395.644
-218.094
-227.03
-451.574
-515.489
-568.381
-531.35
-247.152
-229.92
-468.956
-399.15
-785.026
-720.771
-383.178
-577.577
-675.607
-826.862
-438.573
-763.66
-879.006
-522.804
-241.067
-459.593
-333.944
-334.544
-460.214
-521.831
-523.612
-240.703
-335.963
-462.013
-524.747
-335.467
-461.112
-495.928
-218.107
-428.859
-311.476
-313.808
-432.284
-492.103
-498.655
-218.388
-318.184
-438.558
-501.635
-316.538
-435.88
-441.36
-164.838
-281.848
-239.472
-264.131
-312.768
-410.844
-456.747
-166.662
-279.122
-347.063
-464.251
-276.661
-335.621
-528.277
-244.282
-467.171
-339.127
-529.185
-338.721
-466.469
-527.309
-244.653
-336.996
-463.473
-525.886
-337.775
-464.919
-508.259
-227.077
-447.615
-324.831
-510.238
-323.794
-445.894
-506.352
-227.152
-320.408
-441.371
-503.888
-321.88
-443.518
-458.897
-169.449
-373.766
-279.663
-460.925
-277.382
-367.064
-463.812
-169.872
-277.799
-354.926
-462.733
-277.841
-360.137
-537.903
-253.955
-479.111
-345.606
-536.662
-254.319
-471.942
-343.339
-475.753
-344.578
-533.975
-436.566
-662.16
-513.482
-521.056
-665.469
-522.322
-430.605
-435.973
-295.625
-307.532
-331.422
-307.825
-292.844
-294.185
-333.21
-312.103
-272.509
-273.939
-291.816
-311.827
-291.572
-277.052
-275.239
-289.396
-310.08
-288.848
-418.047
-418.693
-504.519
-644.95
-502.929
-420.784
-419.839
-501.498
-643.881
-502.364
-520
-458.649
-237.121
-333.08
-521.075
-457.762
-332.621
-518.935
-237.432
-455.215
-330.741
-456.389
-331.538
-517.54
-417.051
-415.917
-639.232
-496.503
-498.47
-500.938
-640.8
-499.248
-413.41
-414.774
-271.257
-269.665
-284.049
-303.414
-283.505
-266.875
-268.384
-286.554
-305.26
-286.467
-238.023
-242.346
-264.37
-278.771
-263.997
-248.637
-245.081
-257.941
-275.771
-257.992
-384.904
-390.034
-479.459
-613.861
-474.558
-396.527
-392.652
-466.431
-609.517
-472.59
-484.005
-424.38
-204.488
-308.158
-488.903
-419.925
-305.241
-480.402
-203.546
-408.804
-297.611
-414.214
-301.273
-474.305
-381.795
-374.779
-585.941
-442.134
-452.78
-464.093
-593.347
-455.698
-362.112
-371.24
-234.633
-228.845
-240.148
-258.502
-240.74
-218.174
-224.841
-250.434
-263.177
-249.661
-181.041
-204.648
-197.214
-205.845
-192.101
-197.777
-201.64
-173.463
-196.667
-181.136
-214.217
-258.582
-351.464
-401.247
-319.522
-288.482
-262.918
-267.936
-373.086
-315.295
-382.502
-243.629
-62.9797
-197.106
-401.122
-235.437
-172.334
-563.566
-658.325
-387.072
-838.506
-491.218
-264.698
-221.898
-392.358
-469.042
-167.113
-259.098
-170.156
-202.363
-172.508
-509.151
-253.12
-255.299
-320.399
-253.589
-149.662
-166.608
-132.158
-237.221
-198.474
-161.893
-159.267
-188.99
-152.394
-529.971
-249.43
-467.449
-339.729
-529.353
-467.192
-340.286
-530.435
-248.962
-468.802
-341.931
-532.039
-467.433
-341.163
-282.897
-280.875
-294.631
-316.443
-294.282
-278.305
-279.696
-297.418
-318.1
-297.148
-425.715
-424.549
-505.289
-649.589
-507.901
-421.915
-423.65
-510.199
-651.264
-508.65
-426.542
-426.088
-512.129
-653.03
-509.892
-429.079
-427.673
-510.445
-652.505
-509.525
-284.455
-287.086
-304.069
-325.927
-303.37
-291.568
-288.909
-300.557
-323.986
-300.236
-513.474
-233.079
-449.487
-326.396
-511.774
-450.879
-327.41
-514.829
-232.858
-453.731
-329.516
-516.303
-452.513
-328.81
-258.106
-255.625
-269.478
-286.498
-269.133
-250.954
-253.663
-273.627
-289.005
-273.518
-405.841
-403.526
-481.035
-623.53
-484.715
-398.734
-401.645
-489.17
-626.298
-486.062
-407.441
-409.172
-495.652
-634.35
-493.463
-412.121
-410.636
-490.24
-632.471
-492.514
-259.882
-261.801
-280.743
-297.845
-280.649
-265.402
-263.4
-277.638
-295.653
-277.109
-672.987
-681.054
-533.088
-563.04
-641.635
-626.604
-463.047
-183.561
-381.221
-281.919
-457.288
-388.064
-285.611
-463.945
-184.84
-402.19
-293.411
-471.064
-395.72
-289.477
-194.356
-193.513
-205.917
-221.768
-204.462
-196.45
-192.843
-209.755
-222.921
-210.514
-324.725
-306.978
-351.824
-474.782
-376.062
-287.449
-306.452
-400.408
-496.511
-378.326
-327.684
-342.455
-438.881
-557.718
-424.74
-358.176
-346.229
-403.634
-545.209
-421.099
-197.308
-202.474
-229.941
-240.768
-228.912
-213.694
-206.665
-218.55
-236.187
-218.756
-441.531
-416.915
-697.858
-893.967
-526.551
-371.826
-376.338
-239.833
-296.602
-275.397
-274.209
-296.253
-376.281
-694.681
-913.125
-670.233
-844.437
-695.778
-912.203
-669.027
-377.941
-240.934
-277.207
-299.304
-379.47
-277.228
-298.592
-694.303
-667.611
-843.762
-910.352
-910.791
-668.119
-693.589
-350.331
-215.047
-268.129
-248.579
-247.826
-269.075
-348.128
-676.901
-888.182
-642.578
-823.115
-678.868
-886.391
-639.3
-356.316
-220.166
-255.95
-277.945
-358.901
-255.838
-276.549
-245.888
-150.096
-150.672
-161.69
-177.808
-169.62
-215.491
-283.34
-167.643
-201.911
-208.816
-294.509
-200.865
-204.66
-1059.73
-973.697
-1061.44
-1064.13
-975.394
-1063.34
-382.135
-244.636
-303.469
-281.265
-383.481
-281.293
-302.773
-697.997
-915.025
-672.175
-848.977
-696.556
-916.194
-674.184
-380.068
-243.429
-279.172
-300.283
-379.792
-278.003
-300.011
-1057.52
-968.288
-1056.06
-967.342
-1053.58
-1054.41
-364.61
-227.991
-285.928
-263.728
-366.556
-263.752
-284.919
-682.147
-891.297
-645.867
-829.042
-680.416
-892.828
-648.387
-360.711
-225.129
-259.426
-279.87
-359.581
-258.381
-280.134
-683.483
-653.325
-896.898
-830.856
-895.568
-684.993
-651.183
-301
-170.921
-222.701
-207.6
-308.534
-206.691
-219.338
-297.426
-169.368
-203.86
-209.943
-291.41
-202.33
-211.503
-388.383
-252.729
-309.22
-288.627
-309.393
-287.337
-387.302
-316.002
-317.367
-218.021
-218.702
-206.726
-206.939
-209.713
-208.308
-301.574
-302.772
-306.062
-304.041
-374.681
-295.651
-237.372
-273.427
-376.081
-294.944
-273.484
-691.502
-905.434
-840.45
-662.324
-663.779
-906.424
-690.323
-692.221
-666.619
-908.97
-841.721
-693.202
-665.465
-908.216
-372.616
-236.187
-292.559
-271.457
-292.326
-270.306
-372.288
-301.946
-299.958
-297.161
-298.413
-206.437
-205.079
-203.315
-203.646
-183.162
-184.721
-191.808
-189.696
-270.065
-273.627
-283.153
-279.783
-343.219
-265.355
-207.69
-243.909
-347.209
-263.154
-243.381
-333.816
-198.93
-249.449
-231.685
-251.372
-231.411
-329.99
-269.655
-264.888
-249.216
-254.501
-181.646
-178.797
-168.76
-170.981
-142.954
-158.937
-155.919
-153.542
-154.468
-171.929
-200.517
-194.618
-160.685
-131.043
-82.0347
-134.968
-199.556
-102.693
-125.713
-589.905
-660.455
-744.155
-551.873
-601.888
-725.651
-531.207
-570.752
-455.937
-717.357
-619.64
-563.716
-447.021
-723.588
-425.495
-272.877
-439.404
-299.735
-442.355
-260.356
-410.499
-143.23
-121.599
-125.232
-89.6032
-1068.32
-975.24
-1066
-1064.76
-975.032
-1064.69
-383.362
-247.673
-304.492
-283.395
-383.411
-304.077
-282.22
-384.604
-249.493
-307.891
-286.161
-386.681
-306.966
-286.261
-213.265
-211.738
-210.003
-210.267
-310.745
-308.359
-305.653
-306.749
-310.116
-311.962
-316.206
-313.65
-213.582
-214.023
-217.943
-216.17
-1047.2
-963.003
-1048.66
-1051.98
-964.541
-1050.72
-1044.92
-958.124
-1043.29
-367.605
-231.562
-287.338
-266.435
-367.022
-287.268
-265.291
-688.225
-903.427
-660.516
-836.44
-689.445
-902.36
-658.938
-370.285
-233.351
-291.438
-269.224
-371.934
-290.621
-269.251
-687.315
-655.481
-899.229
-835.135
-686.071
-900.263
-657.051
-198.303
-196.611
-192.727
-193.641
-291.623
-289.053
-283.184
-285.506
-291.455
-293.096
-297.46
-295.293
-198.883
-199.419
-202.898
-201.413
-312.563
-178.589
-225.621
-211.886
-307.492
-227.973
-211.488
-323.186
-189.078
-245.851
-226.029
-329.218
-242.625
-224.876
-153.947
-151.65
-154.317
-154.437
-220.789
-213.615
-199.321
-204.026
-221.26
-227.597
-248.396
-241.838
-154.494
-155.921
-166.78
-163.3
-811.807
-837.664
-830.083
-815.283
-720.332
-832.086
-677.26
-556.627
-645.532
-707.147
-573.264
-631.645
-747.939
-783.927
-707.055
-500.041
-510.145
-573.354
-764.469
-831.423
-376.268
-239.119
-275.322
-297.446
-377.703
-275.324
-296.794
-377.985
-241.636
-277.287
-298.43
-377.903
-276.075
-298.041
-350.554
-214.623
-250.609
-272.411
-353.764
-250.322
-270.671
-356.161
-220.697
-254.655
-274.739
-354.59
-253.72
-275.305
-248.487
-155.904
-194.399
-191.346
-271.896
-187.87
-179.791
-286.378
-168.835
-201.038
-198.35
-273.884
-200.51
-203.682
-382.287
-245.31
-281.241
-302.442
-382.103
-280.032
-302.203
-380.156
-242.669
-279.182
-301.438
-381.813
-279.192
-300.618
-364.55
-228.661
-263.298
-284.008
-363.723
-262.177
-284.092
-360.85
-224.461
-260.231
-282.351
-363.129
-260.183
-281.174
-303.429
-171.317
-205.546
-215.734
-298.085
-204.505
-217.738
-293.152
-167.887
-203.021
-214.176
-300.792
-202.85
-211.48
-392.523
-255.798
-313.384
-291.933
-391.709
-313.68
-290.763
-388.815
-251.733
-311.911
-289.007
-391.336
-310.428
-289.105
-319.928
-322.325
-382.878
-438.033
-365.312
-365.976
-383.964
-568.483
-663.901
-666.314
-567.093
-569.202
-669.668
-571.192
-666.002
-572.77
-668.436
-571.552
-670.827
-319.741
-317.176
-360.591
-432.016
-377.116
-361.047
-378.592
-381.218
-364.073
-433.24
-362.465
-379.961
-220.396
-221.29
-298.053
-302.172
-272.737
-292.955
-270.147
-297.409
-302.563
-274.48
-315.786
-315.181
-275.518
-229.163
-212.761
-226.433
-217.346
-275.376
-313.57
-315.117
-272.611
-229.496
-220.27
-230.197
-216.446
-220.169
-218.226
-294.077
-268.552
-289.645
-297.985
-266.153
-298.201
-294.09
-294.258
-300.101
-269.465
-289.419
-267.046
-296.477
-298.204
-279.458
-318.284
-319.912
-276.769
-217.894
-230.938
-208.032
-206.656
-274.724
-251.993
-269.383
-279.248
-249.772
-279.305
-274.871
-274.692
-280.23
-252.416
-269.223
-250.153
-276.144
-278.924
-260.21
-296.893
-298.211
-258.568
-215.751
-200.956
-214.941
-201.531
-260.147
-298.465
-298.458
-259.627
-215.625
-199.961
-214.269
-200.978
-208.331
-208.598
-277.538
-254.781
-272.313
-283.262
-252.565
-281.794
-279.343
-277.221
-281.532
-254.295
-272.129
-251.98
-277.137
-281.685
-257.13
-295.33
-295.43
-257.554
-212.886
-196.497
-210.665
-198.062
-257.958
-294.559
-295.822
-255.524
-213.384
-199.155
-213.607
-199.134
-304.105
-301.988
-347.261
-417.866
-364.637
-346.956
-365.458
-366.297
-347.948
-418.552
-347.729
-365.422
-556.173
-654.169
-556.98
-652.932
-531.027
-638.79
-503.656
-517.96
-637.094
-517.375
-531.703
-530.569
-516.286
-503.217
-636.381
-636.913
-516.928
-530.052
-555.67
-652.198
-555.24
-652.856
-303.578
-304.843
-349.982
-420.356
-368.085
-349.642
-367.232
-366.358
-349.231
-419.58
-348.809
-367.197
-528.882
-635.281
-501.703
-514.846
-635.554
-515.468
-528.423
-553.552
-650.041
-553.248
-650.485
-529.23
-515.999
-501.979
-636.288
-635.427
-515.654
-529.537
-554.057
-651.631
-554.552
-650.922
-374.74
-238.062
-294.726
-273.562
-374.559
-294.445
-272.36
-372.638
-235.455
-293.686
-271.463
-374.243
-292.913
-271.478
-346.106
-364.423
-416.617
-345.709
-363.645
-299.448
-300.634
-362.695
-415.965
-345.191
-344.997
-363.508
-548.654
-644.534
-645.199
-548.036
-523.889
-629.455
-497.081
-509.542
-630.393
-510.491
-523.119
-524.515
-511.777
-632.196
-497.606
-630.556
-525.237
-511.068
-549.237
-646.915
-550.069
-645.878
-527.27
-635.103
-514.335
-500.248
-527.842
-633.763
-513.863
-551.894
-649.546
-552.62
-648.526
-526.786
-512.554
-499.839
-632.631
-633.601
-513.38
-526.007
-551.36
-647.473
-550.725
-648.293
-299.768
-297.707
-342.856
-413.426
-360.276
-342.659
-361.267
-362.36
-343.937
-414.299
-343.529
-361.414
-205.119
-205.39
-272.177
-250.03
-277.904
-266.644
-273.963
-248.017
-276.556
-272.064
-276.356
-249.779
-266.564
-247.408
-271.835
-276.529
-251.699
-289.705
-289.738
-252.125
-207.699
-191.06
-205.446
-192.688
-252.481
-288.714
-290.153
-249.988
-208.292
-193.948
-208.529
-193.919
-204.782
-203.371
-269.501
-247.236
-263.922
-273.816
-245.089
-274.047
-269.401
-269.426
-274.962
-247.663
-263.74
-245.569
-270.983
-273.678
-254.975
-291.379
-292.757
-253.293
-210.879
-195.686
-210.044
-196.453
-254.913
-292.898
-254.402
-292.925
-210.641
-194.881
-209.275
-195.805
-187.29
-184.85
-242.758
-222.189
-236.362
-245.87
-220.643
-247.564
-240.552
-242.885
-249.62
-224.234
-236.608
-222.307
-245.859
-247.55
-233.356
-266.78
-269.222
-230.781
-191.406
-176.296
-191.027
-176.51
-233.148
-269.982
-269.37
-233.316
-190.785
-174.234
-188.946
-175.764
-188.481
-189.706
-249.482
-229.941
-243.304
-255.983
-228.128
-254.089
-252.227
-249.266
-252.635
-228.632
-242.958
-226.715
-247.534
-253.89
-227.175
-263.508
-262.665
-228.516
-185.777
-168.553
-182.845
-171.31
-228.044
-259.996
-263
-224.207
-186.961
-173.349
-187.681
-172.563
-277.205
-273.169
-315.788
-386.298
-332.415
-316.702
-335.198
-338.824
-320.294
-388.455
-318.967
-336.337
-527.823
-625.276
-529.819
-623.34
-503.229
-611.252
-477.67
-491.659
-608.232
-489.999
-504.915
-526.352
-619.766
-524.283
-621.744
-277.413
-280.313
-326.518
-395.328
-345.081
-325.489
-343.133
-340.123
-323.139
-393.625
-323.723
-342.296
-517.996
-610.495
-515.448
-612.776
-519.897
-617.517
-522.405
-615.095
-342.996
-207.835
-259.719
-240.924
-339.943
-261.201
-240.436
-333.928
-199.004
-256.447
-235.602
-338.949
-253.72
-234.742
-312.351
-330.694
-379.542
-310.554
-327.638
-260.728
-265.151
-322.57
-377.038
-306.323
-307.802
-325.95
-492.734
-581.135
-585.728
-488.241
-496.09
-594.216
-500.395
-589.719
-509.723
-607.486
-512.965
-604.311
-507.191
-597.829
-503.603
-601.37
-260.054
-254.349
-294.605
-365.143
-310.022
-296.54
-314.199
-320.224
-302.276
-368.169
-299.952
-316.432
-176.512
-178.497
-234.585
-216.871
-242.028
-228.191
-238.394
-214.908
-239.493
-234.15
-236.795
-213.968
-227.607
-212.647
-231.019
-239.058
-210.235
-245.969
-244.126
-213.023
-170.771
-153.411
-167.165
-157.349
-211.302
-240.314
-244.526
-205.941
-172.734
-160.969
-174.313
-158.782
-174.667
-171.406
-223.875
-203.783
-217.143
-226.282
-202.919
-228.999
-220.168
-224.275
-232.142
-207.656
-217.647
-205.554
-228.554
-229.327
-220.409
-250.795
-254.447
-216.194
-180.755
-167.473
-181.245
-166.379
-219.985
-255.911
-221.407
-254.505
-179.284
-162.167
-176.371
-165.281
-163.548
-158.933
-156.625
-148.896
-181.328
-133.033
-161.589
-137.53
-147.738
-159.997
-156.17
-168.834
-183.958
-164.211
-164.173
-146.557
-182.346
-176.407
-188.242
-182.42
-148.155
-141.154
-148.684
-139.026
-178.415
-194.127
-189.141
-177.313
-148.857
-129.06
-147.411
-136.248
-157.436
-157.687
-165.546
-167.565
-188.581
-174.41
-165.444
-169.72
-167.644
-165.577
-162.227
-167.56
-194.134
-165.792
-165
-167.42
-176.939
-161.417
-146.147
-176.906
-154.178
-105.477
-159.755
-105.38
-172.663
-136.288
-139.191
-168.972
-151.143
-120.8
-146.947
-112.644
-187.454
-173.807
-171.043
-232.61
-180.118
-184.586
-194.504
-214.177
-208.982
-241.192
-199.36
-204.22
-334.817
-411.194
-344.948
-392.644
-322.657
-359.679
-313.239
-378.247
-189.44
-196.482
-231.634
-275.843
-235.682
-227.29
-231.571
-221.465
-218.681
-277.495
-224.083
-227.371
-286.553
-323.734
-281.11
-325.286
-294.342
-347.072
-302.057
-332.222
-154.712
-75.4134
-112.97
-118.968
-157.99
-81.9856
-92.1436
-543.726
-675.04
-656.069
-586.357
-772.034
-691.992
-499.515
-497.659
-610.661
-752.387
-818.694
-735.989
-384.502
-485.954
-393.958
-268.966
-305.066
-324.068
-300.102
-259.649
-328.834
-442.993
-339.938
-373.218
-441.68
-353.996
-332.784
-162.279
-146.998
-202.877
-392.707
-172.414
-278.472
-263.707
-160.884
-240.218
-156.172
-165.204
-175.239
-132.603
-147.224
-115.679
-104.042
-106.665
-168.1
-130.067
-124.294
-126.533
-412.332
-303.895
-267.244
-258.347
-342.657
-275.386
-389.898
-221.855
-278.194
-316.417
-275.881
-323.386
-289.529
-353.603
-272.708
-353.616
-198.57
-90.2704
-139.275
-67.9514
-96.2229
-118.581
-120.007
-124.38
-148.019
-143.619
-129.389
-138.117
-163.589
-147.804
-140.288
-140.349
-86.3011
-105.446
-129.522
-221.134
-150.615
-235.103
-196.163
-171.993
-194.056
-227.207
-181.5
-179.718
-142.52
-150.72
-228.435
-155.96
-164.499
-121.84
-124.332
-152.229
-115.449
-125.342
-106.878
-138.453
-109.075
-138.744
-133.73
-149.155
-136.093
-96.5882
-160.063
-98.5954
-128.193
-718.234
-720.373
-724.518
-721.298
-725.082
-708.758
-709.604
-711.578
-710.201
-714.24
-713.294
-712.067
-713.078
-717.762
-715.647
-715.042
-715.907
-714.54
-714.736
-714.997
-714.627
-383.025
-246.995
-305.33
-283.674
-384.43
-304.803
-283.634
-384.616
-250.353
-306.535
-285.927
-384.385
-306.063
-284.679
-211.71
-212.029
-283.16
-259.814
-277.959
-288.998
-257.472
-287.391
-285.113
-282.84
-287.175
-259.267
-277.739
-256.833
-282.72
-287.283
-262.253
-301.111
-301.096
-262.72
-217.713
-201.663
-215.421
-203.528
-263.054
-300.093
-260.622
-301.377
-218.14
-204.724
-218.396
-204.438
-211.441
-209.999
-280.207
-256.656
-275.168
-284.617
-254.455
-280.396
-284.696
-280.286
-285.817
-257.226
-275.013
-254.907
-281.842
-284.422
-265.549
-302.776
-304.092
-263.747
-220.765
-206.424
-219.986
-206.744
-265.443
-304.485
-304.365
-265.177
-220.513
-205.243
-219.049
-206.558
-307.794
-309.092
-354.48
-425.358
-372.489
-354.139
-371.759
-370.898
-353.483
-424.805
-353.387
-371.621
-558.216
-654.599
-557.658
-655.487
-533.304
-639.236
-506.055
-518.704
-640.466
-532.446
-519.677
-534.011
-521.4
-506.64
-643.025
-640.837
-520.571
-534.996
-558.723
-657.256
-655.799
-559.604
-308.113
-306.09
-351.198
-422.032
-368.387
-350.984
-369.28
-370.405
-352.381
-422.868
-351.855
-369.553
-561.29
-659.437
-658.453
-561.79
-560.715
-657.309
-658.373
-560.124
-313.723
-310.817
-355.679
-425.947
-372.475
-355.162
-373.367
-374.039
-355.975
-426.704
-356.183
-372.857
-564.934
-663.837
-566.151
-661.727
-564.278
-661.291
-662.01
-563.989
-312.693
-314.686
-358.932
-376.214
-428.226
-358.427
-374.799
-373.498
-357.781
-426.901
-356.968
-374.827
-562.322
-659.672
-659.881
-562.386
-562.944
-660.515
-660.246
-563
-215.502
-213.793
-286.193
-261.946
-281.579
-290.526
-259.774
-286.343
-290.683
-286.512
-292.095
-263.006
-281.727
-260.216
-288.189
-290.386
-272.017
-309.282
-310.797
-269.956
-226.667
-213.598
-226.111
-212.278
-271.844
-311.539
-271.625
-311.253
-226.597
-210.249
-224.876
-212.769
-215.892
-216.597
-290.698
-266.216
-296.272
-286.525
-292.845
-263.663
-294.402
-289.956
-293.69
-265.067
-286.102
-262.898
-289.826
-294.072
-268.121
-307.465
-307.399
-268.989
-223.137
-206.588
-220.691
-208.977
-269.12
-306.365
-266.316
-307.704
-223.705
-210.415
-224.154
-209.385
-708.312
-707.02
-706.193
-706.919
-704.26
-704.657
-705.745
-705.034
-698.272
-698.892
-700.691
-699.693
-703.639
-702.628
-701.434
-702.256
-679.991
-681.211
-684.309
-682.832
-689.572
-688.185
-685.897
-687.141
-697.398
-696.199
-694.703
-695.596
-690.866
-691.609
-693.663
-692.627
-367.651
-230.838
-288.901
-266.679
-369.47
-288.007
-266.685
-370.296
-234.035
-290.175
-269.148
-369.876
-290.003
-267.977
-196.104
-196.827
-259.211
-238.523
-253.211
-265.219
-236.676
-263.651
-261.436
-259.103
-262.909
-237.854
-253.057
-235.698
-258.146
-263.6
-237.359
-274.835
-274.462
-238.166
-194.389
-177.195
-191.996
-179.04
-238.182
-272.792
-235.283
-274.859
-195.179
-180.596
-195.624
-180.297
-195.386
-193.511
-254.787
-233.627
-248.592
-258.516
-231.701
-253.727
-259.399
-254.752
-260.775
-234.629
-248.59
-232.706
-256.936
-259.153
-242.033
-277.237
-279.112
-239.871
-198.852
-183.385
-198.339
-183.78
-241.892
-279.486
-279.198
-241.773
-198.341
-181.648
-196.666
-182.912
-287.741
-289.69
-335.43
-405.088
-353.971
-334.759
-352.655
-350.786
-333.451
-403.931
-333.58
-352.226
-532.795
-627.117
-531.337
-628.401
-508.081
-612.095
-482.298
-493.164
-614.032
-506.585
-494.889
-509.301
-497.335
-483.304
-616.888
-614.438
-495.972
-510.62
-533.934
-631.383
-629.853
-535.481
-287.827
-284.874
-328.886
-399.278
-346.034
-329.159
-347.849
-350.047
-331.437
-400.761
-330.652
-348.394
-514.28
-621.92
-487.986
-501.985
-619.804
-500.95
-515.361
-538.899
-636.258
-634.864
-540.213
-513.317
-498.61
-487.166
-617.641
-619.397
-500.037
-511.998
-537.974
-632.758
-634.001
-536.69
-294.796
-292.392
-337.151
-407.601
-354.531
-337.115
-355.803
-357.253
-338.681
-408.656
-338.181
-356.047
-546.26
-643.729
-547.256
-642.551
-521.49
-629.025
-508.782
-494.726
-522.281
-627.256
-508.056
-545.595
-641.176
-642.04
-544.762
-520.833
-506.444
-494.141
-625.865
-626.991
-507.443
-519.945
-294.52
-296
-341.481
-359.918
-411.593
-341.012
-358.923
-357.657
-340.25
-410.704
-340.107
-358.722
-517.426
-622.444
-490.965
-502.976
-623.557
-516.464
-504.141
-542.101
-637.418
-638.222
-541.241
-542.868
-640.226
-639.15
-543.879
-518.197
-505.642
-491.603
-625.411
-623.721
-504.79
-519.013
-200.747
-199.169
-263.06
-241.37
-257.154
-267.162
-239.284
-262.596
-267.627
-262.955
-268.666
-241.963
-257.01
-239.954
-264.74
-267.271
-249.148
-285.042
-286.627
-247.269
-205.428
-190.066
-204.746
-190.635
-249.062
-286.847
-248.699
-286.747
-205.061
-188.739
-203.562
-189.815
-201.237
-201.685
-266.415
-244.953
-272.234
-260.663
-268.369
-242.995
-270.789
-266.283
-270.367
-244.517
-260.543
-242.255
-265.765
-270.756
-245.245
-283.075
-282.962
-245.852
-201.569
-184.437
-199.223
-186.179
-246.056
-281.722
-243.366
-283.403
-202.284
-187.672
-202.643
-187.496
-677.99
-676.055
-672.263
-674.214
-662.855
-665.003
-669.814
-667.491
-633.35
-637.661
-645.869
-641.518
-659.54
-656.455
-649.829
-653.365
-463.411
-481.434
-512.684
-495.538
-564.476
-552.441
-525.651
-540.238
-628.028
-622.303
-609.61
-616.301
-575.849
-585.223
-602.205
-593.959
-311.499
-178.828
-233.994
-215.983
-318.507
-230.451
-214.74
-323.412
-188.718
-237.632
-221.458
-318.754
-240.028
-221.32
-152.491
-152.771
-188.211
-175.737
-185.335
-196.719
-174.556
-194.476
-192.777
-187.974
-192.116
-173.144
-186.728
-172.73
-184.164
-194.263
-176.811
-203.468
-202.7
-178.237
-151.546
-141.916
-149.015
-143.796
-181.271
-200.712
-178.047
-205.224
-150.597
-141.945
-150.547
-142.276
-153.523
-152.176
-177.299
-168.737
-187.486
-181.842
-169.037
-171.515
-185.482
-177.836
-187.19
-170.121
-184.315
-169.676
-182.288
-185.555
-183.119
-207.7
-211.279
-178.384
-152.034
-140.963
-151.83
-140.59
-180.355
-211.419
-209.807
-182.602
-152.242
-140.529
-150.289
-141.935
-208.122
-213.959
-259.545
-316.927
-271.913
-255.601
-266.63
-257.09
-248.363
-315.606
-251.763
-261.969
-368.771
-426.859
-357.94
-444.853
-380.363
-475.33
-457.604
-391.801
-208.37
-202.207
-235.316
-297.796
-239.962
-238.178
-243.807
-252.113
-244.413
-296.388
-240.71
-247.839
-422.03
-520.569
-509.788
-431.474
-412.569
-486.18
-499.689
-402.198
-234.795
-227.562
-264.5
-333.713
-276.443
-267.486
-281.723
-290.723
-275.342
-336.636
-271.778
-285.601
-478.332
-575.773
-483.864
-570.165
-473.589
-558.29
-565.069
-467.259
-235.697
-241.768
-289.915
-307.041
-353.966
-286.968
-302.513
-294.591
-280.358
-350.773
-283.015
-299.402
-447.524
-528.681
-537.23
-439.59
-454.212
-552.311
-544.499
-461.539
-159.07
-155.843
-199.406
-181.234
-193.861
-202.324
-180.851
-195.325
-205.042
-199.757
-208.254
-185.453
-193.734
-183.617
-204.651
-205.416
-200.617
-228.113
-232.605
-195.056
-164.074
-152.373
-165.117
-150.368
-199.685
-234.692
-202.422
-232.414
-162.322
-145.886
-159.104
-149.528
-160.733
-162.897
-212.315
-196.83
-220.79
-205.62
-217.257
-194.754
-217.678
-211.684
-214.033
-192.369
-205.047
-191.747
-207.446
-216.99
-188.633
-222.383
-220.213
-192.003
-155.185
-140.358
-152.487
-143.224
-190.537
-216.853
-184.806
-221.161
-156.315
-145.321
-157.436
-143.389
-448.09
-429.696
-397.562
-415.516
-365.445
-372.942
-386.84
-372.661
-824.112
-874.743
-294.191
-340.819
-372.825
-371.717
-354.301
-404.914
-675.29
-631.126
-820.879
-881.19
-882.948
-635.089
-673.305
-642.478
-831.182
-567.463
-750.344
-655.644
-809.718
-552.559
-614.064
-492.847
-716.207
-735.354
-774.41
-524.778
-587.549
-698.36
-677.056
-917.953
-850.41
-917.753
-699.084
-676.235
-1029.58
-949.208
-1031.74
-1036.78
-951.367
-1034.81
-1026.12
-942.184
-1023.52
-939.49
-1016.98
-1019.63
-963.284
-897.773
-971.743
-983.634
-905.006
-979.543
-665.478
-844.634
-575.724
-792.193
-663.379
-851.413
-579.194
-666.168
-583.47
-858.709
-797.256
-856.374
-666.182
-582.05
-945.413
-847.894
-922.758
-810.527
-840.943
-880.128
-705.202
-923.46
-859.312
-681.669
-687.411
-926.003
-701.124
-704.825
-861.989
-692.175
-927.605
-668.814
-870.688
-811.923
-608.013
-614.189
-872.197
-667.305
-669.946
-626.012
-877.611
-814.291
-671.85
-620.773
-875.855
-1072.07
-986.134
-1075.59
-988.668
-1077.71
-697.618
-920.195
-677.121
-848.615
-699.775
-918.701
-675.337
-698.262
-676.846
-918.315
-848.832
-698.158
-917.724
-675.686
-1039.38
-956.525
-1040.92
-1002.67
-928.171
-1005.54
-1012.87
-931.283
-1009.97
-998.323
-919.454
-995.459
-988.258
-916.219
-991.043
-665.75
-867.292
-600.736
-805.822
-666.685
-865.952
-594.166
-665.798
-585.417
-861.663
-803.832
-665.65
-862.864
-588.185
-543.516
-647.495
-516.031
-527.288
-651.444
-529.478
-541.249
-545.288
-534.592
-658.478
-517.39
-652.868
-548.221
-532.364
-537.815
-660.116
-539.261
-549.903
-501.677
-486.401
-476.391
-604.742
-607.553
-488.545
-499.652
-493.367
-595.846
-468.717
-477.744
-599.189
-480.413
-490.906
-495.373
-484.43
-470.3
-603.604
-599.913
-482.245
-497.531
-468.846
-568.922
-446.296
-452.53
-574.826
-456.656
-464.715
-472.26
-463.393
-582.164
-448.769
-576.064
-475.969
-459.832
-485.434
-594.576
-475.303
-461.058
-488.252
-589.861
-472.552
-482.792
-466.655
-459.026
-583.889
-588.758
-470.05
-479.412
-339.576
-464.526
-336.936
-353.576
-444.434
-348.111
-347.575
-331.351
-333.82
-337.031
-423.689
-448.27
-340.83
-322.704
-299.156
-365.94
-289.71
-298.823
-396.129
-307.024
-294.097
-305.542
-323.803
-294.341
-424.445
-394.982
-315.703
-313.097
-287.021
-361.761
-289.877
-232.113
-287.474
-338.321
-281.766
-288.12
-263.214
-225.821
-341.573
-335.16
-273.538
-274.587
-537.08
-645.752
-509.727
-523.946
-644.852
-523.734
-537.45
-536.688
-522.518
-509.436
-643.632
-644.804
-523.322
-535.802
-538.452
-646.448
-525.447
-510.459
-539.795
-643.429
-524.181
-537.773
-522.901
-509.787
-643.097
-643.193
-523.505
-537.513
-537.723
-645.545
-510.05
-524.078
-644.818
-537.739
-524.257
-537.687
-523.518
-510.034
-643.675
-644.097
-523.634
-537.3
-365.173
-461.758
-363.923
-360.766
-478.864
-356.539
-366.669
-373.465
-379.997
-364.255
-494.299
-477.195
-373.779
-382.561
-407.23
-523.789
-391.253
-407.202
-510.84
-401.226
-414.812
-399.839
-387.829
-388.888
-495.108
-509.984
-394.522
-391.007
-455.681
-567.136
-448.595
-433.546
-460.423
-559.325
-444.234
-451.192
-434.914
-430.61
-549.396
-557.729
-439.987
-445.622
-428.252
-525.253
-411.056
-413.246
-535.568
-421.538
-419.091
-434.009
-429.714
-413.994
-547.218
-536.96
-424.367
-440.163
)
;

boundaryField
{
    left
    {
        type            calculated;
        value           nonuniform List<scalar> 0();
    }
    bottom
    {
        type            calculated;
        value           nonuniform List<scalar> 
214
(
-775.439
-743.523
-687.518
-778.586
-749.235
-701.473
-790.515
-766.327
-723.375
-786.214
-762.652
-716.781
-465.006
-462.678
-772.545
-439.575
-434.213
-737.182
-399.386
-379.167
-648.136
-781.379
-469.539
-467.341
-754.27
-448.218
-444.186
-706.788
-403.421
-402.095
-285.345
-476.493
-271.541
-275.165
-266.79
-270.614
-769.636
-460.37
-457.808
-247.612
-253.447
-237.794
-245.761
-730.36
-427.894
-420.766
-203.229
-240.194
-184.701
-657.617
-300.751
-785.068
-474.096
-471.677
-783.452
-280.426
-284.622
-276.064
-279.602
-454.924
-451.744
-758.681
-261.106
-265.627
-254.805
-259.786
-413.476
-407.201
-711.17
-233.802
-236.408
-243.218
-235.932
-775.67
-444.107
-918.53
-287.474
-288.376
-273.316
-274.317
-268.669
-269.744
-250.311
-251.837
-240.999
-242.987
-215.525
-233.277
-223.708
-151.344
-389.864
-243.513
-282.55
-283.555
-277.855
-278.745
-263.179
-264.463
-256.975
-258.395
-234.212
-234.28
-241.294
-238.024
-528.59
-503.216
-643.279
-278.261
-387.349
-429.234
-826.603
-631.379
-540.161
-302.993
-305.687
-294.17
-296.672
-308.581
-255.289
-256.262
-249.737
-250.486
-260.521
-260.805