/*--------------------------------*- C++ -*----------------------------------*\
| =========                 |                                                 |
| \\      /  F ield         | OpenFOAM: The Open Source CFD Toolbox           |
|  \\    /   O peration     | Version:  2012                                  |
|   \\  /    A nd           | Website:  www.openfoam.com                      |
|    \\/     M anipulation  |                                                 |
\*---------------------------------------------------------------------------*/
FoamFile
{
    version     2.0;
    format      ascii;
    class       volScalarField;
    location    "0.106/solid";
    object      sigmaMin;
}
// * * * * * * * * * * * * * * * * * * * * * * * * * * * * * * * * * * * * * //

dimensions      [1 -1 -2 0 0 0 0];


internalField   nonuniform List<scalar> 
3125
(
-1238.23
-1181.39
-1061.36
-1243.58
-1191.71
-1085.91
-1262.67
-1222.24
-1141.99
-1256.23
-1215.73
-1127.02
-559.328
-852.361
-1433.8
-1233.19
-569.405
-1426.68
-847.671
-510.167
-801.942
-1376.67
-1169.62
-530.208
-1357.81
-791.887
-498.532
-706.681
-1242.12
-992.585
-475.5
-1140.7
-673.087
-1527.62
-1536.06
-576.55
-1248.35
-856.971
-1437.17
-567.225
-1445.64
-861.416
-1524.13
-1516.53
-1471.09
-1485.62
-542.752
-1200.73
-810.734
-1382.11
-527.384
-1396.42
-818.522
-1465.58
-1446.35
-1326.48
-1366.29
-468.489
-1099.33
-723.718
-1254.71
-465.258
-1283.8
-731.637
-1308.09
-1185.09
-1455.83
-875.059
-582.589
-1376.27
-599.571
-577.892
-570.683
-1354.73
-1348.12
-561.446
-1228.07
-1414.98
-837.612
-1424.35
-550.873
-842.84
-1336.57
-1345.84
-560.211
-568.082
-529.293
-516.001
-1298.99
-1280.47
-513.428
-1156.4
-1326.81
-767.392
-1350.78
-487.021
-780.304
-1249.3
-1273.39
-488.436
-509.806
-415.019
-381.303
-1169.37
-1097.33
-477.13
-920.267
-1078.9
-548.05
-1043.81
-372.781
-1547.42
-1541.83
-1536.72
-574.229
-1251.92
-1449.96
-870.544
-585.917
-1446.09
-865.913
-580.247
-587.19
-1358.19
-1367.08
-1370
-1367.37
-597.674
-589.947
-1504.64
-1514.15
-1501.01
-1489.72
-540.319
-1208.63
-1411.46
-831.823
-552.996
-1400.47
-825.493
-533.336
-544.121
-1304.42
-1318.39
-1333.03
-1322.41
-557.171
-547.719
-1418.62
-1414.34
-1439.19
-1386.68
-1411.41
-1405.58
-1376.11
-1295.98
-1336.53
-1377.6
-1347.4
-463.553
-1112.53
-1318.48
-753.965
-490.664
-1292.04
-741.497
-426.529
-446.871
-1179.46
-1206.87
-1240.63
-1214.54
-479.76
-455.024
-1280.22
-1183.32
-957.836
-1121.42
-1126.2
-786.954
-685.749
-967.64
-579.579
-707.795
-1002.17
-961.496
-565.592
-925.462
-723.29
-724.48
-927.178
-960.146
-964.323
-563.524
-728.283
-931.25
-965.842
-727.318
-929.274
-908.706
-522.39
-868.985
-674.838
-677.668
-874.095
-904.875
-915.079
-519.427
-685.965
-884.042
-918.4
-683.773
-879.63
-798.47
-504.998
-767.961
-588.113
-602.204
-788.365
-766.788
-820.997
-487.929
-612.19
-800.836
-829.458
-612.746
-798.494
-973.015
-570.138
-940.651
-735.587
-974.189
-734.766
-939.087
-970.364
-572.479
-731.019
-933.902
-968.776
-732.153
-936.42
-931.842
-534.248
-900.196
-699.878
-934.323
-698.177
-896.861
-926.856
-536.792
-691.282
-888.795
-924.026
-693.385
-892.625
-845.055
-458.76
-810.465
-622.351
-849.032
-619.962
-806.267
-840.787
-465.725
-616.187
-802.21
-837.486
-616.249
-802.912
-988.831
-582.468
-958.494
-748.414
-986.436
-586.061
-949.317
-745.046
-954.225
-745.95
-984.192
-929.423
-1383.96
-1084.61
-1094.19
-1389.41
-1096.55
-919.442
-926.683
-658.219
-658.561
-601.852
-658.355
-654.803
-655.966
-604.702
-664.648
-621.659
-624.518
-634.137
-576.285
-633.578
-629.994
-626.961
-629.148
-573.642
-629.053
-895.888
-897.371
-1067.01
-1352
-1064.16
-901.59
-899.817
-1060.43
-1349.82
-1062.44
-955.657
-923.194
-555.239
-720.388
-957.225
-921.062
-719.333
-952.36
-557.335
-915.713
-714.689
-918.234
-716.119
-950.568
-893.559
-891.308
-1339.78
-1049.82
-1053.43
-1058.72
-1343.05
-1055.58
-885.936
-888.604
-619.243
-616.193
-618.901
-563.407
-618.885
-610.623
-613.699
-624.406
-566.271
-623.877
-561.086
-567.387
-584.251
-526.02
-583.562
-577.469
-572.127
-573.902
-521.203
-574.188
-838.264
-843.995
-1016.94
-1293.24
-1010.44
-854.14
-849.204
-998.851
-1286.86
-1006.17
-893.192
-862.685
-499.267
-667.768
-897.672
-856.72
-664.477
-885.32
-502.58
-843.111
-652.529
-849.566
-656.455
-880.384
-832.379
-825.538
-1257.53
-970.746
-980.047
-994.063
-1265.84
-985.403
-811.544
-819.025
-555.285
-547.231
-546.643
-496.159
-547.168
-531.129
-540.381
-562.174
-503.961
-561.315
-447.91
-460.122
-454.012
-400.389
-442.63
-468.912
-463.506
-411.105
-381.745
-419.107
-766.129
-776.609
-924.286
-1155.15
-917.685
-774.512
-779.221
-883.568
-1130.36
-912.537
-724.904
-736.048
-451.211
-549.666
-752.165
-720.551
-536.594
-818.399
-1030.85
-882.22
-1018.1
-710
-415.527
-492.794
-546.787
-739.211
-643.434
-788.831
-496.647
-746.257
-718.987
-1007.36
-833.547
-859.822
-991.424
-827.191
-730.898
-441.548
-420.993
-363.918
-455.708
-455.278
-402.119
-347.65
-405.971
-977.095
-582.363
-941.748
-738.085
-976.272
-942.043
-739.139
-979.396
-579.907
-945.112
-742.611
-981.083
-942.955
-741.758
-639.996
-636.809
-638.644
-582.943
-638.541
-632.253
-634.662
-643.556
-585.452
-643.126
-911.05
-909.418
-1069.1
-1361.79
-1073.19
-904.181
-907.085
-1077.35
-1365.1
-1075.05
-912.801
-911.658
-1081.32
-1366.93
-1078.26
-915.737
-914.295
-1078.13
-1366.51
-1076.99
-642.778
-646.764
-653.679
-596.178
-653.187
-653.014
-649.794
-648.516
-593.288
-648.354
-940.892
-548.039
-903.836
-704.151
-938.754
-906.736
-705.863
-944.898
-545.827
-912.674
-711.149
-946.887
-910.02
-709.781
-594.007
-589.708
-592.291
-537.333
-592.424
-581.572
-586.093
-600.192
-541.288
-599.556
-870.495
-866.857
-1020.65
-1309.19
-1026.1
-858.66
-862.845
-1034.27
-1314.04
-1029.39
-873.982
-877.018
-1047.46
-1329.5
-1043.59
-883
-880.253
-1037.08
-1325.85
-1041.05
-597.344
-601.054
-613.398
-554.847
-612.775
-607.805
-604.117
-606.782
-551.395
-606.834
-1394.81
-1403.64
-1310.39
-1324.7
-1367.77
-1357.16
-859.714
-478.267
-815.995
-628.48
-854.861
-821.839
-632.231
-867.11
-474.319
-835.773
-644.153
-872.305
-829.064
-640.154
-489.678
-483.437
-476.001
-433.122
-476.715
-474.861
-478.406
-493.727
-440.639
-493.446
-778.606
-772.978
-923.203
-1188.51
-927.394
-772.302
-771.782
-937.161
-1198.07
-928.752
-783.195
-790.409
-965.336
-1231.89
-955.216
-804.772
-796.709
-940.826
-1222.84
-950.114
-496.466
-505.587
-530.186
-472.058
-529.303
-523.391
-513.339
-511.34
-462.925
-511.713
-1258.05
-1223.5
-1051.04
-1054.83
-1022.95
-1063.18
-764.803
-563.107
-679.964
-642.867
-641.422
-679.495
-763.569
-1176.41
-1328.48
-1220.56
-1430.93
-1178.3
-1326.48
-1218.25
-769.619
-565.509
-647.492
-685.177
-770.348
-648.869
-686.207
-1173.51
-1214.35
-1428.66
-1321.66
-1323.28
-1216.02
-1171.88
-714.303
-517.528
-628.608
-592.262
-590.015
-628.187
-711.378
-1122.2
-1272.56
-1167.61
-1370.71
-1126.27
-1268.33
-1162.55
-725.433
-523.821
-603.25
-641.645
-727.199
-605.072
-642.539
-640.927
-514.55
-571.4
-528.871
-533.003
-578.401
-617.126
-649.204
-474.318
-529.188
-572.33
-653.815
-533.782
-577.213
-1380.21
-1530.98
-1382.37
-1386.72
-1534.02
-1385.4
-777.644
-572.126
-692.946
-655.201
-778.046
-656.663
-694.21
-1183.34
-1331.94
-1223.8
-1440.66
-1181.35
-1334.08
-1226.93
-772.882
-570.747
-651.222
-688.012
-771.519
-649.648
-687.516
-1376.71
-1520.98
-1374.62
-1518.52
-1369.74
-1371.37
-740.221
-537.579
-656.148
-617.767
-741.503
-619.318
-657.012
-1135.7
-1279.11
-1173.05
-1387.12
-1132.19
-1282.69
-1177.38
-731.693
-533.138
-609.7
-646.499
-729.507
-607.755
-646.083
-1140.88
-1186
-1291.54
-1391.93
-1288.43
-1143.93
-1182.19
-657.381
-460.189
-572.642
-533.986
-660.235
-537.343
-574.991
-654.669
-467.999
-533.648
-573.716
-650.676
-528.677
-569.354
-787.808
-585.972
-703.766
-668.147
-703.074
-665.571
-785.997
-732.466
-734.88
-526.487
-528.882
-503.557
-506.286
-511.993
-510.295
-706.548
-709.516
-716.016
-713.12
-761.625
-677.028
-557.436
-638.952
-762.326
-677.961
-640.283
-1163.68
-1310.49
-1418.3
-1203.46
-1206.34
-1312.77
-1161.45
-1167.04
-1211.94
-1318.43
-1421.51
-1168.93
-1209.55
-1316.5
-755.967
-554.89
-670.911
-633.842
-670.546
-632.357
-754.46
-707.348
-704.476
-696.938
-700.039
-504.106
-502.245
-495.303
-498.248
-456.617
-461.834
-473.531
-470
-650.413
-656.484
-671.151
-666.262
-705.771
-622.252
-505.261
-583.912
-708.348
-623.104
-585.979
-690.991
-496.077
-604.607
-568.424
-604.093
-565.923
-687.185
-651.21
-644.67
-623.617
-631.478
-457.513
-452.615
-434.496
-441.013
-450.815
-450.819
-415.7
-413.424
-620.805
-633.667
-597.444
-595.943
-568.194
-553.289
-436.847
-496.94
-600.004
-545.318
-508.441
-832.809
-834.009
-961.442
-837.459
-881.163
-926.017
-751.388
-874.091
-944.005
-997.042
-1035.63
-893.465
-909.362
-978.962
-697.859
-574.67
-709.874
-510.232
-736.05
-545.238
-641.107
-611.137
-595.309
-431.384
-371.024
-1394.71
-1538.17
-1392.24
-1388.84
-1536.84
-1389.59
-780.015
-578.843
-696.138
-659.39
-779.109
-695.236
-657.885
-783.975
-581.71
-700.649
-664.207
-784.96
-702.053
-666.306
-518.735
-516.739
-511.36
-513.901
-724.698
-721.425
-715.119
-717.809
-723.351
-727.204
-733.278
-729.908
-518.364
-521.577
-528.6
-526.93
-1358.46
-1507.91
-1360.76
-1366.48
-1511.18
-1364.52
-1354.23
-1497.13
-1351.64
-745.09
-545.021
-660.031
-622.971
-743.339
-659.65
-621.304
-1155.23
-1306.3
-1199.97
-1407.8
-1157.68
-1303.78
-1196.93
-751.942
-548.559
-667.632
-629.455
-752.932
-668.49
-630.797
-1151.13
-1190.09
-1296.57
-1404.14
-1148.49
-1299.23
-1193.27
-485.704
-482.978
-472.749
-476.83
-685.952
-682.145
-670.418
-674.999
-685.255
-688.922
-697.66
-694.424
-485.045
-488.448
-495.809
-493.6
-665.906
-472.237
-579.415
-542.728
-661.907
-577.985
-539.529
-680.455
-480.916
-596.84
-558.38
-683.732
-597.902
-560.746
-414.803
-409.765
-409.282
-412.123
-597.601
-589.898
-588.375
-591.338
-594.972
-603.097
-624.718
-616.478
-412.289
-418.321
-435.573
-429.444
-890.199
-983.871
-968.497
-1026
-1082.1
-1023.64
-856.932
-751.43
-812.667
-812.117
-643.965
-771.408
-915.357
-914.521
-863.949
-678.555
-618.925
-724.988
-845.221
-946.102
-765.7
-561.428
-643.348
-681.177
-766.361
-644.599
-682.205
-768.81
-567.33
-647.239
-684.141
-767.564
-645.758
-683.58
-716.344
-515.127
-594.331
-632.68
-718.5
-596.273
-633.558
-723.691
-525.971
-601.686
-638.278
-721.173
-599.591
-637.888
-639.455
-504.871
-533.013
-580.11
-649.932
-539.276
-584.649
-654.969
-485.298
-538.923
-582.483
-646.746
-531.953
-577.407
-776.869
-573.93
-654.991
-692.03
-775.649
-653.353
-691.489
-773.723
-568.636
-651.165
-689.104
-774.489
-652.675
-690.1
-738.853
-539.456
-616.75
-653.713
-736.889
-614.954
-653.356
-733.264
-531.02
-610.955
-649.35
-734.799
-612.599
-650.211
-657.334
-465.226
-534.723
-572.095
-653.561
-530.673
-569.623
-651.741
-460.409
-528.364
-567.633
-654.198
-532.632
-571.505
-792.215
-587.432
-708.625
-670.945
-790.972
-707.82
-668.71
-788.566
-582.155
-704.864
-666.242
-789.725
-705.966
-668.888
-737.448
-741.273
-893.348
-930.829
-836.25
-836.952
-894.927
-1353.99
-1546.08
-1551.89
-1349.29
-1359
-1561.82
-1363.53
-1555.08
-1371.36
-1563.76
-1368.88
-1567.87
-737.143
-734.416
-828.038
-921.101
-879.729
-828.954
-882.962
-888.987
-833.146
-924.698
-832.007
-886.221
-525.421
-529.199
-681.326
-694.194
-626.793
-653.777
-623.059
-677.749
-696.74
-571.48
-683.051
-681.359
-574.663
-480.84
-379.413
-479.002
-380.695
-571.117
-678.294
-679.048
-569.162
-482.083
-384.149
-485.06
-382.366
-528.287
-526.857
-677.887
-623.026
-649.703
-689.728
-619.193
-691.399
-676.17
-678.516
-692.722
-622.473
-649.664
-620.751
-678.423
-692.272
-577.168
-684.439
-685.792
-575.355
-384.49
-485.332
-508.152
-506.367
-643.888
-593.989
-617.169
-655.268
-591.083
-657.086
-641.546
-645.246
-659.168
-595.687
-618.048
-592.945
-645.542
-658.383
-547.692
-650.447
-651.202
-547.087
-461.054
-366.772
-462.317
-365.94
-547.784
-653.925
-652.381
-549.208
-460.945
-365.382
-460.722
-365.505
-507.803
-510.66
-650.928
-600.3
-623.552
-664.787
-597.786
-663.96
-651.642
-649.425
-660.809
-598.906
-622.401
-595.854
-646.656
-662.74
-543.138
-649.187
-647.381
-546.312
-455.609
-360.539
-454.018
-361.501
-542.259
-643.922
-644.831
-540.242
-457.474
-364.898
-460.314
-363.204
-712.014
-708.814
-803.72
-896.055
-857.405
-803.789
-859.031
-861.015
-805.429
-898.135
-806.016
-859.279
-1329.74
-1527.14
-1331.05
-1525.1
-1188.38
-1294.21
-1066.39
-1146.24
-1293.07
-1144.84
-1189.68
-1187
-1142.5
-1064.81
-1290.35
-1291.67
-1143.64
-1185.92
-1327.96
-1522.16
-1326.5
-1523.89
-710.857
-713.989
-809.61
-902.037
-864.713
-810.049
-862.965
-860.871
-807.91
-899.839
-807.786
-862.556
-1183.87
-1286.9
-1061.01
-1139.55
-1287.96
-1140.67
-1182.89
-1324.7
-1518.81
-1323.63
-1519.96
-1184.62
-1142.13
-1062.35
-1289.16
-1288.84
-1141.25
-1185.16
-1325.37
-1521.29
-1325.67
-1520.6
-760.714
-559.072
-675.656
-638.552
-759.334
-675.284
-637.054
-757.029
-553.133
-672.556
-634.433
-757.933
-673.417
-635.741
-801.353
-857.04
-893.916
-801.657
-855.524
-701.938
-704.916
-853.065
-891.786
-799.144
-799.456
-854.788
-1313.39
-1506.07
-1507.88
-1311.39
-1172.97
-1275.04
-1050.82
-1127.95
-1276.84
-1129.81
-1171.28
-1174.58
-1133.04
-1279.65
-1052.76
-1278.49
-1176.05
-1131.3
-1314.81
-1511.22
-1316.17
-1509.63
-1180.82
-1285.56
-1138.63
-1058.22
-1181.84
-1284.76
-1137.5
-1321.67
-1517.86
-1322.58
-1516.43
-1179.38
-1134.59
-1056.62
-1281.54
-1283.3
-1136.18
-1177.74
-1319.92
-1512.94
-1317.88
-1515.08
-702.632
-699.507
-793.974
-886.32
-847.539
-794.255
-849.599
-852.36
-796.545
-888.896
-796.724
-850.317
-499.609
-502.565
-639.759
-590.638
-653.635
-612.861
-640.657
-588.267
-652.803
-638.438
-649.602
-589.322
-611.73
-586.122
-635.467
-651.509
-532.657
-637.557
-635.541
-535.938
-446.202
-353.247
-444.528
-354.373
-531.63
-631.741
-632.888
-529.518
-448.229
-358.093
-451.205
-356.203
-500.214
-498.304
-632.793
-584.03
-606.326
-643.59
-581.1
-645.573
-630.12
-634.189
-647.875
-585.731
-607.284
-583.223
-634.729
-647.041
-537.627
-638.842
-639.717
-536.924
-452.405
-360.077
-453.706
-359.288
-537.873
-642.754
-539.462
-641.047
-452.07
-358.729
-451.812
-358.859
-466.216
-462.113
-583.041
-539.549
-558.092
-590.928
-536.361
-594.4
-577.665
-585.334
-599.545
-542.722
-560.233
-540.982
-588.28
-597.383
-497.305
-590.732
-592.932
-495.52
-418.078
-334.166
-419.958
-333.032
-498.081
-598.268
-595.538
-500.537
-416.897
-331.655
-415.891
-332.171
-465.374
-470.087
-595.974
-551.989
-570.628
-609.935
-550.222
-608.126
-598.588
-593.965
-602.811
-549.659
-568.652
-546.262
-589.14
-605.737
-489.405
-588.689
-585.322
-493.775
-408.365
-324.651
-405.683
-326.519
-487.617
-577.806
-581.017
-483.879
-411.618
-330.96
-415.06
-328.82
-661.884
-656.089
-747.523
-839
-799.652
-748.28
-803.787
-809.369
-753.329
-843.983
-753.05
-805.451
-1273.17
-1468.18
-1275.97
-1465.77
-1134.79
-1239.76
-1015.64
-1094.59
-1237.54
-1091.79
-1137.24
-1270.13
-1459.05
-1266.34
-1462.16
-661.207
-666.54
-763.18
-854.197
-819.129
-763.046
-815.925
-810.814
-758.213
-849.95
-758.938
-814.331
-1257.36
-1445.59
-1253.49
-1448.38
-1260.19
-1454.99
-1263.42
-1452.36
-703.434
-507.614
-617.303
-581.133
-699.979
-616.97
-578.807
-693.526
-493.437
-610.059
-571.721
-696.548
-610.944
-573.888
-741.995
-798.085
-832.175
-741.582
-793.795
-637.838
-644.89
-787.049
-826.652
-735.111
-736.159
-791.647
-1226.51
-1411.35
-1414.99
-1221.96
-1230.12
-1424.06
-1234.43
-1420.3
-1246.82
-1441.14
-1250.52
-1438.08
-1243.11
-1429.23
-1238.29
-1433.18
-638.536
-630.939
-721.382
-812.561
-773.091
-722.286
-778.08
-785.04
-728.846
-818.69
-728.299
-780.134
-446.289
-452.362
-572.12
-531.259
-586.769
-547.577
-576.494
-529.752
-583.788
-569.229
-575.82
-527.239
-544.727
-524
-562.495
-580.021
-461.059
-558.884
-553.566
-467.732
-382.63
-305.562
-378.679
-308.587
-457.964
-542.042
-547.283
-452.044
-387.983
-315.318
-392.886
-311.782
-447.207
-441.568
-552.913
-512.282
-528.981
-557.761
-509.363
-562.611
-545.461
-556.166
-570.751
-517.431
-532.111
-515.998
-561.346
-567.147
-475.125
-562.313
-566.461
-470.974
-401.17
-323.436
-404.377
-321.116
-477.104
-575.243
-481.496
-570.964
-397.873
-317.048
-395.168
-319.125
-438.531
-440.683
-394.915
-441.463
-446.377
-369.938
-441.635
-357.326
-414.039
-394.192
-384.085
-440.629
-446.951
-442.876
-404.674
-366.885
-363.445
-391.365
-414.071
-368.655
-305.085
-261.681
-307.804
-254.192
-367.58
-439.467
-427.312
-366.336
-299.243
-233.814
-300.945
-244.983
-420.625
-420.937
-441.183
-445.238
-458.452
-452.417
-443.532
-439.541
-451.388
-428.687
-404.097
-442.836
-454.708
-438.182
-415.439
-422.796
-370.17
-368.698
-340.816
-363.19
-312.384
-204.688
-330.476
-202.17
-363.607
-342.15
-331.032
-373.558
-311.686
-223.469
-301.857
-212.769
-620.205
-615.103
-693.986
-768.112
-760.938
-696.347
-770.67
-769.754
-697.445
-778.33
-704.414
-770.684
-1167.14
-1327.96
-1163.93
-1322.9
-1163.85
-1305.23
-1163.81
-1314.65
-605.084
-605.859
-687.216
-775.463
-751.336
-692.495
-756.486
-765.682
-699.984
-778.512
-693.556
-760.618
-1132.37
-1236.82
-1114.83
-1249.01
-1150.3
-1289.67
-1155.38
-1276.33
-572.628
-469.752
-593.012
-537.492
-583.312
-533.762
-477.875
-868.859
-895.796
-945.539
-1006.86
-1082.97
-1041.52
-911.404
-954.222
-980.685
-959.597
-1049.21
-999.504
-630.976
-687.093
-619.71
-460.722
-463.585
-510.256
-553.247
-491.934
-551.524
-623.132
-504.561
-570.935
-789.412
-653.773
-704.421
-674.498
-607.346
-671.615
-831.679
-716.808
-750.543
-574.753
-534.487
-620.662
-679.782
-748.544
-737.745
-663.397
-722.104
-593.423
-581.107
-653.506
-722.077
-667.499
-657.697
-685.516
-960.067
-912.391
-862.892
-888.381
-900.279
-866.962
-987.662
-826.666
-1049.55
-1191.73
-1089.56
-1156.37
-990.282
-1038.21
-909.314
-1099.98
-735.645
-681.047
-715.922
-367.021
-425.148
-389.237
-406.893
-373.273
-425.048
-429.547
-438.709
-403.231
-484.882
-394.369
-462.84
-426.009
-375.932
-347.179
-390.55
-458.275
-345.701
-400.196
-288.515
-339.419
-451.585
-441.282
-399.729
-240.499
-274.39
-544.677
-492.734
-489.746
-449.83
-327.768
-310.694
-377.44
-302.608
-303.183
-216.485
-311.111
-216.819
-352.918
-353.532
-359.535
-363.51
-274.266
-195.603
-238.04
-201.413
-1606.44
-1611.75
-1621.99
-1616.06
-1625.57
-1588.57
-1590.96
-1595.21
-1592.81
-1601.19
-1600.21
-1597.06
-1599.5
-1603.47
-1599.6
-1596.97
-1598.74
-1600.56
-1600.69
-1598.38
-1598.81
-780.817
-577.122
-696.806
-660.258
-781.183
-698.415
-661.606
-783.324
-584.51
-700.203
-664.63
-782.192
-699.025
-662.81
-514.176
-517.074
-661.061
-609.168
-633.334
-675.501
-606.531
-674.529
-661.949
-659.525
-671.374
-607.778
-632.163
-604.488
-656.74
-673.274
-552.434
-659.919
-658.187
-555.516
-464.011
-367.309
-462.435
-368.335
-551.709
-655.009
-549.822
-655.808
-465.624
-371.682
-468.46
-369.991
-515.133
-513.599
-654.829
-603.338
-627.613
-666.329
-600.349
-652.701
-668.117
-656.085
-669.909
-604.562
-628.279
-602.017
-656.155
-669.285
-557.011
-661.137
-661.897
-556.239
-469.386
-372.874
-470.537
-372.378
-557.109
-664.997
-663.304
-558.78
-469.097
-372.101
-468.825
-372.138
-719.242
-722.143
-818.436
-911.745
-874.127
-819.167
-873.098
-871.26
-816.83
-910.04
-817.109
-872.675
-1335.05
-1528.78
-1332.89
-1531.24
-1193.31
-1296.09
-1070.29
-1147.73
-1298.14
-1191.36
-1149.69
-1195.29
-1153.81
-1072.16
-1301.57
-1300.01
-1151.82
-1197.25
-1336.94
-1535.39
-1532.89
-1338.6
-719.901
-717.093
-812.065
-904.668
-865.3
-812.277
-867.237
-870.057
-814.449
-907.064
-814.55
-868.165
-1344.1
-1540.8
-1539.91
-1343.98
-1342.74
-1536.83
-1539.35
-1340.85
-730.077
-725.708
-820.742
-912.107
-873.69
-820.049
-874.918
-875.29
-820.69
-913.865
-822.464
-873.571
-1343.01
-1543.47
-1345.44
-1539.69
-1340.75
-1537.45
-1538.8
-1340.18
-727.604
-731.773
-824.814
-877.822
-916.137
-825.365
-875.001
-872.958
-823.586
-913.157
-822.39
-875.18
-1343.41
-1540.23
-1540.16
-1344.03
-1342.56
-1538.03
-1538.96
-1340.93
-524.368
-522.05
-665.797
-612.71
-638.359
-677.255
-609.984
-663.265
-679.444
-667.855
-682.196
-615.344
-639.679
-612.016
-668.351
-680.968
-567.711
-673.851
-674.765
-566.77
-478.082
-378.953
-479.432
-378.067
-567.537
-677.374
-568.909
-676.027
-478.175
-377.388
-477.755
-377.623
-524.523
-527.835
-675.177
-620.034
-688.465
-646.38
-675.645
-617.661
-687.634
-673.284
-684.106
-618.752
-645.223
-615.829
-670.493
-686.423
-562.584
-672.294
-670.438
-566.134
-472.5
-373.026
-470.834
-373.873
-561.856
-666.374
-559.446
-667.471
-474.371
-377.04
-477.373
-375.425
-1586.94
-1584.74
-1581.6
-1583.49
-1578.5
-1579.64
-1580.92
-1580.08
-1565.34
-1567.11
-1570.48
-1568.87
-1577.5
-1576
-1572.35
-1574.5
-1529.94
-1532.17
-1537.15
-1535.12
-1547.57
-1545.55
-1540.22
-1542.8
-1563.34
-1561.41
-1557.14
-1559.32
-1549.93
-1551.65
-1555.05
-1553.57
-746.364
-543.176
-662.164
-623.878
-747.506
-663.024
-625.276
-750.818
-550.234
-665.782
-628.689
-749.201
-665.417
-627.126
-479.291
-483.158
-613.438
-567.382
-587.416
-627.212
-565.313
-625.859
-615.259
-611.733
-621.495
-565.474
-585.838
-562.2
-607.801
-623.941
-505.782
-607.895
-605.224
-509.552
-422.331
-334.795
-420.419
-335.974
-504.495
-599.922
-501.913
-601.874
-424.718
-339.948
-427.932
-337.929
-479.998
-476.962
-603.465
-557.901
-577.889
-612.75
-554.763
-599.58
-615.345
-605.25
-618.964
-560.177
-579.396
-558.076
-606.974
-617.495
-512.446
-609.622
-611.259
-510.991
-430.699
-343.506
-432.547
-342.247
-513.151
-615.707
-613.35
-515.401
-429.617
-340.741
-428.748
-341.309
-678.344
-682.462
-778.994
-870.678
-834.892
-779.034
-832.502
-828.668
-775.359
-867.448
-775.887
-831.309
-1281.31
-1471.54
-1278.33
-1473.78
-1142.39
-1242.84
-1022.09
-1096.81
-1245.38
-1139.92
-1099.64
-1144.83
-1104.36
-1025.06
-1249.68
-1247.85
-1101.78
-1146.97
-1283.41
-1478.71
-1476.72
-1285.68
-679.014
-674.577
-767.385
-859.19
-820.275
-767.918
-823.42
-827.622
-771.603
-863.014
-771.549
-824.621
-1154.03
-1258.73
-1033.35
-1112.95
-1257.16
-1110.91
-1155.82
-1293.35
-1488.69
-1486.75
-1295.29
-1151.74
-1106.44
-1030.79
-1252.46
-1254.89
-1108.89
-1149.42
-1290.93
-1481.63
-1484.17
-1287.96
-692.144
-688.458
-782.277
-874.394
-835.713
-782.652
-838.125
-841.344
-785.394
-877.382
-785.546
-838.965
-1308.15
-1504.1
-1309.72
-1502.29
-1168.12
-1273.04
-1126.52
-1046.72
-1169.58
-1271.76
-1124.88
-1306.11
-1498.19
-1500.29
-1303.82
-1166.32
-1121.47
-1044.67
-1268.02
-1269.93
-1123.31
-1164.56
-691.377
-694.869
-791.205
-846.898
-883.296
-791.396
-844.925
-841.952
-788.463
-880.647
-788.777
-844.075
-1159.61
-1261.04
-1038.15
-1114.6
-1262.94
-1157.78
-1116.69
-1299.22
-1491
-1492.74
-1297.06
-1300.72
-1496.13
-1494.71
-1302.16
-1161.35
-1120.07
-1040.38
-1265.93
-1264.74
-1118.21
-1162.82
-490.971
-488.569
-619.353
-572.119
-593.316
-629.533
-569.104
-616.185
-631.76
-620.909
-634.662
-574.131
-594.52
-571.746
-621.97
-633.541
-526.19
-625.572
-626.797
-525.127
-442.556
-352.555
-444.094
-351.489
-526.666
-630.446
-528.525
-628.446
-441.871
-350.326
-441.266
-350.768
-490.441
-493.784
-627.819
-580.152
-641.638
-601.314
-629.127
-577.847
-640.546
-626.253
-636.786
-578.455
-599.934
-575.294
-622.853
-638.95
-520.285
-624.064
-621.732
-523.862
-434.969
-344.255
-433.123
-345.489
-519.064
-617.195
-516.646
-618.723
-437.297
-349.516
-440.441
-347.478
-1526.55
-1524.02
-1517.07
-1520.21
-1503.56
-1506.34
-1512.96
-1510.27
-1469.5
-1473.23
-1481.74
-1477.81
-1499.03
-1495.9
-1486.97
-1491.13
-1382.85
-1390.38
-1401.06
-1393.52
-1423.31
-1419.16
-1406.39
-1413.62
-1464.35
-1460.57
-1450.07
-1454.61
-1429.56
-1433.38
-1443.58
-1439.17
-667.585
-468.582
-583.42
-544.972
-670.854
-584.91
-547.697
-678.037
-483.688
-591.316
-554.998
-673.921
-590.649
-552.292
-407.292
-411.77
-496.747
-468.452
-479.415
-508.07
-467.937
-503.273
-503.719
-492.98
-492.321
-463.55
-477.265
-461.564
-484.76
-497.763
-374.65
-465.52
-458.683
-382.111
-313.029
-265.059
-309.739
-268.706
-370.888
-444.438
-368.753
-451.312
-318.896
-275.395
-324.97
-271.66
-411.867
-408.472
-469.99
-451.748
-466.298
-464.475
-450.382
-457.856
-473.054
-475.265
-485.356
-455.965
-468.045
-455.832
-482.925
-480.115
-392.51
-469.952
-475.91
-385.78
-337.276
-283.64
-342.183
-280.69
-396.278
-489.751
-482.767
-404.115
-332.141
-276.68
-327.684
-279.091
-586.095
-592.552
-688.455
-777.695
-746.029
-688.81
-743.173
-740.617
-684.912
-775.049
-684.696
-741.938
-1163.55
-1333.82
-1164.79
-1339.37
-1166.72
-1351.56
-1344.04
-1167.94
-590.294
-585.125
-686.923
-772.559
-746.8
-683.345
-743.189
-740.272
-681.887
-771.007
-683.996
-741.128
-1180.68
-1370.46
-1367.54
-1183.73
-1176.6
-1356.75
-1362.57
-1172.69
-609.977
-601.416
-693.882
-784.558
-747.01
-694.204
-750.798
-756.977
-700.264
-789.664
-699.954
-752.441
-1214.1
-1405.52
-1218.43
-1402.15
-1209.72
-1392.02
-1396.69
-1204.4
-608.67
-617.114
-714.727
-771.278
-804.317
-714.237
-766.329
-759.092
-706.882
-798.244
-707.937
-763.987
-1191.46
-1374.25
-1377.43
-1187.35
-1195.31
-1386.48
-1382.61
-1199.8
-424.04
-417.991
-513.818
-478.407
-492.858
-514.814
-476.177
-505.52
-520.384
-517.458
-530.49
-484.456
-495.956
-483.546
-524.213
-525.867
-438.506
-519.695
-525.591
-432.153
-371.952
-303.846
-376.342
-300.577
-441.755
-538.188
-448.366
-532.024
-366.799
-295.258
-362.994
-298.074
-422.483
-429.222
-537.533
-501.418
-551.801
-514.441
-543.953
-500.258
-547.449
-533.849
-536.973
-495.642
-510.935
-492.878
-525.567
-542.307
-419.501
-515.118
-508.275
-427.971
-348.65
-284.472
-344.456
-287.16
-415.427
-494.258
-408.1
-500.71
-354.679
-293.549
-360.197
-289.759
-1381.92
-1373.4
-1355.83
-1370.4
-1283.27
-1313.63
-1347.85
-1326.23
-1112.45
-1076.85
-916.393
-945.812
-1260.74
-1209.54
-1041.1
-1159.67
-1115.47
-1150.55
-1364.4
-1256.16
-1260.93
-1156.26
-1110.84
-1005.53
-1140.51
-1060.76
-1220.81
-1018.82
-1118.66
-1050.95
-971.781
-996.862
-1187.03
-1033.38
-1076.75
-1027.95
-938.698
-1186.03
-1231.63
-1338.38
-1443.75
-1337.06
-1187.29
-1230.04
-1326.69
-1476.06
-1330.3
-1339.28
-1480.97
-1336.11
-1320.06
-1459.43
-1315.75
-1452.99
-1303.38
-1308.22
-1194.72
-1341.68
-1206.63
-1228.3
-1354.63
-1219.38
-1036.79
-1158.33
-1067.42
-1265.19
-1032.26
-1168.32
-1071.67
-1044.39
-1084.05
-1185.78
-1274.58
-1178.04
-1048.76
-1078.03
-1172.24
-1279.71
-1147.38
-1237.73
-1062.97
-1099.24
-1200.92
-1350.15
-1462.54
-1240.64
-1247.34
-1353.42
-1198.12
-1203.27
-1467.09
-1252.38
-1355.85
-1089.8
-1227.33
-1335.07
-1121.8
-1128.9
-1233.45
-1084.16
-1098.07
-1143.49
-1247.95
-1343.09
-1103.29
-1136.86
-1242.42
-1398.75
-1553.23
-1401.85
-1557.01
-1404.38
-1192.45
-1346.12
-1234.9
-1446.63
-1194.58
-1343.7
-1232.22
-1190.03
-1232.2
-1340.41
-1445.85
-1189.27
-1341.14
-1231.63
-1344.36
-1493.35
-1347.04
-1273.79
-1422.85
-1280.12
-1295.01
-1431.21
-1289.4
-1263.93
-1395.89
-1256.88
-1238.92
-1386.03
-1246.61
-1069.82
-1217.98
-1113.63
-1309.57
-1075.51
-1211.19
-1106.16
-1061.48
-1091.11
-1194.78
-1300.75
-1056.31
-1201.9
-1097.91
-1210.95
-1312.31
-1087.51
-1162.09
-1316.75
-1166.59
-1206.18
-1216.1
-1177.52
-1325.38
-1090.86
-1321.04
-1221.5
-1172.82
-1184.33
-1329.03
-1186.32
-1226.57
-1131.75
-1085.89
-1012.25
-1231.43
-1234.54
-1089.14
-1128.76
-1119.39
-1218.76
-1000.78
-1073.21
-1222.04
-1076.92
-1116.21
-1122.66
-1083.18
-1004.65
-1227.81
-1225.26
-1079.77
-1125.51
-1089.66
-1187.95
-973.238
-1043
-1192.03
-1047.38
-1085.93
-1093.77
-1055.23
-1199.43
-977.957
-1195.97
-1097.43
-1050.9
-1109.49
-1214.81
-1070.3
-992.227
-1112.7
-1211.82
-1066.54
-1105.52
-1058.82
-987.858
-1203.96
-1208
-1063.07
-1101.69
-1039.48
-1130.16
-921.538
-1003.84
-1124.38
-1008.21
-1037.81
-1039.5
-1012.25
-922.971
-1114.49
-1125.49
-1009.17
-1039.1
-1026.19
-1063.3
-894.622
-999.762
-1083.75
-1005.42
-1019.75
-1032.92
-1010.4
-904.735
-1109.36
-1093.29
-1010.4
-1035.72
-984.109
-1042.23
-989.459
-843.61
-1004.65
-1013.08
-968.025
-947.606
-905.575
-825.188
-945.036
-981.871
-936.098
-910.528
-1201.89
-1306.29
-1077.29
-1158.64
-1306.25
-1158.4
-1202.09
-1200.98
-1156.12
-1076.18
-1303.53
-1305.27
-1157.53
-1199.31
-1199.95
-1308.83
-1158.31
-1080.1
-1202.5
-1306.65
-1155.65
-1198.28
-1153.66
-1078.17
-1304.38
-1305
-1154.3
-1198.04
-1201.44
-1306.54
-1077.77
-1158.42
-1306.22
-1201.98
-1158.12
-1200.4
-1155.82
-1078.23
-1304.35
-1305.67
-1156.44
-1199.05
-1036.33
-1128.96
-925.812
-1001.69
-1134.04
-1036.92
-998.935
-1037.62
-999.59
-924.602
-1138.19
-1133.44
-999.607
-1039.18
-1048.95
-1151.86
-934.512
-1010.11
-1147.95
-1007.68
-1051.42
-1045.57
-1002.67
-932.519
-1140.21
-1145.81
-1004.64
-1042.58
-1078.19
-1183.52
-1039.66
-962.916
-1081.79
-1179.79
-1035.43
-1073.71
-1027.13
-958.223
-1170.98
-1175.72
-1031.55
-1069.65
-1057.66
-1154.86
-943.683
-1012.64
-1159.25
-1054.67
-1015.92
-1061.53
-1023.21
-947.453
-1166.51
-1162.49
-1019.2
-1065.05
)
;

boundaryField
{
    left
    {
        type            calculated;
        value           nonuniform List<scalar> 0();
    }
    bottom
    {
        type            calculated;
        value           nonuniform List<scalar> 
214
(
-1187.07
-1128.51
-1010.06
-1192.42
-1138.91
-1032.76
-1211.75
-1170.28
-1089.09
-1206.13
-1163.57
-1074.15
-866.29
-861.645
-1181.77
-816.433
-806.827
-1116.74
-724.18
-686.851
-954.037
-1197.3
-875.04
-870.759
-1148.08
-832.561
-824.911
-1046.42
-749.198
-740.075
-571.767
-887.406
-549.294
-555.366
-540.595
-547.279
-1176.32
-856.826
-851.589
-505.625
-515.599
-487.169
-501.265
-1103.52
-795.798
-783.551
-396.747
-449.763
-375.395
-912.389
-559.725
-960.383
-883.504
-879.266
-1201.5
-564.578
-570.458
-557.205
-562.843
-845.814
-839.484
-1156.22
-530.208
-538.141
-518.646
-527.353
-770.908
-759.091
-1059.66
-470.836
-482.001
-461.02
-467.529
-664.019
-537.696
-692.037
-574.004
-575.688
-551.912
-553.939
-543.427
-545.704
-509.549
-513.034
-491.987
-497.158
-411.248
-437.228
-346.426
-343.026
-511.936
-387.269
-567.354
-569.195
-559.662
-561.485
-533.362
-536.111
-521.91
-524.975
-473.506
-478.125
-463.126
-466.623
-823.822
-734.234
-823.643
-509.944
-632.356
-710.081
-904.887
-607.928
-584.187
-389.863
-391.488
-386.209
-386.804
-391.907
-368.576
-370.283
-365.371
-365.822
-371.401
-372.239
-370.815
-370.505