/*--------------------------------*- C++ -*----------------------------------*\
| =========                 |                                                 |
| \\      /  F ield         | OpenFOAM: The Open Source CFD Toolbox           |
|  \\    /   O peration     | Version:  2012                                  |
|   \\  /    A nd           | Website:  www.openfoam.com                      |
|    \\/     M anipulation  |                                                 |
\*---------------------------------------------------------------------------*/
FoamFile
{
    version     2.0;
    format      ascii;
    class       volVectorField;
    location    "0.106/solid";
    object      sigmaMidDir;
}
// * * * * * * * * * * * * * * * * * * * * * * * * * * * * * * * * * * * * * //

dimensions      [1 -1 -2 0 0 0 0];


internalField   nonuniform List<vector> 
3125
(
(-0.00457406 0.00465211 0.999979)
(-0.00934964 0.00756439 0.999928)
(-0.113751 -0.08283 0.99005)
(-0.00597567 0.00439184 0.999973)
(-0.00654875 0.00740361 0.999951)
(-0.0896862 -0.0546699 0.994468)
(-0.0201907 0.00338202 0.99979)
(-0.00402281 0.00573768 0.999975)
(-0.0327843 0.00277136 0.999459)
(-0.0135091 0.00353253 0.999903)
(-0.00402303 0.00620964 0.999973)
(-0.0438871 -0.00348294 0.99903)
(0.99336 0.115016 -0.0027378)
(0.98811 -0.153737 0.00163772)
(-0.0731999 -0.00771813 0.997287)
(-0.00432439 0.00481804 0.999979)
(0.996933 0.0782363 -0.00214576)
(-0.0751607 -0.00877521 0.997133)
(0.988642 -0.150289 0.000853187)
(0.985221 0.170655 -0.0147125)
(0.992667 -0.120879 3.66424e-05)
(-0.0811115 -0.00810814 0.996672)
(-0.0148455 0.00723266 0.999864)
(0.994031 0.108909 -0.00645696)
(-0.0982205 -0.0114266 0.995099)
(0.993467 -0.113612 -0.0107245)
(0.949533 0.0570778 -0.30843)
(0.824991 0.0538088 -0.562579)
(-0.121604 -0.0696412 0.990133)
(-0.144752 -0.131967 0.980628)
(0.932809 0.329481 -0.145978)
(-0.149216 -0.0022227 0.988802)
(-0.0734268 -0.137677 0.987752)
(-0.0251374 0.00177267 0.999682)
(-0.0260634 -0.000257518 0.99966)
(0.99746 0.0710549 -0.00488789)
(-0.00842368 0.00383545 0.999957)
(0.987592 -0.157041 -0.000842039)
(-0.0954381 -0.0105387 0.99538)
(0.994504 0.104655 -0.00302333)
(-0.0962241 -0.0129267 0.995276)
(0.986942 -0.161011 -0.0045385)
(-0.0248709 0.00167179 0.999689)
(-0.0201916 0.00100693 0.999796)
(-0.0320008 0.00217706 0.999485)
(-0.0296819 0.00201722 0.999557)
(0.994882 0.101002 -0.00304236)
(-0.0052001 0.00706612 0.999962)
(0.99196 -0.126536 0.00219568)
(-0.0846606 -0.00864195 0.996372)
(0.988987 0.147864 -0.00637016)
(-0.07147 -0.00695968 0.997418)
(0.991325 -0.131372 0.00393415)
(-0.0363349 0.00215879 0.999337)
(-0.0419374 0.00136358 0.999119)
(-0.0873617 -0.0415235 0.995311)
(-0.0599492 -0.0180963 0.998037)
(0.968487 0.230963 -0.0932179)
(-0.070965 -0.0313161 0.996987)
(0.924689 0.016619 -0.380359)
(-0.111818 -0.0635848 0.991692)
(0.920951 0.36564 -0.134748)
(-0.0970042 -0.0350241 0.994668)
(0.964677 -0.0159619 -0.262951)
(-0.105123 -0.0452168 0.993431)
(-0.148166 0.0401781 0.988146)
(-0.255929 -0.0310899 0.966195)
(0.984102 -0.176934 -0.0153846)
(0.99716 0.0748758 -0.00811694)
(0.988474 0.151107 -0.00930689)
(0.845518 -0.533412 0.0239033)
(0.859371 -0.510007 -0.0370682)
(0.861502 -0.503211 0.0677773)
(0.988288 0.152558 -0.00356768)
(0.988297 0.152492 -0.00388351)
(0.996045 0.0888344 -0.00180998)
(-0.00416693 0.00524541 0.999978)
(-0.0770398 -0.00798395 0.996996)
(0.989663 -0.143382 0.00281573)
(-0.0670547 -0.00733287 0.997722)
(0.992459 0.122548 -0.00258928)
(0.989162 -0.146796 0.00315589)
(0.98817 0.153304 -0.0041863)
(0.988263 0.15272 -0.00358119)
(0.866315 -0.494645 0.0694654)
(0.864279 -0.502238 -0.0279225)
(0.883174 -0.468501 -0.0226013)
(0.890989 -0.452499 0.0371982)
(0.987715 0.156103 -0.00719714)
(0.987452 0.157475 -0.0118716)
(0.992277 0.122951 -0.0164342)
(-0.0229074 0.00596354 0.99972)
(-0.1033 -0.0162265 0.994518)
(0.994404 -0.0892785 -0.0564779)
(-0.0969451 -0.0117377 0.995221)
(0.977965 0.205734 -0.0354767)
(0.994249 -0.103428 -0.0277718)
(0.986945 0.159236 -0.0241466)
(0.987309 0.158224 -0.0136289)
(0.916032 -0.400787 -0.0159617)
(0.895237 -0.442874 -0.0491316)
(0.990537 -0.0877829 -0.105499)
(0.949708 -0.310944 0.0369997)
(0.947988 0.156389 -0.277237)
(0.921184 0.0626182 -0.384056)
(0.903994 0.0643552 -0.422674)
(-0.362659 -0.173746 0.915582)
(-0.109722 0.0642566 0.991883)
(-0.402717 -0.108084 0.908921)
(0.968922 -0.00617139 -0.247288)
(0.919788 -0.341879 -0.192634)
(-0.0591371 0.00158426 0.998249)
(-0.0480504 0.00126087 0.998844)
(-0.0212415 -0.000812453 0.999774)
(0.995144 0.0982242 -0.00632849)
(-0.0109097 0.00336849 0.999935)
(-0.180744 -0.0221096 0.983282)
(0.985031 -0.172132 -0.00924586)
(0.999185 0.0397106 -0.00722465)
(-0.107501 -0.0154371 0.994085)
(0.985985 -0.166499 -0.0105914)
(0.857076 -0.511288 0.0632885)
(0.853418 -0.518351 -0.0546884)
(0.988323 0.152311 -0.00427948)
(0.98846 0.151418 -0.00447644)
(0.988269 0.152556 -0.00722)
(0.988428 0.15161 -0.00498138)
(0.844713 -0.527957 -0.0878697)
(0.85192 -0.521165 0.0511763)
(-0.0233571 0.00190898 0.999725)
(-0.0241425 0.00116797 0.999708)
(-0.0258547 0.0019649 0.999664)
(-0.0257575 0.00192471 0.999666)
(0.991035 0.133552 -0.0035697)
(-0.00448635 0.00661412 0.999968)
(-0.0666554 -0.00646416 0.997755)
(0.99018 -0.13974 0.00411169)
(0.995522 0.0945154 -0.00186681)
(-0.0775073 -0.00799624 0.99696)
(0.990737 -0.135761 0.0029523)
(0.879647 -0.471602 0.0617466)
(0.8757 -0.482475 -0.0191839)
(0.987812 0.155502 -0.00679204)
(0.987991 0.154434 -0.00487668)
(0.988136 0.153536 -0.00386625)
(0.988057 0.154009 -0.00494845)
(0.869463 -0.493519 -0.021732)
(0.87222 -0.484371 0.0679517)
(0.98944 0.14431 -0.0135145)
(-0.0508004 -0.001973 0.998707)
(-0.0468018 0.000920497 0.998904)
(0.989095 0.145437 -0.023222)
(0.989361 0.14465 -0.0155511)
(-0.0532885 -0.00355381 0.998573)
(-0.0550691 -0.0129974 0.998398)
(0.956179 0.135868 -0.25935)
(0.987059 0.143641 -0.0712849)
(0.988976 0.145479 -0.0276263)
(0.988118 0.144498 -0.0523683)
(0.958558 0.27295 -0.0816427)
(-0.0563187 -0.0144231 0.998309)
(-0.0990525 -0.0176527 0.994926)
(0.992622 -0.070307 -0.0987898)
(0.987358 0.153142 -0.0408925)
(-0.0984174 -0.0291837 0.994717)
(0.984893 -0.0457689 -0.167009)
(0.992704 -0.104772 -0.0596733)
(0.963853 -0.225152 -0.142456)
(0.965016 0.158413 -0.208926)
(0.983916 0.159564 -0.0803034)
(0.986736 0.15972 -0.0290123)
(0.985343 0.159405 -0.060731)
(0.921812 -0.375202 -0.0973918)
(0.958107 -0.27623 -0.0756822)
(0.893063 0.126699 -0.431724)
(-0.673987 -0.00566302 0.738721)
(-0.433555 -0.183477 0.882251)
(-0.12648 0.124387 0.98414)
(0.70846 -0.0787631 -0.701342)
(-0.039455 -0.0277387 0.998836)
(-0.419173 -0.241164 0.875291)
(-0.0489767 -0.00899239 0.998759)
(-0.295047 -0.187726 0.93686)
(-0.490876 -0.263269 0.8305)
(-0.0598947 -0.0149207 0.998093)
(0.985572 0.164279 -0.0407539)
(0.996558 0.0828691 -0.00220473)
(0.961434 0.274956 -0.00668556)
(0.971604 0.236612 -0.000674947)
(0.971522 0.236879 -0.00583153)
(0.961535 0.274667 -0.00285905)
(0.986229 0.16512 0.00937543)
(0.986483 0.163567 0.00985208)
(0.99409 0.108517 -0.00301386)
(0.972378 0.233359 -0.0049935)
(0.961728 0.273998 -0.00217188)
(0.985915 0.162879 -0.0379759)
(0.972504 0.232885 -0.000499052)
(0.96173 0.273924 -0.00633956)
(0.980567 0.178182 -0.0820968)
(0.993177 0.116157 -0.0103417)
(0.958389 0.284836 -0.0189368)
(0.963898 0.266169 -0.00740754)
(0.963448 0.267637 -0.0117933)
(0.958651 0.284349 -0.0115432)
(0.983463 0.179737 -0.0222478)
(0.98422 0.176903 -0.00412066)
(0.987265 0.158796 -0.00959831)
(0.96527 0.261118 -0.00848505)
(0.959339 0.282166 -0.0071326)
(0.982395 0.175388 -0.0643382)
(0.965566 0.260137 -0.00316186)
(0.959152 0.282583 -0.0131836)
(-0.159129 -0.151015 0.97564)
(0.963677 0.1974 -0.179888)
(0.861476 0.189727 -0.471023)
(0.995275 0.0930966 -0.0275967)
(0.96613 0.195749 -0.168154)
(0.91943 0.247479 -0.305618)
(-0.0434595 -0.107926 0.993209)
(-0.153969 -0.132229 0.979188)
(0.938659 0.311579 -0.147775)
(0.945948 0.283788 -0.156994)
(0.911799 0.300298 -0.280077)
(-0.299175 -0.164794 0.93986)
(0.956676 0.238067 -0.167616)
(0.908478 0.28196 -0.30849)
(0.986883 0.161359 0.00505875)
(0.99422 0.107282 -0.00409905)
(0.962137 0.272508 -0.00560073)
(0.973644 0.227954 -0.00742574)
(0.986066 0.160238 -0.0446912)
(0.973425 0.229 -0.00164638)
(0.961962 0.273068 -0.00795413)
(0.986021 0.162046 -0.0387851)
(0.996832 0.0794841 -0.00280736)
(0.973068 0.230517 -0.000431136)
(0.961809 0.273654 -0.00610451)
(0.986658 0.162494 0.0101227)
(0.972672 0.232121 -0.00537239)
(0.961785 0.27379 -0.00292352)
(0.985 0.172413 0.00695486)
(0.990066 0.140524 -0.00467887)
(0.960244 0.279136 -0.00389235)
(0.96767 0.252133 -0.00659041)
(0.983902 0.17132 -0.0508461)
(0.968037 0.250807 -0.000847065)
(0.960179 0.279255 -0.00849293)
(0.983284 0.173173 -0.0562452)
(0.994421 0.105397 -0.00438564)
(0.967013 0.254722 -0.00167483)
(0.959737 0.280721 -0.0100525)
(0.984668 0.174399 0.00368331)
(0.966611 0.256135 -0.00759149)
(0.959848 0.280472 -0.00520352)
(-0.378738 -0.121452 0.917501)
(0.939463 0.323818 -0.112034)
(0.945411 0.299273 -0.128975)
(0.950885 0.299791 -0.0770957)
(-0.571894 -0.158521 0.804865)
(0.952205 0.294753 -0.0801634)
(0.937793 0.301387 -0.172367)
(-0.400304 -0.155316 0.903125)
(0.948714 0.290686 -0.124269)
(0.952001 0.285619 -0.110075)
(0.918431 0.304413 -0.252618)
(-0.261981 -0.129712 0.956316)
(0.948346 0.298574 -0.107206)
(0.930442 0.304456 -0.203921)
(0.988138 0.151496 -0.0251387)
(0.995103 0.0979694 -0.0131269)
(0.96385 0.265707 -0.0198113)
(0.977743 0.209553 -0.0102824)
(0.98698 0.153488 -0.048087)
(0.998184 0.0593316 -0.0103922)
(0.963344 0.268099 -0.0095898)
(0.977881 0.209153 -0.00204387)
(0.963451 0.267723 -0.00933018)
(0.976875 0.213664 -0.00797128)
(0.988119 0.153684 0.00150913)
(0.974188 0.225507 0.0101711)
(0.98881 0.148797 -0.0106987)
(0.960917 0.276544 0.0127427)
(0.961597 0.272376 -0.0338039)
(0.989021 0.147317 -0.0116655)
(0.962597 0.270819 0.00801255)
(0.97381 0.22688 0.0148154)
(0.973295 0.226311 -0.0384594)
(-0.665771 0.745882 0.020235)
(-0.688269 0.725455 -0.000794277)
(0.836957 -0.533023 -0.124055)
(-0.68807 0.724919 0.0324341)
(-0.674927 0.737781 0.0123667)
(-0.669089 0.743034 0.0148498)
(0.840286 -0.542143 0.000133801)
(-0.683044 0.730335 0.00784977)
(-0.699538 0.714595 -0.000336693)
(-0.696102 0.717936 -0.00296951)
(-0.701701 0.712377 0.0116261)
(0.858507 -0.507869 0.0709539)
(-0.700997 0.712955 -0.0172925)
(-0.693635 0.720323 -0.00224077)
(-0.694783 0.719219 0.000326521)
(-0.701308 0.712647 -0.0173406)
(0.861232 -0.506843 -0.0372853)
(-0.704181 0.709927 0.0115497)
(0.972315 0.232643 0.0219435)
(0.972113 0.232701 -0.0291059)
(0.959944 0.279049 -0.0252736)
(0.988317 0.152365 -0.00368808)
(0.960326 0.278259 0.0185945)
(0.97221 0.232275 -0.0292457)
(0.972627 0.231337 0.0219162)
(0.960184 0.278756 0.0184773)
(0.988309 0.152426 -0.00345795)
(0.959974 0.278944 -0.0252833)
(0.985961 0.166643 0.0105644)
(0.961204 0.275826 -0.00249144)
(0.992782 0.119908 -0.00254098)
(0.970656 0.240415 -0.00525081)
(0.985301 0.165834 -0.0409917)
(0.96115 0.275955 -0.00634433)
(0.970824 0.239794 -3.83584e-05)
(0.985028 0.167144 -0.0422346)
(0.995675 0.0928864 -0.00170571)
(0.960963 0.276601 -0.00645127)
(0.970298 0.241912 -0.000328749)
(0.960961 0.276674 -0.00250012)
(0.969941 0.243277 -0.00559179)
(0.985763 0.167823 0.0103119)
(0.97183 0.233842 -0.0294086)
(0.972126 0.233421 0.0220271)
(0.988213 0.153038 -0.00384392)
(0.959899 0.279727 0.018604)
(0.959677 0.279907 -0.0259208)
(0.959803 0.279507 -0.0255858)
(0.988255 0.15276 -0.00399021)
(0.960068 0.27915 0.0185656)
(0.972007 0.233918 0.0220194)
(0.971658 0.234489 -0.029917)
(-0.700941 0.713209 -0.00374225)
(-0.702215 0.711964 -0.00105839)
(-0.704075 0.709873 -0.018967)
(0.866253 -0.498739 -0.0294229)
(0.707303 -0.706844 -0.00971045)
(0.707591 -0.706621 0.00145987)
(-0.703753 0.710432 -0.00421101)
(-0.704804 0.709338 0.00950171)
(0.863088 -0.499715 0.0732443)
(-0.703649 0.710289 -0.019153)
(0.748525 -0.662978 -0.0130519)
(0.741324 -0.671139 -0.00345746)
(0.718636 -0.695285 -0.0119149)
(0.883625 -0.464725 0.0569002)
(0.715646 -0.698324 0.0139673)
(0.733695 -0.679478 0.00120889)
(0.736079 -0.676876 -0.0050596)
(0.719024 -0.694965 0.00538894)
(0.887446 -0.459529 -0.0356664)
(0.724416 -0.689114 -0.0185082)
(0.970521 0.240689 0.0125239)
(0.96956 0.241546 -0.0401253)
(0.95832 0.284057 -0.0305642)
(0.987664 0.156352 -0.00857763)
(0.958841 0.283586 0.0142594)
(0.970204 0.239625 -0.0358208)
(0.970918 0.238824 0.016739)
(0.958425 0.285142 0.0107229)
(0.987557 0.156955 -0.00977121)
(0.95777 0.285512 -0.0340471)
(0.981537 0.182926 -0.0558783)
(0.957835 0.286715 -0.018627)
(0.982237 0.186227 -0.0230253)
(0.961508 0.274244 -0.0171003)
(0.976707 0.181313 -0.114759)
(0.957428 0.287261 -0.0285076)
(0.962074 0.27244 -0.0137591)
(0.966909 0.184724 -0.175965)
(0.990433 0.135487 -0.0262039)
(0.956064 0.289948 -0.0432595)
(0.959894 0.27939 -0.0233382)
(0.956744 0.289353 -0.0302641)
(0.959268 0.28134 -0.025533)
(0.974762 0.186051 -0.123383)
(0.968648 0.244054 -0.0464612)
(0.970105 0.242621 0.00558018)
(0.987078 0.159031 -0.0196708)
(0.957737 0.287622 -0.00374749)
(0.956007 0.289422 -0.0478009)
(0.956958 0.287557 -0.0392798)
(0.987216 0.158521 -0.0166069)
(0.958065 0.286507 0.00502751)
(0.969559 0.244804 -0.00520478)
(0.967399 0.246774 -0.056933)
(0.756502 -0.653878 -0.0121536)
(0.768826 -0.638953 -0.0254065)
(0.735191 -0.677379 -0.0255313)
(0.905817 -0.417086 -0.0743967)
(0.742012 -0.668928 -0.0442009)
(0.801744 -0.596056 -0.0438654)
(0.780549 -0.624568 -0.0256479)
(0.730983 -0.681825 -0.0278922)
(0.900939 -0.43366 0.0157677)
(0.726304 -0.687344 -0.00644349)
(0.999602 -0.0196473 0.0202214)
(0.9631 0.190612 -0.190016)
(0.922145 -0.35281 -0.158666)
(0.992694 -0.120139 -0.011155)
(0.93439 -0.330531 -0.132912)
(0.988382 0.0386674 -0.146991)
(0.971511 0.159993 -0.174841)
(0.959933 -0.278563 -0.0305113)
(0.98122 -0.188527 -0.0407931)
(0.974294 -0.193645 -0.115117)
(0.948198 0.160554 -0.274123)
(0.896836 0.295201 -0.329457)
(0.916284 0.304016 -0.260763)
(0.92648 0.146247 -0.346766)
(0.93381 0.27269 -0.2316)
(0.906229 0.307507 -0.290152)
(0.926269 0.280147 -0.25208)
(0.970301 0.148329 -0.191088)
(0.910504 0.119342 -0.395904)
(0.914696 0.267052 -0.303339)
(0.0234599 -0.156086 0.987465)
(-0.296644 -0.0770353 0.951876)
(0.911593 -0.335916 0.236978)
(0.992209 0.0766431 -0.0982167)
(-0.0591949 -0.143098 0.987937)
(0.213607 -0.0292752 0.976481)
(0.819175 -0.22327 0.528302)
(-0.0358258 -0.0478882 0.99821)
(0.0137842 0.127739 0.991712)
(0.106405 0.100719 0.989209)
(-0.0468807 -0.0136668 0.998807)
(-0.0147543 -0.0151591 0.999776)
(-0.25152 -0.126727 0.95952)
(0.185319 -0.155906 0.970232)
(-0.255046 -0.168582 0.95212)
(-0.0482656 -0.0644801 0.996751)
(0.737347 -0.575513 0.3537)
(0.200811 0.0386736 0.978866)
(0.763533 -0.399969 0.506993)
(0.915358 0.117619 -0.38508)
(0.602718 0.0248763 0.797566)
(0.0361627 0.122048 0.991865)
(0.436728 0.106312 0.89329)
(0.96392 0.115256 -0.239947)
(0.931679 0.0470248 0.360225)
(0.632748 0.184574 0.752039)
(0.330782 -0.023921 0.943404)
(0.994499 -0.0344956 -0.0989054)
(0.811763 -0.561043 -0.162085)
(-0.263684 -0.106821 0.958676)
(0.480063 -0.465314 0.743655)
(0.740633 -0.665138 -0.0951566)
(0.911071 -0.404528 -0.079408)
(-0.395505 0.0141366 0.918355)
(0.765159 -0.643568 0.0187712)
(0.986508 0.156707 -0.0473865)
(0.998819 0.0480826 -0.00703049)
(0.962513 0.271014 -0.0109214)
(0.975186 0.22134 -0.00460171)
(0.987368 0.158417 -0.00300006)
(0.962859 0.269901 -0.00750741)
(0.975992 0.217599 -0.00953179)
(0.987932 0.154884 -0.000920415)
(0.997083 0.0759265 -0.00778581)
(0.96326 0.268514 -0.00551115)
(0.977696 0.209925 -0.0064684)
(0.987268 0.154027 -0.039729)
(0.963162 0.268732 -0.0101401)
(0.977649 0.210208 -0.0038751)
(-0.685349 0.728212 0.00206909)
(-0.686614 0.727014 0.00339379)
(-0.698195 0.715752 -0.0149181)
(0.856064 -0.514458 -0.0498757)
(-0.700376 0.713622 0.0147561)
(-0.692148 0.721754 0.00138518)
(-0.688172 0.725547 -0.000358798)
(-0.697682 0.716212 0.0167593)
(0.853994 -0.516486 0.0627442)
(-0.697036 0.716914 -0.0131938)
(0.972412 0.231279 -0.030401)
(0.972689 0.231223 0.0202898)
(0.960281 0.278444 0.0181501)
(0.988396 0.151836 -0.00435573)
(0.960177 0.278144 -0.0263732)
(0.972631 0.231379 0.0212991)
(0.972243 0.231994 -0.0303612)
(0.960268 0.277799 -0.0267005)
(0.988452 0.15146 -0.00473696)
(0.96058 0.277475 0.0171192)
(0.973107 0.229541 0.0193255)
(0.972865 0.229381 -0.0303116)
(0.960169 0.277933 -0.0287748)
(0.988279 0.152539 -0.00598003)
(0.960599 0.277491 0.0157577)
(0.973097 0.227973 -0.0333144)
(0.973786 0.226727 0.0182944)
(0.960725 0.277028 0.0162315)
(0.988336 0.152209 -0.00487232)
(0.960102 0.278391 -0.0264923)
(-0.683901 0.729549 0.00608988)
(-0.680698 0.732549 0.00468477)
(-0.693107 0.720435 0.0239797)
(0.848218 -0.527585 0.0467)
(-0.693627 0.720301 -0.0068958)
(-0.677518 0.735465 0.00782645)
(-0.679194 0.733909 0.00848947)
(-0.694407 0.719525 -0.0091501)
(0.848685 -0.523577 -0.074834)
(-0.696786 0.716966 0.021174)
(0.984328 0.16975 -0.0477927)
(0.99515 0.09834 -0.00242118)
(0.960512 0.278135 -0.00762852)
(0.968886 0.247505 -0.000769381)
(0.985295 0.170661 0.00822086)
(0.960561 0.27805 -0.0034288)
(0.9685 0.248928 -0.00649374)
(0.985543 0.169159 0.00947066)
(0.991742 0.128214 -0.00304441)
(0.960799 0.277233 -0.00264924)
(0.969329 0.245699 -0.00569742)
(0.984742 0.168307 -0.0442324)
(0.960795 0.277173 -0.00695629)
(0.969616 0.244632 -0.000356152)
(0.720182 -0.693773 0.00412031)
(0.722637 -0.691227 0.000545469)
(0.711472 -0.70251 0.0169696)
(0.878821 -0.476559 -0.0237813)
(0.715892 -0.698132 -0.0104625)
(0.72973 -0.683734 -0.0011363)
(0.725684 -0.688021 0.00308795)
(0.712549 -0.701572 -0.00844029)
(0.875089 -0.478994 0.0691664)
(0.710112 -0.703823 0.0193377)
(0.97103 0.236827 -0.0318547)
(0.971504 0.23613 0.020571)
(0.959146 0.282438 0.0163362)
(0.987889 0.155053 -0.00586741)
(0.958825 0.282531 -0.028805)
(0.97122 0.237405 0.0192646)
(0.970699 0.237936 -0.0336072)
(0.959118 0.281671 -0.0274464)
(0.987965 0.154574 -0.00558795)
(0.95949 0.281206 0.0173928)
(0.971703 0.23524 0.0213395)
(0.971342 0.235668 -0.0309206)
(0.959503 0.280499 -0.0259832)
(0.988142 0.15348 -0.00432931)
(0.959887 0.279782 0.0184183)
(0.971513 0.235071 -0.0300596)
(0.97194 0.234216 0.0218244)
(0.959671 0.28055 0.0179926)
(0.988102 0.15374 -0.00435235)
(0.95942 0.280715 -0.0267028)
(0.717597 -0.696457 0.0012361)
(0.713336 -0.700808 0.00444403)
(0.708329 -0.705835 -0.00814387)
(0.868351 -0.490521 0.0731814)
(-0.706607 0.70732 -0.0201276)
(0.709413 -0.704778 0.00462623)
(0.711262 -0.702925 0.00156456)
(0.707205 -0.706749 0.0191529)
(0.871914 -0.489044 -0.0245452)
(0.711054 -0.703079 -0.00910599)
(0.9892 0.145137 -0.0204449)
(0.989289 0.144908 -0.0175888)
(0.977446 0.139673 -0.158401)
(0.984533 0.142167 -0.10239)
(0.988838 0.145301 -0.0329778)
(0.988587 0.144938 -0.0410873)
(0.819319 0.180253 -0.544266)
(0.980796 0.18455 -0.0630887)
(0.948904 0.296525 -0.107954)
(0.954475 0.292886 -0.0565244)
(-0.676381 -0.152848 0.720518)
(0.952154 0.295313 -0.0786958)
(0.953832 0.295443 -0.0540249)
(0.936494 0.185673 -0.297497)
(0.970623 0.234335 -0.0545671)
(0.955176 0.292083 -0.048227)
(0.956705 0.288709 -0.0369032)
(0.93652 0.187052 -0.296551)
(0.953737 0.292925 -0.067681)
(0.957322 0.286672 -0.036803)
(0.93439 -0.341073 -0.10288)
(0.964063 -0.232923 -0.127787)
(0.859939 -0.491945 -0.135997)
(0.980938 -0.129799 -0.144611)
(0.859993 -0.485235 -0.157982)
(0.98884 -0.0457815 -0.141774)
(0.976685 -0.171683 -0.128883)
(0.814814 -0.564961 -0.129993)
(0.979292 -0.18285 -0.0869108)
(0.814244 -0.568357 -0.118229)
(0.953577 0.263749 -0.145355)
(0.957356 0.263394 -0.118718)
(0.939962 0.29474 -0.172047)
(0.975537 0.15891 -0.151908)
(0.935853 0.300114 -0.184691)
(0.939305 0.281429 -0.196221)
(0.935072 0.281323 -0.215634)
(0.947796 0.294979 -0.121119)
(0.981005 0.159462 -0.110461)
(0.951378 0.291888 -0.0983945)
(0.965881 0.252312 -0.0584142)
(0.961693 0.255095 -0.100368)
(0.954759 0.291121 -0.0607031)
(0.986505 0.159557 -0.0367288)
(0.95734 0.288305 -0.0194982)
(0.965417 0.250337 -0.0728056)
(0.968507 0.247757 -0.024707)
(0.956165 0.289024 -0.0470365)
(0.98612 0.159433 -0.0463622)
(0.952611 0.292579 -0.0832486)
(0.911718 -0.398219 -0.100951)
(0.873615 -0.481229 -0.0722121)
(0.757046 -0.650045 -0.0657426)
(0.934926 -0.35175 -0.0467476)
(0.752143 -0.657009 -0.0511765)
(0.819249 -0.571644 -0.0453156)
(0.850785 -0.520879 -0.069644)
(0.776041 -0.624935 -0.0849433)
(0.941341 -0.312874 -0.126442)
(0.780913 -0.617126 -0.0965939)
(0.780957 0.104847 -0.615722)
(-0.693569 -0.0646783 0.717481)
(-0.0262642 0.142849 0.989396)
(-0.0489172 0.000669172 0.998803)
(-0.0196637 0.138302 0.990195)
(-0.62284 0.111204 0.774405)
(0.918565 0.394302 -0.0276486)
(0.996211 0.086952 -0.00164725)
(0.984496 0.175406 0.00020021)
(0.999497 -0.0302922 0.00940665)
(0.999657 -0.0229141 -0.0126873)
(0.983073 0.183159 -0.0044716)
(0.918905 0.394108 0.0171058)
(0.0349549 0.00552438 0.999374)
(-0.00662431 -0.00208174 0.999976)
(0.97209 0.23397 -0.0173048)
(-0.0752808 -0.00836062 0.997127)
(-0.159547 -0.0116171 0.987122)
(-0.0175777 0.00772462 0.999816)
(0.97209 0.234011 -0.0167486)
(0.919203 0.393423 0.0168614)
(0.994463 0.105025 -0.0037475)
(0.999627 -0.0246062 -0.011816)
(0.983452 0.18113 -0.00378328)
(0.919211 0.393074 -0.0233257)
(0.999117 -0.0411136 0.00865849)
(0.985204 0.171386 -0.000100678)
(-0.153523 -0.0114636 0.988079)
(0.971983 0.234368 -0.0179041)
(-0.0644317 -0.00740472 0.997895)
(-0.0176636 0.00756025 0.999815)
(-0.00602002 -0.0024818 0.999979)
(0.972031 0.234195 -0.0175789)
(0.0311591 0.00513769 0.999501)
(0.914497 0.402371 -0.0423493)
(0.992663 0.120222 -0.0129039)
(0.980702 0.195312 -0.00873111)
(0.999923 0.0123545 0.000973364)
(0.999158 0.0336841 -0.0234361)
(0.977554 0.210254 -0.0134761)
(0.915664 0.401791 0.0111307)
(-0.010793 0.00263197 0.999938)
(-0.015278 -0.000664182 0.999883)
(0.970262 0.238602 -0.0407626)
(-0.0899181 -0.00935214 0.995905)
(-0.125163 -0.00738223 0.992109)
(-0.0269816 0.0091962 0.999594)
(0.969855 0.238995 -0.0475787)
(0.916161 0.400578 0.0136398)
(0.988459 0.151217 -0.00910595)
(0.999558 0.0253297 -0.0155947)
(0.978959 0.203943 -0.00686594)
(0.916013 0.40006 -0.0295393)
(0.999983 0.000806239 0.00581756)
(0.981726 0.190258 -0.00408045)
(0.924003 0.271451 -0.269318)
(0.967581 0.0356211 -0.250037)
(0.956148 0.110158 -0.27138)
(0.965963 -0.106677 -0.235662)
(0.972266 -0.0499684 -0.228477)
(0.958755 0.194482 -0.207279)
(0.941916 0.223976 -0.250256)
(0.910164 0.382357 -0.159387)
(0.920175 0.362858 -0.147011)
(0.965536 0.214362 -0.147613)
(0.928999 0.340311 -0.145431)
(0.884206 0.410057 -0.223679)
(0.978816 0.152919 -0.136141)
(0.935432 0.318778 -0.152798)
(-0.0205498 0.00782532 0.999758)
(-0.0299219 0.00123103 0.999551)
(0.00530015 -0.000184212 0.999986)
(0.00588283 -0.00151767 0.999982)
(-0.0256158 0.000934772 0.999671)
(-0.0211809 0.00702809 0.999751)
(0.91949 0.392879 0.0135955)
(0.994696 0.102676 -0.00614233)
(0.984022 0.177938 -0.00622343)
(0.999374 -0.0320996 -0.0148466)
(0.919572 0.392013 -0.0267146)
(0.998863 -0.0473071 0.00581157)
(0.985698 0.168501 -0.00253311)
(-0.182349 -0.0140344 0.983134)
(-0.0193379 0.00787964 0.999782)
(0.972132 0.233705 -0.0184881)
(-0.0951873 -0.0107704 0.995401)
(0.0319371 0.00540297 0.999475)
(-0.00839409 -0.00240787 0.999962)
(0.972171 0.233379 -0.0204408)
(0.919084 0.393214 -0.0258326)
(0.996938 0.0781756 -0.00182137)
(0.999138 -0.0405433 0.00891566)
(0.985274 0.170982 0.000185966)
(0.919555 0.392573 0.0174399)
(0.999406 -0.0320923 -0.0125243)
(0.983757 0.179455 -0.00435018)
(0.00644169 0.000116347 0.999979)
(-0.0196778 0.00160151 0.999805)
(-0.0191142 0.0076157 0.999788)
(-0.022346 0.000837357 0.99975)
(-0.0189061 0.00734744 0.999794)
(0.00726137 -0.000375239 0.999974)
(0.917214 0.398069 0.0161249)
(0.990804 0.135203 -0.00517166)
(0.980613 0.195904 -0.00436818)
(0.999883 0.0085241 -0.0127048)
(0.917169 0.397623 -0.0263885)
(0.999889 -0.0120776 0.00871455)
(0.982828 0.18452 -0.00109813)
(-0.125685 -0.0072477 0.992044)
(-0.023723 0.00934519 0.999675)
(0.970625 0.23798 -0.0353981)
(-0.0762841 -0.00749611 0.997058)
(0.00403348 0.00445372 0.999982)
(-0.0124416 -0.000657451 0.999922)
(0.970835 0.237562 -0.0323104)
(0.916433 0.398816 -0.0331089)
(0.994173 0.107676 -0.00503428)
(0.999959 -0.00423099 0.00795201)
(0.982301 0.1873 -0.00202209)
(0.916982 0.39857 0.0168916)
(0.999812 0.0111417 -0.0158944)
(0.979945 0.199145 -0.00705144)
(0.0133851 0.00535907 0.999896)
(0.971205 0.236765 -0.0265236)
(-0.0103551 -0.000849533 0.999946)
(-0.0799706 -0.00789366 0.996766)
(-0.0216504 0.0092974 0.999722)
(-0.127631 -0.00755998 0.991793)
(0.971082 0.237026 -0.0286175)
(0.908248 0.410921 -0.0789283)
(0.949333 0.297844 -0.100284)
(0.957702 0.275277 -0.0838362)
(0.983047 0.158007 -0.0930221)
(0.898956 0.416371 -0.136065)
(0.989684 0.120715 -0.0771564)
(0.961378 0.259934 -0.090482)
(0.880884 0.417643 -0.22275)
(0.938953 0.315674 -0.136809)
(0.979414 0.163256 -0.118729)
(0.939681 0.313321 -0.137221)
(0.907669 0.399154 -0.129667)
(0.96934 0.201586 -0.140507)
(0.935691 0.325125 -0.137023)
(0.921265 0.388157 -0.0246031)
(0.998877 0.0467754 -0.00748761)
(0.988036 0.154183 -0.00347778)
(0.997036 -0.0768392 0.00384218)
(0.986177 0.165491 -0.00817103)
(0.997934 -0.0620364 -0.0167171)
(0.922129 0.38654 0.0162984)
(0.955819 -0.293903 -0.00554189)
(0.955112 -0.29589 -0.014477)
(0.995848 0.0907281 -0.0074405)
(0.999975 -4.31563e-05 -0.00701929)
(0.976963 0.213382 -0.00337359)
(0.98865 0.150231 -0.00150954)
(0.988776 0.149402 -0.000584624)
(0.984273 0.176622 -0.0034446)
(0.96201 -0.273012 0.00143309)
(0.960045 -0.279759 -0.00697521)
(0.958793 -0.284013 -0.00722793)
(0.960729 -0.277484 0.00126365)
(0.918323 0.39547 0.0169562)
(0.982481 0.186326 -0.00359069)
(0.993229 0.116116 -0.00354088)
(0.99985 -0.0127445 -0.0117351)
(0.918392 0.394924 -0.0243248)
(0.98416 0.177281 -4.74074e-05)
(0.999533 -0.0291372 0.00924499)
(-0.140997 -0.0094345 0.989965)
(-0.0186308 0.00856755 0.99979)
(-0.0697776 -0.00716106 0.997537)
(0.971705 0.235366 -0.0198226)
(0.971754 0.235165 -0.0197881)
(-0.00741178 -0.00159986 0.999971)
(0.0289929 0.00608434 0.999561)
(0.0313095 0.00584525 0.999493)
(0.971902 0.234671 -0.0183273)
(-0.00664804 -0.002146 0.999976)
(-0.0772281 -0.00825934 0.996979)
(-0.146663 -0.0105032 0.989131)
(0.971855 0.234835 -0.0187168)
(-0.0183072 0.00815456 0.999799)
(0.917951 0.395711 -0.0279058)
(0.995586 0.0938492 -0.00134939)
(0.983831 0.179096 0.000577394)
(0.999692 -0.0227091 0.0100501)
(0.982221 0.187681 -0.00415829)
(0.999832 -0.0134851 -0.0123826)
(0.918377 0.395307 0.0178019)
(0.960475 -0.278282 -0.00688801)
(0.9624 -0.271633 0.00157552)
(0.963121 -0.269063 0.00153657)
(0.961198 -0.275775 -0.00686636)
(0.984043 0.17793 -0.000213965)
(0.978322 0.207064 -0.0032222)
(0.973364 0.22924 -0.00327484)
(0.985667 0.168695 -0.00128917)
(0.950762 0.309712 -0.0113855)
(0.972058 0.234504 -0.0105881)
(0.973496 0.228679 -0.00337136)
(0.961623 0.274269 -0.0075478)
(0.968637 -0.248185 -0.0120824)
(0.964794 -0.262287 -0.0194564)
(0.963541 -0.267276 -0.0123109)
(0.966659 -0.256035 -0.00417924)
(0.914708 0.404098 0.00377358)
(0.976112 0.216764 -0.0147846)
(0.984161 0.176118 -0.0202356)
(0.998334 0.0521802 -0.0246374)
(0.913788 0.404213 -0.0400465)
(0.979768 0.199693 -0.0133138)
(0.999769 0.0211321 -0.00400338)
(0.911032 0.406842 -0.0670809)
(0.98905 0.14391 -0.0327125)
(0.977551 0.208995 -0.0267624)
(0.999049 0.0398523 -0.0177105)
(0.973459 0.226863 -0.0301742)
(0.996807 0.0676082 -0.042487)
(0.914306 0.404978 -0.0060993)
(0.965282 -0.260168 -0.023306)
(0.969464 -0.244698 -0.0161873)
(0.973041 -0.227771 -0.0362043)
(0.967717 -0.248594 -0.0415269)
(0.965584 0.259892 -0.010167)
(0.949401 0.313691 -0.0153278)
(0.937466 0.347258 -0.0238727)
(0.961327 0.274311 -0.0245793)
(0.924485 -0.229882 -0.304107)
(0.952258 -0.168473 -0.2546)
(0.947364 0.302672 -0.104363)
(0.954229 0.273038 -0.122053)
(0.942737 -0.133668 -0.305581)
(0.956281 -0.0916129 -0.27773)
(0.976319 0.0286379 -0.214434)
(0.974751 0.0813913 -0.207932)
(-0.194605 -0.197348 0.960824)
(0.926863 0.0986388 -0.362208)
(0.871089 0.244759 -0.425789)
(0.926185 -0.0239142 -0.376311)
(0.780287 0.27031 -0.563991)
(0.919177 -0.0745433 -0.386727)
(0.912382 -0.198427 -0.358031)
(-0.0885649 -0.136742 0.98664)
(-0.389976 -0.228377 0.892056)
(-0.190827 -0.160025 0.968492)
(-0.265687 -0.174215 0.948187)
(-0.123309 -0.162826 0.978919)
(-0.136834 -0.146166 0.979751)
(-0.295565 -0.207039 0.932618)
(-0.0275103 -0.0901615 0.995547)
(-0.0624043 0.0180699 0.997887)
(-0.1205 -0.0582303 0.991004)
(-0.00245727 0.11453 0.993417)
(-0.0769648 -0.0902147 0.992944)
(0.0765992 0.088785 0.993101)
(-0.0628399 -0.036315 0.997363)
(-0.0343531 -0.133265 0.990485)
(0.960762 -0.12367 0.24828)
(-0.184236 -0.166574 0.968664)
(-0.272434 -0.141489 0.951714)
(-0.0404099 -0.166057 0.985288)
(0.0322267 -0.162352 0.986206)
(-0.239198 -0.181701 0.953818)
(0.909329 -0.212133 -0.35794)
(0.886659 -0.274803 -0.371913)
(0.879293 -0.233834 -0.414929)
(0.95047 0.224724 -0.214722)
(-0.000668181 0.000276533 1)
(-0.0312326 0.000441404 0.999512)
(-0.0239964 0.00701843 0.999687)
(-0.0204557 0.00575573 0.999774)
(-0.0259173 -0.000931027 0.999664)
(0.0054614 -0.0018562 0.999983)
(0.92024 0.390104 -0.0312656)
(0.99803 0.0624653 -0.00582498)
(0.986463 0.16395 -0.00328934)
(0.998598 -0.0527204 0.00481302)
(0.920526 0.3905 0.0119034)
(0.984983 0.17246 -0.00809586)
(0.998712 -0.0478592 -0.0168314)
(0.922157 0.386562 0.0140208)
(0.997421 0.0712804 -0.00842671)
(0.986235 0.165175 -0.0075545)
(0.998034 -0.0607341 -0.0154481)
(0.921962 0.386618 -0.0226354)
(0.988307 0.152435 -0.00356433)
(0.996709 -0.0809999 0.00330823)
(0.991097 0.133103 -0.00329566)
(0.984616 0.174641 -0.00559418)
(0.981686 0.190475 -0.0035371)
(0.991909 0.126942 -0.00158497)
(0.957809 -0.287247 -0.00950052)
(0.960334 -0.278852 -0.00091454)
(0.960539 -0.278142 0.00096531)
(0.958915 -0.283596 -0.00747656)
(0.959286 -0.282431 -0.0018316)
(0.956193 -0.292551 -0.0104047)
(0.953254 -0.301888 -0.0130629)
(0.955316 -0.295557 -0.00414997)