/*--------------------------------*- C++ -*----------------------------------*\
| =========                 |                                                 |
| \\      /  F ield         | OpenFOAM: The Open Source CFD Toolbox           |
|  \\    /   O peration     | Version:  2012                                  |
|   \\  /    A nd           | Website:  www.openfoam.com                      |
|    \\/     M anipulation  |                                                 |
\*---------------------------------------------------------------------------*/
FoamFile
{
    version     2.0;
    format      ascii;
    class       volScalarField;
    location    "0.106/solid";
    object      sigmaHyd;
}
// * * * * * * * * * * * * * * * * * * * * * * * * * * * * * * * * * * * * * //

dimensions      [1 -1 -2 0 0 0 0];


internalField   nonuniform List<scalar> 
3125
(
723.606
688.05
619.851
726.821
694.363
632.377
737.992
713.447
664.393
734.715
709.364
655.584
463.975
565.709
875.982
720.428
472.983
870.703
562.57
423.643
531.803
836.116
680.916
440.48
823.89
525.234
442.057
456.227
780.394
586.45
400.202
756.38
433.124
902.513
907.644
478.753
729.739
568.743
878.108
470.721
883.56
571.639
900.426
895.107
864.84
874.289
450.528
699.941
537.573
839.748
437.243
849.423
542.765
861.308
849.376
804.31
810.899
394.037
639.682
472.217
780.528
389.225
784.856
481.169
802.754
773.693
890.85
579.882
483.24
1041.47
392.107
383.141
379.783
1024.93
1019.55
466.182
717.125
862.412
555.728
868.911
456.787
559.284
1010.38
1017.73
374.459
378.272
358.104
351.839
981.436
967.933
427.635
672.971
805.024
508.873
819.435
405.882
517.574
947.09
963.021
338.81
348.361
290.995
265.354
927.986
899.002
429.171
520.582
729.988
348.813
853.613
250.816
914.936
912.293
908.477
476.397
732.132
887.849
577.298
486.664
884.367
574.509
384.452
387.369
1027.59
1034.42
1036.91
1034.71
391.462
388.698
887.057
893.371
884.661
877.05
447.854
704.893
859.977
551.791
459.057
852.261
547.488
360.535
365.844
985.46
996.146
1007.62
999.237
372.655
367.995
1039.96
830.997
845.061
1019.04
1035.06
826.519
813.731
993.11
997.585
1013.84
1000.25
387.97
647.197
800.407
499.488
410.663
787.647
490.055
301.127
316.545
925.782
926.845
941.943
928.938
334.034
322.112
993.89
956.506
513.401
746.237
906.762
484.215
352
575.915
339.428
336.706
598.176
634.939
469.761
673.582
562.826
563.971
675.151
633.784
637.301
467.628
567.581
678.603
638.483
566.671
676.973
594.208
434.432
629.378
519.921
522.172
633.191
591.567
599.032
430.899
529.32
640.676
601.356
527.569
637.314
523.036
432.916
590.31
441.372
444.379
593.633
515.513
532.693
413.191
452.794
588.534
535.445
451.106
591.96
643.852
472.957
685.766
574.256
644.949
573.372
684.327
641.77
475.419
570.052
680.568
640.718
570.968
682.357
611.496
442.838
653.146
541.473
613.327
540.022
650.503
607.648
445.705
534.032
644.288
605.653
535.753
647.248
547.102
384.017
589.006
470.644
549.841
467.677
586.951
543.293
391.796
459.834
586.839
541.285
461.846
585.725
655.898
481.759
698.508
586.147
654.167
485.649
693.27
583.655
695.873
583.869
653.313
717.085
1046.98
828.468
834.05
1050.89
835.69
710.491
714.928
528.942
510.087
392.464
509.813
526.884
527.568
393.298
513.202
505.455
507.782
495.249
382.487
494.832
511.376
509.393
491.615
381.013
491.899
691.262
692.907
814.046
1022.72
811.741
696.323
694.641
808.394
1020.99
810.338
630.06
671.64
460.494
560.073
631.329
669.846
559.078
627.428
462.724
665.59
554.878
667.606
556.136
626.086
689.571
687.504
1012.92
799.838
802.739
806.992
1015.48
804.446
683.174
685.549
503.851
501.69
484.406
375.825
484.792
497.416
500.008
488.539
377.495
488.079
462.588
467.14
460.636
356.736
460.068
473.839
470.223
453.656
353.935
454.151
646.358
650.798
773.943
977.133
769.142
658.412
654.44
760.598
972.522
765.87
582.997
624.765
415.24
513.594
586.104
620.411
510.956
577.033
419.514
610.672
500.441
615.297
503.675
573.597
642.325
637.312
952.326
741.2
747.138
756.972
957.81
751.091
627.758
632.881
458.809
453.304
436.029
341.821
436.632
442.176
448.783
446.268
346.077
445.56
352.876
355.758
368.899
282.096
360.264
382.54
364.783
334.29
268.177
340.665
644.01
637.633
729.706
927.902
737.066
619.922
634.507
727.586
919.332
737.071
507.803
581.75
411.038
426.733
513.608
586.458
424.699
527.646
684.244
671.481
624.918
441.354
261.859
354.195
328.034
489.409
539.941
641.703
387.576
630.293
618.759
731.967
684.617
709.649
793.767
682.836
636.925
357.105
350.056
228.778
330.052
361.772
326.444
230.264
318.865
648.227
483.866
687.154
576.976
647.096
688.098
578.283
650.411
481.478
690.888
581.795
651.518
689.329
581.076
518.099
516.181
498.107
385.48
498.293
512.84
514.772
501.38
386.772
501.147
703.642
702.118
815.671
1030.34
818.578
698.154
700.412
821.891
1032.86
820.003
704.931
704.984
826.05
1034.54
823.809
707.948
706.71
822.606
1034.19
822.722
519.86
522.413
507.394
391.151
507.288
525.851
524.273
504.362
389.878
504.428
618.438
454.91
656.023
545.342
616.825
658.374
546.833
621.628
452.501
663.178
551.642
623.164
661.005
550.405
485.524
482.418
465.753
362.236
466.224
476.509
480.011
471.496
364.586
470.868
671.044
667.936
776.829
989.086
781.018
661.585
665.084
787.368
992.755
783.585
673.532
676.269
797.964
1004.8
794.868
681.068
678.589
789.589
1001.95
792.841
487.746
490.815
480.792
371.624
480.201
495.536
492.873
475.804
369.577
476.269
1024.14
1029.81
993.44
995.569
1008.64
1003.69
558.032
401.472
592.356
477.67
554.607
596.105
481.264
563.768
396.245
605.524
492.573
567.407
600.905
489.137
411.281
403.839
386.118
306.14
387.824
390.549
398.726
401.281
312.753
400.352
608.974
608.569
726.626
924.499
721.999
615.726
609.122
722.56
925.211
721.563
611.275
614.474
737.32
936.992
731.676
623.321
618.412
724.514
932.381
728.308
416.652
424.338
425.678
330.975
425.001
437.007
429.807
413.132
325.699
413.72
991.535
979.735
692.65
643.845
747.842
833.222
561.888
467.684
554.926
531.787
531.137
554.216
560.635
718.337
755.29
795.816
874.066
719.512
754.123
794.107
566.361
469.578
536.153
558.883
566.491
537.431
560.592
716.013
790.757
872.339
750.679
751.808
792.286
714.848
520.695
430.604
513.714
490.139
488.693
512.189
518.6
679.919
718.134
756.329
832.241
682.311
715.753
752.769
529.799
434.754
499.122
522.603
530.568
500.828
524.685
493.923
449.069
499.36
453.379
451.083
496.828
485.649
476.613
398.525
438.733
473.409
476.43
443.107
481.174
736.625
904.514
737.542
740.114
906.295
739.418
572.686
474.872
565.154
542.504
572.768
543.827
567.063
722.791
757.501
797.99
880.26
721.703
758.625
800.027
568.716
474.145
538.912
561.767
567.537
538.135
560.976
734.504
898.445
733.5
896.696
730.286
731.254
541.528
445.905
534.361
510.956
542.057
512.386
536.143
688.758
722.52
760.151
843.153
686.649
724.601
763.303
534.392
442.75
503.958
527.438
532.669
502.835
526.325
692.614
769.501
730.34
846.391
728.499
694.488
766.72
478.215
385.643
471.01
444.52
478.723
447.797
475.645
475.982
393.529
442.61
475.957
473.919
439.283
470.208
581.315
486.309
574.737
552.708
573.398
551.03
580.385
606.49
608.128
450.34
452.68
430.063
433.053
437.974
436.602
586.059
588.3
593.594
591.728
559.241
551.909
462.638
528.841
559.433
553.518
530.079
708.618
743.101
864.722
782.492
784.641
744.478
707.223
711.201
788.817
748.29
866.924
712.447
786.974
747.07
554.332
460.714
547.308
524.086
546.615
523.392
552.974
586.455
584.588
578.126
580.497
430.882
429.295
422.676
425.878
389.324
394.837
404.37
401.11
541.781
546.095
557.234
553.97
514.7
507.459
420.285
483.869
515.809
509.968
485.885
502.788
414.497
496.029
471.66
493.911
469.927
500.238
542.259
537.939
522.644
528.035
391.243
386.621
370.743
377.686
385.892
378.044
349.745
347.74
550.102
558.168
515.082
515.435
467.71
488.353
396.28
436.958
478.752
491.749
445.676
514.899
463.558
558.16
495.719
533.678
560.775
438.774
574.153
676.265
620.912
710.804
577.593
666.373
621.764
450.745
394.844
428.264
321.397
464.212
380.773
389.098
542.228
530.527
378.059
328.626
745.215
910.293
744.365
741.87
909.15
742.533
575.268
480.844
568.484
545.639
574.023
567.405
544.999
579.762
483.165
571.743
550.051
579.758
574.02
551.937
443.772
442.094
437.081
439.82
600.398
598.349
593.114
595.143
599.659
602.424
607.05
605.009
443.203
446.587
452.614
451.452
723.215
889.273
724.405
727.958
891.407
726.923
720.398
882.144
719.064
545.25
452.411
538.275
514.873
543.743
537.434
514.019
702.804
740.203
779.949
857.48
704.353
738.685
777.679
551.198
455.112
543.974
520.776
551.559
545.596
522.019
699.649
772.505
733.852
854.904
697.963
735.501
774.962
414.686
412.226
402.894
407.251
568.893
566.349
556.856
560.217
568.567
571.322
578.456
576.297
413.553
417.228
423.534
421.606
483.656
396.842
478.233
451.61
481.045
475.002
449.375
495.61
401.731
488.345
463.998
496.847
491.595
466.444
353.739
348.139
343.87
347.9
506.812
502.34
506.634
507.828
504.41
509.649
523.481
518.204
350.656
357.773
373.07
367.09
458.132
557.032
584.097
626.142
723.317
641.81
513.995
461.742
488.546
480.032
348.324
463.687
547.404
546.867
517.087
418.777
350.381
435.303
498.613
567.811
562.871
466.066
532.62
555.477
563.059
533.773
557.151
565.506
471.353
535.548
558.526
564.248
534.882
557.744
522.752
427.897
492.056
515.514
523.691
493.9
517.802
528.039
437.118
497.566
521.045
526.13
496.27
519.775
489.004
436.617
443.963
488.988
487.444
451.619
500.333
482.575
410.411
446.488
489.424
480.758
441.318
480.726
571.768
476.631
541.961
564.936
570.589
541.135
564.1
569.496
472.091
539.165
561.975
569.55
540.582
563.731
540.14
447.851
509.715
533.149
538.513
508.733
532.228
535.964
440.528
505.364
528.789
536.609
506.883
530.699
477.181
391.404
444.752
473.51
474.88
441.935
469.395
474.459
385.586
439.285
468.051
474.463
443.155
473.918
583.456
486.362
577.534
554.127
582.348
576.137
552.806
581.625
482.536
573.917
550.954
581.379
576.255
553.429
609.547
612.084
741.431
718.104
685.753
686.22
742.563
1138.53
1278.22
1282.88
1134.39
1143.22
1291.35
1146.94
1286.35
1154.05
1294.1
1152.08
1297.09
609.28
607.833
680.024
711.53
730.973
680.679
733.388
737.942
683.346
714.019
682.873
735.899
448.31
452.188
560.114
572.952
518.394
525.54
515.993
557.134
575.099
431.768
533.563
532.272
434.329
366.42
240.892
365.811
240.583
431.207
529.999
530.129
430.318
367.069
241.761
369.371
240.98
451.554
450.665
558.414
516.681
523.407
570.355
514.083
571.828
556.82
558.978
572.367
515.834
523.558
515.181
557.951
572.738
434.781
533.605
534.215
434.162
241.235
368.978
434.56
433.086
533.609
495.312
502.705
544.637
493.527
546.371
531.343
534.958
548.124
496.945
503.679
495.171
534.682
547.874
416.61
510.92
511.146
416.679
355.403
239.383
356.883
238.608
416.616
513.518
512.142
418.065
355.431
239.104
355.733
238.546
433.983
437.066
539.316
500.494
507.405
552.342
498.925
552.15
539.256
537.992
549.196
499.196
506.45
497.325
535.441
550.967
413.615
510.439
508.633
416.404
351.933
237.157
351.336
237.066
412.501
505.432
505.939
411.495
353.216
239.083
355.687
237.872
590.274
588.173
660.278
691.698
712.546
660.503
713.82
715.566
661.885
693.346
662.419
714.222
1118.61
1262.66
1119.64
1261.11
950.777
948.943
813.702
908.79
948.542
907.654
951.788
949.572
905.736
812.382
946.175
947.244
906.634
948.706
1117.04
1258.37
1115.75
1259.85
589.64
592.002
665.364
696.645
718.698
665.818
717.365
715.553
663.813
694.972
663.908
716.874
946.959
943.016
809.021
903.086
944.007
903.982
946.166
1114.45
1255.8
1113.47
1256.79
947.63
905.358
810.22
945.036
944.962
904.578
948.088
1114.98
1257.72
1115.14
1257.27
558.277
464.249
551.264
528.101
556.972
550.604
527.391
555.406
458.993
548.111
525.008
555.678
549.71
526.226
658.42
712.154
689.803
658.762
710.997
582.26
584.53
708.865
688.114
656.442
656.856
710.225
1104.86
1245.06
1246.64
1103.08
938.073
933.814
800.684
893.659
935.166
895.1
936.729
939.46
897.789
937.214
802.325
936.723
940.614
896.378
1106.1
1249.32
1107.17
1248.1
944.525
941.785
902.323
806.67
945.313
941.499
901.378
1111.97
1255.03
1112.63
1253.98
943.267
899.018
805.292
938.853
940.139
900.251
941.998
1110.43
1250.82
1108.64
1252.66
582.575
580.497
652.159
683.731
704.249
652.549
705.857
708.2
654.412
685.714
654.64
706.617
426.527
429.755
530.638
492.985
543.589
499.903
530.748
491.443
543.335
529.382
540.288
491.638
498.902
489.652
526.712
542.038
406.196
501.536
499.552
409.098
345.768
234.435
345.089
234.428
404.953
496.07
496.73
403.867
347.164
236.659
349.779
235.286
427.447
425.839
524.872
487.465
494.85
535.318
485.641
537.15
522.39
526.297
539.154
489.142
495.93
487.489
526.203
538.832
409.532
502.009
502.332
409.531
349.83
237.108
351.332
236.323
409.676
505.086
411.258
503.529
349.716
236.814
349.999
236.274
398.392
394.571
486.74
453.498
460.998
494.689
451.22
497.334
482.627
489.054
501.698
456.174
463.037
455.009
490.619
500.419
381.134
465.734
466.873
380.451
327.162
227.25
329.054
226.383
381.705
471.592
469.323
383.847
326.569
226.643
326.329
226.221
396.703
401.695
496.853
463.062
469.917
509.301
461.868
508.32
498.181
494.886
503.683
460.944
468.192
458.634
491.101
505.965
376.252
465.293
462.391
379.829
321.194
224.322
319.791
224.528
374.492
456.021
457.99
372.33
323.259
226.662
326.142
225.406
550.171
546.307
615.478
647.091
666.126
616.043
669.116
673.437
619.879
650.776
619.893
670.573
1071.85
1214.17
1073.95
1212.33
907.99
906.54
773.172
867.189
905.542
865.062
909.768
1069.32
1206.82
1066.27
1209.34
549.822
553.677
627.473
658.433
681.029
627.551
678.668
674.603
623.539
655.226
624.161
677.216
1059.42
1196.62
1056.43
1198.78
1061.63
1203.71
1063.98
1201.81
512.311
423.118
505.301
481.494
509.932
503.588
479.924
505.47
411.23
498.196
474.393
506.712
501.025
476.569
611.412
664.956
642.265
611.425
661.921
532.64
537.579
656.9
638.227
606.402
607.101
660.16
1037.18
1172.64
1174.89
1034.13
1039.66
1180.93
1042.51
1178.58
1051.68
1193.43
1054.28
1191.3
1048.83
1184.67
1045.27
1187.57
533.077
528.106
596.736
628.485
647.173
597.192
650.559
655.484
601.832
632.82
601.849
652.088
380.734
387.122
479.463
447.804
492.161
454.637
481.991
446.833
490.298
476.692
483.526
444.648
452.125
442.213
471.727
486.618
356.849
443.869
439.465
362.154
304.488
218.293
301.979
219.033
354.065
429.599
433.055
350.213
307.956
221.939
311.94
220.134
382.837
377.454
464.908
434.079
441.583
470.028
431.652
473.532
459.55
468.06
480.422
437.876
444.495
436.991
471.148
478.056
366.189
444.971
447.547
363.76
316.51
224.204
319.309
222.91
367.79
455.438
371.341
451.957
314.547
222.184
313.087
222.418
366.625
368.677
323.619
376.395
352.203
320.922
371.654
306.665
348.897
323.025
326.544
372.18
352.232
374.018
335.648
311.306
272.041
320.28
335.099
278.8
232.328
178.679
234.098
171.753
276.905
354.083
345.835
275.815
227.272
157.199
230.697
164.135
352.056
353.847
382.951
382.925
378.089
392.655
382.204
381.532
394.635
367.402
345.887
378.445
368.979
375.729
350.427
365.04
287.211
307.768
289.34
276.241
236.173
148.348
250.444
144.212
282.543
291.136
281.667
295.951
238.395
152.588
230.293
149.081
541.387
540.431
614.93
642.335
679.371
614.148
683.755
674.582
605.244
644.755
615.211
679.819
1032.26
1151.94
1026.35
1154.38
1034.65
1152.27
1036.91
1153.75
525.605
524.572
585.81
624.343
648.74
592.051
654.952
667.553
602.852
629.453
595.144
660.475
1018.75
1102.11
1002.35
1116.04
1030.94
1144.51
1034.29
1137.42
480.655
431.41
521.434
463.673
491.46
485.956
431.751
586.717
560.043
614.861
695.93
706.771
696.66
650.532
683.802
667.748
592.865
655.343
635.71
412.201
426.692
401.418
306.786
287.563
324.187
372.78
341.37
364.138
383.675
309.609
364.793
551.802
456.421
514.333
570.727
511.568
550.186
616.973
611.118
589.637
418.218
436.362
474.706
604.333
670.533
625.167
592.376
649.213
528.5
522.224
600.723
612.179
590.474
585.805
619.922
723.918
720.145
710.767
747.758
697.118
719.528
798.798
736.148
939.386
1063.1
980.773
1021.66
877.824
881.242
800.982
949.346
617.939
640.525
632.039
330.946
380.29
341.422
358.384
326.407
353.011
368.64
384.52
344.563
404.466
322.703
393.516
357.952
341.248
301.557
332.605
322.528
257.061
261.36
186.035
242.249
327.97
306.211
288.97
162.654
206.078
451.552
364.922
403.619
364.79
259.579
244.218
296.992
235.452
236.129
153.24
240.225
145.984
284.244
297.547
289.658
299.8
215.028
119.925
187.2
129.226
1286.42
1290.55
1298.51
1294.32
1301.73
1272.08
1274.06
1277.38
1275.65
1282.13
1281.59
1279
1280.9
1283.66
1280.89
1278.43
1279.77
1281.53
1281.6
1279.59
1280.08
576.432
479.236
568.697
546.866
576.635
570.856
548.017
579.092
485.836
572.226
550.129
577.884
570.842
549.248
439.393
442.519
546.885
507.057
514.024
560.463
505.443
560.217
546.904
545.545
557.267
505.807
513.094
503.757
543.015
559.015
420.076
518.287
516.617
422.765
357.337
239.459
356.768
239.339
419.113
513.778
418.204
514.154
358.418
241.228
360.861
240.061
440.634
439.459
542.025
502.566
509.909
553.295
500.692
539.932
554.989
543.226
556.381
503.655
510.689
502.114
542.688
556.322
422.956
518.67
518.901
422.947
360.498
240.826
361.779
240.358
422.905
521.567
520.093
424.431
360.497
241.168
360.832
240.491
596.375
598.508
672.438
704.108
726.385
673.142
725.648
724.079
671.036
702.759
671.373
725.176
1123.17
1264.15
1121.22
1266.21
954.692
950.557
816.545
909.96
951.961
953.168
911.462
956.358
914.686
818.047
954.189
953.594
913.124
957.835
1124.87
1269.63
1267.76
1126.22
596.69
594.918
667.249
698.698
719.251
667.552
720.75
723.046
669.178
700.473
669.405
721.6
1131.03
1274.31
1273.81
1130.76
1129.9
1271.13
1273.18
1128.24
604.63
601.807
674.284
704.869
726.132
673.916
727.056
727.486
674.579
706.272
676.006
726.221
1128.94
1275.54
1130.92
1272.68
1126.97
1270.47
1271.53
1126.48
603.098
606.071
677.703
729.43
708.359
678.33
727.336
725.723
676.754
706.302
676.028
727.376
1130.1
1273.73
1273.6
1130.63
1129.08
1271.34
1272.31
1127.53
448.976
447.078
550.166
509.479
516.883
561.53
507.854
547.731
563.535
551.982
565.65
511.706
518.054
509.653
551.794
565.193
429.603
527.996
528.257
429.511
365.031
241.137
366.474
240.578
429.317
530.179
430.617
529.167
365.312
241.454
365.608
240.698
449.004
452.27
557.197
514.9
569.842
521.82
556.735
513.685
569.862
555.73
566.822
514.056
521.014
512.254
553.184
568.812
426.56
527.405
525.621
429.483
362.131
240.555
361.619
240.192
425.626
521.972
424.422
522.618
363.268
241.693
365.736
240.707
1270.6
1269.01
1266.21
1267.74
1263.66
1264.66
1265.63
1265.05
1252.98
1254.53
1257.18
1255.96
1262.89
1261.84
1258.71
1260.47
1224.77
1226.63
1230.42
1228.9
1238.67
1237.18
1232.78
1234.88
1251.36
1249.92
1246.26
1248.07
1240.47
1241.96
1244.61
1243.49
546.548
450.557
539.351
516.07
546.998
541.05
517.356
550.034
456.793
543.012
519.698
548.574
542.27
518.938
408.558
412.7
510.08
474.804
481.558
522.616
473.4
521.931
510.879
508.405
517.928
472.937
480.128
470.826
505.135
519.993
387.061
478.931
476.496
390.281
329.933
227.31
329.074
227.288
385.647
471.865
384.281
473.009
331.496
229.497
334.272
228.134
409.83
407.078
501.993
467.133
474.417
511.029
465.053
498.785
513.173
503.835
516.301
469.271
475.954
467.84
504.589
515.501
391.442
479.497
480.36
390.911
335.376
230.721
337.287
229.689
392.013
484.434
482.365
394.083
334.741
229.657
334.563
229.369
563.056
566.121
640.002
671.138
693.672
640.159
691.873
688.693
636.948
668.642
637.495
690.714
1078.28
1216.74
1075.81
1218.62
913.68
909.198
777.916
868.88
910.918
911.83
870.996
915.697
874.772
780.373
914.051
913.206
872.767
917.304
1080.02
1222.45
1220.93
1081.76
563.36
560.377
630.645
662.246
681.994
631.159
684.358
687.775
634.077
665.143
634.169
685.515
922.909
920.863
786.782
881.52
920.163
879.911
924.265
1088.2
1230.72
1229.22
1089.68
920.981
876.382
784.654
916.445
918.085
878.231
919.233
1086.11
1224.8
1226.96
1083.62
573.9
571.422
642.524
674.129
694.42
642.966
696.275
698.988
645.206
676.443
645.417
697.159
1100.47
1243.43
1101.68
1242.02
934.207
932.059
892.502
797.496
935.346
931.519
891.173
1098.68
1238.37
1240.2
1096.7
932.646
888.402
795.767
928.432
929.827
889.826
931.28
573.545
576.194
650.008
703.634
681.243
650.254
702.124
699.58
647.584
679.175
648.006
701.241
927.247
922.895
790.495
882.832
924.322
925.817
884.439
1092.97
1232.53
1234.05
1091.11
1094.23
1236.7
1235.62
1095.34
928.724
887.265
792.392
926.583
926.042
885.763
929.88
419.3
417.189
514.283
478.085
485.416
524.105
476.169
511.494
526.079
515.899
528.639
480.051
486.723
478.437
516.2
528.078
401.293
491.756
492.344
401.022
343.303
234.271
344.983
233.355
401.664
495.688
403.463
493.893
342.931
233.472
342.926
233.148
418.372
421.984
521.275
484.763
534.046
491.559
521.71
483.223
533.568
519.772
530.038
483.067
490.323
481.092
516.813
531.957
397.303
491.189
488.955
400.42
338.246
230.874
337.447
230.903
395.893
484.841
394.594
485.764
339.835
233.241
342.566
231.821
1222.24
1220.4
1214.91
1217.36
1204.75
1206.92
1211.84
1209.89
1180.73
1183.23
1189.13
1186.6
1201.59
1199.43
1192.85
1195.82
1157.18
1157.37
1157.13
1156.31
1160.15
1160.7
1158.2
1159.66
1177.46
1175.54
1169.58
1171.82
1161.75
1162.06
1165.95
1164.5
485.954
392.321
478.586
453.518
486.953
482.433
456.31
492.885
405.33
486.519
461.314
490.191
484.026
459.381
344.33
350.314
426.869
402.949
407.743
434.488
402.842
431.048
431.125
423.56
421.906
400.177
404.665
397.171
418.113
425.768
285.682
372.871
366.921
293.444
239.734
182.236
236.428
186.518
280.925
354.591
278.576
359.047
245.457
196.317
252.867
191.04
348.797
344.685
407.901
390.919
391.544
400.765
387.764
399.704
406.843
412.414
417.61
393.119
395.395
393.241
417.191
413.588
303.268
374.744
379.005
297.198
266.298
207.64
272.109
204.419
307.137
392.02
386.21
314.367
261.434
198.994
256.193
202.096
500.868
504.661
576.405
609.614
632.433
577.775
631.361
631.785
576.568
608.675
575.48
631.614
1017.33
1150.25
1021.71
1148.8
1015.73
1148.75
1147.98
1013.37
504.898
502.404
583.442
613.456
642.948
579.391
638.495
633.105
575.574
610.702
578.531
635.166
1015.1
1151.82
1152.07
1015.15
1014.52
1149.65
1150.91
1014.01
513.793
508.48
579.651
611.594
632.067
579.267
634.036
637.24
582.635
614.675
583.223
634.568
1029.56
1169.03
1032.05
1167.28
1026.8
1161.06
1163.68
1023.61
512.664
518.322
592.025
646.125
623.386
592.261
642.894
638.25
587.149
619.256
587.548
641.384
1017.44
1152.82
1153.59
1015.88
1018.97
1157.69
1156.1
1021.02
363.031
356.851
437.644
410.689
417.158
438.496
408.053
431.977
442.43
441.012
450.963
414.522
420.414
414.129
445.136
447.761
340.436
413.264
417.182
336.095
296.837
218.106
300.686
216.382
343.095
428.499
348.383
423.58
293.371
214.759
290.609
215.595
360.365
367.747
454.917
426.492
466.449
432.902
458.816
425.879
463.55
451.508
454.856
422.569
429.698
419.961
445.719
458.624
326.531
411.576
405.942
333.608
278.528
208.537
274.526
210.229
322.821
393.614
317.153
398.133
283.261
214.275
288.56
211.777
1160.75
1160.55
1157.18
1162.08
1101.06
1125.93
1152.98
1140.1
720.571
664.426
729.12
775.725
1072.54
1021.15
867.114
955.798
675.061
744.463
828.179
708.232
710.894
748.457
672.354
618.616
656.869
705.714
777.575
621.185
652.834
707.678
606.087
697.546
770.275
632.701
639.284
704.613
599.263
724.774
803.434
761.491
882.178
760.571
725.71
802.093
703.791
868.126
705.62
711.061
871.286
709.444
699.485
857.485
697.397
853.539
690.323
692.627
648.18
806.214
649.073
654.525
808.033
652.767
627.779
662.616
704.195
781.257
626.93
664.51
702.843
631.549
705.2
670.134
782.35
667.685
633.279
703.614
641.957
798.272
639.65
788.95
632.26
626.559
734.614
769.155
894.142
810.78
814.218
770.289
733.715
736.064
896.365
816.947
771.436
658.151
691.158
809.927
725.466
730.096
694.368
654.914
663.942
739.695
702.921
814.679
666.95
735.248
699.935
746.888
917.54
747.526
919.129
748.612
730.757
767.324
807.691
885.875
731.862
766.151
805.94
728.629
804.444
763.31
884.905
727.692
764.183
804.915
714.5
879.602
715.951
674.44
835.75
677.142
685.123
840.382
682.602
668.958
821.779
666.304
658.857
817.646
661.272
645.848
685.6
720.405
795.657
648.982
682.299
715.972
640.436
708.128
674.269
791.52
637.792
677.327
711.496
968.391
963.597
830.065
921.545
965.994
924.843
964.834
972.592
932.8
971.042
832.496
969.333
976.449
929.36
937.635
973.709
938.978
980.526
905.513
860.566
770.414
900.919
902.852
862.942
903.359
896.305
891.813
761.896
851.137
893.802
853.791
894.089
898.88
858.554
765.008
897.842
896.715
856.019
900.891
875.572
871.207
742.579
830.069
873.258
832.922
873.348
878.529
838.37
877.957
746.169
876.673
880.803
835.402
889.379
888.468
849.045
756.006
891.522
887.238
846.354
886.343
840.825
752.581
881.694
883.887
843.758
883.83
876.03
856.381
732.004
827.955
857.383
834.499
870.978
880.448
844.849
735.736
859.069
860.84
838.856
883.697
880.02
837.99
732.262
844.138
848.355
848.697
872.658
884.655
847.636
737.557
858.583
854.114
850.622
885.208
834.657
819.873
834.42
699.683
857.65
800.309
813.914
797.378
763.165
684.389
747.967
769.436
785.281
766.451
961.529
957.787
821.822
918.449
957.938
918.203
961.637
960.752
916.412
820.855
955.789
956.988
917.476
959.515
959.959
960.823
918.751
825.525
961.845
960.039
916.751
958.56
915.209
824.009
957.895
958.578
915.68
958.362
961.085
958.166
822.746
918.325
958.439
961.494
918.13
960.234
916.688
823.303
957.564
958.324
917.058
959.239
861.611
853.23
725.408
822.78
852.889
865.751
817.78
859.11
813.007
722.931
850.14
850.89
815.417
857.034
856.838
851.883
722.584
813.036
852.042
812.715
856.578
856.346
812.797
722.033
850.341
851.097
812.24
856.81
868.76
867.595
828.005
736.398
870.676
866.518
825.354
865.828
820.345
733.029
861.268
863.189
822.912
863.798
857.991
853.736
725.317
813.471
854.891
857.385
814.694
859.835
818.253
727.683
857.928
857.286
816.169
861.149
)
;

boundaryField
{
    left
    {
        type            zeroGradient;
    }
    bottom
    {
        type            zeroGradient;
    }
    interface
    {
        type            zeroGradient;
    }
    procBoundary5to1
    {
        type            processor;
        value           nonuniform List<scalar> 
55
(
740.493
740.493
740.493
582.677
896.286
582.677
582.677
582.677
582.677
1050.41
393.981
918.944
657.194
699.731
587.441
982.263
974.954
836.857
513.011
368.703
240.159
585.103
484.603
580.559
556.797
611.72
452.669
719.362
688.599
742.083
836.857
1153.8
1295.9
1304.23
562.68
527.075
518.515
577.039
434.613
368.703
536.431
368.703
240.159
1304.23
736.531
817.267
771.874
836.857
974.954
748.561
938.417
982.263
982.263
836.857
974.954
)
;
    }
    procBoundary5to4
    {
        type            processor;
        value           nonuniform List<scalar> 
526
(
722.752
689.059
615.053
725.726
725.726
725.726
722.752
722.752
695.058
695.058
695.058
689.059
689.059
632.095
632.095
632.095
615.053
615.053
735.484
713.188
666.611
735.484
735.484
732.927
732.927
732.927
713.188
713.188
709.329
709.329
709.329
666.611
666.611
658.152
658.152
658.152
719.725
682.275
573.291
728.336
728.336
728.336
1100.24
865.047
1107.03
869.472
1097.54
862.987
719.725
719.725
1091.96
857.977
700.365
700.365
700.365
1057.57
829.755
1068.34
838.375
1053.55
826.242
682.275
682.275
815.341
641.447
641.447
641.447
771.947
778.508
770.159
573.291
573.291
573.291
573.291
748.145
1114.45
1097.54
1091.96
716.625
1082.73
1090.13
1053.55
674.767
737.127
1114.45
876.367
1114.45
1114.45
730.553
730.553
730.553
1110.14
874.137
1107.43
870.358
1100.24
1100.24
1100.24
1107.03
1107.03
1107.03
1110.14
1110.14
1110.14
1107.43
1107.43
1107.43
1097.54
1097.54
1091.96
1091.96
716.625
716.625
1082.73
850.556
1090.13
856.262
1082.73
1082.73
1090.13
1090.13
705.069
705.069
705.069
1079.93
848.156
1071.42
841.12
1057.57
1057.57
1057.57
1068.34
1068.34
1068.34
1079.93
1079.93
1079.93
1071.42
1071.42
1071.42
1053.55
1053.55
1044.32
1195.29
1192.23
1192.47
1042.33
1044.47
1190.43
674.767
674.767
798.222
811.082
1173.15
1169.52
1170.76
1021.76
1023.99
1168.72
1187.64
1190.36
1185.7
1039.13
1187.87
1038.1
649.677
649.677
649.677
793.742
781.639
1138.44
1136.51
1132.74
995.333
994.215
1133.33
1146.2
1148.13
1143.24
1000.82
1001.76
1144.16
1164.47
1167.57
1163.74
1018.17
1165.89
1017.46
1151.15
1148.39
1148
1003.45
1004.32
1146.47
1136.77
1138.83
1134.33
992.664
995.43
1133.7
1086.3
1061.89
1088.82
952.618
958.635
1070.47
468.395
722.978
980.065
1028.47
1004.05
917.438
1036.97
903.636
334.593
622.004
1119.34
1122.89
1095.14
1093.33
1085.21
1087.8
1049.11
1044.32
1119.34
1119.34
1119.34
1122.89
1122.89
1102.89
1102.89
1102.89
1102.89
1105.42
1105.42
1105.42
1105.42
1107.56
1107.56
1107.56
1107.56
1107.02
1107.02
1107.02
1107.02
1095.14
1095.14
1095.14
1093.33
1093.33
1093.33
1085.21
1085.21
1085.21
1087.8
1087.8
1087.8
1061.13
1061.13
1061.13
1061.13
1064.84
1064.84
1064.84
1064.84
1076.96
1076.96
1076.96
1076.96
1074.06
1074.06
1074.06
1074.06
1049.11
1049.11
1049.11
1044.32
1044.32
1044.32
1175.33
1178.67
1173.66
1028.29
1027.3
1175.85
1185.11
1181.18
1182.25
1032.11
1034.62
1179.25
1138.27
1141.22
1134.39
995.311
996.478
1135.38
1145.78
1141.98
1140.41
998.516
999.039
1138.32
1162
1157.78
1159.97
1011.48
1013.68
1156.94
1152.25
1155.6
1150.93
1007.58
1007.39
1153.16
1135.91
1127.87
1131.37
991.135
990.77
1127.4
1106.01
1121.53
1107.98
979.212
978.369
1118.76
696.538
667.239
747.723
747.723
765.226
905.805
815.359
933.937
804.228
849.556
867.652
710.436
709.405
866.704
711.988
712.752
868.353
706.459
707.587
861.127
704.461
859.319
703.363
716.654
717.66
872.294
715.116
714.294
870.992
697.98
696.652
852.446
700.18
701.306
854.54
692.683
694.152
845.866
575.87
417.569
334.593
517.091
514.815
622.004
599.092
627.429
598.885
707.371
696.538
719.22
667.239
679.151
517.091
599.092
1276.35
1272.97
1279.05
1281.98
1284.41
1259.83
1257.94
1261.1
1262.41
1266.81
1266.88
1265.68
1263.9
1268.31
1270.14
1266.09
1265.32
1266.5
1266.82
1266.27
1265.02
1255.06
1256.34
1253.32
1251.82
1250.15
1249.23
1250.73
1250.93
1240.72
1238.95
1241.78
1242.89
1247.64
1248.48
1246.13
1244.22
1213.99
1211.56
1215.52
1217.29
1223.69
1225.33
1221.67
1219.02
1236.09
1237.57
1234.24
1232.1
1228.45
1226.67
1229.58
1230.73
1207.58
1209.82
1205.12
1201.9
1195.29
1192.23
1197.34
1199.8
1173.15
1169.52
1175.33
1178.67
1187.64
1190.36
1185.11
1181.18
1138.44
1136.51
1138.27