/*--------------------------------*- C++ -*----------------------------------*\
| =========                 |                                                 |
| \\      /  F ield         | OpenFOAM: The Open Source CFD Toolbox           |
|  \\    /   O peration     | Version:  2012                                  |
|   \\  /    A nd           | Website:  www.openfoam.com                      |
|    \\/     M anipulation  |                                                 |
\*---------------------------------------------------------------------------*/
FoamFile
{
    version     2.0;
    format      ascii;
    class       volSymmTensorField;
    location    "0.106/solid";
    object      sigma;
}
// * * * * * * * * * * * * * * * * * * * * * * * * * * * * * * * * * * * * * //

dimensions      [1 -1 -2 0 0 0 0];


internalField   nonuniform List<symmTensor> 
3125
(
(435.525 52.07 -0.539195 1234.84 -3.17836 500.457)
(408.483 41.2728 -0.948088 1179.15 -4.92968 476.516)
(344.961 29.8832 -10.2421 1055.42 53.5938 459.171)
(437.885 53.2717 -0.620259 1240.04 -2.92079 502.536)
(413.29 43.1277 -0.759326 1189.29 -4.96559 480.509)
(354.345 22.6776 -8.13781 1083.12 36.3882 459.67)
(446.33 60.8494 -1.48237 1258.13 -1.30343 509.515)
(427.769 48.5999 -0.542511 1219.24 -3.96979 493.328)
(388.658 32.9344 -2.56442 1140.55 -0.795517 463.971)
(444.271 58.4106 -1.06542 1252.03 -1.83991 507.848)
(424.683 47.4082 -0.559277 1212.86 -4.29486 490.547)
(380.141 29.1876 -3.44543 1125.86 3.60051 460.749)
(512.802 -5.38697 -0.520027 558.704 -0.073278 320.419)
(462.893 60.5981 -0.230172 842.922 -2.14147 391.311)
(604.633 -116.419 -0.998334 1417.45 -2.26488 605.869)
(433.091 50.9228 -0.527093 1229.94 -3.3052 498.254)
(523.289 -3.61777 -0.462252 569.12 0.501867 326.541)
(599.775 -116.374 -1.20279 1410.29 -1.65981 602.04)
(459.826 58.9586 -0.300983 838.696 -2.33007 389.19)
(464.172 -7.92665 -2.80352 508.773 1.97253 297.983)
(430.303 45.2528 -0.372893 796.409 -3.07922 368.698)
(568.567 -117.098 -1.90523 1359.69 -3.18899 580.092)
(402.882 39.0243 -1.31227 1167.6 -4.4505 472.265)
(484.76 -4.97111 -1.26593 529.658 1.04857 307.023)
(556.6 -117.494 -3.14979 1340.57 -2.80431 574.499)
(423.932 42.0504 -0.867071 787.067 -2.44419 364.704)
(450.564 5.69619 -26.642 493.653 23.8454 381.953)
(334.665 0.999862 -9.40949 703.215 36.0969 330.8)
(485.212 -97.5046 -24.5315 1227.75 30.1301 628.22)
(323.218 54.7909 -11.4153 976.695 78.8993 459.436)
(419.343 -11.8759 -26.0956 465.313 28.1205 315.949)
(473.772 -41.2344 -28.4291 1138.12 -5.15121 657.246)
(309.451 11.7185 1.05301 665.694 49.4374 324.228)
(558.313 -48.6024 -1.56778 1525.17 -2.81995 624.055)
(562.22 -47.8824 -1.70265 1533.7 -1.01484 627.007)
(530.192 -3.29697 -1.04931 576.311 0.95779 329.756)
(440.124 54.6976 -0.751693 1244.64 -2.3783 504.454)
(465.849 62.1913 -0.340116 847.075 -1.80295 393.304)
(606.373 -116.423 -1.31727 1420.85 -2.5487 607.102)
(520.723 -4.89308 -0.602904 566.71 0.0820778 324.73)
(611.113 -116.03 -1.41925 1429.51 -0.576718 610.06)
(468.738 64.0544 -0.519076 850.963 -1.40386 395.217)
(556.763 -48.6816 -1.56343 1521.67 -2.71419 622.844)
(552.245 -48.815 -1.29996 1514.05 -1.88725 619.024)
(526.738 -50.7164 -2.21875 1468.36 -3.51636 599.423)
(534.89 -50.0335 -1.98249 1482.98 -3.25749 604.999)
(496.957 -4.64738 -0.614314 542.279 0.504486 312.348)
(417.508 44.7182 -0.662493 1198.15 -4.81291 484.168)
(435.753 47.8373 -0.294663 804.606 -3.30408 372.359)
(571.934 -116.96 -1.89344 1365.22 -3.14722 582.091)
(481.219 -6.89732 -1.21319 526.351 0.530561 304.16)
(580.743 -116.727 -1.32937 1379.71 -2.83925 587.814)
(440.707 50.0786 -0.211574 811.858 -3.34358 375.73)
(523.612 -50.9482 -2.57978 1462.81 -3.72147 597.506)
(512.409 -51.8371 -3.28644 1443.46 -3.33736 592.257)
(442.421 -40.6802 -19.7031 1323.65 24.6351 646.861)
(459.692 -50.386 -9.94743 1363.32 10.631 609.683)
(420.484 -9.3344 -15.3323 464.803 14.6852 296.825)
(362.427 22.6207 -6.12491 1097.91 21.6959 458.703)
(355.87 4.84309 -8.94771 721.691 27.5931 339.09)
(486.787 -105.553 -21.4175 1238.71 27.979 616.091)
(408.364 -15.1401 -25.1824 453.882 26.3508 305.429)
(501.73 -115.972 -12.4287 1266.31 12.5991 586.53)
(369.674 10.9231 -7.3664 730.467 18.2829 343.367)
(439.279 -34.0147 -25.4177 1305.66 25.5676 663.323)
(426.41 9.76663 -43.8592 1184.26 -17.5644 710.405)
(617.956 -115.422 -3.0971 1439.92 -4.04975 614.676)
(477.213 71.5354 -0.903671 862.196 0.549686 400.239)
(536.166 -3.47121 -1.78433 582.318 1.57409 331.237)
(1037.7 -51.7734 -2.58721 1368.35 -2.25883 718.353)
(389.426 132.514 1.85811 515.991 1.37799 270.904)
(377.05 119.114 -2.29662 507.232 -0.866616 265.139)
(373.186 115.407 2.1677 503.244 -2.08442 262.918)
(1019.49 -51.752 -0.978701 1346.74 -0.744318 708.564)
(1013.54 -51.6248 -1.12684 1340.15 -0.352638 704.969)
(515.303 -4.11455 -0.384434 561.079 0.382726 322.165)
(430.546 49.7634 -0.533247 1224.94 -3.617 495.888)
(592.44 -116.587 -1.24431 1398.45 -2.58657 596.344)
(453.224 55.6953 -0.237485 829.523 -2.83156 384.436)
(598.126 -116.463 -1.03316 1407.93 -1.89488 600.679)
(504.472 -5.72968 -0.474608 550.165 -0.129451 315.724)
(456.647 57.3186 -0.188701 834.317 -2.58836 386.888)
(1003.77 -51.633 -1.12894 1328.56 -0.831732 698.817)
(1011.56 -51.6573 -1.01709 1337.85 -0.448632 703.779)
(366.992 110.399 2.16096 497.128 -2.51744 259.255)
(371.299 114.276 -2.21748 501.696 -1.4174 261.822)
(347.799 96.2149 -2.06772 478.262 -1.5552 248.251)
(340.415 89.1737 1.68272 470.713 -0.863364 244.39)
(971.938 -51.6927 -1.92822 1290.82 -0.811909 681.549)
(956.055 -51.7367 -3.18288 1272.22 -0.570564 675.529)
(468.385 -5.52678 -3.07456 512.707 2.63327 301.813)
(396.291 36.2602 -1.8592 1154.66 -3.26525 467.967)
(535.194 -118.108 -5.67609 1309.18 -0.228393 570.694)
(406.338 32.4601 -2.62073 764.472 1.02622 355.808)
(551.918 -117.717 -3.47382 1333.43 -2.50217 572.959)
(440.539 -9.49918 -6.4395 484.851 5.34513 292.258)
(415.995 37.8588 -1.57334 776.366 -1.23174 360.361)
(928.796 -51.6685 -6.21541 1240.97 0.748734 671.507)
(950.018 -51.8192 -3.64249 1265.09 -0.338768 673.96)
(323.261 72.3017 0.515898 456.736 3.3769 236.434)
(335.782 86.0473 -2.63451 467.257 0.367396 242.043)
(258.887 15.7738 -4.10504 411.571 20.2579 202.527)
(245.251 42.4809 9.5904 364.309 23.9119 186.504)
(868.324 -43.2256 -37.2674 1162.08 15.773 753.557)
(836.801 -19.4104 -35.3504 1095.84 -6.5107 764.368)
(429.958 6.39805 -29.4408 473.578 18.1602 383.977)
(289.35 133.618 -17.5528 855.152 139.738 417.244)
(452.975 -9.36124 -22.3747 1076.93 -27.9981 660.063)
(253.626 39.6402 5.99978 533.347 51.1714 259.467)
(793.041 -5.77033 -18.3298 1041.15 -28.6835 726.652)
(224.906 58.711 5.44503 345.368 25.7888 182.173)
(568.2 -47.1779 -3.68657 1545.13 -4.24451 631.482)
(566.754 -47.8602 -3.02028 1539.47 -3.44942 630.653)
(563.219 -47.8335 -1.41247 1534.37 -0.279627 627.84)
(527.565 -4.60162 -1.3179 573.773 0.513451 327.851)
(442.234 56.4284 -0.887823 1247.98 -1.88324 506.182)
(616.015 -115.879 -2.26454 1433.85 -2.8692 613.679)
(474.679 69.1717 -0.668091 858.457 -0.394087 398.758)
(540.106 -1.80657 -1.56154 585.832 1.81477 334.055)
(612.279 -115.906 -1.66409 1429.98 0.183342 610.846)
(471.747 66.5494 -0.839695 854.675 -0.938754 397.106)
(378.765 120.206 2.14162 508.531 -1.50408 266.06)
(382.432 124.298 -2.45554 511.729 0.0872333 267.947)
(1022.21 -51.7807 -1.15783 1350.21 -1.0258 710.334)
(1029.39 -51.7271 -1.42099 1359.15 0.207167 714.704)
(1033.34 -51.9754 -2.07063 1361.97 -1.25311 715.425)
(1030.07 -51.7318 -1.6583 1359.43 0.707599 714.629)
(388.079 131.002 -2.67446 515.795 1.70742 270.511)
(384.221 125.822 2.0022 512.994 -0.506835 268.878)
(545.684 -49.4033 -1.48847 1502.09 -2.85113 613.402)
(550.775 -48.9395 -1.55928 1511.66 -2.22628 617.675)
(543.729 -49.4868 -1.6647 1498.44 -3.02254 611.817)
(537.247 -49.8659 -1.69726 1487.1 -2.97964 606.808)
(493.978 -6.24457 -0.664135 539.478 0.0360284 310.106)
(421.274 46.1294 -0.602146 1205.9 -4.5449 487.507)
(590.303 -116.597 -1.05729 1394.89 -2.60587 594.735)
(449.424 53.976 -0.185664 824.182 -3.08214 381.768)
(507.023 -4.36397 -0.384842 552.581 0.319664 317.568)
(583.312 -116.634 -1.43934 1383.81 -2.69906 589.66)
(445.26 52.1099 -0.264735 818.328 -3.22025 378.876)
(350.863 97.8956 2.12012 480.81 -2.40806 249.932)
(356.861 103.104 -2.14351 487.318 -2.03175 253.354)
(976.459 -51.6318 -1.82006 1296.29 -0.874137 683.627)
(988.313 -51.5967 -1.31542 1310.32 -0.756414 689.803)
(1000.84 -51.6178 -1.04014 1325.01 -0.754625 697.015)
(991.681 -51.5539 -1.34535 1314.38 -0.750901 691.655)
(364.768 109.137 -2.18356 495.232 -1.86935 257.966)
(359.532 104.594 2.1267 489.577 -2.72704 254.876)
(985.168 -63.2304 -3.23194 1409.4 -1.3149 725.328)
(492.263 -52.9563 -5.06011 1411.3 -1.07054 589.426)
(508.03 -52.13 -3.84267 1436.26 -3.22131 590.893)
(957.483 -63.1046 -5.22567 1377.4 -0.563094 722.223)
(979.111 -63.2167 -3.67957 1402.17 -1.28245 723.903)
(486.392 -53.0605 -5.76862 1402.52 0.0567242 590.644)
(466.249 -51.6997 -8.17178 1373.1 7.18409 601.844)
(889.207 -54.7336 -24.5364 1288.36 7.90217 801.763)
(915.94 -60.8045 -12.0259 1327.69 3.81459 749.128)
(949.507 -62.9512 -6.03748 1368.34 -0.113005 723.689)
(923.973 -61.7113 -9.75062 1338.38 2.51119 738.414)
(414.395 -12.2296 -14.0264 458.918 12.9137 290.599)
(371.193 25.4428 -4.58703 1111.48 10.8618 458.917)
(528.981 -118.181 -6.38684 1300.79 1.1635 571.456)
(395.122 25.8547 -3.88336 752.053 4.73406 351.289)
(445.373 -6.6797 -7.09072 489.394 6.35432 297.221)
(508.286 -117.047 -10.6322 1274.41 8.76198 580.244)
(382.726 18.3818 -5.5636 740.294 10.435 347.145)
(270.179 17.4916 -1.37136 422.746 20.0181 210.455)
(290.973 38.0639 -5.69586 436.839 14.2751 221.823)
(870.768 -46.4118 -31.6004 1171.66 14.36 734.918)
(889.166 -50.7306 -16.5869 1198.59 6.90431 692.781)
(921.101 -51.6421 -7.31185 1232.27 1.48703 672.461)
(896.507 -51.0048 -13.4446 1206.26 4.98867 684.044)
(316.515 66.7733 -3.77759 452.387 5.39391 233.201)
(299.245 45.5894 -1.37432 441.121 11.7373 225.971)
(881.914 -50.6844 -31.9706 1273.47 7.64015 826.286)
(839.455 -25.8579 -57.2871 1180.47 -21.4575 849.595)
(269.847 204.145 -26.2011 834.435 188.68 435.92)
(407.873 34.2205 -44.0074 1114.06 -45.8329 716.777)
(797.431 -14.2711 -52.5752 1119.89 -44.6061 802.965)
(224.656 91.7654 -6.60232 771.592 12.3804 456.398)
(183.657 258.692 -13.2257 475.661 155.724 396.681)
(181.936 177.606 -19.8495 927.352 11.4827 618.458)
(199.273 135.274 -3.89174 505.652 84.2712 313.359)
(172.438 295.092 -16.245 426.899 196.199 410.781)
(179.658 212.442 -26.2014 946.987 16.9011 667.884)
(516.839 -74.0148 -3.05319 949.164 1.99 438.813)
(519.486 -3.8329 -0.464395 565.272 0.406225 324.526)
(651.792 -78.2691 -0.906559 903.077 -0.806462 465.877)
(584.097 -33.8958 0.326015 715.024 -1.87068 389.356)
(585.736 -33.8252 -1.20371 716.233 0.319605 389.944)
(653.631 -78.14 -0.448307 904.857 -0.141301 466.965)
(515.334 -74.412 1.50241 947.638 -5.31071 438.379)
(519.085 -73.7612 1.53531 952.045 -5.27846 440.774)
(517.091 -5.06873 -0.581369 562.971 -0.0543816 322.823)
(590.093 -33.1602 -1.07573 720.324 0.420715 392.326)
(657.538 -77.9815 -0.293528 909.033 -0.286206 469.238)
(520.538 -73.474 -2.91447 953.708 1.94826 441.204)
(588.788 -33.1723 0.337269 719.364 -1.81338 391.861)
(655.675 -77.9311 -0.858641 907.076 -0.811327 468.169)
(475.066 -78.6176 -4.28061 894.443 1.42989 413.114)
(477.218 -5.26196 -1.98712 521.761 1.64975 304.318)
(602.504 -79.1834 -2.74487 845.454 0.00462478 440.177)
(532.415 -39.3297 -1.09006 663.978 -0.454966 363.372)
(535.897 -39.3619 -2.25122 666.731 1.0052 363.889)
(607.13 -79.1777 -1.75435 850.611 0.156758 441.831)
(471.544 -79.2964 -0.0782051 890.313 -5.04433 412.844)
(479.665 -78.2731 0.837517 900.937 -5.80327 416.494)
(473.4 -7.38904 -1.83445 518.232 1.05906 301.063)
(544.546 -38.2495 -1.54523 675.618 0.304446 367.794)
(615.708 -78.9242 -1.00004 860.829 -0.316069 445.492)
(482.54 -77.7096 -3.57851 904.54 1.00025 416.986)
(541.991 -38.2009 -0.149893 673.474 -1.44254 367.243)
(611.788 -78.9134 -1.77604 856.38 -0.726632 443.775)
(366.128 -55.5224 -16.3254 784.624 48.3844 418.357)
(449.44 -2.92763 -25.447 496.99 31.9403 352.319)
(516.778 -41.1578 -16.7197 758.922 22.2283 495.229)
(388.844 -17.1189 -4.27581 581.016 35.8981 354.256)
(396.521 -32.2811 -16.5516 588.985 42.8381 347.632)
(525.472 -56.7119 -20.2471 770.979 35.1003 484.448)
(359.354 -36.0562 -6.73822 759.876 34.9412 427.308)
(376.688 -69.4934 -15.0676 805.247 42.0643 416.142)
(429.771 -10.4372 -25.8597 476.854 31.6969 332.95)
(423.574 -47.667 -23.2046 592.982 37.9044 341.826)
(527.836 -75.738 -26.3656 774.288 35.7399 463.477)
(384.192 -78.7848 -22.5607 809.811 44.7308 412.331)
(411.181 -41.116 -20.2036 597.304 39.1871 344.834)
(526.99 -68.1876 -25.587 775.358 37.603 473.533)
(525.748 -73.0975 1.13999 961.022 -4.8085 444.786)
(523.42 -5.03953 -0.842291 569.593 0.278021 325.859)
(665.25 -77.9973 -1.14276 918.56 0.547383 473.487)
(598.234 -32.1452 -1.74222 728.057 1.11383 396.478)
(527.263 -72.4662 -3.67365 962.415 2.94795 445.168)
(596.935 -32.4259 -0.0217894 727.132 -1.29679 396.05)
(663.474 -78.2387 -1.23261 916.877 -0.570196 472.629)
(523.816 -73.2834 -3.0569 958.324 2.15248 443.171)
(526.245 -3.68423 -0.615362 572.183 0.719764 327.83)
(592.866 -32.7267 0.295679 723.258 -1.60552 394.031)
(659.577 -78.0552 -0.789728 911.692 -0.948282 470.436)
(522.564 -73.4228 1.56212 956.637 -5.27808 442.954)
(594.22 -32.9108 -1.2332 724.298 0.72411 394.387)
(661.432 -78.281 -0.433909 914.136 -0.265856 471.503)
(492.503 -76.8441 1.4633 918.321 -6.12514 423.663)
(488.021 -6.5597 -0.877583 533.317 0.192486 307.175)
(629.532 -78.6818 -0.462588 877.323 -0.557163 452.584)
(559.047 -36.693 -1.1628 690.318 -0.0968786 375.055)
(494.725 -76.4657 -3.13783 921.018 1.00451 424.238)
(556.982 -36.5802 0.399799 688.685 -2.12774 374.398)
(626.541 -78.6253 -1.01037 873.99 -1.17015 450.979)
(488.962 -77.0365 -3.30201 913.299 0.917628 420.683)
(491.194 -4.82916 -0.871275 536.277 0.68727 309.645)
(549.762 -37.2782 0.203797 681.45 -1.88525 370.885)
(619.66 -78.7274 -1.26728 865.765 -1.01037 447.44)
(486.51 -77.4542 1.26931 910.236 -6.05612 420.215)
(552.266 -37.391 -1.34734 683.477 0.0207551 371.515)
(623.028 -78.7788 -0.66306 869.605 -0.53046 449.111)
(407.136 -86.7853 -12.7084 826.765 19.3315 407.406)
(406.456 -13.989 -19.6851 451.207 19.1937 294.389)
(543.478 -81.5555 -16.0654 784.375 15.9768 439.164)
(461.032 -48.5289 -14.3 605.752 19.1922 345.147)
(413.854 -86.4978 -15.9915 830.532 20.8951 405.137)
(454.319 -48.6295 -14.5405 603.329 21.1072 345.383)
(537.932 -81.3673 -19.5861 779.787 19.6238 443.133)
(400.071 -85.7955 -20.0945 821.043 32.2971 408.765)
(414.426 -11.0633 -21.1799 459.023 21.2999 301.939)
(437.283 -48.3922 -18.712 598.239 31.1729 343.981)
(530.2 -79.0395 -25.5207 775.013 30.7583 455.302)
(393.52 -83.5998 -16.2972 818.798 32.327 411.538)
(444.297 -49.3698 -18.8162 597.869 28.344 343.372)
(533.098 -80.8903 -22.1681 775.741 25.4484 448.335)
(538.49 -69.0997 -1.56689 978.219 -2.54857 450.986)
(534.717 -4.66361 -2.94795 581.985 2.3788 328.576)
(678.807 -77.0565 -3.97786 937.254 1.14413 479.463)
(613.392 -28.918 -2.42913 742.211 1.30528 402.839)
(536.922 -69.7026 -4.26159 975.595 3.49682 449.982)
(539.282 -2.7486 -2.32222 585.867 2.75114 331.797)
(674.395 -76.5128 -1.56715 928.023 -0.654473 477.392)
(610.371 -28.8044 -0.464722 738.885 0.193898 401.708)
(676.357 -77.2061 -1.79349 932.772 0.305541 478.489)
(610.727 -29.5415 -2.31053 739.46 2.99535 401.418)
(536.359 -69.6397 0.803797 973.324 -4.42888 450.255)
(739.138 -44.0289 2.7209 919.229 -1.106 492.888)
(1042.88 -51.3434 -3.07599 1376.23 -2.0885 721.845)
(849.095 -67.7227 4.22331 1065.11 -2.76544 571.2)
(853.759 -68.0172 -9.1804 1074.94 -0.0270213 573.45)
(1046.87 -51.02 -3.67001 1381.81 -0.33084 723.982)
(855.36 -67.8309 2.74109 1077.46 -1.98999 574.256)
(733.233 -43.3457 3.90927 909.339 -1.47982 488.901)
(737.209 -43.8882 -9.7948 916.475 1.96894 491.099)
(617.264 45.8473 -3.76228 606.879 2.15798 362.683)
(593.24 68.8491 0.489612 585.992 0.278781 351.03)
(390.446 134.732 -3.17851 515.982 2.95624 270.965)
(593.006 68.8887 -2.71585 585.719 5.02117 350.715)
(613.35 45.2915 -2.63145 605.305 0.976889 361.995)
(615.22 45.2611 0.0834658 605.629 4.13423 361.853)
(392.16 137.108 1.77325 516.209 2.74048 271.523)
(598.285 70.9615 -0.233507 588.763 1.60724 352.558)
(584.409 38.0344 -1.53031 582.788 -1.59059 349.168)
(587.554 38.1154 1.23093 585.206 0.375933 350.585)
(572.643 62.4292 -1.40552 570.759 1.34008 342.344)
(376.462 118.232 2.40789 506.328 -1.80401 264.671)
(572.285 62.3476 1.58274 570.154 -2.49085 342.057)
(592.073 39.3701 1.24956 589.106 0.586564 352.949)
(589.557 38.6999 -1.66168 586.882 -1.51544 351.74)
(568.524 61.6161 1.42187 566.518 -2.64345 339.804)
(374.602 117.038 -2.55257 504.798 -1.23326 263.639)
(568.228 61.3168 -1.62899 567.24 1.08823 340.228)
(710.532 -44.2841 5.38889 885.288 -1.57424 477.967)
(712.997 -44.0247 -7.16032 886.827 1.92286 478.897)
(832.262 -68.1638 -6.86619 1047.2 0.981285 562.671)
(1017.08 -51.6351 -1.03408 1344.04 -0.604132 707.053)
(829.423 -67.9577 5.2364 1044.47 -1.46585 561.332)
(716.875 -44.0253 -7.20694 891.068 1.76675 481.026)
(714.475 -44.0197 5.40319 889.344 -1.49357 480.103)
(825.501 -68.1447 5.19409 1040.65 -1.53322 559.034)
(1015.15 -51.6159 -1.03153 1341.86 -0.145908 705.944)
(828.071 -68.0115 -6.9615 1042.68 1.45809 560.26)
(511.523 -74.9936 1.62664 942.927 -5.62166 435.729)
(649.7 -78.482 -0.3336 900.673 -0.306475 464.546)
(508.8 -5.60913 -0.471056 554.562 -0.126256 318.12)
(581.065 -34.5056 -1.04328 711.841 0.167028 387.314)
(513.054 -74.6646 -2.97202 944.664 1.75369 436.268)
(647.706 -78.4878 -0.764402 898.525 -1.05902 463.308)
(579.706 -34.4846 0.498045 710.802 -2.04588 386.725)
(509.121 -75.1283 -2.94486 939.618 1.44725 433.544)
(511.333 -4.2909 -0.358163 556.935 0.331311 319.904)
(643.14 -78.4619 -0.744945 893.125 -1.14493 460.506)
(574.698 -34.8993 0.468756 705.973 -2.12754 383.962)
(645.359 -78.5656 -0.26777 895.613 -0.523849 461.846)
(576.486 -35.0204 -1.0635 707.335 0.0310255 384.586)
(507.477 -75.3608 1.63406 937.679 -5.81564 433.104)
(709.084 -44.2794 -7.16023 882.9 1.84847 476.729)
(706.34 -44.3449 5.3938 880.655 -1.67484 475.518)
(1006.43 -51.626 -1.05476 1331.78 -0.671209 700.553)
(816.11 -68.0375 5.25435 1029.98 -1.87143 553.418)
(819.511 -68.1501 -6.88017 1033.56 0.930895 555.145)
(824.162 -68.2188 -6.942 1038.85 1.27197 557.96)
(1009.12 -51.6203 -1.07733 1335.07 -0.837586 702.257)
(821.117 -68.107 5.28029 1035.78 -1.86764 556.443)
(701.598 -44.2935 5.3503 875.272 -1.67292 472.652)
(704.677 -44.2812 -7.18306 877.915 1.67609 474.054)
(582.425 37.453 1.29682 581.134 0.244355 347.993)
(579.773 36.9097 -1.44834 578.75 -1.71958 346.547)
(559.661 59.7427 1.52777 558.645 -2.8814 334.914)
(368.533 112.103 -2.48056 498.886 -1.71155 260.056)
(559.445 59.395 -1.51771 559.533 0.744094 335.397)
(574.193 36.3638 -1.39273 574.286 -1.79566 343.767)
(577.689 36.3432 1.30898 577.011 0.136762 345.322)
(564.261 60.5291 -1.30722 563.49 0.91795 337.867)
(370.617 113.334 2.41815 500.618 -2.26593 261.249)
(563.964 60.4906 1.7056 562.8 -2.77242 337.473)
(528.844 28.5356 -2.58023 535.82 0.640568 323.1)
(535.296 29.0513 0.29323 541.077 1.27152 325.048)
(529.243 53.2183 -1.46682 532.763 1.18937 319.903)
(346.474 94.46 2.23794 476.323 -1.80885 247.412)
(529.002 53.2426 1.42589 531.605 -1.68853 319.597)
(543.954 31.0338 0.802679 548.726 0.535129 328.836)
(539.259 30.2055 -1.80053 544.347 -0.579376 327.061)
(520.752 51.3711 0.699441 524.251 -0.479331 315.966)
(342.854 92.2752 -2.4601 473.444 -0.896323 245.508)
(520.552 51.0224 -2.07885 525.652 1.99966 316.249)
(658.47 -44.5766 2.58543 827.21 -0.327731 453.393)
(665.123 -44.3686 -8.88627 832.935 2.42886 454.337)
(787.305 -67.9601 -7.66358 996.804 1.14061 537.719)
(966.938 -51.6604 -2.27126 1285.06 -0.979619 679.401)
(781.106 -67.7871 3.7851 990.385 -1.47551 535.937)
(674.127 -44.3073 -8.11106 843.192 2.11115 457.918)
(668.428 -44.4347 3.69689 838.274 -0.945211 456.617)
(770.683 -67.8636 2.70675 978.661 -0.897273 532.451)
(961.55 -51.7046 -2.63112 1278.64 -0.626538 677.372)
(777.821 -67.9357 -8.36643 985.923 1.35371 533.865)
(461.557 -80.6281 -1.42961 878.106 -3.7184 409.327)
(597.04 -79.48 -2.9424 838.896 1.06276 438.36)
(453.207 -8.62494 -4.29737 497.57 3.28789 294.943)
(524.946 -40.6753 -3.36688 656.151 2.21941 359.686)
(466.033 -79.7382 -5.43753 882.918 2.38535 409.36)
(591.45 -79.5217 -4.22643 832.868 1.1058 436.915)
(520.645 -40.7048 -2.43996 652.948 1.04695 359.274)
(455.075 -81.2044 -7.1326 869.929 4.2174 406.094)
(457.625 -6.01157 -4.73195 501.666 4.0957 299.25)
(578.569 -79.9977 -6.39767 818.856 3.19082 434.591)
(506.134 -42.481 -4.40707 640.124 3.54606 355.066)
(584.984 -79.8907 -4.75675 825.403 2.60496 435.503)
(511.657 -42.2974 -5.07571 643.991 4.2366 355.376)
(449.616 -82.29 -3.29106 864.664 -1.20396 406.51)
(654.738 -44.4822 -10.0417 821.157 3.12667 451.08)
(646.814 -44.7003 0.921927 814.358 0.565781 450.765)
(936.106 -51.7632 -5.14787 1249.19 0.264164 671.686)
(744.627 -67.8978 -1.21151 950.35 1.48537 528.622)
(754.15 -68.0805 -11.1682 959.445 2.82092 527.818)
(766.944 -68.0522 -9.47871 973.623 1.96591 530.35)
(943.337 -51.7797 -4.36007 1257.53 -0.350072 672.565)
(758.453 -67.8663 1.14083 965.108 -0.157035 529.711)
(633.627 -44.9057 -1.46812 800.193 2.13975 449.454)
(642.512 -44.5996 -11.8377 807.62 4.11188 448.51)
(523.92 27.1196 -0.719543 531.82 2.50954 320.687)
(515.842 26.0734 -3.74805 525.571 2.48024 318.501)
(497.043 45.7368 -1.32896 504.433 4.14868 306.611)
(327.217 77.8428 -3.33648 460.289 2.33083 237.957)
(496.941 45.339 -3.89134 506.224 5.56662 306.73)
(499.607 23.4768 -5.34217 513.636 5.26326 313.286)
(509.902 24.4263 -2.15634 520.771 4.48137 315.675)
(510.106 48.583 -2.6645 516.838 3.4036 311.861)
(333.051 82.2428 1.31465 464.378 0.81566 240.803)
(509.826 48.7302 -0.0295772 515.189 1.39409 311.664)
(343.826 1.11678 2.13222 439.6 37.8289 275.201)
(349.616 -13.0787 -23.5629 451.478 33.825 266.178)
(402.315 22.3141 -12.2507 441.673 27.8731 262.707)
(253.523 17.7581 1.81265 396.223 20.0671 196.541)
(393.106 19.4661 -9.94058 432.54 25.1739 255.147)
(404.465 2.3524 -20.2893 463.947 30.6471 279.209)
(366.35 -8.87792 -22.716 456.825 31.058 271.174)
(358.544 14.7168 4.7004 401.726 28.4129 242.601)
(242.985 27.0817 1.78618 374.285 20.2123 187.259)
(366.409 12.7129 -8.7605 412.151 28.1418 243.434)
(612.509 -22.1434 -18.0909 762.145 10.1805 557.375)
(615.519 -36.4533 -40.127 761.924 29.493 535.455)
(701.274 -61.9079 -39.6281 902.538 27.9121 585.306)
(865.146 -38.2531 -41.5318 1149.15 13.5641 769.41)
(703.77 -53.741 -29.3325 900.74 25.1444 606.689)
(601.224 -44.573 -40.9895 757.314 28.3326 501.228)
(611.91 -40.1468 -30.2333 764.884 26.8359 526.727)
(685.369 -29.1578 -13.4408 879.153 3.76997 618.236)
(856.086 -30.8242 -42.1371 1126.54 6.33236 775.369)
(703.12 -48.5141 -37.6319 897.198 26.0531 610.896)
(343.435 18.5895 5.61513 717.543 40.8835 462.432)
(496.657 -21.9034 -8.04485 733.45 10.7088 515.143)
(396.902 13.1314 6.18952 441.616 17.4477 394.595)
(378.201 -8.90599 -4.65128 541.589 37.7063 360.409)
(351.743 -11.7472 -6.84678 745.517 43.8944 443.562)
(488.245 -1.10536 14.2875 720.387 5.23881 550.742)
(371.975 14.7617 8.20558 524.298 40.9492 377.826)
(261.831 61.3072 -5.95504 810.816 16.6458 510.29)
(372.778 11.991 2.29983 1024.38 -48.4711 655.575)
(499.109 -28.4434 17.7364 877.981 -21.4689 637.352)
(204.706 140.143 -20.2529 993.796 10.9119 676.253)
(232.446 80.6956 -1.17949 696.266 5.75459 395.35)
(182.691 81.0438 1.128 377.797 42.1877 225.089)
(306.039 79.0454 11.3373 458.131 10.4895 298.415)
(199.104 115.427 -2.00505 490.661 67.7085 294.336)
(277.128 55.3633 -5.21794 731.192 20.2988 459.908)
(541.091 65.721 21.415 594.971 17.4149 483.76)
(533.201 -9.19091 15.409 788.315 -5.29604 603.592)
(357.95 54.1855 15.0961 470.701 21.8312 334.077)
(593.942 -15.9008 -20.9827 744.242 6.03837 552.693)
(562.585 0.138293 21.325 718.869 -4.09872 574.822)
(498.69 -9.92536 8.20856 1002.49 -38.0489 694.718)
(594.394 -22.8379 24.955 830.41 -11.51 629.048)
(664.038 -23.8037 -13.7036 856.918 -3.24873 607.992)
(712.551 4.08645 15.758 984.744 -45.2797 684.005)
(605.656 -15.4864 39.1885 820.877 -29.4692 621.976)
(583.225 -3.69028 5.31208 730.654 4.64121 596.897)
(354.473 6.34287 -5.76549 432.753 36.599 284.089)
(367.649 37.8844 5.62555 388.905 21.6387 293.616)
(167.758 85.1128 1.79328 318.234 37.0616 200.342)
(338.129 91.48 17.9177 382.22 6.64758 269.809)
(389.759 56.7479 16.6928 396.413 23.9536 299.143)
(345.877 25.0363 4.56545 385.405 27.2249 248.051)
(202.371 75.1557 6.54724 301.589 30.5643 186.832)
(341.195 52.8018 10.7407 360.162 11.5505 255.238)
(531.479 -70.5885 -4.06397 965.882 3.46657 447.32)
(536.398 -2.20347 -1.48939 582.251 1.20548 332.95)
(667.158 -77.3064 -2.03195 919.982 0.321811 474.322)
(601.518 -30.9997 -0.732547 731.047 -0.849989 398.362)
(529.598 -71.6731 0.421737 964.741 -3.97594 446.95)
(668.848 -76.5673 -1.66022 920.579 1.12371 474.866)
(603.567 -30.2047 -2.26968 732.398 1.50806 398.883)
(533.828 -69.8529 0.567142 968.413 -4.05661 448.993)
(533.836 -3.50046 -1.64634 579.638 0.842554 330.962)
(672.424 -76.0101 -1.07259 923.924 0.257502 476.316)
(608.271 -28.8266 -1.75402 736.409 1.96374 400.704)
(535.121 -69.4354 -3.48771 970.249 2.9471 449.184)
(670.683 -75.959 -1.89036 921.763 0.210876 475.542)
(607.099 -28.9549 -0.683666 735.532 -0.51239 400.599)
(601.106 41.3165 0.782832 596.084 1.3053 357.107)
(598.602 40.4317 -1.9585 593.991 -0.916742 355.951)
(576.721 63.488 1.29901 573.548 -2.22633 344.051)
(380.056 121.831 -2.65042 509.772 -0.495233 266.612)
(576.475 63.2387 -1.76904 574.107 1.73316 344.295)
(593.947 39.9248 -1.7031 590.608 -1.25256 353.964)
(596.784 39.926 1.15468 592.56 0.996437 354.974)
(580.675 64.5551 -1.7747 577.281 2.20855 346.185)
(381.813 123.136 2.33341 510.993 -1.00138 267.511)
(580.532 64.384 1.30253 576.901 -1.83144 346.008)
(724.803 -44.1613 -7.73405 900.536 2.42226 485.587)
(722.508 -44.3717 5.11435 898.866 -1.58772 484.98)
(833.767 -68.1698 5.30091 1049.33 -1.97342 563.917)
(1024.96 -51.746 -1.20732 1353.84 -0.884941 712.208)
(836.861 -68.3838 -7.14612 1053.39 0.796974 565.482)
(718.394 -44.1315 5.33651 893.678 -1.66335 482.388)
(721.049 -44.2814 -7.49973 896.516 1.7165 483.672)
(840.732 -68.328 -7.68556 1057.58 2.17138 567.364)
(1027.57 -51.7219 -1.35505 1357.18 -0.720951 713.845)
(838.218 -68.3509 5.03169 1055.3 -1.8671 566.492)
(726.021 -44.0164 4.78762 902.418 -0.984599 486.355)
(727.671 -43.2301 -7.89393 901.449 2.83686 485.833)
(847.013 -67.7434 -7.87179 1061.72 0.460549 569.418)
(1030.78 -51.8833 -1.86012 1358.92 -0.0572199 713.913)
(844.259 -67.5711 4.28214 1058.74 -0.26477 568.431)
(731.252 -43.0863 -8.47455 905.639 1.90585 486.952)
(729.157 -43.0745 4.51456 904.267 -0.629159 486.706)
(841.585 -68.1802 4.42943 1058.47 -0.46476 567.759)
(1030.03 -51.8127 -1.67645 1358.53 1.02483 714.012)
(843.107 -67.6715 -7.90198 1057.36 2.88985 567.697)
(603.323 42.0577 -2.41059 597.911 -0.589161 358.347)
(606.931 42.8657 0.459512 600.618 1.7131 359.69)
(588.866 67.3896 -2.08519 583.604 3.62507 349.711)
(387.566 129.686 2.20041 515.55 0.290381 270.337)
(588.553 67.1191 0.871416 583.487 -0.779119 349.825)
(611.738 44.8048 0.640656 604.339 2.73568 361.477)
(609.323 43.6964 -2.69818 602.581 -0.169344 360.914)
(584.903 65.9162 0.788923 580.211 -1.38319 347.973)
(385.737 127.97 -2.89734 514.381 0.667486 269.516)
(584.428 65.782 -2.31732 580.661 2.72764 348.194)
(499.953 -75.9608 -3.08465 927.801 1.15081 427.56)
(502.177 -4.53101 -0.491417 547.591 0.374572 314.963)
(632.618 -78.5425 -0.907289 881.089 -1.13234 454.36)
(563.311 -35.9758 0.40981 694.945 -2.15245 377.769)
(497.943 -76.2885 1.52095 925.474 -6.00238 427.058)
(635.275 -78.5799 -0.400618 883.989 -0.548018 455.859)
(565.452 -36.0878 -1.16654 696.588 -0.097629 378.46)
(502.913 -75.7917 1.59523 931.826 -5.94762 430.147)
(499.479 -5.992 -0.557301 545.053 -0.099491 312.971)
(640.573 -78.5141 -0.277435 890.018 -0.557662 458.944)
(571.134 -35.4892 -1.03657 702.154 -0.096198 381.639)
(504.789 -75.4831 -2.96853 933.993 1.25546 430.711)
(638.113 -78.4461 -0.806906 887.386 -1.16762 457.516)
(569.399 -35.4151 0.492311 700.83 -2.2126 380.987)
(559.072 33.6475 1.1319 561.594 0.0420711 335.907)
(555.106 33.0822 -1.39705 558.045 -1.60997 334.101)
(536.512 55.0863 1.4498 537.886 -2.37956 322.861)
(352.718 100.028 -2.36073 483.099 -1.9756 250.89)
(536.3 54.7253 -1.57309 539.061 0.779401 323.309)
(547.357 32.0425 -1.46308 551.537 -1.25122 330.632)
(552.077 32.2453 0.999268 555.521 0.205368 332.434)
(543.077 56.2304 -1.29816 544.831 0.620252 326.578)
(355.661 101.685 2.33174 485.579 -2.62354 252.517)
(542.766 56.299 1.68731 543.739 -2.71868 326.1)
(688.534 -44.2583 -7.43896 859.697 1.84008 464.901)
(684.289 -44.3176 4.80897 856.082 -1.47492 463.436)
(790.115 -67.835 4.41782 1000.68 -1.66962 539.698)
(980.501 -51.5919 -1.58247 1301.09 -0.768431 685.668)
(795.35 -67.9029 -7.31272 1006.1 0.964058 541.601)
(676.93 -44.3749 4.4016 847.811 -1.27815 460.016)
(681.788 -44.2495 -7.71839 851.995 1.86406 461.47)
(802.489 -67.9822 -7.09905 1014.31 1.03788 545.301)
(984.537 -51.5575 -1.47389 1305.97 -1.01719 687.754)
(797.828 -67.8052 4.79003 1009.51 -1.83205 543.416)
(690.689 -44.3114 5.06357 863.251 -1.55618 466.657)
(694.431 -44.1861 -7.29958 866.294 1.76451 468.081)
(814.342 -68.0686 -6.8593 1027.56 0.987061 551.986)
(997.737 -51.5329 -1.15222 1321.49 -0.891199 695.155)
(810.561 -67.8587 5.14074 1023.81 -1.79491 550.232)
(699.803 -44.2187 -7.17302 872.297 1.74 471.104)
(696.437 -44.2302 5.23993 869.59 -1.60283 469.739)
(804.61 -67.8976 4.97809 1017.22 -1.76972 546.933)
(994.649 -51.5332 -1.19951 1317.83 -0.592632 693.381)
(808.622 -67.9205 -6.99055 1021.18 1.04113 548.722)
(561.851 34.4325 -1.35719 563.905 -1.73729 337.481)
(565.978 34.4544 1.20176 567.206 0.000167809 339.26)
(554.645 58.5423 -1.26228 555.065 0.621515 332.667)
(363.823 107.986 2.37922 493.797 -2.61672 257.253)
(554.281 58.5676 1.73779 554.129 -2.91681 332.194)
(571.861 35.7021 1.26699 572.338 0.00194883 342.41)