/*--------------------------------*- C++ -*----------------------------------*\
| =========                 |                                                 |
| \\      /  F ield         | OpenFOAM: The Open Source CFD Toolbox           |
|  \\    /   O peration     | Version:  2012                                  |
|   \\  /    A nd           | Website:  www.openfoam.com                      |
|    \\/     M anipulation  |                                                 |
\*---------------------------------------------------------------------------*/
FoamFile
{
    version     2.0;
    format      ascii;
    class       volVectorField;
    location    "0.106/solid";
    object      sigmaMinDir;
}
// * * * * * * * * * * * * * * * * * * * * * * * * * * * * * * * * * * * * * //

dimensions      [1 -1 -2 0 0 0 0];


internalField   nonuniform List<vector> 
3125
(
(0.0647346 0.997893 -0.0043463)
(0.0533309 0.998552 -0.00705532)
(0.0402608 0.995316 0.0878962)
(0.0659777 0.997813 -0.00398808)
(0.0553245 0.998444 -0.00703013)
(0.0302926 0.997881 0.0575894)
(0.0743365 0.997231 -0.00187215)
(0.0610614 0.998119 -0.00548139)
(0.043681 0.999045 -0.00133738)
(0.0717552 0.997419 -0.00255431)
(0.0598268 0.998191 -0.00595789)
(0.039025 0.999225 0.00519797)
(-0.115016 0.993364 -5.43309e-05)
(0.153743 0.9881 -0.00466626)
(-0.139039 0.990284 -0.00254136)
(0.0635191 0.99797 -0.00453367)
(-0.0782316 0.996933 0.00220901)
(-0.139359 0.99024 -0.00178987)
(0.150291 0.988628 -0.00512303)
(-0.170497 0.985292 0.0114123)
(0.120877 0.992642 -0.0071591)
(-0.143398 0.989658 -0.003619)
(0.0508409 0.998686 -0.00646928)
(-0.108876 0.994041 0.00528777)
(-0.145082 0.989415 -0.00295879)
(0.113554 0.993514 -0.00591503)
(0.00577344 0.979957 0.199125)
(0.000257685 0.995421 0.0955866)
(-0.129293 0.990148 0.053763)
(0.0782832 0.986432 0.144303)
(-0.295706 0.931342 0.212511)
(-0.0614101 0.998088 -0.00702354)
(0.0322965 0.989578 0.140332)
(-0.0500736 0.998741 -0.00303012)
(-0.0491075 0.998793 -0.00102305)
(-0.0710348 0.997465 0.00417312)
(0.0675246 0.997712 -0.00325801)
(0.157037 0.987585 -0.00395536)
(-0.138773 0.99032 -0.00282052)
(-0.104654 0.994509 0.000596811)
(-0.137711 0.990472 -0.000449721)
(0.160997 0.98695 -0.00315125)
(-0.0502554 0.998732 -0.00292048)
(-0.0505556 0.998719 -0.00202686)
(-0.053618 0.998554 -0.00389173)
(-0.0525458 0.998612 -0.00357566)
(-0.100994 0.994884 0.00244765)
(0.0570066 0.998351 -0.00675828)
(0.126549 0.991931 -0.00756137)
(-0.142873 0.989735 -0.0035554)
(-0.147846 0.989005 0.0031542)
(-0.141655 0.989911 -0.00324296)
(0.131399 0.991301 -0.00754823)
(-0.0539966 0.998533 -0.00412031)
(-0.0554051 0.998457 -0.00368827)
(-0.0467691 0.9982 0.037539)
(-0.055647 0.998341 0.0147593)
(-0.221379 0.969762 0.102732)
(0.0303867 0.998975 0.0335414)
(0.0113976 0.997391 0.0712875)
(-0.137328 0.989364 0.0479512)
(-0.335225 0.919688 0.204444)
(-0.146972 0.988928 0.0204887)
(0.0291864 0.998494 0.0464634)
(-0.0402907 0.998339 0.0411768)
(0.0150802 0.99915 -0.0383643)
(-0.13645 0.990638 -0.00426701)
(0.176967 0.984216 0.000802599)
(-0.0748217 0.997174 0.00677595)
(-0.151139 0.988509 -0.00279949)
(0.53342 0.845825 0.00656193)
(0.510152 0.860062 -0.00612934)
(0.504504 0.863406 -0.00229422)
(-0.152562 0.988293 -0.000907339)
(-0.152494 0.988304 -0.000274705)
(-0.0888313 0.996045 0.00173587)
(0.0622791 0.998046 -0.00497576)
(-0.140332 0.9901 -0.00291501)
(0.143397 0.989645 -0.00625873)
(-0.139576 0.990209 -0.00210294)
(-0.122549 0.992462 -0.000299012)
(0.146812 0.989148 -0.00567599)
(-0.153309 0.988178 -0.00101736)
(-0.152722 0.988269 -0.000448617)
(0.496063 0.868279 -0.00370109)
(0.502234 0.864698 -0.00763832)
(0.468438 0.883457 -0.00833522)
(0.452813 0.891605 -2.88033e-05)
(-0.156113 0.987739 -0.000811305)
(-0.157487 0.987521 -0.000102788)
(-0.122725 0.99234 0.0141315)
(0.0476609 0.998852 -0.00486627)
(-0.147572 0.989051 0.000809056)
(0.0895288 0.995982 0.00191325)
(-0.14577 0.989315 -0.0025315)
(-0.20458 0.978273 0.0336121)
(0.103376 0.994637 -0.00330469)
(-0.159211 0.98724 0.00299196)
(-0.158233 0.987402 0.000403488)
(0.400995 0.915987 0.0130954)
(0.443269 0.896383 -0.00313139)
(0.0976758 0.990903 0.0925812)
(0.303878 0.943689 0.1308)
(-0.148097 0.98767 0.0507386)
(-0.0727032 0.997284 -0.011782)
(0.0170849 0.982379 0.186115)
(0.193436 0.947035 0.256333)
(-0.0125619 0.997739 -0.0660255)
(0.134872 0.975158 0.175718)
(-0.0164018 0.995886 -0.089119)
(0.369924 0.919211 0.134935)
(-0.0481062 0.998832 -0.00443504)
(-0.0490128 0.998792 -0.00361862)
(-0.0490758 0.998795 -0.000231022)
(-0.0982095 0.995162 0.00259925)
(0.0695259 0.997577 -0.002602)
(-0.137621 0.99048 -0.00302557)
(0.172129 0.985074 -0.00106659)
(-0.0396568 0.999186 0.00744544)
(-0.137684 0.990476 0.000491732)
(0.166484 0.986042 -0.00227267)
(0.512349 0.858777 -0.000618785)
(0.518948 0.854798 -0.00375804)
(-0.152317 0.988331 -0.00129269)
(-0.151417 0.98847 0.000643713)
(-0.152569 0.988292 -0.00140936)
(-0.151605 0.98844 0.00145667)
(0.530014 0.847989 9.2846e-05)
(0.521764 0.853088 0.00190707)
(-0.0514445 0.998671 -0.00310889)
(-0.0507304 0.99871 -0.00239192)
(-0.0516204 0.998661 -0.00329801)
(-0.0522766 0.998627 -0.00326967)
(-0.133551 0.991042 0.000540376)
(0.058491 0.998268 -0.00634045)
(-0.140577 0.990065 -0.00297696)
(0.139766 0.990161 -0.00683865)
(-0.0945127 0.995523 0.00150622)
(-0.141294 0.989963 -0.00304462)
(0.135779 0.990713 -0.00722383)
(0.472715 0.881207 -0.00395118)
(0.482379 0.875909 -0.00967652)
(-0.155511 0.987834 -0.000935031)
(-0.15444 0.988002 -0.00086573)
(-0.15354 0.988142 -0.000921318)
(-0.154015 0.988068 -0.00084777)
(0.493445 0.86973 -0.00903496)
(0.485763 0.874079 -0.00461195)
(-0.144339 0.989527 -0.00120387)
(-0.0573316 0.998355 -0.000943942)
(-0.0558815 0.998431 -0.00353829)
(-0.145469 0.989363 0.000305617)
(-0.144684 0.989477 -0.00107137)
(-0.0576322 0.998338 0.000477444)
(-0.0568155 0.998336 0.00986275)
(-0.134655 0.990637 0.0225248)
(-0.143339 0.989629 0.00936125)
(-0.145503 0.989357 0.00117244)
(-0.144362 0.989504 0.00639174)
(-0.265324 0.959647 0.0931699)
(0.0341943 0.999281 0.0163662)
(-0.148063 0.988974 0.00280623)
(0.0717409 0.997362 0.0110336)
(-0.151622 0.987708 0.0380026)
(-0.147879 0.988901 0.0143819)
(0.050754 0.99838 0.0257021)
(0.109932 0.989765 0.0909986)
(0.234906 0.970426 0.0556101)
(-0.152819 0.987329 0.0427564)
(-0.158592 0.987173 0.018375)
(-0.159653 0.987162 0.00463826)
(-0.158886 0.987207 0.0133102)
(0.378265 0.925585 0.0144533)
(0.280171 0.958777 0.0474495)
(-0.12822 0.991412 0.0257167)
(-0.0661466 0.996417 -0.0527117)
(0.258695 0.912499 0.316895)
(0.0548428 0.991466 -0.118265)
(-0.0217089 0.990851 -0.133205)
(0.160589 0.986445 0.033738)
(0.407201 0.811734 0.41866)
(0.219972 0.97531 0.0195681)
(0.318987 0.904901 0.281781)
(0.410259 0.771097 0.486926)
(0.249092 0.968033 0.0294191)
(-0.164224 0.986412 0.00471484)
(-0.0828651 0.996559 0.00183896)
(-0.274969 0.961452 -0.00114473)
(-0.236612 0.971588 -0.0056738)
(-0.236872 0.971539 0.00178047)
(-0.274669 0.961539 -2.76635e-05)
(-0.165021 0.986234 -0.0105134)
(-0.163465 0.986494 -0.0104253)
(-0.108518 0.994095 3.75093e-05)
(-0.233351 0.97239 0.0019649)
(-0.273999 0.96173 -0.000421692)
(-0.162824 0.986645 0.00456846)
(-0.232884 0.972489 -0.00549111)
(-0.273937 0.961747 -0.00118211)
(-0.178429 0.983943 0.00438005)
(-0.116071 0.993204 0.00857141)
(-0.284853 0.958569 0.00183373)
(-0.266179 0.963923 -0.000476457)
(-0.267595 0.963518 0.00500655)
(-0.284351 0.958719 0.00150172)
(-0.179993 0.983617 -0.0100555)
(-0.17694 0.984151 -0.0117522)
(-0.158743 0.987301 0.00612196)
(-0.261109 0.965307 0.00219177)
(-0.282173 0.959363 -4.7978e-05)
(-0.175547 0.984466 0.00321672)
(-0.260149 0.965559 -0.00427719)
(-0.282613 0.959234 -0.000447578)
(-0.131138 0.982708 0.13072)
(-0.154607 0.961562 0.226926)
(-0.166887 0.981837 0.0902531)
(-0.0878414 0.98436 0.152709)
(-0.16634 0.970571 0.174138)
(-0.218468 0.967635 0.12631)
(-0.0893777 0.990581 0.10373)
(-0.157197 0.981661 0.107845)
(-0.272422 0.93273 0.236221)
(-0.260008 0.952936 0.155915)
(-0.27629 0.953225 0.122577)
(-0.178708 0.977222 0.114459)
(-0.212479 0.964455 0.157093)
(-0.253072 0.958558 0.130847)
(-0.161308 0.98686 -0.00933156)
(-0.107276 0.994228 0.00150146)
(-0.272502 0.962154 0.00179395)
(-0.227926 0.973669 0.00436908)
(-0.160103 0.987078 0.00661227)
(-0.229004 0.973418 -0.00371203)
(-0.27308 0.961991 -0.00045432)
(-0.161976 0.986782 0.00496815)
(-0.0794753 0.996832 0.0031326)
(-0.230516 0.973057 -0.00483821)
(-0.273668 0.961823 -0.00150164)
(-0.16239 0.986672 -0.0103864)
(-0.232108 0.972686 0.0029327)
(-0.273792 0.961789 -0.000294454)
(-0.17232 0.984963 -0.0123681)
(-0.140519 0.990077 0.00138235)
(-0.279142 0.96025 -0.000906785)
(-0.252134 0.967692 0.000613971)
(-0.171391 0.985199 0.00299448)
(-0.250807 0.968014 -0.00667106)
(-0.27928 0.960208 -0.00188708)
(-0.173285 0.984867 0.00291586)
(-0.105382 0.994426 0.00341302)
(-0.254727 0.966995 -0.00585195)
(-0.280748 0.95978 -0.00139105)
(-0.174342 0.984609 -0.0122748)
(-0.256134 0.966641 0.0011345)
(-0.280479 0.95986 -0.000728711)
(-0.19553 0.979476 0.0489423)
(-0.306686 0.940462 0.146547)
(-0.294678 0.954081 0.0538035)
(-0.293709 0.952449 0.0810941)
(-0.196554 0.97905 0.0531669)
(-0.287734 0.953609 0.0885421)
(-0.294024 0.95342 0.0673815)
(-0.194046 0.97755 0.0821054)
(-0.270225 0.94967 0.158445)
(-0.271409 0.953928 0.127901)
(-0.286593 0.952225 0.105512)
(-0.187322 0.978915 0.0814613)
(-0.285978 0.950882 0.118489)
(-0.292618 0.952296 0.0866419)
(-0.151648 0.988426 -0.00424186)
(-0.0978358 0.995148 0.0104599)
(-0.26567 0.964053 0.00450868)
(-0.20951 0.977793 0.00516593)
(-0.153297 0.98815 0.00765897)
(-0.0592133 0.998181 0.0113412)
(-0.268115 0.963387 -0.000445691)
(-0.209152 0.977883 0.00083535)
(-0.267719 0.963496 0.00162809)
(-0.213583 0.976874 0.00992528)
(-0.153666 0.988087 -0.00842729)
(-0.225479 0.97424 -0.00387373)
(-0.14883 0.98886 -0.00242771)
(-0.276467 0.960994 -0.0074505)
(-0.272374 0.96218 0.00475186)
(-0.147323 0.989088 0.000320768)
(-0.270784 0.962627 -0.00508886)
(-0.226823 0.973921 -0.00540701)
(-0.226113 0.974055 0.00948747)
(0.745964 0.66597 -0.00463355)
(0.725453 0.68827 0.0017789)
(0.537421 0.843311 0.00237188)
(0.7254 0.688311 0.0048305)
(0.737794 0.675012 -0.00437848)
(0.743177 0.669026 0.00961514)
(0.542116 0.840246 0.00979651)
(0.73037 0.683045 0.00297118)
(0.714574 0.699513 -0.00809626)
(0.717925 0.696108 0.00418135)
(0.712423 0.70175 -0.000208781)
(0.509216 0.860638 -0.00104765)
(0.713085 0.701074 -0.00211867)
(0.72031 0.693637 0.00471739)
(0.719194 0.694762 -0.00816776)
(0.712787 0.701375 -0.00290507)
(0.506936 0.86195 -0.00760314)
(0.709963 0.704238 -0.00135083)
(-0.232552 0.972561 -0.00666212)
(-0.232552 0.972547 0.00844791)
(-0.278996 0.960275 0.00566667)
(-0.152368 0.988324 -0.000681479)
(-0.278201 0.960506 -0.00569725)
(-0.232138 0.97265 0.00806401)
(-0.23125 0.972873 -0.00643901)
(-0.278695 0.960362 -0.00582376)
(-0.152427 0.988315 2.02352e-05)
(-0.278866 0.960307 0.00665403)
(-0.166526 0.985974 -0.0111817)
(-0.275828 0.961207 -0.000441666)
(-0.119909 0.992785 -0.000290406)
(-0.240412 0.97067 0.0012398)
(-0.165799 0.98615 0.00426553)
(-0.275971 0.961164 -0.00176283)
(-0.23979 0.970804 -0.00633049)
(-0.167138 0.985927 0.00369897)
(-0.0928839 0.995676 0.00152948)
(-0.276619 0.960978 -0.00196436)
(-0.241909 0.970277 -0.00658457)
(-0.276677 0.960962 -0.000940676)
(-0.243276 0.969957 0.000871156)
(-0.167702 0.985769 -0.0116084)
(-0.233697 0.972274 0.00832604)
(-0.233324 0.972374 -0.00694357)
(-0.153042 0.988219 -0.000785135)
(-0.279652 0.960079 -0.00657963)
(-0.279856 0.960025 0.00565763)
(-0.279438 0.960143 0.0063127)
(-0.152765 0.988262 -0.00103493)
(-0.279075 0.960247 -0.00654522)
(-0.23382 0.972255 -0.00696255)
(-0.234354 0.972119 0.00799117)
(0.713198 0.700951 0.00404119)
(0.711946 0.702185 -0.00830198)
(0.710041 0.704153 -0.00332468)
(0.498706 0.866725 -0.00896821)
(0.706863 0.707348 -0.00192769)
(0.706605 0.707558 -0.00844893)
(0.710422 0.703766 0.00382365)
(0.709363 0.704842 -0.00097816)
(0.501215 0.865319 -0.00245472)
(0.710452 0.703741 -0.00258137)
(0.662975 0.748624 -0.00517292)
(0.671148 0.741309 0.00470163)
(0.695328 0.718692 -0.000624668)
(0.465579 0.885004 -0.00200604)
(0.6984 0.715707 -0.000805611)
(0.679471 0.733693 0.0037727)
(0.676845 0.736095 -0.00671311)
(0.694972 0.719036 0.000548338)
(0.459589 0.888104 -0.00698839)
(0.689233 0.72454 6.20936e-05)
(-0.240678 0.970602 -0.00244329)
(-0.241274 0.970388 0.011551)
(-0.283983 0.958805 0.00682346)
(-0.156366 0.987699 -0.000997686)
(-0.283539 0.958946 -0.00524375)
(-0.239416 0.970865 0.010074)
(-0.238781 0.971063 -0.0045865)
(-0.285121 0.958485 -0.00349865)
(-0.156965 0.987604 -0.000337621)
(-0.285414 0.958372 0.00780277)
(-0.183594 0.982977 -0.00701154)
(-0.286683 0.958015 0.00438739)
(-0.185794 0.982391 0.0197158)
(-0.274108 0.961648 0.00992326)
(-0.181739 0.983323 0.00682714)
(-0.287226 0.957848 0.00541471)
(-0.272389 0.962172 0.0054782)
(-0.185636 0.982552 0.0114098)
(-0.134898 0.99059 0.023093)
(-0.289701 0.957042 0.012012)
(-0.279083 0.960141 0.0155806)
(-0.289202 0.957222 0.00934445)
(-0.280938 0.959553 0.0182384)
(-0.187629 0.982239 -0.00119246)
(-0.243644 0.969758 0.0143686)
(-0.24263 0.970119 0.000867692)
(-0.159025 0.987273 0.00184256)
(-0.287607 0.95774 0.00400575)
(-0.289128 0.957201 0.0131111)
(-0.287391 0.957762 0.00993497)
(-0.158533 0.987353 0.000582481)
(-0.286505 0.958078 -0.00104743)
(-0.244768 0.969558 0.00672198)
(-0.246103 0.969065 0.0186172)
(0.653971 0.756496 0.00608656)
(0.639116 0.769107 -0.00213294)
(0.67774 0.735247 0.0089555)
(0.418432 0.908244 0.00279188)
(0.669777 0.742535 0.00635126)
(0.596791 0.802383 0.00475111)
(0.624937 0.780617 0.00957098)
(0.682143 0.731214 0.00268141)
(0.433638 0.901073 0.00495919)
(0.687371 0.726296 0.00397432)
(0.0148658 0.976696 0.214111)
(-0.15487 0.969888 0.18797)
(0.371676 0.921763 0.110499)
(0.120653 0.987814 0.0983145)
(0.34506 0.932472 0.10691)
(-0.0146642 0.986846 0.160997)
(-0.12966 0.976354 0.172977)
(0.279667 0.945423 0.167217)
(0.191813 0.975991 0.103194)
(0.209291 0.967119 0.144491)
(-0.149446 0.986881 0.0610795)
(-0.25544 0.953639 0.159134)
(-0.28418 0.95225 0.111631)
(-0.13759 0.989247 0.0495999)
(-0.2555 0.961431 0.101831)
(-0.277619 0.95041 0.140173)
(-0.253811 0.958173 0.132229)
(-0.146941 0.988912 0.0214944)
(-0.116408 0.992701 0.0315256)
(-0.243551 0.963215 0.113579)
(0.0503596 0.986667 0.154764)
(-0.0927135 0.994356 0.0515798)
(0.256681 0.915377 0.310162)
(-0.0561734 0.978911 0.196412)
(-0.0314459 0.989448 0.141433)
(-0.00287428 0.999528 0.0305949)
(0.0989183 0.962315 0.25331)
(0.1088 0.992727 0.05153)
(0.0176216 0.991621 -0.127972)
(-0.0779872 0.992637 -0.0926788)
(0.169235 0.985343 0.0214259)
(0.166548 0.98588 0.0174063)
(0.322532 0.923748 0.206548)
(0.392481 0.916908 0.0723719)
(0.304245 0.920678 0.244514)
(0.117895 0.990571 0.0697891)
(0.557069 0.814209 0.163514)
(-0.0378211 0.998782 -0.0317015)
(0.374172 0.913892 0.15747)
(-0.109573 0.993054 0.0428571)
(-0.00305253 0.999579 -0.0288703)
(-0.0213218 0.992383 -0.121334)
(-0.1019 0.992448 -0.0682935)
(-0.120258 0.992723 -0.00626262)
(0.00628152 0.989353 -0.145399)
(-0.0969053 0.982417 -0.159582)
(-0.0237573 0.999151 0.0336645)
(0.0560353 0.972955 0.224097)
(0.5827 0.796569 0.161055)
(0.390977 0.896716 0.207455)
(0.619987 0.779702 0.0876382)
(0.669848 0.719834 0.182049)
(0.412243 0.895003 0.17037)
(0.458166 0.869628 0.18393)
(0.6387 0.762404 0.103934)
(-0.156519 0.987645 0.00766331)
(-0.0480473 0.998832 0.00511452)
(-0.27101 0.962575 0.00184082)
(-0.221351 0.975192 -0.00196263)
(-0.158435 0.987341 -0.00754253)
(-0.269884 0.962887 0.00327514)
(-0.217552 0.976032 0.00577706)
(-0.154886 0.987902 -0.00772125)
(-0.0758982 0.997108 0.00387664)
(-0.268512 0.963276 0.00114346)
(-0.209882 0.977704 0.00669215)
(-0.153891 0.988067 0.00648368)
(-0.26873 0.963214 0.00152138)
(-0.210213 0.977655 -0.00104709)
(0.728211 0.685334 0.0051774)
(0.726982 0.686618 -0.00731063)
(0.715852 0.698249 -0.00212033)
(0.514848 0.857263 -0.00565579)
(0.713698 0.700454 -0.000165052)
(0.721727 0.692137 -0.00753216)
(0.725535 0.688164 0.00544705)
(0.716323 0.697768 0.000907264)
(0.517446 0.855715 0.00110246)
(0.716987 0.697086 -0.00115366)
(-0.231087 0.972884 0.00973954)
(-0.231139 0.9729 -0.00642453)
(-0.278367 0.960452 -0.00667276)
(-0.151842 0.988404 -0.00106431)
(-0.2781 0.960537 0.00542209)
(-0.231286 0.972862 -0.00676272)
(-0.231856 0.972717 0.00805011)
(-0.277676 0.960639 0.0082748)
(-0.151465 0.988462 -0.000779092)
(-0.277407 0.960732 -0.00627189)
(-0.229491 0.973299 -0.00482365)
(-0.229157 0.97333 0.0107324)
(-0.277902 0.960596 0.00513769)
(-0.15254 0.988297 0.000347912)
(-0.277481 0.960727 -0.00282957)
(-0.227804 0.973667 0.00883007)
(-0.226695 0.973958 -0.00382658)
(-0.277012 0.960861 -0.00327912)
(-0.152201 0.988348 0.00194337)
(-0.278227 0.960466 0.00976671)
(0.72951 0.683928 -0.00759935)
(0.732564 0.680678 0.0052345)
(0.720694 0.693245 0.00332362)
(0.527984 0.849243 0.00432231)
(0.720317 0.693645 0.000287655)
(0.735506 0.677471 0.00797343)
(0.733875 0.679246 -0.00725268)
(0.719562 0.694427 -0.00130712)
(0.524859 0.851184 -0.00294201)
(0.717139 0.69693 0.000796673)
(-0.169791 0.985475 0.00322957)
(-0.0983358 0.995152 0.00180661)
(-0.278156 0.960534 -0.00185835)
(-0.247504 0.968864 -0.00670031)
(-0.170557 0.985274 -0.0120646)
(-0.278054 0.960565 -0.00092046)
(-0.248929 0.968521 0.000598129)
(-0.169043 0.985537 -0.0119111)
(-0.128215 0.991746 -0.000116877)
(-0.277237 0.960801 -0.00101137)
(-0.245701 0.969346 0.000489931)
(-0.168324 0.985726 0.00336554)
(-0.277192 0.960812 -0.00198495)
(-0.244629 0.969592 -0.0068911)
(0.693766 0.720193 0.00315991)
(0.691207 0.722609 -0.00832931)
(0.702639 0.711542 -0.00250333)
(0.476461 0.879139 -0.00999019)
(0.698154 0.715945 -0.00200751)
(0.683708 0.729716 -0.00762477)
(0.688013 0.725691 0.00329791)
(0.701586 0.712583 -0.00171334)
(0.480388 0.877046 -0.00408914)
(0.703989 0.710205 -0.00271698)
(-0.236667 0.971551 0.00874837)
(-0.236048 0.971721 -0.00636645)
(-0.282378 0.959285 -0.0059239)
(-0.155061 0.987905 -0.000823964)
(-0.282473 0.959255 0.00617215)
(-0.237338 0.97141 -0.00573512)
(-0.237764 0.971281 0.00908299)
(-0.28161 0.959509 0.00612513)
(-0.154583 0.987979 -0.00124084)
(-0.281136 0.959647 -0.0063888)
(-0.23515 0.971936 -0.00663648)
(-0.23552 0.971833 0.0083974)
(-0.280444 0.959853 0.00579465)
(-0.153486 0.98815 -0.00110947)
(-0.279711 0.960063 -0.00640737)
(-0.23493 0.971978 0.0081972)
(-0.234122 0.972183 -0.00678425)
(-0.280481 0.959839 -0.00631428)
(-0.153744 0.98811 -0.000634293)
(-0.280656 0.95979 0.00601474)
(0.69644 0.717565 -0.00843451)
(0.700801 0.713349 0.00321748)
(0.705849 0.708361 -0.00160553)
(0.492074 0.870546 -0.00372056)
(0.707502 0.706705 -0.00296467)
(0.70477 0.709428 0.00336976)
(0.702909 0.711227 -0.00865521)
(0.706921 0.707284 -0.00341871)
(0.48895 0.872253 -0.0100877)
(0.703091 0.711096 -0.0023723)
(-0.145175 0.989406 -0.000392995)
(-0.144952 0.989438 -0.00124223)
(-0.138866 0.990179 0.0162059)
(-0.141728 0.989838 0.0115855)
(-0.145326 0.989383 0.00166318)
(-0.144909 0.989438 0.00369595)
(-0.194055 0.980449 0.0325863)
(-0.180655 0.981543 0.06274)
(-0.293839 0.955002 0.0403601)
(-0.28991 0.955454 0.0553232)
(-0.195246 0.980443 0.0247016)
(-0.293707 0.955376 0.0315245)
(-0.292802 0.954771 0.0517627)
(-0.191892 0.98138 0.00843943)
(-0.231324 0.971249 0.0562459)
(-0.291559 0.956389 0.0177049)
(-0.287658 0.957222 0.0313016)
(-0.189925 0.981608 0.0193673)
(-0.292075 0.956134 0.0223586)
(-0.285629 0.957835 0.0311237)
(0.348595 0.934903 0.0666182)
(0.245465 0.96493 0.0930398)
(0.504738 0.859228 0.083468)
(0.14223 0.986661 0.0791883)
(0.500567 0.86233 0.0762817)
(0.0660188 0.987733 0.141508)
(0.186515 0.975877 0.113478)
(0.574269 0.81728 0.0476308)
(0.189217 0.979315 0.0716882)
(0.576898 0.814925 0.0555466)
(-0.257676 0.964399 0.0594783)
(-0.257796 0.9643 0.0605455)
(-0.283665 0.95503 0.0863234)
(-0.155831 0.987264 0.0320398)
(-0.291415 0.95379 0.0732263)
(-0.265629 0.958535 0.103211)
(-0.267071 0.959157 0.0932221)
(-0.291449 0.955465 0.0462992)
(-0.157812 0.987188 0.0235792)
(-0.288317 0.956277 0.0490611)
(-0.250736 0.967492 0.0330294)
(-0.252485 0.96685 0.0381168)
(-0.290488 0.956686 0.0192046)
(-0.159443 0.987189 0.00603691)
(-0.288126 0.957523 0.0115073)
(-0.24907 0.968133 0.0261429)
(-0.247419 0.968777 0.0159674)
(-0.288051 0.95725 0.0264566)
(-0.159171 0.987207 0.00930007)
(-0.29119 0.956237 0.0286357)
(0.404229 0.91342 0.0475648)
(0.484382 0.874182 0.0343638)
(0.652099 0.758 0.0142264)
(0.353196 0.935153 0.0272207)
(0.658467 0.752387 0.0183036)
(0.572792 0.819516 0.0173826)
(0.523193 0.851998 0.019193)
(0.629031 0.776697 0.0325898)
(0.319059 0.947211 0.0315201)
(0.621827 0.782704 0.0265576)
(-0.117782 0.992845 0.0196742)
(-0.0978353 0.995191 -0.0048618)
(0.0473909 0.988802 -0.141505)
(0.195843 0.980595 0.00893462)
(0.012514 0.990343 -0.138074)
(-0.0210419 0.987107 -0.158672)
(-0.394209 0.918977 0.00897434)
(-0.0869514 0.996212 0.000425141)
(-0.175406 0.984495 -0.00151097)
(0.030286 0.999541 0.00080338)
(0.0228805 0.999734 -0.00278757)
(-0.183148 0.983081 0.0027914)
(-0.393985 0.919061 -0.0101396)
(-0.100737 0.994911 -0.00197626)
(-0.049119 0.998791 0.00175389)
(-0.234036 0.972226 -0.0018744)
(-0.139115 0.990274 -0.00219971)
(-0.100359 0.994941 -0.00451175)
(-0.0494825 0.998738 -0.00858624)
(-0.234068 0.972219 -0.00151042)
(-0.39329 0.919352 -0.0107002)
(-0.105023 0.99447 0.000612489)
(0.0246118 0.999697 0.000330136)
(-0.181116 0.983455 0.00374052)
(-0.392964 0.919507 0.00932148)
(0.0410965 0.999153 0.00214335)
(-0.171386 0.985203 -0.00146417)
(-0.101252 0.994852 -0.00418981)
(-0.234427 0.972133 -0.00124894)
(-0.139211 0.990261 -0.00164046)
(-0.0501432 0.998706 -0.00843774)
(-0.0497233 0.998761 0.00217943)
(-0.23425 0.972176 -0.00107568)
(-0.101774 0.994806 -0.00194079)
(-0.402163 0.915466 0.0137012)
(-0.120113 0.99272 0.00888677)
(-0.195251 0.980726 0.00736135)
(-0.0123633 0.999877 0.00964745)
(-0.0335925 0.999426 0.00428961)
(-0.210133 0.977623 0.00988288)
(-0.401769 0.915731 -0.00419655)
(-0.110589 0.993859 -0.00380963)
(-0.0558686 0.998438 -0.000190438)
(-0.238897 0.971042 -0.00245203)
(-0.143859 0.989591 -0.00369583)
(-0.109697 0.993944 -0.00644331)
(-0.0567188 0.998333 -0.0107156)
(-0.239372 0.970925 -0.00230887)
(-0.400462 0.916253 -0.010464)
(-0.151185 0.988497 0.00414818)
(-0.0252842 0.999675 0.00310708)
(-0.203899 0.97897 0.00657725)
(-0.399921 0.916487 0.0107392)
(-0.000828639 0.999992 0.00384898)
(-0.190255 0.981734 0.00107613)
(-0.233736 0.958364 0.164032)
(0.0155746 0.979704 0.199842)
(-0.0707181 0.98599 0.151071)
(0.149688 0.973501 0.172885)
(0.092418 0.979488 0.179062)
(-0.152788 0.967575 0.201131)
(-0.19714 0.971993 0.127927)
(-0.36206 0.921212 0.142408)
(-0.326351 0.918334 0.22396)
(-0.186074 0.965081 0.184376)
(-0.311681 0.931333 0.188344)
(-0.381252 0.910239 0.161592)
(-0.127572 0.97561 0.178637)
(-0.289669 0.938965 0.18557)
(0.0329481 0.999432 -0.00714552)
(-0.0496436 0.998763 -0.00271616)
(0.0332974 0.999445 7.62925e-06)
(0.034114 0.999417 0.00131613)
(-0.0492998 0.998782 -0.00219721)
(0.0337594 0.99941 -0.00631047)
(-0.392793 0.919586 -0.00861435)
(-0.102664 0.994713 0.0023197)
(-0.177903 0.984031 0.00573276)
(0.0321342 0.999481 0.002096)
(-0.391831 0.91996 0.0119535)
(0.047286 0.998874 0.00372043)
(-0.168502 0.985701 -8.71911e-05)
(-0.0995213 0.995026 -0.00425468)
(-0.0488475 0.998767 -0.00881646)
(-0.233784 0.972286 -0.00218844)
(-0.138361 0.990379 -0.00251496)
(-0.0999409 0.994991 -0.00218523)
(-0.0483241 0.99883 0.00199949)
(-0.233466 0.972363 -0.00194451)
(-0.39311 0.919445 0.00921249)
(-0.0781732 0.996939 0.00137853)
(0.0405314 0.999177 0.00150845)
(-0.170982 0.985274 -0.00108492)
(-0.392457 0.919718 -0.0097815)
(0.0320711 0.999484 -0.00189019)
(-0.179442 0.983763 0.00328893)
(0.0326007 0.999468 -0.000326296)
(-0.0502884 0.998731 -0.00258955)
(0.0324575 0.999449 -0.00699258)
(-0.0503378 0.99873 -0.00196163)
(0.0319582 0.999466 -0.00674071)
(0.0321835 0.999482 0.000141351)
(-0.397917 0.917344 -0.011887)
(-0.1352 0.990818 0.000879217)
(-0.195886 0.980618 0.00422832)
(-0.0085178 0.999964 0.000549926)
(-0.397523 0.917546 0.00914295)
(0.0120644 0.999926 0.0015688)
(-0.184522 0.982828 -0.00135536)
(-0.107956 0.994135 -0.0064143)
(-0.0553596 0.99841 -0.0106471)
(-0.238216 0.971209 -0.00254449)
(-0.142413 0.989801 -0.00345439)
(-0.108706 0.994066 -0.0039889)
(-0.0546094 0.998508 -2.29618e-05)
(-0.237767 0.971319 -0.00258765)
(-0.398739 0.917018 0.00919305)
(-0.107665 0.994184 0.00239923)
(0.00420743 0.999987 0.00297674)
(-0.187298 0.982303 0.000949176)
(-0.39846 0.917136 -0.00959072)
(-0.0111654 0.999937 -0.0013987)
(-0.199117 0.979966 0.00444601)
(-0.107138 0.994237 -0.00389453)
(-0.236912 0.971528 -0.00248128)
(-0.0535724 0.998564 0.000293581)
(-0.141968 0.989865 -0.00355112)
(-0.0541825 0.998476 -0.0104592)
(-0.106538 0.99429 -0.00613109)
(-0.237197 0.971458 -0.00268618)
(-0.406724 0.911295 0.0641545)
(-0.285857 0.950946 0.118267)
(-0.268234 0.959481 0.0862983)
(-0.149806 0.984665 0.0894066)
(-0.409069 0.909062 0.0791711)
(-0.113438 0.989219 0.0926166)
(-0.252279 0.963656 0.0878724)
(-0.395651 0.908002 0.137815)
(-0.288806 0.939303 0.185206)
(-0.143255 0.976505 0.160985)
(-0.290131 0.942581 0.165422)
(-0.383948 0.914509 0.1275)
(-0.179508 0.971421 0.155298)
(-0.303052 0.93949 0.159745)
(-0.387946 0.92159 0.0130297)
(-0.0467134 0.998874 0.00825906)
(-0.154172 0.988038 0.00333116)
(0.0768106 0.99702 0.00710851)
(-0.165425 0.986188 0.00817534)
(0.0621131 0.998061 0.00410835)
(-0.386493 0.922272 -0.00604701)
(0.29391 0.955833 0.000476497)
(0.295977 0.955186 0.00421697)
(-0.0906832 0.995861 0.00616651)
(0.000118794 0.999942 0.0107756)
(-0.213394 0.97696 -0.00340579)
(-0.150231 0.988651 0.000349433)
(-0.149398 0.988764 0.0050123)
(-0.176624 0.984278 -0.000542499)
(0.273015 0.962008 -0.00203858)
(0.279776 0.960064 0.00149825)
(0.284035 0.958811 0.00222144)
(0.277486 0.960728 -0.00183347)
(-0.395324 0.918472 -0.0113344)
(-0.186313 0.982484 0.00353925)
(-0.116116 0.993236 7.06602e-05)
(0.0127443 0.999919 -8.88682e-05)
(-0.39482 0.918713 0.00917079)
(-0.177281 0.984158 -0.00193859)
(0.0291249 0.999575 0.00146095)
(-0.103316 0.994635 -0.00523581)
(-0.0516446 0.99862 -0.00951991)
(-0.140064 0.990139 -0.00268949)
(-0.235457 0.971882 -0.0023146)
(-0.235252 0.971932 -0.00216689)
(-0.0511786 0.998689 0.00121847)
(-0.103741 0.9946 -0.00304507)
(-0.102798 0.994699 -0.00259701)
(-0.234738 0.972057 -0.00156476)
(-0.0504434 0.998725 0.00180796)
(-0.139774 0.99018 -0.0026242)
(-0.102337 0.994739 -0.00461129)
(-0.234913 0.972014 -0.00204624)
(-0.0508821 0.998663 -0.00907699)
(-0.395641 0.918369 0.00821896)
(-0.0938492 0.995586 4.52276e-05)
(-0.179095 0.98383 -0.00169572)
(0.0227057 0.999742 0.000449883)
(-0.187672 0.982229 0.00243552)
(0.0134465 0.999904 -0.00319499)
(-0.395169 0.918544 -0.0108298)
(0.278301 0.960491 0.00210088)
(0.271636 0.962398 -0.00213291)
(0.269066 0.963119 -0.00211022)
(0.27579 0.961217 0.00140107)
(-0.177927 0.984035 0.00417755)
(-0.207069 0.978325 -0.00143261)
(-0.229252 0.973359 -0.00398811)
(-0.168696 0.985668 -0.000365475)
(-0.309583 0.950799 0.0118026)
(-0.23438 0.972074 0.0117777)
(-0.228642 0.973469 0.00895718)
(-0.274249 0.961652 0.00362448)
(0.248221 0.968702 0.00150476)
(0.262412 0.964947 0.00413513)
(0.267333 0.963599 0.00322005)
(0.256032 0.966668 -0.00112352)
(-0.404086 0.914714 -0.00363106)
(-0.216563 0.976167 0.0140615)
(-0.175849 0.984312 0.0143971)
(-0.0519111 0.998586 0.0114373)
(-0.403842 0.914665 0.0173143)
(-0.199586 0.979839 0.00898441)
(-0.0210833 0.999707 0.0118668)
(-0.405916 0.913496 0.0275189)
(-0.143057 0.989344 0.0270785)
(-0.208373 0.977749 0.0242583)
(-0.03936 0.998851 0.0273256)
(-0.226156 0.973767 0.0251293)
(-0.0667765 0.997553 0.0207)
(-0.404899 0.914295 0.0110403)
(0.260373 0.965488 0.00618182)
(0.244762 0.969581 0.00206561)
(0.228239 0.97356 0.00931667)
(0.249225 0.968386 0.0107154)
(-0.259633 0.965466 0.0216013)
(-0.313422 0.94945 0.0176244)
(-0.346137 0.937276 0.0412574)
(-0.273334 0.961211 0.0369135)
(0.291713 0.940151 0.176125)
(0.220612 0.956196 0.192405)
(-0.273618 0.93468 0.226951)
(-0.242397 0.945104 0.219139)
(0.166242 0.98258 0.083063)
(0.13309 0.981956 0.134345)
(0.00281051 0.989437 0.144936)
(-0.0496923 0.98692 0.153363)
(-0.158244 0.973037 0.167806)
(-0.0447951 0.987029 0.154167)
(-0.115587 0.944786 0.306626)
(0.0927585 0.981769 0.165909)
(-0.210298 0.962666 0.170437)
(0.121988 0.987522 0.0995923)
(0.279759 0.940773 0.191525)
(0.139776 0.979025 0.148233)
(0.254501 0.904289 0.342768)
(0.126642 0.974364 0.185949)
(0.133609 0.967391 0.215181)
(0.0771414 0.98189 0.173037)
(0.185811 0.967711 0.170321)
(0.206199 0.939396 0.273892)
(0.0689186 0.993383 0.09187)
(-0.0982135 0.994872 -0.0241572)
(0.0690847 0.995366 0.0668869)
(0.0283234 0.993029 -0.114415)
(0.0113302 0.995755 0.0913483)
(-0.043254 0.995386 -0.085653)
(0.115672 0.992338 0.0434201)
(0.12864 0.982236 0.136617)
(0.079323 0.980223 0.181301)
(0.105998 0.976419 0.188068)
(0.225158 0.95229 0.206027)
(0.0584376 0.984013 0.168239)
(0.205989 0.966615 0.152396)
(0.184157 0.956015 0.228302)
(0.24749 0.967302 0.0554644)
(0.300075 0.953857 0.0105983)
(0.313309 0.94013 0.134134)
(-0.130487 0.915508 0.38055)
(0.0356223 0.999365 -0.000252555)
(-0.0492575 0.998784 -0.00198027)
(0.0351251 0.999364 -0.00617301)
(0.0344741 0.999393 -0.00504818)
(-0.0491329 0.998792 -0.000343604)
(0.0347615 0.999394 0.00166526)
(-0.389907 0.920771 0.0124282)
(-0.0624471 0.998043 0.0032607)
(-0.163949 0.986469 0.000781208)
(0.0527047 0.998605 0.00334042)
(-0.390445 0.920601 -0.00679587)
(-0.172419 0.985008 0.00546907)
(0.0478601 0.998854 -0.000350079)
(-0.386505 0.922263 -0.0067263)
(-0.0712347 0.997444 0.00560672)
(-0.16512 0.986246 0.00742212)
(0.0608164 0.998137 0.00491212)
(-0.386431 0.922236 0.0123304)
(-0.152427 0.988311 0.00257279)
(0.0809764 0.996693 0.00670291)
(-0.133073 0.991074 0.00800478)
(-0.174631 0.984631 0.00228637)
(-0.190484 0.981687 -0.0023645)
(-0.12694 0.991909 0.00169578)
(0.287284 0.957842 0.0027545)
(0.27885 0.960333 -0.0014682)