/*--------------------------------*- C++ -*----------------------------------*\
| =========                 |                                                 |
| \\      /  F ield         | OpenFOAM: The Open Source CFD Toolbox           |
|  \\    /   O peration     | Version:  2012                                  |
|   \\  /    A nd           | Website:  www.openfoam.com                      |
|    \\/     M anipulation  |                                                 |
\*---------------------------------------------------------------------------*/
FoamFile
{
    version     2.0;
    format      ascii;
    class       volScalarField::Internal;
    location    "0.107/fluid";
    object      V0;
}
// * * * * * * * * * * * * * * * * * * * * * * * * * * * * * * * * * * * * * //

dimensions      [0 3 0 0 0 0 0];


value           nonuniform List<scalar> 
131374
(
4.25189e-05
4.25183e-05
4.25181e-05
4.25186e-05
4.25196e-05
4.25206e-05
4.25221e-05
4.25235e-05
4.25249e-05
4.25258e-05
4.25248e-05
4.25177e-05
4.24882e-05
4.23057e-05
6.9608e-07
4.23654e-05
4.24707e-05
4.24852e-05
4.24888e-05
4.24926e-05
4.24976e-05
4.25029e-05
4.25078e-05
4.25124e-05
4.25143e-05
4.25144e-05
4.25166e-05
4.25151e-05
4.25269e-05
4.2525e-05
4.25225e-05
4.25228e-05
4.25226e-05
4.2522e-05
4.25217e-05
4.25226e-05
4.25232e-05
4.25236e-05
4.25242e-05
4.25239e-05
4.25179e-05
4.24992e-05
5.28443e-06
4.21512e-05
4.2473e-05
4.24827e-05
4.24867e-05
4.24902e-05
4.24944e-05
4.2499e-05
4.25031e-05
4.25061e-05
4.25097e-05
4.25126e-05
4.25125e-05
4.25124e-05
4.25116e-05
4.25354e-05
4.25322e-05
4.25276e-05
4.25274e-05
4.25268e-05
4.25239e-05
4.25192e-05
4.25196e-05
4.25201e-05
4.25205e-05
4.25234e-05
4.25309e-05
4.25439e-05
4.25568e-05
5.27387e-06
4.23856e-05
4.24678e-05
4.2476e-05
4.24834e-05
4.24895e-05
4.24944e-05
4.25e-05
4.25039e-05
4.25057e-05
4.25086e-05
4.25108e-05
4.25118e-05
4.25098e-05
4.25082e-05
4.25424e-05
4.25385e-05
4.25329e-05
4.25336e-05
4.25333e-05
4.25266e-05
4.25216e-05
4.25203e-05
4.25203e-05
4.25209e-05
4.2524e-05
4.25316e-05
4.25414e-05
4.25391e-05
5.286e-06
4.23594e-05
4.24184e-05
4.24565e-05
4.24787e-05
4.24894e-05
4.24945e-05
4.25001e-05
4.25033e-05
4.25065e-05
4.25104e-05
4.25109e-05
4.25094e-05
4.25086e-05
4.25062e-05
4.25475e-05
4.25451e-05
4.25394e-05
4.25383e-05
4.25365e-05
4.25308e-05
4.25261e-05
4.25241e-05
4.25219e-05
4.25235e-05
4.25266e-05
4.25306e-05
4.25296e-05
4.24999e-05
4.23987e-05
4.26923e-05
4.24758e-05
4.24289e-05
4.2459e-05
4.24803e-05
4.24944e-05
4.25012e-05
4.25055e-05
4.25067e-05
4.25069e-05
4.25105e-05
4.25101e-05
4.25071e-05
4.25074e-05
4.25067e-05
4.25525e-05
4.25495e-05
4.25452e-05
4.2542e-05
4.25367e-05
4.25344e-05
4.25302e-05
4.25289e-05
4.25279e-05
4.25289e-05
4.2532e-05
4.25333e-05
4.25315e-05
4.25234e-05
4.25243e-05
4.25906e-05
4.2563e-05
4.25037e-05
4.24934e-05
4.2498e-05
4.2506e-05
4.25111e-05
4.25124e-05
4.25116e-05
4.25102e-05
4.2512e-05
4.25082e-05
4.25071e-05
4.25077e-05
4.2506e-05
4.25554e-05
4.25529e-05
4.25483e-05
4.25433e-05
4.25381e-05
4.25359e-05
4.25335e-05
4.25334e-05
4.25329e-05
4.2534e-05
4.25373e-05
4.25411e-05
4.25452e-05
4.25519e-05
4.25658e-05
4.25844e-05
4.25757e-05
4.25477e-05
4.25288e-05
4.25219e-05
4.2521e-05
4.25205e-05
4.25187e-05
4.25161e-05
4.2515e-05
4.25139e-05
4.251e-05
4.25089e-05
4.25089e-05
4.2506e-05
4.25188e-05
4.25182e-05
4.25178e-05
4.25188e-05
4.25189e-05
4.252e-05
4.25213e-05
4.25232e-05
4.25243e-05
4.25251e-05
4.25244e-05
4.25191e-05
4.2504e-05
4.24777e-05
4.23971e-05
4.25978e-05
4.25189e-05
4.2496e-05
4.24915e-05
4.24909e-05
4.24936e-05
4.24985e-05
4.2503e-05
4.25088e-05
4.25129e-05
4.25142e-05
4.2516e-05
4.25158e-05
4.25153e-05
4.25267e-05
4.25251e-05
4.25226e-05
4.25225e-05
4.25212e-05
4.25214e-05
4.2521e-05
4.25214e-05
4.2522e-05
4.2523e-05
4.25235e-05
4.2524e-05
4.25244e-05
4.25388e-05
4.2654e-05
4.28554e-05
4.26675e-05
4.25336e-05
4.24981e-05
4.24907e-05
4.24912e-05
4.24949e-05
4.24996e-05
4.25035e-05
4.25073e-05
4.25104e-05
4.25125e-05
4.25133e-05
4.25124e-05
4.25115e-05
4.25351e-05
4.25328e-05
4.25275e-05
4.25274e-05
4.25255e-05
4.25222e-05
4.25183e-05
4.25179e-05
4.25181e-05
4.25191e-05
4.25217e-05
4.25303e-05
4.25444e-05
4.25678e-05
4.26103e-05
4.28171e-05
4.2645e-05
4.25113e-05
4.24865e-05
4.24848e-05
4.2489e-05
4.24939e-05
4.24995e-05
4.25054e-05
4.25064e-05
4.25092e-05
4.25115e-05
4.25119e-05
4.25101e-05
4.25081e-05
4.25414e-05
4.2539e-05
4.25333e-05
4.25328e-05
4.25312e-05
4.25265e-05
4.25209e-05
4.25174e-05
4.2518e-05
4.25198e-05
4.25224e-05
4.25312e-05
4.2544e-05
4.25416e-05
4.2542e-05
5.3369e-06
4.24099e-05
4.24361e-05
4.24655e-05
4.24793e-05
4.24876e-05
4.24936e-05
4.24989e-05
4.25041e-05
4.25073e-05
4.25096e-05
4.25109e-05
4.25097e-05
4.25092e-05
4.2508e-05
4.25468e-05
4.25452e-05
4.25394e-05
4.25375e-05
4.25348e-05
4.25301e-05
4.25246e-05
4.25226e-05
4.25218e-05
4.25236e-05
4.25255e-05
4.25306e-05
4.2533e-05
4.25122e-05
4.24365e-05
4.26995e-05
4.24821e-05
4.24366e-05
4.24631e-05
4.24802e-05
4.24917e-05
4.24996e-05
4.25038e-05
4.25062e-05
4.25081e-05
4.25099e-05
4.25092e-05
4.2508e-05
4.25077e-05
4.25088e-05
4.25521e-05
4.25495e-05
4.25443e-05
4.25412e-05
4.25368e-05
4.25322e-05
4.25291e-05
4.25286e-05
4.2528e-05
4.25284e-05
4.25301e-05
4.25314e-05
4.2532e-05
4.25291e-05
4.25302e-05
4.2592e-05
4.25648e-05
4.25079e-05
4.24958e-05
4.24987e-05
4.25048e-05
4.25089e-05
4.25099e-05
4.25108e-05
4.25107e-05
4.25106e-05
4.25092e-05
4.25094e-05
4.25066e-05
4.25064e-05
4.25553e-05
4.25523e-05
4.25473e-05
4.25433e-05
4.25384e-05
4.2534e-05
4.25332e-05
4.25328e-05
4.2532e-05
4.25327e-05
4.25355e-05
4.25386e-05
4.25436e-05
4.25524e-05
4.25669e-05
4.25849e-05
4.25759e-05
4.25482e-05
4.25292e-05
4.25215e-05
4.252e-05
4.25193e-05
4.25172e-05
4.25154e-05
4.25147e-05
4.25131e-05
4.25108e-05
4.25096e-05
4.25084e-05
4.25067e-05
4.25187e-05
4.25181e-05
4.25182e-05
4.25184e-05
4.25187e-05
4.252e-05
4.25219e-05
4.25225e-05
4.25233e-05
4.2524e-05
4.25231e-05
4.25187e-05
4.25071e-05
4.24702e-05
4.22816e-05
4.24399e-05
4.25285e-05
4.2512e-05
4.24982e-05
4.24937e-05
4.24953e-05
4.24998e-05
4.2505e-05
4.251e-05
4.2513e-05
4.2515e-05
4.25155e-05
4.25162e-05
4.25161e-05
4.25262e-05
4.25249e-05
4.25234e-05
4.2522e-05
4.25208e-05
4.25201e-05
4.25201e-05
4.25192e-05
4.25196e-05
4.2521e-05
4.2522e-05
4.25225e-05
4.25243e-05
4.25357e-05
4.25968e-05
4.2688e-05
4.26278e-05
4.25496e-05
4.25094e-05
4.24954e-05
4.24932e-05
4.24959e-05
4.25004e-05
4.25054e-05
4.25089e-05
4.25122e-05
4.25136e-05
4.2513e-05
4.25123e-05
4.25129e-05
4.25345e-05
4.25324e-05
4.25293e-05
4.25269e-05
4.25253e-05
4.25206e-05
4.25162e-05
4.25151e-05
4.25153e-05
4.25165e-05
4.25189e-05
4.25273e-05
4.25437e-05
4.25759e-05
4.26364e-05
4.27579e-05
4.26531e-05
4.25262e-05
4.24935e-05
4.24867e-05
4.24886e-05
4.24935e-05
4.25e-05
4.25057e-05
4.25088e-05
4.25106e-05
4.25124e-05
4.25126e-05
4.25108e-05
4.25094e-05
4.25412e-05
4.25385e-05
4.25351e-05
4.25319e-05
4.25295e-05
4.25236e-05
4.25174e-05
4.25151e-05
4.25161e-05
4.2516e-05
4.25188e-05
4.25275e-05
4.25424e-05
4.25529e-05
4.25332e-05
5.3285e-06
4.23859e-05
4.24446e-05
4.2471e-05
4.24812e-05
4.24894e-05
4.2493e-05
4.24996e-05
4.25059e-05
4.25092e-05
4.25111e-05
4.25115e-05
4.25118e-05
4.2511e-05
4.25093e-05
4.25476e-05
4.25432e-05
4.254e-05
4.25361e-05
4.2533e-05
4.25263e-05
4.25231e-05
4.25197e-05
4.25213e-05
4.25218e-05
4.2523e-05
4.25262e-05
4.25286e-05
4.25234e-05
4.2455e-05
4.27022e-05
4.24829e-05
4.24497e-05
4.24724e-05
4.24854e-05
4.24942e-05
4.2499e-05
4.25019e-05
4.25057e-05
4.25086e-05
4.25103e-05
4.25101e-05
4.25108e-05
4.25107e-05
4.25079e-05
4.25514e-05
4.25482e-05
4.25445e-05
4.25396e-05
4.2535e-05
4.25298e-05
4.25268e-05
4.25262e-05
4.25271e-05
4.25265e-05
4.25264e-05
4.2528e-05
4.25306e-05
4.25327e-05
4.25399e-05
4.25982e-05
4.25706e-05
4.25156e-05
4.25033e-05
4.25027e-05
4.25061e-05
4.25085e-05
4.25086e-05
4.25094e-05
4.25106e-05
4.25116e-05
4.25103e-05
4.25099e-05
4.25085e-05
4.25072e-05
4.25537e-05
4.25515e-05
4.25474e-05
4.25427e-05
4.25366e-05
4.25322e-05
4.25305e-05
4.25308e-05
4.2531e-05
4.25314e-05
4.25325e-05
4.25358e-05
4.2542e-05
4.25514e-05
4.25662e-05
4.2584e-05
4.25759e-05
4.25502e-05
4.25321e-05
4.25231e-05
4.25197e-05
4.25177e-05
4.2515e-05
4.25141e-05
4.25148e-05
4.25138e-05
4.25109e-05
4.25095e-05
4.25088e-05
4.25077e-05
4.25187e-05
4.2518e-05
4.25174e-05
4.25174e-05
4.25176e-05
4.25193e-05
4.25207e-05
4.25224e-05
4.25226e-05
4.25226e-05
4.25213e-05
4.25163e-05
4.2502e-05
4.24594e-05
4.22847e-05
4.24159e-05
4.25112e-05
4.251e-05
4.25004e-05
4.24962e-05
4.24975e-05
4.25018e-05
4.25066e-05
4.25111e-05
4.25136e-05
4.25151e-05
4.25165e-05
4.25173e-05
4.25166e-05
4.25262e-05
4.25245e-05
4.25223e-05
4.25214e-05
4.25184e-05
4.25183e-05
4.25183e-05
4.25171e-05
4.25171e-05
4.25185e-05
4.25194e-05
4.25183e-05
4.25175e-05
4.25222e-05
4.25733e-05
4.26556e-05
4.25918e-05
4.25348e-05
4.25087e-05
4.24988e-05
4.24962e-05
4.24984e-05
4.2502e-05
4.25073e-05
4.2511e-05
4.25127e-05
4.2514e-05
4.2514e-05
4.25144e-05
4.25137e-05
4.25342e-05
4.2531e-05
4.25275e-05
4.25255e-05
4.25216e-05
4.2518e-05
4.25151e-05
4.2513e-05
4.25128e-05
4.2513e-05
4.2515e-05
4.25211e-05
4.25355e-05
4.25647e-05
4.26225e-05
4.27155e-05
4.26134e-05
4.25137e-05
4.24924e-05
4.24871e-05
4.24908e-05
4.24949e-05
4.25007e-05
4.25076e-05
4.25112e-05
4.25117e-05
4.25128e-05
4.25128e-05
4.25116e-05
4.25105e-05
4.25417e-05
4.25373e-05
4.25327e-05
4.25303e-05
4.25264e-05
4.25205e-05
4.25148e-05
4.25125e-05
4.25116e-05
4.25116e-05
4.25131e-05
4.25202e-05
4.25324e-05
4.25558e-05
4.26991e-05
5.34467e-06
4.23852e-05
4.24445e-05
4.24731e-05
4.24842e-05
4.24923e-05
4.24974e-05
4.2501e-05
4.25085e-05
4.25104e-05
4.25113e-05
4.25129e-05
4.25113e-05
4.25103e-05
4.25098e-05
4.25477e-05
4.25421e-05
4.25375e-05
4.25334e-05
4.25311e-05
4.25252e-05
4.25193e-05
4.25178e-05
4.25167e-05
4.25164e-05
4.25154e-05
4.25178e-05
4.25189e-05
4.25235e-05
4.25477e-05
4.28281e-05
4.24809e-05
4.2456e-05
4.24798e-05
4.24915e-05
4.24979e-05
4.25017e-05
4.25041e-05
4.25076e-05
4.25096e-05
4.2512e-05
4.25119e-05
4.2511e-05
4.25104e-05
4.25082e-05
4.25516e-05
4.25463e-05
4.2542e-05
4.25365e-05
4.25328e-05
4.25285e-05
4.25239e-05
4.25236e-05
4.25236e-05
4.25224e-05
4.25199e-05
4.25214e-05
4.25251e-05
4.25288e-05
4.25405e-05
4.25956e-05
4.25596e-05
4.25158e-05
4.25089e-05
4.25075e-05
4.25088e-05
4.25094e-05
4.25082e-05
4.2509e-05
4.25111e-05
4.25137e-05
4.2511e-05
4.25095e-05
4.25094e-05
4.25075e-05
4.25527e-05
4.25503e-05
4.25444e-05
4.25399e-05
4.25351e-05
4.25303e-05
4.25274e-05
4.25279e-05
4.25287e-05
4.25281e-05
4.25274e-05
4.25303e-05
4.25359e-05
4.25456e-05
4.25583e-05
4.25737e-05
4.25671e-05
4.25472e-05
4.2533e-05
4.25244e-05
4.25199e-05
4.25169e-05
4.25137e-05
4.25134e-05
4.25157e-05
4.25143e-05
4.25112e-05
4.25098e-05
4.25083e-05
4.25068e-05
4.25185e-05
4.2517e-05
4.25171e-05
4.25166e-05
4.25178e-05
4.25192e-05
4.25207e-05
4.25216e-05
4.25217e-05
4.25213e-05
4.2519e-05
4.25132e-05
4.24979e-05
4.24528e-05
4.23179e-05
4.24114e-05
4.24966e-05
4.25049e-05
4.25009e-05
4.24988e-05
4.25004e-05
4.25043e-05
4.25086e-05
4.25119e-05
4.25147e-05
4.25161e-05
4.25166e-05
4.2516e-05
4.25166e-05
4.2526e-05
4.2523e-05
4.25215e-05
4.25196e-05
4.25183e-05
4.25176e-05
4.25171e-05
4.25155e-05
4.25152e-05
4.2516e-05
4.25166e-05
4.25148e-05
4.25104e-05
4.25029e-05
4.25266e-05
4.25985e-05
4.25441e-05
4.2517e-05
4.25042e-05
4.24992e-05
4.24981e-05
4.25008e-05
4.25048e-05
4.25085e-05
4.25108e-05
4.25133e-05
4.25147e-05
4.25142e-05
4.25138e-05
4.25143e-05
4.25342e-05
4.25294e-05
4.25257e-05
4.25228e-05
4.25202e-05
4.25176e-05
4.25157e-05
4.25124e-05
4.25114e-05
4.25115e-05
4.25111e-05
4.25146e-05
4.25206e-05
4.25277e-05
4.25429e-05
4.25881e-05
4.25486e-05
4.2502e-05
4.24901e-05
4.24913e-05
4.24958e-05
4.24995e-05
4.25043e-05
4.25092e-05
4.25115e-05
4.25124e-05
4.25122e-05
4.25124e-05
4.2512e-05
4.25119e-05
4.25419e-05
4.2536e-05
4.253e-05
4.25265e-05
4.25239e-05
4.25198e-05
4.25131e-05
4.25112e-05
4.25099e-05
4.25093e-05
4.25092e-05
4.25121e-05
4.25186e-05
4.25127e-05
4.24382e-05
4.25738e-05
4.24486e-05
4.24633e-05
4.24795e-05
4.24896e-05
4.24954e-05
4.25016e-05
4.25061e-05
4.25109e-05
4.25108e-05
4.25126e-05
4.25127e-05
4.2512e-05
4.25106e-05
4.25098e-05
4.25469e-05
4.25409e-05
4.25345e-05
4.25305e-05
4.25275e-05
4.25235e-05
4.25163e-05
4.25157e-05
4.25154e-05
4.25129e-05
4.25102e-05
4.25099e-05
4.25094e-05
4.24965e-05
4.24402e-05
4.25443e-05
4.24763e-05
4.24744e-05
4.24891e-05
4.24975e-05
4.25001e-05
4.25044e-05
4.25065e-05
4.25099e-05
4.25111e-05
4.25131e-05
4.25115e-05
4.25109e-05
4.2511e-05
4.25091e-05
4.25494e-05
4.25463e-05
4.25394e-05
4.25334e-05
4.25302e-05
4.25266e-05
4.25218e-05
4.252e-05
4.25202e-05
4.25186e-05
4.25156e-05
4.25157e-05
4.25166e-05
4.25156e-05
4.25174e-05
4.2544e-05
4.25318e-05
4.25137e-05
4.25105e-05
4.25098e-05
4.25105e-05
4.251e-05
4.2508e-05
4.25095e-05
4.2512e-05
4.25136e-05
4.25118e-05
4.25088e-05
4.25097e-05
4.25076e-05
4.25518e-05
4.25496e-05
4.2542e-05
4.2537e-05
4.25332e-05
4.2529e-05
4.25266e-05
4.25258e-05
4.25247e-05
4.25244e-05
4.2523e-05
4.25247e-05
4.25286e-05
4.25345e-05
4.25425e-05
4.25526e-05
4.25499e-05
4.25386e-05
4.25292e-05
4.25225e-05
4.25179e-05
4.25146e-05
4.25126e-05
4.25126e-05
4.25135e-05
4.25134e-05
4.25116e-05
4.25095e-05
4.25083e-05
4.25067e-05
4.25186e-05
4.25177e-05
4.25172e-05
4.25168e-05
4.25179e-05
4.25185e-05
4.25193e-05
4.2521e-05
4.25209e-05
4.25199e-05
4.25173e-05
4.25127e-05
4.25023e-05
4.24782e-05
4.24631e-05
4.28231e-05
4.24813e-05
4.25018e-05
4.25048e-05
4.25017e-05
4.25006e-05
4.25027e-05
4.25066e-05
4.25097e-05
4.25133e-05
4.25148e-05
4.25168e-05
4.25169e-05
4.25175e-05
4.25171e-05
4.25256e-05
4.25227e-05
4.25213e-05
4.25188e-05
4.25181e-05
4.25165e-05
4.25158e-05
4.25155e-05
4.25162e-05
4.25147e-05
4.25139e-05
4.25122e-05
4.25073e-05
4.24998e-05
4.25027e-05
4.25291e-05
4.25169e-05
4.25103e-05
4.25045e-05
4.25002e-05
4.24998e-05
4.25028e-05
4.25068e-05
4.25093e-05
4.25129e-05
4.25147e-05
4.25155e-05
4.25142e-05
4.25151e-05
4.25143e-05
4.25337e-05
4.25288e-05
4.25242e-05
4.25218e-05
4.25198e-05
4.25173e-05
4.25155e-05
4.25136e-05
4.25122e-05
4.25121e-05
4.25117e-05
4.25118e-05
4.25107e-05
4.25058e-05
4.25079e-05
4.25255e-05
4.25187e-05
4.25014e-05
4.24945e-05
4.24967e-05
4.25004e-05
4.25028e-05
4.25071e-05
4.25095e-05
4.25122e-05
4.2514e-05
4.25129e-05
4.25121e-05
4.25136e-05
4.25125e-05
4.25417e-05
4.25346e-05
4.25275e-05
4.25245e-05
4.25227e-05
4.25188e-05
4.2515e-05
4.25115e-05
4.25107e-05
4.25091e-05
4.25086e-05
4.2511e-05
4.25093e-05
4.25031e-05
4.24913e-05
4.25111e-05
4.24984e-05
4.24891e-05
4.24928e-05
4.24974e-05
4.25004e-05
4.25051e-05
4.25093e-05
4.25119e-05
4.25137e-05
4.25133e-05
4.25121e-05
4.25112e-05
4.25129e-05
4.25109e-05
4.25459e-05
4.25396e-05
4.25332e-05
4.25291e-05
4.25263e-05
4.2521e-05
4.25154e-05
4.25142e-05
4.25137e-05
4.25115e-05
4.25096e-05
4.25088e-05
4.2507e-05
4.24994e-05
4.24909e-05
4.25095e-05
4.25019e-05
4.24958e-05
4.2499e-05
4.25037e-05
4.25046e-05
4.2509e-05
4.25082e-05
4.2511e-05
4.25133e-05
4.25133e-05
4.25118e-05
4.25098e-05
4.25113e-05
4.2511e-05
4.25485e-05
4.25448e-05
4.2538e-05
4.25324e-05
4.25288e-05
4.25242e-05
4.25217e-05
4.25198e-05
4.25174e-05
4.25144e-05
4.25131e-05
4.2512e-05
4.25118e-05
4.25093e-05
4.25112e-05
4.25192e-05
4.2518e-05
4.25131e-05
4.25114e-05
4.25108e-05
4.25116e-05
4.25105e-05
4.25079e-05
4.25087e-05
4.25121e-05
4.25145e-05
4.25126e-05
4.25082e-05
4.25094e-05
4.25087e-05
4.25525e-05
4.25467e-05
4.25406e-05
4.2537e-05
4.25316e-05
4.25278e-05
4.25255e-05
4.25244e-05
4.25221e-05
4.252e-05
4.2519e-05
4.25197e-05
4.25211e-05
4.25231e-05
4.25273e-05
4.25325e-05
4.25328e-05
4.25274e-05
4.25216e-05
4.25177e-05
4.25145e-05
4.25127e-05
4.25111e-05
4.25103e-05
4.25112e-05
4.25111e-05
4.25101e-05
4.2508e-05
4.25079e-05
4.25054e-05
4.25183e-05
4.25178e-05
4.25175e-05
4.25173e-05
4.25178e-05
4.25179e-05
4.25191e-05
4.25193e-05
4.25202e-05
4.25192e-05
4.2517e-05
4.25147e-05
4.25117e-05
4.2513e-05
4.25373e-05
4.25723e-05
4.2536e-05
4.25161e-05
4.25078e-05
4.2503e-05
4.25021e-05
4.25044e-05
4.25081e-05
4.25107e-05
4.2513e-05
4.25152e-05
4.25175e-05
4.25172e-05
4.2518e-05
4.25171e-05
4.25248e-05
4.25224e-05
4.25206e-05
4.25197e-05
4.25182e-05
4.25172e-05
4.25165e-05
4.25178e-05
4.25166e-05
4.25138e-05
4.25114e-05
4.251e-05
4.25099e-05
4.25111e-05
4.25248e-05
4.25393e-05
4.25282e-05
4.25146e-05
4.25076e-05
4.25027e-05
4.25017e-05
4.25036e-05
4.25072e-05
4.25106e-05
4.25136e-05
4.25156e-05
4.25167e-05
4.25146e-05
4.25151e-05
4.25142e-05
4.25327e-05
4.25277e-05
4.25227e-05
4.25217e-05
4.25199e-05
4.2518e-05
4.25172e-05
4.25148e-05
4.25138e-05
4.25114e-05
4.25091e-05
4.2508e-05
4.25065e-05
4.25068e-05
4.25093e-05
4.2517e-05
4.25128e-05
4.25044e-05
4.25016e-05
4.25019e-05
4.25029e-05
4.25045e-05
4.25078e-05
4.25103e-05
4.25131e-05
4.25155e-05
4.25152e-05
4.25125e-05
4.25127e-05
4.25133e-05
4.25415e-05
4.25311e-05
4.25256e-05
4.25242e-05
4.25211e-05
4.2517e-05
4.2517e-05
4.25131e-05
4.25107e-05
4.25089e-05
4.25066e-05
4.2506e-05
4.25053e-05
4.25004e-05
4.2496e-05
4.24992e-05
4.25003e-05
4.24976e-05
4.2499e-05
4.25024e-05
4.25039e-05
4.25063e-05
4.25094e-05
4.2511e-05
4.25135e-05
4.25142e-05
4.25146e-05
4.25119e-05
4.25114e-05
4.25119e-05
4.25452e-05
4.25367e-05
4.25316e-05
4.25284e-05
4.25257e-05
4.25209e-05
4.2518e-05
4.25156e-05
4.25123e-05
4.25098e-05
4.25076e-05
4.25057e-05
4.25028e-05
4.24979e-05
4.24957e-05
4.25014e-05
4.25023e-05
4.25014e-05
4.2503e-05
4.2505e-05
4.25054e-05
4.25076e-05
4.25084e-05
4.25118e-05
4.25136e-05
4.25133e-05
4.25132e-05
4.25097e-05
4.25119e-05
4.25097e-05
4.25472e-05
4.25421e-05
4.25372e-05
4.25321e-05
4.25283e-05
4.25241e-05
4.25222e-05
4.25198e-05
4.25163e-05
4.25127e-05
4.2511e-05
4.25089e-05
4.25064e-05
4.2504e-05
4.25047e-05
4.25086e-05
4.25102e-05
4.25101e-05
4.25101e-05
4.25101e-05
4.25108e-05
4.25105e-05
4.2506e-05
4.25096e-05
4.25128e-05
4.25126e-05
4.25123e-05
4.25079e-05
4.25087e-05
4.25088e-05
4.25504e-05
4.25439e-05
4.25404e-05
4.25358e-05
4.25307e-05
4.25271e-05
4.25246e-05
4.25243e-05
4.25201e-05
4.25177e-05
4.2516e-05
4.25155e-05
4.25148e-05
4.25137e-05
4.25148e-05
4.25175e-05
4.25181e-05
4.25169e-05
4.25147e-05
4.2513e-05
4.25112e-05
4.25103e-05
4.25085e-05
4.25099e-05
4.25109e-05
4.25098e-05
4.25083e-05
4.25076e-05
4.25067e-05
4.25058e-05
5.24585e-06
4.24678e-05
4.20636e-05
4.24591e-05
4.2537e-05
4.25148e-05
4.26044e-05
5.26057e-06
4.25657e-05
4.27033e-05
4.30299e-05
5.23227e-06
4.27227e-05
4.30793e-05
4.27997e-05
4.22836e-05
4.20458e-05
4.247e-05
4.27047e-05
4.25095e-05
4.26864e-05
4.25397e-05
5.27429e-06
4.26372e-05
4.28696e-05
4.2562e-05
4.27019e-05
4.19897e-05
4.22464e-05
4.29426e-05
4.27078e-05
4.28049e-05
4.2662e-05
5.28156e-06
4.25653e-05
4.27186e-05
4.25894e-05
4.27846e-05
4.22784e-05
4.24481e-05
4.28291e-05
4.26823e-05
4.29951e-05
4.27139e-05
4.23369e-05
5.31172e-06
4.25718e-05
5.32335e-06
4.2433e-05
5.31169e-06
4.24508e-05
5.32453e-06
4.24409e-05
5.33819e-06
4.25255e-05
5.32505e-06
4.2444e-05
4.2665e-05
4.28649e-05
4.22871e-05
4.25736e-05
4.27031e-05
4.25324e-05
4.28955e-05
4.276e-05
4.23788e-05
4.27191e-05
4.26403e-05
5.32229e-06
4.24329e-05
5.31152e-06
4.25258e-05
5.31407e-06
4.24424e-05
5.31125e-06
4.25092e-05
5.32492e-06
4.24465e-05
5.32816e-06
4.24744e-05
5.32441e-06
4.24387e-05
4.25622e-05
4.26882e-05
4.22814e-05
4.25472e-05
4.26714e-05
4.23646e-05
4.27026e-05
4.26226e-05
4.23476e-05
4.26832e-05
4.25952e-05
5.31439e-06
4.24519e-05
5.31102e-06
4.26242e-05
5.32419e-06
4.25419e-05
5.32255e-06
4.24695e-05
5.32402e-06
4.24352e-05
5.33768e-06
4.24717e-05
5.33516e-06
4.24403e-05
4.25449e-05
4.26713e-05
4.23143e-05
4.25288e-05
4.26853e-05
4.23475e-05
4.26825e-05
4.25901e-05
4.23724e-05
4.26954e-05
4.25679e-05
5.33149e-06
4.26099e-05
5.33012e-06
4.24229e-05
4.23833e-05
4.23807e-05
4.23769e-05
4.24756e-05
5.34248e-06
4.24525e-05
4.25296e-05
4.2426e-05
4.25187e-05
4.2423e-05
4.25068e-05
4.26537e-05
4.23843e-05
4.32113e-05
4.24723e-05
4.24946e-05
4.23767e-05
4.26637e-05
4.25438e-05
4.32155e-05
4.24186e-05
4.25003e-05
4.24968e-05
5.53522e-06
6.65057e-07
5.32079e-06
5.3251e-06
5.39281e-06
5.56666e-06
6.80287e-07
6.51222e-07
4.25878e-05
5.23271e-06
5.36306e-06
5.30862e-06
5.32105e-06
4.26794e-05
4.23089e-05
4.24261e-05
4.25523e-05
4.24921e-05
4.25305e-05
4.25873e-05
4.25601e-05
4.25688e-05
5.2789e-06
5.27944e-06
4.23693e-05
5.28669e-06
4.23708e-05
4.30598e-05
6.78116e-07
5.34802e-06
4.29675e-05
5.34044e-06
6.79607e-07
4.2481e-05
4.25504e-05
4.25104e-05
4.25633e-05
4.25709e-05
4.25527e-05
4.25753e-05
5.28454e-06
5.27436e-06
4.23382e-05
5.27919e-06
4.23503e-05
4.3185e-05
6.79723e-07
5.34269e-06
4.31407e-05
5.35051e-06
6.79901e-07
4.2525e-05
4.25009e-05
4.23946e-05
4.25408e-05
4.25435e-05
4.25095e-05
4.24523e-05
5.27671e-06
4.26042e-05
5.33474e-06
4.25322e-05
3.36874e-08
6.81084e-07
5.42988e-06
5.44826e-06
3.25171e-08
4.24019e-05
4.23591e-05
4.2395e-05
4.24125e-05
4.24186e-05
4.23612e-05
4.24005e-05
4.2507e-05
4.25056e-05
4.25682e-05
4.24354e-05
4.25119e-05
4.25124e-05
4.25712e-05
4.25954e-05
4.26029e-05
4.2592e-05
4.27003e-05
4.26024e-05
4.26043e-05
4.25937e-05
5.32105e-06
6.47503e-07
6.69323e-07
5.33456e-06
6.68665e-07
6.47063e-07
4.27512e-05
4.25611e-05
4.26773e-05
4.26378e-05
4.27342e-05
4.25363e-05
4.25899e-05
4.27145e-05
4.28745e-05
4.26996e-05
4.27689e-05
4.27135e-05
4.27796e-05
4.26614e-05
4.2529e-05
4.25127e-05
4.24537e-05
4.2549e-05
4.25235e-05
4.25221e-05
4.24649e-05
4.23381e-05
4.23882e-05
4.25289e-05
4.23184e-05
4.2386e-05
3.36843e-08
5.39307e-06
5.3291e-06
3.36833e-08
5.3865e-06
4.2424e-05
4.23642e-05
4.24043e-05
4.23905e-05
4.2429e-05
4.23603e-05
4.24135e-05
4.25102e-05
4.25142e-05
4.25722e-05
4.24463e-05
4.25137e-05
4.25231e-05
4.25779e-05
4.26056e-05
4.26052e-05
4.25953e-05
4.27016e-05
4.26049e-05
4.26101e-05
4.26004e-05
5.31794e-06
6.47027e-07
6.68637e-07
5.31927e-06
6.68595e-07
6.46984e-07
4.27254e-05
4.25411e-05
4.25876e-05
4.2631e-05
4.27064e-05
4.26014e-05
4.26537e-05
4.27052e-05
4.2776e-05
4.26551e-05
4.27316e-05
4.26745e-05
4.28289e-05
4.2648e-05
4.25315e-05
4.25254e-05
4.24743e-05
4.25594e-05
4.2593e-05
4.25317e-05
4.25382e-05
4.23137e-05
4.24018e-05
4.25484e-05
4.23252e-05
4.24182e-05
3.3685e-08
5.38543e-06
5.32873e-06
3.36849e-08
5.38527e-06
4.24288e-05
4.23576e-05
4.24151e-05
4.23834e-05
4.24271e-05
4.23584e-05
4.24179e-05
4.25177e-05
4.25277e-05
4.25812e-05
4.25189e-05
4.25959e-05
4.25378e-05
4.25923e-05
4.26029e-05
4.26123e-05
4.26006e-05
4.27702e-05
4.26054e-05
4.26199e-05
4.25955e-05
5.31845e-06
6.4702e-07
6.68605e-07
5.31805e-06
6.68645e-07
6.47019e-07
4.26931e-05
4.26313e-05
4.27154e-05
4.25616e-05
4.26035e-05
4.2484e-05
4.24766e-05
4.26578e-05
4.28799e-05
4.26375e-05
4.26188e-05
4.25871e-05
4.25773e-05
4.2519e-05
4.26212e-05
4.25276e-05
4.25629e-05
4.25218e-05
4.2481e-05
4.24999e-05
4.24401e-05
4.25483e-05
4.26246e-05
4.27282e-05
4.27333e-05
4.27851e-05
3.26299e-08
5.39513e-06
5.35891e-06
3.3686e-08
5.39909e-06
4.24275e-05
4.23654e-05
4.24202e-05
4.24157e-05
4.24469e-05
4.24095e-05
4.2445e-05
4.26632e-05
4.25362e-05
4.25903e-05
4.24332e-05
4.24479e-05
4.25105e-05
4.25421e-05
4.26027e-05
4.2616e-05
4.25883e-05
4.25518e-05
4.25052e-05
4.25585e-05
4.25472e-05
5.27759e-06
6.47966e-07
6.69582e-07
6.7102e-07
5.32867e-06
6.54336e-07
6.43034e-07
4.24935e-05
4.24102e-05
4.24836e-05
4.2485e-05
4.25064e-05
4.24786e-05
4.2503e-05
4.24686e-05
4.25647e-05
4.24644e-05
4.2518e-05
4.2503e-05
4.25144e-05
4.25016e-05
4.22626e-05
4.17137e-05
5.31931e-06
5.26776e-06
5.29744e-06
4.22155e-05
4.20338e-05
5.55478e-06
6.80205e-07
6.50956e-07
5.48988e-06
5.31684e-06
4.21898e-05
5.32956e-06
5.29139e-06
5.52206e-06
5.34848e-06
5.59451e-06
5.28649e-06
5.46094e-06
6.469e-07
6.69164e-07
6.7764e-07
5.32966e-06
6.51666e-07
5.54833e-06
6.69242e-07
5.35018e-06
5.34577e-06
5.3984e-06
5.54725e-06
6.77562e-07
5.35474e-06
5.59871e-06
4.27602e-05
5.51235e-06
5.35668e-06
5.17212e-06
4.22141e-05
5.34993e-06
4.24217e-05
5.47101e-06
6.47226e-07
6.69128e-07
6.77706e-07
5.33701e-06
6.51988e-07
5.27286e-06
5.3399e-06
5.28042e-06
5.33062e-06
5.2795e-06
5.27787e-06
4.23396e-05
4.23515e-05
5.27921e-06
5.2736e-06
5.33248e-06
5.33201e-06
5.27313e-06
4.30947e-05
6.79731e-07
5.34239e-06
5.34197e-06
4.31157e-05
6.79593e-07
5.27874e-06
5.33273e-06
5.27315e-06
5.33995e-06
5.28549e-06
5.27487e-06
4.24666e-05
4.23852e-05
5.31817e-06
5.28003e-06
5.39367e-06
5.34176e-06
5.32428e-06
4.32791e-05
6.80976e-07
5.40961e-06
5.35261e-06
4.35067e-05
6.79875e-07
5.41228e-06
5.3445e-06
4.20555e-05
4.22271e-05
4.24162e-05
4.23262e-05
4.22239e-05
5.29875e-06
5.31234e-06
5.29795e-06
4.2635e-05
4.23893e-05
4.23989e-05
4.25702e-05
4.24343e-05
5.38188e-06
5.30941e-06
5.34619e-06
4.24323e-05
4.23156e-05
4.22001e-05
4.23238e-05
4.22063e-05
5.31202e-06
5.29702e-06
5.29764e-06
6.80586e-08
5.25692e-06
4.19998e-05
4.25581e-05
4.3408e-05
4.20073e-05
7.86171e-08
3.375e-08
5.38015e-06
5.32549e-06
5.38126e-06
3.25073e-08
6.82391e-08
4.19411e-05
4.31666e-05
4.24452e-05
4.19492e-05
4.31726e-05
7.89083e-08
3.36871e-08
5.39984e-06
5.39363e-06
5.42703e-06
3.36827e-08
6.8059e-08
4.255e-05
4.32917e-05
4.19562e-05
4.33751e-05
4.19768e-05
6.80535e-08
3.37501e-08
5.32523e-06
5.38164e-06
5.38135e-06
3.37505e-08
6.82392e-08
4.24441e-05
4.19342e-05
4.31691e-05
4.19402e-05
4.31689e-05
6.82482e-08
5.31582e-06
6.47189e-07
6.69358e-07
5.32817e-06
6.68704e-07
6.46774e-07
5.31731e-06
6.46803e-07
6.6864e-07
6.6878e-07
5.31452e-06
6.4685e-07
5.32206e-06
6.46986e-07
6.68605e-07
6.68742e-07
5.31864e-06
6.47132e-07
5.30934e-06
5.31496e-06
5.30216e-06
4.23139e-05
4.21982e-05
4.2434e-05
4.23152e-05
4.21988e-05
5.29693e-06
5.31135e-06
5.29694e-06
4.25243e-05
4.23096e-05
4.23923e-05
4.23108e-05
4.23876e-05
5.31558e-06
5.30154e-06
5.30314e-06
4.24371e-05
4.23241e-05
4.22048e-05
4.23185e-05
4.22008e-05
5.31123e-06
5.29749e-06
5.29687e-06
6.80557e-08
4.3253e-05
4.19503e-05
4.24971e-05
6.80538e-08
4.32329e-05
4.19466e-05
3.37506e-08
5.38187e-06
5.32467e-06
3.3751e-08
5.38183e-06
6.82405e-08
4.19349e-05
4.31724e-05
4.24472e-05
6.82489e-08
4.19345e-05
4.31736e-05
3.36846e-08
5.32968e-06
5.38504e-06
5.38716e-06
3.36848e-08
6.80565e-08
4.24838e-05
4.32076e-05
4.19269e-05
4.32161e-05
4.19361e-05
6.80541e-08
3.37504e-08
5.32457e-06
5.38131e-06
5.38167e-06
3.37507e-08
6.82389e-08
4.24435e-05
4.19183e-05
4.31648e-05
4.19267e-05
4.31694e-05
6.82343e-08
5.31444e-06
6.46828e-07
6.68672e-07
5.31534e-06
6.68627e-07
6.468e-07
5.31487e-06
6.46812e-07
6.68628e-07
6.6864e-07
5.3147e-06
6.46812e-07
5.31826e-06
6.47e-07
6.68598e-07
6.68607e-07
5.3178e-06
6.47024e-07
5.30212e-06
5.31473e-06
5.30345e-06
4.23337e-05
4.22111e-05
4.24684e-05
4.23503e-05
4.2223e-05
5.29728e-06
5.31203e-06
5.29922e-06
4.25761e-05
4.2409e-05
4.25041e-05
4.23508e-05
4.24472e-05
5.31529e-06
5.31428e-06
5.30414e-06
4.24971e-05
4.24367e-05
4.2294e-05
4.23804e-05
4.22465e-05
5.31249e-06
5.30961e-06
5.29938e-06
6.80368e-08
4.32041e-05
4.19225e-05
4.24659e-05
6.80531e-08
4.32018e-05
4.19175e-05
3.37499e-08
5.38063e-06
5.32494e-06
3.37506e-08
5.38102e-06
6.8209e-08
4.19134e-05
4.31603e-05
4.24319e-05
6.82323e-08
4.19074e-05
4.31583e-05
3.36844e-08
5.32919e-06
5.39104e-06
5.38556e-06
3.36861e-08
6.80355e-08
4.24665e-05
4.32221e-05
4.19173e-05
4.32057e-05
4.19139e-05
6.80219e-08
3.37494e-08
5.3255e-06
5.38726e-06
5.38097e-06
3.37499e-08
6.82086e-08
4.24331e-05
4.1906e-05
4.31817e-05
4.19029e-05
4.31631e-05
6.81924e-08
5.3156e-06
6.46823e-07
6.68635e-07
5.315e-06
6.68671e-07
6.46868e-07
5.31632e-06
6.47412e-07
6.69242e-07
6.68694e-07
5.32129e-06
6.4688e-07
5.31917e-06
6.47594e-07
6.69213e-07
6.68665e-07
5.32411e-06
6.47034e-07
5.32094e-06
5.3463e-06
5.33738e-06
4.25503e-05
4.2425e-05
4.26483e-05
4.27255e-05
4.26374e-05
5.31663e-06
5.34567e-06
5.33398e-06
7.40277e-08
4.25156e-05
4.23193e-05
4.23409e-05
4.23733e-05
4.24303e-05
4.2179e-05
9.8512e-08
5.31579e-06
4.23033e-05
4.26789e-05
5.31113e-06
7.82551e-08
4.24422e-05
7.39187e-08
4.24547e-05
4.23223e-05
4.22835e-05
4.23965e-05
4.23072e-05
4.2171e-05
9.91684e-08
5.31547e-06
4.26811e-05
4.22905e-05
7.82613e-08
5.30806e-06
4.24464e-05
3.47106e-08
4.32382e-05
4.19351e-05
4.2445e-05
6.80207e-08
4.31247e-05
4.19827e-05
3.72855e-08
5.3915e-06
5.35815e-06
3.37499e-08
5.39943e-06
3.29378e-08
4.19266e-05
4.32083e-05
4.24413e-05
6.81921e-08
4.19992e-05
4.31333e-05
7.14277e-08
5.32835e-06
4.27575e-05
4.27688e-05
4.30588e-05
8.1381e-08
4.29662e-05
6.62282e-08
4.23932e-05
4.25595e-05
4.22738e-05
4.27311e-05
4.20408e-05
4.23958e-05
7.69649e-08
5.32742e-06
4.27656e-05
4.27477e-05
8.13973e-08
4.30585e-05
4.29611e-05
6.91764e-08
4.23951e-05
4.22761e-05
4.25571e-05
4.20595e-05
4.27421e-05
4.23964e-05
5.27419e-06
6.47788e-07
6.69611e-07
6.71037e-07
5.32574e-06
6.54409e-07
6.42772e-07
7.06645e-07
6.32705e-07
6.68084e-07
6.79941e-07
5.2598e-06
1.13222e-07
6.93455e-08
6.49664e-07
6.24233e-07
5.29211e-06
5.31586e-06
6.65724e-07
6.67896e-07
6.6387e-07
6.68652e-07
4.24623e-05
4.23597e-05
4.24618e-05
4.26283e-05
4.25344e-05
4.26018e-05
4.25196e-05
6.6649e-07
6.68973e-07
6.66356e-07
6.69061e-07
4.24621e-05
4.24295e-05
4.24268e-05
4.26114e-05
4.25127e-05
4.255e-05
4.24512e-05
6.85117e-07
6.72985e-07
6.70771e-07
6.9719e-07
4.24664e-05
4.25245e-05
4.26063e-05
4.24746e-05
4.23716e-05
4.25222e-05
4.25502e-05
4.26007e-05
5.24694e-06
4.25601e-05
4.23289e-05
4.26693e-05
4.24813e-05
5.24145e-06
4.25373e-05
4.26912e-05
4.25562e-05
4.24564e-05
4.25336e-05
4.26179e-05
4.25628e-05
4.28198e-05
4.261e-05
4.27408e-05
4.26074e-05
4.26921e-05
4.26585e-05
4.27609e-05
4.27324e-05
4.27978e-05
4.26995e-05
4.27062e-05
4.26669e-05
4.27834e-05
4.27198e-05
4.2363e-05
4.25186e-05
4.25405e-05
4.24614e-05
4.23567e-05
4.25089e-05
4.25258e-05
4.25553e-05
5.24059e-06
4.24203e-05
4.22797e-05
4.25572e-05
4.24165e-05
5.24053e-06
4.25261e-05
4.26026e-05
4.25582e-05
4.2418e-05
4.25083e-05
4.25753e-05
4.2542e-05
4.26755e-05
4.26565e-05
4.27519e-05
4.25783e-05
4.26509e-05
4.26412e-05
4.27223e-05
4.2651e-05
4.2772e-05
4.27116e-05
4.26609e-05
4.26207e-05
4.27372e-05
4.26783e-05
4.23579e-05
4.25056e-05
4.25228e-05
4.24541e-05
4.23663e-05
4.2494e-05
4.25051e-05
4.25655e-05
5.2409e-06
4.24178e-05
4.22905e-05
4.25593e-05
4.24222e-05