/*--------------------------------*- C++ -*----------------------------------*\
| =========                 |                                                 |
| \\      /  F ield         | OpenFOAM: The Open Source CFD Toolbox           |
|  \\    /   O peration     | Version:  2012                                  |
|   \\  /    A nd           | Website:  www.openfoam.com                      |
|    \\/     M anipulation  |                                                 |
\*---------------------------------------------------------------------------*/
FoamFile
{
    version     2.0;
    format      ascii;
    class       volVectorField;
    location    "0.106/fluid";
    object      cellMotionU;
}
// * * * * * * * * * * * * * * * * * * * * * * * * * * * * * * * * * * * * * //

dimensions      [0 1 -1 0 0 0 0];


internalField   nonuniform List<vector> 
16422
(
(8.08459e-07 -2.0655e-06 2.00618e-07)
(7.80767e-06 9.04095e-06 -2.90129e-07)
(4.10351e-05 3.78382e-05 -9.49556e-07)
(7.84891e-05 8.24863e-05 2.9081e-07)
(0.000105677 0.000146828 1.41662e-06)
(0.000132307 0.000220608 1.65389e-06)
(0.000166009 0.000291053 1.24365e-06)
(0.000205035 0.000346348 7.90609e-07)
(0.000244456 0.000376054 4.51504e-07)
(0.000277928 0.000374021 2.16769e-07)
(0.000299573 0.000347588 4.93694e-08)
(0.000300008 0.000305753 -7.29434e-08)
(0.000266028 0.000248035 -1.47056e-07)
(0.000190931 0.000172793 -1.32277e-07)
(8.90041e-05 7.991e-05 -5.83614e-08)
(-3.29123e-06 -1.55417e-06 1.23451e-07)
(9.09694e-06 1.07819e-05 -9.39789e-07)
(4.33043e-05 3.13544e-05 -1.21206e-06)
(8.28175e-05 6.48089e-05 -2.06249e-07)
(0.00011963 0.000114313 8.13245e-07)
(0.000155989 0.000170694 1.06134e-06)
(0.000197158 0.000225522 8.43047e-07)
(0.000240219 0.000267173 5.69799e-07)
(0.000281346 0.000289269 3.41843e-07)
(0.00031566 0.000287414 1.54802e-07)
(0.000337746 0.000266012 -7.24786e-10)
(0.000337038 0.000233057 -1.22099e-07)
(0.000298519 0.000189602 -1.85228e-07)
(0.000213612 0.00013196 -1.51396e-07)
(0.000100042 6.12044e-05 -5.9131e-08)
(-2.59555e-05 3.98739e-07 -2.24967e-07)
(-2.02448e-06 7.68051e-06 -1.58567e-06)
(4.09143e-05 1.86589e-05 -1.83638e-06)
(8.65527e-05 3.63276e-05 -9.8044e-07)
(0.000129497 6.18337e-05 -5.12404e-08)
(0.000171545 9.09937e-05 3.87156e-07)
(0.000215805 0.000118472 4.57927e-07)
(0.000260478 0.000138871 3.71302e-07)
(0.000302199 0.000149156 2.32731e-07)
(0.000336417 0.000147687 8.87774e-08)
(0.000357472 0.000136304 -3.69414e-08)
(0.000354964 0.000118783 -1.45147e-07)
(0.000313561 9.63257e-05 -1.98144e-07)
(0.000226732 6.76919e-05 -1.54229e-07)
(0.000108027 3.19711e-05 -5.81838e-08)
(-7.07126e-07 -4.45579e-06 9.11255e-07)
(4.60097e-06 1.10755e-05 -2.71535e-06)
(2.40942e-05 3.27617e-05 -7.47694e-06)
(4.4107e-05 7.14179e-05 3.36575e-06)
(6.61121e-05 0.00013563 1.31423e-05)
(9.63936e-05 0.000211353 1.46399e-05)
(0.000136151 0.000283488 1.16539e-05)
(0.00018212 0.000338809 7.92181e-06)
(0.000227606 0.000368814 4.83872e-06)
(0.000265969 0.000368002 2.48075e-06)
(0.000290568 0.000342147 7.90494e-07)
(0.00029266 0.000300386 -4.5986e-07)
(0.000260312 0.000243624 -1.16177e-06)
(0.000187645 0.000170378 -1.09117e-06)
(8.81919e-05 7.94783e-05 -4.99177e-07)
(2.63449e-06 3.16748e-06 1.16691e-06)
(8.03906e-06 1.36309e-05 -8.21201e-06)
(2.77212e-05 2.69928e-05 -1.05297e-05)
(5.22036e-05 5.55166e-05 -1.95059e-06)
(8.36844e-05 0.000105255 6.73072e-06)
(0.000121861 0.000164046 8.92627e-06)
(0.000167551 0.000219513 7.49222e-06)
(0.000216721 0.000261652 5.23987e-06)
(0.000263459 0.00028372 3.25663e-06)
(0.000301901 0.000282395 1.61742e-06)
(0.000326367 0.000261397 2.40249e-07)
(0.000327534 0.000227946 -9.11553e-07)
(0.000290754 0.000185557 -1.51796e-06)
(0.000209192 0.00012986 -1.29881e-06)
(9.7669e-05 6.00174e-05 -5.27644e-07)
(-9.6606e-06 5.99046e-06 -1.90058e-06)
(3.69262e-06 1.02729e-05 -1.36938e-05)
(2.95999e-05 1.65478e-05 -1.61483e-05)
(6.0614e-05 3.12571e-05 -9.01812e-06)
(9.69113e-05 5.6686e-05 -1.1327e-06)
(0.000139395 8.70573e-05 2.78902e-06)
(0.000187467 0.000115064 3.62397e-06)
(0.000237381 0.000135473 3.08223e-06)
(0.000284016 0.000145552 2.0369e-06)
(0.000321592 0.000144239 8.97578e-07)
(0.000344819 0.000133276 -1.51571e-07)
(0.000344437 0.000116027 -1.11316e-06)
(0.000305331 9.39672e-05 -1.65742e-06)
(0.000219567 6.5743e-05 -1.32294e-06)
(0.000103723 3.06215e-05 -5.12503e-07)
(-1.53924e-06 2.20565e-06 5.05534e-07)
(-3.49506e-06 1.76309e-05 -6.33065e-06)
(-1.69342e-05 2.41661e-05 -1.28562e-05)
(-3.45301e-05 5.07734e-05 5.88544e-06)
(-2.34579e-05 0.000113527 2.12866e-05)
(1.65545e-05 0.000193548 2.37751e-05)
(7.14937e-05 0.000267739 1.9445e-05)
(0.000132461 0.000322386 1.37562e-05)
(0.000190015 0.00035048 8.89018e-06)
(0.000238459 0.000350198 4.91223e-06)
(0.000269516 0.000326648 1.95859e-06)
(0.000276647 0.000286119 -3.31091e-07)
(0.000248132 0.000232298 -1.59843e-06)
(0.000179616 0.000162657 -1.60325e-06)
(8.58812e-05 7.76085e-05 -7.7449e-07)
(1.03534e-05 1.0657e-05 1.29839e-06)
(5.87727e-07 1.75184e-05 -1.49124e-05)
(-1.24267e-05 1.81619e-05 -1.8371e-05)
(-1.90693e-05 3.7958e-05 -3.45516e-06)
(-9.38285e-08 8.59375e-05 9.32455e-06)
(4.43013e-05 0.000149089 1.32103e-05)
(0.000102433 0.000206756 1.18131e-05)
(0.000165472 0.000248224 8.76585e-06)
(0.000224097 0.000268536 5.80238e-06)
(0.000271037 0.000266972 3.27401e-06)
(0.00030139 0.000247501 1.03877e-06)
(0.000306822 0.000215942 -9.23845e-07)
(0.000274532 0.000175876 -2.07803e-06)
(0.000198071 0.00012305 -1.90565e-06)
(9.32397e-05 5.73462e-05 -8.30355e-07)
(1.2721e-05 1.35491e-05 -2.12734e-06)
(5.70359e-06 1.30703e-05 -2.20997e-05)
(-1.73737e-06 1.19384e-05 -2.68409e-05)
(7.35078e-07 2.2189e-05 -1.59922e-05)
(2.36326e-05 4.71404e-05 -3.8134e-06)
(6.72892e-05 7.91654e-05 2.90748e-06)
(0.00012405 0.00010801 5.07246e-06)
(0.000185384 0.000128038 4.86121e-06)
(0.000242665 0.000137467 3.62627e-06)
(0.000288219 0.000135886 2.1135e-06)
(0.000317035 0.000125269 5.2112e-07)
(0.000321491 0.000109068 -1.15336e-06)
(0.000287642 8.84679e-05 -2.24603e-06)
(0.000206753 6.1728e-05 -1.94277e-06)
(9.76691e-05 2.88154e-05 -8.17429e-07)
(4.32841e-07 -1.54799e-06 1.11278e-07)
(2.44602e-06 3.72753e-06 1.06075e-07)
(-1.3636e-06 -6.35558e-06 6.34534e-07)
(1.0483e-06 5.5178e-06 5.95815e-07)
(-1.25104e-06 -6.61076e-06 4.10382e-07)
(-1.72202e-07 6.74423e-06 6.20304e-07)
(-2.39976e-06 -1.72922e-06 -2.19899e-07)
(-3.42192e-06 1.3957e-05 -2.40192e-07)
(-1.87016e-06 4.35216e-07 -3.49728e-07)
(-4.79623e-06 1.64562e-05 -5.47883e-07)
(-3.57682e-08 1.8168e-06 2.05329e-07)
(-4.01939e-09 5.92539e-08 1.99463e-08)
(6.14843e-06 8.19644e-06 -2.10514e-07)
(2.99524e-05 3.00737e-05 -9.84965e-07)
(4.46698e-06 9.7958e-06 -1.45064e-06)
(2.34253e-05 2.85264e-05 -6.28816e-06)
(3.92675e-06 4.54318e-06 2.50658e-08)
(-1.44551e-07 -2.04349e-06 1.54297e-07)
(5.52779e-06 6.61776e-06 -4.7844e-07)
(-3.85204e-07 -4.36086e-06 9.5678e-07)
(2.60733e-06 5.95502e-06 -4.12501e-08)
(1.89728e-06 3.64568e-08 1.14407e-06)
(5.57836e-06 8.81657e-06 -3.29995e-06)
(-2.50245e-07 1.06651e-05 5.98731e-07)
(-2.346e-07 4.36735e-06 3.92817e-07)
(2.92286e-06 1.07496e-05 -1.88344e-06)
(1.78903e-05 2.72268e-05 -7.78957e-06)
(-2.20084e-06 1.67782e-05 -4.06677e-06)
(-2.51836e-06 2.50902e-05 -1.24726e-05)
(1.50539e-06 6.94339e-06 -2.4782e-07)
(3.13577e-06 1.29506e-06 1.36148e-06)
(5.1318e-06 9.93075e-06 -4.25237e-06)
(-1.5062e-06 -2.8957e-07 5.87219e-07)
(-2.19303e-06 1.2602e-05 -1.65136e-06)
(6.15501e-06 6.0006e-06 1.60924e-06)
(2.34702e-06 1.41733e-05 -7.62064e-06)
(-1.36363e-06 2.71182e-05 6.31318e-07)
(-6.14318e-07 2.01083e-05 6.97711e-07)
(-4.20693e-06 1.88956e-05 -4.65268e-06)
(-1.09622e-05 2.42591e-05 -1.35484e-05)
(-3.47235e-06 1.48879e-05 -2.18596e-06)
(7.26996e-06 7.82961e-06 1.41297e-06)
(1.05054e-06 1.55264e-05 -8.69165e-06)
(-1.6796e-07 2.39913e-06 2.08386e-07)
(1.58501e-06 2.81159e-06 1.74033e-07)
(1.29648e-06 3.66833e-06 6.52563e-07)
(-9.76714e-09 9.7176e-08 1.25268e-08)
(-2.89954e-07 1.78885e-06 1.87206e-07)
(3.66928e-07 -6.26861e-08 3.34451e-08)
(-2.25739e-07 -3.17408e-06 6.33006e-07)
(-1.58476e-07 -1.33729e-07 8.68395e-07)
(-1.49336e-08 5.77433e-08 -7.17252e-09)
(-1.73029e-07 2.37377e-06 2.07506e-07)
(1.35933e-06 2.8087e-06 2.40283e-07)
(6.3671e-07 1.15371e-06 2.61692e-07)
(2.2016e-06 4.11926e-06 3.47849e-07)
(1.05213e-06 3.45013e-06 6.70846e-07)
(3.84499e-07 1.43994e-06 6.91306e-07)
(-1.1143e-08 9.62208e-08 8.62186e-09)
(1.30177e-08 1.88388e-06 2.20493e-07)
(-2.18384e-07 4.09383e-06 3.8294e-07)
(-1.2849e-07 2.50908e-06 2.23892e-07)
(5.91779e-08 5.67663e-06 1.41959e-06)
(6.82018e-07 4.53275e-06 1.12781e-06)
(-4.6529e-07 5.22661e-06 3.47665e-07)
(-3.1448e-07 1.86735e-06 1.98192e-07)
(-3.44874e-07 -4.18273e-06 6.20476e-07)
(-1.23652e-06 -3.55172e-07 1.6304e-06)
(-8.52956e-08 -4.6978e-07 9.37343e-07)
(-7.21398e-07 4.04169e-06 2.66356e-07)
(-1.88609e-07 2.49517e-06 2.19571e-07)
(1.70277e-06 4.68344e-06 5.1363e-07)
(-3.65452e-07 5.4213e-06 1.38795e-06)
(-7.08412e-07 2.44047e-06 1.45033e-06)
(3.61635e-07 4.24922e-06 1.15038e-06)
(-1.77534e-07 1.77799e-06 1.13244e-06)
(-4.75529e-07 5.17737e-06 3.44382e-07)
(-5.77896e-07 1.21906e-05 5.11163e-07)
(-4.88018e-07 5.52691e-06 3.52525e-07)
(-1.21561e-06 1.06597e-05 2.66347e-07)
(-8.32515e-07 7.88457e-08 1.42649e-06)
(-2.11172e-06 -5.58206e-06 -4.89993e-08)
(-7.50473e-07 4.31407e-06 2.65748e-07)
(-2.24532e-06 2.739e-06 1.30201e-06)
(-8.6148e-07 1.21883e-05 4.13511e-07)
(-1.61395e-06 6.87701e-06 1.65044e-06)
(-1.56339e-06 3.68185e-06 1.5925e-06)
(-1.29833e-06 8.74822e-06 4.58075e-07)
(-4.98521e-07 5.47651e-06 3.49015e-07)
(-2.72575e-06 9.07417e-06 1.70022e-06)
(-2.31717e-06 5.96685e-06 1.52794e-06)
(-4.05956e-07 1.12004e-05 5.5829e-07)
(-5.89419e-07 1.9544e-05 6.95162e-07)
(-7.50777e-07 1.27415e-05 4.64645e-07)
(-9.95661e-07 2.12698e-05 5.83244e-07)
(-1.24522e-06 1.11626e-05 2.68344e-07)
(-1.81148e-06 -4.40089e-06 -2.78591e-07)
(-3.1147e-06 7.86691e-06 1.37311e-06)
(-1.66885e-06 4.47512e-06 1.10275e-06)
(-1.69628e-06 1.95386e-05 3.13199e-07)
(-9.00618e-07 1.27067e-05 4.12511e-07)
(-2.44888e-06 1.11298e-05 1.4895e-07)
(-5.26818e-06 1.43409e-05 1.50892e-06)
(-3.89421e-06 1.16891e-05 1.49246e-06)
(-4.09293e-06 1.14241e-05 1.70446e-06)
(-3.14494e-06 8.62587e-06 1.44602e-06)
(-1.32081e-06 2.12674e-05 4.71026e-07)
(-1.73914e-06 2.88022e-05 5.86594e-07)
(-1.02249e-06 2.18399e-05 5.87327e-07)
(-2.15968e-06 2.70423e-05 4.67843e-07)
(-2.23888e-06 1.05248e-05 1.1839e-06)
(-2.51025e-06 4.6815e-06 -4.63956e-07)
(-1.72623e-06 2.01028e-05 3.19552e-07)
(-3.45033e-06 1.46793e-05 7.95701e-07)
(-1.75535e-06 2.8729e-05 5.81916e-07)
(-6.72522e-06 1.67766e-05 1.42082e-06)
(-4.69311e-06 1.47823e-05 1.36826e-06)
(-5.86368e-06 1.88386e-05 -8.94617e-07)
(-1.34912e-06 2.18375e-05 4.76227e-07)
(-7.89007e-06 1.91565e-05 1.22758e-06)
(-5.36833e-06 1.77492e-05 1.18074e-06)
(-1.24302e-06 2.73911e-05 6.58914e-07)
(-1.61672e-06 2.90627e-05 6.20466e-07)
(-2.18791e-06 2.73509e-05 4.81677e-07)
(-1.96853e-06 6.42768e-06 -4.4851e-07)
(-2.4462e-06 1.63745e-05 8.28821e-07)
(-1.78573e-06 2.90252e-05 5.89202e-07)
(-6.29555e-06 2.05513e-05 -1.32884e-06)
(-8.78338e-06 2.04526e-05 1.01493e-06)
(-5.73978e-06 1.93733e-05 1.15602e-06)
(3.10684e-08 1.14839e-06 1.39007e-07)
(2.4839e-08 1.02422e-06 1.30246e-07)
(-1.40217e-07 7.25713e-06 5.42702e-07)
(-1.26108e-07 6.82019e-06 5.31908e-07)
(-1.14842e-06 2.43467e-05 6.18202e-07)
(-9.61721e-07 2.38376e-05 6.62125e-07)
(-4.18551e-07 2.22323e-06 1.42557e-06)
(-3.07614e-08 1.4287e-06 1.27897e-07)
(-2.88688e-08 1.699e-06 9.59557e-07)
(-2.90282e-08 1.26691e-06 1.15862e-07)
(1.88142e-07 9.00574e-07 1.77861e-07)
(3.60151e-08 1.22607e-06 7.06301e-07)
(-1.89455e-07 -5.31853e-07 2.99219e-07)
(-1.30917e-07 4.22803e-07 1.34503e-07)
(-1.40505e-07 1.14509e-06 8.54684e-08)
(-7.47397e-08 4.64267e-07 9.59623e-08)
(-5.22709e-07 -1.22883e-06 4.76058e-07)
(-1.8685e-07 -5.06812e-07 3.04154e-07)
(2.1937e-09 -3.78699e-07 9.5844e-08)
(-2.55226e-07 -1.10331e-06 5.90674e-07)
(1.77035e-08 -2.34439e-07 5.9056e-09)
(-2.14441e-07 -8.00304e-07 3.34105e-07)
(-7.53258e-07 -3.59299e-06 9.00281e-07)
(-3.59984e-07 -1.64801e-06 7.33725e-07)
(-6.81787e-07 -1.64373e-06 5.51956e-07)
(-1.73328e-07 -3.06429e-07 2.6715e-07)
(-1.23189e-07 1.02099e-06 6.86658e-08)
(4.66414e-08 1.95829e-07 -4.49754e-09)
(-2.72732e-08 3.75435e-07 4.86042e-08)
(3.54649e-10 -1.38802e-07 -1.16674e-08)
(1.59263e-07 1.8387e-06 5.88707e-07)
(-6.40929e-07 2.21398e-06 1.49107e-06)
(-4.63546e-07 1.44613e-06 9.01846e-07)
(-8.11606e-08 1.4276e-06 1.12167e-07)
(-2.39684e-07 1.7209e-06 1.02252e-06)
(-1.99313e-07 1.14897e-06 6.07445e-07)
(-3.52074e-07 2.21092e-06 1.10772e-06)
(1.23021e-07 1.55724e-06 5.74662e-07)
(-7.25111e-08 1.26584e-06 9.77695e-08)
(1.22261e-07 9.39712e-07 1.76896e-07)
(3.89852e-08 5.91585e-07 8.70709e-08)
(-9.64014e-08 1.26989e-06 7.35715e-07)
(-1.11211e-07 8.63721e-07 4.39389e-07)
(2.97323e-07 1.29571e-06 9.13746e-09)
(-1.05442e-07 2.5851e-06 2.97925e-07)
(-1.17636e-07 2.7181e-06 3.08768e-07)
(-7.62892e-07 2.6684e-06 1.76544e-06)
(-3.06215e-07 3.47428e-06 2.92137e-07)
(-1.35143e-06 3.1421e-06 2.21495e-06)
(-3.25944e-07 3.64099e-06 3.0015e-07)
(-2.22416e-06 4.37998e-06 2.72079e-06)
(-1.53848e-06 3.68551e-06 2.39578e-06)
(-1.01118e-06 -2.1907e-06 4.9356e-07)
(-2.40952e-07 3.29895e-07 1.73777e-07)
(-4.96715e-07 2.54363e-06 2.51567e-07)
(-5.45811e-07 -1.55879e-06 4.34011e-07)
(-3.26128e-07 3.34572e-07 1.64879e-07)
(-1.16744e-06 -3.23647e-06 3.75595e-07)
(-1.80689e-06 -7.95225e-06 3.07458e-07)
(-1.4563e-06 -6.85636e-06 6.69456e-07)
(-1.79674e-06 -3.45107e-06 3.4197e-07)
(-1.2025e-06 -2.92448e-06 4.64248e-07)
(-8.78786e-07 -4.34982e-06 9.19496e-07)
(-1.32522e-06 -6.34724e-06 7.9139e-07)
(-6.78462e-07 -2.13597e-06 5.03971e-07)
(-9.88539e-07 -2.35122e-06 3.93678e-07)
(-5.24043e-07 2.67517e-06 2.55825e-07)
(-3.87132e-07 9.65539e-07 5.4453e-08)
(-3.53998e-07 5.17308e-07 1.05588e-07)
(-1.34489e-06 -2.39084e-06 2.91941e-07)
(-9.46929e-07 3.00572e-06 1.5515e-06)
(-9.21957e-07 2.64041e-06 1.76776e-06)
(-6.24713e-07 1.64091e-06 1.05505e-06)
(-3.14131e-07 3.4356e-06 2.90451e-07)
(-3.31372e-07 2.4721e-06 1.13028e-06)
(-1.51937e-06 3.10802e-06 2.189e-06)
(-9.92938e-07 1.93279e-06 1.29352e-06)
(-9.23351e-07 3.45153e-06 1.54496e-06)
(-3.34177e-07 3.60085e-06 2.98308e-07)
(-2.61927e-06 4.32818e-06 2.72414e-06)
(-1.64292e-06 2.94187e-06 1.56938e-06)
(-1.85365e-06 3.63774e-06 2.38881e-06)
(-1.16111e-06 2.29528e-06 1.37439e-06)
(-1.92445e-06 3.92147e-06 1.91109e-06)
(-4.30246e-07 8.61682e-06 4.69784e-07)
(-4.68836e-06 8.25312e-06 3.5003e-06)
(-3.78665e-06 7.21306e-06 3.33056e-06)
(-4.1029e-07 8.15538e-06 4.62721e-07)
(-2.6439e-06 5.17957e-06 2.91798e-06)
(-3.54515e-06 5.85896e-06 3.23709e-06)
(-1.74346e-06 -7.16625e-07 -2.28769e-08)
(-9.94168e-07 7.25207e-06 2.56937e-07)
(-5.1254e-07 6.2108e-06 -2.77406e-07)
(-4.88109e-07 4.40744e-06 -2.11114e-07)
(-1.95804e-06 1.36699e-06 -2.42972e-07)
(-2.2244e-06 -2.55582e-06 -3.61288e-08)
(-1.83681e-06 -8.2255e-06 1.9215e-07)
(-1.65185e-06 -3.39976e-06 1.80164e-07)
(-2.14147e-06 -8.1743e-06 -1.92109e-07)
(-1.70462e-06 -1.21574e-06 2.78311e-08)
(-9.62791e-07 6.81516e-06 2.57604e-07)
(-4.53301e-07 1.73495e-06 -1.82924e-08)
(-1.31969e-06 -2.22611e-06 1.70478e-07)
(-4.57497e-07 2.89847e-06 -1.30233e-07)
(-2.11084e-06 -2.01174e-06 -1.8901e-07)
(-2.3524e-06 -6.76272e-06 -6.89809e-07)
(-2.19679e-06 -8.04643e-06 -2.89875e-07)
(-2.66856e-06 -4.03247e-07 -3.15415e-07)
(-2.91597e-06 7.31242e-06 2.07077e-06)
(-6.811e-07 8.6147e-06 3.85827e-07)
(-5.39685e-06 8.20606e-06 3.46257e-06)
(-3.2199e-06 7.6172e-06 1.8182e-06)
(-4.42882e-06 7.18482e-06 3.28944e-06)
(-2.62895e-06 6.19727e-06 1.73781e-06)
(-4.06834e-06 7.99591e-06 2.23222e-06)
(-3.01609e-06 5.63802e-06 2.1573e-06)
(-6.56071e-07 8.15328e-06 3.82131e-07)
(-3.12437e-06 5.14167e-06 2.9184e-06)
(-1.90717e-06 3.75956e-06 1.6255e-06)
(-1.92569e-06 4.87303e-06 1.87179e-06)
(-4.00259e-06 5.87849e-06 3.1865e-06)
(-2.42334e-06 4.71617e-06 1.72654e-06)
(-7.00099e-07 1.50074e-05 5.52518e-07)
(-7.2386e-07 1.55794e-05 5.57798e-07)
(-5.20897e-06 9.58246e-06 3.58867e-06)
(-1.06947e-06 1.66512e-05 4.45561e-07)
(-6.27674e-06 1.05389e-05 3.7388e-06)
(-1.09672e-06 1.7237e-05 4.49503e-07)
(-7.71439e-06 1.32921e-05 3.8394e-06)
(-6.63019e-06 1.21664e-05 3.77442e-06)
(-2.2393e-06 4.71369e-06 -3.66737e-07)
(-4.8503e-07 8.17314e-06 -3.43638e-07)
(-1.45434e-06 1.49329e-05 2.78449e-07)
(-1.96753e-06 2.18947e-06 -3.23445e-07)
(-4.55683e-07 1.03046e-05 -3.93058e-07)
(-2.79271e-06 3.95314e-06 -5.98854e-07)
(-2.2538e-06 -7.46993e-07 -1.21189e-06)
(-2.35309e-06 -3.35842e-06 -1.07756e-06)
(-3.37217e-06 6.28062e-06 -5.09033e-07)
(-2.95073e-06 2.8605e-06 -5.70527e-07)
(-2.30908e-06 -6.24618e-06 -7.7587e-07)
(-2.35511e-06 -4.24736e-06 -9.88997e-07)
(-2.49388e-06 4.93987e-07 -4.34983e-07)
(-2.21728e-06 5.72523e-06 -4.09172e-07)
(-1.48488e-06 1.55044e-05 2.80954e-07)
(-3.77625e-07 1.49174e-05 -4.03288e-07)
(-4.36017e-07 1.2545e-05 -4.15674e-07)
(-2.42702e-06 8.61785e-06 -4.01894e-07)
(-5.12196e-06 1.10397e-05 2.24449e-06)
(-5.89757e-06 9.62307e-06 3.52717e-06)
(-3.41861e-06 9.34421e-06 1.81185e-06)
(-1.08487e-06 1.65798e-05 4.38834e-07)
(-3.9381e-06 9.98584e-06 2.1405e-06)
(-6.97955e-06 1.05697e-05 3.67091e-06)
(-4.03848e-06 1.08359e-05 1.87888e-06)
(-4.9795e-06 1.32665e-05 2.18256e-06)
(-1.11225e-06 1.7165e-05 4.42716e-07)
(-8.57497e-06 1.32285e-05 3.79328e-06)
(-4.87742e-06 1.45114e-05 1.95243e-06)
(-7.50491e-06 1.20837e-05 3.71559e-06)
(-4.25279e-06 1.27535e-05 1.89031e-06)
(-6.3484e-06 1.39231e-05 2.27797e-06)
(-1.56256e-06 2.60848e-05 5.31676e-07)
(-1.07628e-05 1.76826e-05 3.889e-06)
(-9.75956e-06 1.67657e-05 3.94963e-06)
(-1.36057e-06 2.55792e-05 5.75979e-07)
(-8.24713e-06 1.46403e-05 3.89146e-06)
(-9.49758e-06 1.5259e-05 3.96676e-06)
(-2.44451e-06 1.38314e-05 -3.52451e-07)
(-1.96116e-06 2.42682e-05 3.87864e-07)
(-3.83271e-08 2.34846e-05 -3.08595e-07)
(-1.1064e-07 2.16847e-05 -3.70704e-07)
(-2.43659e-06 1.65223e-05 -2.63515e-07)
(-3.45364e-06 1.05119e-05 -5.80781e-07)
(-2.08742e-06 2.52798e-07 -1.21833e-06)
(-3.01247e-06 7.65292e-06 -5.51516e-07)
(-1.98404e-06 3.17787e-06 -1.20504e-06)
(-2.47517e-06 1.28278e-05 -3.89888e-07)
(-1.93236e-06 2.37958e-05 3.77584e-07)
(-2.87729e-07 1.72627e-05 -4.07761e-07)
(-2.25325e-06 9.87748e-06 -4.50755e-07)
(-1.78059e-07 1.95848e-05 -4.04556e-07)
(-3.18407e-06 1.17749e-05 -5.90842e-07)
(-1.7124e-06 6.59401e-06 -1.01526e-06)
(-1.89422e-06 4.04794e-06 -1.14324e-06)
(-3.58584e-06 1.39298e-05 -3.99833e-07)
(-7.29145e-06 1.91719e-05 2.15329e-06)
(-1.57912e-06 2.60093e-05 5.257e-07)
(-1.19627e-05 1.73761e-05 3.87409e-06)
(-6.58156e-06 2.08296e-05 2.02371e-06)
(-1.08659e-05 1.66288e-05 3.90431e-06)
(-5.92454e-06 1.9631e-05 2.01065e-06)
(-8.66787e-06 1.9285e-05 2.18549e-06)
(-7.51676e-06 1.70122e-05 2.23686e-06)
(-1.53456e-06 2.55403e-05 5.23814e-07)
(-9.1642e-06 1.45875e-05 3.84148e-06)
(-5.074e-06 1.64183e-05 1.9653e-06)
(-6.21053e-06 1.60879e-05 2.23596e-06)
(-1.03835e-05 1.52221e-05 3.91537e-06)
(-5.73915e-06 1.77759e-05 2.00216e-06)
(-1.33905e-06 2.86228e-05 6.40116e-07)
(-1.37696e-06 2.8659e-05 6.3177e-07)
(-1.12476e-05 1.82733e-05 3.87439e-06)
(-1.69527e-06 3.01929e-05 6.57678e-07)
(-1.23584e-05 1.81434e-05 3.7996e-06)
(-1.744e-06 3.02117e-05 6.5784e-07)
(-1.22295e-05 1.83556e-05 3.67458e-06)
(-2.49791e-06 1.87362e-05 3.56314e-09)
(9.63276e-08 2.48667e-05 -2.10919e-07)
(-2.38553e-06 2.86184e-05 5.93437e-07)
(-2.34546e-06 1.72775e-05 -2.1676e-07)
(2.42568e-07 2.58297e-05 -9.45466e-08)
(-3.3949e-06 1.6778e-05 -3.81779e-08)
(-1.20827e-06 9.17139e-06 -4.24235e-07)
(-3.5815e-06 1.62855e-05 -1.32646e-07)
(-1.52707e-06 7.3501e-06 -8.99998e-07)
(-1.27759e-06 8.87326e-06 -5.2471e-07)
(-3.25953e-06 1.48698e-05 -3.32202e-07)
(-2.23982e-06 1.94471e-05 -1.13545e-08)
(-2.41343e-06 2.86549e-05 6.10282e-07)
(3.89287e-07 2.62901e-05 1.7354e-08)
(-9.20918e-06 2.0689e-05 2.06594e-06)
(-1.24774e-05 1.78615e-05 3.9049e-06)
(-6.71968e-06 2.17068e-05 2.09649e-06)
(-2.00268e-06 3.01909e-05 6.4395e-07)
(-8.34584e-06 2.0434e-05 2.20096e-06)
(-1.34592e-05 1.76035e-05 3.90083e-06)
(-7.21832e-06 2.18819e-05 2.16705e-06)
(-8.31517e-06 2.13837e-05 1.9403e-06)
(-2.04847e-06 3.02098e-05 6.51512e-07)
(-1.34186e-05 1.77612e-05 3.74691e-06)
(-6.98976e-06 2.2062e-05 2.18771e-06)
(7.60917e-07 3.61986e-07 -4.97108e-07)
(2.87851e-07 1.16322e-06 1.11347e-07)
(5.28565e-08 1.55011e-06 1.77357e-07)
(3.03947e-07 1.06437e-06 6.1585e-08)
(8.47336e-07 3.06059e-07 -5.22005e-07)
(7.76311e-08 -7.12936e-08 -1.1234e-07)
(5.36392e-07 -1.79179e-06 -4.8915e-07)
(6.3265e-07 -2.54283e-06 -4.77534e-07)
(9.01383e-08 1.40951e-07 -3.08785e-08)
(2.72985e-09 4.49507e-07 8.67899e-08)
(-5.99657e-08 6.66006e-08 8.52607e-08)
(5.50113e-09 2.79615e-07 8.62684e-08)
(7.72322e-11 9.85037e-10 3.72612e-10)
(3.76744e-06 6.37667e-06 -6.91404e-07)
(-1.9927e-07 9.16367e-06 5.80271e-07)
(1.10875e-06 8.74974e-06 5.74066e-07)
(1.2026e-06 7.84185e-06 5.38832e-07)
(3.89529e-06 7.40608e-06 -6.92722e-07)
(1.28974e-06 -5.35498e-06 3.43425e-07)
(1.31854e-06 -5.47649e-06 2.00033e-07)
(2.59511e-06 1.9302e-06 -6.94885e-07)
(-7.16139e-08 5.26618e-06 4.82128e-07)
(8.08225e-07 3.09327e-06 3.46963e-07)
(2.46909e-06 1.38148e-06 -7.2277e-07)
(7.72138e-07 3.61141e-06 4.10835e-07)
(1.46297e-06 -3.9564e-06 8.14227e-07)
(1.36857e-06 -3.24211e-06 9.67012e-07)
(7.3206e-06 2.68322e-05 -9.04902e-07)
(-9.57138e-07 2.59792e-05 7.00341e-07)
(1.69726e-06 2.60299e-05 6.17179e-07)
(1.8681e-06 2.53642e-05 6.26467e-07)
(7.40904e-06 2.77434e-05 -9.46721e-07)
(8.46554e-07 4.93392e-06 1.38792e-06)
(1.08792e-06 3.52168e-06 1.41628e-06)
(6.11821e-06 2.05866e-05 -7.55382e-07)
(-1.00564e-06 2.18321e-05 6.04656e-07)
(1.63744e-06 1.91319e-05 6.85823e-07)
(6.00266e-06 1.93365e-05 -7.48413e-07)
(1.48395e-06 2.01126e-05 6.87843e-07)
(4.985e-07 8.88814e-06 1.24171e-06)
(2.14009e-07 9.78839e-06 1.17827e-06)
(-2.90793e-07 1.74883e-06 1.05429e-06)
(-3.66555e-07 1.76076e-06 8.9969e-07)
(-1.23759e-06 2.21111e-06 1.99832e-06)
(-4.67668e-08 2.0003e-06 1.76846e-07)
(-1.89653e-07 1.55307e-06 7.13452e-07)
(-9.52107e-07 1.95179e-06 1.71289e-06)
(-6.47305e-07 2.02171e-06 1.37208e-06)
(-8.8006e-08 5.88927e-07 3.69772e-07)
(-2.27078e-08 5.67454e-07 6.5506e-08)
(-5.06303e-08 2.13012e-07 6.50524e-08)
(-1.42673e-07 3.83639e-07 1.66727e-07)
(-8.52199e-08 4.10078e-07 2.46751e-07)
(-2.61864e-07 5.61422e-07 5.14497e-07)
(-1.7136e-08 4.50522e-07 1.14917e-08)
(7.6296e-08 4.01069e-07 -4.21627e-07)
(-2.20572e-07 1.2067e-06 1.20702e-07)
(-2.20701e-07 1.54631e-06 1.48421e-07)
(-1.57583e-07 1.11886e-06 8.08251e-08)
(6.78416e-08 3.26507e-07 -4.58119e-07)
(-1.32734e-07 -1.25621e-07 2.20646e-07)
(-3.91026e-08 -2.6726e-08 3.02696e-08)
(-7.06848e-07 -1.75353e-06 6.89594e-07)
(-9.92568e-07 -2.50149e-06 7.53249e-07)
(3.2983e-08 2.06399e-07 -1.59716e-07)
(-6.21044e-08 4.45655e-07 9.85893e-09)
(-9.91244e-09 1.57566e-07 -2.27658e-08)
(-5.88144e-08 3.40904e-07 1.00522e-08)
(5.07166e-08 8.14381e-08 -8.60641e-08)
(-6.33828e-07 1.80476e-06 1.16755e-06)
(-1.3154e-06 2.24074e-06 2.00314e-06)
(-6.54991e-07 1.79638e-06 9.26943e-07)
(-1.27125e-07 1.99898e-06 1.68341e-07)
(-1.02979e-06 1.986e-06 1.71624e-06)
(-4.95191e-07 1.61381e-06 7.71182e-07)
(-9.48149e-07 2.04984e-06 1.44335e-06)
(-1.76048e-07 6.81276e-07 3.68396e-07)
(-4.17372e-08 5.66076e-07 4.28862e-08)
(-1.46335e-07 4.00473e-07 1.60163e-07)
(-7.51997e-08 3.00362e-07 4.92199e-08)
(-2.74476e-07 5.78867e-07 5.0325e-07)
(-1.45501e-07 4.86386e-07 2.25631e-07)
(-8.94215e-08 5.43444e-07 4.60761e-09)
(1.15647e-06 1.35488e-07 -6.13783e-07)
(4.008e-07 1.17808e-06 1.00488e-07)
(-2.61174e-09 2.14085e-06 2.56844e-07)
(1.05684e-06 1.76815e-07 -6.06541e-07)
(3.89746e-07 1.26769e-06 1.53812e-07)
(1.21034e-06 -5.22418e-06 -4.57656e-08)
(1.23065e-06 -5.40724e-06 1.29511e-07)
(8.01176e-07 -3.55393e-06 -4.25218e-07)
(7.1319e-07 -2.83034e-06 -4.81537e-07)
(2.09427e-06 5.76374e-07 -7.28421e-07)
(-1.72098e-07 3.39864e-06 3.51785e-07)
(6.58825e-07 2.60488e-06 3.18737e-07)
(2.20473e-06 9.15589e-07 -7.13918e-07)
(6.98276e-07 2.19669e-06 2.63328e-07)
(-1.01006e-06 2.44087e-06 1.72109e-06)
(-3.51123e-07 1.88871e-06 9.50924e-07)
(-1.39892e-06 2.44323e-06 2.17367e-06)
(-1.71024e-07 2.88716e-06 2.58666e-07)
(-6.15421e-07 2.17357e-06 1.39585e-06)
(-5.44166e-07 2.09131e-06 1.10877e-06)
(-1.74452e-06 2.71589e-06 2.43757e-06)
(-1.67503e-06 3.76463e-06 2.27936e-06)
(-4.08945e-07 4.44694e-06 3.28262e-07)
(-1.24891e-06 3.70984e-06 1.66086e-06)
(-3.71974e-06 4.44507e-06 3.55794e-06)
(-9.76278e-07 3.35137e-06 1.51048e-06)
(-3.24259e-06 4.13655e-06 3.33951e-06)
(-2.25259e-06 4.04107e-06 2.48521e-06)
(1.17851e-07 1.54418e-07 -5.85625e-07)
(-2.21846e-07 1.23254e-06 1.07906e-07)
(-3.90818e-07 2.1206e-06 2.26059e-07)
(1.15903e-07 2.10429e-07 -5.36491e-07)
(-2.89699e-07 1.31621e-06 1.36949e-07)
(-2.19004e-06 -5.14697e-06 4.06927e-07)
(-2.52785e-06 -5.33062e-06 2.95004e-07)
(-1.35879e-06 -3.51908e-06 7.1984e-07)
(-1.0616e-06 -2.78169e-06 7.39933e-07)
(4.41415e-07 6.04213e-07 -1.0149e-06)
(-6.35638e-07 3.35017e-06 2.65503e-07)
(-4.32391e-07 2.68537e-06 5.16741e-08)
(-3.5296e-07 2.26942e-06 5.0555e-08)
(4.78407e-07 9.50714e-07 -1.08982e-06)
(-1.27379e-06 2.43851e-06 1.7309e-06)
(-1.48178e-06 2.47486e-06 2.16492e-06)
(-7.09321e-07 1.92798e-06 9.79102e-07)
(-2.39202e-07 2.86969e-06 2.53128e-07)
(-9.26781e-07 2.19948e-06 1.44416e-06)
(-1.82012e-06 2.7475e-06 2.4195e-06)
(-8.82774e-07 2.1229e-06 1.09975e-06)
(-2.21593e-06 3.7747e-06 2.26154e-06)
(-4.18366e-07 4.40137e-06 3.25654e-07)
(-3.87375e-06 4.48427e-06 3.51895e-06)
(-1.81721e-06 3.75055e-06 1.54769e-06)
(-3.37687e-06 4.18835e-06 3.29806e-06)
(-1.54688e-06 3.38066e-06 1.43423e-06)
(-2.78565e-06 4.0605e-06 2.45572e-06)
(-3.60405e-06 8.14014e-06 3.10007e-06)
(-5.1284e-07 1.06277e-05 4.95831e-07)
(-2.37267e-06 8.96191e-06 2.21485e-06)
(-7.15384e-06 8.03036e-06 4.61552e-06)
(-2.01951e-06 8.30358e-06 2.1168e-06)
(-6.54632e-06 7.66118e-06 4.47934e-06)
(-4.36363e-06 8.37359e-06 3.21525e-06)
(-2.70604e-06 4.86747e-06 2.74528e-06)
(-3.3274e-07 6.50386e-06 4.30262e-07)
(-1.21316e-06 4.20471e-06 1.70619e-06)
(-4.00223e-06 4.84499e-06 3.6944e-06)
(-1.45476e-06 4.66429e-06 1.82067e-06)
(-2.13044e-06 4.57655e-06 2.49517e-06)
(-4.50531e-06 5.19267e-06 3.87787e-06)
(1.25486e-06 6.4644e-06 -1.66062e-06)
(-1.12294e-06 9.15837e-06 2.57943e-07)
(-5.64819e-07 8.95015e-06 -1.25554e-07)
(-4.80659e-07 7.9856e-06 -1.30152e-07)
(1.33505e-06 7.52741e-06 -1.70509e-06)
(-2.9024e-06 -5.25551e-06 8.22852e-08)
(-2.59139e-06 -5.32965e-06 2.22067e-07)
(6.55443e-07 1.98432e-06 -1.26864e-06)
(-8.39972e-07 5.26113e-06 2.62369e-07)
(-4.06975e-07 3.17248e-06 8.52651e-09)
(6.06097e-07 1.41955e-06 -1.19474e-06)
(-4.78579e-07 3.72923e-06 2.67289e-09)
(-3.65837e-06 -3.83776e-06 -3.39381e-07)
(-3.96896e-06 -3.08268e-06 -4.19913e-07)
(-4.58233e-06 8.14311e-06 2.95453e-06)
(-7.84176e-07 1.06254e-05 4.01133e-07)
(-7.4229e-06 8.07823e-06 4.52702e-06)
(-3.36498e-06 9.08266e-06 1.88403e-06)
(-6.79897e-06 7.74227e-06 4.38445e-06)
(-3.03328e-06 8.38413e-06 1.80768e-06)
(-5.24504e-06 8.46875e-06 3.04757e-06)
(-3.32533e-06 4.91162e-06 2.67056e-06)
(-5.58451e-07 6.5018e-06 3.65696e-07)
(-4.16568e-06 4.90191e-06 3.63981e-06)
(-1.90843e-06 4.23324e-06 1.5685e-06)
(-2.7553e-06 4.60906e-06 2.44011e-06)
(-4.67593e-06 5.26023e-06 3.81438e-06)
(-2.15983e-06 4.73958e-06 1.63547e-06)
(4.30985e-06 9.73755e-06 -6.94306e-07)
(1.2216e-06 9.8493e-06 5.71859e-07)
(-3.27197e-07 1.27295e-05 6.27835e-07)
(4.18324e-06 8.62389e-06 -7.08329e-07)
(1.1511e-06 1.07772e-05 6.06044e-07)
(1.2193e-06 1.84108e-06 1.32165e-06)
(1.02265e-06 3.07266e-06 1.38023e-06)
(1.30187e-06 -1.86924e-06 1.08005e-06)
(1.4168e-06 -2.85932e-06 9.88663e-07)
(5.5667e-06 1.65731e-05 -7.2235e-07)
(-8.21491e-07 1.78971e-05 5.77078e-07)
(1.48857e-06 1.78673e-05 6.77735e-07)
(5.69157e-06 1.7862e-05 -7.32702e-07)
(1.55412e-06 1.68055e-05 6.60777e-07)
(-4.96205e-06 9.80655e-06 3.34936e-06)
(-2.41628e-06 9.95393e-06 2.21935e-06)
(-7.51654e-06 8.65794e-06 4.68948e-06)
(-6.68806e-07 1.43145e-05 5.33101e-07)
(-4.24099e-06 9.48945e-06 3.19257e-06)
(-2.76183e-06 1.0652e-05 2.2712e-06)
(-8.17131e-06 9.03108e-06 4.78414e-06)
(-6.13774e-06 1.40548e-05 3.5171e-06)
(-1.22093e-06 1.9599e-05 4.62524e-07)
(-3.88487e-06 1.61559e-05 2.50054e-06)
(-1.12942e-05 1.19894e-05 5.21208e-06)
(-3.54651e-06 1.54443e-05 2.42418e-06)
(-1.06355e-05 1.16766e-05 5.13502e-06)
(-6.98086e-06 1.41619e-05 3.57143e-06)
(1.62866e-06 9.90805e-06 -1.8045e-06)
(-4.98862e-07 1.0038e-05 -1.53844e-07)
(-1.33385e-06 1.27239e-05 2.72234e-07)
(1.53271e-06 8.74266e-06 -1.76562e-06)
(-5.65767e-07 1.10325e-05 -1.52515e-07)
(-4.83109e-06 1.93199e-06 -7.61534e-07)
(-5.09068e-06 3.17511e-06 -7.57869e-07)
(-4.26864e-06 -1.75294e-06 -5.69048e-07)
(-4.0081e-06 -2.71224e-06 -4.76682e-07)
(2.5089e-06 1.67574e-05 -1.97866e-06)
(-1.60621e-06 1.78201e-05 2.96565e-07)
(-5.45494e-07 1.81576e-05 -1.72652e-07)
(-4.65996e-07 1.7023e-05 -1.88082e-07)
(2.62665e-06 1.80973e-05 -1.98704e-06)
(-5.82234e-06 9.94976e-06 3.15581e-06)
(-7.76684e-06 8.74859e-06 4.58007e-06)
(-3.43651e-06 1.00412e-05 1.88326e-06)
(-9.64518e-07 1.43122e-05 4.28628e-07)
(-5.16271e-06 9.58457e-06 3.01236e-06)
(-8.40905e-06 9.1306e-06 4.6753e-06)
(-3.73732e-06 1.08208e-05 1.91838e-06)
(-7.30499e-06 1.39787e-05 3.32827e-06)
(-1.23694e-06 1.95251e-05 4.55627e-07)
(-1.16126e-05 1.2012e-05 5.10761e-06)
(-5.08836e-06 1.63079e-05 2.10314e-06)
(-1.09365e-05 1.17497e-05 5.01247e-06)
(-4.72948e-06 1.55334e-05 2.04379e-06)
(-8.05637e-06 1.42041e-05 3.37297e-06)
(-8.74432e-06 1.9257e-05 3.65153e-06)
(-1.35257e-06 2.76941e-05 6.36249e-07)
(-5.55743e-06 2.22839e-05 2.56489e-06)
(-1.57595e-05 1.46659e-05 5.45211e-06)
(-5.11108e-06 2.1859e-05 2.54428e-06)
(-1.50547e-05 1.45785e-05 5.41836e-06)
(-9.65803e-06 1.90942e-05 3.64563e-06)
(-7.62061e-06 1.56386e-05 3.66052e-06)
(-1.4027e-06 2.35757e-05 5.05233e-07)
(-3.88186e-06 1.72132e-05 2.51316e-06)
(-1.16894e-05 1.25309e-05 5.26035e-06)
(-4.35237e-06 1.79e-05 2.51424e-06)
(-6.80733e-06 1.53674e-05 3.56665e-06)
(-1.24506e-05 1.27741e-05 5.31358e-06)
(4.05405e-06 2.71676e-05 -1.87361e-06)
(-2.07502e-06 2.5974e-05 4.31566e-07)
(-4.17289e-07 2.64384e-05 -9.59862e-09)
(-3.43221e-07 2.5706e-05 -4.42166e-08)