/*--------------------------------*- C++ -*----------------------------------*\
| =========                 |                                                 |
| \\      /  F ield         | OpenFOAM: The Open Source CFD Toolbox           |
|  \\    /   O peration     | Version:  2012                                  |
|   \\  /    A nd           | Website:  www.openfoam.com                      |
|    \\/     M anipulation  |                                                 |
\*---------------------------------------------------------------------------*/
FoamFile
{
    version     2.0;
    format      ascii;
    class       surfaceScalarField;
    location    "0.106/fluid";
    object      meshPhi;
}
// * * * * * * * * * * * * * * * * * * * * * * * * * * * * * * * * * * * * * //

dimensions      [0 3 -1 0 0 0 0];
oriented        oriented;


internalField   nonuniform List<scalar> 
46515
(
-8.14221e-08
4.98737e-06
-8.11217e-07
7.29878e-07
-1.0195e-07
-9.6041e-08
-1.17275e-07
-1.14576e-06
-9.61162e-06
-2.03244e-06
1.19221e-05
1.33561e-06
-2.15096e-06
-1.90109e-05
-1.47709e-06
2.10698e-05
2.19331e-06
-3.21271e-06
-2.58358e-05
2.69681e-05
3.15468e-06
-1.01929e-06
-4.26798e-06
-2.92317e-05
2.96779e-05
4.16192e-06
-7.24004e-07
-5.20138e-06
-3.03443e-05
3.03911e-05
5.0768e-06
-5.3687e-07
-5.94368e-06
-3.01479e-05
2.99652e-05
5.79754e-06
-4.14163e-07
-6.47718e-06
-2.92075e-05
2.88975e-05
6.30829e-06
-3.28099e-07
-6.75802e-06
-2.78203e-05
2.74124e-05
6.56752e-06
-2.63792e-07
-6.56012e-06
-2.60586e-05
2.5562e-05
6.36779e-06
-2.14594e-07
-5.82201e-06
-2.39105e-05
2.32972e-05
5.66602e-06
-1.74823e-07
-5.04183e-06
-2.12264e-05
2.04351e-05
4.91269e-06
-1.41519e-07
-4.22621e-06
-1.76752e-05
1.66277e-05
4.11069e-06
-1.10261e-07
-3.10489e-06
-1.31079e-05
1.17893e-05
3.03094e-06
-7.85393e-08
-1.6395e-06
-7.31619e-06
5.63625e-06
1.60797e-06
-4.075e-08
-1.6026e-06
1.89089e-05
-4.20148e-07
1.79509e-06
-1.80752e-06
-2.1276e-05
-1.09577e-06
2.24666e-05
1.90087e-06
-2.26069e-06
-2.64385e-05
2.77175e-05
2.24957e-06
-1.10238e-06
-2.89253e-06
-3.09527e-05
3.17856e-05
2.774e-06
-9.15706e-07
-3.64774e-06
-3.35706e-05
3.39518e-05
3.42318e-06
-7.35195e-07
-4.39172e-06
-3.45666e-05
3.46179e-05
4.07368e-06
-5.94297e-07
-4.965e-06
-3.4394e-05
3.42134e-05
4.56609e-06
-4.85428e-07
-5.34651e-06
-3.34279e-05
3.30944e-05
4.8851e-06
-3.97923e-07
-5.50283e-06
-3.1907e-05
3.14513e-05
5.00911e-06
-3.25594e-07
-5.32575e-06
-2.99106e-05
2.93373e-05
4.85155e-06
-2.65255e-07
-4.83659e-06
-2.74291e-05
2.67232e-05
4.42787e-06
-2.15431e-07
-4.2347e-06
-2.43443e-05
2.34387e-05
3.88063e-06
-1.74991e-07
-3.51432e-06
-2.03073e-05
1.91302e-05
3.21369e-06
-1.38467e-07
-2.61428e-06
-1.51752e-05
1.36816e-05
2.39311e-06
-1.00634e-07
-1.40904e-06
-8.54772e-06
6.59539e-06
1.29676e-06
-5.33178e-08
-1.82541e-06
2.84073e-05
1.59105e-06
-3.41312e-07
-1.79851e-06
-2.95778e-05
3.0151e-05
1.5604e-06
-7.06923e-07
-1.91171e-06
-3.21181e-05
3.27883e-05
1.616e-06
-8.32271e-07
-2.12121e-06
-3.4602e-05
3.51052e-05
1.73722e-06
-8.00316e-07
-2.42598e-06
-3.62518e-05
3.65133e-05
1.9371e-06
-7.12844e-07
-2.73983e-06
-3.69474e-05
3.6978e-05
2.14726e-06
-6.17006e-07
-2.95774e-06
-3.67502e-05
3.6573e-05
2.28792e-06
-5.26668e-07
-3.09827e-06
-3.57818e-05
3.54402e-05
2.38403e-06
-4.43118e-07
-3.16036e-06
-3.42148e-05
3.37413e-05
2.43301e-06
-3.66327e-07
-3.07558e-06
-3.21272e-05
3.152e-05
2.37233e-06
-2.98296e-07
-2.8285e-06
-2.94694e-05
2.86987e-05
2.1842e-06
-2.42082e-07
-2.46693e-06
-2.60894e-05
2.51094e-05
1.9004e-06
-1.96489e-07
-2.01913e-06
-2.18019e-05
2.05648e-05
1.54817e-06
-1.55544e-07
-1.50722e-06
-1.6357e-05
1.4758e-05
1.15192e-06
-1.11528e-07
-8.31149e-07
-9.25824e-06
7.15771e-06
6.385e-07
-5.93095e-08
-5.66021e-07
2.89553e-06
1.98969e-05
-3.41032e-06
2.54369e-06
-5.7424e-07
-6.65052e-07
-6.69872e-07
-2.57229e-06
-2.28346e-05
7.52404e-06
-8.9956e-06
2.42589e-05
2.60942e-06
5.59644e-06
-2.93069e-06
-2.8414e-05
-6.76426e-06
2.9533e-05
2.90529e-06
3.89466e-06
-3.60138e-06
-3.18831e-05
3.23596e-05
3.50458e-06
-4.73223e-06
2.77816e-06
-4.47526e-06
-3.30735e-05
3.31229e-05
4.34018e-06
-3.38712e-06
2.06628e-06
-5.35016e-06
-3.28754e-05
3.26895e-05
5.20565e-06
-2.52596e-06
1.59544e-06
-6.0696e-06
-3.19142e-05
3.15976e-05
5.91301e-06
-1.95376e-06
1.26361e-06
-6.57363e-06
-3.0522e-05
3.01254e-05
6.39854e-06
-1.54847e-06
1.01594e-06
-6.76588e-06
-2.88358e-05
2.83705e-05
6.57352e-06
-1.24563e-06
8.26565e-07
-6.53101e-06
-2.68647e-05
2.63208e-05
6.3338e-06
-1.01351e-06
6.7488e-07
-5.90202e-06
-2.45428e-05
2.38906e-05
5.727e-06
-8.27516e-07
5.48679e-07
-5.13776e-06
-2.17099e-05
2.08839e-05
4.9869e-06
-6.71822e-07
4.2784e-07
-4.23629e-06
-1.80019e-05
1.6911e-05
4.11041e-06
-5.23717e-07
3.04376e-07
-3.11241e-06
-1.33476e-05
1.20188e-05
3.04589e-06
-3.72061e-07
1.56865e-07
-1.64787e-06
-7.45275e-06
5.73917e-06
1.62283e-06
-1.91329e-07
-2.76361e-06
1.57529e-06
2.91115e-05
-1.89779e-06
2.78683e-06
4.12905e-06
-2.65201e-06
-3.05578e-05
-4.98198e-06
3.12799e-05
2.62808e-06
4.18631e-06
-2.7542e-06
-3.36094e-05
3.43248e-05
2.67921e-06
-5.07234e-06
3.49823e-06
-3.13603e-06
-3.60139e-05
3.63993e-05
2.98845e-06
-4.25333e-06
2.81857e-06
-3.76512e-06
-3.70637e-05
3.71418e-05
3.5265e-06
-3.43653e-06
2.28263e-06
-4.47393e-06
-3.70308e-05
3.68917e-05
4.1433e-06
-2.78893e-06
1.86554e-06
-5.047e-06
-3.62195e-05
3.59205e-05
4.63685e-06
-2.28251e-06
1.53039e-06
-5.40901e-06
-3.484e-05
3.44229e-05
4.93889e-06
-1.87411e-06
1.25288e-06
-5.51387e-06
-3.3019e-05
3.24995e-05
5.02019e-06
-1.53475e-06
1.0213e-06
-5.31008e-06
-3.07889e-05
3.01633e-05
4.83651e-06
-1.25138e-06
8.31409e-07
-4.83683e-06
-2.81076e-05
2.73545e-05
4.41191e-06
-1.01867e-06
6.77089e-07
-4.22286e-06
-2.48521e-05
2.39122e-05
3.85153e-06
-8.27732e-07
5.34076e-07
-3.4935e-06
-2.06777e-05
1.94711e-05
3.1921e-06
-6.52246e-07
3.86826e-07
-2.6365e-06
-1.5491e-05
1.39832e-05
2.41125e-06
-4.71543e-07
2.03199e-07
-1.4369e-06
-8.75939e-06
6.76368e-06
1.32222e-06
-2.47075e-07
1.29297e-06
-2.40424e-06
3.51612e-05
2.03946e-06
-1.56608e-06
2.68369e-06
-2.22422e-06
-3.59529e-05
3.63067e-05
1.88813e-06
-3.25268e-06
3.17131e-06
-2.16991e-06
-3.74487e-05
3.78183e-05
1.81694e-06
-3.85389e-06
3.06162e-06
-2.26258e-06
-3.8742e-05
3.89689e-05
1.85279e-06
-3.72971e-06
2.73314e-06
-2.50265e-06
-3.93722e-05
3.94177e-05
2.00424e-06
-3.33571e-06
2.3661e-06
-2.79346e-06
-3.9298e-05
3.91754e-05
2.19619e-06
-2.89089e-06
2.0176e-06
-3.0129e-06
-3.85643e-05
3.8282e-05
2.33818e-06
-2.4661e-06
1.69636e-06
-3.14325e-06
-3.7222e-05
3.68025e-05
2.42522e-06
-2.07367e-06
1.40297e-06
-3.17553e-06
-3.53637e-05
3.48239e-05
2.44792e-06
-1.71532e-06
1.1434e-06
-3.06097e-06
-3.30238e-05
3.23596e-05
2.35977e-06
-1.39832e-06
9.29101e-07
-2.79326e-06
-3.01577e-05
2.93435e-05
2.15209e-06
-1.13651e-06
7.5499e-07
-2.4247e-06
-2.66281e-05
2.56187e-05
1.86319e-06
-9.22913e-07
5.98015e-07
-1.99488e-06
-2.22412e-05
2.098e-05
1.5247e-06
-7.29939e-07
4.28736e-07
-1.50571e-06
-1.66992e-05
1.50731e-05
1.14268e-06
-5.2326e-07
2.2675e-07
-8.3602e-07
-9.48928e-06
7.34796e-06
6.35629e-07
-2.76331e-07
-1.32885e-06
4.43868e-06
5.05076e-05
-4.6329e-06
5.26267e-06
-1.30657e-06
-1.40968e-06
-1.38434e-06
-4.70606e-06
-5.02205e-05
1.21299e-05
-1.2746e-05
4.98474e-05
4.58124e-06
9.37384e-06
-4.2435e-06
-4.78392e-05
-9.91077e-06
4.69809e-05
4.08699e-06
6.68632e-06
-4.19387e-06
-4.43187e-05
4.3463e-05
4.03865e-06
-7.12235e-06
4.86445e-06
-4.7204e-06
-4.10903e-05
4.03594e-05
4.56047e-06
-5.22047e-06
3.67566e-06
-5.54218e-06
-3.83204e-05
3.76798e-05
5.38215e-06
-3.96791e-06
2.86828e-06
-6.26491e-06
-3.58449e-05
3.52495e-05
6.09451e-06
-3.10818e-06
2.28402e-06
-6.67975e-06
-3.34965e-05
3.29165e-05
6.48603e-06
-2.48057e-06
1.84485e-06
-6.73952e-06
-3.1177e-05
3.05855e-05
6.52499e-06
-2.00766e-06
1.50387e-06
-6.45342e-06
-2.8729e-05
2.80731e-05
6.23526e-06
-1.63753e-06
1.22456e-06
-5.88473e-06
-2.59776e-05
2.52223e-05
5.68249e-06
-1.33183e-06
9.86429e-07
-5.11923e-06
-2.27552e-05
2.18509e-05
4.94352e-06
-1.07058e-06
7.68741e-07
-4.20407e-06
-1.88416e-05
1.77239e-05
4.07932e-06
-8.33847e-07
5.4326e-07
-3.08716e-06
-1.39657e-05
1.25552e-05
3.0223e-06
-5.89239e-07
2.7832e-07
-1.62676e-06
-7.76546e-06
5.97453e-06
1.60311e-06
-3.01853e-07
-4.664e-06
2.6244e-06
5.01807e-05
-2.78129e-06
4.4383e-06
6.88278e-06
-4.03416e-06
-4.9845e-05
-7.27343e-06
4.95912e-05
3.82734e-06
7.10285e-06
-3.52564e-06
-4.84832e-05
4.80249e-05
3.34294e-06
-7.54165e-06
6.03709e-06
-3.45946e-06
-4.65194e-05
4.59995e-05
3.26352e-06
-6.44798e-06
4.94229e-06
-3.91689e-06
-4.44584e-05
4.39468e-05
3.66396e-06
-5.30959e-06
4.05314e-06
-4.60138e-06
-4.24096e-05
4.18896e-05
4.2569e-06
-4.37448e-06
3.34149e-06
-5.15793e-06
-4.03012e-05
3.97525e-05
4.72747e-06
-3.61716e-06
2.75419e-06
-5.43944e-06
-3.80413e-05
3.74429e-05
4.95848e-06
-2.98618e-06
2.25891e-06
-5.43168e-06
-3.55592e-05
3.48943e-05
4.93811e-06
-2.45107e-06
1.84021e-06
-5.17461e-06
-3.27709e-05
3.2008e-05
4.69323e-06
-1.99427e-06
1.48712e-06
-4.69837e-06
-2.95376e-05
2.86535e-05
4.24398e-06
-1.60522e-06
1.19527e-06
-4.09256e-06
-2.58405e-05
2.48299e-05
3.69566e-06
-1.28593e-06
9.4452e-07
-3.45894e-06
-2.15589e-05
2.03485e-05
3.14843e-06
-1.01729e-06
6.78275e-07
-2.61578e-06
-1.61532e-05
1.45749e-05
2.38924e-06
-7.29395e-07
3.54189e-07
-1.4323e-06
-9.13991e-06
7.05885e-06
1.32375e-06
-3.81138e-07
2.20081e-06
-3.40055e-06
4.89892e-05
2.82063e-06
-2.343e-06
4.57857e-06
-2.95129e-06
-4.90688e-05
4.89929e-05
2.462e-06
-4.87461e-06
5.4727e-06
-2.61039e-06
-4.85139e-05
4.82845e-05
2.18603e-06
-5.84617e-06
5.34997e-06
-2.50272e-06
-4.74456e-05
4.7125e-05
2.07908e-06
-5.7398e-06
4.82837e-06
-2.65352e-06
-4.60786e-05
4.57025e-05
2.15686e-06
-5.20138e-06
4.21205e-06
-2.91267e-06
-4.44973e-05
4.40644e-05
2.31878e-06
-4.5512e-06
3.6057e-06
-3.10512e-06
-4.2664e-05
4.21565e-05
2.43635e-06
-3.90291e-06
3.03661e-06
-3.18249e-06
-4.05106e-05
3.99162e-05
2.47512e-06
-3.2897e-06
2.51367e-06
-3.13949e-06
-3.79978e-05
3.7306e-05
2.43225e-06
-2.72448e-06
2.0476e-06
-2.95073e-06
-3.50601e-05
3.42472e-05
2.27787e-06
-2.21769e-06
1.65507e-06
-2.6331e-06
-3.1621e-05
3.06839e-05
2.02637e-06
-1.78532e-06
1.33438e-06
-2.28311e-06
-2.76947e-05
2.66249e-05
1.75421e-06
-1.43457e-06
1.05231e-06
-1.92714e-06
-2.31142e-05
2.18023e-05
1.46986e-06
-1.13086e-06
7.54663e-07
-1.4763e-06
-1.73393e-05
1.56516e-05
1.116e-06
-8.10625e-07
4.00644e-07
-8.37257e-07
-9.93136e-06
7.73695e-06
6.35792e-07
-4.33218e-07
-5.59181e-08
5.09089e-07
-8.90378e-08
7.21824e-06
9.17755e-07
-6.8807e-07
-4.90447e-06
-2.48178e-06
-6.19979e-07
4.70658e-07
5.62107e-07
-4.53164e-07
3.37926e-06
-8.98866e-06
1.5971e-05
1.96143e-06
7.0434e-06
-1.86167e-06
-1.42505e-05
-5.50132e-07
4.12212e-06
-6.7774e-07
2.12745e-05
2.51513e-06
-2.4518e-06
-1.98525e-05
-1.06767e-05
-9.24146e-07
1.24488e-06
9.04367e-07
-1.22726e-06
1.08577e-05
-1.42069e-05
4.21075e-05
4.2727e-06
1.32819e-05
-4.28219e-06
-4.18366e-05
-1.30975e-06
1.19758e-05
-9.47439e-07
5.01137e-05
4.79705e-06
-4.80919e-06
-5.03165e-05
-1.48944e-05
4.28404e-08
-4.02151e-08
-3.86258e-08
3.79456e-08
3.47029e-09
-3.32968e-09
-1.09986e-09
-9.7169e-07
-2.29096e-06
9.76202e-06
1.73886e-05
1.89636e-06
-1.82167e-06
-1.49903e-05
-1.69735e-06
-8.45341e-06
2.07168e-06
6.58754e-06
-1.99996e-06
1.7871e-05
-6.42308e-06
2.34486e-05
2.48289e-06
4.95101e-06
-2.4517e-06
-2.172e-05
-7.59776e-06
-2.09292e-06
1.14791e-06
-1.34915e-06
1.55625e-05
-4.71617e-07
1.84376e-05
1.72852e-06
-1.56729e-06
-1.71946e-05
-1.18846e-06
-3.8116e-07
-4.82935e-07
-3.96436e-07
2.28675e-06
1.42685e-05
1.88941e-06
-7.66184e-06
1.78077e-05
5.98382e-06
-1.628e-05
2.0649e-06
-1.75318e-06
2.33603e-06
1.36017e-06
-2.20743e-06
2.25483e-05
-4.44669e-06
2.47409e-05
2.31904e-06
3.44069e-06
-2.25362e-06
-2.37912e-05
2.58661e-07
-9.55613e-08
9.42767e-08
-2.09529e-07
7.23166e-08
1.37138e-07
-7.39921e-08
-1.16644e-07
-2.53798e-06
-1.00881e-05
2.28276e-05
2.72105e-05
2.81581e-06
-2.80631e-06
-2.58841e-05
-7.74982e-06
-1.35458e-05
4.20279e-06
1.26345e-05
-4.27192e-06
4.22923e-05
-1.06713e-05
4.19085e-05
3.967e-06
9.88584e-06
-4.05159e-06
-4.21884e-05
-2.15746e-05
-9.12808e-06
2.56975e-06
-2.70384e-06
2.69009e-05
-2.10233e-06
2.86782e-05
2.66136e-06
-2.64818e-06
-2.7908e-05
-5.34638e-06
-1.15509e-06
-1.22673e-06
-1.14019e-06
4.17504e-06
4.19884e-05
4.63554e-06
-1.22179e-05
4.26345e-05
1.14048e-05
-4.24214e-05
4.20971e-06
-2.8672e-06
4.20676e-06
2.65887e-06
-4.35681e-06
4.39719e-05
-7.31555e-06
4.41749e-05
3.82046e-06
6.78653e-06
-3.97158e-06
-4.41092e-05
5.89777e-07
-1.20015e-07
1.19612e-07
-4.32281e-07
1.11045e-07
4.26146e-07
-1.11738e-07
-3.26424e-07
-4.80258e-06
-1.42234e-05
4.97268e-05
4.74078e-05
4.34619e-06
-4.46763e-06
-4.83267e-05
-1.12611e-05
-5.04409e-05
-1.28221e-05
4.71216e-06
-4.87334e-06
5.04139e-05
-3.02676e-06
5.00131e-05
4.19039e-06
-4.39044e-06
-5.02251e-05
-7.71061e-06
-8.49559e-08
-2.49599e-08
7.2637e-08
8.02067e-08
-2.52835e-06
5.56381e-07
-4.96228e-07
-6.33477e-07
4.69088e-06
8.43995e-07
-5.12998e-06
-1.23097e-06
-8.91818e-07
6.46097e-06
-8.74504e-09
-1.21374e-09
6.70921e-09
4.28809e-08
-4.03701e-08
-3.79966e-09
3.80809e-08
8.31322e-07
1.35961e-07
-6.83269e-07
-2.6367e-07
-1.09553e-07
-3.44312e-07
1.70504e-07
2.63362e-07
-1.46505e-07
1.17523e-06
1.49285e-06
-1.01505e-06
2.28226e-07
-2.1083e-07
7.72983e-07
-1.34871e-06
3.47825e-09
-3.40005e-09
-1.84043e-10
-8.51418e-08
6.22809e-08
8.66828e-09
8.03512e-08
-2.74366e-06
-8.2826e-07
-5.56119e-07
-6.85708e-07
-7.07377e-07
5.55349e-06
-2.53893e-06
-1.2854e-07
-8.80794e-08
-1.10731e-07
-1.07603e-07
7.1583e-07
-9.45356e-07
-5.46442e-07
-6.73591e-07
-9.31322e-07
-6.60761e-06
-4.85776e-06
8.78002e-06
1.11923e-06
-5.36126e-06
-1.06907e-06
-1.26607e-06
-9.3461e-07
-1.39353e-06
7.21852e-06
-4.92427e-06
-1.66111e-07
-1.98592e-07
-1.49967e-07
-2.1425e-07
9.40044e-07
-1.24801e-06
-1.1687e-06
-9.13627e-07
-8.84827e-09
6.6047e-09
4.40449e-10
4.68628e-08
-4.20363e-08
-4.22843e-08
1.30165e-07
7.05405e-08
-1.11033e-07
-2.69396e-08
7.9243e-08
-8.9424e-08
7.56627e-06
1.86005e-06
-3.4062e-06
-2.75688e-06
1.4224e-05
1.29787e-06
-1.66291e-06
-2.16524e-06
9.72963e-06
-1.52578e-07
1.48897e-07
-6.65667e-08
2.14851e-07
4.69069e-08
-4.57911e-09
-4.26065e-08
2.28981e-07
-4.23672e-07
-2.06065e-07
1.59961e-06
3.63981e-06
-1.85331e-06
5.00858e-07
-3.5184e-06
1.66129e-06
-4.999e-07
1.90256e-06
2.81164e-07
-2.69219e-07
-1.76598e-06
-1.24289e-06
1.30536e-07
-7.25222e-08
7.07421e-08
-2.27762e-08
6.81336e-08
9.10347e-09
-8.98684e-08
-1.34126e-06
-9.78401e-06
1.1755e-05
1.48277e-06
7.76823e-06
-9.89694e-06
-2.89869e-06
-3.42734e-06
-2.77882e-06
-3.54341e-06
1.47306e-05
7.09432e-06
-9.00882e-06
-4.02931e-07
-4.69147e-07
-3.92077e-07
-4.79228e-07
1.86565e-06
-2.97953e-06
-3.44572e-06
-2.77638e-06
-2.31e-06
-1.69179e-06
-1.8168e-06
-2.18977e-06
1.03484e-05
-3.34177e-07
-2.55624e-07
-2.69738e-07
-3.20525e-07
1.34029e-06
-1.67269e-06
-2.40486e-06
-2.18378e-06
-1.52837e-07
1.49145e-07
1.89873e-07
1.62477e-08
-2.01663e-07
1.98988e-07
-1.2025e-07
4.21976e-07
-1.56139e-07
-6.97365e-08
2.26208e-07
2.5951e-07
-9.60681e-08
9.4813e-08
-5.8431e-08
4.35883e-06
5.81087e-07
-4.24996e-06
-5.88291e-07
-2.02385e-06
-8.08266e-07
8.6606e-07
7.71867e-07
-8.52415e-07
6.72046e-06
1.37534e-07
-7.42227e-08
-2.45319e-08
6.91085e-06
-2.47022e-06
8.50609e-07
-8.67562e-07
2.3307e-06
-6.81835e-06
-2.02473e-07
1.99874e-07
3.79956e-07
2.00968e-08
-1.17339e-05
-5.05517e-06
-4.16118e-06
-4.27834e-06
-4.94108e-06
2.02036e-05
-1.06568e-05
-6.38702e-07
-5.49487e-07
-5.56241e-07
-6.32061e-07
2.47088e-06
-4.18571e-06
-5.15575e-06
-4.99185e-06
-3.07343e-06
-2.64296e-05
-1.21066e-05
2.75096e-05
3.10694e-06
-1.56471e-07
2.00187e-07
1.65891e-08
-1.3288e-05
-5.91594e-06
-6.68997e-06
-5.79928e-06
-6.80423e-06
2.66181e-05
-1.20436e-05
-7.18144e-07
-7.9663e-07
-7.14507e-07
-8.01459e-07
3.11115e-06
-6.77935e-06
-5.99828e-06
-5.85763e-06
2.67809e-07
-2.16297e-07
-9.70285e-08
4.15645e-07
1.10259e-07
-3.19331e-07
-1.2395e-07
4.36702e-07
-2.04648e-07
-2.34188e-07
2.32603e-07
-1.76541e-07
6.72224e-07
2.68654e-07
-6.13491e-08
-9.72323e-08
9.64962e-07
-8.46632e-07
-9.51315e-07
7.69352e-06
1.09705e-05
-2.87708e-06
1.18485e-06
-1.09115e-05
2.78577e-06
-1.21585e-06
7.85619e-06
9.32882e-07
-9.58513e-07
-7.77935e-06
-2.58389e-06
4.16987e-07
-1.11534e-07
1.1075e-07
-1.12479e-07
3.93605e-07
1.99856e-08
-2.05005e-07
-3.69432e-06
-3.38153e-05
3.45119e-05
3.7027e-06
1.4564e-05
-1.55653e-05
-9.79689e-06
-1.07285e-05
-9.67632e-06
-1.08463e-05
4.16058e-05
1.31766e-05
-1.40626e-05
-1.03122e-06
-1.09324e-06
-1.02587e-06
-1.10314e-06
4.34413e-06
-9.89073e-06
-1.09093e-05
-9.82026e-06
-8.74842e-06
-7.65086e-06
-7.76924e-06
-8.63188e-06
3.38096e-05
-9.59558e-07
-8.76235e-07
-8.79046e-07
-9.5359e-07
3.74691e-06
-7.74987e-06
-8.86326e-06
-8.76593e-06
-2.35091e-07
2.33502e-07
6.15101e-07
1.52764e-08
-2.52839e-07
2.52068e-07
-2.30903e-07
9.47143e-07
-2.35712e-07
-1.80106e-07
6.88956e-07
5.91459e-07
-1.20103e-07
1.19702e-07
-1.81021e-07
1.20565e-05
1.25186e-06
-1.20159e-05
-1.29144e-06
-2.94003e-06
-9.84387e-07
1.55738e-06
9.77463e-07
-1.52975e-06
1.54519e-05
4.27516e-07
-1.12222e-07
-1.16491e-07
1.54766e-05
-3.10205e-06
1.45779e-06
-1.49878e-06
3.05133e-06
-1.54587e-05
-2.53167e-07
2.52395e-07
8.78026e-07
1.92101e-09
-1.63091e-05
-1.30527e-05
-1.18321e-05
-1.19542e-05
-1.29328e-05
4.98334e-05
-1.47241e-05
-1.22506e-06
-1.15367e-06
-1.16285e-06
-1.21072e-06
4.88333e-06
-1.20249e-05
-1.31864e-05
-1.31665e-05
-5.27883e-06
-5.90878e-05
-1.53571e-05
5.83371e-05
5.27082e-06
-2.36607e-07
6.31005e-07
1.45221e-08
-1.6817e-05
-1.42033e-05
-1.52152e-05
-1.40799e-05
-1.53348e-05
5.83122e-05
-1.51752e-05
-1.27703e-06
-1.3137e-06
-1.26314e-06
-1.33325e-06
5.36555e-06
-1.55053e-05
-1.43131e-05
-1.4327e-05
6.00936e-07
-4.39447e-07
-1.20003e-07
-2.34349e-07
9.64904e-07
-2.5308e-07
6.02708e-07
-1.85703e-07
-1.20413e-07
1.62474e-06
-9.96598e-07
-1.59527e-06
1.66366e-05
1.66243e-05
1.50998e-06
-1.56015e-06
-1.66297e-05
-3.12201e-06
8.95152e-07
7.59027e-10
-2.53876e-07
-5.70296e-06
-6.79436e-05
6.65262e-05
5.69873e-06
-1.76467e-05
-1.63891e-05
-1.65097e-05
-1.75338e-05
6.68032e-05
-1.43171e-06
-1.36066e-06
-1.37977e-06
-1.4071e-06
5.80055e-06
-1.66942e-05
-1.77943e-05
-1.78877e-05
2.12841e-08
2.05983e-08
-2.36914e-08
-1.85534e-08
1.8205e-08
1.88415e-08
-1.623e-08
8.48201e-08
1.98214e-07
-8.62441e-08
-1.64291e-07
1.90073e-07
8.33353e-08
-1.58007e-07
1.16477e-07
5.12217e-07
-1.16993e-07
-3.82825e-07
5.01238e-07
1.15576e-07
-3.75658e-07
1.11972e-06
1.98419e-07
-1.46296e-06
-2.4475e-07
-2.83713e-07
-2.38451e-07
-2.90951e-07
4.52276e-08
-5.02827e-08
-1.24531e-08
3.58087e-08
7.50326e-07
1.44458e-07
-1.9968e-07
-1.59582e-07
-1.62914e-07
-1.9516e-07
4.01347e-08
-1.09219e-08
3.17576e-08
-3.82051e-07
6.49429e-08
-7.52106e-08
-6.27706e-08
-7.54232e-08
-6.27462e-08
9.72066e-08
-9.9633e-08
-1.26192e-07
-1.27562e-07
-9.92419e-08
-1.19509e-07
1.20426e-07
2.93712e-08
-2.81487e-08
1.28199e-07
-1.50221e-07
1.03333e-06
1.10209e-06
-1.34722e-06
-5.24609e-08
-4.84088e-08
-4.10851e-08
-6.18392e-08
2.00699e-07
-2.08116e-07
-2.70601e-07
-2.19515e-07
-2.57437e-07
2.14968e-08
2.05811e-08
-2.39187e-08
-4.19473e-10
7.03931e-07
7.57075e-07
-4.41825e-08
-2.94094e-08
-3.66077e-08
-3.56582e-08
1.48939e-07
-1.65076e-07
-1.39666e-07
-1.78633e-07
-1.27222e-07
-2.50003e-07
-2.34269e-07
4.75993e-08
2.07395e-07
-4.56812e-08
2.57918e-07
-9.98574e-08
8.84929e-08
2.34125e-08
-2.36152e-08
-7.72578e-08
7.51296e-08
6.96063e-09
-5.865e-09
-1.04335e-08
1.84285e-08
-4.20772e-08
1.27467e-08
6.43068e-08
3.13815e-08
-1.14051e-08
3.6535e-08
1.49651e-08
-2.54947e-08
-2.82236e-08
-1.35229e-08
2.78608e-08
-2.84263e-08
-1.07792e-07
-1.24737e-07
-8.34083e-08
3.27485e-08
-2.90036e-08
7.36985e-08
2.26076e-07
1.61655e-08
9.4777e-08
-1.43904e-08
-5.28961e-08
-1.95365e-07
4.65045e-08
1.7271e-07
-4.84883e-08
-2.36915e-07
2.48776e-08
-2.37607e-08
9.7041e-08
9.09066e-08
1.81893e-08
1.9046e-08
-2.00949e-10
-3.62694e-07
3.40076e-07
-1.77968e-08
-1.1141e-08
-1.43363e-08
-1.38464e-08
8.32668e-08
-4.70945e-08
-5.39791e-08
-6.44447e-08
-3.453e-08
4.99534e-07
-2.36524e-08
-2.45012e-08
-2.9899e-08
-1.9049e-08
1.08156e-07
-6.83686e-08
-1.09629e-07
-9.53116e-08
-8.29506e-08
1.62647e-08
-3.08767e-08
-1.43171e-08
4.33059e-08
-1.47339e-07
-8.70581e-07
-1.12068e-06
7.55576e-07
1.14784e-06
1.97907e-07
-1.49015e-06
-2.53147e-07
-2.87668e-07
-2.42259e-07
-2.98785e-07
1.15682e-06
1.20781e-06
-1.50291e-06
-4.18676e-08
-4.58972e-08
-3.88855e-08
-4.89828e-08
4.55134e-08
-5.05938e-08
3.03741e-08
5.07705e-09
7.78967e-07
-2.08953e-07
-1.63289e-07
-1.98852e-07
-1.7336e-07
7.88542e-07
-3.60608e-08
-2.76879e-08
-3.38801e-08
-2.9787e-08
-1.45161e-06
-1.05077e-07
-6.20699e-07
3.91032e-07
4.04053e-08
2.6975e-08
4.54123e-09
-4.05927e-07
7.86364e-08
-9.17134e-08
-6.73685e-08
-7.98582e-08
-8.03578e-08
-4.10407e-07
4.80549e-07
-1.49863e-08
-1.02917e-08
-1.31214e-08
-1.24677e-08
-1.13996e-07
-1.30068e-07
-1.03364e-07
-1.39942e-07
-1.92602e-08
-2.29301e-08
-1.74801e-08
-2.45405e-08
-5.7324e-08
8.05342e-08
5.5263e-08
-7.04674e-08
8.61265e-08
-5.92994e-08
-7.5169e-08
-1.8048e-06
2.60171e-07
-4.03306e-07
-3.38216e-07
-3.47322e-07
-3.93464e-07
-1.21016e-07
1.16689e-07
-4.35027e-08
1.34213e-07
-2.10968e-06
3.28207e-07
-4.70096e-07
-5.23252e-07
-5.35491e-07
-4.58413e-07
-1.25214e-07
-4.62719e-08
1.43376e-07
2.41459e-06
4.83709e-07
-2.67316e-06
-7.74236e-07
-8.40137e-07
-7.57585e-07
-8.57207e-07
4.04072e-07
-6.87361e-07
-5.98824e-07
-6.12955e-07
-6.72771e-07
-5.0398e-07
-3.35954e-07
8.27e-08
3.12631e-07
-7.97212e-08
5.09533e-07
-1.64674e-06
1.53755e-06
-8.32583e-08
-5.45976e-08
-7.19808e-08
-6.31299e-08
2.63255e-07
-3.72446e-07
-3.22205e-07
-3.118e-07
-3.85103e-07
-5.75054e-08
8.0714e-08
5.5459e-08
-1.14202e-08
-3.04819e-07
5.52059e-08
-2.61651e-07
-5.30921e-08
3.12143e-07
-1.92709e-06
2.05994e-06
-9.52166e-08
-7.98253e-08
-1.08263e-07
-7.01422e-08
3.36052e-07
-4.37765e-07
-5.2126e-07
-4.47101e-07
-5.09201e-07
2.80308e-07
5.80178e-07
9.43456e-08
-5.65303e-07
-1.00419e-07
-3.00312e-07
-1.48407e-07
1.12351e-07
-1.00801e-07
1.41891e-07
8.23552e-07
1.18982e-07
7.77611e-08
5.61366e-07
-1.27161e-07
-6.98475e-08
8.39862e-07
-3.53511e-07
1.3053e-07
3.36974e-07
-8.2259e-07
-1.39741e-07
8.33701e-08
-4.89212e-07
2.60697e-07
-8.84503e-08
4.00298e-08
-3.56901e-08
-9.30935e-08
2.82076e-07
6.74981e-08
4.8369e-07
1.10914e-07
-6.04025e-08
5.44601e-08
-2.18137e-07
-5.71355e-08
-2.91688e-07
9.30578e-08
-8.98336e-08
5.84944e-07
-3.6024e-07
8.63263e-08
-5.94838e-08
-1.26718e-08
2.19102e-06
3.34923e-06
-2.43422e-06
-1.51226e-07
-1.17688e-07
-1.06377e-07
-1.66933e-07
5.06403e-07
-7.51616e-07
-8.53032e-07
-7.58547e-07
-8.42543e-07
2.66611e-06
-1.36368e-07
-8.75393e-08
-1.21824e-07
-9.81792e-08
4.17715e-07
-6.66371e-07
-5.92989e-07
-5.84835e-07
-6.77657e-07
-4.24093e-07
1.27236e-07
4.04407e-07
-1.22896e-07
8.42531e-07
1.79094e-06
-3.20105e-07
-2.14358e-06
-2.08352e-06
2.55528e-07
-1.83155e-06
-4.10341e-07
-3.42402e-07
-3.54494e-07
-3.97969e-07
1.63445e-06
-1.84096e-06
-6.33748e-08
-5.12813e-08
-5.53167e-08
-5.92238e-08
-1.21219e-07
1.16935e-07
1.1715e-07
1.25336e-08
-2.13686e-06
-4.77029e-07
-5.2857e-07
-4.6332e-07
-5.42673e-07
-2.15004e-06
-7.03943e-08
-7.40133e-08
-6.51211e-08
-7.93709e-08
-3.90713e-07
-2.73638e-06
-2.38973e-06
-1.25422e-07
1.25368e-07
1.2962e-08
2.4424e-06
4.66337e-07
-2.70341e-06
-7.82305e-07
-8.47601e-07
-7.64542e-07
-8.65874e-07
2.45084e-06
3.40187e-06
-2.71778e-06
-1.04806e-07
-1.06811e-07
-9.66139e-08
-1.15108e-07
-6.95096e-07
-6.04631e-07
-6.7915e-07
-6.20184e-07
-9.67774e-08
-8.03505e-08
-9.00314e-08
-8.69521e-08
-2.63916e-06
1.79001e-07
-1.82042e-07
-9.59256e-08
3.24866e-07
3.38009e-06
8.26844e-07
-3.56025e-06
-1.58354e-06
-1.66611e-06
-1.55571e-06
-1.69436e-06
3.15343e-06
7.40799e-07
-1.46437e-06
-1.33479e-06
-1.35954e-06
-1.43914e-06
1.75938e-07
-9.24614e-08
3.11678e-07
-2.93507e-06
5.67826e-07
-1.0445e-06
-9.34493e-07
-9.53632e-07
-1.02494e-06
6.53234e-07
-1.14889e-06
-1.22465e-06
-1.247e-06
-1.12698e-06
4.98722e-07
-1.35647e-06
1.88767e-07
-1.82303e-07
1.35499e-06
-5.16683e-07
8.53579e-08
1.98858e-07
-8.67844e-08
-4.06277e-08
3.05745e-06
6.7495e-06
-3.22837e-06
-2.84131e-07
-1.97416e-07
-1.85867e-07
-3.0157e-07
8.9032e-07
-1.58743e-06
-1.7156e-06
-1.58912e-06
-1.70887e-06
2.86705e-06
5.81092e-06
-2.67134e-07
-1.66271e-07
-2.49754e-07
-1.78089e-07
7.9346e-07
-1.47077e-06
-1.35891e-06
-1.35596e-06
-1.4784e-06
-1.71167e-06
-5.6054e-07
2.26102e-07
5.47658e-07
-2.1783e-07
1.70768e-06
1.24608e-06
-4.15175e-07
1.82904e-07
-1.97041e-07
4.01583e-07
-1.22549e-06
1.24206e-07
-1.11617e-07
9.19919e-07
-1.55164e-07
9.34595e-07
1.43273e-07
-3.70706e-07
-9.17133e-07
-1.53696e-07
-1.72168e-07
1.61791e-07
1.23387e-06
1.67053e-07
-1.44776e-07
1.76403e-07
-1.70328e-07
4.82557e-07
1.24555e-06
1.90685e-07
8.38455e-08
-3.83048e-08
-2.66084e-06
4.10536e-06
-1.99321e-07
-1.26085e-07
-1.82753e-07
-1.37831e-07
5.99853e-07
-1.03626e-06
-9.42301e-07
-9.36677e-07
-1.04584e-06
1.39183e-07
-4.45162e-07
-1.3453e-07
9.36358e-07
4.92717e-06
-2.15801e-07
-1.58123e-07
-2.32909e-07
-1.46243e-07
6.96264e-07
-1.13859e-06
-1.25479e-06
-1.24614e-06
-1.14292e-06
1.9619e-07
-2.11737e-07
-1.33559e-06
-4.2968e-07
-1.90848e-07
2.11237e-07
-1.87927e-07
1.86978e-07
1.70354e-06
1.73967e-07
1.34607e-06
-1.55742e-07
-1.77633e-07
-4.66004e-07
2.36173e-07
4.55126e-07
-2.55814e-07
-1.68705e-06
-7.06482e-07
-5.80828e-06
-3.3492e-06
3.11584e-06
1.79867e-07
-1.82925e-07
2.90347e-07
1.91701e-08
3.41554e-06
7.87026e-07
-3.59661e-06
-1.59661e-06
-1.67884e-06
-1.5678e-06
-1.70838e-06
3.42537e-06
6.72381e-06
-3.61125e-06
-1.79919e-07
-1.73307e-07
-1.63105e-07
-1.90524e-07
3.18784e-06
-1.47682e-06
-1.34542e-06
-1.45054e-06
-1.37112e-06
3.20361e-06
-1.72098e-07
-1.47065e-07
-1.57504e-07
-1.61209e-07
-3.51691e-06
2.90825e-06
-6.25654e-07
-4.94292e-06
1.76732e-07
2.78224e-07
1.90209e-08
5.44882e-07
-2.96771e-06
-1.05417e-06
-9.42521e-07
-9.62611e-07
-1.0336e-06
4.14168e-06
-2.97823e-06
-1.34045e-07
-1.1341e-07
-1.23299e-07
-1.23912e-07
-1.15911e-06
-1.23458e-06
-1.13631e-06
-1.25807e-06
-1.42308e-07
-1.4099e-07
-1.30376e-07
-1.53148e-07
-1.04602e-07
3.34416e-07
1.03561e-07
-2.63778e-07
3.44314e-07
-1.05495e-07
-2.70747e-07
-3.75083e-06
9.13072e-07
-1.93648e-06
-1.78945e-06
-1.82032e-06
-1.90515e-06
-2.20518e-07
2.18392e-07
-1.48627e-07
5.4299e-07
-3.89355e-06
9.96708e-07
-2.06772e-06
-2.15431e-06
-2.18904e-06
-2.03353e-06
-2.22443e-07
-1.52267e-07
5.58851e-07
4.04846e-06
1.15434e-06
-4.15225e-06
-2.59307e-06
-2.68086e-06
-2.55193e-06
-2.72251e-06
1.07889e-06
-2.45196e-06
-2.28847e-06
-2.32606e-06
-2.41385e-06
-2.22639e-06
-6.10301e-07
2.73473e-07
6.00484e-07
-2.62545e-07
2.21864e-06
-3.38408e-06
7.73912e-06
-3.35812e-07
-2.04626e-07
-3.185e-07
-2.15811e-07
9.85173e-07
-1.95912e-06
-1.83213e-06
-1.83172e-06
-1.96485e-06
-1.04749e-07
3.35439e-07
1.03739e-07
-8.32622e-08
-1.83527e-06
2.38145e-07
-5.75564e-07
-2.29353e-07
1.8302e-06
-3.52105e-06
8.773e-06
-3.52517e-07
-2.32985e-07
-3.69584e-07
-2.22348e-07
1.07733e-06
-2.08752e-06
-2.22505e-06
-2.08672e-06
-2.22018e-06
5.06764e-07
2.36042e-06
2.99544e-07
-2.33064e-06
-3.26653e-07
-5.16437e-07
-2.1582e-07
2.99904e-07
-2.61611e-07
2.13875e-07
2.77914e-06
2.05169e-07
2.68527e-07
2.35815e-06
-2.08547e-07
-2.3647e-07
2.77938e-06
-5.38439e-07
3.34646e-07
5.32295e-07
-2.74489e-06
-3.66334e-07
2.87416e-07
-2.19706e-06
4.98391e-07
-3.12917e-07
2.22893e-07
-1.98177e-07
-1.95191e-07
1.82899e-06
2.57931e-07
2.22224e-06
2.02352e-07
-2.27429e-07
2.49188e-07
-4.77994e-07
-2.70343e-07
-1.81028e-06
2.84549e-07
-2.7303e-07
2.35157e-06
-6.22565e-07
3.45368e-07
-1.05665e-07
-8.67628e-08
3.64382e-06
1.09569e-05
-3.74928e-06
-4.18636e-07
-2.63163e-07
-2.53855e-07
-4.34872e-07
1.24872e-06
-2.62845e-06
-2.77266e-06
-2.62523e-06
-2.7698e-06
9.8481e-06
-4.02657e-07
-2.38768e-07
-3.8595e-07
-2.48812e-07
1.16523e-06
-2.49087e-06
-2.3515e-06
-2.35351e-06
-2.49468e-06
-6.49011e-07
3.16619e-07
6.41971e-07
-3.02733e-07
2.76774e-06
3.71537e-06
-9.4284e-07
-8.7022e-06
-3.8451e-06
8.65623e-07
-3.78785e-06
-1.95213e-06
-1.80285e-06
-1.83499e-06
-1.91933e-06
7.69341e-06
-3.79556e-06
-2.08442e-07
-1.78311e-07
-1.97917e-07
-1.88116e-07
-2.20793e-07
2.18734e-07
4.92942e-07
1.89165e-08
-3.93115e-06
-2.08404e-06
-2.16986e-06
-2.04842e-06
-2.2063e-06
-3.94296e-06
-2.15381e-07
-2.01646e-07
-1.92388e-07
-2.25364e-07
-1.01601e-06
-9.75596e-06
-4.00887e-06
-2.2279e-07
5.07877e-07
1.84802e-08
4.0864e-06
1.08378e-06
-4.19118e-06
-2.61241e-06
-2.69899e-06
-2.56955e-06
-2.74268e-06
4.09057e-06
1.08381e-05
-4.20107e-06
-2.47007e-07
-2.24131e-07
-2.16441e-07
-2.55363e-07
-2.4707e-06
-2.3047e-06
-2.43079e-06
-2.34392e-06
-2.41406e-07
-2.05135e-07
-2.13791e-07
-2.31698e-07
-4.10103e-06
2.45438e-07
-2.46607e-07
-2.07512e-07
8.24949e-07
4.43591e-06
1.41012e-06
-4.47923e-06
-3.72269e-06
-3.80563e-06
-3.6671e-06
-3.86177e-06
4.34574e-06
1.35051e-06
-3.57017e-06
-3.38091e-06
-3.43289e-06
-3.51773e-06
2.43797e-07
-2.03969e-07
8.07545e-07
-4.27285e-06
1.22325e-06
-2.99938e-06
-2.82262e-06
-2.86722e-06
-2.95418e-06
1.28754e-06
-3.14689e-06
-3.23307e-06
-3.28206e-06
-3.0985e-06
6.7773e-07
-3.50818e-06
3.63814e-07
-3.4614e-07
3.49142e-06
-6.85312e-07
1.16586e-07
5.13708e-07
-1.1707e-07
-1.49794e-07
3.98622e-06
1.56452e-05
-4.0389e-06
-5.40778e-07
-3.07836e-07
-3.00484e-07
-5.5559e-07
1.53662e-06
-3.79419e-06
-3.94465e-06
-3.78571e-06
-3.94637e-06
3.91966e-06
1.44433e-05
-5.26404e-07
-2.90378e-07
-5.11315e-07
-2.98106e-07
1.46972e-06
-3.64506e-06
-3.48773e-06
-3.49485e-06
-3.64442e-06
-3.96227e-06
-6.97994e-07
3.89584e-07
6.95462e-07
-3.69222e-07
3.94254e-06
3.36071e-06
-5.61884e-07
3.77269e-07
-4.15534e-07
5.57676e-07
-3.32065e-06
3.09134e-07
-2.69206e-07
2.92307e-06
-2.18389e-07
2.92123e-06
3.45619e-07
-5.45982e-07
-2.88629e-06
-3.79029e-07
-2.23331e-07
3.36615e-07
3.36443e-06
2.2215e-07
-2.90121e-07
3.55051e-07
-3.38025e-07
6.73117e-07
3.34502e-06
5.02742e-07
1.16007e-07
-1.45383e-07
-3.84213e-06
1.20953e-05
-4.6615e-07
-2.67245e-07
-4.50338e-07
-2.75915e-07
1.32649e-06
-3.0558e-06
-2.90649e-06
-2.91099e-06
-3.0575e-06
3.26487e-07
-6.58762e-07
-3.11982e-07
2.90847e-06
1.32581e-05
-4.81188e-07
-2.87517e-07
-4.96637e-07
-2.7938e-07