/*--------------------------------*- C++ -*----------------------------------*\
| =========                 |                                                 |
| \\      /  F ield         | OpenFOAM: The Open Source CFD Toolbox           |
|  \\    /   O peration     | Version:  2012                                  |
|   \\  /    A nd           | Website:  www.openfoam.com                      |
|    \\/     M anipulation  |                                                 |
\*---------------------------------------------------------------------------*/
FoamFile
{
    version     2.0;
    format      ascii;
    class       volScalarField;
    location    "0.106/fluid";
    object      p;
}
// * * * * * * * * * * * * * * * * * * * * * * * * * * * * * * * * * * * * * //

dimensions      [0 2 -2 0 0 0 0];


internalField   nonuniform List<scalar> 
16422
(
-0.124542
0.00596257
0.00887943
0.00557525
0.00333648
0.00224051
0.00152512
0.000996565
0.000602245
0.000308526
9.69964e-05
-4.66036e-05
-0.000107746
-9.47941e-05
-4.50898e-05
-0.033925
-0.00999823
-9.26085e-05
0.0014049
0.0012891
0.00111681
0.000846631
0.000578257
0.00034879
0.000162002
1.77963e-05
-8.21632e-05
-0.000112257
-8.03919e-05
-2.76764e-05
-0.0180815
-0.0104579
-0.00423882
-0.00148351
-0.000180543
0.000294278
0.000369037
0.000294974
0.000179852
6.88983e-05
-2.70313e-05
-9.38041e-05
-0.000101523
-5.94715e-05
-5.17324e-06
-0.131499
0.0135278
0.0128899
0.00666413
0.00336832
0.00206237
0.00137575
0.000890427
0.00052897
0.000259907
6.46614e-05
-6.31995e-05
-0.00011676
-9.81125e-05
-4.1653e-05
-0.0318121
-0.00724608
0.00165324
0.00190491
0.00128498
0.00101488
0.000747323
0.000501621
0.000292504
0.000123403
-7.47153e-06
-9.40702e-05
-0.000119478
-8.11133e-05
-1.91825e-05
-0.0170524
-0.00935599
-0.0035635
-0.00124683
-0.000164643
0.000233996
0.000299046
0.000236454
0.000136648
3.78451e-05
-4.72652e-05
-0.000104251
-0.000108357
-5.69754e-05
4.09935e-06
-0.0938043
0.026565
0.0142378
0.00595351
0.00266304
0.00156534
0.000998853
0.000618655
0.000339549
0.000130183
-2.21844e-05
-0.000119102
-0.000150952
-0.000117343
-5.0441e-05
-0.0246752
-0.00206175
0.00295867
0.00190108
0.00103298
0.000700564
0.000471245
0.000286708
0.000134311
1.06797e-05
-8.50064e-05
-0.000145149
-0.00015232
-0.000100451
-2.68714e-05
-0.0145536
-0.0073588
-0.00269628
-0.00103018
-0.000279104
1.76934e-05
8.49024e-05
5.82642e-05
-5.762e-07
-6.32554e-05
-0.000118117
-0.000152125
-0.000141453
-7.70042e-05
-5.69855e-06
-0.156538
0.0623299
-0.140506
0.0105131
-0.140779
0.0474641
-0.105213
0.0509118
-0.094526
0.0682895
0.174939
0.323123
0.0290647
0.0132229
0.012487
0.00728126
0.00365885
-0.0345167
-0.00964308
-0.137056
-0.0121664
-0.0357405
-0.0125071
0.227824
0.195402
0.037552
0.0180796
0.0368342
0.0131445
0.00404609
-0.0323097
-0.00720146
-0.110317
0.0126177
-0.0261687
-0.00258206
0.25896
0.252134
0.0511887
0.0207066
0.0248363
-0.0218977
0.0016083
0.111347
0.166872
0.0420943
0.197731
0.185813
-0.0496304
-0.137868
-0.0179437
0.176872
0.108186
0.0983081
0.0616439
0.00195719
0.0107057
-0.0430218
0.13028
0.172127
0.19406
0.111846
0.0107725
0.113403
0.125719
0.183063
-0.139991
-0.0162946
-0.0146927
0.210281
0.104549
0.0526695
0.0267515
-0.00752036
0.0978532
0.0321543
0.126131
0.157402
0.128981
0.260002
-0.00847418
-0.133766
0.213118
0.00101084
0.167869
0.0891453
0.0273353
0.0313606
0.128651
0.0543698
0.0181361
0.229237
0.251745
0.160168
0.18556
0.264072
-0.128771
0.0315128
0.00899724
0.334701
0.171462
0.0533767
0.0791193
0.0454937
0.0905829
0.0393731
0.227607
0.203231
0.187329
0.429531
0.0418333
-0.0559898
0.339987
0.0724157
0.299946
0.102518
0.0659497
0.0717824
0.232009
0.102105
0.0789001
0.257912
0.203937
0.434802
-0.0426639
0.0822624
0.304327
0.0817636
0.113505
0.094811
0.17509
0.215496
0.213216
0.21424
0.257166
0.257948
0.120638
0.112146
0.0345455
0.126236
0.20073
0.235276
-0.082828
0.0537913
0.180877
0.0370133
-0.0771942
-0.13889
-0.249919
-0.260197
-0.186596
-0.135816
-0.258765
-0.260738
-0.12742
-0.080814
0.19494
0.0869049
0.0679518
-0.161479
0.0631264
0.13545
0.0966946
0.113073
0.0630716
0.0862337
0.0771307
0.14817
0.133525
0.132629
0.136386
0.226877
0.136222
0.120102
0.185704
0.179177
0.12125
0.118532
0.146936
0.117492
0.103745
0.0912903
-0.0718427
0.0520169
0.199909
-0.0759716
0.0602591
-0.123824
-0.262359
-0.261048
-0.120478
-0.123167
-0.258429
-0.259874
-0.126095
-0.0730866
0.196165
0.058917
0.0527103
-0.0687492
0.0973432
0.126123
0.103534
0.120564
0.0911223
0.149367
0.109038
0.0719149
0.113225
0.118453
0.100053
0.107993
0.0947588
0.0763428
0.144848
0.126499
0.120678
0.144084
0.13134
0.140636
-0.0550012
0.235062
0.0890128
0.0795133
-0.0415197
-0.110959
-0.262295
-0.118587
-0.259738
-0.0575676
0.235666
0.0671298
-0.0662651
0.0748894
-0.108333
-0.250157
-0.258689
-0.095509
0.0922027
0.146779
0.139606
0.12495
0.133229
0.117185
0.0975667
0.100868
0.149326
0.138608
0.11169
0.0942709
0.146586
0.118977
0.242966
0.242885
0.145125
0.173737
0.152006
0.174865
0.150305
0.144846
-0.0163373
0.101172
0.295242
-0.0360096
0.113955
-0.063407
-0.199623
-0.223718
-0.0371226
-0.0706684
-0.246176
-0.230181
-0.0902186
-0.0092434
0.299028
0.14211
0.126566
0.016518
0.118066
0.15543
0.136379
0.197102
0.110552
0.164326
0.146245
0.118822
0.199599
0.168743
0.16416
0.160006
0.152896
0.126582
0.197207
0.169324
0.165574
0.1965
0.161287
0.166719
0.0677841
0.386447
0.214678
0.195719
0.101851
0.00487474
-0.190471
-0.0274871
-0.15905
0.0571886
0.381236
0.159525
0.0259248
0.177671
0.0159891
-0.111335
-0.147832
0.0517881
0.151177
0.267888
0.199227
0.213398
0.19208
0.200814
0.15899
0.146429
0.263947
0.180503
0.177237
0.137618
0.188832
0.189995
0.257939
0.255706
0.174194
0.207666
0.17672
0.207453
0.175519
0.145887
0.233263
0.476729
0.112943
0.250705
0.109309
-0.0486332
0.098822
-0.0989316
-0.06071
0.0635415
0.155421
0.480427
0.265082
0.172729
0.20636
0.225348
0.33451
0.166623
0.211896
0.236191
0.175073
0.337735
0.213614
0.243631
-0.00447581
0.101769
0.163261
0.106764
-0.0119187
-0.435146
-0.384404
-0.362723
-0.0221026
0.213687
0.441239
0.075019
0.0925901
0.0484082
0.219573
0.151532
0.147926
0.0515833
-0.241931
-0.258148
0.0315268
0.206635
0.129983
0.0257093
0.135355
-0.210298
-0.204236
0.0604667
0.257631
0.168589
0.169571
0.0575593
-0.195055
-0.193364
0.0684941
0.255727
0.17102
0.0682277
0.171989
-0.213032
-0.221948
0.142884
0.0937178
0.158708
0.108936
0.0969297
0.156947
0.142672
0.189124
0.170899
0.159852
0.285335
0.122658
0.138937
0.16559
-0.00147713
0.106408
0.175386
0.107523
-0.00134759
-0.306573
-0.291986
-0.331734
-0.327286
-0.0458042
0.188369
0.154354
0.0884713
0.0708783
0.144657
0.166335
0.0962844
0.0977938
0.165538
0.0971551
0.145923
0.166704
0.143313
0.204567
0.107797
0.136934
0.102842
0.113327
0.00153015
0.108753
0.181661
-0.00485179
0.115314
-0.274261
-0.261098
-0.328526
-0.359131
0.0125573
0.183047
0.121504
0.0164173
0.11757
0.157242
0.102005
0.159932
0.117123
0.148981
0.110532
0.165152
0.147468
0.118968
0.10888
0.161661
0.105956
0.156298
0.150373
0.0039053
0.109709
0.193452
0.000681745
0.1131
-0.323973
-0.323794
-0.323462
-0.327857
0.00966096
0.200797
0.121369
0.117432
0.0126777
0.152696
0.165209
0.100729
0.116213
0.148936
0.171353
0.104907
0.146011
0.116166
0.169907
0.108089
0.164794
0.103957
0.150248
0.170579
0.150768
0.135983
0.186348
0.132706
0.182068
0.173682
0.167519
0.137403
0.119822
0.171895
0.125456
0.161888
0.177782
0.0429049
0.247649
0.157303
0.151162
0.0488271
-0.319258
-0.323633
0.0215079
0.223822
0.126398
0.016696
0.131332
-0.303865
-0.296666
0.171391
0.157067
0.196432
0.13945
0.191775
0.134111
0.175888
0.16392
0.139837
0.179025
0.114566
0.158645
0.18439
0.119958
0.0607058
0.156793
0.237058
0.0569804
0.160422
-0.189445
-0.192335
-0.19523
-0.202676
0.067116
0.247048
0.16926
0.0671809
0.167906
0.185575
0.143026
0.193811
0.16732
0.181313
0.147147
0.198477
0.192374
0.180562
0.156677
0.212265
0.15465
0.208689
0.194664
0.0637237
0.164103
0.277772
0.0557298
0.171291
-0.237109
-0.219922
-0.281071
-0.293585
0.105789
0.317962
0.217264
0.208153
0.115726
0.188691
0.203916
0.146145
0.183641
0.182976
0.209139
0.15264
0.207504
0.214412
0.230754
0.187458
0.225738
0.180324
0.212983
0.206647
0.200717
0.165092
0.234377
0.164774
0.231918
0.207619
0.201689
0.192033
0.160037
0.217161
0.162238
0.19879
0.22088
0.197366
0.410255
0.296646
0.286281
0.209347
-0.190973
-0.213453
0.138217
0.357748
0.226691
0.126438
0.236571
-0.120426
-0.0963207
0.25083
0.28594
0.267247
0.247121
0.262804
0.23959
0.256041
0.225752
0.246238
0.236845
0.195168
0.219474
0.242124
0.203098
0.0531785
0.167731
0.258867
0.0555568
0.166469
-0.230728
-0.224655
0.210275
0.165741
0.23693
0.206229
0.208978
0.166053
0.23929
0.234184
0.306736
0.453795
0.221564
0.316809
-0.0601526
-0.0878936
0.266553
0.271516
0.254516
0.318218
0.261145
0.275798
0.261975
-0.122939
-0.100696
-0.113202
-0.12301
-0.0154081
0.162706
0.0919199
-0.0188843
0.102378
-0.130624
-0.122764
-0.117666
-0.12447
-0.441133
-0.472698
-0.373574
-0.208175
-0.369665
-0.185378
-0.387328
-0.2095
-0.315659
-0.144469
-0.159111
-0.297498
-0.395992
-0.453655
-0.326594
-0.179998
-0.165147
-0.370617
0.101932
0.240158
0.131321
0.0416129
0.221537
-0.0830175
-0.147825
-0.0930622
-0.119823
-0.0980833
-0.146566
0.0445737
0.218776
0.142186
0.0410541
0.14467
-0.044288
-0.00267003
-0.00919101
-0.0407787
-0.0484767
-0.0186179
-0.0529704
-0.0112419
-0.187911
-0.0763933
-0.0641383
-0.202263
-0.239051
-0.227352
-0.18461
-0.0520652
-0.0614612
-0.174042
0.0374658
0.20718
0.143065
0.0404804
0.140233
-0.0670494
-0.0423443
-0.0307118
-0.0724094
-0.0605782
-0.0195329
-0.0555741
-0.0282803
-0.158104
-0.0338822
-0.0403154
-0.152198
-0.21262
-0.224412
-0.160705
-0.0506692
-0.0425365
-0.171145
0.0624525
0.258374
0.171182
0.0641849
0.170367
-0.0369681
-0.0130868
-0.00713845
-0.040287
-0.0342028
-0.000341447
-0.0316442
-0.00519912
-0.143732
-0.0227367
-0.0246541
-0.14157
-0.196814
-0.203319
-0.145158
-0.0303176
-0.025897
-0.151403
0.0680203
0.255636
0.172239
0.0661175
0.172495
-0.0260438
0.00839366
0.00667051
-0.0253181
-0.0272337
0.00155001
-0.0292657
0.0054795
-0.160885
-0.0458589
-0.0393053
-0.169477
-0.210451
-0.205472
-0.158677
-0.0322311
-0.0373015
-0.153316
0.129028
0.113018
0.0723285
0.130608
0.0876796
0.117478
0.124199
0.222678
0.164621
0.109418
0.199482
0.176649
0.169161
0.264679
-0.107626
-0.0832032
-0.0881039
-0.104906
-0.0107644
0.172912
0.113534
0.00207622
0.0994177
-0.112071
-0.0960318
-0.087678
-0.10331
-0.323186
-0.340858
-0.253299
-0.178718
-0.149162
-0.259011
-0.269542
-0.147918
-0.28025
-0.148769
-0.269665
-0.122693
-0.127554
-0.265802
-0.329352
-0.336577
-0.268418
-0.136205
-0.126798
-0.273443
0.0238112
0.217379
0.110709
-0.0223988
0.147284
-0.159474
-0.163567
-0.114505
-0.0602764
-0.107784
-0.108492
-0.144484
-0.107812
0.1256
0.0935289
0.14379
0.101399
0.136987
0.0856298
0.139901
0.216585
0.157389
0.202458
0.122386
0.268178
0.156589
0.183764
-0.111478
-0.0955814
-0.114013
-0.0823816
0.00919785
0.18016
0.120229
0.00910826
0.120814
-0.103377
-0.0699604
-0.0801001
-0.0974593
-0.27819
-0.298464
-0.218304
-0.0804464
-0.205998
-0.0921669
-0.222656
-0.106949
-0.239838
-0.0953915
-0.266869
-0.138578
-0.291985
-0.122866
-0.324181
-0.302475
-0.261926
-0.107794
-0.120029
-0.243927
0.00706144
0.183288
0.112315
0.00414944
0.113722
-0.0865986
-0.0462823
-0.0816192
-0.0577426
-0.0925636
-0.0703147
-0.0975586
-0.0605928
0.163289
0.11933
0.119448
0.176193
0.118635
0.165674
0.172258
0.145492
0.117222
0.101737
0.149917
0.10308
0.142494
0.153029
-0.100612
-0.0842973
-0.103131
-0.080004
0.0065561
0.194441
0.117186
0.00757429
0.116047
-0.0983171
-0.0774085
-0.0799779
-0.0968933
-0.32344
-0.325811
-0.262044
-0.111139
-0.114599
-0.261312
-0.261821
-0.117771
-0.263866
-0.114917
-0.262639
-0.1237
-0.26624
-0.119511
-0.324492
-0.325165
-0.263111
-0.117418
-0.119601
-0.263426
0.00753658
0.199523
0.113906
0.00571787
0.115056
-0.0935761
-0.0704998
-0.0746106
-0.090542
-0.0955834
-0.0779506
-0.0973253
-0.0750558
0.158721
0.115927
0.180652
0.109214
0.178925
0.109042
0.158552
0.143439
0.116435
0.160601
0.101009
0.162442
0.101452
0.143567
0.168766
0.148764
0.127838
0.176859
0.130122
0.166142
0.179343
0.171082
0.139893
0.132772
0.184311
0.129972
0.174049
0.181649
0.0377142
0.244748
0.141792
0.0323729
0.146255
-0.0587237
-0.032327
-0.0424031
-0.0520735
-0.0645332
-0.0536916
-0.0703048
-0.045187
-0.256706
-0.110151
-0.260946
-0.104761
-0.318351
-0.315447
-0.255593
-0.0972757
-0.103158
-0.252166
0.025486
0.226224
0.139497
0.0291639
0.135541
-0.082709
-0.0693096
-0.0869795
-0.0636771
-0.0786335
-0.0556975
-0.0743681
-0.0619731
-0.240566
-0.0743039
-0.0840711
-0.233008
-0.306118
-0.313919
-0.242978
-0.0952429
-0.0868518
-0.250524
0.168255
0.15507
0.185516
0.12598
0.188567
0.130072
0.165401
0.167448
0.141243
0.191528
0.12728
0.188171
0.124006
0.170202
-0.0324854
-0.000731534
-0.0356462
0.00490152
0.0637113
0.237878
0.165297
0.0648612
0.163471
-0.0295771
0.00865611
0.00584568
-0.027759
-0.189072
-0.191674
-0.138181
-0.0221117
-0.140811
-0.0210668
-0.138087
-0.0223037
-0.140022
-0.0210002
-0.143765
-0.0319013
-0.150289
-0.0261029
-0.194348
-0.19209
-0.142605
-0.0223183
-0.0250864
-0.140535
0.0662346
0.246721
0.165337
0.0650243
0.166545
-0.0255157
0.00896853
-0.0256531
0.00957938
-0.0260619
0.00852039
-0.0270813
0.00966187
0.188656
0.169401
0.152362
0.204545
0.150351
0.190831
0.202121
0.190516
0.179022
0.151105
0.203135
0.152856
0.188264
0.205684
-0.0363583
-0.0287016
-0.0446165
-0.0161668
0.0712826
0.28178
0.185421
0.0789313
0.178271
-0.0278362
0.00234489
-0.0119063
-0.0188396
-0.242743
-0.260171
-0.173881
0.00679059
-0.011861
-0.156721
-0.179562
-0.0346453
-0.196497
-0.0176355
-0.217688
-0.0707278
-0.229807
-0.0580681
-0.277134
-0.264999
-0.213647
-0.0396328
-0.0537757
-0.20134
0.0963527
0.313306
0.192038
0.0868517
0.199883
0.0119552
0.0480929
0.0295077
0.0235596
0.00102175
0.00724512
-0.00941529
0.0238611
0.193497
0.186765
0.21722
0.163762
0.213768
0.15843
0.197137
0.202596
0.210816
0.217587
0.167843
0.221308
0.173889
0.198209
0.205729
0.19991
0.163893
0.227248
0.16439
0.204315
0.229566
0.203714
0.19335
0.164503
0.226441
0.16375
0.204985
0.224037
0.185204
0.404828
0.265947
0.172586
0.276109
0.118207
0.166673
0.14287
0.132611
0.103797
0.111585
0.08946
0.135177
-0.128496
0.0133021
-0.150249
0.0347339
-0.183847
-0.162416
-0.121316
0.0641682
0.0418715
-0.100111
0.149577
0.363097
0.256319
0.160919
0.246363
0.0488692
0.0544498
0.0358683
0.0753451
0.0620908
0.104282
0.0755801
0.082273
-0.0590308
0.128349
0.104079
-0.0354073
-0.128547
-0.154654
-0.0672243
0.0717421
0.0960872
-0.0923721
0.245656
0.281626
0.25423
0.224566
0.258526
0.2321
0.240216
0.23136
0.250498
0.251306
0.217879
0.24699
0.210615
0.236341
-0.0464519
-0.01526
-0.0430834
-0.0211858
0.0505825
0.257389
0.16308
0.0468239
0.16503
-0.0498182
-0.0298392
-0.0233758
-0.0536774
-0.248754
-0.24459
-0.196197
-0.0656569
-0.191265
-0.0711734
-0.178346
-0.0480941
-0.171833
-0.0542812
-0.233503
-0.242157
-0.180682
-0.0634396
-0.0565139
-0.189233
0.0406974
0.160863
0.0437603
0.158477
-0.0606502
-0.032098
-0.057118
-0.0376417
0.210645
0.206592
0.165098
0.242254
0.165847
0.210557
0.240952
0.209144
0.163736
0.242296
0.162501
0.209411
0.242915
0.16176
0.174422
0.147238
0.198679
0.245853
0.458531
0.335372
0.25661
0.326324
0.175858
0.229075
0.206371
0.18927
0.00680328
-0.0193783
0.0641207
0.200548
0.0396104
-0.000470102
0.136438
-0.0269664
0.161601
-0.0517853
-0.0275018
0.00800475
0.193027
0.169665
0.0314342
0.276958
0.343446
0.266959
0.350909
0.21431
0.236157
0.20225
0.270938
0.322201
0.282482
0.274931
0.279283
0.268754
0.274752
0.280485
0.284244
0.28019
0.286466
0.285155
0.277387
-0.0601545
-0.136262
-0.077071
-0.0367849
-0.0554009
-0.0591633
-0.0264148
-0.0677291
-0.129486
-0.0658267
-0.023966
-0.0525167
-0.0240965
-0.0523027
-0.0279112
-0.0776176
-0.0129868
0.00787072
-0.0301689
-0.000508962
-0.0207833
-0.136441
-0.20257
-0.13858
-0.144141
-0.103219
-0.208103
-0.15327
-0.130589
-0.141797
-0.196211
-0.103615
-0.105882
-0.196302
-0.128917
-0.122343
-0.195577
-0.101896
-0.13838
-0.0986263
-0.126175
-0.193273
-0.0824448
-0.114818
-0.1486
-0.0598271
-0.0700745
-0.161321
-0.0686423
-0.0360759
-0.134036
-0.0486243
-0.0822694
-0.0360848
-0.0531102
-0.117682
0.0542804
-0.0171875
0.0269465
-0.0257981
0.0889647
0.194719
0.166324
0.183048
0.092281
0.180303
0.328057
0.279396
0.248053
0.225995
-0.133663
-0.077451
-0.0698377
-0.0260677
-0.0580653
-0.0541635
-0.0330493
0.150501
0.223538
0.247051
0.242229
0.152931
0.124074
0.200624
0.215795
0.120015
0.221197
-0.119325
-0.0438813
-0.0539266
-0.0159028
-0.0396356
-0.0456485
-0.0100908
0.173675
0.257279
0.271387
0.269113
0.173417
0.174883
0.253586
0.267271
0.174059
0.268454
-0.0594828
0.00299858
0.016143
-0.0113026
0.167535
0.105361
0.232629
0.110436
0.101892
0.225277
0.173245
0.238458
0.191984
0.208365
0.228641
0.147286
0.322308
0.235535
0.10263
0.20704
0.179985
0.201612
0.106128
-0.133436
-0.143857
-0.193638
-0.105274
-0.113487
-0.194385
-0.131265
0.101509
0.219684
0.164004
0.227278
0.104867
0.164399
0.230087
0.105046
0.10047
0.221546
0.0973244
0.172138
0.212028
0.10767
0.219995
0.100195
0.31056
0.0979384
0.135325
0.0967354
0.192002
0.17819
0.0920507
0.199992
0.113555
0.187758
0.215292
0.117108
0.208135
0.17427
0.105045
0.229342
0.11307
0.172476
0.107053
0.233665
0.176881
0.122769
0.119185
0.245028
0.11478
0.238549
0.182992
0.109746
0.205495
0.18736
0.10653
0.208141
-0.128213
-0.137849
-0.194666
-0.105401
-0.10234
-0.193943
-0.130102
0.12775
0.205796
0.228621
0.224429
0.130746
0.17024
0.22438
0.102556
0.111292
0.168795
0.22975
0.106041
0.174888
0.12117
0.24244
0.119251
0.235803
0.114217
0.180956
0.203441
0.154704
0.148165
0.272843
0.144303
0.267604
0.208838
0.187882
0.131429
0.122213
0.246338
0.124359
0.186265
0.250093
0.177979
0.254852
0.273484
0.268373
0.182432
-0.118882
-0.137579
-0.186878
-0.0915846
-0.0964807
-0.192074
-0.112364
0.137004
0.216694
0.23105
0.133682
0.233518
0.205137
0.163315
0.272619
0.156529
0.266999
0.151433
0.210953
0.185209
0.133081
0.243838
0.12205
0.183986
0.247847
0.124235
0.157689
0.247783
0.232345
0.15514
0.25068
0.172524
0.249076
0.267542
0.173422
0.264403
0.211852
0.150615
0.274358
0.162142
0.211357
0.151782
0.276965
0.22807
0.183491
0.171585
0.302682
0.168554
0.29798
0.232763
0.191585
0.277031
0.26836
0.18684
0.280552
-0.0938162
-0.122272
-0.180173
-0.0856042
-0.0781242
-0.171536
-0.103956
0.259344
0.32815
0.343351
0.33666
0.265773
0.215083
0.274497
0.159973
0.175491
0.213998
0.277454
0.16242
0.24727
0.222541
0.310974
0.21212
0.305442
0.206329
0.25341
0.244784
0.201999
0.183355
0.329132
0.18111
0.324412
0.24895
0.233742
0.188549
0.172877
0.303649
0.173008
0.23407
0.305737
0.367984
0.422047
0.43331
0.425508
0.375402
-0.0182961
-0.0698075
-0.0815719
-0.009882
-0.0235646
-0.100252
0.000486795
0.278644
0.345628
0.348085
0.271975
0.353257
0.296783
0.294745
0.352778
0.280702
0.346893
0.274681
0.303032
0.257874
0.23649
0.312745
0.216235
0.256392
0.315595
0.219531
0.172524
0.269668
0.258606
0.172821
0.27015
0.247915
0.183432
0.328546
0.204448
0.248809
0.182707
0.330779
0.389642
0.437806
0.44128
0.382246
0.443986
0.0376461
-0.028905
-0.0626175
0.00313145
0.0161749
-0.0435754
0.0192691
0.306755
0.35326
0.284647
0.308781
0.305184
0.35647
0.288074
-0.0675394
-0.0660532
0.0970784
0.163811
0.19247
0.0932988
0.191237
-0.0807998
-0.0649995
0.12691
0.217631
0.234607
0.132305
0.2191
-0.0762713
-0.0462677
-0.0572921
0.141148
0.215186
0.232738
0.138985
0.235183
0.0315937
0.0314932
0.0191824
0.0136735
0.136124
0.210656
0.234761
0.138629
0.229753
-0.00546696
-0.0114157
0.0113709
0.0118007
0.17555
0.257588
0.270535
0.175618
0.270869
0.0371799
0.0331009
0.0453688
0.0441229
0.176068
0.256319
0.271995
0.17611
0.269682
0.0525239
0.0500493
0.0488133
0.0455007
0.160734
0.116951
0.0986068
0.230567
0.10887
0.163621
0.217974
0.192814
0.138462
0.126574
0.257533
0.11887
0.201912
0.25483
-0.0468558
-0.0474036
0.103305
0.172501
0.200704
0.102037
0.19533
-0.0530846
-0.0581226
-0.238101
-0.160484
-0.196533
-0.142981
-0.198764
-0.240346
-0.16142
-0.250872
-0.274219
-0.258324
-0.236417
-0.23363
-0.291599
-0.248703
-0.243853
-0.230733
-0.253918
-0.29619
-0.22904
-0.278303
-0.252447
-0.231721
-0.148914
-0.215053
-0.184008
-0.202619
-0.160126
-0.237294
-0.223486
-0.146868
-0.19043
-0.134638
-0.144672
-0.225056
-0.187365
-0.245959
-0.286917
-0.258791
-0.222122
-0.288406
-0.223227
-0.244816
-0.247841
-0.227955
-0.285764
-0.260004
-0.290025
-0.245076
-0.225472
-0.221293
-0.130285
-0.139251
-0.1821
-0.140774
-0.184317
-0.220394
0.102141
0.198426
0.212451
0.10836
0.208191
-0.0455116
-0.0697574
-0.0767087
-0.0746538
0.158025
0.101776
0.226445
0.110206
0.210496
0.099517
0.172812
0.201902
0.137618
0.264783
0.12727
0.267793
0.124274
0.201468
-0.0572039
-0.0572278
0.103232
0.182249
0.206866
0.105693
0.200429
-0.0402044
-0.0408375
0.105009
0.18122
0.199037
0.102936
0.202937
-0.0184492
-0.0173794
-0.0346006
-0.0394015
0.180327
0.119247
0.115401
0.242865
0.112768
0.184123
0.238859
0.171552
0.116103
0.110281
0.232927
0.109447
0.173399
0.233773
-0.0424978
-0.0477504
0.11732
0.197044
0.21877
0.118796
0.216313
-0.036195
-0.0378225
-0.216514
-0.179891
-0.134115
-0.122439
-0.179035
-0.217014
-0.133165
-0.245026
-0.291858
-0.261944
-0.221518
-0.221445
-0.291487
-0.244818
-0.245073
-0.22199
-0.261509
-0.289519
-0.221581
-0.290629
-0.244818
-0.215714
-0.121414
-0.177829
-0.130093
-0.178396
-0.131783
-0.21478
-0.217458
-0.179239
-0.12321
-0.134479
-0.135087
-0.179321
-0.217334
-0.243552
-0.286081
-0.259037
-0.221272
-0.286598
-0.243302
-0.221287
-0.244155
-0.221203
-0.259192
-0.288729
-0.288057
-0.220723
-0.244629
-0.218141
-0.124736
-0.137535
-0.181086
-0.218651
-0.136475
-0.180636
0.118748
0.196646
0.216775
0.117596
0.216298
-0.0252285
-0.0254933
-0.0330953
-0.0377442
0.178232
0.117022
0.242075
0.114739
0.237553
0.111842
0.181158
0.169458
0.114847
0.230719
0.109293
0.231084
0.108038
0.172469
0.196719
0.14537
0.136629
0.259657
0.136578
0.197899
0.260694
0.196552
0.142639
0.137619
0.262662
0.134372
0.201216
0.258109
0.159975
0.238305
0.251269
0.156788
0.253269
0.0261805
0.027827
0.0060079
-0.000577372
-0.208604
-0.118798
-0.11313
-0.170301
-0.17227
-0.122026
-0.205903
-0.242959
-0.292157
-0.220791
-0.261593
-0.219075
-0.244084
-0.292097
-0.211157
-0.11556
-0.176523
-0.12784
-0.174291
-0.213197
-0.125083
-0.241234
-0.21625
-0.260744
-0.290154
-0.21758
-0.291445
-0.23923
0.151794
0.231457
0.250473
0.154704
0.246661
-0.0177797
-0.0233658
-0.00349979
-0.00371882
-0.19844
-0.115155
-0.167959
-0.103879
-0.110498
-0.20255
-0.164105
-0.229132
-0.279157
-0.253332
-0.204037
-0.28308
-0.207601
-0.224509
-0.233273
-0.214414
-0.288322
-0.256113
-0.286276
-0.236498
-0.211032
-0.193681
-0.0997633
-0.0997704
-0.156201
-0.105402
-0.160293
-0.18847
0.195902
0.150467
0.25758
0.138082
0.259323
0.13921
0.196626
0.194743
0.14513
0.261815
0.139984
0.256305
0.135131
0.19977
0.0394891
0.0345441
0.165732
0.24046
0.260673
0.166993
0.257296
0.0476316
0.0464472
0.168552
0.244174
0.259826
0.167401
0.261063
0.052186
0.0499342
0.0505154
0.0469039
0.219814
0.172132
0.162858
0.289742
0.160026
0.224156
0.285665
0.222212
0.17576
0.162922
0.289121
0.1628
0.22313
0.290525
0.04074
0.0327625
0.2156
0.290083
0.306025
0.220722
0.300638
0.0687779
0.0718821
-0.141325
-0.125082
-0.0611837
-0.0544821
-0.116476
-0.150977
-0.0514036
-0.170521
-0.22095
-0.208222
-0.149165
-0.157893
-0.231099
-0.159839
-0.180719
-0.174648
-0.216094
-0.248592
-0.166255
-0.240411
-0.189488
-0.130918
-0.0459469
-0.0989318
-0.0300541
-0.107936
-0.0410041
-0.120001
-0.167954
-0.132309
-0.0771717
-0.0701291
-0.0783834
-0.13884
-0.159903
-0.212854
-0.274548
-0.241296
-0.19944
-0.269423
-0.218971
-0.193579
-0.205823
-0.181646
-0.236039
-0.256365
-0.263324
-0.187761
-0.198183
-0.17555
-0.0835064
-0.0933254
-0.151189
-0.182313
-0.0861432
-0.145007
0.230818
0.30339
0.309519
0.225417
0.313399
0.122675
0.128358
0.087534
0.0781466
0.227894
0.193235
0.292835
0.18351
0.288367
0.178912
0.232781
0.233947
0.203132
0.292566
0.185823
0.294955
0.188011
0.233532
0.241674
0.197678
0.179763
0.317177
0.179071
0.24277
0.318807
0.239231
0.195219
0.179846
0.317615
0.177528
0.243322
0.313319
0.332747
0.392367
0.392083
0.32559
0.397699
0.262444
0.269885
0.216266
0.204571
-0.0827603
0.0199215
-0.00577839
-0.0564776
-0.0675213
0.00682808
-0.0694899
-0.13615
-0.210066
-0.13961
-0.180398
-0.128651
-0.148347
-0.198818
-0.0957048
-0.0162948
-0.0892368
-0.0183617
-0.0782068
-0.108232
-0.00594961
-0.123426
-0.107074
-0.170067
-0.17373
-0.118015
-0.186623
-0.110211
0.312004
0.374318
0.387454
0.319037
0.380242
0.146751
0.135989
0.188921
0.195823
-0.0411743
0.033503
-0.0450872
0.0285566
0.0475813
-0.0555983
-0.0324693
-0.0675305
-0.11782
-0.123845
-0.0585309
-0.132449
-0.0707776
-0.0527668
-0.0820396
-0.0956321
-0.160423
-0.135825
-0.14653
-0.0964072
-0.0829091
-0.0266043
0.0402016
0.0760155
-0.0082938
0.061786
-0.0204673
-0.0119912
0.28219
0.272141
0.333539
0.250158
0.336074
0.25336
0.280976
0.273247
0.258983
0.333048
0.24653
0.327698
0.240788
0.279172
0.0321348
0.0316293
0.169171
0.256243
0.268767
0.168573
0.266408
0.0224367
0.0179781
0.166747
0.256286
0.26589
0.167481
0.266355
0.0165929
0.0166393
0.249131
0.206914
0.184761
0.339062
0.182932
0.253017
0.33409
0.250028
0.207289
0.183845
0.336492
0.182475
0.25142
0.339
0.291195
0.279318
0.423749
0.469383
0.477697
0.430568
0.46994
0.33724
0.343946
0.0746684
0.05213
0.145931
0.1203
0.0636744
0.0611414
0.158552
0.0358338
0.00369137
-0.0366648
-0.0434026
0.01582
-0.0286904
0.0216603
0.032772
0.0408777
0.0878757
0.132741
0.119101
0.029084
0.0470798
-0.0224701
-0.103134
-0.0860262
-0.0460914
-0.0878376
-0.037743
-0.0327059
-0.0075832
-0.00811231
-0.0734649
-0.0580572
-0.0731311
-0.0202628
0.00718686
0.0180143
0.076389
0.0904451
0.00390954
0.0029495
0.104954
0.0170089
0.442871
0.486598
0.480529
0.436436
0.486469
0.363513
0.352965
0.319444
0.329953
0.371182
0.313137
0.36507
0.307728
0.325258
0.326771
0.3413
0.369566
0.315857
0.372965
0.318387
0.325852
0.0497621
0.0262067
0.0527298
0.0241534
0.0897985
0.170246
0.177848
0.18538
0.0873011
0.0489483
0.0206401
0.0220252
0.0470912
-0.43136
-0.458103
-0.413877
-0.413842
-0.448999
-0.427896
-0.401096
-0.503036
-0.486329
-0.265877
-0.29449
-0.385378
-0.368809
-0.372762
-0.280786
-0.276296
-0.359151
-0.372863
-0.399583
-0.379115
-0.264484
-0.362742
-0.365871
-0.256774
-0.251371
-0.366518
-0.271985
0.138909
0.1853
0.21362
0.198276
0.139371
0.146735
0.133763
0.121323
0.166913
0.105445
0.0654328
0.0979402
0.0664456
0.205884
0.198894
0.0518191
0.1347
0.275544
0.133466
0.146326
0.148486
0.222517
0.238812
0.241633
0.146203
0.121038
0.106642
0.122919
0.105042
0.118539
0.0993483
0.11593
0.10186
-0.136041
-0.247173
-0.134658
-0.244636
-0.141182
-0.250887
-0.130147
-0.240595
-0.232
-0.138055
-0.251246
-0.150909
-0.260764
-0.146041
-0.141441
-0.256742
-0.222993
-0.229673
0.126245
0.200821
0.227306
0.220259
0.130181
0.0906877
0.0667078
0.0865661
0.0704942
0.0935146
0.0767649
0.0966285
0.0742372
-0.0948862
-0.107354
-0.209253
-0.206386
-0.20784
-0.0991383
-0.102039
-0.183396
-0.184819
-0.19066
-0.186066
-0.0933847
-0.204365
-0.202674
-0.0986919
-0.0907467
-0.205325
-0.100569
0.174166
0.258177
0.270093
0.270423
0.17451
0.142852
0.125862
0.141754
0.127517
0.143176
0.128351
0.143554
0.127475
-0.0805265
-0.193137
-0.094136
-0.190474
-0.0924177
-0.190248
-0.081945
-0.173102
-0.172353
-0.078557
-0.19224
-0.0905686
-0.188548
-0.0788339
-0.0893231
-0.190276
-0.175734
-0.174169
0.175197
0.25349
0.270521
0.267638
0.175903
0.145629
0.130584
0.144802
0.130935
0.146039
0.13105
0.145932
0.131682
-0.103827
-0.115807
-0.207606
-0.214498
-0.211525
-0.102203
-0.1165
-0.205257
-0.201463
-0.196223
-0.197741
-0.107504
-0.217312
-0.216665
-0.123445
-0.110373
-0.214159
-0.119933
0.166709
0.109322
0.100342
0.22234
0.1013
0.227161
0.16355
0.176527
0.168333
0.139996
0.270969
0.139087
0.242325
0.194518
0.0666956
0.0456529
0.0698514
0.0428902
0.103033
0.179838
0.198457
0.201435
0.0997608
0.0671832
0.038834
0.043272
0.062882
-0.218496
-0.311497
-0.23039
-0.33256
-0.219591
-0.232327
-0.340131
-0.306949
-0.322812
-0.311011
-0.303182
-0.18762
-0.337328
-0.251004
-0.292565
-0.219068
-0.345321
-0.23051
-0.224753
-0.336638
-0.234776
-0.32668
-0.334822
-0.228271
-0.22804
-0.325452
-0.327635
-0.329403
-0.323737
-0.226931
-0.328796
-0.332385
-0.229511
-0.225127
-0.335643
-0.231971
0.105542
0.178758
0.214184
0.211953
0.110327
0.0651096
0.0349169
0.051146
0.0705953
0.057855
0.0341249
0.0645036
0.0316154
0.166013
0.104143
0.218542
0.0971281
0.225046
0.0997507
0.163669
0.178494
0.10847
0.245903
0.133719
0.217425
0.108925
0.195205
0.0584429
0.029546
0.054469
0.0324075
0.0962375
0.174212
0.202968
0.193152
0.101176
0.0584648
0.0362049
0.0343689
0.0618878
-0.160283
-0.267181
-0.173747
-0.276583
-0.164337
-0.167933
-0.272429
-0.244583
-0.249502
-0.15743
-0.26302
-0.155625
-0.263249
-0.150937
-0.161653
-0.267399
-0.261069
-0.252473
-0.228916
-0.341121
-0.21788
-0.336486
-0.347152
-0.2325
-0.217316
-0.352216
-0.336383
-0.229576
-0.347465
-0.366387
-0.247171
-0.244512
-0.356964
-0.230426
-0.318851
-0.333838
0.111448
0.187663
0.203486
0.208524
0.108302
0.079957
0.0620617
0.0828762
0.0595586
0.0769955
0.052527
0.0736863
0.0555324
0.174481
0.115127
0.112976
0.238936
0.107983
0.231921
0.181083
0.175454
0.120256
0.1117
0.235608
0.113013
0.23845
0.17456
0.0737033
0.0459041
0.0699902
0.0494195
0.110762
0.188674
0.213232
0.209066
0.113571
0.0746163
0.0525386
0.0504538
0.0769211
-0.224359
-0.231121
-0.328059
-0.322231
-0.228478
-0.225942
-0.328648
-0.324834
-0.324356
-0.325129
-0.323019
-0.224791
-0.322877
-0.229372
-0.327479
-0.224515
-0.228955
-0.329156
-0.226117
-0.229528
-0.323892
-0.328512
-0.330483
-0.230958
-0.225084
-0.32734
-0.322588
-0.322769
-0.324675
-0.224297
-0.323091
-0.331793
-0.232646
-0.226796
-0.330724
-0.227755
0.125326
0.2035
0.220614
0.222149
0.12294
0.0942971
0.0752136
0.0969397
0.072607
0.0916806
0.0666017
0.0887329
0.0698398
0.171142
0.109832
0.237011
0.111434
0.228607
0.105974
0.177498
0.173241
0.11998
0.232591
0.111394
0.235688
0.112526
0.173247
0.201986
0.152298
0.141741
0.264923
0.142492