/*--------------------------------*- C++ -*----------------------------------*\
| =========                 |                                                 |
| \\      /  F ield         | OpenFOAM: The Open Source CFD Toolbox           |
|  \\    /   O peration     | Version:  2012                                  |
|   \\  /    A nd           | Website:  www.openfoam.com                      |
|    \\/     M anipulation  |                                                 |
\*---------------------------------------------------------------------------*/
FoamFile
{
    version     2.0;
    format      ascii;
    class       pointVectorField;
    location    "0.106/fluid";
    object      pointMotionU;
}
// * * * * * * * * * * * * * * * * * * * * * * * * * * * * * * * * * * * * * //

dimensions      [0 1 -1 0 0 0 0];


internalField   nonuniform List<vector> 
21899
(
(5.84439e-07 -1.98074e-06 1.86647e-26)
(5.08207e-06 6.37712e-06 -2.60832e-26)
(3.53306e-05 3.39612e-05 -3.50792e-35)
(7.32044e-05 7.71202e-05 -1.32167e-47)
(0.000100151 0.00014011 -6.50595e-60)
(0.000124836 0.000214218 -3.15178e-72)
(0.00015634 0.000286011 1.11452e-75)
(0.000194061 0.000344303 -2.2368e-76)
(0.000233385 0.000378221 -1.09126e-76)
(0.000267667 0.00038077 -1.97766e-78)
(0.000291108 0.000356573 6.61396e-79)
(0.000294985 0.000316071 1.82415e-79)
(0.000266487 0.0002595 2.14455e-81)
(0.000197957 0.000185557 -5.09081e-82)
(0.0001003 9.35118e-05 -2.85723e-84)
(0 0 0)
(-1.63503e-06 -2.44498e-06 -3.5575e-35)
(7.19098e-06 8.78482e-06 -9.58468e-40)
(3.78959e-05 2.90205e-05 -2.14432e-39)
(7.70768e-05 6.21245e-05 -5.95515e-48)
(0.000113332 0.000112113 -1.0074e-59)
(0.00014833 0.000170678 -4.74572e-63)
(0.000188111 0.000228529 2.16038e-62)
(0.000230743 0.000274521 1.0334e-62)
(0.000272176 0.000300667 4.12496e-64)
(0.000307536 0.000301979 3.22209e-66)
(0.000331481 0.000281929 1.52429e-65)
(0.000334374 0.000249103 1.79353e-66)
(0.0003018 0.000204913 -2.36024e-66)
(0.000223256 0.00014631 -1.58555e-67)
(0.000113193 7.35512e-05 1.23966e-69)
(0 0 0)
(-2.36682e-05 -1.67411e-07 -6.61438e-48)
(-4.36326e-06 7.18495e-06 1.02967e-48)
(3.5295e-05 1.88143e-05 -3.9198e-51)
(8.01165e-05 3.7431e-05 6.98787e-50)
(0.000122889 6.5136e-05 3.69085e-50)
(0.000164274 9.77225e-05 -2.94213e-50)
(0.000208062 0.000129495 4.70994e-50)
(0.000252761 0.000153968 3.431e-50)
(0.000295066 0.000167385 9.60705e-56)
(0.000330499 0.000167566 1.70621e-58)
(0.000353668 0.00015604 5.56013e-53)
(0.000354973 0.000137083 -1.28826e-52)
(0.000319434 0.00011249 -9.17473e-53)
(0.000238082 8.09482e-05 -1.86558e-54)
(0.000122579 4.13209e-05 1.14986e-54)
(0 0 0)
(-3.732e-05 0 0)
(-1.06613e-05 0 0)
(3.34845e-05 0 0)
(8.01174e-05 0 0)
(0.000124626 0 0)
(0.000168226 0 0)
(0.000213127 0 0)
(0.000258174 0 0)
(0.000300459 0 0)
(0.000335739 0 0)
(0.000358394 0 0)
(0.000358606 0 0)
(0.000322243 0 0)
(0.000241978 0 0)
(0.000125169 0 0)
(0 0 0)
(-9.57317e-07 -7.11054e-06 6.37834e-07)
(2.87283e-06 8.37332e-06 -8.82012e-07)
(2.39318e-05 3.08208e-05 -6.75968e-06)
(4.72368e-05 6.8717e-05 1.80879e-06)
(6.85701e-05 0.000131118 1.13857e-05)
(9.55676e-05 0.000206513 1.36204e-05)
(0.000131892 0.000280052 1.11936e-05)
(0.000175249 0.000338499 7.70587e-06)
(0.000219578 0.000372549 4.76783e-06)
(0.000257919 0.000375963 2.53038e-06)
(0.000283915 0.000352561 9.29245e-07)
(0.000289199 0.000311686 -2.60841e-07)
(0.000261998 0.000255994 -9.55228e-07)
(0.000195248 0.000183477 -9.9011e-07)
(9.94052e-05 9.28989e-05 -5.08332e-07)
(0 0 0)
(2.71838e-06 7.86843e-07 2.06511e-06)
(6.79969e-06 1.13291e-05 -5.46587e-06)
(2.70514e-05 2.6267e-05 -9.15317e-06)
(5.33817e-05 5.47046e-05 -2.22978e-06)
(8.42119e-05 0.000104308 6.13501e-06)
(0.000120435 0.000164901 8.70069e-06)
(0.000163814 0.000223651 7.45255e-06)
(0.000211256 0.000269898 5.24185e-06)
(0.000257348 0.000296171 3.28926e-06)
(0.0002963 0.000297839 1.69857e-06)
(0.00032237 0.000278199 4.0189e-07)
(0.000326816 0.000244886 -6.69374e-07)
(0.000295448 0.00020141 -1.29583e-06)
(0.000219414 0.000144193 -1.20078e-06)
(0.000111312 7.26269e-05 -5.57441e-07)
(0 0 0)
(-1.08793e-05 4.67893e-06 1.6994e-07)
(1.09465e-06 9.87366e-06 -1.05686e-05)
(2.76499e-05 1.74082e-05 -1.40914e-05)
(6.01384e-05 3.30616e-05 -8.36711e-06)
(9.67307e-05 6.04331e-05 -9.60982e-07)
(0.000138081 9.4152e-05 2.87639e-06)
(0.000184735 0.00012643 3.65479e-06)
(0.000233634 0.000150979 3.07451e-06)
(0.00028004 0.000164232 2.064e-06)
(0.000318406 0.000164508 9.82592e-07)
(0.000343434 0.000153334 -4.6569e-09)
(0.000346374 0.000134557 -8.98686e-07)
(0.000312661 0.000110333 -1.45587e-06)
(0.00023249 7.93151e-05 -1.26514e-06)
(0.000118752 4.00097e-05 -5.47444e-07)
(0 0 0)
(-2.1568e-05 0 -1.77374e-06)
(-2.86479e-06 0 -1.23189e-05)
(2.77278e-05 0 -1.60282e-05)
(6.24675e-05 0 -1.12163e-05)
(0.000100508 0 -4.26745e-06)
(0.000143259 0 2.37031e-07)
(0.000190525 0 2.01526e-06)
(0.000239404 0 2.20517e-06)
(0.000285541 0 1.60853e-06)
(0.000323483 0 7.22214e-07)
(0.000347946 0 -1.3041e-07)
(0.00035006 0 -9.22149e-07)
(0.000315617 0 -1.42734e-06)
(0.000235791 0 -1.22704e-06)
(0.000121097 0 -5.28504e-07)
(0 0 0)
(-1.41302e-06 -2.11079e-06 -8.46763e-08)
(-3.1506e-06 1.58607e-05 -3.10052e-06)
(-9.04216e-06 2.49632e-05 -1.24379e-05)
(-2.34816e-05 4.97145e-05 3.71583e-06)
(-1.60414e-05 0.000109505 2.02066e-05)
(1.84335e-05 0.00018853 2.39579e-05)
(6.91956e-05 0.000264875 2.0031e-05)
(0.000126848 0.000322985 1.43449e-05)
(0.000183134 0.000355519 9.33347e-06)
(0.000231288 0.000359129 5.29809e-06)
(0.000263924 0.000337829 2.25971e-06)
(0.000274049 0.000298234 -6.22728e-08)
(0.000250416 0.000244975 -1.40468e-06)
(0.000187487 0.000175997 -1.56106e-06)
(9.6754e-05 9.04182e-05 -8.42233e-07)
(0 0 0)
(9.87245e-06 7.59209e-06 3.147e-06)
(1.78712e-06 1.60048e-05 -1.09676e-05)
(-6.53402e-06 1.92374e-05 -1.7114e-05)
(-1.19283e-05 3.76507e-05 -4.17788e-06)
(4.83188e-06 8.49154e-05 9.53116e-06)
(4.53014e-05 0.000149298 1.40694e-05)
(0.000100194 0.000210825 1.26846e-05)
(0.000160881 0.000256808 9.42001e-06)
(0.000218831 0.000281589 6.23748e-06)
(0.000266438 0.000282997 3.56385e-06)
(0.000298455 0.000264847 1.28655e-06)
(0.000306992 0.000232844 -6.77026e-07)
(0.000279628 0.000191594 -1.90351e-06)
(0.000208685 0.000137483 -1.90468e-06)
(0.000106513 6.96402e-05 -9.34716e-07)
(0 0 0)
(1.12946e-05 1.28671e-05 9.91249e-07)
(6.34887e-06 1.39686e-05 -1.83473e-05)
(2.04054e-06 1.35137e-05 -2.50429e-05)
(5.67217e-06 2.35618e-05 -1.55764e-05)
(2.72829e-05 4.98216e-05 -3.3521e-06)
(6.85737e-05 8.53055e-05 3.51619e-06)
(0.000123167 0.000118779 5.5657e-06)
(0.000182925 0.000143087 5.17622e-06)
(0.000239757 0.000155632 3.82983e-06)
(0.000286039 0.000155665 2.2499e-06)
(0.000316524 0.000144963 6.53861e-07)
(0.000323936 0.00012713 -9.78783e-07)
(0.000295038 0.000104368 -2.1248e-06)
(0.0002198 7.48749e-05 -2.0032e-06)
(0.000112023 3.77479e-05 -9.31996e-07)
(0 0 0)
(5.32927e-06 0 -1.67297e-06)
(6.72644e-06 0 -2.0767e-05)
(6.3019e-06 0 -2.83161e-05)
(1.36507e-05 0 -2.09261e-05)
(3.67659e-05 0 -9.34776e-06)
(7.76548e-05 0 -1.26765e-06)
(0.0001311 0 2.50249e-06)
(0.000189824 0 3.48669e-06)
(0.000245671 0 2.95305e-06)
(0.000291087 0 1.79317e-06)
(0.00032101 0 4.56132e-07)
(0.00032788 0 -1.0131e-06)
(0.00029825 0 -2.08074e-06)
(0.000222072 0 -1.92903e-06)
(0.00011382 0 -8.93761e-07)
(0 0 0)
(-2.17779e-07 2.24902e-06 2.07296e-07)
(-4.59927e-07 1.18475e-05 5.48088e-07)
(-1.91496e-06 2.83702e-05 5.47443e-07)
(3.2339e-06 5.11164e-06 -2.04637e-22)
(8.11006e-07 4.08478e-07 -2.29068e-24)
(-7.82651e-08 -4.14547e-06 6.99772e-07)
(4.53624e-06 6.86595e-06 -3.1251e-07)
(1.06492e-06 8.23356e-06 3.39547e-07)
(-6.89865e-07 9.80896e-07 1.37695e-06)
(-1.4433e-06 -6.04703e-06 3.4199e-08)
(-1.17062e-07 1.1375e-05 -1.73713e-06)
(-4.36794e-06 1.69252e-05 -5.3518e-07)
(-2.95048e-06 9.71245e-06 1.04522e-06)
(-1.29188e-06 3.71381e-06 -2.36348e-07)
(-5.8428e-06 1.981e-05 -4.25592e-06)
(2.65777e-06 6.11629e-06 3.05139e-07)
(3.22219e-07 3.98176e-07 8.35499e-07)
(-5.69856e-07 4.97024e-06 3.20525e-07)
(-1.62409e-06 1.17934e-05 1.54297e-07)
(-1.8993e-06 4.48249e-06 1.12581e-06)
(-8.30846e-07 2.08792e-05 6.35307e-07)
(-6.70516e-06 2.13246e-05 -1.234e-06)
(-3.53872e-06 1.52245e-05 5.795e-07)
(-1.74153e-09 3.06337e-08 1.05512e-08)
(1.42357e-05 1.83765e-05 -2.26307e-06)
(2.21155e-06 1.34569e-06 2.08884e-07)
(4.30334e-06 1.99024e-05 -6.5858e-06)
(9.6737e-07 4.92041e-06 -2.69064e-07)
(-9.23871e-06 2.56678e-05 -1.05191e-05)
(-7.63035e-08 1.23298e-05 -2.0062e-06)
(1.09738e-06 2.16655e-06 3.43542e-07)
(-1.48757e-07 -6.45275e-07 3.26231e-07)
(8.64458e-07 2.35e-06 4.64546e-07)
(4.69069e-07 3.85552e-06 1.3194e-06)
(-1.06843e-06 -2.73866e-06 5.19514e-07)
(-1.88034e-07 3.70212e-06 1.24245e-06)
(-1.89779e-06 -1.78666e-06 6.53104e-08)
(-2.1562e-06 6.70142e-06 1.60089e-06)
(-2.51199e-06 3.9202e-06 -3.50482e-07)
(-4.24877e-06 1.19802e-05 1.49192e-06)
(-2.80105e-06 1.16771e-05 -3.63274e-07)
(-6.49765e-06 1.76147e-05 1.25407e-06)
(-2.79546e-06 1.70942e-05 4.30477e-08)
(-7.59203e-06 2.06902e-05 8.91525e-07)
(3.58001e-06 5.40372e-06 -1.48011e-24)
(3.40806e-05 3.59804e-05 -8.0742e-36)
(1.48775e-06 -2.80509e-06 -2.19242e-29)
(2.11447e-08 -5.82068e-07 -7.04078e-19)
(5.31495e-07 -1.04279e-06 3.41883e-27)
(3.60882e-07 -2.56808e-06 4.6872e-07)
(1.65952e-05 1.77247e-05 7.32206e-29)
(7.66364e-06 7.89825e-06 1.14067e-30)
(3.72071e-06 5.49364e-06 -3.50946e-22)
(2.19365e-06 2.75519e-06 -1.02202e-23)
(4.95015e-06 6.51399e-06 -1.60082e-07)
(3.2283e-05 3.2948e-05 -3.44244e-06)
(3.40301e-07 2.03273e-06 -1.54643e-36)
(-3.92583e-07 -1.45379e-06 1.06461e-06)
(7.227e-06 9.50582e-06 -2.70118e-06)
(2.24636e-06 8.53875e-06 1.58175e-07)
(2.33353e-05 3.29801e-05 -6.14806e-06)
(2.12032e-06 -2.78801e-06 1.44593e-06)
(-5.94357e-07 -5.9162e-06 7.64172e-07)
(-1.74006e-06 -8.98765e-06 3.85961e-07)
(-9.79303e-07 -2.98744e-06 1.05299e-06)
(-1.2514e-06 -7.12801e-06 3.39353e-07)
(1.16616e-05 1.81053e-05 -5.12659e-06)
(5.757e-06 9.66078e-06 -2.74715e-06)
(3.89289e-06 7.47463e-06 -5.52353e-07)
(1.42378e-06 8.14082e-06 -1.02349e-07)
(3.92469e-07 4.64378e-06 7.36451e-07)
(1.44266e-06 9.63644e-06 -1.26894e-06)
(9.0904e-06 2.76799e-05 -9.50942e-06)
(2.47889e-06 5.1984e-06 -1.45264e-06)
(6.34091e-06 3.95337e-06 2.77698e-06)
(4.78749e-06 1.34139e-05 -8.07066e-06)
(-7.7309e-06 2.81207e-05 -1.09069e-05)
(3.64673e-06 2.3832e-06 1.80486e-06)
(-1.49103e-06 -4.30849e-06 -8.08067e-08)
(-1.75003e-06 -1.86994e-06 -1.114e-06)
(-2.29621e-06 4.36806e-06 6.12982e-07)
(-1.26986e-06 1.1882e-06 -2.22343e-07)
(-3.67834e-06 2.05484e-05 -1.02405e-05)
(-1.00886e-06 1.46577e-05 -6.4903e-06)
(-1.60674e-06 1.35544e-05 -2.38243e-06)
(-4.28237e-06 1.67229e-05 -1.51694e-06)
(-3.53299e-06 1.32416e-05 -1.6143e-07)
(-4.7372e-06 1.7962e-05 -3.70601e-06)
(-2.77047e-05 2.35998e-05 -1.39439e-05)
(4.66289e-06 1.16745e-05 -3.57092e-06)
(1.21522e-05 1.1115e-05 2.96361e-06)
(-1.96012e-06 1.83247e-05 -1.31108e-05)
(-9.35344e-07 5.23109e-06 3.00827e-08)
(-6.23147e-06 2.13077e-05 -4.80284e-06)
(-1.74554e-07 2.94958e-06 1.37504e-06)
(-2.42506e-07 7.40649e-07 6.45643e-07)
(-3.80998e-07 3.23728e-06 2.8206e-07)
(-7.14977e-09 1.24768e-06 1.26927e-07)
(-3.07671e-07 7.85358e-06 4.94268e-07)
(-4.51831e-06 9.35174e-06 2.92732e-06)
(-1.91715e-06 6.89542e-06 8.31899e-07)
(-1.22207e-06 1.63653e-05 3.8774e-07)
(-1.6815e-06 2.52462e-05 4.79665e-07)
(-1.02562e-05 1.85217e-05 2.97309e-06)
(-3.29749e-06 2.09801e-05 8.57672e-07)
(-1.57348e-06 2.96001e-05 6.49189e-07)
(3.10229e-06 5.43392e-06 1.29396e-07)
(5.95341e-07 1.55183e-06 5.27869e-20)
(3.33447e-06 6.60667e-06 1.64189e-07)
(6.87051e-07 4.29647e-07 4.37762e-07)
(1.97692e-07 4.01283e-07 7.43223e-21)
(-7.89312e-07 -4.4296e-06 1.01893e-06)
(-5.29787e-08 -2.00538e-06 7.62416e-07)
(3.15016e-06 6.23655e-06 8.50653e-08)
(1.7093e-06 3.23128e-06 5.0257e-07)
(1.99551e-06 7.03465e-06 3.74153e-07)
(-1.99974e-06 5.25316e-06 2.39037e-06)
(-1.90455e-07 9.79307e-06 2.77084e-07)
(-1.69467e-07 4.93991e-07 1.13896e-06)
(-1.03939e-06 1.86763e-06 9.49508e-07)
(-1.29483e-06 2.35944e-06 1.23695e-06)
(-2.11975e-06 -7.82062e-06 -6.22003e-07)
(-1.77376e-06 -4.41692e-07 6.4952e-07)
(-1.38768e-06 1.16877e-05 -5.59825e-07)
(-1.60474e-06 8.18823e-06 3.84644e-07)
(-3.02592e-06 1.42656e-05 -1.41985e-07)
(-7.41446e-06 1.44667e-05 3.07181e-06)
(-5.67478e-06 1.93563e-05 -8.71411e-07)
(-2.45247e-06 7.00607e-06 1.00748e-06)
(-2.69709e-06 1.42663e-05 8.4207e-07)
(-3.34542e-06 1.28557e-05 7.1605e-07)
(-1.00367e-06 5.27274e-06 -8.9984e-07)
(-2.41136e-06 1.03114e-05 3.3586e-07)
(-6.80073e-06 2.09544e-05 -2.3432e-06)
(-5.06289e-06 1.78529e-05 -8.74005e-07)
(-7.23988e-06 2.2559e-05 -1.68837e-06)
(-3.19914e-06 1.6568e-05 5.82588e-07)
(3.11009e-05 3.48821e-05 -3.11641e-06)
(1.532e-05 1.76576e-05 -2.48442e-06)
(1.05393e-05 1.86295e-05 -4.28355e-06)
(3.56265e-06 5.81655e-06 4.58858e-08)
(3.59024e-06 5.71931e-06 3.00836e-08)
(2.89834e-06 7.48392e-06 2.11906e-07)
(2.46758e-06 7.03041e-06 3.58109e-08)
(1.58179e-06 -2.92216e-06 8.42015e-07)
(7.23799e-06 8.36052e-06 -1.29477e-06)
(1.01651e-06 2.95349e-06 -7.08111e-07)
(1.83003e-06 2.54421e-06 1.55437e-07)
(3.52058e-07 -1.29064e-06 4.25009e-07)
(2.07357e-06 2.89348e-06 2.75752e-07)
(-5.57049e-07 -2.74194e-06 9.55279e-07)
(1.17669e-06 3.76184e-06 6.71655e-07)
(8.75937e-06 2.97258e-05 -8.41723e-06)
(4.57854e-06 1.87325e-05 -7.34016e-06)
(-2.89854e-06 2.23965e-05 -8.34903e-06)
(6.20682e-08 9.67719e-06 -2.86626e-07)
(-2.80355e-06 1.4161e-05 -1.02168e-06)
(2.73539e-06 -9.35945e-07 1.69167e-06)
(2.61401e-06 1.16777e-05 -4.45004e-06)
(3.73604e-06 8.19221e-06 -2.39159e-06)
(1.92762e-07 8.5438e-06 -1.05542e-06)
(-1.38266e-06 -2.18297e-06 8.23926e-07)
(-6.0342e-07 6.117e-06 6.294e-07)
(-2.08845e-06 1.78755e-06 5.39866e-07)
(-2.55702e-06 1.06384e-05 1.21139e-07)
(-2.48049e-05 2.76829e-05 -1.18786e-05)
(-1.18063e-05 2.24499e-05 -1.19595e-05)
(-5.75877e-06 1.90214e-05 -1.91145e-06)
(-7.19693e-06 2.22837e-05 -2.83235e-06)
(4.60468e-06 6.45551e-06 1.62753e-06)
(-4.44582e-06 1.76518e-05 -8.32628e-06)
(5.16495e-06 1.50695e-05 -4.81696e-06)
(-2.36584e-06 7.70124e-06 3.73943e-07)
(-4.48583e-06 1.57674e-05 -5.22527e-07)
(-2.03619e-06 1.18119e-05 4.92958e-07)
(-5.01579e-06 1.91765e-05 -1.14057e-06)
(-2.75106e-07 -1.68511e-06 7.45829e-07)
(-1.32808e-06 -7.30087e-06 8.59825e-07)
(3.86518e-07 2.04789e-06 7.15422e-07)
(8.67559e-07 3.01592e-06 8.37147e-07)
(5.75893e-08 6.12019e-07 3.33916e-07)
(-5.73427e-07 -1.71355e-06 5.32597e-07)
(4.15741e-07 2.90983e-06 8.98365e-07)
(-9.82191e-07 3.91909e-06 1.95512e-06)
(-5.22756e-08 4.89212e-06 1.6504e-06)
(-6.21927e-07 9.70705e-07 8.34481e-07)
(-1.48764e-06 -2.95083e-06 3.36164e-07)
(-1.10796e-06 4.82903e-06 1.48649e-06)
(-2.01984e-06 -9.25287e-06 -1.18782e-07)
(-2.00161e-06 -5.27169e-06 -9.40767e-07)
(-3.21874e-06 7.01893e-06 2.73929e-06)
(-1.47433e-06 3.89192e-06 8.71524e-07)
(-2.22386e-06 6.73634e-07 -2.26742e-07)
(-3.20514e-06 9.09535e-06 1.57356e-06)
(-5.9552e-06 1.18368e-05 3.03948e-06)
(-2.31649e-06 1.04408e-05 7.8155e-07)
(-2.68748e-06 7.66517e-06 -3.7295e-07)
(-5.39355e-06 1.48044e-05 1.4035e-06)
(-1.38882e-06 1.97666e-06 -1.10649e-06)
(-4.67674e-07 7.36419e-06 -4.27222e-07)
(-8.94839e-06 1.66494e-05 3.08258e-06)
(-3.01311e-06 1.80873e-05 7.81346e-07)
(-2.80839e-06 1.50559e-05 -2.34865e-07)
(-7.39977e-06 1.95574e-05 1.1135e-06)
(-1.12452e-05 1.89785e-05 2.78361e-06)
(-3.28698e-06 2.23337e-05 1.00579e-06)
(2.34406e-06 1.13818e-06 -7.84874e-32)
(1.48904e-05 1.77556e-05 1.93578e-29)
(4.20446e-08 -2.75205e-07 3.70814e-23)
(1.00716e-06 2.05698e-06 -3.97629e-22)
(9.8345e-07 1.65235e-06 -7.69839e-21)
(6.71067e-07 -1.73965e-08 -2.90336e-07)
(8.25334e-08 -1.03172e-07 -1.05137e-07)
(5.28494e-07 -1.60285e-06 -4.60015e-07)
(1.31238e-07 1.15841e-07 -6.16319e-08)
(3.24314e-06 3.73147e-06 4.86238e-08)
(1.56032e-06 -5.11289e-06 3.57275e-07)
(2.52596e-06 8.14688e-07 -9.7606e-08)
(1.67891e-06 -3.80228e-06 7.56793e-07)
(6.03538e-06 2.18233e-05 8.23764e-08)
(1.52576e-06 5.77532e-06 1.34954e-06)
(5.40934e-06 1.74509e-05 1.80426e-07)
(1.18756e-06 9.28569e-06 1.21869e-06)
(-2.97732e-08 1.6924e-06 9.05683e-07)
(1.41344e-07 8.34613e-07 3.15849e-07)
(-6.45001e-08 7.56481e-08 -1.3661e-07)
(-1.41768e-07 -1.8164e-07 2.31004e-07)
(-6.35094e-07 -1.54634e-06 6.2128e-07)
(6.46209e-09 1.86391e-07 -9.76175e-08)
(-4.23757e-07 1.74535e-06 1.02914e-06)
(-3.84946e-08 9.6957e-07 3.64437e-07)
(1.19801e-06 -6.05672e-07 -3.30765e-07)
(1.29538e-06 -4.99621e-06 -8.01148e-08)
(9.44942e-07 -3.61522e-06 -4.08545e-07)
(1.85087e-06 -5.64097e-07 -2.61235e-07)
(-6.66594e-07 2.51094e-06 1.59006e-06)
(-1.25866e-06 3.49172e-06 2.07795e-06)
(-1.07343e-07 -5.03218e-07 -2.77677e-07)
(-2.01064e-06 -4.86307e-06 3.67702e-07)
(-1.29576e-06 -3.51919e-06 6.4071e-07)
(-3.4936e-08 -4.31424e-07 -5.54893e-07)
(-1.05275e-06 2.49464e-06 1.59969e-06)
(-1.89561e-06 3.49165e-06 2.05316e-06)
(-2.95538e-06 7.39186e-06 2.84357e-06)
(-2.11783e-06 5.0163e-06 2.53278e-06)
(3.44045e-07 4.15051e-06 -1.17432e-06)
(-2.69606e-06 -4.91951e-06 -1.6017e-08)
(1.09869e-07 1.05253e-06 -8.793e-07)
(-3.34871e-06 -3.56956e-06 -3.79386e-07)
(-4.09357e-06 7.52402e-06 2.64427e-06)
(-2.97611e-06 5.1046e-06 2.41725e-06)
(3.94265e-06 7.76148e-06 1.2622e-07)
(1.66554e-06 2.07862e-06 1.26524e-06)
(1.73985e-06 -1.25968e-06 1.05674e-06)
(4.70133e-06 1.25567e-05 1.78176e-07)
(-4.11676e-06 1.0079e-05 3.0597e-06)
(-5.18364e-06 1.31636e-05 3.19527e-06)
(6.82197e-07 8.34996e-06 -1.37845e-06)
(-4.38311e-06 2.28989e-06 -8.17351e-07)
(-3.8977e-06 -1.04587e-06 -6.53203e-07)
(1.11564e-06 1.33037e-05 -1.4969e-06)
(-5.28396e-06 1.03323e-05 2.79115e-06)
(-6.5805e-06 1.3331e-05 2.9135e-06)
(-7.44731e-06 1.86545e-05 3.27671e-06)
(-6.4239e-06 1.59687e-05 3.29524e-06)
(2.20523e-06 2.3101e-05 -1.40005e-06)
(-4.76225e-06 6.02661e-06 -8.32467e-07)
(1.62744e-06 1.84567e-05 -1.5044e-06)
(-5.09871e-06 9.53859e-06 -6.68996e-07)
(-9.23364e-06 1.87155e-05 3.02343e-06)
(-7.90987e-06 1.61831e-05 3.00637e-06)
(6.4625e-06 2.49216e-05 -1.43407e-07)
(2.74236e-07 1.31467e-05 3.75387e-07)
(7.62672e-07 1.20007e-05 8.65491e-07)
(6.8443e-06 2.60325e-05 -4.23768e-07)
(-8.62817e-06 2.00334e-05 3.18323e-06)
(-9.39377e-06 1.99164e-05 2.97689e-06)
(2.82343e-06 2.6397e-05 -1.16011e-06)
(-5.53857e-06 1.32944e-05 1.96252e-07)
(-5.34469e-06 1.2181e-05 -3.05529e-07)
(3.37659e-06 2.75963e-05 -8.28835e-07)
(-1.04093e-05 1.984e-05 3.08394e-06)
(-1.12049e-05 1.95432e-05 3.06099e-06)
(1.16328e-07 1.26445e-06 5.26629e-07)
(-1.13351e-06 2.37395e-06 1.92694e-06)
(-4.24679e-07 1.34792e-06 5.4852e-07)
(-2.9563e-07 2.69919e-06 2.4966e-07)
(-5.02422e-09 1.76751e-06 1.71512e-07)
(-3.80497e-07 9.79591e-06 5.26135e-07)
(-3.52031e-07 8.57169e-06 1.51105e-06)
(-6.73991e-06 8.55861e-06 4.24054e-06)
(-1.96022e-06 8.95795e-06 8.40899e-07)
(-5.45816e-07 1.39658e-05 5.7309e-07)
(-1.17261e-06 2.68314e-05 6.63342e-07)
(-1.5081e-06 2.32451e-05 1.69295e-06)
(-1.46353e-05 1.57402e-05 4.90426e-06)
(-3.56968e-06 2.40335e-05 1.07734e-06)
(-1.43359e-06 2.91962e-05 6.59889e-07)
(-4.2736e-08 -6.60871e-08 2.9775e-14)
(-2.27877e-06 -8.70224e-06 3.69159e-07)
(-3.43675e-06 -1.00307e-06 -1.24342e-06)
(-1.00779e-06 -4.12191e-06 1.09988e-06)
(-4.72937e-07 3.96898e-06 3.05124e-07)
(-2.38535e-07 6.20088e-06 4.55593e-07)
(-4.15813e-08 2.94468e-06 1.08607e-06)
(-3.50956e-06 4.69859e-06 3.34096e-06)
(-1.13326e-06 3.091e-06 8.05714e-07)
(-3.14522e-06 -7.31079e-06 -6.9139e-07)
(-1.33565e-06 1.87119e-05 4.04535e-07)
(-1.56573e-06 2.32359e-05 4.50054e-07)
(-8.18457e-07 1.65208e-05 1.72964e-06)
(-1.05703e-05 1.28377e-05 4.73294e-06)
(-2.78181e-06 1.71137e-05 9.13632e-07)
(-3.27363e-06 6.28391e-06 -9.41864e-07)
(-1.23234e-08 6.05357e-07 8.09888e-08)
(-2.98373e-08 1.39797e-07 -3.20501e-16)
(-4.34629e-08 5.70149e-07 -2.31312e-16)
(-1.39772e-08 2.85362e-07 2.19935e-16)
(2.52016e-07 -3.02344e-07 -7.73514e-08)
(1.49455e-06 -1.37836e-06 7.86563e-07)
(1.70647e-06 1.21205e-05 1.34694e-06)
(6.06716e-07 1.92675e-06 5.52507e-07)
(9.48272e-07 2.5032e-06 5.75865e-07)
(8.88144e-07 1.59524e-06 1.66779e-07)
(-2.7558e-07 -2.67428e-07 2.61004e-07)
(-2.28214e-07 -1.11364e-06 4.66923e-07)
(-4.43947e-08 -7.01411e-08 2.29002e-07)
(-3.64779e-07 -1.10482e-06 4.68602e-07)
(-1.11108e-08 -3.59511e-07 1.49102e-07)
(2.73526e-07 1.9579e-06 6.66252e-07)
(1.1343e-07 1.34043e-06 5.35007e-07)
(5.34979e-07 2.49847e-06 7.14132e-07)
(8.22949e-07 1.97606e-06 2.48803e-07)
(9.81938e-07 -2.54308e-06 9.93884e-08)
(5.00399e-07 3.31396e-06 1.14027e-06)
(-5.79289e-07 3.7941e-06 1.77631e-06)
(8.1934e-08 4.18517e-06 1.54623e-06)
(-1.37083e-06 -4.69304e-06 6.03364e-07)
(-8.18691e-07 -2.32152e-06 5.5004e-07)
(-1.21655e-06 -2.41202e-06 3.50738e-07)
(-6.25881e-07 -9.13331e-07 4.59738e-07)
(-1.29453e-06 -2.98649e-06 4.48391e-07)
(-2.75467e-08 3.14233e-06 1.14388e-06)
(-1.00373e-06 3.66316e-06 1.76705e-06)
(-8.75296e-07 2.54287e-06 1.40674e-06)
(-7.41596e-07 4.06255e-06 1.4468e-06)
(-2.33834e-06 6.8025e-06 2.53274e-06)
(-2.20168e-06 -1.10834e-06 -1.61813e-07)
(-1.66191e-06 -2.55527e-06 1.913e-07)
(-2.42168e-06 -5.01628e-06 -8.39784e-08)
(-1.03668e-06 1.25284e-06 1.46479e-07)
(-2.08902e-06 -7.19468e-07 -8.2675e-08)
(-1.81842e-06 5.50606e-06 1.66431e-06)
(-3.25847e-06 6.85091e-06 2.44248e-06)
(-2.56e-06 5.70298e-06 1.83961e-06)
(-2.82859e-06 7.79065e-06 1.707e-06)
(1.74097e-06 4.49423e-06 1.24933e-06)
(-4.65531e-06 1.18257e-05 2.82831e-06)
(-3.15191e-06 -2.60038e-07 -6.65246e-07)
(-2.35402e-06 2.19451e-06 -3.11734e-07)
(-2.99249e-06 4.9033e-06 -5.20743e-07)
(-1.32912e-06 7.92436e-06 -1.36222e-07)
(-2.65772e-06 5.67115e-06 -3.59495e-07)
(-3.90428e-06 1.04588e-05 1.66618e-06)
(-5.80568e-06 1.20076e-05 2.63905e-06)
(-4.34965e-06 1.15534e-05 1.91519e-06)
(-4.95781e-06 1.34702e-05 1.59902e-06)
(-7.05565e-06 1.71892e-05 2.84009e-06)
(-3.53509e-06 1.27605e-05 -4.62617e-07)
(-2.68523e-06 9.70272e-06 -3.82301e-07)
(-3.45443e-06 7.06984e-06 -7.35394e-07)
(-1.24717e-06 1.63637e-05 -1.50703e-07)
(-2.83665e-06 1.34327e-05 -3.17724e-07)
(-6.16333e-06 1.62903e-05 1.51872e-06)
(-8.61917e-06 1.72297e-05 2.64863e-06)
(-6.25261e-06 1.79026e-05 1.90954e-06)
(-7.20936e-06 1.89189e-05 1.36721e-06)
(1.14643e-06 1.71421e-05 7.76482e-07)
(-8.90361e-06 2.01664e-05 2.43774e-06)
(-3.53415e-06 1.21789e-05 -1.48276e-07)
(-2.77724e-06 1.61605e-05 -7.74017e-08)
(-3.8484e-06 1.78858e-05 1.52402e-07)
(-9.13702e-07 2.17416e-05 1.78515e-07)
(-2.61754e-06 1.75533e-05 2.10144e-07)
(-7.89591e-06 2.03534e-05 1.24049e-06)
(-1.05676e-05 1.96783e-05 2.4165e-06)
(-7.38263e-06 2.10606e-05 1.87187e-06)
(-7.90731e-06 2.07683e-05 1.04191e-06)
(-6.60335e-08 -8.64338e-07 4.08971e-07)
(3.37241e-08 -4.46656e-07 -1.12224e-19)
(-1.56393e-06 -8.33078e-06 6.46443e-07)
(-1.93289e-06 -5.53525e-06 3.12141e-07)
(-1.8412e-06 -9.35414e-06 1.23303e-07)
(-1.90665e-06 -3.66342e-06 -1.05915e-06)
(-3.35901e-06 3.21735e-06 -7.28315e-07)
(-1.48112e-06 1.68291e-07 -1.15811e-06)
(-1.89704e-07 7.72329e-06 -1.56e-07)
(6.44761e-07 -1.45325e-06 -1.36173e-07)
(-7.1426e-07 -1.378e-06 4.3612e-07)
(2.58375e-08 2.34317e-06 1.09093e-06)
(9.67081e-08 2.84303e-06 1.19904e-06)
(-2.63331e-07 2.73031e-06 1.26602e-06)
(-7.4438e-07 3.24635e-06 1.78349e-06)
(-9.81834e-08 6.61263e-07 4.82143e-07)
(-3.05999e-07 -5.26744e-07 4.06855e-07)
(-3.15921e-07 1.8665e-06 1.01723e-06)
(-4.59961e-07 7.41129e-07 7.34137e-07)
(2.5549e-08 1.73967e-06 8.19346e-07)
(-2.18926e-06 3.36129e-06 2.71132e-06)
(-7.54525e-07 1.82877e-06 7.20277e-07)
(1.15047e-07 7.94933e-07 2.4927e-07)
(-4.1062e-07 1.34325e-06 1.05208e-06)
(-1.71073e-07 8.94684e-07 2.86087e-07)
(-1.39086e-07 5.25493e-06 1.33699e-06)
(-5.03671e-06 6.41238e-06 3.8779e-06)
(-1.52863e-06 5.5179e-06 8.24069e-07)
(1.63865e-06 1.18638e-06 1.01811e-06)
(-2.63213e-06 1.48008e-06 -3.84032e-07)
(-4.03824e-06 8.02871e-06 3.00113e-06)
(-3.45185e-06 9.16095e-06 2.71251e-06)
(-4.49496e-06 9.25846e-06 2.57506e-06)
(-5.49984e-06 1.03941e-05 3.18466e-06)
(-1.66872e-06 5.25508e-06 8.12338e-07)
(-1.21124e-06 4.2595e-06 -6.16566e-08)
(-3.44674e-06 8.40294e-06 1.88222e-06)
(-2.05573e-06 8.61231e-06 7.41252e-07)
(-6.23563e-07 1.23911e-05 1.6268e-06)
(-8.63694e-06 1.06769e-05 4.53137e-06)
(-2.37701e-06 1.2872e-05 8.61853e-07)
(-1.14956e-06 2.03098e-05 1.73893e-06)
(-1.26518e-05 1.4503e-05 4.87681e-06)
(-3.17339e-06 2.10348e-05 9.78271e-07)
(1.45537e-06 1.54171e-05 1.11025e-06)
(-3.71321e-06 1.60304e-05 -2.32096e-07)
(-9.95791e-06 1.76147e-05 3.28096e-06)
(-8.15814e-06 1.92904e-05 2.68575e-06)
(-9.89385e-06 1.89853e-05 2.59221e-06)
(-1.13325e-05 1.8622e-05 3.19181e-06)
(-3.0573e-06 1.98666e-05 7.75917e-07)
(-1.15042e-06 1.98011e-05 -6.49059e-08)
(-7.11249e-06 2.00974e-05 1.90479e-06)
(-3.20494e-06 2.20627e-05 8.96579e-07)
(-1.85507e-06 2.44721e-05 1.57809e-06)
(-1.65163e-05 1.54019e-05 4.90006e-06)
(-3.8489e-06 2.52444e-05 1.24321e-06)
(-3.94837e-07 -1.25038e-06 8.12769e-07)
(-3.52878e-08 -9.20974e-09 -1.31943e-16)
(3.9758e-07 1.49421e-06 3.91537e-07)
(5.16973e-07 1.56917e-06 1.39968e-19)
(7.04113e-07 1.46758e-06 -1.02994e-20)
(1.19348e-07 4.34726e-07 1.63083e-07)
(8.33158e-08 -1.49518e-08 1.84029e-21)
(2.89153e-07 9.99163e-07 -8.39523e-21)
(-5.21589e-07 -2.95724e-06 9.58799e-07)
(-1.04643e-06 -5.98143e-06 9.95715e-07)
(-7.63082e-07 -2.89216e-06 7.06816e-07)
(-1.669e-06 -6.99461e-06 8.75753e-07)
(1.28303e-06 -2.59608e-06 4.16246e-07)
(-1.71587e-06 -2.44855e-06 1.18023e-07)
(-2.77764e-06 -8.80108e-06 -1.96022e-07)
(-1.60608e-06 4.37397e-06 2.28328e-06)
(-1.38986e-06 5.02444e-06 2.18314e-06)
(-2.06825e-06 4.94039e-06 2.16097e-06)
(-2.83144e-06 5.85319e-06 2.73069e-06)
(-8.20773e-07 1.21372e-06 8.83916e-07)
(-8.36059e-07 -4.99097e-07 3.46564e-07)
(-1.68474e-06 3.68728e-06 1.69323e-06)
(-1.25348e-06 2.62539e-06 8.84937e-07)
(-2.08708e-06 -8.75188e-06 -3.85848e-07)
(-2.01214e-06 -6.66245e-06 -8.18567e-07)
(-2.85435e-06 -3.11443e-06 -4.31208e-07)
(-3.353e-06 -4.5759e-06 -1.05046e-06)
(1.78217e-06 8.40624e-06 1.33918e-06)
(-3.30064e-06 8.81263e-06 -5.41918e-07)
(-3.40072e-06 2.84836e-06 -1.21164e-06)
(-6.92444e-06 1.30637e-05 3.25943e-06)
(-5.87045e-06 1.46408e-05 2.84751e-06)
(-7.20823e-06 1.47143e-05 2.66978e-06)
(-8.54548e-06 1.53714e-05 3.32772e-06)
(-2.44409e-06 1.23472e-05 7.91969e-07)
(-1.32194e-06 1.21195e-05 -1.52622e-07)
(-5.3205e-06 1.47709e-05 1.95134e-06)
(-2.75085e-06 1.62974e-05 7.75047e-07)
(-1.18299e-06 3.78852e-06 -1.04713e-06)
(-6.19301e-07 6.75319e-06 -7.01993e-07)
(-3.55719e-06 1.02541e-05 -5.31626e-07)
(-3.05534e-06 8.60753e-06 -4.34735e-07)
(-1.21748e-05 1.84126e-05 2.97064e-06)
(-3.10331e-06 2.24895e-05 1.12616e-06)
(-4.19419e-08 -6.12672e-07 2.45641e-07)
(-1.69761e-06 -5.25554e-06 4.92341e-07)
(-2.16583e-06 -5.4645e-06 1.26153e-07)
(-3.34568e-06 1.33104e-06 -6.8298e-07)
(-3.38479e-06 5.13076e-06 -7.22972e-07)
(-3.50699e-06 1.24548e-05 1.06385e-07)
(4.6379e-07 -8.18044e-07 -1.56844e-07)
(3.91731e-07 1.7473e-07 -1.90942e-07)
(1.50191e-07 1.07073e-06 3.68213e-07)
(9.24423e-07 -3.08615e-07 -3.47328e-07)
(3.02891e-07 -7.1777e-07 -3.3316e-07)
(4.43928e-08 -9.88106e-09 1.854e-08)
(7.31933e-07 -2.61636e-06 -4.75235e-07)
(2.02514e-08 4.0033e-07 1.58509e-07)
(2.87474e-06 2.12492e-06 -4.42175e-08)
(1.57543e-06 -1.93124e-07 8.92498e-07)
(-2.18661e-07 6.83484e-06 1.4282e-06)
(3.57697e-06 5.70625e-06 4.8105e-08)
(1.38949e-06 -2.1249e-06 5.85882e-07)
(1.62593e-06 -4.67353e-06 5.82138e-07)
(1.44866e-06 -5.25194e-06 1.44581e-07)
(2.17857e-06 -4.47466e-08 -2.104e-07)
(-8.56968e-08 3.93463e-06 1.21263e-06)
(1.72104e-06 -2.69276e-06 9.30934e-07)
(5.7335e-06 1.98532e-05 1.03485e-07)
(1.59066e-06 1.39714e-05 1.21388e-06)
(-1.29362e-06 2.19304e-05 1.7204e-06)
(6.25291e-06 2.37512e-05 -6.81937e-08)
(1.74063e-06 1.03628e-05 1.33161e-06)
(1.37284e-06 7.4934e-06 1.33378e-06)
(1.61942e-06 3.85649e-06 1.34497e-06)
(5.05978e-06 1.51332e-05 1.49789e-07)
(-1.01424e-06 1.8458e-05 1.73146e-06)
(9.75922e-07 1.07269e-05 1.07951e-06)
(-1.70609e-07 -3.34031e-07 4.352e-07)
(-6.84453e-07 -2.59277e-06 1.03198e-06)
(-1.98417e-06 -8.03945e-06 6.42513e-07)
(-1.33877e-06 -5.64913e-06 1.04004e-06)
(3.44255e-07 2.30539e-06 8.7613e-07)
(1.26966e-07 1.24772e-06 5.93926e-07)
(-7.20483e-07 1.88374e-06 1.4874e-06)
(-3.15583e-07 2.10801e-06 1.25238e-06)
(5.76159e-07 1.45083e-06 2.88943e-07)
(-1.91954e-07 8.34871e-07 5.66345e-07)
(-4.85491e-07 -7.56983e-07 3.89637e-07)
(-1.71043e-07 -2.41348e-07 3.33614e-07)
(-2.81166e-08 2.46301e-07 -1.21067e-07)
(-2.82638e-07 1.16517e-06 4.21486e-07)
(-9.0134e-08 -2.1949e-07 -1.95734e-07)
(-3.57904e-07 -7.00131e-07 4.6772e-07)
(-1.13876e-07 -3.53257e-08 1.09265e-07)
(4.26293e-08 -9.32206e-09 1.00854e-07)
(-4.92944e-07 -1.91817e-06 6.45171e-07)
(-9.60229e-07 -2.53994e-06 6.84905e-07)
(-8.05472e-08 5.25858e-07 1.37715e-07)
(-2.46797e-08 2.2652e-06 9.82833e-07)
(-1.08208e-07 1.62361e-06 7.82243e-07)
(-1.88106e-07 1.34304e-06 7.0963e-07)
(-7.09206e-07 2.11367e-06 1.32387e-06)
(3.42229e-07 1.55054e-06 3.49623e-07)
(1.84194e-07 1.09177e-06 2.74806e-07)
(8.10543e-07 -2.06514e-06 -5.54711e-08)
(1.49464e-06 -7.10636e-07 -3.1801e-07)
(6.47375e-08 1.45295e-06 6.796e-07)
(1.1335e-06 -4.46246e-06 -2.57776e-07)
(1.14145e-06 -2.70772e-06 2.32208e-07)
(5.15085e-09 2.21985e-06 9.32561e-07)
(-3.40891e-07 3.2033e-06 1.5459e-06)
(-9.41547e-07 2.94521e-06 1.84962e-06)
(-1.64175e-06 2.86628e-06 2.33579e-06)
(-1.00726e-06 4.23851e-06 2.01379e-06)
(-2.80304e-06 3.99477e-06 3.0175e-06)
(-1.67514e-06 4.19915e-06 2.30584e-06)
(-9.65733e-07 -1.98022e-06 4.29358e-07)
(-4.73686e-07 -7.79731e-07 4.38381e-07)
(-9.04164e-08 -5.94461e-07 -4.09412e-07)
(-5.84522e-07 1.54012e-06 6.42914e-07)
(-1.0643e-06 -3.88641e-06 7.05156e-07)
(-1.65173e-06 -4.34209e-06 5.38379e-07)
(-1.47028e-06 -2.59588e-06 2.56423e-07)
(-2.36839e-06 -5.07594e-06 1.9145e-07)
(-7.24578e-07 -8.41692e-07 4.18117e-07)
(-9.26582e-07 2.33228e-06 7.60334e-07)
(2.45222e-08 1.19476e-07 -7.21974e-07)
(-6.92199e-07 3.074e-06 1.56692e-06)
(-6.27526e-07 2.17938e-06 1.23589e-06)
(-1.43642e-06 2.93481e-06 1.83611e-06)
(-1.56094e-06 4.12923e-06 2.00462e-06)
(-1.28903e-06 3.02928e-06 1.57412e-06)
(-2.42465e-06 4.23272e-06 2.24303e-06)
(-2.54006e-06 -8.96417e-06 8.4641e-08)
(-2.97779e-06 -8.24055e-06 -4.58316e-07)
(-3.40867e-06 -2.86591e-06 -1.17103e-06)
(-3.26071e-06 -6.07847e-06 -8.89712e-07)
(-2.51689e-06 6.11058e-06 2.70245e-06)