/*--------------------------------*- C++ -*----------------------------------*\
| =========                 |                                                 |
| \\      /  F ield         | OpenFOAM: The Open Source CFD Toolbox           |
|  \\    /   O peration     | Version:  2012                                  |
|   \\  /    A nd           | Website:  www.openfoam.com                      |
|    \\/     M anipulation  |                                                 |
\*---------------------------------------------------------------------------*/
FoamFile
{
    version     2.0;
    format      ascii;
    class       volVectorField;
    location    "0.106/fluid";
    object      U;
}
// * * * * * * * * * * * * * * * * * * * * * * * * * * * * * * * * * * * * * //

dimensions      [0 1 -1 0 0 0 0];


internalField   nonuniform List<vector> 
16422
(
(1.25405 -0.0453728 -0.00500661)
(1.20912 -0.0111714 0.00626188)
(1.20254 -0.0123742 0.00198755)
(1.19874 -0.00787627 0.000237919)
(1.19822 -0.00543643 -0.00020292)
(1.1984 -0.00361061 -0.000183888)
(1.19865 -0.0023518 -0.00011884)
(1.19886 -0.00151395 -7.71241e-05)
(1.19904 -0.000968956 -5.43162e-05)
(1.19919 -0.000614995 -4.17558e-05)
(1.19931 -0.00038803 -3.13803e-05)
(1.19942 -0.000244434 -2.74137e-05)
(1.19951 -0.000152723 -2.65902e-05)
(1.1996 -9.33925e-05 -2.51709e-05)
(1.19968 -5.10322e-05 -2.69017e-05)
(1.21872 -0.00642806 2.9645e-05)
(1.21217 -0.013069 0.000883162)
(1.2056 -0.00871796 0.000235995)
(1.20167 -0.00561833 -0.000135234)
(1.20026 -0.00379995 -0.000184785)
(1.19976 -0.00256895 -0.000142917)
(1.19951 -0.00170802 -9.73054e-05)
(1.1994 -0.00111984 -7.00364e-05)
(1.19937 -0.000726481 -5.21581e-05)
(1.19939 -0.000464731 -4.053e-05)
(1.19943 -0.000296402 -3.33349e-05)
(1.19948 -0.000187385 -3.07882e-05)
(1.19955 -0.000120155 -2.86772e-05)
(1.19962 -7.24091e-05 -2.83316e-05)
(1.1997 -3.83897e-05 -3.10956e-05)
(1.21242 -0.00186694 4.2662e-05)
(1.21012 -0.00442205 0.000162675)
(1.20618 -0.00366788 8.20543e-06)
(1.20318 -0.0025747 -9.7749e-05)
(1.20155 -0.00181587 -0.000118015)
(1.20062 -0.00124959 -0.000102216)
(1.20007 -0.000841873 -7.86434e-05)
(1.19975 -0.000557476 -6.08742e-05)
(1.19959 -0.000361135 -4.98848e-05)
(1.19952 -0.000228939 -4.10991e-05)
(1.19952 -0.000144358 -3.38429e-05)
(1.19954 -8.78417e-05 -3.19426e-05)
(1.19958 -5.04632e-05 -2.86284e-05)
(1.19963 -2.26683e-05 -3.02828e-05)
(1.19971 -7.71187e-06 -3.33972e-05)
(1.25317 -0.0282943 -0.00160672)
(1.20945 -0.031548 -0.00306686)
(1.20576 -0.00838542 -0.00272707)
(1.2017 -0.00692392 -0.00184407)
(1.20012 -0.00511866 -0.00122651)
(1.19975 -0.00346336 -0.000841913)
(1.19969 -0.00226856 -0.000585689)
(1.19972 -0.00146812 -0.000401234)
(1.19979 -0.000945336 -0.000272291)
(1.19984 -0.000603398 -0.000183064)
(1.19989 -0.00038323 -0.000122788)
(1.19993 -0.000242046 -8.22821e-05)
(1.19996 -0.000151677 -5.3168e-05)
(1.19998 -9.24988e-05 -3.03306e-05)
(1.19999 -5.1245e-05 -1.62076e-05)
(1.21928 -0.00634677 3.68551e-05)
(1.21367 -0.0137304 -0.00092169)
(1.20765 -0.00813123 -0.00117239)
(1.20362 -0.00523811 -0.00105414)
(1.20183 -0.0036073 -0.000826837)
(1.20103 -0.00245701 -0.000624474)
(1.20057 -0.00164445 -0.000460994)
(1.20031 -0.00108576 -0.000329919)
(1.20017 -0.000707701 -0.000232151)
(1.20009 -0.000455676 -0.000161859)
(1.20006 -0.00029138 -0.000111947)
(1.20004 -0.000185738 -7.54067e-05)
(1.20003 -0.000118203 -4.8324e-05)
(1.20003 -7.09437e-05 -2.73614e-05)
(1.20003 -3.8558e-05 -1.33088e-05)
(1.21295 -0.0019153 0.0001056)
(1.21104 -0.00439542 -0.000440456)
(1.2075 -0.00353118 -0.000685419)
(1.2046 -0.00244561 -0.000703105)
(1.20287 -0.00172598 -0.000616018)
(1.20179 -0.00119413 -0.000498512)
(1.2011 -0.0008101 -0.000384941)
(1.20067 -0.00053944 -0.000286039)
(1.20041 -0.000352248 -0.000207006)
(1.20026 -0.000225948 -0.000148023)
(1.20017 -0.000141957 -0.000103967)
(1.20011 -8.54182e-05 -7.1249e-05)
(1.20008 -4.86534e-05 -4.57187e-05)
(1.20006 -2.27401e-05 -2.54857e-05)
(1.20006 -7.69455e-06 -1.17147e-05)
(1.24982 -0.0247767 0.000334794)
(1.20905 -0.033405 -0.0040282)
(1.20483 -0.00781968 -0.00436766)
(1.20191 -0.00621877 -0.00306736)
(1.20066 -0.00457915 -0.00206421)
(1.20022 -0.00312288 -0.00143885)
(1.20003 -0.00207372 -0.00100197)
(1.19996 -0.00135718 -0.000691096)
(1.19995 -0.000883892 -0.000471254)
(1.19996 -0.000570028 -0.000317966)
(1.19998 -0.00036664 -0.000212608)
(1.19999 -0.000233109 -0.000144297)
(1.2 -0.000146831 -9.46432e-05)
(1.2 -9.00401e-05 -5.943e-05)
(1.20001 -4.86739e-05 -3.48638e-05)
(1.21778 -0.00603097 0.00041924)
(1.21278 -0.0131693 -0.00137797)
(1.20729 -0.00746524 -0.00201256)
(1.20378 -0.00466307 -0.00181465)
(1.20217 -0.00320714 -0.00143167)
(1.20133 -0.00221528 -0.00108041)
(1.20081 -0.00150227 -0.000794108)
(1.2005 -0.00100491 -0.000572336)
(1.20031 -0.000661738 -0.000403715)
(1.2002 -0.000431198 -0.000280314)
(1.20013 -0.000278636 -0.000193362)
(1.20009 -0.000178968 -0.000133733)
(1.20007 -0.000113659 -8.86065e-05)
(1.20005 -6.85984e-05 -5.62577e-05)
(1.20005 -3.62126e-05 -3.23283e-05)
(1.21216 -0.00184443 0.000198174)
(1.21044 -0.00403218 -0.000716903)
(1.20728 -0.00316615 -0.00118172)
(1.20467 -0.00216258 -0.00122599)
(1.20305 -0.00153847 -0.00106817)
(1.20199 -0.0010786 -0.000861369)
(1.20129 -0.000741051 -0.000664505)
(1.20083 -0.000499559 -0.000496954)
(1.20054 -0.000329459 -0.000360364)
(1.20035 -0.000213233 -0.000256038)
(1.20023 -0.000133552 -0.000179742)
(1.20016 -8.10078e-05 -0.000127731)
(1.20011 -4.71247e-05 -8.65943e-05)
(1.20009 -2.18274e-05 -5.53836e-05)
(1.20007 -6.30984e-06 -3.04357e-05)
(0.956605 -0.161431 -0.0373962)
(1.1972 0.00306109 0.00908841)
(1.31703 -0.0776115 -0.00857379)
(1.19254 -0.0162741 0.00637252)
(1.31778 -0.0763823 0.00845558)
(1.18207 -0.00656469 -0.00399043)
(1.31096 -0.0752836 -0.0107485)
(1.18825 -0.0109353 -0.00181992)
(1.3096 -0.0752578 0.00673071)
(1.18484 -0.00826861 -0.00582785)
(0.296816 0.0703056 -0.0339465)
(0.124535 0.0614678 -0.00892761)
(1.19675 -0.00142863 0.0179106)
(1.1909 -0.0154563 0.00417939)
(1.19596 -0.0232143 0.00522527)
(1.19104 -0.022494 -0.00182348)
(1.20617 -0.0186048 0.00362008)
(1.23066 -0.00480522 0.00018621)
(1.21004 -0.00581053 0.0017932)
(1.25547 -0.0277424 -0.00309832)
(1.21121 -0.0561973 0.000208619)
(1.23284 -0.00363159 0.000454213)
(1.2128 -0.00770063 0.000311978)
(0.304735 0.0719314 -0.0065883)
(0.294891 0.0693881 -0.0120417)
(1.1922 -0.00726701 -0.00445485)
(1.1957 -0.0119045 -0.00460554)
(1.19359 -0.0152091 -0.00160539)
(1.19263 -0.0165127 -0.00256903)
(1.20643 -0.0488194 -0.00285339)
(1.23187 -0.00288163 0.00013156)
(1.21191 -0.0057706 -0.000862456)
(1.2512 -0.0258002 0.000851118)
(1.20868 -0.0519596 -0.00103008)
(1.23041 -0.00319998 -0.000534135)
(1.21174 -0.00636815 -0.00181361)
(0.305049 0.0726222 -0.00498595)
(0.300718 0.0712974 -0.00523675)
(1.19144 -0.0105429 -0.00639563)
(1.19397 -0.012526 -0.00620586)
(1.20639 -0.0494033 -0.00321677)
(1.22944 -0.00316325 -0.00113916)
(1.21129 -0.00567525 -0.00301184)
(0.563223 0.131601 -0.0493199)
(1.12479 0.0613354 -0.0045341)
(1.15031 -0.00931798 -0.0381254)
(0.396038 0.178549 -0.0258201)
(0.313427 -0.0733523 0.00147526)
(1.07151 -0.0848722 -0.10742)
(1.32845 -0.0931068 -0.0117019)
(1.22493 -0.0794749 -0.0230166)
(0.185152 -0.0484551 -0.0301811)
(0.599179 -0.144711 0.00499308)
(1.18416 -0.00950855 0.0244928)
(1.22756 -0.0257065 -0.0324632)
(1.19558 -0.0168694 0.0282215)
(1.19988 -0.0466046 0.0172338)
(1.19814 -0.0303372 0.024498)
(0.346123 -0.0904472 0.004818)
(0.285226 0.0665204 -0.0220363)
(0.3032 0.0714072 -0.0137795)
(0.543146 0.122606 -0.0423807)
(1.18163 0.00260962 -0.00849844)
(1.13186 0.0683866 -0.0261505)
(0.576706 0.134266 -0.0207375)
(0.311637 -0.0726299 -0.00201193)
(1.32748 -0.0805726 0.00730069)
(1.23359 -0.0654129 -0.00249054)
(1.22713 -0.0698068 0.000870659)
(0.318535 -0.0736703 -0.00189829)
(0.598428 -0.145618 -0.00620801)
(1.17953 -0.0031114 -0.00264069)
(1.18954 -0.0556243 0.00711544)
(1.19886 -0.0310073 0.00363771)
(1.1588 -0.0357651 -8.25065e-05)
(1.17928 -0.0356929 -0.00400259)
(0.608171 -0.146123 -0.0015633)
(0.58072 0.135242 -0.00837183)
(0.564622 0.131162 -0.025769)
(0.320915 -0.0732528 -0.00224249)
(1.22949 -0.065638 -0.00564046)
(1.31439 -0.0752102 -0.0092981)
(0.31765 -0.0733565 -0.00530002)
(1.23263 -0.0642692 -0.00127955)
(0.612284 -0.146064 -0.00150082)
(1.1646 -0.0399933 -0.00566413)
(1.18731 -0.0336501 -0.00260551)
(1.19082 -0.0134602 0.00112855)
(0.606943 -0.145883 -0.0123276)
(1.18382 -0.0508227 0.0017283)
(1.19672 -0.0308755 -0.00041131)
(0.299611 0.0707565 -0.00743268)
(0.304592 0.0721643 -0.0044734)
(0.573433 0.133417 -0.0168101)
(0.581562 0.135258 -0.00438002)
(0.319761 -0.0729387 -0.00491103)
(1.31367 -0.0753381 0.00735308)
(1.23093 -0.0645085 -0.00270991)
(1.22984 -0.0646809 -0.00646933)
(0.322857 -0.0728037 -0.00253024)
(0.610614 -0.145593 -0.0110091)
(1.18392 -0.00817925 -0.00500268)
(1.17908 -0.0468569 -0.00191897)
(1.19413 -0.0304998 -0.00268974)
(1.16963 -0.0419605 -0.00672342)
(1.18999 -0.0320763 -0.00371478)
(0.616103 -0.14633 -0.00169146)
(0.583145 0.135429 -0.00515079)
(0.576216 0.133801 -0.0124721)
(0.325119 -0.0725854 -0.00354003)
(1.22946 -0.0644672 -0.00662726)
(1.30606 -0.075771 -0.0125941)
(0.321165 -0.0723946 -0.00454482)
(1.22918 -0.0647908 -0.00625043)
(0.620639 -0.147084 -0.0036237)
(1.17268 -0.0424791 -0.00716636)
(1.19102 -0.0306735 -0.00514668)
(1.18656 -0.00892542 -0.00509754)
(0.613812 -0.14565 -0.0100166)
(1.17652 -0.0442404 -0.00546684)
(1.19225 -0.0298136 -0.00569295)
(0.300238 0.0715248 -0.00484562)
(0.576719 0.133481 -0.0119673)
(0.321637 -0.0717876 -0.00482533)
(1.3037 -0.0755562 0.00601176)
(1.22809 -0.0642868 -0.0080939)
(0.616026 -0.145693 -0.0107653)
(1.1855 -0.00762222 -0.0081752)
(1.17488 -0.0421335 -0.00923166)
(1.19118 -0.0292817 -0.00857913)
(0.288219 0.0675273 0.0453845)
(0.327188 0.082415 0.0119921)
(0.297651 0.0701003 -0.003252)
(0.304495 0.0718409 -0.0028517)
(0.300578 0.0714272 -0.00378181)
(0.304521 0.0723145 -0.00342151)
(1.07381 0.0877965 -0.11459)
(0.549162 0.119203 0.0708618)
(1.1059 -0.00726934 0.0113864)
(0.622146 0.16638 0.0406523)
(1.06891 0.0641699 -0.107429)
(1.04761 0.253732 -0.0395869)
(1.40051 -0.172827 -0.00708015)
(1.25781 -0.169887 -0.0133726)
(0.292952 -0.0690607 0.0195738)
(1.26384 -0.157405 0.00549101)
(1.36378 -0.172545 -0.0361397)
(1.73003 -0.170015 -0.0545472)
(1.0429 -0.200424 0.0130779)
(1.8421 -0.133528 -0.0609387)
(0.943235 -0.164956 -0.0281768)
(1.45 -0.186349 -0.0135069)
(1.57579 -0.154072 -0.0452799)
(1.58941 -0.175685 0.00714337)
(1.41967 -0.179353 -0.0388344)
(1.68231 -0.171908 -0.0508498)
(0.296464 -0.0693131 0.0187088)
(1.26649 -0.120756 -0.0992573)
(1.45136 -0.190371 -0.0238279)
(0.945272 -0.140215 -0.0572992)
(1.18425 -0.0620319 0.0566042)
(1.10323 -0.0873438 -0.0163007)
(1.20153 -0.116803 -0.00481166)
(0.574984 -0.139554 0.0524738)
(1.13302 -0.115008 0.0608488)
(1.20038 -0.0966908 0.0343516)
(1.19309 -0.0509692 -0.00688601)
(1.25526 -0.0802721 0.0492268)
(0.565848 -0.133167 0.054376)
(1.19409 -0.0788061 -0.0405216)
(1.21929 -0.116385 -0.0695868)
(1.05393 -0.0369309 0.0509709)
(1.3136 -0.15349 0.0156381)
(1.21871 -0.100251 -0.0364577)
(0.303529 0.0718748 -0.00586319)
(0.28748 0.0672208 -0.00194933)
(1.07848 0.0726379 -0.0652285)
(0.577851 0.138766 -0.0039786)
(1.07167 0.102967 -0.00978688)
(0.552187 0.126658 -0.00579819)
(1.11003 0.0684234 -0.0421074)
(1.11292 0.0608871 0.0055922)
(1.37159 -0.165189 -0.0218403)
(1.27285 -0.161022 -0.0045039)
(0.313915 -0.0731549 0.00391861)
(1.37896 -0.166558 0.0104898)
(1.26967 -0.164715 0.000732452)
(1.41892 -0.168642 0.0221055)
(1.55094 -0.141725 -0.0349177)
(1.55328 -0.143728 0.032275)
(1.41799 -0.167945 -0.0254109)
(1.42093 -0.170711 -0.0255303)
(1.57249 -0.150644 0.0284239)
(1.559 -0.142876 -0.036695)
(1.42967 -0.173623 0.0122961)
(1.37161 -0.162146 0.0207512)
(0.316459 -0.0734054 0.00059252)
(1.27718 -0.160105 -0.00239666)
(1.27715 -0.159159 0.00160979)
(1.37101 -0.161926 -0.023038)
(1.17358 -0.0641555 0.0121545)
(1.10032 -0.095448 -0.0060515)
(1.20148 -0.114727 0.000662614)
(0.598415 -0.143611 0.0135726)
(1.17281 -0.0676849 -0.00424348)
(1.08929 -0.0858771 0.0143574)
(1.20056 -0.119703 0.00412125)
(1.19314 -0.0632528 0.0175615)
(0.60569 -0.146038 0.00348584)
(1.11941 -0.0942082 -0.0107765)
(1.21342 -0.112747 -0.00423719)
(1.1218 -0.0972175 0.0190819)
(1.21287 -0.110855 0.00762105)
(1.19441 -0.0623525 -0.0105967)
(0.570035 0.132262 -0.00784963)
(1.1118 0.0701333 -0.0209875)
(1.11155 0.0695139 0.000469214)
(0.579932 0.136537 -0.000161709)
(1.09263 0.0792669 -0.0380971)
(1.09227 0.0821449 -0.00210649)
(1.37003 -0.159867 0.0195735)
(0.319173 -0.0732318 -0.00219451)
(1.27705 -0.157408 -0.0023924)
(1.27701 -0.157768 -0.00108839)
(1.36942 -0.159347 -0.0226338)
(1.41718 -0.166559 -0.0231649)
(1.55255 -0.140544 0.0324021)
(1.41894 -0.167458 0.0204685)
(1.54941 -0.139145 -0.0329704)
(1.3702 -0.160957 -0.0207122)
(0.318353 -0.0732118 0.000549099)
(1.27526 -0.159687 -0.00336849)
(1.37159 -0.16162 0.017854)
(1.27485 -0.159465 9.21751e-05)
(1.41642 -0.16565 0.0219368)
(1.54587 -0.138128 -0.0341531)
(1.54734 -0.13894 0.0330556)
(1.41559 -0.165004 -0.0247721)
(1.19033 -0.0627073 0.00714535)
(0.60953 -0.145816 -0.00379947)
(1.11754 -0.091356 -0.00776743)
(1.21207 -0.111036 -0.00464443)
(1.11758 -0.0919533 0.00607835)
(1.21187 -0.110847 0.00177137)
(1.19075 -0.062511 -0.00917294)
(1.17949 -0.0635139 0.00309666)
(0.607084 -0.145033 0.00565704)
(1.10432 -0.0908733 -0.0118468)
(1.20722 -0.114096 -0.00311802)
(1.18025 -0.0640311 -0.00760433)
(1.10284 -0.0890197 0.00630484)
(1.20671 -0.114034 -0.000143865)
(0.30453 0.0720436 -0.00246123)
(0.300452 0.0710742 -0.00337299)
(1.10078 0.0769652 -0.0219362)
(0.581001 0.135877 -0.000128356)
(1.10056 0.0777857 -0.00359833)
(0.575357 0.133634 -0.00830149)
(1.10983 0.0725 -0.0124296)
(1.10952 0.0724091 -0.00346312)
(1.36806 -0.158818 -0.0226016)
(1.27494 -0.157335 -0.00406216)
(0.321107 -0.0728572 -0.00111402)
(1.36888 -0.159332 0.0175297)
(1.27466 -0.156851 -0.00192584)
(1.41364 -0.163787 0.0205085)
(1.54147 -0.136613 -0.034998)
(1.54293 -0.137149 0.0321571)
(1.4128 -0.163238 -0.0260046)
(1.41419 -0.164281 -0.0248105)
(1.54588 -0.137991 0.0319208)
(1.54412 -0.137313 -0.0341358)
(1.41521 -0.164902 0.0202588)
(1.36781 -0.158298 0.0178513)
(0.32066 -0.0726808 -0.00332847)
(1.27503 -0.155568 -0.00336219)
(1.27516 -0.155979 -0.00332691)
(1.36718 -0.157866 -0.0239565)
(1.18204 -0.062344 -0.00243662)
(1.10832 -0.0889841 -0.00986352)
(1.20806 -0.111804 -0.00377497)
(0.612376 -0.145603 0.0019575)
(1.18282 -0.062722 -0.00611151)
(1.10751 -0.0882069 0.000397326)
(1.20751 -0.111431 -0.00307036)
(1.18723 -0.0619356 0.00143394)
(0.612571 -0.145651 -0.00666046)
(1.1144 -0.0889249 -0.00629665)
(1.20965 -0.109856 -0.00536238)
(1.11439 -0.0891687 -0.00053177)
(1.2097 -0.109891 -0.00151516)
(1.18731 -0.0617407 -0.00831485)
(0.576552 0.133639 -0.00954013)
(1.1085 0.0736152 -0.0106979)
(1.10823 0.0736424 -0.00768006)
(0.581914 0.135473 -0.00214423)
(1.10476 0.0755181 -0.0142932)
(1.10462 0.0758177 -0.00636652)
(1.36506 -0.156957 0.0164666)
(0.321475 -0.0720983 -0.00410082)
(1.272 -0.153807 -0.00531852)
(1.27257 -0.154174 -0.00560235)
(1.3637 -0.156491 -0.0261741)
(1.41095 -0.162451 -0.0267799)
(1.54068 -0.136592 0.0317889)
(1.41214 -0.163008 0.0196903)
(1.53882 -0.136035 -0.0353456)
(1.36561 -0.157299 -0.0247837)
(0.323562 -0.0725852 -0.00245633)
(1.27358 -0.155252 -0.00508602)
(1.3666 -0.15769 0.0168153)
(1.27315 -0.154854 -0.00394591)
(1.41018 -0.16213 0.0194411)
(1.53523 -0.135325 -0.0357537)
(1.53761 -0.136073 0.0320261)
(1.40853 -0.161431 -0.0279721)
(1.18509 -0.0609206 -0.0031008)
(0.614999 -0.145691 -0.00879877)
(1.11237 -0.0869998 -0.00739552)
(1.20718 -0.108654 -0.00732221)
(1.11235 -0.0872771 -0.00562529)
(1.20748 -0.108713 -0.00453289)
(1.18501 -0.0607257 -0.00942927)
(1.18323 -0.0612358 -0.00651322)
(0.617432 -0.14641 -0.00116442)
(1.11029 -0.0875394 -0.00842019)
(1.20761 -0.109862 -0.00452612)
(1.18377 -0.0614983 -0.00519428)
(1.1098 -0.0870989 -0.0039618)
(1.20714 -0.109616 -0.00562185)
(0.306422 0.0731905 -0.006365)
(0.299858 0.0716402 -0.00515828)
(1.10713 0.0746429 -0.0135672)
(0.585696 0.136081 -0.00744835)
(1.10729 0.0747103 -0.0114855)
(0.577025 0.133278 -0.0128383)
(1.10911 0.0737193 -0.0148327)
(1.36061 -0.155445 -0.028426)
(1.27074 -0.153064 -0.00744248)
(0.326883 -0.0726469 -0.00485136)
(1.36284 -0.156191 0.0154114)
(1.26967 -0.152666 -0.00734438)
(1.40316 -0.159837 0.016567)
(1.52767 -0.134696 0.0318836)
(1.40471 -0.160075 -0.0299412)
(1.53377 -0.13557 0.0322011)
(1.52979 -0.134222 -0.0363115)
(1.40746 -0.16118 0.0186673)
(1.35938 -0.155129 0.0129218)
(0.321528 -0.0714015 -0.0052735)
(1.26867 -0.151523 -0.0101499)
(1.18366 -0.0599159 -0.0109041)
(1.11132 -0.0859606 -0.0101963)
(1.20621 -0.107976 -0.00695767)
(0.623715 -0.147666 -0.00591815)
(1.18399 -0.0601615 -0.00685254)
(1.11121 -0.0854143 -0.00922739)
(1.20551 -0.107858 -0.00937929)
(1.18444 -0.0593448 -0.00857528)
(0.61685 -0.145585 -0.0118859)
(1.11247 -0.0847339 -0.0123526)
(1.20538 -0.1068 -0.00938501)
(1.11329 0.213515 -0.111585)
(1.12673 0.190557 -0.1035)
(0.269296 0.065472 -0.0298656)
(1.09479 0.185177 -0.107808)
(1.15535 0.225668 -0.113842)
(0.553044 0.012269 -0.130116)
(1.00964 0.181028 -0.144795)
(1.06964 0.189396 -0.13387)
(0.963912 0.0718046 -0.138052)
(0.222921 0.0452048 -0.11689)
(0.737317 0.360827 -0.262122)
(1.02361 0.0166504 -0.0509159)
(0.37275 0.119902 -0.0390582)
(1.17719 0.216915 -0.0150565)
(0.298437 0.0703701 -0.00618493)
(1.15321 0.173516 -0.0150279)
(1.14968 0.172523 -0.0176237)
(1.18226 0.218342 -0.01867)
(1.05281 0.186781 -0.0069753)
(1.05807 0.187667 -0.0570889)
(1.178 0.220813 -0.0241091)
(0.303506 0.0716901 -0.00944109)
(1.15006 0.179352 -0.0341665)
(1.18423 0.22283 -0.0316474)
(1.14681 0.178909 -0.0209452)
(1.02723 0.182417 -0.0387972)
(1.04328 0.184898 0.00292517)
(1.17417 0.215273 -0.0117461)
(0.299986 0.0714215 -0.00447909)
(1.15098 0.169137 -0.00999652)
(1.14767 0.168786 -0.0145923)
(1.17896 0.216222 -0.0143357)
(1.02926 0.184948 0.0121198)
(1.03668 0.185402 -0.0356391)
(1.17497 0.217083 -0.0103348)
(0.303826 0.0721637 -0.0040626)
(1.15059 0.172571 -0.0133258)
(1.18001 0.218581 -0.00952652)
(1.14784 0.171636 -0.00706322)
(1.01867 0.183269 -0.034683)
(1.03344 0.185384 0.00596098)
(1.13611 0.129555 -0.11654)
(1.15882 0.152609 -0.100971)
(0.859596 0.0992791 -0.0592418)
(0.53064 0.125654 -0.0516442)
(1.13792 0.152484 -0.114475)
(0.861841 0.108727 -0.0857843)
(1.14613 0.12516 -0.100867)
(1.10003 0.0323037 -0.0604311)
(0.462095 0.0892388 -0.168516)
(0.934648 0.295294 -0.217773)
(0.874892 0.208541 -0.102686)
(1.09849 0.000867282 -0.0392696)
(0.809768 0.0686424 -0.121352)
(1.05162 0.153139 -0.182574)
(1.17219 -0.226867 -0.02312)
(1.15028 -0.188747 -0.00338629)
(0.310647 -0.07266 -0.00494474)
(1.1443 -0.187585 -0.0176827)
(1.17746 -0.228883 -0.0128731)
(0.879544 -0.118029 0.0924389)
(0.553064 -0.149909 0.0345191)
(1.0281 -0.188337 -0.0594795)
(1.04191 -0.185517 -0.0112819)
(1.12289 -0.153707 -0.0223291)
(0.261383 -0.053433 -0.0389369)
(1.00149 -0.212108 0.00870833)
(1.14915 -0.122161 -0.0278424)
(1.05941 -0.230132 -0.0102386)
(1.16656 -0.118663 -0.0150098)
(0.901829 -0.127363 0.00545491)
(1.18023 -0.149136 0.00527819)
(0.597951 -0.146033 -0.0123839)
(0.897331 -0.126399 -0.0133979)
(1.17665 -0.149204 -0.0168763)
(1.16721 -0.120839 0.00779474)
(1.30628 -0.137775 -0.0442228)
(0.533915 -0.114161 -0.0597627)
(0.958016 -0.051194 -0.0161909)
(0.988463 -0.197053 0.00988297)
(0.97903 -0.138074 -0.0245995)
(1.25565 -0.0988544 -0.0275189)
(1.0345 -0.127665 -0.0201316)
(1.18089 0.223815 -0.0576177)
(1.15498 0.188353 -0.0854396)
(0.299897 0.0705597 -0.0229606)
(1.20116 0.236655 -0.0899472)
(1.14248 0.183248 -0.0532959)
(1.02308 0.179722 -0.0524476)
(1.0468 0.183701 -0.0255901)
(1.09098 0.193702 -0.0648137)
(1.1118 0.203673 -0.123765)
(1.17202 0.214809 -0.0309571)
(0.291065 0.0683435 -0.0102798)
(1.15012 0.174548 -0.0329058)
(1.17916 0.217524 -0.0372539)
(1.14454 0.172374 -0.0322154)
(1.15722 0.116686 -0.052016)
(1.17853 0.138292 -0.086619)
(0.86188 0.0924615 -0.0606611)
(0.569429 0.134263 -0.0372195)
(1.15944 0.105705 -0.0792723)
(1.17079 0.141606 -0.0484215)
(0.868409 0.103332 -0.0541374)
(1.171 0.0996329 -0.0337934)
(0.559133 0.128709 -0.0213807)
(1.18258 0.129595 -0.0297535)
(0.886973 0.0972615 -0.0325014)
(1.17907 0.127514 -0.0365984)
(0.88549 0.0963161 -0.0286874)
(1.17304 0.101202 -0.0351991)
(1.1749 -0.222125 -0.00826894)
(1.14747 -0.180647 -0.00628481)
(0.31147 -0.072861 -0.000692129)
(1.17415 -0.220851 -0.00602122)
(1.14939 -0.182248 -0.00274055)
(1.02825 -0.179016 -0.0356849)
(1.04206 -0.180156 0.0212353)
(1.0243 -0.180506 0.00401035)
(1.02745 -0.181504 -0.0454817)
(1.18325 -0.219752 -0.00454453)
(0.318065 -0.0736872 -0.00370135)
(1.16225 -0.181337 -0.00249579)
(1.15896 -0.180483 -0.00650914)
(1.18883 -0.22106 -0.00605149)
(1.16737 -0.118027 0.00270725)
(0.902153 -0.12606 -0.00361556)
(1.17805 -0.142606 -0.0101156)
(0.59586 -0.143537 0.000945088)
(1.1668 -0.117514 -0.00777341)
(0.900472 -0.125278 -0.00613111)
(1.1794 -0.144482 0.00393676)
(1.18099 -0.117106 -0.00937835)
(0.609417 -0.147398 -0.00784206)
(0.913748 -0.126357 -0.00748453)
(1.19295 -0.143599 0.00215801)
(0.915271 -0.127524 -0.00524404)
(1.19139 -0.143065 -0.0110128)
(1.1809 -0.117212 -0.000963372)
(1.17329 0.0997386 -0.0203286)
(0.571893 0.132494 -0.0136914)
(1.18419 0.128021 -0.0107247)
(0.89537 0.0988576 -0.0167625)
(1.182 0.127158 -0.0227579)
(0.894718 0.0984918 -0.0155429)
(1.17454 0.10041 -0.0148749)
(1.16434 0.11345 -0.0185618)
(0.578429 0.136415 -0.0128923)
(1.17815 0.136816 -0.0409767)
(0.884333 0.101928 -0.0355792)
(1.17599 0.138143 -0.0162093)
(1.16509 0.110811 -0.0420091)
(0.885526 0.104496 -0.0221723)
(1.18547 -0.21575 -0.00480862)
(0.319625 -0.073174 -0.00393556)
(1.16375 -0.177881 -0.00285401)
(1.16087 -0.177527 -0.00722554)
(1.19044 -0.216426 -0.00603266)
(1.03097 -0.177872 0.0227607)
(1.03938 -0.179001 -0.0333154)
(1.18347 -0.219191 -0.00317054)
(0.316854 -0.0731582 -0.00118992)
(1.16082 -0.180973 -0.00664387)
(1.18837 -0.220442 -0.00313558)
(1.15764 -0.180297 -0.00024347)
(1.02946 -0.175264 -0.0334501)
(1.04152 -0.176053 0.023072)
(1.18158 -0.115665 -0.0102972)
(0.611471 -0.146397 -0.00823392)
(0.912899 -0.124491 -0.0060447)
(1.19463 -0.141635 0.00191618)
(0.913874 -0.125161 -0.00577872)
(1.19308 -0.141403 -0.0119027)
(1.1819 -0.115543 -0.000548801)
(1.17404 -0.117105 0.00304666)
(0.604871 -0.144893 0.000786794)
(0.907207 -0.125008 -0.0121297)
(1.19014 -0.143812 -0.0126705)
(1.17605 -0.117291 -0.013813)
(0.905038 -0.124131 -0.00397712)
(1.18772 -0.143473 0.00454931)
(1.17679 0.21912 -0.0131238)
(1.15116 0.175792 -0.0184497)
(0.303965 0.0719637 -0.00493037)
(1.18214 0.22052 -0.0147489)
(1.14819 0.175169 -0.010081)
(1.025 0.183464 -0.034777)
(1.03922 0.185559 0.0103895)
(1.03841 0.18546 0.00971459)
(1.04516 0.186008 -0.0412494)
(1.17638 0.216794 -0.010604)
(0.300233 0.0711326 -0.00464175)
(1.15234 0.171851 -0.00933231)
(1.18112 0.217876 -0.0131625)
(1.14921 0.171303 -0.0135149)
(1.1679 0.10711 -0.00741664)
(1.1801 0.132265 -0.0252849)
(0.893125 0.101514 -0.0208704)
(0.580423 0.136102 -0.0051467)
(1.16875 0.106204 -0.0256285)
(1.17818 0.132421 -0.00504036)
(0.893384 0.102494 -0.011911)
(1.17168 0.10028 -0.0164073)
(0.575699 0.13361 -0.010911)
(1.18251 0.126668 -0.00397475)
(0.898573 0.0989773 -0.0100992)
(1.18052 0.126375 -0.0187636)
(0.898208 0.0990646 -0.011718)
(1.17283 0.100384 -0.00692316)
(1.18434 -0.214331 -0.00380588)
(1.16238 -0.177825 -0.0070539)
(0.319896 -0.0728769 -0.00186541)
(1.18948 -0.216093 -0.00366744)
(1.15918 -0.176759 -0.00120964)
(1.02596 -0.170854 -0.0336333)
(1.03835 -0.171728 0.0201756)
(1.03022 -0.173917 0.0233298)
(1.03934 -0.175307 -0.0329068)
(1.18482 -0.21099 -0.0065964)
(0.320704 -0.072544 -0.00412777)
(1.16338 -0.174501 -0.00407846)
(1.16047 -0.174305 -0.0088259)
(1.18965 -0.21148 -0.00734391)
(1.17702 -0.115487 0.00194276)
(0.908839 -0.123871 -0.010337)
(1.19256 -0.141997 -0.0126089)
(0.610685 -0.145522 -0.000318338)
(1.17856 -0.115744 -0.0128426)
(0.907443 -0.123514 -0.00396975)
(1.19041 -0.141393 0.00346435)
(1.18062 -0.114532 -0.0116338)
(0.613635 -0.145982 -0.00870749)
(0.911107 -0.123878 -0.0049572)
(1.19484 -0.140084 0.00102289)
(0.911568 -0.124279 -0.00696153)
(1.19305 -0.139961 -0.0132544)
(1.18136 -0.114332 -0.00053794)
(1.16993 0.0995151 -0.0171297)
(0.57643 0.133577 -0.0109569)
(1.18087 0.124207 -0.00377277)
(0.900968 0.0983208 -0.00950059)
(1.17859 0.124202 -0.0196834)
(0.900434 0.0985153 -0.0124763)
(1.17143 0.0993059 -0.00600691)
(1.16912 0.102972 -0.00391166)
(0.581174 0.135603 -0.00355988)
(1.17995 0.12832 -0.0195146)
(0.897611 0.100033 -0.0144743)
(1.17838 0.127872 -0.00156311)
(1.16967 0.102822 -0.018525)
(0.897728 0.100421 -0.00860361)
(1.18312 -0.205319 -0.0100826)
(0.321189 -0.0719184 -0.00459951)
(1.16265 -0.170486 -0.0073649)
(1.15936 -0.170276 -0.0119165)
(1.18814 -0.205815 -0.0109214)
(1.02654 -0.169482 0.0194012)
(1.03508 -0.170828 -0.0334162)
(1.18356 -0.208976 -0.00569548)
(0.322318 -0.0725665 -0.00253475)
(1.16231 -0.174173 -0.00813718)
(1.18866 -0.210949 -0.00517988)
(1.15936 -0.172971 -0.00305436)
(1.01985 -0.166018 -0.0350211)
(1.03376 -0.167172 0.0115237)
(1.17972 -0.113161 -0.0142477)
(0.615493 -0.145878 -0.00996548)
(0.910086 -0.123713 -0.00654176)
(1.19495 -0.138097 -0.00192974)
(0.909919 -0.123892 -0.00967856)
(1.19268 -0.13796 -0.01595)
(1.18107 -0.11294 -0.00283109)
(1.17865 -0.113996 0.000479376)
(0.615736 -0.146258 -0.00160506)
(0.909291 -0.1236 -0.0092809)
(1.19354 -0.140041 -0.0130932)
(1.17955 -0.114305 -0.0124204)
(0.908544 -0.123541 -0.0045665)
(1.19187 -0.139378 0.00177465)
(1.17306 0.214466 -0.0137061)
(1.14942 0.168895 -0.0146209)
(0.304858 0.0727796 -0.00558219)
(1.17763 0.216115 -0.0111181)
(1.14731 0.167738 -0.00988649)
(1.02135 0.184187 0.00327694)
(1.02768 0.184447 -0.0355278)
(1.16969 0.0996125 -0.00591376)
(1.17903 0.124337 -0.0201812)
(0.9008 0.0985564 -0.0143859)
(0.583657 0.135798 -0.0062223)
(1.16952 0.099915 -0.0181457)
(1.1782 0.123529 -0.00374239)
(0.901296 0.0987608 -0.0104022)
(1.18222 -0.20273 -0.0105074)
(1.16135 -0.169646 -0.0116126)
(0.325109 -0.0724926 -0.00410419)
(1.18685 -0.204851 -0.00923425)
(1.15909 -0.168361 -0.00752193)
(1.02169 -0.164808 0.00804459)
(1.02832 -0.16587 -0.0353824)
(1.17978 -0.112084 -0.00332986)
(0.909361 -0.123358 -0.0113127)
(1.1937 -0.137483 -0.015925)
(0.621322 -0.147318 -0.0047042)
(1.17981 -0.112501 -0.0145892)
(0.909435 -0.123469 -0.00772105)
(1.19282 -0.136752 -0.00238296)
(1.10322 0.218919 -0.113525)
(1.1885 0.232373 -0.121662)
(1.11389 0.214485 -0.118151)
(1.14431 0.233244 -0.123554)
(1.10071 0.163623 -0.0923002)
(0.266488 0.0619552 -0.0390414)
(1.12994 0.141996 -0.0379588)
(1.16157 0.215461 -0.075705)
(1.07499 0.111445 -0.079927)
(1.0886 0.199005 -0.102264)
(1.21871 0.276993 -0.196165)
(1.13075 0.209038 -0.119189)
(1.15195 0.257037 -0.116517)
(0.843089 0.0675158 -0.175672)
(1.10423 0.186557 -0.273954)
(0.630032 0.0178746 -0.146147)
(0.803412 0.069363 -0.209995)
(0.903732 0.0615282 -0.19276)
(1.17746 0.255497 -0.243265)
(1.16787 0.199822 -0.266769)
(0.919185 0.0959198 -0.22784)
(1.07201 0.185334 -0.141666)
(1.14816 0.212124 -0.122527)
(1.07387 0.198141 -0.126328)
(1.13525 0.195161 -0.128959)
(1.03887 0.176164 -0.155469)
(1.13961 0.215502 -0.245976)
(1.09914 0.179002 -0.1471)
(1.18745 0.255024 -0.215498)
(1.0933 0.194136 -0.129734)
(1.20138 0.226172 -0.247298)
(1.0754 0.309419 -0.237919)
(0.25172 0.0760122 -0.0829598)
(1.12559 0.329599 -0.0562729)
(1.14187 0.326827 -0.105156)
(1.08504 0.368691 -0.232755)
(0.842111 0.0864064 -0.198439)
(0.876775 0.0856582 -0.223515)
(1.05713 0.225765 -0.245628)
(1.21387 0.287739 -0.227216)
(1.14641 0.2947 -0.17378)
(0.98949 0.131786 -0.234382)
(1.17724 0.216246 -0.0129675)
(0.303253 0.0715328 -0.00459451)
(1.15098 0.173089 -0.00981464)
(1.18096 0.217579 -0.00762206)
(1.15009 0.171765 -0.00931562)
(1.1617 0.231074 -0.0130012)
(1.1781 0.220408 -0.00854902)
(1.16341 0.21749 -0.0247629)
(1.16765 0.232654 -0.0213665)
(1.16104 0.230737 -0.0155163)
(1.1749 0.220031 -0.0194978)
(1.16763 0.232451 -0.00607225)
(1.16749 0.218396 -0.00341496)
(1.12091 0.192889 -0.00888152)
(1.14411 0.207132 -0.0464085)
(1.13818 0.204709 -0.0134315)
(1.12715 0.194046 -0.0546229)
(1.04495 0.186138 -0.0452248)
(1.05898 0.187947 0.0086879)
(1.11328 0.192271 -0.0424563)
(1.14602 0.206119 0.000686757)
(1.13151 0.204633 -0.0345046)
(1.12814 0.194407 0.00623345)
(1.17811 0.222236 -0.0208765)
(0.295853 0.0698378 -0.00818568)
(1.15163 0.180385 -0.00822232)
(1.18466 0.223373 -0.0130353)
(1.1461 0.180093 -0.0230067)
(1.16589 0.23377 -0.0272853)
(1.18723 0.225359 -0.042639)
(1.18074 0.222662 -0.0158472)
(1.17498 0.2372 -0.0292647)
(1.16716 0.235184 -0.0182757)
(1.18889 0.224297 -0.00219347)
(1.17329 0.236599 -0.0169323)
(1.1749 0.222681 -0.0305525)
(1.09585 0.188311 -0.0361072)
(1.13432 0.202264 -0.00510787)
(1.1187 0.199649 -0.0286647)
(1.11248 0.191057 0.000287772)
(1.03302 0.18366 0.00777825)
(1.04028 0.183758 -0.0350055)
(1.10132 0.189634 0.00532008)
(1.1307 0.20185 -0.0241873)
(1.12348 0.20063 -0.000289493)
(1.10947 0.189783 -0.0320472)
(1.17417 0.215359 -0.0102875)
(0.30397 0.0723268 -0.00404065)
(1.15006 0.170309 -0.0109532)
(1.17871 0.21701 -0.00758239)
(1.14796 0.169024 -0.00662514)
(1.15626 0.22991 -0.0095895)
(1.16932 0.216578 -0.00378744)
(1.15612 0.21442 -0.0217707)
(1.16179 0.231083 -0.0173843)
(1.15594 0.229838 -0.0130311)
(1.16796 0.217107 -0.0194235)
(1.16281 0.231987 -0.00527536)
(1.15997 0.215273 -7.88192e-05)
(1.09766 0.190809 0.00942453)
(1.12784 0.200671 -0.0255244)
(1.11997 0.199188 0.00392677)
(1.10602 0.191463 -0.0326445)
(1.0246 0.184162 -0.0346771)
(1.0384 0.186035 0.0118766)
(1.09328 0.189994 -0.0318828)
(1.12958 0.200358 0.00371522)
(1.11624 0.198555 -0.0252525)
(1.10763 0.19208 0.0091416)
(1.17521 0.217169 -0.0108163)
(0.300107 0.0713156 -0.00466579)
(1.1511 0.171741 -0.0070742)
(1.18014 0.218056 -0.0113897)
(1.14768 0.171528 -0.0137468)