/*--------------------------------*- C++ -*----------------------------------*\
| =========                 |                                                 |
| \\      /  F ield         | OpenFOAM: The Open Source CFD Toolbox           |
|  \\    /   O peration     | Version:  2012                                  |
|   \\  /    A nd           | Website:  www.openfoam.com                      |
|    \\/     M anipulation  |                                                 |
\*---------------------------------------------------------------------------*/
FoamFile
{
    version     2.0;
    format      ascii;
    class       volVectorField;
    location    "0.106/fluid";
    object      U_0;
}
// * * * * * * * * * * * * * * * * * * * * * * * * * * * * * * * * * * * * * //

dimensions      [0 1 -1 0 0 0 0];


internalField   nonuniform List<vector> 
16422
(
(1.25397 -0.0454806 -0.00501681)
(1.20916 -0.0112167 0.0062584)
(1.20253 -0.0123862 0.00197873)
(1.19874 -0.00787822 0.000234635)
(1.19822 -0.00543553 -0.00020346)
(1.1984 -0.0036095 -0.000183787)
(1.19865 -0.00235094 -0.000118748)
(1.19886 -0.00151334 -7.70692e-05)
(1.19904 -0.000968527 -5.42863e-05)
(1.19919 -0.00061469 -4.17324e-05)
(1.19932 -0.000387808 -3.1358e-05)
(1.19942 -0.000244273 -2.73943e-05)
(1.19951 -0.000152595 -2.65686e-05)
(1.1996 -9.32839e-05 -2.51529e-05)
(1.19968 -5.09482e-05 -2.68772e-05)
(1.21874 -0.0064502 3.01936e-05)
(1.2122 -0.01308 0.000880836)
(1.2056 -0.00872177 0.000234267)
(1.20167 -0.00561993 -0.000135781)
(1.20026 -0.00380037 -0.000184716)
(1.19976 -0.00256872 -0.000142807)
(1.19951 -0.00170764 -9.72293e-05)
(1.1994 -0.0011195 -6.99875e-05)
(1.19938 -0.000726202 -5.21211e-05)
(1.19939 -0.000464515 -4.04997e-05)
(1.19943 -0.000296242 -3.33102e-05)
(1.19948 -0.000187267 -3.07635e-05)
(1.19955 -0.000120062 -2.86513e-05)
(1.19962 -7.23323e-05 -2.83103e-05)
(1.1997 -3.83431e-05 -3.10661e-05)
(1.21243 -0.00186761 4.28014e-05)
(1.21013 -0.00442243 0.00016238)
(1.20618 -0.00366836 7.92628e-06)
(1.20319 -0.00257573 -9.77437e-05)
(1.20155 -0.00181643 -0.000117957)
(1.20062 -0.00124969 -0.000102149)
(1.20007 -0.000841788 -7.85889e-05)
(1.19975 -0.000557355 -6.08306e-05)
(1.19959 -0.000361024 -4.98515e-05)
(1.19952 -0.000228855 -4.10652e-05)
(1.19952 -0.000144297 -3.38153e-05)
(1.19954 -8.77932e-05 -3.19139e-05)
(1.19958 -5.04213e-05 -2.86026e-05)
(1.19963 -2.26401e-05 -3.02584e-05)
(1.19971 -7.69495e-06 -3.33624e-05)
(1.2532 -0.028452 -0.00158357)
(1.2095 -0.031503 -0.00303663)
(1.20574 -0.00840889 -0.00272001)
(1.20169 -0.0069288 -0.00184205)
(1.20012 -0.0051185 -0.00122595)
(1.19974 -0.00346229 -0.000841908)
(1.19969 -0.0022677 -0.000585769)
(1.19972 -0.00146751 -0.000401304)
(1.19978 -0.00094491 -0.000272345)
(1.19984 -0.000603092 -0.000183102)
(1.19989 -0.000383009 -0.000122811)
(1.19993 -0.000241883 -8.22987e-05)
(1.19996 -0.000151546 -5.31699e-05)
(1.19998 -9.23882e-05 -3.0326e-05)
(1.19999 -5.11605e-05 -1.62055e-05)
(1.2193 -0.00637178 4.14476e-05)
(1.21369 -0.0137431 -0.000914258)
(1.20765 -0.00813796 -0.00116918)
(1.20361 -0.00524105 -0.00105296)
(1.20183 -0.00360794 -0.000826606)
(1.20102 -0.00245682 -0.00062454)
(1.20056 -0.00164408 -0.000461099)
(1.20031 -0.00108541 -0.000330004)
(1.20017 -0.000707421 -0.000232215)
(1.20009 -0.00045546 -0.000161908)
(1.20006 -0.00029122 -0.000111973)
(1.20004 -0.000185614 -7.54219e-05)
(1.20003 -0.000118107 -4.83268e-05)
(1.20003 -7.0867e-05 -2.73598e-05)
(1.20003 -3.85083e-05 -1.33063e-05)
(1.21297 -0.0019168 0.00010713)
(1.21105 -0.00439718 -0.000438383)
(1.2075 -0.00353257 -0.000684126)
(1.2046 -0.00244694 -0.00070262)
(1.20287 -0.00172662 -0.000615969)
(1.20179 -0.00119425 -0.00049861)
(1.2011 -0.000810022 -0.000385055)
(1.20067 -0.000539321 -0.000286132)
(1.20041 -0.000352139 -0.000207073)
(1.20026 -0.000225864 -0.000148076)
(1.20017 -0.000141892 -0.000103994)
(1.20011 -8.53706e-05 -7.12637e-05)
(1.20008 -4.86164e-05 -4.57249e-05)
(1.20006 -2.27074e-05 -2.54841e-05)
(1.20006 -7.67317e-06 -1.17159e-05)
(1.24995 -0.0250409 0.000423726)
(1.20905 -0.0333857 -0.00399566)
(1.2048 -0.00784101 -0.00435911)
(1.2019 -0.0062228 -0.00306483)
(1.20065 -0.00457856 -0.00206395)
(1.20022 -0.00312185 -0.00143907)
(1.20003 -0.00207291 -0.00100216)
(1.19996 -0.0013566 -0.000691225)
(1.19995 -0.000883486 -0.000471332)
(1.19996 -0.000569732 -0.00031801)
(1.19998 -0.000366428 -0.000212641)
(1.19999 -0.000232943 -0.00014431)
(1.2 -0.000146703 -9.46437e-05)
(1.2 -8.99307e-05 -5.94211e-05)
(1.20001 -4.85903e-05 -3.48473e-05)
(1.21781 -0.0060664 0.00043011)
(1.2128 -0.0131935 -0.00137032)
(1.20728 -0.00747412 -0.00200999)
(1.20377 -0.00466618 -0.00181419)
(1.20216 -0.00320787 -0.00143188)
(1.20133 -0.00221515 -0.00108069)
(1.20081 -0.00150194 -0.000794335)
(1.2005 -0.00100458 -0.00057249)
(1.20031 -0.000661466 -0.000403812)
(1.2002 -0.000430992 -0.000280369)
(1.20013 -0.000278477 -0.000193403)
(1.20008 -0.000178847 -0.000133749)
(1.20007 -0.000113564 -8.86098e-05)
(1.20005 -6.85237e-05 -5.62512e-05)
(1.20005 -3.61568e-05 -3.22999e-05)
(1.21218 -0.00184797 0.000200364)
(1.21045 -0.00403652 -0.000715323)
(1.20728 -0.00316862 -0.00118131)
(1.20467 -0.00216424 -0.00122608)
(1.20305 -0.00153921 -0.00106845)
(1.20199 -0.00107874 -0.000861669)
(1.20129 -0.000740983 -0.000664744)
(1.20083 -0.000499445 -0.000497118)
(1.20053 -0.000329353 -0.000360466)
(1.20035 -0.000213147 -0.000256101)
(1.20023 -0.000133488 -0.000179782)
(1.20016 -8.09651e-05 -0.000127755)
(1.20011 -4.70899e-05 -8.65979e-05)
(1.20009 -2.17929e-05 -5.53778e-05)
(1.20007 -6.28852e-06 -3.04111e-05)
(0.957198 -0.161108 -0.0376088)
(1.19712 0.00288139 0.00920218)
(1.31725 -0.0774599 -0.00852275)
(1.19261 -0.0164095 0.00638426)
(1.31802 -0.0762429 0.00841789)
(1.18214 -0.00673007 -0.0039239)
(1.31138 -0.0752886 -0.0106042)
(1.18822 -0.011126 -0.00175639)
(1.31004 -0.0753087 0.00679688)
(1.18478 -0.0084732 -0.00576007)
(0.297181 0.0704035 -0.0335884)
(0.124797 0.0615239 -0.00893013)
(1.19674 -0.00160132 0.0178749)
(1.19089 -0.0154809 0.00416228)
(1.19598 -0.0233664 0.00521963)
(1.19103 -0.022475 -0.00182217)
(1.2063 -0.0186508 0.00362899)
(1.23069 -0.00476194 0.000185441)
(1.21004 -0.00581161 0.00178717)
(1.25547 -0.0278965 -0.00308895)
(1.21134 -0.056184 0.000228886)
(1.23287 -0.00359075 0.000458154)
(1.21279 -0.00770045 0.000317749)
(0.304356 0.072052 -0.00608294)
(0.294905 0.0694801 -0.0116067)
(1.19221 -0.0074567 -0.00441279)
(1.19567 -0.0119187 -0.00459349)
(1.19353 -0.0153875 -0.00156957)
(1.1926 -0.0165057 -0.00256396)
(1.20656 -0.0488405 -0.00281416)
(1.23191 -0.00284414 0.000138971)
(1.2119 -0.0057783 -0.000849555)
(1.25131 -0.0260247 0.000923774)
(1.20876 -0.0520168 -0.000984604)
(1.23047 -0.00317624 -0.000520964)
(1.21172 -0.00638876 -0.00179874)
(0.304242 0.0729244 -0.00448322)
(0.300028 0.0714958 -0.00470853)
(1.19137 -0.0107349 -0.00635232)
(1.19393 -0.0125338 -0.00619066)
(1.20646 -0.0494847 -0.00316882)
(1.2295 -0.00314913 -0.00112467)
(1.21127 -0.00570432 -0.00299562)
(0.56416 0.131808 -0.0490971)
(1.12468 0.0611389 -0.00446962)
(1.15022 -0.00946475 -0.0380664)
(0.396623 0.178649 -0.0258228)
(0.313809 -0.0735691 0.00170231)
(1.07226 -0.084615 -0.10723)
(1.32847 -0.0930076 -0.0117173)
(1.22487 -0.0792295 -0.0228282)
(0.185931 -0.0486622 -0.0301875)
(0.599842 -0.144917 0.00500945)
(1.18405 -0.00938928 0.0244757)
(1.22741 -0.0257437 -0.0322009)
(1.1957 -0.0169763 0.0281631)
(1.19981 -0.0465672 0.017172)
(1.19819 -0.0302888 0.0245998)
(0.347267 -0.0906492 0.00476687)
(0.285495 0.0665917 -0.0217165)
(0.303245 0.0715038 -0.0133448)
(0.54392 0.122766 -0.0422078)
(1.18147 0.00253328 -0.00845491)
(1.13185 0.0682495 -0.0261014)
(0.577559 0.134475 -0.020677)
(0.312034 -0.0728523 -0.00175944)
(1.32762 -0.08043 0.00722924)
(1.23354 -0.0652894 -0.00232274)
(1.22704 -0.0696629 0.000894391)
(0.318603 -0.07399 -0.00149092)
(0.599157 -0.145872 -0.00614844)
(1.17965 -0.00325485 -0.00258441)
(1.18943 -0.0555665 0.00714199)
(1.19884 -0.0310236 0.00368392)
(1.15878 -0.0356986 -5.41663e-05)
(1.17934 -0.035667 -0.00392537)
(0.608619 -0.146404 -0.00155257)
(0.581484 0.135489 -0.00836706)
(0.565443 0.131364 -0.0256841)
(0.320457 -0.0736955 -0.00167936)
(1.22945 -0.0655439 -0.00566898)
(1.31471 -0.0751016 -0.00920205)
(0.317701 -0.0736877 -0.00486145)
(1.2326 -0.0642357 -0.0010983)
(0.612384 -0.146406 -0.00147815)
(1.1645 -0.0399428 -0.00559364)
(1.18732 -0.0336855 -0.00252226)
(1.19084 -0.0136285 0.00117242)
(0.607381 -0.146171 -0.0122517)
(1.18364 -0.0507632 0.00178454)
(1.19669 -0.030947 -0.000337983)
(0.299212 0.0708778 -0.00692188)
(0.303906 0.0723561 -0.00395119)
(0.574193 0.133666 -0.0167599)
(0.582463 0.135613 -0.00441361)
(0.319261 -0.0733906 -0.00431672)
(1.31401 -0.0752525 0.00736222)
(1.23088 -0.0646021 -0.00249722)
(1.22981 -0.0646796 -0.00647859)
(0.321545 -0.073343 -0.00183413)
(0.610679 -0.145937 -0.0109192)
(1.18394 -0.00836254 -0.00494004)
(1.17884 -0.0468033 -0.00184347)
(1.19403 -0.0306517 -0.00258323)
(1.16945 -0.0419173 -0.00664882)
(1.18995 -0.0321838 -0.00362106)
(0.61554 -0.146685 -0.00164186)
(0.58444 0.135958 -0.00523002)
(0.577128 0.134164 -0.0124628)
(0.322646 -0.0731877 -0.00277855)
(1.2294 -0.0646059 -0.00660335)
(1.30656 -0.0759601 -0.0124343)
(0.31979 -0.0729403 -0.0038197)
(1.22906 -0.0650521 -0.00604431)
(0.619076 -0.147394 -0.00357867)
(1.17241 -0.0424293 -0.00708792)
(1.19089 -0.0308693 -0.00503402)
(1.18645 -0.00913532 -0.00504561)
(0.613188 -0.146004 -0.00989894)
(1.17619 -0.0441813 -0.00540611)
(1.19205 -0.0300596 -0.00558932)
(0.299444 0.0718347 -0.00433854)
(0.578034 0.134023 -0.012006)
(0.319096 -0.0723948 -0.00404467)
(1.30421 -0.075809 0.00609328)
(1.22795 -0.064597 -0.00808463)
(0.614381 -0.145999 -0.0106556)
(1.18537 -0.00783985 -0.00813909)
(1.17451 -0.0420726 -0.00919053)
(1.19093 -0.0295744 -0.00850009)
(0.288712 0.0676324 0.0455642)
(0.327456 0.0824627 0.0121388)
(0.297455 0.0702069 -0.00278722)
(0.304315 0.0719407 -0.00238748)
(0.299814 0.0716784 -0.0032649)
(0.303755 0.072557 -0.00291153)
(1.07413 0.0875148 -0.114332)
(0.550044 0.119355 0.0709842)
(1.10633 -0.00757337 0.0113341)
(0.622685 0.166428 0.0407455)
(1.06961 0.0636675 -0.107244)
(1.04757 0.253327 -0.0394664)
(1.40032 -0.172629 -0.00672031)
(1.25749 -0.169789 -0.0131202)
(0.293645 -0.0692742 0.0198681)
(1.26346 -0.157151 0.00592743)
(1.36334 -0.172555 -0.0360103)
(1.72966 -0.170147 -0.0545098)
(1.04385 -0.200425 0.0129639)
(1.84219 -0.133658 -0.0610199)
(0.944489 -0.164835 -0.0283688)
(1.44984 -0.186205 -0.0133532)
(1.57562 -0.15406 -0.0453339)
(1.58929 -0.175685 0.00696423)
(1.41927 -0.17937 -0.0387671)
(1.68155 -0.171987 -0.0507383)
(0.297192 -0.0695496 0.0189594)
(1.26705 -0.120752 -0.0991461)
(1.44942 -0.190451 -0.0235523)
(0.946682 -0.139997 -0.0574555)
(1.18399 -0.0619386 0.0563641)
(1.10357 -0.0870299 -0.0161728)
(1.20122 -0.116663 -0.00462091)
(0.57607 -0.139847 0.0524969)
(1.13336 -0.114766 0.0606788)
(1.19987 -0.0965584 0.0344391)
(1.19287 -0.0508665 -0.00674966)
(1.25444 -0.0799815 0.0494723)
(0.566908 -0.133435 0.0543917)
(1.19452 -0.0784822 -0.040287)
(1.21913 -0.116586 -0.0690097)
(1.05434 -0.0365232 0.0510841)
(1.3118 -0.153378 0.0160479)
(1.21816 -0.100203 -0.0358857)
(0.303757 0.071969 -0.00553961)
(0.287708 0.0673198 -0.00162858)
(1.07872 0.0723357 -0.0651128)
(0.578741 0.138967 -0.00396385)
(1.07192 0.102676 -0.00973376)
(0.5531 0.126864 -0.00576368)
(1.11021 0.068166 -0.0419793)
(1.11312 0.0606301 0.00562545)
(1.37135 -0.165262 -0.0217245)
(1.27245 -0.160914 -0.00435006)
(0.314147 -0.0734146 0.00422624)
(1.37863 -0.166562 0.0105569)
(1.26932 -0.164656 0.000835345)
(1.4188 -0.168716 0.0221294)
(1.55112 -0.141662 -0.0348735)
(1.55338 -0.143667 0.0322368)
(1.41792 -0.16806 -0.0252978)
(1.42076 -0.170784 -0.0254297)
(1.57247 -0.150576 0.0283193)
(1.55907 -0.142839 -0.0366702)
(1.42941 -0.173639 0.0123121)
(1.37141 -0.162224 0.0207831)
(0.316679 -0.0736747 0.000914881)
(1.27682 -0.160109 -0.00227327)
(1.27678 -0.159132 0.00170203)
(1.37086 -0.162053 -0.0229056)
(1.17329 -0.0640429 0.0121909)
(1.1006 -0.0951599 -0.005994)
(1.20099 -0.114589 0.000772922)
(0.598979 -0.143859 0.0135522)
(1.17253 -0.0675575 -0.00421293)
(1.08957 -0.0855844 0.0144077)
(1.2001 -0.119576 0.00418315)
(1.19277 -0.0631909 0.017568)
(0.606259 -0.146297 0.00350351)
(1.11958 -0.0939314 -0.0106662)
(1.21288 -0.11269 -0.00414681)
(1.12197 -0.0969426 0.0191076)
(1.21234 -0.110788 0.00769464)
(1.19401 -0.0623049 -0.0105038)
(0.570828 0.132487 -0.00781439)
(1.11187 0.0699601 -0.0208738)
(1.11165 0.0693225 0.000536542)
(0.580719 0.136756 -0.000162679)
(1.09279 0.0790264 -0.0379745)
(1.09241 0.0819148 -0.00202996)
(1.36992 -0.160099 0.0196509)
(0.318962 -0.0736133 -0.00169339)
(1.27666 -0.157557 -0.00223016)
(1.27663 -0.157876 -0.000958159)
(1.36935 -0.159654 -0.0224504)
(1.41717 -0.166752 -0.0230359)
(1.55274 -0.140494 0.0323783)
(1.41888 -0.167599 0.0205102)
(1.54968 -0.139106 -0.0328971)
(1.37009 -0.161161 -0.020572)
(0.318205 -0.0736014 0.00100393)
(1.27489 -0.159716 -0.00325046)
(1.37143 -0.161768 0.0179079)
(1.27448 -0.159527 0.000218041)
(1.41643 -0.165873 0.0220091)
(1.54626 -0.138132 -0.0340312)
(1.54765 -0.138914 0.0330695)
(1.41564 -0.165299 -0.0245997)
(1.18989 -0.0626913 0.0072049)
(0.60983 -0.146131 -0.0037507)
(1.1176 -0.0910753 -0.00764894)
(1.21144 -0.111058 -0.00453477)
(1.11765 -0.091675 0.0061534)
(1.21127 -0.110854 0.00188636)
(1.19028 -0.06251 -0.00907454)
(1.17909 -0.063475 0.00317245)
(0.607395 -0.145346 0.00563624)
(1.10447 -0.0905954 -0.0117451)
(1.20667 -0.114051 -0.00300267)
(1.17986 -0.0639797 -0.007524)
(1.10298 -0.088743 0.00639286)
(1.20614 -0.114003 -5.68694e-05)
(0.303964 0.0721886 -0.00194657)
(0.299875 0.0712271 -0.00284775)
(1.10083 0.0768128 -0.0218196)
(0.581798 0.136167 -0.000157988)
(1.1006 0.0776604 -0.003515)
(0.576165 0.133933 -0.00828537)
(1.1098 0.0724436 -0.0123249)
(1.1095 0.0723168 -0.00337827)
(1.36801 -0.159253 -0.0223816)
(1.27453 -0.157533 -0.00389418)
(0.320261 -0.073352 -0.000483551)
(1.36881 -0.159678 0.017651)
(1.27423 -0.1571 -0.00173299)
(1.41374 -0.164264 0.0206742)
(1.54206 -0.136817 -0.0347795)
(1.54345 -0.137271 0.0322695)
(1.41292 -0.16383 -0.0257524)
(1.41427 -0.164708 -0.0245991)
(1.54628 -0.138021 0.0319807)
(1.54461 -0.137402 -0.033967)
(1.41527 -0.165236 0.0203779)
(1.36777 -0.158783 0.0180159)
(0.319765 -0.0731833 -0.00265994)
(1.27453 -0.155934 -0.0031378)
(1.2747 -0.156286 -0.0031277)
(1.36714 -0.15846 -0.0236992)
(1.18152 -0.0623814 -0.0023356)
(1.10834 -0.0887022 -0.00974314)
(1.20739 -0.111862 -0.00363209)
(0.612191 -0.14596 0.00198692)
(1.18233 -0.0627385 -0.0060209)
(1.10751 -0.0879192 0.000503613)
(1.20681 -0.111504 -0.00294241)
(1.18665 -0.0619749 0.00152624)
(0.612334 -0.146008 -0.00655895)
(1.11429 -0.08861 -0.00616039)
(1.20885 -0.109977 -0.00521557)
(1.1143 -0.0888663 -0.000430142)
(1.20895 -0.109999 -0.00135484)
(1.1867 -0.0617983 -0.0081938)
(0.577646 0.134086 -0.00956352)
(1.10839 0.0737189 -0.0106231)
(1.10813 0.0737039 -0.00760174)
(0.582988 0.135909 -0.00220834)
(1.10471 0.0754955 -0.0141853)
(1.10456 0.0758343 -0.00628802)
(1.365 -0.157804 0.0166981)
(0.319541 -0.0726769 -0.00333541)
(1.27129 -0.154456 -0.00507639)
(1.27191 -0.15475 -0.00536619)
(1.36361 -0.15748 -0.0258925)
(1.41109 -0.163241 -0.026501)
(1.54129 -0.136844 0.0319505)
(1.41226 -0.16366 0.0199013)
(1.5395 -0.136392 -0.0350898)
(1.36556 -0.15808 -0.0245031)
(0.321701 -0.0731583 -0.00171719)
(1.27303 -0.155685 -0.00485906)
(1.36655 -0.158343 0.0170215)
(1.27256 -0.155354 -0.00370282)
(1.41031 -0.162988 0.0196808)
(1.536 -0.13586 -0.0354814)
(1.53831 -0.136487 0.0322259)
(1.40865 -0.162444 -0.0276889)
(1.18434 -0.061019 -0.00300771)
(0.6139 -0.146027 -0.00868159)
(1.11205 -0.0866149 -0.00728607)
(1.20613 -0.108876 -0.00717826)
(1.11207 -0.0869136 -0.00551602)
(1.20649 -0.108923 -0.00436108)
(1.18422 -0.0608354 -0.00932604)
(1.18255 -0.0613196 -0.00640269)
(0.616405 -0.146749 -0.00111339)
(1.11012 -0.0872112 -0.00829207)
(1.20675 -0.11002 -0.00435068)
(1.18313 -0.0615696 -0.00508613)
(1.1096 -0.0867523 -0.00384515)
(1.20622 -0.109787 -0.00546986)
(0.305578 0.0735553 -0.00588231)
(0.299036 0.07201 -0.00467975)
(1.107 0.0747854 -0.0134957)
(0.587217 0.136704 -0.0075619)
(1.10714 0.0748931 -0.0114485)
(0.578563 0.133916 -0.012921)
(1.10894 0.0739398 -0.01481)
(1.36048 -0.156655 -0.0281867)
(1.26997 -0.153792 -0.00722354)
(0.323777 -0.0732782 -0.00410637)
(1.36274 -0.157251 0.0156416)
(1.26884 -0.153469 -0.00714386)
(1.40326 -0.161158 0.0167566)
(1.52849 -0.135497 0.0320645)
(1.40482 -0.161325 -0.0296974)
(1.53455 -0.13617 0.0324157)
(1.53061 -0.134955 -0.0360607)
(1.40759 -0.162265 0.0189088)
(1.35924 -0.156407 0.0130976)
(0.318366 -0.0720365 -0.004521)
(1.26778 -0.152404 -0.0100026)
(1.18278 -0.0600488 -0.0108441)
(1.11093 -0.0855586 -0.0100979)
(1.20509 -0.108235 -0.00680782)
(0.62159 -0.147947 -0.00591402)
(1.18315 -0.0602827 -0.0067756)
(1.11078 -0.0849931 -0.00915935)
(1.20432 -0.10813 -0.00927816)
(1.18351 -0.0594884 -0.00855848)
(0.614644 -0.145862 -0.0118258)
(1.11198 -0.0843001 -0.0123081)
(1.20413 -0.107109 -0.00930383)
(1.1141 0.213714 -0.111426)
(1.12722 0.190539 -0.103242)
(0.269848 0.0656049 -0.0296583)
(1.09551 0.185236 -0.107679)
(1.15596 0.225817 -0.113655)
(0.555452 0.0128843 -0.130485)
(1.01047 0.181259 -0.144535)
(1.07046 0.189663 -0.133654)
(0.966263 0.0726321 -0.138247)
(0.223907 0.0454426 -0.116695)
(0.738928 0.360304 -0.262525)
(1.02549 0.0171209 -0.0509717)
(0.373888 0.119974 -0.0392849)
(1.17776 0.217465 -0.0149274)
(0.298155 0.0704859 -0.00568888)
(1.15357 0.173695 -0.0148155)
(1.15007 0.172698 -0.0175414)
(1.18281 0.218914 -0.0184956)
(1.05364 0.187433 -0.00679959)
(1.05885 0.188259 -0.0568787)
(1.17858 0.221167 -0.0239203)
(0.303451 0.0717912 -0.00899001)
(1.15045 0.179373 -0.034044)
(1.18475 0.223135 -0.0314742)
(1.14724 0.178965 -0.0207368)
(1.02813 0.183274 -0.0386349)
(1.04419 0.185821 0.00303636)
(1.17494 0.216342 -0.0117106)
(0.299219 0.0717052 -0.00396372)
(1.1515 0.169641 -0.00988009)
(1.14818 0.169287 -0.0145948)
(1.17974 0.217323 -0.0143135)
(1.03026 0.186211 0.0120604)
(1.03763 0.186629 -0.0355746)
(1.17564 0.217982 -0.0102575)
(0.303111 0.0723816 -0.0035458)
(1.15096 0.172937 -0.0132919)
(1.1806 0.21944 -0.00944717)
(1.14828 0.172024 -0.00691375)
(1.01975 0.184638 -0.0346898)
(1.03456 0.186796 0.00583208)
(1.13636 0.129314 -0.116387)
(1.15905 0.152441 -0.100653)
(0.860363 0.0992142 -0.0589499)
(0.531738 0.125879 -0.0515372)
(1.13835 0.152405 -0.114356)
(0.862667 0.108642 -0.0855643)
(1.14624 0.124855 -0.100508)
(1.10058 0.0316706 -0.0601418)
(0.463539 0.0896291 -0.168366)
(0.936251 0.294834 -0.218146)
(0.876351 0.208467 -0.102831)
(1.09977 0.000809667 -0.0391805)
(0.810814 0.0683839 -0.12118)
(1.05312 0.152824 -0.182826)
(1.17287 -0.227176 -0.022835)
(1.15082 -0.188878 -0.00311004)
(0.311112 -0.0728639 -0.00469265)
(1.14487 -0.187678 -0.017444)
(1.17813 -0.229245 -0.0126019)
(0.880067 -0.118153 0.0920852)
(0.55411 -0.150055 0.0344295)
(1.02912 -0.188623 -0.0594619)
(1.04297 -0.185831 -0.011168)
(1.12447 -0.154129 -0.0228126)
(0.262318 -0.0536643 -0.0384983)
(1.00268 -0.212574 0.00885431)
(1.15071 -0.122458 -0.0277052)
(1.06067 -0.230647 -0.0101784)
(1.16676 -0.118339 -0.0148943)
(0.902489 -0.127192 0.00554182)
(1.18052 -0.149 0.00554354)
(0.598715 -0.146262 -0.012259)
(0.898035 -0.126223 -0.0132497)
(1.17697 -0.149036 -0.0167076)
(1.16738 -0.120546 0.00799033)
(1.30729 -0.138125 -0.0433247)
(0.535405 -0.114578 -0.059089)
(0.959205 -0.0510332 -0.0164045)
(0.989161 -0.197255 0.00996054)
(0.980184 -0.138321 -0.0241498)
(1.25703 -0.0992029 -0.0268203)
(1.03494 -0.127266 -0.0202912)
(1.18148 0.223919 -0.0574395)
(1.15535 0.188149 -0.0852703)
(0.300222 0.0706633 -0.0226784)
(1.20162 0.236674 -0.0897909)
(1.14297 0.183134 -0.0531099)
(1.02399 0.180251 -0.05225)
(1.04771 0.184287 -0.0253845)
(1.09181 0.19404 -0.0645844)
(1.11255 0.203969 -0.123549)
(1.1727 0.215114 -0.0308157)
(0.291219 0.068444 -0.00989546)
(1.1506 0.174586 -0.0326701)
(1.17979 0.217843 -0.037034)
(1.14506 0.172413 -0.032117)
(1.15735 0.116311 -0.0518716)
(1.17868 0.137929 -0.0864586)
(0.862533 0.0923603 -0.0604785)
(0.57035 0.134471 -0.0371732)
(1.15949 0.105263 -0.0791387)
(1.17103 0.141336 -0.0482456)
(0.869098 0.103256 -0.0540258)
(1.17109 0.099348 -0.0337449)
(0.560036 0.128919 -0.0213084)
(1.18278 0.129446 -0.0295266)
(0.887601 0.0972426 -0.0323544)
(1.17931 0.127372 -0.0365364)
(0.886142 0.0962824 -0.0285564)
(1.17311 0.100916 -0.0349954)
(1.17564 -0.222597 -0.00808844)
(1.14801 -0.180821 -0.00615657)
(0.311805 -0.0730984 -0.000410589)
(1.17487 -0.221263 -0.00585442)
(1.14994 -0.182456 -0.00254478)
(1.02949 -0.179464 -0.035594)
(1.04333 -0.180652 0.0212838)
(1.02546 -0.180849 0.00408066)
(1.02851 -0.181814 -0.0453822)
(1.18398 -0.220474 -0.00441255)
(0.31822 -0.073991 -0.00330869)
(1.16272 -0.18174 -0.00231258)
(1.15946 -0.180868 -0.00641003)
(1.18953 -0.221824 -0.0058984)
(1.16747 -0.117767 0.00287939)
(0.902801 -0.125935 -0.00355076)
(1.17831 -0.142516 -0.0100442)
(0.596513 -0.143779 0.00096179)
(1.16692 -0.117253 -0.00774355)
(0.901087 -0.125134 -0.00602245)
(1.17965 -0.144401 0.00413949)
(1.18098 -0.116892 -0.00934288)
(0.609938 -0.147675 -0.00778054)
(0.914188 -0.126207 -0.00735169)
(1.19307 -0.143614 0.00236205)
(0.915732 -0.127378 -0.00513292)
(1.19155 -0.143082 -0.010961)
(1.18086 -0.116998 -0.000781799)
(1.17328 0.0995417 -0.0202828)
(0.572682 0.132732 -0.0136364)
(1.18426 0.127984 -0.0105127)
(0.895847 0.0989434 -0.0166325)
(1.1821 0.127122 -0.0227009)
(0.895215 0.09856 -0.0154066)
(1.1745 0.10022 -0.0146872)
(1.16438 0.113178 -0.0183817)
(0.579254 0.136632 -0.0128571)
(1.17828 0.136661 -0.0408955)
(0.884922 0.101907 -0.0354382)
(1.17615 0.138011 -0.0160051)
(1.16511 0.110524 -0.0419462)
(0.886111 0.104487 -0.0220463)
(1.18616 -0.217015 -0.00458919)
(0.319303 -0.0736005 -0.00337591)
(1.16411 -0.178642 -0.00263966)
(1.16128 -0.178256 -0.00706262)
(1.19109 -0.217754 -0.005849)
(1.03229 -0.178437 0.022832)
(1.04066 -0.17952 -0.0332117)
(1.1842 -0.220086 -0.00301604)
(0.316833 -0.0735108 -0.000743044)
(1.16127 -0.18142 -0.00653616)
(1.18906 -0.221267 -0.00298972)
(1.15812 -0.180783 -6.08057e-05)
(1.03085 -0.17602 -0.0332507)
(1.04293 -0.176884 0.0232068)
(1.1814 -0.115519 -0.0102364)
(0.611678 -0.146737 -0.00815042)
(0.913086 -0.124321 -0.00589271)
(1.19459 -0.141809 0.00214904)
(0.914093 -0.124998 -0.00563965)
(1.19308 -0.141578 -0.0118125)
(1.18169 -0.115396 -0.000345342)
(1.17399 -0.116909 0.00322763)
(0.60528 -0.145195 0.000798392)
(0.90762 -0.12486 -0.0120109)
(1.19024 -0.143854 -0.0126164)
(1.17599 -0.117088 -0.0137756)
(0.90544 -0.123981 -0.00385072)
(1.18783 -0.143529 0.00475411)
(1.17736 0.219755 -0.0129741)
(1.15149 0.175986 -0.0183661)
(0.303505 0.072099 -0.0044156)
(1.18264 0.221112 -0.0146116)
(1.14856 0.175389 -0.00988793)
(1.02595 0.184623 -0.0346991)
(1.0402 0.186776 0.010365)
(1.03929 0.186451 0.00978495)
(1.046 0.186945 -0.0410879)
(1.17699 0.217607 -0.0105162)
(0.299609 0.0713096 -0.00410983)
(1.15272 0.172193 -0.00916214)
(1.18172 0.218711 -0.0130606)
(1.1496 0.171642 -0.0134689)
(1.16785 0.10695 -0.00724156)
(1.18014 0.132248 -0.0252266)
(0.893572 0.101613 -0.0207321)
(0.581213 0.136371 -0.00515435)
(1.16869 0.106025 -0.0255802)
(1.17825 0.132424 -0.00484343)
(0.893827 0.102615 -0.0117917)
(1.17159 0.100236 -0.0163673)
(0.576567 0.133942 -0.0108916)
(1.18254 0.126811 -0.003789)
(0.898918 0.0992688 -0.00997656)
(1.18057 0.126512 -0.0187228)
(0.898566 0.0993235 -0.0115755)
(1.17273 0.100353 -0.00675279)
(1.18499 -0.215837 -0.00361088)
(1.16272 -0.178646 -0.00687255)
(0.319276 -0.0733494 -0.00126867)
(1.1901 -0.217511 -0.00341796)
(1.15953 -0.177634 -0.000988088)
(1.02747 -0.172092 -0.033289)
(1.03987 -0.173076 0.0204302)
(1.03167 -0.174856 0.0234965)
(1.04076 -0.17617 -0.0326782)
(1.18534 -0.212979 -0.00624895)
(0.319592 -0.0730724 -0.00342781)
(1.1635 -0.175723 -0.00381609)
(1.16065 -0.175483 -0.00857263)
(1.19012 -0.21355 -0.00711234)
(1.17678 -0.115357 0.00215336)
(0.908983 -0.123693 -0.0101955)
(1.19248 -0.142204 -0.0125113)
(0.610675 -0.145877 -0.000289854)
(1.17831 -0.115606 -0.0127794)
(0.907567 -0.123328 -0.00381784)
(1.19033 -0.141616 0.00370383)
(1.18018 -0.114422 -0.0115364)
(0.613236 -0.146344 -0.0085939)
(0.910941 -0.123599 -0.00478684)
(1.19449 -0.140413 0.00129871)
(0.911447 -0.124021 -0.00679342)
(1.19277 -0.140292 -0.0131105)
(1.18088 -0.114217 -0.000302734)
(1.16984 0.099698 -0.017116)
(0.577644 0.134074 -0.0109802)
(1.18097 0.124587 -0.00363142)
(0.901221 0.0989205 -0.0094036)
(1.1787 0.124572 -0.0196752)
(0.900696 0.099074 -0.0123502)
(1.17132 0.0995051 -0.00587347)
(1.16903 0.102995 -0.0037546)
(0.582173 0.135999 -0.00360823)
(1.17998 0.128499 -0.0194836)
(0.897935 0.100356 -0.0143384)
(1.17846 0.128077 -0.0013945)
(1.16956 0.102821 -0.0184921)
(0.898055 0.10078 -0.00849258)
(1.18333 -0.208189 -0.00964069)
(0.31897 -0.0725147 -0.00381982)
(1.16236 -0.17226 -0.00710336)
(1.15915 -0.171996 -0.0116096)
(1.18828 -0.208779 -0.0106991)
(1.02809 -0.170984 0.0196829)
(1.0366 -0.172222 -0.0330381)
(1.184 -0.211267 -0.00545921)
(0.320757 -0.0731261 -0.00181743)
(1.16237 -0.175467 -0.00786822)
(1.18908 -0.213134 -0.00480165)
(1.15942 -0.174333 -0.00279059)
(1.02141 -0.167926 -0.0345713)
(1.03533 -0.169219 0.0118431)
(1.17893 -0.113044 -0.0141526)
(0.614142 -0.146202 -0.00984387)
(0.909483 -0.123234 -0.00639191)
(1.19416 -0.13857 -0.00165551)
(0.909371 -0.123441 -0.00951311)
(1.19196 -0.138437 -0.015789)
(1.18023 -0.112816 -0.00260778)
(1.17811 -0.113887 0.00071192)
(0.614972 -0.146611 -0.001553)
(0.909068 -0.1233 -0.00911928)
(1.19314 -0.140402 -0.0129471)
(1.17902 -0.11419 -0.0123294)
(0.908288 -0.12322 -0.00440415)
(1.19145 -0.139752 0.00205023)
(1.17394 0.215648 -0.0137071)
(1.14996 0.169426 -0.0146382)
(0.30405 0.0731154 -0.00508871)
(1.17842 0.217245 -0.0110899)
(1.14791 0.168293 -0.00979247)
(1.02251 0.185623 0.0031395)
(1.02878 0.185863 -0.0355404)
(1.16961 0.0998785 -0.00580154)
(1.17914 0.124759 -0.0201892)
(0.901036 0.0991964 -0.0142768)
(0.585085 0.136378 -0.00631563)
(1.16942 0.100154 -0.0181483)
(1.17836 0.123982 -0.00362398)
(0.901535 0.099443 -0.010324)
(1.18231 -0.205945 -0.0103118)
(1.16099 -0.171503 -0.0113123)
(0.322337 -0.0731115 -0.00334802)
(1.18692 -0.207948 -0.00878527)
(1.15871 -0.170295 -0.00728585)
(1.02327 -0.167043 0.00836353)
(1.02988 -0.167977 -0.0349223)
(1.17886 -0.111964 -0.00312776)
(0.908692 -0.122852 -0.0111657)
(1.19284 -0.13799 -0.0157801)
(0.619497 -0.147617 -0.00467435)
(1.1789 -0.112376 -0.0145145)
(0.908726 -0.122938 -0.00759307)
(1.19193 -0.137272 -0.00213148)
(1.10404 0.219096 -0.113329)
(1.18912 0.232524 -0.121539)
(1.11462 0.214603 -0.117867)
(1.14496 0.233426 -0.123416)
(1.10163 0.163673 -0.0919572)
(0.267056 0.0620857 -0.0388647)
(1.13075 0.141739 -0.0374821)
(1.16239 0.215457 -0.0751412)
(1.07591 0.111296 -0.0796454)
(1.08941 0.199118 -0.101866)
(1.21931 0.277309 -0.195726)
(1.13147 0.209145 -0.118832)
(1.15269 0.257199 -0.115963)
(0.844631 0.0677843 -0.176098)
(1.10529 0.186977 -0.274061)
(0.632711 0.0185756 -0.146428)
(0.806211 0.0701099 -0.210072)
(0.905392 0.0618151 -0.193101)
(1.17825 0.255867 -0.242906)
(1.16886 0.200281 -0.266758)
(0.920829 0.0962229 -0.227939)
(1.07282 0.185552 -0.14139)
(1.14882 0.212289 -0.122373)
(1.07463 0.198274 -0.126031)
(1.13605 0.195405 -0.128757)
(1.0397 0.176405 -0.155215)
(1.14039 0.215892 -0.245911)
(1.09995 0.179242 -0.146823)
(1.18813 0.255388 -0.215119)
(1.09405 0.194271 -0.129381)
(1.20211 0.226606 -0.247156)
(1.07592 0.309693 -0.237762)
(0.252253 0.0761621 -0.0826889)
(1.12559 0.329545 -0.0557351)
(1.14203 0.326918 -0.104536)
(1.08516 0.36883 -0.232621)
(0.844812 0.0872992 -0.198569)
(0.879557 0.0864014 -0.223607)
(1.05807 0.226097 -0.245439)
(1.21453 0.28805 -0.226771)
(1.14685 0.294858 -0.173195)
(0.991094 0.132105 -0.234426)
(1.17784 0.21676 -0.0128063)
(0.302991 0.0716459 -0.00411241)
(1.15137 0.17322 -0.00975937)
(1.18151 0.218054 -0.00751651)
(1.1505 0.171918 -0.00912314)
(1.16232 0.231779 -0.0128634)
(1.17878 0.221036 -0.00840611)
(1.16411 0.21808 -0.0245956)
(1.16823 0.233396 -0.0211939)
(1.16167 0.231401 -0.0153559)
(1.17557 0.220559 -0.019342)
(1.16823 0.233068 -0.00594811)
(1.16821 0.218965 -0.00328351)
(1.12172 0.193427 -0.00870109)
(1.14475 0.207533 -0.0461952)
(1.13887 0.205158 -0.0132438)
(1.12791 0.194543 -0.0544093)
(1.04575 0.186809 -0.0450347)
(1.0598 0.18869 0.00881594)
(1.11407 0.192825 -0.0422667)
(1.14669 0.206628 0.000826081)
(1.13217 0.205092 -0.0343215)
(1.12895 0.195011 0.00636684)
(1.17865 0.222616 -0.0207468)
(0.295777 0.0699379 -0.00773243)
(1.152 0.180461 -0.00803937)
(1.18518 0.223778 -0.0128826)
(1.14649 0.180164 -0.0229213)
(1.1665 0.234255 -0.0270936)
(1.18781 0.22574 -0.042422)
(1.18139 0.223092 -0.0156746)
(1.17553 0.237628 -0.0290688)
(1.16774 0.235697 -0.0181282)
(1.1895 0.224787 -0.00207168)
(1.17385 0.237155 -0.0167818)
(1.17552 0.223122 -0.0303687)
(1.09674 0.189006 -0.0359459)
(1.13506 0.202906 -0.00495254)
(1.11945 0.200253 -0.0285033)
(1.11337 0.191797 0.000414977)
(1.03393 0.184491 0.00789995)
(1.04116 0.184535 -0.034839)
(1.10222 0.190308 0.00545284)
(1.13143 0.202395 -0.0240323)
(1.12424 0.201214 -0.000142829)
(1.11034 0.190424 -0.0318825)
(1.17494 0.216397 -0.0102526)
(0.303196 0.0726013 -0.00353412)
(1.15051 0.17076 -0.0109528)
(1.17939 0.218001 -0.00753902)
(1.14847 0.169498 -0.0065044)
(1.15699 0.231185 -0.00959519)
(1.17019 0.217534 -0.00382667)
(1.15698 0.215359 -0.0217559)
(1.16251 0.232388 -0.0173642)
(1.15666 0.231084 -0.0129988)
(1.16875 0.218017 -0.0193945)
(1.16347 0.233195 -0.00526442)
(1.16083 0.216205 -0.000107475)
(1.09866 0.191749 0.0093999)
(1.12861 0.201507 -0.0254571)
(1.1208 0.200047 0.0039519)
(1.10697 0.19239 -0.0325862)
(1.0256 0.185437 -0.0346448)
(1.03943 0.18736 0.0117797)
(1.09429 0.190941 -0.0318604)
(1.13042 0.201245 0.00371349)
(1.11706 0.199423 -0.0252177)
(1.10866 0.193054 0.00908107)
(1.17588 0.218097 -0.0107565)
(0.299389 0.0715413 -0.00413729)
(1.15153 0.172158 -0.00693604)
(1.18081 0.219011 -0.0113348)