/*--------------------------------*- C++ -*----------------------------------*\
| =========                 |                                                 |
| \\      /  F ield         | OpenFOAM: The Open Source CFD Toolbox           |
|  \\    /   O peration     | Version:  2012                                  |
|   \\  /    A nd           | Website:  www.openfoam.com                      |
|    \\/     M anipulation  |                                                 |
\*---------------------------------------------------------------------------*/
FoamFile
{
    version     2.0;
    format      ascii;
    class       surfaceVectorField;
    location    "0.106/fluid";
    object      Uf_0;
}
// * * * * * * * * * * * * * * * * * * * * * * * * * * * * * * * * * * * * * //

dimensions      [0 1 -1 0 0 0 0];


internalField   nonuniform List<vector> 
46515
(
(0.877461 -0.119162 -0.0210237)
(1.23076 -0.0501915 -0.00574639)
(1.25818 -0.0378003 -0.00647119)
(1.25447 -0.039568 -0.00279258)
(0.893598 -0.102901 -0.0371654)
(1.54 -0.0497447 -0.0144376)
(1.51667 -0.0633481 -0.0199354)
(1.20295 -0.0058159 0.0120709)
(1.20919 -0.0149239 0.0049449)
(1.2121 -0.0255947 0.00328872)
(1.21034 -0.0108841 0.0060802)
(1.20312 -0.0103507 0.00615919)
(1.19752 -0.0138292 0.00243932)
(1.20391 -0.0125989 0.00245808)
(1.20444 -0.0136002 -0.000322902)
(1.20189 -0.0117122 0.00165419)
(1.19995 -0.0113409 0.00153426)
(1.19785 -0.00832889 0.000351915)
(1.19896 -0.00825164 0.000367269)
(1.19861 -0.00755254 0.000138355)
(1.19862 -0.00752255 0.000137075)
(1.20041 -0.00823157 -0.000434782)
(1.19792 -0.00560797 -0.000190466)
(1.19822 -0.00571596 -0.000184152)
(1.19823 -0.00517725 -0.000209757)
(1.19848 -0.00524356 -0.000208981)
(1.1996 -0.00547279 -0.000370424)
(1.1982 -0.00370738 -0.000186325)
(1.19837 -0.00380857 -0.000191753)
(1.19843 -0.00342842 -0.00017521)
(1.19859 -0.00349732 -0.000179817)
(1.19945 -0.00360424 -0.000277237)
(1.19852 -0.00240629 -0.000120674)
(1.19862 -0.00248573 -0.000126054)
(1.19868 -0.00222922 -0.000112338)
(1.19877 -0.00228468 -0.000116377)
(1.19946 -0.00234674 -0.000184654)
(1.19879 -0.00154442 -7.77497e-05)
(1.19884 -0.00160211 -8.12095e-05)
(1.19889 -0.00143379 -7.34012e-05)
(1.19894 -0.00147421 -7.63085e-05)
(1.19954 -0.00151238 -0.000122535)
(1.199 -0.000986221 -5.43853e-05)
(1.19902 -0.00102618 -5.64092e-05)
(1.19906 -0.000916612 -5.23915e-05)
(1.19909 -0.000944647 -5.4311e-05)
(1.19962 -0.000969088 -8.46889e-05)
(1.19917 -0.000624818 -4.14002e-05)
(1.19917 -0.000651932 -4.29476e-05)
(1.19921 -0.000581682 -4.05334e-05)
(1.19922 -0.000601136 -4.17793e-05)
(1.1997 -0.000615634 -6.14666e-05)
(1.1993 -0.000394079 -3.09846e-05)
(1.1993 -0.000411945 -3.25018e-05)
(1.19933 -0.00036666 -3.05261e-05)
(1.19933 -0.000379259 -3.16656e-05)
(1.19976 -0.000389037 -4.36665e-05)
(1.19941 -0.000247987 -2.70345e-05)
(1.1994 -0.000259319 -2.75507e-05)
(1.19943 -0.000230724 -2.7331e-05)
(1.19942 -0.00023908 -2.78263e-05)
(1.1998 -0.000245576 -3.46713e-05)
(1.19951 -0.000154226 -2.60632e-05)
(1.1995 -0.000162151 -2.67604e-05)
(1.19953 -0.000143863 -2.62489e-05)
(1.19952 -0.000150112 -2.69304e-05)
(1.19984 -0.000153957 -2.94557e-05)
(1.1996 -9.46618e-05 -2.46918e-05)
(1.19959 -9.94196e-05 -2.51332e-05)
(1.19961 -8.73916e-05 -2.53652e-05)
(1.1996 -9.14431e-05 -2.56538e-05)
(1.19987 -9.4758e-05 -2.36357e-05)
(1.19968 -5.10582e-05 -2.62042e-05)
(1.19967 -5.5813e-05 -2.68395e-05)
(1.19969 -4.61446e-05 -2.63363e-05)
(1.19968 -5.01406e-05 -2.74345e-05)
(1.19988 -5.28075e-05 -2.31143e-05)
(1.22471 -0.00521782 0.000107841)
(1.21748 -0.00874879 0.000192739)
(1.22009 -0.00648361 -0.000153923)
(1.21934 -0.00318673 7.25825e-05)
(1.20896 -0.00962161 0.00128433)
(1.21289 -0.013388 0.000873579)
(1.21391 -0.0139285 0.000325403)
(1.21138 -0.0125363 0.000821182)
(1.21034 -0.00832783 0.000725903)
(1.20312 -0.00853627 0.000301853)
(1.20638 -0.00924157 0.000317282)
(1.20497 -0.0082492 0.000167013)
(1.20442 -0.0068543 0.000168236)
(1.20745 -0.00894319 -0.000170799)
(1.20093 -0.00597889 -0.000127642)
(1.20201 -0.00592972 -0.000109165)
(1.2014 -0.00535006 -0.000151971)
(1.20167 -0.00502874 -0.000138046)
(1.20331 -0.00564759 -0.000296337)
(1.20002 -0.00403172 -0.000192757)
(1.20037 -0.00399188 -0.000186254)
(1.20018 -0.00362561 -0.000181032)
(1.20046 -0.00355493 -0.000175587)
(1.2016 -0.00378078 -0.000276946)
(1.19961 -0.00271513 -0.000148682)
(1.19981 -0.00270305 -0.000149127)
(1.19972 -0.00244589 -0.000136417)
(1.1999 -0.00241312 -0.000136961)
(1.20081 -0.00255432 -0.000210764)
(1.19942 -0.00180121 -0.000100033)
(1.19954 -0.00180076 -0.000102134)
(1.1995 -0.00162302 -9.29748e-05)
(1.1996 -0.00160714 -9.45655e-05)
(1.20038 -0.00170117 -0.000147915)
(1.19934 -0.00117786 -7.10069e-05)
(1.19941 -0.00118244 -7.27135e-05)
(1.1994 -0.00106249 -6.74297e-05)
(1.19946 -0.00105583 -6.87873e-05)
(1.20014 -0.00111714 -0.000106165)
(1.19934 -0.00076322 -5.25498e-05)
(1.19938 -0.000768136 -5.41299e-05)
(1.19938 -0.000688316 -5.0361e-05)
(1.19941 -0.000685248 -5.1681e-05)
(1.20002 -0.000725449 -7.69673e-05)
(1.19936 -0.000488276 -4.07021e-05)
(1.19939 -0.000492321 -4.18083e-05)
(1.19939 -0.000439671 -3.94103e-05)
(1.19941 -0.000438265 -4.05744e-05)
(1.19995 -0.000464637 -5.69747e-05)
(1.19942 -0.000310482 -3.31769e-05)
(1.19942 -0.000313867 -3.4016e-05)
(1.19943 -0.0002801 -3.26922e-05)
(1.19944 -0.000280177 -3.33815e-05)
(1.19993 -0.000296727 -4.34946e-05)
(1.19948 -0.00019613 -3.04314e-05)
(1.19948 -0.000198372 -3.08317e-05)
(1.19949 -0.00017722 -3.07481e-05)
(1.19949 -0.000177201 -3.09613e-05)
(1.19992 -0.000188161 -3.64078e-05)
(1.19955 -0.000125625 -2.84682e-05)
(1.19955 -0.000126902 -2.90267e-05)
(1.19956 -0.000113745 -2.84526e-05)
(1.19956 -0.000114223 -2.88037e-05)
(1.19992 -0.000120618 -3.00384e-05)
(1.19962 -7.72763e-05 -2.80466e-05)
(1.19961 -7.76773e-05 -2.8064e-05)
(1.19963 -6.73558e-05 -2.87592e-05)
(1.19962 -6.97617e-05 -2.85432e-05)
(1.19992 -7.31046e-05 -2.51643e-05)
(1.19969 -4.33052e-05 -3.07227e-05)
(1.19969 -4.16633e-05 -3.08908e-05)
(1.19971 -3.52041e-05 -3.07769e-05)
(1.1997 -3.99135e-05 -3.14784e-05)
(1.19992 -3.94886e-05 -2.58103e-05)
(1.21361 -0.000564791 5.22232e-05)
(1.21234 -0.00241932 6.98856e-05)
(1.21236 -0.000528145 3.94501e-05)
(1.21323 -0.00188411 3.6113e-05)
(1.20963 -0.00351624 0.000196035)
(1.21055 -0.00433084 0.00016386)
(1.20963 -0.00440711 0.000150225)
(1.20966 -0.00257336 0.000136754)
(1.21116 -0.00451225 3.91775e-05)
(1.20553 -0.00377869 1.35483e-05)
(1.20667 -0.0038152 3.03541e-05)
(1.20574 -0.00351773 -1.13901e-05)
(1.20597 -0.00268147 3.57646e-06)
(1.20746 -0.00368733 -0.000104566)
(1.20296 -0.00293913 -0.00010514)
(1.20349 -0.00269476 -9.01049e-05)
(1.20293 -0.00246906 -0.000102886)
(1.20327 -0.00215495 -9.14998e-05)
(1.20447 -0.002559 -0.000187823)
(1.20143 -0.00207069 -0.000124822)
(1.20171 -0.00190124 -0.000117747)
(1.20141 -0.00173737 -0.00011701)
(1.20165 -0.00155741 -0.00011253)
(1.2027 -0.00180046 -0.000190148)
(1.20054 -0.00142235 -0.000106238)
(1.20072 -0.0013124 -0.000104968)
(1.20054 -0.001192 -9.90644e-05)
(1.20069 -0.00107306 -9.89338e-05)
(1.20161 -0.00124019 -0.000158686)
(1.20002 -0.000956977 -8.05041e-05)
(1.20013 -0.000886279 -8.13151e-05)
(1.20002 -0.000801188 -7.60792e-05)
(1.20011 -0.000723636 -7.70621e-05)
(1.20093 -0.000837478 -0.000121701)
(1.19972 -0.000634303 -6.18106e-05)
(1.19979 -0.000588141 -6.28253e-05)
(1.19973 -0.000529401 -5.91375e-05)
(1.19978 -0.000480459 -6.00559e-05)
(1.20052 -0.000555224 -9.19678e-05)
(1.19957 -0.000412542 -4.99678e-05)
(1.1996 -0.000382114 -5.09488e-05)
(1.19958 -0.000342268 -4.87223e-05)
(1.19961 -0.0003131 -4.97077e-05)
(1.20026 -0.000360924 -7.14644e-05)
(1.19951 -0.000265374 -4.08984e-05)
(1.19953 -0.000242876 -4.21491e-05)
(1.19952 -0.000216389 -4.00073e-05)
(1.19954 -0.00020122 -4.13355e-05)
(1.20012 -0.000229675 -5.55886e-05)
(1.19951 -0.000170876 -3.3735e-05)
(1.19952 -0.000153189 -3.45134e-05)
(1.19952 -0.000136275 -3.34853e-05)
(1.19953 -0.000130356 -3.38172e-05)
(1.20004 -0.000144514 -4.25205e-05)
(1.19953 -0.000108901 -3.18829e-05)
(1.19954 -9.37616e-05 -3.21901e-05)
(1.19955 -8.31598e-05 -3.15202e-05)
(1.19955 -8.28054e-05 -3.18852e-05)
(1.19999 -8.78489e-05 -3.6721e-05)
(1.19958 -7.03018e-05 -2.85654e-05)
(1.19958 -5.49291e-05 -2.88762e-05)
(1.19959 -4.63214e-05 -2.85775e-05)
(1.19959 -5.24411e-05 -2.85309e-05)
(1.19997 -5.03984e-05 -2.90522e-05)
(1.19963 -4.20222e-05 -2.99904e-05)
(1.19963 -2.55624e-05 -2.98046e-05)
(1.19964 -2.00857e-05 -3.08276e-05)
(1.19964 -3.14476e-05 -3.04517e-05)
(1.19995 -2.33461e-05 -2.64396e-05)
(1.19971 -2.5687e-05 -3.32522e-05)
(1.1997 -8.94737e-06 -3.32011e-05)
(1.19972 -6.64866e-06 -3.30538e-05)
(1.19971 -2.242e-05 -3.34118e-05)
(1.19994 -7.93971e-06 -2.75635e-05)
(1.29921 -0.057005 0.00527318)
(1.25433 -0.0281748 -0.00249154)
(1.23252 -0.038683 -0.00196752)
(1.2532 -0.027956 -0.000719585)
(1.25574 -0.0270272 -0.000785795)
(1.27665 -0.0597713 0.0020245)
(1.29782 -0.0567625 -0.0058448)
(1.27556 -0.0595693 -0.00402396)
(1.20085 -0.0188112 -0.00372519)
(1.20917 -0.040157 -0.00292516)
(1.2109 -0.0363378 -0.0014156)
(1.21078 -0.0352229 -0.00125585)
(1.21153 -0.0243949 -0.00304906)
(1.20364 -0.021554 -0.00240463)
(1.2042 -0.0112886 -0.00230936)
(1.20141 -0.00963764 -0.00340417)
(1.20677 -0.0085586 -0.0028035)
(1.20442 -0.0103436 -0.00184257)
(1.20522 -0.00827113 -0.00260929)
(1.2029 -0.00844299 -0.00246733)
(1.20088 -0.00768821 -0.00175747)
(1.201 -0.00733791 -0.00201446)
(1.20207 -0.00712603 -0.00194188)
(1.20139 -0.00671832 -0.00175176)
(1.20141 -0.0066731 -0.00172087)
(1.20108 -0.00739422 -0.00168681)
(1.19993 -0.00525619 -0.00115885)
(1.19986 -0.0052753 -0.00129247)
(1.20022 -0.00535084 -0.00129037)
(1.20004 -0.00489386 -0.00116887)
(1.20034 -0.00494388 -0.00116616)
(1.20006 -0.00512988 -0.00129055)
(1.1997 -0.00349353 -0.000773528)
(1.19955 -0.00355853 -0.000875281)
(1.19977 -0.00364943 -0.00088202)
(1.19973 -0.00329098 -0.000805559)
(1.19993 -0.00335298 -0.000810767)
(1.19979 -0.00342905 -0.000940075)
(1.19966 -0.00228394 -0.00053601)
(1.19955 -0.00232226 -0.00060426)
(1.19969 -0.002396 -0.000613872)
(1.19969 -0.0021517 -0.000559779)
(1.19981 -0.00220286 -0.000568281)
(1.19972 -0.00224798 -0.000655956)
(1.1997 -0.00147702 -0.000365991)
(1.19963 -0.00149788 -0.000411925)
(1.19971 -0.00155242 -0.000421513)
(1.19973 -0.00139131 -0.000382823)
(1.1998 -0.00142961 -0.000391243)
(1.19975 -0.00145635 -0.000449298)
(1.19977 -0.000950314 -0.000248308)
(1.19973 -0.000962031 -0.000278218)
(1.19978 -0.00100021 -0.000286254)
(1.19979 -0.000895112 -0.000259578)
(1.19984 -0.000922247 -0.000266795)
(1.1998 -0.000938907 -0.000305446)
(1.19983 -0.000606086 -0.000167992)
(1.19981 -0.000613186 -0.000186303)
(1.19984 -0.000639165 -0.000192638)
(1.19985 -0.000570831 -0.000174513)
(1.19988 -0.000589326 -0.000180132)
(1.19986 -0.000599922 -0.000206128)
(1.19989 -0.000384662 -0.00011327)
(1.19987 -0.000389032 -0.000124415)
(1.19989 -0.000406175 -0.00012938)
(1.1999 -0.000362216 -0.000116862)
(1.19991 -0.000374582 -0.00012133)
(1.1999 -0.000381582 -0.00013934)
(1.19992 -0.00024311 -7.72923e-05)
(1.19991 -0.000245544 -8.32426e-05)
(1.19993 -0.000256586 -8.65728e-05)
(1.19993 -0.000228715 -7.83329e-05)
(1.19994 -0.000236787 -8.13471e-05)
(1.19994 -0.000241218 -9.42924e-05)
(1.19995 -0.000152536 -5.15614e-05)
(1.19995 -0.000153514 -5.37379e-05)
(1.19995 -0.000161087 -5.65113e-05)
(1.19996 -0.000142981 -5.00077e-05)
(1.19997 -0.000148673 -5.25732e-05)
(1.19996 -0.000151372 -6.26929e-05)
(1.19997 -9.33793e-05 -3.12001e-05)
(1.19997 -9.34732e-05 -3.07894e-05)
(1.19997 -9.87245e-05 -3.28647e-05)
(1.19998 -8.65919e-05 -2.80653e-05)
(1.19998 -9.07242e-05 -2.99082e-05)
(1.19998 -9.24974e-05 -3.84593e-05)
(1.19999 -5.22013e-05 -1.89962e-05)
(1.19998 -5.17326e-05 -1.6611e-05)
(1.19999 -5.56945e-05 -1.75351e-05)
(1.19999 -4.69105e-05 -1.49462e-05)
(1.2 -5.0395e-05 -1.57737e-05)
(1.19999 -5.13636e-05 -2.30235e-05)
(1.2256 -0.00425972 9.01761e-05)
(1.21967 -0.00655188 1.14323e-05)
(1.21827 -0.00883877 -0.000119016)
(1.2193 -0.00655036 0.000225284)
(1.21994 -0.00292434 9.22782e-05)
(1.21383 -0.0144502 -0.000701617)
(1.21035 -0.00999121 -0.000982575)
(1.21432 -0.0141924 -0.000836034)
(1.21369 -0.0142837 -0.000656932)
(1.21293 -0.0129559 -0.000969456)
(1.21168 -0.00855202 -0.000814441)
(1.20743 -0.00865983 -0.00105487)
(1.20522 -0.00779497 -0.00128686)
(1.20837 -0.00869851 -0.00115853)
(1.20703 -0.00767178 -0.00116772)
(1.20632 -0.00634926 -0.00108042)
(1.20743 -0.00845382 -0.00106324)
(1.20348 -0.00541357 -0.000987667)
(1.20297 -0.00554344 -0.00112413)
(1.204 -0.00551584 -0.00107794)
(1.2033 -0.00500232 -0.00102505)
(1.20352 -0.00469231 -0.000990136)
(1.20354 -0.00527959 -0.00109313)
(1.2018 -0.00364659 -0.000760836)
(1.20163 -0.00382636 -0.000866704)
(1.20198 -0.00378365 -0.00085448)
(1.20171 -0.00344563 -0.000799515)
(1.20199 -0.00337502 -0.000792162)
(1.20186 -0.00357205 -0.000919727)
(1.201 -0.00247492 -0.000573867)
(1.20089 -0.00259755 -0.000647577)
(1.20111 -0.00258307 -0.000647867)
(1.20095 -0.00234111 -0.000602463)
(1.20115 -0.00230752 -0.000604444)
(1.20106 -0.0024318 -0.000702404)
(1.20055 -0.00165493 -0.000422456)
(1.20047 -0.00173415 -0.000474658)
(1.20061 -0.00173223 -0.000479945)
(1.20052 -0.00156384 -0.000443229)
(1.20065 -0.00154731 -0.000449095)
(1.20059 -0.00162937 -0.00051766)
(1.20029 -0.00109177 -0.000301948)
(1.20024 -0.00114245 -0.000337702)
(1.20033 -0.00114544 -0.000344862)
(1.20029 -0.00103095 -0.000316249)
(1.20036 -0.00102314 -0.000323153)
(1.20033 -0.00107723 -0.000370814)
(1.20016 -0.000711175 -0.000212808)
(1.20013 -0.00074364 -0.000236652)
(1.20018 -0.000747887 -0.000243021)
(1.20016 -0.000670855 -0.000222173)
(1.20021 -0.000667555 -0.000228294)
(1.20018 -0.000702826 -0.000261908)
(1.20008 -0.0004576 -0.000149339)
(1.20007 -0.000478352 -0.000164232)
(1.2001 -0.000482229 -0.000169422)
(1.20009 -0.000431356 -0.000155063)
(1.20012 -0.000430109 -0.000159777)
(1.2001 -0.000453151 -0.00018314)
(1.20005 -0.000292489 -0.000104079)
(1.20004 -0.000305529 -0.00011323)
(1.20006 -0.000308389 -0.000117666)
(1.20005 -0.000275838 -0.000106735)
(1.20007 -0.00027533 -0.000110819)
(1.20006 -0.000290079 -0.00012796)
(1.20003 -0.000186483 -7.19174e-05)
(1.20003 -0.000194491 -7.61476e-05)
(1.20004 -0.000196752 -7.9412e-05)
(1.20004 -0.000175703 -7.16991e-05)
(1.20005 -0.000175631 -7.4791e-05)
(1.20004 -0.000185126 -8.75549e-05)
(1.20003 -0.000118949 -4.77122e-05)
(1.20002 -0.00012372 -4.89427e-05)
(1.20003 -0.000125274 -5.14402e-05)
(1.20003 -0.000111473 -4.53495e-05)
(1.20004 -0.000111969 -4.77239e-05)
(1.20003 -0.000117729 -5.82855e-05)
(1.20003 -7.16641e-05 -2.90225e-05)
(1.20002 -7.60287e-05 -2.76555e-05)
(1.20003 -7.60516e-05 -2.96261e-05)
(1.20003 -6.61095e-05 -2.5241e-05)
(1.20004 -6.86665e-05 -2.68447e-05)
(1.20003 -7.08529e-05 -3.61551e-05)
(1.20003 -3.92793e-05 -1.72846e-05)
(1.20003 -4.3343e-05 -1.34852e-05)
(1.20003 -4.17852e-05 -1.46463e-05)
(1.20003 -3.56186e-05 -1.21342e-05)
(1.20003 -4.05752e-05 -1.28352e-05)
(1.20003 -3.86292e-05 -2.06833e-05)
(1.21308 -0.00194127 9.61187e-05)
(1.21414 -0.000547811 0.000108122)
(1.2129 -0.00245766 2.88802e-05)
(1.21291 -0.000551963 9.93093e-05)
(1.21292 -0.00194975 0.000147471)
(1.21109 -0.00449277 -0.000367289)
(1.21059 -0.0034483 -0.000474119)
(1.21141 -0.00431916 -0.000383049)
(1.21061 -0.00436432 -0.000483292)
(1.21055 -0.00254566 -0.000412745)
(1.21098 -0.00443131 -0.000414582)
(1.20748 -0.00359953 -0.00061037)
(1.20689 -0.00359798 -0.000718105)
(1.20794 -0.00368739 -0.000666719)
(1.20708 -0.00337879 -0.000694297)
(1.20723 -0.00256781 -0.000650702)
(1.20746 -0.00353219 -0.000715811)
(1.20458 -0.00247219 -0.000634688)
(1.20441 -0.0027873 -0.000729855)
(1.2049 -0.00256221 -0.000707101)
(1.20433 -0.0023446 -0.000694895)
(1.20465 -0.00204366 -0.000680314)
(1.2046 -0.0024227 -0.000774681)
(1.20286 -0.00173961 -0.000560672)
(1.20278 -0.00196813 -0.000634493)
(1.20305 -0.00180638 -0.000629319)
(1.20271 -0.00165231 -0.000601756)
(1.20295 -0.00148026 -0.000602165)
(1.20289 -0.00170731 -0.000688501)
(1.20177 -0.00120202 -0.00045582)
(1.20172 -0.00135933 -0.000509977)
(1.2019 -0.0012532 -0.000513467)
(1.20169 -0.00113997 -0.000483929)
(1.20184 -0.00102542 -0.00049002)
(1.20181 -0.00118207 -0.000559009)
(1.20109 -0.00081494 -0.000352074)
(1.20105 -0.000920908 -0.000392014)
(1.20117 -0.000852093 -0.00039869)
(1.20104 -0.000771474 -0.000371863)
(1.20114 -0.000696171 -0.000379851)
(1.20112 -0.000802781 -0.000431909)
(1.20066 -0.000542256 -0.000261769)
(1.20064 -0.000613723 -0.00029021)
(1.20072 -0.000568678 -0.000297602)
(1.20063 -0.000512538 -0.000275292)
(1.2007 -0.000464817 -0.000283164)
(1.20069 -0.000535213 -0.000321801)
(1.2004 -0.000353963 -0.000190264)
(1.20039 -0.000402553 -0.000209418)
(1.20044 -0.000372277 -0.00021601)
(1.20039 -0.000333935 -0.000198699)
(1.20043 -0.000305109 -0.000205352)
(1.20043 -0.000349899 -0.000234036)
(1.20025 -0.000226931 -0.000137485)
(1.20024 -0.000261172 -0.000149429)
(1.20027 -0.000239373 -0.000154403)
(1.20024 -0.000213702 -0.000142243)
(1.20027 -0.000198572 -0.000147216)
(1.20027 -0.000224719 -0.000168049)
(1.20016 -0.000142613 -9.7458e-05)
(1.20016 -0.000168343 -0.000104867)
(1.20018 -0.000150884 -0.000109136)
(1.20016 -0.000133706 -9.93456e-05)
(1.20018 -0.000128178 -0.000103341)
(1.20017 -0.000141087 -0.0001193)
(1.20011 -8.59242e-05 -6.83959e-05)
(1.20011 -0.000106831 -7.14785e-05)
(1.20012 -9.13142e-05 -7.49493e-05)
(1.20011 -8.01136e-05 -6.77448e-05)
(1.20012 -8.06229e-05 -7.05059e-05)
(1.20012 -8.49511e-05 -8.34541e-05)
(1.20008 -4.89316e-05 -4.5404e-05)
(1.20008 -6.85354e-05 -4.54345e-05)
(1.20008 -5.26247e-05 -4.86064e-05)
(1.20008 -4.49854e-05 -4.29734e-05)
(1.20009 -5.14435e-05 -4.4944e-05)
(1.20008 -4.84412e-05 -5.59706e-05)
(1.20006 -2.31396e-05 -2.76607e-05)
(1.20006 -4.20777e-05 -2.51945e-05)
(1.20006 -2.56065e-05 -2.77483e-05)
(1.20006 -2.01624e-05 -2.34274e-05)
(1.20007 -3.21123e-05 -2.47599e-05)
(1.20006 -2.27057e-05 -3.47403e-05)
(1.20005 -7.92748e-06 -1.64338e-05)
(1.20005 -2.53835e-05 -1.1612e-05)
(1.20006 -8.97258e-06 -1.30818e-05)
(1.20006 -6.51185e-06 -1.05598e-05)
(1.20006 -2.23523e-05 -1.14482e-05)
(1.20006 -7.76397e-06 -1.91359e-05)
(1.29266 -0.0554382 0.00499045)
(1.25063 -0.0255341 0.000613439)
(1.22984 -0.0346852 -0.000135157)
(1.24948 -0.0242909 0.000523251)
(1.2521 -0.0253006 -0.000918614)
(1.27209 -0.0581215 0.00181109)
(1.29175 -0.0557368 -0.00739732)
(1.27145 -0.0585231 -0.00620448)
(1.2002 -0.0212978 -0.00517484)
(1.20884 -0.0414216 -0.00358222)
(1.20988 -0.0349207 -0.00283873)
(1.20916 -0.0338348 -0.00311389)
(1.21037 -0.0260842 -0.00424771)
(1.20336 -0.0227147 -0.0045036)
(1.20428 -0.0090615 -0.00348717)
(1.20053 -0.00940053 -0.00502207)
(1.20564 -0.00817856 -0.00447538)
(1.20458 -0.00822438 -0.00359649)
(1.20444 -0.00763351 -0.00420547)
(1.20225 -0.00800308 -0.00417579)
(1.20151 -0.00664116 -0.00279609)
(1.20131 -0.00663651 -0.00330279)
(1.20219 -0.00640789 -0.00322421)
(1.20167 -0.00602911 -0.00291764)
(1.20169 -0.00601339 -0.00289374)
(1.20184 -0.00623186 -0.00286803)
(1.20052 -0.00468766 -0.00198018)
(1.20042 -0.00472565 -0.00216463)
(1.20074 -0.00478742 -0.00216697)
(1.20057 -0.00437804 -0.00197333)
(1.20085 -0.00441828 -0.00197249)
(1.20074 -0.00449566 -0.00210806)
(1.20015 -0.00317204 -0.00137854)
(1.20005 -0.00320936 -0.00149262)
(1.20026 -0.00328442 -0.00150637)
(1.20019 -0.00297251 -0.00137729)
(1.20038 -0.00302295 -0.00138865)
(1.2003 -0.00306818 -0.00148996)
(1.19998 -0.00210145 -0.00095984)
(1.19991 -0.00212314 -0.00103264)
(1.20005 -0.00218653 -0.00105003)
(1.20002 -0.00196965 -0.000958132)
(1.20014 -0.00201331 -0.000973226)
(1.20009 -0.0020421 -0.00103811)
(1.19992 -0.00137282 -0.000661518)
(1.19988 -0.0013846 -0.000708464)
(1.19997 -0.00143305 -0.000725192)
(1.19996 -0.00128784 -0.000660061)
(1.20004 -0.00132168 -0.000674812)
(1.2 -0.00133919 -0.000716055)
(1.19993 -0.0008927 -0.000450816)
(1.1999 -0.000899165 -0.00048125)
(1.19995 -0.000933762 -0.0004953)
(1.19995 -0.000838058 -0.000449488)
(1.2 -0.000862693 -0.000461911)
(1.19998 -0.00087337 -0.000488869)
(1.19995 -0.000574761 -0.000304134)
(1.19993 -0.000579004 -0.000323392)
(1.19996 -0.000603099 -0.000334733)
(1.19996 -0.000539833 -0.000302651)
(1.19999 -0.000556863 -0.000312871)
(1.19998 -0.000564248 -0.000329668)
(1.19996 -0.000369014 -0.000203778)
(1.19995 -0.000372094 -0.000215446)
(1.19997 -0.000387772 -0.000223605)
(1.19998 -0.000347121 -0.000202898)
(1.2 -0.000358485 -0.000209979)
(1.19999 -0.000363552 -0.000220227)
(1.19998 -0.000234323 -0.000138086)
(1.19997 -0.00023653 -0.000145747)
(1.19998 -0.000247136 -0.000151835)
(1.19999 -0.000220218 -0.000137264)
(1.2 -0.000227945 -0.00014288)
(1.19999 -0.000231459 -0.000149495)
(1.19999 -0.000147512 -9.07257e-05)
(1.19999 -0.000148706 -9.5508e-05)
(1.2 -0.000155709 -9.99796e-05)
(1.2 -0.000138544 -8.97418e-05)
(1.20001 -0.000143821 -9.37976e-05)
(1.2 -0.000145802 -9.80642e-05)
(1.2 -9.04069e-05 -5.69625e-05)
(1.2 -9.08455e-05 -5.98954e-05)
(1.2 -9.60388e-05 -6.32817e-05)
(1.20001 -8.42306e-05 -5.59402e-05)
(1.20001 -8.83705e-05 -5.89702e-05)
(1.20001 -8.94818e-05 -6.18346e-05)
(1.20001 -4.91087e-05 -3.39581e-05)
(1.20001 -4.94224e-05 -3.52485e-05)
(1.20001 -5.30994e-05 -3.7539e-05)
(1.20001 -4.45491e-05 -3.22768e-05)
(1.20002 -4.79089e-05 -3.44033e-05)
(1.20002 -4.82634e-05 -3.64762e-05)
(1.22365 -0.00426319 -0.000347335)
(1.21811 -0.00623089 0.000443306)
(1.21686 -0.00837702 0.000176552)
(1.21758 -0.00590297 0.000535006)
(1.21843 -0.00294786 -2.85768e-05)
(1.21298 -0.0135954 -0.00118307)
(1.20966 -0.00961514 -0.00225518)
(1.21336 -0.013598 -0.00118388)
(1.21264 -0.0129746 -0.00123382)
(1.2121 -0.0124153 -0.00151043)
(1.21094 -0.00820777 -0.00163333)
(1.20724 -0.00778096 -0.00184782)
(1.20496 -0.00717783 -0.00239795)
(1.20792 -0.00804885 -0.00198504)
(1.20674 -0.00700812 -0.00200862)
(1.20608 -0.00581469 -0.00198128)
(1.20722 -0.00736476 -0.0019431)
(1.20371 -0.00479655 -0.00173204)
(1.20318 -0.00494358 -0.00195361)
(1.2041 -0.00492198 -0.00185615)
(1.2035 -0.00444796 -0.00176776)
(1.20369 -0.00417134 -0.00172777)
(1.20381 -0.00457086 -0.00185494)
(1.20211 -0.00326831 -0.00136954)
(1.20199 -0.00340227 -0.0014984)
(1.20231 -0.00336032 -0.00147969)
(1.20204 -0.00306826 -0.00138535)
(1.2023 -0.00300072 -0.00137416)
(1.20222 -0.00314417 -0.00148475)
(1.20128 -0.00225044 -0.00103418)
(1.20121 -0.00234174 -0.00111956)
(1.20142 -0.00232462 -0.00112174)
(1.20125 -0.00211429 -0.00104174)
(1.20143 -0.00208092 -0.00104624)
(1.20138 -0.00217717 -0.00112016)
(1.20078 -0.00152269 -0.00076026)
(1.20073 -0.00158411 -0.000817136)
(1.20087 -0.00157983 -0.000826985)
(1.20077 -0.00143081 -0.000763734)
(1.20089 -0.00141376 -0.000774042)
(1.20085 -0.00147963 -0.000823252)
(1.20047 -0.00101654 -0.000547456)
(1.20044 -0.00105715 -0.000585619)
(1.20053 -0.00105832 -0.000597496)
(1.20047 -0.000955586 -0.000549044)
(1.20055 -0.000947094 -0.000560734)
(1.20053 -0.000991667 -0.000593481)
(1.20029 -0.000668245 -0.000386667)
(1.20027 -0.000695684 -0.000411235)
(1.20033 -0.000698543 -0.000422527)
(1.20029 -0.000627916 -0.000386537)
(1.20035 -0.000624016 -0.000397102)
(1.20033 -0.000654122 -0.000418388)
(1.20018 -0.000434746 -0.000268373)
(1.20017 -0.000452542 -0.000284559)
(1.20021 -0.000455396 -0.000294074)
(1.20019 -0.000408905 -0.000267704)
(1.20022 -0.000407012 -0.00027664)
(1.20021 -0.000426832 -0.000290592)
(1.20012 -0.000280421 -0.000185595)
(1.20011 -0.000292353 -0.000195533)
(1.20013 -0.000294656 -0.000202501)
(1.20012 -0.000263923 -0.000185113)
(1.20014 -0.000262966 -0.000191452)
(1.20014 -0.000276344 -0.000200084)
(1.20008 -0.000179906 -0.000127951)
(1.20007 -0.000187285 -0.000134931)
(1.20009 -0.000189315 -0.000140417)
(1.20008 -0.000169451 -0.000127472)
(1.2001 -0.000169295 -0.000132691)
(1.20009 -0.000177667 -0.000138586)
(1.20006 -0.000114174 -8.49339e-05)
(1.20006 -0.000119253 -8.9241e-05)
(1.20007 -0.000120608 -9.35248e-05)
(1.20006 -0.000107121 -8.41371e-05)
(1.20007 -0.000107904 -8.80032e-05)
(1.20007 -0.000112937 -9.19483e-05)
(1.20005 -6.88971e-05 -5.41068e-05)
(1.20005 -7.39654e-05 -5.65383e-05)
(1.20005 -7.34054e-05 -5.98517e-05)
(1.20005 -6.39592e-05 -5.29734e-05)
(1.20006 -6.67768e-05 -5.5812e-05)
(1.20006 -6.81708e-05 -5.86827e-05)
(1.20004 -3.66295e-05 -3.14727e-05)
(1.20004 -4.10368e-05 -3.23491e-05)
(1.20005 -3.95814e-05 -3.50455e-05)
(1.20005 -3.31585e-05 -2.96022e-05)
(1.20005 -3.87371e-05 -3.16428e-05)
(1.20005 -3.59231e-05 -3.43183e-05)
(1.21231 -0.00188419 0.000193412)
(1.21323 -0.000606095 1.27763e-05)
(1.21211 -0.00232966 7.28981e-05)
(1.21213 -0.000583429 9.13763e-05)
(1.21205 -0.00180484 0.000216385)
(1.21054 -0.0041272 -0.000676069)
(1.21002 -0.00317182 -0.000949016)
(1.21078 -0.00397453 -0.000617684)
(1.21006 -0.00399607 -0.000797479)
(1.21001 -0.00234855 -0.00075879)
(1.21036 -0.00393686 -0.000732864)
(1.2073 -0.00324002 -0.0011252)
(1.20672 -0.00322279 -0.00130428)
(1.20768 -0.00331796 -0.00114632)
(1.20691 -0.00302283 -0.00120271)
(1.20704 -0.00229657 -0.00115591)
(1.20725 -0.00309179 -0.00122675)
(1.20466 -0.00220839 -0.00116969)
(1.2045 -0.00246368 -0.00128119)
(1.20495 -0.00226763 -0.00123434)
(1.20443 -0.0020742 -0.00121172)
(1.20471 -0.00180424 -0.0011887)
(1.20469 -0.00211599 -0.00127507)
(1.20302 -0.00156688 -0.00102109)
(1.20297 -0.00175346 -0.00110142)
(1.20322 -0.00160775 -0.00109232)
(1.2029 -0.00147526 -0.00104325)
(1.20312 -0.00131942 -0.00104367)
(1.20308 -0.00150917 -0.00110913)
(1.20196 -0.00109561 -0.000824145)
(1.20193 -0.00122734 -0.00088185)
(1.2021 -0.00113005 -0.000887729)
(1.20189 -0.00103129 -0.000835987)
(1.20204 -0.000926207 -0.000846723)
(1.20202 -0.0010605 -0.000893704)
(1.20126 -0.000751068 -0.000635963)
(1.20124 -0.000842157 -0.000676754)
(1.20136 -0.000778186 -0.00068813)
(1.20122 -0.000706792 -0.000642311)
(1.20132 -0.000636961 -0.0006558)
(1.20132 -0.000730126 -0.000689208)
(1.20081 -0.000505342 -0.000475419)
(1.2008 -0.000568136 -0.000504152)
(1.20088 -0.000525843 -0.000516581)
(1.20078 -0.000475236 -0.000478595)
(1.20085 -0.000430283 -0.000491868)
(1.20085 -0.000493063 -0.000515409)
(1.20052 -0.000332771 -0.000344998)
(1.20051 -0.000376441 -0.000364498)
(1.20057 -0.000347737 -0.000376044)
(1.20051 -0.000312725 -0.000345958)
(1.20055 -0.00028552 -0.000357381)
(1.20055 -0.000325657 -0.000373619)
(1.20033 -0.000215086 -0.000245276)
(1.20033 -0.000246429 -0.000258441)
(1.20037 -0.000225733 -0.000267771)
(1.20033 -0.000201695 -0.000245258)
(1.20036 -0.00018686 -0.000254437)
(1.20036 -0.000211084 -0.000265389)
(1.20022 -0.000134682 -0.000172506)
(1.20022 -0.000159231 -0.000181144)
(1.20024 -0.000142014 -0.00018804)
(1.20022 -0.000125788 -0.000172253)
(1.20024 -0.000120474 -0.000178651)
(1.20024 -0.000132191 -0.000186175)
(1.20015 -8.16224e-05 -0.000122296)
(1.20015 -0.000102853 -0.00012793)
(1.20016 -8.64233e-05 -0.000133341)
(1.20015 -7.61061e-05 -0.000122379)
(1.20016 -7.76514e-05 -0.00012655)
(1.20016 -8.02427e-05 -0.000132263)
(1.20011 -4.72767e-05 -8.29197e-05)
(1.20011 -6.71489e-05 -8.61018e-05)
(1.20012 -5.07831e-05 -9.13677e-05)
(1.20011 -4.3635e-05 -8.22308e-05)
(1.20012 -5.10235e-05 -8.56923e-05)
(1.20012 -4.68678e-05 -8.99099e-05)
(1.20008 -2.19112e-05 -5.33327e-05)
(1.20009 -4.15237e-05 -5.49744e-05)
(1.20009 -2.4675e-05 -5.88881e-05)
(1.20008 -1.92019e-05 -5.20108e-05)
(1.20009 -3.15653e-05 -5.48415e-05)
(1.20009 -2.17787e-05 -5.77149e-05)
(1.20007 -6.65311e-06 -2.97277e-05)
(1.20007 -2.3755e-05 -3.00052e-05)
(1.20007 -7.5653e-06 -3.32129e-05)
(1.20007 -5.28527e-06 -2.77927e-05)
(1.20008 -2.13433e-05 -2.934e-05)
(1.20008 -5.9882e-06 -3.26513e-05)
(1.00331 -0.124536 -0.0188705)
(0.967004 -0.147233 -0.0472004)
(1.27691 -0.108781 -0.031067)
(1.20193 0.000664112 0.0135421)
(1.20171 -0.0069294 0.00640614)
(1.19059 -0.00397252 0.0168586)
(1.21838 -0.0112396 -0.0113405)
(1.19641 -0.00704757 0.0205323)
(1.31763 -0.0768528 -3.43776e-05)
(1.29933 -0.0575052 -0.0066698)
(1.31779 -0.0777636 0.000437853)
(1.32849 -0.0732812 -0.0069468)
(1.30516 -0.0788222 -0.0079324)
(1.18737 -0.0115706 0.000857094)
(1.19619 -0.019881 0.00580094)
(1.20196 -0.0350631 0.00330927)
(1.18613 -0.00983286 0.00257291)
(1.19101 -0.036119 0.00676406)
(1.1955 -0.0236523 0.00504242)
(1.32945 -0.0719406 0.00544998)
(1.30599 -0.0779575 0.00659133)
(1.3172 -0.0760597 0.000149453)
(1.1905 -0.00707746 -0.00416775)
(1.19433 -0.0265688 -0.00336907)
(1.17328 -0.0229501 -0.00476132)
(1.18524 -0.0200895 -0.00322809)
(1.18649 -0.0101798 -0.00110911)
(1.31071 -0.0753001 -0.00191328)
(1.29373 -0.055695 -0.00676366)
(1.31166 -0.0751267 -0.00160706)
(1.32253 -0.0696136 -0.00765565)
(1.30025 -0.0769322 -0.00969187)
(1.1865 -0.00980005 -0.00411848)
(1.19353 -0.0132453 -0.00166196)
(1.19847 -0.0302671 -0.00137086)
(1.18608 -0.00974489 -0.00301091)
(1.18351 -0.0289523 -0.00180038)
(1.19121 -0.0208032 -0.00216578)
(1.32132 -0.069357 0.00461408)
(1.29901 -0.0769099 0.00499435)
(1.30962 -0.0755172 -0.00230542)
(1.19085 -0.00959134 -0.00605489)
(1.1956 -0.0277193 -0.00446518)
(1.17857 -0.0253535 -0.0064262)
(1.18768 -0.0195769 -0.00539845)
(1.18562 -0.00880502 -0.00510209)
(0.435221 0.0986925 -0.0410047)
(0.291383 0.0685077 -0.0259258)
(0.351009 0.118822 -0.0430701)
(0.283481 0.0670112 -0.0317241)
(0.252908 0.114822 -0.0175687)
(0.181871 0.0756328 0.0223821)
(0.107203 0.103011 -0.015845)
(1.1977 0.00437219 0.0189013)
(1.20103 -0.012188 0.0176298)
(1.19504 -0.00616731 0.0149395)
(1.19205 -0.0151498 0.00353116)
(1.19796 -0.014275 0.00354988)
(1.19357 -0.0141472 0.00481508)
(1.19158 -0.0150693 0.00540669)
(1.19366 -0.0193724 -0.00037598)
(1.1941 -0.0154121 0.000240789)
(1.20413 -0.0314606 0.0029684)
(1.19606 -0.0127253 0.00393116)
(1.19459 -0.0349583 0.00628044)
(1.19643 -0.0255848 0.00373774)
(1.19335 -0.017197 -0.00357056)
(1.19158 -0.0205267 -0.00206286)
(1.19788 -0.0194822 -0.00142981)
(1.19444 -0.0170277 -0.000959773)
(1.19526 -0.0222752 -0.00142176)
(1.19175 -0.0243957 -0.00108445)
(1.20476 -0.0277284 0.000927181)
(1.20862 -0.0386617 0.00261602)
(1.20341 -0.0143304 0.00531664)
(1.2289 -0.00984487 -6.18801e-05)