/*--------------------------------*- C++ -*----------------------------------*\
| =========                 |                                                 |
| \\      /  F ield         | OpenFOAM: The Open Source CFD Toolbox           |
|  \\    /   O peration     | Version:  2012                                  |
|   \\  /    A nd           | Website:  www.openfoam.com                      |
|    \\/     M anipulation  |                                                 |
\*---------------------------------------------------------------------------*/
FoamFile
{
    version     2.0;
    format      ascii;
    class       volScalarField::Internal;
    location    "0.106/fluid";
    object      V0;
}
// * * * * * * * * * * * * * * * * * * * * * * * * * * * * * * * * * * * * * //

dimensions      [0 3 0 0 0 0 0];


value           nonuniform List<scalar> 
16422
(
4.26925e-05
4.24757e-05
4.24289e-05
4.24596e-05
4.24814e-05
4.24956e-05
4.25023e-05
4.25064e-05
4.25074e-05
4.25074e-05
4.25109e-05
4.25104e-05
4.25073e-05
4.25075e-05
4.25068e-05
4.25908e-05
4.25633e-05
4.25041e-05
4.24941e-05
4.2499e-05
4.2507e-05
4.2512e-05
4.25131e-05
4.25122e-05
4.25107e-05
4.25123e-05
4.25084e-05
4.25073e-05
4.25078e-05
4.25061e-05
4.25844e-05
4.25758e-05
4.2548e-05
4.25293e-05
4.25225e-05
4.25217e-05
4.25211e-05
4.25193e-05
4.25165e-05
4.25154e-05
4.25141e-05
4.25101e-05
4.2509e-05
4.25089e-05
4.25062e-05
4.26998e-05
4.24826e-05
4.24374e-05
4.24643e-05
4.24817e-05
4.24931e-05
4.25008e-05
4.25047e-05
4.2507e-05
4.25087e-05
4.25104e-05
4.25095e-05
4.25082e-05
4.25079e-05
4.25089e-05
4.25925e-05
4.25655e-05
4.25088e-05
4.24969e-05
4.25e-05
4.25059e-05
4.25099e-05
4.25106e-05
4.25114e-05
4.25112e-05
4.25109e-05
4.25095e-05
4.25096e-05
4.25067e-05
4.25065e-05
4.2585e-05
4.25763e-05
4.25488e-05
4.25299e-05
4.25223e-05
4.25208e-05
4.252e-05
4.25178e-05
4.25159e-05
4.25151e-05
4.25133e-05
4.25109e-05
4.25097e-05
4.25085e-05
4.25068e-05
4.27028e-05
4.24846e-05
4.2452e-05
4.24747e-05
4.24875e-05
4.2496e-05
4.25004e-05
4.25029e-05
4.25065e-05
4.25092e-05
4.25108e-05
4.25105e-05
4.25111e-05
4.25109e-05
4.25081e-05
4.2599e-05
4.25721e-05
4.25175e-05
4.25052e-05
4.25044e-05
4.25076e-05
4.25096e-05
4.25095e-05
4.25101e-05
4.25111e-05
4.2512e-05
4.25105e-05
4.25101e-05
4.25086e-05
4.25074e-05
4.25844e-05
4.25768e-05
4.25514e-05
4.25333e-05
4.25243e-05
4.25208e-05
4.25186e-05
4.25156e-05
4.25147e-05
4.25152e-05
4.25141e-05
4.2511e-05
4.25096e-05
4.25089e-05
4.25078e-05
5.32457e-06
4.2441e-05
5.32508e-06
4.24444e-05
5.32496e-06
4.24469e-05
5.32443e-06
4.24397e-05
5.32406e-06
4.24365e-05
3.36886e-08
3.25193e-08
4.2359e-05
4.23947e-05
4.23614e-05
4.24007e-05
4.25955e-05
4.26031e-05
4.25922e-05
4.27005e-05
4.26028e-05
4.26046e-05
4.25942e-05
3.36851e-08
3.36842e-08
4.23646e-05
4.24049e-05
4.23615e-05
4.24152e-05
4.26061e-05
4.26056e-05
4.25959e-05
4.2702e-05
4.2606e-05
4.26108e-05
4.26017e-05
3.36852e-08
3.36853e-08
4.23592e-05
4.24174e-05
4.26043e-05
4.26132e-05
4.26022e-05
6.80615e-08
4.19999e-05
4.20076e-05
7.86236e-08
3.37516e-08
5.38025e-06
5.32553e-06
5.38135e-06
3.25092e-08
6.82429e-08
4.1941e-05
4.3167e-05
4.24454e-05
4.19493e-05
4.31732e-05
7.89135e-08
3.36883e-08
3.36837e-08
6.80616e-08
4.19567e-05
4.19773e-05
6.80553e-08
3.37517e-08
5.32528e-06
5.38173e-06
5.38145e-06
3.37518e-08
6.8243e-08
4.24444e-05
4.19344e-05
4.31697e-05
4.19404e-05
4.31695e-05
6.82514e-08
6.8057e-08
6.80556e-08
3.37515e-08
5.38195e-06
5.32469e-06
3.37523e-08
5.38191e-06
6.8243e-08
4.19352e-05
4.3173e-05
4.24479e-05
6.82521e-08
4.19349e-05
4.31743e-05
3.36855e-08
3.36852e-08
6.80579e-08
6.80545e-08
3.37513e-08
5.3246e-06
5.3814e-06
5.38176e-06
3.37513e-08
6.82414e-08
4.24444e-05
4.19191e-05
4.31658e-05
4.19274e-05
4.31702e-05
6.82361e-08
6.80362e-08
6.80535e-08
3.37502e-08
5.38072e-06
5.32497e-06
3.37512e-08
5.38113e-06
6.82105e-08
4.19145e-05
4.31614e-05
4.24337e-05
6.82341e-08
4.1909e-05
4.31597e-05
3.36841e-08
6.80345e-08
3.37498e-08
5.32553e-06
5.38109e-06
6.821e-08
4.24353e-05
4.1905e-05
4.31648e-05
3.37073e-08
3.37178e-08
3.3684e-08
3.3684e-08
3.36852e-08
3.36858e-08
5.168e-06
6.81002e-08
5.17433e-06
6.81177e-08
5.16492e-06
5.17831e-06
6.69016e-07
5.56397e-06
3.37524e-08
5.56512e-06
6.68873e-07
6.643e-07
6.7257e-07
6.72826e-07
6.63651e-07
6.64204e-07
6.72509e-07
6.72676e-07
6.64051e-07
6.69101e-07
3.3754e-08
5.55604e-06
5.56701e-06
6.68516e-07
5.30546e-06
5.16414e-06
5.51252e-06
6.82436e-08
5.16677e-06
5.51413e-06
5.30449e-06
5.30522e-06
6.82495e-08
5.1558e-06
5.52131e-06
5.16762e-06
5.51799e-06
5.3016e-06
3.36857e-08
3.36857e-08
5.16494e-06
6.8056e-08
5.16239e-06
6.8057e-08
5.16072e-06
5.1617e-06
6.68842e-07
5.56366e-06
3.37515e-08
6.68869e-07
5.56357e-06
6.64031e-07
6.72479e-07
6.72469e-07
6.64068e-07
6.64014e-07
6.72499e-07
6.72471e-07
6.64042e-07
6.68858e-07
3.37513e-08
5.56384e-06
5.56366e-06
6.68898e-07
5.30355e-06
5.16303e-06
5.51214e-06
6.8246e-08
5.30391e-06
5.16208e-06
5.51222e-06
5.30377e-06
6.82463e-08
5.16164e-06
5.51266e-06
5.16211e-06
5.51246e-06
5.30375e-06
6.80532e-08
5.16104e-06
5.16147e-06
6.80541e-08
5.16117e-06
5.161e-06
6.68872e-07
3.37523e-08
5.56389e-06
5.56403e-06
6.68856e-07
6.64012e-07
6.72475e-07
6.64063e-07
6.72455e-07
6.68884e-07
3.37523e-08
5.56418e-06
6.68903e-07
5.56407e-06
6.63981e-07
6.72447e-07
6.72446e-07
6.63994e-07
5.30442e-06
6.82506e-08
5.16212e-06
5.51307e-06
5.16249e-06
5.51325e-06
5.3042e-06
5.30417e-06
6.82507e-08
5.16218e-06
5.51302e-06
5.30404e-06
5.16216e-06
5.51316e-06
3.36851e-08
3.36849e-08
5.16064e-06
6.80556e-08
5.15958e-06
6.80539e-08
5.15926e-06
5.15944e-06
6.68843e-07
5.56367e-06
3.3751e-08
6.68843e-07
5.56332e-06
6.63969e-07
6.72427e-07
6.72427e-07
6.63975e-07
6.63993e-07
6.72448e-07
6.72446e-07
6.63979e-07
6.68827e-07
3.37511e-08
5.56285e-06
5.5631e-06
6.68812e-07
5.30304e-06
5.16167e-06
5.51262e-06
6.8237e-08
5.30375e-06
5.16078e-06
5.51209e-06
5.30258e-06
6.82367e-08
5.16029e-06
5.51161e-06
5.16051e-06
5.5117e-06
5.30245e-06
6.80433e-08
5.15767e-06
5.15843e-06
6.80462e-08
5.15919e-06
5.15891e-06
6.68701e-07
3.37506e-08
5.56222e-06
5.56222e-06
6.68804e-07
6.63881e-07
6.72414e-07
6.63928e-07
6.72417e-07
6.68737e-07
3.37507e-08
5.5627e-06
6.68771e-07
5.56247e-06
6.63852e-07
6.72435e-07
6.72396e-07
6.63955e-07
5.30141e-06
6.82197e-08
5.15854e-06
5.51004e-06
5.15924e-06
5.5104e-06
5.30118e-06
5.30208e-06
6.82221e-08
5.16016e-06
5.51134e-06
5.3021e-06
5.15987e-06
5.511e-06
3.36845e-08
3.36849e-08
5.15677e-06
6.80254e-08
5.15704e-06
6.80242e-08
5.15706e-06
6.68926e-07
5.56233e-06
3.37498e-08
6.68799e-07
5.56281e-06
6.64052e-07
6.72538e-07
6.64064e-07
6.7243e-07
6.72557e-07
6.63948e-07
6.68906e-07
3.37502e-08
5.56357e-06
5.30113e-06
5.15759e-06
5.50971e-06
6.8202e-08
5.30044e-06
5.15776e-06
5.50982e-06
5.30082e-06
6.82008e-08
5.15758e-06
5.51007e-06
6.79812e-07
7.43442e-07
3.36924e-08
7.443e-07
6.79301e-07
8.04292e-08
7.63752e-08
7.62685e-08
7.58518e-07
3.39756e-08
7.54419e-07
7.6548e-07
4.88375e-08
6.7857e-07
3.36845e-08
7.42763e-07
7.42783e-07
6.78567e-07
7.62438e-08
7.62491e-08
6.78574e-07
3.36839e-08
7.42843e-07
6.78603e-07
7.42767e-07
7.62455e-08
7.62455e-08
6.78593e-07
3.36853e-08
7.42694e-07
7.42695e-07
6.78596e-07
7.62491e-08
7.62504e-08
6.7859e-07
3.36851e-08
7.42797e-07
6.78592e-07
7.42783e-07
7.62492e-08
7.62519e-08
6.62405e-07
7.2024e-07
6.23895e-07
6.807e-08
7.21081e-07
6.24267e-07
6.61633e-07
6.6615e-07
6.9824e-08
7.33896e-07
6.22403e-07
7.3646e-07
6.26344e-07
6.64102e-07
6.78104e-07
7.41805e-07
3.3751e-08
7.41831e-07
6.78086e-07
7.63476e-08
7.59657e-08
7.62449e-08
7.62454e-08
6.78513e-07
3.38426e-08
7.40694e-07
7.44323e-07
6.74302e-07
6.61408e-07
6.2424e-07
7.19653e-07
6.82409e-08
6.24471e-07
7.19691e-07
6.61264e-07
6.6215e-07
6.94444e-08
6.20727e-07
7.2867e-07
6.2423e-07
7.25066e-07
6.61428e-07
6.78896e-07
7.43485e-07
3.36874e-08
6.79099e-07
7.43054e-07
7.62497e-08
7.6245e-08
7.62529e-08
7.6292e-08
6.7863e-07
3.36851e-08
7.42769e-07
6.78592e-07
7.42868e-07
6.61319e-07
7.20316e-07
6.23869e-07
6.80586e-08
6.6172e-07
7.19873e-07
6.23811e-07
6.61166e-07
6.80564e-08
7.19601e-07
6.23669e-07
7.19694e-07
6.23781e-07
6.6103e-07
6.78083e-07
7.41817e-07
3.37514e-08
6.78088e-07
7.41807e-07
7.62435e-08
7.62429e-08
7.62428e-08
7.6245e-08
6.78103e-07
3.3752e-08
7.41886e-07
7.41876e-07
6.78106e-07
6.61305e-07
6.24258e-07
7.1967e-07
6.8244e-08
6.61288e-07
6.24278e-07
7.19685e-07
6.61426e-07
6.82485e-08
6.24281e-07
7.19836e-07
6.24379e-07
7.19815e-07
6.61383e-07
6.61191e-07
6.80537e-08
7.19592e-07
6.23724e-07
7.19636e-07
6.2386e-07
6.61048e-07
6.61102e-07
6.80555e-08
7.19678e-07
6.23742e-07
7.19641e-07
6.61123e-07
6.23796e-07
6.78094e-07
3.37519e-08
7.41856e-07
7.41869e-07
6.78094e-07
7.62433e-08
7.62446e-08
6.78109e-07
3.37522e-08
7.41917e-07
6.78118e-07
7.41887e-07
7.62427e-08
7.62441e-08
6.615e-07
6.82453e-08
6.2431e-07
7.19796e-07
6.24451e-07
7.19843e-07
6.61387e-07
6.61453e-07
6.82518e-08
6.2435e-07
7.1986e-07
6.6141e-07
6.24417e-07
7.19878e-07
6.78577e-07
7.42797e-07
3.36851e-08
6.78579e-07
7.42764e-07
7.62473e-08
7.62497e-08
7.6243e-08
7.62452e-08
6.78581e-07
3.36848e-08
7.42792e-07
6.78588e-07
7.42782e-07
6.61022e-07
7.19612e-07
6.23735e-07
6.80576e-08
6.61073e-07
7.19575e-07
6.23765e-07
6.61023e-07
6.80522e-08
7.196e-07
6.23691e-07
7.19588e-07
6.23756e-07
6.60997e-07
6.78088e-07
7.41842e-07
3.3751e-08
6.78093e-07
7.41813e-07
7.62428e-08
7.62452e-08
7.62432e-08
7.62442e-08
6.78076e-07
3.37513e-08
7.41802e-07
7.41793e-07
6.78078e-07
6.61351e-07
6.24301e-07
7.19765e-07
6.82377e-08
6.61364e-07
6.24331e-07
7.1973e-07
6.61269e-07
6.82366e-08
6.2425e-07
7.19687e-07
6.24321e-07
7.19681e-07
6.6124e-07
6.60772e-07
6.80385e-08
7.1929e-07
6.23362e-07
7.19331e-07
6.23513e-07
6.60657e-07
6.61009e-07
6.80499e-08
7.19589e-07
6.23688e-07
7.19579e-07
6.6098e-07
6.23751e-07
6.78053e-07
3.37503e-08
7.41666e-07
7.41656e-07
6.78063e-07
7.62441e-08
7.62452e-08
6.78068e-07
3.37511e-08
7.41789e-07
6.78073e-07
7.41763e-07
7.6246e-08
7.62479e-08
6.61017e-07
6.82132e-08
6.23922e-07
7.19347e-07
6.24052e-07
7.19372e-07
6.60924e-07
6.61242e-07
6.82292e-08
6.24242e-07
7.19651e-07
6.61207e-07
6.24293e-07
7.19629e-07
6.78601e-07
7.4267e-07
3.36845e-08
6.78586e-07
7.42688e-07
7.62494e-08
7.62502e-08
6.60694e-07
7.19275e-07
6.23302e-07
6.80319e-08
6.60613e-07
7.19295e-07
6.23424e-07
6.7807e-07
7.4165e-07
3.37506e-08
6.78061e-07
7.41668e-07
7.62482e-08
7.62478e-08
6.60949e-07
6.23869e-07
7.19322e-07
6.82097e-08
6.60868e-07
6.23986e-07
7.19348e-07
6.25962e-07
8.52887e-08
8.54199e-08
6.25464e-07
6.80623e-07
3.3693e-08
7.46985e-07
6.82817e-07
7.44603e-07
6.26883e-07
8.59843e-08
8.53817e-08
6.29162e-07
8.07202e-08
7.75415e-08
8.47388e-08
9.02197e-08
8.30582e-08
8.62191e-08
7.8915e-08
9.00121e-08
7.78166e-08
8.51861e-08
8.5308e-08
7.77006e-08
7.63393e-08
7.71009e-08
7.77808e-08
8.59031e-08
8.52709e-08
7.85229e-08
7.08383e-07
3.38875e-08
7.5014e-07
6.88742e-07
7.60325e-07
7.12027e-07
8.91007e-08
6.51715e-07
8.62221e-08
6.35295e-07
8.91271e-08
6.78555e-07
3.36841e-08
7.42792e-07
6.78565e-07
7.42746e-07
6.24691e-07
8.52405e-08
8.52417e-08
6.24688e-07
6.24685e-07
8.52433e-08
6.24689e-07
8.5241e-08
7.76673e-08
8.51537e-08
8.51498e-08
7.76734e-08
7.62461e-08
7.62472e-08
7.7669e-08
8.51501e-08
8.51529e-08
7.76707e-08
6.7858e-07
3.36843e-08
7.42746e-07
6.78565e-07
7.42807e-07
6.24712e-07
8.52462e-08
8.52419e-08
6.24728e-07
6.24709e-07
8.52386e-08
6.24699e-07
8.52437e-08
7.7669e-08
8.51493e-08
8.51498e-08
7.76692e-08
7.62451e-08
7.62478e-08
7.76673e-08
8.51534e-08
8.51489e-08
7.76712e-08
6.78596e-07
3.36847e-08
7.42729e-07
6.78586e-07
7.42712e-07
6.24704e-07
8.52465e-08
8.52444e-08
6.24703e-07
6.24706e-07
8.52438e-08
6.24702e-07
8.52457e-08
7.76705e-08
8.51544e-08
8.51532e-08
7.76732e-08
7.62484e-08
7.62499e-08
7.76696e-08
8.51518e-08
8.5152e-08
7.76722e-08
6.78588e-07
3.36851e-08
7.42752e-07
6.78594e-07
7.42763e-07
6.24708e-07
8.52441e-08
8.52442e-08
6.24707e-07
6.24707e-07
8.52446e-08
6.24707e-07
8.52436e-08
7.76703e-08
8.51515e-08
8.51515e-08
7.76738e-08
7.625e-08
7.62496e-08
7.76713e-08
8.51509e-08
8.51526e-08
7.76718e-08
6.62504e-07
6.80711e-08
7.23131e-07
6.25138e-07
7.2122e-07
6.63811e-07
6.24505e-07
6.6643e-07
6.84409e-08
7.24695e-07
6.26155e-07
7.30219e-07
6.64476e-07
6.27879e-07
6.246e-07
8.52388e-08
8.52411e-08
6.24587e-07
6.78129e-07
3.37502e-08
7.41988e-07
6.78205e-07
7.41857e-07
6.24627e-07
8.52496e-08
8.52414e-08
6.24692e-07
7.63024e-08
7.62562e-08
7.7756e-08
8.5263e-08
8.52761e-08
7.72122e-08
7.77196e-08
8.51631e-08
7.76793e-08
8.52234e-08
7.76666e-08
8.51461e-08
8.51488e-08
7.76683e-08
7.62459e-08
7.62522e-08
7.76671e-08
8.51572e-08
8.51487e-08
7.76749e-08
6.78692e-07
3.37926e-08
7.42301e-07
6.78379e-07
7.43127e-07
6.25454e-07
8.55513e-08
8.53743e-08
6.22502e-07
6.25144e-07
8.52557e-08
6.24836e-07
8.53184e-08
6.61475e-07
6.824e-08
6.24928e-07
7.19917e-07
6.24589e-07
7.19736e-07
6.61689e-07
6.62491e-07
6.8488e-08
6.25619e-07
7.20395e-07
6.26632e-07
7.21782e-07
6.62069e-07
6.25034e-07
8.53139e-08
6.25215e-07
8.52622e-08
6.78827e-07
3.36867e-08
7.42884e-07
6.78722e-07
7.43132e-07
6.24937e-07
8.5251e-08
8.5276e-08
6.2485e-07
7.62448e-08
7.62565e-08
7.76741e-08
8.51502e-08
7.76693e-08
8.51565e-08
7.76687e-08
8.51644e-08
7.76821e-08
8.51505e-08
7.76799e-08
8.52116e-08
7.77242e-08
8.51648e-08
7.62648e-08
7.6248e-08
7.76919e-08
8.51559e-08
8.51789e-08
7.76745e-08
6.78633e-07
3.36858e-08
7.42966e-07
6.78698e-07
7.42796e-07
6.24751e-07
8.52436e-08
6.24725e-07
8.52504e-08
6.24762e-07
8.52596e-08
6.24812e-07
8.52444e-08
6.61429e-07
6.80583e-08
7.19689e-07
6.23638e-07
7.19962e-07
6.61098e-07
6.23828e-07
6.61036e-07
6.80559e-08
7.19792e-07
6.23706e-07
7.19598e-07
6.61225e-07
6.23723e-07
6.2458e-07
8.5239e-08
6.24585e-07
8.52378e-08
6.78087e-07
3.37515e-08
7.41822e-07
6.78084e-07
7.41826e-07
6.2458e-07
8.52373e-08
8.52383e-08
6.2458e-07
7.62433e-08
7.62426e-08
7.76656e-08
8.51459e-08
8.51474e-08
7.7666e-08
7.76654e-08
8.51445e-08
7.76659e-08
8.51467e-08
7.76643e-08
8.51469e-08
7.76678e-08
8.5146e-08
7.62429e-08
7.62442e-08
7.76651e-08
8.51462e-08
8.51463e-08
7.76671e-08
6.78089e-07
3.37518e-08
7.41848e-07
6.78089e-07
7.41841e-07
6.246e-07
8.52385e-08
8.52403e-08
6.24596e-07
6.24592e-07
8.52367e-08
6.24583e-07
8.52394e-08
6.61368e-07
6.82442e-08
6.2417e-07
7.19702e-07
6.24319e-07
7.19714e-07
6.61282e-07
6.61349e-07
6.82469e-08
6.24247e-07
7.19743e-07
6.24308e-07
7.19758e-07
6.61338e-07
6.61144e-07
6.80528e-08
7.19644e-07
6.23743e-07
7.19601e-07
6.61142e-07
6.2383e-07
6.61215e-07
6.80559e-08
7.19594e-07
6.23678e-07
7.19683e-07
6.6106e-07
6.23848e-07
6.781e-07
3.37519e-08
7.41897e-07
6.7811e-07
7.41872e-07
6.24576e-07
8.52383e-08
8.52386e-08
6.24577e-07
6.24584e-07
8.5238e-08
6.24587e-07
8.52385e-08
7.76656e-08
8.51476e-08
7.76682e-08
8.51463e-08
7.62431e-08
7.62439e-08
7.76653e-08
8.51451e-08
8.51462e-08
7.7667e-08
6.78113e-07
3.37522e-08
7.41878e-07
6.78102e-07
7.41895e-07
6.24595e-07
8.52404e-08
6.24601e-07
8.524e-08
6.24594e-07
8.52393e-08
6.24584e-07
8.52402e-08
7.76647e-08
8.51451e-08
8.5145e-08
7.76673e-08
7.62426e-08
7.62438e-08
7.76647e-08
8.51441e-08
8.51447e-08
7.76673e-08
6.6149e-07
6.82454e-08
6.24334e-07
7.19839e-07
6.24438e-07
7.1985e-07
6.61424e-07
6.61513e-07
6.82505e-08
6.24275e-07
7.19824e-07
6.24454e-07
7.19883e-07
6.61391e-07
6.24695e-07
8.52417e-08
6.24691e-07
8.5241e-08
6.78584e-07
3.36849e-08
7.4277e-07
6.78581e-07
7.42784e-07
6.24703e-07
8.52438e-08
8.5242e-08
6.24702e-07
7.62469e-08
7.62478e-08
7.7669e-08
8.51536e-08
7.76723e-08
8.51525e-08
7.76692e-08
8.51523e-08
7.76712e-08
8.51518e-08
7.76657e-08
8.51493e-08
7.76688e-08
8.51496e-08
7.62444e-08
7.62471e-08
7.76674e-08
8.51524e-08
8.51503e-08
7.76703e-08
6.78574e-07
3.36848e-08
7.42774e-07
6.78584e-07
7.42753e-07
6.24706e-07
8.52435e-08
6.24706e-07
8.52434e-08
6.24701e-07
8.52429e-08
6.24707e-07
8.52427e-08
6.61033e-07
6.80568e-08
7.1953e-07
6.23602e-07
7.19583e-07
6.6091e-07
6.23764e-07
6.60978e-07
6.80521e-08
7.19536e-07
6.23611e-07
7.19541e-07
6.60936e-07
6.23721e-07
6.24573e-07
8.5238e-08
6.24575e-07
8.52381e-08
6.78079e-07
3.37502e-08
7.41796e-07
6.7808e-07
7.41799e-07
6.24567e-07
8.52385e-08
8.52373e-08
6.24568e-07
7.62428e-08
7.62445e-08
7.76644e-08
8.51458e-08
8.51445e-08
7.76676e-08
7.76644e-08
8.51452e-08
7.76678e-08
8.51445e-08
7.76654e-08
8.51448e-08
7.76679e-08
8.5145e-08
7.62415e-08
7.62446e-08
7.76636e-08
8.51457e-08
8.51438e-08
7.76673e-08
6.78071e-07
3.37505e-08
7.41793e-07
6.78077e-07
7.41785e-07
6.24568e-07
8.52384e-08
8.52373e-08
6.24567e-07
6.24565e-07
8.52381e-08
6.24568e-07
8.52373e-08
6.61332e-07
6.82363e-08
6.24171e-07
7.19659e-07
6.24326e-07
7.19703e-07
6.61218e-07
6.61261e-07
6.82346e-08
6.24176e-07
7.19643e-07
6.24285e-07
7.19663e-07
6.61203e-07
6.60841e-07
6.80382e-08
7.1941e-07
6.23507e-07
7.19373e-07
6.60826e-07
6.23566e-07
6.60976e-07
6.80482e-08
7.19473e-07
6.23562e-07
7.19529e-07
6.60884e-07
6.2371e-07
6.78056e-07
3.37504e-08
7.41694e-07
6.78056e-07
7.4168e-07
6.24549e-07
8.52403e-08
8.52382e-08
6.24556e-07
6.24549e-07
8.5237e-08
6.24547e-07
8.52382e-08
7.76647e-08
8.51451e-08
7.7668e-08
8.51448e-08
7.62439e-08
7.62465e-08
7.76647e-08
8.51437e-08
8.51432e-08
7.7668e-08
6.78065e-07
3.3751e-08
7.41728e-07
6.78065e-07
7.41737e-07
6.24553e-07
8.52377e-08
6.2456e-07
8.5237e-08
6.24551e-07
8.52369e-08
6.24552e-07
8.5236e-08
7.76662e-08
8.51454e-08
8.51442e-08
7.7669e-08
7.62464e-08
7.62466e-08
7.76658e-08
8.51439e-08
8.51447e-08
7.76684e-08
6.61082e-07
6.82149e-08
6.24051e-07
7.1945e-07
6.24103e-07
7.19418e-07
6.61053e-07
6.61201e-07
6.82273e-08
6.24108e-07
7.19523e-07
6.24248e-07
7.19569e-07
6.61116e-07
6.24698e-07
8.52445e-08
6.24695e-07
8.52443e-08
6.78598e-07
3.36849e-08
7.42679e-07
6.78617e-07
7.42658e-07
6.24695e-07
8.52472e-08
8.52431e-08
6.24715e-07
7.62545e-08
7.62505e-08
7.76738e-08
8.5149e-08
7.76712e-08
8.51563e-08
7.76712e-08
8.51495e-08
7.76723e-08
8.51492e-08
7.62487e-08
7.62519e-08
7.76688e-08
8.51512e-08
8.51483e-08
7.76736e-08
6.78634e-07
7.42646e-07
6.78609e-07
7.42702e-07
6.24739e-07
8.52474e-08
6.24716e-07
8.52546e-08
6.60638e-07
6.80312e-08
7.19234e-07
6.23299e-07
7.19251e-07
6.60627e-07
6.23384e-07
6.60712e-07
7.19179e-07
6.23245e-07
7.19219e-07
6.60572e-07
6.23398e-07
6.24562e-07
8.52397e-08
6.24554e-07
8.52412e-08
6.78071e-07
3.37506e-08
7.41667e-07
6.7808e-07
7.41649e-07
6.2456e-07
8.5243e-08
8.52401e-08
6.24572e-07
7.62534e-08
7.62498e-08
7.76723e-08
8.51455e-08
7.76703e-08
7.76678e-08
8.51439e-08
7.76697e-08
8.51458e-08
7.62476e-08
7.62508e-08
7.76684e-08
8.51469e-08
8.51451e-08
7.7672e-08
6.78098e-07
7.41625e-07
6.78078e-07
7.41668e-07
6.24599e-07
8.52412e-08
6.24577e-07
6.60874e-07
6.82081e-08
6.23869e-07
7.19288e-07
6.23944e-07
7.19297e-07
6.60864e-07
6.60915e-07
6.23801e-07
7.1921e-07
6.23939e-07
7.1924e-07
6.60789e-07
4.2889e-05
4.26995e-05
4.28963e-05
4.2744e-05
4.26535e-05
4.26564e-05
4.27411e-05
4.29016e-05
4.26996e-05
4.29022e-05
4.27502e-05
4.26597e-05
4.27491e-05
4.26605e-05
4.29032e-05
4.27102e-05
4.29071e-05
4.27572e-05
4.26661e-05
4.27538e-05
4.26725e-05
5.32045e-06
5.34011e-06
5.33796e-06
5.32574e-06
5.33867e-06
5.34344e-06
5.31751e-06
5.31897e-06
5.32511e-06
5.34127e-06
5.33844e-06
5.33833e-06
5.34127e-06
5.31903e-06
5.31873e-06
5.34116e-06
5.33839e-06
5.32481e-06
5.33829e-06
5.31894e-06
5.34098e-06
5.31829e-06
5.32447e-06
5.34041e-06
5.33773e-06
5.3379e-06
5.34056e-06
5.31805e-06
5.31766e-06
5.34027e-06
5.33718e-06
5.3242e-06
5.33718e-06
5.31773e-06
5.34025e-06
5.32278e-06
5.32965e-06
5.3423e-06
5.34544e-06
8.75351e-08
1.10085e-07
3.36886e-08
1.10092e-07
8.75289e-08
9.03118e-08
3.40552e-08
1.09354e-07
1.12081e-07
1.02262e-07
4.27006e-05
4.29001e-05
4.28989e-05
4.2746e-05
4.26591e-05
4.26582e-05
4.27477e-05
8.75197e-08
3.36838e-08
1.10074e-07
1.10065e-07
8.75222e-08
8.75172e-08
3.36828e-08
1.10078e-07
8.75235e-08
1.10061e-07
4.27007e-05
4.29041e-05
4.29027e-05
4.27514e-05
4.26636e-05
4.26618e-05
4.27526e-05
8.75206e-08
3.36847e-08
1.1007e-07
1.10061e-07
8.75236e-08
8.75196e-08
3.36842e-08
1.10077e-07
8.75235e-08
1.10065e-07
4.27309e-05
4.29218e-05
4.27655e-05
4.26849e-05
8.27744e-08
9.80648e-08
9.70232e-08
6.80629e-08
9.80684e-08
9.70529e-08
8.27405e-08
8.39366e-08
7.4895e-08
1.03693e-07
9.81355e-08
1.02772e-07
9.70608e-08
8.38564e-08
8.73608e-08
1.10037e-07
3.37499e-08
1.10031e-07
8.73619e-08
5.32025e-06
5.3258e-06
5.34202e-06
5.33858e-06
5.33875e-06
5.34289e-06
5.31954e-06
8.74574e-08
3.37334e-08
1.09768e-07
1.1064e-07
8.80529e-08
8.28555e-08
9.72534e-08
9.80214e-08
6.82408e-08
9.72792e-08
9.80094e-08
8.28418e-08
8.35189e-08
7.50576e-08
9.82714e-08
1.03178e-07
9.71613e-08
1.02069e-07
8.35406e-08
8.75246e-08
1.10102e-07
3.36864e-08
8.75347e-08
1.10073e-07
8.75205e-08
3.36832e-08
1.1007e-07
8.7519e-08
1.10067e-07
8.27409e-08
9.8081e-08
9.70306e-08
6.80584e-08
8.2756e-08
9.80464e-08
9.70413e-08
8.27405e-08
6.80543e-08
9.80504e-08
9.70332e-08
9.80395e-08
9.7056e-08
8.27258e-08
8.73601e-08
1.10039e-07
3.37497e-08
8.73625e-08
1.1003e-07
5.31892e-06
5.32514e-06
5.34152e-06
5.33841e-06
5.33832e-06
5.34129e-06
5.31908e-06
8.73616e-08
3.37507e-08
1.10045e-07
1.10036e-07
8.73626e-08
8.28524e-08
9.72589e-08
9.80239e-08
6.82414e-08
8.2847e-08
9.72721e-08
9.80102e-08
8.2882e-08
6.82497e-08
9.72743e-08
9.8041e-08
9.72977e-08
9.80267e-08
8.28704e-08
8.27385e-08
6.80546e-08
9.80494e-08
9.7026e-08
9.80362e-08
9.7048e-08
8.27262e-08
8.27317e-08
6.80542e-08
9.80553e-08
9.70414e-08
9.80348e-08
8.27345e-08
9.70517e-08
8.73612e-08
3.37505e-08
1.10042e-07
1.10034e-07
8.73633e-08
5.31853e-06
5.32464e-06
5.3408e-06
5.33816e-06
5.3381e-06
5.34082e-06
5.31853e-06
8.73614e-08
3.37511e-08
1.10048e-07
8.73649e-08
1.10036e-07
8.28754e-08
6.8243e-08
9.72615e-08
9.80295e-08
9.72848e-08
9.80191e-08
8.28594e-08
8.28784e-08
6.82514e-08
9.72824e-08
9.80431e-08
8.28739e-08
9.72959e-08
9.80279e-08
8.75199e-08
1.10075e-07
3.3684e-08
8.75226e-08
1.10066e-07
8.75204e-08
3.36839e-08
1.10075e-07
8.75228e-08
1.10066e-07
8.27332e-08
9.80502e-08
9.70267e-08
6.80557e-08
8.2728e-08
9.80355e-08
9.70436e-08
8.2733e-08
6.80529e-08
9.80412e-08
9.70151e-08
9.80286e-08
9.70354e-08
8.27231e-08
8.73604e-08
1.10041e-07
3.375e-08
8.73633e-08
1.10031e-07
5.31846e-06
5.32467e-06
5.34082e-06
5.33805e-06
5.33812e-06
5.34073e-06
5.3185e-06
8.73611e-08
3.37501e-08
1.1004e-07
1.10031e-07
8.73634e-08
8.28644e-08
9.72609e-08
9.80274e-08
6.82388e-08
8.2859e-08
9.72748e-08
9.80119e-08
8.28611e-08
6.82356e-08
9.72469e-08
9.80175e-08
9.72691e-08
9.8006e-08
8.28505e-08
8.2681e-08
6.80369e-08
9.80035e-08
9.69404e-08
9.7991e-08
9.69632e-08
8.26688e-08
8.27251e-08
6.80511e-08
9.80413e-08
9.70133e-08
9.80229e-08
8.27217e-08
9.70248e-08
8.736e-08
3.37492e-08
1.1003e-07
1.10019e-07
8.73629e-08
5.31765e-06
5.32412e-06
5.34084e-06
5.33786e-06
5.33704e-06
5.34033e-06
5.31825e-06
8.73608e-08
3.375e-08
1.1004e-07
8.73636e-08
1.10029e-07
8.28031e-08
6.82097e-08
9.71694e-08
9.79718e-08
9.71897e-08
9.79565e-08
8.27948e-08
8.2852e-08
6.82311e-08
9.72441e-08
9.80144e-08
8.28476e-08
9.72568e-08
9.79982e-08
8.75201e-08
1.10067e-07
3.36838e-08
8.75223e-08
1.10059e-07
8.26794e-08
9.80017e-08
9.69361e-08
6.80339e-08
8.26678e-08
9.79885e-08
9.69588e-08
8.73606e-08
1.10027e-07
3.37491e-08
8.73618e-08
1.1002e-07
5.32049e-06
5.32764e-06
5.34167e-06
5.3384e-06
5.34043e-06
5.34307e-06
5.31905e-06
8.28045e-08
9.71651e-08
9.79691e-08
6.82092e-08
8.27918e-08
9.71878e-08
9.79562e-08
3.5627e-08
3.56254e-08
8.75543e-08
3.36971e-08
1.10248e-07
8.7623e-08
1.10133e-07
3.56481e-08
3.5681e-08
8.78792e-08
3.37449e-08
1.10256e-07
8.76524e-08
1.10476e-07
9.20654e-09
3.59375e-08
3.57601e-08
8.75169e-08
3.36831e-08
1.10073e-07
8.75209e-08
1.1006e-07
3.56228e-08
3.56229e-08
3.56226e-08
3.56225e-08
8.75184e-08
3.36821e-08
1.10069e-07
8.75201e-08
1.10064e-07
3.56224e-08
3.56223e-08
3.5622e-08
3.56226e-08
8.75187e-08
3.36832e-08
1.10071e-07
8.75232e-08
1.1006e-07
3.56229e-08
3.5623e-08
3.5622e-08
3.56227e-08
8.75206e-08
3.36842e-08
1.10073e-07
8.75234e-08
1.10064e-07
3.56226e-08
3.56225e-08
3.56226e-08
3.56227e-08
8.28345e-08
6.80817e-08
9.82261e-08
9.71088e-08
9.81149e-08
8.29256e-08
9.70887e-08
8.31074e-08
6.8163e-08
9.82203e-08
9.7134e-08
9.83815e-08
8.29313e-08
9.72504e-08
3.562e-08
3.56201e-08
8.73616e-08
3.37501e-08
1.1005e-07
8.7367e-08
1.10034e-07
3.56209e-08
3.56212e-08
6.37952e-07
6.67398e-07
6.57129e-07
6.64372e-07
6.57214e-07
6.3763e-07
6.67727e-07
6.53259e-07
6.91947e-07
6.73164e-07
6.63638e-07
6.64751e-07
6.91655e-07
6.5095e-07
6.52877e-07
6.6472e-07
6.73042e-07
6.90257e-07
6.64858e-07
6.90744e-07
6.52475e-07
6.38026e-07
6.64246e-07
6.56157e-07
6.66535e-07
6.57029e-07
6.67891e-07
6.36196e-07
6.37342e-07
6.67196e-07
6.57024e-07
6.64116e-07
6.67092e-07
6.37439e-07
6.56949e-07
6.52123e-07
6.89887e-07
6.72538e-07
6.64428e-07
6.89912e-07
6.64457e-07
6.52103e-07
6.52167e-07
6.64592e-07
6.90045e-07
6.72585e-07
6.89955e-07
6.52272e-07
6.64502e-07
6.37295e-07
6.64075e-07
6.67016e-07
6.56875e-07
6.67039e-07
6.56907e-07
6.37265e-07
8.73783e-08
3.37575e-08
1.10059e-07
8.73711e-08
1.10077e-07
3.59035e-08
3.69294e-08
3.56243e-08
3.56218e-08
8.28619e-08
6.82401e-08
9.72994e-08
9.80345e-08
9.72929e-08
9.80116e-08
8.28743e-08
8.29566e-08
6.82662e-08
9.73171e-08
9.80481e-08
9.74061e-08
9.80742e-08
8.28898e-08
3.5624e-08
3.56249e-08
8.75236e-08
3.36854e-08
1.10073e-07
8.75228e-08
1.10071e-07
3.56237e-08
3.56226e-08
8.75201e-08
3.36846e-08
1.10082e-07
8.75246e-08
1.10064e-07
3.56229e-08
3.56224e-08
3.56226e-08
3.56226e-08
8.27409e-08
6.80564e-08
9.80489e-08
9.70202e-08
9.80433e-08
8.27212e-08
9.70445e-08
8.27296e-08
6.80557e-08
9.80599e-08
9.70292e-08
9.80354e-08
8.27332e-08
9.70437e-08
3.562e-08
3.56201e-08
8.73615e-08
3.37507e-08
1.10038e-07
8.73614e-08
1.10032e-07
3.56204e-08
3.56203e-08
6.37253e-07
6.56858e-07
6.66985e-07
6.64038e-07
6.56869e-07
6.37239e-07
6.67002e-07
6.52078e-07
6.89861e-07
6.72483e-07
6.6441e-07
6.64409e-07
6.89867e-07
6.52081e-07
6.52073e-07
6.64399e-07
6.72475e-07
6.89855e-07
6.64402e-07
6.89865e-07
6.52072e-07
6.37262e-07
6.64058e-07
6.56873e-07
6.67021e-07
6.56878e-07
6.67019e-07
6.37255e-07
6.37243e-07
6.56844e-07
6.64013e-07
6.66982e-07
6.66985e-07
6.56853e-07
6.37237e-07
6.52073e-07
6.89873e-07
6.72484e-07
6.64419e-07
6.89866e-07
6.52088e-07
6.64403e-07
6.5207e-07
6.64391e-07
6.72478e-07
6.89863e-07
6.89863e-07
6.64399e-07
6.52076e-07
6.37248e-07
6.64015e-07
6.67003e-07
6.56866e-07
6.37253e-07
6.66992e-07
6.56854e-07
8.73607e-08
3.37506e-08
1.10041e-07
8.7362e-08
1.10032e-07
3.56206e-08
3.56198e-08
3.56203e-08
3.56195e-08
8.28632e-08
6.82443e-08
9.72569e-08
9.80287e-08
9.72793e-08
9.80156e-08
8.2852e-08
8.28625e-08
6.82463e-08
9.72655e-08
9.80307e-08
9.72822e-08
9.80163e-08
8.28564e-08
8.27326e-08
6.80524e-08
9.805e-08
9.70343e-08
9.80319e-08
8.27293e-08
9.70485e-08
8.27388e-08
6.80522e-08
9.80463e-08
9.70283e-08
9.80371e-08
8.27233e-08
9.70525e-08
8.73615e-08
3.37511e-08
1.10047e-07
8.73647e-08
1.10036e-07
3.56211e-08
3.56212e-08
3.56209e-08
3.56208e-08
6.37237e-07
6.66973e-07
6.64035e-07
6.56814e-07
6.56845e-07
6.66995e-07
6.37213e-07
6.52074e-07
6.89867e-07
6.64406e-07
6.72473e-07
6.64395e-07
6.52088e-07
6.89864e-07
6.37248e-07
6.64035e-07
6.56871e-07
6.67016e-07
6.56859e-07
6.37254e-07
6.67001e-07
6.52067e-07
6.64363e-07
6.72468e-07
6.89848e-07
6.64383e-07
6.89861e-07
6.5206e-07
8.73606e-08
3.37505e-08
1.10045e-07
8.7364e-08
1.10036e-07
3.56206e-08
3.56206e-08
3.562e-08
3.56208e-08
6.37216e-07
6.6696e-07
6.56798e-07
6.63973e-07
6.66958e-07
6.37211e-07
6.568e-07
6.52048e-07
6.89843e-07
6.72443e-07
6.64361e-07
6.89842e-07
6.64348e-07
6.5206e-07
6.52051e-07
6.64352e-07
6.89851e-07
6.7245e-07
6.89847e-07
6.52061e-07
6.64347e-07
6.37217e-07
6.63984e-07
6.66969e-07
6.56813e-07
6.66965e-07
6.56807e-07
6.37221e-07
8.28795e-08
6.82491e-08
9.72755e-08
9.80405e-08
9.72917e-08
9.8025e-08
8.28719e-08
8.28808e-08
6.82489e-08
9.72692e-08
9.80392e-08
9.7295e-08
9.8027e-08
8.28672e-08
3.5623e-08
3.56228e-08
8.75203e-08
3.36845e-08
1.10074e-07
8.75225e-08
1.10067e-07
3.56226e-08
3.56222e-08
8.75197e-08
3.36834e-08
1.10074e-07
8.75226e-08
1.10064e-07
3.56224e-08
3.56225e-08
3.56223e-08
3.56221e-08
8.27297e-08
6.80564e-08
9.8042e-08
9.7014e-08
9.80325e-08
8.27156e-08
9.70385e-08
8.27213e-08
6.8051e-08
9.80404e-08
9.70126e-08
9.80246e-08
8.27149e-08
9.70273e-08
3.56212e-08
3.56212e-08
8.73604e-08
3.37499e-08
1.10038e-07
8.73629e-08
1.1003e-07
3.56215e-08
3.56216e-08
6.37207e-07
6.56788e-07
6.66949e-07
6.63961e-07
6.56795e-07
6.37205e-07
6.66946e-07
6.52041e-07
6.89832e-07
6.72425e-07
6.64341e-07
6.64332e-07
6.89829e-07
6.52052e-07
6.52043e-07
6.64336e-07
6.72433e-07
6.89833e-07
6.64339e-07
6.89833e-07
6.52049e-07
6.3721e-07
6.63956e-07
6.56798e-07
6.66957e-07
6.56788e-07
6.66951e-07
6.3721e-07
6.37219e-07
6.56808e-07
6.63983e-07
6.66962e-07
6.66962e-07
6.56815e-07
6.37214e-07
6.52059e-07
6.89846e-07
6.7245e-07
6.64366e-07
6.89848e-07
6.52065e-07
6.64363e-07
6.52051e-07
6.64355e-07
6.72443e-07
6.89842e-07
6.89842e-07
6.64355e-07
6.52058e-07
6.37224e-07
6.63976e-07
6.66959e-07
6.56811e-07
6.37218e-07
6.66962e-07
6.56818e-07
8.73603e-08
3.375e-08
1.10038e-07
8.73631e-08
1.10029e-07
3.56219e-08
3.5622e-08
3.56216e-08
3.56215e-08
8.2857e-08
6.82361e-08
9.72454e-08
9.80177e-08
9.72691e-08
9.80063e-08
8.28448e-08
8.28524e-08
6.82354e-08
9.72455e-08
9.80167e-08
9.72622e-08
9.80034e-08
8.28439e-08
8.26949e-08
6.80386e-08
9.80182e-08
9.69696e-08
9.79985e-08
8.26925e-08
9.69809e-08
8.27099e-08
6.80456e-08
9.8023e-08
9.69771e-08
9.80109e-08
8.26974e-08
9.70021e-08
8.73593e-08
3.37489e-08
1.10032e-07
8.73628e-08
1.10022e-07
3.56225e-08
3.56226e-08
3.56216e-08
3.56223e-08
6.37193e-07
6.66902e-07
6.63891e-07
6.56733e-07
6.56747e-07
6.66911e-07
6.3718e-07
6.52035e-07
6.89829e-07
6.64319e-07
6.7242e-07
6.64319e-07
6.52048e-07
6.89823e-07
6.37204e-07
6.63919e-07
6.56767e-07
6.66936e-07
6.56777e-07
6.37205e-07
6.66926e-07
6.52032e-07
6.64298e-07
6.72402e-07
6.89823e-07
6.64296e-07
6.89824e-07
6.52037e-07
8.73605e-08
3.37497e-08
1.10033e-07
8.7363e-08
1.10025e-07
3.5622e-08
3.5622e-08
3.56222e-08
3.56223e-08
6.372e-07
6.66898e-07
6.56726e-07
6.63892e-07
6.66914e-07
6.37184e-07
6.56767e-07
6.52037e-07
6.89823e-07
6.724e-07
6.64343e-07