/*--------------------------------*- C++ -*----------------------------------*\
| =========                 |                                                 |
| \\      /  F ield         | OpenFOAM: The Open Source CFD Toolbox           |
|  \\    /   O peration     | Version:  2012                                  |
|   \\  /    A nd           | Website:  www.openfoam.com                      |
|    \\/     M anipulation  |                                                 |
\*---------------------------------------------------------------------------*/
FoamFile
{
    version     2.0;
    format      ascii;
    class       volScalarField;
    location    "0.105/fluid";
    object      p;
}
// * * * * * * * * * * * * * * * * * * * * * * * * * * * * * * * * * * * * * //

dimensions      [0 2 -2 0 0 0 0];


internalField   nonuniform List<scalar> 
131374
(
-0.0688997
-0.0696725
-0.0695479
-0.0696512
-0.0694865
-0.0691602
-0.0686286
-0.0676823
-0.0659331
-0.0625126
-0.0553287
-0.038498
0.00750511
0.149415
0.364682
0.0379899
0.0136447
0.00734051
0.00471979
0.00313914
0.00200143
0.00118195
0.000613109
0.000242747
1.53673e-05
-0.000101153
-0.000132695
-8.90505e-05
-0.0690771
-0.0697198
-0.0695797
-0.0696919
-0.0695564
-0.069284
-0.0688531
-0.0681116
-0.0667902
-0.064313
-0.0594533
-0.04936
-0.0274839
0.0121274
-0.0903003
-0.0690491
0.00607096
0.00891319
0.00689419
0.00481769
0.0032194
0.00203018
0.00118341
0.000601904
0.000227139
4.02939e-06
-0.0001098
-0.000137309
-9.31576e-05
-0.0691713
-0.0697894
-0.0696448
-0.0697796
-0.0697059
-0.069551
-0.0693276
-0.0689799
-0.0684091
-0.0674606
-0.0658713
-0.0631029
-0.0574815
-0.0412102
-0.0216535
-0.0302671
0.00589363
0.00991537
0.00788876
0.00535908
0.00344546
0.00210095
0.00118261
0.000579907
0.000198991
-1.7687e-05
-0.000118346
-0.000137865
-8.9885e-05
-0.0692544
-0.0698578
-0.0697186
-0.0698907
-0.0699009
-0.0698934
-0.069911
-0.0699852
-0.0701585
-0.0705602
-0.0714186
-0.0729157
-0.0733939
-0.0587999
0.00103398
0.0370146
0.0256881
0.0156346
0.00964985
0.00591546
0.00359438
0.00210635
0.00114263
0.000534063
0.000160066
-4.56833e-05
-0.000133291
-0.000142074
-8.78357e-05
-0.0693288
-0.0699168
-0.0697895
-0.0700061
-0.0700948
-0.0702223
-0.0704515
-0.0708467
-0.071513
-0.0726387
-0.0745117
-0.0773546
-0.0803501
-0.0795922
-0.0935909
-0.123414
0.025905
0.0245322
0.0154378
0.00920166
0.00559335
0.00336692
0.00194426
0.00103072
0.000450736
0.000106394
-7.77137e-05
-0.000146353
-0.000141512
-8.42083e-05
-0.0693819
-0.0699575
-0.0698443
-0.0701004
-0.0702555
-0.0704773
-0.0708505
-0.0714299
-0.0723012
-0.0735747
-0.0753446
-0.0775033
-0.0792586
-0.0784226
-0.0710766
-0.0482283
-0.0058253
0.00832412
0.00851016
0.00626873
0.00430579
0.00275712
0.00163438
0.000862095
0.000355546
5.04829e-05
-0.00010869
-0.000157369
-0.000138954
-7.53485e-05
-0.0694117
-0.0699773
-0.0698794
-0.0701618
-0.0703567
-0.0706323
-0.0710782
-0.071732
-0.0726351
-0.0737975
-0.0750917
-0.0760348
-0.0754057
-0.0708665
-0.0589468
-0.0389984
-0.0166882
-0.00295522
0.00210552
0.00332797
0.00295929
0.0021381
0.00134175
0.000715151
0.000280437
1.36533e-05
-0.00012196
-0.000153255
-0.00012545
-6.00431e-05
-0.0690506
-0.069683
-0.0695529
-0.0696607
-0.0695086
-0.0692044
-0.0687081
-0.0678465
-0.0662791
-0.0632761
-0.0572195
-0.0441082
-0.013672
0.0554848
0.200711
0.139394
0.0329002
0.0129343
0.00649693
0.00407903
0.00272411
0.00171819
0.000990679
0.000486433
0.000156743
-3.85483e-05
-0.000133353
-0.000148904
-9.63709e-05
-0.0692251
-0.0697276
-0.0695844
-0.0696996
-0.0695742
-0.0693239
-0.0689277
-0.0682649
-0.0671014
-0.0649924
-0.0610936
-0.0538323
-0.0413321
-0.032489
-0.0893262
-0.200112
-0.048135
0.00588718
0.00966089
0.00657893
0.00426244
0.00282179
0.00175272
0.000992317
0.000475399
0.000143311
-5.0343e-05
-0.000141752
-0.000155827
-0.000101597
-0.0693167
-0.0697971
-0.069647
-0.0697845
-0.0697179
-0.0695801
-0.0693871
-0.0690994
-0.0686568
-0.068007
-0.0672058
-0.066729
-0.0683128
-0.0782723
-0.106368
-0.0764344
0.00162665
0.0145011
0.0126328
0.00817802
0.00495668
0.00308371
0.00183529
0.000999447
0.000454727
0.000117114
-7.13104e-05
-0.00015295
-0.000157528
-9.79013e-05
-0.0694001
-0.0698656
-0.069719
-0.0698922
-0.0699047
-0.069906
-0.0699481
-0.0700644
-0.070333
-0.070961
-0.0724695
-0.0760344
-0.0839085
-0.101841
-0.158435
-0.169127
0.0839418
0.0387983
0.0191335
0.010127
0.00560636
0.0032683
0.00185379
0.000965139
0.000408857
7.63817e-05
-0.000100013
-0.000168622
-0.00016297
-9.70726e-05
-0.0694747
-0.0699246
-0.0697876
-0.0700025
-0.0700936
-0.0702225
-0.0704644
-0.070886
-0.0716117
-0.0728919
-0.0752221
-0.0795
-0.0870756
-0.0997116
-0.123723
-0.0902055
0.0582343
0.0351954
0.0181428
0.00946307
0.00531457
0.00306289
0.00170343
0.000856043
0.000330489
2.38706e-05
-0.000131371
-0.000183326
-0.000166433
-9.4436e-05
-0.0695289
-0.0699659
-0.0698409
-0.0700938
-0.0702478
-0.0704703
-0.0708444
-0.0714344
-0.0723353
-0.0736935
-0.075708
-0.0785433
-0.0819564
-0.0837662
-0.07517
-0.0424642
0.00200831
0.0123015
0.00957965
0.0062282
0.00401521
0.00246543
0.0014032
0.000691521
0.000234993
-3.17587e-05
-0.00016142
-0.000195692
-0.000164724
-8.50303e-05
-0.06956
-0.0699865
-0.0698746
-0.0701535
-0.0703457
-0.0706206
-0.0710602
-0.0717149
-0.0726305
-0.0738284
-0.0752247
-0.0764111
-0.076225
-0.0720633
-0.0595638
-0.0380285
-0.0150999
-0.00203802
0.00226573
0.0031139
0.0026488
0.00185216
0.00111514
0.000547937
0.000161617
-6.74782e-05
-0.00017479
-0.000192581
-0.000150934
-7.0122e-05
-0.0690775
-0.0696987
-0.0695608
-0.0696719
-0.0695397
-0.0692687
-0.0688412
-0.0681217
-0.0668489
-0.0644707
-0.0597848
-0.0498064
-0.0260229
0.0388112
0.206037
0.133477
0.0229731
0.00765773
0.00391233
0.0026206
0.0017129
0.00102178
0.000518615
0.000173464
-4.87334e-05
-0.000169319
-0.00021327
-0.000192309
-0.000114625
-0.0692529
-0.0697403
-0.0695897
-0.0697092
-0.0695993
-0.0693805
-0.0690448
-0.0685043
-0.0675949
-0.0660277
-0.0633022
-0.0585918
-0.0510461
-0.043932
-0.071668
-0.190198
-0.0537701
-0.000103405
0.00585307
0.00421102
0.00286284
0.0018365
0.00106678
0.000526587
0.000165127
-5.99655e-05
-0.000180837
-0.000222053
-0.000200405
-0.000118428
-0.0693454
-0.069809
-0.069649
-0.0697871
-0.0697307
-0.0696155
-0.0694665
-0.0692676
-0.0690129
-0.068778
-0.0689268
-0.070726
-0.0779497
-0.0976269
-0.123725
-0.0794494
0.00290681
0.0148316
0.0110284
0.00639973
0.00368601
0.00215045
0.00116966
0.000542921
0.000148692
-8.46228e-05
-0.000202012
-0.000234876
-0.00020411
-0.000116818
-0.0694289
-0.0698759
-0.0697169
-0.0698862
-0.0699014
-0.0699139
-0.0699802
-0.0701466
-0.0705303
-0.0714473
-0.0737308
-0.0795868
-0.0951267
-0.139316
-0.286439
-0.0915203
0.139796
0.04883
0.0197228
0.00895567
0.00451279
0.00239259
0.00121365
0.0005201
0.000107835
-0.000123723
-0.000231075
-0.000252897
-0.000212695
-0.000117847
-0.0695034
-0.069934
-0.0697824
-0.069988
-0.0700743
-0.070203
-0.07045
-0.0708875
-0.0716651
-0.0731151
-0.0759863
-0.082016
-0.0954803
-0.12755
-0.194783
-0.0285582
0.104664
0.0456392
0.0191768
0.00864092
0.00433888
0.00223915
0.00109124
0.000424464
3.52562e-05
-0.000174776
-0.000263315
-0.000270219
-0.00021942
-0.000117987
-0.0695575
-0.0699757
-0.0698332
-0.0700724
-0.0702156
-0.0704289
-0.0707927
-0.0713732
-0.0722791
-0.0737032
-0.0759854
-0.0796731
-0.0853851
-0.0916276
-0.0837109
-0.0366337
0.0115466
0.0157341
0.00971286
0.00543135
0.00308513
0.00168483
0.000817861
0.000273913
-5.47591e-05
-0.000228767
-0.000294271
-0.000284563
-0.000220805
-0.000110992
-0.0695859
-0.069997
-0.0698657
-0.0701285
-0.0703058
-0.0705659
-0.0709862
-0.0716163
-0.0725082
-0.0737063
-0.0751851
-0.0766554
-0.0770811
-0.0735931
-0.0606258
-0.0371202
-0.0136696
-0.00168287
0.00173263
0.00219594
0.00173739
0.00110185
0.000549521
0.000140766
-0.000124221
-0.00026373
-0.000308004
-0.000283211
-0.000209262
-9.79117e-05
-0.0690832
-0.0697018
-0.0695643
-0.0696834
-0.0695724
-0.0693457
-0.0689976
-0.0684314
-0.0674617
-0.0656857
-0.0621662
-0.0543297
-0.0337571
0.029439
0.206776
0.135765
0.0164106
0.00275769
0.000831973
0.000435491
0.00020313
1.64771e-06
-0.000159667
-0.000272097
-0.000337052
-0.000352747
-0.000324483
-0.000254736
-0.00013961
-0.0692573
-0.0697402
-0.0695899
-0.0697175
-0.0696271
-0.0694446
-0.0691763
-0.0687634
-0.068099
-0.0670024
-0.0651429
-0.0618274
-0.0556867
-0.0474981
-0.0658967
-0.172437
-0.0517225
-0.00559022
0.000718655
0.00104948
0.000705506
0.000338406
5.2956e-05
-0.000148922
-0.000279159
-0.000348756
-0.000365505
-0.000336078
-0.000264083
-0.000143736
-0.0693506
-0.0698074
-0.069644
-0.0697852
-0.069741
-0.0696498
-0.0695442
-0.0694238
-0.0693136
-0.0693419
-0.0699324
-0.0723129
-0.0797026
-0.098233
-0.11901
-0.0687079
-0.00112492
0.00802494
0.00558431
0.00306406
0.00154347
0.000669804
0.000167356
-0.000125903
-0.000292442
-0.000372897
-0.000388197
-0.000351959
-0.000271502
-0.000145348
-0.0694339
-0.0698728
-0.0697058
-0.0698721
-0.0698897
-0.0699102
-0.0699914
-0.0701823
-0.0706069
-0.0715957
-0.0739981
-0.0800222
-0.0958333
-0.142652
-0.324521
0.00590338
0.142161
0.0404092
0.0140928
0.00565569
0.00239311
0.000942115
0.000232872
-0.000136718
-0.000328088
-0.000411096
-0.00041943
-0.000374527
-0.000285199
-0.00014929
-0.0695077
-0.0699297
-0.0697667
-0.0699623
-0.0700408
-0.0701621
-0.0703986
-0.0708162
-0.0715582
-0.0729518
-0.0757509
-0.081738
-0.09548
-0.130336
-0.216688
-0.00663649
0.101602
0.0382721
0.0143494
0.00569293
0.00232759
0.000855023
0.000147534
-0.000213829
-0.000393078
-0.000460646
-0.000453932
-0.000396336
-0.000297146
-0.000152694
-0.0695606
-0.0699715
-0.0698144
-0.0700378
-0.0701646
-0.0703586
-0.070693
-0.0712245
-0.0720517
-0.0733538
-0.0754671
-0.0789717
-0.0845821
-0.0910449
-0.0836243
-0.0359379
0.00823313
0.0113566
0.00629532
0.00294177
0.00127086
0.000398602
-7.75827e-05
-0.000341934
-0.00047407
-0.000513141
-0.000487106
-0.00041437
-0.000302517
-0.000150118
-0.0695869
-0.0699934
-0.0698452
-0.070089
-0.0702445
-0.0704779
-0.070858
-0.0714247
-0.0722187
-0.0732702
-0.0745516
-0.0758009
-0.0760487
-0.0725544
-0.0599972
-0.0374371
-0.015552
-0.00436267
-0.000799839
8.65327e-05
0.000103661
-9.87612e-05
-0.000305346
-0.000456549
-0.000536567
-0.000546438
-0.0005016
-0.000416402
-0.000294039
-0.000138347
-0.069075
-0.0696961
-0.0695621
-0.0696934
-0.0696026
-0.0694143
-0.0691327
-0.0686953
-0.0679622
-0.0666539
-0.06411
-0.0585206
-0.0440789
0.00093023
0.147111
0.106423
0.00212068
-0.00423567
-0.00340787
-0.00230829
-0.0015955
-0.00117485
-0.000926188
-0.000769932
-0.000657554
-0.000555791
-0.000446944
-0.000322186
-0.000166604
-0.0692501
-0.0697315
-0.0695849
-0.069722
-0.0696497
-0.0694992
-0.0692864
-0.0689687
-0.0684711
-0.0676676
-0.0663138
-0.0638448
-0.0590429
-0.0518305
-0.0619463
-0.135691
-0.0460923
-0.0128503
-0.0054629
-0.00312763
-0.00204834
-0.00146392
-0.00112406
-0.000916046
-0.000777076
-0.000669501
-0.000568688
-0.000460888
-0.000334268
-0.00017248
-0.0693442
-0.069797
-0.0696338
-0.0697793
-0.0697451
-0.0696717
-0.0695942
-0.0695123
-0.0694462
-0.0694872
-0.0699025
-0.0713548
-0.0752668
-0.0832551
-0.0887902
-0.0639193
-0.0218053
-0.00577585
-0.00215681
-0.00150916
-0.00131329
-0.00115361
-0.00100997
-0.000890157
-0.000788361
-0.0006935
-0.000593907
-0.000480531
-0.000345899
-0.000176155
-0.0694273
-0.0698602
-0.0696895
-0.0698538
-0.0698711
-0.0698912
-0.0699685
-0.0701371
-0.0704861
-0.071246
-0.0729669
-0.0769061
-0.0858207
-0.104822
-0.127501
-0.0379126
0.0234425
0.0110824
0.00345134
0.000486616
-0.000567202
-0.000882535
-0.000930672
-0.000890299
-0.000818742
-0.0007312
-0.00062789
-0.000508424
-0.000364738
-0.000184203
-0.0694996
-0.0699163
-0.0697452
-0.0699327
-0.0700002
-0.0701044
-0.0703095
-0.0706594
-0.0712497
-0.0722985
-0.0742745
-0.0781484
-0.0858041
-0.0996874
-0.108548
-0.0357508
0.0197476
0.0118556
0.00404206
0.000701157
-0.000510375
-0.000894899
-0.000974781
-0.000946307
-0.000875006
-0.000778795
-0.000665348
-0.000535504
-0.000382322
-0.000190987
-0.0695503
-0.0699577
-0.06979
-0.0699991
-0.0701062
-0.070271
-0.0705557
-0.0709945
-0.0716417
-0.0725939
-0.0740113
-0.0760926
-0.0787446
-0.0798313
-0.0696856
-0.037976
-0.0089792
-0.000991524
-0.000674142
-0.00106227
-0.00121462
-0.00120674
-0.00113566
-0.00104615
-0.000944567
-0.000829866
-0.000701187
-0.000558092
-0.000390916
-0.000191674
-0.0695745
-0.069979
-0.0698201
-0.0700457
-0.0701758
-0.0703724
-0.0706935
-0.0711576
-0.0717705
-0.0725077
-0.0732616
-0.0736804
-0.072795
-0.0683913
-0.0569909
-0.0386193
-0.020759
-0.0100517
-0.00516958
-0.00301126
-0.00204292
-0.00156907
-0.00130668
-0.0011363
-0.000997484
-0.000861051
-0.000717328
-0.000562862
-0.0003855
-0.000182716
-0.0690573
-0.0696841
-0.0695566
-0.0696981
-0.0696226
-0.0694644
-0.0692302
-0.0688747
-0.0682941
-0.0673067
-0.0655428
-0.062205
-0.0557576
-0.0453488
-0.0585653
-0.153216
-0.0455877
-0.0221092
-0.012656
-0.00785309
-0.00501011
-0.00330392
-0.00226818
-0.00162859
-0.00122306
-0.000945785
-0.000735638
-0.000555771
-0.000382962
-0.000191321
-0.0692327
-0.0697168
-0.0695761
-0.0697222
-0.069664
-0.0695359
-0.0693583
-0.0690948
-0.0686823
-0.0680227
-0.0669447
-0.0651434
-0.0622559
-0.0593253
-0.0653881
-0.0800675
-0.0466622
-0.0226863
-0.0123719
-0.00746324
-0.00476594
-0.00318305
-0.00222036
-0.00161871
-0.00122827
-0.000957489
-0.000750124
-0.000571653
-0.000396507
-0.000196276
-0.0693275
-0.0697809
-0.0696209
-0.0697709
-0.0697435
-0.0696793
-0.0696122
-0.0695321
-0.0694322
-0.0693338
-0.069307
-0.0694942
-0.070069
-0.0706556
-0.0682648
-0.0560095
-0.0334432
-0.0175762
-0.00992941
-0.0062068
-0.00415286
-0.00290668
-0.00211273
-0.00159247
-0.00123859
-0.000981984
-0.000777667
-0.000595249
-0.000412362
-0.00020359
-0.0694106
-0.0698429
-0.069672
-0.0698355
-0.0698502
-0.0698633
-0.0699219
-0.0700372
-0.0702406
-0.0706243
-0.0713768
-0.0728025
-0.0751072
-0.0769365
-0.0708783
-0.0465977
-0.0211672
-0.0106314
-0.00672917
-0.00478221
-0.00352801
-0.0026483
-0.00202552
-0.00158438
-0.00126441
-0.00101992
-0.000815415
-0.000628056
-0.000435384
-0.000214842
-0.0694821
-0.0698975
-0.0697238
-0.0699052
-0.0699612
-0.0700438
-0.0702057
-0.0704635
-0.0708454
-0.0714231
-0.0723188
-0.0736636
-0.075284
-0.0752845
-0.0665296
-0.0419504
-0.0182392
-0.00892266
-0.00587618
-0.00437553
-0.00335137
-0.00259062
-0.00203057
-0.00162032
-0.00131176
-0.00106635
-0.000856093
-0.000659651
-0.000456835
-0.000225039
-0.0695314
-0.0699382
-0.0697662
-0.0699647
-0.0700531
-0.0701854
-0.0704126
-0.0707404
-0.0711656
-0.071675
-0.0722115
-0.0725682
-0.072049
-0.068667
-0.0584478
-0.0402305
-0.0224943
-0.0123831
-0.00761838
-0.00514459
-0.00368918
-0.00275518
-0.00212811
-0.00169245
-0.00137085
-0.00111478
-0.000894034
-0.000685079
-0.000468384
-0.000226907
-0.069554
-0.0699589
-0.0697959
-0.0700077
-0.0701145
-0.0702726
-0.0705298
-0.0708771
-0.0712779
-0.0716359
-0.0717427
-0.0711484
-0.0689532
-0.0636588
-0.0537
-0.0397096
-0.0258429
-0.0157716
-0.00964896
-0.00615711
-0.00415906
-0.00297628
-0.00224217
-0.00175935
-0.00141444
-0.00114434
-0.000911498
-0.000691617
-0.000463938
-0.000217001
-0.0690331
-0.0696657
-0.0695487
-0.0697
-0.0696364
-0.069492
-0.0692855
-0.0689712
-0.0684671
-0.0676541
-0.0663431
-0.0642896
-0.0614889
-0.0591607
-0.0628337
-0.067004
-0.0471259
-0.0284953
-0.0173269
-0.0108033
-0.00686602
-0.00447678
-0.00301361
-0.00210476
-0.00152847
-0.00113917
-0.000853078
-0.000627257
-0.000421375
-0.000206723
-0.0692105
-0.0696985
-0.0695675
-0.0697207
-0.0696709
-0.0695546
-0.069394
-0.0691533
-0.0687724
-0.0681657
-0.067207
-0.0657452
-0.0637472
-0.0616898
-0.0609682
-0.0583533
-0.0429671
-0.0269279
-0.0166206
-0.0103901
-0.00664013
-0.00436551
-0.00296799
-0.00209371
-0.00153076
-0.00114907
-0.000869791
-0.000643932
-0.000436545
-0.00021268
-0.0693063
-0.0697612
-0.0696101
-0.069765
-0.0697411
-0.0696796
-0.0696122
-0.0695189
-0.0693686
-0.069127
-0.0687408
-0.0680982
-0.0669553
-0.0646903
-0.0598824
-0.0506493
-0.0364402
-0.0234861
-0.0147457
-0.00936691
-0.00611038
-0.00411295
-0.00286426
-0.00206652
-0.00153948
-0.00117282
-0.000897996
-0.000669299
-0.000454549
-0.000220419
-0.0693904
-0.0698225
-0.0696589
-0.0698243
-0.0698362
-0.069841
-0.0698797
-0.0699444
-0.0700213
-0.0700986
-0.0701392
-0.0699848
-0.0691221
-0.0661882
-0.0587979
-0.0459186
-0.0312045
-0.0198621
-0.0126484
-0.00825632
-0.00555927
-0.00386306
-0.00277122
-0.00205192
-0.00156174
-0.00120951
-0.000937435
-0.00070483
-0.000480146
-0.000234102
-0.0694626
-0.0698764
-0.0697082
-0.0698887
-0.0699364
-0.070001
-0.0701272
-0.0703087
-0.0705238
-0.070733
-0.070841
-0.0705728
-0.0692247
-0.0652743
-0.0565675
-0.0428949
-0.0285933
-0.0181356
-0.0116511
-0.0077262
-0.00530054
-0.00375709
-0.00274962
-0.00207299
-0.00160141
-0.0012551
-0.000980023
-0.000739071
-0.000504012
-0.000246365
-0.069512
-0.0699161
-0.069749
-0.0699444
-0.07002
-0.0701274
-0.0703096
-0.0705512
-0.0708027
-0.0709696
-0.0708558
-0.0700556
-0.0677822
-0.0627576
-0.0537104
-0.0411428
-0.0283398
-0.0184586
-0.0119548
-0.00790531
-0.00539763
-0.00382053
-0.00280344
-0.00212469
-0.00165278
-0.00130156
-0.0010195
-0.000766173
-0.000516417
-0.000249266
-0.0695347
-0.069936
-0.0697784
-0.0699853
-0.0700767
-0.0702068
-0.0704152
-0.0706732
-0.0709089
-0.070976
-0.070597
-0.0692807
-0.0662552
-0.0605719
-0.0516695
-0.0403164
-0.0288059
-0.0193479
-0.0126698
-0.00833828
-0.00562928
-0.00394493
-0.00287715
-0.00217547
-0.00168989
-0.00133059
-0.00103834
-0.000773121
-0.00051319
-0.000238577
0.283363
0.0316178
-0.056312
0.0658018
0.162612
-0.0181971
-0.0325296
-0.091027
0.188554
-0.0679481
-0.339801
-0.0608713
0.0729005
-0.380548
-0.110858
0.0671014
-0.0834002
0.013403
0.101607
0.0191734
-0.0529365
-0.0149832
-0.0207295
-0.0868399
-0.278751
-0.133953
-0.241595
-0.219589
-0.0792843
-0.297548
-0.117993
-0.227228
-0.0775981
-0.0084799
-0.142441
-0.230399
-0.158184
-0.31434
-0.082903
-0.00692431
-0.207704
-0.0585884
-0.250177
-0.0103471
-0.0581979
-0.174717
-0.144001
-0.236133
-0.112141
-0.138452
0.0385556
-0.154947
0.0847796
-0.186878
0.0150195
-0.0905366
0.0617343
-0.0701227
-0.250416
0.207713
-0.0572091
-0.253034
0.135099
-0.286319
-0.05729
0.110921
-0.294951
-0.0801733
-0.225049
-0.131911
-0.131141
-0.260359
-0.196846
-0.220869
-0.0846302
0.115765
-0.0800106
0.114126
-0.105299
0.131707
-0.000159501
0.169007
-0.0543882
-0.234546
0.207523
-0.0512159
-0.224886
0.133819
-0.271555
-0.0572062
0.142183
-0.261249
-0.0564073
-0.189781
-0.251015
-0.0801262
-0.340775
-0.126313
-0.311655
-0.065648
0.184691
0.00949384
0.201959
-0.000930676
0.213914
0.0472464
0.228255
-0.0490246
-0.214632
0.180589
-0.0491757
-0.186428
0.148638
-0.24949
-0.0487901
0.149763
-0.215602
-0.038386
-0.116707
-0.301307
-0.0660509
-0.163102
-0.0886946
-0.155686
-0.0790519
0.201786
0.0438837
0.210246
-0.0240506
0.0575774
-0.0157444
0.0638249
-0.052049
-0.169506
-0.0297987
-0.112027
-0.0626298
-0.0872511
0.216612
-0.196176
-0.0382413
-0.134875
-0.0736223
-0.0897879
-0.0494828
-0.221201
0.235107
0.171448
0.104379
0.177736
-0.546431
-0.790359
-0.549241
0.0180854
0.22322
0.152232
0.134067
-0.0347696
0.166525
0.0742374
0.0498415
-0.0329946
-0.0249707
-0.0329777
-0.0576553
-0.0744027
-0.109326
-0.234334
-0.0258295
-0.0932947
-0.250158
-0.0783732
-0.436745
0.680994
-0.37294
-0.430834
-0.306366
0.737507
-0.0303543
-0.0549874
-0.0292333
-0.0832955
-0.119193
-0.0976919
-0.132301
-0.255181
-0.0227417
-0.0904415
-0.247773
-0.0921905
-0.342466
0.746025
-0.264135
-0.357257
-0.263102
0.75385
-0.0226248
-0.0749973
-0.0614726
-0.0995491
-0.125482
-0.0968254
-0.106162
0.0420983
-0.0687346
-0.234365
-0.00501184
0.218261
0.761661
-0.260761
-0.0160866
0.333627
0.0291433
0.0508496
0.0310371
0.0360362
0.0217643
0.053699
0.0313097
-0.185919
-0.0773188
-0.059464
-0.112419
-0.162568
-0.082038
-0.0573908
0.0226774
-0.0462772
-0.00455361
-0.109051
0.02709
-0.042882
-0.00182306
-0.32195
-0.478469
-0.794895
-0.321767
-0.775047
-0.44865
-0.097688
-0.146605
-0.207103
-0.137489
-0.130175
-0.223019
-0.251252
-0.000321512
-0.139395
0.0521745
-0.110498
-0.0412526
-0.145028
0.0513908
-0.134868
-0.101651
-0.120636
-0.133638
-0.212848
-0.12893
-0.189068
-0.186057
-0.127914
-0.198393
-0.232046
-0.177073
0.479042
0.0208555
-0.147108
0.325014
0.0456834
0.0470234
0.0908263
0.0466733
0.103826
0.0454062
0.12639
0.0543903
-0.153311
-0.0842706
-0.0545364
-0.177001
-0.140245
-0.0952345
-0.0520588
0.0557194
-0.03749
0.00673661
-0.043918
0.0977825
-0.0299273
0.0184149
-0.282998
-0.420646
-0.750351
-0.291508
-0.73406
-0.401214
-0.101251
-0.229138
-0.221264
-0.12721
-0.0999068
-0.255381
-0.202615
-0.00879777
-0.103613
0.0938702
-0.0770151
-0.0150444
-0.0603331
0.110379
-0.230358
-0.13573
-0.210118
-0.146986
-0.263956
-0.143715
-0.246851
-0.341882
-0.317368
-0.317331
-0.38124
-0.364808
0.906762
0.146129
-0.0530867
0.69525
0.19764
0.0626109
0.151944
0.0653075
0.151541
0.0563521
0.16334
0.0620087
-0.1382
-0.0983728
-0.0510718
-0.225297
-0.137277
-0.101458
-0.0512024
0.119135
-0.0271993
0.0235094
-0.0050706
0.134826
-0.0261814
0.0238833
-0.231887
-0.382892
-0.705906
-0.255653
-0.672139
-0.335334
-0.0900026
-0.240123
-0.178531
-0.09649
-0.0784505
-0.141278
-0.0846296
-0.0104295
-0.0453983
0.107034
-0.0656566
-0.0259952
-0.0427203
0.029694
-0.251616
-0.139879
-0.23769
-0.115041
-0.151808
-0.113724
-0.146365
-0.399485
-0.407371
-0.277444
-0.331592
-0.339749
0.639182
0.240092
-0.00568253
1.08868
0.163528
0.0537658
0.150035
0.0572474
0.0489711
0.0240285
0.0543465
0.0272197
-0.13198
-0.0990342
-0.0515539
-0.131057
-0.0686845
-0.082582
-0.0501244
0.12288
-0.0279199
0.0196627
-0.0270114
0.0412342
-0.0354318
-0.00220166
-0.0818061
-0.171142
-0.603412
-0.556119
-0.15831
-0.364983
-0.100586
-0.0742334
-0.122134
-0.0674578
-0.0776955
-0.0561832
-0.0748577
-0.0519927
0.0227318
-0.0313713
0.0281257
-0.0462371
-0.0204574
-0.0418615
-0.0165701
0.125289
0.284407
0.949702
0.142828
0.20735
0.326472
0.179352
-0.419262
-0.839523
0.284613
-0.36705
-2.98114
-0.116986
-0.0350319
-0.285341
-0.488697
-0.409989
-0.645616
-0.360569
-0.313881
0.251054
-0.822389
-0.819982
-0.21355
0.240445
-0.40917
0.0318574
0.18062
-0.0782988
-0.343107
-0.386523
0.940728
-0.398131
-0.660752
-0.494387
-0.336566
-0.166374
0.117063
-0.0795896
-0.125112
-0.35538
-0.410858
-0.48515
-0.808715
-0.780829
-0.355836
-0.551806
-0.295334
-0.385309
-0.323055
-0.329165
-0.238833
-0.0210969
-0.0866045
-0.0836652
-0.246386
-0.297093
-0.293636
-0.318116
-0.298364
-0.394001
0.744769
-0.268344
-0.293548
-0.37225
0.741393
-0.307131
-0.291118
-0.299091
-0.294638
-0.253461
-0.0229034
-0.0844832
-0.09316
-0.255346
-0.306193
-0.358216
-0.291998
-0.332121
-0.303284
0.777921
-0.301582
-0.257175
-0.311258
0.754408
-0.329475
-0.312984
-0.0224747
-0.0776899
-0.0775678
-0.0378038
-0.0798335
-0.159397
-0.158946
-0.164733
-0.111764
-0.176045
-0.0956908
-0.146517
-0.0608548
-0.262797
-0.254411
-0.230191
-0.0899849
-0.0872375
-0.116022
-0.0542281
-0.0946607
-0.158304
-0.171731
-0.154698
0.152385
-0.0259668
0.18074
0.0966607
-0.209225
0.062571
0.210487
0.240579
-0.0283385
-0.124654
0.0119748
0.202867
0.158237
0.118159
0.08487
0.0305074
0.0390069
-0.0122092
0.152815
0.218772
-0.213053
-0.0209336
-0.0192042
0.317513
0.156291
0.102712
-0.0663285
0.0557464
0.142656
0.143414
0.241066
0.241446
-0.119458
0.0517139
0.022278
0.353098
0.157324
0.0882874
0.0815123
0.0568194
0.13441
0.074283
0.255169
-0.128097
0.248085
-0.808499
-0.17646
-0.784943
0.252993
-0.123218
0.255294
-0.762115
-0.779313
-0.108688
0.252386
-0.305932
-0.423294
-0.753327
-0.770211
-0.300875
-0.445055
-0.247275
-0.214765
-0.2875
-0.117552
-0.139357
-0.160923
-0.160569
-0.170461
-0.17787
-0.10918
-0.204228
-0.220865
-0.30792
-0.271724
-0.260243
-0.218427
-0.208891
-0.340093
-0.294564
-0.188063
-0.251974
-0.241431
-0.202617
-0.203041
-0.102129
-0.251082
-0.214298
0.388818
0.120455
0.160235
0.065932
0.250316
0.0463051
0.123717
0.522432
0.0708759
-0.0447723
0.362431
0.116746
0.407607
0.163103
0.11238
0.11513
0.263801
0.15033
0.128341
0.489824
-0.133997
0.120966
0.0768263
0.682662
0.40024
0.144804
0.142518
0.20234
0.152977
0.202774
0.572905
0.533893
-0.0329903
0.185165
0.135984
0.71364
0.41846
0.157387
0.22252
0.20027
0.21279
0.174625
0.582363
-0.100172
0.255431
-0.758724
-0.106638
-0.742823
0.257661
-0.0974881
0.260655
-0.719021
-0.739724
-0.0908282
0.257988
-0.276296
-0.386983
-0.709855
-0.731135
-0.263166
-0.399405
-0.350359
-0.168088
-0.385732
-0.298712
-0.279737
-0.280275
-0.344571
-0.318102
-0.263991
-0.0706773
-0.304187
-0.334653
-0.417799
-0.419487
-0.406004
-0.400262
-0.158058
-0.393649
-0.391724
-0.30232
-0.401884
-0.369111
-0.381491
-0.350495
-0.0689309
-0.334947
-0.315644
0.769877
0.210327
0.258802
0.189284
0.585398
0.226303
0.27363
0.897179
0.202476
0.0335104
0.725148
0.243759
0.751884
0.269841
0.239574
0.215501
0.593478
0.287381
0.26485
0.918625
-0.0384748
0.243344
0.215903
1.08649
0.781413
0.216624
0.274429
0.30607
0.266341
0.304128
0.915974
0.905726
0.0390583
0.262028
0.25379
1.016
0.761054
0.230565
0.312274
0.29083
0.311446
0.286585
0.858117
-0.0790696
0.260869
-0.715074
-0.088044
-0.681944
0.262239
-0.0750851
0.253476
-0.618693
-0.675547
-0.0639678
0.261924
-0.219105
-0.19322
-0.615
-0.665985
-0.18156
-0.326596
-0.381671
-0.0908185
-0.281228
-0.393562
-0.36184
-0.260235
-0.330516
-0.305035
-0.330426
-0.0704745
-0.254134
-0.919186
-0.222289
-0.163095
-0.175932
-0.247045
-0.258671
-0.180874
-0.885977
-0.0852869
-0.138331
-0.0903701
-0.233046
-0.0567284
-0.156503
-0.915862
-0.211526
-0.173208
-0.153742
-0.253729
-0.232655
-0.17662
-0.884657
-0.0699951
-0.0838443
-0.127943
-0.0555578
-0.213815
-0.149766
0.593378
0.264222
0.286199
0.159485
0.918911
0.207102
0.235953
0.537852
0.25243
0.0086099
1.01432
0.167896
0.554779
0.288993
0.270471
0.166176
0.858418
0.2384
0.210503
0.599782
-0.0197074
0.0309431
-0.00606473
0.0895556
-0.0365815
0.0655969
0.52913
0.105861
0.0540723
0.0830063
0.117274
0.139713
0.0958708
0.610094
-0.00812722
-0.00192136
0.0382775
-0.0354753
0.0944244
0.0678112
0.526638
0.112364
0.084794
0.0628591
0.142572
0.123392
0.0959933
-0.083373
0.249007
-0.604065
-0.654515
-0.0568464
-0.362022
-0.127247
-0.0912654
0.20111
0.17462
0.033895
0.215269
0.272551
-0.00245809
0.106754
0.0502255
0.173077
0.34448
-0.0439656
-0.424437
-0.124605
-0.371781
0.000144589
-0.0311603
9.95045e-05
-0.0731195
-0.0221617
-0.0480034
-0.0167485
0.0424617
-0.268175
0.0391807
-0.264961
0.00163535
0.0301164
0.0235809
-0.0335047
-0.0117616
0.00967079
0.0135124
-0.0809072
-0.330993
-0.0136256
-0.421061
0.16164
-0.0217804
-0.0448359
0.041094
0.159653
-0.0337849
-0.0402378
0.0657348
0.210328
0.050838
0.208463
0.041203
0.0667291
0.217036
0.0447454
-0.0203337
0.0111748
0.116861
0.0213387
-0.0449708
-0.0113373
-0.189458
-0.0992527
-0.101937
-0.0788685
-0.189313
-0.123642
-0.14154
-0.0777873
-0.0866569
-0.0133506
-0.212205
-0.114602
-0.131978
-0.064917
0.157863
-0.0348758
-0.0385996
0.0324252
0.156076
-0.0387098
-0.0380794
0.064153
0.219849
0.0551953
0.206638
0.0619511
0.0563132
0.221584
0.0332886
-0.0233645
0.00359058
0.132876
0.0273467
-0.0268048
-0.0040042
-0.170074
-0.107905
-0.106882
-0.0695268
-0.162806
-0.110669
-0.110126
-0.0885324
-0.0956114
-0.0304038
-0.182523
-0.090892
-0.0980225
-0.0392607
0.154046
-0.0398077
-0.037498
0.0114813
0.127611
-0.04509
-0.0411264
0.0719782
0.224496
0.0574016
0.20406
0.0707095
0.0556999
0.224076
0.0277605
-0.0210618
-0.00174441
0.113089
0.017362
-0.0217124
-0.00807046
-0.153106
-0.103299
-0.0972164
-0.0619653
-0.132663
-0.0880551
-0.0837179
-0.0826074
-0.0862081
-0.0312366
-0.148061
-0.0719289
-0.0764941
-0.0368371
0.101954
-0.0478169
-0.0450335
-0.0366799
-0.0250017
-0.0564152
-0.0587318
0.0120308
0.179564
0.0254422
0.0797401
0.053794
-0.00479464
-0.0372625
0.0123975
-0.0247745
-0.011244
-0.0350953
-0.0187808
-0.0387609
-0.0227307
-0.122357
-0.0827631
-0.0785731
-0.0635192
-0.0800358
-0.0703247
-0.0648847
-0.0672049
-0.0723952
-0.0381369
-0.0824352
-0.0562147
-0.0607669
-0.0412255
-0.161816
-0.0668893
-0.0903958
-0.058931
-0.0613275
-0.0609257
-0.0592275
-0.0559835
-0.0919611
-0.0569778
-0.0611599
-0.0497924
-0.057515
-0.04609
0.102906
0.407472
0.437449
0.228057
0.25666
0.371692
0.267139
-0.0239445
-0.0132084
-0.0127205
-0.0650221
-0.0802989
-0.0299712
0.141528
-0.579279
-0.462242
-0.511093
-0.554079
0.0808005
0.228713
0.211269
0.0717599
0.0684651
0.0501526
0.177807
0.000489253
-0.224366
-0.592588
-0.239774
-0.575
-0.127477
-0.248566
-0.134773
0.115637
0.0425704
0.105766
-0.270525
-0.420373
-0.176594
-0.483753
-0.265051
0.126046
-0.307417
-0.0410374
0.0259654
-0.320181
-0.354254
-0.34677
-0.283651
-0.644392
-0.320814
-0.623789
-0.18249
-0.470276
-0.0322833
0.0391944
-0.010079
0.030438
-0.0859968
-0.0275861
0.0507633
-0.512208
-0.469861
-0.420815
-0.551383
-0.452845
-0.322054
-0.329758
-0.446873
-0.280536
-0.163845
-0.0831485
0.0425808
-0.295491
0.0844763
-0.0300273
0.0322062
-0.269828
0.0370507
-0.277495
-0.264072
-0.117916
-0.000613177
0.118988
0.1053
-0.249645
-0.0175354
-0.445202
-0.320565
-0.31773
-0.446092
-0.478491
-0.382738
-0.343501
-0.518791
-0.222081
0.00484999
-0.0544294
0.130856
-0.232797
0.138523
0.0230566
0.0340598
-0.319844
0.0124295
-0.285872
-0.193528
-0.0561725
0.0754263
0.157404
0.145754
-0.177501
0.0211202
-0.640521
-0.393535
-0.500101
-0.53
-0.176741
-0.565711
-0.167439
-0.276109
-0.175153
-0.553326
-0.17327
0.0526927
0.201664
0.219497
0.0591842
0.0486638
0.0633569
0.216352
-0.170826
-0.244711
-0.530803
-0.158616
-0.541154
-0.15851
-0.164281
-0.263676
-0.288169
0.03159
0.0922062
-0.227458
-0.0072419
-0.27238
-0.414656
-0.613795
-0.222233
-0.32179
-0.319868
-0.607461
-0.262864
-0.218459
0.135258
-0.24705
0.0120348
0.0318668
-0.232937
-0.260551
-0.332602
-0.280192
-0.583026
-0.237281
-0.591378
-0.220604
-0.374192
-0.156517
-0.523754
-0.147383
-0.23868
-0.158947
-0.514127
-0.149409
0.066917
0.207338
0.224185
0.057759
0.0573939
0.0687194
0.22227
-0.14964
-0.22548
-0.495435
-0.139244
-0.508526
-0.139653
-0.146501
-0.211088
-0.239588
0.0332009
0.125089
-0.20903
0.0259035
-0.225253
-0.347979
-0.574174
-0.213759
-0.277032
-0.335104
-0.564217
-0.219902
-0.196909
0.137105
-0.218982
0.0385862
0.037397
-0.190833
-0.220753
-0.328641