/*--------------------------------*- C++ -*----------------------------------*\
| =========                 |                                                 |
| \\      /  F ield         | OpenFOAM: The Open Source CFD Toolbox           |
|  \\    /   O peration     | Version:  2012                                  |
|   \\  /    A nd           | Website:  www.openfoam.com                      |
|    \\/     M anipulation  |                                                 |
\*---------------------------------------------------------------------------*/
FoamFile
{
    version     2.0;
    format      ascii;
    class       volScalarField::Internal;
    location    "0.105/fluid";
    object      V0;
}
// * * * * * * * * * * * * * * * * * * * * * * * * * * * * * * * * * * * * * //

dimensions      [0 3 0 0 0 0 0];


value           nonuniform List<scalar> 
131374
(
4.25188e-05
4.25183e-05
4.25181e-05
4.25186e-05
4.25195e-05
4.25205e-05
4.2522e-05
4.25234e-05
4.25248e-05
4.25257e-05
4.25247e-05
4.25176e-05
4.24882e-05
4.23057e-05
6.9608e-07
4.23653e-05
4.24706e-05
4.24852e-05
4.2489e-05
4.24929e-05
4.2498e-05
4.25032e-05
4.2508e-05
4.25126e-05
4.25145e-05
4.25145e-05
4.25167e-05
4.25151e-05
4.25266e-05
4.25247e-05
4.25223e-05
4.25225e-05
4.25223e-05
4.25217e-05
4.25214e-05
4.25223e-05
4.25229e-05
4.25233e-05
4.2524e-05
4.25239e-05
4.25182e-05
4.24997e-05
5.28445e-06
4.21507e-05
4.24724e-05
4.24824e-05
4.24867e-05
4.24905e-05
4.24949e-05
4.24995e-05
4.25035e-05
4.25066e-05
4.25101e-05
4.25129e-05
4.25127e-05
4.25126e-05
4.25117e-05
4.25348e-05
4.25316e-05
4.25271e-05
4.2527e-05
4.25264e-05
4.25235e-05
4.25188e-05
4.25192e-05
4.25197e-05
4.252e-05
4.25229e-05
4.25307e-05
4.25442e-05
4.25578e-05
5.27394e-06
4.23844e-05
4.24669e-05
4.24759e-05
4.24837e-05
4.24902e-05
4.24951e-05
4.25007e-05
4.25045e-05
4.25062e-05
4.25091e-05
4.25112e-05
4.25122e-05
4.25101e-05
4.25084e-05
4.25416e-05
4.25377e-05
4.25323e-05
4.25331e-05
4.25329e-05
4.25261e-05
4.25211e-05
4.25196e-05
4.25196e-05
4.25201e-05
4.25233e-05
4.25311e-05
4.25416e-05
4.25403e-05
5.28612e-06
4.23588e-05
4.2418e-05
4.24568e-05
4.24796e-05
4.24905e-05
4.24956e-05
4.2501e-05
4.25041e-05
4.25072e-05
4.2511e-05
4.25114e-05
4.25098e-05
4.25089e-05
4.25065e-05
4.25466e-05
4.25442e-05
4.25387e-05
4.25377e-05
4.2536e-05
4.25302e-05
4.25254e-05
4.25233e-05
4.2521e-05
4.25225e-05
4.25257e-05
4.25299e-05
4.25297e-05
4.25008e-05
4.23988e-05
4.26923e-05
4.24755e-05
4.24289e-05
4.24597e-05
4.24816e-05
4.24957e-05
4.25024e-05
4.25065e-05
4.25075e-05
4.25076e-05
4.25111e-05
4.25106e-05
4.25075e-05
4.25077e-05
4.2507e-05
4.25515e-05
4.25486e-05
4.25445e-05
4.25413e-05
4.25361e-05
4.25337e-05
4.25294e-05
4.25281e-05
4.2527e-05
4.25279e-05
4.25309e-05
4.25325e-05
4.25313e-05
4.25237e-05
4.25246e-05
4.25908e-05
4.25633e-05
4.25042e-05
4.24943e-05
4.24992e-05
4.25072e-05
4.25121e-05
4.25133e-05
4.25124e-05
4.25108e-05
4.25125e-05
4.25086e-05
4.25075e-05
4.2508e-05
4.25063e-05
4.25544e-05
4.2552e-05
4.25475e-05
4.25425e-05
4.25374e-05
4.25351e-05
4.25327e-05
4.25326e-05
4.2532e-05
4.25331e-05
4.25362e-05
4.25402e-05
4.25447e-05
4.25518e-05
4.25659e-05
4.25846e-05
4.2576e-05
4.25482e-05
4.25295e-05
4.25227e-05
4.25218e-05
4.25213e-05
4.25194e-05
4.25167e-05
4.25156e-05
4.25143e-05
4.25103e-05
4.25092e-05
4.25091e-05
4.25064e-05
4.25188e-05
4.25182e-05
4.25178e-05
4.25188e-05
4.25188e-05
4.252e-05
4.25212e-05
4.25231e-05
4.25241e-05
4.25249e-05
4.25242e-05
4.25189e-05
4.25038e-05
4.24777e-05
4.23971e-05
4.25976e-05
4.25188e-05
4.24959e-05
4.24915e-05
4.24911e-05
4.24939e-05
4.24988e-05
4.25033e-05
4.2509e-05
4.25131e-05
4.25143e-05
4.25161e-05
4.25159e-05
4.25153e-05
4.25264e-05
4.25247e-05
4.25224e-05
4.25222e-05
4.2521e-05
4.25211e-05
4.25207e-05
4.25211e-05
4.25217e-05
4.25226e-05
4.25231e-05
4.25237e-05
4.25243e-05
4.2539e-05
4.26542e-05
4.28551e-05
4.26668e-05
4.2533e-05
4.24979e-05
4.24908e-05
4.24916e-05
4.24954e-05
4.25001e-05
4.25039e-05
4.25078e-05
4.25108e-05
4.25128e-05
4.25135e-05
4.25126e-05
4.25116e-05
4.25345e-05
4.25322e-05
4.2527e-05
4.25269e-05
4.2525e-05
4.25218e-05
4.25179e-05
4.25174e-05
4.25175e-05
4.25185e-05
4.25209e-05
4.25296e-05
4.25439e-05
4.25674e-05
4.26095e-05
4.28165e-05
4.26446e-05
4.25111e-05
4.24869e-05
4.24855e-05
4.24898e-05
4.24947e-05
4.25003e-05
4.2506e-05
4.2507e-05
4.25097e-05
4.25119e-05
4.25122e-05
4.25104e-05
4.25083e-05
4.25405e-05
4.25383e-05
4.25327e-05
4.25322e-05
4.25307e-05
4.25259e-05
4.25203e-05
4.25167e-05
4.25172e-05
4.25189e-05
4.25214e-05
4.25302e-05
4.25432e-05
4.2541e-05
4.25412e-05
5.33693e-06
4.24106e-05
4.24369e-05
4.24665e-05
4.24806e-05
4.24889e-05
4.24948e-05
4.25e-05
4.25049e-05
4.2508e-05
4.25102e-05
4.25114e-05
4.25101e-05
4.25095e-05
4.25083e-05
4.25458e-05
4.25444e-05
4.25387e-05
4.25369e-05
4.25342e-05
4.25294e-05
4.25239e-05
4.25218e-05
4.25209e-05
4.25225e-05
4.25243e-05
4.25295e-05
4.25324e-05
4.25122e-05
4.24366e-05
4.26998e-05
4.24826e-05
4.24375e-05
4.24645e-05
4.24818e-05
4.24933e-05
4.2501e-05
4.25049e-05
4.25071e-05
4.25089e-05
4.25105e-05
4.25097e-05
4.25084e-05
4.25081e-05
4.25091e-05
4.25511e-05
4.25486e-05
4.25436e-05
4.25405e-05
4.25361e-05
4.25314e-05
4.25284e-05
4.25278e-05
4.2527e-05
4.25274e-05
4.25289e-05
4.25304e-05
4.25314e-05
4.2529e-05
4.25305e-05
4.25926e-05
4.25656e-05
4.2509e-05
4.24972e-05
4.25002e-05
4.25062e-05
4.25101e-05
4.25108e-05
4.25116e-05
4.25114e-05
4.25111e-05
4.25097e-05
4.25098e-05
4.25069e-05
4.25067e-05
4.25543e-05
4.25514e-05
4.25465e-05
4.25426e-05
4.25376e-05
4.25333e-05
4.25323e-05
4.25319e-05
4.2531e-05
4.25317e-05
4.25345e-05
4.25376e-05
4.2543e-05
4.25522e-05
4.25671e-05
4.25854e-05
4.25766e-05
4.25491e-05
4.25302e-05
4.25226e-05
4.2521e-05
4.25202e-05
4.2518e-05
4.25161e-05
4.25153e-05
4.25135e-05
4.25111e-05
4.25099e-05
4.25087e-05
4.2507e-05
4.25187e-05
4.2518e-05
4.25182e-05
4.25184e-05
4.25187e-05
4.252e-05
4.25218e-05
4.25224e-05
4.25231e-05
4.25237e-05
4.25227e-05
4.25184e-05
4.25068e-05
4.24701e-05
4.22817e-05
4.24396e-05
4.25282e-05
4.25118e-05
4.24982e-05
4.24938e-05
4.24955e-05
4.25001e-05
4.25053e-05
4.25102e-05
4.25132e-05
4.25151e-05
4.25156e-05
4.25162e-05
4.25161e-05
4.25259e-05
4.25246e-05
4.25232e-05
4.25218e-05
4.25205e-05
4.25198e-05
4.25198e-05
4.25189e-05
4.25191e-05
4.25205e-05
4.25214e-05
4.25218e-05
4.25238e-05
4.25357e-05
4.25971e-05
4.26872e-05
4.26263e-05
4.25487e-05
4.25094e-05
4.24958e-05
4.24937e-05
4.24965e-05
4.2501e-05
4.25059e-05
4.25093e-05
4.25125e-05
4.25139e-05
4.25133e-05
4.25125e-05
4.2513e-05
4.25338e-05
4.25318e-05
4.25289e-05
4.25265e-05
4.25248e-05
4.25201e-05
4.25157e-05
4.25145e-05
4.25145e-05
4.25155e-05
4.25177e-05
4.25257e-05
4.25416e-05
4.25734e-05
4.26339e-05
4.27565e-05
4.2653e-05
4.2527e-05
4.24947e-05
4.2488e-05
4.24898e-05
4.24945e-05
4.25008e-05
4.25064e-05
4.25094e-05
4.25111e-05
4.25129e-05
4.25129e-05
4.25111e-05
4.25097e-05
4.25404e-05
4.25378e-05
4.25345e-05
4.25313e-05
4.25289e-05
4.2523e-05
4.25167e-05
4.25143e-05
4.25152e-05
4.25148e-05
4.25173e-05
4.25256e-05
4.25399e-05
4.25501e-05
4.25313e-05
5.32848e-06
4.23877e-05
4.24472e-05
4.24734e-05
4.24832e-05
4.24911e-05
4.24944e-05
4.25007e-05
4.25068e-05
4.251e-05
4.25117e-05
4.2512e-05
4.25123e-05
4.25113e-05
4.25096e-05
4.25466e-05
4.25424e-05
4.25393e-05
4.25355e-05
4.25324e-05
4.25256e-05
4.25223e-05
4.25188e-05
4.25203e-05
4.25205e-05
4.25215e-05
4.25244e-05
4.25266e-05
4.25218e-05
4.24547e-05
4.2703e-05
4.24848e-05
4.24524e-05
4.24751e-05
4.24878e-05
4.24962e-05
4.25006e-05
4.25031e-05
4.25067e-05
4.25094e-05
4.2511e-05
4.25107e-05
4.25113e-05
4.25111e-05
4.25083e-05
4.25504e-05
4.25473e-05
4.25437e-05
4.25389e-05
4.25343e-05
4.2529e-05
4.2526e-05
4.25254e-05
4.25261e-05
4.25253e-05
4.25251e-05
4.25266e-05
4.25293e-05
4.25319e-05
4.254e-05
4.25994e-05
4.25725e-05
4.25179e-05
4.25056e-05
4.25048e-05
4.25079e-05
4.25099e-05
4.25097e-05
4.25103e-05
4.25114e-05
4.25122e-05
4.25108e-05
4.25103e-05
4.25089e-05
4.25076e-05
4.25527e-05
4.25506e-05
4.25466e-05
4.25419e-05
4.25358e-05
4.25314e-05
4.25296e-05
4.25299e-05
4.253e-05
4.25303e-05
4.25313e-05
4.25348e-05
4.25412e-05
4.2551e-05
4.25665e-05
4.25849e-05
4.25773e-05
4.25518e-05
4.25337e-05
4.25246e-05
4.25211e-05
4.25189e-05
4.25159e-05
4.2515e-05
4.25154e-05
4.25143e-05
4.25113e-05
4.25099e-05
4.25091e-05
4.2508e-05
4.25187e-05
4.2518e-05
4.25174e-05
4.25174e-05
4.25176e-05
4.25192e-05
4.25206e-05
4.25222e-05
4.25223e-05
4.25223e-05
4.25209e-05
4.25158e-05
4.25016e-05
4.24592e-05
4.22849e-05
4.24155e-05
4.25107e-05
4.25097e-05
4.25003e-05
4.24963e-05
4.24977e-05
4.2502e-05
4.25068e-05
4.25112e-05
4.25138e-05
4.25152e-05
4.25166e-05
4.25174e-05
4.25167e-05
4.25259e-05
4.25242e-05
4.25221e-05
4.25212e-05
4.25181e-05
4.2518e-05
4.2518e-05
4.25167e-05
4.25164e-05
4.25177e-05
4.25185e-05
4.25173e-05
4.25168e-05
4.25221e-05
4.25736e-05
4.26543e-05
4.25896e-05
4.25335e-05
4.25086e-05
4.24992e-05
4.24968e-05
4.2499e-05
4.25025e-05
4.25078e-05
4.25114e-05
4.2513e-05
4.25143e-05
4.25143e-05
4.25146e-05
4.25139e-05
4.25336e-05
4.25305e-05
4.2527e-05
4.25251e-05
4.25211e-05
4.25175e-05
4.25145e-05
4.25123e-05
4.25119e-05
4.25119e-05
4.25135e-05
4.2519e-05
4.25325e-05
4.25608e-05
4.26186e-05
4.27135e-05
4.26135e-05
4.25151e-05
4.24939e-05
4.24886e-05
4.24922e-05
4.2496e-05
4.25016e-05
4.25084e-05
4.25119e-05
4.25123e-05
4.25133e-05
4.25132e-05
4.25119e-05
4.25108e-05
4.25409e-05
4.25366e-05
4.25321e-05
4.25298e-05
4.25258e-05
4.25198e-05
4.25141e-05
4.25117e-05
4.25105e-05
4.25101e-05
4.25112e-05
4.25176e-05
4.25286e-05
4.25504e-05
4.26941e-05
5.34462e-06
4.23893e-05
4.24488e-05
4.24764e-05
4.24868e-05
4.24943e-05
4.2499e-05
4.25022e-05
4.25095e-05
4.25112e-05
4.2512e-05
4.25135e-05
4.25118e-05
4.25108e-05
4.25102e-05
4.25467e-05
4.25413e-05
4.25368e-05
4.25328e-05
4.25304e-05
4.25244e-05
4.25185e-05
4.25169e-05
4.25156e-05
4.25149e-05
4.25136e-05
4.25155e-05
4.25159e-05
4.25199e-05
4.25457e-05
4.28295e-05
4.24851e-05
4.24604e-05
4.24835e-05
4.24945e-05
4.25002e-05
4.25035e-05
4.25055e-05
4.25088e-05
4.25105e-05
4.25127e-05
4.25125e-05
4.25115e-05
4.25109e-05
4.25086e-05
4.25506e-05
4.25454e-05
4.25412e-05
4.25358e-05
4.25321e-05
4.25277e-05
4.25231e-05
4.25227e-05
4.25225e-05
4.25211e-05
4.25184e-05
4.25197e-05
4.25233e-05
4.25273e-05
4.25403e-05
4.25971e-05
4.25625e-05
4.25191e-05
4.2512e-05
4.25101e-05
4.25109e-05
4.25111e-05
4.25096e-05
4.25101e-05
4.2512e-05
4.25145e-05
4.25116e-05
4.251e-05
4.25099e-05
4.2508e-05
4.25516e-05
4.25494e-05
4.25436e-05
4.25391e-05
4.25343e-05
4.25294e-05
4.25265e-05
4.25269e-05
4.25277e-05
4.2527e-05
4.25263e-05
4.25293e-05
4.25351e-05
4.25453e-05
4.25588e-05
4.2575e-05
4.25691e-05
4.25493e-05
4.2535e-05
4.25262e-05
4.25215e-05
4.25182e-05
4.25148e-05
4.25143e-05
4.25164e-05
4.25149e-05
4.25116e-05
4.25101e-05
4.25088e-05
4.25072e-05
4.25185e-05
4.2517e-05
4.25171e-05
4.25167e-05
4.25178e-05
4.25192e-05
4.25206e-05
4.25215e-05
4.25215e-05
4.25209e-05
4.25185e-05
4.25127e-05
4.24974e-05
4.24526e-05
4.23181e-05
4.2411e-05
4.24961e-05
4.25045e-05
4.25007e-05
4.24988e-05
4.25005e-05
4.25045e-05
4.25087e-05
4.2512e-05
4.25148e-05
4.25161e-05
4.25166e-05
4.25161e-05
4.25167e-05
4.25257e-05
4.25228e-05
4.25213e-05
4.25194e-05
4.2518e-05
4.25173e-05
4.25167e-05
4.25149e-05
4.25146e-05
4.25153e-05
4.25157e-05
4.25138e-05
4.25097e-05
4.2503e-05
4.25271e-05
4.25972e-05
4.25417e-05
4.25156e-05
4.25039e-05
4.24994e-05
4.24986e-05
4.25014e-05
4.25053e-05
4.25089e-05
4.25112e-05
4.25137e-05
4.2515e-05
4.25144e-05
4.25141e-05
4.25145e-05
4.25336e-05
4.25289e-05
4.25253e-05
4.25224e-05
4.25198e-05
4.25171e-05
4.25151e-05
4.25116e-05
4.25104e-05
4.25103e-05
4.25095e-05
4.25126e-05
4.25178e-05
4.25242e-05
4.25398e-05
4.25857e-05
4.25478e-05
4.25027e-05
4.24912e-05
4.24925e-05
4.24971e-05
4.25006e-05
4.25053e-05
4.251e-05
4.25122e-05
4.2513e-05
4.25128e-05
4.25129e-05
4.25124e-05
4.25122e-05
4.25411e-05
4.25354e-05
4.25294e-05
4.2526e-05
4.25233e-05
4.25191e-05
4.25124e-05
4.25104e-05
4.25088e-05
4.25077e-05
4.25072e-05
4.25095e-05
4.25149e-05
4.25079e-05
4.2435e-05
4.25732e-05
4.24511e-05
4.24667e-05
4.24825e-05
4.24921e-05
4.24975e-05
4.25032e-05
4.25074e-05
4.2512e-05
4.25117e-05
4.25134e-05
4.25133e-05
4.25125e-05
4.2511e-05
4.25103e-05
4.2546e-05
4.25401e-05
4.25338e-05
4.25298e-05
4.25268e-05
4.25228e-05
4.25155e-05
4.25148e-05
4.25142e-05
4.25114e-05
4.25084e-05
4.25076e-05
4.25064e-05
4.24931e-05
4.24389e-05
4.25451e-05
4.24792e-05
4.24783e-05
4.24925e-05
4.25004e-05
4.25024e-05
4.25062e-05
4.2508e-05
4.25112e-05
4.25121e-05
4.2514e-05
4.25122e-05
4.25114e-05
4.25115e-05
4.25096e-05
4.25484e-05
4.25454e-05
4.25387e-05
4.25327e-05
4.25295e-05
4.25258e-05
4.25209e-05
4.25191e-05
4.25191e-05
4.25173e-05
4.25142e-05
4.2514e-05
4.25148e-05
4.2514e-05
4.25171e-05
4.25452e-05
4.25343e-05
4.25168e-05
4.25135e-05
4.25124e-05
4.25127e-05
4.25119e-05
4.25095e-05
4.25108e-05
4.25131e-05
4.25144e-05
4.25125e-05
4.25094e-05
4.25102e-05
4.25082e-05
4.25506e-05
4.25487e-05
4.25412e-05
4.25361e-05
4.25324e-05
4.2528e-05
4.25255e-05
4.25248e-05
4.25237e-05
4.25234e-05
4.25219e-05
4.25237e-05
4.25279e-05
4.25342e-05
4.2543e-05
4.2554e-05
4.25519e-05
4.25408e-05
4.25313e-05
4.25245e-05
4.25196e-05
4.25162e-05
4.25139e-05
4.25136e-05
4.25143e-05
4.2514e-05
4.2512e-05
4.25098e-05
4.25089e-05
4.25073e-05
4.25186e-05
4.25177e-05
4.25173e-05
4.25168e-05
4.25179e-05
4.25185e-05
4.25193e-05
4.25209e-05
4.25206e-05
4.25196e-05
4.25169e-05
4.25123e-05
4.25018e-05
4.24779e-05
4.2463e-05
4.28229e-05
4.24809e-05
4.25013e-05
4.25044e-05
4.25015e-05
4.25006e-05
4.25027e-05
4.25067e-05
4.25098e-05
4.25134e-05
4.25149e-05
4.25169e-05
4.2517e-05
4.25175e-05
4.25171e-05
4.25253e-05
4.25225e-05
4.25211e-05
4.25187e-05
4.25179e-05
4.25162e-05
4.25154e-05
4.25151e-05
4.25156e-05
4.25141e-05
4.25131e-05
4.25115e-05
4.25068e-05
4.24997e-05
4.25027e-05
4.25282e-05
4.25153e-05
4.25091e-05
4.2504e-05
4.25002e-05
4.25001e-05
4.25032e-05
4.25072e-05
4.25096e-05
4.25132e-05
4.2515e-05
4.25158e-05
4.25145e-05
4.25154e-05
4.25145e-05
4.25332e-05
4.25283e-05
4.25238e-05
4.25215e-05
4.25194e-05
4.25169e-05
4.25149e-05
4.25129e-05
4.25113e-05
4.2511e-05
4.25103e-05
4.25101e-05
4.25087e-05
4.25039e-05
4.25063e-05
4.25236e-05
4.25172e-05
4.2501e-05
4.24948e-05
4.24974e-05
4.25014e-05
4.25038e-05
4.2508e-05
4.25103e-05
4.25129e-05
4.25146e-05
4.25134e-05
4.25126e-05
4.2514e-05
4.25128e-05
4.25409e-05
4.25339e-05
4.25269e-05
4.2524e-05
4.25222e-05
4.25182e-05
4.25142e-05
4.25106e-05
4.25097e-05
4.25077e-05
4.25068e-05
4.25088e-05
4.25066e-05
4.25003e-05
4.24895e-05
4.25104e-05
4.2499e-05
4.24906e-05
4.24947e-05
4.24993e-05
4.25021e-05
4.25066e-05
4.25106e-05
4.2513e-05
4.25146e-05
4.25142e-05
4.25127e-05
4.25117e-05
4.25134e-05
4.25114e-05
4.2545e-05
4.25388e-05
4.25325e-05
4.25284e-05
4.25256e-05
4.25203e-05
4.25145e-05
4.25132e-05
4.25125e-05
4.25102e-05
4.25079e-05
4.25068e-05
4.25048e-05
4.24972e-05
4.24898e-05
4.25097e-05
4.25033e-05
4.2498e-05
4.25014e-05
4.25059e-05
4.25066e-05
4.25107e-05
4.25097e-05
4.25123e-05
4.25144e-05
4.25142e-05
4.25125e-05
4.25103e-05
4.25118e-05
4.25117e-05
4.25475e-05
4.2544e-05
4.25373e-05
4.25316e-05
4.25281e-05
4.25234e-05
4.25208e-05
4.25187e-05
4.25163e-05
4.25132e-05
4.25118e-05
4.25106e-05
4.25105e-05
4.25082e-05
4.2511e-05
4.25199e-05
4.25196e-05
4.25152e-05
4.25137e-05
4.2513e-05
4.25136e-05
4.25122e-05
4.25095e-05
4.251e-05
4.25132e-05
4.25154e-05
4.25132e-05
4.25088e-05
4.251e-05
4.25094e-05
4.25514e-05
4.25458e-05
4.25398e-05
4.25362e-05
4.25308e-05
4.25268e-05
4.25245e-05
4.25234e-05
4.25211e-05
4.25191e-05
4.25181e-05
4.25189e-05
4.25206e-05
4.2523e-05
4.25279e-05
4.25336e-05
4.25345e-05
4.25294e-05
4.25237e-05
4.25198e-05
4.25164e-05
4.25145e-05
4.25126e-05
4.25115e-05
4.25122e-05
4.25119e-05
4.25107e-05
4.25085e-05
4.25086e-05
4.2506e-05
4.25183e-05
4.25178e-05
4.25175e-05
4.25174e-05
4.25179e-05
4.2518e-05
4.2519e-05
4.25192e-05
4.252e-05
4.25189e-05
4.25167e-05
4.25143e-05
4.25113e-05
4.25126e-05
4.25369e-05
4.25719e-05
4.25355e-05
4.25157e-05
4.25075e-05
4.25028e-05
4.2502e-05
4.25044e-05
4.25081e-05
4.25108e-05
4.25131e-05
4.25153e-05
4.25176e-05
4.25172e-05
4.25181e-05
4.25172e-05
4.25246e-05
4.25222e-05
4.25204e-05
4.25195e-05
4.2518e-05
4.25169e-05
4.25162e-05
4.25174e-05
4.25161e-05
4.25133e-05
4.25108e-05
4.25094e-05
4.25094e-05
4.25107e-05
4.25245e-05
4.25386e-05
4.25272e-05
4.25137e-05
4.25071e-05
4.25026e-05
4.25019e-05
4.25039e-05
4.25075e-05
4.25109e-05
4.25139e-05
4.25159e-05
4.25169e-05
4.25149e-05
4.25154e-05
4.25144e-05
4.25322e-05
4.25272e-05
4.25223e-05
4.25213e-05
4.25195e-05
4.25176e-05
4.25166e-05
4.25142e-05
4.2513e-05
4.25104e-05
4.2508e-05
4.25067e-05
4.25052e-05
4.25057e-05
4.25083e-05
4.25159e-05
4.25116e-05
4.25038e-05
4.25015e-05
4.25022e-05
4.25035e-05
4.25053e-05
4.25085e-05
4.25111e-05
4.25138e-05
4.25162e-05
4.25157e-05
4.2513e-05
4.2513e-05
4.25137e-05
4.25408e-05
4.25304e-05
4.2525e-05
4.25237e-05
4.25206e-05
4.25165e-05
4.25163e-05
4.25122e-05
4.25097e-05
4.25078e-05
4.25052e-05
4.25043e-05
4.25034e-05
4.24988e-05
4.24949e-05
4.24984e-05
4.25001e-05
4.2498e-05
4.24999e-05
4.25036e-05
4.25052e-05
4.25076e-05
4.25106e-05
4.25121e-05
4.25144e-05
4.2515e-05
4.25153e-05
4.25124e-05
4.25119e-05
4.25125e-05
4.25443e-05
4.25359e-05
4.25309e-05
4.25278e-05
4.25251e-05
4.25202e-05
4.25172e-05
4.25146e-05
4.25113e-05
4.25086e-05
4.25062e-05
4.25042e-05
4.25012e-05
4.24966e-05
4.24949e-05
4.25012e-05
4.25029e-05
4.25025e-05
4.25045e-05
4.25066e-05
4.2507e-05
4.25092e-05
4.25098e-05
4.2513e-05
4.25146e-05
4.25142e-05
4.25139e-05
4.25103e-05
4.25124e-05
4.25105e-05
4.25461e-05
4.25412e-05
4.25365e-05
4.25314e-05
4.25276e-05
4.25234e-05
4.25213e-05
4.25188e-05
4.25153e-05
4.25116e-05
4.25099e-05
4.25078e-05
4.25055e-05
4.25034e-05
4.25046e-05
4.2509e-05
4.25112e-05
4.25115e-05
4.25118e-05
4.25119e-05
4.25126e-05
4.25121e-05
4.25076e-05
4.2511e-05
4.25139e-05
4.25135e-05
4.25129e-05
4.25085e-05
4.25094e-05
4.25095e-05
4.25494e-05
4.2543e-05
4.25395e-05
4.25349e-05
4.25299e-05
4.25261e-05
4.25236e-05
4.25232e-05
4.25192e-05
4.25168e-05
4.25153e-05
4.25149e-05
4.25145e-05
4.25138e-05
4.25154e-05
4.25185e-05
4.25194e-05
4.25185e-05
4.25165e-05
4.25149e-05
4.25129e-05
4.25119e-05
4.251e-05
4.25112e-05
4.2512e-05
4.25106e-05
4.25089e-05
4.25082e-05
4.25074e-05
4.25066e-05
5.24585e-06
4.24682e-05
4.20638e-05
4.24591e-05
4.2537e-05
4.2515e-05
4.26046e-05
5.26059e-06
4.25657e-05
4.27035e-05
4.30298e-05
5.23224e-06
4.27227e-05
4.30792e-05
4.27993e-05
4.22835e-05
4.20454e-05
4.24695e-05
4.27046e-05
4.25094e-05
4.2686e-05
4.25391e-05
5.27436e-06
4.26374e-05
4.28695e-05
4.2562e-05
4.27016e-05
4.19894e-05
4.22455e-05
4.29424e-05
4.27074e-05
4.28046e-05
4.26614e-05
5.28168e-06
4.25651e-05
4.27182e-05
4.25882e-05
4.2784e-05
4.22773e-05
4.24468e-05
4.28287e-05
4.26818e-05
4.29952e-05
4.27146e-05
4.2337e-05
5.31167e-06
4.2571e-05
5.32333e-06
4.2433e-05
5.31166e-06
4.24502e-05
5.32457e-06
4.24409e-05
5.33822e-06
4.25264e-05
5.32509e-06
4.24443e-05
4.26653e-05
4.28648e-05
4.22872e-05
4.2574e-05
4.27029e-05
4.25323e-05
4.28953e-05
4.27595e-05
4.23786e-05
4.27186e-05
4.26393e-05
5.32228e-06
4.24329e-05
5.3115e-06
4.25243e-05
5.31405e-06
4.24422e-05
5.31127e-06
4.25101e-05
5.32496e-06
4.24469e-05
5.32815e-06
4.24755e-05
5.32445e-06
4.24398e-05
4.25626e-05
4.2688e-05
4.22815e-05
4.25478e-05
4.26711e-05
4.23644e-05
4.2702e-05
4.26214e-05
4.23473e-05
4.26825e-05
4.25935e-05
5.31436e-06
4.24514e-05
5.31105e-06
4.26203e-05
5.32417e-06
4.25398e-05
5.32263e-06
4.24708e-05
5.32408e-06
4.24366e-05
5.33763e-06
4.24745e-05
5.33521e-06
4.24435e-05
4.25455e-05
4.2671e-05
4.23145e-05
4.25295e-05
4.2685e-05
4.23471e-05
4.26817e-05
4.25883e-05
4.23721e-05
4.26946e-05
4.2566e-05
5.33147e-06
4.26069e-05
5.33022e-06
4.24189e-05
4.23829e-05
4.23786e-05
4.2378e-05
4.24792e-05
5.34254e-06
4.24566e-05
4.25288e-05
4.24281e-05
4.2519e-05
4.24258e-05
4.25075e-05
4.26534e-05
4.23842e-05
4.32112e-05
4.24727e-05
4.24943e-05
4.23763e-05
4.26628e-05
4.25419e-05
4.32154e-05
4.24182e-05
4.24996e-05
4.24953e-05
5.53523e-06
6.65058e-07
5.32079e-06
5.3251e-06
5.39281e-06
5.56666e-06
6.80287e-07
6.51222e-07
4.25876e-05
5.23271e-06
5.36305e-06
5.30862e-06
5.32104e-06
4.26793e-05
4.23088e-05
4.24265e-05
4.25532e-05
4.24931e-05
4.25308e-05
4.25876e-05
4.25604e-05
4.2569e-05
5.2789e-06
5.27947e-06
4.23696e-05
5.28669e-06
4.23712e-05
4.30597e-05
6.78116e-07
5.34802e-06
4.29674e-05
5.34044e-06
6.79606e-07
4.24822e-05
4.25516e-05
4.2512e-05
4.25635e-05
4.25709e-05
4.25525e-05
4.25744e-05
5.28452e-06
5.27445e-06
4.23389e-05
5.2792e-06
4.2351e-05
4.31847e-05
6.79721e-07
5.3427e-06
4.31404e-05
5.35052e-06
6.79898e-07
4.25266e-05
4.2502e-05
4.23952e-05
4.25407e-05
4.25429e-05
4.25098e-05
4.24525e-05
5.27679e-06
4.26039e-05
5.33448e-06
4.25317e-05
3.36888e-08
6.8108e-07
5.42993e-06
5.44851e-06
3.25197e-08
4.24013e-05
4.23589e-05
4.23946e-05
4.24131e-05
4.24189e-05
4.23614e-05
4.24007e-05
4.25065e-05
4.2506e-05
4.25683e-05
4.24355e-05
4.25117e-05
4.25127e-05
4.25715e-05
4.25954e-05
4.2603e-05
4.25922e-05
4.27004e-05
4.26028e-05
4.26047e-05
4.25942e-05
5.32103e-06
6.47503e-07
6.69322e-07
5.33454e-06
6.68665e-07
6.47063e-07
4.27504e-05
4.25599e-05
4.26768e-05
4.26356e-05
4.27327e-05
4.25345e-05
4.25893e-05
4.27142e-05
4.28746e-05
4.27004e-05
4.27676e-05
4.27131e-05
4.27794e-05
4.26625e-05
4.25282e-05
4.25127e-05
4.24538e-05
4.25468e-05
4.25218e-05
4.25208e-05
4.24644e-05
4.23372e-05
4.23879e-05
4.25279e-05
4.23175e-05
4.23856e-05
3.36854e-08
5.39321e-06
5.32911e-06
3.36844e-08
5.3866e-06
4.24247e-05
4.23646e-05
4.2405e-05
4.23919e-05
4.2431e-05
4.23617e-05
4.24156e-05
4.25102e-05
4.25146e-05
4.25727e-05
4.24462e-05
4.25141e-05
4.25232e-05
4.25787e-05
4.26061e-05
4.26057e-05
4.2596e-05
4.27022e-05
4.26062e-05
4.26111e-05
4.2602e-05
5.3179e-06
6.47026e-07
6.68637e-07
5.31923e-06
6.68594e-07
6.46984e-07
4.27237e-05
4.25389e-05
4.25869e-05
4.26275e-05
4.27041e-05
4.25973e-05
4.26526e-05
4.27047e-05
4.27757e-05
4.26564e-05
4.27296e-05
4.2674e-05
4.28286e-05
4.26504e-05
4.25293e-05
4.25235e-05
4.24734e-05
4.25545e-05
4.25885e-05
4.2528e-05
4.25353e-05
4.23122e-05
4.24004e-05
4.25461e-05
4.23234e-05
4.24163e-05
3.36853e-08
5.38551e-06
5.32869e-06
3.36856e-08
5.38536e-06
4.24314e-05
4.23594e-05
4.24178e-05
4.23869e-05
4.24312e-05
4.23623e-05
4.24224e-05
4.25182e-05
4.25278e-05
4.25821e-05
4.25174e-05
4.25967e-05
4.25375e-05
4.25935e-05
4.26045e-05
4.26135e-05
4.26025e-05
4.27713e-05
4.26085e-05
4.26214e-05
4.25982e-05
5.31839e-06
6.4702e-07
6.68605e-07
5.31799e-06
6.68644e-07
6.47019e-07
4.26906e-05
4.26266e-05
4.27142e-05
4.2558e-05
4.26009e-05
4.24797e-05
4.24755e-05
4.26573e-05
4.28794e-05
4.26403e-05
4.26165e-05
4.2586e-05
4.25765e-05
4.25208e-05
4.26156e-05
4.25234e-05
4.25592e-05
4.25165e-05
4.2476e-05
4.24957e-05
4.24369e-05
4.25443e-05
4.26191e-05
4.27223e-05
4.2728e-05
4.27777e-05
3.26307e-08
5.39528e-06
5.35881e-06
3.36861e-08
5.39923e-06
4.24319e-05
4.237e-05
4.2425e-05
4.24188e-05
4.24509e-05
4.24132e-05
4.24494e-05
4.26641e-05
4.25357e-05
4.25915e-05
4.24316e-05
4.24489e-05
4.25099e-05
4.25431e-05
4.26063e-05
4.26176e-05
4.25912e-05
4.25528e-05
4.2508e-05
4.25598e-05
4.25498e-05
5.27751e-06
6.47966e-07
6.69582e-07
6.7102e-07
5.3286e-06
6.54335e-07
6.43033e-07
4.24929e-05
4.24085e-05
4.24842e-05
4.24829e-05
4.25055e-05
4.24773e-05
4.25029e-05
4.24701e-05
4.25651e-05
4.24665e-05
4.25173e-05
4.25035e-05
4.25145e-05
4.25027e-05
4.22627e-05
4.17137e-05
5.31932e-06
5.26776e-06
5.29745e-06
4.22156e-05
4.20338e-05
5.55478e-06
6.80205e-07
6.50956e-07
5.48988e-06
5.31684e-06
4.219e-05
5.32957e-06
5.2914e-06
5.52206e-06
5.34848e-06
5.59451e-06
5.2865e-06
5.46095e-06
6.469e-07
6.69163e-07
6.7764e-07
5.32966e-06
6.51666e-07
5.54833e-06
6.69242e-07
5.35018e-06
5.34576e-06
5.3984e-06
5.54725e-06
6.77561e-07
5.35474e-06
5.59871e-06
4.27601e-05
5.51234e-06
5.35667e-06
5.17212e-06
4.22139e-05
5.34991e-06
4.24216e-05
5.471e-06
6.47226e-07
6.69128e-07
6.77706e-07
5.337e-06
6.51988e-07
5.27287e-06
5.3399e-06
5.28043e-06
5.33061e-06
5.27951e-06
5.27792e-06
4.23401e-05
4.23519e-05
5.27921e-06
5.27361e-06
5.33246e-06
5.332e-06
5.27314e-06
4.30944e-05
6.79729e-07
5.3424e-06
5.34197e-06
4.31154e-05
6.79592e-07
5.27874e-06
5.33271e-06
5.27316e-06
5.33991e-06
5.28546e-06
5.27497e-06
4.2467e-05
4.23858e-05
5.31799e-06
5.28003e-06
5.3936e-06
5.34173e-06
5.32413e-06
4.32789e-05
6.80971e-07
5.40964e-06
5.35263e-06
4.35072e-05
6.79872e-07
5.41223e-06
5.34427e-06
4.20559e-05
4.22266e-05
4.24162e-05
4.23262e-05
4.22234e-05
5.29865e-06
5.31229e-06
5.29786e-06
4.26342e-05
4.23882e-05
4.23986e-05
4.25686e-05
4.24339e-05
5.38183e-06
5.30928e-06
5.34594e-06
4.24322e-05
4.23158e-05
4.21998e-05
4.23239e-05
4.22058e-05
5.31198e-06
5.29696e-06
5.29756e-06
6.80623e-08
5.25684e-06
4.19999e-05
4.25585e-05
4.34094e-05
4.20078e-05
7.86249e-08
3.37519e-08
5.38026e-06
5.32553e-06
5.38135e-06
3.25096e-08
6.82435e-08
4.1941e-05
4.3167e-05
4.24454e-05
4.19492e-05
4.31731e-05
7.89146e-08
3.36885e-08
5.39988e-06
5.39377e-06
5.42725e-06
3.36839e-08
6.80624e-08
4.25508e-05
4.3293e-05
4.19568e-05
4.33766e-05
4.19775e-05
6.80565e-08
3.3752e-08
5.32528e-06
5.38173e-06
5.38145e-06
3.37519e-08
6.82436e-08
4.24443e-05
4.19344e-05
4.31696e-05
4.19404e-05
4.31695e-05
6.82515e-08
5.31584e-06
6.47189e-07
6.69358e-07
5.32818e-06
6.68704e-07
6.46774e-07
5.31733e-06
6.46803e-07
6.6864e-07
6.6878e-07
5.31454e-06
6.4685e-07
5.32204e-06
6.46986e-07
6.68605e-07
6.68742e-07
5.3186e-06
6.47132e-07
5.30922e-06
5.31494e-06
5.30206e-06
4.2314e-05
4.21981e-05
4.2434e-05
4.23152e-05
4.21988e-05
5.29689e-06
5.31135e-06
5.29692e-06
4.25232e-05
4.23084e-05
4.23914e-05
4.23098e-05
4.23869e-05
5.31556e-06
5.30143e-06
5.30304e-06
4.2437e-05
4.23237e-05
4.22048e-05
4.23183e-05
4.22008e-05
5.31124e-06
5.29748e-06
5.29685e-06
6.80582e-08
4.3254e-05
4.19509e-05
4.2498e-05
6.80567e-08
4.32338e-05
4.19473e-05
3.37515e-08
5.38196e-06
5.32471e-06
3.37525e-08
5.38192e-06
6.82427e-08
4.19352e-05
4.3173e-05
4.24479e-05
6.82522e-08
4.19349e-05
4.31742e-05
3.36859e-08
5.32969e-06
5.38512e-06
5.38725e-06
3.36855e-08
6.80595e-08
4.24847e-05
4.32085e-05
4.1928e-05
4.3217e-05
4.19369e-05
6.80558e-08
3.37513e-08
5.32462e-06
5.38141e-06
5.38177e-06
3.37512e-08
6.8241e-08
4.24444e-05
4.19193e-05
4.31657e-05
4.19274e-05
4.31702e-05
6.82353e-08
5.31447e-06
6.46828e-07
6.68672e-07
5.31537e-06
6.68626e-07
6.46801e-07
5.3149e-06
6.46812e-07
6.68627e-07
6.68639e-07
5.31474e-06
6.46812e-07
5.31821e-06
6.47e-07
6.68597e-07
6.68607e-07
5.31774e-06
6.47024e-07
5.302e-06
5.3147e-06
5.30331e-06
4.23329e-05
4.2211e-05
4.24676e-05
4.2349e-05
4.22227e-05
5.29729e-06
5.31208e-06
5.29922e-06
4.25731e-05
4.24061e-05
4.25004e-05
4.23486e-05
4.24446e-05
5.31526e-06
5.31404e-06
5.30398e-06
4.24958e-05
4.24337e-05
4.22931e-05
4.23785e-05
4.22461e-05
5.31254e-06
5.30958e-06
5.29938e-06
6.80382e-08
4.32051e-05
4.19239e-05
4.24677e-05
6.80548e-08
4.3203e-05
4.19193e-05
3.37501e-08
5.38073e-06
5.32499e-06
3.37511e-08
5.38114e-06
6.82093e-08
4.19147e-05
4.31614e-05
4.24338e-05
6.82332e-08
4.19092e-05
4.31596e-05
3.36842e-08
5.32915e-06
5.39118e-06
5.38565e-06
3.36862e-08
6.8036e-08
4.24688e-05
4.32241e-05
4.19208e-05
4.32073e-05
4.19164e-05
6.8023e-08
3.37496e-08
5.32555e-06
5.38745e-06
5.38109e-06
3.37498e-08
6.82089e-08
4.24355e-05
4.19096e-05
4.3184e-05
4.19053e-05
4.31647e-05
6.81922e-08
5.31564e-06
6.46823e-07
6.68634e-07
5.31503e-06
6.6867e-07
6.46868e-07
5.31636e-06
6.47412e-07
6.69241e-07
6.68693e-07
5.32133e-06
6.4688e-07
5.31911e-06
6.47594e-07
6.69212e-07
6.68665e-07
5.32404e-06
6.47034e-07
5.32066e-06
5.3463e-06
5.33702e-06
4.25458e-05
4.24235e-05
4.26447e-05
4.27191e-05
4.26352e-05
5.31659e-06
5.34585e-06
5.33394e-06
7.40349e-08
4.25103e-05
4.23168e-05
4.23373e-05
4.23689e-05
4.24239e-05
4.21784e-05
9.85177e-08
5.3158e-06
4.23028e-05
4.26794e-05
5.3108e-06
7.82551e-08
4.24435e-05
7.39254e-08
4.24517e-05
4.23194e-05
4.22831e-05
4.23911e-05
4.23057e-05
4.21712e-05
9.91737e-08
5.31566e-06
4.26821e-05
4.22918e-05
7.82611e-08
5.30805e-06
4.24485e-05
3.47117e-08
4.32409e-05
4.194e-05
4.24489e-05
6.80217e-08
4.31278e-05
4.19888e-05
3.72892e-08
5.39172e-06
5.35823e-06
3.37499e-08
5.39967e-06
3.29388e-08
4.19317e-05
4.32115e-05
4.24459e-05
6.81919e-08
4.20057e-05
4.31371e-05
7.14284e-08
5.32823e-06
4.2757e-05
4.27678e-05
4.30591e-05
8.13809e-08
4.29643e-05
6.62264e-08
4.23964e-05
4.25601e-05
4.22762e-05
4.27325e-05
4.20456e-05
4.23956e-05
7.6969e-08
5.3275e-06
4.27649e-05
4.27481e-05
8.13971e-08
4.30597e-05
4.29594e-05
6.91749e-08
4.23989e-05
4.22787e-05
4.25585e-05
4.20646e-05
4.27444e-05
4.23963e-05
5.27424e-06
6.47788e-07
6.6961e-07
6.71037e-07
5.32578e-06
6.54407e-07
6.42772e-07
7.06645e-07
6.32705e-07
6.68085e-07
6.79941e-07
5.2598e-06
1.13222e-07
6.93454e-08
6.49664e-07
6.24233e-07
5.29211e-06
5.31586e-06
6.65723e-07
6.67896e-07
6.6387e-07
6.68652e-07
4.24616e-05
4.23587e-05
4.24608e-05
4.26278e-05
4.25338e-05
4.26011e-05
4.25189e-05
6.66489e-07
6.68973e-07
6.66355e-07
6.69061e-07
4.2461e-05
4.24285e-05
4.2426e-05
4.26108e-05
4.25121e-05
4.25505e-05
4.24514e-05
6.85136e-07
6.72988e-07
6.70777e-07
6.97196e-07
4.24664e-05
4.25247e-05
4.26065e-05
4.24745e-05
4.23717e-05
4.25224e-05
4.25506e-05
4.26008e-05
5.24694e-06
4.25602e-05
4.2329e-05
4.26694e-05
4.24815e-05
5.24145e-06
4.25371e-05
4.26906e-05
4.25557e-05
4.24562e-05
4.25333e-05
4.26168e-05
4.25619e-05
4.28197e-05
4.26096e-05
4.27402e-05
4.26076e-05
4.26917e-05
4.26568e-05
4.27593e-05
4.27317e-05
4.27973e-05
4.26989e-05
4.27056e-05
4.26656e-05
4.27819e-05
4.27186e-05
4.23631e-05
4.25188e-05
4.25409e-05
4.24613e-05
4.23568e-05
4.25091e-05
4.25264e-05
4.25557e-05
5.24059e-06
4.24206e-05
4.22799e-05
4.25575e-05
4.24168e-05
5.24053e-06
4.25258e-05
4.26013e-05
4.25571e-05
4.24176e-05
4.25078e-05
4.25736e-05
4.25407e-05
4.2675e-05
4.26545e-05
4.27501e-05
4.25786e-05
4.26503e-05
4.26385e-05
4.27198e-05
4.26494e-05
4.27702e-05
4.27103e-05
4.26597e-05
4.26186e-05
4.27348e-05
4.26765e-05
4.2358e-05
4.25059e-05
4.25234e-05
4.24539e-05
4.23663e-05
4.24943e-05
4.25058e-05
4.25659e-05
5.24091e-06
4.24182e-05
4.22907e-05
4.25598e-05