/*--------------------------------*- C++ -*----------------------------------*\
| =========                 |                                                 |
| \\      /  F ield         | OpenFOAM: The Open Source CFD Toolbox           |
|  \\    /   O peration     | Version:  2012                                  |
|   \\  /    A nd           | Website:  www.openfoam.com                      |
|    \\/     M anipulation  |                                                 |
\*---------------------------------------------------------------------------*/
FoamFile
{
    version     2.0;
    format      ascii;
    class       volVectorField;
    location    "0.108/fluid";
    object      cellMotionU;
}
// * * * * * * * * * * * * * * * * * * * * * * * * * * * * * * * * * * * * * //

dimensions      [0 1 -1 0 0 0 0];


internalField   nonuniform List<vector> 
16422
(
(-3.50939e-06 -1.75577e-06 -1.76486e-07)
(-5.68993e-05 1.82987e-05 6.05478e-06)
(-8.82955e-05 4.47984e-05 2.37842e-05)
(-8.38713e-05 4.6181e-05 4.42982e-05)
(-6.55233e-05 2.70169e-05 6.40111e-05)
(-5.20781e-05 4.96355e-06 8.40934e-05)
(-6.47169e-05 -8.4791e-06 0.00010561)
(-8.57037e-05 -3.89557e-05 0.000117571)
(-7.34526e-05 -0.000111953 0.000118553)
(-1.57801e-05 -0.000216232 0.000111614)
(9.99022e-05 -0.000321452 0.000103032)
(0.00030044 -0.000401634 0.000102408)
(0.000498656 -0.00039271 9.05804e-05)
(0.000510838 -0.000260426 5.30498e-05)
(0.0003096 -9.41935e-05 -4.26756e-06)
(-4.98157e-05 1.01479e-05 1.79632e-06)
(-0.000508512 0.000243138 6.72571e-05)
(-0.000663238 0.000406499 0.000207306)
(-0.000594236 0.000433634 0.000377182)
(-0.000508947 0.000395604 0.000559148)
(-0.000406491 0.000276282 0.000741748)
(-0.000346363 9.56949e-05 0.000907071)
(-0.000253091 -0.000299803 0.00097875)
(-3.92587e-05 -0.00085422 0.00098416)
(0.00047169 -0.00156754 0.000918751)
(0.00148318 -0.00227534 0.000798096)
(0.00287891 -0.00281618 0.000701025)
(0.00422363 -0.00286036 0.00058586)
(0.00451649 -0.0024564 0.000405636)
(0.0031838 -0.00184005 0.000169629)
(-4.81938e-05 1.13145e-05 4.70864e-06)
(-0.000578457 0.000380104 0.000121657)
(-0.000697072 0.000693773 0.000357721)
(-0.00044932 0.000747745 0.000616054)
(-7.47992e-05 0.000667098 0.000895119)
(0.000396403 0.000409549 0.00116373)
(0.000906902 -1.23934e-05 0.00137561)
(0.00141072 -0.000519653 0.00148345)
(0.00208191 -0.00116597 0.00147638)
(0.00306455 -0.00188959 0.00133201)
(0.00464595 -0.0026011 0.00106955)
(0.00668489 -0.00314167 0.000735052)
(0.00859067 -0.00347653 0.000337979)
(0.00984366 -0.0038738 -8.58849e-05)
(0.0101902 -0.00525487 -0.000481126)
(6.31168e-05 -4.35495e-05 5.58516e-06)
(-8.5454e-05 0.000326843 0.00016872)
(0.000133864 0.000616351 0.00043456)
(0.000717385 0.000618235 0.000709776)
(0.00152914 0.000408324 0.000995613)
(0.00243112 0.000115747 0.00126482)
(0.00353558 -0.000521183 0.00144638)
(0.00464217 -0.00109467 0.00152359)
(0.00587871 -0.0016477 0.00145869)
(0.00722351 -0.00201361 0.00123339)
(0.00898191 -0.00227195 0.000847098)
(0.011206 -0.00207262 0.000314464)
(0.0130583 -0.00122163 -0.000328993)
(0.014506 0.000465492 -0.00100714)
(0.0146349 0.00244593 -0.00148283)
(4.29102e-07 -3.30003e-07 -2.78885e-07)
(-1.94329e-05 2.09288e-05 3.19246e-06)
(-2.66021e-05 4.31846e-05 1.50572e-05)
(-1.46489e-05 5.32134e-05 2.99329e-05)
(7.25597e-06 5.48225e-05 4.79438e-05)
(3.58477e-05 4.71261e-05 6.4167e-05)
(5.4743e-05 4.21216e-05 7.96651e-05)
(7.87827e-05 2.29617e-05 8.76271e-05)
(0.000113263 -7.89791e-06 8.84952e-05)
(0.000157758 -4.12688e-05 8.2864e-05)
(0.000226326 -8.17676e-05 6.87979e-05)
(0.000296557 -0.000109037 4.96872e-05)
(0.000331818 -0.000120996 2.12045e-05)
(0.00026869 -9.28103e-05 -1.01646e-05)
(0.000172979 -6.35864e-05 -5.0047e-05)
(-1.50932e-05 1.87102e-05 5.28171e-07)
(-0.000215341 0.000268598 4.3643e-05)
(-0.000201957 0.000423985 0.000139783)
(-3.66361e-05 0.000482208 0.0002603)
(0.000147329 0.000531591 0.000410626)
(0.000373008 0.000525581 0.000559337)
(0.000640555 0.000437006 0.000675231)
(0.000953577 0.000240446 0.000729479)
(0.00132752 -1.44438e-05 0.000730592)
(0.00182897 -0.000342861 0.000667301)
(0.00251157 -0.000736982 0.00053257)
(0.00315069 -0.00100603 0.000358218)
(0.00343661 -0.00112216 0.000147666)
(0.00308936 -0.00112928 -5.53907e-05)
(0.00217268 -0.00109702 -0.000187679)
(1.39357e-06 3.05903e-05 3.31558e-06)
(-0.000168687 0.000472336 9.29904e-05)
(-3.80477e-06 0.000753568 0.000261467)
(0.000401821 0.000858578 0.000456944)
(0.000892806 0.000915443 0.000684946)
(0.00151416 0.000821589 0.000890594)
(0.00221416 0.000622334 0.00104639)
(0.00299277 0.000331875 0.00112129)
(0.00379892 2.93602e-05 0.0011078)
(0.00472574 -0.000300971 0.000980285)
(0.00586805 -0.000643396 0.00072461)
(0.00723807 -0.00104546 0.000377949)
(0.00827532 -0.00138527 -3.05805e-05)
(0.00888989 -0.00181839 -0.000448493)
(0.00914297 -0.00279836 -0.000735945)
(8.86474e-05 6.79186e-06 4.9723e-06)
(0.000347224 0.000444402 0.000129147)
(0.000764175 0.0008297 0.000342335)
(0.00147536 0.000940753 0.00055585)
(0.00234286 0.000931239 0.00078028)
(0.00345084 0.000702122 0.000965258)
(0.00458479 0.000473087 0.00110992)
(0.00582362 0.000212767 0.00115481)
(0.00709799 -5.13101e-06 0.00107983)
(0.00846246 -0.000164778 0.000856371)
(0.00988258 -0.000106775 0.000480527)
(0.0114148 0.000269802 -3.6223e-05)
(0.0127037 0.000966104 -0.000652569)
(0.0137232 0.00175081 -0.0012792)
(0.014517 0.00131342 -0.00173711)
(4.40341e-06 -6.03435e-07 -4.88087e-07)
(9.63081e-06 1.90886e-05 1.79287e-07)
(1.58405e-05 4.17675e-05 6.62805e-06)
(3.20784e-05 5.75657e-05 1.52686e-05)
(6.71871e-05 5.88671e-05 2.58187e-05)
(0.000112238 5.17175e-05 3.71316e-05)
(0.000145112 4.90046e-05 4.50201e-05)
(0.000178539 3.9952e-05 4.86886e-05)
(0.000221125 2.09112e-05 4.85621e-05)
(0.000267924 -4.47285e-06 4.30895e-05)
(0.000305406 -2.61014e-05 3.3608e-05)
(0.000326411 -4.4988e-05 1.82491e-05)
(0.000308783 -5.58496e-05 -2.02255e-06)
(0.000245032 -5.57781e-05 -2.36688e-05)
(0.000160092 -5.26675e-05 -5.31195e-05)
(1.68414e-05 1.63791e-05 -1.77375e-06)
(7.49418e-06 0.000261668 1.6057e-05)
(9.22173e-05 0.00045872 7.45263e-05)
(0.000287595 0.000578009 0.000150897)
(0.000552075 0.000641194 0.000243503)
(0.000858165 0.000660955 0.000340347)
(0.00126129 0.000563789 0.000392148)
(0.00164154 0.000454575 0.000421717)
(0.00201544 0.00031845 0.000419295)
(0.00240158 0.000151641 0.000376988)
(0.00279186 -4.65719e-05 0.000285475)
(0.00305945 -0.000245026 0.000149223)
(0.0030348 -0.000405591 -1.02919e-05)
(0.00270027 -0.000572764 -0.000154252)
(0.00220606 -0.000805528 -0.000247606)
(4.07765e-05 3.58542e-05 1.9367e-07)
(0.000142549 0.000483047 4.65763e-05)
(0.000477386 0.000760841 0.000141826)
(0.000916703 0.000959301 0.000268912)
(0.00149042 0.00105109 0.000408927)
(0.00216689 0.00104788 0.000533537)
(0.00290859 0.000980908 0.000628448)
(0.00369899 0.000869847 0.000679208)
(0.00457189 0.000643345 0.000646922)
(0.0053966 0.000443494 0.000542231)
(0.00618583 0.000248145 0.00035556)
(0.00691283 1.64115e-05 9.85272e-05)
(0.00742316 -0.000321953 -0.000201235)
(0.00758577 -0.000762743 -0.000474108)
(0.00751149 -0.00166722 -0.000626334)
(0.000112777 2.95983e-05 2.32686e-06)
(0.00063663 0.000495411 7.21675e-05)
(0.00123295 0.000865388 0.000197953)
(0.00204313 0.00103004 0.000330118)
(0.00295557 0.00108899 0.000461868)
(0.00404488 0.00104638 0.000576064)
(0.00520527 0.00097346 0.000661742)
(0.00633596 0.000912773 0.000686365)
(0.00758441 0.000760707 0.000592677)
(0.00871101 0.000700818 0.000414699)
(0.00988335 0.000761771 0.000127864)
(0.0109768 0.000905079 -0.000256248)
(0.0118276 0.000948833 -0.00068335)
(0.0124707 0.000640064 -0.00108188)
(0.0129385 -0.000592209 -0.00134551)
(5.40463e-06 1.53366e-07 -3.9127e-07)
(1.81316e-05 2.35536e-05 -9.92212e-07)
(2.93827e-05 4.84326e-05 1.50931e-06)
(5.52111e-05 6.18906e-05 4.80608e-06)
(9.34926e-05 6.5776e-05 9.59764e-06)
(0.000132557 6.69602e-05 1.38732e-05)
(0.000169652 6.50989e-05 1.70362e-05)
(0.000223769 4.63382e-05 1.84139e-05)
(0.000268223 3.06976e-05 1.74834e-05)
(0.000295808 2.11545e-05 1.5859e-05)
(0.000322477 2.41046e-06 1.08343e-05)
(0.00033525 -1.97896e-05 2.45013e-06)
(0.000305145 -2.52924e-05 -7.11103e-06)
(0.000258205 -2.96787e-05 -1.6039e-05)
(0.000239438 -6.08089e-05 -2.76671e-05)
(2.66179e-05 2.06688e-05 -1.92347e-06)
(0.000112297 0.000267116 -2.14611e-06)
(0.000240276 0.000477964 1.80583e-05)
(0.000483674 0.000596583 4.73846e-05)
(0.000784689 0.000665574 8.93844e-05)
(0.00113139 0.000685404 0.000128006)
(0.00152802 0.000643103 0.000152465)
(0.00186936 0.000611244 0.000172252)
(0.00218754 0.000553826 0.000175465)
(0.00250839 0.000438147 0.000157113)
(0.00277987 0.000283098 0.000108026)
(0.00292 9.87369e-05 3.38885e-05)
(0.00291246 -0.000113445 -5.40494e-05)
(0.00280358 -0.000401079 -0.000135242)
(0.00264782 -0.000712473 -0.000189093)
(6.09603e-05 3.88489e-05 -1.48511e-06)
(0.000349912 0.000455446 6.56124e-06)
(0.000700426 0.000795972 4.41409e-05)
(0.00123126 0.000982534 9.73326e-05)
(0.00182956 0.00109686 0.000156375)
(0.00254824 0.00111312 0.000201666)
(0.00326588 0.00111247 0.000237095)
(0.00400807 0.00106329 0.000251989)
(0.00474209 0.000963256 0.00023239)
(0.00541213 0.000833763 0.000174523)
(0.00600026 0.000671425 7.80727e-05)
(0.00644477 0.000421759 -5.77632e-05)
(0.0066602 8.18635e-05 -0.000202308)
(0.00673108 -0.000413931 -0.000325809)
(0.00671652 -0.00126975 -0.000412145)
(0.000127631 3.88086e-05 -2.05207e-07)
(0.000809703 0.00050777 2.13774e-05)
(0.00146482 0.000911844 7.55651e-05)
(0.00232504 0.00111994 0.000137261)
(0.00327199 0.00123085 0.000195016)
(0.00436735 0.00123687 0.000233161)
(0.00548999 0.00121977 0.000254116)
(0.00657457 0.00119214 0.000237936)
(0.00759673 0.0011707 0.000198538)
(0.00855468 0.00113667 9.9211e-05)
(0.00946278 0.00109617 -6.60948e-05)
(0.0102557 0.0009739 -0.000273562)
(0.0108581 0.000652681 -0.000504485)
(0.0112422 3.49721e-05 -0.000710817)
(0.0114344 -0.00111867 -0.000852619)
(0.000380223 -0.00011124 5.49004e-06)
(0.00266931 -0.00142625 0.000281318)
(0.00148347 -0.000937411 7.68718e-05)
(0.0151311 0.000432214 -0.00126682)
(0.0127766 -0.00685783 -0.00100706)
(0.00212885 -0.00116894 0.000120079)
(0.00123094 -0.000853501 8.84277e-06)
(0.000191496 -7.0837e-05 -2.96592e-05)
(0.00142147 -0.00077206 -0.000114212)
(0.00087259 -0.000714573 -0.000137025)
(0.0128629 -0.00517331 -0.00116387)
(0.0146717 0.00241874 -0.00179004)
(0.0145102 -0.00279424 -0.00181889)
(0.00132449 -0.000685327 -0.000169933)
(0.000818863 -0.000653955 -0.000207849)
(0.000148615 -5.23713e-05 -6.47186e-05)
(0.000117696 -6.87283e-05 -0.000120214)
(0.00135513 -0.000545518 -0.000226664)
(0.0010531 -0.00062804 -0.000273284)
(0.0102945 -0.00615776 -0.000307336)
(0.00982331 -0.00852172 -0.000521029)
(0.0140597 -0.00279153 -0.00098537)
(0.0128121 -0.00807745 -0.00098031)
(0.014562 -0.00132658 -0.000812515)
(0.0153307 2.56033e-05 -0.0012089)
(0.00991375 -0.00758359 -0.000654656)
(0.013907 -0.000854504 -0.00121116)
(0.0129773 -0.00572845 -0.0012024)
(0.0094958 -0.00326763 -0.000727111)
(0.00952877 -0.00539458 -0.000817106)
(0.0137308 3.34051e-05 -0.00148522)
(0.0136506 -0.00431622 -0.00153339)
(0.0150069 0.00207077 -0.00145035)
(0.0139542 0.00203206 -0.00127774)
(0.0146001 0.00253971 -0.00170626)
(0.0136383 0.00284059 -0.00140836)
(0.0142732 0.00366231 -0.00164212)
(0.0134132 0.00408176 -0.0015816)
(0.01447 -0.00335505 -0.00177126)
(0.0133484 -0.0002809 -0.00144962)
(0.0134574 -0.00344157 -0.00148956)
(0.000267801 2.91946e-05 -1.37448e-05)
(0.000632746 -0.0004388 -1.32961e-05)
(0.000767693 -0.00033911 -2.51047e-05)
(0.0146913 -0.00174882 -0.00089005)
(0.0141188 0.00086112 -0.00119058)
(0.013477 -0.000974375 -0.000804842)
(0.0135387 -0.00112275 -0.00115638)
(0.000541433 -0.00030959 -3.73189e-05)
(0.000255789 2.58582e-05 -1.27048e-05)
(0.00059697 -0.000440346 -1.42168e-05)
(0.000676848 -0.000324935 -2.61929e-05)
(0.000426206 -0.000442313 -3.12072e-05)
(0.000209763 1.34204e-05 -1.03771e-05)
(0.000492658 -0.000302069 -4.65065e-05)
(0.000170688 1.33467e-06 -1.97342e-05)
(0.000307223 -0.000428828 -0.000135382)
(0.000407234 -0.000443423 -3.72826e-05)
(0.000413763 -0.000285115 -0.000103574)
(0.000200947 1.14599e-05 -1.04656e-05)
(0.0134289 0.000754365 -0.00132534)
(0.0132947 -0.00368881 -0.00143742)
(0.0134744 0.00210558 -0.00156352)
(0.0144975 0.00356589 -0.00177123)
(0.0146073 0.00191009 -0.00184301)
(0.0140872 0.0038462 -0.00177187)
(0.013728 -0.00346732 -0.00155325)
(0.0145371 0.000362909 -0.00185546)
(0.0138614 0.00199941 -0.00168555)
(0.000361508 -0.000201589 -0.000287904)
(0.000164447 -4.37223e-07 -2.36454e-05)
(0.000295302 -0.000421127 -0.000169277)
(4.8614e-05 -1.86613e-06 -0.000134851)
(0.000383636 -0.000265663 -0.000149354)
(0.000253329 -0.00026353 -0.000394967)
(0.000111705 3.90537e-06 -8.64898e-05)
(0.000677995 -0.000374225 0.000103032)
(0.000451122 -0.000168058 3.09525e-05)
(0.00436192 -0.00257062 0.000638762)
(0.00320449 -0.00170285 0.000383096)
(0.00381847 -0.002196 0.000392888)
(0.00253003 -0.0017667 0.000149273)
(0.00854534 -0.00520972 6.92113e-06)
(0.00773883 -0.00653909 -0.000217692)
(0.0003367 -0.00012993 1.1001e-05)
(0.00352145 -0.00195941 0.000361996)
(0.00253716 -0.00135114 0.000181736)
(0.000290858 -0.000111931 1.54543e-07)
(0.000199332 -7.7804e-05 -2.33738e-05)
(0.00238889 -0.0010294 1.108e-05)
(0.00166014 -0.000804323 -8.84904e-05)
(0.000558073 -0.000237663 -2.92063e-05)
(0.000273309 -1.27409e-05 -1.31432e-05)
(0.000792942 -0.00033109 1.00893e-05)
(0.000249256 -8.21348e-05 -9.89117e-06)
(0.000657387 -0.000252598 -1.80442e-05)
(0.000638508 -0.000282003 -1.47924e-05)
(0.000223637 -1.86806e-05 -1.18701e-05)
(0.00221602 -0.00160975 2.62968e-05)
(0.00820618 -0.00451035 -0.000202693)
(0.00767436 -0.00597128 -0.00036981)
(0.00228606 -0.00120603 -0.000134047)
(0.00172754 -0.00128491 -0.000167083)
(0.00726251 -0.00287712 -0.000488037)
(0.00707415 -0.0043164 -0.000560701)
(0.000177527 -6.72315e-05 -3.73149e-05)
(0.00220321 -0.000838779 -3.96388e-05)
(0.00154789 -0.000713063 -0.000141996)
(0.000243602 -6.30843e-05 -2.33611e-05)
(0.000165489 -5.16912e-05 -4.92696e-05)
(0.00193851 -0.000492809 -0.000115228)
(0.00149317 -0.000528008 -0.000201124)
(0.000357027 -0.000163823 -0.000203978)
(0.00016858 -2.64461e-05 -3.47269e-05)
(0.000443406 -0.000207029 -0.000117697)
(0.000149358 -5.20152e-05 -6.70691e-05)
(0.000381565 -0.000189702 -0.000133414)
(0.000407432 -0.000177265 -0.000151395)
(0.000127459 -1.54405e-05 -8.70067e-05)
(0.00164939 -0.00117575 -0.000220785)
(0.0069438 -0.00251019 -0.00051322)
(0.00671129 -0.00378782 -0.000565947)
(0.00210622 -0.000840333 -0.000249088)
(0.00179598 -0.00102471 -0.000282384)
(0.00601247 -0.00175694 -0.000494848)
(0.00582557 -0.00274889 -0.000520308)
(0.000132845 -7.08944e-05 -7.87643e-05)
(0.00145008 -0.000528585 -0.000218987)
(0.0012288 -0.000648354 -0.000253889)
(0.000218783 -5.69424e-05 -3.29829e-05)
(0.000209616 -7.78112e-05 -3.79932e-05)
(0.00180953 -0.000513247 -0.000178017)
(0.00173484 -0.000706759 -0.00019472)
(0.00107942 -0.000335823 3.17767e-06)
(0.000508185 -0.000139917 1.99694e-05)
(0.000295219 -1.03235e-05 -1.45709e-05)
(0.00101974 -0.000398594 4.8241e-05)
(0.00134814 -0.00050136 0.00010965)
(0.000814072 -0.000282051 -8.96994e-06)
(0.00133596 -0.000593248 4.72251e-05)
(0.00184097 -0.00101958 0.000173003)
(0.000720415 -0.000462784 -7.51765e-06)
(0.00174455 -0.0010296 0.000112038)
(0.00217877 -0.00115703 0.000232097)
(0.00103273 -0.000531039 8.77317e-06)
(0.000709543 -0.000467685 -3.77707e-05)
(0.000645681 -0.000458713 -1.30659e-05)
(0.00143892 -0.000912216 2.63609e-05)
(0.0010636 -0.000798009 -3.87949e-05)
(0.000832975 -0.000487738 -1.52438e-05)
(0.000489586 -0.000451868 -3.40944e-05)
(0.00123325 -0.000826392 -3.11495e-05)
(0.0004767 -0.000222433 -4.48093e-05)
(0.000209861 -7.42906e-05 -1.6538e-05)
(0.000177218 -2.58077e-05 -2.40828e-05)
(0.000485169 -0.000229941 -7.23601e-05)
(0.000538493 -0.000250441 -3.78873e-05)
(0.000420281 -0.000208726 -7.56121e-05)
(0.000205183 -2.02108e-05 -1.2518e-05)
(0.000613207 -0.000444973 -6.71706e-05)
(0.000944688 -0.000750302 -8.24606e-05)
(0.000362797 -0.000430265 -0.000129854)
(0.0010064 -0.00071776 -0.000138192)
(0.000450341 -0.000449307 -4.67884e-05)
(0.00109137 -0.000761219 -8.04553e-05)
(0.000543977 -0.000420484 -0.000118627)
(0.000480112 -0.000332584 -0.000288207)
(0.000340425 -0.000412903 -0.000186684)
(0.000943625 -0.000652189 -0.000205127)
(0.000808473 -0.000594246 -0.000269538)
(0.00049284 -0.000378961 -0.000201021)
(0.000323458 -0.000317871 -0.000351439)
(0.000923737 -0.000591081 -0.00025939)
(0.000369044 -0.000196097 -0.00029793)
(8.59236e-05 -3.42684e-05 -0.000159547)
(0.000131326 -5.8218e-05 -0.00010654)
(0.000316346 -0.000201872 -0.000255041)
(0.000271114 -0.00024161 -0.000383314)
(0.000351067 -0.000181432 -0.000229269)
(0.000127448 -1.34849e-05 -0.000112791)
(0.000987487 -0.000342827 -6.87217e-05)
(0.000616569 -0.000117548 -3.08739e-05)
(0.000303275 3.43324e-05 -1.73573e-05)
(0.000735344 -0.000142089 -4.18067e-05)
(0.000848567 -0.000329471 -5.33616e-05)
(0.000962469 -0.000406032 -6.62792e-05)
(0.00074638 -0.00043801 -1.13231e-05)
(0.000731977 -0.000432512 -2.9842e-05)
(0.000848856 -0.000447776 -3.17677e-05)
(0.000824709 -0.000389435 -5.16915e-05)
(0.00098539 -0.000408591 -6.90238e-05)
(0.000792909 -0.000438125 -1.15746e-05)
(0.000905562 -0.000450033 -3.29423e-05)
(0.00101037 -0.000344633 -7.17006e-05)
(0.000311974 3.78975e-05 -1.84952e-05)
(0.000818181 -0.000152693 -5.13874e-05)
(0.0127996 -0.00165586 -0.000768254)
(0.0133424 0.00198024 -0.000977218)
(0.0126393 -0.00306218 -0.000777138)
(0.0130733 -0.00756646 -0.000879635)
(0.0129615 -0.0103915 -0.000613274)
(0.0127968 -0.00107799 -0.00105084)
(0.012751 -0.00434258 -0.000643365)
(0.0129661 -0.0118036 -0.000492416)
(0.0130992 -0.0010331 -0.000887737)
(0.0137914 0.00380621 -0.00135101)
(0.0137007 0.00280618 -0.00113348)
(0.0131584 0.000927544 -0.00115988)
(0.000729784 -0.000318296 -4.41632e-05)
(0.00057835 -0.000115507 -2.81502e-05)
(0.000237261 1.74453e-05 -1.13469e-05)
(0.000533034 -0.000127442 -2.67077e-05)
(0.00083199 -0.000328158 -5.16375e-05)
(0.000706691 -0.000375181 -4.34625e-05)
(0.000688159 -0.000429877 -2.94598e-05)
(0.00051304 -0.000439982 -1.83876e-05)
(0.000808093 -0.000387561 -5.01641e-05)
(0.000610911 -0.000422556 -3.16241e-05)
(0.000694235 -0.000373759 -4.30457e-05)
(0.000520601 -0.00041712 -4.09515e-05)
(0.000489588 -0.000440809 -2.07e-05)
(0.000582411 -0.000421741 -3.34473e-05)
(0.000616822 -0.00036441 -4.52867e-05)
(0.00071736 -0.000317313 -4.35447e-05)
(0.000452365 -0.000116385 -2.58494e-05)
(0.000227424 1.48763e-05 -1.08452e-05)
(0.000505246 -0.000125951 -2.5911e-05)
(0.000639266 -0.000310043 -4.46813e-05)
(0.000557192 -0.000302985 -6.48499e-05)
(0.000354411 -0.000114603 -6.01997e-05)
(0.000185553 3.204e-06 -1.42e-05)
(0.000390698 -0.000125793 -4.16789e-05)
(0.000498941 -0.000296438 -0.000111268)
(0.000535585 -0.000354441 -6.86785e-05)
(0.000345072 -0.000435117 -7.4578e-05)
(0.000393582 -0.000394529 -0.000133854)
(0.000436067 -0.000405273 -8.17403e-05)
(0.000478293 -0.000344463 -0.000120885)
(0.00054398 -0.000355515 -6.43404e-05)
(0.000496152 -0.000415241 -4.65942e-05)
(0.000360339 -0.000438008 -6.15973e-05)
(0.00060705 -0.000363283 -4.64759e-05)
(0.000454415 -0.000407831 -6.69332e-05)
(0.000565642 -0.000303645 -6.10862e-05)
(0.000425543 -0.000114044 -2.68304e-05)
(0.000188369 4.49943e-06 -1.26335e-05)
(0.000629488 -0.00030929 -4.55814e-05)
(0.000398174 -0.000123692 -3.52335e-05)
(0.0130972 0.00411973 -0.00149781)
(0.0132264 0.00730557 -0.00171349)
(0.0131656 0.0067543 -0.00161415)
(0.0133979 0.00491135 -0.00162537)
(0.0128862 0.00147733 -0.00133645)
(0.0132055 -0.00658564 -0.000977486)
(0.0133785 -0.00478443 -0.00119697)
(0.0129649 -0.000385499 -0.00113883)
(0.0133014 0.00334439 -0.00143972)
(0.0133779 0.00496092 -0.00142116)
(0.0131545 0.00612736 -0.00155373)
(0.0133225 0.00158735 -0.00124554)
(0.0131252 0.00203462 -0.00140138)
(0.0137022 -0.00277974 -0.00143307)
(0.0135097 -0.00426847 -0.00126401)
(0.0134071 0.00282898 -0.00153837)
(0.013815 0.00691608 -0.00182731)
(0.0136816 0.00443277 -0.0016812)
(0.0139694 -0.00268642 -0.00152603)
(0.0136298 0.00247879 -0.00160616)
(0.000431703 -0.000251515 -0.000247926)
(0.000340062 -0.000112437 -7.59064e-05)
(0.000152371 -2.62662e-06 -4.41956e-05)
(0.000318098 -0.000107586 -0.000136425)
(0.000490773 -0.000294843 -0.000121872)
(0.000413321 -0.000291095 -0.00026771)
(0.000376648 -0.000383486 -0.000167867)
(0.000267446 -0.000368853 -0.000286569)
(0.000470218 -0.000342052 -0.000132773)
(0.00034835 -0.000336649 -0.00026736)
(0.000230983 -0.000182996 -0.000421203)
(9.37647e-05 5.07528e-06 -0.000147132)
(0.000371322 -0.000146568 -0.000415747)
(0.000405516 -0.000274723 -0.000295144)
(0.000329767 -0.000249983 -0.000372785)
(0.000259168 -0.00034243 -0.000333623)
(0.00024034 -0.000236083 -0.000451015)
(0.000339392 -0.000307961 -0.000315503)
(0.000331213 -0.000174797 -0.000392103)
(0.000423378 -0.000236126 -0.000274699)
(0.000280126 -6.83638e-05 -0.000225667)
(0.000142414 1.60261e-06 -5.79249e-05)
(0.000116445 1.94246e-05 -0.000141548)
(0.000296499 -8.8436e-05 -0.000170383)
(0.000335842 -9.67491e-05 -0.000341802)
(0.00035608 -0.000161172 -0.000214641)
(0.000142025 -4.9779e-05 -7.07021e-05)
(0.000135789 -5.2766e-05 -8.08263e-05)
(0.000444966 -0.000169504 -0.000154477)
(0.000408429 -0.000168451 -0.00015892)
(0.000388118 -0.000171989 -0.000182562)
(0.000141519 -4.36217e-05 -0.000100443)
(0.000525305 -0.00031506 -0.000296547)
(0.000893852 -0.000593195 -0.000289141)
(0.00057915 -0.000360768 -0.000276427)
(0.00111839 -0.00059318 -0.000266738)
(0.000436246 -0.000317787 -0.000327037)
(0.000984167 -0.000573467 -0.000275614)
(0.000633972 -0.000340957 -0.000258054)
(0.000485206 -0.000208152 -2.14799e-05)
(0.000985393 -0.000376105 -2.56681e-05)
(0.000798549 -0.000245508 -4.20182e-05)
(0.00089777 -0.000399305 -3.81843e-05)
(0.000456995 -0.00020179 -1.91392e-05)
(0.000835605 -0.000349628 -2.46083e-05)
(0.000601516 -0.000211618 -2.72387e-05)
(0.000720039 -0.000375768 -3.25496e-05)
(0.000668 -0.000222209 -3.15295e-05)
(0.000786971 -0.000382304 -3.46137e-05)
(0.000390802 -0.000186183 -1.47245e-05)
(0.000310964 -0.000167326 -1.19189e-05)
(0.000569205 -0.000309983 -3.1891e-05)
(0.000516142 -0.000354437 -3.79836e-05)
(0.000431012 -0.000194713 -2.64045e-05)
(0.000460399 -0.000197982 -2.45182e-05)
(0.000550516 -0.000355554 -3.37157e-05)
(0.000275816 -0.000158757 -1.32638e-05)
(0.000324185 -0.000170236 -1.20052e-05)
(0.000618373 -0.000310858 -2.64355e-05)
(0.000536606 -0.000201632 -2.43143e-05)
(0.00064416 -0.000363797 -3.08491e-05)
(0.000495669 -0.000198116 -2.32368e-05)
(0.000371425 -0.000181592 -1.36126e-05)
(0.000592043 -0.000355586 -3.05021e-05)
(0.000237487 -0.000149365 -2.07817e-05)
(0.000473804 -0.000346251 -4.57282e-05)
(0.000462362 -0.000294156 -5.54886e-05)
(0.000393633 -0.00018859 -3.06516e-05)
(0.000264852 -0.000155857 -1.4324e-05)
(0.000371778 -0.000188237 -3.73051e-05)
(0.00044677 -0.000342494 -5.73068e-05)
(0.000228642 -0.000147141 -2.43305e-05)
(0.000425172 -0.000283732 -7.708e-05)
(0.000327498 -0.000179287 -6.70274e-05)
(0.000393351 -0.000331889 -0.000109133)
(0.000344749 -0.00018204 -4.93345e-05)
(0.000413256 -0.000333133 -7.79141e-05)
(0.000204713 -0.000140758 -4.20329e-05)
(0.000160879 -0.000101239 -0.00011353)
(0.000355926 -0.000216912 -0.000253227)
(0.000339668 -0.00022367 -0.000331214)
(0.000301614 -0.000128987 -0.000252461)
(0.000281582 -0.000135194 -0.000195474)
(0.00033441 -0.000248973 -0.000283835)
(0.000298652 -0.000134892 -0.000318907)
(0.000123951 -4.75332e-05 -0.000271828)
(6.04556e-05 -1.88279e-06 -0.000139323)
(0.000153187 -4.7576e-05 -0.000278741)
(0.000171723 -0.00011692 -9.50077e-05)
(0.000362452 -0.000241354 -0.000185734)
(0.000304426 -0.000168519 -9.71447e-05)
(0.000363565 -0.000311179 -0.00015555)
(0.000288263 -0.000155348 -0.000134808)
(0.000196326 -0.000137234 -5.13132e-05)
(0.000342967 -0.000283354 -0.000210129)
(0.000200344 -0.000130907 -0.000336947)
(0.000120621 -2.74778e-05 -0.000163959)
(0.000264915 -0.000113578 -0.000334282)
(0.000202955 -9.80441e-05 -0.000248198)
(7.49022e-05 -4.00431e-05 -0.000117249)
(0.000166281 -0.000108241 -0.000251267)
(9.27672e-05 -3.65568e-05 -0.000117274)
(0.000319248 -0.00023203 -0.000371471)
(0.000240864 -0.000205983 -0.000396039)
(0.000296501 -0.000184411 -0.000377197)
(0.000278766 -0.000174075 -0.000320818)
(0.000290535 -0.000219405 -0.000339767)
(0.000322814 -0.000210858 -0.000331177)
(0.000240715 -0.000185003 -0.000327797)
(0.000241228 -6.22088e-05 -0.000217686)
(0.000142095 -9.69382e-06 -0.000147428)
(0.000273409 -7.59835e-05 -0.000282242)
(0.000214666 -7.89309e-05 -0.000220978)
(0.000106676 -2.91679e-05 -9.63682e-05)
(0.000199091 -6.30412e-05 -0.000178053)
(0.000103281 -2.87722e-05 -0.000106438)
(0.000902247 -9.18304e-05 -5.46643e-05)
(0.000478557 -0.000139849 -2.29056e-05)
(0.000922914 -0.000336438 -6.12818e-05)
(0.00045281 -0.000135469 -2.07965e-05)
(0.000963148 -8.92812e-05 -6.13086e-05)
(0.000751249 -6.14312e-06 -4.05437e-05)
(0.00021254 7.87798e-05 -7.70493e-06)
(0.000707265 -1.17329e-05 -3.66137e-05)
(0.000224569 8.45412e-05 -8.71331e-06)
(0.000884342 -9.32752e-05 -5.22661e-05)
(0.000903518 -0.000334912 -5.89722e-05)
(0.000409365 -0.000128678 -1.74121e-05)
(0.000429988 -0.000132268 -1.88467e-05)
(0.000832427 -9.54127e-05 -4.71753e-05)
(0.000765172 -3.03911e-06 -4.23691e-05)
(0.000242949 9.33853e-05 -1.0226e-05)
(0.000816904 3.52034e-06 -4.74987e-05)
(0.0002288 8.66098e-05 -8.95779e-06)
(0.000769093 -0.000463621 -4.08066e-05)
(0.000852633 -0.000426435 -5.34284e-05)
(0.000898555 -0.000398253 -5.91331e-05)
(0.000828453 -0.000469849 -4.52621e-05)
(0.00081199 -0.000420837 -4.95398e-05)
(0.000711584 -0.000461028 -3.35974e-05)
(0.000554727 -0.000426836 -1.15768e-05)
(0.000602734 -0.000425115 -1.13523e-05)
(0.000662007 -0.000457089 -3.1174e-05)
(0.000730209 -0.000461996 -3.46843e-05)
(0.00067646 -0.000422238 -1.18069e-05)
(0.000788209 -0.000466755 -3.83169e-05)
(0.000620051 -0.00042448 -1.13904e-05)
(0.000747736 -0.00046183 -3.9124e-05)
(0.000879117 -0.000396081 -5.70337e-05)
(0.000742735 -0.000412691 -4.3658e-05)
(0.000773165 -0.000415488 -4.59686e-05)
(0.000698133 -0.000456477 -3.61911e-05)
(0.000915406 -0.000477184 -5.1753e-05)
(0.00106099 -0.000417754 -7.82628e-05)
(0.000895277 -0.000431399 -5.7616e-05)
(0.000939352 -0.000436427 -6.20272e-05)
(0.000850864 -0.000471346 -4.70567e-05)
(0.000877254 -0.000472872 -4.44268e-05)
(0.000696868 -0.000421406 -1.20417e-05)
(0.000809224 -0.00046765 -3.96377e-05)
(0.000763547 -0.00041846 -1.3031e-05)
(0.00105567 -8.23102e-05 -7.2728e-05)
(0.00108679 -0.000352179 -8.12837e-05)
(0.000507873 -0.00014346 -2.57968e-05)
(0.000538043 -0.000147506 -2.85756e-05)
(0.000984137 -8.65532e-05 -6.43127e-05)
(0.000894616 1.49565e-05 -5.63637e-05)
(0.000247902 9.5825e-05 -1.05529e-05)
(0.000833338 7.18289e-06 -4.97993e-05)
(0.000264717 0.000103864 -1.21419e-05)
(0.00076257 -0.000103114 -4.05757e-05)
(0.000344209 -0.000121169 -1.39206e-05)
(0.000770576 -0.000322348 -4.65054e-05)
(0.000358355 -0.000122863 -1.43699e-05)
(0.000725672 -0.00010651 -3.83452e-05)
(0.00065769 -1.92029e-05 -3.23083e-05)
(0.000208972 7.70171e-05 -7.5334e-06)
(0.000695376 -1.43869e-05 -3.51929e-05)
(0.000198644 7.20729e-05 -6.74636e-06)
(0.000774975 -0.000100935 -4.18624e-05)
(0.000784857 -0.00032348 -4.76786e-05)
(0.000390818 -0.000126669 -1.61089e-05)
(0.000818363 -9.79504e-05 -4.54628e-05)
(0.000373634 -0.00012433 -1.51901e-05)
(0.000647461 -2.14998e-05 -3.1255e-05)
(0.000186653 6.62659e-05 -6.05896e-06)
(0.000614882 -2.57154e-05 -2.93807e-05)
(0.000195556 7.05518e-05 -6.63722e-06)
(0.000625266 -0.000450368 -3.3499e-05)
(0.000747101 -0.000380187 -4.55e-05)
(0.000629933 -0.000398621 -3.75592e-05)
(0.000653225 -0.000400913 -3.81297e-05)
(0.000590789 -0.00044627 -3.35639e-05)
(0.000604572 -0.000452746 -2.95127e-05)
(0.000539944 -0.000427325 -1.17793e-05)
(0.00049883 -0.000428646 -1.29219e-05)
(0.000645082 -0.000455828 -3.04302e-05)
(0.000590412 -0.000451579 -2.93244e-05)
(0.000451333 -0.000430496 -1.537e-05)
(0.00048612 -0.000429128 -1.34561e-05)
(0.000555917 -0.000448053 -2.9718e-05)
(0.000639042 -0.000450879 -3.37328e-05)
(0.000761419 -0.000381816 -4.64771e-05)
(0.00070947 -0.000408017 -4.11791e-05)
(0.000680921 -0.000455146 -3.52568e-05)
(0.000679068 -0.000403255 -3.92182e-05)
(0.000544718 -0.000441532 -3.4926e-05)
(0.000606322 -0.000395396 -3.73036e-05)
(0.000658955 -0.000369436 -4.28389e-05)
(0.000583625 -0.000391918 -3.75319e-05)
(0.000577615 -0.000444879 -3.3621e-05)
(0.000500934 -0.000443903 -3.27798e-05)
(0.000373091 -0.000431156 -2.66933e-05)
(0.000400078 -0.000431251 -2.0964e-05)
(0.000472393 -0.000441573 -3.70324e-05)
(0.000511511 -0.00044401 -3.1674e-05)
(0.000440441 -0.000430829 -1.61794e-05)
(0.000409639 -0.00043126 -1.94998e-05)
(0.000542746 -0.000446711 -2.98647e-05)
(0.000532308 -0.000440189 -3.574e-05)
(0.000648016 -0.000368195 -4.31133e-05)
(0.000545175 -0.000388086 -4.07564e-05)
(0.000561653 -0.000388448 -3.84887e-05)
(0.000503895 -0.00043713 -3.95364e-05)
(0.000680876 -0.000109464 -3.64286e-05)
(0.000330466 -0.000119454 -1.3493e-05)
(0.000681735 -0.000313862 -4.29754e-05)
(0.000317451 -0.000117163 -1.34044e-05)
(0.00071444 -0.000107657 -3.74662e-05)
(0.000569639 -3.32937e-05 -2.75687e-05)
(0.00016695 5.66313e-05 -5.52471e-06)
(0.000544377 -3.67643e-05 -2.79646e-05)
(0.000173844 5.99987e-05 -5.66617e-06)
(0.000670663 -0.00011016 -3.60457e-05)
(0.000670812 -0.000313018 -4.30219e-05)
(0.000294115 -0.000113596 -1.39519e-05)
(0.000305298 -0.000115332 -1.34772e-05)
(0.000640901 -0.000111845 -3.66143e-05)
(0.000577498 -3.14976e-05 -2.78667e-05)
(0.000183993 6.49339e-05 -6.01276e-06)
(0.000605977 -2.77281e-05 -2.86885e-05)
(0.000176213 6.11749e-05 -5.64615e-06)
(0.000541698 -0.000122635 -5.79373e-05)
(0.000247235 -0.0001084 -2.26323e-05)
(0.000531971 -0.000300655 -7.99265e-05)
(0.000238384 -0.000106807 -2.62007e-05)
(0.000565979 -0.000121118 -4.86362e-05)
(0.000454573 -5.33022e-05 -4.62628e-05)
(0.000136434 4.09599e-05 -9.75103e-06)
(0.000435062 -5.69377e-05 -5.77796e-05)