/*--------------------------------*- C++ -*----------------------------------*\
| =========                 |                                                 |
| \\      /  F ield         | OpenFOAM: The Open Source CFD Toolbox           |
|  \\    /   O peration     | Version:  2012                                  |
|   \\  /    A nd           | Website:  www.openfoam.com                      |
|    \\/     M anipulation  |                                                 |
\*---------------------------------------------------------------------------*/
FoamFile
{
    version     2.0;
    format      ascii;
    class       surfaceScalarField;
    location    "0.108/fluid";
    object      meshPhi;
}
// * * * * * * * * * * * * * * * * * * * * * * * * * * * * * * * * * * * * * //

dimensions      [0 3 -1 0 0 0 0];
oriented        oriented;


internalField   nonuniform List<scalar> 
47156
(
-5.26651e-08
2.48567e-07
2.24115e-08
5.08609e-08
-4.41733e-07
-9.56729e-07
1.18213e-06
1.19749e-07
4.26678e-07
-7.96999e-07
-1.81483e-06
2.01861e-06
6.17097e-08
7.69189e-07
-1.16305e-06
-2.63104e-06
2.8249e-06
-1.38958e-07
1.11728e-06
-1.55811e-06
-3.37076e-06
3.52197e-06
-4.38343e-07
1.48429e-06
-1.97268e-06
-3.90443e-06
4.02709e-06
-6.97557e-07
1.86131e-06
-2.3627e-06
-4.35019e-06
4.42714e-06
-1.12268e-06
2.20613e-06
-2.64643e-06
-4.61155e-06
4.64206e-06
-1.77681e-06
2.43935e-06
-2.79862e-06
-4.75516e-06
4.82346e-06
-2.68635e-06
2.55085e-06
-2.8294e-06
-5.20643e-06
5.39235e-06
-4.00776e-06
2.55489e-06
-2.76832e-06
-6.14261e-06
6.44435e-06
-5.59587e-06
2.43572e-06
-2.70147e-06
-7.44189e-06
7.72833e-06
-7.08032e-06
2.22697e-06
-2.4169e-06
-8.00186e-06
7.75394e-06
-7.45423e-06
1.80817e-06
-1.50362e-06
-5.85174e-06
4.89679e-06
-5.13822e-06
1.02073e-06
-1.70922e-07
-1.94685e-06
-1.20932e-06
8.13444e-08
4.83564e-07
1.83257e-07
5.27698e-07
1.70637e-07
-4.24791e-07
-8.76263e-08
2.08937e-06
1.10222e-07
4.09839e-07
-3.56613e-06
-4.6866e-07
-8.02629e-06
9.92839e-06
5.95959e-07
3.44213e-06
-6.42852e-06
-1.59993e-07
-1.54292e-05
1.71533e-05
2.18123e-07
6.20641e-06
-9.3435e-06
5.53426e-07
-2.21688e-05
2.36857e-05
-6.67666e-07
8.99134e-06
-1.23601e-05
1.4515e-06
-2.76566e-05
2.88701e-05
-1.75612e-06
1.18283e-05
-1.53712e-05
2.65981e-06
-3.22223e-05
3.31981e-05
-3.26383e-06
1.46148e-05
-1.81726e-05
4.26604e-06
-3.56877e-05
3.62634e-05
-5.30458e-06
1.70818e-05
-2.00625e-05
6.62892e-06
-3.75791e-05
3.79057e-05
-8.18523e-06
1.86305e-05
-2.11107e-05
1.00257e-05
-3.92145e-05
3.98388e-05
-1.22473e-05
1.94039e-05
-2.12421e-05
1.47023e-05
-4.25673e-05
4.38007e-05
-1.77013e-05
1.93055e-05
-2.03906e-05
2.03436e-05
-4.86791e-05
5.05205e-05
-2.4261e-05
1.80714e-05
-1.87194e-05
2.5496e-05
-5.56871e-05
5.69142e-05
-3.02133e-05
1.5729e-05
-1.58616e-05
2.73669e-05
-5.74102e-05
5.59028e-05
-3.26815e-05
1.21363e-05
2.1906e-05
-1.05989e-05
-4.53004e-05
3.99716e-05
7.22073e-06
-2.78634e-05
1.14871e-05
-3.95144e-06
-2.2777e-05
1.80334e-05
2.33141e-06
-1.83345e-05
-6.31232e-07
-1.56462e-07
3.42725e-06
1.5879e-07
6.09585e-07
-5.26274e-06
-8.53697e-07
-1.3048e-05
1.61137e-05
8.51469e-07
5.08122e-06
-9.3777e-06
-2.65106e-07
-2.50256e-05
2.77969e-05
1.60553e-07
9.077e-06
-1.33902e-05
1.0435e-06
-3.56475e-05
3.808e-05
-1.26226e-06
1.29287e-05
-1.72979e-05
2.91975e-06
-4.47095e-05
4.66993e-05
-3.37264e-06
1.66363e-05
-2.10283e-05
5.42368e-06
-5.21921e-05
5.38046e-05
-6.16017e-06
2.0122e-05
-2.42049e-05
8.69461e-06
-5.78997e-05
5.89256e-05
-9.78084e-06
2.29914e-05
-2.60923e-05
1.30038e-05
-6.12796e-05
6.18635e-05
-1.44678e-05
2.45989e-05
-2.67131e-05
1.85999e-05
-6.35736e-05
6.40926e-05
-2.03968e-05
2.49635e-05
-2.56732e-05
2.53905e-05
-6.57315e-05
6.63347e-05
-2.73638e-05
2.3723e-05
-2.28461e-05
3.3033e-05
-6.86077e-05
6.93218e-05
-3.4912e-05
2.06374e-05
-1.7934e-05
3.98849e-05
-7.01997e-05
6.96671e-05
-4.15971e-05
1.54123e-05
-1.10406e-05
4.37885e-05
-6.47018e-05
6.17339e-05
-4.55077e-05
8.36283e-06
-3.12625e-06
4.36297e-05
-4.92471e-05
4.42927e-05
-4.59251e-05
8.18376e-07
2.17338e-06
4.56894e-05
-2.99839e-05
2.60518e-05
-5.0327e-05
-3.67593e-06
-6.47113e-07
-1.33099e-07
4.20168e-06
6.3117e-07
-5.42001e-06
-5.18286e-07
-1.62531e-05
2.00155e-05
5.27497e-06
-9.35013e-06
3.90456e-07
-3.02605e-05
3.33703e-05
9.11298e-06
-1.29418e-05
2.08734e-06
-4.2144e-05
4.4889e-05
1.258e-05
-1.62684e-05
4.65139e-06
-5.25696e-05
5.49035e-05
1.57492e-05
-1.92368e-05
7.9284e-06
-6.12406e-05
6.31135e-05
1.8539e-05
-2.15728e-05
1.22602e-05
-6.79465e-05
6.91728e-05
2.06716e-05
-2.26631e-05
1.76744e-05
-7.20333e-05
7.26805e-05
2.15932e-05
-2.21787e-05
2.40435e-05
-7.38452e-05
7.39257e-05
2.09801e-05
-1.99142e-05
3.09983e-05
-7.33194e-05
7.28273e-05
1.86185e-05
-1.5602e-05
3.79785e-05
-7.06269e-05
6.95472e-05
1.42119e-05
-8.96773e-06
4.36516e-05
-6.50757e-05
6.29764e-05
7.53357e-06
-4.14157e-07
4.63897e-05
-5.44592e-05
5.08955e-05
-8.97194e-07
9.32983e-06
4.32593e-05
-3.85598e-05
3.41139e-05
-1.03777e-05
1.67256e-05
3.49365e-05
-2.07616e-05
1.59691e-05
-1.77626e-05
-4.28219e-08
2.00538e-07
1.86516e-08
3.97448e-08
-3.61681e-07
-7.83621e-07
9.73764e-07
8.841e-08
3.35456e-07
-6.50134e-07
-1.50295e-06
1.66121e-06
2.72728e-08
6.02411e-07
-9.25446e-07
-2.0873e-06
2.20324e-06
-7.6966e-08
8.52082e-07
-1.19952e-06
-2.56557e-06
2.69289e-06
-2.72125e-07
1.09602e-06
-1.47166e-06
-3.0093e-06
3.1028e-06
-5.36838e-07
1.33518e-06
-1.6959e-06
-3.32284e-06
3.3665e-06
-8.56381e-07
1.52778e-06
-1.81628e-06
-3.41994e-06
3.41789e-06
-1.24241e-06
1.62807e-06
-1.83361e-06
-3.40169e-06
3.3998e-06
-1.74979e-06
1.62708e-06
-1.76687e-06
-3.41554e-06
3.42498e-06
-2.36922e-06
1.54235e-06
-1.56785e-06
-3.4456e-06
3.44341e-06
-2.99712e-06
1.33802e-06
-1.22879e-06
-3.35402e-06
3.27749e-06
-3.43608e-06
1.00783e-06
-7.85019e-07
-2.84045e-06
2.61888e-06
-3.31526e-06
6.03489e-07
-3.12436e-07
-1.78989e-06
1.48697e-06
-2.32149e-06
2.04311e-07
1.24007e-07
-7.77769e-07
-8.66287e-07
-2.13541e-07
2.89754e-07
1.16368e-07
3.09868e-07
1.09106e-07
-3.45226e-07
-7.36724e-08
1.68243e-06
9.17427e-08
3.19804e-07
-2.90575e-06
-3.59069e-07
-6.53933e-06
8.12099e-06
4.55617e-07
2.691e-06
-5.23462e-06
-9.04263e-08
-1.26221e-05
1.39921e-05
1.23114e-07
4.83794e-06
-7.46753e-06
3.8182e-07
-1.771e-05
1.88077e-05
-4.94225e-07
6.84825e-06
-9.63559e-06
1.11319e-06
-2.18565e-05
2.277e-05
-1.40765e-06
8.77157e-06
-1.16573e-05
2.0988e-06
-2.51906e-05
2.58882e-05
-2.61824e-06
1.05427e-05
-1.32682e-05
3.33698e-06
-2.76056e-05
2.79947e-05
-4.16333e-06
1.19488e-05
-1.41721e-05
4.87152e-06
-2.87527e-05
2.89033e-05
-6.07716e-06
1.27256e-05
-1.42849e-05
6.89553e-06
-2.91462e-05
2.91942e-05
-8.56593e-06
1.27147e-05
-1.36571e-05
9.18643e-06
-2.93032e-05
2.93029e-05
-1.13533e-05
1.19755e-05
-1.19215e-05
1.15393e-05
-2.90523e-05
2.88725e-05
-1.42001e-05
1.02294e-05
-9.06997e-06
1.33171e-05
-2.77095e-05
2.69622e-05
-1.63906e-05
7.50028e-06
-5.44916e-06
1.34091e-05
-2.34174e-05
2.17663e-05
-1.68171e-05
4.19415e-06
1.08323e-05
-2.0632e-06
-1.5816e-05
1.36613e-05
1.28551e-06
-1.44391e-05
6.79443e-06
9.67986e-08
-7.97301e-06
6.63793e-06
-4.62589e-07
-1.07829e-05
-5.129e-07
-1.28508e-07
2.79013e-06
1.31976e-07
4.74466e-07
-4.27855e-06
-6.62063e-07
-1.0708e-05
1.32459e-05
6.64358e-07
3.95548e-06
-7.63825e-06
-1.44353e-07
-2.05496e-05
2.28258e-05
8.00231e-08
7.04421e-06
-1.07638e-05
9.19365e-07
-2.90998e-05
3.10109e-05
-1.10926e-06
9.86397e-06
-1.3692e-05
2.37474e-06
-3.62597e-05
3.78145e-05
-2.72546e-06
1.24986e-05
-1.63377e-05
4.27558e-06
-4.19859e-05
4.31829e-05
-4.8185e-06
1.48568e-05
-1.83603e-05
6.71242e-06
-4.61932e-05
4.69587e-05
-7.50699e-06
1.66339e-05
-1.93963e-05
9.71365e-06
-4.87466e-05
4.91708e-05
-1.08106e-05
1.7532e-05
-1.92495e-05
1.34431e-05
-4.99194e-05
4.99588e-05
-1.48639e-05
1.73238e-05
-1.7689e-05
1.75353e-05
-4.94707e-05
4.90406e-05
-1.9227e-05
1.57571e-05
-1.43679e-05
2.15167e-05
-4.71859e-05
4.6396e-05
-2.34531e-05
1.25346e-05
-9.31987e-06
2.48365e-05
-4.32241e-05
4.16873e-05
-2.70234e-05
7.79235e-06
-3.13038e-06
2.66486e-05
-3.57804e-05
3.33641e-05
-2.9015e-05
2.14529e-06
2.52817e-06
2.6522e-05
-2.52212e-05
2.2425e-05
-2.91686e-05
-2.79854e-06
5.14832e-06
2.81883e-05
-1.49258e-05
1.29534e-05
-3.211e-05
-4.92291e-06
-5.46346e-07
-1.12777e-07
3.58882e-06
5.09679e-07
-4.51878e-06
-4.40293e-07
-1.371e-05
1.68396e-05
4.19365e-06
-7.80168e-06
3.38672e-07
-2.55347e-05
2.81888e-05
7.22149e-06
-1.07137e-05
1.75947e-06
-3.55623e-05
3.78303e-05
9.90694e-06
-1.32941e-05
3.7545e-06
-4.40718e-05
4.59483e-05
1.2271e-05
-1.54862e-05
6.29676e-06
-5.09966e-05
5.2427e-05
1.42539e-05
-1.69916e-05
9.51045e-06
-5.60463e-05
5.69962e-05
1.55753e-05
-1.74748e-05
1.34134e-05
-5.91158e-05
5.95717e-05
1.59527e-05
-1.66589e-05
1.80319e-05
-6.0138e-05
5.99683e-05
1.51362e-05
-1.43137e-05
2.26835e-05
-5.85053e-05
5.76845e-05
1.2877e-05
-1.01026e-05
2.7256e-05
-5.45123e-05
5.31531e-05
8.86553e-06
-4.07225e-06
3.0824e-05
-4.81243e-05
4.60477e-05
3.22901e-06
3.12493e-06
3.23059e-05
-3.87484e-05
3.59457e-05
-3.34993e-06
1.04834e-05
3.00266e-05
-2.66023e-05
2.32485e-05
-9.79196e-06
1.52363e-05
2.72923e-05
-1.35287e-05
1.0701e-05
-1.34324e-05
-2.96617e-08
1.74175e-07
1.23431e-08
2.61563e-08
-2.49658e-07
-6.65077e-07
8.17934e-07
6.00843e-08
2.19071e-07
-4.43088e-07
-1.2311e-06
1.34905e-06
2.44655e-08
3.86137e-07
-6.15988e-07
-1.64474e-06
1.73102e-06
-2.5794e-08
5.34227e-07
-7.7898e-07
-1.99789e-06
2.09161e-06
-1.6676e-07
6.75548e-07
-9.38354e-07
-2.34056e-06
2.41023e-06
-3.88478e-07
8.13914e-07
-1.06729e-06
-2.58036e-06
2.61888e-06
-6.45658e-07
9.24604e-07
-1.12964e-06
-2.66656e-06
2.6629e-06
-9.17344e-07
9.76933e-07
-1.10826e-06
-2.60919e-06
2.578e-06
-1.2187e-06
9.55092e-07
-1.00477e-06
-2.45793e-06
2.40997e-06
-1.53669e-06
8.5581e-07
-8.2165e-07
-2.24407e-06
2.17946e-06
-1.84284e-06
6.89993e-07
-5.67504e-07
-1.94777e-06
1.85172e-06
-2.0709e-06
4.68514e-07
-2.93191e-07
-1.50171e-06
1.36768e-06
-2.06731e-06
2.34867e-07
-5.975e-08
-9.48227e-07
8.17411e-07
-1.69898e-06
4.21042e-08
1.58411e-07
-5.19112e-07
4.69937e-07
-1.14291e-06
-1.17483e-07
-2.36913e-07
-5.35906e-08
1.43327e-06
6.85158e-08
2.08372e-07
-1.99097e-06
-2.56864e-07
-5.5065e-06
6.79671e-06
3.27349e-07
1.74753e-06
-3.53862e-06
-7.97293e-08
-1.03557e-05
1.1378e-05
9.42905e-08
3.0872e-06
-4.90217e-06
2.07998e-07
-1.40566e-05
1.48624e-05
-3.10444e-07
4.25495e-06
-6.18045e-06
7.60616e-07
-1.70969e-05
1.77747e-05
-1.01043e-06
5.3534e-06
-7.36873e-06
1.56268e-06
-1.96432e-05
2.01903e-05
-1.98154e-06
6.38414e-06
-8.33337e-06
2.52198e-06
-2.15514e-05
2.18907e-05
-3.16858e-06
7.2147e-06
-8.82543e-06
3.65269e-06
-2.25756e-05
2.26865e-05
-4.58784e-06
7.62663e-06
-8.68849e-06
4.95243e-06
-2.26201e-05
2.24576e-05
-6.24862e-06
7.48875e-06
-7.87127e-06
6.27696e-06
-2.16559e-05
2.12896e-05
-7.9362e-06
6.72132e-06
-6.36511e-06
7.49735e-06
-1.98686e-05
1.92967e-05
-9.47068e-06
5.3642e-06
-4.26839e-06
8.46003e-06
-1.72315e-05
1.63946e-05
-1.07109e-05
3.52927e-06
-2.00385e-06
8.68095e-06
-1.34478e-05
1.23528e-05
-1.112e-05
1.58979e-06
-2.42746e-07
7.77502e-06
-8.99153e-06
7.93217e-06
-1.03384e-05
1.18866e-07
7.3306e-07
6.44289e-06
-5.3437e-06
4.75705e-06
-9.303e-06
-6.84504e-07
-3.49784e-07
-9.95461e-08
2.35512e-06
1.02766e-07
3.07557e-07
-2.91508e-06
-4.96914e-07
-8.99777e-06
1.11305e-05
5.0444e-07
2.56508e-06
-5.17656e-06
-5.21703e-08
-1.71656e-05
1.8921e-05
9.23652e-09
4.53863e-06
-7.10138e-06
7.33864e-07
-2.3716e-05
2.52029e-05
-9.08558e-07
6.20181e-06
-8.91837e-06
1.8899e-06
-2.92695e-05
3.0475e-05
-2.20309e-06
7.7856e-06
-1.05485e-05
3.38158e-06
-3.36729e-05
3.45955e-05
-3.83307e-06
9.20882e-06
-1.17701e-05
5.22688e-06
-3.69219e-05
3.7516e-05
-5.86037e-06
1.02691e-05
-1.23224e-05
7.34455e-06
-3.87917e-05
3.90798e-05
-8.14426e-06
1.07291e-05
-1.20263e-05
9.91974e-06
-3.94175e-05
3.92779e-05
-1.09568e-05
1.04017e-05
-1.06154e-05
1.26059e-05
-3.81544e-05
3.75334e-05
-1.39136e-05
9.09342e-06
-8.05484e-06
1.52289e-05
-3.51863e-05
3.42196e-05
-1.6875e-05
6.82095e-06
-4.51578e-06
1.74596e-05
-3.07765e-05
2.94115e-05
-1.94107e-05
3.73386e-06
-6.37002e-07
1.89067e-05
-2.48941e-05
2.32563e-05
-2.12581e-05
4.18137e-07
2.41291e-06
1.96466e-05
-1.82558e-05
1.66587e-05
-2.27275e-05
-2.12597e-06
3.53661e-06
2.15706e-05
-1.25627e-05
1.15279e-05
-2.61036e-05
-3.0556e-06
-3.81658e-07
-8.80872e-08
3.08793e-06
3.35257e-07
-3.113e-06
-3.58093e-07
-1.1654e-05
1.42772e-05
2.73946e-06
-5.33617e-06
2.63998e-07
-2.15443e-05
2.37703e-05
4.69516e-06
-7.28983e-06
1.45156e-06
-2.99268e-05
3.18147e-05
6.40732e-06
-9.01797e-06
3.08043e-06
-3.6936e-05
3.8447e-05
7.92896e-06
-1.0432e-05
5.05229e-06
-4.24766e-05
4.362e-05
9.16008e-06
-1.13247e-05
7.45179e-06
-4.64493e-05
4.71671e-05
9.93238e-06
-1.15227e-05
1.01871e-05
-4.86151e-05
4.88818e-05
1.00933e-05
-1.0806e-05
1.34321e-05
-4.9083e-05
4.88386e-05
9.42377e-06
-8.91741e-06
1.69016e-05
-4.73349e-05
4.65789e-05
7.71001e-06
-5.76009e-06
2.03135e-05
-4.37407e-05
4.25899e-05
4.90006e-06
-1.55859e-06
2.32595e-05
-3.84859e-05
3.68989e-05
1.20788e-06
3.06178e-06
2.57408e-05
-3.17344e-05
2.99046e-05
-2.78567e-06
7.0612e-06
2.81345e-05
-2.42836e-05
2.24316e-05
-6.13726e-06
8.67288e-06
3.37103e-05
-1.75812e-05
1.63284e-05
-7.40617e-06
-1.51526e-08
1.56808e-07
8.74088e-09
1.14379e-08
-1.25967e-07
-5.85797e-07
7.13141e-07
4.76987e-08
9.47848e-08
-2.18256e-07
-1.04644e-06
1.14132e-06
3.3465e-08
1.63594e-07
-2.98626e-07
-1.40054e-06
1.48269e-06
-1.50939e-08
2.23279e-07
-3.76029e-07
-1.71453e-06
1.78198e-06
-1.42068e-07
2.80382e-07
-4.51947e-07
-1.95368e-06
2.00453e-06
-2.99293e-07
3.36373e-07
-5.12226e-07
-2.15798e-06
2.19606e-06
-5.43874e-07
3.82452e-07
-5.40424e-07
-2.24896e-06
2.24178e-06
-7.94512e-07
4.04527e-07
-5.27385e-07
-2.17519e-06
2.14412e-06
-1.00408e-06
3.94377e-07
-4.67232e-07
-2.03359e-06
1.98759e-06
-1.23894e-06
3.49099e-07
-3.69595e-07
-1.81695e-06
1.75117e-06
-1.46366e-06
2.76064e-07
-2.46544e-07
-1.53125e-06
1.44919e-06
-1.64467e-06
1.84098e-07
-1.18958e-07
-1.17431e-06
1.08052e-06
-1.72233e-06
8.91532e-08
-1.91263e-08
-8.15215e-07
7.38965e-07
-1.67692e-06
1.42885e-08
4.88938e-08
-5.69001e-07
5.32165e-07
-1.6737e-06
-3.58827e-08
-1.2176e-07
-3.95155e-08
1.3085e-06
5.06642e-08
9.21363e-08
-1.01517e-06
-2.20478e-07
-4.9024e-06
5.97543e-06
2.83011e-07
7.66445e-07
-1.76171e-06
-1.42036e-07
-8.85692e-06
9.69105e-06
1.61298e-07
1.32391e-06
-2.40463e-06
9.69041e-08
-1.19379e-05
1.26442e-05
-1.60497e-07
1.80505e-06
-3.01999e-06
6.01116e-07
-1.45986e-05
1.51683e-05
-7.86627e-07
2.26973e-06
-3.59438e-06
1.25661e-06
-1.66713e-05
1.712e-05
-1.59903e-06
2.69857e-06
-4.04047e-06
2.10099e-06
-1.82496e-05
1.85193e-05
-2.62441e-06
3.03528e-06
-4.25152e-06
3.03383e-06
-1.89644e-05
1.89752e-05
-3.7727e-06
3.19121e-06
-4.15354e-06
3.98539e-06
-1.8666e-05
1.8467e-05
-4.98669e-06
3.10874e-06
-3.68159e-06
4.98545e-06
-1.76259e-05
1.7264e-05
-6.24139e-06
2.74796e-06
-2.87662e-06
5.92411e-06
-1.58817e-05
1.53408e-05
-7.4117e-06
2.14482e-06
-1.85612e-06
6.72155e-06
-1.35242e-05
1.28484e-05
-8.43917e-06
1.38416e-06
-7.88301e-07
7.13627e-06
-1.06514e-05
9.91036e-06
-9.07355e-06
5.89038e-07
8.6866e-09
7.21286e-06
-7.79649e-06
7.16753e-06
-9.36373e-06
-1.65728e-08
4.45749e-07
7.52712e-06
-5.6615e-06
5.30592e-06
-9.99121e-06
-3.53311e-07
-1.80757e-07
-7.73392e-08
2.15692e-06
8.23866e-08
1.37042e-07
-1.51006e-06
-4.0739e-07
-8.15961e-06
1.00028e-05
4.08329e-07
1.1428e-06
-2.62117e-06
-9.76458e-08
-1.51006e-05
1.66174e-05
4.22986e-08
1.97623e-06
-3.59349e-06
5.54658e-07
-2.07766e-05
2.20361e-05
-7.31161e-07
2.71393e-06
-4.52786e-06
1.55347e-06
-2.54335e-05
2.64191e-05
-1.84684e-06
3.42981e-06
-5.36837e-06
2.82721e-06
-2.90814e-05
2.98425e-05
-3.26241e-06
4.06911e-06
-5.94824e-06
4.344e-06
-3.16692e-05
3.21095e-05
-4.90784e-06
4.51546e-06
-6.16989e-06
6.01064e-06
-3.29335e-05
3.30455e-05
-6.71535e-06
4.67314e-06
-5.89222e-06
7.85672e-06
-3.28037e-05
3.25189e-05
-8.74184e-06
4.44206e-06
-5.04789e-06
9.75317e-06
-3.11101e-05
3.04945e-05
-1.08585e-05
3.79015e-06
-3.69297e-06
1.16477e-05
-2.82764e-05
2.74131e-05
-1.30093e-05
2.76262e-06
-1.94475e-06
1.34433e-05
-2.45333e-05
2.35039e-05
-1.51002e-05
1.44974e-06
-1.35809e-07
1.51198e-05
-2.03204e-05
1.92616e-05
-1.71723e-05
9.70851e-08
1.2257e-06
1.67904e-05
-1.61671e-05
1.52116e-05
-1.9468e-05
-9.32721e-07
1.76022e-06
1.91958e-05
-1.27547e-05
1.21067e-05
-2.27214e-05
-1.35728e-06
-1.955e-07
-7.58137e-08
2.77477e-06
1.48024e-07
-1.60994e-06
-3.11317e-07
-1.05141e-05
1.28921e-05
1.22038e-06
-2.75846e-06
2.19949e-07
-1.94188e-05
2.14004e-05
2.09148e-06
-3.77689e-06
1.24388e-06
-2.68312e-05
2.84713e-05
2.86711e-06
-4.67468e-06
2.66356e-06
-3.28642e-05
3.41359e-05
3.55389e-06
-5.38045e-06
4.38303e-06
-3.75062e-05
3.84508e-05
4.09264e-06
-5.80841e-06
6.31663e-06
-4.07153e-05
4.12779e-05
4.41476e-06
-5.8899e-06
8.47054e-06
-4.2363e-05
4.25155e-05
4.47151e-06
-5.42952e-06
1.09011e-05
-4.23339e-05
4.20483e-05
4.10899e-06
-4.35724e-06
1.35217e-05
-4.05829e-05
3.99041e-05
3.285e-06
-2.68252e-06
1.62467e-05
-3.74143e-05
3.64441e-05
2.01026e-06
-5.24061e-07
1.90739e-05
-3.32187e-05
3.20594e-05
3.68089e-07
1.74833e-06
2.21477e-05
-2.84749e-05
2.72656e-05
-1.3634e-06
3.56526e-06
2.59603e-05
-2.37547e-05
2.2649e-05
-2.74939e-06
4.2273e-06
3.16982e-05
-1.97595e-05
1.89802e-05
-3.27213e-06
-2.6696e-06
-3.08748e-07
-1.4286e-06
6.40386e-07
1.97199e-07
5.74754e-07
2.15572e-07
2.88996e-06
-2.3388e-05
-1.38253e-05
-4.58794e-06
7.86303e-06
1.71407e-05
3.33412e-07
-7.68565e-06
-6.57058e-07
-9.27432e-06
5.41603e-07
4.90127e-07
4.54516e-07
5.6208e-07
4.74921e-05
-2.7619e-05
1.50405e-05
2.37383e-05
-1.03248e-06
2.21338e-05
8.77255e-07
-3.13713e-06
-2.17944e-05
-1.67882e-05
6.48729e-06
1.25576e-05
1.71115e-06
-7.11093e-06
-7.21785e-06
7.06851e-08
5.9713e-07
5.23069e-07
5.83197e-07
5.46732e-07
-9.36307e-07
4.74848e-08
-9.32552e-07
3.48363e-07
1.22811e-07
3.28334e-07
1.29212e-07
-1.19551e-07
-7.22294e-06
-7.50763e-06
-3.18507e-07
4.32996e-06
5.75436e-06
-7.54659e-07
-5.69059e-06
4.22522e-07
-3.86451e-06
6.30468e-07
6.07384e-07
6.10511e-07
6.23605e-07
1.96684e-05
-2.14585e-06
-1.92352e-05
-1.17539e-06
2.42203e-05
-1.27515e-05
1.68811e-05
9.02565e-06
4.67924e-05
-9.36506e-06
-3.2866e-06
2.67108e-06
1.84888e-06
2.43541e-06
1.99088e-06
-5.8137e-06
3.95489e-06
4.72864e-06
-4.45914e-07
-5.3484e-06
-3.2968e-06
-1.11476e-06
5.9677e-07
5.99287e-07
6.13189e-07
5.8438e-07
-5.37303e-07
2.06693e-07
4.96907e-07
-9.85845e-07
-3.53818e-07
-5.36573e-07
-7.83842e-07
2.66889e-07
1.11277e-07
2.76553e-07
1.07684e-07
-4.0396e-06
-6.22171e-06
-6.18004e-07
6.6013e-07
3.91029e-06
3.49379e-06
-5.77729e-06
-9.75101e-07
1.16198e-06
3.30052e-06
-2.77434e-06
5.31515e-05
-3.78823e-05
1.33174e-07
3.30907e-05
-5.91403e-05
-1.11928e-06
6.63006e-05
-7.91858e-08
-2.58246e-05
-8.10111e-05
-1.29671e-05
-2.80846e-05
1.139e-05
2.41137e-05
5.53413e-05
-5.17925e-06
-2.46929e-05
-1.86228e-05
-2.10142e-05
3.99628e-06
-1.74805e-05
9.07014e-05
5.0605e-05
-4.40768e-05
7.80666e-06
3.96745e-05
-1.57086e-05
4.72368e-05
1.40875e-05
-3.1429e-05
5.79639e-05
-2.02644e-05
-6.98747e-05
-2.11331e-06
-2.17899e-05
1.75343e-05
-1.39728e-05
4.40095e-05
-1.6312e-05
-1.74289e-05
-1.42119e-05
-1.06787e-05
-6.17573e-06
7.45076e-05
3.10122e-05
-1.67459e-05
5.10077e-06
1.44074e-05
-3.45314e-05
3.99545e-05
-3.50026e-06
3.30511e-06
-1.11927e-05
-4.81206e-05
-1.26929e-05
-1.34902e-05
1.37545e-05
1.01575e-05
3.04268e-05
-7.79421e-06
7.58021e-06
-5.41885e-06
5.08946e-05
3.63202e-05
-1.66757e-05
-2.5229e-05
3.12677e-05
-2.81628e-05
1.08987e-05
2.43627e-05
2.52048e-05
-1.47241e-05
1.60744e-05
-1.6602e-05
-1.71054e-05
1.59714e-05
3.14777e-06
2.94418e-06
2.22117e-06
1.89305e-06
3.70026e-05
1.00074e-05
-1.78891e-05
2.6188e-05
-1.55495e-05
8.72569e-07
-1.73759e-05
2.52929e-07
1.39656e-06
9.1191e-07
2.67019e-05
4.76734e-05
-6.7498e-06
-8.99938e-06
3.33134e-05
-1.67091e-05
1.00991e-05
1.52262e-05
4.64866e-05
-6.79777e-06
7.58828e-06
-1.31385e-05
-4.95714e-09
-3.82175e-08
4.58146e-08
1.23123e-08
5.29545e-09
-3.64083e-08
-1.56872e-08
8.22239e-09
3.9155e-08
-1.85297e-07
-8.47406e-08
-9.65796e-07
-2.47721e-07
9.59896e-08
1.18275e-07
8.44623e-07
3.13025e-05
6.1869e-05
-3.47291e-05
1.42785e-05
4.15694e-06
5.13355e-06
4.06009e-06
5.1059e-06
5.13986e-05
6.09426e-06
6.1081e-06
6.74803e-05
-3.1529e-06
1.33867e-05
3.67182e-06
2.96481e-06
-1.19655e-05
-8.68485e-08
-7.54317e-07
-3.35777e-07
8.38674e-08
7.1431e-07
2.32799e-07
-3.80691e-08
4.57751e-08
1.11761e-08
-4.72847e-09
-2.48212e-08
1.77259e-08
-1.79805e-07
-3.42408e-08
-9.04032e-07
-2.74994e-07
-8.61651e-08
1.52912e-07
8.08284e-07
-2.76998e-08
-7.18175e-08
-1.46209e-07
2.74524e-08
6.74889e-08
-3.68321e-09
-3.64279e-08
4.63336e-09
3.74602e-09
4.4332e-08
-7.15571e-07
-3.50743e-07
6.85514e-07
-9.80924e-08
2.5195e-07
-5.87988e-09
-3.31037e-08
4.06271e-08
-1.27654e-09
5.2365e-09
-5.80782e-08
-9.87407e-08
9.70314e-08
4.97124e-08
-1.15864e-07
-7.68094e-08
-1.4197e-07
7.26779e-08
-2.83788e-08
-1.86483e-07
-6.09637e-07
-3.70799e-07
1.43685e-07
2.87621e-07
6.01285e-07
-3.60346e-08
3.84206e-09
4.39621e-08
-3.71408e-09
1.13279e-05
2.667e-06
-9.84214e-06
-3.30946e-06
-1.55058e-06
1.39594e-05
1.43878e-06
1.34985e-07
-1.30923e-05
-3.54353e-06
6.87121e-06
-5.01456e-06
3.52581e-06
3.49631e-07
8.00597e-06
2.29007e-05
-1.30204e-05
1.64141e-05
5.54928e-06
-1.46809e-05
2.61124e-05
7.26585e-07
1.94631e-07
8.77602e-07
5.66642e-07
2.3446e-05
1.30541e-05
-1.7282e-06
2.07394e-07
-1.21622e-05
3.31368e-05
3.35017e-06
3.47346e-06
3.01707e-06
3.8874e-06
-1.26448e-05
6.45918e-06
-4.69462e-06
2.40017e-07
-3.54983e-06
-4.77189e-07
-3.10431e-07
-3.68663e-07
3.72712e-07
4.74776e-07
2.07088e-07
-3.25329e-08
3.99932e-08
-1.8957e-09
-6.79491e-09
-9.94408e-08
9.78291e-08
-1.12404e-07
-6.794e-08
-3.19888e-08
8.90725e-10
-1.65908e-08
1.4258e-08
5.52485e-09
1.40602e-08
5.60848e-09
-5.77628e-07
-3.64442e-07
-2.46046e-07
2.84758e-07
5.71867e-07
-7.23526e-08
-1.26806e-07
-8.94666e-08
1.31576e-07
6.38054e-08
-2.35349e-08
-1.85422e-08
4.55758e-09
1.99518e-08
2.76069e-08
-8.28632e-06
-2.20795e-06
7.01659e-06
-6.78671e-06
4.85315e-07
-7.80673e-07
-2.71206e-06
-4.00701e-06
9.30651e-06
-5.20801e-05
-2.76339e-05
-1.34439e-05
2.06439e-05
4.5735e-05
4.33595e-06
-1.72273e-05
-6.71459e-06
1.09621e-05
-3.05793e-05
-3.13861e-05
-6.25069e-06
2.45245e-05
-2.1775e-05
1.11145e-06
-1.8678e-06
-1.49821e-05
-1.65771e-05
1.07056e-06
-4.07518e-05
-3.50055e-06
3.52021e-05
4.28658e-05
4.45941e-07
-1.75709e-06
-2.6453e-05
4.70938e-05
-2.12649e-06
2.93158e-07
-2.80904e-06
-3.77549e-05
1.60564e-05
3.27963e-05
6.35173e-06
-1.39878e-05
8.75463e-06
2.69121e-06
-2.1768e-05
-2.31225e-06
-4.67518e-07
1.91797e-06
-2.70855e-06
-1.63954e-08
-6.49172e-08
-1.32687e-06
-1.17787e-06
1.91354e-06
-1.58847e-05
-1.24876e-05
-2.8821e-06
8.84879e-06
1.35694e-05
2.68857e-07
-8.6708e-06
-8.08203e-07
5.37558e-06
-9.05968e-06
6.60729e-08
-3.35969e-06
-1.59862e-07
7.99252e-07
6.5288e-07
6.76011e-07
1.25222e-07
1.13258e-07
1.51842e-07
1.55379e-07
-1.83797e-06
2.423e-08
9.90079e-08
3.79179e-08
9.84872e-08
-1.16422e-08
-2.23716e-08
-1.88369e-07
4.17694e-06
3.93923e-07
-7.30268e-07
-3.21853e-06
-6.08582e-06
-1.07841e-06
1.52018e-08
4.49336e-07
1.50707e-07
4.16939e-07
1.60184e-07
-1.47118e-06
-3.4908e-08
8.44498e-07
7.25265e-07
6.99585e-07
8.22925e-08
9.87345e-08
1.47135e-07
1.4339e-07
-1.90316e-06
1.53001e-07
-2.78912e-06
-4.5421e-06
-2.02595e-08
9.41509e-08
3.67305e-08
9.50577e-08
-3.97803e-08
2.0219e-08
-1.67962e-07
-1.14722e-05
5.27681e-07
-1.48999e-05
-3.15685e-05
2.72925e-05
-7.22365e-07
3.68569e-05
-2.07656e-05
-6.06115e-07
4.15772e-05
-9.89082e-06
-4.34436e-07
8.1219e-06
-1.1992e-05
-6.36561e-07
2.99129e-07
-5.75161e-06
-1.09616e-05
-2.94484e-06
-1.6302e-05
2.63375e-06
1.41284e-05
2.46511e-05
-2.15292e-06
1.87972e-06
-1.10809e-05
2.88912e-05
-1.19754e-06
-8.22746e-08
-9.40697e-07
-1.25019e-05
7.63422e-06
1.06641e-05
1.23686e-06
-7.74189e-06
4.8163e-06
-1.08013e-07
-7.19188e-06
-1.04767e-06
-8.75123e-08
8.91112e-07
-1.76224e-06
-9.63295e-08
1.14181e-07
-1.17382e-06
-6.24018e-07
-7.54508e-06
-8.16701e-06
3.15201e-07
-4.94451e-07
5.76275e-06
6.53059e-06
-6.67036e-06
-4.28016e-07
4.17627e-07
4.35257e-06
-4.73712e-06
8.49291e-07
-1.76584e-06
-9.90806e-07
5.10735e-07
4.32445e-07
4.72504e-07
1.11302e-07
1.23863e-07
1.40975e-07
1.37828e-07
-1.55306e-06
3.66559e-08
8.36132e-08
3.19615e-08
8.20038e-08
-6.73544e-08
-4.96096e-08
-1.38463e-07
2.03954e-06
-4.73213e-07
2.63945e-07
-2.09336e-06
-2.30456e-06
-8.12793e-07
-2.52323e-07
2.68222e-07
9.27721e-08
2.47127e-07
1.00735e-07
-6.60439e-07
5.16682e-07
5.43628e-07
5.35433e-07
5.06964e-07
1.58656e-07
1.47865e-07
1.5387e-07
1.62364e-07
-1.64162e-06
-5.65147e-07
-1.99241e-06
-1.95384e-06
-9.1617e-08
5.98549e-08
2.55333e-08
6.50322e-08
-3.2595e-08
9.18959e-08
-1.09996e-07
-4.84253e-06
-9.20604e-07
-1.00715e-05
-1.39722e-05
1.21799e-05
2.21311e-05
-2.99274e-06
-3.59173e-05
-9.72139e-06
2.5903e-05
-2.26077e-06
-5.50455e-06
7.44739e-07
4.81402e-06
-9.2738e-06
-9.70407e-07
1.06019e-06
-3.90467e-06
-9.39506e-06
-2.26848e-05
-1.08918e-05
-2.35082e-06
2.62635e-06
1.76631e-05
9.82133e-06
-2.7481e-05
-1.98105e-06
2.13256e-06
2.03439e-05
-8.38297e-06
-4.21985e-07
-1.02351e-06
-2.21568e-07
-3.93721e-06
4.20562e-06
3.4758e-06
-5.48944e-07
-6.36952e-06
3.92975e-06
-2.86909e-06
-7.97824e-07
-5.47264e-07
6.52959e-08
5.06604e-07
-1.57193e-06
-7.27856e-08
1.01532e-07
-4.53556e-07
-1.69602e-06
-4.12436e-06
-7.29669e-06
-3.24058e-07
3.97826e-07
5.1312e-06
3.82098e-06
-8.00915e-06
-4.20291e-07
5.25559e-07
5.5636e-06
-3.4055e-06
-7.16793e-06
1.86783e-07
1.13552e-06
8.22987e-07
2.7527e-08
1.39568e-07
-2.25454e-06
-1.80715e-06
7.11975e-07
2.36618e-07
-3.79604e-06
9.94712e-08
3.82829e-08
9.98584e-08
-2.86643e-10
2.65274e-08
-1.96379e-07
-1.23697e-06
5.37709e-06
-3.87642e-06
-8.42294e-06
-4.93529e-06
-1.20541e-05
1.04761e-06
7.52921e-07
7.8531e-07
6.44405e-08
4.69002e-08
1.39072e-07
1.39201e-07
-2.0273e-06
-3.58241e-06
1.68652e-07
1.87547e-07
5.70459e-08
1.1309e-06
1.6106e-06
-8.99961e-06
-1.19687e-05
5.12359e-07
4.07329e-07
-8.26099e-06
-1.19528e-07
6.08797e-09
2.10442e-08
1.18287e-08
1.34238e-07
-9.08793e-07
-2.18195e-07
-1.4585e-06
3.39489e-06
8.33712e-07
-1.23771e-05
-8.81821e-06
-1.66097e-05
-9.98062e-06
1.19072e-09
2.20569e-07
1.67223e-07
1.16783e-07
9.68847e-07
1.04526e-06
1.44944e-06
1.29856e-06
-6.96578e-06
1.23915e-07
-3.1229e-06
-2.5322e-07
3.18833e-07
3.11728e-07
2.83636e-07
7.41555e-07
7.88895e-07
9.76221e-07
8.93714e-07
-4.47635e-06
2.96387e-08
3.29624e-08
3.74835e-08
-8.43279e-07
-1.09361e-07
-2.71721e-07
3.24207e-06
3.75834e-07
-9.34964e-06
-7.8652e-06
-5.7171e-06
-1.63365e-07
6.11797e-07
5.84663e-07
6.19673e-07
5.69495e-07
-6.58168e-06
2.96861e-07
2.12016e-07
2.49631e-07
8.99959e-07
8.41272e-07
1.06517e-06
1.17492e-06
-5.50389e-06
-1.04915e-07
7.43702e-08
6.66039e-08
6.93812e-08
-6.86679e-07
1.01032e-07
-3.89581e-07
1.96504e-08
-7.2085e-06
-7.08319e-06
-2.78569e-06
-2.92556e-07
6.76828e-07
6.29376e-07
6.06929e-07
1.36167e-07
1.46081e-07
1.62552e-07
1.59391e-07
-1.79091e-06
-9.94894e-07
3.67733e-07
1.42691e-07
3.91485e-07
1.3546e-07
-1.15394e-06
8.51045e-08
3.35941e-08
8.64827e-08
-6.53557e-08
2.87604e-08
-1.4487e-07
5.22921e-08
2.36755e-06
-2.26964e-06
-2.80401e-06
-2.49131e-06
-3.50972e-06
6.43575e-07
5.61019e-07
5.84446e-07
1.58915e-07
1.54288e-07
1.65341e-07
1.65236e-07
-1.73614e-06
9.30953e-08
3.56629e-08
9.20583e-08
-4.72353e-08
-2.13902e-08
-1.61782e-07
-3.01434e-06
-4.4519e-07
3.35556e-07
3.60901e-07
3.5422e-07
6.97551e-07
6.58638e-07
7.63366e-07
8.25095e-07
-3.73453e-06
-4.63871e-06
6.29323e-07
5.9852e-07
6.27625e-07
6.05306e-07
-6.1084e-06
-2.30411e-07
9.74731e-08
9.9392e-08
9.82426e-08
1.74877e-07
-5.36019e-07
-4.61809e-07
3.03887e-07
2.89673e-06
-6.48586e-07
-4.66186e-06
-5.91532e-06
7.90198e-08
8.11226e-08
8.31626e-08
-6.43799e-07
-1.16689e-07
-4.16925e-07
-5.71155e-06
-6.44153e-06
-7.68572e-07
3.693e-07
3.76059e-07
3.68865e-07
5.87029e-07
6.21935e-07
7.11665e-07
6.62053e-07
-3.18055e-06
1.21043e-06
-2.68725e-06
-1.39209e-06
3.21139e-07
2.96291e-07
3.15216e-07
4.66641e-07
4.91229e-07
5.46548e-07
5.23663e-07
-2.42684e-06
9.97268e-08
9.81178e-08
9.83311e-08
-5.03834e-07
-3.06691e-07
-4.58212e-07
2.75732e-06
-9.81794e-07
-3.91811e-06
-5.50489e-06
-2.92227e-06
-1.27193e-06
5.82555e-07
5.80967e-07
5.90194e-07
5.71172e-07
-5.1858e-06
3.46458e-07
3.71336e-07
3.49944e-07
5.52916e-07
5.21485e-07
5.79162e-07
6.18362e-07
-2.75225e-06
-4.53941e-07
7.2647e-08
7.17233e-08
7.24862e-08
-4.22128e-07
4.56023e-07
-4.10988e-07
-1.13537e-06
-3.42133e-06
-5.28622e-06
-4.41866e-07
-3.20569e-07
4.39028e-07
2.15517e-07
-3.40288e-07
8.05407e-08
3.27345e-08
8.21694e-08
-6.28548e-08
-1.26559e-07
-1.43639e-07
-7.62521e-07
-5.23186e-07
2.37607e-07
7.90748e-08
1.98504e-07
9.53274e-08
-3.07521e-07
-1.31119e-06
-1.74058e-06
3.47235e-07
3.80596e-07
3.67587e-07
3.60246e-07
-8.45868e-07
-3.00065e-07
-3.76489e-07
2.41966e-07
-4.48027e-07
1.26597e-07
1.31245e-07
1.30828e-07
-1.37211e-06
-1.76771e-06
3.13148e-07
2.9343e-07
2.6769e-07
3.35758e-07
-7.48063e-07
-1.27415e-07
-2.58175e-08
1.61312e-07
-1.0023e-07
4.75248e-08
2.2291e-08
5.61317e-08
7.42762e-09
4.82313e-09
-5.58899e-08
-7.22762e-09
-2.3826e-08
-1.10164e-08
-1.61867e-07
1.4742e-09
2.53436e-08
1.67981e-07
6.30596e-09
-3.83354e-08
-5.9816e-09
1.57886e-08
4.5488e-08
2.99206e-08
-3.77382e-10
-1.67065e-07
1.7003e-07
-2.8582e-08
-7.66571e-09
-5.71479e-09
-1.67094e-09
5.9388e-09
-5.52072e-08
8.29225e-09
-5.36194e-08
8.92721e-09
-8.08094e-09
4.91493e-08
1.58548e-08
-4.55942e-08
-2.01904e-07
-2.51767e-08
-3.42619e-08
-2.04261e-07
-3.73665e-08
1.94965e-07
3.66502e-08
3.14614e-08
4.3961e-08
-2.17873e-07
-1.3152e-08
5.7037e-09
2.07997e-07
-4.18527e-08
-6.34535e-09
-5.26238e-08
6.6078e-09
5.56593e-10
-5.37893e-08
8.66776e-09
1.01817e-08
2.83851e-08
5.35831e-08
-2.07312e-07
-3.82121e-08
-2.2376e-07
-3.52744e-09
-4.3221e-09
4.75724e-08
2.12286e-07
5.76365e-09
7.74247e-09
-5.60114e-08
-3.82352e-08
6.76989e-09
1.71446e-08
4.51534e-08
3.49685e-09
-1.70068e-07
1.70793e-07
3.20802e-08
-1.11909e-08
1.1527e-06
-5.48689e-07
4.41015e-06
5.20193e-07
-1.22462e-06
-9.23892e-07
3.1978e-06
1.39829e-06
8.88716e-07
4.17319e-07
-1.03044e-06
4.69365e-06
1.00176e-06
-4.43046e-07
-1.63759e-07
5.52278e-06
1.42159e-07
-6.4062e-07
8.4353e-08