/*--------------------------------*- C++ -*----------------------------------*\
| =========                 |                                                 |
| \\      /  F ield         | OpenFOAM: The Open Source CFD Toolbox           |
|  \\    /   O peration     | Version:  2012                                  |
|   \\  /    A nd           | Website:  www.openfoam.com                      |
|    \\/     M anipulation  |                                                 |
\*---------------------------------------------------------------------------*/
FoamFile
{
    version     2.0;
    format      ascii;
    class       pointVectorField;
    location    "0.108/fluid";
    object      pointMotionU;
}
// * * * * * * * * * * * * * * * * * * * * * * * * * * * * * * * * * * * * * //

dimensions      [0 1 -1 0 0 0 0];


internalField   nonuniform List<vector> 
20255
(
(0 0 0)
(0 0 0)
(0 0 0)
(0 0 0)
(0 0 0)
(0 0 0)
(0 0 0)
(0 0 0)
(0 0 0)
(0 0 0)
(0 0 0)
(0 0 0)
(0 0 0)
(0 0 0)
(0 0 0)
(0 0 0)
(-0.000439398 0.000173298 4.89985e-05)
(-0.000650229 0.000337878 0.000171364)
(-0.000627087 0.000373719 0.000324144)
(-0.000574922 0.000338387 0.000490915)
(-0.000510575 0.000219083 0.000656585)
(-0.000500492 5.21689e-05 0.000814213)
(-0.000487126 -0.000304473 0.000892165)
(-0.000372411 -0.000836803 0.000905561)
(3.99568e-05 -0.00156682 0.000860837)
(0.000913446 -0.00233079 0.000774259)
(0.00227354 -0.00294057 0.000725582)
(0.00381819 -0.00308329 0.000697612)
(0.00447744 -0.00262958 0.000557492)
(0.0031836 -0.00175669 0.000281315)
(0.00180574 -0.00129035 5.33647e-05)
(0 0 0)
(-0.000572317 0.000294072 9.56645e-05)
(-0.000821058 0.00063226 0.000317146)
(-0.000657897 0.000704767 0.000568454)
(-0.00036108 0.00063 0.000840119)
(1.10732e-05 0.000390707 0.00110842)
(0.00041988 -2.42249e-05 0.00133238)
(0.000797835 -0.000545957 0.00145511)
(0.00134981 -0.00126678 0.00146491)
(0.00222779 -0.00211096 0.00135433)
(0.0036985 -0.00291861 0.00112722)
(0.00569013 -0.00350383 0.000838508)
(0.00775649 -0.00385684 0.000508763)
(0.00915195 -0.00410237 0.000161184)
(0.00936734 -0.00508025 -0.000203096)
(0.00872605 -0.00766062 -0.000459762)
(0 0 0)
(-0.000182293 0.000241117 0.000136539)
(-0.000132417 0.000585047 0.000398939)
(0.00034451 0.000609782 0.000676035)
(0.00107399 0.000398303 0.000965801)
(0.00188957 8.60205e-05 0.00124567)
(0.00284064 -0.000506758 0.00145283)
(0.00382313 -0.00113271 0.00155476)
(0.00496414 -0.00178067 0.00151747)
(0.00625404 -0.00231183 0.00132993)
(0.00796929 -0.00273654 0.000989156)
(0.0101865 -0.00280921 0.00051202)
(0.0122311 -0.00236504 -7.31935e-05)
(0.0138147 -0.00135368 -0.00069927)
(0.0145285 -0.000230316 -0.00120858)
(0.0130025 -0.00838764 -0.00106794)
(0 0 0)
(0 0 0)
(0 0 0)
(0 0 0)
(0 0 0)
(0 0 0)
(0 0 0)
(0 0 0)
(0 0 0)
(0 0 0)
(0 0 0)
(0 0 0)
(0 0 0)
(0 0 0)
(0 0 0)
(0 0 0)
(-0.000203812 0.00020681 3.27638e-05)
(-0.000241758 0.000360873 0.000119652)
(-0.000119492 0.000417176 0.00023104)
(2.86219e-05 0.000455779 0.000368918)
(0.000208324 0.0004486 0.000508362)
(0.000430272 0.000362085 0.000621882)
(0.000661078 0.000197054 0.000684951)
(0.000974009 -6.15969e-05 0.000691768)
(0.00140623 -0.000386071 0.000642321)
(0.00201917 -0.000764916 0.000528596)
(0.00266886 -0.00104044 0.000382087)
(0.00305313 -0.00113964 0.00019241)
(0.00280765 -0.00107764 5.29372e-07)
(0.00192418 -0.000952447 -0.000138964)
(0.00124469 -0.000979694 -0.000183273)
(0 0 0)
(-0.000209008 0.00038723 7.46341e-05)
(-0.000154626 0.00068956 0.000238033)
(0.000180466 0.000798946 0.000431713)
(0.000599467 0.000856539 0.000659042)
(0.0011416 0.000773113 0.000872689)
(0.00175759 0.000576745 0.00104143)
(0.00244423 0.000277837 0.0011315)
(0.00317287 -4.55682e-05 0.00113512)
(0.0040367 -0.00042206 0.00102902)
(0.00514061 -0.000819716 0.000800497)
(0.00650346 -0.00124686 0.00048245)
(0.00753799 -0.00153619 9.74467e-05)
(0.00810221 -0.00190432 -0.000298842)
(0.00821921 -0.00268057 -0.000592273)
(0.008089 -0.00496085 -0.000688679)
(0 0 0)
(0.00021163 0.000372104 0.000108114)
(0.000512434 0.000779395 0.000320925)
(0.00113123 0.000919107 0.000544919)
(0.00193033 0.00090997 0.000780099)
(0.00293711 0.000703251 0.000985856)
(0.0040001 0.000450978 0.00114881)
(0.00517137 0.000158613 0.00121629)
(0.00639347 -0.000120366 0.00116586)
(0.007701 -0.000348081 0.000973458)
(0.00913011 -0.000398328 0.000625907)
(0.0107099 -0.00018646 0.000142183)
(0.0121133 0.000375189 -0.000453979)
(0.0132056 0.0011029 -0.00107672)
(0.0140465 0.00104175 -0.0015781)
(0.0140456 -0.00517804 -0.00163189)
(0 0 0)
(0 0 0)
(0 0 0)
(0 0 0)
(0 0 0)
(0 0 0)
(0 0 0)
(0 0 0)
(0 0 0)
(0 0 0)
(0 0 0)
(0 0 0)
(0 0 0)
(0 0 0)
(0 0 0)
(0 0 0)
(0 0 0)
(-4.49029e-06 0.000197013 1.12964e-05)
(4.2616e-05 0.000379636 6.3912e-05)
(0.000197336 0.00049007 0.000134805)
(0.000415679 0.000551873 0.000222369)
(0.000664759 0.000582648 0.000319798)
(0.00101111 0.000500855 0.000377813)
(0.00135115 0.000387543 0.000407381)
(0.00168742 0.000254873 0.000409971)
(0.0020446 8.93466e-05 0.000374586)
(0.00240611 -9.56272e-05 0.000294661)
(0.00268201 -0.000277359 0.000172125)
(0.00269494 -0.000418116 2.332e-05)
(0.00238657 -0.000526557 -0.000119134)
(0.00184628 -0.000661628 -0.000224857)
(0.0014999 -0.000859625 -0.000270533)
(0 0 0)
(8.82462e-05 0.00039669 3.78707e-05)
(0.000339307 0.000686773 0.000131616)
(0.000716738 0.000885316 0.000258631)
(0.00122561 0.000986944 0.000405671)
(0.00183447 0.00099474 0.000541578)
(0.00251796 0.000920488 0.000645255)
(0.00325869 0.000790409 0.000703737)
(0.00406029 0.000571658 0.00068831)
(0.00481877 0.00037245 0.000602697)
(0.00559978 0.000140213 0.00042771)
(0.00634852 -0.000115066 0.000180322)
(0.006849 -0.000434266 -0.000111664)
(0.0070032 -0.00084584 -0.000390968)
(0.00685067 -0.00159967 -0.000556522)
(0.00667132 -0.00315373 -0.000591977)
(0 0 0)
(0.000488752 0.000432899 6.35953e-05)
(0.000991446 0.000828914 0.000193079)
(0.00171793 0.00101513 0.000334786)
(0.00256677 0.00108397 0.000480372)
(0.00360082 0.00103466 0.00060815)
(0.00470381 0.000956448 0.000711747)
(0.00580282 0.000878055 0.000754485)
(0.00700413 0.000714255 0.000685979)
(0.00813968 0.000606028 0.000523683)
(0.00930918 0.000605136 0.000246957)
(0.0104699 0.000708431 -0.000133847)
(0.011374 0.000778142 -0.00056586)
(0.0120569 0.000572505 -0.000983642)
(0.012586 -0.000470722 -0.00127925)
(0.012697 -0.00416098 -0.0013319)
(0 0 0)
(0 0 0)
(0 0 0)
(0 0 0)
(0 0 0)
(0 0 0)
(0 0 0)
(0 0 0)
(0 0 0)
(0 0 0)
(0 0 0)
(0 0 0)
(0 0 0)
(0 0 0)
(0 0 0)
(0 0 0)
(0 0 0)
(8.67429e-05 0.000205001 -2.55182e-06)
(0.000183158 0.000400714 1.77294e-05)
(0.000375949 0.000520988 4.78748e-05)
(0.000639052 0.000583869 8.95018e-05)
(0.000935524 0.000608987 0.00013194)
(0.00130163 0.000558411 0.000156415)
(0.00161456 0.000520023 0.00017614)
(0.00190557 0.000462774 0.000180905)
(0.00220548 0.000352583 0.00016403)
(0.00246063 0.000213738 0.000120704)
(0.00260223 5.05641e-05 5.05884e-05)
(0.00259122 -0.000123089 -3.45529e-05)
(0.00244808 -0.000338071 -0.00011811)
(0.00224734 -0.000582668 -0.000178246)
(0.00217016 -0.00092237 -0.000199598)
(0 0 0)
(0.000273371 0.000382482 5.29001e-06)
(0.000580064 0.000713794 4.345e-05)
(0.00103067 0.00092245 0.000101444)
(0.00157323 0.00104293 0.000169093)
(0.00221958 0.00107486 0.000227879)
(0.00289979 0.00106562 0.000270309)
(0.00358972 0.00101851 0.000293322)
(0.00427547 0.000922178 0.000282059)
(0.00491804 0.000789303 0.000229255)
(0.00549127 0.000625408 0.000134265)
(0.00592988 0.000389151 -2.85815e-06)
(0.0061545 6.38572e-05 -0.00015799)
(0.0062081 -0.000397522 -0.000298636)
(0.00615457 -0.00112693 -0.000394163)
(0.00606922 -0.00228401 -0.000419519)
(0 0 0)
(0.000661664 0.000444999 2.01325e-05)
(0.0012541 0.000860495 7.71747e-05)
(0.00204169 0.00108844 0.000146486)
(0.00294139 0.00120385 0.000215173)
(0.00396063 0.00122836 0.000267949)
(0.00504241 0.00120668 0.00029982)
(0.0060995 0.00117322 0.000297106)
(0.00712674 0.0011239 0.000256125)
(0.00808202 0.00107596 0.000161246)
(0.0089849 0.00102993 -4.58469e-06)
(0.00979848 0.0009285 -0.00021921)
(0.0104263 0.000647076 -0.000463223)
(0.010827 9.67192e-05 -0.000686343)
(0.0110378 -0.00096888 -0.000842522)
(0.0111085 -0.00310662 -0.000892315)
(0 0 0)
(0 0 0)
(0 0 0)
(0 0 0)
(0 0 0)
(0 0 0)
(0 0 0)
(0 0 0)
(0 0 0)
(0 0 0)
(0 0 0)
(0 0 0)
(0 0 0)
(0 0 0)
(0 0 0)
(0 0 0)
(0 0 0)
(0.000116916 0.000207661 0)
(0.000245203 0.000393697 0)
(0.000439541 0.000523388 0)
(0.000724886 0.000578691 0)
(0.00102477 0.000609606 0)
(0.00135773 0.000596157 0)
(0.00167077 0.00056908 0)
(0.00195276 0.000524276 0)
(0.0022133 0.000433408 0)
(0.00242824 0.000301879 0)
(0.00254017 0.0001516 0)
(0.00255418 -2.53396e-05 0)
(0.00251241 -0.000254575 0)
(0.00245058 -0.00053944 0)
(0.00242873 -0.00090208 0)
(0 0 0)
(0.000338512 0.000372983 0)
(0.000673597 0.000706323 0)
(0.00111455 0.000934288 0)
(0.00168971 0.00104607 0)
(0.00239958 0.0010533 0)
(0.0030662 0.00106598 0)
(0.00371679 0.00105481 0)
(0.00435664 0.000990387 0)
(0.00494561 0.000872364 0)
(0.00543667 0.000705876 0)
(0.00576368 0.000475167 0)
(0.00592335 0.000150118 0)
(0.00600823 -0.000305429 0)
(0.00601547 -0.000996703 0)
(0.00596124 -0.00195947 0)
(0 0 0)
(0.000717124 0.000445435 0)
(0.00140009 0.000821413 0)
(0.00216476 0.00108046 0)
(0.00303019 0.00123125 0)
(0.00409308 0.00124712 0)
(0.00513283 0.00126536 0)
(0.00619027 0.00125401 0)
(0.00714488 0.00123207 0)
(0.00803221 0.0011878 0)
(0.00883693 0.00110416 0)
(0.00950731 0.000917952 0)
(0.0100062 0.000546629 0)
(0.0103256 -6.27045e-05 0)
(0.0104573 -0.00107125 0)
(0.0103964 -0.00268486 0)
(0.00142739 -0.00051573 4.72735e-05)
(0.000606236 -0.000353353 -4.34035e-05)
(0.000441423 -0.00024247 -0.00026493)
(0 0 0)
(0.00528063 -0.0027381 0.000929573)
(0.00253602 -0.00146929 0.000294807)
(0.0141929 -0.004479 -0.000590347)
(0.012402 -0.0158177 -0.000525704)
(0 0 0)
(0.00136912 -0.000634208 9.81119e-05)
(0 0 0)
(0.000617018 -0.000432959 -8.50588e-06)
(0.00229965 -0.00141082 0.000132249)
(0.00230328 -0.00123364 -1.6016e-06)
(0.00142249 -0.00111507 -7.4692e-05)
(0.0135164 -0.000841719 -0.00120922)
(0.0141486 0.00196241 -0.00153102)
(0.0135805 -0.00552874 -0.00145576)
(0 0 0)
(0.000700927 -0.000333693 -9.82107e-05)
(0 0 0)
(0.000299515 -0.000418539 -0.000152358)
(0 0 0)
(0.00148135 -0.000925483 -0.000174917)
(0.00177134 -0.000756154 -0.000211889)
(0.00122807 -0.000849671 -0.000274974)
(0.0141084 -0.000488287 -0.00168569)
(0 0 0)
(0.000707302 -0.000247795 -0.0001551)
(0.000491553 -0.000300688 -0.00023495)
(0.00161357 -0.000746899 -0.000259541)
(0.00253615 -0.00105459 0.000369882)
(0.0035261 -0.00186397 0.000519503)
(0.000858177 -0.000404304 -6.00776e-06)
(0.0129491 -0.005689 -0.000540979)
(0.000894617 -0.000439191 -1.40855e-05)
(0.000413972 -0.000436923 -3.38475e-05)
(0.00173482 -0.00110983 -5.39565e-05)
(0.000472774 -0.000307895 -0.000131169)
(0.0136099 0.00138269 -0.00157241)
(0.000635229 -0.000266648 -0.000156531)
(0.000271682 -0.000275382 -0.000370647)
(0.00141801 -0.00077809 -0.000256922)
(0.000568021 -0.000264036 -0.000205717)
(0 0 0)
(0 0 0)
(0.011696 -0.00965324 -0.000439361)
(0.0121736 -0.0040581 -0.00110494)
(0.0139781 0.0054024 -0.0017089)
(0.000991711 -0.000379543 -6.97028e-05)
(0.0149182 0.00198668 -0.00128119)
(0.0127304 -0.00272336 -0.000786896)
(0.000716166 -0.000348959 -4.39773e-05)
(0.000554026 -0.000331339 -6.50639e-05)
(0.0130046 0.0023666 -0.00141931)
(0.0148806 0.00447075 -0.00199209)
(0.0146868 0.000963707 -0.00193912)
(0.000421011 -0.000265726 -0.000272284)
(0.0100066 -0.00692534 0.000313606)
(0.00856587 -0.00911846 -0.000134127)
(0.0135813 -0.00490849 -0.000253265)
(0.00905695 -0.00601768 -0.000355743)
(0.0123591 -0.00465044 -0.000713853)
(0.00882379 -0.00365218 -0.000485275)
(0.0118793 -0.00979339 -0.000895082)
(0.00863466 -0.00622309 -0.000646229)
(0.014426 -0.000756185 -0.000999207)
(0.0135956 0.000704382 -0.000981245)
(0.0145375 -0.00224272 -0.000936496)
(0.0140731 -0.000114721 -0.00122635)
(0.0156284 0.00266791 -0.00158029)
(0.0142609 0.00130088 -0.00139899)
(0.0127771 -0.0118976 -0.000794555)
(0.012922 -0.00335423 -0.00115159)
(0.0131963 -0.00816933 -0.000940021)
(0.013188 -0.00635629 -0.00127957)
(0.00816577 -0.00357834 -0.000666603)
(0.0117339 -0.00200141 -0.00105329)
(0.0118476 -0.00610089 -0.00115811)
(0.0136764 0.00126632 -0.00136294)
(0.0134136 2.10767e-05 -0.00145856)
(0.0141585 0.00170786 -0.00159041)
(0.0141135 0.000551288 -0.00164724)
(0.0150226 0.00275065 -0.00189304)
(0.0135275 -0.00479825 -0.00151311)
(0.0140087 -0.00525381 -0.00160111)
(0.0140672 -0.00245417 -0.00167614)
(0.014974 -0.00442061 -0.00192355)
(0.0127309 -0.00184855 -0.0013462)
(0.00116363 -0.000475071 -1.62762e-05)
(0.00109495 -0.000455871 1.54348e-05)
(0.000946601 -0.000181381 -4.51678e-05)
(0.0124872 0.000204477 -0.000577991)
(0.00070554 -0.000371586 -2.29672e-05)
(0.000526803 -0.00041442 -4.49245e-05)
(0.00052615 -0.000331096 -7.41584e-05)
(0.000433978 -0.00014043 -2.78339e-05)
(0.0133266 0.0062466 -0.00173637)
(0.000437043 -0.000268564 -0.000210455)
(0.000367776 -0.000262876 -0.000343368)
(0.000276821 -9.49027e-05 -0.000214945)
(0.0135654 -0.00431636 -0.000578716)
(0.0153035 -0.0014226 -0.000897931)
(0.0123612 -0.00921398 -0.000518207)
(0.000596153 -0.000148783 -2.59774e-05)
(0 0 0)
(0 0 0)
(0.000775186 -0.00042774 -9.75373e-07)
(0.000736718 -0.000435901 -2.44175e-05)
(0.000496436 -0.000432228 -1.65517e-05)
(0.0133859 -0.00304034 -0.000916811)
(0.0132102 0.00390824 -0.00134093)
(0.0133865 0.000927438 -0.00141339)
(0.0138568 0.00208619 -0.00156838)
(0.0148684 0.00471961 -0.00186509)
(0.0134288 -0.00108827 -0.0015285)
(0.0138906 -0.00400318 -0.00148952)
(0.000340486 -0.000132285 -7.47688e-05)
(0 0 0)
(0 0 0)
(0.000346174 -0.000429709 -6.88783e-05)
(0.000402764 -0.000381794 -0.000149961)
(0.000261509 -0.000353915 -0.000298394)
(0.000200099 -0.000192474 -0.000406154)
(0 0 0)
(0.0140088 0.000666318 -0.00167519)
(0.0150528 0.00149759 -0.00200665)
(0.00929127 -0.00760495 8.43201e-05)
(0.012145 -0.00769888 -0.000258676)
(0.0142327 -0.00473438 -0.000465483)
(0.0112684 -0.013884 -0.000574779)
(0.0121533 -0.00602728 -0.000857165)
(0.0140201 -0.00211824 -0.000945562)
(0.0127721 -0.0060598 -0.000857235)
(0.0157429 0.000661999 -0.00129333)
(0.0140267 0.000534495 -0.00085017)
(0.000508546 -0.00014955 -2.48e-05)
(0.00875545 -0.00457602 -0.000597467)
(0.0121628 -0.00259248 -0.000984235)
(0.0140789 0.00136787 -0.0013025)
(0.0121279 -0.0073264 -0.00111734)
(0.0138154 0.00146907 -0.00141816)
(0.0118805 -0.00335179 -0.00116177)
(0.0130533 -0.00154425 -0.00136391)
(0.0140949 0.00154133 -0.00165252)
(0.0139637 -0.00167155 -0.0016553)
(0.0150404 0.00426132 -0.00174586)
(0.0150237 0.00399606 -0.00192095)
(0.0146827 0.0038111 -0.00155657)
(0.0127788 0.00570675 -0.00152727)
(0.014097 0.00585589 -0.00187028)
(0.0134606 -0.00553946 -0.00122959)
(0.000302339 -0.000112979 -0.000151861)
(0.013579 -0.00157927 -0.00154453)
(0.0150732 0.00248178 -0.00196877)
(0.0150141 -0.000870992 -0.00199044)
(0.000767412 -0.000176584 -3.68932e-05)
(0.00091515 -0.000458436 -2.07427e-05)
(0.000832969 -0.00036198 -5.22725e-05)
(0.0131502 0.00212646 -0.00103129)
(0.0130128 -0.0122741 -0.000581645)
(0.0129652 2.3287e-05 -0.00115315)
(0.000615789 -0.000422479 -3.08887e-05)
(0.00062692 -0.000339215 -4.58541e-05)
(0.000383998 -0.000142433 -4.15595e-05)
(0.000459975 -0.000401998 -7.68832e-05)
(0.000487587 -0.000321568 -0.000122058)
(0.013518 0.00311676 -0.00161507)
(0.0146915 0.00396136 -0.00198596)
(0.0147531 -0.00409525 -0.00185208)
(0.000364488 -0.0003222 -0.000273593)
(0.000317471 -0.000135812 -0.000353683)
(0.00371229 -0.00186879 0.000743058)
(0.00626062 -0.00405664 0.000692124)
(0.00128687 -0.000622846 3.83783e-05)
(0.000482625 -0.000168962 -1.36148e-05)
(0.00438428 -0.00266167 -0.000171538)
(0.00088613 -0.000310915 -9.82386e-05)
(0.0002861 -0.000115249 -0.00011383)
(0.00365584 -0.00174331 -0.000342805)
(0.000764842 -0.000285346 -0.000151606)
(0.000759578 -0.000227731 1.14624e-05)
(0.00142524 -0.000766245 8.08558e-05)
(0.000955188 -0.000644759 -1.77236e-05)
(0.000353332 -0.000143446 -4.11776e-05)
(0.000735346 -0.000574534 -9.88342e-05)
(0.000637973 -0.000479096 -0.000247002)
(0.000242219 -0.0001271 -0.000238711)
(0.000802961 -4.17432e-05 -4.59189e-05)
(0.00073361 -0.000457701 -3.51181e-05)
(0.000904267 -0.000469247 -4.59607e-05)
(0.000963794 -2.58046e-05 -6.46955e-05)
(0.000690811 -5.43896e-05 -3.53058e-05)
(0.000608092 -0.000448013 -3.02774e-05)
(0.000515633 -0.000440061 -3.30851e-05)
(0.000607441 -6.46226e-05 -3.09971e-05)
(0.000483667 -8.10937e-05 -5.07801e-05)
(0.000384304 -0.000423629 -9.61876e-05)
(0.000443285 -0.000433281 -4.95901e-05)
(0.000540638 -7.29025e-05 -3.42615e-05)
(0.000430063 -8.72678e-05 -0.000100213)
(0.000331939 -0.000390179 -0.000212445)
(0.000286 -0.000266309 -0.000395941)
(0.000337397 -2.38764e-06 -0.000247331)
(0 0 0)
(0.00693794 -0.0045599 0.0014823)
(0 0 0)
(0.00234474 -0.00136313 0.000334464)
(0 0 0)
(0 0 0)
(0 0 0)
(0.000692586 -0.000277784 3.39083e-05)
(0 0 0)
(0.00403943 -0.00220823 0.00044002)
(0.00334271 -0.00159903 0.000163642)
(0.00579811 -0.00328529 0.000255993)
(0.00450265 -0.00363032 -9.49982e-06)
(0.00211202 -0.00138617 0.000156301)
(0.000997379 -0.000662019 1.70794e-05)
(0.00198739 -0.00131848 8.32384e-05)
(0.00158291 -0.00119559 -2.0169e-05)
(0 0 0)
(0.00123502 -0.000481045 3.17837e-06)
(0 0 0)
(0 0 0)
(0 0 0)
(0.000345632 -0.000149089 -5.9955e-05)
(0 0 0)
(0.00241675 -0.00101516 -7.82845e-05)
(0.00251049 -0.000738846 -8.07176e-05)
(0.00427896 -0.00182637 -0.000249704)
(0.00373657 -0.00256621 -0.000310048)
(0.00131445 -0.00104815 -0.000125927)
(0.000583941 -0.000549398 -0.000164722)
(0.00132671 -0.000941084 -0.000181965)
(0.00120432 -0.000900622 -0.000239619)
(0.0075211 -0.00204682 -0.000600979)
(0.00729647 -0.00387171 -0.000655052)
(0 0 0)
(0.00106375 -0.000254616 -6.89839e-05)
(0 0 0)
(0 0 0)
(0 0 0)
(0 0 0)
(0.000228499 -0.000143027 -0.00015763)
(0.00213298 -0.000596244 -0.00017651)
(0.00384707 -0.00123147 -0.00032555)
(0.00204976 -0.00061909 -0.000210694)
(0.00351908 -0.00188205 -0.000356329)
(0.00185234 -0.000887612 -0.000239953)
(0.00672705 -0.00220973 -0.000587681)
(0 0 0)
(0.000983505 -0.000246354 -0.000100818)
(0.000939071 -0.000381225 -0.000117584)
(0.00219307 -0.000735957 -0.000193988)
(0.00191624 -0.000725634 0.000189167)
(0.00231965 -0.00104892 0.000261663)
(0.000735452 -0.000374261 -3.29335e-05)
(0.00100833 -0.000640317 -4.82346e-05)
(0.000532409 -0.00025149 -0.000198785)
(0.000794315 -0.000454416 -0.000259218)
(0.000481732 -0.000241721 -0.000244424)
(0.00127733 -0.000469093 0.000152731)
(0 0 0)
(0.00156175 -0.000727456 0.000126396)
(0.00291123 -0.00160916 0.000380388)
(0 0 0)
(0.000521131 -3.83112e-05 -2.60405e-05)
(0 0 0)
(0 0 0)
(0.00181593 -0.00080467 0.000203671)
(0.00108698 -0.000487805 3.8551e-05)
(0.00107964 -0.000517803 3.15584e-05)
(0.000443696 -0.000192622 -1.33799e-05)
(0 0 0)
(0.000549427 -0.000420241 -9.41517e-06)
(0.000690364 -0.000430646 -4.8539e-06)
(0.000680991 -0.000452224 -2.0314e-05)
(0.000549886 -0.000432745 -1.19634e-05)
(0.00278796 -0.00161628 0.000294664)
(0.00141223 -0.00079071 5.71146e-05)
(0.00196511 -0.00124174 2.17173e-05)
(0.000718032 -0.000606355 -5.11177e-05)
(0.00153447 -0.00109446 -6.74661e-05)
(0 0 0)
(0.000315203 -5.89185e-05 -5.26112e-05)
(0 0 0)
(0 0 0)
(0.000776979 -0.000381131 -5.50712e-05)
(0.00057994 -0.000306741 -0.000115595)
(0.000651142 -0.000293365 -0.000135905)
(0.000300248 -0.000116764 -9.78919e-05)
(0 0 0)
(0.000257517 -0.000419794 -0.000140999)
(0.000320774 -0.000426884 -0.000102069)
(0.000356908 -0.000415049 -0.000154456)
(0.000277781 -0.00039402 -0.000220057)
(0.000131082 -8.08592e-05 -0.000289821)
(0 0 0)
(0.00158139 -0.00101141 -0.000115814)
(0.000824201 -0.00054289 -0.000157256)
(0.00142036 -0.000839579 -0.00022626)
(0.000584223 -0.000450678 -0.000299762)
(0.00129237 -0.000804228 -0.000271814)
(0.000269559 -0.000119912 -0.000132526)
(0 0 0)
(0.000360916 -0.000266542 -0.000303046)
(0.000523896 -0.000282135 -0.000229027)
(0.000877895 -0.000422983 1.85591e-06)
(0.000476914 -0.000441672 -4.08763e-05)
(0.000452049 -0.000434878 -2.35543e-05)
(0.000365525 -0.000430723 -2.75405e-05)
(0.000376957 -0.000434298 -4.7884e-05)
(0.000316134 -0.000272258 -0.000370283)
(0.000253044 -0.000306308 -0.000361101)
(0.000209226 -0.000235532 -0.000401741)
(0 0 0)
(0.000394612 -5.02337e-05 -2.23614e-05)
(0 0 0)
(0 0 0)
(0 0 0)
(0.000201419 -3.04966e-05 -0.000157813)
(0 0 0)
(0 0 0)
(0.0141304 0.00511397 -0.00164846)
(0.0125762 0.00616581 -0.00157104)
(0.0136736 0.00628773 -0.00178957)
(0.00109318 -0.000390728 -8.25169e-05)
(0.000600615 -0.000171119 -3.19999e-05)
(0.000812907 -0.000394598 -4.50222e-05)
(0.000905956 -0.000370065 -5.97581e-05)
(0.0142834 0.001837 -0.00108475)
(0.0151494 0.00310856 -0.00148528)
(0.0134686 0.00334394 -0.00117147)
(0.0126381 -0.00454104 -0.000546822)
(0.0132803 0.000237019 -0.000946238)
(0.0127598 -0.00739993 -0.000632851)
(0.0129887 -0.00145162 -0.000979201)
(0.000405597 -0.000146951 -1.87212e-05)
(0.000770355 -0.000355011 -4.70236e-05)
(0.000564779 -0.00036335 -3.26343e-05)
(0.000668827 -0.000343756 -4.33659e-05)
(0.000589085 -0.000335134 -5.24983e-05)
(0.00030504 -0.000136534 -3.01053e-05)
(0.000425929 -0.000345135 -6.18168e-05)
(0.000520537 -0.000327391 -8.653e-05)
(0.0133625 0.0048506 -0.00154463)
(0.0131543 -0.00145914 -0.00129381)
(0.0131284 0.00118178 -0.00129724)
(0.0132739 0.00311243 -0.00152193)
(0.0145373 0.00583688 -0.00198318)
(0.0147349 0.00505862 -0.00202415)
(0.0141899 0.00221594 -0.00179171)
(0.0146365 0.00312068 -0.00195541)
(0.0146556 -0.00127306 -0.00188236)
(0.000231163 -0.000104867 -0.000125854)
(0.000454596 -0.000307558 -0.000180396)
(0.000324091 -0.000270285 -0.000254657)
(0.000390451 -0.000173984 -0.000388773)
(0.0133655 -0.00676029 -0.00109277)
(0.0131696 -0.0103108 -0.000760628)
(0.0129742 -0.00404671 -0.00100799)
(0.00101268 -0.000463324 -2.05835e-05)
(0.000862614 -0.00017852 -4.56821e-05)
(0.0125179 0.00235076 -0.000750667)
(0.0126868 0.0014453 -0.000813171)
(0.000560933 -0.000415036 -3.60504e-05)
(0.000486902 -0.000354535 -3.87452e-05)
(0.000483204 -0.000404901 -5.63298e-05)
(0.000463693 -0.000140085 -2.51548e-05)
(0.00034794 -0.000138977 -2.01917e-05)
(0.000398123 -0.000135808 -3.17098e-05)
(0.0127294 0.00639585 -0.00160984)
(0.0132166 0.00669103 -0.00179711)
(0.0136473 0.00551129 -0.00171971)
(0.0141464 0.00558789 -0.0018952)
(0.000351137 -0.000282472 -0.000330519)
(0.000318285 -0.000201119 -0.000356645)
(0.000281883 -8.95253e-05 -0.000195414)
(0.00028764 -9.80971e-05 -0.000268524)
(0.0128726 -0.0145992 -0.00038541)
(0.000537736 -0.000141949 -2.46376e-05)
(0.000650878 -0.000151479 -2.99593e-05)
(0.000476992 -0.000151172 -2.16378e-05)
(0.000638855 -4.38877e-05 -3.69235e-05)
(0 0 0)
(0.000454918 -5.28586e-05 -2.26534e-05)
(0 0 0)
(0.000846696 -0.000463147 -1.78648e-05)
(0.000692905 -0.000409981 -8.44287e-06)
(0.000804404 -0.000440758 -2.41639e-05)
(0.000667061 -0.000375621 -3.52592e-05)
(0.000658365 -0.000422827 -2.72725e-05)
(0.000444413 -0.000427536 -1.42556e-05)
(0.000566044 -0.000446028 -2.67323e-05)
(0.0132952 0.00473423 -0.00142945)
(0.0128313 0.00507609 -0.00143758)
(0.01339 0.00304355 -0.00121807)
(0.0133863 0.00274181 -0.00130455)
(0.0135878 -0.00451225 -0.00134947)
(0.0136226 -0.000321432 -0.00152361)
(0.0143973 -0.00391455 -0.00169676)
(0.000316842 -0.000123194 -0.000104458)
(0.000356001 -0.000133692 -5.22693e-05)
(0.000265488 -0.000127699 -5.65515e-05)
(0.000354711 -6.18003e-05 -3.07654e-05)
(0 0 0)
(0.00027255 -5.12794e-05 -0.000117025)
(0 0 0)
(0.000413441 -0.000432761 -7.47082e-05)
(0.00030465 -0.000430145 -6.034e-05)
(0.000423115 -0.000391698 -0.000104682)
(0.000370821 -0.000329877 -0.000123283)
(0.00037272 -0.000354119 -0.000205513)
(0.000218225 -0.000352753 -0.00031377)
(0.000319904 -0.000349615 -0.000295793)
(0.000287863 -0.000185602 -0.000409739)
(0.000265729 -4.73126e-05 -0.000292213)
(0.00406829 -0.00251113 0.000942939)
(0.00668468 -0.00374677 0.00128689)
(0.00197154 -0.00101039 0.000235011)
(0.000919344 -0.000355326 7.92885e-05)
(0.000998447 -0.000275816 3.55747e-05)
(0.00771974 -0.00461631 0.00098955)
(0.00513721 -0.00404346 0.000392044)
(0.00503082 -0.00331014 0.000108117)
(0.00236731 -0.00146185 0.000209986)
(0.00156965 -0.000776806 9.96703e-05)
(0.000542034 -0.000226246 6.16382e-06)
(0.00291119 -0.00141599 7.70982e-05)
(0.000992709 -0.000417698 -4.87409e-05)
(0.000384142 -0.000169075 -3.40061e-05)
(0.000587636 -0.000190184 -2.68938e-06)
(0.00087543 -0.000420356 -1.30058e-06)
(0.000401956 -0.000153062 -2.386e-05)
(0.000484101 -4.61289e-05 -2.37933e-05)
(0.000422222 -5.17966e-05 -2.18299e-05)
(0.0048294 -0.00238862 -0.000100455)
(0.00407732 -0.00308756 -0.000215602)
(0.0039222 -0.0021146 -0.000292812)
(0.00172111 -0.00119374 -4.86499e-06)
(0.0014093 -0.00101698 -0.000123063)
(0.00109991 -0.000340203 -4.69716e-05)
(0.000315008 -0.000129787 -8.47661e-05)
(0.00217265 -0.000750469 -0.000150976)
(0.000893503 -0.000255331 -0.000107077)
(0.000316276 -0.000132137 -7.14487e-05)
(0.000540461 -0.000273365 -0.000167997)
(0.000263007 -0.000103151 -0.000134327)
(0.000296676 -6.09302e-05 -7.76335e-05)
(0.00023769 -2.80972e-05 -0.000154607)
(0.00396886 -0.00147352 -0.000313618)
(0.00349679 -0.00212773 -0.000354726)
(0.00738446 -0.00275245 -0.000646755)
(0.00361261 -0.00149968 -0.000349611)
(0.00127758 -0.000858502 -0.00023765)
(0.000845799 -0.00024752 -0.000126539)
(0.0007355 -0.000348689 -0.000158071)
(0.00191774 -0.000741874 -0.000232556)
(0.000954499 -0.000311573 -0.00011269)
(0.000250382 -0.000132091 -0.000152859)
(0.00181842 -0.000835378 0.000155595)
(0.00141469 -0.000588315 9.7955e-05)
(0.000569887 -4.0489e-05 -3.02947e-05)
(0.000708917 -3.81156e-05 -4.37651e-05)
(0.00177824 -0.000908256 0.000142724)
(0.0012306 -0.000696563 6.35919e-05)
(0.00114331 -0.000696272 2.30931e-05)
(0.000756445 -0.000457249 -1.89155e-05)
(0.000949482 -0.00046522 -1.60223e-05)
(0.0129507 -0.00580706 -0.000826027)
(0.00116989 -0.000702861 -2.04975e-06)
(0.000824395 -0.000606109 -5.3545e-05)
(0.000829575 -0.00062769 -1.80052e-05)
(0.000616432 -0.000448304 -2.27996e-05)
(0.000517747 -0.000443102 -3.1979e-05)
(0.000641643 -0.00033908 -6.83886e-05)
(0.000333804 -6.08873e-05 -3.87041e-05)
(0.00036973 -5.57224e-05 -2.50278e-05)
(0.000898265 -0.000591858 -9.68779e-05)
(0.000635706 -0.000580319 -9.47599e-05)
(0.000671846 -0.000534341 -0.000166245)
(0.000382973 -0.000425814 -0.000106007)
(0.000441748 -0.000436944 -5.39704e-05)
(0.0131483 -0.00275712 -0.00115981)
(0.000782977 -0.000489355 -0.000221684)
(0.000664192 -0.000444029 -0.000291665)
(0.000551008 -0.00049089 -0.000252138)
(0.000335083 -0.000388838 -0.000218819)
(0.000308967 -0.000302915 -0.000354392)
(0.000251406 -0.00010892 -0.000177131)
(0.000419325 -0.000253232 -0.000290229)
(0.000186311 -0.000143312 -0.000250716)
(0.000199606 -7.83004e-05 -0.000302044)
(0.000273623 -0.000223979 -0.000387673)
(0.000242405 -1.64812e-05 -0.00021613)
(0.000492391 -0.000423821 -1.11882e-05)
(0.000402139 -0.000429553 -1.93358e-05)
(0.0124637 0.00682287 -0.00165552)
(0.012764 0.00578964 -0.00150895)
(0.000237191 -0.000399001 -0.000214537)
(0.000196359 -0.000276843 -0.000408398)
(0.000904479 -0.000404976 -5.14845e-05)
(0.000677779 -0.000179084 -3.89036e-05)
(0.000527855 -0.00015899 -2.5359e-05)
(0.000876048 -3.53082e-05 -5.41323e-05)
(0.000741054 -4.71735e-05 -3.96497e-05)
(0.000812788 -0.000463676 -4.00658e-05)
(0.000731561 -0.000383158 -3.90979e-05)
(0.000615096 -0.000415617 -8.52832e-06)
(0.000664926 -0.000452135 -3.16787e-05)
(0.000783983 -0.000403043 -8.95994e-06)
(0.0128259 0.00328583 -0.000977807)
(0.0137074 0.00411385 -0.00135251)
(0.0130166 -0.00104037 -0.000711938)
(0.0126383 -0.00954203 -0.000406975)
(0.0134602 0.00145645 -0.00114332)
(0.00052243 -0.000357628 -3.40646e-05)
(0.000375443 -0.000142836 -1.8761e-05)
(0.000437008 -0.000148004 -1.95052e-05)
(0.000646955 -6.07501e-05 -3.24447e-05)
(0.000608835 -0.000366938 -3.27077e-05)
(0.000559733 -0.000443474 -3.06771e-05)
(0.000476277 -0.000436572 -3.8815e-05)
(0.000571704 -6.80466e-05 -3.13613e-05)
(0.000453189 -0.00034806 -4.6892e-05)
(0.000324682 -0.000137216 -2.36739e-05)
(0.000284506 -0.00013234 -4.00245e-05)
(0.000512219 -7.7851e-05 -4.04073e-05)
(0.000455886 -8.42698e-05 -6.83615e-05)
(0.000413605 -0.000428862 -6.72938e-05)
(0.000396363 -0.000337732 -8.51375e-05)
(0.000279487 -0.000427373 -9.17948e-05)
(0.000356538 -0.000412921 -0.000142023)
(0.000332891 -0.000430851 -4.03118e-05)
(0.0134123 0.00562498 -0.00163509)
(0.0134047 0.00385896 -0.00143348)
(0.0133939 -0.000634207 -0.00140839)
(0.0142178 0.00648163 -0.00198008)
(0.0142358 0.00437605 -0.00185082)
(0.0142574 -0.000668248 -0.00173274)
(0.000308426 -0.000217157 -0.000324616)
(0.000240183 -8.12358e-05 -0.000194309)
(0.000248131 -0.000121603 -8.34587e-05)
(0.000395281 -7.27435e-05 -0.000161478)
(0.000344456 -0.000307549 -0.000177762)
(0.000308727 -0.000341192 -0.000307111)
(0 0 0)
(0 0 0)
(0 0 0)
(0 0 0)
(0 0 0)
(0 0 0)
(0 0 0)
(0 0 0)
(0 0 0)
(0 0 0)
(0 0 0)
(0 0 0)
(0 0 0)
(0 0 0)
(0 0 0)
(0 0 0)
(0 0 0)
(0.000270635 -0.000108676 -0.000128389)
(0.00077797 -0.000465292 -0.00028285)
(0.00087636 -0.00032769 -3.77953e-05)
(0.00067865 -0.000295047 -2.92051e-05)
(0.000477581 -0.000269765 -2.91626e-05)
(0.000554156 -0.00027523 -2.56134e-05)
(0.000411385 -0.000259874 -4.08537e-05)
(0.00035979 -0.000248972 -7.26248e-05)
(0.000305971 -0.000176095 -0.000259149)
(8.84667e-05 -1.67166e-05 -0.000202232)
(0.000315794 -0.000222892 -0.000142737)
(0.000151164 -7.36628e-05 -0.000216163)
(0.00028263 -0.000206737 -0.000355935)
(0.000176033 -4.52085e-05 -0.000170232)
(0.00094897 -0.000220403 -6.29752e-05)
(0.000872429 -0.000218085 -5.4211e-05)
(0.000864414 -0.000454002 -5.41021e-05)
(0.0007885 -0.000444527 -4.72142e-05)
(0.000953439 -0.000464943 -6.31977e-05)
(0.00103931 -0.000223163 -7.42631e-05)
(0.000750763 -0.000214457 -4.3044e-05)
(0.000807055 -0.000216114 -4.76223e-05)
(0.000667961 -0.000429174 -3.97695e-05)
(0.000723584 -0.000436287 -4.24222e-05)
(0.000619456 -0.00042279 -3.92471e-05)
(0.000576896 -0.000417294 -4.15515e-05)
(0.000701814 -0.000213092 -4.04609e-05)