/*--------------------------------*- C++ -*----------------------------------*\
| =========                 |                                                 |
| \\      /  F ield         | OpenFOAM: The Open Source CFD Toolbox           |
|  \\    /   O peration     | Version:  2012                                  |
|   \\  /    A nd           | Website:  www.openfoam.com                      |
|    \\/     M anipulation  |                                                 |
\*---------------------------------------------------------------------------*/
FoamFile
{
    version     2.0;
    format      ascii;
    class       surfaceVectorField;
    location    "0.108/fluid";
    object      Uf;
}
// * * * * * * * * * * * * * * * * * * * * * * * * * * * * * * * * * * * * * //

dimensions      [0 1 -1 0 0 0 0];


internalField   nonuniform List<vector> 
47156
(
(1.20564 -0.00504233 -0.127638)
(1.21618 -0.005015 -0.129504)
(1.20538 -0.0150403 -0.128659)
(1.20506 -0.00495858 -0.129938)
(1.27974 -0.00562054 -0.144421)
(1.2666 -0.00544542 -0.142314)
(1.28468 -0.00572706 -0.150017)
(1.27544 -0.0168405 -0.145531)
(1.27146 -0.00551615 -0.146961)
(1.36585 -0.00733415 -0.191447)
(1.34564 -0.00698722 -0.185437)
(1.36896 -0.00756051 -0.201904)
(1.35655 -0.021825 -0.192775)
(1.34822 -0.00716986 -0.194605)
(1.4835 -0.0104679 -0.280214)
(1.4516 -0.00985878 -0.268684)
(1.48441 -0.0108523 -0.297849)
(1.46684 -0.0310204 -0.281842)
(1.45226 -0.0101787 -0.284357)
(1.6542 -0.0157384 -0.432702)
(1.60384 -0.0147043 -0.412352)
(1.6521 -0.0163386 -0.461505)
(1.62592 -0.0464454 -0.434515)
(1.60157 -0.0152044 -0.437992)
(1.90973 -0.0243789 -0.688524)
(1.82971 -0.0226238 -0.653036)
(1.90192 -0.025283 -0.735069)
(1.86219 -0.0716184 -0.689805)
(1.82191 -0.023367 -0.694296)
(2.29593 -0.0385641 -1.11828)
(2.16793 -0.0355344 -1.05539)
(2.27584 -0.039894 -1.19307)
(2.21555 -0.112686 -1.11654)
(2.14857 -0.0366026 -1.12121)
(2.87648 -0.0622436 -1.84895)
(2.67051 -0.0568582 -1.7343)
(2.82884 -0.0641353 -1.96854)
(2.73847 -0.180556 -1.83696)
(2.62582 -0.0583229 -1.838)
(3.72673 -0.102585 -3.1135)
(3.39527 -0.0927041 -2.89622)
(3.6158 -0.105063 -3.30061)
(3.48559 -0.294621 -3.07045)
(3.29415 -0.0945234 -3.05508)
(4.88801 -0.172672 -5.34076)
(4.36238 -0.153916 -4.912)
(4.63024 -0.175116 -5.61672)
(4.46081 -0.489008 -5.20897)
(4.13441 -0.155546 -5.13854)
(6.17987 -0.294827 -9.28828)
(5.39269 -0.258451 -8.41567)
(5.58619 -0.294086 -9.62651)
(5.42889 -0.8186 -8.91149)
(4.88483 -0.25761 -8.67658)
(6.58727 -0.497758 -16.0461)
(5.61373 -0.428734 -14.2802)
(5.29079 -0.482923 -16.1884)
(5.36486 -1.34559 -15.0317)
(4.54236 -0.418216 -14.3536)
(2.85331 -0.781101 -25.9102)
(2.3896 -0.665222 -22.6873)
(0.506261 -0.728755 -24.9028)
(1.38427 -2.04936 -23.4886)
(0.517502 -0.629751 -21.8409)
(-10.4524 -1.08555 -33.8761)
(-8.59817 -0.922184 -29.7035)
(-12.7301 -1.00242 -29.8869)
(-10.6012 -2.77341 -29.4759)
(-10.4842 -0.851482 -26.6699)
(-27.0021 -2.84536 -24.1358)
(-23.6357 -1.93879 -22.8105)
(-24.9384 -5.92924 -19.4603)
(-21.8875 -2.08134 -18.3183)
(-22.1072 -5.66033 -16.9003)
(-24.9841 -1.9372 -19.3544)
(-22.9199 -6.06798 -18.3575)
(-24.0467 -1.62733 -17.5521)
(1.20509 -0.0655852 -0.125193)
(1.20492 -0.0584531 -0.12681)
(1.21441 -0.0654016 -0.127012)
(1.20466 -0.071638 -0.12573)
(1.20452 -0.0645038 -0.127453)
(1.27134 -0.0734523 -0.14139)
(1.26906 -0.0654005 -0.143241)
(1.25934 -0.0712528 -0.13938)
(1.27542 -0.0747427 -0.14681)
(1.26531 -0.0801472 -0.141903)
(1.26335 -0.0721118 -0.143884)
(1.34803 -0.095104 -0.186682)
(1.34314 -0.0845414 -0.189179)
(1.32949 -0.0906622 -0.180929)
(1.35012 -0.0980063 -0.196765)
(1.33527 -0.103555 -0.187077)
(1.33107 -0.0929953 -0.189779)
(1.4523 -0.13526 -0.271829)
(1.44355 -0.119968 -0.275522)
(1.42304 -0.127463 -0.260832)
(1.45191 -0.140182 -0.288741)
(1.42994 -0.146851 -0.271832)
(1.4224 -0.131554 -0.275885)
(1.60252 -0.202609 -0.41721)
(1.58763 -0.179235 -0.422869)
(1.55655 -0.189418 -0.397934)
(1.59865 -0.210264 -0.444641)
(1.56533 -0.219178 -0.416086)
(1.5525 -0.195795 -0.422403)
(1.82512 -0.312471 -0.659134)
(1.80002 -0.27559 -0.667793)
(1.75267 -0.290206 -0.625833)
(1.81488 -0.323928 -0.703081)
(1.76396 -0.336509 -0.655019)
(1.74242 -0.299638 -0.664902)
(2.15654 -0.491475 -1.0612)
(2.11407 -0.43192 -1.07405)
(2.04202 -0.453374 -1.00295)
(2.13327 -0.508153 -1.1311)
(2.05553 -0.526248 -1.04949)
(2.01938 -0.466807 -1.06464)
(2.6432 -0.786369 -1.73521)
(2.57053 -0.687981 -1.7529)
(2.46219 -0.719637 -1.63073)
(2.59201 -0.809679 -1.84526)
(2.47439 -0.83558 -1.70463)
(2.41357 -0.737794 -1.72672)
(3.32949 -1.27971 -2.87957)
(3.20372 -1.11319 -2.89948)
(3.04558 -1.15963 -2.68594)
(3.21708 -1.30945 -3.04843)
(3.04393 -1.34594 -2.80218)
(2.94158 -1.18171 -2.83056)
(4.20497 -2.1158 -4.84394)
(3.98536 -1.8262 -4.85158)
(3.7712 -1.89376 -4.4727)
(3.95703 -2.14389 -5.08661)
(3.71904 -2.19445 -4.65025)
(3.54822 -1.91273 -4.6747)
(5.02752 -3.52792 -8.20919)
(4.64737 -3.01142 -8.15223)
(4.41265 -3.1109 -7.48015)
(4.48485 -3.51787 -8.49647)
(4.21497 -3.59045 -7.72902)
(3.93993 -3.09992 -7.70712)
(4.82007 -5.79725 -13.7351)
(4.20629 -4.86908 -13.4537)
(4.12755 -5.02967 -12.3151)
(3.69 -5.62935 -13.8452)
(3.56945 -5.7569 -12.5768)
(3.1784 -4.90767 -12.3777)
(0.835544 -8.9037 -21.4466)
(0.113336 -7.31938 -20.5785)
(0.661517 -7.62834 -18.9493)
(-1.12906 -8.31228 -20.6387)
(-0.586337 -8.60313 -18.9226)
(-0.923773 -7.22217 -18.243)
(-11.5431 -9.44619 -25.2018)
(-11.78 -11.7409 -27.1341)
(-9.76391 -10.0354 -23.9086)
(-13.7862 -10.3652 -23.6481)
(-11.418 -9.10443 -21.3021)
(-11.8585 -10.9669 -22.6055)
(-28.748 -9.42794 -13.436)
(-32.1914 -11.0811 -14.1382)
(-26.7865 -9.8764 -14.828)
(-29.8115 -8.97715 -9.02535)
(-25.7068 -8.41926 -10.7172)
(-27.7149 -9.61049 -10.8645)
(1.2036 -0.110252 -0.119347)
(1.20356 -0.105045 -0.1213)
(1.21006 -0.109942 -0.121052)
(1.20312 -0.113663 -0.119492)
(1.20309 -0.108444 -0.121511)
(1.25057 -0.123359 -0.134155)
(1.24996 -0.117446 -0.136423)
(1.24137 -0.119694 -0.132372)
(1.25255 -0.125507 -0.139152)
(1.24371 -0.127048 -0.134189)
(1.24328 -0.121124 -0.136537)
(1.30448 -0.159364 -0.175328)
(1.30313 -0.151488 -0.178485)
(1.28996 -0.151987 -0.17018)
(1.30415 -0.16418 -0.18452)
(1.29008 -0.163758 -0.174992)
(1.28912 -0.155865 -0.178273)
(1.37693 -0.225812 -0.251929)
(1.37446 -0.214229 -0.256792)
(1.35392 -0.212942 -0.242183)
(1.37345 -0.23393 -0.267139)
(1.35199 -0.231315 -0.250702)
(1.3502 -0.219708 -0.255776)
(1.47915 -0.336371 -0.38074)
(1.47484 -0.318423 -0.388572)
(1.44338 -0.314804 -0.363945)
(1.47114 -0.348872 -0.404989)
(1.43838 -0.343235 -0.377491)
(1.4352 -0.325261 -0.385693)
(1.62602 -0.514518 -0.590713)
(1.61864 -0.485917 -0.603538)
(1.57083 -0.478619 -0.562396)
(1.61026 -0.532937 -0.628721)
(1.56052 -0.522475 -0.58296)
(1.55501 -0.493882 -0.596428)
(1.83444 -0.799504 -0.93032)
(1.82191 -0.753125 -0.951401)
(1.75 -0.739314 -0.882369)
(1.80422 -0.825682 -0.989118)
(1.72953 -0.806816 -0.912601)
(1.72019 -0.760609 -0.934768)
(2.11709 -1.25653 -1.47971)
(2.09606 -1.18028 -1.51416)
(1.98997 -1.1542 -1.39723)
(2.0588 -1.29186 -1.5689)
(1.94894 -1.25765 -1.43992)
(1.93348 -1.18213 -1.47614)
(2.46168 -1.99307 -2.36886)
(2.42688 -1.86574 -2.42442)
(2.27616 -1.81585 -2.22405)
(2.34749 -2.03549 -2.49898)
(2.19244 -1.97271 -2.27999)
(2.16783 -1.84819 -2.33837)
(2.77174 -3.17895 -3.79763)
(2.71609 -2.96338 -3.88536)
(2.51932 -2.86821 -3.54034)
(2.54673 -3.21443 -3.97214)
(2.3468 -3.09903 -3.60031)
(2.31034 -2.89286 -3.69137)
(2.71798 -5.05122 -6.02814)
(2.63558 -4.6824 -6.16002)
(2.4287 -4.5047 -5.57074)
(2.28136 -5.02752 -6.21215)
(2.07887 -4.82381 -5.59537)
(2.03311 -4.48357 -5.72878)
(1.42324 -7.82031 -9.22092)
(1.32906 -7.1931 -9.40757)
(1.25592 -6.88819 -8.44866)
(0.634596 -7.59312 -9.26802)
(0.588681 -7.26364 -8.3118)
(0.558938 -6.71865 -8.48451)
(-2.94976 -11.2389 -12.7291)
(-2.93773 -10.2243 -12.9682)
(-2.52455 -9.79076 -11.6164)
(-4.12445 -10.4627 -12.2034)
(-3.62721 -10.0458 -10.9966)
(-3.54544 -9.2501 -11.1935)
(-12.6932 -13.2634 -12.9959)
(-12.1725 -11.9683 -13.3579)
(-10.7801 -11.6135 -12.1942)
(-13.4732 -11.4652 -11.2041)
(-11.9697 -11.262 -10.5278)
(-11.5634 -10.3964 -10.8162)
(-23.3997 -8.73434 -2.45458)
(-22.2013 -8.17483 -3.41083)
(-20.5833 -8.47994 -4.05603)
(-21.6669 -6.67054 -0.55317)
(-20.1911 -7.12532 -1.55665)
(-19.4908 -6.84016 -2.33915)
(1.20158 -0.132738 -0.11132)
(1.20162 -0.130478 -0.11341)
(1.20411 -0.132362 -0.112869)
(1.20112 -0.130577 -0.113353)
(1.22221 -0.148328 -0.124246)
(1.22274 -0.145705 -0.126684)
(1.21682 -0.143969 -0.122769)
(1.22132 -0.150876 -0.12867)
(1.21586 -0.145666 -0.126475)
(1.24524 -0.191005 -0.159874)
(1.24635 -0.187359 -0.163296)
(1.23613 -0.182277 -0.155534)
(1.24164 -0.196698 -0.167869)
(1.23203 -0.18687 -0.162608)
(1.27515 -0.269241 -0.225085)
(1.27705 -0.263636 -0.230413)
(1.26042 -0.254142 -0.216992)
(1.26756 -0.278755 -0.238035)
(1.25261 -0.262103 -0.228639)
(1.31448 -0.39796 -0.332141)
(1.31756 -0.388952 -0.340824)
(1.29195 -0.372992 -0.31857)
(1.30113 -0.41241 -0.352237)
(1.27844 -0.385153 -0.336744)
(1.36496 -0.601806 -0.501096)
(1.36984 -0.587089 -0.515514)
(1.33149 -0.561064 -0.479073)
(1.34235 -0.622633 -0.531538)
(1.3088 -0.578485 -0.506632)
(1.4231 -0.919528 -0.763017)
(1.43088 -0.895406 -0.787137)
(1.37496 -0.853173 -0.727574)
(1.38487 -0.948133 -0.808112)
(1.33691 -0.876781 -0.768369)
(1.47064 -1.40999 -1.16382)
(1.48321 -1.37066 -1.20421)
(1.40478 -1.30173 -1.10678)
(1.40535 -1.44654 -1.22848)
(1.34049 -1.3313 -1.16521)
(1.45196 -2.15776 -1.76584)
(1.4727 -2.09438 -1.83335)
(1.37025 -1.98122 -1.67435)
(1.33944 -2.1979 -1.85333)
(1.26079 -2.01275 -1.75342)
(1.2262 -3.26967 -2.63727)
(1.26132 -3.16974 -2.74955)
(1.14624 -2.9844 -2.49331)
(1.03325 -3.29621 -2.74227)
(0.960913 -3.00388 -2.58883)
(0.480323 -4.83434 -3.80035)
(0.540972 -4.68305 -3.98519)
(0.459274 -4.38702 -3.58659)
(0.161261 -4.79881 -3.89202)
(0.156534 -4.35727 -3.67343)
(-1.37642 -6.77111 -5.06881)
(-1.27158 -6.56055 -5.36614)
(-1.20155 -6.12137 -4.79764)
(-1.85153 -6.56178 -5.05963)
(-1.64921 -5.96042 -4.80504)
(-5.13477 -8.42936 -5.67123)
(-4.96385 -8.19327 -6.12263)
(-4.52588 -7.65335 -5.472)
(-5.66573 -7.85469 -5.39657)
(-5.03718 -7.22303 -5.26811)
(-10.7677 -7.95243 -3.81706)
(-10.5473 -7.85479 -4.41018)
(-9.5819 -7.48505 -4.0832)
(-10.8881 -6.91403 -3.19094)
(-9.77885 -6.68852 -3.58293)
(-14.9687 -2.89879 2.04189)
(-14.7844 -3.42287 1.45342)
(-13.7149 -3.55676 0.846842)
(-14.1713 -1.90122 2.56509)
(-13.1201 -2.68219 1.28841)
(1.2033 -0.00470633 -0.127003)
(1.20918 -0.00467499 -0.125588)
(1.20304 -0.0140351 -0.124783)
(1.20274 -0.00462556 -0.122811)
(1.24666 -0.00520246 -0.143461)
(1.23761 -0.00504435 -0.137841)
(1.24768 -0.00528892 -0.145192)
(1.2425 -0.0155928 -0.140913)
(1.23876 -0.00510227 -0.13867)
(1.29557 -0.0066788 -0.189367)
(1.28101 -0.00637272 -0.178903)
(1.29348 -0.00686069 -0.194525)
(1.28664 -0.0198672 -0.185872)
(1.27884 -0.00652238 -0.182854)
(1.35952 -0.00931948 -0.275288)
(1.33636 -0.00879319 -0.257551)
(1.35286 -0.00961776 -0.284917)
(1.34373 -0.0275924 -0.26992)
(1.33021 -0.00904758 -0.265385)
(1.44668 -0.0136304 -0.420793)
(1.41065 -0.0127595 -0.391466)
(1.43308 -0.0140688 -0.436786)
(1.42035 -0.0401639 -0.411962)
(1.39814 -0.0131364 -0.40466)
(1.56695 -0.0204208 -0.659492)
(1.51146 -0.0189908 -0.61112)
(1.54158 -0.0210245 -0.684741)
(1.52394 -0.0598613 -0.644272)
(1.48812 -0.0195078 -0.631917)
(1.72925 -0.0309966 -1.04705)
(1.6446 -0.028634 -0.96667)
(1.68298 -0.03177 -1.08535)
(1.65955 -0.0903139 -1.01973)
(1.60224 -0.0292892 -0.997873)
(1.93412 -0.0474355 -1.67333)
(1.80727 -0.0434834 -1.53829)
(1.85008 -0.0483045 -1.72824)
(1.82184 -0.137161 -1.62241)
(1.73096 -0.0442103 -1.58202)
(2.15238 -0.0729454 -2.67792)
(1.96905 -0.066254 -2.44867)
(1.99994 -0.0736059 -2.74827)
(1.97377 -0.208863 -2.57975)
(1.83228 -0.0668083 -2.50214)
(2.27229 -0.112113 -4.25826)
(2.02676 -0.100719 -3.86789)
(1.99891 -0.111664 -4.32456)
(1.99681 -0.316915 -4.06462)
(1.78523 -0.100425 -3.91142)
(1.9843 -0.170071 -6.62668)
(1.71018 -0.150941 -5.97422)
(1.51332 -0.166229 -6.61734)
(1.59054 -0.472835 -6.24542)
(1.30096 -0.148183 -5.94274)
(0.604285 -0.248072 -9.78422)
(0.442133 -0.217694 -8.76389)
(-0.125778 -0.236099 -9.51302)
(0.138275 -0.675993 -9.06776)
(-0.184208 -0.2092 -8.49941)
(-2.93148 -0.333178 -12.896)
(-2.66198 -0.290178 -11.5422)
(-3.80899 -0.306241 -12.0258)
(-3.23497 -0.889385 -11.7047)
(-3.41939 -0.271072 -10.777)
(-9.00712 -0.400039 -13.4447)
(-7.97877 -0.34463 -12.2454)
(-9.45277 -0.357214 -11.7615)
(-8.68058 -1.05514 -11.9205)
(-8.43243 -0.312131 -10.8091)
(-13.3576 -0.842347 -8.92263)
(-12.6068 -0.577214 -8.66071)
(-12.8055 -1.88502 -7.66989)
(-12.038 -0.590274 -7.28649)
(-11.8218 -1.8564 -7.14973)
(-12.9194 -0.501315 -7.33637)
(-12.0205 -2.06808 -7.62449)
(-12.7278 -0.410973 -7.01203)
(1.20282 -0.0612516 -0.124587)
(1.20265 -0.0545622 -0.123002)
(1.20765 -0.0610253 -0.123188)
(1.20241 -0.066874 -0.121961)
(1.20227 -0.0602097 -0.120478)
(1.23943 -0.0680884 -0.140478)
(1.237 -0.0605853 -0.138715)
(1.23136 -0.066107 -0.135024)
(1.23974 -0.0691196 -0.142117)
(1.23376 -0.0742544 -0.137431)
(1.2318 -0.0668017 -0.135793)
(1.28043 -0.0866901 -0.184712)
(1.27524 -0.0769921 -0.182446)
(1.2673 -0.0827712 -0.174605)
(1.27756 -0.0890202 -0.189637)
(1.26854 -0.0943246 -0.180445)
(1.26433 -0.084682 -0.178373)
(1.33363 -0.12054 -0.267192)
(1.32439 -0.106771 -0.263971)
(1.31264 -0.113796 -0.250149)
(1.32606 -0.12436 -0.27636)
(1.31308 -0.130735 -0.260498)
(1.30556 -0.117052 -0.257613)
(1.40519 -0.175707 -0.40609)
(1.38963 -0.155145 -0.401182)
(1.37263 -0.164579 -0.378093)
(1.39053 -0.181314 -0.421226)
(1.37172 -0.189808 -0.394905)
(1.359 -0.169401 -0.390603)
(1.50199 -0.262257 -0.632283)
(1.4763 -0.230702 -0.62439)
(1.45218 -0.244071 -0.586481)
(1.47549 -0.269936 -0.655979)
(1.44862 -0.281907 -0.612845)
(1.42758 -0.25066 -0.606054)
(1.62836 -0.39618 -0.996059)
(1.58633 -0.346942 -0.982656)
(1.5532 -0.366348 -0.920744)
(1.58125 -0.405926 -1.03161)
(1.544 -0.423227 -0.961215)
(1.5097 -0.374645 -0.949822)
(1.77799 -0.602332 -1.5768)
(1.70991 -0.524567 -1.5527)
(1.66722 -0.552959 -1.45194)
(1.69445 -0.613115 -1.62701)
(1.64562 -0.638358 -1.51261)
(1.59069 -0.562058 -1.49218)
(1.91277 -0.917846 -2.49372)
(1.80456 -0.793854 -2.448)
(1.75665 -0.835435 -2.28533)
(1.76496 -0.925757 -2.55669)
(1.70816 -0.96278 -2.37271)
(1.62275 -0.842203 -2.33368)
(1.91348 -1.39299 -3.9066)
(1.74814 -1.19434 -3.81634)
(1.71282 -1.25534 -3.55942)
(1.65543 -1.38696 -3.96357)
(1.60799 -1.4419 -3.67554)
(1.48232 -1.25141 -3.59748)
(1.48092 -2.0786 -5.96622)
(1.24956 -1.76272 -5.78678)
(1.27467 -1.85297 -5.40147)
(1.04916 -2.03172 -5.95284)
(1.06004 -2.11551 -5.52895)
(0.894879 -1.819 -5.37167)
(-0.00150812 -2.97239 -8.60827)
(-0.262052 -2.48707 -8.26675)
(-0.0803682 -2.62326 -7.75306)
(-0.651083 -2.83046 -8.36377)
(-0.479956 -2.96339 -7.81995)
(-0.644837 -2.5215 -7.52019)
(-3.44613 -3.89628 -11.0182)
(-3.56945 -3.21362 -10.4523)
(-3.11163 -3.41858 -9.93345)
(-4.20069 -3.5813 -10.2601)
(-3.73707 -3.7914 -9.75882)
(-3.77328 -3.19414 -9.27325)
(-8.83891 -3.5906 -10.2399)
(-9.21441 -4.38174 -10.8889)
(-8.13829 -3.8579 -10.0507)
(-9.55995 -3.85419 -9.43591)
(-8.51383 -3.47499 -8.82302)
(-8.82676 -4.13307 -9.34722)
(-13.8743 -3.29112 -5.21368)
(-14.899 -3.8378 -5.31024)
(-13.3109 -3.4667 -5.64173)
(-14.1693 -3.16447 -3.80151)
(-12.8619 -2.96389 -4.29634)
(-13.5369 -3.38632 -4.35473)
(1.20153 -0.103006 -0.118809)
(1.20146 -0.098088 -0.117694)
(1.20387 -0.102625 -0.117448)
(1.20107 -0.106148 -0.115952)
(1.20103 -0.101264 -0.114901)
(1.22144 -0.114412 -0.133352)
(1.22049 -0.108857 -0.13217)
(1.21581 -0.111106 -0.128292)
(1.21999 -0.116132 -0.134772)
(1.21508 -0.117775 -0.130026)
(1.21447 -0.112265 -0.12892)
(1.24324 -0.145401 -0.173619)
(1.24116 -0.138086 -0.172261)
(1.23353 -0.138882 -0.164356)
(1.23847 -0.149279 -0.17799)
(1.23002 -0.149313 -0.168934)
(1.22864 -0.142067 -0.167694)
(1.27073 -0.201554 -0.247975)
(1.26691 -0.19095 -0.246339)
(1.2549 -0.190397 -0.232565)
(1.26098 -0.207883 -0.256062)
(1.24818 -0.206284 -0.240602)
(1.24557 -0.195804 -0.239165)
(1.30553 -0.292469 -0.371431)
(1.29889 -0.276306 -0.369416)
(1.28108 -0.274207 -0.346541)
(1.28835 -0.301685 -0.384587)
(1.26947 -0.298083 -0.359137)
(1.26479 -0.282161 -0.357465)
(1.34797 -0.43364 -0.568739)
(1.33672 -0.408379 -0.566229)
(1.31121 -0.404147 -0.528861)
(1.31884 -0.446114 -0.5889)
(1.2918 -0.439685 -0.547553)
(1.28369 -0.414911 -0.545631)
(1.3929 -0.64882 -0.878522)
(1.37423 -0.608812 -0.875302)
(1.33911 -0.601253 -0.814652)
(1.34394 -0.664361 -0.907918)
(1.30671 -0.653594 -0.841179)
(1.29309 -0.614608 -0.838945)
(1.4209 -0.972934 -1.35804)
(1.3907 -0.909094 -1.35353)
(1.34534 -0.896035 -1.25564)
(1.33874 -0.989604 -1.39798)
(1.29065 -0.971948 -1.29108)
(1.26865 -0.910329 -1.28815)
(1.3787 -1.45407 -2.08532)
(1.33182 -1.35191 -2.07788)
(1.28018 -1.32972 -1.92162)
(1.24156 -1.46547 -2.13258)
(1.18685 -1.43702 -1.96393)
(1.15332 -1.33982 -1.95886)
(1.14004 -2.14903 -3.1475)
(1.07226 -1.98617 -3.13302)
(1.03034 -1.94972 -2.8896)
(0.91547 -2.13845 -3.18524)
(0.871169 -2.09446 -2.92745)
(0.824839 -1.94285 -2.91613)
(0.440489 -3.0965 -4.58448)
(0.355906 -2.84149 -4.55445)
(0.365096 -2.78628 -4.19442)
(0.0910322 -3.02638 -4.56342)
(0.101164 -2.96469 -4.19412)
(0.0487729 -2.73484 -4.16752)
(-1.18333 -4.23498 -6.2233)
(-1.25316 -3.85429 -6.16602)
(-1.11181 -3.78458 -5.68838)
(-1.6662 -4.03437 -6.03489)
(-1.51567 -3.96588 -5.57208)
(-1.54654 -3.63809 -5.51762)
(-4.28257 -5.22926 -7.33384)
(-4.24572 -4.72151 -7.25421)
(-3.8684 -4.66705 -6.75675)
(-4.78027 -4.8022 -6.81394)
(-4.38187 -4.76831 -6.38806)
(-4.32787 -4.35724 -6.31005)
(-8.76035 -5.28194 -6.31276)
(-8.47382 -4.76257 -6.2987)
(-7.85996 -4.79043 -6.0566)
(-8.89413 -4.60275 -5.41693)
(-8.26075 -4.67624 -5.31183)
(-8.04741 -4.28686 -5.29085)
(-12.325 -3.4828 -1.75985)
(-11.8361 -3.22064 -1.99996)
(-11.3086 -3.39443 -2.29886)
(-11.696 -2.798 -0.965815)
(-11.1816 -3.00742 -1.35266)
(-10.8603 -2.82941 -1.5572)
(1.19976 -0.124077 -0.110873)
(1.19977 -0.121899 -0.110091)
(1.19869 -0.123619 -0.109565)
(1.19932 -0.121994 -0.107239)
(1.19683 -0.137671 -0.123591)
(1.19693 -0.135147 -0.122819)
(1.19452 -0.133733 -0.119065)
(1.19297 -0.139719 -0.124716)
(1.19075 -0.135114 -0.119504)
(1.19253 -0.174496 -0.158509)
(1.19267 -0.171002 -0.157786)
(1.18744 -0.166764 -0.150382)
(1.18519 -0.179097 -0.162139)
(1.17994 -0.170551 -0.153144)
(1.18549 -0.240849 -0.222008)
(1.1856 -0.235502 -0.221469)
(1.17654 -0.227713 -0.208776)
(1.17282 -0.24831 -0.228664)
(1.1642 -0.234109 -0.214226)
(1.17178 -0.347278 -0.325113)
(1.17167 -0.338724 -0.325065)
(1.15792 -0.326021 -0.304295)
(1.15131 -0.358031 -0.335687)
(1.13817 -0.335351 -0.313139)
(1.14429 -0.510188 -0.48508)
(1.14369 -0.496277 -0.486162)
(1.12416 -0.476432 -0.45281)
(1.11187 -0.524501 -0.500742)
(1.09298 -0.48889 -0.465982)
(1.08822 -0.753245 -0.726888)
(1.08673 -0.730571 -0.730273)
(1.06066 -0.700103 -0.677287)
(1.03723 -0.770612 -0.748681)
(1.01182 -0.715233 -0.695588)
(0.973032 -1.1081 -1.08342)
(0.97027 -1.07137 -1.09116)
(0.938639 -1.02506 -1.00794)
(0.893299 -1.12593 -1.11118)
(0.862635 -1.0407 -1.03109)
(0.737725 -1.61189 -1.59091)
(0.733777 -1.55322 -1.60634)
(0.702265 -1.48372 -1.4781)
(0.614609 -1.62276 -1.62056)
(0.585592 -1.49395 -1.50244)
(0.26722 -2.29457 -2.27071)
(0.263969 -2.2033 -2.2989)
(0.248619 -2.10174 -2.10809)
(0.0828091 -2.2813 -2.28864)
(0.0749035 -2.09315 -2.12186)
(-0.633592 -3.14246 -3.07982)
(-0.629601 -3.00695 -3.12811)
(-0.593928 -2.86677 -2.86214)
(-0.892096 -3.07093 -3.05386)
(-0.836534 -2.8134 -2.83819)
(-2.22797 -4.01722 -3.80818)
(-2.20101 -3.83286 -3.88662)
(-2.05574 -3.66119 -3.56005)
(-2.54196 -3.83231 -3.68073)
(-2.3522 -3.52161 -3.45044)
(-4.68075 -4.53191 -3.94001)
(-4.60487 -4.32206 -4.06178)
(-4.28921 -4.16149 -3.75771)
(-4.9487 -4.17802 -3.649)
(-4.55498 -3.89144 -3.50989)
(-7.5639 -4.0227 -2.70001)
(-7.42721 -3.87016 -2.87625)
(-6.96578 -3.81238 -2.77114)
(-7.57573 -3.52877 -2.27763)
(-7.02105 -3.41809 -2.40229)
(-9.37963 -2.04226 0.169289)
(-9.23419 -2.0863 -0.038257)
(-8.8378 -2.20023 -0.283721)
(-8.99391 -1.63682 0.488745)
(-8.53603 -1.82008 0.0236836)
(1.20122 -0.004407 -0.101392)
(1.20316 -0.00438038 -0.0970238)
(1.20102 -0.0131639 -0.0964101)
(1.20079 -0.00434499 -0.0916171)
(1.21745 -0.00483129 -0.114362)
(1.21268 -0.00469761 -0.106377)
(1.21591 -0.0049107 -0.111976)
(1.2142 -0.0145154 -0.108718)
(1.21143 -0.00475473 -0.103306)
(1.23386 -0.00610122 -0.15038)
(1.22574 -0.00584516 -0.137589)
(1.22904 -0.00626111 -0.149425)
(1.2269 -0.0181887 -0.142874)
(1.22118 -0.0059823 -0.13573)
(1.25181 -0.00831897 -0.21728)
(1.23874 -0.00788795 -0.196962)
(1.24179 -0.00857269 -0.217498)
(1.23961 -0.0246855 -0.206259)
(1.22981 -0.00811405 -0.195863)
(1.26935 -0.0118241 -0.32912)
(1.24953 -0.0111341 -0.296871)
(1.25133 -0.0121815 -0.330362)
(1.24934 -0.0349284 -0.312058)
(1.23348 -0.0114586 -0.296122)
(1.28147 -0.0171088 -0.508962)
(1.25232 -0.0160217 -0.457756)
(1.25044 -0.0175682 -0.510893)
(1.24961 -0.0502884 -0.481782)
(1.22458 -0.0164462 -0.45667)
(1.27527 -0.0248713 -0.792159)
(1.23371 -0.0231684 -0.710942)
(1.22289 -0.0254001 -0.793601)
(1.22557 -0.0726817 -0.748123)
(1.18679 -0.0236701 -0.70789)
(1.22185 -0.0360549 -1.22943)
(1.16547 -0.0333911 -1.10121)
(1.13494 -0.0365372 -1.22671)
(1.14621 -0.104609 -1.15729)
(1.08762 -0.0338845 -1.09213)
(1.06125 -0.05178 -1.88518)
(0.991406 -0.0476326 -1.68526)
(0.920521 -0.0519258 -1.86836)
(0.950494 -0.148885 -1.76639)
(0.865599 -0.0479003 -1.66036)
(0.677865 -0.0730403 -2.81995)
(0.607075 -0.0666845 -2.51646)
(0.459409 -0.0722201 -2.76544)
(0.526509 -0.207651 -2.62556)
(0.412346 -0.0662604 -2.45405)
(-0.127286 -0.0997655 -4.03321)
(-0.161951 -0.0903856 -3.59633)
(-0.441503 -0.0968039 -3.89237)
(-0.308312 -0.279769 -3.72369)
(-0.441637 -0.0884123 -3.45386)
(-1.62756 -0.128823 -5.33547)
(-1.55024 -0.115992 -4.76737)
(-2.01894 -0.121946 -5.02825)
(-1.78737 -0.355751 -4.8741)
(-1.90099 -0.111172 -4.47742)
(-4.01356 -0.151546 -6.17269)
(-3.72261 -0.13615 -5.56518)
(-4.37453 -0.139027 -5.61826)
(-4.04159 -0.412632 -5.56965)
(-4.05862 -0.127142 -5.06131)
(-6.96558 -0.155548 -5.65212)
(-6.42868 -0.139833 -5.22324)
(-7.08779 -0.137355 -4.88013)
(-6.73649 -0.4203 -5.0304)
(-6.57749 -0.126358 -4.52525)
(-9.36574 -0.145702 -3.29388)
(-8.71893 -0.124131 -3.23363)
(-9.10717 -0.117788 -2.49802)
(-8.87636 -0.374567 -2.82775)
(-8.54236 -0.10625 -2.50326)
(1.20081 -0.05739 -0.0994751)
(1.20068 -0.0511886 -0.0950422)
(1.20183 -0.0572315 -0.0951809)
(1.20048 -0.0627435 -0.0942429)
(1.20039 -0.0565896 -0.0898876)
(1.21124 -0.0633258 -0.112003)
(1.20944 -0.056425 -0.107036)
(1.2073 -0.061658 -0.104219)
(1.20908 -0.0642651 -0.109625)
(1.20664 -0.0691626 -0.106053)
(1.20543 -0.0623406 -0.101179)
(1.22105 -0.079276 -0.146725)
(1.21719 -0.0705195 -0.140269)
(1.21408 -0.0759973 -0.134318)
(1.21557 -0.081325 -0.145713)
(1.21148 -0.0864084 -0.138748)
(1.20884 -0.0777494 -0.13244)
(1.23044 -0.107715 -0.210992)
(1.22356 -0.0955839 -0.201782)
(1.21904 -0.102191 -0.191384)
(1.2197 -0.110971 -0.211071)
(1.21415 -0.117068 -0.199169)
(1.20935 -0.105092 -0.190214)
(1.23633 -0.152643 -0.317881)
(1.22476 -0.135046 -0.30407)
(1.21903 -0.14381 -0.286944)
(1.21756 -0.157218 -0.318863)
(1.2104 -0.165295 -0.299417)
(1.20215 -0.147969 -0.286057)
(1.23227 -0.220162 -0.488604)
(1.21332 -0.194077 -0.467348)
(1.20699 -0.206306 -0.439827)
(1.20062 -0.226034 -0.490095)
(1.1922 -0.237329 -0.458964)
(1.17845 -0.21174 -0.438514)
(1.20366 -0.318875 -0.7552)
(1.17331 -0.279843 -0.722016)
(1.16809 -0.297292 -0.678491)
(1.15119 -0.325592 -0.755976)
(1.14302 -0.341788 -0.706904)
(1.12072 -0.303693 -0.675153)
(1.12005 -0.459993 -1.16257)
(1.07281 -0.401482 -1.11029)
(1.07284 -0.426512 -1.04271)
(1.03447 -0.466071 -1.15901)
(1.03048 -0.489489 -1.0832)
(0.995625 -0.432776 -1.03345)
(0.921197 -0.656291 -1.76548)
(0.850956 -0.568939 -1.68282)
(0.865069 -0.604757 -1.58097)
(0.785032 -0.65807 -1.74822)
(0.793968 -0.691994 -1.6349)
(0.742442 -0.608133 -1.55668)
(0.495796 -0.91769 -2.61045)
(0.399304 -0.788964 -2.48058)
(0.444266 -0.839868 -2.33475)
(0.288272 -0.90745 -2.55784)
(0.327182 -0.956554 -2.39795)
(0.257816 -0.834599 -2.27572)
(-0.3399 -1.23944 -3.68182)
(-0.453938 -1.0551 -3.48313)
(-0.350962 -1.12668 -3.29271)
(-0.632532 -1.20314 -3.55053)
(-0.535299 -1.27395 -3.347)
(-0.613748 -1.10239 -3.16125)
(-1.82584 -1.57857 -4.78801)
(-1.92021 -1.32902 -4.50388)
(-1.72714 -1.42768 -4.29502)
(-2.18224 -1.49568 -4.50894)
(-1.99213 -1.59614 -4.29612)
(-2.04996 -1.36914 -4.0332)
(-4.10865 -1.82603 -5.41268)
(-4.10369 -1.52078 -5.06192)
(-3.81125 -1.65031 -4.90778)
(-4.42657 -1.67738 -4.91996)
(-4.13138 -1.81236 -4.78083)
(-4.11218 -1.54236 -4.46166)
(-6.86601 -1.81472 -4.74043)
(-6.66991 -1.50064 -4.42722)
(-6.34305 -1.65202 -4.43297)
(-6.95046 -1.60145 -4.0698)
(-6.61403 -1.76054 -4.10786)
(-6.46195 -1.49251 -3.82953)
(-8.99533 -1.39151 -2.25625)
(-8.62228 -1.1548 -2.16247)
(-8.39765 -1.30019 -2.37488)
(-8.68722 -1.1426 -1.63799)
(-8.45009 -1.29948 -1.88271)
(-8.1879 -1.11011 -1.8012)
(1.19969 -0.0965474 -0.0948907)
(1.19965 -0.0920548 -0.090965)
(1.19853 -0.0962805 -0.0907729)
(1.19931 -0.0996299 -0.0896273)
(1.19931 -0.0952085 -0.0857502)
(1.19568 -0.106464 -0.106368)
(1.19513 -0.101433 -0.102025)
(1.1938 -0.103679 -0.0990623)
(1.19197 -0.108036 -0.104005)
(1.19044 -0.109761 -0.100383)
(1.19036 -0.10482 -0.096096)
(1.18936 -0.133089 -0.138013)
(1.1881 -0.126586 -0.132526)
(1.18517 -0.127626 -0.126518)
(1.18228 -0.136508 -0.136868)
(1.17858 -0.136917 -0.129995)
(1.17827 -0.130552 -0.124597)
(1.17817 -0.180393 -0.196058)
(1.17571 -0.171192 -0.188511)
(1.17078 -0.171229 -0.17813)
(1.1657 -0.185808 -0.195816)
(1.16009 -0.185024 -0.18419)
(1.15923 -0.176061 -0.176794)
(1.15642 -0.254736 -0.291337)
(1.15188 -0.241089 -0.280499)
(1.14507 -0.240178 -0.263482)
(1.13587 -0.262304 -0.291733)
(1.12818 -0.260294 -0.272861)
(1.12617 -0.247077 -0.262281)
(1.11453 -0.365566 -0.440935)
(1.10649 -0.344885 -0.425055)
(1.09823 -0.342953 -0.397802)
(1.0814 -0.375209 -0.441462)
(1.07195 -0.371798 -0.411444)
(1.06779 -0.351913 -0.396005)
(1.03456 -0.525705 -0.6696)
(1.02088 -0.49411 -0.646171)
(1.01261 -0.490967 -0.603205)
(0.98187 -0.536617 -0.668944)
(0.972012 -0.531538 -0.621966)
(0.964206 -0.501429 -0.599269)
(0.883483 -0.750808 -1.00979)
(0.861369 -0.702542 -0.975209)
(0.856688 -0.697929 -0.908731)
(0.801007 -0.760528 -1.00455)
(0.794397 -0.75352 -0.932581)
(0.781002 -0.708051 -0.899178)
(0.602372 -1.05656 -1.49657)
(0.569079 -0.983381 -1.44582)
(0.575866 -0.977186 -1.34593)
(0.476576 -1.05931 -1.47866)
(0.481311 -1.05047 -1.37208)
(0.460588 -0.98258 -1.32315)
(0.0923259 -1.45035 -2.14923)
(0.0475485 -1.34147 -2.07593)
(0.0807741 -1.33434 -1.93305)
(-0.0909516 -1.43451 -2.10133)
(-0.0593052 -1.42522 -1.95222)
(-0.0870182 -1.3262 -1.88157)
(-0.793573 -1.91213 -2.92626)
(-0.842247 -1.75605 -2.82427)
(-0.758397 -1.75089 -2.63649)
(-1.03953 -1.85766 -2.81623)
(-0.95567 -1.85241 -2.62705)
(-0.984065 -1.7141 -2.52871)
(-2.21975 -2.36038 -3.64282)
(-2.24822 -2.15165 -3.51252)
(-2.08473 -2.1562 -3.30077)
(-2.50257 -2.2399 -3.42416)
(-2.33614 -2.24894 -3.22347)
(-2.34775 -2.0699 -3.09784)
(-4.23165 -2.61547 -3.88459)
(-4.19531 -2.36961 -3.74784)
(-3.94033 -2.39799 -3.57382)
(-4.46364 -2.40737 -3.52199)
(-4.20268 -2.44694 -3.37843)
(-4.1687 -2.24398 -3.24654)
(-6.46888 -2.41804 -3.08102)
(-6.32763 -2.18924 -2.99871)
(-6.02915 -2.25664 -2.95788)
(-6.50183 -2.13857 -2.62089)
(-6.1976 -2.22176 -2.6233)
(-6.0971 -2.04057 -2.54193)
(-7.96615 -1.59974 -1.00825)
(-7.7538 -1.46929 -1.05667)
(-7.53736 -1.57768 -1.20481)
(-7.70257 -1.33138 -0.635485)
(-7.48573 -1.45034 -0.809506)
(-7.34501 -1.3515 -0.849965)
(1.19814 -0.116355 -0.088592)
(1.19817 -0.114456 -0.0851239)
(1.194 -0.116035 -0.0847175)
(1.19781 -0.114754 -0.0800656)
(1.17434 -0.128199 -0.0986439)
(1.17468 -0.126017 -0.0948625)
(1.17528 -0.124875 -0.091991)
(1.16853 -0.130075 -0.0963086)
(1.1697 -0.126239 -0.0891298)
(1.14604 -0.159922 -0.126139)
(1.14662 -0.156952 -0.121512)
(1.14563 -0.153426 -0.115876)
(1.13678 -0.163995 -0.12482)
(1.13647 -0.156919 -0.113901)
(1.10708 -0.216031 -0.175845)
(1.10779 -0.211573 -0.169766)
(1.10504 -0.205201 -0.160175)
(1.09227 -0.22245 -0.175194)
(1.091 -0.210944 -0.158631)
(1.04854 -0.303562 -0.255766)
(1.04915 -0.296574 -0.247506)
(1.04503 -0.286518 -0.231991)
(1.02561 -0.312473 -0.255422)
(1.02347 -0.294671 -0.230399)
(0.957411 -0.432608 -0.377882)
(0.957475 -0.421479 -0.36658)
(0.95269 -0.406496 -0.342093)
(0.922392 -0.443842 -0.377229)
(0.919811 -0.416994 -0.339712)
(0.812688 -0.615989 -0.558275)
(0.811545 -0.598256 -0.542952)
(0.807732 -0.576654 -0.50501)
(0.759854 -0.628511 -0.555971)
(0.758174 -0.588767 -0.500421)
(0.580551 -0.867626 -0.815459)
(0.577376 -0.839646 -0.795126)
(0.578167 -0.809362 -0.737624)
(0.502261 -0.878544 -0.808499)
(0.504791 -0.8209 -0.727932)
(0.207964 -1.19787 -1.16405)
(0.202231 -1.15459 -1.13799)
(0.214876 -1.11358 -1.05371)
(0.0953545 -1.20082 -1.14609)
(0.109361 -1.11963 -1.03316)
(-0.382471 -1.60253 -1.59873)
(-0.389808 -1.53789 -1.56712)
(-0.352549 -1.48522 -1.45006)
(-0.536362 -1.58561 -1.55765)
(-0.496931 -1.47656 -1.40805)
(-1.28689 -2.04234 -2.06261)
(-1.29115 -1.95118 -2.02779)
(-1.2102 -1.88957 -1.87915)
(-1.47927 -1.98677 -1.97854)
(-1.39177 -1.8515 -1.79882)
(-2.58007 -2.41338 -2.40206)
(-2.57039 -2.29667 -2.37094)
(-2.42513 -2.23648 -2.20969)
(-2.78396 -2.29671 -2.25103)
(-2.62136 -2.15087 -2.071)
(-4.20653 -2.52814 -2.34359)
(-4.16752 -2.40189 -2.33066)
(-3.95306 -2.36449 -2.20402)
(-4.35644 -2.33874 -2.11641)
(-4.10778 -2.21941 -1.99888)
(-5.81579 -2.16676 -1.59366)
(-5.74121 -2.06855 -1.62002)
(-5.49739 -2.08098 -1.59443)
(-5.82102 -1.93146 -1.33277)
(-5.52904 -1.89003 -1.35622)
(-6.74323 -1.26643 -0.14593)
(-6.65567 -1.2408 -0.225296)
(-6.47525 -1.31249 -0.335695)
(-6.55925 -1.06377 0.041397)
(-6.33316 -1.12881 -0.153969)
(1.19981 -0.0042016 -0.0560976)
(1.19923 -0.00418723 -0.0496612)
(1.19971 -0.0125926 -0.0493453)
(1.19959 -0.00416995 -0.0426846)