/*--------------------------------*- C++ -*----------------------------------*\
| =========                 |                                                 |
| \\      /  F ield         | OpenFOAM: The Open Source CFD Toolbox           |
|  \\    /   O peration     | Version:  2012                                  |
|   \\  /    A nd           | Website:  www.openfoam.com                      |
|    \\/     M anipulation  |                                                 |
\*---------------------------------------------------------------------------*/
FoamFile
{
    version     2.0;
    format      ascii;
    class       surfaceVectorField;
    location    "0.108/fluid";
    object      Uf_0;
}
// * * * * * * * * * * * * * * * * * * * * * * * * * * * * * * * * * * * * * //

dimensions      [0 1 -1 0 0 0 0];


internalField   nonuniform List<vector> 
47156
(
(1.19996 2.39975e-05 2.98971e-05)
(1.19997 4.1072e-05 3.67711e-05)
(1.19997 2.80243e-05 3.01223e-05)
(1.19996 2.40678e-05 3.01288e-05)
(1.19974 7.02903e-05 0.000124319)
(1.19978 7.39148e-05 0.000107404)
(1.19972 6.44897e-05 0.00013835)
(1.19993 6.71429e-05 0.00012559)
(1.19974 7.0642e-05 0.000125085)
(1.19934 4.25538e-05 0.000174642)
(1.19957 4.35884e-05 0.000173433)
(1.19952 4.20455e-05 0.000181395)
(1.19965 4.73717e-05 0.000176729)
(1.19935 4.27445e-05 0.000177332)
(1.1993 3.99473e-05 0.000235314)
(1.19938 4.00318e-05 0.000227791)
(1.19933 3.98661e-05 0.000248853)
(1.19971 5.19846e-05 0.000237608)
(1.19932 3.9925e-05 0.000238639)
(1.1991 4.07115e-05 0.000344401)
(1.19915 4.04412e-05 0.000331473)
(1.19909 4.07044e-05 0.000367011)
(1.1996 6.19467e-05 0.00034762)
(1.19914 4.03746e-05 0.000350331)
(1.19881 4.48581e-05 0.000526711)
(1.19888 4.3656e-05 0.000504244)
(1.1988 4.59209e-05 0.000562622)
(1.19939 7.86453e-05 0.000531065)
(1.19887 4.443e-05 0.000534317)
(1.19841 5.94572e-05 0.000827588)
(1.19851 5.65281e-05 0.000789123)
(1.1984 6.13908e-05 0.000885505)
(1.19907 0.000112983 0.000832571)
(1.19851 5.81324e-05 0.000837819)
(1.19781 8.68736e-05 0.00132236)
(1.19798 8.1196e-05 0.00125733)
(1.1978 9.02424e-05 0.00141508)
(1.1986 0.000171229 0.00132703)
(1.19798 8.38009e-05 0.00133494)
(1.1969 0.000137167 0.00213772)
(1.19717 0.000126497 0.00202449)
(1.1969 0.000143535 0.00228401)
(1.19787 0.00027281 0.00213775)
(1.19718 0.000131225 0.00214603)
(1.19546 0.00024804 0.00349123)
(1.1959 0.000222682 0.00329019)
(1.19547 0.000264103 0.00371892)
(1.19676 0.00047322 0.00347069)
(1.19593 0.000233632 0.00347808)
(1.19295 0.000551682 0.00573357)
(1.19372 0.000480447 0.00537576)
(1.19291 0.000604995 0.00607618)
(1.19498 0.000942376 0.00565338)
(1.19374 0.000515173 0.00565784)
(1.18768 0.00155062 0.00933102)
(1.18921 0.00132006 0.00872921)
(1.18726 0.00176561 0.00982048)
(1.19182 0.00227261 0.00911348)
(1.18899 0.0014546 0.00914137)
(1.17281 0.00554361 0.014532)
(1.17662 0.00463453 0.0137522)
(1.17007 0.00656058 0.0152612)
(1.18442 0.00711132 0.0141139)
(1.17485 0.00526319 0.0144377)
(1.11397 0.0233367 0.0200241)
(1.12744 0.0194735 0.0200402)
(1.0982 0.0282404 0.0215062)
(1.15759 0.0294999 0.0199879)
(1.11697 0.0225679 0.0218273)
(0.837861 0.0853366 0.0177897)
(0.890502 0.0790416 0.022175)
(1.02423 0.1369 0.0219608)
(0.840027 0.0841098 0.0254295)
(0.961702 0.207236 0.0348852)
(0.54851 0.0879226 0.0130513)
(0.961926 0.20777 0.0153921)
(0.549005 0.0876515 0.00816211)
(1.19998 1.03984e-05 2.96016e-05)
(1.19998 1.12365e-05 2.98293e-05)
(1.2 1.22699e-05 3.65293e-05)
(1.19998 1.4307e-05 2.96518e-05)
(1.19998 1.02226e-05 2.99087e-05)
(1.19998 4.42983e-05 0.000124941)
(1.19998 5.29102e-05 0.000125908)
(1.19999 3.73254e-05 0.000108072)
(1.19999 5.07782e-05 0.000138748)
(1.19998 5.88836e-05 0.00012561)
(1.19998 4.3706e-05 0.000125806)
(1.19973 8.07445e-05 0.000172541)
(1.19973 7.88089e-05 0.000174842)
(1.19995 7.72434e-05 0.000171378)
(1.19993 8.37317e-05 0.000179167)
(1.19973 9.5124e-05 0.000173724)
(1.19974 7.9649e-05 0.00017515)
(1.1998 0.000117665 0.000230993)
(1.1998 0.000109995 0.000234288)
(1.19986 0.000111224 0.000223829)
(1.19984 0.000122714 0.00024407)
(1.19981 0.000133196 0.000232306)
(1.19982 0.000115673 0.000234522)
(1.19971 0.000175008 0.000335958)
(1.19972 0.000159578 0.00034114)
(1.19975 0.000165069 0.000323452)
(1.19971 0.00018222 0.000357548)
(1.19973 0.00019389 0.000337512)
(1.19975 0.000171364 0.000341465)
(1.19952 0.000262055 0.000511739)
(1.19954 0.000235452 0.000519601)
(1.19958 0.000246221 0.000490054)
(1.19952 0.000272771 0.000546412)
(1.19956 0.000286814 0.000512959)
(1.19958 0.000255386 0.000519205)
(1.19923 0.000399253 0.000799464)
(1.19926 0.000356286 0.000811599)
(1.19932 0.000373333 0.000763059)
(1.19924 0.000415465 0.000854515)
(1.19931 0.000433366 0.000799377)
(1.19933 0.000386987 0.000809272)
(1.1988 0.000621073 0.00126674)
(1.19885 0.000551623 0.00128585)
(1.19894 0.000577222 0.00120565)
(1.19882 0.000646053 0.0013542)
(1.19892 0.000669586 0.00126267)
(1.19896 0.000597828 0.00127884)
(1.19816 0.000991858 0.00202773)
(1.19823 0.000878057 0.00205696)
(1.19837 0.000914924 0.00192369)
(1.19819 0.00103131 0.00216383)
(1.19836 0.00106175 0.00201182)
(1.19841 0.000946627 0.00203724)
(1.1972 0.00163815 0.00326364)
(1.19731 0.00145008 0.00330587)
(1.19754 0.00149725 0.00308334)
(1.19728 0.00170387 0.00347009)
(1.19754 0.00173753 0.00321627)
(1.19762 0.00154841 0.00325469)
(1.19586 0.00282847 0.00524628)
(1.19599 0.00252398 0.00530501)
(1.19636 0.00255686 0.0049361)
(1.196 0.00294936 0.00554224)
(1.19642 0.00297093 0.0051236)
(1.19651 0.00264683 0.00518204)
(1.19409 0.0052224 0.00825907)
(1.1942 0.00479361 0.0083475)
(1.19478 0.00466027 0.0077607)
(1.19433 0.00549002 0.00863277)
(1.19509 0.00545168 0.00797697)
(1.19503 0.00485131 0.00808112)
(1.19231 0.0106575 0.012128)
(1.19202 0.0104871 0.0123497)
(1.19299 0.00938708 0.0115207)
(1.19265 0.0114297 0.012494)
(1.19421 0.0110853 0.0116049)
(1.19336 0.0099106 0.0118908)
(1.19152 0.0276832 0.0156803)
(1.19436 0.0251269 0.0148226)
(1.19358 0.0219337 0.0147645)
(1.19561 0.0277088 0.015036)
(1.19466 0.0236872 0.0152078)
(1.19772 0.0251223 0.0142516)
(1.21899 0.0738763 0.0130584)
(1.22765 0.0595014 0.0108335)
(1.21844 0.0535248 0.0126435)
(1.23658 0.0617193 0.0102457)
(1.22509 0.0570906 0.0131896)
(1.22813 0.0520422 0.0106903)
(1.19998 1.95588e-05 2.86132e-05)
(1.19998 1.86564e-05 2.89213e-05)
(1.2 2.40232e-05 3.55199e-05)
(1.19998 2.01893e-05 2.86143e-05)
(1.19998 1.92534e-05 2.89273e-05)
(1.19997 8.27497e-05 0.000122923)
(1.19997 7.98522e-05 0.000124063)
(1.19999 7.06547e-05 0.000106391)
(1.19998 9.31215e-05 0.000136353)
(1.19998 8.56821e-05 0.000123275)
(1.19998 8.17305e-05 0.000123874)
(1.19974 0.00013998 0.000167062)
(1.19974 0.000134099 0.000169569)
(1.19995 0.000134325 0.000166354)
(1.19994 0.000144991 0.000173281)
(1.19975 0.000143947 0.000167892)
(1.19975 0.000138318 0.000169811)
(1.19984 0.000199434 0.000220496)
(1.19984 0.000190265 0.000224334)
(1.1999 0.000189182 0.000214112)
(1.19988 0.000207424 0.000232704)
(1.19986 0.000204496 0.000221108)
(1.19986 0.000196198 0.000224074)
(1.19979 0.000291827 0.000317317)
(1.1998 0.000277926 0.000323223)
(1.19982 0.000275696 0.000305789)
(1.1998 0.000303614 0.000336996)
(1.19982 0.000298621 0.000317401)
(1.19983 0.000285986 0.000322113)
(1.19967 0.000433363 0.000476956)
(1.19968 0.000411823 0.000486559)
(1.19971 0.000407676 0.000457474)
(1.19968 0.000450846 0.000508443)
(1.19972 0.000442267 0.000475938)
(1.19973 0.000422706 0.000483903)
(1.19948 0.000654418 0.000734224)
(1.19949 0.000620369 0.000750119)
(1.19955 0.000612775 0.000702362)
(1.1995 0.000680038 0.000783386)
(1.19957 0.000665379 0.00073029)
(1.19957 0.000634535 0.000743775)
(1.19921 0.00100479 0.00114331)
(1.19923 0.00095074 0.00116954)
(1.19932 0.000935793 0.00109103)
(1.19924 0.00104321 0.00121968)
(1.19934 0.00101698 0.0011327)
(1.19935 0.000967867 0.00115519)
(1.19883 0.00156846 0.00179172)
(1.19885 0.00148327 0.00183446)
(1.19899 0.00145295 0.00170565)
(1.19889 0.00162481 0.00190709)
(1.19904 0.00157613 0.0017655)
(1.19905 0.00149938 0.00180245)
(1.19836 0.00247613 0.00280316)
(1.19837 0.00234493 0.00287226)
(1.19858 0.00228061 0.00266144)
(1.19847 0.00255717 0.00297169)
(1.19868 0.00246239 0.00274229)
(1.19869 0.00234598 0.00280247)
(1.19789 0.00395238 0.00434248)
(1.19789 0.00376398 0.00445311)
(1.19817 0.00361885 0.00411394)
(1.19811 0.00406587 0.00457211)
(1.19838 0.0038715 0.00421111)
(1.19838 0.00371011 0.00430699)
(1.1979 0.00630035 0.00652706)
(1.19783 0.00609848 0.00669773)
(1.19816 0.00575393 0.00618541)
(1.19832 0.00644434 0.00679272)
(1.19858 0.00603197 0.00627216)
(1.19855 0.0058743 0.0064156)
(1.19984 0.00963774 0.00908221)
(1.19959 0.00972148 0.00934049)
(1.19973 0.00887235 0.00869329)
(1.20069 0.00974987 0.00928973)
(1.20053 0.00887814 0.00870362)
(1.20048 0.00900015 0.00890269)
(1.20795 0.0123503 0.0105137)
(1.20732 0.0141232 0.010918)
(1.2064 0.0118763 0.01047)
(1.20976 0.0120733 0.010444)
(1.20754 0.0104996 0.0103889)
(1.20794 0.0118219 0.0105384)
(1.23119 0.00851939 0.00697725)
(1.22946 0.0140831 0.00712404)
(1.2262 0.0095603 0.00765501)
(1.23364 0.00778806 0.00546389)
(1.22754 0.00536485 0.00743972)
(1.22887 0.0088369 0.0076998)
(1.19998 2.33533e-05 2.72166e-05)
(1.19998 2.30133e-05 2.75627e-05)
(1.2 2.82841e-05 3.39881e-05)
(1.19998 2.29801e-05 2.75151e-05)
(1.19998 9.89628e-05 0.000119145)
(1.19998 9.74695e-05 0.000120351)
(1.2 8.39455e-05 0.000103055)
(1.2 0.000111675 0.000131859)
(1.19998 9.77582e-05 0.000119793)
(1.19977 0.000165268 0.000159671)
(1.19977 0.00016263 0.000162399)
(1.19998 0.000159077 0.000159438)
(1.19998 0.000170784 0.000165418)
(1.19978 0.000163356 0.000162669)
(1.19991 0.000233741 0.000206353)
(1.19991 0.000230038 0.000210332)
(1.19996 0.000221685 0.000200919)
(1.19996 0.000243131 0.000217111)
(1.19992 0.00022988 0.000209584)
(1.19991 0.000342327 0.000291763)
(1.19991 0.000336205 0.000297974)
(1.19994 0.000323323 0.000281683)
(1.19993 0.000356131 0.000308991)
(1.19995 0.000335427 0.000296022)
(1.19987 0.000507335 0.000430116)
(1.19987 0.000497177 0.000440441)
(1.1999 0.000477555 0.000413461)
(1.19989 0.000527374 0.000457537)
(1.19992 0.000494901 0.000436429)
(1.19981 0.000760402 0.000647576)
(1.1998 0.000743804 0.000664885)
(1.19985 0.000712886 0.000621656)
(1.19984 0.000789389 0.000689131)
(1.19988 0.000737609 0.000656759)
(1.19972 0.00115267 0.000984764)
(1.19972 0.00112633 0.00101302)
(1.19979 0.00107626 0.000942856)
(1.19977 0.00119419 0.00104759)
(1.19984 0.0011115 0.00099587)
(1.19964 0.00175105 0.00149993)
(1.19962 0.00171055 0.00154607)
(1.19973 0.0016299 0.00143443)
(1.19972 0.00180722 0.00159129)
(1.19981 0.00167723 0.00151149)
(1.1996 0.00264799 0.0022642)
(1.19958 0.00258786 0.0023396)
(1.19972 0.00245669 0.00216341)
(1.19973 0.00271786 0.00239276)
(1.19985 0.00251545 0.0022716)
(1.19972 0.00394321 0.00337295)
(1.1997 0.00386267 0.00349215)
(1.19986 0.0036525 0.00321947)
(1.19995 0.00401422 0.00354598)
(1.20008 0.00371442 0.00336506)
(1.20026 0.00559975 0.00491364)
(1.20027 0.00551225 0.00508812)
(1.20039 0.0052083 0.00469135)
(1.20062 0.00561648 0.00513037)
(1.20074 0.00523683 0.00487289)
(1.20134 0.00693419 0.00693897)
(1.2016 0.00688831 0.00716724)
(1.2015 0.00660134 0.00665472)
(1.20182 0.00670459 0.00725568)
(1.202 0.0064833 0.00691009)
(1.20147 0.0039396 0.00985172)
(1.20284 0.00428322 0.0101777)
(1.20221 0.00476713 0.00962861)
(1.20171 0.00230171 0.010786)
(1.20272 0.00401596 0.0103392)
(1.1934 -0.0452828 0.0153011)
(1.20478 -0.0308314 0.0153314)
(1.19588 -0.0300277 0.0164218)
(1.19321 -0.0616328 0.0185525)
(1.19611 -0.0382154 0.0221055)
(1.19996 2.44896e-05 2.85586e-05)
(1.19997 4.19757e-05 3.35242e-05)
(1.19997 2.8598e-05 2.81859e-05)
(1.19996 2.46349e-05 2.73854e-05)
(1.19974 7.17156e-05 0.000117949)
(1.19979 7.53918e-05 9.84397e-05)
(1.19973 6.57894e-05 0.000128841)
(1.19994 6.79929e-05 0.00011606)
(1.19975 7.20587e-05 0.000112438)
(1.19937 4.30909e-05 0.000171424)
(1.1996 4.41876e-05 0.000165352)
(1.19957 4.24511e-05 0.000173777)
(1.1997 4.70975e-05 0.000168819)
(1.19938 4.32097e-05 0.000165003)
(1.19938 3.95575e-05 0.000231963)
(1.19945 3.97879e-05 0.000218814)
(1.19941 3.92577e-05 0.000239219)
(1.1998 5.01355e-05 0.000228119)
(1.1994 3.93923e-05 0.000223734)
(1.19925 3.95345e-05 0.000340144)
(1.19929 3.93274e-05 0.000319013)
(1.19925 3.96881e-05 0.000352864)
(1.19975 5.83221e-05 0.000334751)
(1.19928 3.93858e-05 0.000328224)
(1.19905 4.34272e-05 0.000517517)
(1.19911 4.25351e-05 0.000483389)
(1.19905 4.42758e-05 0.000538824)
(1.19964 7.31702e-05 0.000509136)
(1.19911 4.31759e-05 0.000499269)
(1.1988 5.42671e-05 0.000807307)
(1.19888 5.1984e-05 0.000751764)
(1.19881 5.54726e-05 0.000841531)
(1.19948 0.000100368 0.000792241)
(1.19889 5.29877e-05 0.0007774)
(1.19847 7.46693e-05 0.00127432)
(1.19859 7.00861e-05 0.0011839)
(1.1985 7.7147e-05 0.00132765)
(1.19925 0.000145351 0.00124789)
(1.19862 7.20327e-05 0.00122367)
(1.19799 0.00011351 0.00202267)
(1.19818 0.000104969 0.00187532)
(1.19805 0.000117057 0.00210488)
(1.19893 0.000223477 0.00197506)
(1.19824 0.000107619 0.00193582)
(1.19727 0.000191577 0.00322431)
(1.19758 0.000172174 0.00298196)
(1.19738 0.000200925 0.00335157)
(1.19846 0.000366264 0.00313692)
(1.19768 0.000178384 0.00307456)
(1.19599 0.000403008 0.00516927)
(1.19653 0.000348149 0.00477217)
(1.19612 0.000432689 0.00537629)
(1.19772 0.00068947 0.00500131)
(1.19668 0.000365618 0.00491988)
(1.19291 0.00111406 0.00840553)
(1.19407 0.000923972 0.00775778)
(1.19292 0.00123171 0.00881478)
(1.19621 0.00160045 0.00806197)
(1.19421 0.000987453 0.00804286)
(1.18271 0.00401609 0.0145216)
(1.18614 0.00321327 0.013424)
(1.1818 0.00455333 0.015769)
(1.19187 0.0049057 0.0136757)
(1.18589 0.00347402 0.0142641)
(1.13808 0.017622 0.0305656)
(1.1524 0.0137793 0.0285707)
(1.13137 0.0202995 0.0365608)
(1.17399 0.0205574 0.0280012)
(1.15013 0.0148352 0.0325362)
(0.892124 0.0680549 0.0856865)
(0.961416 0.0595694 0.0896035)
(1.0634 0.101919 0.0867325)
(0.954493 0.0526281 0.118193)
(1.06601 0.171953 0.167358)
(0.604823 0.082867 0.0746457)
(1.04541 0.183909 0.126579)
(0.627866 0.0765732 0.0877004)
(1.19998 9.69955e-06 2.8639e-05)
(1.19998 1.06366e-05 2.81191e-05)
(1.2 1.14926e-05 3.38413e-05)
(1.19998 1.36483e-05 2.79567e-05)
(1.19998 9.53897e-06 2.74387e-05)
(1.19999 4.19202e-05 0.000118106)
(1.19999 5.11404e-05 0.000115864)
(1.2 3.52069e-05 9.87806e-05)
(1.2 4.81936e-05 0.000128525)
(1.19999 5.6414e-05 0.000115519)
(1.19999 4.12843e-05 0.000112361)
(1.19977 7.69729e-05 0.00017023)
(1.19978 7.58461e-05 0.000167996)
(1.19999 7.38609e-05 0.0001643)
(1.19998 7.98429e-05 0.000172587)
(1.19978 9.13666e-05 0.000167302)
(1.19979 7.62957e-05 0.000164038)
(1.19989 0.00010989 0.000227589)
(1.19989 0.000103179 0.00022502)
(1.19995 0.000104216 0.000215202)
(1.19994 0.000114276 0.000234459)
(1.1999 0.000124994 0.000223257)
(1.19991 0.000108119 0.000219801)
(1.19986 0.000160216 0.000332027)
(1.19987 0.000146436 0.000328606)
(1.19989 0.000151321 0.000311423)
(1.19987 0.000166148 0.000344413)
(1.19988 0.000177743 0.000324993)
(1.19989 0.000156589 0.000320419)
(1.19976 0.000235281 0.00050346)
(1.19978 0.000211643 0.000498659)
(1.1998 0.000221222 0.000470718)
(1.19978 0.000243966 0.000523782)
(1.1998 0.000257801 0.000492231)
(1.19982 0.000228829 0.000485782)
(1.19962 0.000350372 0.000778983)
(1.19965 0.000312301 0.000771379)
(1.19968 0.000328174 0.000726074)
(1.19965 0.000362627 0.000811126)
(1.19969 0.000380443 0.000759825)
(1.19971 0.000338781 0.000750075)
(1.19942 0.000529184 0.00122109)
(1.19947 0.000468917 0.00120916)
(1.19952 0.000492596 0.00113541)
(1.19947 0.000546788 0.0012709)
(1.19953 0.000569751 0.00118755)
(1.19957 0.00050752 0.00117264)
(1.19915 0.000816323 0.00192191)
(1.19923 0.000720556 0.00190256)
(1.1993 0.00075439 0.00178362)
(1.19924 0.000842297 0.00199716)
(1.19932 0.00087196 0.00186226)
(1.19938 0.000775948 0.00183929)
(1.19879 0.00129387 0.00302229)
(1.1989 0.00113959 0.00299361)
(1.19902 0.00118473 0.00280104)
(1.19893 0.00133324 0.00313412)
(1.19907 0.00136825 0.00291565)
(1.19915 0.00121582 0.00288268)
(1.19832 0.00213892 0.00473229)
(1.19847 0.001893 0.00469589)
(1.19865 0.00193427 0.00438261)
(1.19855 0.00220667 0.0048969)
(1.19877 0.002236 0.00454038)
(1.19887 0.00198326 0.0045009)
(1.1977 0.00380277 0.00734192)
(1.19787 0.00344423 0.00732754)
(1.19819 0.00338006 0.00681234)
(1.19805 0.00394544 0.00759912)
(1.19849 0.00393946 0.00699668)
(1.19854 0.00347155 0.00699466)
(1.19691 0.00759745 0.0112728)
(1.19703 0.00730897 0.0114351)
(1.19761 0.00659037 0.0105438)
(1.1975 0.00797091 0.0117642)
(1.19852 0.00780182 0.010633)
(1.19822 0.00679362 0.0108943)
(1.19712 0.0189912 0.0181752)
(1.198 0.0178644 0.0170148)
(1.19831 0.015008 0.016307)
(1.19967 0.0188524 0.0180825)
(1.19991 0.0154275 0.0171115)
(1.20125 0.0174326 0.0157537)
(1.21545 0.0514668 0.0271948)
(1.22075 0.0431411 0.0214911)
(1.21515 0.0362879 0.0225209)
(1.2277 0.0421335 0.0223292)
(1.22057 0.0352847 0.0235169)
(1.22199 0.0359714 0.0194346)
(1.19998 1.83481e-05 2.77121e-05)
(1.19998 1.75013e-05 2.7284e-05)
(1.2 2.26689e-05 3.29071e-05)
(1.19998 1.89261e-05 2.6994e-05)
(1.19998 1.80596e-05 2.65761e-05)
(1.19999 7.87402e-05 0.0001165)
(1.19999 7.61172e-05 0.000114185)
(1.2 6.70606e-05 9.73594e-05)
(1.2 8.89575e-05 0.000126596)
(1.19999 8.15802e-05 0.000113489)
(1.19999 7.77488e-05 0.000110723)
(1.19978 0.000133619 0.000166072)
(1.19979 0.000128168 0.000164335)
(1.2 0.000128613 0.000160735)
(1.19999 0.000138091 0.000168252)
(1.19979 0.000137514 0.00016299)
(1.1998 0.000132293 0.000160423)
(1.19992 0.000186673 0.000218047)
(1.19993 0.000178165 0.00021622)
(1.19998 0.000177485 0.000206752)
(1.19997 0.000193606 0.000224108)
(1.19994 0.000191315 0.000213258)
(1.19994 0.000183703 0.000210718)
(1.19993 0.000267957 0.000312227)
(1.19994 0.000254722 0.000310203)
(1.19996 0.000253396 0.000293358)
(1.19995 0.000277741 0.000323243)
(1.19996 0.000273982 0.000304342)
(1.19996 0.00026208 0.000301245)
(1.19989 0.000390452 0.00046867)
(1.1999 0.000370517 0.000466308)
(1.19992 0.000367697 0.000438496)
(1.19991 0.000404496 0.000486797)
(1.19994 0.000397836 0.000455898)
(1.19994 0.000380013 0.000451974)
(1.19983 0.000576102 0.000716781)
(1.19984 0.000545417 0.000713781)
(1.19988 0.000540369 0.000669082)
(1.19987 0.000595895 0.000744933)
(1.1999 0.000585089 0.000695317)
(1.19991 0.000557594 0.000689987)
(1.19976 0.000859999 0.00110571)
(1.19978 0.000811815 0.00110265)
(1.19983 0.000802436 0.00103054)
(1.19982 0.000887633 0.00114847)
(1.19987 0.000869065 0.0010689)
(1.19988 0.000826179 0.00106235)
(1.19968 0.00129907 0.0017055)
(1.19971 0.001224 0.00170317)
(1.19978 0.00120557 0.0015877)
(1.19977 0.00133593 0.00176775)
(1.19985 0.00130357 0.00164134)
(1.19987 0.00123714 0.00163373)
(1.19964 0.00197552 0.00261455)
(1.19968 0.00186193 0.00261602)
(1.19978 0.00182232 0.00243234)
(1.1998 0.00202335 0.00270158)
(1.1999 0.00196126 0.0025027)
(1.19993 0.00186205 0.00249594)
(1.19977 0.00303438 0.00395389)
(1.19981 0.00287134 0.00396757)
(1.19994 0.00278033 0.00367952)
(1.20003 0.0030945 0.0040671)
(1.20015 0.00296696 0.00376168)
(1.20018 0.0028283 0.00376073)
(1.20039 0.00469134 0.00581367)
(1.2004 0.00449876 0.00586469)
(1.20054 0.00427441 0.00542702)
(1.20083 0.00475991 0.0059445)
(1.20092 0.00448137 0.00549869)
(1.20095 0.00432508 0.00551801)
(1.20244 0.00716744 0.00811404)
(1.20234 0.00710331 0.00826318)
(1.20238 0.0065281 0.00764037)
(1.20323 0.00721249 0.00822181)
(1.20308 0.00659221 0.00764927)
(1.20308 0.00655315 0.00771041)
(1.20856 0.00999311 0.010067)
(1.20822 0.0107108 0.0104138)
(1.20763 0.00929083 0.00969991)
(1.20999 0.00982343 0.00994148)
(1.2088 0.00865002 0.00956398)
(1.20883 0.00914361 0.0096006)
(1.22357 0.0094268 0.00809319)
(1.22291 0.0120792 0.00884983)
(1.22064 0.00960884 0.00858176)
(1.22506 0.00849992 0.00698492)
(1.22174 0.00770692 0.00820283)
(1.22188 0.00878139 0.00772545)
(1.19998 2.18495e-05 2.63457e-05)
(1.19998 2.15233e-05 2.59931e-05)
(1.2 2.66135e-05 3.14559e-05)
(1.19998 2.14856e-05 2.52624e-05)
(1.19999 9.34774e-05 0.000112324)
(1.19999 9.20685e-05 0.000110361)
(1.20001 7.9171e-05 9.37899e-05)
(1.20001 0.000105558 0.000122258)
(1.2 9.22721e-05 0.000106831)
(1.19981 0.000158225 0.000159672)
(1.19981 0.000155749 0.000158282)
(1.20002 0.000152301 0.000154973)
(1.20003 0.00016324 0.000161232)
(1.19982 0.000156396 0.000154237)
(1.19998 0.000218244 0.000204294)
(1.19998 0.000214754 0.000203204)
(1.20004 0.000207574 0.000194461)
(1.20004 0.000226405 0.000209483)
(1.2 0.000214695 0.000197789)
(1.20004 0.000314795 0.000286642)
(1.20004 0.000308968 0.000285315)
(1.20005 0.000297783 0.000269769)
(1.20006 0.000326363 0.00029598)
(1.20007 0.00030822 0.000276278)
(1.20006 0.000457494 0.000422009)
(1.20006 0.000447538 0.000421365)
(1.20008 0.000431024 0.000395825)
(1.20009 0.000473802 0.000437206)
(1.20011 0.00044546 0.000407075)
(1.2001 0.000670458 0.000634511)
(1.2001 0.000654916 0.00063448)
(1.20013 0.000629678 0.000593368)
(1.20014 0.000692797 0.000657817)
(1.20017 0.00064923 0.000610651)
(1.20017 0.00098969 0.000955474)
(1.20017 0.000964597 0.000958261)
(1.20021 0.000925341 0.000893852)
(1.20024 0.00101954 0.000989489)
(1.20027 0.000951535 0.000918918)
(1.2003 0.00146188 0.00143664)
(1.2003 0.00142322 0.00144372)
(1.20035 0.00136215 0.00134238)
(1.20041 0.00149894 0.00148431)
(1.20045 0.00139476 0.00137763)
(1.20056 0.00213809 0.00213528)
(1.20057 0.00208084 0.00215117)
(1.20063 0.00198687 0.00199569)
(1.20073 0.00217812 0.00219857)
(1.20078 0.00202222 0.00204137)
(1.20108 0.00307148 0.00311919)
(1.2011 0.00299408 0.00315007)
(1.20115 0.00284738 0.00291698)
(1.20134 0.00310216 0.0031955)
(1.20139 0.0028762 0.00297003)
(1.2021 0.00423509 0.00444935)
(1.20215 0.00415066 0.00449647)
(1.20214 0.00393516 0.00416265)
(1.2025 0.00422104 0.00453262)
(1.20251 0.00393051 0.00421409)
(1.20397 0.00526431 0.00624874)
(1.20418 0.00522959 0.00625928)
(1.20396 0.00497286 0.00582167)
(1.20461 0.00512769 0.00633119)
(1.20453 0.00487802 0.00584743)
(1.20743 0.00463362 0.00914429)
(1.20815 0.00496616 0.0087345)
(1.20736 0.0048365 0.00825947)
(1.20873 0.00431487 0.00909088)
(1.20834 0.00457709 0.00809978)
(1.21783 -0.00217962 0.0143678)
(1.2185 0.000723033 0.0115358)
(1.21637 0.00090399 0.0118553)
(1.22099 -0.000406552 0.0117854)
(1.21778 0.000853839 0.00991962)
(1.19996 2.48634e-05 2.17173e-05)
(1.19998 4.26278e-05 2.27301e-05)
(1.19997 2.8877e-05 2.0138e-05)
(1.19996 2.49371e-05 1.90017e-05)
(1.19975 7.29977e-05 8.6692e-05)
(1.1998 7.66907e-05 6.77516e-05)
(1.19974 6.69648e-05 9.12806e-05)
(1.19996 6.84243e-05 8.08408e-05)
(1.19976 7.31187e-05 7.50941e-05)
(1.19941 4.366e-05 0.000132877)
(1.19964 4.48146e-05 0.000122873)
(1.19961 4.3061e-05 0.000130358)
(1.19974 4.71008e-05 0.000126343)
(1.19942 4.3896e-05 0.000118558)
(1.19945 3.93115e-05 0.000183237)
(1.19952 3.98655e-05 0.000166904)
(1.19949 3.89771e-05 0.000183074)
(1.19988 4.90936e-05 0.00017471)
(1.19946 3.94478e-05 0.00016498)
(1.19937 3.88687e-05 0.000270002)
(1.1994 3.86038e-05 0.000245289)
(1.19938 3.8922e-05 0.000271203)
(1.19988 5.5517e-05 0.000257234)
(1.1994 3.86956e-05 0.00024371)
(1.19926 4.20742e-05 0.000410293)
(1.1993 4.12516e-05 0.000371443)
(1.19927 4.25691e-05 0.000413254)
(1.19985 6.82044e-05 0.00039043)
(1.1993 4.1551e-05 0.00037017)
(1.19914 4.98642e-05 0.000634639)
(1.19919 4.82638e-05 0.000572897)
(1.19917 5.07035e-05 0.000639944)
(1.19982 8.93453e-05 0.000603299)
(1.19921 4.90025e-05 0.000571775)
(1.19903 6.46665e-05 0.000992929)
(1.1991 6.11591e-05 0.000894867)
(1.19908 6.62235e-05 0.00100103)
(1.19979 0.000123693 0.000941774)
(1.19914 6.23882e-05 0.000893044)
(1.19891 9.20992e-05 0.00155829)
(1.19901 8.58981e-05 0.00140253)
(1.19899 9.4233e-05 0.00157024)
(1.19979 0.000181526 0.0014754)
(1.19909 8.771e-05 0.00139878)
(1.19876 0.000142805 0.00245682)
(1.19893 0.000129672 0.00220799)
(1.19891 0.000147141 0.00247624)
(1.19983 0.000278452 0.00231984)
(1.19906 0.000132821 0.00220152)
(1.19852 0.000263004 0.00391655)
(1.19882 0.000228798 0.00351155)
(1.19876 0.000272622 0.00395628)
(1.19994 0.000469468 0.00367744)
(1.19904 0.000234298 0.0035048)
(1.19779 0.000622571 0.00644405)
(1.19842 0.000509174 0.00574365)
(1.19819 0.000647285 0.00655331)
(1.20008 0.000934563 0.00596513)
(1.19879 0.000520492 0.00575287)
(1.19513 0.00185188 0.0115772)
(1.19681 0.00142277 0.0101207)
(1.196 0.0018785 0.0119101)
(1.20017 0.00226573 0.0102853)
(1.19757 0.00142317 0.010182)
(1.18706 0.0060198 0.025252)
(1.19216 0.00430952 0.0208195)
(1.1907 0.00556541 0.0256254)
(1.20102 0.00626544 0.0200758)
(1.19456 0.00406278 0.0205402)
(1.18493 0.0147173 0.0675859)
(1.1965 0.00939866 0.0469654)
(1.21043 0.00914995 0.0544023)
(1.21943 0.0127642 0.041412)
(1.20237 0.00774006 0.0398482)
(1.19998 9.1397e-06 2.17823e-05)
(1.19998 1.02342e-05 2.01989e-05)
(1.2 1.08698e-05 2.30373e-05)
(1.19998 1.29737e-05 2.01099e-05)
(1.19998 9.05215e-06 1.88874e-05)
(1.20001 3.95807e-05 8.62152e-05)
(1.20001 4.94265e-05 8.01696e-05)
(1.20002 3.32628e-05 6.6992e-05)
(1.20002 4.59476e-05 9.02549e-05)
(1.2 5.43849e-05 7.97994e-05)
(1.20001 3.89885e-05 7.45558e-05)
(1.19982 7.47729e-05 0.000132178)
(1.19982 7.42544e-05 0.000125542)
(1.20003 7.18948e-05 0.000121942)
(1.20003 7.75188e-05 0.000129642)
(1.19982 8.91485e-05 0.000125021)
(1.19983 7.42668e-05 0.000117746)
(1.19997 0.000103704 0.000181222)
(1.19997 9.81022e-05 0.000173318)
(1.20002 9.90106e-05 0.000165519)
(1.20002 0.000107622 0.000180919)
(1.19998 0.000118658 0.00017224)
(1.19998 0.000102621 0.000163539)
(1.19999 0.000146693 0.000263373)
(1.2 0.00013471 0.000252451)
(1.20001 0.000139155 0.000239481)
(1.20001 0.000151889 0.000264315)
(1.20001 0.000163479 0.000249629)
(1.20002 0.000143862 0.000237824)
(1.19998 0.000211494 0.000398258)
(1.19999 0.00019118 0.000381704)
(1.2 0.000199555 0.000360398)
(1.2 0.000219196 0.000400785)
(1.20001 0.000232529 0.000376756)
(1.20002 0.000206529 0.00035904)
(1.19996 0.000307438 0.000612735)
(1.19998 0.000274798 0.00058773)
(1.2 0.000289483 0.000553608)
(1.2 0.0003174 0.000617354)
(1.20001 0.000335014 0.000578835)
(1.20003 0.000298517 0.000552147)
(1.19995 0.000449768 0.000951361)
(1.19999 0.000399247 0.000912635)
(1.20001 0.000421108 0.000858139)
(1.20001 0.000463688 0.000958165)
(1.20004 0.000486176 0.000896609)
(1.20006 0.000433706 0.000855692)
(1.19998 0.000669017 0.00148098)
(1.20004 0.000591043 0.00142165)
(1.20006 0.000622403 0.00133455)
(1.20008 0.000687724 0.00149045)
(1.20011 0.000716717 0.00139195)
(1.20015 0.000639273 0.00132971)
(1.20008 0.00101028 0.00230386)
(1.20017 0.000889073 0.00221452)
(1.20019 0.000932261 0.00207472)
(1.20025 0.00103407 0.00231586)
(1.20028 0.00107044 0.00215749)
(1.20034 0.000953202 0.00206448)
(1.20032 0.00156943 0.00357748)
(1.20045 0.00137862 0.00344906)
(1.20048 0.00142869 0.00321992)
(1.20059 0.00159981 0.00359421)
(1.20064 0.00163846 0.00333307)
(1.20072 0.00145337 0.00320097)
(1.20082 0.00256951 0.00556871)
(1.20101 0.00227201 0.00539527)
(1.20105 0.00229162 0.0050065)
(1.20127 0.00260286 0.00559672)
(1.20135 0.0026337 0.00513989)
(1.20145 0.00231397 0.004974)
(1.20196 0.00452581 0.00877128)
(1.20226 0.00410373 0.008544)
(1.20227 0.00391183 0.00785356)
(1.20279 0.00451575 0.00880176)
(1.20292 0.00453142 0.00791148)
(1.20298 0.00389261 0.0077814)
(1.20572 0.0084615 0.0138101)
(1.20608 0.00799185 0.0135134)
(1.2057 0.00699758 0.0122611)
(1.20748 0.00803092 0.0135164)
(1.20721 0.0080005 0.0117707)
(1.20707 0.00671395 0.0118979)
(1.22006 0.0132233 0.0177596)
(1.22051 0.0121771 0.0173392)
(1.21785 0.0103477 0.0156685)
(1.22344 0.00977101 0.0147602)
(1.21994 0.0104726 0.0132546)
(1.2191 0.00911649 0.0134634)
(1.19998 1.727e-05 2.11838e-05)
(1.19998 1.64934e-05 1.96788e-05)
(1.2 2.15433e-05 2.25392e-05)
(1.19998 1.78378e-05 1.9461e-05)
(1.19998 1.7054e-05 1.82575e-05)
(1.2 7.49233e-05 8.48003e-05)
(1.2 7.27619e-05 7.84765e-05)
(1.20001 6.39598e-05 6.56083e-05)
(1.20002 8.50669e-05 8.83204e-05)
(1.2 7.7818e-05 7.78357e-05)
(1.2 7.40008e-05 7.36679e-05)
(1.19983 0.00012927 0.000129537)
(1.19983 0.0001244 0.000122793)
(1.20004 0.000124758 0.000119176)
(1.20004 0.000133575 0.000126662)
(1.19983 0.00013319 0.000121865)
(1.19984 0.000128362 0.000115122)
(1.2 0.00017593 0.000174589)
(1.20001 0.000168372 0.000167589)
(1.20005 0.000168144 0.000160042)
(1.20006 0.000182139 0.000173843)
(1.20002 0.000180524 0.000165461)
(1.20002 0.000173795 0.000157813)
(1.20006 0.000246113 0.000248086)
(1.20006 0.000234273 0.000238785)
(1.20007 0.000233786 0.000226198)
(1.20008 0.000254828 0.000248606)
(1.20008 0.000252121 0.000234385)
(1.20008 0.000241702 0.00022433)
(1.20008 0.000351661 0.000370279)
(1.20009 0.000334057 0.000356633)
(1.2001 0.000332518 0.000335469)
(1.20011 0.000363794 0.000372061)
(1.20012 0.000359071 0.000348623)
(1.20013 0.000343631 0.000333795)
(1.20013 0.000507446 0.000563108)
(1.20014 0.000480997 0.000543124)
(1.20016 0.000477963 0.000509392)
(1.20017 0.000524086 0.000566214)
(1.20019 0.000516313 0.00052887)
(1.20019 0.000493163 0.000507079)
(1.20022 0.000736314 0.000862408)
(1.20023 0.000696115 0.00083305)
(1.20025 0.0006911 0.000779378)
(1.20029 0.000758292 0.000866908)
(1.20031 0.000745906 0.000807929)
(1.20031 0.000711151 0.00077601)
(1.20038 0.00107354 0.00131795)
(1.2004 0.00101246 0.00127558)
(1.20043 0.00100288 0.00119086)
(1.20049 0.00110055 0.00132272)
(1.20051 0.00108052 0.00123016)
(1.20052 0.00102807 0.00118391)
(1.20068 0.00156378 0.0019978)
(1.20072 0.00147308 0.0019387)
(1.20074 0.00145288 0.0018056)
(1.20085 0.00159398 0.00199962)
(1.20088 0.00155779 0.00185597)
(1.20089 0.00148098 0.00179063)
(1.20127 0.00228382 0.00298447)
(1.20131 0.00215227 0.00290823)
(1.20133 0.00210604 0.00269988)
(1.20154 0.00231074 0.00297664)
(1.20154 0.00224024 0.00275636)
(1.20157 0.00213187 0.00266896)
(1.20241 0.00333519 0.00434994)
(1.20245 0.00315833 0.00426702)
(1.20242 0.00304789 0.00394503)
(1.20283 0.00333792 0.00431198)
(1.20277 0.00319326 0.00398581)
(1.2028 0.00305387 0.00387916)
(1.20471 0.0047836 0.0060321)
(1.20472 0.00458922 0.00597868)
(1.20457 0.00433284 0.00550037)
(1.20538 0.00469239 0.0058975)
(1.20512 0.00440611 0.00546014)