/*--------------------------------*- C++ -*----------------------------------*\
| =========                 |                                                 |
| \\      /  F ield         | OpenFOAM: The Open Source CFD Toolbox           |
|  \\    /   O peration     | Version:  2012                                  |
|   \\  /    A nd           | Website:  www.openfoam.com                      |
|    \\/     M anipulation  |                                                 |
\*---------------------------------------------------------------------------*/
FoamFile
{
    version     2.0;
    format      ascii;
    class       volScalarField::Internal;
    location    "0.108/fluid";
    object      V0;
}
// * * * * * * * * * * * * * * * * * * * * * * * * * * * * * * * * * * * * * //

dimensions      [0 3 0 0 0 0 0];


value           nonuniform List<scalar> 
16422
(
4.25187e-05
4.2518e-05
4.25174e-05
4.25174e-05
4.25177e-05
4.25194e-05
4.25208e-05
4.25225e-05
4.25227e-05
4.25228e-05
4.25215e-05
4.25166e-05
4.25023e-05
4.24597e-05
4.22848e-05
4.25262e-05
4.25245e-05
4.25223e-05
4.25214e-05
4.25184e-05
4.25183e-05
4.25183e-05
4.25172e-05
4.25171e-05
4.25185e-05
4.25194e-05
4.25184e-05
4.25179e-05
4.25229e-05
4.25742e-05
4.25342e-05
4.2531e-05
4.25274e-05
4.25255e-05
4.25215e-05
4.25179e-05
4.25151e-05
4.25129e-05
4.25127e-05
4.25129e-05
4.25149e-05
4.25209e-05
4.25353e-05
4.25648e-05
4.26233e-05
4.25417e-05
4.25373e-05
4.25327e-05
4.25302e-05
4.25263e-05
4.25203e-05
4.25146e-05
4.25123e-05
4.25114e-05
4.25113e-05
4.25128e-05
4.25198e-05
4.25318e-05
4.2555e-05
4.26984e-05
4.25185e-05
4.2517e-05
4.25171e-05
4.25167e-05
4.25178e-05
4.25193e-05
4.25208e-05
4.25217e-05
4.25219e-05
4.25214e-05
4.25192e-05
4.25135e-05
4.24982e-05
4.24531e-05
4.2318e-05
4.25261e-05
4.25231e-05
4.25215e-05
4.25196e-05
4.25183e-05
4.25177e-05
4.25171e-05
4.25155e-05
4.25152e-05
4.25161e-05
4.25167e-05
4.2515e-05
4.25108e-05
4.25037e-05
4.25276e-05
4.25342e-05
4.25294e-05
4.25257e-05
4.25227e-05
4.25202e-05
4.25175e-05
4.25157e-05
4.25123e-05
4.25113e-05
4.25114e-05
4.2511e-05
4.25145e-05
4.25205e-05
4.2528e-05
4.25441e-05
4.2542e-05
4.2536e-05
4.253e-05
4.25264e-05
4.25238e-05
4.25196e-05
4.25129e-05
4.2511e-05
4.25097e-05
4.25091e-05
4.25089e-05
4.25118e-05
4.25181e-05
4.25122e-05
4.24381e-05
4.25186e-05
4.25177e-05
4.25173e-05
4.25168e-05
4.25179e-05
4.25186e-05
4.25194e-05
4.25211e-05
4.2521e-05
4.25201e-05
4.25176e-05
4.2513e-05
4.25026e-05
4.24784e-05
4.24633e-05
4.25256e-05
4.25228e-05
4.25213e-05
4.25188e-05
4.25181e-05
4.25166e-05
4.25158e-05
4.25156e-05
4.25162e-05
4.25148e-05
4.25139e-05
4.25123e-05
4.25076e-05
4.25003e-05
4.25033e-05
4.25338e-05
4.25288e-05
4.25241e-05
4.25218e-05
4.25197e-05
4.25173e-05
4.25154e-05
4.25136e-05
4.25122e-05
4.25122e-05
4.25117e-05
4.25118e-05
4.25109e-05
4.25063e-05
4.25089e-05
4.25417e-05
4.25346e-05
4.25275e-05
4.25244e-05
4.25226e-05
4.25186e-05
4.25148e-05
4.25112e-05
4.25105e-05
4.25089e-05
4.25084e-05
4.25108e-05
4.25091e-05
4.2503e-05
4.24915e-05
4.25184e-05
4.25178e-05
4.25175e-05
4.25174e-05
4.25179e-05
4.2518e-05
4.25192e-05
4.25194e-05
4.25204e-05
4.25194e-05
4.25173e-05
4.2515e-05
4.2512e-05
4.25132e-05
4.25375e-05
4.25249e-05
4.25224e-05
4.25206e-05
4.25197e-05
4.25182e-05
4.25172e-05
4.25166e-05
4.25178e-05
4.25167e-05
4.25139e-05
4.25115e-05
4.25102e-05
4.25102e-05
4.25114e-05
4.25252e-05
4.25328e-05
4.25277e-05
4.25227e-05
4.25216e-05
4.25198e-05
4.25179e-05
4.25171e-05
4.25148e-05
4.25138e-05
4.25114e-05
4.25091e-05
4.25081e-05
4.25068e-05
4.25073e-05
4.25098e-05
4.25416e-05
4.25311e-05
4.25256e-05
4.25241e-05
4.2521e-05
4.25169e-05
4.25168e-05
4.25128e-05
4.25104e-05
4.25087e-05
4.25064e-05
4.25059e-05
4.25053e-05
4.25005e-05
4.24963e-05
4.22815e-05
4.25478e-05
4.26718e-05
4.26236e-05
5.32422e-06
4.25456e-05
4.26718e-05
4.23144e-05
4.25295e-05
4.26858e-05
5.33153e-06
4.24227e-05
4.23839e-05
4.25075e-05
4.26542e-05
4.23844e-05
4.32114e-05
4.24729e-05
4.2495e-05
4.26317e-05
4.27078e-05
4.2601e-05
4.26541e-05
4.25587e-05
4.25923e-05
4.26947e-05
4.2631e-05
4.27161e-05
4.25627e-05
4.26053e-05
4.2484e-05
4.24776e-05
4.26204e-05
4.25212e-05
4.24805e-05
4.25478e-05
4.27276e-05
4.27329e-05
4.24941e-05
4.24851e-05
4.25068e-05
6.46812e-07
6.68628e-07
5.31472e-06
4.25755e-05
4.24085e-05
4.23502e-05
5.31426e-06
5.31562e-06
6.46823e-07
6.68635e-07
5.31502e-06
6.68672e-07
6.46868e-07
5.31634e-06
6.47412e-07
6.69242e-07
6.68694e-07
5.32131e-06
6.4688e-07
5.32093e-06
5.3464e-06
5.3374e-06
4.25151e-05
4.23194e-05
4.23732e-05
5.3159e-06
4.23038e-05
5.31116e-06
5.27421e-06
6.47788e-07
6.69612e-07
6.71037e-07
5.32576e-06
6.5441e-07
6.42772e-07
4.24617e-05
4.23569e-05
4.25094e-05
4.25264e-05
4.25792e-05
4.26516e-05
4.26423e-05
4.27239e-05
4.23581e-05
4.25062e-05
4.25234e-05
4.24544e-05
4.23664e-05
4.24947e-05
4.25058e-05
4.25657e-05
5.24091e-06
4.2418e-05
4.22906e-05
4.25595e-05
4.24225e-05
5.2416e-06
4.26469e-05
4.26314e-05
4.27078e-05
4.25467e-05
4.26225e-05
4.25744e-05
4.26233e-05
4.23618e-05
4.24909e-05
4.24913e-05
4.24674e-05
4.24053e-05
4.24907e-05
4.24761e-05
4.23945e-05
5.25711e-06
4.24206e-05
4.22417e-05
4.26147e-05
4.23537e-05
5.20088e-06
4.25914e-05
4.2554e-05
4.25919e-05
4.24955e-05
4.25147e-05
4.25153e-05
4.25331e-05
4.28188e-05
4.24919e-05
4.25285e-05
4.25332e-05
4.25886e-05
4.2525e-05
4.25474e-05
4.25553e-05
4.22799e-05
5.24077e-06
4.24158e-05
4.24154e-05
4.25565e-05
4.24088e-05
4.26744e-05
5.33142e-06
4.2593e-05
4.25953e-05
4.24089e-05
4.24174e-05
5.33152e-06
4.25928e-05
4.2675e-05
4.24112e-05
5.33234e-06
4.25947e-05
4.25787e-05
4.23004e-05
5.24877e-06
4.24355e-05
4.24294e-05
4.26037e-05
5.24219e-06
4.2431e-05
4.26819e-05
5.34115e-06
4.25978e-05
5.33313e-06
4.25985e-05
4.24573e-05
4.23224e-05
5.34814e-06
4.25686e-05
4.25487e-05
4.24706e-05
5.27444e-06
4.24933e-05
5.26456e-06
5.50288e-06
4.27338e-05
4.26971e-05
5.21274e-06
4.25038e-05
5.22722e-06
5.1489e-08
6.6901e-07
6.46822e-07
6.69016e-07
5.14891e-08
5.42406e-08
6.68636e-07
6.56526e-07
6.56534e-07
5.42406e-08
5.42394e-08
6.68627e-07
6.56518e-07
5.14879e-08
6.46804e-07
6.68997e-07
6.55936e-07
6.5745e-07
6.52194e-07
6.71696e-07
6.71253e-07
6.52617e-07
6.52202e-07
6.71263e-07
6.55931e-07
6.58061e-07
6.57407e-07
6.56363e-07
5.14891e-08
6.69024e-07
6.46829e-07
6.69026e-07
5.14891e-08
5.42406e-08
6.56539e-07
6.68639e-07
5.42406e-08
6.56543e-07
5.42406e-08
6.56593e-07
6.68649e-07
6.56561e-07
5.42408e-08
5.14891e-08
6.69068e-07
6.46844e-07
6.69043e-07
5.14892e-08
5.14897e-08
6.69747e-07
6.46974e-07
6.69262e-07
5.14918e-08
5.42414e-08
6.68854e-07
6.57253e-07
6.56826e-07
5.42445e-08
5.42413e-08
6.56623e-07
6.68779e-07
5.42408e-08
6.56732e-07
5.14896e-08
6.69095e-07
6.46934e-07
5.14893e-08
6.69196e-07
6.62492e-07
6.73547e-07
6.64609e-07
6.70208e-07
6.55884e-07
6.71804e-07
6.75098e-07
6.52713e-07
6.597e-07
6.58141e-07
6.61934e-07
6.56462e-07
6.58591e-07
6.8351e-07
6.78019e-07
6.66034e-07
6.60321e-07
6.49809e-07
6.5907e-07
6.46568e-07
5.14965e-08
6.70117e-07
6.54237e-07
6.72249e-07
5.14929e-08
5.42503e-08
6.57599e-07
6.72289e-07
5.42453e-08
6.58937e-07
7.10832e-07
7.02197e-07
6.97345e-07
5.42147e-08
6.52347e-07
6.73634e-07
7.13101e-07
6.59136e-07
6.12372e-07
5.14795e-08
6.55831e-07
6.61782e-07
7.30155e-07
6.72605e-07
6.19382e-07
4.22353e-05
4.22482e-05
4.24193e-05
4.241e-05
4.2337e-05
4.2414e-05
4.20392e-05
4.22576e-05
4.24603e-05
4.24868e-05
4.24795e-05
4.21958e-05
4.24463e-05
4.24436e-05
6.72475e-07
5.31456e-06
5.32442e-06
5.26928e-06
6.72479e-07
5.31489e-06
5.32452e-06
5.26932e-06
5.3245e-06
5.26933e-06
6.72478e-07
6.72485e-07
5.31538e-06
5.26999e-06
5.32511e-06
5.32486e-06
5.26971e-06
6.72494e-07
6.72485e-07
5.31503e-06
5.32461e-06
5.26941e-06
5.32471e-06
6.72481e-07
5.26951e-06
6.72538e-07
5.2705e-06
5.31713e-06
5.3256e-06
6.72498e-07
5.32641e-06
5.27138e-06
6.72562e-07
5.31897e-06
5.33145e-06
5.27648e-06
5.32812e-06
5.2731e-06
6.72772e-07
6.78936e-07
5.31234e-06
5.23659e-06
5.26332e-06
5.34029e-06
5.29029e-06
6.22779e-07
6.76757e-07
6.7397e-07
6.81662e-07
6.7546e-07
5.32621e-06
5.33848e-06
5.28331e-06
5.34913e-06
6.72962e-07
5.29352e-06
5.57322e-06
5.57216e-06
5.53899e-06
5.40804e-06
5.45559e-06
5.44016e-06
5.44941e-06
5.20276e-06
5.32053e-06
5.2378e-06
5.31743e-06
5.29634e-06
5.28336e-06
5.34774e-06
5.22137e-06
5.46945e-06
5.29038e-06
5.33937e-06
5.30575e-06
5.28987e-06
5.39244e-06
1.00911e-07
7.05098e-07
5.1489e-08
7.051e-07
1.00911e-07
8.44036e-08
7.11981e-08
8.44033e-08
7.11956e-08
1.00912e-07
5.1489e-08
7.05103e-07
7.05102e-07
1.00912e-07
8.44022e-08
7.12018e-08
8.44021e-08
7.12024e-08
7.92722e-08
6.53898e-07
5.42405e-08
7.92731e-08
6.53894e-07
7.73524e-08
7.45402e-08
7.45402e-08
7.73526e-08
7.7352e-08
7.45403e-08
7.73525e-08
7.45402e-08
7.92731e-08
5.42405e-08
6.53897e-07
6.53894e-07
7.9273e-08
7.9273e-08
5.42405e-08
6.53893e-07
6.53894e-07
7.92731e-08
7.73524e-08
7.4539e-08
7.73521e-08
7.45402e-08
1.00911e-07
5.1489e-08
7.05099e-07
7.05101e-07
1.0091e-07
8.44009e-08
7.11949e-08
8.4402e-08
7.12153e-08
1.00912e-07
7.0511e-07
5.14891e-08
7.05104e-07
1.00911e-07
8.44025e-08
7.1209e-08
8.44021e-08
7.12009e-08
1.0091e-07
5.14891e-08
7.05104e-07
1.00911e-07
7.05102e-07
8.44032e-08
7.12011e-08
8.44024e-08
7.12024e-08
7.92727e-08
5.42406e-08
6.53904e-07
6.53898e-07
7.92734e-08
7.73523e-08
7.45402e-08
7.45402e-08
7.73527e-08
7.73523e-08
7.45404e-08
7.45403e-08
7.73528e-08
7.92722e-08
5.42406e-08
6.539e-07
7.92731e-08
6.53894e-07
7.92729e-08
6.53905e-07
5.42406e-08
6.53908e-07
7.92735e-08
7.73527e-08
7.45407e-08
7.45397e-08
7.73534e-08
7.73524e-08
7.45404e-08
7.45396e-08
7.7353e-08
7.92739e-08
5.42394e-08
6.53921e-07
6.53912e-07
7.92737e-08
1.00909e-07
7.0511e-07
5.14891e-08
7.05109e-07
1.00911e-07
8.43982e-08
7.1223e-08
8.43992e-08
7.12177e-08
1.00909e-07
5.1488e-08
7.05121e-07
7.05114e-07
1.0091e-07
8.43992e-08
7.12155e-08
8.44007e-08
7.12181e-08
1.00917e-07
7.05197e-07
5.14904e-08
7.05236e-07
1.00915e-07
8.44067e-08
7.12036e-08
8.44133e-08
7.12038e-08
1.00918e-07
5.14906e-08
7.05428e-07
7.05311e-07
1.00926e-07
8.4407e-08
7.11957e-08
8.44063e-08
7.12011e-08
7.92825e-08
6.54015e-07
5.42421e-08
7.92793e-08
6.54068e-07
7.7364e-08
7.4548e-08
7.45448e-08
7.73726e-08
7.73607e-08
7.45423e-08
7.73578e-08
7.45435e-08
7.92867e-08
5.42424e-08
6.54298e-07
6.54153e-07
7.92967e-08
7.92766e-08
5.4241e-08
6.53983e-07
6.53954e-07
7.92771e-08
7.7354e-08
7.45408e-08
7.73539e-08
7.45403e-08
7.92754e-08
5.42401e-08
6.5393e-07
7.92749e-08
6.53941e-07
7.73557e-08
7.45416e-08
7.73562e-08
7.45412e-08
1.00913e-07
5.14894e-08
7.05168e-07
7.05152e-07
1.00915e-07
8.44011e-08
7.12111e-08
8.44e-08
7.12042e-08
1.00911e-07
5.14882e-08
7.05126e-07
1.00911e-07
7.05135e-07
8.44042e-08
7.11983e-08
8.44058e-08
7.11985e-08
1.00971e-07
7.08602e-07
5.14998e-08
7.06876e-07
1.01301e-07
8.44385e-08
7.1202e-08
8.44129e-08
7.1219e-08
1.00961e-07
5.14975e-08
7.05646e-07
1.00927e-07
7.06049e-07
8.44474e-08
7.16489e-08
8.48424e-08
7.12212e-08
7.93614e-08
5.42541e-08
6.57405e-07
6.55808e-07
7.94726e-08
7.74062e-08
7.45503e-08
7.45611e-08
7.73798e-08
7.7427e-08
7.46913e-08
7.45712e-08
7.75352e-08
7.93365e-08
5.42506e-08
6.54544e-07
7.93049e-08
6.54977e-07
6.87992e-07
7.2234e-07
6.97034e-07
6.82049e-07
7.19825e-07
6.94762e-07
7.27714e-07
7.33766e-07
7.14487e-07
8.04112e-08
6.60737e-07
5.41362e-08
6.64928e-07
7.95837e-08
7.80472e-08
6.06878e-07
7.12248e-07
5.96917e-07
8.12427e-08
7.86379e-08
7.48158e-08
7.61833e-08
7.76573e-08
7.99228e-08
5.4303e-08
6.27588e-07
6.59889e-07
6.10993e-07
6.45239e-07
1.02466e-07
7.12421e-07
5.23784e-08
7.16944e-07
1.01546e-07
7.99813e-08
6.8838e-07
7.40009e-07
6.45696e-07
3.49975e-08
1.03232e-07
5.35582e-08
6.33263e-07
6.92296e-07
6.13572e-07
7.01667e-07
8.43132e-08
7.22497e-08
8.51804e-08
1.10123e-07
4.25781e-05
4.24769e-05
4.25082e-05
4.25126e-05
4.25293e-05
4.2493e-05
4.25101e-05
5.2598e-06
5.31919e-06
5.3009e-06
5.32936e-06
5.29564e-06
5.32454e-06
5.26464e-06
5.29328e-06
5.3084e-06
5.33877e-06
5.34337e-06
5.32064e-06
5.35794e-06
5.27409e-06
4.26134e-05
4.2595e-05
4.25521e-05
4.26077e-05
4.26862e-05
4.26703e-05
4.26265e-05
4.26583e-05
4.27096e-05
4.26579e-05
4.26275e-05
4.26989e-05
4.26429e-05
4.26774e-05
4.25153e-05
4.24319e-05
4.24744e-05
4.2561e-05
4.25529e-05
4.2602e-05
4.25204e-05
6.70272e-07
6.37697e-07
6.60421e-07
6.46823e-07
6.60432e-07
6.70273e-07
6.37694e-07
6.51724e-07
6.79838e-07
6.68623e-07
6.61172e-07
6.61172e-07
6.79833e-07
6.51727e-07
5.25738e-06
5.31697e-06
5.29327e-06
5.32214e-06
5.27993e-06
5.30164e-06
5.30862e-06
5.30289e-06
5.29636e-06
5.29777e-06
5.28482e-06
5.27744e-06
5.30649e-06
5.29398e-06
5.29522e-06
6.7027e-07
6.3771e-07
6.60429e-07
6.46822e-07
6.60431e-07
6.70269e-07
6.37706e-07
6.51727e-07
6.7984e-07
6.61184e-07
6.68618e-07
6.61168e-07
6.79835e-07
6.5173e-07
6.51752e-07
6.61225e-07
6.68653e-07
6.79868e-07
6.61206e-07
6.79857e-07
6.51762e-07
6.70268e-07
6.60459e-07
6.46866e-07
6.37758e-07
6.60455e-07
6.70276e-07
6.37749e-07
6.70509e-07
6.38029e-07
6.61051e-07
6.47169e-07
6.60806e-07
6.70661e-07
6.37901e-07
6.52092e-07
6.80322e-07
6.69066e-07
6.61816e-07
6.61638e-07
6.80154e-07
6.5228e-07
6.5179e-07
6.61249e-07
6.79875e-07
6.68697e-07
6.61255e-07
6.51772e-07
6.7989e-07
6.70298e-07
6.60476e-07
6.37761e-07
6.46894e-07
6.60494e-07
6.70283e-07
6.37756e-07
5.31392e-06
5.30909e-06
5.31254e-06
5.33265e-06
5.32155e-06
5.33234e-06
5.29434e-06
5.32525e-06
5.35546e-06
5.32679e-06
5.38364e-06
5.3335e-06
5.38975e-06
5.32463e-06
5.34721e-06
5.37152e-06
5.34504e-06
5.32923e-06
5.33494e-06
5.36579e-06
5.34904e-06
5.26096e-06
5.30295e-06
5.30014e-06
5.27276e-06
5.28925e-06
5.23512e-06
5.27877e-06
5.26487e-06
5.28395e-06
5.30282e-06
5.29075e-06
5.29084e-06
5.25319e-06
5.27029e-06
6.71507e-07
6.38267e-07
6.61431e-07
6.48682e-07
6.62251e-07
6.70932e-07
6.38804e-07
6.53198e-07
6.80622e-07
6.62185e-07
6.70073e-07
6.62625e-07
6.81165e-07
6.52616e-07
6.45469e-07
6.52105e-07
6.61979e-07
6.40242e-07
6.57778e-07
6.35596e-07
6.58977e-07
6.19181e-07
6.45816e-07
6.32626e-07
6.35238e-07
6.45941e-07
6.32723e-07
5.6582e-07
5.33175e-06
5.24104e-06
5.33188e-06
5.3014e-06
5.26631e-06
5.30145e-06
5.2663e-06
5.33245e-06
5.24128e-06
5.33213e-06
5.30188e-06
5.26691e-06
5.30206e-06
5.2667e-06
5.3456e-06
5.27446e-06
5.35227e-06
5.30907e-06
5.27819e-06
5.31054e-06
5.28245e-06
5.26851e-06
5.28506e-06
5.33523e-06
5.30135e-06
5.25594e-06
5.27785e-06
5.28212e-06
5.33159e-06
5.24073e-06
5.33156e-06
5.30126e-06
5.266e-06
5.30106e-06
5.26613e-06
5.24064e-06
5.33146e-06
5.30087e-06
5.26584e-06
5.33143e-06
5.27875e-06
5.27875e-06
5.31142e-06
5.31742e-06
5.31758e-06
5.31121e-06
5.33142e-06
5.27872e-06
5.31115e-06
5.31743e-06
5.27886e-06
5.33165e-06
5.279e-06
5.31147e-06
5.31756e-06
5.31145e-06
5.31759e-06
5.27971e-06
5.33192e-06
5.27928e-06
5.31179e-06
5.3181e-06
5.31207e-06
5.31784e-06
5.33931e-06
5.24503e-06
5.33596e-06
5.3054e-06
5.2729e-06
5.30697e-06
5.2704e-06
5.33309e-06
5.24311e-06
5.33404e-06
5.30354e-06
5.26769e-06
5.3029e-06
5.26845e-06
5.3369e-06
5.288e-06
5.28412e-06
5.3147e-06
5.32253e-06
5.32092e-06
5.31578e-06
5.28049e-06
5.33447e-06
5.2818e-06
5.31341e-06
5.31872e-06
5.31271e-06
5.31949e-06
5.29389e-06
5.35476e-06
5.29816e-06
5.31393e-06
5.32446e-06
5.31687e-06
5.32291e-06
5.24871e-06
5.33859e-06
5.28541e-06
5.30567e-06
5.30245e-06
5.2971e-06
5.31403e-06
5.23825e-06
5.24456e-06
5.20055e-06
5.29162e-06
5.2868e-06
5.28385e-06
5.28625e-06
5.42904e-08
9.12149e-08
5.14889e-08
9.12142e-08
5.42905e-08
6.77701e-07
6.68117e-07
6.69009e-07
6.72826e-07
6.68126e-07
6.72824e-07
6.77704e-07
6.70259e-07
6.46817e-07
6.60424e-07
6.37715e-07
6.60417e-07
6.70258e-07
6.37715e-07
6.777e-07
6.72819e-07
6.68999e-07
6.68123e-07
6.68116e-07
6.72822e-07
6.77697e-07
5.42892e-08
5.14878e-08
9.12149e-08
9.12126e-08
5.42905e-08
7.09984e-08
1.01111e-07
5.42404e-08
1.0111e-07
7.09986e-08
6.51723e-07
6.68609e-07
6.61181e-07
6.79838e-07
6.61159e-07
6.51727e-07
6.79832e-07
7.09974e-08
5.42392e-08
1.01111e-07
1.01109e-07
7.09987e-08
7.0998e-08
5.42404e-08
1.0111e-07
1.01109e-07
7.09975e-08
6.51724e-07
6.68624e-07
6.61172e-07
6.79835e-07
6.6117e-07
6.51727e-07
6.79834e-07
5.42904e-08
5.14889e-08
9.12133e-08
9.12141e-08
5.42893e-08
6.70259e-07
6.46824e-07
6.60415e-07
6.37694e-07
6.60425e-07
6.70267e-07
6.37709e-07
6.77698e-07
6.72821e-07
6.6901e-07
6.68112e-07
6.68124e-07
6.72825e-07
6.77698e-07
6.55849e-07
6.62091e-07
6.62001e-07
6.62568e-07
6.57288e-07
6.62467e-07
6.54502e-07
6.52324e-07
6.54629e-07
6.71409e-07
6.61389e-07
6.61111e-07
6.60961e-07
6.71382e-07
6.61091e-07
6.52344e-07
6.54924e-07
6.54646e-07
6.52118e-07
6.54511e-07
6.54433e-07
6.60967e-07
6.71176e-07
6.60891e-07
6.62083e-07
6.56058e-07
6.62225e-07
6.57589e-07
6.63036e-07
6.62724e-07
6.6255e-07
6.57586e-07
6.627e-07
6.56078e-07
6.6254e-07
6.62241e-07
5.42904e-08
9.12153e-08
5.1489e-08
9.12144e-08
5.42905e-08
6.77706e-07
6.6813e-07
6.6901e-07
6.72826e-07
6.68126e-07
6.77705e-07
6.72827e-07
6.70276e-07
6.46833e-07
6.60434e-07
6.37713e-07
6.6044e-07
6.70277e-07
6.37704e-07
6.77709e-07
6.72834e-07
6.69023e-07
6.68133e-07
6.68135e-07
6.7283e-07
6.77713e-07
5.42904e-08
5.14889e-08
9.12149e-08
9.12142e-08
5.42905e-08
7.09986e-08
5.42404e-08
1.01111e-07
1.0111e-07
7.09987e-08
6.5173e-07
6.68629e-07
6.79846e-07
6.61186e-07
6.61179e-07
6.79837e-07
6.51736e-07
7.09986e-08
5.42404e-08
1.01111e-07
1.0111e-07
7.09987e-08
7.09986e-08
1.01111e-07
5.42404e-08
1.0111e-07
7.09987e-08
6.51742e-07
6.68639e-07
6.79848e-07
6.61199e-07
6.61191e-07
6.79847e-07
6.51739e-07
7.09988e-08
5.42406e-08
1.01111e-07
1.01111e-07
7.0999e-08
5.42904e-08
9.12154e-08
5.1489e-08
9.12145e-08
5.42905e-08
6.77719e-07
6.68159e-07
6.69051e-07
6.72859e-07
6.68153e-07
6.72851e-07
6.77727e-07
6.70264e-07
6.46855e-07
6.60442e-07
6.37732e-07
6.60446e-07
6.70269e-07
6.3774e-07
6.77712e-07
6.72839e-07
6.69039e-07
6.68142e-07
6.68143e-07
6.72845e-07
6.77712e-07
5.42906e-08
5.14891e-08
9.12159e-08
9.1215e-08
5.42907e-08
5.42909e-08
9.12188e-08
5.14894e-08
9.1218e-08
5.42912e-08
6.78015e-07
6.68769e-07
6.69498e-07
6.73357e-07
6.68527e-07
6.73169e-07
6.78199e-07
6.70435e-07
6.47067e-07
6.60601e-07
6.37783e-07
6.60697e-07
6.70384e-07
6.37833e-07
6.77909e-07
6.72985e-07
6.69353e-07
6.68314e-07
6.68404e-07
6.73053e-07
6.77846e-07
5.42928e-08
5.14913e-08
9.12312e-08
9.12269e-08
5.42934e-08
7.09998e-08
1.01115e-07
5.42411e-08
1.01115e-07
7.09996e-08
6.51969e-07
6.68906e-07
6.61417e-07
6.79987e-07
6.61476e-07
6.51903e-07
6.80047e-07
7.10028e-08
5.4243e-08
1.01131e-07
1.01126e-07
7.10048e-08
7.09995e-08
5.4241e-08
1.01115e-07
1.01113e-07
7.09999e-08
6.51816e-07
6.68736e-07
6.61338e-07
6.79941e-07
6.61294e-07
6.51846e-07
6.79913e-07
7.09989e-08
5.42407e-08
1.01113e-07
1.01111e-07
7.0999e-08
5.42909e-08
5.14894e-08
9.12179e-08
9.12169e-08
5.42911e-08
6.77752e-07
6.68182e-07
6.72872e-07
6.69106e-07
6.68195e-07
6.77739e-07
6.7289e-07
6.70329e-07
6.46908e-07
6.60557e-07
6.37761e-07
6.60523e-07
6.70355e-07
6.37748e-07
5.42905e-08
5.14892e-08
9.1216e-08
9.12149e-08
5.42906e-08
6.77776e-07
6.72941e-07
6.69139e-07
6.68264e-07
6.68224e-07
6.7291e-07
6.77808e-07
6.68951e-07
6.68343e-07
6.74965e-07
6.75862e-07
6.79167e-07
6.82216e-07
6.69683e-07
6.70309e-07
6.75741e-07
6.74488e-07
6.7702e-07
6.81374e-07
6.58164e-07
6.53962e-07
6.56247e-07
6.72467e-07
6.61488e-07
6.62136e-07
6.64665e-07
6.73092e-07
6.62724e-07
6.53376e-07
6.5502e-07
6.55669e-07
6.6604e-07
6.57732e-07
6.63999e-07
6.59025e-07
6.63165e-07
6.63905e-07
6.66713e-07
6.59568e-07
6.64568e-07
6.57131e-07
6.62657e-07
6.63366e-07
6.60879e-07
6.64256e-07
6.66541e-07
6.89975e-07
6.73669e-07
6.79178e-07
6.67466e-07
6.83986e-07
6.73289e-07
6.70204e-07
6.67776e-07
6.72408e-07
6.59615e-07
6.54581e-07
6.54746e-07
6.51194e-07
6.55115e-07
6.52858e-07
6.51788e-07
6.56175e-07
6.52167e-07
6.49229e-07
6.47816e-07
6.50513e-07
5.43075e-08
9.13762e-08
5.15001e-08
9.13253e-08
5.43037e-08
6.7916e-07
6.69132e-07
6.70656e-07
6.73687e-07
6.69839e-07
6.78524e-07
6.74263e-07
6.72888e-07
6.50449e-07
6.66586e-07
6.44403e-07
6.6377e-07
6.76705e-07
6.40169e-07
6.80469e-07
6.77119e-07
6.71527e-07
6.7273e-07
6.71006e-07
6.75335e-07
6.83224e-07
5.42951e-08
5.14934e-08
9.12365e-08
9.12423e-08
5.42946e-08
7.10249e-08
5.42575e-08
1.01283e-07
1.01245e-07
7.10109e-08
6.54333e-07
6.71041e-07
6.84711e-07
6.6459e-07
6.63519e-07
6.82294e-07
6.56549e-07
7.10073e-08
5.42456e-08
1.01137e-07
1.01142e-07
7.1006e-08
7.10029e-08
1.01338e-07
5.42232e-08
1.01561e-07
7.09771e-08
6.63418e-07
6.70631e-07
6.89434e-07
6.65823e-07
6.63976e-07
6.90839e-07
6.60704e-07
5.43175e-08
9.14125e-08
5.15449e-08
9.16721e-08
5.42803e-08
6.58299e-07
6.52347e-07
6.61679e-07
6.51299e-07
6.58512e-07
6.44457e-07
6.62574e-07
6.87015e-07
6.67744e-07
6.70526e-07
6.58544e-07
6.66925e-07
6.85982e-07
7.01804e-07
6.85481e-07
6.79233e-07
6.68506e-07
6.74254e-07
6.699e-07
6.76847e-07
6.87689e-07
6.72474e-07
6.59787e-07
6.62212e-07
6.62212e-07
6.59782e-07
6.62769e-07
6.62782e-07
6.59792e-07
6.62216e-07
6.72475e-07
6.59785e-07
6.62205e-07
6.62759e-07
6.62803e-07
6.72477e-07
6.59796e-07
6.62216e-07
6.59788e-07
6.62207e-07
6.6277e-07
6.62796e-07
6.59802e-07
6.62226e-07
6.72482e-07
6.62225e-07
6.5979e-07
6.62785e-07
6.62819e-07
6.72486e-07
6.62244e-07
6.59814e-07
6.62235e-07
6.59802e-07
6.62804e-07
6.62839e-07
6.59801e-07
6.72477e-07
6.62224e-07
6.59793e-07
6.62211e-07
6.62778e-07
6.62808e-07
6.72478e-07
6.59797e-07
6.62218e-07
6.59789e-07
6.62209e-07
6.62772e-07
6.62805e-07
6.72516e-07
6.59881e-07
6.62316e-07
6.62283e-07
6.5985e-07
6.62884e-07
6.62949e-07
6.72505e-07
6.62257e-07
6.59819e-07
6.62265e-07
6.59831e-07
6.62847e-07
6.62862e-07
6.59927e-07
6.62355e-07
6.726e-07
6.5998e-07
6.62413e-07
6.63073e-07
6.63021e-07
6.72666e-07
6.60232e-07
6.62675e-07
6.60076e-07
6.62511e-07
6.63208e-07
6.63433e-07
6.66424e-07
6.68736e-07
6.85016e-07
6.69564e-07
6.66959e-07
6.64644e-07
6.66943e-07
6.75025e-07
6.44179e-07
6.43255e-07
6.57391e-07
6.54108e-07
6.58475e-07
6.51639e-07
7.28087e-08
7.34494e-08
7.30183e-08
7.30679e-08
7.30923e-08
7.4171e-08
7.30695e-08
7.41728e-08
7.27235e-08
7.27605e-08
7.26804e-08
7.28448e-08
7.31297e-08
7.43034e-08
7.32974e-08
7.41871e-08
6.63585e-07
6.74018e-07
6.65975e-07
6.61891e-07
6.6432e-07
6.64957e-07
6.65928e-07
6.73316e-07
6.60506e-07
6.6295e-07
6.60977e-07
6.63424e-07
6.64193e-07
6.63756e-07
7.23992e-08
4.27361e-08
8.21324e-08
1.0091e-07
8.21324e-08
7.23995e-08
4.27357e-08
5.42904e-08
5.14889e-08
9.12143e-08
9.12141e-08
5.42905e-08
7.23992e-08
1.0091e-07
8.21329e-08
4.2736e-08
8.21314e-08
4.27357e-08
7.23994e-08
8.44028e-08
7.42523e-08
7.42525e-08
7.14045e-08
7.11949e-08
7.14052e-08
8.44028e-08
7.42516e-08
7.42523e-08
7.14056e-08
7.11951e-08
7.14062e-08
7.2399e-08
4.27364e-08
8.21331e-08
1.00911e-07
7.23995e-08
4.27364e-08
8.21317e-08
5.42904e-08
5.14889e-08
9.12153e-08
9.12136e-08
5.42905e-08
7.23983e-08
1.00911e-07
4.27363e-08
8.21334e-08
4.27354e-08
8.21322e-08
7.23995e-08
8.43998e-08
7.42499e-08
7.4246e-08
7.14035e-08
7.12206e-08
7.1393e-08
8.43998e-08
7.42499e-08
7.42461e-08
7.1403e-08
7.12212e-08
7.13927e-08
4.25152e-08
4.25152e-08
7.09984e-08
5.42404e-08
1.0111e-07
1.0111e-07
7.09986e-08
4.25152e-08
4.25152e-08
3.60312e-08
5.87645e-08
9.63913e-08
7.73508e-08
9.63896e-08
3.60312e-08
5.8764e-08
7.45377e-08
8.15289e-08
8.1527e-08
8.15289e-08
7.45385e-08
8.15278e-08
3.60304e-08
7.73512e-08
9.63913e-08
5.87645e-08
9.63895e-08
5.87634e-08
3.60312e-08
3.60312e-08
5.87645e-08
7.73517e-08
9.63913e-08
5.87644e-08
3.60312e-08
9.63905e-08
8.15289e-08
7.4539e-08
8.15283e-08
3.60312e-08
7.73517e-08
5.87645e-08
9.63913e-08
5.87644e-08
9.63905e-08
3.60312e-08
8.15289e-08
7.4539e-08
8.15283e-08
7.0998e-08
5.42404e-08
1.01111e-07
1.01109e-07
7.09986e-08
4.25143e-08
4.25152e-08
4.25152e-08
4.25152e-08
7.09984e-08
5.42404e-08
1.01111e-07
1.01109e-07
7.09986e-08
4.25152e-08
4.25143e-08
4.25152e-08
4.25152e-08
3.60312e-08
5.87645e-08
7.73512e-08
9.63913e-08
5.87645e-08
3.60312e-08
9.63895e-08
8.15276e-08
7.45386e-08
8.15283e-08
3.60312e-08
7.73512e-08
5.87635e-08
9.63902e-08
3.60304e-08
5.87641e-08
9.63905e-08
8.15289e-08
7.4539e-08
8.15278e-08
7.23994e-08
8.21327e-08
4.27359e-08
1.0091e-07
7.23993e-08
8.21316e-08
4.27361e-08
5.42904e-08
5.14889e-08
9.12151e-08
9.12135e-08
5.42904e-08
7.23991e-08
1.00911e-07
8.21326e-08
4.27353e-08
7.23984e-08
8.21317e-08
4.27363e-08
8.44015e-08
7.42468e-08
7.42506e-08
7.14045e-08
7.11978e-08
7.14058e-08
8.44031e-08
7.42507e-08
7.42519e-08
7.13942e-08
7.12025e-08
7.14039e-08
7.23984e-08
4.27363e-08
8.21329e-08
1.0091e-07
8.21322e-08
7.23992e-08
4.27354e-08
5.42892e-08
5.14878e-08
9.12149e-08
9.12127e-08
5.42905e-08
7.23996e-08
1.00912e-07
8.21336e-08
4.27361e-08
8.21328e-08
4.27363e-08
7.23996e-08
8.44021e-08
7.42508e-08
7.4251e-08
7.13976e-08
7.12113e-08
7.1398e-08
8.44014e-08
7.42488e-08
7.42488e-08
7.1403e-08
7.12023e-08
7.14044e-08
7.23995e-08
4.27363e-08
1.00911e-07
8.21328e-08
7.23996e-08
4.27362e-08
8.21324e-08
5.42904e-08
5.14889e-08
9.12144e-08
9.12142e-08
5.42905e-08
7.23994e-08
1.00911e-07
4.27361e-08
8.21332e-08
7.23996e-08
4.2736e-08
8.21319e-08
8.44015e-08
7.42507e-08
7.42501e-08
7.1404e-08
7.11988e-08
7.14059e-08
8.44028e-08
7.42504e-08
7.42522e-08
7.14014e-08
7.11995e-08
7.14024e-08
4.25152e-08
4.25153e-08
7.0997e-08
5.42392e-08
1.01111e-07
1.01109e-07
7.09986e-08
4.25143e-08
4.25152e-08
3.60312e-08
5.87645e-08
9.63914e-08
7.73518e-08
9.63907e-08
3.60312e-08
5.87644e-08
7.4539e-08
8.1529e-08
8.15283e-08
8.1529e-08
7.4539e-08
8.15283e-08
3.60312e-08
7.73518e-08
9.63914e-08
5.87645e-08
9.63907e-08
3.60312e-08
5.87644e-08
3.60304e-08
5.87645e-08
9.63903e-08
7.7351e-08
5.87631e-08
3.60312e-08
9.63896e-08
7.4539e-08
8.15291e-08
8.15284e-08
8.15285e-08
7.45374e-08
8.15271e-08
3.60312e-08
7.7352e-08
5.87647e-08
9.63915e-08
5.87645e-08
9.63908e-08
3.60313e-08
7.09986e-08
5.42404e-08
1.0111e-07
1.0111e-07
7.09986e-08
4.25152e-08
4.25152e-08
4.25152e-08
4.25152e-08
4.25153e-08
4.25153e-08
7.09986e-08
5.42405e-08
1.0111e-07
1.01111e-07
7.09983e-08
4.25153e-08
4.25153e-08
3.60314e-08
9.63907e-08
5.87638e-08
7.73525e-08
9.63912e-08
3.60306e-08
5.87647e-08
7.45393e-08
8.15295e-08
8.15287e-08
8.15284e-08
7.45393e-08
8.15287e-08
3.60314e-08
7.73527e-08
9.63922e-08
5.87648e-08
9.63913e-08
5.87647e-08
3.60314e-08
3.60312e-08
9.63907e-08
7.73523e-08
5.87643e-08
5.87645e-08
9.6391e-08
3.60313e-08
7.45391e-08
8.15291e-08
8.15285e-08
8.15283e-08
7.45391e-08
8.15285e-08
3.60312e-08
7.73518e-08
5.87647e-08
9.63915e-08
3.60313e-08
5.87645e-08
9.63909e-08
7.09987e-08
5.42406e-08
1.0111e-07
1.01111e-07
7.09976e-08
4.25154e-08
4.25154e-08
4.25153e-08
4.25144e-08
7.23992e-08
8.21324e-08
1.0091e-07
4.27356e-08
8.21324e-08
7.23988e-08
4.27356e-08
5.42904e-08
5.1489e-08
9.12149e-08
9.12146e-08
5.42906e-08
7.23992e-08
1.0091e-07
8.21334e-08
4.27358e-08
7.23994e-08
8.21319e-08
4.27357e-08
8.43995e-08
7.42445e-08
7.42474e-08
7.13928e-08
7.12246e-08
7.13932e-08
8.43987e-08
7.42446e-08
7.42449e-08
7.13936e-08
7.12125e-08
7.14022e-08
7.23993e-08
8.2133e-08
4.27346e-08
1.0091e-07
7.23981e-08
8.21328e-08
4.27355e-08
5.42905e-08
5.1489e-08
9.1214e-08
9.1215e-08
5.42894e-08
7.23993e-08
1.0091e-07
8.21335e-08
4.27355e-08
8.21329e-08
4.27354e-08
7.23994e-08
8.43999e-08
7.42454e-08
7.4248e-08
7.13951e-08
7.12191e-08
7.13953e-08
8.43997e-08
7.42469e-08
7.42465e-08
7.13944e-08
7.12105e-08
7.14025e-08
7.23999e-08
4.27373e-08
8.21442e-08
1.00915e-07
8.21399e-08
7.2402e-08
4.27363e-08
5.42906e-08
5.14892e-08
9.12214e-08
9.12191e-08
5.42918e-08
7.24013e-08
1.00916e-07
8.21394e-08
4.27371e-08
8.21399e-08
4.27371e-08
7.24011e-08
8.44084e-08
7.42527e-08
7.42551e-08
7.14089e-08
7.12009e-08
7.14089e-08
8.44086e-08
7.42579e-08
7.42555e-08
7.14031e-08
7.12048e-08
7.14068e-08
7.24032e-08
4.27375e-08
8.21458e-08
1.0092e-07
7.24025e-08
4.27378e-08
8.21492e-08
5.42924e-08
5.14908e-08
9.12235e-08
9.12244e-08
5.4292e-08
7.2404e-08
1.00921e-07
4.27388e-08
8.2161e-08
4.27381e-08
8.21517e-08
7.24055e-08
8.44054e-08
7.42536e-08
7.42537e-08
7.14063e-08
7.11968e-08
7.14077e-08
8.44064e-08
7.4254e-08
7.42548e-08
7.1405e-08
7.11976e-08
7.14064e-08
4.25158e-08
4.25159e-08
7.09998e-08
5.42408e-08
1.01119e-07
1.01116e-07
7.10012e-08
4.25156e-08
4.25166e-08
3.60327e-08
5.87675e-08
9.63989e-08
7.73639e-08
9.63992e-08
3.60324e-08
5.87678e-08
7.45455e-08
8.15376e-08
8.15359e-08
8.15336e-08
7.45429e-08
8.15334e-08
3.60328e-08
7.73678e-08
9.64052e-08
5.877e-08
9.64021e-08
5.87686e-08
3.60337e-08
3.60315e-08
5.87669e-08
7.73591e-08
9.63969e-08
5.87657e-08
3.60322e-08
9.63952e-08
8.15312e-08
7.4541e-08
8.15306e-08
3.60316e-08
7.73573e-08
5.87656e-08
9.63949e-08
5.87657e-08
9.63945e-08
3.60318e-08
8.15325e-08
7.45409e-08
8.15306e-08
7.10018e-08
5.42428e-08
1.01122e-07
1.01122e-07
7.10016e-08
4.25174e-08
4.25184e-08
4.25172e-08
4.25168e-08
7.09993e-08
5.42409e-08
1.01113e-07
1.01112e-07
7.09993e-08
4.25158e-08
4.25159e-08
4.25156e-08
4.25156e-08
3.60314e-08
7.73531e-08
5.87641e-08
9.63918e-08
9.63919e-08
5.87646e-08
3.60307e-08
8.15295e-08
7.45392e-08
8.15286e-08
3.60314e-08
7.73529e-08
9.63923e-08
5.87648e-08
9.63908e-08
3.60314e-08
5.87648e-08
8.1529e-08
7.45392e-08
8.15286e-08
7.09981e-08
5.42403e-08
1.01112e-07
1.01111e-07
7.09985e-08
4.25154e-08
4.25154e-08
4.25152e-08
4.25149e-08
3.60316e-08
5.87652e-08
7.73545e-08
9.63932e-08
5.87653e-08
3.60315e-08
9.63928e-08
8.15305e-08
7.45403e-08
8.15299e-08
3.60316e-08
7.73554e-08
5.87657e-08
9.63935e-08
3.60318e-08
5.87654e-08
9.63932e-08
8.153e-08
7.45402e-08
8.15297e-08
7.24004e-08
8.21362e-08
4.27365e-08
1.00914e-07
7.24003e-08
8.21362e-08
4.27367e-08
5.42908e-08
5.14894e-08
9.12168e-08
9.12165e-08
5.42909e-08
7.24005e-08
1.00914e-07
8.21386e-08
4.2737e-08
7.24009e-08
8.21368e-08
4.27368e-08
8.43994e-08
7.4248e-08
7.42461e-08
7.14017e-08
7.12215e-08
7.1395e-08
8.43994e-08
7.42471e-08
7.42459e-08
7.14007e-08
7.12221e-08
7.13936e-08
7.23991e-08
1.0091e-07
8.21352e-08
4.27353e-08
7.23989e-08
8.21332e-08
4.27358e-08
5.42906e-08
5.14892e-08
9.12151e-08
9.12155e-08
5.42895e-08
7.23994e-08
1.00911e-07
8.21346e-08
4.27356e-08
7.23995e-08
8.21333e-08
4.27356e-08
8.44046e-08
7.42523e-08
7.42534e-08
7.14045e-08
7.11998e-08
7.14051e-08
8.44049e-08
7.42532e-08
7.42533e-08
7.14056e-08
7.11984e-08
7.14065e-08
7.24393e-08
4.27472e-08