/*--------------------------------*- C++ -*----------------------------------*\
| =========                 |                                                 |
| \\      /  F ield         | OpenFOAM: The Open Source CFD Toolbox           |
|  \\    /   O peration     | Version:  2012                                  |
|   \\  /    A nd           | Website:  www.openfoam.com                      |
|    \\/     M anipulation  |                                                 |
\*---------------------------------------------------------------------------*/
FoamFile
{
    version     2.0;
    format      ascii;
    class       volVectorField;
    location    "0.106/fluid";
    object      cellMotionU;
}
// * * * * * * * * * * * * * * * * * * * * * * * * * * * * * * * * * * * * * //

dimensions      [0 1 -1 0 0 0 0];


internalField   nonuniform List<vector> 
16422
(
(-3.90798e-06 4.46726e-06 -2.69588e-08)
(-2.76197e-05 4.6975e-05 -2.80937e-07)
(-2.96928e-05 9.44858e-05 -4.74469e-07)
(-3.38816e-05 0.000133702 -5.7092e-07)
(-5.51647e-05 0.000162603 -6.24098e-07)
(-8.72724e-05 0.000184681 -7.02203e-07)
(-0.000118325 0.000201617 -8.11587e-07)
(-0.000138587 0.000210715 -9.86058e-07)
(-0.000140603 0.00020517 -1.25725e-06)
(-0.000123308 0.000181659 -1.37917e-06)
(-8.76321e-05 0.000140927 -1.26007e-06)
(-4.10176e-05 9.01023e-05 -4.24362e-07)
(2.07996e-06 4.1178e-05 1.21685e-06)
(2.06421e-05 8.52626e-06 2.29394e-06)
(6.0989e-06 -2.2164e-06 7.35453e-07)
(-4.84956e-06 3.48345e-06 -3.33693e-08)
(-3.88592e-05 3.53638e-05 -3.40766e-07)
(-5.44499e-05 6.97262e-05 -5.70296e-07)
(-6.84345e-05 9.91962e-05 -6.90961e-07)
(-9.48222e-05 0.000123284 -7.63407e-07)
(-0.000131243 0.000143434 -8.47915e-07)
(-0.000168615 0.000159395 -9.69167e-07)
(-0.000197065 0.000168179 -1.12938e-06)
(-0.000208601 0.000165422 -1.31612e-06)
(-0.000196103 0.000149489 -1.43905e-06)
(-0.000156446 0.000120918 -1.19442e-06)
(-9.85377e-05 8.2542e-05 -3.2604e-07)
(-4.14675e-05 4.30905e-05 1.1792e-06)
(-4.66544e-06 1.42227e-05 2.33753e-06)
(1.25118e-06 -9.13056e-07 1.57957e-06)
(-5.64937e-06 1.72855e-06 -3.82617e-08)
(-4.7503e-05 1.72445e-05 -3.79057e-07)
(-7.2954e-05 3.40463e-05 -6.26606e-07)
(-9.42199e-05 4.92753e-05 -7.64371e-07)
(-0.000124254 6.27286e-05 -8.53736e-07)
(-0.000163496 7.45076e-05 -9.45389e-07)
(-0.000205231 8.39373e-05 -1.07716e-06)
(-0.000240261 8.91309e-05 -1.21238e-06)
(-0.000258452 8.81358e-05 -1.31842e-06)
(-0.000249681 8.08058e-05 -1.26453e-06)
(-0.000210509 6.71478e-05 -8.45376e-07)
(-0.000149825 4.8941e-05 5.92464e-08)
(-8.89524e-05 2.87651e-05 1.32072e-06)
(-4.69891e-05 1.16495e-05 2.16367e-06)
(-3.10622e-05 1.11199e-06 1.45715e-06)
(-4.27361e-06 4.58785e-06 -3.0792e-07)
(-3.15195e-05 4.47865e-05 -2.74835e-06)
(-3.88714e-05 8.89488e-05 -4.59305e-06)
(-4.63058e-05 0.000126212 -5.57319e-06)
(-6.76255e-05 0.000155618 -6.15539e-06)
(-9.90728e-05 0.00017972 -6.81601e-06)
(-0.000131896 0.000199138 -7.96375e-06)
(-0.00015714 0.000210531 -9.70275e-06)
(-0.000169276 0.000206446 -1.18024e-05)
(-0.000164055 0.000183549 -1.32526e-05)
(-0.000136136 0.000143604 -1.19228e-05)
(-8.58157e-05 9.24207e-05 -4.60565e-06)
(-1.9546e-05 4.29906e-05 1.03648e-05)
(2.89738e-05 7.68231e-06 2.03851e-05)
(1.07685e-05 -5.34796e-06 5.36772e-06)
(-5.50667e-06 3.54451e-06 -3.79379e-07)
(-4.36877e-05 3.35739e-05 -3.31749e-06)
(-6.35173e-05 6.53573e-05 -5.47541e-06)
(-7.98842e-05 9.35309e-05 -6.64707e-06)
(-0.000106588 0.000117933 -7.34755e-06)
(-0.000142938 0.000139291 -8.07983e-06)
(-0.000182273 0.000156656 -9.19586e-06)
(-0.000216562 0.000166794 -1.07201e-05)
(-0.000237043 0.000165519 -1.22626e-05)
(-0.000235095 0.00015056 -1.2889e-05)
(-0.000201385 0.000122809 -1.05021e-05)
(-0.000139449 8.55954e-05 -2.89157e-06)
(-6.4128e-05 4.75763e-05 9.99087e-06)
(-2.78161e-06 1.77118e-05 1.99349e-05)
(1.2384e-05 2.70556e-06 1.3231e-05)
(-6.43297e-06 1.75015e-06 -4.20906e-07)
(-5.26562e-05 1.63733e-05 -3.64736e-06)
(-8.13976e-05 3.18766e-05 -5.99147e-06)
(-0.000104392 4.62908e-05 -7.32056e-06)
(-0.000134908 5.96754e-05 -8.15363e-06)
(-0.000174382 7.17848e-05 -8.95039e-06)
(-0.000218146 8.18045e-05 -1.00154e-05)
(-0.000258934 8.78368e-05 -1.12455e-05)
(-0.00028539 8.79098e-05 -1.21304e-05)
(-0.000284758 8.14551e-05 -1.14541e-05)
(-0.000249716 6.85556e-05 -7.57862e-06)
(-0.000185019 5.12411e-05 5.10431e-07)
(-0.000108984 3.19233e-05 1.14815e-05)
(-4.61336e-05 1.52185e-05 1.86232e-05)
(-1.61853e-05 5.89546e-06 1.23082e-05)
(-5.50105e-06 3.95142e-06 -5.98525e-07)
(-4.27049e-05 3.81543e-05 -5.17602e-06)
(-5.98576e-05 7.49325e-05 -8.46842e-06)
(-7.22692e-05 0.000108758 -1.03089e-05)
(-9.43757e-05 0.000139325 -1.14286e-05)
(-0.00012663 0.00016739 -1.25281e-05)
(-0.000164012 0.000191421 -1.41828e-05)
(-0.000203303 0.000207278 -1.68292e-05)
(-0.000239263 0.000206518 -2.00382e-05)
(-0.000261506 0.000185494 -2.21148e-05)
(-0.00025273 0.000147047 -1.96468e-05)
(-0.000200383 9.7702e-05 -8.17145e-06)
(-9.17581e-05 4.86963e-05 1.56651e-05)
(2.45595e-05 1.37035e-05 3.17465e-05)
(1.85221e-05 4.35173e-06 8.58639e-06)
(-6.93896e-06 2.91091e-06 -7.09117e-07)
(-5.57949e-05 2.75019e-05 -6.03774e-06)
(-8.43196e-05 5.45722e-05 -9.94053e-06)
(-0.000105269 8.02296e-05 -1.2152e-05)
(-0.000133202 0.000104696 -1.34651e-05)
(-0.000170688 0.000128035 -1.46167e-05)
(-0.000215746 0.000148512 -1.62624e-05)
(-0.00026382 0.000162344 -1.8585e-05)
(-0.000306028 0.000164134 -2.0836e-05)
(-0.00032769 0.000151687 -2.12515e-05)
(-0.000311217 0.000125894 -1.6845e-05)
(-0.000244408 9.12702e-05 -4.48545e-06)
(-0.000132845 5.48668e-05 1.6389e-05)
(-1.85965e-05 2.60233e-05 3.11191e-05)
(2.59075e-05 1.04881e-05 2.10901e-05)
(-7.9108e-06 1.40878e-06 -7.69751e-07)
(-6.47903e-05 1.33338e-05 -6.55688e-06)
(-0.00010091 2.6657e-05 -1.08029e-05)
(-0.000127683 3.95963e-05 -1.32645e-05)
(-0.000159599 5.25352e-05 -1.47401e-05)
(-0.000200515 6.53889e-05 -1.59437e-05)
(-0.000250289 7.67468e-05 -1.74858e-05)
(-0.000304505 8.44304e-05 -1.93159e-05)
(-0.000350365 8.65925e-05 -2.04015e-05)
(-0.00036986 8.22221e-05 -1.8823e-05)
(-0.000345875 7.10979e-05 -1.21393e-05)
(-0.000274156 5.53775e-05 1.12001e-06)
(-0.000168681 3.75894e-05 1.86127e-05)
(-6.38482e-05 2.18734e-05 2.95178e-05)
(-8.56978e-07 1.31412e-05 1.98964e-05)
(3.69367e-06 -1.85424e-06 4.43779e-07)
(4.20845e-07 -1.92124e-06 2.04565e-07)
(5.03251e-06 -7.08457e-06 2.3106e-06)
(-1.39467e-06 -8.67481e-06 7.13173e-07)
(5.49558e-06 -7.43691e-06 2.56164e-06)
(-1.18902e-06 -9.40359e-06 5.24403e-07)
(8.23159e-06 -1.11733e-06 3.9135e-06)
(-1.85254e-06 -5.75602e-06 -2.96636e-07)
(8.15096e-06 2.65473e-06 4.12392e-06)
(-1.13751e-06 -3.75123e-06 -3.53127e-07)
(2.28739e-05 7.6223e-06 2.22011e-06)
(8.43055e-06 -1.19794e-06 1.00122e-06)
(3.04378e-05 5.80621e-06 1.62533e-05)
(1.33881e-05 -5.79024e-06 6.54152e-06)
(2.59566e-06 -3.49722e-07 1.43934e-07)
(2.11375e-06 -2.96201e-06 8.0682e-08)
(9.91484e-07 -2.88081e-06 2.18075e-07)
(6.14302e-06 -1.5447e-06 1.45469e-06)
(1.06866e-07 -3.38438e-06 3.50986e-07)
(8.69696e-06 -5.28181e-06 4.208e-06)
(4.06964e-08 -6.89516e-06 6.87817e-07)
(1.24825e-05 -1.21238e-07 9.64916e-06)
(3.18951e-06 -1.41987e-06 2.52235e-06)
(3.29962e-05 5.3356e-06 2.02012e-05)
(1.56201e-05 -6.36456e-06 7.89231e-06)
(3.53961e-05 8.32347e-06 2.99171e-05)
(2.36211e-05 -1.04779e-06 1.19305e-05)
(3.48095e-06 -9.68142e-06 8.05505e-07)
(3.55337e-06 -9.00869e-06 1.15275e-06)
(-3.82078e-08 -7.51644e-06 5.34877e-07)
(1.59824e-05 1.17144e-06 1.20404e-05)
(4.71591e-06 -2.27909e-07 3.09384e-06)
(1.57247e-05 7.59479e-07 7.53125e-06)
(9.66284e-08 -4.18878e-06 1.92876e-07)
(2.65827e-05 6.67635e-06 1.79071e-05)
(9.67173e-06 4.55674e-06 4.4498e-06)
(3.09811e-05 1.07335e-05 3.14069e-05)
(2.49544e-05 2.40801e-06 1.26735e-05)
(3.91371e-06 -4.34738e-09 2.29237e-06)
(3.57543e-06 4.02892e-06 2.4752e-06)
(5.12064e-07 -1.44575e-06 1.40023e-07)
(2.85816e-05 8.95492e-06 1.90977e-05)
(1.09926e-05 6.35231e-06 4.53289e-06)
(1.86721e-06 -1.21899e-06 5.12776e-08)
(9.26329e-07 -1.83257e-06 8.28091e-08)
(3.92891e-06 -3.37077e-06 1.1894e-06)
(1.86481e-06 -3.40019e-06 1.22007e-07)
(4.42691e-07 -3.4728e-06 1.08249e-07)
(7.32311e-07 -2.01814e-06 2.98401e-07)
(-2.71713e-07 -4.14078e-06 7.86397e-07)
(1.20322e-07 -4.74262e-06 5.9756e-07)
(2.93253e-06 -8.72694e-06 3.78186e-07)
(2.40753e-06 -6.27265e-06 9.54182e-08)
(4.16856e-06 -5.41288e-06 1.68466e-06)
(1.80644e-06 -8.53785e-06 2.43671e-07)
(-1.10874e-06 -7.36869e-06 -5.66866e-07)
(1.72006e-06 -6.32113e-06 1.2128e-07)
(-3.23893e-07 -5.78691e-06 -1.13411e-07)
(-3.85488e-07 -5.62924e-06 8.60214e-07)
(-7.7428e-07 -9.78564e-06 1.16031e-07)
(1.09002e-07 -6.91446e-06 6.89568e-07)
(1.45146e-06 -9.27646e-06 2.02086e-07)
(-2.14141e-06 -7.6889e-06 -1.09769e-06)
(6.22847e-06 -6.49478e-06 2.93931e-06)
(1.13016e-06 -8.62299e-06 3.20408e-07)
(-3.08026e-06 -6.66108e-06 -1.49336e-06)
(-5.08037e-07 -1.09754e-05 -8.59827e-08)
(-1.91281e-06 -8.99067e-06 -7.97698e-08)
(-1.28642e-06 -9.7225e-06 -8.01013e-07)
(3.43705e-06 -3.86121e-06 1.84452e-06)
(3.03347e-06 -6.89061e-06 1.32284e-06)
(6.38584e-06 -4.22313e-06 3.09726e-06)
(4.94477e-07 -3.4579e-06 7.76368e-07)
(-4.88599e-06 -8.16524e-07 -1.95703e-06)
(1.50422e-07 -6.46245e-06 2.60945e-07)
(-4.37184e-06 -4.38284e-06 -1.86926e-06)
(-1.51006e-06 -8.14205e-06 -2.49099e-07)
(-8.74627e-07 -4.39241e-06 -1.1725e-06)
(-8.56111e-07 -9.01379e-06 -9.84893e-07)
(-4.85418e-07 3.63723e-07 8.46531e-07)
(-6.15803e-06 3.07403e-06 -2.04045e-06)
(8.79967e-06 6.65152e-06 4.65406e-06)
(-1.00542e-06 4.38461e-06 1.14391e-06)
(-6.90484e-06 7.17287e-06 -1.8359e-06)
(-2.78748e-07 -2.40116e-06 -1.19071e-06)
(-1.55597e-06 5.30898e-07 -5.08336e-07)
(-4.40918e-07 3.18979e-06 -1.03855e-06)
(3.32633e-06 7.49224e-06 2.69408e-06)
(8.6185e-06 9.96541e-06 5.1e-06)
(-1.57437e-06 7.91538e-06 1.49384e-06)
(-7.58079e-06 1.06045e-05 -1.46391e-06)
(-9.45848e-07 2.13625e-06 -3.92799e-07)
(1.23187e-07 5.02987e-06 -8.78538e-07)
(4.57938e-07 -2.33289e-06 -5.90435e-07)
(-8.41918e-07 -2.94114e-06 -2.2569e-06)
(-4.08747e-07 -4.85017e-06 -9.30409e-07)
(-4.43257e-07 -1.7243e-06 -1.50307e-06)
(-7.85525e-08 -3.00314e-06 -5.97784e-07)
(1.5513e-07 -3.56765e-06 -1.17545e-06)
(2.93812e-07 -5.68739e-07 -1.64018e-07)
(1.9617e-07 -1.00164e-07 -7.77057e-09)
(5.71511e-08 -9.843e-07 -2.77566e-07)
(-1.29715e-06 -8.83265e-06 -1.47846e-06)
(-7.89388e-06 -4.34932e-06 -3.90074e-06)
(-4.74309e-06 -1.21194e-05 -1.98211e-06)
(-6.56093e-06 -5.42479e-06 -3.81972e-06)
(-3.96322e-06 -1.27384e-05 -1.95127e-06)
(-3.01346e-06 -7.70186e-06 -1.70455e-06)
(-1.5842e-06 -8.74511e-06 -1.68678e-06)
(-4.33881e-06 -6.24526e-06 -3.64744e-06)
(-2.54927e-06 -1.25869e-05 -1.74303e-06)
(-8.31326e-07 -9.3082e-06 -1.69731e-06)
(-5.79148e-06 -5.82974e-06 -3.80873e-06)
(-3.53917e-06 -1.26494e-05 -1.95883e-06)
(-5.85014e-06 4.2675e-06 -1.06982e-06)
(-1.93506e-05 9.25562e-06 -4.21702e-06)
(-1.1254e-05 1.50819e-06 -2.12671e-06)
(-1.79903e-05 7.29788e-06 -4.21453e-06)
(-1.06627e-05 -5.75052e-07 -2.22992e-06)
(-8.23718e-06 5.74681e-06 -1.26944e-06)
(-6.20275e-06 2.02584e-06 -1.18559e-06)
(-1.46299e-05 3.51129e-06 -4.08422e-06)
(-8.65391e-06 -4.67897e-06 -2.14972e-06)
(-5.56569e-06 -7.86898e-08 -1.37666e-06)
(-1.69701e-05 5.16509e-06 -4.19723e-06)
(-1.02255e-05 -2.74374e-06 -2.29512e-06)
(3.29773e-07 -5.62482e-06 -1.93998e-06)
(3.84164e-07 -9.15697e-07 -4.48581e-07)
(1.28721e-06 -4.18164e-06 -1.0031e-06)
(6.91724e-07 -1.80337e-06 -7.22905e-07)
(9.4003e-08 -2.75198e-06 -2.24604e-07)
(-6.05242e-07 -4.69624e-06 -8.66181e-07)
(-1.73588e-06 -2.64498e-06 -1.24026e-06)
(-2.20731e-07 -2.95458e-06 -5.80034e-07)
(-9.89833e-07 -1.72282e-06 -8.27162e-07)
(-5.50119e-07 -3.54471e-06 -6.50477e-07)
(2.1262e-07 -1.15364e-06 -3.12482e-07)
(1.39471e-07 -3.5031e-07 -7.85234e-08)
(-8.34834e-08 -4.11221e-07 -1.31148e-07)
(-3.31257e-08 -1.15147e-06 -3.9676e-07)
(-4.83346e-07 -7.31277e-07 -5.41396e-07)
(4.2242e-07 -7.15225e-07 3.7617e-08)
(-3.48669e-07 -3.41095e-06 1.67781e-06)
(-1.18978e-06 -5.87102e-06 6.03972e-07)
(-4.35625e-07 -3.01249e-06 7.38159e-07)
(-8.59298e-07 -7.09426e-06 2.03194e-06)
(-2.96328e-07 -2.05151e-06 1.2449e-06)
(-2.69523e-08 -4.15916e-07 1.35656e-07)
(-2.84829e-07 -1.3726e-06 7.96136e-07)
(-3.35637e-08 -5.52063e-07 2.39862e-07)
(-3.83417e-07 -3.0968e-06 1.53666e-06)
(-8.30523e-07 -4.36368e-06 1.19855e-06)
(-8.74055e-07 -6.45584e-06 1.85394e-06)
(-3.62325e-07 -2.09735e-06 9.80599e-07)
(-2.51182e-07 -2.26048e-06 1.36974e-06)
(1.40546e-08 -5.84032e-07 2.21446e-07)
(-3.55245e-07 -1.83418e-06 5.10884e-07)
(-3.15927e-09 -6.19049e-07 2.77713e-07)
(-2.01808e-07 -6.45046e-06 -1.60602e-06)
(-1.25858e-06 -4.31258e-06 -2.68784e-06)
(-6.07866e-07 -7.17463e-06 -1.10464e-06)
(2.87255e-07 -5.83009e-06 -1.32694e-06)
(-2.10469e-06 -4.9453e-06 -3.09648e-06)
(-1.20962e-06 -8.71673e-06 -1.38579e-06)
(-1.58635e-08 -8.36792e-06 -1.57413e-06)
(-3.6446e-06 -6.02796e-06 -3.55143e-06)
(-2.18213e-06 -1.16107e-05 -1.69357e-06)
(-1.07896e-06 -8.2876e-06 -1.83067e-06)
(-2.63714e-06 -5.98272e-06 -3.29587e-06)
(-1.56016e-06 -1.05601e-05 -1.55314e-06)
(7.29852e-07 -7.39963e-06 -1.99523e-06)
(6.71956e-07 -1.00965e-05 -2.18277e-06)
(3.42415e-06 -1.01372e-05 -3.71343e-07)
(2.96035e-06 -8.57885e-06 -7.94996e-07)
(1.79342e-06 -5.36032e-06 -1.06852e-06)
(2.54409e-06 -7.75912e-06 -9.2449e-07)
(1.1176e-06 -1.15702e-05 -2.08007e-06)
(-1.46216e-06 -6.28813e-06 -9.75828e-07)
(-8.79473e-07 -6.93598e-06 -1.0139e-06)
(-2.49584e-06 -3.88394e-06 -1.61388e-06)
(-7.85114e-07 -5.58697e-06 -7.41028e-07)
(-1.54773e-06 -8.38815e-06 -1.40629e-06)
(-3.63219e-06 -4.4348e-06 -2.21367e-06)
(-1.7872e-06 -7.96765e-06 -1.2473e-06)
(-2.73871e-06 -1.10627e-05 -1.90055e-06)
(-5.96913e-06 -5.27439e-06 -3.24386e-06)
(-2.05527e-06 -1.01107e-05 -1.6765e-06)
(-4.69232e-06 -5.18874e-06 -2.74926e-06)
(-3.02435e-06 -7.77763e-06 -1.73832e-06)
(-1.4464e-06 -1.24184e-05 1.90621e-06)
(-1.25327e-06 -7.5075e-06 6.40437e-07)
(-9.3869e-07 -8.65648e-06 2.1115e-06)
(-2.33593e-06 -9.98981e-06 1.08937e-07)
(-1.44406e-06 -1.25762e-05 1.59135e-06)
(-1.73588e-06 -9.9996e-06 5.38691e-07)
(-1.32298e-06 -8.61415e-06 9.3708e-07)
(-1.84011e-06 -1.4989e-05 1.14662e-06)
(-1.39218e-06 -1.13952e-05 1.73276e-06)
(-8.47362e-07 -5.43401e-06 1.2012e-06)
(-9.31863e-07 -7.90984e-06 1.91694e-06)
(-1.29613e-06 -7.80664e-06 1.05255e-06)
(-1.41778e-06 -1.38681e-05 1.85653e-06)
(-3.42981e-06 -1.30722e-05 -6.09492e-07)
(-2.38892e-06 -1.1431e-05 2.17761e-09)
(-1.82671e-06 -1.66202e-05 1.41241e-06)
(4.07015e-06 -1.0729e-05 -1.49568e-07)
(4.24413e-06 -1.12164e-05 2.41081e-07)
(4.83838e-06 -1.03532e-05 7.50108e-07)
(4.68802e-06 -1.11003e-05 3.65681e-07)
(-4.60787e-06 -8.09926e-06 -2.25156e-06)
(-5.69854e-06 -1.13907e-05 -2.5435e-06)
(-1.15158e-05 -3.18978e-06 -4.90266e-06)
(-4.83383e-06 -1.20696e-05 -2.44672e-06)
(-9.97375e-06 -4.32842e-06 -4.55852e-06)
(-6.34659e-06 -6.90742e-06 -2.61738e-06)
(-4.43166e-06 -8.09065e-06 -2.16681e-06)
(-3.30575e-06 -1.19512e-05 -2.09645e-06)
(-7.17849e-06 -5.38096e-06 -3.72171e-06)
(-4.34999e-06 -1.19956e-05 -2.36325e-06)
(-3.42355e-06 -8.6822e-06 -1.96465e-06)
(-8.74601e-06 -4.90113e-06 -4.1888e-06)
(-1.84194e-06 -1.88938e-05 4.85045e-07)
(-5.53847e-06 -1.3437e-05 -2.10815e-06)
(-4.50535e-06 -1.44831e-05 -1.57592e-06)
(-1.89186e-06 -1.86435e-05 3.86012e-11)
(-1.93495e-06 -1.68011e-05 4.34784e-07)
(-1.60989e-06 -1.0422e-05 3.49845e-07)
(-1.71515e-06 -1.57879e-05 9.67684e-07)
(-1.93517e-06 -1.07317e-05 -1.95527e-08)
(-1.92207e-06 -1.87656e-05 7.18325e-07)
(-3.43507e-06 -1.39741e-05 -7.72097e-07)
(-1.71935e-06 -1.75248e-05 1.25917e-06)
(-4.59036e-06 -1.43329e-05 -1.37193e-06)
(-1.72408e-06 -1.70004e-05 2.54486e-07)
(-1.98321e-06 -9.69226e-06 -5.85828e-07)
(-1.73669e-06 -1.65109e-05 -2.80414e-07)
(-1.77007e-06 -1.06483e-05 -2.09103e-07)
(-3.82263e-06 -5.2618e-06 -1.4759e-06)
(-9.08895e-06 -3.30291e-06 -3.94752e-06)
(-5.48249e-06 -1.12577e-05 -2.07815e-06)
(-3.22488e-06 -6.94974e-06 -1.63956e-06)
(-1.08785e-05 -1.85773e-06 -4.05688e-06)
(-6.62151e-06 -9.95001e-06 -2.18789e-06)
(-3.91383e-06 -3.75931e-06 -1.39596e-06)
(-1.36348e-05 1.52966e-06 -4.10513e-06)
(-8.19161e-06 -6.67301e-06 -2.20179e-06)
(-5.94145e-06 -2.13231e-06 -1.54059e-06)
(-1.21721e-05 -3.78177e-07 -4.08772e-06)
(-7.3942e-06 -8.48292e-06 -2.24926e-06)
(-7.6883e-06 -4.35958e-06 -2.77285e-06)
(-6.46713e-06 -1.05394e-05 -2.69684e-06)
(-1.29686e-05 -2.05026e-06 -5.23931e-06)
(-6.87385e-06 -6.10653e-06 -2.80055e-06)
(-7.65528e-06 -9.21238e-06 -2.84616e-06)
(-1.47585e-05 -5.61485e-07 -5.53254e-06)
(-8.0442e-06 -2.85505e-06 -2.84996e-06)
(-9.22229e-06 -5.90532e-06 -2.89892e-06)
(-1.7825e-05 2.99592e-06 -5.91469e-06)
(-8.46286e-06 -7.75739e-06 -2.94026e-06)
(-1.62586e-05 9.54857e-07 -5.7515e-06)
(-9.98044e-06 -1.1121e-06 -3.02884e-06)
(-1.43256e-06 -1.69639e-05 -5.01822e-07)
(-5.46636e-06 -1.31693e-05 -2.23828e-06)
(-1.60558e-06 -1.83819e-05 -1.46501e-07)
(-6.5609e-06 -1.12238e-05 -2.6304e-06)
(-1.00795e-06 -1.39216e-05 -8.46667e-07)
(-1.30636e-06 -3.8514e-06 -1.24579e-06)
(-1.39366e-06 -6.30924e-06 -1.0785e-06)
(-7.6529e-07 -1.15769e-05 -1.04671e-06)
(-1.20924e-06 -1.47249e-05 -7.44457e-07)
(-1.6602e-06 -9.07592e-06 -7.65438e-07)
(-1.42103e-06 -1.6193e-05 -4.25492e-07)
(-1.59896e-06 -7.20274e-06 -1.01938e-06)
(-1.01979e-06 -1.63595e-05 -5.52551e-07)
(-7.32411e-06 -7.67019e-06 -2.94974e-06)
(-6.43981e-06 -1.05765e-05 -2.68401e-06)
(-8.42877e-07 -1.40121e-05 -7.71164e-07)
(-1.14103e-05 5.23466e-06 -2.84419e-06)
(-1.26866e-05 2.18416e-06 -2.86533e-06)
(-2.4268e-05 1.07518e-05 -6.10774e-06)
(-1.20175e-05 1.01152e-07 -3.01209e-06)
(-2.27861e-05 8.74352e-06 -6.18877e-06)
(-1.36119e-05 6.72098e-06 -2.90942e-06)
(-1.14655e-05 3.01022e-06 -2.98574e-06)
(-1.00676e-05 -3.98739e-06 -2.9776e-06)
(-1.94459e-05 4.81916e-06 -6.07087e-06)
(-1.15816e-05 -2.05583e-06 -3.091e-06)
(-1.06006e-05 7.28945e-07 -3.11781e-06)
(-2.14932e-05 6.58146e-06 -6.17755e-06)
(3.15128e-07 -8.95235e-06 -9.07584e-07)
(-8.69618e-06 9.99622e-07 -3.00925e-06)
(-8.00769e-06 -2.21471e-06 -3.10585e-06)
(7.11661e-07 -6.18979e-06 -7.85023e-07)
(1.04869e-07 -7.74938e-06 -1.15074e-06)
(-8.78321e-07 -2.62852e-06 -1.31234e-06)
(-2.92722e-07 -1.04585e-05 -1.10788e-06)
(-7.34022e-07 8.55197e-08 -1.24658e-06)
(3.9224e-08 -1.01209e-05 -8.80137e-07)
(-7.20523e-06 -6.73264e-06 -2.97253e-06)
(-3.88301e-07 -1.29521e-05 -8.20093e-07)
(-8.32759e-06 -3.71692e-06 -3.071e-06)
(6.28507e-07 -6.58569e-06 -1.13394e-06)
(-1.89315e-07 3.57354e-06 -1.04877e-06)
(1.08897e-06 -3.68031e-06 -1.04373e-06)
(-3.23147e-07 1.27536e-06 -1.24462e-06)
(-6.29728e-06 9.7963e-06 -6.51899e-07)
(-2.07007e-05 1.08749e-05 -4.30499e-06)
(-1.19594e-05 3.3957e-06 -2.15863e-06)
(-8.4818e-06 7.58982e-06 -1.30695e-06)
(-2.18591e-05 1.23836e-05 -4.27636e-06)
(-1.19742e-05 5.27614e-06 -1.95804e-06)
(-4.52176e-06 1.13314e-05 -2.92203e-07)
(-2.21138e-05 1.374e-05 -4.20032e-06)
(-1.0422e-05 7.12021e-06 -1.51293e-06)
(-1.21252e-05 1.08508e-05 -1.95817e-06)
(-1.34205e-05 4.04731e-06 -2.84931e-06)
(-2.57375e-05 1.23295e-05 -6.02706e-06)
(-1.40058e-05 8.5256e-06 -2.829e-06)
(-1.35953e-05 5.89903e-06 -2.57412e-06)
(-2.67771e-05 1.38503e-05 -5.74099e-06)
(-9.88795e-06 1.25485e-05 -1.24016e-06)
(-1.23421e-05 7.6512e-06 -2.06136e-06)
(-2.65836e-05 1.51705e-05 -5.27095e-06)
(1.7046e-06 -3.1062e-06 -3.57703e-07)
(-8.55427e-06 1.85071e-06 -2.91169e-06)
(1.22604e-06 -5.11272e-06 -6.92935e-07)
(-8.67974e-06 4.29461e-06 -2.47811e-06)
(2.41541e-06 -3.48427e-07 -4.26072e-07)
(1.00261e-06 6.51708e-06 -3.97802e-07)
(2.18478e-06 -8.79532e-07 -5.48913e-07)
(3.58893e-07 4.69046e-06 -9.79558e-07)
(1.65113e-06 -2.63745e-06 -9.30035e-07)
(7.54996e-07 6.32205e-06 -5.96447e-07)
(2.31764e-06 -2.4741e-06 -1.62097e-07)
(-8.07583e-06 4.93442e-06 -2.25105e-06)
(-1.19126e-06 -3.0819e-06 -1.79882e-06)
(-3.1087e-06 -2.33225e-07 -3.52264e-06)
(-3.78577e-07 -7.47336e-06 -6.53282e-07)
(-2.48473e-06 -2.88827e-07 -3.1173e-06)
(-2.68507e-07 -6.06699e-06 -5.56039e-07)
(-1.6937e-06 -3.38474e-06 -2.11888e-06)
(-1.5114e-08 -6.13041e-08 -8.10248e-08)
(8.56737e-09 -5.91021e-10 9.50613e-10)
(-3.34642e-08 -6.81512e-08 -1.5235e-08)
(-1.02789e-07 -1.17103e-07 -2.21046e-07)
(1.09132e-07 -4.9733e-08 -1.58429e-07)
(8.85389e-07 -3.56618e-06 -8.81781e-07)
(6.81283e-07 -2.51057e-06 -8.41414e-07)
(-1.00883e-05 -5.94958e-06 -4.18015e-06)
(-2.02762e-05 6.41268e-06 -7.75225e-06)
(-2.86407e-06 -1.98621e-05 -1.14708e-06)
(-1.88342e-05 5.71105e-06 -7.56782e-06)
(-2.61906e-06 -2.00564e-05 -1.13539e-06)
(-1.13578e-05 -5.31043e-06 -4.36162e-06)
(-6.76753e-06 -7.04705e-06 -3.74145e-06)
(-1.11943e-05 2.13358e-06 -6.26764e-06)
(-1.44199e-06 -1.84141e-05 -1.01424e-06)
(-5.96408e-06 -7.31971e-06 -3.57722e-06)
(-1.24149e-05 2.70789e-06 -6.52709e-06)
(-1.72611e-06 -1.89164e-05 -1.06815e-06)
(1.91025e-06 -7.89311e-06 -1.54737e-07)
(2.04375e-06 -8.02855e-06 4.45856e-08)
(2.39498e-06 -6.43808e-06 7.70255e-07)
(2.33573e-06 -7.13164e-06 6.09058e-07)
(-2.40236e-05 7.22381e-06 -5.02493e-06)
(-4.58039e-05 1.85461e-05 -9.4214e-06)
(-6.73975e-06 -6.37339e-06 -1.27529e-06)
(-4.41171e-05 1.78377e-05 -9.3706e-06)
(-6.52728e-06 -7.45982e-06 -1.28764e-06)
(-2.5657e-05 7.84067e-06 -5.12318e-06)
(-1.97834e-05 2.43453e-06 -4.88991e-06)
(-3.41007e-05 1.31455e-05 -8.9186e-06)
(-4.88628e-06 -1.38231e-05 -1.21992e-06)
(-1.88162e-05 1.36068e-06 -4.87839e-06)
(-3.58362e-05 1.39549e-05 -9.0212e-06)
(-5.34675e-06 -1.2834e-05 -1.25579e-06)
(2.34428e-06 2.52046e-08 1.33224e-06)
(2.27341e-06 1.41463e-06 1.34998e-06)
(1.82735e-06 6.54909e-06 1.10011e-06)
(1.96234e-06 5.39806e-06 1.21008e-06)
(6.23231e-07 -5.597e-06 -1.7395e-06)
(-1.83629e-07 -6.72049e-06 -1.96794e-06)
(-9.55541e-08 -4.94064e-06 -1.76046e-06)
(8.83837e-07 -7.80263e-06 -1.84483e-06)
(1.01334e-07 -1.51843e-07 -1.91669e-07)
(9.02034e-08 -4.79963e-08 1.38561e-08)
(7.71856e-07 -3.47424e-06 -1.24238e-06)
(9.22915e-07 -3.87811e-06 -9.81295e-07)
(7.09602e-07 -2.74329e-06 -9.3415e-07)
(1.01158e-06 -4.85873e-06 -1.31252e-06)
(7.99705e-09 -2.78548e-07 -2.29607e-07)
(-2.27969e-08 -1.23567e-07 3.74356e-08)
(-1.49956e-06 -2.7218e-06 -1.64008e-06)
(-6.26817e-07 -7.25931e-06 -3.83508e-07)
(-3.42477e-06 4.55469e-07 -3.71253e-06)
(-4.72176e-07 -5.8828e-06 -2.91583e-07)
(-2.74848e-06 3.0659e-07 -3.24734e-06)
(-2.01416e-06 -2.99518e-06 -1.99489e-06)
(-2.61239e-07 -2.34346e-09 -5.07416e-07)
(-5.45445e-08 -2.49552e-08 -3.22795e-08)
(-1.99475e-07 1.16236e-07 -2.95089e-07)
(-9.63986e-08 -1.50119e-07 -1.3786e-07)
(-4.73569e-07 3.00809e-07 -8.47947e-07)
(-1.08786e-07 -2.6873e-08 -8.82005e-08)
(-7.4528e-07 -5.5827e-06 1.74507e-06)
(-1.39902e-06 -6.57278e-06 3.22185e-07)
(-9.60511e-07 -4.80842e-06 4.70124e-07)
(-1.06794e-06 -7.79017e-06 1.79356e-06)
(-1.74727e-07 -3.43577e-07 5.12724e-07)
(-3.47125e-08 -4.39522e-08 6.34693e-08)
(-1.5818e-07 -2.3277e-07 3.86645e-07)
(-3.6082e-08 -6.44557e-08 8.68417e-08)
(-8.64094e-07 -3.47023e-06 1.34309e-06)
(-1.08348e-06 -3.87863e-06 1.11171e-06)
(-1.17105e-06 -4.85536e-06 1.40097e-06)
(-8.02859e-07 -2.74425e-06 1.06034e-06)
(-4.79326e-08 -5.39494e-07 7.03889e-07)
(-1.1799e-08 -5.40124e-08 8.45587e-08)
(-1.27141e-07 -3.31296e-07 2.11792e-07)
(2.12192e-08 -8.5909e-08 1.14096e-07)
(-2.41533e-06 -4.7159e-06 -2.5267e-06)
(-3.75005e-06 -2.5179e-07 -3.87823e-06)
(-4.08574e-07 -9.12766e-06 -6.80062e-07)
(-1.88269e-06 -4.45999e-06 -2.25368e-06)
(-4.51244e-06 -7.55024e-08 -4.2447e-06)
(-5.60452e-07 -1.04863e-05 -7.64268e-07)
(-4.73973e-06 -7.08119e-06 -3.31166e-06)
(-1.01339e-05 1.72591e-06 -6.03182e-06)
(-1.37076e-06 -1.75502e-05 -1.01629e-06)
(-5.66468e-06 -6.87124e-06 -3.53253e-06)
(-9.02789e-06 1.258e-06 -5.76005e-06)
(-1.16242e-06 -1.67352e-05 -9.71967e-07)
(1.21738e-06 -1.07421e-05 -1.81844e-06)
(-1.292e-07 -7.53872e-06 -1.97322e-06)
(9.69856e-07 -8.54718e-06 -1.85432e-06)
(-2.82698e-07 -9.2028e-06 -2.15339e-06)
(1.96803e-06 -1.00636e-05 -7.9983e-07)
(1.94313e-06 -8.52306e-06 -3.002e-07)
(1.77948e-06 -8.02457e-06 -4.98718e-07)
(2.14623e-06 -1.07829e-05 -5.77173e-07)
(1.32933e-06 -6.70376e-06 -1.2722e-06)
(9.94066e-07 -4.26171e-06 -9.80479e-07)
(1.0919e-06 -5.32654e-06 -1.31587e-06)
(1.20468e-06 -5.38729e-06 -9.33028e-07)
(1.81937e-06 -1.63112e-05 -1.3507e-06)
(-9.7706e-07 -1.49441e-05 -2.06406e-06)
(-6.18797e-07 -1.39866e-05 -2.13197e-06)
(1.97346e-06 -1.7681e-05 -1.12418e-06)
(-2.81534e-06 -4.27704e-06 -2.39416e-06)
(-7.12419e-07 -8.86849e-06 -4.2945e-07)
(-4.12694e-06 5.32261e-07 -4.14154e-06)
(-2.29616e-06 -3.99607e-06 -2.16036e-06)
(-9.1403e-07 -1.01906e-05 -5.46088e-07)
(-4.93731e-06 8.04582e-07 -4.5861e-06)
(-5.53727e-06 -6.16389e-06 -3.64091e-06)
(-2.02331e-06 -1.69904e-05 -1.05592e-06)
(-1.08301e-05 3.30332e-06 -6.87513e-06)
(-1.77602e-06 -1.62176e-05 -9.71305e-07)
(-9.70037e-06 2.73838e-06 -6.53775e-06)
(-6.46641e-06 -5.87011e-06 -3.9364e-06)
(-1.50738e-06 -1.0731e-05 1.6996e-06)
(-1.48364e-06 -7.37788e-06 3.13511e-07)
(-1.17823e-06 -8.535e-06 1.78523e-06)
(-2.00078e-06 -9.02598e-06 8.74183e-08)
(-2.55279e-06 -1.00601e-05 8.44968e-07)
(-2.64938e-06 -8.52192e-06 4.38002e-07)
(-2.36583e-06 -8.02369e-06 6.35866e-07)
(-2.85111e-06 -1.07796e-05 6.14377e-07)
(-1.59928e-06 -6.69992e-06 1.34572e-06)
(-1.18021e-06 -4.26185e-06 1.11188e-06)
(-1.27691e-06 -5.32288e-06 1.4004e-06)
(-1.47581e-06 -5.38713e-06 1.0668e-06)
(-2.41621e-06 -1.63045e-05 1.112e-06)
(-3.97317e-06 -1.45904e-05 -9.57421e-07)
(-3.39786e-06 -1.36429e-05 -6.91533e-07)
(-2.68802e-06 -1.76755e-05 8.54255e-07)
(-3.41239e-08 -4.13551e-08 5.69672e-08)
(-1.4807e-07 -2.09819e-07 3.47528e-07)
(-1.04727e-06 -3.56712e-06 1.02559e-06)
(-7.76153e-07 -2.51254e-06 9.75846e-07)
(1.86165e-06 -7.79824e-06 -2.20024e-07)
(1.70437e-06 -7.37185e-06 -4.10675e-07)
(9.53287e-07 -3.92282e-06 -8.79867e-07)
(1.15441e-06 -4.96808e-06 -8.31383e-07)
(-2.56876e-06 -7.7969e-06 3.8999e-07)
(-2.29158e-06 -7.37092e-06 5.77308e-07)
(-1.14059e-06 -3.92347e-06 1.02632e-06)
(-1.42657e-06 -4.96829e-06 9.84546e-07)
(2.33285e-06 -2.01034e-05 -7.60757e-08)
(-2.80481e-06 -1.60838e-05 -1.6175e-06)
(-2.24025e-06 -1.64198e-05 -1.72547e-06)
(2.35141e-06 -1.98925e-05 1.48916e-07)
(2.35064e-06 -1.137e-05 -2.62725e-07)
(1.99371e-06 -8.6405e-06 -2.31685e-07)
(2.13218e-06 -8.84112e-06 -2.33778e-08)
(2.20102e-06 -1.09703e-05 -4.99847e-07)
(2.13617e-06 -1.90326e-05 -7.93764e-07)
(-9.64855e-07 -1.53805e-05 -1.99851e-06)
(-1.35489e-06 -1.58612e-05 -2.01588e-06)
(2.01912e-06 -1.80713e-05 -1.043e-06)
(2.66375e-06 -1.11323e-05 4.19834e-07)
(2.49355e-06 -7.45965e-06 7.39958e-07)
(2.43226e-06 -8.10884e-06 5.69461e-07)
(2.72366e-06 -1.06106e-05 6.21511e-07)
(-1.12594e-05 -4.61405e-06 -5.04231e-06)
(-3.79969e-06 -1.91285e-05 -1.53248e-06)
(-2.10531e-05 8.5409e-06 -8.99673e-06)
(-3.51872e-06 -1.93429e-05 -1.48437e-06)
(-1.96257e-05 7.7974e-06 -8.78518e-06)
(-1.24804e-05 -3.93027e-06 -5.24605e-06)
(-7.76471e-06 -5.92248e-06 -4.30266e-06)
(-2.1676e-06 -1.78125e-05 -1.11748e-06)
(-1.19503e-05 3.81775e-06 -7.19503e-06)
(-2.4666e-06 -1.83046e-05 -1.20911e-06)
(-6.92446e-06 -6.23313e-06 -4.09822e-06)
(-1.31817e-05 4.46727e-06 -7.51224e-06)
(-3.61728e-06 -2.01031e-05 -2.87668e-07)
(-6.77806e-06 -1.55778e-05 -2.27352e-06)
(-6.16645e-06 -1.59378e-05 -2.08903e-06)
(-3.77903e-06 -1.98918e-05 -5.2703e-07)
(-3.22555e-06 -1.13666e-05 2.91133e-07)
(-2.7415e-06 -8.63891e-06 3.69754e-07)
(-2.94746e-06 -1.09669e-05 5.34636e-07)
(-3.00861e-06 -8.83974e-06 1.62217e-07)
(-3.01706e-06 -1.90287e-05 4.88432e-07)
(-4.06107e-06 -1.50159e-05 -1.03003e-06)
(-2.77439e-06 -1.80661e-05 7.63597e-07)
(-4.71663e-06 -1.54674e-05 -1.36323e-06)
(-3.94981e-06 -1.11297e-05 -4.03151e-07)
(-3.92618e-06 -7.45867e-06 -5.92929e-07)
(-4.15374e-06 -1.06085e-05 -6.06582e-07)
(-3.72211e-06 -8.10757e-06 -4.25833e-07)
(-1.28164e-05 -4.16832e-06 -4.48937e-06)
(-2.17005e-05 7.08399e-06 -7.92346e-06)
(-3.05285e-06 -1.95902e-05 -1.16424e-06)
(-1.1908e-05 -4.92052e-06 -4.41321e-06)
(-2.32233e-05 7.82241e-06 -8.09981e-06)
(-3.39001e-06 -1.91541e-05 -1.19482e-06)
(-1.6901e-05 -3.73419e-07 -4.77019e-06)
(-3.25723e-05 1.23318e-05 -8.83962e-06)
(-4.80092e-06 -1.4818e-05 -1.23556e-06)
(-1.84146e-05 4.04472e-07 -4.8894e-06)
(-3.0923e-05 1.15479e-05 -8.74344e-06)
(-4.51102e-06 -1.5741e-05 -1.23324e-06)
(2.32964e-06 -1.91983e-05 4.22315e-07)
(-2.85835e-06 -1.59901e-05 -1.55587e-06)
(2.35219e-06 -1.97606e-05 2.21055e-07)
(-3.43995e-06 -1.51298e-05 -1.56896e-06)
(2.69378e-06 -6.38225e-06 1.25698e-06)
(2.44867e-06 -1.58255e-06 1.32743e-06)
(2.49905e-06 -2.9109e-06 1.26695e-06)
(2.6297e-06 -5.08109e-06 1.33645e-06)
(2.75867e-06 -9.61657e-06 8.62054e-07)
(2.50606e-06 -7.2038e-06 7.93497e-07)
(2.73719e-06 -1.03923e-05 6.84901e-07)
(2.53272e-06 -6.3299e-06 9.42111e-07)
(2.13684e-06 -1.62411e-05 8.80156e-07)
(-5.48005e-06 -1.07197e-05 -1.30529e-06)
(-4.78453e-06 -1.19545e-05 -1.38424e-06)
(2.03294e-06 -1.49299e-05 9.86163e-07)
(-1.40053e-05 -2.74077e-06 -5.46495e-06)
(-3.98651e-06 -1.88633e-05 -1.5825e-06)
(-2.24524e-05 9.2456e-06 -9.19968e-06)
(-1.30524e-05 -3.52402e-06 -5.36056e-06)
(-4.34126e-06 -1.8422e-05 -1.64085e-06)
(-2.39637e-05 1.00168e-05 -9.39784e-06)
(-1.80897e-05 1.16398e-06 -5.90038e-06)
(-5.81438e-06 -1.40734e-05 -1.81946e-06)
(-3.31444e-05 1.46503e-05 -1.02739e-05)
(-5.52904e-06 -1.50103e-05 -1.80368e-06)
(-3.15366e-05 1.38382e-05 -1.01608e-05)
(-1.95107e-05 1.98119e-06 -6.01817e-06)
(-3.9476e-06 -1.91999e-05 -8.1599e-07)
(-6.84977e-06 -1.54813e-05 -2.32415e-06)
(-3.82648e-06 -1.97616e-05 -6.02969e-07)
(-7.55919e-06 -1.46109e-05 -2.59853e-06)
(-4.77711e-06 -6.37983e-06 -1.23567e-06)
(-4.6991e-06 -1.5806e-06 -1.14936e-06)
(-4.58886e-06 -2.90897e-06 -1.09607e-06)
(-4.87306e-06 -5.07907e-06 -1.31128e-06)
(-4.38332e-06 -9.61399e-06 -8.47646e-07)
(-3.98853e-06 -7.20254e-06 -6.45424e-07)
(-4.21558e-06 -1.03908e-05 -6.7037e-07)
(-4.16221e-06 -6.32767e-06 -7.89711e-07)
(-4.20671e-06 -1.62438e-05 -1.29845e-06)
(-9.59228e-06 -1.01571e-05 -3.10193e-06)
(-8.99352e-06 -1.1412e-05 -3.04867e-06)
(-4.26113e-06 -1.49329e-05 -1.41085e-06)
(-2.65874e-06 -7.89083e-06 3.25893e-07)
(-2.92109e-06 -8.02709e-06 1.29753e-07)
(-3.8293e-06 -6.43702e-06 -5.808e-07)
(-3.62678e-06 -7.12968e-06 -4.24568e-07)
(2.36369e-06 -4.32156e-07 1.31987e-06)
(2.41027e-06 -1.77292e-06 1.2645e-06)
(2.40754e-06 -6.17006e-06 8.20628e-07)
(2.43559e-06 -5.26241e-06 9.60659e-07)
(-4.61626e-06 -4.29784e-07 -1.09228e-06)