/*--------------------------------*- C++ -*----------------------------------*\
| =========                 |                                                 |
| \\      /  F ield         | OpenFOAM: The Open Source CFD Toolbox           |
|  \\    /   O peration     | Version:  2012                                  |
|   \\  /    A nd           | Website:  www.openfoam.com                      |
|    \\/     M anipulation  |                                                 |
\*---------------------------------------------------------------------------*/
FoamFile
{
    version     2.0;
    format      ascii;
    class       surfaceScalarField;
    location    "0.106/fluid";
    object      meshPhi;
}
// * * * * * * * * * * * * * * * * * * * * * * * * * * * * * * * * * * * * * //

dimensions      [0 3 -1 0 0 0 0];
oriented        oriented;


internalField   nonuniform List<scalar> 
46880
(
-1.62355e-07
1.58332e-06
1.55971e-07
2.73161e-09
-1.35739e-06
-5.87051e-06
7.15913e-06
1.29456e-06
2.40935e-08
-2.38479e-06
-1.07167e-05
1.17997e-05
2.2638e-06
5.09602e-08
-3.21148e-06
-1.47489e-05
1.56272e-05
3.06586e-06
8.63786e-08
-3.83351e-06
-1.79815e-05
1.86902e-05
3.70671e-06
1.2723e-07
-4.34527e-06
-2.06688e-05
2.12897e-05
4.24985e-06
1.75775e-07
-4.75396e-06
-2.29016e-05
2.33764e-05
4.6852e-06
2.07575e-07
-5.07408e-06
-2.48988e-05
2.54257e-05
5.02442e-06
2.41959e-07
-5.24609e-06
-2.68728e-05
2.72896e-05
5.21138e-06
2.81237e-07
-5.13333e-06
-2.82698e-05
2.8496e-05
5.13146e-06
3.27473e-07
-4.69707e-06
-2.87949e-05
2.87323e-05
4.75023e-06
3.9717e-07
-3.96186e-06
-2.78803e-05
2.73222e-05
4.08156e-06
5.14751e-07
-2.98539e-06
-2.45603e-05
2.32101e-05
3.15669e-06
7.11019e-07
-1.76989e-06
-1.77246e-05
1.54716e-05
1.02251e-06
2.00146e-06
-4.56164e-07
-8.50168e-06
6.62685e-06
1.30264e-06
8.36896e-07
-1.22322e-07
1.57618e-06
1.0803e-07
2.34853e-09
-1.00842e-06
-5.81705e-06
7.08395e-06
8.91565e-07
2.08817e-08
-1.76077e-06
-1.06017e-05
1.16946e-05
1.56245e-06
4.29508e-08
-2.43849e-06
-1.47682e-05
1.57271e-05
2.18041e-06
7.24245e-08
-3.05301e-06
-1.83967e-05
1.9217e-05
2.75482e-06
1.08724e-07
-3.59907e-06
-2.14701e-05
2.21585e-05
3.27285e-06
1.47456e-07
-4.06072e-06
-2.40412e-05
2.46191e-05
3.71718e-06
1.83071e-07
-4.42149e-06
-2.6231e-05
2.67323e-05
4.06824e-06
2.17417e-07
-4.63941e-06
-2.80874e-05
2.84842e-05
4.29109e-06
2.51396e-07
-4.66659e-06
-2.94713e-05
2.97341e-05
4.35129e-06
2.90236e-07
-4.48322e-06
-3.03211e-05
3.04387e-05
4.23189e-06
3.46515e-07
-4.06927e-06
-3.04139e-05
3.02366e-05
3.90763e-06
4.31844e-07
-3.42469e-06
-2.89668e-05
2.82553e-05
3.3793e-06
5.3957e-07
-2.60678e-06
-2.52911e-05
2.41065e-05
2.69853e-06
6.16203e-07
-1.86275e-06
-2.06311e-05
1.97319e-05
4.18541e-07
2.07e-06
-6.23294e-08
1.51367e-06
4.6859e-08
1.8875e-09
-5.17767e-07
-5.61574e-06
6.85568e-06
3.90299e-07
1.71293e-08
-9.18453e-07
-1.03359e-05
1.14289e-05
6.93848e-07
3.58451e-08
-1.30499e-06
-1.45307e-05
1.55093e-05
9.89205e-07
6.04963e-08
-1.68485e-06
-1.82618e-05
1.91168e-05
1.28404e-06
9.06333e-08
-2.04345e-06
-2.14772e-05
2.22e-05
1.5665e-06
1.23346e-07
-2.36125e-06
-2.41729e-05
2.47719e-05
1.81893e-06
1.55334e-07
-2.62246e-06
-2.6388e-05
2.68742e-05
2.02913e-06
1.85701e-07
-2.81429e-06
-2.81689e-05
2.85545e-05
2.18975e-06
2.14868e-07
-2.92292e-06
-2.95752e-05
2.98808e-05
2.29071e-06
2.45521e-07
-2.9401e-06
-3.06787e-05
3.09037e-05
2.32644e-06
2.81606e-07
-2.84807e-06
-3.13749e-05
3.14483e-05
2.28592e-06
3.21355e-07
-2.64519e-06
-3.13154e-05
3.11399e-05
2.16518e-06
3.46106e-07
-2.35009e-06
-3.0248e-05
2.9871e-05
1.97258e-06
2.97262e-07
-2.03511e-06
-2.87729e-05
2.84995e-05
1.75045e-06
7.35927e-08
-1.12262e-08
-1.59455e-07
1.58111e-06
1.49837e-07
1.37799e-08
-9.70392e-08
-1.30913e-06
-5.86522e-06
7.13139e-06
1.23403e-06
1.18347e-07
-1.90162e-07
-2.23394e-06
-1.05734e-05
1.16278e-05
2.12187e-06
2.27942e-07
-3.08186e-07
-3.03272e-06
-1.46117e-05
1.55334e-05
2.89882e-06
3.6557e-07
-4.5471e-07
-3.7005e-06
-1.8041e-05
1.8809e-05
3.57707e-06
5.3919e-07
-6.19787e-07
-4.28603e-06
-2.09993e-05
2.1699e-05
4.18698e-06
7.33859e-07
-7.71437e-07
-4.79287e-06
-2.35955e-05
2.41749e-05
4.71236e-06
9.22205e-07
-9.15124e-07
-5.2308e-06
-2.59875e-05
2.65973e-05
5.16063e-06
1.10493e-06
-1.07018e-06
-5.48957e-06
-2.82792e-05
2.87736e-05
5.43359e-06
1.29789e-06
-1.25287e-06
-5.43231e-06
-3.00643e-05
3.04324e-05
5.4104e-06
1.52214e-06
-1.53148e-06
-5.08289e-06
-3.13264e-05
3.15329e-05
5.11301e-06
1.86269e-06
-1.99764e-06
-4.48816e-06
-3.17623e-05
3.16701e-05
4.57714e-06
2.4295e-06
-2.77228e-06
-3.76015e-06
-3.07511e-05
3.01863e-05
3.88326e-06
3.36928e-06
-3.0609e-06
-3.98891e-06
-2.75459e-05
2.6337e-05
4.82833e-06
3.1929e-06
-2.55357e-06
-4.85637e-06
-2.21865e-05
2.0985e-05
5.80329e-06
2.67833e-06
-8.75022e-09
-1.13046e-07
1.53873e-06
9.93992e-08
1.05156e-08
-7.81254e-08
-9.42742e-07
-5.74977e-06
7.0191e-06
8.31917e-07
9.39272e-08
-1.5945e-07
-1.65821e-06
-1.05592e-05
1.16674e-05
1.47456e-06
1.91536e-07
-2.67043e-07
-2.32314e-06
-1.4806e-05
1.5793e-05
2.08265e-06
3.20133e-07
-4.01526e-07
-2.95261e-06
-1.85778e-05
1.94479e-05
2.66743e-06
4.81187e-07
-5.48837e-07
-3.54066e-06
-2.18906e-05
2.26505e-05
3.21953e-06
6.59372e-07
-6.89755e-07
-4.06395e-06
-2.47586e-05
2.54115e-05
3.71587e-06
8.32958e-07
-8.25077e-07
-4.50094e-06
-2.72493e-05
2.78222e-05
4.12992e-06
1.0008e-06
-9.61585e-07
-4.7931e-06
-2.93867e-05
2.98573e-05
4.41774e-06
1.1701e-06
-1.11689e-06
-4.8798e-06
-3.11256e-05
3.1511e-05
4.53558e-06
1.36016e-06
-1.3334e-06
-4.76705e-06
-3.25726e-05
3.28922e-05
4.48274e-06
1.62143e-06
-1.64816e-06
-4.45335e-06
-3.3636e-05
3.37808e-05
4.25063e-06
1.99674e-06
-2.05095e-06
-3.97782e-06
-3.37554e-05
3.35733e-05
3.87542e-06
2.48465e-06
-2.34649e-06
-3.48542e-06
-3.24994e-05
3.19738e-05
3.48071e-06
2.85221e-06
-3.0533e-06
-1.57345e-06
-3.0147e-05
2.96256e-05
1.89774e-06
3.0957e-06
-7.00636e-09
-5.7301e-08
1.48598e-06
4.32878e-08
8.42796e-09
-6.40807e-08
-4.84972e-07
-5.58585e-06
6.83879e-06
3.66745e-07
7.72013e-08
-1.3443e-07
-8.73914e-07
-1.03749e-05
1.14934e-05
6.62298e-07
1.62247e-07
-2.27204e-07
-1.25588e-06
-1.46799e-05
1.56894e-05
9.54427e-07
2.74427e-07
-3.41226e-07
-1.63848e-06
-1.85507e-05
1.94488e-05
1.25052e-06
4.12704e-07
-4.66375e-07
-2.01186e-06
-2.19602e-05
2.27388e-05
1.54246e-06
5.65383e-07
-5.90834e-07
-2.35424e-06
-2.48881e-05
2.55468e-05
1.81161e-06
7.17641e-07
-7.09516e-07
-2.64348e-06
-2.73406e-05
2.78855e-05
2.04117e-06
8.63101e-07
-8.24828e-07
-2.87052e-06
-2.9362e-05
2.98143e-05
2.22784e-06
1.00475e-06
-9.46618e-07
-3.02215e-06
-3.10727e-05
3.14775e-05
2.36341e-06
1.15433e-06
-1.08752e-06
-3.09032e-06
-3.26466e-05
3.30261e-05
2.44145e-06
1.32654e-06
-1.23873e-06
-3.06809e-06
-3.40662e-05
3.43718e-05
2.45819e-06
1.51015e-06
-1.33029e-06
-2.97502e-06
-3.50576e-05
3.5198e-05
2.42683e-06
1.6221e-06
-1.14486e-06
-2.83938e-06
-3.53256e-05
3.52873e-05
2.35577e-06
1.3981e-06
-2.89827e-07
-2.63855e-06
-3.50535e-05
3.4985e-05
2.21776e-06
3.55892e-07
-1.87791e-08
-1.3769e-07
1.55019e-06
1.27951e-07
1.95524e-08
-1.60564e-07
-1.1302e-06
-5.73901e-06
6.97735e-06
1.05631e-06
1.66927e-07
-3.05322e-07
-1.92582e-06
-1.03842e-05
1.14406e-05
1.82523e-06
3.18922e-07
-4.84492e-07
-2.65108e-06
-1.44444e-05
1.5399e-05
2.54165e-06
5.06672e-07
-7.14354e-07
-3.36995e-06
-1.81626e-05
1.90537e-05
3.25869e-06
7.47849e-07
-9.80084e-07
-4.09279e-06
-2.16666e-05
2.2517e-05
3.98748e-06
1.03068e-06
-1.25628e-06
-4.80599e-06
-2.50036e-05
2.58085e-05
4.70769e-06
1.3298e-06
-1.54253e-06
-5.45741e-06
-2.81602e-05
2.88999e-05
5.35651e-06
1.64053e-06
-1.82943e-06
-5.84191e-06
-3.09528e-05
3.15735e-05
5.75667e-06
1.94845e-06
-2.14611e-06
-5.85006e-06
-3.3375e-05
3.39846e-05
5.80833e-06
2.28367e-06
-2.6266e-06
-5.66142e-06
-3.60159e-05
3.67641e-05
5.66589e-06
2.79285e-06
-3.41928e-06
-5.37575e-06
-3.91985e-05
4.0069e-05
5.41268e-06
3.62971e-06
-4.71466e-06
-5.11891e-06
-4.29349e-05
4.39704e-05
5.16366e-06
4.9883e-06
-5.21996e-06
-6.6604e-06
-4.71184e-05
4.80652e-05
7.01462e-06
5.1994e-06
-5.80228e-06
-7.80649e-06
-4.99405e-05
5.02303e-05
8.1997e-06
5.586e-06
-1.41284e-08
-9.44918e-08
1.51415e-06
8.29478e-08
1.47688e-08
-1.27366e-07
-7.99329e-07
-5.69056e-06
6.96568e-06
7.0723e-07
1.3328e-07
-2.61063e-07
-1.44278e-06
-1.05638e-05
1.17047e-05
1.29395e-06
2.74976e-07
-4.36164e-07
-2.07737e-06
-1.49763e-05
1.60171e-05
1.87901e-06
4.60269e-07
-6.55568e-07
-2.71407e-06
-1.90093e-05
1.9969e-05
2.46361e-06
6.91922e-07
-9.05908e-07
-3.36665e-06
-2.27649e-05
2.36707e-05
3.06299e-06
9.59254e-07
-1.16354e-06
-4.01989e-06
-2.62681e-05
2.70845e-05
3.66594e-06
1.23868e-06
-1.41639e-06
-4.59633e-06
-2.93656e-05
3.0067e-05
4.19415e-06
1.51249e-06
-1.66641e-06
-5.00142e-06
-3.2006e-05
3.26075e-05
4.5841e-06
1.78083e-06
-1.93804e-06
-5.18533e-06
-3.4381e-05
3.49943e-05
4.80628e-06
2.07137e-06
-2.30404e-06
-5.22315e-06
-3.69869e-05
3.77102e-05
4.90528e-06
2.46198e-06
-2.82163e-06
-5.1418e-06
-4.00558e-05
4.08906e-05
4.89305e-06
3.01053e-06
-3.50557e-06
-5.00886e-06
-4.35014e-05
4.4388e-05
4.82906e-06
3.72844e-06
-3.99602e-06
-4.96388e-06
-4.68645e-05
4.75728e-05
4.81776e-06
4.22415e-06
-4.98925e-06
-2.62989e-06
-4.92288e-05
4.95964e-05
2.78827e-06
4.7937e-06
-1.14718e-08
-4.90153e-08
1.49527e-06
3.75437e-08
1.20953e-08
-1.06236e-07
-4.26069e-07
-5.64248e-06
6.92134e-06
3.27078e-07
1.12004e-07
-2.25179e-07
-7.96992e-07
-1.05551e-05
1.17161e-05
6.12692e-07
2.38773e-07
-3.82971e-07
-1.16808e-06
-1.50649e-05
1.61365e-05
8.96882e-07
4.07151e-07
-5.7822e-07
-1.53624e-06
-1.92196e-05
2.02075e-05
1.17956e-06
6.15478e-07
-7.98004e-07
-1.92134e-06
-2.30538e-05
2.39623e-05
1.47743e-06
8.51765e-07
-1.02075e-06
-2.31044e-06
-2.65131e-05
2.72983e-05
1.77678e-06
1.09256e-06
-1.23208e-06
-2.64648e-06
-2.944e-05
3.0093e-05
2.03757e-06
1.31967e-06
-1.43865e-06
-2.93674e-06
-3.19074e-05
3.24842e-05
2.27321e-06
1.54201e-06
-1.65714e-06
-3.18478e-06
-3.42008e-05
3.48002e-05
2.4891e-06
1.77815e-06
-1.90602e-06
-3.38301e-06
-3.67289e-05
3.74258e-05
2.67472e-06
2.04591e-06
-2.16849e-06
-3.52753e-06
-3.96551e-05
4.04395e-05
2.82726e-06
2.32488e-06
-2.32484e-06
-3.64778e-06
-4.28175e-05
4.35952e-05
2.9673e-06
2.48458e-06
-1.99643e-06
-3.74801e-06
-4.57343e-05
4.63514e-05
3.08218e-06
2.12312e-06
-5.07958e-07
-3.70465e-06
-4.78157e-05
4.81684e-05
3.06016e-06
5.35727e-07
-5.95901e-06
-1.41223e-07
3.8594e-06
1.59789e-06
5.96206e-08
-3.27403e-08
-4.50045e-07
-2.10474e-08
6.03464e-06
-1.51412e-05
1.77676e-06
-4.70475e-06
-1.5922e-06
1.35162e-05
-1.43398e-07
4.62221e-07
1.323e-07
-4.60988e-07
-3.33297e-06
-2.05891e-05
-2.4653e-06
1.92383e-05
7.18867e-06
5.6288e-07
-5.67867e-07
-4.07991e-06
-1.52301e-07
9.60581e-06
-4.17487e-05
5.04742e-06
-8.96967e-06
-5.20157e-06
4.15188e-05
-1.75872e-07
1.27856e-06
1.7435e-07
-1.32624e-06
-1.08358e-05
-4.98531e-05
-6.01261e-06
5.00988e-05
1.00837e-05
1.36825e-06
-1.42114e-06
-1.19567e-05
-1.74854e-07
-1.5938e-05
-1.55799e-06
1.35181e-05
1.07511e-06
7.54066e-07
-4.82941e-07
1.47014e-06
-8.36697e-06
4.27546e-06
-2.23915e-05
2.58598e-06
-3.26346e-06
-2.42444e-06
2.07003e-05
5.71367e-06
1.94783e-06
-4.4218e-06
-1.7738e-06
-1.69638e-05
1.51555e-08
-6.07789e-07
-1.76653e-08
1.6307e-07
3.64957e-07
2.0114e-07
3.49658e-06
5.62154e-07
1.00471e-06
6.23168e-07
9.73556e-07
-4.8784e-06
-2.99061e-07
-3.59966e-07
-2.99558e-07
-3.85318e-07
-3.80318e-08
-7.33209e-08
-5.05695e-08
-4.55407e-06
1.36819e-08
6.26448e-07
-1.77248e-05
-1.57366e-06
1.65951e-05
5.72822e-07
1.61203e-06
-1.33057e-06
-1.53155e-05
-1.43118e-07
-1.70248e-05
-3.77602e-06
1.55694e-05
1.99933e-06
8.09861e-08
-3.68485e-07
-4.45549e-07
-3.49724e-07
-4.65921e-08
-1.39336e-05
1.83996e-06
2.14382e-06
-2.42283e-05
2.61221e-06
-1.65787e-06
-2.44271e-06
2.337e-05
-5.31189e-07
2.37424e-06
4.12622e-07
-2.22401e-06
-2.23735e-05
-2.63052e-05
-2.92698e-06
2.50319e-05
5.18458e-06
2.64539e-06
-2.53308e-06
6.8412e-06
-2.20839e-05
7.15786e-06
-4.12834e-05
4.6898e-06
-6.63455e-06
-4.64287e-06
4.16622e-05
9.21337e-06
4.92726e-06
-8.58879e-06
-4.97583e-06
-4.18994e-05
8.29019e-06
-6.95151e-06
2.33655e-06
4.863e-06
3.99249e-06
4.05432e-06
4.79476e-06
-1.9031e-05
3.26597e-06
9.40038e-06
5.72705e-06
6.56595e-06
5.65291e-06
6.64435e-06
-2.56513e-05
-5.48989e-07
-6.66712e-07
-6.55087e-07
-1.9617e-05
1.24497e-07
2.53529e-06
-2.82644e-05
-2.95041e-06
2.75789e-05
2.5786e-06
2.81983e-06
-2.7428e-06
-2.67625e-05
-6.36353e-07
-4.22751e-05
-7.27856e-06
4.21231e-05
4.90124e-06
2.66515e-07
-1.18417e-06
-1.28152e-06
-1.1852e-06
-2.21712e-07
-4.1848e-05
4.76232e-06
3.54217e-06
-4.37305e-05
4.5225e-06
-3.2798e-06
-4.64045e-06
4.37999e-05
-8.72422e-07
4.32133e-06
8.05599e-07
-4.46973e-06
-4.38711e-05
-4.6808e-05
-5.19531e-06
4.78539e-05
7.53732e-06
5.63028e-06
-5.71568e-06
9.6773e-06
-4.94234e-05
1.15327e-05
-1.10045e-05
5.81487e-06
1.29606e-05
1.17414e-05
1.18303e-05
1.28695e-05
-4.92508e-05
6.50762e-06
1.18991e-05
1.40996e-05
1.51694e-05
1.40103e-05
1.52597e-05
-5.77984e-05
-1.37364e-06
-1.45326e-06
-1.46044e-06
-5.04071e-05
3.04003e-07
5.43138e-06
-4.94908e-05
-5.17276e-06
4.98655e-05
3.74583e-06
4.79647e-06
-5.00891e-06
-5.03056e-05
-9.25178e-07
1.73315e-06
5.7093e-07
2.58032e-07
4.18398e-07
4.3807e-07
-2.32718e-08
8.05585e-09
1.05656e-08
-3.97906e-06
1.57701e-06
6.36603e-07
2.7482e-08
5.32301e-08
5.6553e-08
3.00789e-08
7.49018e-07
3.51638e-07
4.72936e-07
2.30293e-07
-3.53146e-07
5.64001e-06
3.20814e-06
6.77346e-07
-7.63342e-06
3.69492e-06
8.23194e-07
1.04558e-06
6.88405e-07
1.16849e-06
-5.92452e-06
1.30357e-06
3.10305e-06
6.92125e-09
-1.73079e-08
3.47628e-08
-4.13327e-08
1.05172e-06
9.77036e-07
7.14696e-07
4.58906e-07
1.7134e-08
5.22102e-07
1.51562e-07
2.64564e-08
-8.52587e-08
1.4819e-07
6.51341e-08
-1.25373e-07
-1.11511e-06
5.7501e-07
9.9563e-08
-5.31204e-08
-4.37351e-07
1.19087e-06
-5.36048e-06
1.45469e-06
2.6226e-06
3.25439e-06
3.30704e-06
2.58187e-06
-1.32723e-05
7.04705e-07
2.00501e-06
1.4552e-06
1.45611e-06
1.982e-06
-8.50209e-06
-8.56396e-07
8.92816e-06
-1.07672e-05
1.1287e-06
-5.45616e-06
6.99248e-06
2.70981e-06
3.26368e-06
2.59496e-06
3.38018e-06
-1.38627e-05
-4.50126e-06
3.49467e-06
5.74182e-06
-3.09908e-07
-4.1831e-07
-3.00155e-07
-4.2306e-07
2.83009e-06
3.29728e-06
2.62238e-06
1.65232e-06
2.11704e-06
1.48226e-06
1.60001e-06
2.00095e-06
-9.28707e-06
1.72807e-06
-2.03982e-07
-9.52796e-08
-1.148e-07
-1.89268e-07
1.49195e-06
2.23532e-06
2.00953e-06
9.4754e-07
2.09049e-07
-1.03388e-07
-1.90058e-07
-1.54252e-06
1.06494e-06
4.30888e-07
3.40242e-06
-9.52153e-07
-4.03671e-07
1.64322e-07
-1.20249e-07
1.61766e-06
7.07131e-07
8.3104e-06
4.91965e-06
3.99882e-06
4.79926e-06
4.11558e-06
-1.9495e-05
6.81923e-06
4.23629e-06
-6.71116e-07
-5.47008e-07
-5.466e-07
-6.76602e-07
4.05932e-06
5.03558e-06
4.86915e-06
2.49122e-06
-3.39579e-06
2.59262e-05
8.16603e-06
3.39199e-06
-2.69512e-05
9.41713e-06
5.77701e-06
6.56764e-06
5.65561e-06
6.69376e-06
-2.60406e-05
6.81468e-06
7.73303e-06
-8.01015e-07
-9.42781e-07
-8.11599e-07
-9.27223e-07
6.68129e-06
5.90201e-06
5.75799e-06
3.38901e-06
5.4027e-07
4.14758e-06
-5.15801e-07
1.16931e-06
-1.69173e-07
8.78515e-07
1.64716e-07
-9.03165e-07
-6.68872e-06
1.44196e-06
8.73647e-07
-8.64497e-07
-1.35752e-06
6.74905e-06
-1.02993e-05
5.0367e-06
9.65279e-06
1.0642e-05
1.07309e-05
9.56638e-06
-4.09166e-05
4.17999e-06
8.61277e-06
7.52408e-06
7.60572e-06
8.52805e-06
-3.29965e-05
-4.32187e-06
3.34087e-05
-3.40596e-05
4.23637e-06
-1.03217e-05
1.10366e-05
9.69852e-06
1.06399e-05
9.56496e-06
1.07792e-05
-4.12409e-05
-8.48586e-06
1.09157e-05
9.08252e-06
-1.29662e-06
-1.44354e-06
-1.32665e-06
-1.40866e-06
9.83933e-06
1.08556e-05
9.76799e-06
5.14268e-06
8.66053e-06
7.52454e-06
7.65194e-06
8.52778e-06
-3.33428e-05
7.78382e-06
-1.17619e-06
-1.07553e-06
-1.05514e-06
-1.20148e-06
7.67512e-06
8.78827e-06
8.6905e-06
4.28626e-06
9.8332e-07
-1.71484e-07
-1.01387e-06
-7.66496e-06
1.70195e-06
1.29954e-06
1.0882e-05
-1.64612e-06
-1.29971e-06
9.88357e-07
-9.79623e-07
7.7227e-06
1.51647e-06
1.15747e-05
1.30117e-05
1.17381e-05
1.28655e-05
1.1878e-05
-4.95688e-05
9.53346e-06
1.20273e-05
-1.62066e-06
-1.55828e-06
-1.51905e-06
-1.66454e-06
1.19967e-05
1.3155e-05
1.31372e-05
5.93476e-06
-6.74553e-06
5.89649e-05
1.04081e-05
6.48859e-06
-5.81711e-05
1.19471e-05
1.41509e-05
1.51638e-05
1.40053e-05
1.53145e-05
-5.81244e-05
1.54651e-05
9.84683e-06
-1.72043e-06
-1.86455e-06
-1.76848e-06
-1.81162e-06
1.54972e-05
1.43069e-05
1.43227e-05
6.65354e-06
1.39897e-06
1.19997e-05
-1.39723e-06
1.747e-06
-1.75238e-07
1.60972e-06
1.73957e-07
-1.67815e-06
-1.54398e-05
1.85128e-06
1.65409e-06
-1.65622e-06
-1.82117e-06
1.547e-05
7.12176e-06
1.75922e-05
1.63284e-05
1.64124e-05
1.75091e-05
-6.64423e-05
-7.40517e-06
6.79878e-05
-6.65677e-05
7.10452e-06
1.76582e-05
1.63219e-05
1.64678e-05
1.75032e-05
-6.68116e-05
1.66345e-05
-1.98426e-06
-1.95856e-06
-1.90116e-06
-2.04598e-06
1.67078e-05
1.7816e-05
1.79072e-05
7.30225e-06
1.68177e-06
-1.73091e-07
-1.75575e-06
-1.6628e-05
1.73467e-06
-1.73384e-06
1.66531e-05
1.86844e-06
5.00131e-07
-2.44348e-08
6.56945e-07
-3.33799e-07
-6.82931e-07
-8.99785e-07
2.42929e-07
9.57836e-07
-4.88825e-09
4.30527e-09
-3.21165e-09
3.35589e-09
2.45083e-07
1.89468e-07
1.94793e-07
-7.93425e-07
-1.54278e-08
-1.63477e-09
1.06683e-06
2.02183e-07
2.4569e-07
1.97089e-07
2.53061e-07
-9.73229e-09
-1.33898e-08
-1.36068e-08
-9.1954e-09
-1.02597e-07
-9.86713e-08
1.37243e-07
1.05455e-07
1.47981e-07
-4.70439e-07
-4.84592e-08
1.56778e-07
1.15364e-07
1.14882e-07
1.54254e-07
9.41055e-07
-2.26431e-08
-2.69875e-07
2.83563e-08
6.32454e-08
-1.64645e-08
-2.26202e-08
-3.15059e-09
-3.36596e-08
1.55238e-08
1.43321e-08
1.08513e-09
-5.0649e-08
3.7786e-08
8.00965e-08
7.53306e-08
4.50458e-08
-3.34348e-07
-2.5501e-08
-3.78352e-08
-2.96157e-08
-3.76507e-08
5.66769e-06
7.17175e-07
2.34619e-06
-2.1833e-06
-2.28742e-06
-6.59573e-06
2.40695e-06
1.94244e-07
2.0786e-07
1.94215e-07
2.09299e-07
1.70012e-06
1.58109e-06
-2.497e-06
-8.32125e-07
8.78465e-07
2.62986e-06
1.56864e-06
1.64851e-06
1.5312e-06
1.68963e-06
-2.14025e-06
1.81583e-07
1.66432e-07
1.66111e-07
1.80451e-07
1.34981e-06
1.46235e-06
-2.33391e-06
7.54005e-07
1.45496e-06
1.30792e-06
1.34064e-06
1.41891e-06
2.46292e-06
-2.03693e-06
4.79324e-06
6.01903e-07
-3.97696e-06
1.99237e-06
-1.81726e-06
1.24702e-07
1.1023e-07
1.09397e-07
1.24239e-07
9.30712e-07
1.02837e-06
-4.85996e-07
2.17115e-06
-1.978e-06
5.04716e-07
1.02671e-06
9.03602e-07
9.27543e-07
9.99898e-07
-1.84438e-06
1.37805e-07
1.52433e-07
1.53221e-07
1.38291e-07
1.23802e-06
1.13256e-06
6.29406e-07
1.12656e-06
1.20237e-06
1.23371e-06
1.09845e-06
1.4176e-05
1.49616e-06
3.06081e-06
-2.99435e-06
-2.96504e-06
-1.53579e-05
2.99638e-06
3.71572e-07
3.78577e-07
3.70471e-07
3.81155e-07
3.93565e-06
3.78636e-06
-3.25752e-06
-1.569e-06
1.69647e-06
3.29401e-06
3.74125e-06
3.80464e-06
3.65758e-06
3.89329e-06
-2.90998e-06
3.64984e-07
3.53563e-07
3.54462e-07
3.62354e-07
3.48716e-06
3.63448e-06
-3.19613e-06
1.61329e-06
3.59641e-06
3.36901e-06
3.44656e-06
3.51432e-06
3.08636e-06
-2.95068e-06
1.30106e-05
1.41959e-06
-1.18637e-05
2.8613e-06
-2.78703e-06
3.28256e-07
3.15509e-07
3.16329e-07
3.25762e-07
2.90337e-06
3.04543e-06
-1.33539e-06
3.13985e-06
-3.05649e-06
1.43215e-06
3.01596e-06
2.80625e-06
2.87154e-06
2.94634e-06
-2.86349e-06
3.36372e-07
3.44764e-07
3.47284e-07
3.35299e-07
3.33749e-06
3.1925e-06
1.52663e-06
3.15646e-06
3.2281e-06
3.30409e-06
3.08519e-06
2.16348e-07
1.34745e-08
-1.87868e-07
2.39086e-07
-9.40048e-09
2.63663e-09
-1.99473e-08
1.98534e-08
1.79465e-08
-2.21319e-07
5.46646e-09
-1.2894e-08
4.14326e-08
6.57684e-07
7.58724e-07
-4.98185e-07
-8.08747e-07
1.00863e-08
1.06699e-06
2.03974e-07
2.43216e-07
1.95155e-07
2.53895e-07
-7.37271e-07
-1.00477e-06
2.53015e-07
9.64886e-07
6.83117e-09
-6.32886e-10
8.78041e-09
-2.12212e-09
2.41011e-07
2.0278e-07
1.91616e-07
-5.20004e-07
1.61401e-07
1.15393e-07
1.53126e-07
1.22676e-07
-4.94906e-07
1.24152e-07
1.46409e-08
2.26455e-08
1.9806e-08
1.68327e-08
1.60154e-07
1.09554e-07
1.47056e-07
9.95018e-07
5.6895e-08
4.03484e-07
-2.40852e-07
2.18225e-07
-4.278e-08
4.14062e-08
1.63375e-08
2.74491e-08
3.07498e-08
2.35185e-09
5.49353e-09
6.91176e-09
2.50849e-07
-2.64037e-07
4.17459e-08
1.66802e-08
1.3939e-08
2.04486e-08
1.21747e-08
2.38917e-08
4.90686e-08
3.39531e-08
6.2586e-08
8.25902e-08
5.24208e-08
9.05242e-08
9.13792e-08
2.17217e-08
2.61e-08
2.26977e-08
2.57637e-08
7.75316e-08
6.58729e-08
5.26205e-08
8.8865e-08
-5.7192e-08
-9.89371e-09
1.40044e-08
-9.33953e-08
7.11439e-08
2.09827e-07
3.48802e-09
1.25387e-09
-1.84706e-07
2.4156e-07
-1.08454e-07
-1.51644e-08
1.10371e-07
1.34929e-07
2.12168e-08
2.18454e-07
1.11374e-07
6.95498e-09
-9.84212e-08
-1.45426e-09
-2.2495e-07
3.72277e-08
-5.87901e-08
-6.74817e-09
9.39143e-09
5.48257e-08
-2.85582e-08
4.07647e-09
-3.11169e-09
-5.18308e-09
-1.26265e-08
-2.18729e-08
9.61474e-09
-5.61209e-08
1.6141e-08
-9.30087e-09
-1.47449e-08
-7.16677e-09
1.04937e-08
1.20519e-08
7.79046e-09
-3.63491e-09
6.22931e-09
4.62951e-08
8.46714e-08
-4.3614e-08
3.30283e-08
-3.50911e-08
-2.18139e-07
3.85806e-08
7.25914e-08
1.43744e-08
-6.41152e-08
-1.18805e-08
2.14101e-07
1.3576e-08
-8.64179e-08
-1.36882e-08
-2.76311e-08
-1.25201e-08
1.63635e-08
-6.27105e-08
-4.37182e-08
-1.5134e-08
1.689e-08
3.00634e-08
2.98477e-08
-1.86153e-08
7.9241e-08
2.40703e-08
-8.18385e-08
-1.08476e-08
1.58713e-08
1.14687e-08
-1.67151e-08
-1.22175e-06
1.92244e-06
1.68682e-07
1.43834e-06
-1.37298e-06
1.2173e-06
3.04738e-07
2.1945e-08
1.29568e-08
1.11175e-08
2.27749e-08
3.01985e-07
3.66082e-07
3.62427e-07
-8.27363e-08
1.32902e-06
7.18751e-08
3.69176e-07
2.98853e-07
3.08049e-07
3.58003e-07
1.43116e-06
5.03706e-07
3.19223e-08
4.49619e-08
4.44395e-08
3.3468e-08
4.32257e-07
5.00326e-07
4.29708e-07
1.55806e-06
1.64053e-07
4.3395e-07
4.9074e-07
5.05508e-07
4.21419e-07
1.66579e-06
2.5373e-06
2.66522e-07
-3.22406e-06
-1.63957e-06
8.19435e-08
9.64891e-08
9.66311e-08
8.29601e-08
8.348e-07
7.45448e-07
-3.73949e-07
-1.78355e-06
3.84151e-07
7.44979e-07
8.13016e-07
8.35634e-07
7.25089e-07
5.86187e-07
6.95921e-08
5.70734e-08
5.57214e-08
6.97986e-08
5.77869e-07
6.66357e-07
6.58242e-07
2.69114e-07
6.61447e-07
5.63831e-07
5.80012e-07
6.42813e-07
2.23185e-08
2.9731e-07
2.46291e-07
3.19988e-07
4.99435e-07
-2.96447e-07
5.57306e-08
-3.72264e-08
8.99385e-08
3.52632e-08
2.86681e-08
-3.10027e-08
5.99382e-08
2.64779e-08
-2.79007e-07
-2.24191e-08
2.67187e-08
5.06762e-08
5.76917e-07
6.81839e-08
3.44487e-07
-1.23318e-06
-1.84952e-07
1.96516e-06
1.43941e-06
8.80878e-08
1.31913e-06
3.68385e-07
2.95783e-07
3.07288e-07
3.54475e-07
-1.44194e-06
1.18576e-06
3.11461e-07
-2.48737e-08
-1.18226e-08
-1.31994e-08
-2.39097e-08
2.97456e-07
3.70746e-07
3.58161e-07
1.54328e-06
4.32337e-07
4.86226e-07
4.17357e-07
5.04038e-07
1.38746e-06
5.07611e-07
-3.8469e-08
-5.1657e-08
-5.21782e-08
-3.75278e-08
4.35685e-07
4.97113e-07
4.25841e-07
-2.96485e-07
2.56929e-06
1.65171e-06
-1.76388e-06
4.18054e-07
1.9568e-06
7.42415e-07
8.06191e-07
7.18801e-07
8.33403e-07
-1.58381e-06
-3.2495e-06
8.43705e-07
1.75909e-06
-9.97099e-08
-1.16432e-07
-9.96276e-08
-1.16006e-07
8.34657e-07
7.52883e-07
7.44328e-07
6.59393e-07
5.58716e-07
6.37154e-07
5.77717e-07
5.88664e-07
-8.28234e-08
-6.71023e-08
-6.76209e-08
-8.27857e-08
5.75248e-07
6.6847e-07
6.56414e-07
1.82857e-06
4.72352e-07
1.61858e-07
4.40988e-08
-1.50196e-07
-3.57335e-08
-4.8209e-07
1.42564e-08
-8.4643e-09
2.97325e-07
2.34318e-07
2.73827e-07
1.47857e-08
1.24862e-07
-8.78473e-09
-2.80966e-07
3.0202e-07
4.72819e-08
4.97303e-07
-2.79462e-07
-4.33019e-08
-1.06239e-07
-5.48984e-07
6.51606e-08
-6.28938e-08
5.44398e-07
1.14767e-07
-7.52182e-08
1.2705e-07
-1.38611e-07
7.22297e-08
-8.17645e-07
6.14141e-08
8.6261e-08
-5.54822e-07
-6.53302e-08
-9.37898e-08
-8.06653e-07
1.37341e-07
1.03797e-07
-1.30385e-07
8.02037e-07
-1.01371e-07
5.35115e-08
-9.84774e-08
-5.11318e-08
4.679e-07
4.17357e-08
-4.47632e-08
-2.74437e-07
-4.85472e-08
2.26694e-08
8.15721e-08
-2.02867e-08
2.69379e-07
7.39942e-08
-4.76839e-07
5.74559e-08
-8.02022e-08
5.50767e-08
-4.5964e-08
-5.596e-07
1.74364e-07
3.83658e-07
1.03543e-07
-9.99839e-08
-3.63775e-07
8.34436e-07
6.24178e-08
5.74538e-07
-5.68191e-08
3.23823e-07
2.07582e-07
9.15942e-08
-1.97304e-07
-7.92048e-08
-8.20681e-07
1.00457e-07
-3.95624e-08
-4.5851e-08
4.38734e-08
1.32436e-07
1.73655e-07
5.23245e-08
1.43018e-07
-4.81671e-08
-8.1494e-07
5.69007e-06
2.32438e-06
-2.16348e-06
-2.47258e-06
9.49053e-07
2.60669e-06
1.56562e-06
1.63581e-06
1.51922e-06
1.68699e-06
-2.22693e-06
-6.61969e-06
1.71533e-06
2.35071e-06
-2.41335e-07
-2.61316e-07
-2.43444e-07
-2.58489e-07
1.70883e-06
1.59495e-06
1.58868e-06
-2.31053e-06
1.45241e-06
1.29758e-06
1.40778e-06
1.3377e-06
-2.07989e-06
1.36721e-06
-2.22579e-07
-2.06764e-07
-2.05288e-07
-2.24794e-07
1.35512e-06
1.47977e-06
1.46883e-06
2.44531e-06
-6.80003e-07
-2.01506e-06
4.81543e-06
2.14758e-06
5.47134e-07
1.02432e-06
8.96098e-07
9.9173e-07
9.24763e-07
-3.99969e-06
1.9307e-06
9.44338e-07
-1.50781e-07
-1.34227e-07
-1.33843e-07
-1.51766e-07
9.31566e-07
1.04187e-06
1.03038e-06
1.12376e-06
1.19283e-06
1.08955e-06
1.23127e-06
1.24997e-06
-1.69262e-07
-1.88108e-07
-1.86563e-07
-1.70164e-07
1.24227e-06
1.14303e-06
1.13566e-06
-2.48234e-07
1.32047e-06
1.5631e-07
-1.37705e-07
-1.34103e-06
2.58486e-07
5.1484e-07
2.28865e-07
-2.25057e-07
-5.00352e-07
1.70763e-06
-4.54619e-07
1.84353e-07
1.35316e-06
-1.78376e-07
4.70861e-07
1.67139e-06
2.83554e-07
1.95034e-07
-2.76203e-07
-1.71667e-07
-1.69665e-06
-1.20997e-06
1.65525e-07
1.59286e-07
-1.59457e-07
-1.56598e-07
1.20509e-06
1.41373e-07
-1.54547e-07
-9.14295e-07
-7.82187e-08
-9.01602e-07
1.17209e-07
1.45299e-07
8.96816e-07
-1.14893e-07
-8.55059e-08
1.86281e-07
-1.22881e-06
8.33596e-08
-2.04226e-07
1.43509e-07
-2.39387e-07
-1.26062e-07
-1.22922e-06
1.21175e-07
-1.15499e-07
9.30242e-07
4.02678e-07
1.04129e-07
2.19001e-07
-9.07743e-08
-9.16733e-07
1.65739e-07
1.24155e-06
-1.62249e-07
-4.3741e-07
1.73141e-07
-1.70558e-07
1.72815e-07
1.31537e-06
-9.28401e-08
2.46807e-07
-2.71999e-07
-1.69922e-06
9.13709e-08
1.90424e-07
2.15039e-07
-1.85321e-07
-2.11943e-07
1.66613e-06
2.013e-07
-1.34128e-06
-2.21115e-07
-8.77223e-08
-2.59838e-06
8.59172e-06
1.04997e-06
2.68807e-06
-7.5717e-06
2.52762e-06
2.35989e-07
2.21083e-07
2.21301e-07
2.34227e-07
1.82512e-06
1.94993e-06
-9.42619e-07
2.76436e-06
9.99025e-07
1.93584e-06
1.76645e-06
1.80904e-06
1.88948e-06
2.62101e-06
2.47421e-07
2.59351e-07
2.61319e-07
2.4687e-07
2.21066e-06
2.08058e-06
2.86932e-06
1.11632e-06
2.06085e-06
2.14113e-06
2.19312e-06
2.01297e-06
2.79833e-06
9.64984e-06
1.15056e-06
-1.07427e-05
-2.71739e-06
2.95057e-07
3.05179e-07
3.07496e-07
2.94191e-07
2.7596e-06
2.62092e-06
-1.24683e-06
-2.97716e-06
1.33339e-06
2.59331e-06
2.67073e-06
2.73443e-06
2.53408e-06
2.85236e-07
2.71254e-07
2.71856e-07
2.83038e-07
2.34626e-06
2.48086e-06
1.22698e-06
2.45939e-06
2.26907e-06
2.32258e-06
2.40178e-06
-2.58113e-06
-1.20951e-06
8.61982e-06
2.67593e-06
1.0813e-06
2.74113e-06
1.93304e-06
1.75293e-06
1.80586e-06
1.87517e-06
-7.59738e-06
2.47356e-06
1.84636e-06
-2.93626e-07
-2.79709e-07
-2.76967e-07
-2.97229e-07
1.8349e-06
1.97126e-06
1.96082e-06
2.8479e-06
2.05747e-06
2.12509e-06
1.99772e-06
2.19002e-06
2.57262e-06
2.22908e-06
-3.11708e-07
-3.32283e-07
-3.27882e-07
-3.15205e-07
2.09791e-06
2.22362e-06
2.09251e-06
-1.33341e-06
9.67967e-06
2.78751e-06
-2.95598e-06
1.45174e-06
3.03745e-06
2.58908e-06
2.65085e-06
2.51508e-06
2.73036e-06
-2.67201e-06
-1.07748e-05
2.78096e-06
2.74779e-06
-3.77759e-07
-3.98822e-07
-3.83014e-07
-3.92622e-07
2.77636e-06
2.64138e-06
2.63679e-06
2.45586e-06
2.25204e-06
2.38381e-06
2.31877e-06
2.37107e-06
-3.60838e-07
-3.49726e-07
-3.45412e-07
-3.66186e-07
2.36022e-06
2.50581e-06
2.49581e-06
2.85806e-06
2.18041e-06
3.13278e-07
2.43038e-07
-3.07431e-07
-2.12962e-07
-2.21229e-06
2.47323e-07
-2.40726e-07
1.83229e-06
5.28345e-07
1.79479e-06
2.07132e-07
2.92528e-07
-1.82443e-07
-1.8215e-06
5.6453e-07
2.89284e-07
2.22191e-06
-5.52661e-07
-2.84818e-07
-2.11735e-07
-2.31408e-06
2.80148e-07
-2.76457e-07
2.30812e-06
2.1738e-07
-1.01154e-07
3.60372e-07
-4.0161e-07
1.00577e-07
-2.77559e-06
9.78657e-08
3.19549e-07
-2.35443e-06
-9.89466e-08
-3.54667e-07
-2.72683e-06
2.29224e-07
3.15906e-07
-2.26155e-07
2.72062e-06
-3.11358e-07
2.6793e-07
-2.07645e-07
-2.64177e-07
2.17471e-06
2.61591e-07
-2.8883e-07
-1.82486e-06
-9.44167e-08
2.28367e-07
1.96937e-07
-2.2536e-07
1.78928e-06
3.05572e-07
-2.21833e-06
9.69189e-08
-3.38537e-07
2.53875e-07
-2.22347e-07
-2.34751e-06
3.20938e-07
6.03969e-07
3.44977e-07
-3.39525e-07
-5.9465e-07
2.77424e-06
3.06858e-07
2.35705e-06
-2.99395e-07
5.75353e-07
3.3732e-07
2.85575e-07
-3.33009e-07
-2.4819e-07
-2.76579e-06
-1.77387e-06
1.42135e-05
3.06258e-06
-2.9952e-06
-3.24094e-06
1.87018e-06
3.27902e-06
3.73418e-06
3.77627e-06
3.63018e-06
3.88619e-06
-2.9369e-06
-1.53968e-05
3.96134e-06
2.9718e-06
-4.9347e-07
-5.16183e-07
-5.02889e-07
-5.05613e-07
3.95852e-06
3.8117e-06
3.80861e-06
-3.17953e-06
3.59024e-06
3.34383e-06
3.48802e-06
3.44033e-06
-2.87952e-06
3.5175e-06
-4.79253e-07
-4.74882e-07
-4.66671e-07
-4.88717e-07
3.50803e-06
3.66517e-06
3.65604e-06
3.09087e-06
-1.67201e-06
-2.94689e-06
1.30466e-05
3.12117e-06
1.56484e-06
3.0113e-06
2.78528e-06
2.92436e-06
2.86668e-06
-1.18976e-05
2.8253e-06
2.93127e-06
-4.22822e-07
-4.14973e-07
-4.0883e-07
-4.30133e-07
2.92098e-06
3.07353e-06
3.06391e-06
3.15097e-06
3.20406e-06
3.0621e-06
3.29868e-06
3.36132e-06
-4.38364e-07
-4.60075e-07
-4.51781e-07
-4.45579e-07
3.35759e-06
3.2157e-06
3.2118e-06
-3.55795e-07
3.44817e-06
3.30048e-07
-2.83296e-07
-3.49648e-06
3.60868e-07
6.54836e-07
4.39997e-07
-4.31972e-07
-6.49921e-07
3.95535e-06
-6.33808e-07
4.10086e-07
3.50376e-06
-4.00251e-07
6.39639e-07
3.89478e-06
3.69053e-07
3.53334e-07
-3.67524e-07
-3.00171e-07
-3.94905e-06
-3.30113e-06
2.42845e-07
3.58404e-07
-2.40793e-07
-3.52925e-07
3.29435e-06
3.73143e-07
-4.16679e-07
-2.91967e-06
-1.01887e-07
-2.86829e-06
3.26704e-07
2.33958e-07
2.86184e-06
-3.22233e-07
-1.03188e-07
4.10373e-07
-3.36114e-06
1.02856e-07
-4.60369e-07
3.22202e-07
-3.5293e-07
-2.77043e-07
-3.34762e-06
3.61309e-07
-3.52705e-07
2.91733e-06
6.12195e-07
2.94888e-07
3.4364e-07
-2.55951e-07
-2.90895e-06
3.95043e-07
3.35494e-06
-3.88452e-07
-6.26788e-07
3.67888e-07
-3.6242e-07
2.46655e-07
3.44108e-06
-1.04266e-07
4.56029e-07
-5.1509e-07