/*--------------------------------*- C++ -*----------------------------------*\
| =========                 |                                                 |
| \\      /  F ield         | OpenFOAM: The Open Source CFD Toolbox           |
|  \\    /   O peration     | Version:  2012                                  |
|   \\  /    A nd           | Website:  www.openfoam.com                      |
|    \\/     M anipulation  |                                                 |
\*---------------------------------------------------------------------------*/
FoamFile
{
    version     2.0;
    format      ascii;
    class       volScalarField;
    location    "0.106/fluid";
    object      p;
}
// * * * * * * * * * * * * * * * * * * * * * * * * * * * * * * * * * * * * * //

dimensions      [0 2 -2 0 0 0 0];


internalField   nonuniform List<scalar> 
16422
(
-0.00325377
-0.00389836
-0.00383355
-0.00405278
-0.00406276
-0.0040055
-0.00393467
-0.00388426
-0.00389953
-0.00404866
-0.00442456
-0.00497807
-0.00501155
-0.00321794
-0.0330372
-0.00339608
-0.00404029
-0.00398526
-0.00423609
-0.00430551
-0.0043396
-0.00441776
-0.00458698
-0.00493055
-0.00557059
-0.006676
-0.00845505
-0.0113208
-0.0166837
-0.0276923
-0.00348307
-0.00412784
-0.00408494
-0.00435832
-0.0044657
-0.00455851
-0.00472388
-0.00501904
-0.00554299
-0.0064362
-0.00786425
-0.0100043
-0.0130289
-0.0168306
-0.0196749
-0.00341032
-0.00392076
-0.00384973
-0.00407248
-0.00409354
-0.00404962
-0.00400116
-0.00398206
-0.00404506
-0.00429159
-0.00490452
-0.00614761
-0.00826956
-0.0123818
-0.0426636
-0.00355158
-0.00405931
-0.00399782
-0.00425213
-0.0043312
-0.0043788
-0.00446859
-0.00465576
-0.00502525
-0.00571131
-0.0069164
-0.00893739
-0.0123174
-0.0182984
-0.0284555
-0.0036387
-0.0041445
-0.00409477
-0.0043718
-0.0044885
-0.00459307
-0.00476503
-0.00507023
-0.00560617
-0.00651274
-0.00796416
-0.0101454
-0.0131889
-0.0168701
-0.0192631
-0.00348138
-0.00396972
-0.00388768
-0.004118
-0.00416108
-0.00415001
-0.00414524
-0.00418332
-0.00433072
-0.00472726
-0.00565145
-0.00763487
-0.0117603
-0.0207411
-0.0554476
-0.00361727
-0.0041014
-0.00403009
-0.00429131
-0.00438901
-0.00446272
-0.00458209
-0.00480108
-0.00520899
-0.00595788
-0.00728436
-0.00955253
-0.0133712
-0.0195811
-0.0274008
-0.00369982
-0.00418248
-0.00412356
-0.00440667
-0.00453966
-0.00466578
-0.00485837
-0.00517963
-0.00572591
-0.00663924
-0.00809524
-0.0102624
-0.0131938
-0.0164236
-0.0177768
0.0121085
-0.166387
-0.0202943
-0.170438
-0.0253641
-0.171211
-0.0474858
-0.145335
-0.0510257
-0.135762
0.00525734
0.014758
-0.00833866
-0.0114252
0.131334
0.0948255
-0.171707
-0.0315861
-0.0392484
-0.0400068
-0.167991
-0.0335879
-0.0402623
-0.00821901
-0.0139489
-0.0176839
-0.0324286
0.0418085
0.0265169
-0.166277
-0.0336691
-0.038303
-0.0545203
-0.155244
-0.0342546
-0.0336375
-0.0192794
-0.035454
-0.00731713
-0.0231092
-0.143463
-0.0332753
-0.0299848
0.05993
-0.0185107
-0.00408393
0.0504672
-0.0186782
-0.116878
-0.160919
-0.123393
0.0451996
0.0560856
-0.00928347
0.0323153
-0.0395057
0.0466222
-0.0276664
-0.166191
-0.128662
-0.113627
0.0258833
-0.0487908
-0.0352936
0.0121286
-0.0599661
-0.132272
-0.168695
-0.143289
0.00364844
0.0199843
-0.0402136
-0.0101017
-0.0736582
0.00299982
-0.0668795
-0.164962
-0.145836
-0.145047
-0.0199255
-0.0762307
-0.0544436
-0.0303271
-0.0769994
-0.144084
-0.100017
-0.132948
-0.0347462
-0.0554313
-0.0380346
-0.0748972
-0.0870594
-0.128126
0.0502714
-0.00902546
0.198907
0.0189968
0.200056
0.0387856
0.0802499
0.131711
0.203396
0.0169825
0.0182843
0.132268
0.0221441
0.140671
0.0133469
0.0251641
0.0307936
0.159446
0.0298949
0.0288224
0.149869
-0.0428241
-0.0627739
0.0372424
-0.0491689
0.0502048
-0.052686
-0.0321572
-0.0218704
0.0772106
-0.0211019
-0.035241
0.0632836
-0.140513
-0.477281
-0.360038
-0.431369
0.0249163
0.172447
-0.00740535
0.187381
-0.00230025
0.013975
-0.0639268
0.145671
-0.107759
0.0863706
0.0329355
0.0209508
-0.30068
-0.102537
-0.101618
-0.309216
-0.31398
-0.273461
-0.299267
-0.281976
-0.316985
-0.306054
-0.325605
-0.305544
-0.299216
-0.130854
-0.130501
-0.263103
0.0332216
0.0109384
0.175626
0.0225327
0.022975
0.175917
0.0257501
0.0229626
0.164115
0.0252828
0.0193689
0.169188
-0.110868
-0.0834719
-0.247259
-0.276734
-0.333638
-0.288699
-0.0861239
0.00712838
0.171986
-0.00877075
0.0189142
0.161715
-0.0202998
0.00235483
0.147376
-0.0318851
0.153267
-0.0247704
-0.00133535
-0.319291
-0.104589
-0.310361
-0.118706
-0.337063
-0.312463
-0.309669
-0.345465
-0.334724
-0.306086
-0.326779
-0.308209
-0.321803
-0.134203
-0.121983
-0.331968
-0.23806
-0.217476
-0.199879
-0.212041
-0.0221895
0.110361
-0.0662802
0.119433
-0.0580779
-0.0283107
-0.0151888
0.14088
-0.0399218
0.129443
-0.00636734
-0.0499173
-0.345974
-0.167533
-0.156647
-0.349861
-0.35436
-0.312973
-0.348211
-0.312405
-0.343921
-0.138307
-0.335378
-0.152446
-0.355641
-0.305536
-0.356712
-0.311788
0.00291115
0.0168127
0.123993
0.0117981
0.00794269
0.111366
-0.00678333
-0.0129607
0.0879611
-0.0145962
-0.00276086
0.0997368
-0.0416376
0.101448
-0.0738724
-0.0340499
0.0894034
-0.0819839
-0.0479789
0.0681571
-0.094366
0.0787203
-0.088349
-0.0537184
-0.348137
-0.170544
-0.350228
-0.179132
-0.347377
-0.260528
-0.282895
-0.334277
-0.35046
-0.302366
-0.356034
-0.288492
-0.346251
-0.185557
-0.181371
-0.337113
-0.0681595
0.0279751
-0.108574
0.0374965
-0.106405
-0.0717926
-0.0640525
0.0582554
-0.0991738
0.0468489
-0.0585747
-0.103664
-0.311077
-0.18246
-0.18624
-0.289771
-0.308639
-0.252044
-0.328785
-0.22232
-0.317257
-0.18632
-0.332998
-0.18665
-0.30096
-0.176311
-0.275061
-0.211553
-0.0706258
-0.074669
0.0261621
-0.0606781
-0.0879258
0.0135759
-0.0774079
-0.0983157
0.00427957
-0.0772139
0.0196194
-0.109538
-0.0743446
0.0105404
-0.110244
-0.0775192
0.00456649
-0.108652
-0.256746
-0.180898
-0.282058
-0.174139
-0.226141
-0.114129
-0.236142
-0.164163
-0.265867
-0.126129
-0.247957
-0.171348
0.0869531
-0.0753448
0.403568
-0.07745
0.419403
0.0807857
0.0639252
0.118795
-0.187071
0.115746
-0.535961
-0.428845
-0.472101
0.0645945
-0.0751551
0.317243
-0.0720354
0.321055
0.0613654
0.0822355
-0.0560925
0.365639
0.0862453
-0.0576222
0.357054
-0.297554
-0.27976
-0.237231
-0.244083
-0.0382526
-0.19523
0.173069
-0.186516
0.180538
-0.0449804
0.000618019
-0.130961
0.24289
0.00942127
-0.140085
0.230821
-0.225578
-0.228334
-0.257764
-0.24824
-0.501549
-0.307522
-0.325959
-0.474147
-0.695344
-0.577275
-0.6004
-0.477447
-0.522006
-0.556171
-0.624637
-0.269886
0.0693923
0.376106
-0.0966022
0.368388
-0.100153
0.0815772
-0.088231
0.106907
-0.199379
0.084073
-0.196452
-0.107907
-0.462158
-0.316253
-0.317706
-0.463971
-0.474652
-0.382802
-0.408037
-0.44218
-0.518492
-0.436905
-0.520036
-0.43881
-0.402864
-0.203127
-0.384867
-0.383278
0.0865197
-0.0750763
0.395151
0.0780598
-0.0702686
0.392714
0.0849353
-0.0589935
0.369331
0.0852955
-0.0608929
0.370703
-0.437385
-0.301857
-0.461774
-0.287085
-0.422579
-0.34093
-0.357246
-0.403582
-0.501564
-0.46668
-0.540822
-0.429598
-0.381357
-0.255814
-0.261101
-0.370005
0.0722895
0.370543
-0.0967825
0.0792739
0.361329
-0.101153
0.0512579
0.330142
-0.128257
0.333362
-0.122975
0.0479318
-0.468311
-0.314469
-0.460632
-0.314798
-0.528267
-0.437622
-0.436735
-0.53035
-0.519178
-0.437241
-0.519417
-0.433182
-0.493334
-0.342135
-0.331614
-0.503329
-0.34899
-0.366084
-0.389627
-0.392696
-0.301692
-0.31779
-0.420743
-0.385088
-0.38934
-0.388977
-0.39066
-0.386036
-0.346086
-0.254002
-0.249817
-0.346762
-0.382253
-0.336166
-0.318591
-0.398224
-0.35741
-0.25041
-0.247123
-0.363655
-0.346419
-0.274613
-0.281477
-0.339325
0.00967031
0.276626
-0.17812
0.282234
-0.172393
0.00528414
0.036927
0.326731
-0.134892
0.31741
0.0435806
-0.142424
-0.545163
-0.387447
-0.377587
-0.552515
-0.532551
-0.437594
-0.530652
-0.43487
-0.518427
-0.344737
-0.506737
-0.354384
-0.526521
-0.417567
-0.522755
-0.423516
0.0512634
-0.0778405
0.311016
0.0583151
-0.0837642
0.300333
0.0206831
-0.124322
0.24945
0.0149774
-0.117341
0.255664
-0.349963
-0.252487
-0.344433
-0.257373
-0.328973
-0.262417
-0.258928
-0.333042
-0.330968
-0.272273
-0.336401
-0.264966
-0.370326
-0.292594
-0.280962
-0.381022
-0.0058368
0.270677
-0.184396
0.000653223
0.26024
-0.191311
-0.0323876
0.213525
-0.222206
0.220432
-0.217702
-0.0367836
-0.561942
-0.389468
-0.55471
-0.396983
-0.484145
-0.346544
-0.36281
-0.470664
-0.51459
-0.414642
-0.520998
-0.403566
-0.571673
-0.418786
-0.412641
-0.572468
-0.38929
-0.385923
-0.366589
-0.373175
-0.224739
-0.22153
-0.235123
-0.22758
-0.292096
-0.309138
-0.363493
-0.351754
-0.439222
-0.358279
-0.343257
-0.454561
-0.340687
-0.263198
-0.266568
-0.334087
-0.395858
-0.29395
-0.305116
-0.38193
-0.367033
-0.296978
-0.28729
-0.377363
-0.0668763
0.151842
-0.250599
0.157913
-0.248527
-0.069899
-0.0468036
0.205052
-0.226806
0.194644
-0.0411986
-0.232021
-0.560817
-0.426529
-0.425306
-0.554294
-0.448174
-0.340048
-0.465317
-0.318477
-0.572245
-0.419341
-0.572187
-0.422589
-0.387776
-0.22455
-0.365831
-0.248599
-0.0603388
-0.203839
0.164851
-0.0516136
-0.213938
0.152979
-0.475446
-0.361121
-0.458759
-0.374846
-0.391731
-0.299444
-0.3801
-0.307541
-0.0766083
0.145085
-0.252857
-0.0727987
0.135638
-0.255786
-0.545554
-0.425502
-0.551771
-0.424565
-0.333918
-0.215705
-0.357747
-0.187544
-0.285408
-0.263216
-0.166839
-0.191613
-0.260289
-0.267713
-0.15786
-0.129339
0.0975604
-0.0925258
0.45185
0.075901
-0.0700601
0.442496
0.118238
-0.0632115
0.43686
0.0632843
-0.0140303
0.385473
0.0327319
-0.171847
-0.499089
-0.570395
-0.567412
-0.545757
-0.489767
0.068596
-0.0640967
0.338886
0.0728631
-0.0681455
0.327998
0.0790965
-0.0601192
0.345587
0.0773522
-0.0589243
0.350659
-0.263003
-0.276511
-0.259536
-0.246748
-0.0305343
-0.166644
0.20285
-0.0214579
-0.177127
0.189775
-0.00688846
-0.157152
0.213899
-0.0136618
-0.14865
0.221791
-0.237197
-0.230182
-0.239206
-0.245572
-0.619243
-0.649596
-0.689074
-0.584115
-0.50928
-0.36078
-0.320042
-0.544535
-0.633772
-0.761475
-0.710969
-0.679187
-0.695608
-0.558431
-0.693628
-0.62354
-0.605459
-0.692111
-0.732297
-0.833454
-0.724184
-0.765241
-0.717805
-0.813486
-0.732202
-0.839953
-0.624114
-0.628223
-0.669145
-0.580727
-0.618753
-0.595766
-0.541049
-0.66926
-0.643181
-0.740565
-0.690211
-0.694883
-0.574801
-0.344218
-0.263489
-0.550676
-0.806379
-0.238853
-0.803878
-0.852531
-0.728312
-0.785332
-0.703765
-0.837526
-0.842641
-0.843185
0.0739858
0.402094
-0.112959
0.372728
0.0942068
-0.102369
0.0570767
0.424274
-0.137663
0.352046
0.0821796
-0.190677
-0.563186
-0.616039
-0.61099
-0.56691
-0.466045
-0.353686
-0.319516
-0.453566
-0.563953
-0.597523
-0.612274
-0.556236
-0.484904
-0.449434
-0.513973
-0.422401
-0.497055
-0.475941
-0.524604
-0.452484
-0.50698
-0.573006
-0.535457
-0.539759
-0.543953
-0.596118
-0.59193
-0.545478
-0.519163
-0.444411
-0.51693
-0.436577
-0.54483
-0.578555
-0.592623
-0.539286
-0.408335
-0.350854
-0.362287
-0.434267
-0.495984
-0.486438
-0.537333
-0.436506
-0.512797
-0.589886
-0.551214
-0.552332
0.0879403
-0.0623843
0.387067
0.0897218
-0.0666274
0.390366
0.0856275
-0.0625527
0.381493
0.086952
-0.0618872
0.373849
-0.5403
-0.630932
-0.568937
-0.596533
-0.426387
-0.27198
-0.282023
-0.407044
-0.52869
-0.555612
-0.581702
-0.506806
-0.42992
-0.387586
-0.452771
-0.362987
-0.4455
-0.479377
-0.494912
-0.427664
-0.453146
-0.523296
-0.475454
-0.50286
-0.524776
-0.609736
-0.564006
-0.573756
-0.490968
-0.393622
-0.461489
-0.422331
-0.513353
-0.533032
-0.560127
-0.484216
-0.387193
-0.271001
-0.264014
-0.400429
-0.476149
-0.502917
-0.517138
-0.463925
-0.482418
-0.545023
-0.49884
-0.525411
0.0663988
0.35027
-0.108861
0.353906
0.0630008
-0.105375
0.0552738
0.345462
-0.11248
0.338632
0.0596094
-0.117845
-0.569324
-0.613889
-0.564254
-0.618283
-0.469996
-0.32247
-0.316608
-0.477828
-0.570543
-0.626371
-0.618884
-0.578988
-0.527117
-0.43669
-0.524033
-0.43553
-0.55537
-0.622561
-0.615468
-0.55876
-0.554233
-0.606701
-0.550399
-0.613604
-0.545465
-0.594741
-0.544864
-0.598291
-0.519677
-0.435802
-0.523026
-0.4344
-0.545887
-0.605386
-0.59895
-0.549531
-0.490638
-0.32303
-0.330288
-0.479802
-0.592858
-0.645851
-0.637622
-0.603347
-0.590425
-0.62775
-0.580593
-0.635643
-0.403253
-0.379579
-0.398307
-0.389269
-0.346818
-0.32259
-0.351599
-0.379321
-0.389522
-0.387703
-0.388443
-0.387687
-0.347828
-0.24784
-0.249898
-0.348517
-0.431819
-0.455932
-0.458078
-0.432701
-0.434345
-0.466409
-0.437263
-0.461052
-0.405665
-0.472363
-0.421203
-0.459343
-0.377152
-0.301056
-0.314608
-0.364204
-0.400425
-0.444427
-0.454001
-0.388032
-0.354396
-0.246757
-0.245558
-0.349529
-0.44873
-0.495883
-0.457551
-0.484242
-0.444693
-0.470533
-0.439129
-0.478727
-0.370945
-0.427341
-0.430917
-0.364473
-0.3499
-0.297175
-0.284467
-0.360295
-0.37448
-0.440523
-0.433929
-0.383912
0.0147542
0.296928
-0.159511
0.288815
0.0208142
-0.166119
0.0311156
0.305007
-0.15427
0.310465
0.0260852
-0.148798
-0.542666
-0.367833
-0.375614
-0.533312
-0.640787
-0.673275
-0.670436
-0.647745
-0.638447
-0.664909
-0.630869
-0.669416
-0.562292
-0.624565
-0.559574
-0.63093
-0.53225
-0.432883
-0.531074
-0.434472
-0.562624
-0.637403
-0.632589
-0.563311
-0.521668
-0.3663
-0.356517
-0.530803
-0.616719
-0.648114
-0.606528
-0.655518
-0.619562
-0.663498
-0.628783
-0.657513
-0.561278
-0.643813
-0.642374
-0.558654
-0.527673
-0.431539
-0.530286
-0.425271
-0.561967
-0.638481
-0.641739
-0.563048
0.0453766
-0.0948187
0.284887
0.040555
-0.089283
0.29184
0.0272341
-0.101852
0.276832
0.0344196
-0.109702
0.264575
-0.434433
-0.453717
-0.430526
-0.45395
-0.350544
-0.267203
-0.258465
-0.356323
-0.434145
-0.457087
-0.452977
-0.440208
-0.328637
-0.260556
-0.327532
-0.258656
-0.3569
-0.439394
-0.431678
-0.361759
-0.356506
-0.425545
-0.354547
-0.430632
-0.357112
-0.42502
-0.361639
-0.423837
-0.329595
-0.261413
-0.328049
-0.263717
-0.35574
-0.425394
-0.4229
-0.354931
-0.368042
-0.269689
-0.278843
-0.358495
-0.452267
-0.473486
-0.464521
-0.462936
-0.450096
-0.45699
-0.441891
-0.463482
-0.0115041
0.246146
-0.201756
0.252265
-0.0163222
-0.19731
-0.0274181
0.237519
-0.206688
0.228225
-0.0214935
-0.212419
-0.654665
-0.673726
-0.649535
-0.674406
-0.5636
-0.405872
-0.398583
-0.566652
-0.655751
-0.672515
-0.674019
-0.658618
-0.488568
-0.384549
-0.500541
-0.368137
-0.525185
-0.621237
-0.62918
-0.512855
-0.529132
-0.637437
-0.539646
-0.631665
-0.552066
-0.64382
-0.55725
-0.643085
-0.512177
-0.389246
-0.50407
-0.400079
-0.549961
-0.639173
-0.642278
-0.542792
-0.571333
-0.406708
-0.411685
-0.567903
-0.659506
-0.658813
-0.664984
-0.659125
-0.659517
-0.671195
-0.658948
-0.666998
-0.383334
-0.385489
-0.381874
-0.375021
-0.223362
-0.221141
-0.224158
-0.226638
-0.331618
-0.314598
-0.336511
-0.348127
-0.434771
-0.326078
-0.340043
-0.418128
-0.519758
-0.539697
-0.524371
-0.536374
-0.515494
-0.505565
-0.499655
-0.520627
-0.36983
-0.441042
-0.362834
-0.450623
-0.342829
-0.275536
-0.26835
-0.350617
-0.371911
-0.465752
-0.453365
-0.381088
-0.399596
-0.322441
-0.308044
-0.413581
-0.476984
-0.47511
-0.46464
-0.485888
-0.480604
-0.502197
-0.495273
-0.488638
-0.397955
-0.501299
-0.486786
-0.409721
-0.364231
-0.277533
-0.284688
-0.353067
-0.395032
-0.469135
-0.483083
-0.383681
-0.0632781
0.174117
-0.241945
0.164937
-0.0588514
-0.245738
-0.0515498
0.179956
-0.238872
0.186296
-0.0553445
-0.236203
-0.562834
-0.425522
-0.426014
-0.566422
-0.636815
-0.596011
-0.610201
-0.628694
-0.639695
-0.628337
-0.64647
-0.615348
-0.492544
-0.617925
-0.508029
-0.607461
-0.442078
-0.290485
-0.423759
-0.311459
-0.48695
-0.590751
-0.603337
-0.469945
-0.571373
-0.425944
-0.422759
-0.568038
-0.655276
-0.655975
-0.658126
-0.647228
-0.65363
-0.632819
-0.648874
-0.643586
-0.436743
-0.549424
-0.565467
-0.41627
-0.395428
-0.282491
-0.416714
-0.256855
-0.443838
-0.58581
-0.571082
-0.463489
-0.0676844
-0.230659
0.136632
-0.0739772
-0.222784
0.144225
-0.0861326
-0.238303
0.12922
-0.0797135
-0.246342
0.119195
-0.555997
-0.543423
-0.539973
-0.558865
-0.479836
-0.391616
-0.377859
-0.493853
-0.560239
-0.577146
-0.562321
-0.575342
-0.415129
-0.32138
-0.406534
-0.32676
-0.449779
-0.53959
-0.440608
-0.550788
-0.42463
-0.504947
-0.412524
-0.519568
-0.394364
-0.3195
-0.404797
-0.310139
-0.42732
-0.536933
-0.523031
-0.438722
-0.51039
-0.394796
-0.404481
-0.497396
-0.590585
-0.579733
-0.578699
-0.591416
-0.0796752
0.123358
-0.258181
0.128985
-0.0820049
-0.257526
-0.0853659
0.118037
-0.258701
0.110639
-0.083589
-0.25959
-0.615576
-0.590139
-0.625251
-0.574101
-0.542536
-0.421867
-0.423144
-0.532898
-0.611626
-0.550499
-0.567552
-0.600293
-0.265783
-0.144057
-0.291253
-0.116036
-0.322459
-0.49198
-0.34686
-0.4714
-0.386444
-0.543124
-0.408744
-0.525397
-0.325218
-0.153367
-0.301258
-0.178711
-0.378361
-0.499782
-0.518424
-0.355834
-0.519433
-0.420333
-0.415598
-0.529086
-0.582378
-0.543069
-0.595576
-0.523883
-0.234348
-0.256061
-0.226213
-0.199957
-0.281555
-0.286493
-0.279515
-0.270417
-0.0854598
-0.0574055
-0.0946298
-0.120445
-0.276899
-0.2454
-0.180529
-0.16045
-0.133711
-0.267231
-0.291838
-0.316519
-0.169309
-0.271056
-0.17681
-0.173885
-0.26911
-0.320421
-0.326362
-0.272789
-0.179052
-0.171069
-0.18086
-0.323424
-0.273341
-0.320446
-0.153571
-0.24364
-0.165535
-0.171766
-0.253894
-0.313619
-0.294619
-0.231702
-0.158093
-0.124702
-0.149155
-0.304991
-0.217809
-0.225538
-0.0614999
-0.0943123
-0.134394
0.0837291
0.0448127
0.0242854
0.0678036
0.521577
0.483419
0.815709
0.494146
0.809967
0.521738
0.0931283
0.1247
-0.00739033
0.0704337
-0.0334472
0.148675
0.0417436
-0.137409
-0.166072
-0.115496
-0.059291
-0.0658705
-0.0665046
-0.0618435
-0.166627
-0.121456
-0.119974
-0.0604925
-0.0686068
-0.0656553
-0.0636471
0.407669
0.368898
0.647705
0.375489
0.638241
0.409677
0.463786
0.445718
0.738378
0.476764
0.43931
0.713799
-0.123681
-0.167076
-0.127217
-0.0663258
-0.0669262
-0.0643066
-0.0675043
-0.16102
-0.125097
-0.126445
-0.0647901
-0.0592128
-0.0634286
-0.0630993
0.207688
0.129706
0.410093
0.136916
0.402221
0.208088
0.297195
0.255893
0.528142
0.312696
0.244934
0.502501
-0.119581
-0.130101
-0.112048
-0.0533267
-0.0516893
-0.0586043
-0.0436813
-0.114577
-0.102423
-0.0471978
-0.0350895
0.502018
0.771071
0.46573
0.760149
0.469557
0.508624
0.068894
0.111908
-0.0244668
0.108693
0.0298622
0.0754544
-0.25761
-0.245098
-0.214072
-0.127788
-0.130044
-0.244224
-0.361482
-0.309226
-0.169266
-0.262402
-0.163006
-0.172222
-0.306286
-0.264636
-0.264532
-0.144204
-0.11041
-0.161092
-0.15806
-0.123064
-0.273497
0.504131
0.482932
0.811281
0.517228
0.475461
0.784475
0.471536
0.444615
0.740792
0.477037
0.445805
0.727103
0.487661
0.764461
0.46485
0.504916
0.735974
0.450323
0.43047
0.684863
0.379871
0.670743
0.384112
0.435873
-0.313376
-0.165644
-0.266047
-0.168021
-0.171821
-0.310251
-0.266719
-0.282868
-0.170752
-0.125391
-0.156887
-0.166978
-0.151763
-0.28788
-0.278971
-0.138247
-0.157344
-0.122422
-0.16574
-0.272019
-0.146159
0.348773
0.589224
0.280201
0.577742
0.285483
0.352766
0.415896
0.681719
0.375267
0.655689
0.432217
0.365424
-0.297944
-0.173878
-0.162799
-0.137522
-0.177611
-0.292585
-0.170185
-0.328752
-0.170811
-0.271175
-0.181137
-0.181634
-0.329129
-0.273515
-0.302637
-0.18068
-0.14125
-0.180754
-0.179642
-0.176577
-0.305335
0.392913
0.367092
0.643242
0.407082
0.358782
0.618079
0.315844
0.261113
0.533654
0.317005
0.267733
0.525256
0.332085
0.584546
0.274882
0.348487
0.558532
0.264754
0.260245
0.480005
0.177406
0.46961
0.182676
0.26392
-0.324902
-0.159947
-0.267382
-0.179329
-0.176218
-0.327788
-0.261376
-0.306115
-0.174353
-0.147254
-0.189519
-0.178047
-0.189794
-0.302851
-0.307128
-0.184277
-0.180891
-0.146698
-0.18029
-0.30671
-0.187529
0.178225
0.369453
0.0860718
0.359859
0.0903978
0.182012
0.243324
0.474496
0.172553
0.448384
0.259575
0.162501
-0.291926
-0.169558
-0.188699
-0.141263
-0.163674
-0.298122
-0.186459
-0.282926
-0.11297
-0.186037
-0.128458
-0.139456
-0.269664
-0.202648
-0.284473
-0.178609
-0.137963
-0.148632
-0.156715
-0.183634
-0.275394
0.186359
0.123315
0.403862
0.202626
0.110725
0.377958
0.162531
0.363979
0.0825318
0.178363
0.338193
0.0726174
-0.240651
-0.0736041
-0.168926
-0.117316
-0.105553
-0.255659
-0.151183
-0.243125
-0.116396
-0.121771
-0.160481
-0.254733
-0.173663
-0.140056
-0.122498
-0.131174
-0.26556
-0.167327
0.583876
0.599208
0.920118
0.590735
0.566085
0.884919
0.583755
0.701153
0.991664
0.643088
0.657207
0.903139
0.125281
0.101079
0.0726309
0.135489
0.0654811
0.136445
0.102554
0.0327055
-0.030105
-0.0201497
-0.0634246
0.08749
0.112537
0.0384481
0.090492
0.429129
0.408174
0.691382
0.44359
0.398194
0.665318
0.444783
0.414025
0.697494
0.448404
0.418954
0.686372
0.241501
0.190389
0.465841
0.258195
0.177515
0.439335
0.264682
0.19798
0.473054
0.264679
0.205675
0.465522
-0.654875
-0.613138
-0.410829
-0.59139
-0.672833
-0.57788
-0.0873068
-0.160381
-0.305203
-0.102766
-0.319364
-0.558134
-0.596907
-0.338692
-0.162178
-0.0979859
-0.0878556
-0.357157
-0.60431
-0.62446
-0.353319
-0.535943
-0.364336
-0.557721
-0.602263
-0.67623
-0.67933
-0.681373
-0.695095
-0.624082
-0.572156
-0.533767
-0.648942
-0.583041
-0.600972
-0.575966
-0.607279
-0.519839
-0.425409
-0.382184
-0.395637
-0.447812
-0.415603
-0.494235
-0.551448
-0.497446
-0.41522
-0.477333
-0.571581
-0.452798
-0.550743
-0.519666
-0.543405
-0.524527
-0.744951
-0.691968
-0.744096
-0.716921
-0.624184
-0.196886
-0.243528
-0.660804
0.529347
0.851567
0.533151
0.80801
0.549949
0.47119
0.538622
0.939931
0.623214
0.853769
0.599935
0.595397
-0.575241
-0.502869
-0.289432
-0.30712
-0.505204
-0.298242
-0.574514
-0.542689
-0.0857064
-0.111812
-0.260413
-0.0963972
-0.266485
-0.53319
-0.548823
-0.255531
-0.106477
-0.0923489
-0.0935477
-0.269983
-0.545488
-0.57418
-0.307726
-0.505204
-0.295521
-0.507254
-0.296202
-0.570677
-0.476095
-0.489498
-0.339819
-0.305014
-0.326731
-0.49907
-0.46881
-0.438311
-0.335896
-0.289709
-0.289232
-0.301575
-0.376686
-0.379181
-0.44848
-0.324104
-0.288781
-0.404888
-0.311482
-0.47301
-0.380378
-0.465751
-0.299359
-0.301605
-0.391977
-0.314181
-0.459042
-0.400572
-0.485846
-0.482225
-0.324091
-0.339968
-0.485564
-0.484056
-0.346545
-0.451739
-0.380273
-0.331344
-0.305475
-0.329976
-0.4509
-0.380979
-0.488314
-0.32392
-0.48663
-0.346627
-0.488418
-0.345442
-0.487329
-0.4501
-0.329259
-0.380236
-0.307323
-0.449301
-0.333068
-0.381604
-0.548511
-0.503496
-0.294882
-0.297173
-0.573727
-0.483296
-0.301561
-0.458844
-0.0696771
-0.170271
-0.302267
-0.218348
-0.225919
-0.457765
-0.521474
-0.284138
-0.0802861
-0.124829
-0.0724892
-0.543293
-0.294208
-0.487369
-0.290721
-0.390949
-0.271379
-0.459379
-0.270028
-0.433573
0.493545
0.468346
0.77546
0.499254
0.470825
0.762622
0.483827
0.466139
0.772161
0.496322
0.458729
0.747368
-0.529468
-0.267464
-0.443731
-0.280882
-0.460302
-0.514088
-0.512264
-0.0705448
-0.267124
-0.0981689
-0.525474
-0.0630692
-0.255353
-0.546465
-0.307885
-0.496259
-0.563572
-0.293794
-0.477247
-0.498082
-0.232601
-0.0919491
-0.0472056
-0.0566682
-0.243972
-0.485145
-0.408812
-0.417742
-0.42289
-0.405015
-0.370761
-0.297326
-0.256198
-0.308742
-0.359041
-0.380704
-0.266113
-0.331631
-0.395032
-0.318486
-0.398677
-0.383221
-0.394797
-0.38695
-0.449413
-0.425921
-0.443519
-0.431189
-0.43545
-0.39274
-0.365751
-0.31934
-0.456772
-0.349239
-0.37295
-0.465057
-0.480743
-0.487119
-0.459773
-0.420562
-0.302825
-0.341926
-0.331298
-0.402884
-0.357904
-0.495359
-0.263219
-0.435493
-0.505707
-0.423999
-0.465794
-0.0345615
-0.213915
-0.0416721
-0.217723
-0.458681
-0.473185
-0.232832
-0.0468291
-0.0800194
-0.0452588
-0.479923
-0.224466
-0.485617
-0.402975
-0.413752
-0.476607
0.462159
0.721724
0.418163
0.707844
0.468234
0.422463
0.449648
0.71833
0.416139
0.692212
0.465592
0.406462
-0.570971
-0.316304
-0.509851
-0.305004
-0.508174
-0.301945
-0.572976
-0.532461
-0.0889331
-0.259617
-0.112486
-0.529238
-0.096453
-0.265079
-0.568509
-0.313289
-0.503677
-0.295515
-0.567366
-0.505241
-0.298915
-0.535003
-0.270432
-0.117419
-0.101847
-0.102507
-0.267855
-0.535894
-0.496308
-0.49398
-0.35477
-0.340615
-0.357119
-0.493378
-0.497956
-0.460649
-0.388018
-0.311524
-0.340594
-0.339094
-0.386701
-0.462628
-0.457786
-0.336874
-0.310527
-0.383651
-0.337782
-0.455568
-0.384916
-0.499704
-0.343344
-0.360826
-0.504721
-0.359125
-0.50166
-0.502301
-0.490724
-0.332399
-0.491745
-0.352746
-0.490683
-0.350687
-0.491424
-0.451606
-0.380095
-0.332011
-0.306632
-0.451505
-0.332144
-0.379848
-0.48832
-0.329507
-0.486353
-0.347283
-0.487868
-0.487728
-0.3489
-0.453905
-0.33457
-0.30716
-0.382385
-0.332459
-0.454159
-0.381475
-0.580353
-0.512285
-0.307478
-0.325801
-0.575461
-0.5169
-0.31194
-0.548458
-0.120662
-0.132015
-0.284642
-0.119301
-0.281276
-0.55193
-0.544319
-0.272845
-0.105987
-0.128416
-0.11457
-0.53839
-0.277898
-0.584549
-0.328919
-0.524638
-0.318795
-0.520868
-0.31533
-0.588897
-0.440663
-0.36514
-0.443291
-0.361436
-0.434995
-0.0300361
-0.0318958
-0.434415
-0.435821
-0.0266421
-0.0307058
-0.435638
-0.437982
-0.354707
-0.358036
-0.436155
-0.356651
-0.345338
-0.353587
-0.348108
-0.335969
-0.285288
-0.230552
-0.275985
-0.345059
-0.32812
-0.222773
-0.260073
-0.267897
-0.319584
-0.36434
-0.368954
-0.373104
-0.360972
-0.450527
-0.367009
-0.444336
-0.37428
-0.44361
-0.026629
-0.028529
-0.445816
-0.43945
-0.0227918
-0.027722
-0.434207
-0.45694
-0.388704
-0.462874
-0.381404
-0.339675
-0.342909
-0.338368
-0.345101
-0.308053
-0.240402
-0.202904
-0.245209
-0.301816
-0.312305
-0.256032
-0.20697
-0.249578
-0.31697
-0.335776
-0.330478
-0.334661
-0.330952
0.373917
0.633181
0.325078
0.606459
0.390468
0.314618
0.390512
0.639037
0.329641
0.626986
0.394718
0.335139
-0.615071
-0.543739
-0.336229
-0.348251
-0.611082
-0.547143
-0.339332
-0.585725
-0.162178
-0.165601
-0.313872
-0.161079
-0.311615
-0.588168
-0.581861
-0.304803
-0.148219
-0.162157
-0.156365
-0.576447
-0.308821
-0.618162
-0.349461
-0.550001
-0.342898
-0.54954
-0.341421
-0.620427
-0.511917
-0.35329
-0.518529
-0.36597
-0.365094
-0.516951
-0.513037
-0.467896
-0.389443
-0.341092
-0.312758
-0.340429
-0.46588
-0.389785
-0.509277
-0.35111
-0.362521
-0.509259
-0.36391
-0.506218
-0.513642
-0.469918
-0.341838
-0.312677
-0.3901
-0.340661
-0.470421
-0.390239
-0.604527
-0.341915
-0.540822
-0.333534
-0.607819
-0.539061
-0.330729
-0.564769
-0.126371
-0.289013
-0.14481
-0.557742
-0.136079
-0.294134
-0.600001
-0.338957
-0.529679
-0.322821
-0.594382
-0.53483
-0.327103
-0.569769
-0.301578
-0.14314
-0.149579
-0.141818
-0.572685
-0.298271
-0.515434
-0.520472
-0.35714
-0.366404
-0.522992
-0.514238
-0.366421
-0.470752
-0.382942
-0.337354
-0.307899
-0.337984
-0.468588
-0.385651
-0.515855
-0.357448
-0.52407
-0.364677
-0.524326
-0.365666
-0.514774
-0.471279
-0.341713
-0.389292
-0.309987
-0.470855
-0.339772
-0.387711
0.366008
0.320671
0.593166
0.367299
0.327302
0.584395
0.34607
0.313769
0.586385
0.361706
0.302322
0.560099
-0.432968
-0.349697
-0.349731
-0.433818
-0.434273
-0.0288265
-0.430554
-0.0357115
-0.432462
-0.349998
-0.431809
-0.349891
-0.436425
-0.0399174
-0.0396463
-0.437608
-0.326448
-0.326434
-0.32476
-0.32899
-0.297282
-0.234714
-0.232751
-0.298809
-0.294945
-0.230671
-0.293619
-0.230955
-0.329173
-0.334555
-0.331975
-0.331347
-0.323799
-0.323744
-0.324621
-0.322566
-0.294339
-0.235698
-0.29661
-0.23274
-0.324698
-0.325829
-0.326382
-0.325094
-0.293071
-0.229887
-0.291582
-0.230962
-0.441322
-0.352778
-0.437515
-0.355898
-0.45358
-0.0635831
-0.0607887
-0.458014
-0.44872
-0.046418
-0.0551288
-0.442891
-0.444967
-0.362323
-0.359101
-0.449636
0.305322
0.536204
0.228059
0.525965
0.308463
0.235156
0.287369
0.529946
0.222951
0.503371
0.303897
0.212565
-0.626613
-0.349892
-0.551152
-0.345968
-0.552963
-0.346398
-0.626505
-0.596313
-0.166567
-0.316288
-0.17515
-0.591812
-0.174314
-0.319049
-0.625452
-0.350539
-0.551675
-0.344361
-0.623015
-0.553014
-0.34582
-0.59885
-0.321534
-0.178113
-0.177919
-0.178316
-0.320792
-0.599195
-0.497116
-0.517451
-0.349725
-0.344225
-0.344934
-0.50188
-0.514538
-0.435164
-0.332321
-0.268554
-0.2969
-0.304689
-0.341098
-0.428101
-0.442375
-0.317294
-0.275569
-0.357323
-0.310849
-0.449067
-0.349342
-0.491553
-0.339907
-0.332952
-0.504352
-0.339375
-0.510326
-0.484537
-0.51005
-0.353602
-0.520364
-0.354043
-0.523424
-0.357664
-0.50601
-0.462694
-0.379387
-0.334596
-0.298165
-0.466382
-0.330737
-0.37461
-0.512261
-0.355376
-0.524482
-0.362866
-0.513978
-0.52463
-0.360633
-0.458981
-0.322516
-0.293664
-0.364011
-0.326753
-0.454476
-0.369605
-0.625911
-0.549482
-0.345383
-0.344221
-0.626124
-0.547885
-0.344755
-0.602947
-0.187743
-0.185885
-0.322179
-0.189201
-0.323089
-0.601811
-0.602437
-0.322235
-0.180942
-0.184499
-0.186724
-0.600264
-0.323198
-0.62463
-0.341187
-0.540557
-0.340752
-0.545094
-0.343197
-0.622366
-0.485669
-0.389606
-0.477463
-0.397684
-0.508879
-0.124835
-0.119857
-0.515711
-0.500767
-0.099538
-0.111477
-0.491057
-0.493089
-0.410944
-0.405624
-0.499871
-0.344477
-0.353812
-0.348844
-0.349317
-0.30529
-0.237054
-0.240329
-0.301356
-0.309913
-0.249235
-0.244604
-0.314754
-0.33915
-0.337664
-0.334472
-0.343154
-0.463827
-0.381879
-0.469768
-0.376942
-0.46962
-0.0683798
-0.0787187
-0.461675
-0.476644
-0.090708
-0.0863975
-0.482627
-0.457655
-0.364997
-0.450923
-0.370868
-0.363022
-0.361147
-0.368803
-0.356245
-0.33406
-0.27229
-0.266467
-0.339931
-0.327084
-0.254942
-0.260179
-0.321302
-0.370394
-0.382461
-0.376335
-0.376472
0.201518
0.418396
0.125534
0.392218
0.217561
0.115558
0.218142
0.424222
0.129748
0.414797
0.221383
0.135961
-0.599508
-0.512999
-0.323253
-0.304838
-0.604213
-0.50633
-0.318806
-0.58954
-0.18973
-0.185396
-0.303786
-0.194273
-0.307987
-0.584411
-0.592834
-0.313652
-0.191955
-0.186566
-0.194679
-0.594422
-0.311291
-0.593747
-0.297812
-0.489472
-0.307447
-0.4986
-0.313608
-0.586934
-0.461259
-0.316732
-0.477272
-0.301969
-0.311277
-0.486116
-0.451438
-0.408995
-0.322523
-0.289032
-0.242857
-0.281954
-0.41986
-0.311354
-0.469627
-0.323366
-0.326147
-0.498837
-0.319385
-0.477619
-0.493068
-0.399348
-0.260958
-0.233044
-0.28862
-0.272562
-0.390277
-0.30021
-0.613962
-0.3236
-0.519624
-0.327665
-0.609089
-0.527027
-0.332194
-0.601874
-0.189439
-0.321311
-0.188088
-0.601421
-0.193954
-0.320593
-0.617574
-0.328756
-0.53655
-0.338243
-0.619982
-0.532376
-0.335632
-0.600467
-0.316202
-0.191804
-0.188351
-0.195067
-0.59704
-0.318918
-0.431034
-0.469048
-0.293509
-0.292834
-0.460674
-0.441782