/*--------------------------------*- C++ -*----------------------------------*\
| =========                 |                                                 |
| \\      /  F ield         | OpenFOAM: The Open Source CFD Toolbox           |
|  \\    /   O peration     | Version:  2012                                  |
|   \\  /    A nd           | Website:  www.openfoam.com                      |
|    \\/     M anipulation  |                                                 |
\*---------------------------------------------------------------------------*/
FoamFile
{
    version     2.0;
    format      ascii;
    class       surfaceScalarField;
    location    "0.106/fluid";
    object      phi;
}
// * * * * * * * * * * * * * * * * * * * * * * * * * * * * * * * * * * * * * //

dimensions      [0 3 -1 0 0 0 0];
oriented        oriented;


internalField   nonuniform List<scalar> 
46880
(
2.24496e-07
0.00152795
-2.16188e-07
1.22349e-08
2.13195e-06
-0.00152068
0.00151855
-2.03706e-06
1.23784e-08
3.76491e-06
-0.00151282
0.00151112
-3.58192e-06
-5.64528e-08
5.02599e-06
-0.00150659
0.00150527
-4.80162e-06
-1.08897e-07
5.87194e-06
-0.00150187
0.00150089
-5.67371e-06
-1.62211e-07
6.41291e-06
-0.00149831
0.00149756
-6.26262e-06
-2.13289e-07
6.59366e-06
-0.00149582
0.00149538
-6.48757e-06
-2.30526e-07
6.41867e-06
-0.00149406
0.00149363
-6.35084e-06
-2.34668e-07
5.71813e-06
-0.0014926
0.00149236
-5.70835e-06
-2.06405e-07
4.1953e-06
-0.00149192
0.00149186
-4.28987e-06
-1.2643e-07
1.62916e-06
-0.00149204
0.00149222
-1.90348e-06
-2.96581e-08
-2.34084e-06
-0.00149317
0.00149364
1.84037e-06
1.754e-07
-8.80272e-06
-0.00149541
0.00149604
8.10086e-06
7.94078e-07
-2.46386e-05
-0.00149755
0.00149816
2.97611e-06
2.23445e-05
-9.86028e-05
-0.00151818
0.00155394
4.32811e-06
5.8795e-05
1.70528e-07
0.00152796
-1.51281e-07
1.39143e-08
1.6095e-06
-0.00152078
0.00151869
-1.43123e-06
1.83524e-08
2.80919e-06
-0.00151307
0.00151138
-2.49854e-06
-4.52177e-08
3.83369e-06
-0.00150674
0.00150534
-3.42948e-06
-8.67821e-08
4.66877e-06
-0.00150158
0.00150049
-4.21525e-06
-1.28562e-07
5.27146e-06
-0.00149765
0.00149686
-4.78891e-06
-1.69683e-07
5.5947e-06
-0.00149495
0.00149445
-5.10889e-06
-1.98155e-07
5.57658e-06
-0.00149331
0.00149305
-5.12167e-06
-2.0344e-07
5.11896e-06
-0.00149259
0.00149256
-4.73648e-06
-1.81285e-07
4.09645e-06
-0.00149275
0.00149291
-3.86194e-06
-1.36714e-07
2.34487e-06
-0.00149355
0.00149382
-2.34833e-06
-6.99948e-08
-4.49709e-07
-0.00149498
0.00149554
7.53655e-08
1.27525e-08
-4.97875e-06
-0.00149834
0.00149979
3.88367e-06
1.19126e-07
-1.20312e-05
-0.00150651
0.00150971
9.2519e-06
2.4513e-07
-1.60491e-05
-0.00152285
0.00152806
6.36581e-08
1.10924e-05
8.80919e-08
0.00152807
-6.90674e-08
1.5927e-08
8.55596e-07
-0.00152115
0.00151912
-6.55939e-07
2.65282e-08
1.48627e-06
-0.0015136
0.00151193
-1.12737e-06
-3.36798e-08
2.06345e-06
-0.00150732
0.00150592
-1.57065e-06
-6.79937e-08
2.57972e-06
-0.00150215
0.00150104
-1.96662e-06
-9.91596e-08
2.98049e-06
-0.00149817
0.00149736
-2.2815e-06
-1.27816e-07
3.2265e-06
-0.00149543
0.00149496
-2.48452e-06
-1.49527e-07
3.27179e-06
-0.00149403
0.00149387
-2.53025e-06
-1.56918e-07
3.10487e-06
-0.00149376
0.00149383
-2.41668e-06
-1.3577e-07
2.67386e-06
-0.00149434
0.00149457
-2.11301e-06
-9.20381e-08
1.87992e-06
-0.00149548
0.00149584
-1.54307e-06
-3.79626e-08
5.98001e-07
-0.00149725
0.00149784
-6.11639e-07
1.72321e-08
-1.23413e-06
-0.00150031
0.00150142
6.76778e-07
5.86072e-08
-3.03868e-06
-0.00150582
0.00150758
1.87357e-06
7.93542e-08
-2.27338e-06
-0.00151296
0.00151448
1.26154e-06
1.61439e-07
5.28891e-08
2.15578e-07
0.001528
-2.0209e-07
-6.39438e-08
1.32604e-07
2.04669e-06
-0.001521
0.00151896
-1.93418e-06
-1.71924e-07
2.7482e-07
3.52504e-06
-0.00151353
0.0015119
-3.3552e-06
-3.3003e-07
4.41025e-07
4.74657e-06
-0.0015074
0.00150605
-4.53913e-06
-5.20251e-07
6.21727e-07
5.66231e-06
-0.0015025
0.00150146
-5.46941e-06
-7.30046e-07
7.94182e-07
6.31481e-06
-0.00149868
0.00149785
-6.15736e-06
-9.32917e-07
9.10916e-07
6.64686e-06
-0.00149581
0.00149527
-6.52324e-06
-1.07333e-06
9.51863e-07
6.63105e-06
-0.00149367
0.00149317
-6.53664e-06
-1.12198e-06
9.07369e-07
6.04989e-06
-0.00149203
0.00149178
-6.00678e-06
-1.07367e-06
7.35744e-07
4.60044e-06
-0.0014914
0.00149136
-4.66592e-06
-8.75906e-07
5.41324e-07
2.22465e-06
-0.00149143
0.00149155
-2.4515e-06
-6.3084e-07
2.92257e-07
-1.2908e-06
-0.00149221
0.00149256
8.84639e-07
-3.41773e-07
-8.6586e-08
-6.37163e-06
-0.00149395
0.00149454
5.96412e-06
1.66126e-08
-1.63349e-05
-6.44791e-07
-0.00149673
0.00149784
2.15545e-07
1.60972e-05
-6.2852e-05
-1.09814e-07
-0.00151187
0.00153353
-1.02736e-06
4.24837e-05
5.04543e-08
1.51599e-07
0.00152806
-1.33766e-07
-6.11189e-08
1.04911e-07
1.49803e-06
-0.00152121
0.00151918
-1.32886e-06
-1.33879e-07
2.32373e-07
2.64372e-06
-0.00151365
0.00151196
-2.35363e-06
-2.77974e-07
3.78557e-07
3.65145e-06
-0.00150731
0.0015059
-3.27404e-06
-4.51412e-07
5.36182e-07
4.51569e-06
-0.00150206
0.00150092
-4.07818e-06
-6.43164e-07
6.8821e-07
5.18919e-06
-0.00149792
0.00149706
-4.71318e-06
-8.2072e-07
7.92066e-07
5.59629e-06
-0.00149492
0.00149436
-5.10878e-06
-9.44933e-07
8.4083e-07
5.68402e-06
-0.00149303
0.00149271
-5.20528e-06
-1.00039e-06
7.90447e-07
5.32266e-06
-0.00149216
0.0014921
-4.90212e-06
-9.42289e-07
6.61431e-07
4.3793e-06
-0.00149223
0.00149235
-4.10853e-06
-7.81915e-07
5.06361e-07
2.76349e-06
-0.0014928
0.00149299
-2.71811e-06
-5.80612e-07
3.53196e-07
2.35305e-07
-0.00149379
0.00149419
-5.29332e-07
-3.92258e-07
2.52529e-07
-3.67511e-06
-0.00149617
0.00149718
2.78434e-06
-2.99502e-07
2.40681e-07
-9.37399e-06
-0.00150197
0.0015043
7.23546e-06
-3.44767e-07
-1.27811e-05
-9.51902e-08
-0.00151442
0.00151857
1.28016e-07
8.74157e-06
4.54899e-08
7.72485e-08
0.00152817
-6.1237e-08
-5.5283e-08
8.02226e-08
7.96226e-07
-0.00152153
0.00151955
-6.12289e-07
-1.0492e-07
1.91693e-07
1.41116e-06
-0.00151408
0.00151239
-1.07344e-06
-2.29763e-07
3.18303e-07
1.98841e-06
-0.00150773
0.00150631
-1.51669e-06
-3.81016e-07
4.41504e-07
2.51298e-06
-0.00150246
0.00150131
-1.91965e-06
-5.26526e-07
5.53308e-07
2.94341e-06
-0.00149831
0.00149746
-2.25635e-06
-6.60581e-07
6.29819e-07
3.2246e-06
-0.00149542
0.0014949
-2.47765e-06
-7.62064e-07
6.66699e-07
3.30882e-06
-0.00149384
0.00149363
-2.5495e-06
-7.93285e-07
6.04469e-07
3.18515e-06
-0.00149342
0.00149346
-2.47292e-06
-7.18698e-07
4.73988e-07
2.81962e-06
-0.00149384
0.00149403
-2.22524e-06
-5.62611e-07
3.15737e-07
2.11299e-06
-0.00149471
0.00149497
-1.72365e-06
-3.67056e-07
1.40637e-07
9.71902e-07
-0.00149594
0.00149634
-9.06058e-07
-1.6358e-07
-2.46476e-08
-6.05279e-07
-0.00149803
0.0014988
1.97351e-07
2.63638e-08
-2.81584e-07
-2.08404e-06
-0.00150196
0.00150324
1.17277e-06
3.26566e-07
-9.21434e-07
-1.30543e-06
-0.00150719
0.00150833
5.26057e-07
1.1221e-06
9.47486e-08
1.71673e-07
0.00152809
-1.57875e-07
-1.0104e-07
2.36358e-07
1.75711e-06
-0.00152132
0.00151935
-1.64534e-06
-2.44944e-07
4.40789e-07
3.03738e-06
-0.00151403
0.00151242
-2.88501e-06
-4.5676e-07
6.73716e-07
4.14895e-06
-0.00150796
0.00150659
-3.97829e-06
-6.98921e-07
9.4036e-07
5.1497e-06
-0.00150275
0.00150158
-4.97636e-06
-9.74839e-07
1.1949e-06
6.01445e-06
-0.00149828
0.00149727
-5.85284e-06
-1.23531e-06
1.38763e-06
6.64716e-06
-0.00149453
0.00149371
-6.502e-06
-1.43734e-06
1.46497e-06
6.93091e-06
-0.00149154
0.00149095
-6.79248e-06
-1.51923e-06
1.37988e-06
6.52319e-06
-0.0014896
0.00148932
-6.43178e-06
-1.41942e-06
1.09165e-06
5.1895e-06
-0.00148873
0.00148857
-5.20625e-06
-1.10159e-06
7.32772e-07
3.11562e-06
-0.00148794
0.00148765
-3.28599e-06
-7.22961e-07
4.17567e-07
3.45154e-07
-0.00148646
0.00148595
-6.38116e-07
-4.15502e-07
3.5797e-07
-3.25479e-06
-0.00148371
0.00148266
3.07888e-06
-3.94772e-07
-1.01462e-05
1.07554e-06
-0.00147821
0.00147638
-1.03526e-06
1.05321e-05
-5.36652e-05
2.75879e-06
-0.00147964
0.00149751
-2.19963e-06
3.46533e-05
9.06977e-08
1.12704e-07
0.00152814
-9.85409e-08
-9.74315e-08
1.91903e-07
1.25809e-06
-0.00152143
0.00151943
-1.11652e-06
-2.011e-07
3.70102e-07
2.28782e-06
-0.0015139
0.00151219
-2.053e-06
-3.89252e-07
6.03821e-07
3.25194e-06
-0.00150741
0.00150594
-2.94222e-06
-6.31114e-07
8.46332e-07
4.14474e-06
-0.00150187
0.00150063
-3.76457e-06
-8.86835e-07
1.0824e-06
4.93267e-06
-0.00149722
0.00149619
-4.49059e-06
-1.13167e-06
1.25766e-06
5.53524e-06
-0.00149349
0.00149274
-5.04652e-06
-1.3162e-06
1.32485e-06
5.8059e-06
-0.00149096
0.00149053
-5.28851e-06
-1.3802e-06
1.22606e-06
5.59291e-06
-0.00148968
0.00148953
-5.12267e-06
-1.26841e-06
9.84247e-07
4.794e-06
-0.00148931
0.00148927
-4.48921e-06
-1.00844e-06
6.80308e-07
3.45931e-06
-0.00148902
0.00148888
-3.37572e-06
-6.81112e-07
4.33022e-07
1.4614e-06
-0.00148824
0.00148796
-1.66501e-06
-4.27247e-07
4.35912e-07
-1.49327e-06
-0.00148712
0.00148691
8.23938e-07
-4.39846e-07
6.35243e-07
-5.78616e-06
-0.00148727
0.00148794
4.18142e-06
-6.10372e-07
-8.67214e-06
-1.59199e-07
-0.00149287
0.00149558
3.24812e-07
5.29379e-06
8.33463e-08
5.79612e-08
0.0015282
-4.74536e-08
-8.91286e-08
1.57956e-07
6.86806e-07
-0.0015216
0.00151962
-5.3506e-07
-1.68157e-07
3.11761e-07
1.26905e-06
-0.0015141
0.00151237
-9.75717e-07
-3.28213e-07
5.13051e-07
1.8375e-06
-0.00150752
0.00150602
-1.41278e-06
-5.40918e-07
7.2421e-07
2.35587e-06
-0.00150189
0.00150063
-1.80994e-06
-7.63368e-07
9.06955e-07
2.82461e-06
-0.00149724
0.00149625
-2.17802e-06
-9.55457e-07
1.03566e-06
3.18095e-06
-0.00149377
0.00149312
-2.44729e-06
-1.08866e-06
1.05733e-06
3.32145e-06
-0.00149172
0.00149142
-2.5523e-06
-1.10584e-06
9.41348e-07
3.28685e-06
-0.00149093
0.00149087
-2.54549e-06
-9.79465e-07
7.15218e-07
3.06733e-06
-0.00149087
0.00149087
-2.41894e-06
-7.32961e-07
4.3758e-07
2.57614e-06
-0.00149082
0.00149075
-2.0914e-06
-4.38077e-07
1.71023e-07
1.75289e-06
-0.00149041
0.00149027
-1.52202e-06
-1.61184e-07
-5.75184e-08
6.3723e-07
-0.00148997
0.00148998
-7.73381e-07
8.36126e-08
-4.69793e-07
-3.40568e-07
-0.00149057
0.00149098
-1.59738e-07
5.33426e-07
-1.63468e-06
4.61792e-07
-0.00149254
0.00149305
-8.40079e-07
1.78928e-06
-0.00147761
-0.000108328
0.00147104
1.65776e-05
-2.58357e-05
2.54434e-05
-0.000295888
-4.76923e-06
2.30998e-06
-0.00150018
6.28503e-05
-5.86942e-06
-6.49957e-05
0.00150605
5.17602e-07
-7.95778e-06
-5.68619e-07
9.12701e-06
-0.000419554
-0.0014936
-6.58379e-05
0.00149935
-3.0932e-07
-7.74484e-06
8.75504e-06
-0.000418769
4.54217e-07
-3.78905e-06
-0.00146952
5.47553e-05
3.33568e-06
-5.64396e-05
0.00147135
-4.58108e-08
-8.31697e-06
-3.33333e-08
9.06726e-06
-0.000408759
-0.00145993
-5.58532e-05
0.00146085
-3.1312e-06
-8.33879e-06
9.08279e-06
-0.000407088
-1.09211e-07
-0.00149137
-2.48538e-05
0.001488
5.00961e-06
6.60709e-05
-7.74252e-05
1.29033e-05
-0.00147832
1.57123e-06
-0.00149876
1.66158e-05
-2.67907e-06
-1.49037e-05
0.00149892
2.49789e-06
4.189e-05
-5.37393e-06
-4.01306e-05
-0.00149858
1.14752e-05
-0.000244515
-3.23677e-06
3.53298e-05
0.000201044
3.17049e-05
3.59773e-05
0.000381347
0.000358799
0.000373214
0.000365661
-0.00147853
-2.68528e-05
-2.71943e-05
-2.74531e-05
-2.30541e-05
1.92537e-05
1.58907e-06
-7.89281e-06
-0.00164017
-9.03094e-06
-3.41815e-06
-0.00152918
-2.54519e-05
0.00153841
4.92158e-07
-5.99039e-07
-9.68025e-07
-0.00155377
1.41427e-07
-0.00151819
-1.93866e-06
0.00154045
4.26201e-05
-9.89651e-07
7.90021e-06
-1.00037e-07
-2.74673e-07
1.382e-06
-0.00162397
5.12877e-06
1.11154e-07
-0.00152544
1.32266e-05
-5.37281e-07
-2.07091e-05
0.00153356
1.53359e-06
-7.94632e-07
-1.62232e-06
-1.20757e-06
-0.00154778
-0.00149424
-1.4765e-05
0.00149373
9.43308e-07
4.19393e-05
-4.07844e-05
4.18515e-07
-0.00149232
-8.65069e-07
-0.00148093
1.13332e-05
4.47767e-07
-9.37191e-06
0.00147841
-2.78394e-06
3.42861e-05
2.29176e-06
-3.20987e-05
-0.00147168
2.25526e-06
-7.17813e-06
7.98449e-06
0.000349519
0.000348419
0.000350502
0.00034739
-0.00144662
-1.45881e-07
-1.84745e-06
0.000348265
0.000344394
0.000345781
0.000346726
-0.00144037
-4.8786e-07
7.79778e-06
-4.22745e-07
-0.00161532
4.50849e-07
5.09328e-06
-0.00152077
-2.03002e-05
0.00152858
-4.57094e-08
-7.93329e-07
-1.1628e-06
-0.00154224
1.7721e-06
-0.00148846
2.59618e-06
0.00150712
3.59541e-05
1.50686e-06
8.18135e-06
2.65372e-07
1.38774e-07
-1.37924e-06
-0.0015861
2.84808e-06
-6.16283e-07
-0.00150317
9.62769e-06
5.15518e-07
-1.62148e-05
0.00150952
1.41446e-06
-2.80388e-06
-1.53671e-06
1.06879e-06
-0.00152152
-0.00147544
-8.27974e-06
0.00147198
-8.19469e-07
3.31096e-05
-3.13703e-05
-2.24777e-06
-0.00146312
-3.10483e-06
4.04984e-06
-1.07113e-06
0.000338755
0.000338198
0.00033994
0.000336918
-0.00141062
-3.44192e-06
-9.26221e-07
0.00033724
0.000334064
0.000335463
0.000335917
-0.00140157
2.82247e-07
8.48636e-06
4.10525e-07
-0.00157539
1.76126e-06
2.35986e-06
-0.00149652
-1.50675e-05
0.00150227
-5.39071e-07
-3.26197e-06
1.54172e-06
-0.0015134
1.31949e-06
3.00935e-05
0.000404453
0.00024463
0.000393397
0.000262782
-1.87379e-05
-7.12329e-06
-1.3882e-05
-0.0013919
1.62853e-05
0.000301527
-5.11922e-05
-4.66658e-05
-6.25003e-05
-3.62555e-05
0.000465317
0.000299752
0.000460762
0.000123712
-8.20212e-05
0.00154079
1.07909e-05
7.17996e-05
-0.00152464
1.9436e-05
0.000359759
0.000363269
0.000362442
0.000363215
-0.00148817
0.000414567
1.46396e-05
-4.56378e-05
-6.10884e-05
-6.36393e-05
-4.25635e-05
0.000411448
0.000411686
0.000409658
0.000107635
1.66402e-05
0.000287261
1.34526e-05
-1.59121e-05
7.27563e-07
-9.37227e-06
1.44648e-06
1.00315e-05
-0.000428527
2.95302e-06
2.37281e-05
-3.52687e-05
-2.05978e-07
0.000423284
-2.00521e-05
5.2643e-06
0.000353602
0.000349285
0.000352157
0.000350466
-0.00145448
1.85608e-05
0.000354039
0.00035576
0.000358902
0.000351426
-0.00146101
-7.68558e-05
0.00151268
-0.00150345
7.26828e-05
-8.15413e-06
3.21762e-06
0.000349942
0.000348169
0.000349481
0.000348819
-0.00145088
-6.10293e-06
0.000401481
1.81276e-06
-3.77725e-05
-5.54221e-05
-5.59698e-05
-3.72678e-05
0.000402487
0.000397043
0.000398076
9.75007e-05
0.000351669
0.000352768
0.000352878
0.000350868
-0.00145494
0.000405379
-3.96458e-05
-5.87125e-05
-4.074e-05
-5.79665e-05
0.00040187
0.000403841
0.000399943
0.000106968
-7.4803e-06
4.34061e-07
8.9733e-06
-0.000425026
3.52791e-07
2.28462e-05
0.000411704
-9.08517e-07
-3.2567e-05
2.53762e-05
-3.50326e-05
0.000416434
1.48323e-06
-5.3775e-07
0.000347478
0.000347701
0.00034673
0.000348238
-0.00144396
-1.10853e-06
0.000400545
-3.73566e-05
-5.58174e-05
-3.76994e-05
-5.54534e-05
0.000396075
0.000399549
0.000395013
9.72931e-05
-5.96097e-05
0.00149057
-2.36485e-06
5.80459e-05
-0.0014869
-2.86529e-06
0.000345782
0.0003439
0.000345157
0.000344567
-0.00143667
0.000396742
-3.07871e-06
-3.62074e-05
-5.40418e-05
-5.42943e-05
-3.59425e-05
0.000392016
0.000397937
0.000393228
9.30031e-05
2.30313e-05
0.000410831
-3.2944e-05
-6.77092e-08
1.98671e-07
-8.00464e-06
-3.47429e-07
8.94796e-06
-0.000414559
-6.30184e-07
2.21475e-05
-3.18418e-05
3.56556e-07
0.000406672
3.29177e-06
-2.06935e-06
0.000342834
0.000339332
0.000341349
0.000340761
-0.00142132
2.54147e-06
0.000344243
0.000343444
0.000345326
0.000342287
-0.00142958
-6.00843e-05
0.0014815
-0.00147809
5.75593e-05
4.03082e-06
-4.47279e-06
0.000341018
0.000339135
0.000340461
0.000339738
-0.00141875
4.15251e-06
0.000391359
-4.59073e-06
-3.52493e-05
-5.3016e-05
-5.32086e-05
-3.50437e-05
0.000392688
0.000386446
0.000387831
8.97685e-05
0.000342571
0.000343083
0.000343629
0.000341917
-0.00142762
0.000395553
-3.59451e-05
-5.41597e-05
-3.61585e-05
-5.39226e-05
0.000390821
0.000394366
0.000389576
9.23123e-05
-8.06603e-06
1.53549e-07
8.94348e-06
-0.000413323
-9.70038e-07
2.15822e-05
0.000400991
9.02568e-07
-3.11777e-05
2.20689e-05
-3.18746e-05
0.000405524
-8.2701e-07
-3.56465e-06
0.000337271
0.000337999
0.000336708
0.000338458
-0.00140899
-4.0349e-06
0.000389801
-3.47853e-05
-5.28498e-05
-3.49697e-05
-5.26448e-05
0.000384892
0.000388475
0.000383474
8.85538e-05
-5.33949e-05
0.00144998
-1.52861e-06
5.15301e-05
-0.00145072
-1.38846e-06
0.000335714
0.000333952
0.000335298
0.000334492
-0.0013997
0.000385272
-2.32517e-06
-3.43056e-05
-5.19127e-05
-5.21181e-05
-3.41021e-05
0.000380138
0.000386644
0.000381629
8.6467e-05
2.14646e-05
0.000399436
-3.10922e-05
-1.00592e-06
-1.88103e-07
-8.64381e-06
1.73213e-07
9.17445e-06
-0.000402008
-6.10171e-07
2.10203e-05
-3.04555e-05
8.00783e-07
0.000394473
-3.69176e-06
0.00033336
0.000332754
0.000334345
0.000331522
-0.00139244
-5.15447e-05
0.00143935
-0.00144184
4.92979e-05
0.000331959
0.000332627
0.000332964
0.000331382
-0.00139089
0.000383366
-3.35225e-05
-5.14893e-05
-3.37561e-05
-5.12262e-05
0.000378229
0.000382057
0.000376741
8.41773e-05
-8.64537e-06
-1.98158e-07
9.13148e-06
-0.000399919
2.07925e-05
-3.02634e-05
0.000392526
-3.48072e-07
0.000400679
-2.80481e-05
1.40591e-05
-2.997e-05
-1.11228e-05
-0.000374209
0.000104051
6.19743e-06
-1.34739e-05
-3.42845e-05
-3.41047e-05
-1.37383e-05
0.000105513
0.00010652
0.000107356
-7.8749e-06
3.0987e-05
8.28898e-06
6.95561e-06
8.82039e-05
7.21229e-05
7.28437e-05
8.71123e-05
-1.2544e-05
-3.39834e-05
-1.17973e-05
-3.32625e-05
-4.95056e-06
-5.35207e-06
0.000112033
0.00011633
0.000112474
-1.37837e-05
1.09219e-05
9.20104e-05
7.73262e-05
9.48347e-05
7.5749e-05
8.35181e-06
-2.00243e-05
-0.000403417
9.77391e-05
0.000109718
-1.1099e-05
-1.00949e-05
-4.42262e-07
-2.89173e-05
2.05823e-05
6.99773e-06
1.78643e-06
2.53362e-05
9.18697e-05
8.4043e-05
0.000101287
7.69318e-05
-0.000388075
-7.10867e-06
-6.19558e-06
-7.21396e-06
-4.91393e-06
0.000351277
-3.9559e-05
-1.16554e-07
-6.72119e-07
5.18615e-07
-0.000350151
-1.7176e-06
-1.47995e-05
-3.40933e-05
-3.41392e-05
-1.47233e-05
9.95014e-05
9.95721e-05
3.7617e-07
3.97579e-05
-1.10438e-06
-1.10186e-06
8.35835e-05
6.96278e-05
6.93405e-05
8.38653e-05
-5.86475e-07
-1.48153e-05
-3.41291e-05
-1.47009e-05
-3.41798e-05
0.000100006
9.97111e-05
-3.25512e-08
-8.21296e-07
8.36837e-05
6.99918e-05
8.42891e-05
6.94186e-05
-1.2611e-06
-4.94366e-07
0.000353016
-3.75589e-05
-0.000354418
2.37131e-08
1.28419e-07
-1.42195e-05
-3.38236e-05
-1.42294e-05
-3.37913e-05
0.000101079
0.000100803
3.74816e-05
2.43935e-07
-9.19331e-07
1.03451e-06
8.45482e-05
7.0687e-05
8.50998e-05
7.01649e-05
-8.06399e-07
-1.42064e-05
-3.37293e-05
-1.4231e-05
-3.37464e-05
0.000100351
0.000100524
7.74082e-07
8.43693e-05
7.02486e-05
8.45759e-05
7.00192e-05
0.000339761
-3.88409e-05
-8.87217e-07
1.07398e-06
1.08962e-06
-0.000338411
-9.85235e-07
-1.4251e-05
-3.33669e-05
-3.3406e-05
-1.42048e-05
9.6093e-05
9.62235e-05
1.00037e-06
3.87921e-05
-1.76397e-06
-7.07045e-07
8.10194e-05
6.73049e-05
6.70595e-05
8.12668e-05
1.16683e-06
-1.43022e-05
-3.34479e-05
-1.42441e-05
-3.34714e-05
9.67179e-05
9.642e-05
1.2742e-06
-1.61683e-06
8.11705e-05
6.77577e-05
8.17572e-05
6.71835e-05
-7.26453e-07
1.46938e-06
0.000341419
-3.84492e-05
-0.000342886
-1.57749e-06
1.87226e-06
-1.42515e-05
-3.34931e-05
-1.42276e-05
-3.34994e-05
9.76309e-05
9.73523e-05
3.85314e-05
-1.53362e-06
1.55574e-06
-1.0635e-06
8.19082e-05
6.84024e-05
8.24758e-05
6.78432e-05
1.60936e-06
-1.42169e-05
-3.34181e-05
-1.41889e-05
-3.34472e-05
9.69794e-05
9.71182e-05
-1.18269e-06
8.17327e-05
6.79327e-05
8.19628e-05
6.76977e-05
6.83758e-07
-2.81055e-05
-1.47029e-06
0.000116007
-1.01762e-05
-2.38463e-06
-4.88229e-06
3.11884e-06
3.70542e-06
-0.000133455
7.13689e-06
-6.58785e-06
-5.19847e-05
0.000367066
2.76082e-06
-3.8567e-06
-5.27745e-06
4.8448e-05
5.87915e-06
8.80084e-05
7.31867e-05
7.28848e-05
8.83001e-05
-2.33006e-06
-0.000367493
0.000101555
3.71958e-06
-1.69981e-05
-3.6466e-05
-3.71541e-05
-1.65588e-05
0.000104039
0.000102124
0.000104321
-5.81315e-06
8.64758e-05
7.41712e-05
7.17507e-05
8.93464e-05
-2.19401e-06
0.000103618
-1.72017e-05
-3.84735e-05
-1.73694e-05
-3.79485e-05
0.000101084
0.000106096
0.00010331
4.25863e-06
-6.24437e-05
0.000426106
-1.43833e-05
1.56295e-05
3.26301e-05
7.12329e-05
3.23304e-05
5.027e-05
4.38545e-05
-1.03085e-06
-8.59811e-07
8.02973e-08
3.84005e-06
-0.000244692
5.26613e-05
-1.4732e-05
-3.02434e-05
-3.17821e-05
-1.66104e-05
6.14455e-05
8.4482e-05
8.88106e-05
9.67721e-05
8.6592e-05
7.90394e-05
0.000103526
0.000121234
-1.69975e-05
-3.8091e-05
-1.78833e-05
-3.63901e-05
0.000121726
0.000115305
0.000116169
0.000128153
1.48158e-06
5.34433e-06
-7.36024e-06
-0.000127058
-5.7509e-07
9.22693e-07
1.71587e-05
-2.86937e-05
-1.14805e-06
0.000113295
3.96998e-07
1.75816e-05
0.000115992
-3.57149e-07
-3.00158e-05
0.000126463
2.48153e-07
5.77118e-06
-1.55976e-07
-7.29298e-06
-0.000125047
-1.60867e-06
-0.00014383
4.58163e-06
-7.52441e-06
0.000145934
2.43907e-06
-8.83553e-06
1.13844e-05
-1.1031e-06
-8.70059e-05
-1.86752e-06
-2.48207e-06
-0.000149107
2.53963e-06
1.13354e-06
-8.25661e-05
-2.41429e-06
-1.63874e-06
8.54184e-05
1.19141e-06
1.21745e-06
-3.63642e-06
-6.83633e-07
0.000129638
-4.4044e-07
-5.17618e-06
5.58635e-06
-0.000129608
8.52368e-07
1.00203e-07
1.9771e-06
6.38432e-08
-3.89481e-06
0.00012821
-6.2842e-06
-0.000130799
6.61518e-06
-1.47518e-06
7.97608e-06
-1.00307e-05
-0.000142526
2.21794e-06
7.83295e-06
-1.82624e-05
1.71463e-06
6.13546e-05
1.81078e-05
0.00013176
-2.86389e-05
3.79884e-07
6.94582e-07
-1.66995e-06
-2.82046e-06
-7.87862e-05
-8.24437e-06
0.000359745
-3.66075e-05
6.3149e-06
-0.000363224
6.49683e-06
0.000101842
-1.43697e-05
-3.44461e-05
-1.42709e-05
-3.43303e-05
0.000103818
0.000101022
0.000103207
3.58928e-05
6.64835e-06
3.11995e-06
8.62582e-05
7.2099e-05
8.70527e-05
7.15065e-05
5.63213e-06
0.000100338
-1.41231e-05
-3.39454e-05
-1.41542e-05
-3.39974e-05
0.000100882
0.000102542
0.000102845
4.6263e-06
2.68071e-06
8.58221e-05
7.12608e-05
8.58889e-05
7.10903e-05
3.33654e-06
0.00035801
-3.90103e-05
-0.000356397
-2.56477e-06
-1.49709e-05
-3.44728e-05
-1.48988e-05
-3.4534e-05
0.000101436
0.000101562
3.95857e-05
-2.59275e-06
-9.05654e-08
8.49616e-05
7.07506e-05
8.5216e-05
7.04648e-05
0.000100093
-1.48952e-05
-3.44261e-05
-1.47227e-05
-3.45016e-05
0.000102193
9.98021e-05
0.000101847
6.7693e-07
8.51472e-05
7.11705e-05
8.57796e-05
7.06166e-05
-2.67169e-05
0.000113566
1.00522e-06
1.4224e-06
0.000112031
-1.45028e-06
-2.64661e-05
-1.67137e-06
4.32551e-06
1.278e-06
1.02931e-07
-3.19524e-07
4.58274e-06
7.14488e-06
-0.000129564
-3.30291e-06
7.51011e-07
5.58501e-06
0.000111759
-2.73467e-05
9.41064e-07
-1.82535e-06
-4.31167e-05
0.000355553
1.33438e-06
4.43317e-05
3.36749e-06
8.53615e-05
7.15545e-05
8.64158e-05
7.06165e-05
-0.00035879
1.8009e-06
9.99989e-05
-1.5422e-05
-3.55538e-05
-1.55443e-05
-3.54149e-05
0.000102449
9.95569e-05
0.000101777
2.5465e-06
8.50094e-05
7.05808e-05
7.03321e-05
8.52407e-05
9.91365e-07
9.85751e-05
-1.54684e-05
-3.52564e-05
-1.53422e-05
-3.54002e-05
9.8957e-05
0.00010099
0.000101219
-4.12692e-05
0.00035357
1.1122e-06
-1.78607e-06
4.04555e-05
6.16429e-07
8.43144e-05
7.0052e-05
6.97136e-05
8.46441e-05
-5.82326e-07
-0.000352779
9.7834e-05
2.62686e-08
-1.46911e-05
-3.45579e-05
-3.45867e-05
-1.46467e-05
0.000100203
9.80181e-05
0.000100244
8.44043e-05
7.03658e-05
6.98071e-05
8.49796e-05
9.82059e-05
-1.48607e-05
-3.48643e-05
-1.49341e-05
-3.47607e-05
0.000100616
9.81244e-05
0.000100356
2.8384e-07
0.000123682
1.94741e-08
5.45558e-06
-1.15163e-07
-6.99981e-06
-0.000122054
1.6608e-05
-2.80251e-05
0.000111871
4.5008e-07
0.000125308
5.19284e-06
3.09068e-07
-6.81696e-06
-0.000123759
1.78118e-07
1.63569e-05
0.000110161
-3.68791e-07
-2.77704e-05
1.46248e-08
-0.00012316
1.58643e-06
-3.52879e-06
0.000125068
1.25252e-08
3.30661e-08
-4.85028e-06
5.22279e-06
4.81153e-08
-0.000126374
8.41941e-08
-4.87968e-06
-0.000126893
-5.06132e-09
5.28447e-06
-0.000122621
1.32687e-08
1.48532e-06
5.47163e-08
0.000124525
-3.46353e-06
1.9406e-06
-5.87535e-08
-3.78622e-06
0.000125595
-5.14881e-06
5.46799e-06
-0.000128911
-1.70632e-07
1.50246e-06
2.36526e-07
-3.53186e-06
0.000127194
-4.70462e-06
-0.000127447
1.18896e-07
5.17121e-06
5.0957e-06
-6.72587e-06
-0.000121544
2.2198e-08
-3.81424e-08
1.57622e-05
-2.70955e-05
-8.63368e-08
0.000109276
1.60303e-05
0.000109737
-2.74249e-05
2.7383e-08
3.74784e-09
4.92571e-06
4.56646e-08
-6.59885e-06
-0.000121006
5.53596e-06
-1.15016e-06
2.60248e-07
1.90925e-07
5.40564e-06
4.66327e-06
5.88767e-07
4.68845e-06
7.35447e-08
-3.92624e-05
0.00034899
-7.301e-07
5.09667e-07
5.95927e-07
3.88923e-05
-1.12466e-06
8.31977e-05
6.89932e-05
6.86894e-05
8.35024e-05
9.33563e-07
-0.00034789
9.64306e-05
-1.23345e-06
-1.42471e-05
-3.40321e-05
-3.40464e-05
-1.42096e-05
9.87455e-05
9.66387e-05
9.88097e-05
2.7848e-07
8.32986e-05
6.93574e-05
6.87765e-05
8.38902e-05
6.82703e-07
9.68876e-05
-1.43212e-05
-3.41921e-05
-1.43507e-05
-3.41303e-05
9.92235e-05
9.67873e-05
9.89518e-05
-1.13335e-06
-4.06397e-05
3.14384e-07
0.000350917
-7.20338e-08
4.11135e-05
8.40726e-05
7.00387e-05
6.94921e-05
8.46306e-05
-0.000352174
-4.10834e-07
9.7775e-05
-1.48188e-05
-3.46558e-05
-1.47724e-05
-3.46554e-05
0.000100155
9.77323e-05
9.99274e-05
8.3894e-05
6.96177e-05
6.93366e-05
8.41662e-05
9.72367e-05
-1.47264e-05
-3.44562e-05
-1.4619e-05
-3.45506e-05
9.95686e-05
9.75102e-05
9.96963e-05
8.265e-08
0.000121595
4.93416e-06
-6.59837e-06
-0.000119943
-8.04095e-08
-3.03016e-07
1.5476e-05
-2.67029e-05
2.01739e-07
0.000107747
1.53432e-07
1.56035e-05
0.000108251
-2.68633e-05
-2.66693e-07
0.000121062
-1.67271e-07
4.85706e-06
1.91871e-07
-6.55021e-06
-0.0001194
-0.000121957
-3.53341e-08
1.65193e-06
4.9759e-08
-3.58338e-06
0.00012387
-4.74736e-06
5.1192e-06
-0.000126403
1.24881e-07
-0.000122626
1.65701e-06
5.95938e-08
0.000124536
-3.61899e-06
1.16397e-07
-4.71774e-06
-0.00012577
-7.41022e-08
5.12159e-06
5.05162e-06
8.22433e-08
-6.69863e-06
-0.000120318
1.58784e-05
-2.72323e-05
0.000109233
-1.54391e-07
5.09129e-06
2.47055e-08
-6.7539e-06
-0.000120996
1.57647e-05
0.000108612
-2.70557e-05
5.51087e-08
1.55862e-06
-3.50321e-06
-2.29939e-08
0.000123522
5.26417e-08
-4.75212e-06
5.13871e-06
-0.000124933
-1.19961e-08
-1.15788e-07
1.51123e-06
1.50736e-07
-3.47644e-06
0.000122989
-4.7392e-06
-0.000125452
5.14411e-06
1.40039e-07
1.29429e-06
0.000347238
-3.82061e-05
-9.42857e-07
-0.00034869
-1.43833e-06
-1.42806e-05
-3.36681e-05
-1.42787e-05
-3.36627e-05
9.93064e-05
9.90462e-05
3.82396e-05
-1.36725e-06
-2.1241e-07
8.32332e-05
6.95721e-05
8.37851e-05
6.90258e-05
-9.53972e-07
-1.42634e-05
-3.36022e-05
-1.42565e-05
-3.3622e-05
9.86527e-05
9.87952e-05
-1.2805e-06
-3.73443e-07
8.30543e-05
6.91104e-05
8.32763e-05
6.88786e-05
-1.14732e-06
0.000345598
-3.9278e-05
-0.000344367
1.36521e-06
-1.45256e-05
-3.37288e-05
-1.44667e-05
-3.37671e-05
9.78337e-05
9.79247e-05
3.9334e-05
1.31202e-06
-1.45564e-06
8.2328e-05
6.84949e-05
8.25906e-05
6.82301e-05
-1.4562e-05
-3.37872e-05
-1.44845e-05
-3.38212e-05
9.83699e-05
9.80824e-05
-1.27331e-06
8.24464e-05
6.89045e-05
8.30403e-05
6.8327e-05
1.32513e-06
-3.90642e-05
0.000345679
-1.34001e-06
3.93797e-05
-1.34144e-06
8.2869e-05
6.89526e-05
8.34417e-05
6.83789e-05
-0.000346978
-1.35566e-06
9.63149e-05
-1.43161e-05
-3.40817e-05
-1.42783e-05
-3.40773e-05
9.8648e-05
9.62516e-05
9.8403e-05
-1.33996e-06
8.27065e-05
6.85094e-05
6.82386e-05
8.29768e-05
-1.43563e-06
9.57807e-05
-1.42376e-05
-3.39201e-05
-1.41501e-05
-3.39874e-05
9.6043e-05
9.80721e-05
9.8191e-05
-3.82302e-05
0.000343992
-1.39938e-06
1.40207e-06
3.79348e-05
-1.5561e-06
8.2035e-05
6.78874e-05
6.76088e-05
8.23166e-05
1.51311e-06
-0.000342705
9.49666e-05
-1.60249e-06
-1.39083e-05
-3.36057e-05
-3.36345e-05
-1.38582e-05
9.72397e-05
9.52048e-05
9.73389e-05
8.21644e-05
6.83091e-05
6.77179e-05
8.27615e-05
9.54962e-05
-1.39729e-05
-3.37485e-05
-1.39808e-05
-3.37094e-05
9.77986e-05
9.53922e-05
9.75192e-05
-1.5052e-06
0.000120336
-1.95299e-07
4.88284e-06
2.16869e-07
-6.58497e-06
-0.00011866
1.55137e-05
-2.67686e-05
0.000107645
-3.85245e-07
0.000120963
4.91671e-06
-1.39736e-07
-6.6138e-06
-0.000119302
-3.22143e-07
1.54367e-05
0.000107047
2.45682e-07
-2.66376e-05
1.32258e-07
-0.000120055
1.52649e-06
-3.49298e-06
0.00012199
-1.0561e-07
3.19729e-08
-4.74186e-06
5.14434e-06
1.15319e-08
-0.000123385
-6.67968e-08
-4.73284e-06
-0.000123972
9.86315e-08
5.14677e-06
-0.000119441
-1.65828e-07
1.50532e-06
2.08722e-07
0.00012138
-3.48931e-06
1.55376e-06
1.6471e-07
-3.51612e-06
0.000122263
-4.73373e-06
5.13029e-06
-0.000124817
1.03871e-07
1.56641e-06
-7.39768e-08
-3.53236e-06
0.000122883
-4.73454e-06
-0.000124228
-2.24353e-08
5.1347e-06
4.84123e-06
-6.55131e-06
-0.000118368
-1.78709e-07
-3.76411e-07
1.52565e-05
-2.64019e-05
3.01519e-07
0.000106177
1.53464e-05
0.000106764
-2.65292e-05
-4.12743e-07
-2.31184e-07
4.79547e-06
2.63025e-07
-6.53174e-06
-0.000117739
-3.72496e-05
0.000338351
-1.07207e-06
1.28863e-06
1.08124e-06
3.69369e-05
-7.69485e-07
8.07448e-05
6.66801e-05
6.64147e-05
8.10149e-05
1.21712e-06
-0.000336959
9.33193e-05
-9.45464e-07
-1.35408e-05
-3.31527e-05
-3.31962e-05
-1.34832e-05
9.55418e-05
9.35769e-05
9.56762e-05
1.31897e-06
8.09043e-05
6.71437e-05
6.65485e-05
8.15077e-05
1.42054e-06
9.39106e-05
-1.36174e-05
-3.33085e-05
-1.36094e-05
-3.32817e-05
9.61847e-05
9.38007e-05
9.58897e-05
-7.6889e-07
-3.77462e-05
1.46845e-06
0.000340011
-1.51876e-06
3.803e-05
8.16028e-05
6.77933e-05
6.72042e-05
8.21941e-05
-0.000341407
-1.53289e-06
9.47676e-05
-1.38712e-05
-3.35812e-05
-1.38465e-05
-3.35691e-05
9.70616e-05
9.46761e-05
9.67888e-05
8.14354e-05
6.73218e-05
6.70601e-05
8.17006e-05
9.4189e-05
-1.37953e-05
-3.34285e-05
-1.37236e-05
-3.34824e-05
9.64408e-05
9.4453e-05
9.65694e-05
2.00058e-07
0.000118276
4.7698e-06
-6.53833e-06
-0.000116556
-1.55891e-07
-2.18833e-07
1.50308e-05
-2.60836e-05
1.93289e-07
0.000104389
3.24221e-07
1.51144e-05
0.000105069
-2.62184e-05
-3.81163e-07
0.000117539
-1.22324e-07
4.73302e-06
1.82831e-07
-6.5281e-06
-0.000115805
-0.00011855
-1.3657e-07
1.51139e-06
1.87913e-07
-3.50559e-06
0.000120492
-4.73675e-06
5.15362e-06
-0.000123172
7.72107e-08
-0.000119238
1.52269e-06
-1.17639e-07
0.000121174
-3.51006e-06
3.97431e-08
-4.74202e-06
-0.000122522
9.31818e-09
5.14969e-06
4.7824e-06
2.40838e-07
-6.53981e-06
-0.000116835
1.52458e-05
-2.64057e-05
0.000105989
-4.42113e-07
4.81388e-06
-1.93279e-07
-6.55592e-06
-0.00011754
1.51735e-05
0.00010534
-2.62819e-05
2.72713e-07
1.50891e-06
-3.50732e-06
-8.50572e-08
0.00012022
5.23387e-08
-4.73894e-06
5.14587e-06
-0.000121551
-3.66622e-10
-6.97877e-08
1.49779e-06
1.39983e-07
-3.50941e-06
0.00011948
-4.74068e-06
-0.000122259
5.16209e-06
8.60558e-08
1.6678e-07
0.000335268
-3.82104e-05
7.55046e-07