/*--------------------------------*- C++ -*----------------------------------*\
| =========                 |                                                 |
| \\      /  F ield         | OpenFOAM: The Open Source CFD Toolbox           |
|  \\    /   O peration     | Version:  2012                                  |
|   \\  /    A nd           | Website:  www.openfoam.com                      |
|    \\/     M anipulation  |                                                 |
\*---------------------------------------------------------------------------*/
FoamFile
{
    version     2.0;
    format      ascii;
    class       pointVectorField;
    location    "0.106/fluid";
    object      pointMotionU;
}
// * * * * * * * * * * * * * * * * * * * * * * * * * * * * * * * * * * * * * //

dimensions      [0 1 -1 0 0 0 0];


internalField   nonuniform List<vector> 
22592
(
(0 0 0)
(-2.43813e-05 4.19061e-05 2.3505e-83)
(-2.70317e-05 9.04244e-05 3.65843e-81)
(-2.87165e-05 0.000131549 3.00507e-80)
(-4.72233e-05 0.00016177 -7.88203e-81)
(-7.77701e-05 0.000184484 -8.92891e-80)
(-0.000108546 0.000201952 -4.68973e-78)
(-0.000129582 0.000212106 -1.71163e-77)
(-0.00013302 0.000208307 3.09287e-77)
(-0.00011766 0.000186497 -1.06221e-75)
(-8.47278e-05 0.000147049 1.46758e-69)
(-4.06447e-05 9.6404e-05 6.43297e-58)
(1.32538e-06 4.6215e-05 -4.30388e-46)
(2.14384e-05 1.11487e-05 -7.98096e-34)
(7.10508e-06 -1.60025e-06 3.00212e-23)
(5.84439e-07 -1.98074e-06 1.86647e-26)
(0 0 0)
(-3.42392e-05 3.28147e-05 -2.8767e-70)
(-5.02692e-05 6.92188e-05 1.35633e-67)
(-6.23694e-05 0.000100876 6.39521e-67)
(-8.65365e-05 0.000126455 -6.8838e-66)
(-0.000121569 0.000147542 -4.50925e-66)
(-0.000158542 0.000164408 4.92774e-70)
(-0.000187483 0.000174424 2.2293e-65)
(-0.000200301 0.000172955 -4.79525e-64)
(-0.000190388 0.000157642 -1.101e-63)
(-0.000154233 0.000128907 -3.42794e-63)
(-9.88214e-05 8.9486e-05 6.34632e-57)
(-4.19454e-05 4.81576e-05 1.13413e-45)
(-3.14971e-06 1.66774e-05 -3.71956e-37)
(4.27064e-06 -5.76597e-08 4.08732e-35)
(-1.63503e-06 -2.44498e-06 -3.5575e-35)
(0 0 0)
(-4.22238e-05 1.73788e-05 -2.97141e-66)
(-6.86884e-05 3.65089e-05 -5.06948e-55)
(-8.8923e-05 5.39178e-05 -1.17549e-53)
(-0.000117254 6.92137e-05 -1.74587e-53)
(-0.000155325 8.26105e-05 -2.45906e-58)
(-0.000196728 9.35213e-05 3.08222e-67)
(-0.000232388 9.99787e-05 9.47217e-57)
(-0.000252454 9.96925e-05 -6.95964e-51)
(-0.00024691 9.2163e-05 1.13292e-49)
(-0.000211181 7.74068e-05 1.00873e-49)
(-0.000152364 5.70968e-05 8.1501e-50)
(-9.05856e-05 3.42991e-05 -9.25118e-51)
(-4.58686e-05 1.4558e-05 -3.87519e-47)
(-2.74527e-05 2.00895e-06 -4.7629e-47)
(-2.36682e-05 -1.67411e-07 -6.61438e-48)
(0 0 0)
(-4.54857e-05 0 0)
(-7.57258e-05 0 0)
(-9.94906e-05 0 0)
(-0.000129709 0 0)
(-0.000168543 0 0)
(-0.000211193 0 0)
(-0.000249064 0 0)
(-0.000271363 0 0)
(-0.000267415 0 0)
(-0.000232479 0 0)
(-0.000174734 0 0)
(-0.000113653 0 0)
(-6.87075e-05 0 0)
(-4.70238e-05 0 0)
(-3.732e-05 0 0)
(0 0 0)
(-2.69656e-05 4.05558e-05 -2.11012e-06)
(-3.37922e-05 8.63361e-05 -3.78562e-06)
(-3.84808e-05 0.000125641 -4.70134e-06)
(-5.72715e-05 0.00015608 -5.22614e-06)
(-8.71465e-05 0.000180348 -5.79148e-06)
(-0.000118986 0.00019986 -6.74604e-06)
(-0.000143499 0.00021189 -8.22279e-06)
(-0.0001546 0.000209471 -1.01414e-05)
(-0.000148865 0.000188156 -1.15937e-05)
(-0.00012296 0.00014924 -1.09001e-05)
(-7.72751e-05 9.82757e-05 -5.21325e-06)
(-1.8397e-05 4.75735e-05 7.45677e-06)
(2.68274e-05 1.01296e-05 1.78785e-05)
(1.15658e-05 -5.61642e-06 5.81354e-06)
(-9.57317e-07 -7.11054e-06 6.37834e-07)
(0 0 0)
(-3.7611e-05 3.16535e-05 -2.58209e-06)
(-5.71854e-05 6.5831e-05 -4.57641e-06)
(-7.15315e-05 9.62043e-05 -5.67991e-06)
(-9.61064e-05 0.000121943 -6.31382e-06)
(-0.000130992 0.000144058 -6.944e-06)
(-0.0001692 0.000162185 -7.89466e-06)
(-0.000202367 0.000173365 -9.24701e-06)
(-0.000222152 0.000173084 -1.07236e-05)
(-0.000220856 0.000158588 -1.15912e-05)
(-0.000190327 0.000130468 -1.00512e-05)
(-0.000132889 9.18432e-05 -3.94619e-06)
(-6.21783e-05 5.14644e-05 7.39718e-06)
(-3.19486e-06 1.92732e-05 1.73448e-05)
(1.28637e-05 2.30409e-06 1.2711e-05)
(2.71838e-06 7.86843e-07 2.06511e-06)
(0 0 0)
(-4.59682e-05 1.67401e-05 -2.87648e-06)
(-7.5241e-05 3.46845e-05 -5.06412e-06)
(-9.70977e-05 5.13159e-05 -6.31494e-06)
(-0.000125944 6.65235e-05 -7.07604e-06)
(-0.00016414 8.01943e-05 -7.77546e-06)
(-0.000206874 9.16078e-05 -8.70946e-06)
(-0.000246788 9.87951e-05 -9.83545e-06)
(-0.000273352 9.94079e-05 -1.0766e-05)
(-0.000274602 9.26703e-05 -1.05367e-05)
(-0.000242828 7.85552e-05 -7.64238e-06)
(-0.000181796 5.89798e-05 -9.32011e-07)
(-0.000108733 3.70118e-05 8.87651e-06)
(-4.68427e-05 1.75216e-05 1.64421e-05)
(-1.65519e-05 5.86278e-06 1.25733e-05)
(-1.08793e-05 4.67893e-06 1.6994e-07)
(0 0 0)
(-4.92328e-05 0 -2.98437e-06)
(-8.19519e-05 0 -5.1811e-06)
(-0.000107035 0 -6.49969e-06)
(-0.000137729 0 -7.32596e-06)
(-0.000176949 0 -8.05919e-06)
(-0.000221032 0 -8.95882e-06)
(-0.000263054 0 -9.93292e-06)
(-0.000291506 0 -1.05247e-05)
(-0.0002935 0 -9.69859e-06)
(-0.000261727 0 -6.1098e-06)
(-0.000201311 0 8.17232e-07)
(-0.000129862 0 9.67154e-06)
(-7.00402e-05 0 1.5204e-05)
(-3.5861e-05 0 1.04894e-05)
(-2.1568e-05 0 -1.77374e-06)
(0 0 0)
(-3.58874e-05 3.51557e-05 -4.26828e-06)
(-5.24308e-05 7.38402e-05 -7.50014e-06)
(-6.27115e-05 0.000109133 -9.33072e-06)
(-8.23997e-05 0.000140354 -1.04167e-05)
(-0.000112654 0.000168325 -1.14405e-05)
(-0.000148122 0.000192348 -1.29773e-05)
(-0.000184392 0.000208736 -1.54493e-05)
(-0.000216895 0.000209574 -1.85977e-05)
(-0.000237217 0.000190121 -2.09663e-05)
(-0.00023046 0.000152496 -1.94634e-05)
(-0.000185073 0.000102768 -9.75884e-06)
(-9.05153e-05 5.2328e-05 1.19089e-05)
(1.96347e-05 1.44806e-05 3.00412e-05)
(1.93268e-05 1.77285e-06 9.82037e-06)
(-1.41302e-06 -2.11079e-06 -8.46763e-08)
(0 0 0)
(-4.75679e-05 2.64962e-05 -5.0525e-06)
(-7.60169e-05 5.5702e-05 -8.91162e-06)
(-9.54031e-05 8.32287e-05 -1.11319e-05)
(-0.000121335 0.000108896 -1.2427e-05)
(-0.000156891 0.000132967 -1.35138e-05)
(-0.000199529 0.00015411 -1.50431e-05)
(-0.00024474 0.000168968 -1.72986e-05)
(-0.000284378 0.000171716 -1.96663e-05)
(-0.000305867 0.000159552 -2.06413e-05)
(-0.000292662 0.000133234 -1.73952e-05)
(-0.000233671 9.69316e-05 -6.6675e-06)
(-0.00013077 5.80443e-05 1.31038e-05)
(-2.02057e-05 2.66686e-05 2.93089e-05)
(2.56019e-05 9.7002e-06 2.15936e-05)
(9.87245e-06 7.59209e-06 3.147e-06)
(0 0 0)
(-5.61717e-05 1.38837e-05 -5.55166e-06)
(-9.30316e-05 2.93234e-05 -9.77933e-06)
(-0.000118964 4.42816e-05 -1.22635e-05)
(-0.00014931 5.89353e-05 -1.37328e-05)
(-0.000188508 7.3282e-05 -1.48857e-05)
(-0.000236089 8.60646e-05 -1.63529e-05)
(-0.000287844 9.50161e-05 -1.81856e-05)
(-0.000332306 9.78542e-05 -1.95319e-05)
(-0.000352971 9.32529e-05 -1.86729e-05)
(-0.000333507 8.09494e-05 -1.32274e-05)
(-0.000268165 6.3129e-05 -1.36553e-06)
(-0.000168395 4.27177e-05 1.55987e-05)
(-6.5848e-05 2.43179e-05 2.80869e-05)
(-2.61023e-06 1.32544e-05 2.15955e-05)
(1.12946e-05 1.28671e-05 9.91249e-07)
(0 0 0)
(-5.8932e-05 0 -5.66913e-06)
(-9.88945e-05 0 -9.98623e-06)
(-0.000127709 0 -1.25919e-05)
(-0.000159888 0 -1.41516e-05)
(-0.000200431 0 -1.53399e-05)
(-0.000249352 0 -1.67296e-05)
(-0.000302787 0 -1.82944e-05)
(-0.000348393 0 -1.90827e-05)
(-0.000367703 0 -1.7241e-05)
(-0.000345663 0 -1.06456e-05)
(-0.000279739 0 1.61112e-06)
(-0.000184259 0 1.68823e-05)
(-8.85094e-05 0 2.62059e-05)
(-2.194e-05 0 1.849e-05)
(5.32927e-06 0 -1.67297e-06)
(0 0 0)
(-4.82457e-05 2.67748e-05 -5.73239e-06)
(-7.5351e-05 5.68183e-05 -1.00456e-05)
(-9.13569e-05 8.78157e-05 -1.2547e-05)
(-0.00011304 0.000119139 -1.40432e-05)
(-0.000145219 0.000149909 -1.53092e-05)
(-0.000187955 0.000179824 -1.70629e-05)
(-0.00024014 0.000200999 -1.97814e-05)
(-0.000297857 0.000205504 -2.31967e-05)
(-0.000347234 0.00018924 -2.54862e-05)
(-0.000364649 0.000155099 -2.32468e-05)
(0 0 0)
(-6.05705e-05 1.94918e-05 -6.64225e-06)
(-9.90319e-05 4.22535e-05 -1.17221e-05)
(-0.000123965 6.63829e-05 -1.4731e-05)
(-0.000152875 9.11689e-05 -1.65365e-05)
(-0.000191529 0.000117001 -1.7922e-05)
(-0.000241922 0.000142308 -1.96244e-05)
(-0.000302828 0.000160795 -2.19736e-05)
(-0.000367777 0.000166847 -2.4452e-05)
(-0.000416833 0.000158083 -2.49675e-05)
(0 0 0)
(-6.86405e-05 9.94476e-06 -7.16746e-06)
(-0.000115363 2.22484e-05 -1.28016e-05)
(-0.000146462 3.53922e-05 -1.61266e-05)
(-0.000179854 4.92946e-05 -1.8117e-05)
(-0.000222983 6.42037e-05 -1.96137e-05)
(-0.000278607 7.87062e-05 -2.12205e-05)
(-0.000345681 8.9766e-05 -2.30717e-05)
(-0.000413192 9.45512e-05 -2.42272e-05)
(0 0 0)
(-7.1252e-05 0 -7.32856e-06)
(-0.000120511 0 -1.30534e-05)
(-0.000154279 0 -1.64798e-05)
(-0.000189729 0 -1.85674e-05)
(-0.000234407 0 -2.01153e-05)
(-0.000291413 0 -2.16598e-05)
(-0.000361233 0 -2.32353e-05)
(3.93353e-06 -6.93957e-07 4.06635e-21)
(1.36011e-06 -2.32361e-06 -4.83835e-21)
(8.11751e-06 -3.44043e-06 3.02598e-06)
(-7.82651e-08 -4.14547e-06 6.99772e-07)
(7.64231e-06 -8.21394e-06 2.9158e-06)
(2.9869e-07 -8.48637e-06 2.70666e-07)
(1.46759e-05 -3.75963e-06 7.63448e-06)
(-1.4433e-06 -6.04703e-06 3.4199e-08)
(1.15535e-05 -1.32236e-06 5.74305e-06)
(1.72282e-07 -1.26528e-06 -3.54521e-07)
(1.9917e-05 8.63166e-06 1.08891e-05)
(-1.29188e-06 3.71381e-06 -2.36348e-07)
(5.15998e-06 -4.17757e-06 1.30037e-06)
(8.60652e-07 -5.19038e-06 6.00315e-07)
(9.27197e-06 -6.9279e-06 4.19124e-06)
(-1.52225e-07 -7.11295e-06 -2.72053e-07)
(1.1571e-05 5.94528e-06 6.54316e-06)
(1.98953e-07 5.77226e-06 -3.02433e-08)
(1.99019e-05 -5.2569e-08 6.382e-06)
(1.01599e-06 -1.15084e-06 -1.16282e-07)
(4.73275e-06 -3.75659e-06 2.08408e-06)
(3.602e-05 -2.17496e-06 1.85988e-05)
(2.66384e-06 -8.20927e-06 -5.57869e-08)
(9.87864e-06 -1.53493e-06 5.2841e-06)
(3.99826e-05 7.60947e-06 2.50318e-05)
(2.14456e-06 3.42199e-06 1.25855e-06)
(1.50118e-05 7.50381e-06 7.16819e-06)
(1.33435e-06 -2.29648e-06 9.25968e-08)
(-2.74776e-07 -2.76905e-06 1.31358e-06)
(2.04873e-06 -6.80948e-06 -6.37002e-07)
(4.80879e-07 -6.90234e-06 -7.59366e-08)
(-1.39539e-06 -1.20121e-05 1.56815e-06)
(-8.96768e-07 -7.85619e-06 -5.39389e-07)
(-1.89317e-06 -1.69357e-05 3.19743e-07)
(2.11212e-06 -4.08226e-06 5.6519e-07)
(-2.54178e-06 -3.48932e-06 -7.0125e-07)
(-1.33371e-06 -1.44902e-05 -7.59364e-07)
(-4.32922e-06 4.07849e-06 -4.75567e-07)
(-5.77488e-08 -7.45457e-06 -1.09207e-06)
(2.58126e-06 1.03671e-05 1.79603e-06)
(-4.11494e-06 1.12688e-05 6.6355e-07)
(1.62867e-06 -9.76277e-07 -4.73932e-07)
(2.54983e-05 1.01107e-05 2.07972e-35)
(3.60393e-06 -1.86334e-07 9.83081e-28)
(1.64941e-05 2.14199e-06 3.15051e-28)
(2.29115e-05 1.07936e-05 8.94019e-06)
(9.34898e-06 -1.22829e-06 4.68505e-28)
(5.1117e-06 -1.33313e-06 5.35685e-21)
(3.39909e-06 -2.15522e-06 -6.10872e-21)
(7.39306e-06 -2.14024e-06 1.62014e-06)
(1.48775e-06 -2.80509e-06 -2.19242e-29)
(2.11447e-08 -5.82068e-07 -7.04078e-19)
(7.373e-07 -2.32506e-06 -7.45352e-25)
(3.60882e-07 -2.56808e-06 4.6872e-07)
(7.7677e-07 -2.83715e-06 -1.54558e-35)
(6.44982e-06 5.49298e-07 6.50445e-06)
(-3.92583e-07 -1.45379e-06 1.06461e-06)
(3.40118e-05 7.72509e-06 1.74871e-05)
(1.08364e-05 -7.23505e-06 3.64422e-06)
(3.23603e-06 -9.27066e-06 -1.03665e-07)
(2.57362e-05 -5.85704e-07 1.42127e-05)
(2.60737e-05 1.12133e-05 2.46372e-05)
(1.60368e-05 -1.23583e-06 9.64034e-06)
(9.59572e-06 -4.84685e-06 4.45163e-06)
(8.27881e-06 -7.38106e-06 3.77278e-06)
(4.16201e-06 -6.60988e-06 1.9803e-06)
(1.33137e-05 -5.24924e-06 6.84836e-06)
(2.12032e-06 -2.78801e-06 1.44593e-06)
(-5.94357e-07 -5.9162e-06 7.64172e-07)
(-1.74006e-06 -8.98765e-06 3.85961e-07)
(-4.97843e-07 -9.84473e-06 4.45223e-07)
(-1.2514e-06 -7.12801e-06 3.39353e-07)
(7.41186e-06 -7.19716e-08 6.58788e-06)
(1.96315e-05 5.54314e-06 1.74933e-05)
(6.34091e-06 3.95337e-06 2.77698e-06)
(3.09292e-05 1.14603e-05 2.9669e-05)
(1.89594e-05 -1.6972e-07 7.84349e-06)
(3.61079e-05 4.79067e-06 2.39748e-05)
(9.70949e-07 2.01885e-05 3.18518e-05)
(2.6966e-05 5.90844e-06 1.63086e-05)
(1.69305e-05 -1.3734e-06 8.70839e-06)
(1.27463e-05 -2.3175e-07 6.61204e-06)
(6.22396e-06 1.40629e-06 3.0772e-06)
(2.00369e-05 5.30338e-06 1.04121e-05)
(3.64673e-06 2.3832e-06 1.80486e-06)
(-1.49103e-06 -4.30849e-06 -8.08067e-08)
(-1.75003e-06 -1.86994e-06 -1.114e-06)
(3.2846e-08 -4.97344e-06 -4.93673e-07)
(-1.26986e-06 1.1882e-06 -2.22343e-07)
(1.86496e-05 6.90571e-06 1.12132e-05)
(2.52479e-05 1.41623e-05 2.34536e-05)
(1.21522e-05 1.1115e-05 2.96361e-06)
(1.98175e-05 1.14102e-05 1.15382e-05)
(-9.35344e-07 5.23109e-06 3.00827e-08)
(3.30388e-07 -5.33343e-06 -1.86787e-06)
(2.55171e-07 -5.52433e-06 -6.1897e-07)
(-1.17788e-06 -5.69463e-06 1.17954e-07)
(-7.70314e-07 -1.01059e-05 -1.67558e-06)
(-3.08666e-06 -1.01381e-05 -1.29956e-06)
(-6.38032e-06 -9.9765e-06 -2.65213e-06)
(-4.39939e-06 4.22551e-06 -1.33072e-06)
(-7.879e-06 3.83641e-06 -1.02236e-06)
(-1.12276e-05 4.44691e-06 -3.35693e-06)
(4.3497e-06 -1.68294e-06 6.28127e-07)
(4.98223e-07 -3.53963e-07 -2.9143e-16)
(6.17083e-06 -3.30207e-06 1.41632e-06)
(1.42165e-06 -4.31134e-06 -8.16511e-07)
(1.20143e-06 -3.17396e-06 4.41006e-07)
(1.42883e-07 -8.67497e-07 -1.699e-16)
(5.92845e-06 -4.06763e-06 1.92941e-06)
(3.43077e-06 -4.30964e-06 1.24968e-06)
(-7.89312e-07 -4.4296e-06 1.01893e-06)
(1.36856e-07 -5.5585e-06 7.82677e-07)
(2.13902e-07 -1.07434e-05 -2.20118e-06)
(6.33474e-06 -6.68995e-06 2.08835e-06)
(-9.97052e-07 -1.08909e-05 -1.1062e-06)
(8.69142e-06 -8.284e-06 3.62519e-06)
(1.45067e-05 -5.84085e-06 5.70545e-06)
(4.31853e-06 -8.4924e-06 8.27612e-07)
(4.74727e-07 -7.30178e-06 5.30877e-07)
(-3.68891e-06 -1.09378e-05 -1.24807e-06)
(1.34369e-08 -8.53485e-06 8.00388e-09)
(1.00044e-05 -5.84367e-06 4.9758e-06)
(4.70021e-06 -4.64997e-06 2.32826e-06)
(-2.11975e-06 -7.82062e-06 -6.22003e-07)
(-6.34007e-07 -9.43914e-06 -2.76346e-07)
(-2.51661e-06 -3.96202e-06 -1.28516e-06)
(1.03845e-05 -4.53003e-06 4.97165e-06)
(-5.42432e-06 -4.12567e-06 -1.23018e-06)
(1.1712e-05 2.40517e-06 6.14546e-06)
(2.03471e-05 6.84883e-06 8.79631e-06)
(-2.32036e-07 -4.7696e-06 -3.68594e-07)
(-8.93568e-06 -3.77396e-06 -3.39139e-06)
(6.6907e-10 2.21047e-06 -2.54182e-07)
(1.27599e-05 7.00096e-06 7.51841e-06)
(6.21923e-06 8.50213e-06 3.74692e-06)
(-1.00367e-06 5.27274e-06 -8.9984e-07)
(6.47295e-07 1.30311e-06 -4.51511e-07)
(1.19467e-05 8.9497e-06 7.17479e-06)
(8.11155e-07 8.55166e-06 4.87216e-07)
(2.78994e-05 9.30649e-06 8.459e-06)
(4.45421e-06 -9.98066e-07 6.23674e-07)
(1.87807e-05 1.03987e-06 7.07684e-06)
(2.72581e-05 -2.81084e-06 1.26537e-05)
(5.36518e-06 -2.14048e-06 1.03089e-06)
(8.32589e-06 -5.76708e-06 2.42166e-06)
(7.0157e-06 -6.13829e-06 2.89299e-06)
(1.26273e-07 -1.25105e-06 -5.51279e-07)
(5.36366e-07 -1.98214e-06 -2.94809e-07)
(1.55239e-06 -4.00747e-06 -6.1366e-07)
(3.98902e-07 -1.04723e-06 -3.7263e-07)
(1.09805e-05 -1.49106e-06 4.95903e-06)
(1.58179e-06 -2.92216e-06 8.42015e-07)
(2.53237e-06 -2.01115e-06 3.39363e-06)
(6.69825e-06 -3.6649e-06 3.78157e-06)
(3.41321e-06 -2.79125e-06 7.18007e-07)
(5.35802e-07 -3.26254e-06 5.82304e-07)
(3.67462e-06 -5.84856e-06 1.65367e-06)
(-2.79211e-07 -8.14197e-06 7.54349e-07)
(3.49821e-05 8.51566e-06 2.41041e-05)
(1.30378e-05 -7.22941e-06 4.79309e-06)
(3.095e-05 7.65933e-07 1.91926e-05)
(3.9956e-05 2.15406e-06 2.21952e-05)
(9.30249e-06 -7.27961e-06 4.43578e-06)
(1.65856e-05 -3.40062e-06 6.78523e-06)
(1.14266e-05 -3.42688e-06 5.8021e-06)
(2.34092e-06 -8.23275e-06 -4.57118e-07)
(-2.08525e-07 -1.13522e-05 -1.92747e-06)
(-1.98875e-06 -1.12956e-05 -1.25042e-06)
(2.14152e-06 -6.7884e-06 1.75544e-07)
(3.78065e-06 -9.81866e-06 4.10847e-07)
(2.12305e-05 1.14589e-06 1.32104e-05)
(2.73539e-06 -9.35945e-07 1.69167e-06)
(1.30041e-05 3.05212e-06 9.11335e-06)
(1.24283e-05 2.70102e-06 6.23953e-06)
(4.56335e-06 -6.20126e-06 2.19649e-06)
(-6.60013e-07 -1.03976e-05 1.12813e-07)
(5.30904e-06 -2.02552e-06 2.63174e-06)
(-4.22479e-07 -7.69047e-06 -4.18049e-07)
(1.35546e-05 1.66879e-05 3.13652e-05)
(2.00327e-05 3.45577e-06 8.41038e-06)
(3.16283e-05 1.09887e-05 2.56031e-05)
(1.28809e-05 3.46905e-06 7.04074e-06)
(2.08318e-05 9.64616e-06 9.29723e-06)
(1.29711e-05 9.96223e-06 8.22231e-06)
(1.97556e-06 -5.87984e-07 9.06377e-07)
(-3.69656e-06 -1.27132e-08 -1.23003e-06)
(-6.93237e-06 -1.52762e-07 -1.21422e-06)
(1.17846e-06 7.00184e-06 1.30719e-06)
(2.76111e-05 1.12496e-05 1.7825e-05)
(4.60468e-06 6.45551e-06 1.62753e-06)
(2.09895e-05 1.07937e-05 1.22542e-05)
(6.41865e-06 5.08713e-06 3.40372e-06)
(3.2251e-07 -1.7124e-06 -5.19363e-07)
(6.39199e-06 1.14006e-05 4.29662e-06)
(1.2924e-06 3.45494e-06 -8.39034e-08)
(-2.82649e-07 -2.30955e-06 2.85146e-07)
(9.14038e-07 -4.60324e-06 3.35727e-08)
(-8.56383e-07 -7.29926e-06 1.79052e-06)
(-2.75106e-07 -1.68511e-06 7.45829e-07)
(4.53466e-07 -8.96312e-06 -2.189e-06)
(-3.28458e-07 -8.78697e-06 -9.36033e-07)
(2.42479e-06 -7.32604e-06 -6.51316e-07)
(-2.41318e-06 -8.90111e-06 -4.85103e-07)
(-2.33641e-07 -8.03145e-06 -3.74118e-07)
(-1.32808e-06 -7.30087e-06 8.59825e-07)
(-1.76551e-06 -1.54964e-05 1.02541e-06)
(-5.07092e-06 -1.13592e-05 -1.99027e-06)
(-1.99572e-06 -6.28771e-06 -7.56751e-07)
(-1.75851e-06 -1.64823e-05 -3.30914e-07)
(-2.01984e-06 -9.25287e-06 -1.18782e-07)
(-1.79582e-06 -7.66517e-06 -1.4581e-06)
(-4.44216e-06 -7.62813e-06 -1.35845e-06)
(-7.75569e-06 -7.48808e-06 -3.10436e-06)
(-3.57495e-06 -6.5875e-09 -6.61577e-07)
(-2.00161e-06 -5.27169e-06 -9.40767e-07)
(-8.06865e-07 -1.13102e-05 -1.01464e-06)
(-1.03101e-05 2.60196e-07 -3.49629e-06)
(-5.4797e-06 7.71857e-06 -2.37022e-07)
(7.26367e-07 -3.57702e-06 -9.43508e-07)
(-1.38882e-06 1.97666e-06 -1.10649e-06)
(-4.72723e-06 7.26546e-06 -1.38119e-06)
(-7.51402e-06 7.40386e-06 -5.10461e-07)
(-1.13528e-05 7.64021e-06 -2.78077e-06)
(-4.67674e-07 7.36419e-06 -4.27222e-07)
(1.56681e-05 1.77216e-06 -1.0379e-27)
(3.89289e-07 -8.6389e-08 -2.95858e-20)
(3.82237e-06 -3.2245e-06 -1.10881e-28)
(1.46574e-06 -1.2679e-06 -2.9924e-20)
(1.35922e-08 -8.04773e-07 -7.22557e-19)
(-5.59464e-07 -2.87792e-06 -1.38223e-06)
(6.36223e-09 -1.9958e-07 -1.22885e-07)
(-6.68531e-06 -7.55712e-06 -3.14645e-06)
(-4.66612e-06 -8.38878e-06 -2.96283e-06)
(-1.6835e-05 5.41837e-06 -3.51956e-06)
(-1.42867e-05 1.45982e-06 -3.49171e-06)
(6.926e-07 -5.26855e-06 -1.71008e-06)
(1.27832e-07 -2.75385e-07 -2.70601e-07)
(9.03044e-07 -3.58751e-06 -1.33393e-06)
(4.54891e-08 -4.22362e-07 -3.35225e-07)
(-9.50366e-07 -2.73652e-06 -1.06231e-06)
(-1.10955e-07 -5.36558e-07 -3.65498e-07)
(-6.7373e-07 -5.26887e-06 1.81934e-06)
(-1.93383e-07 -5.23607e-07 6.45857e-07)
(-7.40926e-07 -3.58994e-06 1.46473e-06)
(-7.93284e-08 -7.75315e-07 8.3819e-07)
(-1.53323e-06 -5.80534e-06 -2.15536e-06)
(-2.93869e-06 -7.80371e-06 -2.6569e-06)
(1.4899e-06 -1.11283e-05 -1.79983e-06)
(2.61536e-06 -1.09812e-05 -9.30466e-07)
(1.76456e-06 -7.63574e-06 -1.38571e-06)
(2.18905e-06 -1.61002e-05 -1.35093e-06)
(-2.28624e-06 -5.42089e-06 -1.80014e-06)
(-4.1569e-06 -7.10302e-06 -2.67855e-06)
(-1.4858e-06 -1.11248e-05 1.81558e-06)
(-2.11874e-06 -1.09878e-05 1.02049e-06)
(-1.45138e-06 -7.64058e-06 1.49102e-06)
(-2.21952e-06 -1.61139e-05 1.29918e-06)
(3.10306e-06 -2.01239e-05 4.35029e-09)
(3.37729e-06 -1.27359e-05 -2.65192e-07)
(2.7216e-06 -1.91834e-05 -6.79416e-07)
(4.01836e-06 -1.26551e-05 3.97917e-07)
(-8.69337e-06 -6.51224e-06 -3.92601e-06)
(-6.35267e-06 -7.49634e-06 -3.39886e-06)
(-3.22151e-06 -2.01751e-05 -1.28048e-07)
(-2.65325e-06 -1.27342e-05 3.44387e-07)
(-2.80634e-06 -1.92378e-05 5.80824e-07)
(-3.0224e-06 -1.26406e-05 -3.25086e-07)
(-9.15429e-06 -5.42165e-06 -3.33965e-06)
(-1.17782e-05 -2.32464e-06 -3.46206e-06)
(3.31217e-06 -1.90584e-05 6.07344e-07)
(4.87944e-06 -7.91446e-06 1.33607e-06)
(4.52737e-06 -1.09007e-05 9.48404e-07)
(3.36315e-06 -1.63831e-05 1.04295e-06)
(-1.13615e-05 -4.27295e-06 -4.38993e-06)
(-1.41057e-05 -1.09462e-06 -4.68734e-06)
(-3.45802e-06 -1.91124e-05 -7.44233e-07)
(-3.21241e-06 -7.89261e-06 -1.25519e-06)
(-3.2034e-06 -1.08949e-05 -8.7908e-07)
(-3.5283e-06 -1.64372e-05 -1.17879e-06)
(3.06331e-06 -8.50961e-06 1.26276e-06)
(5.11226e-06 -4.16824e-06 1.51475e-06)
(3.28178e-06 -1.26367e-05 1.28363e-06)
(5.19116e-06 -3.35006e-07 1.42119e-06)
(-1.96904e-05 6.66462e-06 -4.86026e-06)
(-1.70679e-05 2.66067e-06 -4.89451e-06)
(-3.30552e-06 -8.55401e-06 -1.40437e-06)
(-3.06828e-06 -4.12469e-06 -1.41243e-06)
(-3.47034e-06 -1.26878e-05 -1.41975e-06)
(-2.80444e-06 -2.7127e-07 -1.2973e-06)
(-1.89632e-05 8.95597e-06 -3.50388e-06)
(-1.96916e-05 1.17547e-05 -3.23986e-06)
(2.76325e-06 -4.78334e-06 9.8144e-07)
(5.00026e-06 4.73308e-06 4.49284e-07)
(5.15751e-06 2.88145e-06 1.05065e-06)
(2.4309e-06 -2.24061e-06 4.78391e-07)
(-2.19128e-05 1.01887e-05 -4.61546e-06)
(-2.27286e-05 1.30452e-05 -3.96062e-06)
(-3.06821e-06 -4.82674e-06 -1.12125e-06)
(-2.03443e-06 4.80774e-06 -2.83426e-07)
(-2.4439e-06 2.95124e-06 -9.08328e-07)
(-2.78559e-06 -2.28187e-06 -5.97863e-07)
(-8.51077e-07 -5.32603e-06 -2.40379e-06)
(-5.62639e-07 -7.43185e-06 -6.83029e-07)
(-1.9888e-06 -5.03327e-06 -6.92346e-07)
(-6.81329e-06 -9.89239e-06 -3.08987e-06)
(-4.14498e-06 -1.67007e-05 -1.67734e-06)
(-1.03793e-05 -9.03184e-06 -3.98377e-06)
(-1.70403e-05 3.48828e-06 -3.30734e-06)
(-9.04974e-06 -2.79661e-06 -1.88915e-06)
(-2.05161e-05 4.39298e-06 -5.05949e-06)
(-4.2736e-08 -6.60871e-08 2.9775e-14)
(2.49782e-06 -8.74193e-06 -2.82446e-07)
(-2.27877e-06 -8.70224e-06 3.69159e-07)
(4.05144e-06 -1.11964e-06 1.35707e-06)
(-3.43675e-06 -1.00307e-06 -1.24342e-06)
(1.12137e-06 -4.13184e-06 -1.00202e-06)
(-1.00779e-06 -4.12191e-06 1.09988e-06)
(-3.0891e-06 -1.05734e-05 -3.05826e-06)
(-2.06314e-06 -1.57419e-05 -1.3184e-06)
(-5.77904e-06 -9.94954e-06 -2.46331e-06)
(3.50294e-06 -7.38533e-06 7.72641e-07)
(-3.14522e-06 -7.31079e-06 -6.9139e-07)
(-1.16473e-05 -4.14815e-06 -3.09161e-06)
(-6.58896e-06 -1.10948e-05 -1.87054e-06)
(-1.54095e-05 -3.22777e-06 -4.90557e-06)
(4.06369e-06 6.11864e-06 1.10974e-06)
(-3.27363e-06 6.28391e-06 -9.41864e-07)
(1.02047e-08 -4.80173e-08 -1.58299e-15)
(-5.76795e-08 -1.07262e-07 -3.10265e-15)
(2.38601e-07 -9.95523e-07 -4.45258e-07)
(6.06432e-07 -1.58376e-06 -2.67592e-07)
(1.10809e-06 -2.4119e-06 -5.14312e-07)
(5.80209e-07 -2.68204e-07 -1.19868e-08)
(1.81297e-06 -8.62155e-06 -5.45994e-07)
(-2.41631e-06 -7.285e-06 -2.30011e-06)
(-1.15349e-06 -1.04078e-05 -1.12124e-06)
(1.63901e-06 -7.88102e-06 -2.32048e-07)
(6.12185e-07 1.32677e-06 6.56082e-07)
(-8.62675e-06 4.54116e-06 -2.00294e-06)
(-5.40936e-06 1.04813e-06 -7.33411e-07)
(-1.47998e-08 5.24541e-06 8.13312e-07)
(3.14794e-07 -1.67481e-06 -5.90642e-07)
(4.9286e-07 -2.29086e-06 -1.24086e-06)
(4.49696e-07 -2.07394e-06 -2.68745e-07)
(-6.50738e-08 -1.83621e-06 -3.43839e-07)
(8.83153e-07 -3.27705e-06 1.38276e-09)
(1.2064e-06 -1.27244e-06 2.18518e-08)
(-3.9929e-07 -2.31643e-06 1.48665e-06)
(-2.36352e-07 -2.91994e-06 1.1568e-06)
(-5.51001e-07 -4.87254e-06 1.67045e-06)
(-3.00687e-07 -2.27018e-06 1.07855e-06)
(-6.82831e-08 -1.32163e-06 7.62161e-07)
(1.45125e-06 -5.73136e-06 -8.28378e-07)
(1.64334e-06 -7.94398e-06 -8.1698e-07)
(-5.69059e-07 -6.4053e-06 -2.1421e-06)
(5.96201e-08 -8.28008e-06 -1.11374e-06)
(2.24412e-06 -1.21024e-05 -1.5896e-06)
(2.28708e-06 -1.19106e-05 -1.47224e-06)
(3.10798e-07 -5.89122e-06 -1.73111e-07)
(-8.9539e-07 -8.00806e-06 -9.71187e-07)
(-2.38745e-06 -6.11441e-06 -1.45869e-06)
(-3.26941e-07 -7.77246e-06 -4.54642e-07)
(-1.12608e-06 -9.78639e-06 1.77393e-06)
(-1.87303e-06 -1.19349e-05 1.69935e-06)
(-1.60972e-06 -1.24459e-05 1.1725e-06)
(-1.31278e-06 -9.90251e-06 1.25695e-06)
(-1.58393e-06 -1.40252e-05 1.3547e-06)
(3.81492e-06 -1.69326e-05 -4.85332e-08)
(-3.18091e-06 -9.79789e-06 -1.70294e-06)
(-1.26401e-06 -8.26538e-06 -8.03337e-07)
(-5.93403e-06 -6.55063e-06 -2.82783e-06)
(-2.15166e-06 -7.38648e-06 -9.78572e-07)
(-1.79424e-06 -1.65841e-05 7.03417e-07)
(-2.93561e-06 -1.69628e-05 2.97717e-07)
(-2.59148e-06 -1.75057e-05 -1.61166e-07)
(-1.80913e-06 -1.69965e-05 -8.94285e-09)
(-1.7511e-06 -1.34889e-05 6.01915e-08)
(8.48742e-07 -5.76597e-06 -4.85227e-08)
(6.35467e-07 -2.58539e-06 3.05623e-07)
(-5.52597e-06 -2.97726e-06 -2.20063e-06)
(-3.39189e-06 -6.50745e-06 -1.02312e-06)
(4.75777e-06 -1.43905e-05 1.21493e-06)
(-3.42619e-06 -5.13241e-06 -1.20591e-06)
(-6.0143e-06 -5.78589e-06 -2.05958e-06)
(-1.00479e-05 -1.91886e-06 -3.68869e-06)
(-4.05378e-06 -1.89406e-06 -1.08549e-06)
(-1.49884e-06 -1.56928e-05 -5.69826e-07)
(-3.21103e-06 -1.44074e-05 -9.25951e-07)
(-2.82975e-06 -1.49009e-05 -1.28893e-06)
(-1.21297e-06 -1.02884e-05 -9.57625e-07)
(-1.02735e-06 -1.30822e-05 -8.92568e-07)
(5.08717e-06 -7.16124e-06 1.66864e-06)
(-9.06196e-06 1.76603e-06 -2.04776e-06)
(-5.47543e-06 1.94714e-06 -1.11223e-06)
(-1.44073e-05 5.70823e-06 -3.94178e-06)
(-6.34098e-06 6.02195e-06 -8.56125e-07)
(-3.27485e-07 -9.35633e-06 -1.0749e-06)
(-2.80407e-06 -7.14197e-06 -1.33413e-06)
(-2.48265e-06 -7.4138e-06 -1.67483e-06)
(4.16784e-07 -5.36587e-06 -1.05764e-06)
(4.58141e-08 -3.08227e-06 -1.22628e-06)
(-2.26856e-07 8.81356e-06 9.92372e-07)
(3.25778e-07 1.13701e-05 1.35171e-06)
(-1.02106e-05 1.15585e-05 -1.73137e-06)
(-5.37581e-06 8.54183e-06 -1.23487e-07)
(4.92626e-06 -4.53766e-07 9.99829e-07)
(-6.85841e-06 9.59491e-06 -4.18646e-07)
(-9.34176e-06 9.29429e-06 -1.02088e-06)
(-1.60744e-05 1.28721e-05 -2.96243e-06)
(-5.9823e-06 1.24542e-05 4.57458e-07)
(1.32065e-06 -1.92048e-06 -7.26564e-07)
(-1.97056e-06 -4.15123e-07 -6.32866e-07)
(-1.47233e-06 -1.47468e-07 -1.05761e-06)
(1.68714e-06 2.89286e-06 -5.38582e-07)
(2.09521e-06 -5.94604e-08 -1.69092e-07)
(-6.60335e-08 -8.64338e-07 4.08971e-07)
(-1.23639e-08 -6.82672e-07 -6.66268e-19)
(3.59625e-06 -9.74473e-06 1.71043e-07)
(2.79481e-06 -8.43373e-06 -4.11071e-07)
(-1.56393e-06 -8.33078e-06 6.46443e-07)
(-1.63925e-06 -1.25345e-05 6.90499e-07)
(-1.8412e-06 -9.35414e-06 1.23303e-07)
(-1.90665e-06 -3.66342e-06 -1.05915e-06)
(-6.64245e-07 -6.92423e-06 -1.20678e-06)
(-1.48112e-06 1.68291e-07 -1.15811e-06)
(-1.89704e-07 7.72329e-06 -1.56e-07)
(1.76876e-07 -3.22491e-06 -1.3798e-06)
(7.70796e-08 -3.82861e-06 -1.58043e-06)
(1.22421e-06 -7.11921e-06 -1.61184e-06)
(3.47575e-07 -7.4271e-06 -2.12881e-06)
(2.17623e-07 -3.71237e-06 -5.44539e-07)
(4.24184e-07 -5.18062e-06 -8.46355e-07)
(-1.17515e-07 -5.11199e-06 -5.96663e-07)
(-3.25877e-07 -7.44922e-06 -9.13235e-07)
(1.35654e-06 -7.06705e-06 -1.74663e-06)
(-1.12006e-06 -7.08591e-06 1.97129e-06)
(-7.51618e-07 -3.87796e-06 2.72762e-07)
(-1.05494e-06 -4.08231e-06 -8.16319e-07)
(-8.96959e-07 -7.62866e-06 1.48405e-06)
(-1.84884e-06 -7.49553e-06 -1.1419e-07)
(-1.77315e-06 -8.63046e-06 -2.86059e-06)
(-1.2498e-06 -1.22902e-05 -1.0531e-06)
(-3.74979e-06 -8.11045e-06 -1.56273e-06)
(-3.61937e-07 -1.62169e-06 -1.33821e-06)
(-1.45741e-07 -2.36363e-06 -3.08161e-07)
(-6.85362e-07 -1.58043e-06 -1.34962e-07)
(-4.81384e-06 -1.10047e-05 -3.0983e-06)
(-3.09111e-06 -1.71757e-05 -1.54589e-06)
(-8.02021e-06 -1.02395e-05 -3.29426e-06)
(-6.01852e-07 -1.12e-05 -1.82671e-06)
(-4.01757e-06 -5.72177e-06 -2.30416e-06)
(-1.54271e-06 -9.34932e-06 -1.60668e-06)
(-3.12755e-06 -1.13117e-05 -1.53286e-06)
(-2.36876e-06 -9.13504e-06 -1.12327e-06)
(-4.70411e-06 -8.45096e-06 -1.96973e-06)
(-4.64003e-06 -9.40157e-06 -1.68919e-06)
(4.37299e-06 -1.65001e-05 6.53956e-07)
(-3.17881e-06 -1.65304e-05 -3.91031e-07)
(-5.85541e-06 -1.11328e-05 -2.35499e-06)
(-8.10335e-06 -4.79194e-06 -3.37703e-06)
(-2.84209e-06 -1.69811e-05 -8.23862e-07)
(-7.28287e-06 -9.2088e-06 -2.94158e-06)
(-9.2041e-06 -7.51238e-06 -3.09408e-06)
(-5.45395e-06 -1.45201e-05 -1.83118e-06)
(-1.28882e-05 -6.60714e-06 -4.53369e-06)
(-1.44111e-05 -3.20253e-07 -3.16672e-06)
(-8.00329e-06 -6.9924e-06 -1.94169e-06)
(-1.80337e-05 6.02438e-07 -5.09854e-06)
(-4.48352e-06 1.82438e-06 -1.32599e-06)
(-1.05868e-05 8.21546e-06 -2.06648e-06)
(-5.17801e-06 5.61948e-06 -1.4572e-06)
(-8.61228e-06 1.60486e-06 -1.53129e-06)
(-6.8167e-06 4.84777e-06 -7.02152e-07)
(-1.05778e-05 5.55734e-06 -1.8802e-06)
(-9.53666e-06 5.37171e-06 -1.33186e-06)
(5.05846e-06 -3.34923e-06 1.47053e-06)
(-2.4177e-06 -3.32888e-06 -1.12507e-06)
(-1.10338e-05 2.0893e-06 -3.51855e-06)
(-1.65851e-05 9.41436e-06 -3.81349e-06)
(-2.19512e-06 -3.3893e-06 -1.52993e-06)
(-1.19406e-05 5.68433e-06 -3.21798e-06)
(-1.94286e-05 6.52981e-06 -3.50126e-06)
(-9.33591e-06 8.55172e-07 -1.67068e-06)
(-2.26453e-05 7.40784e-06 -4.74563e-06)
(4.35602e-07 -6.52508e-07 -1.61182e-07)
(3.69844e-07 -1.67628e-07 -1.74861e-18)
(7.01572e-07 -7.14203e-07 -4.75044e-16)
(4.54132e-07 -1.2444e-06 -7.08994e-07)
(-3.94837e-07 -1.25038e-06 8.12769e-07)
(-2.71904e-08 -1.47311e-07 -5.11961e-14)
(9.02323e-07 -2.6419e-06 -7.0304e-07)
(1.65053e-06 -5.66549e-06 -1.22963e-06)
(1.9756e-06 -5.96754e-06 -8.03454e-07)
(-1.76071e-08 -1.16342e-06 2.05864e-07)
(3.63301e-07 -8.87021e-07 -2.55914e-16)
(7.33856e-08 -8.78302e-07 -4.91216e-19)
(-8.25859e-07 -5.9983e-06 1.45899e-06)
(-5.21589e-07 -2.95724e-06 9.58799e-07)
(-1.04643e-06 -5.98143e-06 9.95715e-07)
(-1.43014e-06 -7.50209e-06 -2.35499e-06)
(-1.22648e-07 -1.14732e-05 -2.11804e-06)
(3.35552e-07 -1.02871e-05 -2.26109e-06)
(2.86997e-06 -1.52233e-05 -1.22118e-06)
(-5.12376e-07 -1.01513e-05 -1.19173e-06)
(-2.04772e-06 -1.1633e-05 -1.44189e-06)
(-1.07462e-06 -1.03176e-05 -1.23141e-06)
(-2.00582e-06 -9.63914e-06 -1.41976e-06)
(1.83234e-06 -7.01194e-06 -7.85719e-07)
(-1.669e-06 -6.99461e-06 8.75753e-07)
(3.11976e-06 -1.53935e-05 -8.16512e-07)
(-2.49475e-06 -1.54343e-05 1.05266e-06)
(3.05577e-06 -8.86222e-06 2.79512e-07)
(-2.77764e-06 -8.80108e-06 -1.96022e-07)
(4.03777e-06 -9.38132e-06 6.37879e-07)
(-3.14012e-06 -1.02752e-05 -8.63342e-07)
(-4.1389e-06 -6.95724e-06 -2.24169e-06)
(-2.18573e-06 -1.60023e-05 5.60299e-07)
(-4.51138e-06 -1.16053e-05 -1.64584e-06)
(-1.61096e-06 -1.25552e-05 -5.67815e-07)
(-2.08708e-06 -8.75188e-06 -3.85848e-07)
(-2.01214e-06 -6.66245e-06 -8.18567e-07)
(-7.21592e-06 5.80902e-07 -2.14131e-06)
(-3.44138e-06 -2.35664e-06 -1.28905e-06)
(-2.48524e-06 -6.22986e-06 -1.42518e-06)
(-4.55057e-06 -3.04189e-06 -9.01425e-07)
(-7.34624e-06 -2.53229e-06 -1.6411e-06)
(-5.89902e-06 -6.37068e-06 -1.65923e-06)
(-7.62362e-06 -2.32399e-06 -2.10839e-06)
(3.83797e-06 -4.64781e-06 1.13908e-06)
(-3.353e-06 -4.5759e-06 -1.05046e-06)
(5.00205e-06 -1.10721e-05 1.57264e-06)
(-3.07734e-06 -1.10829e-05 -1.25781e-06)
(4.13158e-06 2.70394e-06 1.35871e-06)
(-3.40072e-06 2.84836e-06 -1.21164e-06)
(-8.53595e-06 -6.0683e-06 -3.31016e-06)