/*--------------------------------*- C++ -*----------------------------------*\
| =========                 |                                                 |
| \\      /  F ield         | OpenFOAM: The Open Source CFD Toolbox           |
|  \\    /   O peration     | Version:  2012                                  |
|   \\  /    A nd           | Website:  www.openfoam.com                      |
|    \\/     M anipulation  |                                                 |
\*---------------------------------------------------------------------------*/
FoamFile
{
    version     2.0;
    format      ascii;
    class       volVectorField;
    location    "0.106/fluid";
    object      U_0;
}
// * * * * * * * * * * * * * * * * * * * * * * * * * * * * * * * * * * * * * //

dimensions      [0 1 -1 0 0 0 0];


internalField   nonuniform List<vector> 
16422
(
(1.19993 4.05835e-06 2.10249e-05)
(1.1997 8.00455e-05 5.11167e-05)
(1.19942 0.000141085 2.62009e-05)
(1.19952 0.000204323 2.62185e-05)
(1.19947 0.000300881 2.74815e-05)
(1.19937 0.000453345 3.29948e-05)
(1.19922 0.000695005 4.39916e-05)
(1.19904 0.00107581 6.03654e-05)
(1.1988 0.00166852 8.9181e-05)
(1.19845 0.0025886 0.000140486)
(1.19795 0.003998 0.000223361)
(1.19711 0.00620869 0.000400862)
(1.19514 0.0102163 0.000959299)
(1.19033 0.0212178 0.00288861)
(1.20893 0.0614161 0.00463037)
(1.19993 1.65753e-06 2.11714e-05)
(1.1997 5.40398e-05 5.34046e-05)
(1.19945 0.000105448 2.7781e-05)
(1.19958 0.000154906 2.71757e-05)
(1.19957 0.000228288 2.94042e-05)
(1.19952 0.000344754 3.27351e-05)
(1.19948 0.000524459 4.05052e-05)
(1.19946 0.000803985 5.44877e-05)
(1.19946 0.00123818 7.44482e-05)
(1.19953 0.00189976 0.000106221)
(1.1997 0.00290786 0.000157427)
(1.20006 0.00447572 0.000230398)
(1.20103 0.00701049 0.000339272)
(1.2042 0.0108242 0.000472609)
(1.21299 0.0114989 0.000244639)
(1.19993 -6.60696e-06 2.14026e-05)
(1.19971 -1.4874e-06 5.46472e-05)
(1.19947 4.15663e-05 2.81059e-05)
(1.19962 7.11925e-05 2.7041e-05)
(1.19964 0.000112717 2.99295e-05)
(1.19963 0.000172153 3.29694e-05)
(1.19965 0.0002647 3.92259e-05)
(1.19972 0.000405327 5.04164e-05)
(1.19988 0.000621596 6.49546e-05)
(1.20019 0.000950018 8.61034e-05)
(1.20075 0.00144175 0.000113828)
(1.20176 0.00216211 0.000139349)
(1.20358 0.00312268 0.000148257)
(1.20672 0.00392381 0.000108274)
(1.2106 0.00277686 -7.1092e-07)
(1.19996 3.9891e-06 4.86201e-06)
(1.19992 7.98055e-05 5.65569e-05)
(1.19974 0.000139241 6.24786e-05)
(1.1999 0.00020157 7.39546e-05)
(1.19991 0.000297221 0.000104072)
(1.19988 0.000445732 0.000151368)
(1.19982 0.000677887 0.000225008)
(1.19974 0.00104332 0.000336529)
(1.19965 0.00160872 0.000503037)
(1.19954 0.00247329 0.000752036)
(1.19945 0.00377493 0.00113205)
(1.19937 0.00571902 0.00172413)
(1.19907 0.00885284 0.00263003)
(1.19826 0.0160984 0.0038205)
(1.21124 0.0419017 0.00378468)
(1.19996 1.71763e-06 4.72949e-06)
(1.19993 5.44257e-05 5.47483e-05)
(1.19977 0.000103511 5.83264e-05)
(1.19997 0.000152329 6.85775e-05)
(1.20002 0.000225175 9.55452e-05)
(1.20005 0.00033755 0.000137963)
(1.20008 0.000511958 0.000199901)
(1.20015 0.000780578 0.00028915)
(1.20028 0.00119363 0.000417344)
(1.20052 0.00181508 0.000594881)
(1.20093 0.00274878 0.000838745)
(1.20166 0.00416029 0.00116645)
(1.2031 0.00635386 0.00155677)
(1.20649 0.00951615 0.00182166)
(1.21412 0.00995763 0.00139835)
(1.19996 -6.37226e-06 4.59684e-06)
(1.19994 -1.18594e-06 5.37846e-05)
(1.1998 4.02583e-05 5.55859e-05)
(1.20001 6.94965e-05 6.57675e-05)
(1.20009 0.000109829 8.97902e-05)
(1.20016 0.000168998 0.000129158)
(1.20025 0.000259123 0.000183835)
(1.20041 0.00039388 0.000259329)
(1.20068 0.000598964 0.000362592)
(1.20112 0.000908409 0.000495841)
(1.20183 0.00136477 0.000659878)
(1.20301 0.00202205 0.000841956)
(1.20494 0.00288488 0.000992993)
(1.20797 0.00359214 0.00099736)
(1.2114 0.00249544 0.00069084)
(1.19996 3.89625e-06 6.93276e-06)
(1.19991 7.8031e-05 8.51973e-05)
(1.19975 0.000135904 0.000106506)
(1.19993 0.000193915 0.000130767)
(1.19997 0.00028477 0.000179709)
(1.19996 0.00042487 0.000259036)
(1.19995 0.00063976 0.000381299)
(1.19994 0.000971349 0.000566597)
(1.19995 0.00147686 0.000842538)
(1.19999 0.00223337 0.00124455)
(1.20013 0.00333727 0.00183105)
(1.20039 0.00490542 0.00268265)
(1.20056 0.00724411 0.00385948)
(1.19964 0.0128185 0.00509293)
(1.20856 0.0370142 0.00470279)
(1.19996 1.71678e-06 6.79245e-06)
(1.19992 5.34182e-05 8.2526e-05)
(1.19978 9.97537e-05 0.000102241)
(1.2 0.000147256 0.000122617)
(1.20007 0.000216054 0.000166169)
(1.20012 0.000321891 0.00023525)
(1.2002 0.000483211 0.000339701)
(1.20032 0.000726981 0.000488427)
(1.20051 0.00109483 0.000700984)
(1.20084 0.00163848 0.000992652)
(1.20136 0.00242969 0.00138311)
(1.2022 0.00358181 0.00188557)
(1.20364 0.00532017 0.00244772)
(1.20656 0.00785415 0.00279104)
(1.21293 0.00832332 0.00221609)
(1.19996 -6.2101e-06 6.65952e-06)
(1.19993 -1.79556e-06 8.03559e-05)
(1.19981 3.80047e-05 9.88293e-05)
(1.20004 6.63426e-05 0.000117784)
(1.20013 0.000104555 0.000157712)
(1.20022 0.00016128 0.000220968)
(1.20035 0.00024383 0.000312011)
(1.20055 0.000366736 0.000438342)
(1.20087 0.00054962 0.000610312)
(1.20135 0.000819459 0.0008322)
(1.20212 0.00120708 0.00109963)
(1.20329 0.00174856 0.00138949)
(1.20511 0.00244306 0.00161902)
(1.20781 0.00300132 0.00160179)
(1.21077 0.00202508 0.0011133)
(1.17406 0.094488 0.0125734)
(0.923184 -0.144571 -0.0174635)
(1.19148 0.0598292 0.0101473)
(1.32622 -0.0542513 -0.00649234)
(1.19114 0.060566 0.00562891)
(1.32659 -0.0526028 0.00881475)
(1.18929 0.0554817 0.00565141)
(1.31893 -0.0521182 -0.00861395)
(1.18838 0.0553091 0.00531201)
(1.31756 -0.0520294 0.00740786)
(1.18273 0.0222791 0.00446032)
(1.16638 0.0602435 0.0103673)
(1.19519 0.0154429 0.00605674)
(1.19296 0.0364516 0.00958822)
(0.65214 0.0179945 0.0906835)
(1.15739 -0.00533801 0.0347675)
(1.28995 0.00693539 -0.00527243)
(1.21677 0.0170787 0.000694556)
(1.23189 0.00132383 -3.88527e-06)
(1.2119 0.0413996 0.00566928)
(1.28389 0.0149952 -0.00125503)
(1.21897 0.0149615 0.0020498)
(1.23308 0.00254982 0.000797147)
(1.1948 0.0156348 0.00458248)
(1.19246 0.0371808 0.00573733)
(1.19671 0.0126183 0.00567205)
(1.19245 0.0323546 0.0060931)
(1.13326 -0.0206463 0.00903302)
(1.13238 -0.0274716 0.0099139)
(1.28193 0.0151237 -0.000187572)
(1.21866 0.0149768 0.00189063)
(1.23233 0.00305495 0.000624244)
(1.20921 0.0374579 0.00462137)
(1.27838 0.0153955 0.00172584)
(1.21752 0.0133219 0.00234952)
(1.23052 0.002471 0.000270987)
(1.19688 0.012094 0.00572971)
(1.19186 0.0320531 0.00583488)
(1.12922 -0.0249775 0.00592597)
(1.12864 -0.0260904 0.00877946)
(1.27721 0.0158241 0.00153538)
(1.21698 0.0128637 0.00243749)
(1.22949 0.00235552 -8.36936e-05)
(1.06892 0.0807691 0.02233)
(1.1659 0.105675 0.0109331)
(1.20725 0.0675268 0.0170787)
(1.15716 0.060125 0.0310473)
(1.23968 0.0991506 0.0220312)
(0.847073 0.0538447 0.0474698)
(1.34338 -0.063737 -0.00492467)
(1.31439 0.0920111 0.0209305)
(1.13387 -0.024439 0.0178796)
(1.13632 -0.012771 0.0280957)
(1.19093 0.0687668 0.00825429)
(1.13071 0.0388057 0.0133078)
(1.2137 0.0907511 0.00927705)
(1.13167 0.0485518 0.0107675)
(1.21667 0.0987217 0.00941631)
(1.33731 -0.0549518 0.00854859)
(1.28232 0.0881175 0.0079214)
(1.29067 0.0955757 0.00527216)
(1.13077 0.0406588 0.00640798)
(1.21312 0.0913969 0.00487686)
(1.1908 0.0568811 0.00668627)
(1.12977 0.035381 0.00785543)
(1.2111 0.0884746 0.00554548)
(1.28204 0.0895144 0.00241122)
(1.32262 -0.0522066 -0.00759591)
(1.27842 0.0874445 0.0053814)
(1.13021 -0.0271679 0.00755175)
(1.13099 -0.0237597 0.00523539)
(1.18991 0.0572695 0.00455942)
(1.1285 0.0346021 0.00649708)
(1.20864 0.0871221 0.0045355)
(1.12926 0.0373687 0.00512444)
(1.21031 0.0885693 0.00364727)
(1.32208 -0.0520393 0.00783513)
(1.27511 0.0868539 0.00479102)
(1.27815 0.0877017 0.000911171)
(1.12792 0.0353487 0.00602751)
(1.2074 0.0867473 0.00425946)
(1.18764 0.0541294 0.00691888)
(1.12741 0.0338395 0.00810153)
(1.20565 0.0856072 0.00578723)
(1.27424 0.0868359 0.000989384)
(1.31359 -0.0525093 -0.00947079)
(1.27075 0.0859154 0.00601439)
(1.12828 -0.0247429 0.0104797)
(1.18704 0.0529287 0.0085524)
(1.12725 0.0332912 0.0102576)
(1.20383 0.0842918 0.0075417)
(1.31103 -0.0524136 0.00734479)
(1.26889 0.0855238 0.00296859)
(1.20108 -0.0895821 0.074722)
(1.20652 -0.188516 0.0296161)
(1.13429 -0.0669982 0.0231899)
(1.28588 -0.160116 0.050921)
(1.18157 -0.0555795 0.0442736)
(1.14147 -0.100244 0.0274154)
(1.25026 -0.086603 0.10041)
(0.284149 -0.0323257 0.0638881)
(1.18557 -0.00662324 0.0456413)
(1.10617 -0.135097 0.00607802)
(1.15353 -0.208167 0.00608871)
(1.11763 -0.0929105 0.00845852)
(1.15383 -0.208088 0.00739641)
(1.11818 -0.0923554 0.00773672)
(1.10571 -0.135619 0.010786)
(1.10779 -0.127965 0.0144748)
(1.15977 -0.198182 0.00272339)
(1.12071 -0.086754 0.00780421)
(1.10832 -0.127799 0.00377598)
(1.15758 -0.198109 0.0118534)
(1.11974 -0.0869056 0.00985117)
(1.09989 -0.129952 0.00337919)
(1.14455 -0.197764 0.0089978)
(1.11455 -0.0900317 0.00987063)
(1.14516 -0.198384 0.00501778)
(1.11491 -0.0901716 0.00677343)
(1.09962 -0.12959 0.0125216)
(1.10086 -0.12879 0.0106223)
(1.148 -0.197711 0.00175481)
(1.11581 -0.0893857 0.00442895)
(1.10133 -0.12931 0.000345375)
(1.14688 -0.197076 0.00801014)
(1.11537 -0.0891479 0.00758001)
(1.35591 -0.266739 0.0147468)
(1.83013 5.45126e-05 -0.10733)
(1.63818 0.0731599 -0.090919)
(1.71765 0.155565 -0.127908)
(1.13645 0.17662 -0.00905611)
(1.1661 0.126342 0.0354425)
(1.19164 0.231999 0.0259515)
(1.16613 0.13392 0.00773631)
(1.18947 0.243531 -0.00175403)
(1.14272 0.161857 0.0326407)
(1.34466 0.205207 0.0476892)
(0.682553 0.0649819 0.0544429)
(0.783573 0.167614 0.0174766)
(1.30402 0.177116 0.049796)
(1.389 0.224332 0.0201799)
(0.736479 0.130213 0.0457204)
(1.60898 0.0851965 0.0105275)
(1.33104 0.269331 0.0164703)
(1.36523 0.278509 -0.00505682)
(1.58742 0.0906226 -0.01955)
(1.85164 0.0574567 -0.0574625)
(1.06631 -0.192766 0.0164592)
(1.84065 -0.104845 -0.0615085)
(1.0806 -0.0616739 0.00443664)
(1.64644 0.00688591 0.0155752)
(1.5998 -0.135009 -0.0438776)
(1.62949 0.0192348 -0.029488)
(1.61342 -0.156625 0.0102029)
(1.80032 0.124848 -0.0485703)
(0.630319 0.141354 0.0322611)
(1.56538 0.261773 3.21957e-05)
(1.0084 0.0038341 -0.00324984)
(1.11384 -0.125972 0.0347624)
(1.17493 -0.196934 0.0269365)
(1.13281 -0.0817669 0.0335486)
(1.11979 -0.12105 0.0344644)
(1.16998 -0.197587 0.0286059)
(1.1235 -0.0828363 0.0262314)
(1.11265 -0.134516 0.0186916)
(1.16325 -0.212298 0.010956)
(1.12167 -0.0920496 0.0144518)
(1.11149 -0.136451 0.0174399)
(1.1659 -0.210417 0.0193358)
(1.12275 -0.0899533 0.0176429)
(1.32929 -0.240246 0.0171598)
(1.31884 -0.242531 0.0227801)
(1.59366 0.110717 -0.0550209)
(1.59739 0.114549 0.0301361)
(1.59499 0.154758 -0.0408)
(1.59427 0.128947 -0.034877)
(1.31614 -0.255154 0.0246155)
(1.10819 0.147768 0.0141326)
(1.13542 0.109261 0.0176701)
(1.16656 0.220683 0.00847541)
(1.11511 0.152553 0.00695219)
(1.129 0.106856 0.0160018)
(1.15717 0.218275 0.0121545)
(1.10534 0.142303 0.00662601)
(1.12494 0.098734 0.0127456)
(1.15209 0.209464 0.00991381)
(1.12617 0.101056 0.0137081)
(1.15237 0.211941 0.00588717)
(1.10512 0.140084 0.0136775)
(1.55477 0.0872631 -0.0209288)
(1.31466 0.263019 0.0140745)
(1.57301 0.0827428 0.029626)
(1.29664 0.260476 0.00531667)
(1.59287 0.0159148 0.0315404)
(1.57051 -0.12501 -0.0348099)
(1.57309 -0.1268 0.0328084)
(1.58955 0.0152325 -0.0281602)
(1.59873 0.0203007 -0.0287558)
(1.59327 -0.133483 0.0309748)
(1.61645 0.013148 0.0343722)
(1.57855 -0.124988 -0.0369412)
(1.54949 0.0826992 0.0263378)
(1.29121 0.253057 0.00319069)
(1.29294 0.256397 0.0084677)
(1.54636 0.0808483 -0.0209458)
(1.58123 0.134065 0.00939978)
(1.57496 0.132021 -0.0306279)
(1.57388 0.119577 -0.0436525)
(1.57675 0.119252 0.0363088)
(1.10252 0.137584 0.00224365)
(1.12214 0.0956556 0.0075421)
(1.14709 0.205606 0.00692316)
(1.12253 0.0962186 0.00692747)
(1.14752 0.206492 0.00313776)
(1.10209 0.136785 0.00991905)
(1.10517 0.141416 0.0101951)
(1.12601 0.101387 0.00684885)
(1.15261 0.211601 0.00347372)
(1.12509 0.100453 0.00834733)
(1.10572 0.142562 0.00211619)
(1.15096 0.210315 0.00773283)
(1.54038 0.0817206 0.0262147)
(1.28461 0.25033 0.00137514)
(1.28589 0.251578 0.00652375)
(1.5385 0.0811649 -0.0218284)
(1.58696 0.0182525 -0.0278472)
(1.57202 -0.12348 0.0335841)
(1.59112 0.0178623 0.0324626)
(1.56868 -0.122228 -0.0331763)
(1.54341 0.0832313 -0.0210756)
(1.29182 0.254831 0.00701777)
(1.54758 0.0834219 0.0270386)
(1.28865 0.253628 0.0025085)
(1.58396 0.0170539 0.0318191)
(1.56501 -0.121688 -0.034093)
(1.58216 0.0169957 -0.0286396)
(1.56646 -0.122354 0.0339111)
(1.10365 -0.129047 0.0102704)
(1.15272 -0.198807 0.000384025)
(1.11752 -0.088742 0.00386306)
(1.10425 -0.129428 -0.000412397)
(1.15121 -0.198347 0.00802547)
(1.11692 -0.088607 0.00679256)
(1.10258 -0.13276 0.00274895)
(1.1487 -0.202802 0.00616186)
(1.11571 -0.0915941 0.00742672)
(1.10224 -0.132763 0.00992901)
(1.14891 -0.203201 0.00441677)
(1.11607 -0.0914559 0.00545065)
(1.10206 0.138093 0.00915498)
(1.12315 0.09797 0.00430009)
(1.14746 0.20684 0.0020773)
(1.10243 0.138592 0.000403321)
(1.1227 0.0975188 0.00638574)
(1.14651 0.206123 0.00666885)
(1.10062 0.135939 0.00115243)
(1.12133 0.0948313 0.00675524)
(1.14404 0.203266 0.00670633)
(1.12154 0.0951567 0.00536718)
(1.14458 0.203875 0.00257266)
(1.10024 0.135418 0.00957673)
(1.53633 0.0820551 -0.0216628)
(1.28495 0.251112 0.005557)
(1.53894 0.0821772 0.025744)
(1.28312 0.250444 0.00176343)
(1.57862 0.017776 0.0313568)
(1.56054 -0.120512 -0.0346206)
(1.56203 -0.120896 0.0332671)
(1.5767 0.0178901 -0.0287872)
(1.58022 0.0181278 -0.0284673)
(1.56513 -0.121452 0.0330413)
(1.58265 0.0178972 0.0312714)
(1.56331 -0.120905 -0.0339818)
(1.53463 0.0815392 0.0257934)
(1.28019 0.248515 0.00158051)
(1.28154 0.249335 0.00596299)
(1.53255 0.081305 -0.0218757)
(1.09866 0.134255 0.00255456)
(1.12078 0.0939076 0.00915906)
(1.1406 0.200453 0.00902044)
(1.12105 0.094333 0.006887)
(1.14135 0.201158 0.00409224)
(1.09838 0.133625 0.0120975)
(1.09969 0.135497 0.0101803)
(1.12183 0.0958307 0.00493302)
(1.14366 0.203278 0.00268051)
(1.12151 0.0954724 0.00716215)
(1.10002 0.135947 0.000959635)
(1.14282 0.20264 0.00745056)
(1.52784 0.0813078 0.0266352)
(1.27483 0.246272 0.00418308)
(1.27678 0.247185 0.00709201)
(1.52459 0.081068 -0.020088)
(1.57364 0.0182521 -0.0282628)
(1.5598 -0.120536 0.0330457)
(1.57619 0.0181573 0.0313493)
(1.55782 -0.120207 -0.0347221)
(1.52925 0.0814491 -0.0211995)
(1.27982 0.248561 0.00593818)
(1.53201 0.0816327 0.0258376)
(1.27804 0.247871 0.00263136)
(1.57232 0.0181512 0.0320833)
(1.55401 -0.119912 -0.0348102)
(1.56922 0.0182086 -0.0273858)
(1.55658 -0.120344 0.0334131)
(1.09828 -0.126733 0.0158387)
(1.14295 -0.195005 0.00618861)
(1.1144 -0.0890408 0.00893356)
(1.09841 -0.127649 0.00469918)
(1.14168 -0.194024 0.0126265)
(1.11398 -0.0884654 0.0132577)
(1.09654 -0.125898 0.0111189)
(1.13891 -0.192857 0.0124108)
(1.11345 -0.0882821 0.015745)
(1.09738 0.132239 0.0154128)
(1.12075 0.0939446 0.00921183)
(1.13914 0.199516 0.00636428)
(1.09747 0.133112 0.00473636)
(1.1204 0.0933252 0.0126243)
(1.138 0.198576 0.0123027)
(1.09582 0.130849 0.0104868)
(1.11995 0.0926177 0.0158094)
(1.13551 0.196831 0.011865)
(1.51787 0.0811331 -0.0175272)
(1.27353 0.245826 0.00897)
(1.52304 0.0810934 0.0280565)
(1.27053 0.244749 0.00781492)
(1.56023 0.0185529 0.0356573)
(1.54586 -0.119782 0.0339951)
(1.56266 0.0186318 -0.0253201)
(1.55252 -0.12022 0.033811)
(1.56776 0.0182074 0.0333211)
(1.54812 -0.11925 -0.0348606)
(1.51528 0.081074 0.0309526)
(1.26824 0.24394 0.0133779)
(1.12188 -0.172278 0.023388)
(1.11294 -0.661473 0.0519908)
(0.799035 -0.118502 0.0436483)
(1.12646 -0.657121 0.0281179)
(0.810067 -0.105579 0.0154733)
(1.10835 -0.180081 0.0242568)
(0.726361 -0.12657 0.086437)
(0.1539 0.180497 0.0240138)
(0.857953 -0.494829 0.156557)
(0.677947 0.0621072 0.0187751)
(0.0683226 0.0380701 -0.0446479)
(0.658265 0.111307 -0.139673)
(0.575866 0.112045 -0.189096)
(1.08396 -0.192496 0.00578628)
(1.08891 -0.643982 0.0214298)
(0.793943 -0.131232 0.0235174)
(1.08237 -0.645305 -0.0132076)
(0.785547 -0.13319 -0.00997251)
(1.09228 -0.190599 0.00933454)
(1.08964 -0.186454 0.0085222)
(1.09729 -0.646193 -0.0118677)
(0.796796 -0.127507 -0.0102413)
(1.09831 -0.186514 0.00402489)
(1.08875 -0.644993 0.0268423)
(0.788877 -0.127543 0.0241239)
(0.617921 0.109899 -0.0852228)
(0.624916 0.110056 0.0165633)
(0.610871 0.107882 0.0349198)
(0.594454 0.108196 -0.0712714)
(1.08121 -0.183709 0.00694061)
(1.08151 -0.628264 0.0253855)
(0.797216 -0.127288 0.0261027)
(1.07542 -0.62946 -0.0109344)
(0.789272 -0.128752 -0.00799867)
(1.08908 -0.182408 0.0123121)
(1.08274 -0.184427 0.00607682)
(1.08577 -0.633464 -0.0129059)
(0.796502 -0.127556 -0.0127305)
(1.09107 -0.183946 0.000850443)
(1.07812 -0.632968 0.0243729)
(0.788741 -0.128283 0.0217223)
(0.600316 0.108766 -0.0704168)
(0.602744 0.110281 0.0420372)
(0.603571 0.109806 0.0342017)
(0.587833 0.109458 -0.0679877)
(0.906286 -0.178661 0.0410194)
(1.37183 -0.850816 0.0595477)
(1.40355 -0.854783 0.0364293)
(0.86756 -0.166563 -0.0117267)
(0.087375 0.00656028 -0.0214457)
(0.0390827 -0.0112104 -0.0250021)
(0.558133 0.0449981 -0.160008)
(0.579929 0.0831487 -0.118146)
(0.51441 0.0849394 -0.169146)
(0.615655 0.0424945 -0.094319)
(0.947964 -0.291719 -0.00703168)
(1.04869 -0.677942 0.086908)
(1.12433 0.219216 0.0214691)
(0.815453 0.160819 0.0427904)
(1.13133 0.668225 0.04226)
(0.803861 0.176079 0.0011897)
(1.1242 0.682862 0.000931531)
(1.1362 0.209396 0.0280022)
(1.00751 0.204695 0.0884795)
(0.307254 0.223381 0.050519)
(0.60819 0.555741 -0.121239)
(0.636224 0.231656 0.0801358)
(1.01681 0.588631 -0.130179)
(0.476269 0.254372 0.0656244)
(0.811719 0.162786 0.0165104)
(1.3684 0.850395 0.0443742)
(1.35927 0.871409 -0.0065006)
(0.834334 0.166655 -0.0200547)
(0.330075 -0.0462858 0.0911594)
(0.230164 -0.10027 0.0392402)
(0.394056 -0.0684494 0.134641)
(0.309127 -0.0771033 0.0441783)
(0.494161 -0.0507868 -0.0720252)
(0.51582 -0.0859416 0.0117344)
(0.516826 -0.0464531 0.00786894)
(0.503695 -0.0874704 -0.0745597)
(0.782305 0.171988 -0.103186)
(0.624116 0.448671 -0.0750059)
(1.32005 0.784906 -0.183411)
(0.621272 0.0616368 -0.0186288)
(1.10208 -0.190305 0.0316727)
(1.11254 -0.661647 0.0137571)
(0.801561 -0.1291 0.0111018)
(1.1093 -0.187161 0.0268018)
(1.10561 -0.659099 0.04773)
(0.794536 -0.130404 0.0432545)
(1.09066 -0.195329 0.0122771)
(1.09699 -0.653092 0.0254572)
(0.795495 -0.132091 0.027971)
(1.09819 -0.193704 0.013952)
(1.09166 -0.654619 -0.0074573)
(0.787734 -0.133767 -0.00386793)
(0.860035 -0.163774 -0.0178302)
(1.37384 -0.849601 0.0102943)
(0.874704 -0.168067 0.0216245)
(1.36061 -0.842006 0.0501927)
(0.523498 0.0471203 -0.0753188)
(0.533488 0.0821288 0.00309066)
(0.509578 0.0828931 -0.0767778)
(0.548875 0.0440009 0.00631938)
(0.623979 0.0466277 -0.0480107)
(0.5908 0.0882373 -0.13545)
(0.621994 0.048539 -0.138243)
(0.586399 0.0869963 -0.059683)
(0.828521 -0.160198 0.0185704)
(1.3464 -0.834034 0.0270216)
(1.34046 -0.83733 -0.0117974)
(0.833954 -0.161747 -0.0228573)
(1.09561 0.193005 0.013115)
(0.799703 0.146722 0.00250772)
(1.11448 0.655031 0.003925)
(1.11522 0.194784 0.0144838)
(0.78381 0.146663 0.035898)
(1.09712 0.652039 0.0374526)
(1.08828 0.184954 0.0101163)
(0.788345 0.139153 0.0290484)
(1.09407 0.640712 0.0261343)
(0.779792 0.13996 -0.00699136)
(1.08731 0.641085 -0.00995828)
(1.09684 0.184203 0.0118495)
(0.815453 0.160698 -0.013543)
(1.3591 0.844 -0.000489863)
(0.833616 0.166186 0.0201196)
(1.33113 0.835411 0.041813)
(0.516994 -0.0460098 -0.0592297)
(0.521005 -0.0822672 0.0482996)
(0.511571 -0.0832961 -0.0646178)
(0.526675 -0.0441055 0.042783)
(0.512309 -0.0484054 0.0220132)
(0.498009 -0.0857012 -0.0739676)
(0.494074 -0.0481076 -0.0737657)
(0.509504 -0.0855789 0.0253769)
(0.81331 0.160882 0.0206175)
(1.3297 0.825265 0.0301399)
(1.32138 0.82607 -0.0141834)
(0.818305 0.16248 -0.0161957)
(0.248238 -0.117171 0.0515832)
(0.466209 -0.0846902 0.157356)
(0.600993 -0.111983 0.0113661)
(0.585953 -0.113828 -0.0816756)
(0.615536 0.107811 -6.67791e-05)
(0.587555 0.107791 -0.0836337)
(0.673456 0.115485 -0.148534)
(0.667447 0.113533 -0.0718289)
(0.605701 -0.107907 0.0532544)
(0.594009 -0.108677 -0.0703668)
(0.581341 -0.111211 -0.079817)
(0.591662 -0.110914 0.0272202)
(0.813984 -0.156129 0.0185833)
(1.33402 -0.822573 0.0243933)
(1.32546 -0.824747 -0.0179355)
(0.821985 -0.158117 -0.0204655)
(0.55941 0.0469202 0.0193699)
(0.535155 0.0843487 -0.0779056)
(0.542682 0.0847167 0.0178169)
(0.550528 0.0460413 -0.0758883)
(0.829637 -0.158941 -0.0180874)
(1.34758 -0.829254 -0.0187015)
(1.33495 -0.825785 0.0308277)
(0.83971 -0.161659 0.0143772)
(0.523206 0.0477763 -0.0607923)
(0.527127 0.0827537 0.0335268)
(0.513566 0.0835573 -0.0654401)
(0.537131 0.0454563 0.0311541)
(1.085 0.180844 0.00585095)
(0.787709 0.136099 0.0253101)
(1.08839 0.633913 0.0229047)
(0.779342 0.136448 -0.0112968)
(1.08149 0.633971 -0.01358)
(1.09354 0.180282 0.00841459)
(1.08891 0.187624 0.00678968)
(0.789541 0.141697 -0.0113901)
(1.09515 0.642171 -0.0100965)
(0.781209 0.143019 0.0253785)
(1.09783 0.186158 0.00463858)
(1.08717 0.642289 0.0266865)
(0.804816 0.160022 0.0201349)
(1.3215 0.819218 0.0271183)
(1.31282 0.81921 -0.0177099)
(0.809892 0.161804 -0.0168037)
(0.520805 -0.0459253 0.0423997)
(0.515478 -0.0816516 -0.0641045)
(0.520377 -0.0436735 -0.0569585)
(0.51629 -0.0830121 0.0479188)
(0.806576 0.16002 -0.0159624)
(1.33075 0.827012 -0.0138107)
(0.818604 0.16319 0.0222603)
(1.319 0.826032 0.0307855)
(0.517902 -0.0447992 -0.0553008)
(0.51983 -0.0813673 0.0505928)
(0.52429 -0.0430813 0.0449607)
(0.51292 -0.0821555 -0.0621882)
(1.08502 -0.185872 0.00544031)
(1.09006 -0.639463 -0.0142252)
(0.79575 -0.127866 -0.0134414)
(1.09339 -0.185821 0.00044211)
(1.08218 -0.638756 0.0239698)
(0.78785 -0.128253 0.0213307)
(1.08217 -0.188059 0.00478548)
(1.08522 -0.636042 0.0220051)
(0.795241 -0.129292 0.0233071)
(1.09037 -0.1865 0.00923255)
(1.07864 -0.637192 -0.0135616)
(0.786966 -0.130946 -0.0105495)
(0.816415 -0.155572 -0.0170381)
(1.33535 -0.8196 -0.0204552)
(0.825167 -0.15814 0.0165025)
(1.32421 -0.817372 0.0283801)
(0.517794 0.0486255 -0.0574585)
(0.522045 0.0839152 0.04088)
(0.511098 0.084436 -0.0627886)
(0.528695 0.0466965 0.037284)
(0.538724 0.0480386 0.0352773)
(0.524237 0.0837953 -0.0677252)
(0.534595 0.0466029 -0.0629989)
(0.528003 0.0847812 0.0378549)
(0.807255 -0.153461 0.0189666)
(1.32717 -0.813281 0.0259747)
(1.31863 -0.815132 -0.0183879)
(0.814715 -0.155263 -0.0183012)
(1.08566 0.182779 0.00502165)
(0.788708 0.138046 -0.0138142)
(1.08915 0.634838 -0.012437)
(1.0943 0.181522 0.00209901)
(0.780366 0.139147 0.0230997)
(1.08149 0.634834 0.0244919)
(1.08402 0.178253 0.00523736)
(0.788701 0.134363 0.0248965)
(1.08477 0.628366 0.0227754)
(0.780402 0.135012 -0.0117776)
(1.0781 0.628808 -0.0138084)
(1.09241 0.177409 0.00827674)
(0.798673 0.159286 -0.016398)
(1.32206 0.820299 -0.0165506)
(0.809873 0.16215 0.0212521)
(1.31119 0.819439 0.0285261)
(0.51014 -0.0445546 -0.0545747)
(0.5154 -0.081358 0.04696)
(0.507686 -0.0818871 -0.0610836)
(0.517102 -0.0428866 0.0423586)
(0.518636 -0.0450329 0.0436489)
(0.51549 -0.0809712 -0.0627955)
(0.519794 -0.0428644 -0.0552142)
(0.514901 -0.0823787 0.0488687)
(0.794711 0.159114 0.0198151)
(1.31513 0.814342 0.0269826)
(1.30688 0.81489 -0.0180951)
(0.799963 0.160915 -0.0168442)
(0.600092 -0.107198 -0.0702817)
(0.599618 -0.108388 0.0528276)
(0.605568 -0.10707 0.0558909)
(0.596502 -0.107572 -0.0682046)
(0.607084 0.108821 0.0429255)
(0.593393 0.108888 -0.0680929)
(0.607674 0.108757 -0.0739323)
(0.610766 0.10966 0.0395554)
(0.602575 -0.107135 0.0514968)
(0.592465 -0.107345 -0.0670748)
(0.601084 -0.106597 -0.0691188)
(0.599303 -0.107863 0.0538258)
(0.799664 -0.150861 0.0196211)
(1.3198 -0.804282 0.0300655)
(1.31238 -0.806549 -0.0159545)
(0.8054 -0.152126 -0.0162554)
(0.525036 0.0492762 0.037583)
(0.515933 0.0841111 -0.0648215)
(0.51895 0.0856626 0.0404007)
(0.522362 0.0472823 -0.059336)
(0.806367 -0.152504 -0.0161567)
(1.32772 -0.811886 -0.0185014)
(1.31683 -0.809925 0.0290221)
(0.815821 -0.155218 0.0182845)
(0.506465 0.0496686 -0.0582213)
(0.516979 0.0852012 0.0336165)
(0.504306 0.0853373 -0.0629906)
(0.51925 0.0482268 0.0323532)
(1.08314 0.175063 0.00733659)
(0.790064 0.132442 0.0272804)
(1.08065 0.622053 0.0255212)
(0.781902 0.133386 -0.00948242)
(1.07448 0.622884 -0.0113201)
(1.09129 0.174021 0.0109933)
(1.0841 0.178525 0.00562502)
(0.789354 0.135155 -0.0133311)
(1.08495 0.628287 -0.0120184)
(0.781103 0.136001 0.023452)
(1.09273 0.177603 0.0023446)
(1.07729 0.628016 0.0247916)
(0.782963 0.157903 0.0201513)
(1.30748 0.808333 0.0299054)
(1.30027 0.809843 -0.0157909)
(0.787274 0.159434 -0.0158319)
(0.510931 -0.0450167 0.0405777)
(0.509521 -0.0808866 -0.0621662)
(0.510947 -0.0427595 -0.0552808)
(0.51039 -0.0825376 0.0441405)
(0.788737 0.158286 -0.0160989)
(1.31529 0.814774 -0.0164544)
(0.799704 0.161147 0.0206918)
(1.30434 0.813494 0.0288381)
(0.497398 -0.0449703 -0.0557276)
(0.511075 -0.0818679 0.0353731)
(0.507854 -0.0436341 0.0343285)
(0.499684 -0.0819644 -0.0610596)
(1.08056 -0.181646 0.0105245)
(1.08131 -0.626566 -0.00864775)
(0.79767 -0.126524 -0.00856081)
(1.08899 -0.180914 0.00466982)
(1.07346 -0.626005 0.028431)
(0.790015 -0.127407 0.0256439)
(0.794325 -0.149078 -0.0147322)
(1.32004 -0.803921 -0.013915)
(0.805686 -0.152351 0.019973)
(1.30811 -0.801454 0.0334514)
(0.513057 0.05079 0.0275309)
(0.506372 0.0846576 -0.0654329)
(0.507312 0.0481843 -0.0607341)
(0.512487 0.0867398 0.0273765)
(1.08232 0.174255 0.00975406)
(0.790227 0.132466 -0.00962619)
(1.08029 0.621216 -0.00846231)
(1.09109 0.173447 0.00579033)
(0.782195 0.133102 0.0271219)
(1.07237 0.620663 0.0286894)
(0.775197 0.15658 -0.0146316)
(1.30762 0.808619 -0.0130607)
(0.787315 0.159853 0.0210539)
(1.29567 0.806411 0.0330466)
(0.501534 -0.0459944 0.0290158)
(0.500972 -0.0810109 -0.0628381)
(0.496923 -0.0433255 -0.0575637)
(0.506465 -0.0830642 0.0284049)
(0.596337 -0.10655 -0.0684431)
(0.596262 -0.108081 0.0479987)
(0.600053 -0.107525 0.0377463)
(0.58588 -0.107302 -0.0669276)
(0.591981 0.108916 -0.0707599)
(0.597886 0.111003 0.0269603)
(0.589275 -0.106488 -0.0689875)
(0.594281 -0.108446 0.0296372)
(1.17104 -0.166602 0.0386023)
(1.18677 -0.656778 0.0284127)
(0.860972 -0.0987873 -0.0038286)
(1.19962 -0.150744 0.026629)
(1.1662 -0.650794 0.0697195)
(0.843746 -0.101228 0.046917)
(1.07323 -0.086522 0.0759515)
(1.26295 -0.539804 0.0165998)
(0.960069 -0.0316622 0.02752)
(1.27554 -0.0877219 0.0399191)
(1.10652 -0.464089 -0.0891634)
(0.826451 -0.000266873 -0.072658)
(0.739647 -0.12289 0.13359)
(0.834419 -0.365872 0.192063)
(0.680773 0.00213982 -0.0526573)
(0.691756 0.106182 -0.277086)
(0.362034 0.0618977 -0.0659614)
(0.718929 0.122293 -0.25815)
(0.62563 0.11371 -0.204686)
(1.08351 -0.19302 0.00826168)
(1.08967 -0.646002 -0.00792679)
(0.793217 -0.130934 -0.00967087)
(1.09251 -0.190767 0.00443818)
(1.08212 -0.646366 0.0265368)
(0.784645 -0.133399 0.0240214)
(1.08854 -0.186023 0.00731296)
(1.09282 -0.642903 0.0279759)
(0.795539 -0.127317 0.0267231)
(1.09546 -0.18609 0.0125196)
(1.08723 -0.643761 -0.0107022)
(0.788591 -0.12748 -0.00828039)
(0.62673 0.109214 0.0345494)
(0.609546 0.110132 -0.0780534)
(0.601113 0.107274 -0.0735231)
(0.606834 0.109133 0.0354481)
(1.08097 -0.184504 0.00817108)
(1.08293 -0.630826 -0.00993568)
(0.796424 -0.127713 -0.0104652)
(1.08942 -0.183393 0.0029258)
(1.07542 -0.630631 0.0261856)
(0.788531 -0.129079 0.0235637)
(1.08248 -0.183935 0.00503408)
(1.08379 -0.631002 0.0245286)
(0.796749 -0.12712 0.0247133)
(1.09015 -0.182974 0.0106106)
(1.0776 -0.632004 -0.0125765)
(0.789035 -0.128181 -0.00984408)
(0.607026 0.109589 0.0428075)
(0.59339 0.109613 -0.0680726)
(0.595685 0.108699 -0.069162)
(0.598936 0.110547 0.0382506)
(0.920017 -0.151279 0.0286099)
(0.702261 -0.0608107 -0.0282113)
(0.711598 -0.0671254 -0.0391071)
(0.881083 -0.139001 -0.0224456)
(0.932915 -0.181176 0.00425484)
(1.47293 -0.851164 0.0258817)
(1.42988 -0.848823 0.0853272)
(0.972493 -0.194203 0.0460097)
(0.949968 -0.155805 -0.00819189)
(0.784067 -0.0773145 -0.0501783)
(0.751765 -0.0721012 -0.0306854)
(0.995086 -0.16889 0.0295327)
(0.985601 -0.0726212 -0.024861)
(0.6411 -0.029847 -0.0114789)
(0.46742 -0.00851616 -0.103852)
(0.59389 0.0720627 -0.209745)
(0.34323 0.0417134 -0.0620993)
(0.56973 0.0137554 -0.122763)
(0.0966646 0.0185635 -0.0218674)
(0.239306 -0.0380936 -0.0455364)
(0.514247 -0.0226994 -0.101919)
(0.788412 -0.089494 -0.057736)
(0.553186 -0.010829 -0.0804411)
(0.812201 -0.0855395 -0.098433)
(1.00594 -0.102879 -0.0382678)
(1.4342 -0.300993 -0.0327495)
(0.546176 0.0225109 -0.120594)
(0.715771 -0.0377535 -0.0414453)
(0.705914 -0.0420527 -0.076428)
(0.582113 0.0210096 -0.0638305)
(0.608155 0.04216 -0.132689)
(0.645493 0.0930146 -0.221697)
(0.558538 0.08703 -0.173132)
(0.675398 0.047138 -0.188051)
(0.589919 0.0179254 -0.0871941)
(0.789559 -0.0519375 -0.0901816)
(0.75557 -0.0485188 -0.0508214)
(0.635807 0.0212401 -0.139594)
(1.05983 -0.217953 -0.0144511)
(1.52308 -0.748328 0.0346224)
(1.32514 -0.659715 -0.0587454)
(1.08187 -0.222446 -0.0157444)
(1.48359 -0.569776 0.0731968)
(0.946613 -0.451885 0.189596)
(0.841743 -0.228731 -0.0269483)
(0.371153 -0.0661709 -0.03537)
(1.09396 -0.198299 -0.0400091)
(0.821694 -0.110751 -0.0408182)
(1.10243 -0.204866 -0.0268061)
(0.828208 -0.102112 -0.0638446)
(1.73351 -0.607566 0.0481388)
(1.36178 -0.320023 -0.0161144)
(1.09266 0.217693 0.00100106)
(0.823434 0.178796 -0.0129962)
(1.16042 0.706412 0.0085584)
(0.778288 0.179842 0.0297647)
(1.15569 0.218601 -0.0100123)
(1.10484 0.69403 0.0358765)
(1.25305 0.21294 0.0340936)
(1.00649 0.198935 0.050832)
(1.34315 0.707625 0.0149837)
(0.894132 0.200622 -0.0255369)
(1.37156 0.234109 0.0359527)
(1.25276 0.666884 -0.134517)
(0.801184 0.130276 0.012223)
(0.626111 0.0585926 -0.0121753)
(0.590919 0.0529545 -0.0177391)
(0.830063 0.135793 -0.0253549)
(0.79579 0.154323 -0.0201521)
(1.43418 0.900108 -0.000539067)
(1.33982 0.87271 0.0403463)
(0.827452 0.166118 0.0269522)
(0.790606 0.122367 -0.0247831)
(0.598919 0.05499 -0.00160803)
(0.604074 0.0500663 -0.00889846)
(0.812889 0.131902 0.0260533)
(0.32244 -0.0436508 0.0705768)