/*--------------------------------*- C++ -*----------------------------------*\
| =========                 |                                                 |
| \\      /  F ield         | OpenFOAM: The Open Source CFD Toolbox           |
|  \\    /   O peration     | Version:  2012                                  |
|   \\  /    A nd           | Website:  www.openfoam.com                      |
|    \\/     M anipulation  |                                                 |
\*---------------------------------------------------------------------------*/
FoamFile
{
    version     2.0;
    format      ascii;
    class       surfaceVectorField;
    location    "0.106/fluid";
    object      Uf;
}
// * * * * * * * * * * * * * * * * * * * * * * * * * * * * * * * * * * * * * //

dimensions      [0 1 -1 0 0 0 0];


internalField   nonuniform List<vector> 
46880
(
(1.19994 4.4215e-06 2.10159e-05)
(1.19998 8.80784e-06 3.60762e-05)
(1.19994 4.08717e-06 2.10323e-05)
(1.19995 4.25376e-06 2.44217e-05)
(1.19971 8.1307e-05 5.08074e-05)
(1.19981 6.50656e-05 5.61145e-05)
(1.19976 9.29227e-05 4.50092e-05)
(1.19971 7.81256e-05 5.15455e-05)
(1.19986 8.11539e-05 5.41497e-05)
(1.19942 0.000143433 2.59316e-05)
(1.19968 0.000136254 2.64929e-05)
(1.19965 0.000147565 2.62174e-05)
(1.19943 0.000138196 2.64758e-05)
(1.19964 0.00014204 2.99988e-05)
(1.19952 0.000207491 2.59653e-05)
(1.19958 0.0001951 2.62284e-05)
(1.19956 0.000214783 2.6389e-05)
(1.19953 0.000200059 2.64465e-05)
(1.1998 0.000205171 3.23647e-05)
(1.19946 0.000306257 2.72558e-05)
(1.19949 0.000287028 2.6989e-05)
(1.19947 0.000316661 2.83403e-05)
(1.19949 0.000294343 2.77257e-05)
(1.1998 0.000301745 3.83172e-05)
(1.19935 0.000461282 3.28452e-05)
(1.19938 0.000430866 3.25989e-05)
(1.19935 0.000478718 3.39861e-05)
(1.19939 0.000443542 3.30135e-05)
(1.19975 0.000453812 5.08064e-05)
(1.19919 0.000707475 4.44088e-05)
(1.19924 0.000659297 4.23191e-05)
(1.1992 0.000735475 4.57076e-05)
(1.19926 0.000679614 4.35231e-05)
(1.19967 0.000693999 7.1609e-05)
(1.19898 0.00109628 6.13149e-05)
(1.19907 0.00102028 5.76776e-05)
(1.19901 0.00113847 6.34125e-05)
(1.1991 0.00105049 5.95298e-05)
(1.19956 0.00107364 0.000102643)
(1.1987 0.00170376 9.16098e-05)
(1.19883 0.00158179 8.46122e-05)
(1.19876 0.00176624 9.48692e-05)
(1.19889 0.00162688 8.71445e-05)
(1.19942 0.00166263 0.000153801)
(1.19829 0.00264712 0.000145194)
(1.1985 0.00245519 0.000133479)
(1.19839 0.00273803 0.000148485)
(1.1986 0.0025202 0.000135844)
(1.19925 0.00257599 0.000238339)
(1.1977 0.00409623 0.000232826)
(1.19802 0.00379299 0.000210246)
(1.19787 0.00422827 0.000239418)
(1.19819 0.00388667 0.000214605)
(1.19905 0.00397324 0.000373095)
(1.19669 0.00635695 0.000429889)
(1.19725 0.00588028 0.000371054)
(1.19695 0.00658819 0.000442021)
(1.19752 0.00603899 0.000375922)
(1.19874 0.00613285 0.000635193)
(1.19419 0.0104053 0.00109765)
(1.19549 0.00956495 0.000854264)
(1.1947 0.0110474 0.00110989)
(1.19604 0.0099464 0.000850392)
(1.19797 0.00985782 0.00131215)
(1.18653 0.0218853 0.00368133)
(1.19094 0.0191308 0.00255097)
(1.18951 0.0241821 0.00329087)
(1.19625 0.0193136 0.00339599)
(1.1932 0.0200168 0.00238122)
(1.19145 0.0796474 0.00861873)
(1.19924 0.0542884 0.00476587)
(1.22475 0.0723007 0.00296207)
(1.21538 0.0540438 0.00488931)
(1.21103 0.0472991 0.00373)
(1.19993 2.74659e-06 2.11391e-05)
(1.19998 3.70452e-06 3.64717e-05)
(1.19993 1.48569e-06 2.12064e-05)
(1.19995 1.87837e-06 2.45578e-05)
(1.19971 6.00927e-05 5.32704e-05)
(1.19982 4.21982e-05 5.82561e-05)
(1.19977 6.45996e-05 4.72713e-05)
(1.19971 5.18617e-05 5.37051e-05)
(1.19987 5.46742e-05 5.53209e-05)
(1.19945 0.000111784 2.76545e-05)
(1.1997 0.000101507 2.8193e-05)
(1.19968 0.000110333 2.76919e-05)
(1.19946 9.99579e-05 2.78599e-05)
(1.19968 0.00010585 3.02216e-05)
(1.19958 0.000163053 2.71934e-05)
(1.19964 0.000147567 2.71975e-05)
(1.19962 0.000162911 2.73161e-05)
(1.19959 0.000146315 2.71557e-05)
(1.19987 0.00015494 3.18337e-05)
(1.19956 0.000239613 2.91685e-05)
(1.19958 0.000217342 2.89349e-05)
(1.19957 0.000241008 2.98725e-05)
(1.19958 0.000216314 2.95201e-05)
(1.19991 0.000228932 3.87637e-05)
(1.1995 0.000361784 3.29518e-05)
(1.19953 0.000328187 3.21169e-05)
(1.19952 0.000363383 3.35044e-05)
(1.19954 0.000325985 3.25979e-05)
(1.19992 0.000344393 4.84508e-05)
(1.19945 0.000551033 4.08996e-05)
(1.19949 0.000497804 3.9345e-05)
(1.19948 0.00055399 4.19177e-05)
(1.19951 0.000495696 4.02305e-05)
(1.19994 0.000523686 6.42013e-05)
(1.19941 0.000845469 5.52217e-05)
(1.19946 0.00076324 5.26054e-05)
(1.19946 0.000849791 5.6637e-05)
(1.1995 0.000759104 5.39224e-05)
(1.19999 0.000802372 8.98497e-05)
(1.19939 0.00130312 7.61196e-05)
(1.19946 0.00117495 7.16151e-05)
(1.19947 0.00130856 7.77509e-05)
(1.19953 0.00116822 7.29773e-05)
(1.20009 0.00123395 0.000127535)
(1.19941 0.00200189 0.000109984)
(1.19952 0.0018037 0.000101593)
(1.19954 0.00200649 0.000111615)
(1.19963 0.00179049 0.00010308)
(1.20029 0.00189012 0.000182584)
(1.19951 0.00306703 0.000165011)
(1.19967 0.0027606 0.000150106)
(1.19973 0.00307177 0.000165598)
(1.19986 0.00273763 0.000150676)
(1.20065 0.0028874 0.000265827)
(1.19975 0.0047323 0.000248034)
(1.2 0.00424397 0.00022029)
(1.20014 0.0047352 0.000242067)
(1.20034 0.00420036 0.000215699)
(1.20132 0.0044288 0.00038373)
(1.20047 0.00749037 0.000388343)
(1.20085 0.0066303 0.000323712)
(1.20126 0.00743203 0.00035762)
(1.20149 0.0065036 0.00030406)
(1.2027 0.00688667 0.000548853)
(1.20343 0.0119623 0.000611302)
(1.2036 0.0103091 0.000461019)
(1.20494 0.0112816 0.000475833)
(1.20482 0.00980524 0.00039365)
(1.20629 0.0105031 0.000718791)
(1.21486 0.0140356 0.00047134)
(1.21158 0.0119667 0.000308728)
(1.2146 0.0103113 0.000163674)
(1.21481 0.011116 0.000394804)
(1.21371 0.0104007 0.000207593)
(1.19993 -1.20844e-06 2.13893e-05)
(1.19998 -1.22846e-05 3.69188e-05)
(1.19993 -3.72982e-06 2.14758e-05)
(1.19995 -6.42269e-06 2.47877e-05)
(1.19972 1.89611e-05 5.46569e-05)
(1.19982 -8.93854e-06 5.94687e-05)
(1.19978 6.44459e-06 4.84753e-05)
(1.19973 6.58205e-06 5.48117e-05)
(1.19988 -1.32801e-06 5.62007e-05)
(1.19947 5.80398e-05 2.80966e-05)
(1.19972 3.8154e-05 2.87067e-05)
(1.19971 4.50403e-05 2.78546e-05)
(1.19948 4.25093e-05 2.80452e-05)
(1.1997 4.15141e-05 2.98386e-05)
(1.19962 8.79721e-05 2.70723e-05)
(1.19967 6.72774e-05 2.70722e-05)
(1.19966 7.53852e-05 2.71993e-05)
(1.19962 6.66229e-05 2.69788e-05)
(1.19991 7.10919e-05 3.09315e-05)
(1.19963 0.000132076 2.99354e-05)
(1.19964 0.00010644 2.94283e-05)
(1.19964 0.00011942 3.00614e-05)
(1.19964 0.000100237 2.98614e-05)
(1.19998 0.000112653 3.80162e-05)
(1.19962 0.000197059 3.28921e-05)
(1.19963 0.000163684 3.21023e-05)
(1.19963 0.000181861 3.39061e-05)
(1.19964 0.000149845 3.29943e-05)
(1.20003 0.000172387 4.71561e-05)
(1.19964 0.000300658 3.92865e-05)
(1.19965 0.000251249 3.85808e-05)
(1.19966 0.000279382 4.04625e-05)
(1.19967 0.00022816 3.92912e-05)
(1.20012 0.000264818 6.04789e-05)
(1.1997 0.000458787 5.08654e-05)
(1.19971 0.000384496 4.91393e-05)
(1.19974 0.000428472 5.18598e-05)
(1.19974 0.000348042 5.01204e-05)
(1.20026 0.00040436 8.17376e-05)
(1.19984 0.000701667 6.58725e-05)
(1.19986 0.000590163 6.27855e-05)
(1.19991 0.000656562 6.73374e-05)
(1.19991 0.000532051 6.42072e-05)
(1.2005 0.000619304 0.000110506)
(1.20013 0.00107152 8.80221e-05)
(1.20014 0.000902337 8.31613e-05)
(1.20025 0.00100261 8.93893e-05)
(1.20024 0.000811618 8.46105e-05)
(1.20092 0.000945155 0.000149173)
(1.20066 0.0016275 0.000117914)
(1.20066 0.00137061 0.00011029)
(1.20085 0.00151947 0.000117426)
(1.20083 0.0012299 0.000110768)
(1.20162 0.0014313 0.000198686)
(1.20161 0.00244947 0.000147415)
(1.2016 0.00205886 0.000136629)
(1.20194 0.00227193 0.000141881)
(1.20187 0.00184124 0.000133568)
(1.20279 0.00214151 0.000248948)
(1.20339 0.00356993 0.000162512)
(1.2033 0.00299382 0.000148862)
(1.2039 0.0032458 0.000146453)
(1.20373 0.00264417 0.0001385)
(1.20476 0.00308659 0.000279478)
(1.20662 0.00456529 0.000127744)
(1.20627 0.00385812 0.000116694)
(1.20722 0.00392728 9.75052e-05)
(1.20681 0.00330253 9.71021e-05)
(1.20793 0.0038776 0.000239059)
(1.21143 0.003601 1.54822e-05)
(1.21014 0.00309145 1.38603e-05)
(1.21099 0.00231886 -1.05133e-05)
(1.21072 0.00259384 1.00058e-06)
(1.21158 0.00275598 9.53576e-05)
(1.19996 4.18354e-06 6.14738e-06)
(1.19996 4.3238e-06 4.86764e-06)
(1.2 8.75536e-06 9.08842e-06)
(1.19996 4.0469e-06 4.83227e-06)
(1.19996 4.14815e-06 7.33113e-06)
(1.19992 8.06203e-05 6.14032e-05)
(1.19993 8.12123e-05 5.67955e-05)
(1.20001 6.49442e-05 4.85044e-05)
(1.2 9.25381e-05 6.09887e-05)
(1.19993 7.78578e-05 5.62278e-05)
(1.19992 8.00371e-05 6.71199e-05)
(1.19974 0.000140346 6.01716e-05)
(1.19974 0.000141559 6.3023e-05)
(1.19999 0.000134729 6.33216e-05)
(1.19998 0.000145454 6.27885e-05)
(1.19975 0.000136336 6.19954e-05)
(1.19974 0.000139314 7.30144e-05)
(1.1999 0.000202781 6.9706e-05)
(1.1999 0.000204885 7.48133e-05)
(1.19996 0.000192476 7.14955e-05)
(1.19995 0.000211786 7.69555e-05)
(1.19991 0.000197347 7.31535e-05)
(1.19991 0.00020112 8.54015e-05)
(1.19991 0.00029864 9.63163e-05)
(1.1999 0.000302493 0.000105255)
(1.19992 0.000283376 9.9535e-05)
(1.19991 0.000312897 0.000109056)
(1.19993 0.000290694 0.000102879)
(1.19992 0.00029626 0.000117867)
(1.19987 0.000447782 0.000138687)
(1.19985 0.000453677 0.000153328)
(1.19988 0.000424078 0.00014441)
(1.19987 0.000470161 0.000159087)
(1.1999 0.00043588 0.000149482)
(1.19989 0.000443926 0.000169547)
(1.19981 0.000681405 0.000205113)
(1.19978 0.000690307 0.000228576)
(1.19983 0.000643831 0.000214218)
(1.19981 0.000716493 0.000236852)
(1.19986 0.000662631 0.000221495)
(1.19983 0.000674309 0.000250614)
(1.19973 0.00104974 0.000305613)
(1.19968 0.00106331 0.00034325)
(1.19975 0.000990106 0.000320373)
(1.19973 0.00110326 0.000354163)
(1.1998 0.00101881 0.000329866)
(1.19976 0.00103632 0.000373627)
(1.19962 0.0016198 0.000456302)
(1.19955 0.00164211 0.000515267)
(1.19966 0.00152661 0.000478801)
(1.19963 0.00170086 0.000529526)
(1.19974 0.0015687 0.000491129)
(1.19968 0.00159561 0.000557929)
(1.1995 0.00249371 0.000683708)
(1.19939 0.00252987 0.00077495)
(1.19955 0.00234837 0.000715882)
(1.19953 0.0026127 0.000791992)
(1.19968 0.00240743 0.000730091)
(1.19959 0.00244879 0.000833047)
(1.1994 0.00381334 0.00103347)
(1.19924 0.00386762 0.00117547)
(1.19946 0.00358748 0.00107651)
(1.19944 0.00398309 0.00119424)
(1.19966 0.00366971 0.00109099)
(1.19953 0.00372876 0.00125096)
(1.19929 0.00579009 0.001592)
(1.19905 0.00584909 0.00180901)
(1.19939 0.00543785 0.00163797)
(1.19936 0.00603434 0.00182198)
(1.19969 0.00556852 0.0016457)
(1.19949 0.00562663 0.00190505)
(1.19901 0.00894708 0.0025269)
(1.1985 0.00895283 0.00280342)
(1.19914 0.00836793 0.00250317)
(1.19899 0.00944 0.00277517)
(1.19965 0.00867651 0.00247604)
(1.19931 0.00861951 0.00296348)
(1.19655 0.015924 0.00421647)
(1.19839 0.0160568 0.00408318)
(1.19832 0.0147709 0.00368208)
(1.1982 0.0179733 0.00396309)
(1.1987 0.0153611 0.00445599)
(1.19997 0.0156693 0.00352035)
(1.20122 0.0505733 0.00475983)
(1.2116 0.0416056 0.0046122)
(1.20551 0.037502 0.00400916)
(1.22037 0.0504969 0.00338397)
(1.21092 0.040336 0.00446009)
(1.21474 0.0347187 0.00350463)
(1.19996 1.87105e-06 6.0054e-06)
(1.19996 2.73896e-06 4.73542e-06)
(1.2 3.80874e-06 8.79547e-06)
(1.19996 1.53109e-06 4.72471e-06)
(1.19996 1.86078e-06 7.25572e-06)
(1.19993 5.47638e-05 6.01822e-05)
(1.19993 6.02858e-05 5.48451e-05)
(1.20001 4.26015e-05 4.69564e-05)
(1.20002 6.47494e-05 5.88203e-05)
(1.19994 5.21746e-05 5.46941e-05)
(1.19993 5.44938e-05 6.5724e-05)
(1.19978 0.000104327 5.68056e-05)
(1.19977 0.000109895 5.88788e-05)
(1.20002 9.97304e-05 5.93207e-05)
(1.20002 0.000108477 5.85654e-05)
(1.19978 9.80575e-05 5.78769e-05)
(1.19978 0.000103336 6.91519e-05)
(1.19997 0.000153064 6.53561e-05)
(1.19996 0.000160435 6.91069e-05)
(1.20002 0.000145319 6.64211e-05)
(1.20002 0.000160112 7.11486e-05)
(1.19998 0.00014387 6.81138e-05)
(1.19997 0.000152069 7.99294e-05)
(1.20002 0.000226283 8.92081e-05)
(1.20001 0.00023653 9.64549e-05)
(1.20003 0.000214609 9.13392e-05)
(1.20003 0.000237115 0.000100115)
(1.20003 0.000212979 9.46423e-05)
(1.20003 0.000224467 0.000108976)
(1.20004 0.000339094 0.000127003)
(1.20003 0.000354559 0.000139448)
(1.20005 0.000321211 0.000131844)
(1.20005 0.000356019 0.000144629)
(1.20007 0.000319151 0.000136524)
(1.20006 0.000336165 0.000155036)
(1.20008 0.000514505 0.000182536)
(1.20006 0.00053784 0.000202623)
(1.20008 0.000486586 0.000191061)
(1.20009 0.000540482 0.000209406)
(1.20011 0.000483963 0.000197372)
(1.2001 0.000509243 0.000223279)
(1.20014 0.000785234 0.000263106)
(1.20011 0.000821045 0.000294243)
(1.20014 0.00074153 0.000276217)
(1.20017 0.00082445 0.000303041)
(1.20019 0.000737138 0.000284403)
(1.20017 0.000775376 0.00032179)
(1.20027 0.00120183 0.000379034)
(1.20022 0.00125646 0.000426738)
(1.20026 0.00113381 0.000399001)
(1.20031 0.00126005 0.000436949)
(1.20035 0.00112593 0.000408662)
(1.20031 0.00118373 0.000463034)
(1.20049 0.00182966 0.00053988)
(1.20041 0.00191243 0.000612047)
(1.20048 0.00172516 0.000569918)
(1.20056 0.00191482 0.000621643)
(1.20061 0.00171079 0.000579229)
(1.20055 0.00179681 0.000659482)
(1.20089 0.00277491 0.000763402)
(1.20077 0.00289847 0.000870559)
(1.20086 0.00261365 0.000804454)
(1.201 0.0028979 0.000875568)
(1.20107 0.00258805 0.000810458)
(1.20097 0.00271477 0.000929045)
(1.20162 0.0042078 0.0010669)
(1.20141 0.004394 0.00122637)
(1.20155 0.00395341 0.0011217)
(1.20179 0.00438858 0.00121414)
(1.20188 0.00390755 0.00111466)
(1.20172 0.00409603 0.00128959)
(1.20305 0.00643241 0.00143829)
(1.20269 0.00675947 0.00166845)
(1.20286 0.00602845 0.00150898)
(1.20338 0.00670689 0.00160477)
(1.20343 0.00591373 0.00146459)
(1.20316 0.00622847 0.00172264)
(1.2065 0.00960047 0.00172277)
(1.20608 0.0103855 0.00201567)
(1.20591 0.00909083 0.00181027)
(1.20718 0.00987773 0.00181911)
(1.20693 0.00870803 0.00168545)
(1.20652 0.00927027 0.00203757)
(1.21638 0.012201 0.00165088)
(1.21425 0.00997951 0.00132559)
(1.21293 0.0103531 0.00150675)
(1.21545 0.00892689 0.00126279)
(1.21399 0.009635 0.00159478)
(1.21488 0.00923533 0.00130713)
(1.19996 -6.29958e-06 5.93602e-06)
(1.19996 -1.08041e-06 4.6592e-06)
(1.2 -1.20604e-05 8.53968e-06)
(1.19996 -3.6943e-06 4.68626e-06)
(1.19996 -6.27301e-06 7.1163e-06)
(1.19994 -1.13905e-06 5.96071e-05)
(1.19995 1.93569e-05 5.39624e-05)
(1.20002 -8.66587e-06 4.61591e-05)
(1.20003 6.67634e-06 5.75716e-05)
(1.19996 6.80278e-06 5.38024e-05)
(1.19994 -1.24042e-06 6.48093e-05)
(1.1998 4.05415e-05 5.44928e-05)
(1.1998 5.68371e-05 5.57578e-05)
(1.20004 3.71782e-05 5.65919e-05)
(1.20004 4.35152e-05 5.5995e-05)
(1.19981 4.15092e-05 5.53423e-05)
(1.1998 4.01218e-05 6.63953e-05)
(1.20001 6.99052e-05 6.30237e-05)
(1.20001 8.64066e-05 6.59617e-05)
(1.20006 6.55363e-05 6.38966e-05)
(1.20006 7.37841e-05 6.79671e-05)
(1.20002 6.52332e-05 6.53055e-05)
(1.20001 6.92484e-05 7.69396e-05)
(1.20009 0.000110461 8.42182e-05)
(1.20009 0.000129264 9.02281e-05)
(1.20009 0.000103965 8.5964e-05)
(1.2001 0.000116252 9.39856e-05)
(1.2001 9.79707e-05 8.91502e-05)
(1.2001 0.000109382 0.000103027)
(1.20015 0.000169832 0.000119254)
(1.20015 0.000193852 0.000129852)
(1.20015 0.00016043 0.000123467)
(1.20017 0.000178683 0.000135233)
(1.20016 0.000147115 0.000128335)
(1.20016 0.000168312 0.000145767)
(1.20025 0.000260525 0.000168338)
(1.20024 0.000294222 0.000185325)
(1.20024 0.000246227 0.000176189)
(1.20027 0.000273431 0.00019198)
(1.20027 0.000223613 0.000182509)
(1.20026 0.000257706 0.000205752)
(1.2004 0.000396127 0.000236503)
(1.20039 0.000445719 0.000261992)
(1.20039 0.000374248 0.000248505)
(1.20044 0.000415794 0.000270804)
(1.20043 0.000338211 0.000257114)
(1.20043 0.000391243 0.000288937)
(1.20066 0.000603029 0.000329349)
(1.20064 0.000676274 0.000367507)
(1.20064 0.000569251 0.000348164)
(1.20072 0.000632046 0.000377683)
(1.20071 0.000512544 0.00035849)
(1.2007 0.000594006 0.000402589)
(1.2011 0.00091553 0.000449538)
(1.20106 0.00102485 0.00050479)
(1.20105 0.000863727 0.000477561)
(1.20119 0.000957531 0.000514757)
(1.20116 0.000776202 0.000488449)
(1.20114 0.000899181 0.000549916)
(1.20181 0.00137714 0.000598843)
(1.20175 0.00154047 0.000676031)
(1.20172 0.00129914 0.000637867)
(1.20195 0.00143606 0.000682154)
(1.2019 0.00116432 0.000646833)
(1.20186 0.00134794 0.000730747)
(1.20298 0.00204339 0.000764386)
(1.20289 0.00228923 0.000870937)
(1.20283 0.00192822 0.000819139)
(1.20321 0.00212096 0.000863818)
(1.2031 0.00172238 0.000819535)
(1.20304 0.00199198 0.000930492)
(1.20492 0.00291944 0.000901803)
(1.2048 0.0032922 0.00104158)
(1.20465 0.00276914 0.000978198)
(1.20526 0.00299371 0.00100385)
(1.20504 0.00244454 0.000956815)
(1.20496 0.00283467 0.00109372)
(1.20798 0.00363842 0.0009055)
(1.20795 0.00416155 0.00106604)
(1.20755 0.0035343 0.00100894)
(1.20842 0.00358924 0.000976321)
(1.20802 0.00303326 0.000949761)
(1.20795 0.00352218 0.00109285)
(1.21145 0.00253513 0.000621467)
(1.21229 0.00329748 0.00075993)
(1.21101 0.00278923 0.000745655)
(1.21174 0.00206559 0.000626904)
(1.21152 0.00238216 0.000657062)
(1.21133 0.00243226 0.000754306)
(1.19996 4.07477e-06 6.73338e-06)
(1.19996 4.21854e-06 6.92558e-06)
(1.2 8.55526e-06 1.30184e-05)
(1.19996 3.96448e-06 6.89633e-06)
(1.19996 4.0467e-06 7.09175e-06)
(1.19992 7.84355e-05 8.36262e-05)
(1.19992 7.93894e-05 8.53445e-05)
(1.2 6.34613e-05 7.20642e-05)
(1.2 9.05604e-05 9.33429e-05)
(1.19992 7.61058e-05 8.47631e-05)
(1.19992 7.76812e-05 8.7954e-05)
(1.19975 0.000136589 0.000102773)
(1.19975 0.000138293 0.000107106)
(1.2 0.000131714 0.000106253)
(1.19999 0.000141635 0.000108291)
(1.19976 0.000132875 0.000105973)
(1.19976 0.00013547 0.000110205)
(1.19993 0.000195167 0.000125339)
(1.19993 0.000197119 0.000131946)
(1.19999 0.000185387 0.000126657)
(1.19998 0.000203558 0.000135588)
(1.19994 0.000189922 0.0001296)
(1.19994 0.000192817 0.000135531)
(1.19996 0.00028675 0.000172242)
(1.19996 0.000289793 0.000181676)
(1.19998 0.000271562 0.000172229)
(1.19997 0.000299716 0.000188018)
(1.19998 0.0002786 0.000177793)
(1.19998 0.00028286 0.000186146)
(1.19995 0.000428186 0.000248156)
(1.19994 0.00043225 0.00026238)
(1.19996 0.000404631 0.000247349)
(1.19996 0.000447654 0.000271938)
(1.19998 0.000415575 0.000255725)
(1.19998 0.000421519 0.00026828)
(1.19993 0.000645587 0.000365544)
(1.19991 0.000651307 0.000387219)
(1.19995 0.000608506 0.000363409)
(1.19995 0.000675001 0.000400983)
(1.19998 0.000625458 0.000375483)
(1.19997 0.000633829 0.000394623)
(1.19991 0.000982169 0.000543408)
(1.19989 0.000990137 0.000577611)
(1.19994 0.000923311 0.000539685)
(1.19994 0.00102522 0.000596039)
(1.19999 0.000948373 0.000555713)
(1.19997 0.000960233 0.000586231)
(1.1999 0.00149645 0.000808761)
(1.19986 0.00150769 0.000862676)
(1.19994 0.00140373 0.000802682)
(1.19995 0.0015585 0.000885763)
(1.20003 0.00143992 0.000822824)
(1.19999 0.00145654 0.000871049)
(1.19993 0.00226838 0.00119642)
(1.19987 0.0022848 0.00128073)
(1.19999 0.00212519 0.00118668)
(1.20001 0.00235327 0.00130762)
(1.20011 0.00217359 0.00120943)
(1.20006 0.00219697 0.00128462)
(1.20004 0.00339958 0.0017643)
(1.19995 0.00341978 0.00189557)
(1.20011 0.00318032 0.00174687)
(1.20016 0.00350944 0.001923)
(1.20031 0.00324379 0.00176883)
(1.20024 0.00327268 0.00188643)
(1.20026 0.00501554 0.00259515)
(1.20015 0.00501655 0.00279692)
(1.20036 0.00468373 0.00256144)
(1.20044 0.00514791 0.00281459)
(1.20065 0.0047766 0.00257281)
(1.20054 0.00479118 0.00275502)
(1.20039 0.00743768 0.00374901)
(1.20017 0.00729681 0.00406136)
(1.20058 0.00688795 0.00369947)
(1.20054 0.00766827 0.00402895)
(1.201 0.00712205 0.0036656)
(1.20076 0.00704139 0.00395915)
(1.1983 0.0124472 0.00542178)
(1.19958 0.0130915 0.00496173)
(1.19985 0.0117357 0.00497171)
(1.19938 0.014399 0.00518738)
(1.19984 0.0124434 0.00533852)
(1.20115 0.012567 0.00477535)
(1.19854 0.0454209 0.00504493)
(1.20893 0.0371068 0.00461107)
(1.20364 0.0325976 0.00493646)
(1.21681 0.045704 0.00435001)
(1.20831 0.0362663 0.00534466)
(1.21219 0.0304902 0.0041953)
(1.19996 1.84312e-06 6.59373e-06)
(1.19996 2.66607e-06 6.79162e-06)
(1.2 3.78597e-06 1.26515e-05)
(1.19996 1.47996e-06 6.77403e-06)
(1.19996 1.8249e-06 6.95234e-06)
(1.19993 5.36559e-05 8.13567e-05)
(1.19993 5.90873e-05 8.27605e-05)
(1.20001 4.18058e-05 6.97768e-05)
(1.20001 6.33685e-05 9.03854e-05)
(1.19993 5.10829e-05 8.21798e-05)
(1.19993 5.31499e-05 8.53386e-05)
(1.19979 0.000100355 9.86082e-05)
(1.19978 0.000106089 0.000102771)
(1.20002 9.61479e-05 0.000102264)
(1.20003 0.000104658 0.00010356)
(1.19979 9.44372e-05 0.000101775)
(1.19979 9.93496e-05 0.000106053)
(1.19999 0.000148114 0.000117486)
(1.19999 0.000154994 0.000123462)
(1.20004 0.000140565 0.000118983)
(1.20005 0.000154616 0.000126903)
(1.2 0.00013916 0.000121833)
(1.2 0.000146482 0.000127255)
(1.20006 0.000217507 0.00015926)
(1.20006 0.000226998 0.000167621)
(1.20007 0.000206071 0.000159518)
(1.20008 0.000227321 0.000173483)
(1.20008 0.000204262 0.000164785)
(1.20008 0.000214665 0.00017212)
(1.20011 0.00032436 0.000225595)
(1.2001 0.000338084 0.000237836)
(1.20011 0.000306531 0.000225113)
(1.20013 0.000339167 0.000246452)
(1.20014 0.000304457 0.000232852)
(1.20013 0.000319367 0.000243424)
(1.20018 0.000487613 0.000325702)
(1.20017 0.000507709 0.000344252)
(1.20018 0.000459946 0.000324748)
(1.20021 0.00050925 0.000355776)
(1.20022 0.00045673 0.000335377)
(1.20021 0.000478727 0.000351518)
(1.20029 0.000735047 0.00046829)
(1.20027 0.000764515 0.000496945)
(1.2003 0.000691688 0.000467059)
(1.20034 0.00076649 0.000511517)
(1.20035 0.000686578 0.000480506)
(1.20034 0.000718588 0.000505407)
(1.20048 0.00110939 0.000672412)
(1.20045 0.00115251 0.000716465)
(1.20048 0.00104202 0.000670767)
(1.20055 0.00115332 0.000733103)
(1.20057 0.00103277 0.000686615)
(1.20055 0.00107951 0.000724943)
(1.20079 0.00166406 0.000953116)
(1.20075 0.00172626 0.00102013)
(1.20079 0.00156043 0.000951542)
(1.20089 0.00172417 0.00103618)
(1.20092 0.00154427 0.000967362)
(1.20089 0.00161125 0.00102557)
(1.2013 0.00247486 0.00132984)
(1.20123 0.0025617 0.00143221)
(1.20128 0.00231641 0.00132878)
(1.20145 0.0025531 0.0014403)
(1.20148 0.00228768 0.0013384)
(1.20143 0.002381 0.00142733)
(1.20213 0.00366113 0.00181643)
(1.20201 0.0037798 0.00197326)
(1.20208 0.00341442 0.00181757)
(1.20235 0.00376341 0.00195519)
(1.20238 0.00336573 0.00180692)
(1.20229 0.00349471 0.00194252)
(1.20357 0.00545459 0.00236117)
(1.20333 0.0056445 0.00260158)
(1.20342 0.00506123 0.002379)
(1.20391 0.00559563 0.00251134)
(1.20391 0.00495882 0.00231371)
(1.20373 0.00516659 0.00252181)
(1.20656 0.00805129 0.00268767)
(1.20627 0.00853445 0.00303167)
(1.20608 0.00749983 0.00277569)
(1.20712 0.00814793 0.00277976)
(1.20696 0.00721505 0.00258892)
(1.20658 0.00760829 0.00289188)
(1.21494 0.0103618 0.00232693)
(1.21308 0.00847897 0.00210919)
(1.2119 0.00862295 0.00235239)
(1.2141 0.00745025 0.00203261)
(1.21276 0.00808591 0.00234548)
(1.2137 0.00777049 0.00193278)
(1.19996 -6.16813e-06 6.45205e-06)
(1.19996 -9.94861e-07 6.69782e-06)
(1.2 -1.19075e-05 1.24773e-05)
(1.19996 -3.83692e-06 6.71901e-06)
(1.19996 -6.14796e-06 6.84815e-06)
(1.19994 -1.75043e-06 7.9451e-05)
(1.19994 1.8829e-05 8.05922e-05)
(1.20002 -9.03723e-06 6.79861e-05)
(1.20003 5.74553e-06 8.79784e-05)
(1.19995 6.41348e-06 8.01633e-05)
(1.19994 -1.97879e-06 8.31283e-05)
(1.19981 3.83971e-05 9.52813e-05)
(1.19981 5.44272e-05 9.9132e-05)
(1.20005 3.49723e-05 9.89955e-05)
(1.20006 4.12362e-05 9.99772e-05)
(1.19982 3.97749e-05 9.84051e-05)
(1.19982 3.76542e-05 0.0001027)
(1.20003 6.68126e-05 0.000112876)
(1.20003 8.32643e-05 0.000118103)
(1.20008 6.25501e-05 0.000114353)
(1.20009 7.04709e-05 0.000121765)
(1.20004 6.27193e-05 0.000117197)
(1.20004 6.59074e-05 0.000122289)
(1.20013 0.000105381 0.000151064)
(1.20013 0.000123821 0.000158335)
(1.20013 9.90547e-05 0.000151623)
(1.20015 0.000110705 0.000164461)
(1.20014 9.39186e-05 0.000156716)
(1.20014 0.00010376 0.000163483)
(1.20021 0.000162478 0.000212013)
(1.20021 0.000185675 0.000222056)
(1.20021 0.000153196 0.000211839)
(1.20024 0.000170217 0.000230842)
(1.20023 0.000141047 0.000219613)
(1.20023 0.000160033 0.000228527)
(1.20034 0.000246175 0.000299176)
(1.20034 0.000277346 0.000314503)
(1.20033 0.000231997 0.000299053)
(1.20037 0.000257001 0.000325837)
(1.20036 0.00021059 0.000309694)
(1.20037 0.00024136 0.00032285)
(1.20053 0.00037081 0.000420304)
(1.20053 0.000415153 0.000442861)
(1.20052 0.000349001 0.000420424)
(1.20059 0.000386418 0.000457378)
(1.20057 0.000315057 0.00043452)
(1.20058 0.00036246 0.000453533)
(1.20084 0.000556929 0.000585243)
(1.20083 0.000620783 0.000618472)
(1.20082 0.000523285 0.000586232)
(1.20092 0.00057875 0.00063546)
(1.20089 0.000470579 0.000603389)
(1.2009 0.000541838 0.000631309)
(1.20132 0.000832308 0.000798363)
(1.20131 0.000924846 0.000846775)
(1.20128 0.000780796 0.00080182)
(1.20144 0.000861621 0.000863277)
(1.20139 0.000700276 0.000820048)
(1.20139 0.000805574 0.000860341)
(1.20207 0.0012294 0.00105558)
(1.20205 0.00136294 0.00112533)
(1.202 0.00115181 0.00106389)
(1.20224 0.00126634 0.00113524)
(1.20217 0.00103057 0.00107842)
(1.20216 0.00118249 0.00113606)
(1.20325 0.00178638 0.00133509)
(1.2032 0.00197892 0.00143409)
(1.20312 0.00167163 0.00135317)
(1.20348 0.00182829 0.00142304)
(1.20337 0.00149028 0.00135359)
(1.20334 0.00170588 0.0014341)
(1.20509 0.00250259 0.00155655)
(1.205 0.0027847 0.00169157)
(1.20484 0.00234947 0.00159665)
(1.2054 0.00252863 0.00163278)
(1.20519 0.0020714 0.00156241)
(1.20514 0.00237345 0.00167034)
(1.20783 0.00307874 0.00153954)
(1.2078 0.00347169 0.00169904)
(1.20743 0.00295527 0.00162203)
(1.2082 0.00299195 0.00156475)
(1.20784 0.0025401 0.00152691)
(1.20778 0.00290667 0.00165375)
(1.21085 0.00208156 0.00106623)
(1.21156 0.00274287 0.00114865)
(1.21043 0.00227991 0.00119765)
(1.21106 0.00164945 0.00101251)
(1.21089 0.00197542 0.00102334)
(1.21067 0.00195649 0.00115298)
(1.16695 0.077381 0.0114842)
(1.12139 0.0873074 0.0174904)
(1.15938 0.100054 0.0117738)
(1.19062 0.0810352 0.0154861)
(0.871212 -0.0888525 -0.0131567)
(0.986071 -0.0917636 -0.0021838)
(0.929909 -0.127904 -0.0117487)
(1.25515 -0.0817976 -0.0161105)
(1.19136 0.0601686 0.00768976)
(1.19186 0.0481281 0.00991731)
(1.20171 0.0500105 0.00795958)
(1.19123 0.0642903 0.00954358)
(1.16108 0.0506505 0.0118045)
(1.19389 0.075216 0.00978291)
(1.32619 -0.0535483 0.00121176)
(1.3112 -0.0284355 -0.00518462)
(1.32637 -0.0544632 0.00142139)
(1.35592 -0.0377691 -0.00509625)
(1.32767 -0.0320445 -0.00440494)
(1.19145 0.048849 0.00573703)
(1.16097 0.0519408 0.00609786)
(1.19359 0.0758759 0.00532759)
(1.19104 0.0586704 0.00644643)
(1.31101 -0.0273862 0.00582947)
(1.35646 -0.0361667 0.00610534)
(1.32778 -0.03027 0.00828618)
(1.32552 -0.0525806 0.000983611)
(1.18895 0.0552456 0.00541954)
(1.19062 0.0438223 0.00592581)
(1.19932 0.045718 0.00518472)
(1.1897 0.0562611 0.005332)
(1.15901 0.0461021 0.00616129)
(1.19059 0.0710599 0.00515766)
(1.31778 -0.0521565 -0.000690251)
(1.3044 -0.0269866 -0.00561098)
(1.31881 -0.0521055 -0.000453038)
(1.34784 -0.0346979 -0.00617283)
(1.31944 -0.0302473 -0.00688903)
(1.18988 0.043559 0.0056169)
(1.1583 0.0462602 0.00574643)
(1.18957 0.0707383 0.0048356)
(1.18814 0.0545335 0.00626706)
(1.30337 -0.0267567 0.00542083)
(1.34661 -0.0344136 0.00523673)
(1.31805 -0.0301439 0.00668594)
(1.31661 -0.0522111 -0.000915294)
(1.18466 0.0199636 0.00384327)
(1.17846 0.022127 0.00546168)
(1.18009 0.0259089 0.00528483)
(1.19121 0.019678 0.00512029)
(1.17998 0.054046 0.00763955)
(1.1509 0.064031 0.0139982)
(1.18509 0.0506808 0.0120299)
(1.16895 0.0505279 0.00929033)
(1.19501 0.0155371 0.00510507)
(1.19574 0.0142953 0.00556471)
(1.19685 0.0157874 0.00536928)
(1.19384 0.0170387 0.00511584)
(1.19367 0.0145229 0.00686308)
(1.19456 0.0172527 0.00666096)
(1.19274 0.0368013 0.00740941)
(1.19797 0.0343171 0.00786426)
(1.19194 0.0402023 0.00863635)
(1.18176 0.0332318 0.0112658)
(1.1918 0.0307407 0.00907302)
(0.667322 0.0409926 0.053954)
(0.773944 0.0201506 0.0489343)
(0.650273 0.0122119 0.0919083)
(1.00871 0.0412718 0.116354)
(0.636924 0.00802394 0.0669205)
(1.15727 0.0290236 0.032942)
(1.14686 -0.00898101 0.0334345)
(1.18922 -0.0623083 0.0698632)
(1.13881 -0.0341043 0.0251694)
(1.17816 -0.0210361 0.0399425)
(1.14483 -0.0727849 0.0264974)
(1.16532 -0.00208636 0.0388282)
(1.21879 -0.0308207 0.0846094)
(1.28284 0.0495282 0.0890902)
(1.28489 -0.00749214 0.087891)
(1.18381 0.0167487 0.0770525)
(0.871679 -0.0664112 -0.00292318)
(1.54857 -0.00893525 -0.0112556)
(1.53999 0.0239881 -0.00543715)
(1.28851 0.029345 -0.00341922)
(1.29287 0.0109545 -0.00755925)
(1.27566 -0.00379338 -0.00308636)
(1.21422 0.0171945 0.000763372)
(1.21547 0.0212335 0.000884822)
(1.22008 0.015869 0.000580184)
(1.21934 0.0164834 0.000913866)
(1.22577 0.000614324 -6.58832e-05)
(1.23302 0.00143817 -0.000386518)
(1.23032 0.00521131 8.29557e-05)
(1.23367 0.00180716 -4.39393e-05)
(1.20605 0.0370347 0.00590119)
(1.21261 0.0445803 0.00520524)
(1.22116 0.0500483 0.00505993)
(1.21528 0.0343242 0.00502917)
(1.28292 0.0150996 -0.000772555)
(1.31193 -0.0285543 0.00593169)
(1.31155 -0.000607407 -0.0013575)
(1.31199 -0.000336241 0.00516158)
(1.2855 0.0167894 -0.0011213)
(1.28333 0.0319188 0.000337888)
(1.27198 0.00440933 0.000183721)
(1.2188 0.0149443 0.00191894)
(1.21666 0.0149409 0.00215414)
(1.21667 0.0122262 0.00168963)
(1.21908 0.0155638 0.00187964)
(1.21753 0.0178657 0.00231105)
(1.22188 0.0141633 0.00188759)
(1.23266 0.0027665 0.000653198)
(1.22681 0.00108206 0.000543397)
(1.23309 0.00262552 0.000879323)
(1.234 0.00237696 0.000412433)
(1.2315 0.0059108 0.00103021)
(1.19541 0.014411 0.0043711)
(1.19319 0.014821 0.00499447)
(1.19411 0.0175392 0.00483157)
(1.19552 0.0147596 0.00539254)
(1.1975 0.0348743 0.00498892)
(1.18118 0.0343331 0.0063319)
(1.19287 0.0354796 0.00664365)
(1.19131 0.0313909 0.00563979)
(1.19684 0.0123436 0.00563178)
(1.19735 0.0116721 0.00548842)
(1.19812 0.0130049 0.00530917)
(1.19643 0.0130942 0.00550641)
(1.19542 0.0116831 0.00605731)
(1.19599 0.0141875 0.00585404)
(1.19225 0.0321283 0.00587389)
(1.19717 0.03023 0.00560425)
(1.1925 0.0331272 0.00580995)
(1.18126 0.0289181 0.00659692)
(1.19197 0.0267822 0.00617245)