/*--------------------------------*- C++ -*----------------------------------*\
| =========                 |                                                 |
| \\      /  F ield         | OpenFOAM: The Open Source CFD Toolbox           |
|  \\    /   O peration     | Version:  2012                                  |
|   \\  /    A nd           | Website:  www.openfoam.com                      |
|    \\/     M anipulation  |                                                 |
\*---------------------------------------------------------------------------*/
FoamFile
{
    version     2.0;
    format      ascii;
    class       volScalarField::Internal;
    location    "0.106/fluid";
    object      V0;
}
// * * * * * * * * * * * * * * * * * * * * * * * * * * * * * * * * * * * * * //

dimensions      [0 3 0 0 0 0 0];


value           nonuniform List<scalar> 
16422
(
4.25464e-05
4.25441e-05
4.25386e-05
4.25377e-05
4.25359e-05
4.25302e-05
4.25256e-05
4.25235e-05
4.25213e-05
4.25229e-05
4.2526e-05
4.25301e-05
4.25298e-05
4.25009e-05
4.2399e-05
4.25512e-05
4.25485e-05
4.25444e-05
4.25413e-05
4.25361e-05
4.25338e-05
4.25296e-05
4.25283e-05
4.25273e-05
4.25282e-05
4.25312e-05
4.25327e-05
4.25314e-05
4.25238e-05
4.25246e-05
4.25541e-05
4.25519e-05
4.25474e-05
4.25425e-05
4.25374e-05
4.25352e-05
4.25329e-05
4.25327e-05
4.25322e-05
4.25333e-05
4.25364e-05
4.25403e-05
4.25446e-05
4.25516e-05
4.25657e-05
4.25456e-05
4.25443e-05
4.25386e-05
4.25368e-05
4.25342e-05
4.25295e-05
4.25241e-05
4.25221e-05
4.25212e-05
4.25229e-05
4.25247e-05
4.25298e-05
4.25326e-05
4.25123e-05
4.24365e-05
4.25509e-05
4.25485e-05
4.25435e-05
4.25405e-05
4.25361e-05
4.25315e-05
4.25285e-05
4.2528e-05
4.25274e-05
4.25277e-05
4.25293e-05
4.25307e-05
4.25315e-05
4.2529e-05
4.25304e-05
4.25541e-05
4.25512e-05
4.25464e-05
4.25425e-05
4.25377e-05
4.25333e-05
4.25325e-05
4.25321e-05
4.25312e-05
4.25319e-05
4.25347e-05
4.25377e-05
4.25429e-05
4.25519e-05
4.25668e-05
4.25465e-05
4.25422e-05
4.25392e-05
4.25354e-05
4.25324e-05
4.25257e-05
4.25225e-05
4.25191e-05
4.25207e-05
4.2521e-05
4.2522e-05
4.2525e-05
4.2527e-05
4.2522e-05
4.24545e-05
4.25502e-05
4.25472e-05
4.25436e-05
4.25389e-05
4.25343e-05
4.25292e-05
4.25262e-05
4.25257e-05
4.25264e-05
4.25257e-05
4.25254e-05
4.25269e-05
4.25294e-05
4.25318e-05
4.25397e-05
4.25525e-05
4.25505e-05
4.25465e-05
4.25419e-05
4.25359e-05
4.25315e-05
4.25298e-05
4.25301e-05
4.25302e-05
4.25306e-05
4.25315e-05
4.25348e-05
4.25411e-05
4.25507e-05
4.25661e-05
4.23372e-05
5.31169e-06
4.24331e-05
5.31167e-06
4.24328e-05
5.3115e-06
4.2442e-05
5.31125e-06
4.24512e-05
5.31103e-06
4.2502e-05
4.23953e-05
4.25099e-05
4.24526e-05
5.27679e-06
4.25319e-05
4.25068e-05
4.2506e-05
4.25684e-05
4.24355e-05
4.25117e-05
4.25127e-05
4.25715e-05
4.25128e-05
4.24538e-05
4.2521e-05
4.24643e-05
4.23881e-05
4.23859e-05
4.25101e-05
4.25144e-05
4.25726e-05
4.24459e-05
4.25138e-05
4.2523e-05
4.25784e-05
4.25238e-05
4.24733e-05
4.24009e-05
4.24168e-05
4.25179e-05
4.25275e-05
4.25818e-05
4.2056e-05
4.2227e-05
4.24163e-05
4.23263e-05
4.22237e-05
5.29869e-06
5.31231e-06
5.29789e-06
4.23988e-05
4.24341e-05
4.24324e-05
4.23158e-05
4.21998e-05
4.2324e-05
4.2206e-05
5.31199e-06
5.29697e-06
5.29758e-06
4.23139e-05
4.2198e-05
4.24339e-05
4.23152e-05
4.21986e-05
5.29689e-06
5.31134e-06
5.2969e-06
4.23918e-05
4.23872e-05
4.24368e-05
4.23237e-05
4.22044e-05
4.23183e-05
4.22005e-05
5.31122e-06
5.29745e-06
5.29683e-06
4.2333e-05
4.22106e-05
4.24675e-05
4.23491e-05
4.22223e-05
5.29726e-06
5.31205e-06
5.29919e-06
4.24453e-05
4.24957e-05
4.23788e-05
4.22457e-05
5.31252e-06
5.29934e-06
5.37034e-06
5.28936e-06
5.27095e-06
5.37517e-06
5.29843e-06
5.33958e-06
5.38302e-06
6.3578e-07
5.35669e-06
5.30148e-06
5.23817e-06
5.24995e-06
5.23857e-06
5.25025e-06
5.30021e-06
5.30045e-06
5.23951e-06
5.25056e-06
5.30269e-06
5.23867e-06
5.24996e-06
5.30163e-06
5.23872e-06
5.25191e-06
5.23832e-06
5.25102e-06
5.30276e-06
5.30134e-06
5.23803e-06
5.25039e-06
5.30096e-06
5.23816e-06
5.25081e-06
6.60608e-07
7.20576e-07
6.74415e-07
7.01022e-07
5.2955e-06
5.24099e-06
5.22282e-06
5.25159e-06
5.22921e-06
5.2926e-06
5.29052e-06
5.08421e-06
5.26285e-06
5.24624e-06
5.2418e-06
5.26221e-06
6.56045e-07
6.57049e-07
6.57573e-07
6.55848e-07
6.52423e-07
6.70482e-07
6.71462e-07
6.5175e-07
6.52263e-07
6.71142e-07
6.52078e-07
6.71314e-07
6.56216e-07
6.58697e-07
6.57688e-07
6.55507e-07
5.30852e-06
5.26418e-06
5.25995e-06
5.32267e-06
5.24825e-06
5.2538e-06
5.3066e-06
5.24033e-06
5.25047e-06
5.30176e-06
5.24313e-06
5.25217e-06
6.60626e-07
6.57882e-07
6.71292e-07
6.7186e-07
6.74003e-07
6.71672e-07
6.58096e-07
5.28824e-06
5.23567e-06
5.22033e-06
5.28981e-06
5.23279e-06
5.21938e-06
5.28778e-06
5.23119e-06
5.21878e-06
5.2321e-06
5.21897e-06
5.28718e-06
6.55804e-07
6.57041e-07
6.55828e-07
6.56941e-07
6.52033e-07
6.71105e-07
6.71112e-07
6.5202e-07
6.52036e-07
6.71131e-07
6.52064e-07
6.7111e-07
6.55801e-07
6.56923e-07
6.56954e-07
6.55789e-07
6.71404e-07
6.71213e-07
6.71164e-07
6.71267e-07
5.28723e-06
5.23109e-06
5.21887e-06
5.23122e-06
5.21876e-06
5.28727e-06
5.2871e-06
5.23133e-06
5.21877e-06
5.23098e-06
5.28727e-06
5.21876e-06
6.55782e-07
6.56927e-07
6.56945e-07
6.55789e-07
6.52018e-07
6.71105e-07
6.52019e-07
6.71096e-07
6.55786e-07
6.5692e-07
6.55784e-07
6.56941e-07
6.52014e-07
6.71085e-07
6.52018e-07
6.71092e-07
5.30025e-06
5.23811e-06
5.2501e-06
5.30092e-06
5.23793e-06
5.24996e-06
5.30078e-06
5.23798e-06
5.25024e-06
5.30064e-06
5.238e-06
5.25011e-06
5.28755e-06
5.2313e-06
5.21897e-06
5.28735e-06
5.23133e-06
5.21906e-06
5.28751e-06
5.23163e-06
5.21917e-06
5.23143e-06
5.21904e-06
5.28795e-06
6.55795e-07
6.5692e-07
6.5579e-07
6.5693e-07
6.52013e-07
6.71079e-07
6.71069e-07
6.52027e-07
6.5202e-07
6.7108e-07
6.52019e-07
6.71082e-07
6.55783e-07
6.56937e-07
6.56927e-07
6.55804e-07
5.28851e-06
5.23322e-06
5.21987e-06
5.23232e-06
5.21944e-06
5.28988e-06
5.2886e-06
5.23171e-06
5.21918e-06
5.23218e-06
5.28785e-06
5.21937e-06
6.55802e-07
6.57004e-07
6.5695e-07
6.55842e-07
6.52035e-07
6.71071e-07
6.52018e-07
6.71101e-07
6.55814e-07
6.56912e-07
6.5579e-07
6.56967e-07
6.52022e-07
6.71101e-07
6.52064e-07
6.71082e-07
5.30566e-06
5.23917e-06
5.25228e-06
5.30312e-06
5.24036e-06
5.25417e-06
5.3071e-06
5.24202e-06
5.25556e-06
5.29249e-06
5.23347e-06
5.22006e-06
5.28988e-06
5.23526e-06
5.22086e-06
5.2933e-06
5.2365e-06
5.22189e-06
6.55929e-07
6.56958e-07
6.55824e-07
6.57113e-07
6.5216e-07
6.71186e-07
6.52161e-07
6.71084e-07
6.5205e-07
6.71195e-07
6.55925e-07
6.57045e-07
6.64627e-07
6.91151e-07
6.43456e-07
6.92159e-07
6.44359e-07
6.62425e-07
8.76944e-08
9.18225e-08
1.05255e-07
8.0075e-08
1.00999e-07
7.62325e-08
7.63036e-08
6.61099e-07
6.90104e-07
6.42895e-07
6.90122e-07
6.42853e-07
6.61113e-07
6.61071e-07
6.90202e-07
6.42882e-07
6.61218e-07
6.9017e-07
6.42819e-07
7.62232e-08
7.62214e-08
7.62202e-08
7.62199e-08
6.61167e-07
6.89893e-07
6.42984e-07
6.89883e-07
6.42899e-07
6.61283e-07
6.61111e-07
6.89987e-07
6.42866e-07
6.61152e-07
6.89963e-07
6.4284e-07
7.62221e-08
7.62227e-08
7.62218e-08
7.62221e-08
8.3098e-08
7.92173e-08
7.94283e-08
8.30323e-08
6.69271e-08
9.17003e-08
7.14594e-08
7.35291e-08
7.35937e-08
7.14022e-08
7.72178e-08
8.55762e-08
6.58733e-07
6.36425e-07
6.82959e-07
6.36948e-07
6.831e-07
6.58312e-07
6.62424e-07
6.91518e-07
7.09498e-07
6.38662e-07
6.87085e-07
6.7739e-07
8.29956e-08
7.90876e-08
7.91029e-08
8.29943e-08
7.14615e-08
7.52059e-08
7.35899e-08
7.31262e-08
7.13916e-08
7.35224e-08
7.13912e-08
7.35229e-08
8.30981e-08
7.967e-08
7.90657e-08
8.52659e-08
6.61565e-07
6.90877e-07
6.43386e-07
6.62631e-07
6.90542e-07
6.43013e-07
6.61227e-07
6.90197e-07
6.42841e-07
6.61118e-07
6.90227e-07
6.42861e-07
8.30223e-08
7.92594e-08
8.30479e-08
7.91855e-08
7.13947e-08
7.35213e-08
7.35249e-08
7.1391e-08
7.1396e-08
7.35438e-08
7.14149e-08
7.35246e-08
8.30174e-08
7.91649e-08
7.91759e-08
8.3012e-08
6.58074e-07
6.36399e-07
6.82918e-07
6.58289e-07
6.36138e-07
6.82871e-07
6.58008e-07
6.36058e-07
6.82825e-07
6.36046e-07
6.82821e-07
6.58018e-07
8.29945e-08
7.90918e-08
8.29947e-08
7.90866e-08
7.13915e-08
7.35205e-08
7.35222e-08
7.13898e-08
7.13911e-08
7.35225e-08
7.13912e-08
7.35223e-08
8.29948e-08
7.90847e-08
7.90851e-08
8.29936e-08
7.86129e-08
7.63075e-08
7.62214e-08
7.62219e-08
7.62206e-08
7.6225e-08
7.62479e-08
7.62255e-08
7.62201e-08
7.62218e-08
7.62216e-08
7.62214e-08
8.30097e-08
7.9161e-08
7.91632e-08
8.30096e-08
7.13906e-08
7.35239e-08
7.3522e-08
7.13931e-08
8.30117e-08
7.91703e-08
7.91627e-08
8.30155e-08
7.1392e-08
7.35213e-08
7.3522e-08
7.1392e-08
6.58013e-07
6.3606e-07
6.82833e-07
6.36025e-07
6.82805e-07
6.58058e-07
6.57985e-07
6.3609e-07
6.82825e-07
6.36016e-07
6.58044e-07
6.82815e-07
8.29951e-08
7.90854e-08
7.90842e-08
8.29948e-08
7.13915e-08
7.35222e-08
7.13914e-08
7.35221e-08
8.2995e-08
7.90852e-08
8.29949e-08
7.90842e-08
7.13914e-08
7.3522e-08
7.13914e-08
7.35221e-08
6.61062e-07
6.90088e-07
6.4289e-07
6.61144e-07
6.90066e-07
6.42802e-07
6.61093e-07
6.90007e-07
6.42864e-07
6.61148e-07
6.90007e-07
6.42819e-07
8.30095e-08
7.91626e-08
8.30102e-08
7.91607e-08
7.13925e-08
7.35234e-08
7.3523e-08
7.13926e-08
7.13913e-08
7.3522e-08
7.1392e-08
7.35214e-08
8.30093e-08
7.91597e-08
7.91593e-08
8.30095e-08
6.58043e-07
6.36095e-07
6.8284e-07
6.58074e-07
6.36076e-07
6.82832e-07
6.58065e-07
6.36169e-07
6.82786e-07
6.36104e-07
6.82783e-07
6.58127e-07
8.2995e-08
7.90845e-08
8.29948e-08
7.90846e-08
7.1391e-08
7.35219e-08
7.35215e-08
7.13913e-08
7.13914e-08
7.3522e-08
7.13914e-08
7.35219e-08
8.29939e-08
7.90834e-08
7.90813e-08
8.29949e-08
7.62218e-08
7.62218e-08
7.62215e-08
7.62216e-08
7.62226e-08
7.62222e-08
7.6221e-08
7.62204e-08
7.62214e-08
7.6221e-08
7.62216e-08
7.62215e-08
8.30057e-08
7.9154e-08
7.9152e-08
8.30049e-08
7.13926e-08
7.35234e-08
7.35235e-08
7.13925e-08
8.30087e-08
7.91593e-08
7.91585e-08
8.30089e-08
7.13914e-08
7.3522e-08
7.35227e-08
7.13918e-08
6.58157e-07
6.36281e-07
6.82697e-07
6.36185e-07
6.82692e-07
6.58264e-07
6.58107e-07
6.3617e-07
6.82772e-07
6.36135e-07
6.58122e-07
6.82755e-07
8.29946e-08
7.90802e-08
7.90773e-08
8.29952e-08
7.13913e-08
7.35224e-08
7.13914e-08
7.35224e-08
8.29947e-08
7.90808e-08
8.29951e-08
7.90802e-08
7.13914e-08
7.35222e-08
7.13912e-08
7.35224e-08
6.61292e-07
6.89874e-07
6.42979e-07
6.61263e-07
6.89864e-07
6.4299e-07
8.30046e-08
7.91517e-08
8.30029e-08
7.91544e-08
7.13919e-08
7.35205e-08
7.13906e-08
7.35217e-08
6.58268e-07
6.36272e-07
6.82674e-07
6.58233e-07
6.36267e-07
6.82662e-07
8.29956e-08
7.90767e-08
8.29942e-08
7.9079e-08
7.13917e-08
7.35214e-08
7.13906e-08
7.35225e-08
7.62213e-08
7.62214e-08
7.62211e-08
7.62213e-08
7.62202e-08
7.62215e-08
7.62204e-08
7.62217e-08
6.66077e-07
7.02105e-07
6.49845e-07
6.73783e-07
6.94292e-07
6.45526e-07
7.0959e-07
7.19456e-07
6.59037e-07
6.8555e-07
7.56641e-07
6.81367e-07
8.59267e-08
1.02645e-07
1.09618e-07
7.8088e-08
8.62897e-08
7.71878e-08
7.62802e-08
6.61071e-07
6.90162e-07
6.42882e-07
6.61171e-07
6.90135e-07
6.42837e-07
6.61129e-07
6.90155e-07
6.42856e-07
6.61104e-07
6.90167e-07
6.42841e-07
7.62204e-08
7.62218e-08
7.62211e-08
7.62196e-08
6.61172e-07
6.89924e-07
6.42909e-07
6.61184e-07
6.89898e-07
6.42898e-07
6.6112e-07
6.89949e-07
6.42908e-07
6.61191e-07
6.89951e-07
6.42845e-07
7.62221e-08
7.62221e-08
7.62219e-08
7.62222e-08
7.48765e-08
7.09704e-08
7.10122e-08
7.48212e-08
8.30762e-08
8.08102e-08
7.93791e-08
8.3664e-08
7.48556e-08
7.13639e-08
7.09957e-08
7.529e-08
7.31549e-08
9.21799e-08
7.39146e-08
7.5425e-08
8.3171e-08
7.29588e-08
6.25705e-08
5.62884e-08
7.13735e-08
7.18895e-08
7.26781e-08
6.69915e-08
7.03811e-08
6.70618e-08
7.13952e-08
7.10591e-08
7.11035e-08
7.13435e-08
7.14405e-08
7.44943e-08
7.35727e-08
7.22266e-08
7.13743e-08
7.15157e-08
7.10879e-08
7.20645e-08
8.46675e-08
8.14984e-08
9.07332e-08
8.41757e-08
7.44077e-08
8.68896e-08
6.53104e-08
5.6128e-08
7.43778e-08
7.16735e-08
7.56289e-08
6.66916e-08
7.19858e-08
6.71812e-08
6.59142e-07
6.39835e-07
6.83981e-07
6.37563e-07
6.60502e-07
6.83352e-07
6.64065e-07
6.44151e-07
6.85042e-07
6.49894e-07
6.62325e-07
6.86182e-07
7.48039e-08
7.09679e-08
7.0968e-08
7.48024e-08
8.29959e-08
7.91477e-08
7.90982e-08
8.30003e-08
7.48042e-08
7.09707e-08
7.09684e-08
7.4808e-08
7.14219e-08
7.35278e-08
7.13955e-08
7.35585e-08
7.14067e-08
7.29179e-08
7.11299e-08
7.31199e-08
7.13652e-08
7.10582e-08
7.13398e-08
7.10848e-08
7.13361e-08
7.10544e-08
7.10545e-08
7.13362e-08
7.13926e-08
7.35257e-08
7.13942e-08
7.3523e-08
7.13367e-08
7.10572e-08
7.10546e-08
7.13386e-08
8.30418e-08
7.91424e-08
7.91291e-08
8.30036e-08
7.48851e-08
7.27829e-08
7.1039e-08
7.67309e-08
7.48425e-08
7.09718e-08
7.481e-08
7.09969e-08
6.61703e-07
6.90329e-07
6.42892e-07
6.61271e-07
6.90458e-07
6.43027e-07
6.61128e-07
6.90307e-07
6.42943e-07
6.61429e-07
6.90232e-07
6.42823e-07
7.48134e-08
7.09809e-08
7.48344e-08
7.09648e-08
8.30307e-08
7.91743e-08
7.92079e-08
8.30177e-08
7.48205e-08
7.0962e-08
7.09703e-08
7.48097e-08
7.13922e-08
7.35261e-08
7.13961e-08
7.35232e-08
7.13379e-08
7.1048e-08
7.10513e-08
7.13344e-08
7.13359e-08
7.10526e-08
7.13396e-08
7.10494e-08
7.1339e-08
7.10694e-08
7.13565e-08
7.10526e-08
7.14024e-08
7.35227e-08
7.13937e-08
7.35319e-08
7.1345e-08
7.10499e-08
7.10581e-08
7.13373e-08
8.30144e-08
7.91867e-08
7.91668e-08
8.30212e-08
7.48121e-08
7.09602e-08
7.09642e-08
7.48076e-08
7.48088e-08
7.09653e-08
7.48135e-08
7.09627e-08
6.58109e-07
6.3609e-07
6.82843e-07
6.36161e-07
6.58043e-07
6.82864e-07
6.57981e-07
6.36136e-07
6.8284e-07
6.3602e-07
6.58081e-07
6.82821e-07
7.48025e-08
7.0968e-08
7.48028e-08
7.0967e-08
8.29948e-08
7.90847e-08
7.90888e-08
8.2994e-08
7.48027e-08
7.09674e-08
7.09672e-08
7.48022e-08
7.13914e-08
7.35206e-08
7.13898e-08
7.35222e-08
7.13364e-08
7.10527e-08
7.10542e-08
7.13349e-08
7.13364e-08
7.10526e-08
7.13348e-08
7.10542e-08
7.13361e-08
7.10545e-08
7.13362e-08
7.10539e-08
7.13912e-08
7.35222e-08
7.13914e-08
7.35225e-08
7.13362e-08
7.10542e-08
7.1054e-08
7.13364e-08
8.29949e-08
7.90871e-08
7.90845e-08
8.2994e-08
7.48025e-08
7.09659e-08
7.09674e-08
7.48009e-08
7.48026e-08
7.09658e-08
7.48013e-08
7.09674e-08
7.62277e-08
7.6263e-08
7.62254e-08
7.6222e-08
7.62265e-08
7.62223e-08
7.62235e-08
7.62331e-08
7.622e-08
7.62217e-08
7.62217e-08
7.62216e-08
8.301e-08
7.91657e-08
7.91619e-08
8.30107e-08
7.48068e-08
7.09596e-08
7.09608e-08
7.48067e-08
7.48065e-08
7.09613e-08
7.48073e-08
7.09605e-08
7.13345e-08
7.105e-08
7.13364e-08
7.10484e-08
7.13918e-08
7.35221e-08
7.35228e-08
7.13912e-08
7.13357e-08
7.10483e-08
7.10496e-08
7.1335e-08
8.30128e-08
7.91632e-08
7.91675e-08
8.30095e-08
7.48086e-08
7.0963e-08
7.48108e-08
7.0961e-08
7.48087e-08
7.0961e-08
7.48067e-08
7.09622e-08
7.13359e-08
7.1048e-08
7.10484e-08
7.13361e-08
7.13911e-08
7.35233e-08
7.35217e-08
7.1392e-08
7.1335e-08
7.10486e-08
7.1048e-08
7.13359e-08
6.58006e-07
6.36083e-07
6.8282e-07
6.36021e-07
6.58052e-07
6.82811e-07
6.58002e-07
6.36068e-07
6.8282e-07
6.36034e-07
6.58028e-07
6.8281e-07
8.29952e-08
7.90851e-08
7.90841e-08
8.2995e-08
7.48027e-08
7.09676e-08
7.09675e-08
7.48029e-08
7.48027e-08
7.09675e-08
7.48026e-08
7.09675e-08
7.13365e-08
7.10542e-08
7.13365e-08
7.10543e-08
7.13915e-08
7.35222e-08
7.13914e-08
7.35222e-08
7.13365e-08
7.10543e-08
7.10543e-08
7.13365e-08
8.29949e-08
7.90854e-08
7.90843e-08
8.29951e-08
7.48026e-08
7.09674e-08
7.48025e-08
7.09675e-08
7.48025e-08
7.09675e-08
7.48027e-08
7.09675e-08
7.13365e-08
7.10543e-08
7.10543e-08
7.13364e-08
7.13914e-08
7.35222e-08
7.13914e-08
7.35221e-08
7.13365e-08
7.10543e-08
7.10543e-08
7.13365e-08
6.61083e-07
6.90056e-07
6.42845e-07
6.61117e-07
6.90057e-07
6.42805e-07
6.61083e-07
6.90045e-07
6.42856e-07
6.6114e-07
6.90019e-07
6.42813e-07
7.48063e-08
7.09603e-08
7.48074e-08
7.09592e-08
8.30085e-08
7.9161e-08
7.91618e-08
8.30098e-08
7.48057e-08
7.09606e-08
7.09596e-08
7.48064e-08
7.13914e-08
7.3522e-08
7.13921e-08
7.35222e-08
7.13356e-08
7.10486e-08
7.10481e-08
7.13357e-08
7.13345e-08
7.10476e-08
7.13353e-08
7.10466e-08
7.13344e-08
7.10488e-08
7.13361e-08
7.10472e-08
7.13913e-08
7.35221e-08
7.13921e-08
7.35209e-08
7.13344e-08
7.10477e-08
7.10472e-08
7.13353e-08
8.30086e-08
7.91606e-08
7.91594e-08
8.3011e-08
7.48061e-08
7.09611e-08
7.0961e-08
7.48059e-08
7.48053e-08
7.09605e-08
7.48071e-08
7.09602e-08
6.58046e-07
6.36144e-07
6.82827e-07
6.36086e-07
6.581e-07
6.82819e-07
6.58069e-07
6.36154e-07
6.82815e-07
6.36104e-07
6.58096e-07
6.82797e-07
7.48029e-08
7.09676e-08
7.48029e-08
7.09676e-08
8.29931e-08
7.90844e-08
7.90821e-08
8.29951e-08
7.48012e-08
7.09676e-08
7.0966e-08
7.48029e-08
7.13901e-08
7.35219e-08
7.13914e-08
7.35207e-08
7.13361e-08
7.10548e-08
7.1054e-08
7.13365e-08
7.13353e-08
7.10543e-08
7.13365e-08
7.10532e-08
7.13364e-08
7.10543e-08
7.13365e-08
7.10543e-08
7.13898e-08
7.35219e-08
7.13913e-08
7.35203e-08
7.13349e-08
7.10543e-08
7.10527e-08
7.13364e-08
8.29941e-08
7.90836e-08
7.90828e-08
8.2995e-08
7.48024e-08
7.0968e-08
7.09672e-08
7.48029e-08
7.48016e-08
7.09676e-08
7.48029e-08
7.09664e-08
7.62217e-08
7.62218e-08
7.62216e-08
7.62216e-08
7.62211e-08
7.62214e-08
7.62211e-08
7.622e-08
7.62215e-08
7.62201e-08
7.62215e-08
7.62199e-08
8.30059e-08
7.91558e-08
7.91539e-08
8.30081e-08
7.48076e-08
7.09666e-08
7.0965e-08
7.48071e-08
7.48075e-08
7.0964e-08
7.48065e-08
7.09647e-08
7.13359e-08
7.10486e-08
7.13357e-08
7.10489e-08
7.13925e-08
7.35232e-08
7.35233e-08
7.13916e-08
7.13359e-08
7.10502e-08
7.1049e-08
7.1335e-08
8.30092e-08
7.91567e-08
7.91567e-08
8.30089e-08
7.48056e-08
7.0961e-08
7.48053e-08
7.09614e-08
7.48064e-08
7.09632e-08
7.48065e-08
7.09616e-08
7.13356e-08
7.10539e-08
7.1052e-08
7.13364e-08
7.13915e-08
7.3523e-08
7.35228e-08
7.13915e-08
7.13357e-08
7.10507e-08
7.10518e-08
7.13355e-08
6.58165e-07
6.36208e-07
6.82722e-07
6.36181e-07
6.58167e-07
6.82707e-07
6.58099e-07
6.36212e-07
6.82741e-07
6.36136e-07
6.58179e-07
6.82736e-07
8.29957e-08
7.90791e-08
7.90797e-08
8.29953e-08
7.48024e-08
7.09685e-08
7.09681e-08
7.48029e-08
7.48032e-08
7.09681e-08
7.48028e-08
7.0968e-08
7.13365e-08
7.10548e-08
7.13365e-08
7.10549e-08
7.13913e-08
7.35225e-08
7.13912e-08
7.35224e-08
7.13366e-08
7.10548e-08
7.10549e-08
7.13365e-08
8.29947e-08
7.90805e-08
7.90788e-08
8.29953e-08
7.48028e-08
7.0968e-08
7.48029e-08
7.0968e-08
7.48023e-08
7.09681e-08
7.48028e-08
7.0968e-08
7.13365e-08
7.10549e-08
7.10549e-08
7.13364e-08
7.13913e-08
7.35225e-08
7.13913e-08
7.35224e-08
7.13365e-08
7.10548e-08
7.10548e-08
7.13366e-08
6.61278e-07
6.89884e-07
6.4312e-07
6.61464e-07
6.89854e-07
6.42985e-07
6.61575e-07
6.89876e-07
6.43105e-07
6.61428e-07
6.89904e-07
6.43181e-07
7.48075e-08
7.09654e-08
7.48058e-08
7.09665e-08
8.30033e-08
7.9159e-08
7.91509e-08
8.30036e-08
7.48063e-08
7.09668e-08
7.09665e-08
7.48067e-08
7.13936e-08
7.35226e-08
7.13914e-08
7.35237e-08
7.13376e-08
7.10539e-08
7.13365e-08
7.10544e-08
7.13364e-08
7.10526e-08
7.13351e-08
7.10539e-08
7.13918e-08
7.35218e-08
7.1391e-08
7.35215e-08
7.13364e-08
7.10531e-08
7.10538e-08
7.13357e-08
8.3006e-08
7.9154e-08
7.9162e-08
8.30032e-08
7.48083e-08
7.09674e-08
7.48063e-08
7.09684e-08
6.58222e-07
6.36395e-07
6.82647e-07
6.36262e-07
6.58379e-07
6.82636e-07
6.58441e-07
6.36361e-07
6.82618e-07
6.36414e-07
6.58299e-07
6.8264e-07
7.48034e-08
7.09678e-08
7.48021e-08
7.09688e-08
8.29942e-08
7.90803e-08
7.90748e-08
8.29955e-08
7.48026e-08
7.09677e-08
7.09681e-08
7.48035e-08
7.13931e-08
7.35227e-08
7.13928e-08
7.35239e-08
7.13373e-08
7.1055e-08
7.1337e-08
7.10568e-08
7.13368e-08
7.10542e-08
7.13357e-08
7.10553e-08
7.1391e-08
7.35217e-08
7.13914e-08
7.35218e-08
7.13361e-08
7.10541e-08
7.10546e-08
7.13361e-08
8.29983e-08
7.90736e-08
7.90814e-08
8.29955e-08
7.48057e-08
7.09685e-08
7.48035e-08
7.09706e-08
7.62212e-08
7.62213e-08
7.62212e-08
7.62212e-08
7.62218e-08
7.62233e-08
7.62207e-08
7.62213e-08
7.62217e-08
7.62234e-08
7.62208e-08
7.62209e-08
5.25669e-06
5.31727e-06
5.28727e-06
5.31268e-06
5.28818e-06
5.32091e-06
5.25402e-06
5.25355e-06
5.31176e-06
5.31825e-06
5.28667e-06
5.28681e-06
5.31832e-06
5.25342e-06
5.25329e-06
5.31814e-06
5.28649e-06
5.3114e-06
5.28645e-06
5.25332e-06
5.31806e-06
5.25322e-06
5.31118e-06
5.31778e-06
5.28666e-06
5.28642e-06
5.3178e-06
5.25328e-06
5.25351e-06
5.31778e-06
5.28655e-06
5.3113e-06
5.28701e-06
5.25333e-06
5.31792e-06
5.25876e-06
5.31675e-06
5.2928e-06
5.32298e-06
4.24595e-05
4.25084e-05
4.2505e-05
4.24863e-05
9.67288e-08
5.46359e-08
7.72124e-08
5.46385e-08
7.72227e-08
9.66863e-08
5.33714e-06
5.29046e-06
5.30413e-06
5.23099e-06
5.31599e-06
5.30427e-06
5.28065e-06
4.24321e-05
4.25127e-05
4.24389e-05
4.24794e-05
4.25488e-05
4.25518e-05
4.24762e-05
4.25128e-05
4.24373e-05
4.24382e-05
4.24812e-05
4.25538e-05
4.25534e-05
4.2482e-05
9.66628e-08
5.46215e-08
7.72325e-08
5.46246e-08
7.72201e-08
9.66678e-08
9.66677e-08
5.46368e-08
7.72162e-08
9.66805e-08
5.46353e-08
7.72106e-08
4.24361e-05
4.25099e-05
4.24363e-05
4.2483e-05
4.2554e-05
4.24824e-05
4.25545e-05
4.25112e-05
4.24422e-05
4.24381e-05
4.24853e-05
4.25591e-05
4.25562e-05
4.24894e-05
9.66222e-08
5.45841e-08
7.71609e-08
5.45842e-08
7.71552e-08
9.66291e-08
9.6638e-08
5.46028e-08
7.71736e-08
9.665e-08
5.46008e-08
7.71682e-08
4.24483e-05
4.25279e-05
4.246e-05
4.25052e-05
4.25636e-05
4.24954e-05
4.25721e-05
4.25504e-05
4.24834e-05
4.25213e-05
4.25871e-05
9.5245e-08
7.36187e-08
5.2481e-08
7.36228e-08
5.24815e-08
9.52379e-08
1.06259e-07
9.3414e-08
5.41368e-08
9.71947e-08
5.33662e-08
1.07151e-07
5.27707e-06
5.2887e-06
5.2989e-06
5.29281e-06
5.28911e-06
5.29292e-06
5.275e-06
5.25568e-06
5.31264e-06
5.31923e-06
5.2875e-06
5.28797e-06
5.25459e-06
5.32019e-06
5.27566e-06
5.28893e-06
5.29864e-06
5.28808e-06
5.28869e-06
5.29077e-06
5.27435e-06
9.6676e-08
5.46384e-08
7.72224e-08
9.6721e-08
5.46349e-08
7.7208e-08
9.66711e-08
5.46352e-08
7.72143e-08
9.66747e-08
5.46359e-08
7.72108e-08
9.52295e-08
7.36264e-08
5.24816e-08
9.52478e-08
7.36108e-08
5.24803e-08
9.52282e-08
7.36123e-08
5.24791e-08
7.36075e-08
5.2479e-08
9.5234e-08
5.25369e-06
5.31184e-06
5.31867e-06
5.28711e-06
5.28693e-06
5.25397e-06
5.31841e-06
5.2731e-06
5.28712e-06
5.29719e-06
5.28708e-06
5.28728e-06
5.28727e-06
5.27296e-06
5.27327e-06
5.28792e-06
5.28763e-06
5.2972e-06
5.2874e-06
5.27362e-06
5.28745e-06
9.52247e-08
7.35886e-08
5.2486e-08
7.35897e-08
5.24815e-08
9.52335e-08
9.52251e-08
7.36155e-08
5.24796e-08
7.36067e-08
9.52359e-08
5.24784e-08
5.27282e-06
5.28695e-06
5.28693e-06
5.29681e-06
5.28691e-06
5.27284e-06
5.28691e-06
5.25325e-06
5.31129e-06
5.31797e-06
5.28645e-06
5.28637e-06
5.25327e-06
5.31801e-06
5.27279e-06
5.28691e-06
5.29681e-06
5.28693e-06
5.28686e-06
5.28692e-06
5.2728e-06
9.66556e-08
5.46198e-08
7.72355e-08
9.66681e-08
5.46177e-08
7.72053e-08
9.66427e-08
5.46038e-08
7.71747e-08
9.66501e-08
5.4604e-08
7.71705e-08
9.52275e-08
7.35878e-08
5.24867e-08
9.52351e-08
7.36008e-08
5.24858e-08
9.52199e-08
7.36217e-08
5.24752e-08
7.36148e-08
5.24754e-08
9.52259e-08
5.25324e-06
5.31132e-06
5.31791e-06
5.28632e-06
5.28652e-06
5.25323e-06
5.31787e-06
5.2729e-06
5.28721e-06
5.29705e-06
5.28717e-06
5.28696e-06
5.28709e-06
5.27294e-06
5.27288e-06
5.28694e-06
5.28683e-06
5.29711e-06
5.28706e-06
5.27281e-06
5.28703e-06
9.51983e-08
7.36042e-08
5.24562e-08
7.35968e-08
5.24566e-08
9.52049e-08
9.52157e-08
7.36205e-08
5.24741e-08
7.36122e-08
9.52264e-08
5.24725e-08
5.27324e-06
5.28708e-06
5.28717e-06
5.29799e-06
5.2876e-06
5.27299e-06
5.28745e-06
5.25364e-06
5.31123e-06
5.31843e-06
5.28785e-06
5.28695e-06
5.2541e-06
5.31803e-06
5.27342e-06
5.2882e-06
5.29784e-06
5.28848e-06
5.28754e-06
5.28768e-06
5.27386e-06
9.6617e-08
5.45822e-08
7.71578e-08
9.66279e-08
5.45807e-08
7.71526e-08
9.51925e-08
7.3601e-08
5.24539e-08
9.52035e-08
7.35932e-08
5.24523e-08
5.25614e-06
5.31459e-06
5.31913e-06
5.28829e-06
5.29044e-06
5.25478e-06
5.3205e-06
5.27862e-06
5.30354e-06
5.29341e-06
5.29259e-06
5.27595e-06
5.28883e-06
5.2889e-06
5.30208e-06
5.29107e-06
5.27454e-06
5.29034e-06
9.69434e-08
5.49504e-08
7.75623e-08
9.75743e-08
5.47426e-08
7.73371e-08
9.95213e-08
5.53591e-08
7.77754e-08
9.79049e-08
5.62053e-08
7.84059e-08
6.72028e-07
6.20838e-07
6.51844e-07
6.4419e-07
6.64145e-07
6.40399e-07
7.29067e-08
6.86168e-07
6.87261e-07
6.83516e-07
6.96824e-07
6.66794e-07
6.50425e-07
6.66442e-07
7.61806e-08
9.66655e-08
5.46339e-08
7.7217e-08
9.66777e-08
5.46322e-08
7.72103e-08
9.66684e-08
5.46349e-08
7.72155e-08
9.6675e-08
5.4634e-08
7.72104e-08
9.66268e-08
5.4593e-08
7.71655e-08
9.66394e-08
5.45898e-08
7.71591e-08
9.66331e-08
5.45944e-08
7.71668e-08
9.66394e-08
5.45947e-08
7.7162e-08
6.74373e-07
6.60082e-07
6.69564e-07
6.55847e-07
6.79655e-07
6.72191e-07
6.46996e-07
6.6465e-07
6.65467e-07
6.49082e-07
6.68749e-07
6.70539e-07
6.75192e-07
6.81687e-07
6.67627e-07
6.62642e-07
6.52867e-07
6.71648e-07
6.82829e-07
6.72209e-07
6.64616e-07
6.52921e-07
6.6753e-07
6.54063e-07
6.70905e-07
7.00548e-07
6.638e-07
6.76158e-07
6.74744e-07
7.50244e-07
7.26949e-07
7.93899e-07
6.99851e-07
6.53205e-07
6.54146e-07
6.49337e-07
6.60098e-07
6.61527e-07
6.80718e-07
6.78879e-07
6.64092e-07
6.82523e-07
6.68337e-07
6.59876e-07
6.64799e-07
6.9714e-07
6.83666e-07
6.86186e-07
6.74442e-07
6.72746e-07
6.50715e-07
6.46239e-07
6.4742e-07
6.4933e-07
7.02354e-07
6.68024e-07
6.90798e-07
6.74554e-07
7.23379e-07
6.82983e-07
7.15176e-07
7.0024e-07
9.52982e-08
7.37632e-08
5.2509e-08
7.36567e-08
9.54163e-08
5.24939e-08
9.56479e-08
7.38191e-08
5.25209e-08
7.40901e-08
9.5448e-08
5.25332e-08
6.69402e-07
6.51644e-07
6.62211e-07
6.5593e-07
6.5155e-07
6.62077e-07
6.69514e-07
6.68443e-07
6.43599e-07
6.57205e-07
6.6235e-07
6.43678e-07
6.62413e-07
6.68401e-07
6.68515e-07
6.62664e-07
6.57252e-07
6.44021e-07
6.43785e-07
6.62486e-07
6.68665e-07
6.69348e-07
6.55878e-07
6.51479e-07
6.61963e-07
6.51506e-07
6.62013e-07
6.69317e-07
6.48497e-07
6.45099e-07
6.54725e-07
6.52655e-07
6.54932e-07
6.48059e-07
6.45552e-07
6.5953e-07
6.78174e-07
6.71622e-07
6.60097e-07
6.61308e-07
6.80196e-07
6.57674e-07
6.58851e-07
6.61145e-07
6.71648e-07
6.79161e-07
6.61335e-07
6.5842e-07
6.79604e-07
6.49319e-07
6.52749e-07
6.53957e-07
6.45253e-07
6.54987e-07
6.4644e-07
6.47933e-07
6.47791e-07
6.44908e-07
6.5216e-07
6.54574e-07
6.44822e-07
6.47875e-07
6.54475e-07
6.5811e-07
6.78814e-07
6.60831e-07
6.71165e-07
6.6086e-07
6.58089e-07
6.78835e-07
6.4775e-07
6.52113e-07
6.44754e-07
6.54405e-07
6.44779e-07
6.54431e-07
6.47726e-07
6.58147e-07
6.60999e-07
6.78963e-07
6.71214e-07
6.58232e-07
6.60906e-07
6.78874e-07
6.70244e-07
6.51846e-07
6.62404e-07
6.5646e-07
6.69743e-07
6.52308e-07
6.6269e-07
6.70658e-07
6.46627e-07
6.58349e-07
6.6337e-07
6.45483e-07
6.63588e-07
6.70787e-07
6.69469e-07
6.62873e-07
6.44311e-07
6.58106e-07
6.44692e-07
6.68925e-07
6.63233e-07
6.71072e-07
6.56544e-07
6.51552e-07
6.61922e-07
6.53099e-07
6.62845e-07
6.69668e-07
9.66802e-08
5.46358e-08
7.72106e-08
9.6677e-08
5.46355e-08
7.72099e-08
9.66685e-08
5.46355e-08
7.72141e-08
9.66864e-08
5.4635e-08
7.72066e-08
6.69723e-07
6.62475e-07
6.51685e-07
6.63212e-07
6.51878e-07
6.69514e-07
6.69303e-07
6.46242e-07
6.65245e-07
6.58676e-07
6.69874e-07
6.45525e-07
6.63718e-07
6.699e-07
6.64475e-07
6.52462e-07
6.70376e-07
6.63087e-07
6.52029e-07
6.69079e-07
6.6303e-07
6.58823e-07
6.44958e-07
6.45268e-07
6.63809e-07
6.68827e-07
6.4786e-07
6.44945e-07
6.47961e-07
6.44845e-07
6.58231e-07
6.78914e-07
6.71536e-07
6.78969e-07
6.58179e-07
6.58255e-07
6.71413e-07
6.79098e-07
6.58359e-07
6.78995e-07
6.47838e-07
6.44765e-07
6.44822e-07
6.47783e-07
6.48209e-07
6.44998e-07
6.45192e-07
6.4801e-07
6.58783e-07
6.80062e-07
6.63708e-07
6.7233e-07
6.59276e-07
6.62067e-07
6.79539e-07
6.48358e-07
6.45772e-07
6.48811e-07
6.45339e-07
6.58619e-07
6.72454e-07
6.79155e-07
6.62182e-07
6.58414e-07
6.79366e-07
6.69332e-07
6.62632e-07
6.51627e-07
6.69444e-07
6.51523e-07
6.68571e-07
6.44578e-07
6.62559e-07
6.4466e-07
6.62831e-07
6.68493e-07
6.68604e-07
6.63177e-07
6.44866e-07
6.57505e-07
6.44698e-07
6.6874e-07
6.62714e-07
6.69307e-07
6.51444e-07
6.51501e-07
6.6924e-07
9.52304e-08
7.36161e-08
5.24804e-08
7.36114e-08
9.52351e-08
5.24796e-08
9.52271e-08
7.36181e-08
5.24795e-08
7.36088e-08
9.52379e-08
5.24795e-08
6.69284e-07
6.55803e-07
6.51451e-07
6.61899e-07
6.51454e-07
6.61905e-07
6.69279e-07
6.68365e-07
6.43573e-07
6.62321e-07
6.5695e-07
6.68381e-07
6.43541e-07
6.62286e-07
6.69288e-07
6.55807e-07
6.51464e-07
6.61936e-07
6.693e-07
6.51456e-07
6.61912e-07
6.68357e-07
6.62279e-07
6.56966e-07
6.4352e-07
6.43535e-07
6.62281e-07
6.68349e-07
6.47701e-07
6.44725e-07
6.54364e-07
6.52025e-07
6.5436e-07
6.47699e-07
6.44726e-07
6.58066e-07
6.78789e-07
6.71105e-07
6.60787e-07
6.60795e-07
6.78795e-07
6.58059e-07
6.58066e-07
6.60797e-07
6.71105e-07
6.78786e-07
6.60794e-07
6.58061e-07
6.78793e-07
6.47698e-07
6.52026e-07
6.54359e-07
6.44717e-07
6.54364e-07
6.44725e-07
6.47691e-07
6.47703e-07
6.52043e-07
6.44728e-07
6.54367e-07
6.4473e-07
6.54369e-07
6.47701e-07
6.58071e-07
6.78802e-07
6.60817e-07
6.71108e-07
6.58079e-07
6.60803e-07
6.78794e-07
6.47706e-07
6.52049e-07
6.4474e-07
6.54391e-07
6.47714e-07
6.44733e-07
6.54376e-07
6.58068e-07
6.60795e-07
6.71105e-07
6.78792e-07
6.60798e-07
6.58064e-07
6.78791e-07
6.69269e-07
6.51446e-07
6.61897e-07
6.55786e-07
6.69274e-07
6.51443e-07
6.61885e-07
6.68337e-07
6.43502e-07
6.56941e-07
6.62256e-07
6.43508e-07
6.62249e-07
6.68333e-07
6.6834e-07
6.62275e-07
6.43519e-07
6.56931e-07
6.43508e-07
6.68345e-07
6.62256e-07
6.69271e-07
6.55785e-07
6.5144e-07
6.6188e-07
6.51446e-07
6.6188e-07
6.69265e-07
6.69145e-07
6.51376e-07
6.69165e-07
6.51356e-07
6.68377e-07
6.44441e-07
6.44449e-07
6.68368e-07
6.68379e-07
6.44478e-07
6.44446e-07
6.68402e-07
6.69148e-07
6.51347e-07
6.5136e-07
6.69137e-07
6.47741e-07
6.44701e-07
6.44717e-07
6.47724e-07
6.5814e-07
6.78906e-07
6.71231e-07
6.78871e-07
6.58168e-07
6.58135e-07
6.71306e-07
6.78854e-07
6.78871e-07
6.58117e-07
6.47745e-07
6.44755e-07
6.47774e-07
6.44723e-07
6.69187e-07
6.51375e-07
6.69163e-07
6.51394e-07
6.68437e-07
6.44575e-07
6.44512e-07
6.68483e-07
6.68427e-07
6.44472e-07
6.44506e-07
6.68401e-07
6.69195e-07
6.51435e-07
6.69231e-07
6.51401e-07
6.47708e-07
6.44702e-07
6.44683e-07
6.47723e-07
6.58101e-07
6.78822e-07
6.7121e-07
6.78833e-07
6.58094e-07
6.58098e-07
6.78851e-07
6.71172e-07
6.78831e-07
6.58114e-07
6.47712e-07
6.44673e-07
6.44685e-07
6.47703e-07
9.52247e-08
7.36105e-08
5.24799e-08
7.3602e-08
9.52341e-08
5.24785e-08
9.52253e-08
7.36107e-08
5.24796e-08