/*--------------------------------*- C++ -*----------------------------------*\
| =========                 |                                                 |
| \\      /  F ield         | OpenFOAM: The Open Source CFD Toolbox           |
|  \\    /   O peration     | Version:  2012                                  |
|   \\  /    A nd           | Website:  www.openfoam.com                      |
|    \\/     M anipulation  |                                                 |
\*---------------------------------------------------------------------------*/
FoamFile
{
    version     2.0;
    format      ascii;
    class       volVectorField;
    location    "0.105/solid";
    object      D;
}
// * * * * * * * * * * * * * * * * * * * * * * * * * * * * * * * * * * * * * //

dimensions      [0 1 0 0 0 0 0];


internalField   nonuniform List<vector> 
3125
(
(-3.30528e-05 -2.07905e-05 -8.06608e-06)
(-2.38277e-05 -1.49346e-05 -7.53274e-06)
(-5.34934e-05 -3.33945e-05 -8.40592e-06)
(-4.39356e-05 -2.7526e-05 -8.29596e-06)
(-2.32359e-05 -1.45523e-05 -7.48348e-06)
(-2.28582e-05 -1.48226e-05 4.95775e-07)
(-1.50145e-05 -9.78754e-06 4.26212e-07)
(-2.32319e-05 -1.45786e-05 -7.15425e-06)
(-2.32084e-05 -1.45407e-05 -7.19227e-06)
(-2.27978e-05 -1.48268e-05 1.24275e-06)
(-1.49461e-05 -9.79402e-06 1.10756e-06)
(-2.31915e-05 -1.45621e-05 -6.72379e-06)
(-3.30525e-05 -2.08091e-05 -7.7112e-06)
(-2.40481e-05 -1.55733e-05 5.0388e-07)
(-2.38239e-05 -1.49604e-05 -7.20132e-06)
(-3.26998e-05 -2.09476e-05 5.47068e-07)
(-3.3033e-05 -2.07849e-05 -7.76419e-06)
(-2.38007e-05 -1.49234e-05 -7.24041e-06)
(-3.30232e-05 -2.08011e-05 -7.26473e-06)
(-2.39892e-05 -1.55772e-05 1.25684e-06)
(-2.37843e-05 -1.49444e-05 -6.76919e-06)
(-3.26512e-05 -2.09498e-05 1.32539e-06)
(-3.36851e-05 -2.11857e-05 -8.08919e-06)
(-4.32913e-05 -2.71299e-05 -8.29049e-06)
(-3.36851e-05 -2.1204e-05 -7.73334e-06)
(-4.29622e-05 -2.7208e-05 5.68798e-07)
(-3.39691e-05 -2.17264e-05 5.51305e-07)
(-4.32936e-05 -2.71434e-05 -7.92725e-06)
(-3.36657e-05 -2.11805e-05 -7.78705e-06)
(-4.32764e-05 -2.71284e-05 -7.98749e-06)
(-3.36564e-05 -2.11964e-05 -7.28647e-06)
(-4.29237e-05 -2.72087e-05 1.35533e-06)
(-3.3922e-05 -2.17283e-05 1.33148e-06)
(-4.32716e-05 -2.71412e-05 -7.47886e-06)
(-5.36329e-05 -3.34887e-05 -8.09025e-06)
(-4.42535e-05 -2.79934e-05 5.69814e-07)
(-4.39381e-05 -2.75392e-05 -7.93264e-06)
(-5.34862e-05 -3.33983e-05 -8.09678e-06)
(-4.3921e-05 -2.75247e-05 -7.99303e-06)
(-5.36171e-05 -3.34904e-05 -7.66111e-06)
(-4.4216e-05 -2.7994e-05 1.3567e-06)
(-4.39164e-05 -2.75373e-05 -7.48433e-06)
(-2.86776e-05 -1.80358e-05 -7.86291e-06)
(-2.80614e-05 -1.76447e-05 -7.82762e-06)
(-4.90878e-05 -3.06901e-05 -8.31683e-06)
(-4.84444e-05 -3.0295e-05 -8.31596e-06)
(-1.86477e-05 -1.15574e-05 -7.02064e-06)
(-1.92057e-05 -1.19246e-05 -7.08537e-06)
(-1.50557e-05 -9.53038e-06 -3.32113e-06)
(-1.86414e-05 -1.15881e-05 -6.71185e-06)
(-1.82947e-05 -1.1645e-05 -3.54423e-06)
(-1.93826e-05 -1.26107e-05 4.68641e-07)
(-2.28742e-05 -1.46569e-05 -2.72635e-06)
(-1.94014e-05 -1.24341e-05 -2.60223e-06)
(-1.50374e-05 -9.5992e-06 -2.39459e-06)
(-1.82595e-05 -1.18896e-05 4.58684e-07)
(-1.82793e-05 -1.17096e-05 -2.55499e-06)
(-1.91997e-05 -1.19547e-05 -6.77373e-06)
(-2.28859e-05 -1.45985e-05 -3.7833e-06)
(-1.94158e-05 -1.2371e-05 -3.61007e-06)
(-1.86158e-05 -1.15423e-05 -6.74139e-06)
(-1.91743e-05 -1.19099e-05 -6.80431e-06)
(-1.49696e-05 -9.50567e-06 -2.57919e-06)
(-1.85947e-05 -1.15666e-05 -6.29918e-06)
(-1.82145e-05 -1.16241e-05 -2.76475e-06)
(-1.93183e-05 -1.26159e-05 1.19298e-06)
(-2.28023e-05 -1.46457e-05 -1.89056e-06)
(-1.93235e-05 -1.24204e-05 -1.79214e-06)
(-1.49523e-05 -9.58207e-06 -1.63348e-06)
(-1.81941e-05 -1.18951e-05 1.17375e-06)
(-1.81995e-05 -1.16951e-05 -1.75545e-06)
(-1.91537e-05 -1.19339e-05 -6.35838e-06)
(-2.28144e-05 -1.45824e-05 -2.96847e-06)
(-1.93378e-05 -1.23513e-05 -2.82029e-06)
(-2.86758e-05 -1.80575e-05 -7.51687e-06)
(-3.27156e-05 -2.07685e-05 -4.08669e-06)
(-2.89535e-05 -1.84285e-05 -3.99754e-06)
(-2.40633e-05 -1.54115e-05 -2.76213e-06)
(-2.76957e-05 -1.78555e-05 5.25307e-07)
(-2.77084e-05 -1.77059e-05 -2.85385e-06)
(-2.80594e-05 -1.7667e-05 -7.48314e-06)
(-2.40742e-05 -1.53548e-05 -3.83329e-06)
(-2.7717e-05 -1.76541e-05 -3.9616e-06)
(-3.27097e-05 -2.08141e-05 -2.94328e-06)
(-2.89337e-05 -1.86243e-05 5.31476e-07)
(-2.89457e-05 -1.84787e-05 -2.87953e-06)
(-2.86547e-05 -1.80278e-05 -7.56398e-06)
(-2.8038e-05 -1.76364e-05 -7.5293e-06)
(-2.86421e-05 -1.80461e-05 -7.07487e-06)
(-3.26608e-05 -2.07605e-05 -3.23809e-06)
(-2.88928e-05 -1.84177e-05 -3.15709e-06)
(-2.39935e-05 -1.5401e-05 -1.91956e-06)
(-2.76412e-05 -1.78587e-05 1.29228e-06)
(-2.76447e-05 -1.76977e-05 -1.99553e-06)
(-2.80249e-05 -1.7655e-05 -7.04206e-06)
(-2.40048e-05 -1.53398e-05 -3.01188e-06)
(-2.76541e-05 -1.76423e-05 -3.12492e-06)
(-3.26539e-05 -2.08086e-05 -2.0725e-06)
(-2.88807e-05 -1.86272e-05 1.30198e-06)
(-2.88841e-05 -1.84712e-05 -2.01729e-06)
(-3.81471e-05 -2.39585e-05 -8.21434e-06)
(-3.87883e-05 -2.43551e-05 -8.2274e-06)
(-3.39838e-05 -2.15525e-05 -4.11063e-06)
(-3.81483e-05 -2.39742e-05 -7.85344e-06)
(-3.78181e-05 -2.39117e-05 -4.16714e-06)
(-3.90928e-05 -2.48542e-05 5.63733e-07)
(-4.29683e-05 -2.7101e-05 -3.03413e-06)
(-3.91001e-05 -2.47386e-05 -3.01138e-06)
(-3.39785e-05 -2.15967e-05 -2.96043e-06)
(-3.78066e-05 -2.40708e-05 5.61277e-07)
(-3.78143e-05 -2.39519e-05 -3.00107e-06)
(-3.87897e-05 -2.43704e-05 -7.86602e-06)
(-4.29703e-05 -2.7065e-05 -4.21241e-06)
(-3.91033e-05 -2.46995e-05 -4.18137e-06)
(-3.81301e-05 -2.39553e-05 -7.91123e-06)
(-3.87717e-05 -2.43521e-05 -7.92425e-06)
(-3.39308e-05 -2.15454e-05 -3.2602e-06)
(-3.81232e-05 -2.39695e-05 -7.40502e-06)
(-3.77702e-05 -2.39069e-05 -3.31323e-06)
(-3.9051e-05 -2.48554e-05 1.34859e-06)
(-4.29247e-05 -2.70994e-05 -2.15572e-06)
(-3.90526e-05 -2.47357e-05 -2.13411e-06)
(-3.39245e-05 -2.15917e-05 -2.08771e-06)
(-3.77636e-05 -2.40721e-05 1.34529e-06)
(-3.77654e-05 -2.39486e-05 -2.12454e-06)
(-3.87651e-05 -2.43661e-05 -7.41752e-06)
(-4.29279e-05 -2.70626e-05 -3.35702e-06)
(-3.9057e-05 -2.46954e-05 -3.32683e-06)
(-4.90912e-05 -3.07023e-05 -7.95408e-06)
(-5.36242e-05 -3.3602e-05 -3.73048e-06)
(-4.94205e-05 -3.10088e-05 -4.23483e-06)
(-4.42592e-05 -2.78888e-05 -3.03937e-06)
(-4.81249e-05 -3.03514e-05 5.71389e-07)
(-4.81298e-05 -3.02525e-05 -3.04945e-06)
(-4.84475e-05 -3.03072e-05 -7.95306e-06)
(-4.42609e-05 -2.78536e-05 -4.21941e-06)
(-4.81307e-05 -3.02193e-05 -4.23257e-06)
(-5.36231e-05 -3.36178e-05 -3.1311e-06)
(-4.94152e-05 -3.11391e-05 5.71645e-07)
(-4.94197e-05 -3.10415e-05 -3.05118e-06)
(-4.90744e-05 -3.06899e-05 -8.01453e-06)
(-4.84308e-05 -3.02947e-05 -8.01359e-06)
(-4.90712e-05 -3.07018e-05 -7.50662e-06)
(-5.36054e-05 -3.36023e-05 -3.29979e-06)
(-4.93823e-05 -3.10084e-05 -3.38004e-06)
(-4.42167e-05 -2.78875e-05 -2.16081e-06)
(-4.80897e-05 -3.03517e-05 1.35893e-06)
(-4.80899e-05 -3.0252e-05 -2.17094e-06)
(-4.84274e-05 -3.03066e-05 -7.50549e-06)
(-4.42195e-05 -2.78517e-05 -3.36398e-06)
(-4.80918e-05 -3.02185e-05 -3.37745e-06)
(-5.36042e-05 -3.36181e-05 -2.69735e-06)
(-4.93806e-05 -3.11395e-05 1.35919e-06)
(-4.93804e-05 -3.10413e-05 -2.17295e-06)
(-3.11658e-05 -1.96068e-05 -7.98811e-06)
(-2.56236e-05 -1.60894e-05 -7.66963e-06)
(-5.1673e-05 -3.22781e-05 -8.31792e-06)
(-4.58687e-05 -2.87135e-05 -8.30805e-06)
(-1.64668e-05 -1.01142e-05 -6.74129e-06)
(-2.14835e-05 -1.3415e-05 -7.32444e-06)
(-1.64593e-05 -1.01471e-05 -6.44475e-06)
(-1.64074e-05 -1.02626e-05 -4.97604e-06)
(-2.16832e-05 -1.40781e-05 4.87195e-07)
(-2.28598e-05 -1.47686e-05 -5.84846e-07)
(-2.16847e-05 -1.4023e-05 -5.77564e-07)
(-1.50161e-05 -9.72732e-06 -5.19322e-07)
(-1.60742e-05 -1.0477e-05 4.3746e-07)
(-1.60758e-05 -1.04174e-05 -5.30918e-07)
(-2.14786e-05 -1.34429e-05 -7.00225e-06)
(-2.31965e-05 -1.46735e-05 -5.52953e-06)
(-2.14391e-05 -1.35428e-05 -5.41041e-06)
(-1.64327e-05 -1.00972e-05 -6.47026e-06)
(-2.14543e-05 -1.34021e-05 -7.03708e-06)
(-1.64093e-05 -1.0123e-05 -6.04425e-06)
(-1.63607e-05 -1.02444e-05 -4.57809e-06)
(-2.16214e-05 -1.40826e-05 1.22743e-06)
(-2.27944e-05 -1.47678e-05 2.0764e-07)
(-2.16178e-05 -1.40221e-05 2.07728e-07)
(-1.49411e-05 -9.72611e-06 2.02977e-07)
(-1.60067e-05 -1.04831e-05 1.13108e-06)
(-1.60019e-05 -1.04163e-05 2.04506e-07)
(-2.14359e-05 -1.34246e-05 -6.57753e-06)
(-2.31579e-05 -1.46611e-05 -5.10147e-06)
(-2.13985e-05 -1.3529e-05 -4.98811e-06)
(-3.11649e-05 -1.96267e-05 -7.63658e-06)
(-3.30353e-05 -2.08794e-05 -5.96711e-06)
(-3.11445e-05 -1.9701e-05 -5.9078e-06)
(-2.40497e-05 -1.55204e-05 -5.91524e-07)
(-2.52518e-05 -1.63294e-05 5.11507e-07)
(-2.52533e-05 -1.62778e-05 -5.97631e-07)
(-2.56206e-05 -1.61136e-05 -7.33214e-06)
(-2.37896e-05 -1.50534e-05 -5.56599e-06)
(-2.55903e-05 -1.62019e-05 -5.66871e-06)
(-3.27014e-05 -2.09035e-05 -6.24109e-07)
(-3.14368e-05 -2.01708e-05 5.42354e-07)
(-3.14384e-05 -2.01255e-05 -6.20743e-07)
(-3.11447e-05 -1.96002e-05 -7.68723e-06)
(-2.55982e-05 -1.60795e-05 -7.37434e-06)
(-3.11337e-05 -1.96173e-05 -7.19164e-06)
(-3.30065e-05 -2.08733e-05 -5.52242e-06)
(-3.1114e-05 -1.96938e-05 -5.46477e-06)
(-2.3986e-05 -1.55197e-05 2.0736e-07)
(-2.51943e-05 -1.63331e-05 1.26976e-06)
(-2.51913e-05 -1.62771e-05 2.06908e-07)
(-2.55833e-05 -1.60995e-05 -6.8956e-06)
(-2.37516e-05 -1.50414e-05 -5.13621e-06)
(-2.55543e-05 -1.61911e-05 -5.23445e-06)
(-3.26494e-05 -2.09032e-05 2.01755e-07)
(-3.13868e-05 -2.01732e-05 1.31848e-06)
(-3.13847e-05 -2.01251e-05 2.02808e-07)
(-3.55906e-05 -2.23732e-05 -8.15041e-06)
(-4.13593e-05 -2.5941e-05 -8.26911e-06)
(-3.36686e-05 -2.12728e-05 -5.98454e-06)
(-3.55911e-05 -2.23902e-05 -7.79202e-06)
(-3.55777e-05 -2.24555e-05 -6.03158e-06)
(-4.16713e-05 -2.6423e-05 5.67467e-07)
(-4.29639e-05 -2.71725e-05 -6.40906e-07)
(-4.16729e-05 -2.63865e-05 -6.39565e-07)
(-3.39707e-05 -2.16835e-05 -6.27131e-07)
(-3.5244e-05 -2.25066e-05 5.5508e-07)
(-3.52456e-05 -2.24649e-05 -6.29836e-07)
(-4.13612e-05 -2.59552e-05 -7.90637e-06)
(-4.32887e-05 -2.71972e-05 -6.14286e-06)
(-4.13543e-05 -2.60112e-05 -6.12483e-06)
(-3.55723e-05 -2.23688e-05 -7.84769e-06)
(-4.13437e-05 -2.5939e-05 -7.96597e-06)
(-3.36403e-05 -2.1267e-05 -5.53939e-06)
(-3.55641e-05 -2.2384e-05 -7.34424e-06)
(-3.55509e-05 -2.24507e-05 -5.58539e-06)
(-4.16318e-05 -2.64238e-05 1.35355e-06)
(-4.29228e-05 -2.71724e-05 1.9323e-07)
(-4.16308e-05 -2.63865e-05 1.9418e-07)
(-3.39203e-05 -2.16832e-05 2.00665e-07)
(-3.51983e-05 -2.25084e-05 1.33679e-06)
(-3.51967e-05 -2.24647e-05 1.99556e-07)
(-4.13382e-05 -2.59523e-05 -7.45782e-06)
(-4.32666e-05 -2.71954e-05 -5.6954e-06)
(-4.13313e-05 -2.60089e-05 -5.67738e-06)
(-5.16831e-05 -3.2294e-05 -7.95989e-06)
(-5.36329e-05 -3.35403e-05 -6.17723e-06)
(-5.16933e-05 -3.23488e-05 -6.1738e-06)
(-4.42552e-05 -2.79586e-05 -6.42085e-07)
(-4.55446e-05 -2.8779e-05 5.70552e-07)
(-4.55463e-05 -2.8745e-05 -6.43105e-07)
(-4.58715e-05 -2.87262e-05 -7.94473e-06)
(-4.39334e-05 -2.75922e-05 -6.14756e-06)
(-4.58685e-05 -2.87775e-05 -6.15882e-06)
(-5.36198e-05 -3.36814e-05 -7.31976e-07)
(-5.20338e-05 -3.27092e-05 -6.45373e-07)
(-5.16599e-05 -3.22781e-05 -8.01541e-06)
(-4.58546e-05 -2.87127e-05 -8.00535e-06)
(-5.16636e-05 -3.22939e-05 -7.51209e-06)
(-5.36136e-05 -3.35404e-05 -5.73538e-06)
(-5.16737e-05 -3.23487e-05 -5.72733e-06)
(-4.42151e-05 -2.79587e-05 1.92351e-07)
(-4.55079e-05 -2.87795e-05 1.35773e-06)
(-4.55071e-05 -2.87451e-05 1.91553e-07)
(-4.58506e-05 -2.8725e-05 -7.49671e-06)
(-4.39117e-05 -2.75907e-05 -5.70012e-06)
(-4.58475e-05 -2.87764e-05 -5.71152e-06)
(-5.36014e-05 -3.36817e-05 -3.07239e-07)
(-5.19975e-05 -3.27096e-05 1.92079e-07)
(-3.05405e-05 -1.92132e-05 -7.95914e-06)
(-2.62287e-05 -1.64768e-05 -7.7117e-06)
(-5.10221e-05 -3.18782e-05 -8.31768e-06)
(-4.65129e-05 -2.91091e-05 -8.3108e-06)
(-1.70041e-05 -1.04709e-05 -6.81422e-06)
(-2.09074e-05 -1.30394e-05 -7.26762e-06)
(-1.50793e-05 -9.45603e-06 -4.26062e-06)
(-1.61133e-05 -1.02237e-05 -3.39985e-06)
(-1.61356e-05 -1.0151e-05 -4.36152e-06)
(-1.69969e-05 -1.05033e-05 -6.51448e-06)
(-1.85952e-05 -1.16968e-05 -5.18423e-06)
(-1.69462e-05 -1.06169e-05 -5.02989e-06)
(-1.71934e-05 -1.09289e-05 -3.47419e-06)
(-1.83144e-05 -1.15759e-05 -4.5467e-06)
(-1.72144e-05 -1.0858e-05 -4.45685e-06)
(-2.05242e-05 -1.33405e-05 4.78148e-07)
(-1.93842e-05 -1.25536e-05 -5.61047e-07)
(-2.05258e-05 -1.32844e-05 -5.69641e-07)
(-2.28654e-05 -1.47135e-05 -1.6592e-06)
(-2.17001e-05 -1.39085e-05 -2.68784e-06)
(-2.16907e-05 -1.39666e-05 -1.63621e-06)
(-1.93908e-05 -1.24948e-05 -1.58497e-06)
(-2.05421e-05 -1.31673e-05 -2.64649e-06)
(-2.05321e-05 -1.32268e-05 -1.61149e-06)
(-1.50242e-05 -9.6647e-06 -1.45985e-06)
(-1.60961e-05 -1.02912e-05 -2.45124e-06)
(-1.60835e-05 -1.03556e-05 -1.49408e-06)
(-1.71563e-05 -1.1178e-05 4.48288e-07)
(-1.82611e-05 -1.18315e-05 -5.51749e-07)
(-1.71579e-05 -1.11191e-05 -5.41717e-07)
(-1.71771e-05 -1.0995e-05 -2.50468e-06)
(-1.82681e-05 -1.17717e-05 -1.55659e-06)
(-1.71653e-05 -1.10583e-05 -1.52632e-06)
(-2.09023e-05 -1.30679e-05 -6.94794e-06)
(-1.91547e-05 -1.20615e-05 -5.23205e-06)
(-2.08616e-05 -1.31696e-05 -5.3684e-06)
(-2.29011e-05 -1.45369e-05 -4.85362e-06)
(-2.17127e-05 -1.38486e-05 -3.7295e-06)
(-2.17289e-05 -1.37851e-05 -4.78452e-06)
(-1.94344e-05 -1.23037e-05 -4.63118e-06)
(-2.05556e-05 -1.31058e-05 -3.67179e-06)
(-2.05729e-05 -1.30404e-05 -4.71042e-06)
(-1.69705e-05 -1.04544e-05 -6.54098e-06)
(-2.08777e-05 -1.3026e-05 -6.9817e-06)
(-1.4994e-05 -9.42606e-06 -3.55041e-06)
(-1.60291e-05 -1.02003e-05 -2.64424e-06)
(-1.60524e-05 -1.01226e-05 -3.6382e-06)
(-1.69477e-05 -1.04798e-05 -6.11072e-06)
(-1.85512e-05 -1.16806e-05 -4.77408e-06)
(-1.69003e-05 -1.05993e-05 -4.62865e-06)
(-1.71112e-05 -1.09068e-05 -2.70608e-06)
(-1.82356e-05 -1.15506e-05 -3.80053e-06)
(-1.71334e-05 -1.08311e-05 -3.72156e-06)
(-2.04612e-05 -1.33454e-05 1.21086e-06)
(-1.93142e-05 -1.25526e-05 2.07237e-07)
(-2.04573e-05 -1.32835e-05 2.07601e-07)
(-2.27959e-05 -1.47076e-05 -8.32944e-07)
(-2.16262e-05 -1.38966e-05 -1.85968e-06)
(-2.16194e-05 -1.39603e-05 -8.17488e-07)
(-1.93159e-05 -1.24876e-05 -7.84059e-07)
(-2.04662e-05 -1.31545e-05 -1.82688e-06)
(-2.0459e-05 -1.322e-05 -8.01193e-07)
(-1.49431e-05 -9.65565e-06 -7.07163e-07)
(-1.60126e-05 -1.02749e-05 -1.67613e-06)
(-1.60038e-05 -1.0347e-05 -7.27633e-07)
(-1.70898e-05 -1.11838e-05 1.15313e-06)
(-1.81898e-05 -1.18305e-05 2.06615e-07)
(-1.70852e-05 -1.11181e-05 2.05712e-07)
(-1.70955e-05 -1.09796e-05 -1.71679e-06)
(-1.81916e-05 -1.1764e-05 -7.66085e-07)
(-1.70871e-05 -1.10502e-05 -7.47275e-07)
(-2.08587e-05 -1.30489e-05 -6.52537e-06)
(-1.91114e-05 -1.20458e-05 -4.81918e-06)
(-2.08203e-05 -1.31553e-05 -4.94829e-06)
(-2.28312e-05 -1.45174e-05 -4.07369e-06)
(-2.16389e-05 -1.38313e-05 -2.9221e-06)
(-2.16568e-05 -1.37641e-05 -4.01167e-06)
(-1.93577e-05 -1.22798e-05 -3.87516e-06)
(-2.04797e-05 -1.30873e-05 -2.87272e-06)
(-2.04986e-05 -1.3018e-05 -3.94552e-06)
(-3.05394e-05 -1.92335e-05 -7.60888e-06)
(-2.86511e-05 -1.81377e-05 -5.81341e-06)
(-3.05182e-05 -1.93094e-05 -5.88614e-06)
(-3.2723e-05 -2.07213e-05 -5.24315e-06)
(-3.14539e-05 -1.99862e-05 -4.05995e-06)
(-3.14621e-05 -1.99374e-05 -5.2089e-06)
(-2.89635e-05 -1.83762e-05 -5.12882e-06)
(-3.01995e-05 -1.92061e-05 -4.03028e-06)
(-3.02086e-05 -1.91556e-05 -5.17084e-06)
(-2.40551e-05 -1.54666e-05 -1.68051e-06)
(-2.52661e-05 -1.61716e-05 -2.79524e-06)
(-2.52584e-05 -1.62253e-05 -1.7002e-06)
(-2.6468e-05 -1.70904e-05 5.18651e-07)
(-2.76973e-05 -1.78064e-05 -6.08261e-07)
(-2.64696e-05 -1.704e-05 -6.03199e-07)
(-2.64815e-05 -1.69366e-05 -2.82578e-06)
(-2.77017e-05 -1.77566e-05 -1.73498e-06)
(-2.64743e-05 -1.69888e-05 -1.71834e-06)
(-2.6226e-05 -1.65005e-05 -7.37234e-06)
(-2.80337e-05 -1.77488e-05 -5.78715e-06)
(-2.61966e-05 -1.65869e-05 -5.69992e-06)
(-2.40882e-05 -1.52951e-05 -4.91784e-06)
(-2.52762e-05 -1.61165e-05 -3.87959e-06)
(-2.52891e-05 -1.60588e-05 -4.97733e-06)
(-2.77279e-05 -1.76e-05 -5.08267e-06)
(-2.64908e-05 -1.68832e-05 -3.92232e-06)
(-2.65027e-05 -1.68273e-05 -5.03222e-06)
(-3.27049e-05 -2.08591e-05 -1.78792e-06)
(-3.14473e-05 -2.00333e-05 -2.92415e-06)
(-3.14421e-05 -2.00797e-05 -1.7766e-06)
(-3.01811e-05 -1.93962e-05 5.37158e-07)
(-2.89353e-05 -1.85764e-05 -6.1285e-07)
(-3.01827e-05 -1.93496e-05 -6.17e-07)
(-3.01923e-05 -1.92547e-05 -2.90293e-06)
(-2.89395e-05 -1.8528e-05 -1.7502e-06)
(-3.01867e-05 -1.93025e-05 -1.76405e-06)
(-3.0519e-05 -1.92063e-05 -7.65868e-06)
(-2.62039e-05 -1.64672e-05 -7.41556e-06)
(-3.05076e-05 -1.92236e-05 -7.16457e-06)
(-2.86183e-05 -1.8129e-05 -5.37349e-06)
(-3.04871e-05 -1.93018e-05 -5.4438e-06)
(-3.26702e-05 -2.07116e-05 -4.4313e-06)
(-3.13971e-05 -1.99773e-05 -3.21359e-06)
(-3.14073e-05 -1.99266e-05 -4.39913e-06)
(-2.89047e-05 -1.83631e-05 -4.32459e-06)
(-3.01408e-05 -1.91963e-05 -3.18662e-06)
(-3.01518e-05 -1.91436e-05 -4.36359e-06)
(-2.39874e-05 -1.54611e-05 -8.47561e-07)
(-2.51983e-05 -1.6162e-05 -1.9467e-06)
(-2.51926e-05 -1.62202e-05 -8.61343e-07)
(-2.6412e-05 -1.70938e-05 1.28156e-06)
(-2.76386e-05 -1.78059e-05 2.05576e-07)
(-2.64092e-05 -1.70394e-05 2.06306e-07)
(-2.64158e-05 -1.69277e-05 -1.97201e-06)
(-2.76397e-05 -1.77523e-05 -8.86422e-07)
(-2.64104e-05 -1.69841e-05 -8.74294e-07)
(-2.61894e-05 -1.64869e-05 -6.93453e-06)
(-2.80003e-05 -1.77397e-05 -5.3482e-06)
(-2.61613e-05 -1.65766e-05 -5.26434e-06)
(-2.40206e-05 -1.52769e-05 -4.13164e-06)
(-2.5209e-05 -1.61026e-05 -3.05238e-06)
(-2.52238e-05 -1.60419e-05 -4.18562e-06)
(-2.76669e-05 -1.75856e-05 -4.28199e-06)
(-2.64258e-05 -1.68704e-05 -3.09004e-06)
(-2.64396e-05 -1.68117e-05 -4.2357e-06)
(-3.26502e-05 -2.08562e-05 -9.26903e-07)
(-3.13897e-05 -2.00271e-05 -2.05573e-06)
(-3.13857e-05 -2.00765e-05 -9.17962e-07)
(-3.01296e-05 -1.93989e-05 1.3107e-06)
(-2.88783e-05 -1.8576e-05 2.04736e-07)
(-3.01274e-05 -1.93492e-05 2.03807e-07)
(-3.01327e-05 -1.92479e-05 -2.03735e-06)
(-2.88794e-05 -1.85241e-05 -8.97735e-07)
(-3.01284e-05 -1.92989e-05 -9.08244e-07)
(-3.62283e-05 -2.27693e-05 -8.16822e-06)
(-4.07158e-05 -2.55446e-05 -8.26018e-06)
(-3.39904e-05 -2.15069e-05 -5.27378e-06)
(-3.52575e-05 -2.23379e-05 -4.13193e-06)
(-3.52633e-05 -2.22938e-05 -5.30097e-06)
(-3.6229e-05 -2.2786e-05 -7.80911e-06)
(-3.81381e-05 -2.4035e-05 -6.08117e-06)
(-3.62161e-05 -2.285e-05 -6.04517e-06)
(-3.65358e-05 -2.31244e-05 -4.15071e-06)
(-3.78225e-05 -2.38704e-05 -5.34576e-06)
(-3.6541e-05 -2.30818e-05 -5.3249e-06)
(-4.03812e-05 -2.56383e-05 5.65789e-07)
(-3.90944e-05 -2.48159e-05 -6.36336e-07)
(-4.03829e-05 -2.5601e-05 -6.38047e-07)
(-4.2966e-05 -2.71368e-05 -1.84233e-06)
(-4.16777e-05 -2.63133e-05 -3.0278e-06)
(-4.16752e-05 -2.635e-05 -1.83842e-06)
(-3.9097e-05 -2.47774e-05 -1.82845e-06)
(-4.03881e-05 -2.55258e-05 -3.02025e-06)
(-4.03853e-05 -2.55635e-05 -1.83381e-06)
(-3.39741e-05 -2.16403e-05 -1.79808e-06)
(-3.52527e-05 -2.23807e-05 -2.9757e-06)
(-3.52487e-05 -2.2423e-05 -1.80714e-06)
(-3.65234e-05 -2.32882e-05 5.58398e-07)
(-3.78082e-05 -2.40314e-05 -6.34412e-07)
(-3.6525e-05 -2.32477e-05 -6.32254e-07)
(-3.65316e-05 -2.31658e-05 -2.98921e-06)
(-3.7811e-05 -2.39918e-05 -1.82226e-06)
(-3.65279e-05 -2.32069e-05 -1.81518e-06)
(-4.07177e-05 -2.55591e-05 -7.8977e-06)
(-3.878e-05 -2.44301e-05 -6.09133e-06)
(-4.07103e-05 -2.56161e-05 -6.11764e-06)
(-4.29726e-05 -2.70282e-05 -5.40253e-06)
(-4.16801e-05 -2.62763e-05 -4.20385e-06)
(-4.16829e-05 -2.62386e-05 -5.39193e-06)
(-3.91072e-05 -2.46596e-05 -5.36375e-06)
(-4.03909e-05 -2.54878e-05 -4.19355e-06)
(-4.03942e-05 -2.5449e-05 -5.37907e-06)
(-3.62103e-05 -2.27653e-05 -7.86537e-06)
(-4.07e-05 -2.55423e-05 -7.95702e-06)
(-3.39394e-05 -2.14982e-05 -4.46025e-06)
(-3.52063e-05 -2.23316e-05 -3.28003e-06)
(-3.52141e-05 -2.22861e-05 -4.48611e-06)
(-3.62024e-05 -2.27802e-05 -7.36111e-06)
(-3.81131e-05 -2.40314e-05 -5.63413e-06)
(-3.61898e-05 -2.28455e-05 -5.59869e-06)
(-3.64864e-05 -2.31188e-05 -3.29767e-06)
(-3.77766e-05 -2.38645e-05 -4.52913e-06)
(-3.64935e-05 -2.3075e-05 -4.50902e-06)
(-4.03406e-05 -2.56393e-05 1.35133e-06)
(-3.90498e-05 -2.48157e-05 1.96243e-07)
(-4.03396e-05 -2.56009e-05 1.9519e-07)
(-4.29231e-05 -2.7136e-05 -9.7319e-07)
(-4.1633e-05 -2.63113e-05 -2.14962e-06)
(-4.16311e-05 -2.6349e-05 -9.69605e-07)
(-3.90503e-05 -2.47759e-05 -9.607e-07)
(-4.03421e-05 -2.55234e-05 -2.14245e-06)
(-4.034e-05 -2.55623e-05 -9.65453e-07)
(-3.39211e-05 -2.16377e-05 -9.35088e-07)
(-3.52005e-05 -2.23763e-05 -2.10141e-06)
(-3.51974e-05 -2.24207e-05 -9.42536e-07)
(-3.64791e-05 -2.32897e-05 1.34137e-06)
(-3.77623e-05 -2.40312e-05 1.9733e-07)
(-3.64777e-05 -2.32475e-05 1.98439e-07)
(-3.64811e-05 -2.3162e-05 -2.11367e-06)
(-3.77628e-05 -2.39901e-05 -9.55315e-07)
(-3.64783e-05 -2.32049e-05 -9.49269e-07)
(-4.06943e-05 -2.55558e-05 -7.44914e-06)
(-3.87555e-05 -2.44267e-05 -5.64415e-06)
(-4.06869e-05 -2.56135e-05 -5.67023e-06)
(-4.29319e-05 -2.70253e-05 -4.58481e-06)
(-4.16365e-05 -2.62734e-05 -3.34859e-06)
(-4.16411e-05 -2.62351e-05 -4.57426e-06)
(-3.90627e-05 -2.46545e-05 -4.54659e-06)
(-4.0346e-05 -2.54843e-05 -3.33857e-06)
(-4.03511e-05 -2.54448e-05 -4.56158e-06)
(-5.10285e-05 -3.18919e-05 -7.9567e-06)
(-4.90905e-05 -3.07518e-05 -6.16897e-06)
(-5.10349e-05 -3.19446e-05 -6.17223e-06)
(-5.36297e-05 -3.35555e-05 -5.54811e-06)
(-5.20371e-05 -3.2613e-05 -4.23927e-06)
(-5.20394e-05 -3.25817e-05 -5.43482e-06)
(-4.9421e-05 -3.09755e-05 -5.42931e-06)
(-5.07168e-05 -3.18032e-05 -4.23647e-06)
(-5.07176e-05 -3.17706e-05 -5.43128e-06)
(-4.42572e-05 -2.79238e-05 -1.8456e-06)
(-4.555e-05 -2.86766e-05 -3.0436e-06)
(-4.55482e-05 -2.87109e-05 -1.8483e-06)
(-4.68351e-05 -2.9565e-05 5.71056e-07)
(-4.81266e-05 -3.03185e-05 -6.44648e-07)
(-4.68368e-05 -2.95316e-05 -6.43971e-07)
(-4.68402e-05 -2.94645e-05 -3.04694e-06)
(-4.81283e-05 -3.02856e-05 -1.8521e-06)
(-4.68386e-05 -2.94981e-05 -1.85046e-06)
(-4.65158e-05 -2.91216e-05 -7.94754e-06)
(-4.84463e-05 -3.03569e-05 -6.16765e-06)
(-4.65129e-05 -2.91723e-05 -6.16155e-06)
(-4.42627e-05 -2.78178e-05 -5.41109e-06)
(-4.55514e-05 -2.86422e-05 -4.225e-06)
(-4.55528e-05 -2.86071e-05 -5.41784e-06)
(-4.81314e-05 -3.01855e-05 -5.42673e-06)
(-4.68414e-05 -2.94307e-05 -4.22935e-06)
(-4.68424e-05 -2.93963e-05 -5.42298e-06)
(-5.36204e-05 -3.36654e-05 -1.33189e-06)
(-5.20343e-05 -3.26439e-05 -3.05316e-06)
(-5.20333e-05 -3.26761e-05 -1.85396e-06)
(-5.07124e-05 -3.19325e-05 5.71879e-07)
(-4.94169e-05 -3.11067e-05 -6.45057e-07)
(-5.07135e-05 -3.19001e-05 -6.45064e-07)
(-5.07155e-05 -3.18351e-05 -3.05219e-06)
(-4.94184e-05 -3.10742e-05 -1.85319e-06)
(-5.07143e-05 -3.18675e-05 -1.85366e-06)
(-5.10089e-05 -3.18781e-05 -8.01536e-06)
(-4.6499e-05 -2.91084e-05 -8.00818e-06)
(-5.10088e-05 -3.18917e-05 -7.50927e-06)
(-4.90704e-05 -3.07513e-05 -5.722e-06)
(-5.10152e-05 -3.19444e-05 -5.72568e-06)
(-5.3611e-05 -3.35556e-05 -5.1216e-06)
(-5.19996e-05 -3.26132e-05 -3.38291e-06)
(-5.20036e-05 -3.25817e-05 -4.61571e-06)
(-4.93844e-05 -3.09749e-05 -4.61255e-06)
(-5.06791e-05 -3.1803e-05 -3.38198e-06)
(-5.06816e-05 -3.17703e-05 -4.61485e-06)
(-4.42153e-05 -2.79232e-05 -9.76237e-07)
(-4.55085e-05 -2.86756e-05 -2.16499e-06)
(-4.55073e-05 -2.87105e-05 -9.78784e-07)
(-4.67992e-05 -2.95654e-05 1.35846e-06)
(-4.8089e-05 -3.03187e-05 1.90223e-07)
(-4.67985e-05 -2.95317e-05 1.90843e-07)
(-4.67996e-05 -2.94638e-05 -2.16833e-06)
(-4.8089e-05 -3.02854e-05 -9.82526e-07)
(-4.67985e-05 -2.94978e-05 -9.80866e-07)
(-4.64951e-05 -2.91206e-05 -7.49964e-06)
(-4.84261e-05 -3.03563e-05 -5.72061e-06)
(-4.64922e-05 -2.91713e-05 -5.7143e-06)
(-4.42231e-05 -2.78154e-05 -4.59342e-06)
(-4.5511e-05 -2.86407e-05 -3.3696e-06)
(-4.55142e-05 -2.86053e-05 -4.60028e-06)
(-4.80942e-05 -3.01845e-05 -4.60959e-06)
(-4.68018e-05 -2.94296e-05 -3.37404e-06)
(-4.68046e-05 -2.9395e-05 -4.60559e-06)
(-5.36018e-05 -3.36658e-05 -9.02052e-07)
(-5.19959e-05 -3.26442e-05 -2.17424e-06)
(-5.19954e-05 -3.26764e-05 -9.83469e-07)
(-5.06782e-05 -3.19328e-05 1.35963e-06)
(-4.93799e-05 -3.11069e-05 1.89704e-07)
(-5.0677e-05 -3.19003e-05 1.89662e-07)
(-5.06768e-05 -3.18351e-05 -2.17428e-06)
(-4.93797e-05 -3.10742e-05 -9.83815e-07)
(-5.06761e-05 -3.18676e-05 -9.84514e-07)
(-3.2422e-05 -2.03955e-05 -8.04154e-06)
(-2.4423e-05 -1.53182e-05 -7.58017e-06)
(-5.29551e-05 -3.30655e-05 -8.33692e-06)
(-4.458e-05 -2.79219e-05 -8.30068e-06)
(-1.54091e-05 -9.40974e-06 -6.58912e-06)
(-2.26479e-05 -1.41715e-05 -7.43235e-06)
(-1.54234e-05 -9.50755e-06 -6.15071e-06)
(-1.5401e-05 -9.44379e-06 -6.29921e-06)
(-1.54329e-05 -9.47035e-06 -6.48937e-06)
(-1.53809e-05 -9.48476e-06 -5.80609e-06)
(-2.26647e-05 -1.42467e-05 -6.92695e-06)
(-2.26436e-05 -1.41984e-05 -7.10538e-06)
(-2.32576e-05 -1.45967e-05 -7.35879e-06)
(-2.32189e-05 -1.46111e-05 -6.59725e-06)
(-2.26697e-05 -1.4217e-05 -7.30933e-06)
(-2.26301e-05 -1.42315e-05 -6.55198e-06)
(-2.32529e-05 -1.46258e-05 -6.97375e-06)
(-1.53739e-05 -9.39177e-06 -6.32282e-06)
(-2.26198e-05 -1.41595e-05 -7.14235e-06)
(-1.52837e-05 -9.44339e-06 -5.05705e-06)
(-1.53494e-05 -9.41829e-06 -5.90573e-06)
(-1.53313e-05 -9.46194e-06 -5.41764e-06)
(-1.5309e-05 -9.41017e-06 -5.53593e-06)
(-2.25521e-05 -1.42036e-05 -5.73529e-06)
(-2.26024e-05 -1.41813e-05 -6.67672e-06)
(-2.31796e-05 -1.45963e-05 -6.17216e-06)
(-2.31603e-05 -1.45577e-05 -6.31585e-06)
(-2.25901e-05 -1.42162e-05 -6.12866e-06)
(-2.25705e-05 -1.41767e-05 -6.27073e-06)
(-2.31423e-05 -1.45842e-05 -5.77708e-06)
(-3.24407e-05 -2.04465e-05 -7.48181e-06)
(-3.24216e-05 -2.04146e-05 -7.68771e-06)
(-3.30719e-05 -2.08192e-05 -7.9195e-06)
(-3.30462e-05 -2.0833e-05 -7.11403e-06)
(-3.24413e-05 -2.0425e-05 -7.89601e-06)
(-3.24149e-05 -2.04389e-05 -7.09215e-06)
(-3.30715e-05 -2.08401e-05 -7.50407e-06)
(-2.44402e-05 -1.53884e-05 -7.06212e-06)
(-2.44194e-05 -1.53435e-05 -7.24665e-06)
(-2.38492e-05 -1.49778e-05 -7.4064e-06)
(-2.38114e-05 -1.49923e-05 -6.64083e-06)
(-2.44443e-05 -1.53604e-05 -7.45223e-06)
(-2.38448e-05 -1.50064e-05 -7.01877e-06)
(-2.44074e-05 -1.53748e-05 -6.68284e-06)
(-3.24018e-05 -2.03896e-05 -7.73995e-06)
(-2.43965e-05 -1.53075e-05 -7.28679e-06)
(-3.2358e-05 -2.04251e-05 -6.24139e-06)
(-3.23917e-05 -2.04061e-05 -7.24169e-06)
(-3.30174e-05 -2.08258e-05 -6.67288e-06)
(-3.30011e-05 -2.08003e-05 -6.83779e-06)
(-3.23855e-05 -2.04313e-05 -6.65146e-06)
(-3.23691e-05 -2.04051e-05 -6.81539e-06)
(-3.29905e-05 -2.08199e-05 -6.26235e-06)
(-2.43337e-05 -1.53498e-05 -5.85636e-06)
(-2.43806e-05 -1.53282e-05 -6.81295e-06)
(-2.37728e-05 -1.4978e-05 -6.21406e-06)
(-2.37537e-05 -1.49403e-05 -6.3594e-06)
(-2.37362e-05 -1.49663e-05 -5.81741e-06)
(-2.43696e-05 -1.53611e-05 -6.25451e-06)
(-2.43506e-05 -1.53243e-05 -6.40142e-06)
(-3.4319e-05 -2.15813e-05 -8.11094e-06)
(-4.26471e-05 -2.67337e-05 -8.28422e-06)
(-3.43379e-05 -2.16285e-05 -7.54473e-06)
(-3.37041e-05 -2.12136e-05 -7.94163e-06)
(-3.36791e-05 -2.12274e-05 -7.13465e-06)
(-3.43191e-05 -2.15991e-05 -7.75417e-06)
(-3.3704e-05 -2.12342e-05 -7.52502e-06)
(-3.43378e-05 -2.16084e-05 -7.96244e-06)
(-3.43135e-05 -2.16222e-05 -7.15409e-06)
(-4.2667e-05 -2.67683e-05 -7.7026e-06)
(-4.26493e-05 -2.67474e-05 -7.9211e-06)
(-4.33089e-05 -2.71482e-05 -8.13423e-06)
(-4.32918e-05 -2.71616e-05 -7.31706e-06)
(-4.26647e-05 -2.67524e-05 -8.12819e-06)
(-4.26472e-05 -2.67659e-05 -7.31113e-06)
(-4.33113e-05 -2.71638e-05 -7.70846e-06)
(-3.42999e-05 -2.15764e-05 -7.80857e-06)
(-4.2632e-05 -2.67321e-05 -7.98117e-06)
(-3.42599e-05 -2.16105e-05 -6.30086e-06)
(-3.36509e-05 -2.12206e-05 -6.69309e-06)
(-3.36347e-05 -2.11959e-05 -6.85896e-06)
(-3.4291e-05 -2.1592e-05 -7.30695e-06)
(-3.36245e-05 -2.12151e-05 -6.28215e-06)
(-3.42858e-05 -2.16157e-05 -6.71217e-06)
(-3.42698e-05 -2.15917e-05 -6.87892e-06)
(-4.26048e-05 -2.6762e-05 -6.45475e-06)
(-4.2627e-05 -2.6745e-05 -7.47265e-06)
(-4.327e-05 -2.71596e-05 -6.87374e-06)
(-4.32555e-05 -2.71431e-05 -7.04788e-06)
(-4.26251e-05 -2.67637e-05 -6.86776e-06)
(-4.26106e-05 -2.67468e-05 -7.04167e-06)
(-4.325e-05 -2.71581e-05 -6.46076e-06)
(-5.30391e-05 -3.31329e-05 -7.75694e-06)
(-5.30186e-05 -3.31135e-05 -8.00323e-06)
(-5.3646e-05 -3.34932e-05 -8.22833e-06)
(-5.36376e-05 -3.35097e-05 -7.41583e-06)
(-5.30215e-05 -3.31105e-05 -8.18631e-06)
(-5.30381e-05 -3.31418e-05 -7.39564e-06)
(-5.36535e-05 -3.351e-05 -7.77771e-06)
(-4.46002e-05 -2.79545e-05 -7.7181e-06)
(-4.45826e-05 -2.7935e-05 -7.93732e-06)
(-4.39532e-05 -2.75438e-05 -8.13951e-06)
(-4.39364e-05 -2.75573e-05 -7.32229e-06)
(-4.45975e-05 -2.79394e-05 -8.14409e-06)
(-4.39557e-05 -2.75592e-05 -7.71361e-06)
(-4.45811e-05 -2.79528e-05 -7.32687e-06)
(-5.29446e-05 -3.30671e-05 -8.0366e-06)
(-4.45656e-05 -2.79208e-05 -7.99782e-06)
(-5.29841e-05 -3.3132e-05 -6.51949e-06)
(-5.3001e-05 -3.31144e-05 -7.55913e-06)
(-5.36198e-05 -3.351e-05 -6.99413e-06)
(-5.35934e-05 -3.34894e-05 -7.15663e-06)
(-5.30187e-05 -3.31418e-05 -6.94996e-06)
(-5.29745e-05 -3.31104e-05 -7.10506e-06)
(-5.35982e-05 -3.35085e-05 -6.55735e-06)
(-4.45405e-05 -2.79501e-05 -6.47078e-06)
(-4.45612e-05 -2.79333e-05 -7.48911e-06)
(-4.39149e-05 -2.75555e-05 -6.87904e-06)
(-4.39005e-05 -2.75394e-05 -7.05335e-06)
(-4.38952e-05 -2.75542e-05 -6.46608e-06)
(-4.45599e-05 -2.79512e-05 -6.88369e-06)
(-4.45456e-05 -2.79355e-05 -7.05815e-06)
(-5.2992e-05 -3.33496e-05 1.28937e-06)
(-5.36013e-05 -3.37134e-05 8.80956e-07)
(-5.30026e-05 -3.33452e-05 8.8049e-07)
(-5.35881e-05 -3.37162e-05 1.28615e-06)
(-2.92963e-05 -1.84276e-05 -7.89658e-06)
(-2.74477e-05 -1.72545e-05 -7.79067e-06)
(-4.97314e-05 -3.10853e-05 -8.31737e-06)
(-4.78008e-05 -2.98998e-05 -8.3147e-06)
(-1.80947e-05 -1.11927e-05 -6.95388e-06)
(-1.97684e-05 -1.22941e-05 -7.1481e-06)
(-1.81102e-05 -1.12816e-05 -6.48747e-06)
(-1.80881e-05 -1.12239e-05 -6.64802e-06)
(-1.86707e-05 -1.16109e-05 -6.90991e-06)
(-1.86245e-05 -1.16255e-05 -6.18778e-06)
(-1.81179e-05 -1.12473e-05 -6.84496e-06)
(-1.86634e-05 -1.16446e-05 -6.54899e-06)
(-1.80706e-05 -1.12619e-05 -6.12869e-06)
(-1.97844e-05 -1.23778e-05 -6.66623e-06)
(-1.97626e-05 -1.23237e-05 -6.8337e-06)
(-1.92285e-05 -1.19769e-05 -6.97283e-06)
(-1.91832e-05 -1.19915e-05 -6.245e-06)
(-1.97911e-05 -1.23452e-05 -7.03377e-06)
(-1.92215e-05 -1.201e-05 -6.60853e-06)
(-1.97467e-05 -1.23598e-05 -6.30052e-06)
(-1.80622e-05 -1.11771e-05 -6.67653e-06)
(-1.97376e-05 -1.22798e-05 -6.86533e-06)
(-1.79808e-05 -1.12259e-05 -5.34825e-06)
(-1.80406e-05 -1.12018e-05 -6.23817e-06)
(-1.85793e-05 -1.16062e-05 -5.78032e-06)
(-1.85583e-05 -1.15602e-05 -5.91e-06)