/*--------------------------------*- C++ -*----------------------------------*\
| =========                 |                                                 |
| \\      /  F ield         | OpenFOAM: The Open Source CFD Toolbox           |
|  \\    /   O peration     | Version:  2012                                  |
|   \\  /    A nd           | Website:  www.openfoam.com                      |
|    \\/     M anipulation  |                                                 |
\*---------------------------------------------------------------------------*/
FoamFile
{
    version     2.0;
    format      ascii;
    class       volVectorField;
    location    "0.105/solid";
    object      D_0_0;
}
// * * * * * * * * * * * * * * * * * * * * * * * * * * * * * * * * * * * * * //

dimensions      [0 1 0 0 0 0 0];


internalField   nonuniform List<vector> 
3125
(
(-2.10252e-05 -2.33237e-05 -5.19426e-06)
(-1.5154e-05 -1.70988e-05 -4.85611e-06)
(-3.40451e-05 -3.64028e-05 -5.38892e-06)
(-2.79533e-05 -3.03386e-05 -5.33831e-06)
(-1.47774e-05 -1.6687e-05 -4.82474e-06)
(-1.45166e-05 -1.63125e-05 1.6187e-07)
(-9.5309e-06 -1.09133e-05 1.2352e-07)
(-1.47689e-05 -1.66818e-05 -4.64551e-06)
(-1.47848e-05 -1.66796e-05 -4.51141e-06)
(-1.4544e-05 -1.63152e-05 9.54648e-07)
(-9.53491e-06 -1.09174e-05 8.62426e-07)
(-1.478e-05 -1.66713e-05 -4.18266e-06)
(-2.10172e-05 -2.33067e-05 -4.99802e-06)
(-1.52731e-05 -1.71077e-05 1.66938e-07)
(-1.51455e-05 -1.70928e-05 -4.67547e-06)
(-2.07746e-05 -2.27391e-05 1.96275e-07)
(-2.10454e-05 -2.33202e-05 -4.87739e-06)
(-1.51623e-05 -1.70917e-05 -4.54211e-06)
(-2.1047e-05 -2.33016e-05 -4.52956e-06)
(-1.5304e-05 -1.71102e-05 9.6374e-07)
(-1.51579e-05 -1.70827e-05 -4.21162e-06)
(-2.08285e-05 -2.27405e-05 1.0057e-06)
(-2.14277e-05 -2.37389e-05 -5.20883e-06)
(-2.75431e-05 -2.99288e-05 -5.33494e-06)
(-2.14197e-05 -2.37213e-05 -5.01191e-06)
(-2.73035e-05 -2.92057e-05 2.12657e-07)
(-2.1582e-05 -2.35476e-05 1.99381e-07)
(-2.75356e-05 -2.99044e-05 -5.13247e-06)
(-2.14485e-05 -2.37356e-05 -4.89209e-06)
(-2.7571e-05 -2.99279e-05 -5.02158e-06)
(-2.14505e-05 -2.37165e-05 -4.54361e-06)
(-2.7377e-05 -2.92061e-05 1.02232e-06)
(-2.16388e-05 -2.35488e-05 1.00918e-06)
(-2.7577e-05 -2.99031e-05 -4.66882e-06)
(-3.41252e-05 -3.64654e-05 -5.21483e-06)
(-2.81253e-05 -3.00135e-05 2.13437e-07)
(-2.79459e-05 -3.03139e-05 -5.13575e-06)
(-3.4076e-05 -3.64037e-05 -5.08398e-06)
(-2.79816e-05 -3.03378e-05 -5.02519e-06)
(-3.4166e-05 -3.64641e-05 -4.78644e-06)
(-2.82005e-05 -3.00138e-05 1.02308e-06)
(-2.79877e-05 -3.03127e-05 -4.67243e-06)
(-1.82404e-05 -2.0414e-05 -5.0658e-06)
(-1.78483e-05 -1.99984e-05 -5.04344e-06)
(-3.12339e-05 -3.36049e-05 -5.35087e-06)
(-3.08242e-05 -3.31975e-05 -5.35039e-06)
(-1.18582e-05 -1.34332e-05 -4.52939e-06)
(-1.22131e-05 -1.38348e-05 -4.57077e-06)
(-9.55711e-06 -1.09207e-05 -2.28033e-06)
(-1.18494e-05 -1.34352e-05 -4.36294e-06)
(-1.16146e-05 -1.3229e-05 -2.42671e-06)
(-1.23071e-05 -1.39553e-05 1.45841e-07)
(-1.45235e-05 -1.63902e-05 -1.91167e-06)
(-1.23167e-05 -1.40034e-05 -1.83129e-06)
(-9.54431e-06 -1.09231e-05 -1.69372e-06)
(-1.15933e-05 -1.31819e-05 1.40309e-07)
(-1.16038e-05 -1.32203e-05 -1.80029e-06)
(-1.22043e-05 -1.38358e-05 -4.40256e-06)
(-1.45321e-05 -1.64136e-05 -2.58106e-06)
(-1.23269e-05 -1.40158e-05 -2.4695e-06)
(-1.18577e-05 -1.34236e-05 -4.2245e-06)
(-1.22136e-05 -1.38254e-05 -4.26448e-06)
(-9.54977e-06 -1.09049e-05 -1.46715e-06)
(-1.1849e-05 -1.34215e-05 -3.91275e-06)
(-1.16211e-05 -1.32156e-05 -1.58121e-06)
(-1.23243e-05 -1.39585e-05 9.21631e-07)
(-1.45501e-05 -1.6383e-05 -1.01891e-06)
(-1.233e-05 -1.39947e-05 -9.57509e-07)
(-9.53997e-06 -1.09121e-05 -8.61651e-07)
(-1.16071e-05 -1.31853e-05 9.08551e-07)
(-1.16127e-05 -1.3211e-05 -9.35019e-07)
(-1.22055e-05 -1.38225e-05 -3.95028e-06)
(-1.45566e-05 -1.64033e-05 -1.70899e-06)
(-1.2338e-05 -1.40032e-05 -1.61575e-06)
(-1.82322e-05 -2.04017e-05 -4.87559e-06)
(-2.07813e-05 -2.29404e-05 -2.77145e-06)
(-1.83891e-05 -2.04828e-05 -2.71636e-06)
(-1.52792e-05 -1.71952e-05 -1.93451e-06)
(-1.75923e-05 -1.95115e-05 1.80985e-07)
(-1.75963e-05 -1.96276e-05 -1.99228e-06)
(-1.784e-05 -1.99868e-05 -4.85427e-06)
(-1.52873e-05 -1.72222e-05 -2.61293e-06)
(-1.76029e-05 -1.9665e-05 -2.69392e-06)
(-2.07763e-05 -2.28907e-05 -2.04722e-06)
(-1.83795e-05 -2.03169e-05 1.85211e-07)
(-1.83829e-05 -2.04422e-05 -2.00822e-06)
(-1.82556e-05 -2.04089e-05 -4.74892e-06)
(-1.78626e-05 -1.99931e-05 -4.72671e-06)
(-1.82546e-05 -2.03944e-05 -4.40729e-06)
(-2.08378e-05 -2.29353e-05 -1.88361e-06)
(-1.84346e-05 -2.04759e-05 -1.83034e-06)
(-1.53101e-05 -1.71885e-05 -1.03733e-06)
(-1.76334e-05 -1.95135e-05 9.85971e-07)
(-1.76397e-05 -1.96224e-05 -1.08638e-06)
(-1.78612e-05 -1.99792e-05 -4.38622e-06)
(-1.53162e-05 -1.72126e-05 -1.73663e-06)
(-1.76444e-05 -1.96574e-05 -1.8094e-06)
(-2.08347e-05 -2.28871e-05 -1.1374e-06)
(-1.84239e-05 -2.03187e-05 9.91866e-07)
(-1.84302e-05 -2.04374e-05 -1.10066e-06)
(-2.4268e-05 -2.66375e-05 -5.28749e-06)
(-2.46763e-05 -2.70502e-05 -5.29566e-06)
(-2.15878e-05 -2.37598e-05 -2.78608e-06)
(-2.42603e-05 -2.66162e-05 -5.08692e-06)
(-2.40268e-05 -2.62151e-05 -2.82024e-06)
(-2.48414e-05 -2.67816e-05 2.08747e-07)
(-2.73022e-05 -2.94108e-05 -2.10095e-06)
(-2.4841e-05 -2.69699e-05 -2.08776e-06)
(-2.15832e-05 -2.37073e-05 -2.05756e-06)
(-2.40231e-05 -2.59733e-05 2.06865e-07)
(-2.4023e-05 -2.61551e-05 -2.08172e-06)
(-2.46686e-05 -2.70284e-05 -5.09473e-06)
(-2.7305e-05 -2.94786e-05 -2.84705e-06)
(-2.48444e-05 -2.70322e-05 -2.82873e-06)
(-2.42928e-05 -2.66354e-05 -4.97214e-06)
(-2.47015e-05 -2.70483e-05 -4.98056e-06)
(-2.16477e-05 -2.37552e-05 -1.8983e-06)
(-2.42969e-05 -2.66132e-05 -4.62051e-06)
(-2.40957e-05 -2.6212e-05 -1.93386e-06)
(-2.49087e-05 -2.67823e-05 1.01868e-06)
(-2.73827e-05 -2.94097e-05 -1.1944e-06)
(-2.49147e-05 -2.69681e-05 -1.1794e-06)
(-2.1645e-05 -2.37041e-05 -1.14766e-06)
(-2.4088e-05 -2.59741e-05 1.01689e-06)
(-2.4094e-05 -2.61529e-05 -1.1728e-06)
(-2.47059e-05 -2.70257e-05 -4.62866e-06)
(-2.73832e-05 -2.94771e-05 -1.96366e-06)
(-2.4916e-05 -2.70295e-05 -1.94306e-06)
(-3.12267e-05 -3.35786e-05 -5.14843e-06)
(-3.41143e-05 -3.61866e-05 -2.45523e-06)
(-3.14105e-05 -3.35437e-05 -2.85988e-06)
(-2.81237e-05 -3.02232e-05 -2.10395e-06)
(-3.05894e-05 -3.24375e-05 2.14592e-07)
(-3.05872e-05 -3.26579e-05 -2.10966e-06)
(-3.08169e-05 -3.31713e-05 -5.14788e-06)
(-2.81263e-05 -3.02925e-05 -2.85113e-06)
(-3.05894e-05 -3.27307e-05 -2.85866e-06)
(-3.41134e-05 -3.61486e-05 -2.07413e-06)
(-3.14107e-05 -3.32473e-05 2.1477e-07)
(-3.14083e-05 -3.347e-05 -2.11058e-06)
(-3.12639e-05 -3.36048e-05 -5.03933e-06)
(-3.0854e-05 -3.31974e-05 -5.03871e-06)
(-3.12711e-05 -3.35783e-05 -4.68732e-06)
(-3.4158e-05 -3.61868e-05 -2.01187e-06)
(-3.14956e-05 -3.35434e-05 -1.97962e-06)
(-2.82061e-05 -3.02223e-05 -1.19796e-06)
(-3.06687e-05 -3.24377e-05 1.02437e-06)
(-3.0674e-05 -3.26575e-05 -1.20505e-06)
(-3.08611e-05 -3.3171e-05 -4.68655e-06)
(-2.82063e-05 -3.02913e-05 -1.96845e-06)
(-3.06735e-05 -3.27302e-05 -1.97778e-06)
(-3.41575e-05 -3.61488e-05 -1.62766e-06)
(-3.1491e-05 -3.32475e-05 1.02452e-06)
(-3.14961e-05 -3.34699e-05 -1.20647e-06)
(-1.98241e-05 -2.20771e-05 -5.14503e-06)
(-1.62969e-05 -1.83387e-05 -4.94316e-06)
(-3.28806e-05 -3.52415e-05 -5.34939e-06)
(-2.91842e-05 -3.15657e-05 -5.3457e-06)
(-1.04708e-05 -1.18471e-05 -4.35062e-06)
(-1.36624e-05 -1.54571e-05 -4.7234e-06)
(-1.04618e-05 -1.18528e-05 -4.19159e-06)
(-1.04284e-05 -1.18631e-05 -3.25495e-06)
(-1.37696e-05 -1.55215e-05 1.56648e-07)
(-1.45158e-05 -1.63396e-05 -5.36895e-07)
(-1.37689e-05 -1.55454e-05 -5.32005e-07)
(-9.531e-06 -1.09191e-05 -4.88802e-07)
(-1.02043e-05 -1.16597e-05 1.29123e-07)
(-1.02043e-05 -1.16685e-05 -4.97861e-07)
(-1.36537e-05 -1.54545e-05 -4.54862e-06)
(-1.47464e-05 -1.6652e-05 -3.60968e-06)
(-1.36285e-05 -1.54341e-05 -3.53368e-06)
(-1.04661e-05 -1.18362e-05 -4.05245e-06)
(-1.36669e-05 -1.54489e-05 -4.41253e-06)
(-1.04554e-05 -1.18374e-05 -3.75141e-06)
(-1.04249e-05 -1.18515e-05 -2.81923e-06)
(-1.37936e-05 -1.55244e-05 9.44633e-07)
(-1.45436e-05 -1.63391e-05 3.06138e-07)
(-1.37929e-05 -1.55449e-05 3.05933e-07)
(-9.53262e-06 -1.09183e-05 2.96754e-07)
(-1.02116e-05 -1.16636e-05 8.78993e-07)
(-1.02096e-05 -1.16677e-05 2.99407e-07)
(-1.36606e-05 -1.54428e-05 -4.08949e-06)
(-1.47587e-05 -1.6644e-05 -3.15073e-06)
(-1.3637e-05 -1.54253e-05 -3.0786e-06)
(-1.98159e-05 -2.2062e-05 -4.95111e-06)
(-2.10065e-05 -2.32331e-05 -3.88654e-06)
(-1.98032e-05 -2.19952e-05 -3.84931e-06)
(-1.52722e-05 -1.71379e-05 -5.41241e-07)
(-1.60383e-05 -1.79064e-05 1.71828e-07)
(-1.60374e-05 -1.79397e-05 -5.45084e-07)
(-1.62884e-05 -1.83302e-05 -4.7586e-06)
(-1.51237e-05 -1.70597e-05 -3.63291e-06)
(-1.62692e-05 -1.82881e-05 -3.6982e-06)
(-2.07732e-05 -2.27901e-05 -5.59884e-07)
(-1.99714e-05 -2.1931e-05 1.9287e-07)
(-1.997e-05 -2.19792e-05 -5.58203e-07)
(-1.98422e-05 -2.20729e-05 -4.82794e-06)
(-1.63078e-05 -1.83323e-05 -4.62761e-06)
(-1.98428e-05 -2.2056e-05 -4.48241e-06)
(-2.10363e-05 -2.32291e-05 -3.42078e-06)
(-1.98302e-05 -2.19906e-05 -3.38354e-06)
(-1.53038e-05 -1.71374e-05 3.06061e-07)
(-1.60727e-05 -1.79087e-05 9.71958e-07)
(-1.60728e-05 -1.79392e-05 3.05737e-07)
(-1.63048e-05 -1.83211e-05 -4.29239e-06)
(-1.51372e-05 -1.7052e-05 -3.17288e-06)
(-1.62864e-05 -1.82812e-05 -3.23563e-06)
(-2.08297e-05 -2.27899e-05 3.00464e-07)
(-2.00221e-05 -2.19325e-05 1.00168e-06)
(-2.00232e-05 -2.19789e-05 3.01585e-07)
(-2.26406e-05 -2.4983e-05 -5.24737e-06)
(-2.6313e-05 -2.86974e-05 -5.32169e-06)
(-2.14095e-05 -2.36452e-05 -3.89746e-06)
(-2.26328e-05 -2.49637e-05 -5.04864e-06)
(-2.26244e-05 -2.48815e-05 -3.92686e-06)
(-2.6482e-05 -2.83978e-05 2.11629e-07)
(-2.73018e-05 -2.92745e-05 -5.67464e-07)
(-2.64804e-05 -2.84649e-05 -5.66864e-07)
(-2.15805e-05 -2.36013e-05 -5.61337e-07)
(-2.23929e-05 -2.43562e-05 2.02184e-07)
(-2.23914e-05 -2.44124e-05 -5.62591e-07)
(-2.63055e-05 -2.8674e-05 -5.11968e-06)
(-2.75327e-05 -2.98033e-05 -3.99577e-06)
(-2.63013e-05 -2.85765e-05 -3.98472e-06)
(-2.26633e-05 -2.49803e-05 -4.93114e-06)
(-2.63399e-05 -2.86961e-05 -5.00759e-06)
(-2.14402e-05 -2.36415e-05 -3.43176e-06)
(-2.26662e-05 -2.49597e-05 -4.58102e-06)
(-2.26577e-05 -2.48784e-05 -3.4616e-06)
(-2.65536e-05 -2.83983e-05 1.02136e-06)
(-2.73791e-05 -2.92745e-05 2.92031e-07)
(-2.65557e-05 -2.84648e-05 2.92876e-07)
(-2.16402e-05 -2.3601e-05 2.99312e-07)
(-2.24525e-05 -2.43573e-05 1.01218e-06)
(-2.2454e-05 -2.44122e-05 2.98151e-07)
(-2.63453e-05 -2.86721e-05 -4.65499e-06)
(-2.75738e-05 -2.98022e-05 -3.53343e-06)
(-2.63408e-05 -2.8575e-05 -3.52159e-06)
(-3.28776e-05 -3.52192e-05 -5.1504e-06)
(-3.41192e-05 -3.63429e-05 -4.01535e-06)
(-3.28837e-05 -3.51154e-05 -4.0143e-06)
(-2.81236e-05 -3.00839e-05 -5.6801e-07)
(-2.8947e-05 -3.08213e-05 2.13993e-07)
(-2.89453e-05 -3.0893e-05 -5.68504e-07)
(-2.91768e-05 -3.15403e-05 -5.14303e-06)
(-2.79431e-05 -3.02115e-05 -3.99864e-06)
(-2.9175e-05 -3.14352e-05 -4.00547e-06)
(-3.41117e-05 -3.59966e-05 -5.44503e-07)
(-3.30749e-05 -3.497e-05 -5.7019e-07)
(-3.29108e-05 -3.52413e-05 -5.03889e-06)
(-2.92132e-05 -3.15653e-05 -5.03325e-06)
(-3.29223e-05 -3.52188e-05 -4.69036e-06)
(-3.41642e-05 -3.63431e-05 -3.55914e-06)
(-3.29288e-05 -3.51154e-05 -3.55434e-06)
(-2.82027e-05 -3.00838e-05 2.91281e-07)
(-2.90238e-05 -3.08216e-05 1.02366e-06)
(-2.9026e-05 -3.0893e-05 2.9063e-07)
(-2.92198e-05 -3.15395e-05 -4.68065e-06)
(-2.79847e-05 -3.02105e-05 -3.53654e-06)
(-2.92179e-05 -3.14344e-05 -3.54407e-06)
(-3.41553e-05 -3.59968e-05 -1.07534e-07)
(-3.31609e-05 -3.49702e-05 2.91254e-07)
(-1.94261e-05 -2.16613e-05 -5.12672e-06)
(-1.66819e-05 -1.8753e-05 -4.96988e-06)
(-3.24658e-05 -3.48292e-05 -5.35054e-06)
(-2.95943e-05 -3.19741e-05 -5.34736e-06)
(-1.08126e-05 -1.22403e-05 -4.39733e-06)
(-1.32958e-05 -1.50494e-05 -4.68715e-06)
(-9.57365e-06 -1.09143e-05 -2.87219e-06)
(-1.02289e-05 -1.16802e-05 -2.3322e-06)
(-1.02446e-05 -1.16779e-05 -2.9381e-06)
(-1.08036e-05 -1.2245e-05 -4.23637e-06)
(-1.18197e-05 -1.34317e-05 -3.38882e-06)
(-1.0771e-05 -1.22517e-05 -3.28963e-06)
(-1.0915e-05 -1.245e-05 -2.38097e-06)
(-1.16288e-05 -1.32349e-05 -3.05845e-06)
(-1.09299e-05 -1.24518e-05 -3.00016e-06)
(-1.30328e-05 -1.47355e-05 1.51296e-07)
(-1.23067e-05 -1.3973e-05 -5.20411e-07)
(-1.30323e-05 -1.47563e-05 -5.26524e-07)
(-1.45181e-05 -1.63655e-05 -1.22917e-06)
(-1.37773e-05 -1.55894e-05 -1.8869e-06)
(-1.37715e-05 -1.55681e-05 -1.21428e-06)
(-1.231e-05 -1.39891e-05 -1.18053e-06)
(-1.30415e-05 -1.47935e-05 -1.86013e-06)
(-1.30352e-05 -1.47756e-05 -1.19808e-06)
(-9.53563e-06 -1.09225e-05 -1.09558e-06)
(-1.02168e-05 -1.16789e-05 -1.73158e-06)
(-1.02086e-05 -1.16749e-05 -1.11913e-06)
(-1.08921e-05 -1.24163e-05 1.34728e-07)
(-1.1593e-05 -1.31966e-05 -5.13625e-07)
(-1.08919e-05 -1.2428e-05 -5.06121e-07)
(-1.09035e-05 -1.24451e-05 -1.76708e-06)
(-1.15966e-05 -1.32094e-05 -1.16156e-06)
(-1.08958e-05 -1.24376e-05 -1.14111e-06)
(-1.32872e-05 -1.50477e-05 -4.51395e-06)
(-1.21755e-05 -1.38288e-05 -3.4195e-06)
(-1.32612e-05 -1.50308e-05 -3.50682e-06)
(-1.45434e-05 -1.64356e-05 -3.25585e-06)
(-1.37864e-05 -1.56091e-05 -2.54659e-06)
(-1.37984e-05 -1.56272e-05 -3.21167e-06)
(-1.23404e-05 -1.40258e-05 -3.11307e-06)
(-1.30511e-05 -1.48096e-05 -2.50944e-06)
(-1.30638e-05 -1.48236e-05 -3.16411e-06)
(-1.08089e-05 -1.22297e-05 -4.0973e-06)
(-1.32994e-05 -1.50409e-05 -4.37728e-06)
(-9.56376e-06 -1.08951e-05 -2.09192e-06)
(-1.02261e-05 -1.16652e-05 -1.50691e-06)
(-1.02394e-05 -1.16597e-05 -2.14626e-06)
(-1.07988e-05 -1.22301e-05 -3.79343e-06)
(-1.18217e-05 -1.34214e-05 -2.94295e-06)
(-1.0769e-05 -1.22404e-05 -2.85109e-06)
(-1.09168e-05 -1.24359e-05 -1.54493e-06)
(-1.16329e-05 -1.32186e-05 -2.24736e-06)
(-1.09294e-05 -1.24347e-05 -2.19808e-06)
(-1.30534e-05 -1.47385e-05 9.33644e-07)
(-1.23232e-05 -1.39724e-05 3.04529e-07)
(-1.30525e-05 -1.47557e-05 3.05409e-07)
(-1.45458e-05 -1.63617e-05 -3.48368e-07)
(-1.37995e-05 -1.55817e-05 -9.99465e-07)
(-1.37951e-05 -1.5564e-05 -3.38773e-07)
(-1.23252e-05 -1.39844e-05 -3.18578e-07)
(-1.30593e-05 -1.47853e-05 -9.78993e-07)
(-1.30546e-05 -1.47713e-05 -3.28835e-07)
(-9.53441e-06 -1.09166e-05 -2.74825e-07)
(-1.02168e-05 -1.16685e-05 -8.87078e-07)
(-1.02114e-05 -1.16694e-05 -2.86123e-07)
(-1.09026e-05 -1.242e-05 8.94353e-07)
(-1.16057e-05 -1.31959e-05 3.03261e-07)
(-1.09008e-05 -1.24273e-05 3.01565e-07)
(-1.0908e-05 -1.24352e-05 -9.11538e-07)
(-1.16076e-05 -1.32045e-05 -3.08024e-07)
(-1.09028e-05 -1.24324e-05 -2.97197e-07)
(-1.32927e-05 -1.50356e-05 -4.05632e-06)
(-1.21788e-05 -1.38188e-05 -2.97148e-06)
(-1.32684e-05 -1.50217e-05 -3.05332e-06)
(-1.45656e-05 -1.64231e-05 -2.41961e-06)
(-1.38065e-05 -1.55981e-05 -1.67964e-06)
(-1.38162e-05 -1.56137e-05 -2.38024e-06)
(-1.2349e-05 -1.40105e-05 -2.29415e-06)
(-1.30667e-05 -1.47977e-05 -1.64856e-06)
(-1.30771e-05 -1.48092e-05 -2.33843e-06)
(-1.94179e-05 -2.16469e-05 -4.93366e-06)
(-1.82166e-05 -2.03452e-05 -3.78982e-06)
(-1.94046e-05 -2.15828e-05 -3.83568e-06)
(-2.0788e-05 -2.29904e-05 -3.50092e-06)
(-1.99789e-05 -2.21209e-05 -2.75502e-06)
(-1.99861e-05 -2.21678e-05 -3.47972e-06)
(-1.83973e-05 -2.05232e-05 -3.42985e-06)
(-1.91813e-05 -2.13016e-05 -2.7367e-06)
(-1.9189e-05 -2.13453e-05 -3.45607e-06)
(-1.52742e-05 -1.71671e-05 -1.24282e-06)
(-1.60437e-05 -1.80036e-05 -1.95551e-06)
(-1.60391e-05 -1.7972e-05 -1.2553e-06)
(-1.68116e-05 -1.87078e-05 1.76518e-07)
(-1.75911e-05 -1.95509e-05 -5.51428e-07)
(-1.68106e-05 -1.87442e-05 -5.48465e-07)
(-1.68163e-05 -1.88146e-05 -1.97474e-06)
(-1.75924e-05 -1.95896e-05 -1.27696e-06)
(-1.68121e-05 -1.87797e-05 -1.26666e-06)
(-1.66735e-05 -1.87437e-05 -4.7841e-06)
(-1.78238e-05 -1.99333e-05 -3.77322e-06)
(-1.6655e-05 -1.86986e-05 -3.71799e-06)
(-1.52979e-05 -1.7248e-05 -3.29675e-06)
(-1.60513e-05 -1.80341e-05 -2.6423e-06)
(-1.60613e-05 -1.80637e-05 -3.33449e-06)
(-1.76117e-05 -1.97018e-05 -3.40092e-06)
(-1.68234e-05 -1.88485e-05 -2.66926e-06)
(-1.68328e-05 -1.88818e-05 -3.36917e-06)
(-2.07737e-05 -2.28406e-05 -1.30883e-06)
(-1.99736e-05 -2.20741e-05 -2.03561e-06)
(-1.99706e-05 -2.20269e-05 -1.30214e-06)
(-1.91728e-05 -2.11235e-05 1.89177e-07)
(-1.83783e-05 -2.03593e-05 -5.54012e-07)
(-1.91715e-05 -2.11688e-05 -5.56258e-07)
(-1.91755e-05 -2.12579e-05 -2.02264e-06)
(-1.83794e-05 -2.0401e-05 -1.28626e-06)
(-1.91723e-05 -2.12136e-05 -1.29464e-06)
(-1.94435e-05 -2.16569e-05 -4.80963e-06)
(-1.66938e-05 -1.8747e-05 -4.65396e-06)
(-1.94437e-05 -2.16406e-05 -4.46497e-06)
(-1.82395e-05 -2.03397e-05 -3.32476e-06)
(-1.94306e-05 -2.1578e-05 -3.37001e-06)
(-2.08417e-05 -2.29841e-05 -2.6505e-06)
(-2.00319e-05 -2.21152e-05 -1.86741e-06)
(-2.00364e-05 -2.21609e-05 -2.62939e-06)
(-1.84402e-05 -2.05148e-05 -2.58079e-06)
(-1.92306e-05 -2.12953e-05 -1.84966e-06)
(-1.92357e-05 -2.13376e-05 -2.60617e-06)
(-1.5306e-05 -1.71635e-05 -3.57597e-07)
(-1.60789e-05 -1.79974e-05 -1.05472e-06)
(-1.6075e-05 -1.79688e-05 -3.66441e-07)
(-1.68494e-05 -1.871e-05 9.79351e-07)
(-1.76339e-05 -1.95505e-05 3.04485e-07)
(-1.68497e-05 -1.87438e-05 3.05201e-07)
(-1.68556e-05 -1.88088e-05 -1.07107e-06)
(-1.76361e-05 -1.95868e-05 -3.82898e-07)
(-1.68519e-05 -1.87767e-05 -3.74879e-07)
(-1.66912e-05 -1.87351e-05 -4.31731e-06)
(-1.78455e-05 -1.99275e-05 -3.30852e-06)
(-1.66733e-05 -1.8692e-05 -3.25475e-06)
(-1.53245e-05 -1.72364e-05 -2.45655e-06)
(-1.60845e-05 -1.80252e-05 -1.76256e-06)
(-1.60921e-05 -1.80529e-05 -2.4911e-06)
(-1.76507e-05 -1.96927e-05 -2.55318e-06)
(-1.68608e-05 -1.88403e-05 -1.78681e-06)
(-1.68678e-05 -1.88718e-05 -2.5233e-06)
(-2.0832e-05 -2.28387e-05 -4.10489e-07)
(-2.00284e-05 -2.20701e-05 -1.12616e-06)
(-2.00255e-05 -2.20247e-05 -4.04282e-07)
(-1.92204e-05 -2.11251e-05 9.97087e-07)
(-1.84246e-05 -2.03589e-05 3.03624e-07)
(-1.92213e-05 -2.11685e-05 3.02647e-07)
(-1.92267e-05 -2.12535e-05 -1.11392e-06)
(-1.84269e-05 -2.03984e-05 -3.90478e-07)
(-1.92236e-05 -2.12112e-05 -3.9761e-07)
(-2.30465e-05 -2.53971e-05 -5.25856e-06)
(-2.59034e-05 -2.82862e-05 -5.31613e-06)
(-2.15941e-05 -2.38127e-05 -3.51978e-06)
(-2.23979e-05 -2.45788e-05 -2.79902e-06)
(-2.24038e-05 -2.46344e-05 -3.53646e-06)
(-2.30387e-05 -2.53773e-05 -5.05931e-06)
(-2.42541e-05 -2.65265e-05 -3.95772e-06)
(-2.30307e-05 -2.5293e-05 -3.93533e-06)
(-2.32111e-05 -2.53973e-05 -2.81037e-06)
(-2.40318e-05 -2.62758e-05 -3.56372e-06)
(-2.32165e-05 -2.54555e-05 -3.55106e-06)
(-2.56612e-05 -2.75898e-05 2.10331e-07)
(-2.48398e-05 -2.68448e-05 -5.65461e-07)
(-2.56595e-05 -2.7655e-05 -5.66201e-07)
(-2.73012e-05 -2.93428e-05 -1.33981e-06)
(-2.6481e-05 -2.85978e-05 -2.0973e-06)
(-2.64798e-05 -2.85315e-05 -1.33765e-06)
(-2.48395e-05 -2.69075e-05 -1.33209e-06)
(-2.56604e-05 -2.77842e-05 -2.09293e-06)
(-2.56591e-05 -2.77197e-05 -1.33509e-06)
(-2.15808e-05 -2.36544e-05 -1.31476e-06)
(-2.23936e-05 -2.45236e-05 -2.0667e-06)
(-2.23915e-05 -2.44681e-05 -1.32e-06)
(-2.32068e-05 -2.51648e-05 2.04679e-07)
(-2.40215e-05 -2.60343e-05 -5.64627e-07)
(-2.32052e-05 -2.52235e-05 -5.63679e-07)
(-2.32071e-05 -2.53396e-05 -2.07473e-06)
(-2.40214e-05 -2.60948e-05 -1.32861e-06)
(-2.32052e-05 -2.52816e-05 -1.3246e-06)
(-2.58958e-05 -2.82632e-05 -5.11434e-06)
(-2.46626e-05 -2.69369e-05 -3.96402e-06)
(-2.58913e-05 -2.81672e-05 -3.98029e-06)
(-2.73088e-05 -2.95472e-05 -3.59774e-06)
(-2.6484e-05 -2.86639e-05 -2.84204e-06)
(-2.6488e-05 -2.87308e-05 -3.59146e-06)
(-2.48491e-05 -2.70951e-05 -3.57459e-06)
(-2.56636e-05 -2.78485e-05 -2.83596e-06)
(-2.5668e-05 -2.79135e-05 -3.58379e-06)
(-2.30697e-05 -2.53946e-05 -4.94253e-06)
(-2.59299e-05 -2.82848e-05 -5.00178e-06)
(-2.16511e-05 -2.38071e-05 -2.66957e-06)
(-2.2461e-05 -2.45747e-05 -1.91154e-06)
(-2.24638e-05 -2.46295e-05 -2.68667e-06)
(-2.3073e-05 -2.53736e-05 -4.59197e-06)
(-2.42904e-05 -2.65242e-05 -3.49331e-06)
(-2.30649e-05 -2.52901e-05 -3.47024e-06)
(-2.32772e-05 -2.53937e-05 -1.92338e-06)
(-2.40975e-05 -2.6272e-05 -2.71528e-06)
(-2.32795e-05 -2.54512e-05 -2.70188e-06)
(-2.57307e-05 -2.75904e-05 1.02016e-06)
(-2.49105e-05 -2.68447e-05 2.94814e-07)
(-2.57327e-05 -2.76549e-05 2.93809e-07)
(-2.73813e-05 -2.93422e-05 -4.43513e-07)
(-2.65594e-05 -2.85965e-05 -1.19015e-06)
(-2.65578e-05 -2.85308e-05 -4.40922e-07)
(-2.49128e-05 -2.69065e-05 -4.34488e-07)
(-2.57366e-05 -2.77826e-05 -1.18517e-06)
(-2.57349e-05 -2.77189e-05 -4.3792e-07)
(-2.16424e-05 -2.36527e-05 -4.16224e-07)
(-2.24587e-05 -2.45208e-05 -1.15696e-06)
(-2.24563e-05 -2.44666e-05 -4.21488e-07)
(-2.32691e-05 -2.51657e-05 1.01473e-06)
(-2.40897e-05 -2.60341e-05 2.95884e-07)
(-2.32707e-05 -2.52233e-05 2.97001e-07)
(-2.32752e-05 -2.53371e-05 -1.16533e-06)
(-2.4092e-05 -2.60936e-05 -4.30613e-07)
(-2.3273e-05 -2.52803e-05 -4.26282e-07)
(-2.5935e-05 -2.82611e-05 -4.6493e-06)
(-2.46997e-05 -2.69348e-05 -3.49985e-06)
(-2.59303e-05 -2.81655e-05 -3.51691e-06)
(-2.73834e-05 -2.95453e-05 -2.75276e-06)
(-2.65602e-05 -2.8662e-05 -1.95789e-06)
(-2.65607e-05 -2.87285e-05 -2.7456e-06)
(-2.49173e-05 -2.70919e-05 -2.72697e-06)
(-2.57376e-05 -2.78462e-05 -1.95105e-06)
(-2.57386e-05 -2.79107e-05 -2.73704e-06)
(-3.24605e-05 -3.48046e-05 -5.14933e-06)
(-3.12264e-05 -3.34704e-05 -4.01151e-06)
(-3.24645e-05 -3.46991e-05 -4.01336e-06)
(-3.41181e-05 -3.63026e-05 -3.61194e-06)
(-3.30762e-05 -3.51953e-05 -2.86284e-06)
(-3.30801e-05 -3.52722e-05 -3.61697e-06)
(-3.14132e-05 -3.36181e-05 -3.61317e-06)
(-3.22357e-05 -3.43615e-05 -2.86075e-06)
(-3.22388e-05 -3.44369e-05 -3.61424e-06)
(-2.81229e-05 -3.01536e-05 -1.34162e-06)
(-2.89452e-05 -3.10351e-05 -2.10636e-06)
(-2.89445e-05 -3.09642e-05 -1.34312e-06)
(-2.97684e-05 -3.16292e-05 2.14361e-07)
(-3.05876e-05 -3.25115e-05 -5.69294e-07)
(-2.97667e-05 -3.17022e-05 -5.68944e-07)
(-2.97664e-05 -3.18465e-05 -2.10825e-06)
(-3.05867e-05 -3.25848e-05 -1.34522e-06)
(-2.97658e-05 -3.17745e-05 -1.34432e-06)
(-2.9587e-05 -3.19484e-05 -5.1447e-06)
(-3.08163e-05 -3.30636e-05 -4.01074e-06)
(-2.95853e-05 -3.18423e-05 -4.00711e-06)
(-2.81298e-05 -3.03627e-05 -3.60278e-06)
(-2.89476e-05 -3.11057e-05 -2.85436e-06)
(-2.89509e-05 -3.11772e-05 -3.6067e-06)
(-3.05923e-05 -3.28043e-05 -3.61177e-06)
(-2.97687e-05 -3.19184e-05 -2.85684e-06)
(-2.97718e-05 -3.1991e-05 -3.60966e-06)
(-3.41118e-05 -3.60346e-05 -9.2755e-07)
(-3.30728e-05 -3.51191e-05 -2.11185e-06)
(-3.30726e-05 -3.50441e-05 -1.34642e-06)
(-3.22365e-05 -3.40628e-05 2.14865e-07)
(-3.1409e-05 -3.33221e-05 -5.69482e-07)
(-3.22344e-05 -3.41379e-05 -5.69459e-07)
(-3.22332e-05 -3.42868e-05 -2.11109e-06)
(-3.14079e-05 -3.33962e-05 -1.34579e-06)
(-3.22329e-05 -3.42123e-05 -1.346e-06)
(-3.2496e-05 -3.48291e-05 -5.03953e-06)
(-2.96236e-05 -3.19738e-05 -5.03512e-06)
(-3.25053e-05 -3.48043e-05 -4.6889e-06)
(-3.12707e-05 -3.34701e-05 -3.55104e-06)
(-3.25094e-05 -3.46989e-05 -3.55341e-06)
(-3.41614e-05 -3.63028e-05 -3.1721e-06)
(-3.31629e-05 -3.51954e-05 -1.98122e-06)
(-3.31629e-05 -3.52722e-05 -2.77333e-06)
(-3.14944e-05 -3.36177e-05 -2.77184e-06)
(-3.23217e-05 -3.43614e-05 -1.98098e-06)
(-3.23207e-05 -3.44367e-05 -2.77342e-06)
(-2.82048e-05 -3.01532e-05 -4.45708e-07)
(-2.90293e-05 -3.10344e-05 -1.20088e-06)
(-2.90281e-05 -3.09638e-05 -4.47535e-07)
(-2.98465e-05 -3.16295e-05 1.02408e-06)
(-3.0671e-05 -3.25116e-05 2.89613e-07)
(-2.98488e-05 -3.17022e-05 2.90077e-07)
(-2.98519e-05 -3.18461e-05 -1.20321e-06)
(-3.0673e-05 -3.25847e-05 -4.50197e-07)
(-2.98508e-05 -3.17743e-05 -4.49018e-07)
(-2.96303e-05 -3.19478e-05 -4.6826e-06)
(-3.08603e-05 -3.30632e-05 -3.55011e-06)
(-2.96285e-05 -3.18417e-05 -3.54591e-06)
(-2.82062e-05 -3.03611e-05 -2.75863e-06)
(-2.90292e-05 -3.11048e-05 -1.97233e-06)
(-2.90288e-05 -3.1176e-05 -2.76333e-06)
(-3.06725e-05 -3.28036e-05 -2.76976e-06)
(-2.98517e-05 -3.19176e-05 -1.97541e-06)
(-2.98509e-05 -3.19901e-05 -2.76699e-06)
(-3.41559e-05 -3.60348e-05 -4.85269e-07)
(-3.31622e-05 -3.51192e-05 -1.20724e-06)
(-3.31615e-05 -3.50443e-05 -4.50731e-07)
(-3.23177e-05 -3.4063e-05 1.02486e-06)
(-3.14934e-05 -3.33222e-05 2.8922e-07)
(-3.23196e-05 -3.4138e-05 2.89174e-07)
(-3.23219e-05 -3.42867e-05 -1.20744e-06)
(-3.14953e-05 -3.33961e-05 -4.51127e-07)
(-3.23211e-05 -3.42123e-05 -4.51651e-07)
(-2.06237e-05 -2.29083e-05 -5.17878e-06)
(-1.55328e-05 -1.75115e-05 -4.88629e-06)
(-3.36999e-05 -3.60561e-05 -5.35258e-06)
(-2.83636e-05 -3.0748e-05 -5.34121e-06)
(-9.79799e-06 -1.10683e-05 -4.25311e-06)
(-1.44033e-05 -1.6276e-05 -4.79218e-06)
(-9.78192e-06 -1.10968e-05 -4.16617e-06)
(-9.78895e-06 -1.10759e-05 -4.09804e-06)
(-9.79257e-06 -1.10895e-05 -4.3497e-06)
(-9.77609e-06 -1.10823e-05 -3.78265e-06)
(-1.43761e-05 -1.62719e-05 -4.66825e-06)
(-1.43947e-05 -1.62717e-05 -4.61439e-06)
(-1.47591e-05 -1.66876e-05 -4.91e-06)
(-1.47609e-05 -1.66718e-05 -4.28947e-06)
(-1.43858e-05 -1.6278e-05 -4.87852e-06)
(-1.43863e-05 -1.62628e-05 -4.26063e-06)
(-1.47495e-05 -1.66806e-05 -4.69805e-06)
(-9.7912e-06 -1.10568e-05 -3.95903e-06)
(-1.44097e-05 -1.62683e-05 -4.47958e-06)
(-9.759e-06 -1.10559e-05 -2.96083e-06)
(-9.77946e-06 -1.10596e-05 -3.66393e-06)
(-9.76802e-06 -1.10678e-05 -3.35453e-06)
(-9.77056e-06 -1.10511e-05 -3.29788e-06)
(-1.44045e-05 -1.62444e-05 -3.38564e-06)
(-1.44044e-05 -1.62608e-05 -4.15265e-06)
(-1.47723e-05 -1.66623e-05 -3.83271e-06)
(-1.47863e-05 -1.66628e-05 -3.78864e-06)
(-1.43964e-05 -1.6253e-05 -3.80499e-06)
(-1.44097e-05 -1.62522e-05 -3.75986e-06)
(-1.47816e-05 -1.6654e-05 -3.41229e-06)
(-2.05853e-05 -2.28715e-05 -5.01616e-06)
(-2.06156e-05 -2.28919e-05 -4.98327e-06)
(-2.09951e-05 -2.33055e-05 -5.26162e-06)
(-2.10135e-05 -2.32816e-05 -4.61653e-06)
(-2.05942e-05 -2.28911e-05 -5.24716e-06)
(-2.06117e-05 -2.28676e-05 -4.60279e-06)
(-2.09863e-05 -2.32853e-05 -5.02978e-06)
(-1.55033e-05 -1.75005e-05 -4.75414e-06)
(-1.55243e-05 -1.75046e-05 -4.7043e-06)
(-1.51348e-05 -1.70981e-05 -4.94025e-06)
(-1.51377e-05 -1.70817e-05 -4.31721e-06)
(-1.55128e-05 -1.75094e-05 -4.96931e-06)
(-1.51252e-05 -1.70901e-05 -4.72666e-06)
(-1.55169e-05 -1.74925e-05 -4.34393e-06)
(-2.06432e-05 -2.29046e-05 -4.86181e-06)
(-1.5542e-05 -1.75046e-05 -4.5717e-06)
(-2.06657e-05 -2.28578e-05 -3.71364e-06)
(-2.06445e-05 -2.28866e-05 -4.51469e-06)
(-2.1043e-05 -2.3277e-05 -4.15385e-06)
(-2.10674e-05 -2.32935e-05 -4.12673e-06)
(-2.06403e-05 -2.28627e-05 -4.14001e-06)
(-2.06642e-05 -2.28784e-05 -4.11197e-06)
(-2.10693e-05 -2.32723e-05 -3.72754e-06)
(-1.55426e-05 -1.74758e-05 -3.46303e-06)
(-1.55381e-05 -1.74948e-05 -4.23956e-06)
(-1.51504e-05 -1.70726e-05 -3.85944e-06)
(-1.51653e-05 -1.70742e-05 -3.81648e-06)
(-1.5161e-05 -1.70645e-05 -3.43807e-06)
(-1.55309e-05 -1.74837e-05 -3.88526e-06)
(-1.55464e-05 -1.74864e-05 -3.84339e-06)
(-2.18311e-05 -2.41539e-05 -5.22253e-06)
(-2.71329e-05 -2.95187e-05 -5.33107e-06)
(-2.17912e-05 -2.41122e-05 -5.05455e-06)
(-2.1397e-05 -2.37197e-05 -5.2752e-06)
(-2.14163e-05 -2.36954e-05 -4.62946e-06)
(-2.18232e-05 -2.41357e-05 -5.02496e-06)
(-2.13882e-05 -2.36988e-05 -5.04256e-06)
(-2.17999e-05 -2.41338e-05 -5.28794e-06)
(-2.182e-05 -2.41091e-05 -4.64164e-06)
(-2.70878e-05 -2.94612e-05 -5.14844e-06)
(-2.71254e-05 -2.94947e-05 -5.12872e-06)
(-2.7506e-05 -2.98989e-05 -5.39096e-06)
(-2.75348e-05 -2.987e-05 -4.74285e-06)
(-2.70962e-05 -2.94893e-05 -5.38748e-06)
(-2.71245e-05 -2.94606e-05 -4.73922e-06)
(-2.74977e-05 -2.98704e-05 -5.15176e-06)
(-2.18526e-05 -2.41508e-05 -4.90594e-06)
(-2.71606e-05 -2.95177e-05 -5.01746e-06)
(-2.18793e-05 -2.41007e-05 -3.75319e-06)
(-2.14467e-05 -2.36911e-05 -4.16692e-06)
(-2.14716e-05 -2.37085e-05 -4.14071e-06)
(-2.18549e-05 -2.41312e-05 -4.55686e-06)
(-2.14739e-05 -2.36866e-05 -3.74071e-06)
(-2.18513e-05 -2.4105e-05 -4.17926e-06)
(-2.18767e-05 -2.41231e-05 -4.15393e-06)
(-2.72013e-05 -2.94571e-05 -3.85765e-06)
(-2.71663e-05 -2.94931e-05 -4.66473e-06)
(-2.75756e-05 -2.98687e-05 -4.28451e-06)
(-2.76061e-05 -2.98957e-05 -4.26768e-06)
(-2.71648e-05 -2.94591e-05 -4.28058e-06)
(-2.71951e-05 -2.94857e-05 -4.26339e-06)
(-2.76125e-05 -2.98668e-05 -3.86185e-06)
(-3.36902e-05 -3.60295e-05 -5.17647e-06)
(-3.37304e-05 -3.60686e-05 -5.1707e-06)
(-3.40922e-05 -3.64536e-05 -5.42898e-06)
(-3.41252e-05 -3.64245e-05 -4.79483e-06)
(-3.36908e-05 -3.60531e-05 -5.41383e-06)
(-3.37412e-05 -3.60423e-05 -4.78878e-06)
(-3.40827e-05 -3.64205e-05 -5.18612e-06)
(-2.83178e-05 -3.0688e-05 -5.15715e-06)
(-2.83562e-05 -3.0723e-05 -5.13859e-06)
(-2.7916e-05 -3.03081e-05 -5.39397e-06)
(-2.79452e-05 -3.02791e-05 -4.74603e-06)
(-2.8326e-05 -3.07171e-05 -5.39655e-06)
(-2.79077e-05 -3.02793e-05 -5.15465e-06)
(-2.83557e-05 -3.06878e-05 -4.74881e-06)
(-3.373e-05 -3.60565e-05 -5.04901e-06)
(-2.83922e-05 -3.07473e-05 -5.02832e-06)
(-3.38143e-05 -3.60286e-05 -3.90269e-06)
(-3.37744e-05 -3.60683e-05 -4.71921e-06)
(-3.41675e-05 -3.64244e-05 -4.36246e-06)
(-3.41902e-05 -3.64453e-05 -4.34509e-06)
(-3.37858e-05 -3.60419e-05 -4.33116e-06)
(-3.37976e-05 -3.60514e-05 -4.30792e-06)
(-3.42046e-05 -3.64191e-05 -3.92914e-06)
(-2.84351e-05 -3.06851e-05 -3.86893e-06)
(-2.83984e-05 -3.0722e-05 -4.67559e-06)
(-2.79865e-05 -3.02779e-05 -4.288e-06)
(-2.80172e-05 -3.03053e-05 -4.2715e-06)
(-2.80238e-05 -3.02761e-05 -3.8656e-06)
(-2.83973e-05 -3.06868e-05 -4.29108e-06)
(-2.84283e-05 -3.07146e-05 -4.27485e-06)
(-3.38204e-05 -3.55464e-05 1.0674e-06)
(-3.41547e-05 -3.59206e-05 6.46942e-07)
(-3.37734e-05 -3.55419e-05 6.46555e-07)
(-3.41993e-05 -3.59233e-05 1.06346e-06)
(-1.86342e-05 -2.08297e-05 -5.08713e-06)
(-1.74577e-05 -1.9583e-05 -5.02001e-06)
(-3.16436e-05 -3.40122e-05 -5.3511e-06)
(-3.04143e-05 -3.279e-05 -5.34967e-06)
(-1.15064e-05 -1.30335e-05 -4.4867e-06)
(-1.25711e-05 -1.42381e-05 -4.61085e-06)
(-1.14859e-05 -1.30491e-05 -4.38557e-06)
(-1.14975e-05 -1.30364e-05 -4.32203e-06)
(-1.18471e-05 -1.34453e-05 -4.62235e-06)
(-1.18387e-05 -1.34343e-05 -4.02783e-06)
(-1.14962e-05 -1.30471e-05 -4.58042e-06)
(-1.18369e-05 -1.34463e-05 -4.42541e-06)
(-1.14864e-05 -1.30368e-05 -3.98994e-06)
(-1.25482e-05 -1.42462e-05 -4.50112e-06)
(-1.25624e-05 -1.42382e-05 -4.44093e-06)
(-1.22011e-05 -1.38454e-05 -4.66291e-06)
(-1.2194e-05 -1.38338e-05 -4.06449e-06)
(-1.25582e-05 -1.42472e-05 -4.70212e-06)
(-1.2191e-05 -1.38453e-05 -4.46389e-06)
(-1.25524e-05 -1.4235e-05 -4.10003e-06)
(-1.15048e-05 -1.30236e-05 -4.18332e-06)
(-1.25727e-05 -1.42291e-05 -4.30326e-06)
(-1.14833e-05 -1.30135e-05 -3.14163e-06)
(-1.14956e-05 -1.30223e-05 -3.87409e-06)
(-1.18392e-05 -1.3422e-05 -3.58373e-06)
(-1.18468e-05 -1.34129e-05 -3.53162e-06)