/*--------------------------------*- C++ -*----------------------------------*\
| =========                 |                                                 |
| \\      /  F ield         | OpenFOAM: The Open Source CFD Toolbox           |
|  \\    /   O peration     | Version:  2012                                  |
|   \\  /    A nd           | Website:  www.openfoam.com                      |
|    \\/     M anipulation  |                                                 |
\*---------------------------------------------------------------------------*/
FoamFile
{
    version     2.0;
    format      ascii;
    class       volVectorField;
    location    "0.105/solid";
    object      D_0_0_0;
}
// * * * * * * * * * * * * * * * * * * * * * * * * * * * * * * * * * * * * * //

dimensions      [0 1 0 0 0 0 0];


internalField   nonuniform List<vector> 
3125
(
(-1.13367e-05 -2.41173e-05 -2.87494e-06)
(-8.17065e-06 -1.77241e-05 -2.69185e-06)
(-1.83626e-05 -3.75668e-05 -2.95461e-06)
(-1.50737e-05 -3.13278e-05 -2.95164e-06)
(-7.96763e-06 -1.73012e-05 -2.67477e-06)
(-7.82135e-06 -1.68974e-05 -1.01646e-07)
(-5.13521e-06 -1.1334e-05 -1.09772e-07)
(-7.96184e-06 -1.72941e-05 -2.61453e-06)
(-7.97637e-06 -1.72972e-05 -2.35291e-06)
(-7.85249e-06 -1.68988e-05 7.14814e-07)
(-5.14469e-06 -1.13362e-05 6.52272e-07)
(-7.97497e-06 -1.72884e-05 -2.13902e-06)
(-1.133e-05 -2.40993e-05 -2.80606e-06)
(-8.22896e-06 -1.77162e-05 -9.98422e-08)
(-8.16478e-06 -1.77162e-05 -2.63094e-06)
(-1.11935e-05 -2.35138e-05 -8.69103e-08)
(-1.13576e-05 -2.41154e-05 -2.54936e-06)
(-8.18028e-06 -1.77203e-05 -2.36932e-06)
(-1.13609e-05 -2.40965e-05 -2.32466e-06)
(-8.2633e-06 -1.77175e-05 7.20675e-07)
(-8.1792e-06 -1.77108e-05 -2.1544e-06)
(-1.12493e-05 -2.35145e-05 7.46364e-07)
(-1.15538e-05 -2.45439e-05 -2.88277e-06)
(-1.48524e-05 -3.09064e-05 -2.94989e-06)
(-1.1547e-05 -2.45253e-05 -2.8135e-06)
(-1.47127e-05 -3.01711e-05 -7.80833e-08)
(-1.16286e-05 -2.43461e-05 -8.53175e-08)
(-1.48452e-05 -3.08816e-05 -2.87739e-06)
(-1.15753e-05 -2.45421e-05 -2.5573e-06)
(-1.48807e-05 -3.09059e-05 -2.6276e-06)
(-1.15789e-05 -2.45227e-05 -2.33225e-06)
(-1.47871e-05 -3.01713e-05 7.55485e-07)
(-1.16871e-05 -2.43467e-05 7.48344e-07)
(-1.48871e-05 -3.08809e-05 -2.4005e-06)
(-1.84025e-05 -3.76317e-05 -2.89518e-06)
(-1.51558e-05 -3.10028e-05 -7.76463e-08)
(-1.50665e-05 -3.13027e-05 -2.87907e-06)
(-1.83922e-05 -3.75678e-05 -2.65145e-06)
(-1.51023e-05 -3.13274e-05 -2.62958e-06)
(-1.84431e-05 -3.76305e-05 -2.46509e-06)
(-1.52318e-05 -3.1003e-05 7.55889e-07)
(-1.51088e-05 -3.13021e-05 -2.4025e-06)
(-9.83492e-06 -2.11286e-05 -2.80567e-06)
(-9.62343e-06 -2.07018e-05 -2.79357e-06)
(-1.68435e-05 -3.46879e-05 -2.95791e-06)
(-1.66225e-05 -3.42688e-05 -2.95772e-06)
(-6.39382e-06 -1.39593e-05 -2.51336e-06)
(-6.58517e-06 -1.43718e-05 -2.53602e-06)
(-5.1517e-06 -1.13572e-05 -1.42445e-06)
(-6.38862e-06 -1.39588e-05 -2.45902e-06)
(-6.2593e-06 -1.37331e-05 -1.51109e-06)
(-6.63097e-06 -1.44694e-05 -1.06348e-07)
(-7.82502e-06 -1.69831e-05 -1.24463e-06)
(-6.63667e-06 -1.45271e-05 -1.19679e-06)
(-5.14403e-06 -1.13556e-05 -1.11271e-06)
(-6.24636e-06 -1.36725e-05 -1.07574e-07)
(-6.25281e-06 -1.37211e-05 -1.17806e-06)
(-6.57988e-06 -1.43705e-05 -2.4809e-06)
(-7.83014e-06 -1.70092e-05 -1.60066e-06)
(-6.6428e-06 -1.45428e-05 -1.53613e-06)
(-6.39504e-06 -1.39541e-05 -2.20006e-06)
(-6.58736e-06 -1.43668e-05 -2.22131e-06)
(-5.15019e-06 -1.13485e-05 -5.87162e-07)
(-6.39081e-06 -1.39514e-05 -1.99633e-06)
(-6.27077e-06 -1.37258e-05 -6.41119e-07)
(-6.65255e-06 -1.44711e-05 6.92968e-07)
(-7.85571e-06 -1.69791e-05 -3.26195e-07)
(-6.65494e-06 -1.45224e-05 -2.97546e-07)
(-5.14571e-06 -1.13497e-05 -2.55643e-07)
(-6.26483e-06 -1.36744e-05 6.84119e-07)
(-6.2669e-06 -1.3716e-05 -2.87415e-07)
(-6.5835e-06 -1.43633e-05 -2.0161e-06)
(-7.85868e-06 -1.70035e-05 -7.03802e-07)
(-6.65858e-06 -1.45359e-05 -6.57818e-07)
(-9.82854e-06 -2.11149e-05 -2.73998e-06)
(-1.11962e-05 -2.37211e-05 -1.70714e-06)
(-9.90745e-06 -2.11938e-05 -1.67697e-06)
(-8.232e-06 -1.78112e-05 -1.25799e-06)
(-9.47858e-06 -2.01911e-05 -9.41503e-08)
(-9.47996e-06 -2.03133e-05 -1.29122e-06)
(-9.61711e-06 -2.06887e-05 -2.72841e-06)
(-8.23682e-06 -1.78408e-05 -1.61886e-06)
(-9.48396e-06 -2.03528e-05 -1.6645e-06)
(-1.11931e-05 -2.36698e-05 -1.32179e-06)
(-9.90279e-06 -2.10202e-05 -9.2252e-08)
(-9.90369e-06 -2.11512e-05 -1.30021e-06)
(-9.85107e-06 -2.11259e-05 -2.48016e-06)
(-9.63882e-06 -2.06989e-05 -2.46823e-06)
(-9.85249e-06 -2.11109e-05 -2.25885e-06)
(-1.12549e-05 -2.37182e-05 -7.94104e-07)
(-9.95575e-06 -2.119e-05 -7.65898e-07)
(-8.26675e-06 -1.78075e-05 -3.3508e-07)
(-9.52243e-06 -2.01921e-05 7.34628e-07)
(-9.52646e-06 -2.03104e-05 -3.59441e-07)
(-9.63995e-06 -2.06846e-05 -2.24756e-06)
(-8.2695e-06 -1.78355e-05 -7.17707e-07)
(-9.52852e-06 -2.03486e-05 -7.54979e-07)
(-1.12538e-05 -2.36678e-05 -3.85935e-07)
(-9.94974e-06 -2.10211e-05 7.38213e-07)
(-9.95391e-06 -2.11486e-05 -3.66733e-07)
(-1.30857e-05 -2.75224e-05 -2.92483e-06)
(-1.33059e-05 -2.79467e-05 -2.92918e-06)
(-1.16308e-05 -2.45638e-05 -1.71502e-06)
(-1.30787e-05 -2.75004e-05 -2.85351e-06)
(-1.29451e-05 -2.70893e-05 -1.73314e-06)
(-1.33853e-05 -2.76755e-05 -8.02777e-08)
(-1.47102e-05 -3.03784e-05 -1.35005e-06)
(-1.33835e-05 -2.78666e-05 -1.34336e-06)
(-1.16278e-05 -2.45098e-05 -1.3274e-06)
(-1.29443e-05 -2.68433e-05 -8.13176e-08)
(-1.29426e-05 -2.70282e-05 -1.34022e-06)
(-1.32989e-05 -2.79243e-05 -2.85764e-06)
(-1.47122e-05 -3.0447e-05 -1.74693e-06)
(-1.33858e-05 -2.79299e-05 -1.73757e-06)
(-1.3111e-05 -2.75214e-05 -2.60066e-06)
(-1.33317e-05 -2.79457e-05 -2.60523e-06)
(-1.16927e-05 -2.45612e-05 -8.02009e-07)
(-1.31161e-05 -2.74988e-05 -2.37401e-06)
(-1.30155e-05 -2.70876e-05 -8.21393e-07)
(-1.34538e-05 -2.76758e-05 7.53557e-07)
(-1.47918e-05 -3.03777e-05 -4.17166e-07)
(-1.34586e-05 -2.78656e-05 -4.08752e-07)
(-1.16917e-05 -2.4508e-05 -3.91419e-07)
(-1.30105e-05 -2.68437e-05 7.52595e-07)
(-1.30152e-05 -2.70269e-05 -4.05099e-07)
(-1.33369e-05 -2.79228e-05 -2.37845e-06)
(-1.47915e-05 -3.04461e-05 -8.37993e-07)
(-1.34587e-05 -2.79284e-05 -8.26478e-07)
(-1.68363e-05 -3.46614e-05 -2.88528e-06)
(-1.83948e-05 -3.73509e-05 -1.42769e-06)
(-1.69261e-05 -3.46305e-05 -1.75307e-06)
(-1.51531e-05 -3.12145e-05 -1.35153e-06)
(-1.64846e-05 -3.34984e-05 -7.70146e-08)
(-1.64815e-05 -3.37203e-05 -1.35427e-06)
(-1.66152e-05 -3.42423e-05 -2.88506e-06)
(-1.5155e-05 -3.12845e-05 -1.74896e-06)
(-1.64833e-05 -3.37937e-05 -1.75257e-06)
(-1.83942e-05 -3.73126e-05 -1.22285e-06)
(-1.69276e-05 -3.4332e-05 -7.68964e-08)
(-1.69244e-05 -3.45562e-05 -1.35463e-06)
(-1.68738e-05 -3.46879e-05 -2.63737e-06)
(-1.66526e-05 -3.42687e-05 -2.63703e-06)
(-1.68811e-05 -3.46612e-05 -2.41082e-06)
(-1.84388e-05 -3.7351e-05 -9.71453e-07)
(-1.7012e-05 -3.46302e-05 -8.47167e-07)
(-1.52365e-05 -3.12139e-05 -4.19184e-07)
(-1.65644e-05 -3.34985e-05 7.56616e-07)
(-1.6569e-05 -3.37201e-05 -4.23258e-07)
(-1.66598e-05 -3.42421e-05 -2.41039e-06)
(-1.5236e-05 -3.12838e-05 -8.40703e-07)
(-1.65682e-05 -3.37933e-05 -8.46061e-07)
(-1.84386e-05 -3.73127e-05 -7.63394e-07)
(-1.70084e-05 -3.43321e-05 7.56687e-07)
(-1.70129e-05 -3.45561e-05 -4.2413e-07)
(-1.06889e-05 -2.28367e-05 -2.84845e-06)
(-8.78688e-06 -1.89973e-05 -2.73919e-06)
(-1.77322e-05 -3.63719e-05 -2.95445e-06)
(-1.57377e-05 -3.259e-05 -2.95543e-06)
(-5.64597e-06 -1.23296e-05 -2.41525e-06)
(-7.36645e-06 -1.60381e-05 -2.61949e-06)
(-5.64108e-06 -1.23326e-05 -2.36415e-06)
(-5.62243e-06 -1.23368e-05 -1.85777e-06)
(-7.41888e-06 -1.60827e-05 -1.03351e-07)
(-7.82071e-06 -1.69271e-05 -4.90877e-07)
(-7.41837e-06 -1.61095e-05 -4.8705e-07)
(-5.13564e-06 -1.13439e-05 -4.51459e-07)
(-5.49804e-06 -1.21037e-05 -1.09317e-07)
(-5.49831e-06 -1.21162e-05 -4.591e-07)
(-7.36086e-06 -1.60334e-05 -2.56136e-06)
(-7.94953e-06 -1.72598e-05 -2.05472e-06)
(-7.34699e-06 -1.60082e-05 -2.01279e-06)
(-5.6432e-06 -1.23238e-05 -2.10875e-06)
(-7.37246e-06 -1.60337e-05 -2.30014e-06)
(-5.63749e-06 -1.23243e-05 -1.91158e-06)
(-5.62182e-06 -1.23305e-05 -1.40947e-06)
(-7.44681e-06 -1.60842e-05 7.08271e-07)
(-7.85246e-06 -1.69268e-05 3.77004e-07)
(-7.44657e-06 -1.61092e-05 3.75684e-07)
(-5.14303e-06 -1.13434e-05 3.58337e-07)
(-5.51044e-06 -1.21058e-05 6.63813e-07)
(-5.50904e-06 -1.21158e-05 3.6254e-07)
(-7.37002e-06 -1.60271e-05 -2.08963e-06)
(-7.96385e-06 -1.72555e-05 -1.58292e-06)
(-7.35774e-06 -1.60034e-05 -1.54492e-06)
(-1.06823e-05 -2.28204e-05 -2.78081e-06)
(-1.13243e-05 -2.40231e-05 -2.2057e-06)
(-1.06755e-05 -2.27508e-05 -2.18562e-06)
(-8.22818e-06 -1.77489e-05 -4.94216e-07)
(-8.64129e-06 -1.85386e-05 -9.79728e-08)
(-8.64039e-06 -1.85742e-05 -4.97109e-07)
(-8.78081e-06 -1.89871e-05 -2.67635e-06)
(-8.15288e-06 -1.76788e-05 -2.06751e-06)
(-8.77037e-06 -1.89412e-05 -2.10334e-06)
(-1.1192e-05 -2.35663e-05 -5.07306e-07)
(-1.07606e-05 -2.26819e-05 -8.86097e-08)
(-1.07592e-05 -2.27317e-05 -5.06269e-07)
(-1.07079e-05 -2.28345e-05 -2.52269e-06)
(-8.79907e-06 -1.89939e-05 -2.41508e-06)
(-1.07105e-05 -2.28172e-05 -2.29922e-06)
(-1.13553e-05 -2.4021e-05 -1.72685e-06)
(-1.07038e-05 -2.27483e-05 -1.70681e-06)
(-8.26347e-06 -1.77486e-05 3.77977e-07)
(-8.67883e-06 -1.85398e-05 7.25903e-07)
(-8.67919e-06 -1.85739e-05 3.78641e-07)
(-8.79897e-06 -1.89823e-05 -2.19741e-06)
(-8.16841e-06 -1.76746e-05 -1.59461e-06)
(-8.7893e-06 -1.89374e-05 -1.62786e-06)
(-1.12506e-05 -2.35661e-05 3.78135e-07)
(-1.08135e-05 -2.26827e-05 7.4404e-07)
(-1.08147e-05 -2.27315e-05 3.78588e-07)
(-1.2208e-05 -2.58221e-05 -2.90342e-06)
(-1.41888e-05 -2.96401e-05 -2.94295e-06)
(-1.15416e-05 -2.44468e-05 -2.21157e-06)
(-1.22011e-05 -2.5802e-05 -2.83316e-06)
(-1.21967e-05 -2.57177e-05 -2.22732e-06)
(-1.42698e-05 -2.93394e-05 -7.86622e-08)
(-1.47108e-05 -3.02407e-05 -5.11177e-07)
(-1.4268e-05 -2.94073e-05 -5.10917e-07)
(-1.1627e-05 -2.44011e-05 -5.08159e-07)
(-1.20656e-05 -2.51785e-05 -8.38455e-08)
(-1.2064e-05 -2.5236e-05 -5.08856e-07)
(-1.41817e-05 -2.96162e-05 -2.87075e-06)
(-1.48438e-05 -3.07792e-05 -2.26375e-06)
(-1.41796e-05 -2.95173e-05 -2.25799e-06)
(-1.22312e-05 -2.58207e-05 -2.57842e-06)
(-1.42162e-05 -2.96394e-05 -2.61995e-06)
(-1.15735e-05 -2.44448e-05 -1.73278e-06)
(-1.22355e-05 -2.57998e-05 -2.35252e-06)
(-1.2231e-05 -2.5716e-05 -1.74891e-06)
(-1.43424e-05 -2.93396e-05 7.54976e-07)
(-1.47891e-05 -3.02406e-05 3.73541e-07)
(-1.43443e-05 -2.94072e-05 3.74039e-07)
(-1.16886e-05 -2.44009e-05 3.77603e-07)
(-1.21268e-05 -2.51791e-05 7.50021e-07)
(-1.21284e-05 -2.52358e-05 3.77021e-07)
(-1.42221e-05 -2.96152e-05 -2.39288e-06)
(-1.48854e-05 -3.07786e-05 -1.7881e-06)
(-1.42198e-05 -2.95164e-05 -1.7816e-06)
(-1.77271e-05 -3.63495e-05 -2.88427e-06)
(-1.83971e-05 -3.75083e-05 -2.27205e-06)
(-1.77304e-05 -3.62451e-05 -2.27294e-06)
(-1.51539e-05 -3.10738e-05 -5.11417e-07)
(-1.55989e-05 -3.18345e-05 -7.73397e-08)
(-1.5597e-05 -3.19068e-05 -5.11638e-07)
(-1.57304e-05 -3.25642e-05 -2.88275e-06)
(-1.50651e-05 -3.11991e-05 -2.26523e-06)
(-1.57296e-05 -3.2458e-05 -2.26872e-06)
(-1.83935e-05 -3.71598e-05 -3.95215e-07)
(-1.78241e-05 -3.61036e-05 -5.1304e-07)
(-1.77626e-05 -3.63718e-05 -2.63578e-06)
(-1.5767e-05 -3.25898e-05 -2.63401e-06)
(-1.77722e-05 -3.63492e-05 -2.41179e-06)
(-1.84424e-05 -3.75085e-05 -1.80163e-06)
(-1.77758e-05 -3.62451e-05 -1.79945e-06)
(-1.52339e-05 -3.10738e-05 3.73101e-07)
(-1.56763e-05 -3.18346e-05 7.56208e-07)
(-1.56785e-05 -3.19068e-05 3.72724e-07)
(-1.57739e-05 -3.25638e-05 -2.40707e-06)
(-1.51073e-05 -3.11985e-05 -1.78982e-06)
(-1.57729e-05 -3.24576e-05 -1.79398e-06)
(-1.84374e-05 -3.71599e-05 5.4508e-08)
(-1.79107e-05 -3.61037e-05 3.73628e-07)
(-1.04743e-05 -2.24096e-05 -2.83857e-06)
(-8.99451e-06 -1.94229e-05 -2.7537e-06)
(-1.75082e-05 -3.59477e-05 -2.95671e-06)
(-1.5959e-05 -3.30102e-05 -2.95626e-06)
(-5.83019e-06 -1.27336e-05 -2.44091e-06)
(-7.16885e-06 -1.56194e-05 -2.59969e-06)
(-5.16133e-06 -1.13551e-05 -1.73564e-06)
(-5.51331e-06 -1.21391e-05 -1.45531e-06)
(-5.52247e-06 -1.2141e-05 -1.77395e-06)
(-5.82522e-06 -1.27357e-05 -2.38898e-06)
(-6.3722e-06 -1.39498e-05 -1.93243e-06)
(-5.80706e-06 -1.27365e-05 -1.87715e-06)
(-5.88266e-06 -1.29315e-05 -1.48417e-06)
(-6.26757e-06 -1.37428e-05 -1.84346e-06)
(-5.89137e-06 -1.29373e-05 -1.80987e-06)
(-7.02195e-06 -1.52731e-05 -1.0493e-07)
(-6.63075e-06 -1.44903e-05 -4.77756e-07)
(-7.02158e-06 -1.5297e-05 -4.8269e-07)
(-7.82191e-06 -1.69557e-05 -8.73547e-07)
(-7.42319e-06 -1.61591e-05 -1.23001e-06)
(-7.4198e-06 -1.6135e-05 -8.64269e-07)
(-6.63267e-06 -1.45096e-05 -8.42879e-07)
(-7.02694e-06 -1.53401e-05 -1.21409e-06)
(-7.02325e-06 -1.53193e-05 -8.54064e-07)
(-5.13867e-06 -1.13511e-05 -7.87338e-07)
(-5.50605e-06 -1.21341e-05 -1.13607e-06)
(-5.50104e-06 -1.21264e-05 -8.02942e-07)
(-5.86858e-06 -1.28836e-05 -1.08573e-07)
(-6.2463e-06 -1.36906e-05 -4.72208e-07)
(-5.86867e-06 -1.28989e-05 -4.66003e-07)
(-5.87579e-06 -1.2923e-05 -1.15784e-06)
(-6.24849e-06 -1.37068e-05 -8.30664e-07)
(-5.87113e-06 -1.29121e-05 -8.17368e-07)
(-7.16334e-06 -1.56155e-05 -2.5423e-06)
(-6.56393e-06 -1.4358e-05 -1.9495e-06)
(-7.14904e-06 -1.55936e-05 -1.99792e-06)
(-7.83682e-06 -1.70341e-05 -1.95594e-06)
(-7.42863e-06 -1.61818e-05 -1.58085e-06)
(-7.43569e-06 -1.62029e-05 -1.93096e-06)
(-6.65065e-06 -1.45563e-05 -1.8748e-06)
(-7.03272e-06 -1.53593e-05 -1.55937e-06)
(-7.04016e-06 -1.53767e-05 -1.90394e-06)
(-5.82843e-06 -1.2728e-05 -2.13253e-06)
(-7.17392e-06 -1.56148e-05 -2.28135e-06)
(-5.15698e-06 -1.13447e-05 -9.32494e-07)
(-5.51611e-06 -1.2131e-05 -6.05771e-07)
(-5.52254e-06 -1.21311e-05 -9.59111e-07)
(-5.82309e-06 -1.27277e-05 -1.93362e-06)
(-6.37669e-06 -1.39442e-05 -1.47387e-06)
(-5.80777e-06 -1.27304e-05 -1.42601e-06)
(-5.88979e-06 -1.29238e-05 -6.23763e-07)
(-6.27644e-06 -1.37339e-05 -1.00916e-06)
(-5.89584e-06 -1.29279e-05 -9.84671e-07)
(-7.04669e-06 -1.52747e-05 7.01005e-07)
(-6.65187e-06 -1.44899e-05 3.7185e-07)
(-7.04623e-06 -1.52966e-05 3.73979e-07)
(-7.85365e-06 -1.69536e-05 3.28932e-08)
(-7.44977e-06 -1.61549e-05 -3.16961e-07)
(-7.44767e-06 -1.61327e-05 3.68145e-08)
(-6.65276e-06 -1.45071e-05 4.45081e-08)
(-7.04937e-06 -1.53357e-05 -3.07402e-07)
(-7.04723e-06 -1.53169e-05 4.0697e-08)
(-5.14343e-06 -1.13479e-05 5.8393e-08)
(-5.51183e-06 -1.21284e-05 -2.66437e-07)
(-5.50957e-06 -1.21234e-05 5.51909e-08)
(-5.88398e-06 -1.28856e-05 6.74415e-07)
(-6.26391e-06 -1.36902e-05 3.6926e-07)
(-5.88282e-06 -1.28984e-05 3.66169e-07)
(-5.88571e-06 -1.29176e-05 -2.77036e-07)
(-6.26469e-06 -1.37041e-05 4.82164e-08)
(-5.88348e-06 -1.29092e-05 5.17881e-08)
(-7.17113e-06 -1.5609e-05 -2.07208e-06)
(-6.56971e-06 -1.43526e-05 -1.48877e-06)
(-7.15852e-06 -1.55887e-05 -1.53165e-06)
(-7.86288e-06 -1.70273e-05 -1.09618e-06)
(-7.45297e-06 -1.61757e-05 -6.89176e-07)
(-7.45754e-06 -1.61956e-05 -1.07608e-06)
(-6.66389e-06 -1.4548e-05 -1.03256e-06)
(-7.0528e-06 -1.53528e-05 -6.73842e-07)
(-7.05773e-06 -1.53689e-05 -1.05487e-06)
(-1.04678e-05 -2.2394e-05 -2.77139e-06)
(-9.82017e-06 -2.10551e-05 -2.15336e-06)
(-1.04607e-05 -2.2327e-05 -2.17824e-06)
(-1.12005e-05 -2.37727e-05 -2.09156e-06)
(-1.07639e-05 -2.28783e-05 -1.69821e-06)
(-1.07684e-05 -2.2927e-05 -2.0801e-06)
(-9.91249e-06 -2.12362e-05 -2.05288e-06)
(-1.03342e-05 -2.20358e-05 -1.68818e-06)
(-1.0339e-05 -2.20814e-05 -2.06723e-06)
(-8.22916e-06 -1.77806e-05 -8.8195e-07)
(-8.64374e-06 -1.86427e-05 -1.27017e-06)
(-8.64116e-06 -1.86089e-05 -8.89531e-07)
(-9.05795e-06 -1.93637e-05 -9.60647e-08)
(-9.47747e-06 -2.02325e-05 -5.01715e-07)
(-9.05694e-06 -1.94023e-05 -4.99594e-07)
(-9.05985e-06 -1.9477e-05 -1.28123e-06)
(-9.47785e-06 -2.02732e-05 -9.02436e-07)
(-9.05751e-06 -1.944e-05 -8.96342e-07)
(-8.98838e-06 -1.94119e-05 -2.69025e-06)
(-9.60842e-06 -2.06318e-05 -2.14432e-06)
(-8.9783e-06 -1.9363e-05 -2.11418e-06)
(-8.24314e-06 -1.78694e-05 -1.97895e-06)
(-8.64827e-06 -1.86757e-05 -1.63551e-06)
(-8.65425e-06 -1.87079e-05 -2.00007e-06)
(-9.4893e-06 -2.03919e-05 -2.03695e-06)
(-9.06411e-06 -1.95132e-05 -1.6507e-06)
(-9.06976e-06 -1.95489e-05 -2.01938e-06)
(-1.11917e-05 -2.36182e-05 -9.2064e-07)
(-1.07606e-05 -2.28298e-05 -1.31544e-06)
(-1.07591e-05 -2.2781e-05 -9.16916e-07)
(-1.03302e-05 -2.18506e-05 -9.0398e-08)
(-9.90158e-06 -2.10645e-05 -5.03509e-07)
(-1.03289e-05 -2.18977e-05 -5.05015e-07)
(-1.03307e-05 -2.19902e-05 -1.30826e-06)
(-9.90179e-06 -2.11081e-05 -9.07862e-07)
(-1.0329e-05 -2.19441e-05 -9.12672e-07)
(-1.04926e-05 -2.24073e-05 -2.51282e-06)
(-9.00753e-06 -1.94196e-05 -2.42919e-06)
(-1.04949e-05 -2.23906e-05 -2.28983e-06)
(-9.84452e-06 -2.10521e-05 -1.67532e-06)
(-1.0488e-05 -2.23243e-05 -1.69955e-06)
(-1.12563e-05 -2.37693e-05 -1.2172e-06)
(-1.08193e-05 -2.28752e-05 -7.85455e-07)
(-1.0821e-05 -2.29232e-05 -1.20587e-06)
(-9.95814e-06 -2.12316e-05 -1.18002e-06)
(-1.03861e-05 -2.20323e-05 -7.76055e-07)
(-1.03882e-05 -2.20772e-05 -1.19348e-06)
(-8.26474e-06 -1.77786e-05 2.89655e-08)
(-8.68249e-06 -1.86393e-05 -3.43596e-07)
(-8.68054e-06 -1.86071e-05 2.50608e-08)
(-9.09866e-06 -1.93648e-05 7.30539e-07)
(-9.52315e-06 -2.02323e-05 3.7919e-07)
(-9.09921e-06 -1.9402e-05 3.79034e-07)
(-9.10252e-06 -1.94738e-05 -3.51722e-07)
(-9.52464e-06 -2.02717e-05 1.74377e-08)
(-9.10063e-06 -1.94383e-05 2.12092e-08)
(-9.00774e-06 -1.94073e-05 -2.21071e-06)
(-9.63169e-06 -2.06286e-05 -1.66665e-06)
(-8.99838e-06 -1.93594e-05 -1.63801e-06)
(-8.27332e-06 -1.7863e-05 -1.11517e-06)
(-8.68501e-06 -1.86708e-05 -7.30877e-07)
(-8.68847e-06 -1.8702e-05 -1.13304e-06)
(-9.53126e-06 -2.03869e-05 -1.16546e-06)
(-9.10481e-06 -1.95087e-05 -7.43303e-07)
(-9.10791e-06 -1.95435e-05 -1.14981e-06)
(-1.12523e-05 -2.36171e-05 3.64925e-09)
(-1.08179e-05 -2.28276e-05 -3.79989e-07)
(-1.08163e-05 -2.27798e-05 6.85843e-09)
(-1.03802e-05 -2.18515e-05 7.41337e-07)
(-9.95062e-06 -2.10643e-05 3.79146e-07)
(-1.03812e-05 -2.18975e-05 3.78935e-07)
(-1.03845e-05 -2.19878e-05 -3.73586e-07)
(-9.95217e-06 -2.11067e-05 1.37733e-08)
(-1.03828e-05 -2.19428e-05 1.02396e-08)
(-1.24269e-05 -2.62477e-05 -2.9094e-06)
(-1.39679e-05 -2.92173e-05 -2.94002e-06)
(-1.16348e-05 -2.46182e-05 -2.1017e-06)
(-1.20673e-05 -2.54062e-05 -1.72194e-06)
(-1.20711e-05 -2.54632e-05 -2.1106e-06)
(-1.242e-05 -2.6227e-05 -2.83884e-06)
(-1.30755e-05 -2.7409e-05 -2.24375e-06)
(-1.24158e-05 -2.61407e-05 -2.23185e-06)
(-1.25055e-05 -2.6248e-05 -1.72796e-06)
(-1.29485e-05 -2.71512e-05 -2.12502e-06)
(-1.25091e-05 -2.63076e-05 -2.11835e-06)
(-1.38273e-05 -2.85075e-05 -7.93923e-08)
(-1.33836e-05 -2.77396e-05 -5.10292e-07)
(-1.38255e-05 -2.85736e-05 -5.10626e-07)
(-1.47098e-05 -3.03096e-05 -9.36888e-07)
(-1.42675e-05 -2.95417e-05 -1.34822e-06)
(-1.4267e-05 -2.94746e-05 -9.35822e-07)
(-1.33828e-05 -2.78032e-05 -9.33032e-07)
(-1.38251e-05 -2.87045e-05 -1.34601e-06)
(-1.38246e-05 -2.86391e-05 -9.34547e-07)
(-1.16267e-05 -2.44556e-05 -9.23892e-07)
(-1.20645e-05 -2.53497e-05 -1.3323e-06)
(-1.20635e-05 -2.52929e-05 -9.26715e-07)
(-1.25043e-05 -2.6011e-05 -8.25088e-08)
(-1.29426e-05 -2.69053e-05 -5.09899e-07)
(-1.25026e-05 -2.60707e-05 -5.09428e-07)
(-1.25029e-05 -2.61891e-05 -1.33655e-06)
(-1.29418e-05 -2.69668e-05 -9.31246e-07)
(-1.2502e-05 -2.613e-05 -9.29152e-07)
(-1.39608e-05 -2.91937e-05 -2.86796e-06)
(-1.32959e-05 -2.78311e-05 -2.24709e-06)
(-1.39585e-05 -2.90963e-05 -2.25567e-06)
(-1.47151e-05 -3.05164e-05 -2.14257e-06)
(-1.42696e-05 -2.96087e-05 -1.7444e-06)
(-1.42726e-05 -2.96765e-05 -2.13939e-06)
(-1.33891e-05 -2.79939e-05 -2.13069e-06)
(-1.38274e-05 -2.87697e-05 -1.7413e-06)
(-1.38305e-05 -2.88357e-05 -2.13545e-06)
(-1.24507e-05 -2.62463e-05 -2.58459e-06)
(-1.39948e-05 -2.92165e-05 -2.61678e-06)
(-1.16937e-05 -2.46151e-05 -1.22749e-06)
(-1.21322e-05 -2.54039e-05 -8.0918e-07)
(-1.2133e-05 -2.54604e-05 -1.23677e-06)
(-1.24552e-05 -2.6225e-05 -2.35847e-06)
(-1.31127e-05 -2.74077e-05 -1.76615e-06)
(-1.24509e-05 -2.61391e-05 -1.7536e-06)
(-1.25733e-05 -2.6246e-05 -8.15635e-07)
(-1.30157e-05 -2.7149e-05 -1.25242e-06)
(-1.25737e-05 -2.63051e-05 -1.24507e-06)
(-1.38979e-05 -2.85078e-05 7.54342e-07)
(-1.34557e-05 -2.77395e-05 3.75174e-07)
(-1.38998e-05 -2.85735e-05 3.74587e-07)
(-1.47909e-05 -3.03093e-05 -1.44239e-08)
(-1.43471e-05 -2.9541e-05 -4.14769e-07)
(-1.43461e-05 -2.94742e-05 -1.2951e-08)
(-1.34575e-05 -2.78026e-05 -9.3279e-09)
(-1.39026e-05 -2.87036e-05 -4.1197e-07)
(-1.39016e-05 -2.86386e-05 -1.12539e-08)
(-1.16903e-05 -2.44546e-05 6.29232e-10)
(-1.21315e-05 -2.53481e-05 -3.96439e-07)
(-1.21301e-05 -2.52921e-05 -2.18823e-09)
(-1.2568e-05 -2.60114e-05 7.51426e-07)
(-1.30122e-05 -2.69052e-05 3.75785e-07)
(-1.25697e-05 -2.60706e-05 3.76407e-07)
(-1.25727e-05 -2.61877e-05 -4.00997e-07)
(-1.3014e-05 -2.69662e-05 -7.17338e-09)
(-1.25715e-05 -2.61293e-05 -4.79173e-09)
(-1.40006e-05 -2.91926e-05 -2.38975e-06)
(-1.33337e-05 -2.78299e-05 -1.76971e-06)
(-1.39981e-05 -2.90953e-05 -1.77903e-06)
(-1.47907e-05 -3.05153e-05 -1.27325e-06)
(-1.43469e-05 -2.96076e-05 -8.34745e-07)
(-1.43463e-05 -2.96752e-05 -1.26923e-06)
(-1.34586e-05 -2.7992e-05 -1.25887e-06)
(-1.39026e-05 -2.87684e-05 -8.30918e-07)
(-1.39023e-05 -2.88341e-05 -1.26446e-06)
(-1.7502e-05 -3.59229e-05 -2.88489e-06)
(-1.68363e-05 -3.45523e-05 -2.2717e-06)
(-1.75042e-05 -3.58167e-05 -2.27249e-06)
(-1.83968e-05 -3.74677e-05 -2.05081e-06)
(-1.78246e-05 -3.63303e-05 -1.75493e-06)
(-1.78276e-05 -3.64077e-05 -2.15254e-06)
(-1.69285e-05 -3.47054e-05 -2.14998e-06)
(-1.73713e-05 -3.54721e-05 -1.7534e-06)
(-1.73738e-05 -3.55481e-05 -2.1504e-06)
(-1.51528e-05 -3.11442e-05 -9.37772e-07)
(-1.5596e-05 -3.20501e-05 -1.35271e-06)
(-1.55958e-05 -3.19785e-05 -9.38492e-07)
(-1.60418e-05 -3.26663e-05 -7.71413e-08)
(-1.64827e-05 -3.35729e-05 -5.11987e-07)
(-1.60399e-05 -3.27397e-05 -5.11838e-07)
(-1.60389e-05 -3.28852e-05 -1.35362e-06)
(-1.64814e-05 -3.36467e-05 -9.39478e-07)
(-1.60387e-05 -3.28126e-05 -9.39064e-07)
(-1.59517e-05 -3.29841e-05 -2.88357e-06)
(-1.6615e-05 -3.41336e-05 -2.27134e-06)
(-1.5951e-05 -3.2877e-05 -2.26955e-06)
(-1.51578e-05 -3.13554e-05 -2.14509e-06)
(-1.55979e-05 -3.21214e-05 -1.75054e-06)
(-1.56005e-05 -3.21936e-05 -2.14702e-06)
(-1.64857e-05 -3.38679e-05 -2.14941e-06)
(-1.60407e-05 -3.29577e-05 -1.75174e-06)
(-1.60432e-05 -3.3031e-05 -2.14844e-06)
(-1.83934e-05 -3.7198e-05 -6.0318e-07)
(-1.78222e-05 -3.62535e-05 -1.35539e-06)
(-1.78222e-05 -3.61781e-05 -9.40235e-07)
(-1.7373e-05 -3.51716e-05 -7.68858e-08)
(-1.69256e-05 -3.44073e-05 -5.12024e-07)
(-1.73708e-05 -3.52471e-05 -5.11979e-07)
(-1.73693e-05 -3.53969e-05 -1.35477e-06)
(-1.69243e-05 -3.44818e-05 -9.39685e-07)
(-1.73693e-05 -3.53219e-05 -9.39699e-07)
(-1.75387e-05 -3.59477e-05 -2.63698e-06)
(-1.59885e-05 -3.301e-05 -2.63504e-06)
(-1.75471e-05 -3.59227e-05 -2.41144e-06)
(-1.6881e-05 -3.45521e-05 -1.79785e-06)
(-1.75494e-05 -3.58166e-05 -1.7991e-06)
(-1.84405e-05 -3.74678e-05 -1.59767e-06)
(-1.79119e-05 -3.63303e-05 -8.47634e-07)
(-1.7911e-05 -3.64076e-05 -1.28418e-06)
(-1.70103e-05 -3.47051e-05 -1.28418e-06)
(-1.74578e-05 -3.5472e-05 -8.47989e-07)
(-1.74563e-05 -3.55479e-05 -1.28509e-06)
(-1.52357e-05 -3.11439e-05 -1.56761e-08)
(-1.5681e-05 -3.20496e-05 -4.20849e-07)
(-1.56802e-05 -3.19783e-05 -1.67208e-08)
(-1.61206e-05 -3.26664e-05 7.56451e-07)
(-1.65667e-05 -3.35729e-05 3.72134e-07)
(-1.61227e-05 -3.27397e-05 3.72406e-07)
(-1.61252e-05 -3.28849e-05 -4.22191e-07)
(-1.65684e-05 -3.36466e-05 -1.82591e-08)
(-1.61245e-05 -3.28124e-05 -1.75713e-08)
(-1.59955e-05 -3.29838e-05 -2.40816e-06)
(-1.66595e-05 -3.41334e-05 -1.79734e-06)
(-1.59946e-05 -3.28766e-05 -1.795e-06)
(-1.5235e-05 -3.13545e-05 -1.27656e-06)
(-1.56804e-05 -3.21208e-05 -8.42915e-07)
(-1.56792e-05 -3.21928e-05 -1.27923e-06)
(-1.65667e-05 -3.38674e-05 -1.28294e-06)
(-1.61244e-05 -3.29572e-05 -8.44679e-07)
(-1.61231e-05 -3.30304e-05 -1.28133e-06)
(-1.84377e-05 -3.71981e-05 -1.48001e-07)
(-1.79121e-05 -3.62535e-05 -4.24403e-07)
(-1.79117e-05 -3.61781e-05 -1.83686e-08)
(-1.74546e-05 -3.51716e-05 7.56921e-07)
(-1.70106e-05 -3.44073e-05 3.71872e-07)
(-1.74566e-05 -3.52471e-05 3.71828e-07)
(-1.74586e-05 -3.53968e-05 -4.2475e-07)
(-1.70123e-05 -3.44818e-05 -1.88386e-08)
(-1.74581e-05 -3.53219e-05 -1.91941e-08)
(-1.11202e-05 -2.36906e-05 -2.86662e-06)
(-8.3749e-06 -1.81479e-05 -2.70827e-06)
(-1.81753e-05 -3.72101e-05 -2.94477e-06)
(-1.5295e-05 -3.17489e-05 -2.95314e-06)
(-5.28334e-06 -1.15292e-05 -2.36163e-06)
(-7.76589e-06 -1.68791e-05 -2.65702e-06)
(-5.27532e-06 -1.15467e-05 -2.53757e-06)
(-5.27859e-06 -1.15339e-05 -2.3122e-06)
(-5.28137e-06 -1.1542e-05 -2.59898e-06)
(-5.27137e-06 -1.15383e-05 -2.14059e-06)
(-7.74404e-06 -1.68675e-05 -2.82684e-06)
(-7.76016e-06 -1.68728e-05 -2.59747e-06)
(-7.95145e-06 -1.72963e-05 -2.91786e-06)
(-7.95747e-06 -1.72826e-05 -2.42095e-06)
(-7.75066e-06 -1.68754e-05 -2.90023e-06)
(-7.7556e-06 -1.68624e-05 -2.40512e-06)
(-7.9448e-06 -1.72875e-05 -2.84368e-06)
(-5.27853e-06 -1.1523e-05 -2.05926e-06)
(-7.77374e-06 -1.6875e-05 -2.33591e-06)
(-5.26066e-06 -1.15245e-05 -1.29775e-06)
(-5.27206e-06 -1.15251e-05 -1.86578e-06)
(-5.26623e-06 -1.15304e-05 -1.70022e-06)
(-5.26653e-06 -1.15213e-05 -1.51728e-06)
(-7.77833e-06 -1.68525e-05 -1.50885e-06)
(-7.77199e-06 -1.68669e-05 -2.12309e-06)
(-7.97091e-06 -1.72775e-05 -1.9516e-06)
(-7.98361e-06 -1.72829e-05 -1.76579e-06)
(-7.76781e-06 -1.68571e-05 -1.93691e-06)
(-7.77969e-06 -1.68615e-05 -1.7509e-06)
(-7.98258e-06 -1.7273e-05 -1.52248e-06)
(-1.10843e-05 -2.36498e-05 -3.01943e-06)
(-1.11135e-05 -2.36731e-05 -2.79813e-06)
(-1.13075e-05 -2.40963e-05 -3.11092e-06)
(-1.13281e-05 -2.40733e-05 -2.59881e-06)
(-1.10917e-05 -2.36704e-05 -3.10318e-06)
(-1.11115e-05 -2.36479e-05 -2.59142e-06)
(-1.13001e-05 -2.40751e-05 -3.02672e-06)
(-8.3501e-06 -1.81301e-05 -2.87522e-06)
(-8.36897e-06 -1.81392e-05 -2.64671e-06)
(-8.15353e-06 -1.7718e-05 -2.93476e-06)
(-8.16059e-06 -1.77037e-05 -2.43616e-06)
(-8.35686e-06 -1.81406e-05 -2.95096e-06)
(-8.14682e-06 -1.77084e-05 -2.85978e-06)
(-8.36496e-06 -1.81257e-05 -2.45079e-06)
(-1.11405e-05 -2.36886e-05 -2.54095e-06)
(-8.3854e-06 -1.81442e-05 -2.38515e-06)
(-1.1168e-05 -2.36424e-05 -1.68079e-06)
(-1.11435e-05 -2.36702e-05 -2.31662e-06)
(-1.13587e-05 -2.40708e-05 -2.12328e-06)
(-1.13826e-05 -2.40898e-05 -1.94466e-06)
(-1.11412e-05 -2.36452e-05 -2.11581e-06)
(-1.11645e-05 -2.36636e-05 -1.93666e-06)
(-1.13863e-05 -2.4068e-05 -1.68832e-06)
(-8.39477e-06 -1.81167e-05 -1.54858e-06)
(-8.38465e-06 -1.81339e-05 -2.16927e-06)
(-8.17527e-06 -1.76988e-05 -1.96578e-06)
(-8.18879e-06 -1.77051e-05 -1.78023e-06)
(-8.18808e-06 -1.76944e-05 -1.53572e-06)
(-8.38084e-06 -1.81209e-05 -1.97949e-06)
(-8.39515e-06 -1.81282e-05 -1.79424e-06)
(-1.17714e-05 -2.49702e-05 -2.89011e-06)
(-1.46311e-05 -3.04847e-05 -2.94787e-06)
(-1.17334e-05 -2.49251e-05 -3.0399e-06)
(-1.1524e-05 -2.4522e-05 -3.11816e-06)
(-1.15453e-05 -2.44986e-05 -2.60575e-06)
(-1.17646e-05 -2.49511e-05 -2.8205e-06)
(-1.15165e-05 -2.45002e-05 -3.03353e-06)
(-1.17409e-05 -2.49476e-05 -3.12494e-06)
(-1.1763e-05 -2.49237e-05 -2.61228e-06)
(-1.45865e-05 -3.04256e-05 -3.08824e-06)
(-1.4624e-05 -3.04601e-05 -2.87545e-06)
(-1.48154e-05 -3.08755e-05 -3.17814e-06)
(-1.48449e-05 -3.08467e-05 -2.66586e-06)
(-1.45944e-05 -3.04542e-05 -3.17645e-06)
(-1.46236e-05 -3.04256e-05 -2.66398e-06)
(-1.48074e-05 -3.08466e-05 -3.08984e-06)
(-1.17935e-05 -2.49685e-05 -2.56479e-06)
(-1.46591e-05 -3.04841e-05 -2.62535e-06)
(-1.18245e-05 -2.49188e-05 -1.70229e-06)
(-1.15768e-05 -2.44962e-05 -2.13034e-06)
(-1.16012e-05 -2.45159e-05 -1.95226e-06)
(-1.17973e-05 -2.49486e-05 -2.33942e-06)
(-1.16052e-05 -2.44935e-05 -1.69548e-06)
(-1.17953e-05 -2.49214e-05 -2.13702e-06)
(-1.18202e-05 -2.49419e-05 -1.95946e-06)
(-1.47015e-05 -3.04233e-05 -1.76058e-06)
(-1.46654e-05 -3.04593e-05 -2.39824e-06)
(-1.48863e-05 -3.0846e-05 -2.19441e-06)
(-1.49168e-05 -3.08738e-05 -2.02278e-06)
(-1.46645e-05 -3.04248e-05 -2.19224e-06)
(-1.46947e-05 -3.04522e-05 -2.02031e-06)
(-1.49237e-05 -3.08446e-05 -1.76301e-06)
(-1.81469e-05 -3.71842e-05 -3.09755e-06)
(-1.81881e-05 -3.72236e-05 -2.8859e-06)
(-1.83696e-05 -3.76198e-05 -3.17262e-06)
(-1.84013e-05 -3.75905e-05 -2.68073e-06)
(-1.81516e-05 -3.72078e-05 -3.17938e-06)
(-1.81934e-05 -3.71973e-05 -2.68621e-06)
(-1.83591e-05 -3.75865e-05 -3.09814e-06)
(-1.52494e-05 -3.16877e-05 -3.09236e-06)
(-1.52878e-05 -3.17235e-05 -2.88052e-06)
(-1.50364e-05 -3.12965e-05 -3.17958e-06)
(-1.50663e-05 -3.12675e-05 -2.66749e-06)
(-1.52574e-05 -3.17172e-05 -3.18079e-06)
(-1.50284e-05 -3.12673e-05 -3.0912e-06)
(-1.52877e-05 -3.1688e-05 -2.66892e-06)
(-1.82051e-05 -3.72105e-05 -2.6369e-06)
(-1.53239e-05 -3.17485e-05 -2.6313e-06)
(-1.82724e-05 -3.71832e-05 -1.7872e-06)
(-1.82321e-05 -3.72233e-05 -2.42594e-06)
(-1.84439e-05 -3.75904e-05 -2.23731e-06)
(-1.84707e-05 -3.76114e-05 -2.07291e-06)
(-1.82383e-05 -3.71969e-05 -2.21638e-06)
(-1.82594e-05 -3.7206e-05 -2.04734e-06)
(-1.84826e-05 -3.7585e-05 -1.80444e-06)
(-1.53681e-05 -3.16861e-05 -1.76715e-06)
(-1.53305e-05 -3.1723e-05 -2.40425e-06)
(-1.5108e-05 -3.12668e-05 -2.19634e-06)
(-1.51388e-05 -3.1295e-05 -2.02498e-06)
(-1.51459e-05 -3.12655e-05 -1.7652e-06)
(-1.53298e-05 -3.16874e-05 -2.19804e-06)
(-1.53608e-05 -3.17159e-05 -2.02694e-06)
(-1.82763e-05 -3.66981e-05 8.92001e-07)
(-1.84369e-05 -3.70834e-05 4.58877e-07)
(-1.82311e-05 -3.66936e-05 4.58569e-07)
(-1.84805e-05 -3.70861e-05 8.87401e-07)
(-1.00473e-05 -2.15555e-05 -2.8172e-06)
(-9.41284e-06 -2.02752e-05 -2.78088e-06)
(-1.70646e-05 -3.5107e-05 -2.95793e-06)
(-1.64014e-05 -3.38495e-05 -2.95739e-06)
(-6.20417e-06 -1.35487e-05 -2.48995e-06)
(-6.77816e-06 -1.47861e-05 -2.55796e-06)
(-6.1907e-06 -1.35546e-05 -2.66513e-06)
(-6.19904e-06 -1.3549e-05 -2.43641e-06)
(-6.38557e-06 -1.39642e-05 -2.75536e-06)
(-6.38268e-06 -1.39562e-05 -2.27674e-06)
(-6.19696e-06 -1.35549e-05 -2.73144e-06)
(-6.37929e-06 -1.3963e-05 -2.68812e-06)
(-6.19289e-06 -1.35476e-05 -2.25576e-06)
(-6.76149e-06 -1.47853e-05 -2.73164e-06)
(-6.7728e-06 -1.47839e-05 -2.50208e-06)
(-6.57589e-06 -1.43755e-05 -2.77844e-06)
(-6.57414e-06 -1.43667e-05 -2.29702e-06)
(-6.76786e-06 -1.47885e-05 -2.80072e-06)
(-6.56955e-06 -1.43733e-05 -2.71027e-06)
(-6.76728e-06 -1.4779e-05 -2.31666e-06)
(-6.20441e-06 -1.35433e-05 -2.17818e-06)
(-6.78132e-06 -1.47813e-05 -2.24194e-06)
(-6.19542e-06 -1.35353e-05 -1.38628e-06)
(-6.19981e-06 -1.35414e-05 -1.97599e-06)
(-6.38575e-06 -1.39495e-05 -1.82021e-06)