/*--------------------------------*- C++ -*----------------------------------*\
| =========                 |                                                 |
| \\      /  F ield         | OpenFOAM: The Open Source CFD Toolbox           |
|  \\    /   O peration     | Version:  2012                                  |
|   \\  /    A nd           | Website:  www.openfoam.com                      |
|    \\/     M anipulation  |                                                 |
\*---------------------------------------------------------------------------*/
FoamFile
{
    version     2.0;
    format      ascii;
    class       volSymmTensorField;
    location    "0.105/solid";
    object      epsilon;
}
// * * * * * * * * * * * * * * * * * * * * * * * * * * * * * * * * * * * * * //

dimensions      [0 0 0 0 0 0 0];


internalField   nonuniform List<symmTensor> 
3125
(
(1.56653e-06 2.63249e-10 -3.51424e-08 1.58951e-06 -6.12064e-08 -5.25013e-06)
(3.16497e-06 -1.35755e-08 -4.32778e-08 3.18526e-06 -8.94843e-08 -1.06292e-05)
(1.95687e-08 -7.74519e-10 1.73426e-09 1.41285e-08 -9.47159e-10 7.60227e-09)
(3.51844e-07 1.86553e-09 -2.09875e-08 3.66149e-07 -2.42912e-08 -1.13781e-06)
(3.28585e-06 -1.49292e-08 -4.34938e-08 3.30519e-06 -9.05925e-08 -1.1034e-05)
(-2.68153e-07 -1.39289e-09 -2.82519e-06 -2.21751e-07 -1.77419e-07 9.06734e-07)
(-4.03722e-07 1.60299e-09 -3.27203e-06 -2.5023e-07 -2.42302e-07 1.22027e-06)
(3.26337e-06 3.81402e-09 -2.53684e-07 3.23628e-06 -1.0162e-07 -1.07374e-05)
(3.16979e-06 -5.22671e-08 -1.81487e-07 3.27825e-06 -2.50714e-07 -1.08138e-05)
(-4.4292e-07 1.92228e-08 -2.97527e-06 -5.62775e-07 4.65156e-08 1.69425e-06)
(-7.43809e-07 3.27194e-08 -3.34617e-06 -9.44868e-07 1.32002e-08 2.81315e-06)
(3.17796e-06 1.83169e-08 -3.98812e-07 3.0784e-06 -2.54029e-07 -1.0356e-05)
(1.56396e-06 -1.55815e-09 -1.94497e-07 1.54657e-06 -6.77128e-08 -5.10455e-06)
(-2.48286e-07 -1.46368e-09 -2.74945e-06 -2.1456e-07 -1.68025e-07 8.57082e-07)
(3.14434e-06 3.34701e-09 -2.50526e-07 3.11751e-06 -1.00154e-07 -1.03421e-05)
(-1.11635e-07 -8.10285e-11 -2.12806e-06 -1.47757e-07 -1.0472e-07 4.94574e-07)
(1.53844e-06 -1.24351e-08 -1.35738e-07 1.58169e-06 -1.83176e-07 -5.1969e-06)
(3.05645e-06 -4.90202e-08 -1.79671e-07 3.15988e-06 -2.47489e-07 -1.0423e-05)
(1.54305e-06 1.01534e-08 -3.02198e-07 1.50731e-06 -1.83665e-07 -5.01148e-06)
(-4.04956e-07 1.77658e-08 -2.90546e-06 -5.16058e-07 5.02712e-08 1.55506e-06)
(3.06414e-06 1.76758e-08 -3.94249e-07 2.96957e-06 -2.50533e-07 -9.9849e-06)
(-1.79798e-07 1.0559e-08 -2.29303e-06 -2.48561e-07 6.59338e-08 7.41734e-07)
(1.47541e-06 8.89095e-10 -3.47965e-08 1.49865e-06 -5.90676e-08 -4.94376e-06)
(4.02104e-07 2.16586e-09 -2.20941e-08 4.16975e-07 -2.60726e-08 -1.30819e-06)
(1.47418e-06 -1.74604e-09 -1.90264e-07 1.45761e-06 -6.52325e-08 -4.80706e-06)
(1.14655e-08 3.4563e-09 -1.21557e-06 -6.16878e-08 -4.47692e-08 1.29447e-07)
(-9.33263e-08 3.87094e-10 -2.02585e-06 -1.36699e-07 -9.63125e-08 4.43222e-07)
(4.10028e-07 -3.72604e-09 -1.1135e-07 4.0708e-07 -2.87401e-08 -1.28709e-06)
(1.45128e-06 -1.05161e-08 -1.32567e-07 1.49138e-06 -1.78112e-07 -4.89711e-06)
(4.07755e-07 6.78251e-09 -7.26745e-08 4.16347e-07 -9.44519e-08 -1.31828e-06)
(1.45568e-06 9.89175e-09 -2.95159e-07 1.42308e-06 -1.7835e-07 -4.7254e-06)
(-2.26275e-08 7.79689e-09 -1.32846e-06 -6.93797e-08 5.34872e-08 1.76136e-07)
(-1.53877e-07 1.00173e-08 -2.18768e-06 -2.18879e-07 6.63171e-08 6.49349e-07)
(4.13771e-07 7.26485e-09 -1.66492e-07 4.12933e-07 -9.34919e-08 -1.30348e-06)
(3.77972e-08 -1.72571e-09 -1.86935e-09 1.0976e-08 -1.39714e-09 2.16615e-10)
(2.18494e-08 3.68475e-09 -1.08743e-06 -5.30763e-08 -3.86394e-08 9.5927e-08)
(3.60287e-07 -3.83952e-09 -1.04838e-07 3.58126e-07 -2.66523e-08 -1.12262e-06)
(2.27595e-08 7.10105e-09 1.77772e-09 1.50055e-08 1.55293e-09 5.51809e-09)
(3.58489e-07 7.55596e-09 -6.84031e-08 3.65638e-07 -8.85785e-08 -1.14928e-06)
(3.93457e-08 1.08705e-08 -2.25134e-09 1.14562e-08 1.94615e-09 -5.21052e-10)
(-1.11869e-08 7.57115e-09 -1.19033e-06 -5.62274e-08 4.9364e-08 1.33767e-07)
(3.64459e-07 7.26671e-09 -1.56802e-07 3.65014e-07 -8.74441e-08 -1.14142e-06)
(2.25995e-06 -4.42926e-09 -3.90481e-08 2.28349e-06 -7.61839e-08 -7.58766e-06)
(2.36688e-06 -5.11719e-09 -3.92542e-08 2.3904e-06 -7.79949e-08 -7.94745e-06)
(6.8754e-08 -1.0215e-10 -6.16372e-09 7.84544e-08 -1.25227e-08 -1.75715e-07)
(9.16854e-08 5.05488e-10 -8.35015e-09 1.01961e-07 -1.36868e-08 -2.53012e-07)
(4.30354e-06 -2.93075e-08 -4.90464e-08 4.31395e-06 -9.65746e-08 -1.44426e-05)
(4.1712e-06 -2.70971e-08 -4.85768e-08 4.18352e-06 -9.63996e-08 -1.40012e-05)
(2.74374e-06 -2.22249e-08 -2.18735e-06 2.83529e-06 -9.85511e-08 -9.15081e-06)
(4.26727e-06 8.09246e-09 -2.78436e-07 4.23936e-06 -1.09796e-07 -1.40696e-05)
(2.31597e-06 -1.92228e-08 -2.07028e-06 2.36713e-06 -8.66315e-08 -7.67266e-06)
(-3.27176e-07 -5.55447e-10 -3.03409e-06 -2.38885e-07 -2.05548e-07 1.04909e-06)
(1.28922e-06 -9.3787e-09 -2.23433e-06 1.30312e-06 -9.43668e-08 -4.18909e-06)
(1.56715e-06 -1.04248e-08 -2.39833e-06 1.62108e-06 -1.12465e-07 -5.16677e-06)
(1.97252e-06 -1.18349e-08 -2.5871e-06 2.08705e-06 -1.34871e-07 -6.59163e-06)
(-3.46549e-07 -8.95444e-11 -3.09776e-06 -2.43e-07 -2.14866e-07 1.09399e-06)
(1.665e-06 -1.06736e-08 -2.44856e-06 1.73334e-06 -1.18322e-07 -5.51074e-06)
(4.13724e-06 7.53271e-09 -2.75576e-07 4.10922e-06 -1.09312e-07 -1.36375e-05)
(1.78971e-06 -1.55765e-08 -1.89006e-06 1.79304e-06 -6.80959e-08 -5.85269e-06)
(2.17939e-06 -1.82167e-08 -2.02797e-06 2.21788e-06 -8.22182e-08 -7.20048e-06)
(4.11924e-06 -8.06671e-08 -1.95955e-07 4.27234e-06 -2.70705e-07 -1.40932e-05)
(3.9967e-06 -7.66802e-08 -1.9499e-07 4.14377e-06 -2.68798e-07 -1.36696e-05)
(2.27956e-06 3.45666e-08 -2.40897e-06 2.1195e-06 -2.05088e-07 -7.42004e-06)
(4.13198e-06 2.46732e-08 -4.3142e-07 3.98962e-06 -2.7562e-07 -1.3465e-05)
(1.96231e-06 2.98363e-08 -2.31386e-06 1.82516e-06 -1.88249e-07 -6.36171e-06)
(-5.64677e-07 2.43695e-08 -3.15909e-06 -7.15075e-07 3.35467e-08 2.14397e-06)
(1.05775e-06 2.21548e-08 -2.46866e-06 9.41483e-07 -1.03741e-07 -3.32431e-06)
(1.24822e-06 2.70696e-08 -2.62134e-06 1.11467e-06 -1.22471e-07 -3.95889e-06)
(1.51223e-06 3.42621e-08 -2.7748e-06 1.34712e-06 -1.45583e-07 -4.82987e-06)
(-6.07751e-07 2.63406e-08 -3.21195e-06 -7.69755e-07 2.87313e-08 2.30414e-06)
(1.31328e-06 2.88909e-08 -2.66501e-06 1.17275e-06 -1.28518e-07 -4.17448e-06)
(4.00867e-06 2.38581e-08 -4.28213e-07 3.87217e-06 -2.73465e-07 -1.30637e-05)
(1.55859e-06 2.39202e-08 -2.1429e-06 1.44405e-06 -1.61565e-07 -5.00712e-06)
(1.85908e-06 2.83565e-08 -2.27589e-06 1.72847e-06 -1.81983e-07 -6.01621e-06)
(2.25011e-06 3.02092e-10 -2.22551e-07 2.22735e-06 -8.45787e-08 -7.37724e-06)
(9.22515e-07 -8.89004e-09 -1.43148e-06 8.52314e-07 -2.99211e-08 -2.84656e-06)
(1.21578e-06 -1.12998e-08 -1.62003e-06 1.16967e-06 -4.36451e-08 -3.86453e-06)
(1.20212e-06 -8.91689e-09 -2.17497e-06 1.20373e-06 -8.82779e-08 -3.88242e-06)
(-1.88709e-07 -1.31503e-09 -2.50298e-06 -1.88948e-07 -1.4017e-07 7.03416e-07)
(9.58704e-07 -7.61642e-09 -1.98217e-06 9.26582e-07 -6.99882e-08 -3.0245e-06)
(2.35577e-06 6.12717e-10 -2.26157e-07 2.33237e-06 -8.67513e-08 -7.72759e-06)
(1.66702e-06 -1.46541e-08 -1.8402e-06 1.65953e-06 -6.32454e-08 -5.42799e-06)
(1.32241e-06 -1.205e-08 -1.6783e-06 1.28524e-06 -4.84821e-08 -4.23418e-06)
(6.7886e-07 -5.53943e-09 -1.68852e-06 6.09329e-07 -4.71676e-08 -2.03618e-06)
(-1.69039e-07 -1.07831e-09 -2.41433e-06 -1.79301e-07 -1.31074e-07 6.51205e-07)
(8.83795e-07 -7.04495e-09 -1.9128e-06 8.41553e-07 -6.4091e-08 -2.76021e-06)
(2.20108e-06 -2.71114e-08 -1.58569e-07 2.26901e-06 -2.16463e-07 -7.47599e-06)
(2.30296e-06 -2.93772e-08 -1.61116e-07 2.37454e-06 -2.2078e-07 -7.82569e-06)
(2.20649e-06 1.30259e-08 -3.49644e-07 2.14655e-06 -2.18009e-07 -7.18327e-06)
(8.49947e-07 1.46779e-08 -1.64707e-06 7.54107e-07 -1.01259e-07 -2.60439e-06)
(1.09681e-06 1.76767e-08 -1.8573e-06 9.97804e-07 -1.24242e-07 -3.44551e-06)
(9.96158e-07 2.07233e-08 -2.41054e-06 8.84405e-07 -9.74155e-08 -3.11788e-06)
(-2.99471e-07 1.39756e-08 -2.66968e-06 -3.88585e-07 5.95075e-08 1.17136e-06)
(8.18424e-07 1.66611e-08 -2.21388e-06 7.16707e-07 -7.83505e-08 -2.51869e-06)
(2.30831e-06 1.35181e-08 -3.55497e-07 2.24442e-06 -2.22593e-07 -7.51615e-06)
(1.46193e-06 2.26034e-08 -2.09226e-06 1.35162e-06 -1.54393e-07 -4.68142e-06)
(1.18456e-06 1.89024e-08 -1.92085e-06 1.08355e-06 -1.31883e-07 -3.7434e-06)
(6.01869e-07 1.24452e-08 -1.89954e-06 5.06014e-07 -5.4297e-08 -1.7813e-06)
(-2.67226e-07 1.2996e-08 -2.58226e-06 -3.50339e-07 6.17957e-08 1.05503e-06)
(7.61862e-07 1.558e-08 -2.14095e-06 6.62342e-07 -7.21561e-08 -2.3269e-06)
(9.04236e-07 2.35619e-09 -2.99691e-08 9.23905e-07 -4.29996e-08 -3.01123e-06)
(8.31896e-07 2.63303e-09 -2.93235e-08 8.51503e-07 -4.08389e-08 -2.76728e-06)
(8.3399e-07 -8.08456e-09 -1.36383e-06 7.56702e-07 -2.57087e-08 -2.53891e-06)
(9.0803e-07 -2.94516e-09 -1.57136e-07 8.97851e-07 -4.7458e-08 -2.93356e-06)
(5.97277e-07 -6.12977e-09 -1.14545e-06 5.01811e-07 -1.44715e-08 -1.71624e-06)
(-2.71861e-08 2.32577e-09 -1.58261e-06 -9.20515e-08 -6.51514e-08 2.5033e-07)
(2.82065e-07 -2.02077e-09 -9.60314e-07 1.6842e-07 -1.26736e-08 -6.43039e-07)
(4.05539e-07 -3.06662e-09 -1.25709e-06 3.02575e-07 -2.34778e-08 -1.07134e-06)
(6.17285e-07 -4.96314e-09 -1.60816e-06 5.3984e-07 -4.19307e-08 -1.81853e-06)
(-4.23951e-08 1.85635e-09 -1.69849e-06 -1.03054e-07 -7.25493e-08 2.95961e-07)
(4.53303e-07 -3.43998e-09 -1.34945e-06 3.55724e-07 -2.76693e-08 -1.23935e-06)
(8.36692e-07 -3.05105e-09 -1.52034e-07 8.27414e-07 -4.49935e-08 -2.6974e-06)
(3.50813e-07 -4.14009e-09 -8.1389e-07 2.40234e-07 -3.58805e-09 -8.65309e-07)
(5.2825e-07 -5.46006e-09 -1.06719e-06 4.27852e-07 -1.13038e-08 -1.47661e-06)
(8.98516e-07 -5.80828e-10 -1.06133e-07 9.20922e-07 -1.40438e-07 -3.00024e-06)
(8.28596e-07 7.49522e-10 -1.02438e-07 8.48716e-07 -1.34896e-07 -2.75995e-06)
(7.73657e-07 1.38653e-08 -1.57054e-06 6.78028e-07 -9.3704e-08 -2.34356e-06)
(9.03511e-07 8.12651e-09 -2.39397e-07 8.8865e-07 -1.39977e-07 -2.9135e-06)
(5.65165e-07 1.14294e-08 -1.32088e-06 4.68236e-07 -7.15836e-08 -1.62874e-06)
(-6.77056e-08 8.46473e-09 -1.72174e-06 -1.21146e-07 6.23972e-08 3.41324e-07)
(2.63415e-07 6.86472e-09 -1.08869e-06 1.6612e-07 -1.65401e-08 -6.23169e-07)
(3.7387e-07 8.63469e-09 -1.42158e-06 2.77103e-07 -2.87544e-08 -9.98262e-07)
(5.52149e-07 1.16416e-08 -1.81162e-06 4.56603e-07 -4.87193e-08 -1.61086e-06)
(-8.65139e-08 8.78778e-09 -1.84474e-06 -1.42466e-07 6.42222e-08 4.09017e-07)
(4.15174e-07 9.42219e-09 -1.52479e-06 3.18881e-07 -3.3332e-08 -1.14011e-06)
(8.33473e-07 8.01876e-09 -2.31194e-07 8.20853e-07 -1.34226e-07 -2.68368e-06)
(3.39421e-07 8.89685e-09 -9.39889e-07 2.39999e-07 -4.39585e-08 -8.56982e-07)
(5.02913e-07 1.0881e-08 -1.23097e-06 4.0524e-07 -6.44813e-08 -1.41518e-06)
(7.81565e-08 -4.6179e-09 -4.07554e-08 8.10688e-08 -1.31503e-08 -1.92652e-07)
(2.23457e-07 1.69693e-08 -2.67334e-08 -5.5521e-08 2.02046e-09 -6.51098e-08)
(1.59632e-07 -4.67045e-09 -3.24428e-07 3.94859e-08 2.57359e-09 -2.11134e-07)
(2.47254e-07 -1.80492e-09 -8.54619e-07 1.32012e-07 -9.77198e-09 -5.25203e-07)
(4.8961e-08 3.49106e-09 -6.88315e-07 -3.54849e-08 -2.28199e-08 2.04238e-08)
(1.63889e-07 -2.46208e-09 -5.18581e-07 4.45537e-08 -2.92205e-09 -2.43343e-07)
(1.01069e-07 -4.46294e-09 -4.99482e-08 1.03594e-07 -1.46437e-08 -2.6798e-07)
(3.01532e-07 -3.83651e-09 -7.22718e-07 1.89303e-07 -1.73943e-09 -6.98027e-07)
(1.84788e-07 -4.14453e-09 -4.28269e-07 6.98692e-08 1.86389e-09 -3.0569e-07)
(2.27029e-07 1.89381e-08 -3.19746e-08 -5.97086e-08 1.40833e-09 -6.46516e-08)
(5.97549e-08 3.45711e-09 -5.49391e-07 -3.33871e-08 -1.86207e-08 3.94646e-09)
(1.47195e-07 -2.86127e-09 -4.01377e-07 2.08529e-08 -1.3304e-09 -1.72634e-07)
(7.68431e-08 1.01218e-08 -2.8145e-08 7.83279e-08 -3.851e-08 -1.90134e-07)
(1.00413e-07 1.01912e-08 -3.34892e-08 1.01657e-07 -4.51565e-08 -2.67918e-07)
(8.36246e-08 7.35069e-09 -6.55629e-08 9.00651e-08 -3.73531e-08 -2.16529e-07)
(2.19584e-07 2.00137e-08 -3.03108e-08 -5.38363e-08 5.45616e-10 -6.37304e-08)
(1.53302e-07 4.82508e-09 -3.86192e-07 4.94013e-08 -1.26928e-08 -2.24667e-07)
(2.31122e-07 6.35918e-09 -9.70319e-07 1.34333e-07 -1.30727e-08 -5.15826e-07)
(1.70595e-08 5.68805e-09 -7.60301e-07 -3.02384e-08 3.31917e-08 4.29023e-08)
(1.50634e-07 3.82317e-09 -5.9616e-07 5.379e-08 -4.42649e-09 -2.48157e-07)
(1.067e-07 7.30715e-09 -7.79315e-08 1.12978e-07 -4.41359e-08 -2.92715e-07)
(2.92787e-07 8.31979e-09 -8.35687e-07 1.93516e-07 -3.74541e-08 -7.00021e-07)
(1.7903e-07 5.93475e-09 -5.02231e-07 8.00271e-08 -1.8701e-08 -3.20526e-07)
(2.2099e-07 2.05625e-08 -3.58277e-08 -5.78639e-08 3.23632e-10 -6.27962e-08)
(2.76787e-08 4.93688e-09 -6.11556e-07 -2.62547e-08 2.67531e-08 2.31986e-08)
(1.33474e-07 3.03684e-09 -4.67043e-07 3.03111e-08 -2.05784e-09 -1.77333e-07)
(1.8515e-06 -1.37925e-09 -3.69878e-08 1.87518e-06 -6.79314e-08 -6.21169e-06)
(2.81301e-06 -9.62696e-09 -4.13378e-08 2.83474e-06 -8.50375e-08 -9.44628e-06)
(1.70439e-08 -1.32943e-09 3.20526e-09 2.53093e-08 -6.9081e-09 -4.6225e-09)
(2.20323e-07 1.21919e-09 -1.63364e-08 2.32425e-07 -1.9149e-08 -6.89519e-07)
(4.84353e-06 -3.81142e-08 -5.2574e-08 4.84768e-06 -9.59652e-08 -1.62476e-05)
(3.65687e-06 -1.98294e-08 -4.57513e-08 3.67353e-06 -9.38134e-08 -1.22779e-05)
(4.79948e-06 1.06458e-08 -2.90289e-07 4.77236e-06 -1.10275e-07 -1.58374e-05)
(3.73845e-06 -1.64303e-08 -1.25692e-06 3.74665e-06 -1.45518e-07 -1.24756e-05)
(-2.87965e-07 -1.17211e-09 -2.89786e-06 -2.28255e-07 -1.868e-07 9.55382e-07)
(2.45893e-07 -4.59669e-09 -2.70637e-06 2.807e-07 -1.55302e-07 -7.95865e-07)
(2.61697e-07 -4.69943e-09 -2.77592e-06 3.10218e-07 -1.63741e-07 -8.68399e-07)
(3.76673e-07 -4.7082e-09 -3.13538e-06 5.20381e-07 -2.13098e-07 -1.38417e-06)
(-3.8479e-07 1.01663e-09 -3.21665e-06 -2.48702e-07 -2.33276e-07 1.1796e-06)
(3.55279e-07 -4.6984e-09 -3.08199e-06 4.81527e-07 -2.05154e-07 -1.28903e-06)
(3.62972e-06 5.34454e-09 -2.63322e-07 3.60188e-06 -1.05614e-07 -1.19525e-05)
(2.55813e-06 -1.17973e-08 -1.10955e-06 2.55726e-06 -1.14984e-07 -8.48961e-06)
(2.85765e-06 -1.58624e-08 -1.14384e-06 2.84198e-06 -1.17711e-07 -9.42735e-06)
(4.61908e-06 -9.70066e-08 -2.0062e-07 4.79741e-06 -2.75966e-07 -1.58219e-05)
(3.51713e-06 -6.22547e-08 -1.8805e-07 3.64162e-06 -2.59407e-07 -1.20129e-05)
(4.63479e-06 2.83834e-08 -4.43431e-07 4.46845e-06 -2.81693e-07 -1.51011e-05)
(3.53082e-06 6.32424e-08 -1.42517e-06 3.58221e-06 -2.71146e-07 -1.17758e-05)
(-4.82204e-07 2.08346e-08 -3.04078e-06 -6.11534e-07 4.24616e-08 1.83887e-06)
(4.63193e-08 1.69834e-08 -2.88433e-06 -7.46861e-08 3.09867e-09 2.51385e-08)
(3.95585e-08 1.83594e-08 -2.94777e-06 -8.93425e-08 -1.56661e-09 5.31081e-08)
(-1.35984e-08 2.78801e-08 -3.24229e-06 -2.04173e-07 -3.23746e-08 2.78646e-07)
(-6.97374e-07 3.05301e-08 -3.30547e-06 -8.84713e-07 1.8528e-08 2.63894e-06)
(-3.27472e-09 2.62131e-08 -3.20324e-06 -1.81883e-07 -2.70488e-08 2.34315e-07)
(3.52686e-06 2.06002e-08 -4.12533e-07 3.41215e-06 -2.6326e-07 -1.14937e-05)
(2.45289e-06 4.29864e-08 -1.26916e-06 2.46752e-06 -2.23276e-07 -8.11819e-06)
(2.71526e-06 3.53855e-08 -1.29457e-06 2.74526e-06 -2.06524e-07 -9.00514e-06)
(1.84619e-06 -8.08504e-10 -2.07016e-07 1.82628e-06 -7.52009e-08 -6.03877e-06)
(1.26496e-06 -4.8406e-09 -8.41713e-07 1.24361e-06 -6.47178e-08 -4.10105e-06)
(1.49388e-06 -8.50106e-09 -8.96188e-07 1.4622e-06 -7.51384e-08 -4.81884e-06)
(2.31074e-07 -4.39092e-09 -2.63382e-06 2.52796e-07 -1.46852e-07 -7.27325e-07)
(-2.28396e-07 -1.5093e-09 -2.67051e-06 -2.06655e-07 -1.58668e-07 8.06541e-07)
(2.17235e-07 -4.18456e-09 -2.55833e-06 2.26521e-07 -1.3841e-07 -6.62753e-07)
(2.79637e-06 2.08593e-09 -2.40374e-07 2.77077e-06 -9.49137e-08 -9.18817e-06)
(2.48542e-06 -1.42864e-08 -1.08973e-06 2.46624e-06 -1.08554e-07 -8.17043e-06)
(2.20125e-06 -1.01476e-08 -1.05085e-06 2.19591e-06 -1.02843e-07 -7.28091e-06)
(1.54255e-07 -1.9658e-09 -2.03948e-06 1.02364e-07 -8.97035e-08 -3.57793e-07)
(-1.30426e-07 -4.79388e-10 -2.22686e-06 -1.58617e-07 -1.13329e-07 5.46541e-07)
(1.62492e-07 -2.40015e-09 -2.13395e-06 1.19167e-07 -9.74555e-08 -3.991e-07)
(1.81165e-06 -1.82141e-08 -1.46118e-07 1.86488e-06 -1.98018e-07 -6.13603e-06)
(2.72481e-06 -4.02021e-08 -1.72038e-07 2.81398e-06 -2.36906e-07 -9.27915e-06)
(1.81651e-06 1.12961e-08 -3.23582e-07 1.77111e-06 -1.98874e-07 -5.90698e-06)
(1.24154e-06 2.1957e-08 -9.61251e-07 1.21585e-06 -1.43934e-07 -3.99868e-06)
(1.44672e-06 1.55684e-08 -1.02109e-06 1.43394e-06 -1.48266e-07 -4.69693e-06)
(5.25089e-08 1.57531e-08 -2.81675e-06 -6.13154e-08 7.57557e-09 -7.71669e-11)
(-3.68355e-07 1.63815e-08 -2.83128e-06 -4.71452e-07 5.37142e-08 1.42146e-06)
(5.81127e-08 1.45454e-08 -2.74484e-06 -4.92255e-08 1.18323e-08 -2.26016e-08)
(2.73145e-06 1.5728e-08 -3.785e-07 2.65061e-06 -2.39453e-07 -8.89842e-06)
(2.37209e-06 2.94843e-08 -1.23741e-06 2.39084e-06 -1.94355e-07 -7.84182e-06)
(2.1221e-06 3.70347e-08 -1.20296e-06 2.12571e-06 -2.04528e-07 -6.99458e-06)
(7.98602e-08 9.17602e-09 -2.22262e-06 -1.7072e-09 3.10295e-08 -1.04625e-07)
(-2.0734e-07 1.12766e-08 -2.3939e-06 -2.80345e-07 6.50341e-08 8.4016e-07)
(7.76083e-08 9.90486e-09 -2.32058e-06 -6.85206e-09 2.87423e-08 -9.68152e-08)
(1.21689e-06 1.70761e-09 -3.28176e-08 1.23852e-06 -5.20744e-08 -4.06879e-06)
(5.69983e-07 2.34504e-09 -2.56782e-08 5.86756e-07 -3.2198e-08 -1.87825e-06)
(1.21136e-06 -6.51949e-09 -8.20326e-07 1.17499e-06 -6.33604e-08 -3.86203e-06)
(1.21778e-06 -2.3154e-09 -1.76682e-07 1.20387e-06 -5.75194e-08 -3.95827e-06)
(1.00392e-06 -3.19463e-09 -7.60043e-07 9.76344e-07 -5.26261e-08 -3.21069e-06)
(-1.86836e-10 3.17688e-09 -1.34097e-06 -7.12143e-08 -5.12406e-08 1.66658e-07)
(1.09057e-07 1.29645e-09 -1.16287e-06 1.58927e-08 -3.63673e-08 -1.39718e-07)
(1.13651e-07 1.08374e-09 -1.28391e-06 2.28064e-08 -4.20413e-08 -1.58401e-07)
(1.46795e-07 -1.44688e-09 -1.9416e-06 8.7016e-08 -8.21539e-08 -3.20076e-07)
(-7.56096e-08 8.48499e-10 -1.92017e-06 -1.25487e-07 -8.81381e-08 3.9278e-07)
(1.4005e-07 -9.8358e-10 -1.84043e-06 7.31226e-08 -7.48276e-08 -2.85788e-07)
(5.76761e-07 -3.4528e-09 -1.29844e-07 5.7112e-07 -3.54422e-08 -1.83768e-06)
(3.98364e-07 1.02333e-09 -4.70442e-07 3.53773e-07 -2.18807e-08 -1.13946e-06)
(5.32548e-07 -1.00947e-09 -5.51848e-07 4.82723e-07 -3.0631e-08 -1.56192e-06)
(1.20158e-06 -5.88925e-09 -1.21418e-07 1.23352e-06 -1.62282e-07 -4.03969e-06)
(5.72488e-07 4.5116e-09 -8.59487e-08 5.85633e-07 -1.12057e-07 -1.88256e-06)
(1.17893e-06 1.19674e-08 -9.34104e-07 1.157e-06 -1.31007e-07 -3.78573e-06)
(1.20623e-06 9.01314e-09 -2.71971e-07 1.18181e-06 -1.62258e-07 -3.90691e-06)
(9.91896e-07 1.78339e-08 -8.66188e-07 9.5795e-07 -1.23476e-07 -3.1478e-06)
(-3.57602e-08 8.06269e-09 -1.4633e-06 -8.45826e-08 5.70361e-08 2.24839e-07)
(7.77746e-08 5.66238e-09 -1.2839e-06 9.67584e-09 3.30304e-08 -1.0065e-07)
(8.02073e-08 6.06312e-09 -1.41559e-06 1.06094e-08 3.44877e-08 -1.06852e-07)
(8.16028e-08 8.6283e-09 -2.12039e-06 2.46687e-09 3.29187e-08 -1.10344e-07)
(-1.29639e-07 9.49656e-09 -2.07781e-06 -1.9132e-07 6.6172e-08 5.63073e-07)
(8.28114e-08 8.05622e-09 -2.01364e-06 5.72764e-09 3.43499e-08 -1.14101e-07)
(5.78165e-07 7.52753e-09 -1.95464e-07 5.72879e-07 -1.11119e-07 -1.84408e-06)
(4.04338e-07 8.0553e-09 -5.32809e-07 3.51417e-07 -6.44677e-08 -1.1426e-06)
(5.28092e-07 4.43885e-09 -6.25397e-07 4.82626e-07 -7.73911e-08 -1.56467e-06)
(2.71374e-08 -5.52378e-09 -3.45223e-09 2.69841e-08 -6.72016e-09 -2.02862e-08)
(1.41426e-07 7.59232e-09 -2.32007e-09 -1.64985e-08 2.36548e-09 -4.56439e-08)
(1.04718e-07 5.01583e-10 -6.01711e-08 2.82151e-08 1.80726e-10 -8.81517e-08)
(1.04496e-07 1.44272e-09 -1.03879e-06 9.68983e-09 -3.10284e-08 -1.22431e-07)
(3.11709e-08 3.71985e-09 -9.56709e-07 -4.56068e-08 -3.28911e-08 6.64389e-08)
(1.00113e-07 1.38593e-09 -9.12092e-07 3.89949e-09 -2.60451e-08 -1.06155e-07)
(2.29262e-07 -4.0399e-09 -8.33792e-08 2.2941e-07 -2.09493e-08 -6.90086e-07)
(3.68676e-07 3.05557e-10 -4.4526e-07 3.15814e-07 -2.15573e-08 -1.00827e-06)
(2.61877e-07 1.69165e-09 -3.54129e-07 2.13569e-07 -1.40859e-08 -6.732e-07)
(1.87372e-07 2.55817e-08 -4.73633e-08 -5.95623e-08 -1.05108e-09 -5.03519e-08)
(1.31053e-07 3.81101e-09 -2.21024e-07 -3.74761e-08 -8.03142e-09 -4.30432e-08)
(2.24079e-08 9.59073e-09 -5.53347e-09 2.43499e-08 -1.0406e-08 -1.32306e-08)
(2.28182e-07 8.88946e-09 -5.41498e-08 2.32452e-07 -7.04446e-08 -7.03803e-07)
(3.04068e-08 8.50349e-09 -1.42282e-08 3.19298e-08 -9.40655e-09 -3.4158e-08)
(1.42851e-07 1.47803e-08 -5.02072e-09 -1.58434e-08 1.05495e-09 -4.66359e-08)
(1.06272e-07 1.9764e-09 -7.63697e-08 2.91852e-08 -4.48778e-09 -9.67744e-08)
(7.4807e-08 5.35702e-09 -1.14893e-06 8.14577e-09 3.11019e-08 -9.28943e-08)
(-1.16338e-09 7.14154e-09 -1.04931e-06 -4.52727e-08 4.46241e-08 9.76502e-08)
(7.15057e-08 4.83141e-09 -1.01084e-06 5.881e-09 2.86204e-08 -8.36408e-08)
(2.34693e-07 7.20242e-09 -1.24903e-07 2.38321e-07 -6.9412e-08 -7.13761e-07)
(3.68324e-07 2.71391e-09 -5.04236e-07 3.17968e-07 -5.95357e-08 -1.0217e-06)
(2.69187e-07 5.49614e-09 -4.01564e-07 2.13537e-07 -4.5802e-08 -6.84311e-07)
(1.73841e-07 2.34336e-08 -5.14559e-08 -5.73956e-08 1.45525e-10 -4.57385e-08)
(1.00555e-07 6.77948e-09 -2.63167e-07 -2.73803e-08 8.92143e-09 -3.31445e-08)
(1.95069e-06 -1.79506e-09 -3.725e-08 1.97456e-06 -6.98553e-08 -6.54588e-06)
(2.69852e-06 -8.2754e-09 -4.10053e-08 2.72126e-06 -8.3595e-08 -9.06296e-06)
(2.3977e-08 -5.9281e-10 1.23888e-09 3.29247e-08 -8.37908e-09 -2.65836e-08)
(1.82679e-07 1.20415e-09 -1.46438e-08 1.94595e-07 -1.78263e-08 -5.62302e-07)
(4.70643e-06 -3.56882e-08 -5.20678e-08 4.71276e-06 -9.66445e-08 -1.57908e-05)
(3.78353e-06 -2.13732e-08 -4.60649e-08 3.79921e-06 -9.44005e-08 -1.27021e-05)
(3.58201e-06 1.58437e-08 -1.64225e-06 3.62406e-06 -5.14938e-08 -1.18318e-05)
(2.59824e-06 -2.11943e-08 -2.14997e-06 2.67597e-06 -9.48418e-08 -8.64828e-06)
(3.39088e-06 1.45086e-08 -1.61399e-06 3.42422e-06 -4.97296e-08 -1.11868e-05)
(4.66484e-06 1.00153e-08 -2.87422e-07 4.63742e-06 -1.10598e-07 -1.53897e-05)
(3.32854e-06 -1.48337e-08 -1.21227e-06 3.33446e-06 -1.36742e-07 -1.1093e-05)
(3.65422e-06 -1.87573e-08 -1.23839e-06 3.6442e-06 -1.31483e-07 -1.2114e-05)
(2.45565e-06 -2.01055e-08 -2.11089e-06 2.51987e-06 -9.09029e-08 -8.15546e-06)
(3.01951e-06 1.20776e-08 -1.55397e-06 3.03607e-06 -4.53287e-08 -9.93261e-06)
(3.20344e-06 1.33288e-08 -1.58445e-06 3.22816e-06 -4.77642e-08 -1.05536e-05)
(-3.07647e-07 -8.84883e-10 -2.96747e-06 -2.33992e-07 -1.96192e-07 1.00287e-06)
(2.96318e-07 -4.83531e-09 -2.90651e-06 3.74061e-07 -1.80546e-07 -1.02525e-06)
(2.7851e-07 -4.75729e-09 -2.84265e-06 3.41336e-07 -1.72183e-07 -9.44864e-07)
(7.74195e-07 -1.2077e-08 -2.51025e-06 7.95112e-07 -1.26019e-07 -2.50075e-06)
(1.37917e-06 -9.70879e-09 -2.29126e-06 1.40588e-06 -1.00464e-07 -4.5056e-06)
(8.27258e-07 -1.2753e-08 -2.57453e-06 8.61501e-07 -1.3339e-07 -2.69553e-06)
(9.38951e-07 -1.40454e-08 -2.69531e-06 1.00158e-06 -1.48031e-07 -3.10521e-06)
(1.47186e-06 -1.00082e-08 -2.34593e-06 1.51191e-06 -1.06507e-07 -4.83161e-06)
(8.82194e-07 -1.33967e-08 -2.63622e-06 9.30326e-07 -1.40744e-07 -2.89709e-06)
(1.18285e-06 -1.65378e-08 -2.90758e-06 1.30902e-06 -1.76076e-07 -3.99897e-06)
(1.86782e-06 -1.13686e-08 -2.54291e-06 1.9664e-06 -1.29573e-07 -6.22355e-06)
(1.11952e-06 -1.58651e-08 -2.85798e-06 1.2289e-06 -1.69275e-07 -3.76682e-06)
(-3.65753e-07 4.39216e-10 -3.1586e-06 -2.4629e-07 -2.24128e-07 1.13752e-06)
(3.15067e-07 -4.78895e-09 -2.96766e-06 4.0834e-07 -1.88847e-07 -1.10946e-06)
(3.34736e-07 -4.74008e-09 -3.0261e-06 4.4418e-07 -1.97063e-07 -1.19742e-06)
(1.76527e-06 -1.09831e-08 -2.49671e-06 1.84845e-06 -1.24044e-07 -5.86314e-06)
(9.97468e-07 -1.46397e-08 -2.75192e-06 1.07511e-06 -1.55217e-07 -3.31969e-06)
(1.0577e-06 -1.52432e-08 -2.8061e-06 1.15091e-06 -1.62312e-07 -3.54032e-06)
(3.75458e-06 5.85594e-09 -2.66373e-07 3.72659e-06 -1.06562e-07 -1.23671e-05)
(3.24791e-06 -1.73206e-08 -1.19331e-06 3.23529e-06 -1.25561e-07 -1.07439e-05)
(2.93479e-06 -1.34555e-08 -1.16335e-06 2.93735e-06 -1.26287e-07 -9.76235e-06)
(2.32474e-06 7.36133e-09 -1.41963e-06 2.31092e-06 -3.36382e-08 -7.58451e-06)
(1.91611e-06 -1.64179e-08 -1.93789e-06 1.93072e-06 -7.29037e-08 -6.29001e-06)
(2.492e-06 8.50154e-09 -1.45515e-06 2.48527e-06 -3.68147e-08 -8.14989e-06)
(2.83957e-06 1.08901e-08 -1.52231e-06 2.84805e-06 -4.27042e-08 -9.32457e-06)
(2.04606e-06 -1.72817e-08 -1.98387e-06 2.07236e-06 -7.76039e-08 -6.73942e-06)
(2.66367e-06 9.68574e-09 -1.48942e-06 2.66435e-06 -3.9796e-08 -8.73008e-06)
(4.49271e-06 -9.26919e-08 -2.00181e-07 4.66461e-06 -2.75007e-07 -1.53847e-05)
(3.63564e-06 -6.55924e-08 -1.89459e-07 3.76528e-06 -2.61969e-07 -1.24212e-05)
(3.09677e-06 5.99088e-09 -1.91314e-06 2.96717e-06 -2.72022e-07 -1.01199e-05)
(2.17266e-06 3.30047e-08 -2.38041e-06 2.02077e-06 -1.99866e-07 -7.06397e-06)
(2.94663e-06 5.86344e-09 -1.89068e-06 2.82325e-06 -2.6717e-07 -9.62069e-06)
(4.50759e-06 2.74726e-08 -4.40969e-07 4.34753e-06 -2.80475e-07 -1.46874e-05)
(3.15899e-06 5.62273e-08 -1.38026e-06 3.19754e-06 -2.56998e-07 -1.05147e-05)
(3.44191e-06 4.84703e-08 -1.38696e-06 3.49601e-06 -2.24676e-07 -1.14669e-05)
(2.06688e-06 3.14737e-08 -2.34871e-06 1.92265e-06 -1.94264e-07 -6.7111e-06)
(2.65171e-06 5.64149e-09 -1.83791e-06 2.53931e-06 -2.55749e-07 -8.63856e-06)
(2.79818e-06 5.7846e-09 -1.8656e-06 2.68057e-06 -2.61805e-07 -9.12676e-06)
(-5.22803e-07 2.25777e-08 -3.10205e-06 -6.62294e-07 3.81174e-08 1.98882e-06)
(2.4193e-08 2.12737e-08 -3.06219e-06 -1.22525e-07 -1.14217e-08 1.1735e-07)
(3.21902e-08 1.98201e-08 -3.00705e-06 -1.0529e-07 -6.43657e-09 8.38346e-08)
(5.54411e-07 2.51808e-08 -2.71747e-06 4.32695e-07 -4.7401e-08 -1.64551e-06)
(1.12035e-06 2.37702e-08 -2.52317e-06 9.98947e-07 -1.10055e-07 -3.5335e-06)
(5.82046e-07 2.71173e-08 -2.77732e-06 4.53906e-07 -5.29039e-08 -1.735e-06)
(6.3775e-07 3.11726e-08 -2.88522e-06 4.9472e-07 -6.41005e-08 -1.91317e-06)
(1.18386e-06 2.54582e-08 -2.57406e-06 1.0567e-06 -1.16313e-07 -3.74513e-06)
(6.09845e-07 2.91425e-08 -2.83324e-06 4.74603e-07 -5.84904e-08 -1.82426e-06)
(7.49648e-07 4.0041e-08 -3.0545e-06 5.69091e-07 -8.63978e-08 -2.26274e-06)
(1.44535e-06 3.24831e-08 -2.74174e-06 1.28905e-06 -1.40108e-07 -4.61019e-06)
(7.21682e-07 3.78046e-08 -3.0179e-06 5.51488e-07 -8.08958e-08 -2.17645e-06)
(-6.51992e-07 2.84034e-08 -3.26073e-06 -8.26312e-07 2.3706e-08 2.46918e-06)
(1.56257e-08 2.28942e-08 -3.11318e-06 -1.41039e-07 -1.65449e-08 1.53602e-07)
(6.47198e-09 2.45478e-08 -3.16022e-06 -1.60838e-07 -2.17654e-08 1.9261e-07)
(1.37901e-06 3.07093e-08 -2.70515e-06 1.23092e-06 -1.34409e-07 -4.39166e-06)
(6.65722e-07 3.33505e-08 -2.93325e-06 5.14285e-07 -6.97204e-08 -2.00159e-06)
(6.93696e-07 3.55748e-08 -2.9775e-06 5.33218e-07 -7.533e-08 -2.08937e-06)
(3.64568e-06 2.13695e-08 -4.16445e-07 3.52563e-06 -2.66109e-07 -1.18809e-05)
(3.0723e-06 4.1728e-08 -1.34446e-06 3.11421e-06 -2.16845e-07 -1.02154e-05)
(2.79896e-06 4.93401e-08 -1.32818e-06 2.82541e-06 -2.40786e-07 -9.29364e-06)
(2.08719e-06 5.405e-09 -1.70132e-06 1.99177e-06 -2.27231e-07 -6.7536e-06)
(1.65709e-06 2.53822e-08 -2.1904e-06 1.53776e-06 -1.68588e-07 -5.33846e-06)
(2.22467e-06 5.44841e-09 -1.73935e-06 2.1257e-06 -2.34988e-07 -7.21346e-06)
(2.50711e-06 5.58762e-09 -1.80768e-06 2.39965e-06 -2.49286e-07 -8.15653e-06)
(1.75731e-06 2.68843e-08 -2.23472e-06 1.63262e-06 -1.75386e-07 -5.67498e-06)
(2.36469e-06 5.53285e-09 -1.77477e-06 2.26174e-06 -2.42291e-07 -7.68133e-06)
(1.94423e-06 -5.51071e-10 -2.1097e-07 1.92355e-06 -7.75004e-08 -6.36372e-06)
(1.80154e-06 -1.04111e-08 -9.66184e-07 1.77446e-06 -8.6864e-08 -5.85996e-06)
(1.55306e-06 -6.74179e-09 -9.1725e-07 1.53721e-06 -7.72547e-08 -5.08043e-06)
(1.17016e-06 1.97835e-10 -1.07946e-06 1.10899e-06 -7.35249e-09 -3.67373e-06)
(1.01573e-06 -9.61677e-09 -1.49664e-06 9.53114e-07 -3.43532e-08 -3.17031e-06)
(1.29506e-06 9.59895e-10 -1.12785e-06 1.23873e-06 -1.04321e-08 -4.09735e-06)
(1.56228e-06 2.55811e-09 -1.21939e-06 1.51673e-06 -1.69017e-08 -5.00347e-06)
(1.11352e-06 -1.03743e-08 -1.55952e-06 1.05893e-06 -3.89426e-08 -3.50977e-06)
(1.42585e-06 1.75881e-09 -1.17454e-06 1.37467e-06 -1.35826e-08 -4.54076e-06)
(7.23067e-07 -1.13339e-08 -2.44321e-06 7.31211e-07 -1.18647e-07 -2.31292e-06)
(1.11796e-06 -8.49361e-09 -2.11324e-06 1.10776e-06 -8.21532e-08 -3.58589e-06)
(6.73919e-07 -1.0613e-08 -2.37346e-06 6.6988e-07 -1.11267e-07 -2.13219e-06)
(-2.08512e-07 -1.42292e-09 -2.58839e-06 -1.98127e-07 -1.49386e-07 7.55268e-07)
(1.92517e-07 -3.60409e-09 -2.39809e-06 1.7882e-07 -1.21693e-07 -5.45566e-07)
(2.0437e-07 -3.87725e-09 -2.47973e-06 2.01859e-07 -1.30018e-07 -6.0217e-07)
(1.0368e-06 -7.98219e-09 -2.04895e-06 1.01537e-06 -7.60603e-08 -3.29983e-06)
(5.81694e-07 -9.0668e-09 -2.22541e-06 5.55049e-07 -9.66599e-08 -1.79267e-06)
(6.26793e-07 -9.82948e-09 -2.30085e-06 6.11127e-07 -1.03925e-07 -1.95873e-06)
(2.68373e-06 1.72349e-09 -2.36945e-07 2.65858e-06 -9.31327e-08 -8.8144e-06)
(1.86565e-06 -8.4125e-09 -9.86826e-07 1.85532e-06 -9.00809e-08 -6.14243e-06)
(2.13289e-06 -1.24897e-08 -1.03059e-06 2.10974e-06 -9.82298e-08 -6.97926e-06)
(2.16224e-06 6.31183e-09 -1.3826e-06 2.14145e-06 -3.04218e-08 -7.03472e-06)
(1.54813e-06 -1.37793e-08 -1.78837e-06 1.5303e-06 -5.83281e-08 -5.01635e-06)
(2.00453e-06 5.28888e-09 -1.34418e-06 1.9771e-06 -2.70599e-08 -6.50105e-06)
(1.70439e-06 3.45409e-09 -1.26259e-06 1.66456e-06 -2.02483e-08 -5.48479e-06)
(1.43324e-06 -1.28694e-08 -1.73438e-06 1.4055e-06 -5.34198e-08 -4.61827e-06)
(1.85189e-06 4.35953e-09 -1.30414e-06 1.81805e-06 -2.37161e-08 -5.98422e-06)
(4.22375e-07 -5.79954e-09 -1.89392e-06 3.57569e-07 -6.8964e-08 -1.20459e-06)
(7.43832e-07 -6.028e-09 -1.76598e-06 6.82826e-07 -5.26263e-08 -2.26582e-06)
(4.59048e-07 -6.62191e-09 -1.98129e-06 4.02852e-07 -7.56242e-08 -1.34002e-06)
(-1.49588e-07 -8.0225e-10 -2.32225e-06 -1.69178e-07 -1.22114e-07 5.98837e-07)
(1.81602e-07 -3.1971e-09 -2.31325e-06 1.57353e-07 -1.13487e-07 -4.92896e-07)
(1.71601e-07 -2.79608e-09 -2.22524e-06 1.37491e-07 -1.05393e-07 -4.44092e-07)
(8.12158e-07 -6.51329e-09 -1.84076e-06 7.60266e-07 -5.82934e-08 -2.50724e-06)
(5.38684e-07 -8.24208e-09 -2.14704e-06 5.016e-07 -8.95285e-08 -1.63412e-06)
(4.97817e-07 -7.43489e-09 -2.0657e-06 4.50863e-07 -8.24954e-08 -1.48323e-06)
(1.90675e-06 -2.01151e-08 -1.48963e-07 1.96307e-06 -2.02707e-07 -6.46192e-06)