/*--------------------------------*- C++ -*----------------------------------*\
| =========                 |                                                 |
| \\      /  F ield         | OpenFOAM: The Open Source CFD Toolbox           |
|  \\    /   O peration     | Version:  2012                                  |
|   \\  /    A nd           | Website:  www.openfoam.com                      |
|    \\/     M anipulation  |                                                 |
\*---------------------------------------------------------------------------*/
FoamFile
{
    version     2.0;
    format      ascii;
    class       volVectorField;
    location    "0.105/solid";
    object      sigmaMinDir;
}
// * * * * * * * * * * * * * * * * * * * * * * * * * * * * * * * * * * * * * //

dimensions      [1 -1 -2 0 0 0 0];


internalField   nonuniform List<vector> 
3125
(
(0.024716 0.999653 -0.0090719)
(-0.438783 0.898582 -0.00444376)
(0.976773 -0.154048 0.148943)
(0.147931 0.988833 -0.0180269)
(-0.469314 0.883022 -0.00415283)
(-0.629934 -0.0398394 0.775626)
(-0.614578 -0.0474832 0.787426)
(0.984516 0.174252 -0.0190959)
(-0.354857 0.934843 -0.0120421)
(-0.575274 0.00620431 0.817937)
(-0.515113 -0.000960308 0.857122)
(0.974164 0.223438 -0.0328572)
(0.999398 0.0185359 -0.0293123)
(-0.63256 -0.0387716 0.773541)
(0.986504 0.162571 -0.0195247)
(-0.654646 -0.0317263 0.755269)
(-0.182937 0.982859 -0.0228741)
(-0.349519 0.936847 -0.0124269)
(0.938733 0.340599 -0.0526587)
(-0.583205 0.00732961 0.812292)
(0.97302 0.228239 -0.0337338)
(-0.633435 0.0154477 0.773641)
(0.0509991 0.998654 -0.00943079)
(0.160312 0.986921 -0.0169606)
(0.999484 0.0105298 -0.0303568)
(-0.68931 -0.0257738 0.724008)
(-0.658388 -0.0308329 0.752047)
(0.981745 -0.180127 -0.061089)
(-0.155315 0.987566 -0.0242877)
(0.525104 0.848338 -0.0677342)
(0.93368 0.353919 -0.0546115)
(-0.679776 0.0229259 0.733062)
(-0.639862 0.0165488 0.768312)
(0.813821 0.570941 -0.108268)
(0.997012 -0.061253 -0.0470731)
(-0.694543 -0.0252677 0.719007)
(0.977046 -0.202841 -0.0650878)
(0.853701 0.509778 0.106402)
(0.559059 0.825916 -0.0729127)
(0.945945 0.322498 -0.0344067)
(-0.684812 0.0234741 0.728342)
(0.803273 0.584318 -0.11544)
(-0.165047 0.986261 -0.00695801)
(-0.190128 0.981737 -0.00668388)
(0.019714 0.998577 -0.0495563)
(0.0772026 0.996206 -0.0401602)
(-0.639381 0.768887 -0.00228396)
(-0.620399 0.784282 -0.00249733)
(0.984417 -0.0154893 -0.175164)
(0.961619 0.273907 -0.0162355)
(0.980754 -0.0053874 -0.195175)
(-0.62275 -0.0430983 0.781233)
(0.941516 0.029201 -0.3357)
(0.951801 0.034127 -0.304811)
(0.962352 0.0409193 -0.268707)
(-0.620569 -0.0442008 0.782905)
(0.954746 0.0359407 -0.295241)
(0.965183 0.261049 -0.0165631)
(0.97374 0.000764622 -0.227662)
(0.979251 -0.00309363 -0.202625)
(-0.383514 0.923486 -0.00950126)
(-0.380335 0.924797 -0.00977279)
(0.967253 0.109493 -0.228984)
(0.979698 0.198641 -0.0271041)
(0.96246 0.102104 -0.251486)
(-0.550427 0.00295307 0.834878)
(0.910626 0.0510222 -0.410069)
(0.921327 0.0586023 -0.384347)
(0.93354 0.0685719 -0.351855)
(-0.541814 0.00191989 0.840497)
(0.924583 0.0611903 -0.376035)
(0.979082 0.201565 -0.0277584)
(0.954023 0.0909408 -0.285604)
(0.960593 0.0994986 -0.25954)
(0.996331 0.08222 -0.0237409)
(0.947706 0.00203503 -0.319138)
(0.959971 0.00265421 -0.280086)
(0.937563 0.0277243 -0.346709)
(-0.641191 -0.0356238 0.766554)
(0.92398 0.0231295 -0.381742)
(0.995578 0.0910546 -0.0231008)
(0.971509 0.00164854 -0.236996)
(0.963305 0.00278247 -0.268394)
(0.901609 0.0175133 -0.432197)
(-0.644338 -0.0346151 0.763957)
(0.918843 0.0217783 -0.394023)
(-0.291729 0.956359 -0.0164761)
(-0.301125 0.953453 -0.0158606)
(0.960646 0.274574 -0.0420611)
(0.925769 0.0675539 -0.372007)
(0.938612 0.0762106 -0.336452)
(0.906725 0.0485907 -0.418914)
(-0.605871 0.0108151 0.79549)
(0.893981 0.0412885 -0.4462)
(0.962783 0.267177 -0.0408134)
(0.951429 0.0880954 -0.294995)
(0.942225 0.0792765 -0.325463)
(0.874439 0.0323788 -0.484053)
(-0.613048 0.0119781 0.789955)
(0.889361 0.0390421 -0.455535)
(0.131265 0.991277 -0.011829)
(0.144713 0.989397 -0.0123352)
(0.942746 0.00170138 -0.333507)
(0.997246 -0.0624874 -0.0399519)
(0.924817 -0.000289025 -0.380412)
(-0.674992 -0.0276562 0.737307)
(0.846703 0.00701727 -0.53202)
(0.867806 0.0109441 -0.496783)
(0.895281 0.0162182 -0.445206)
(-0.670588 -0.0283881 0.741286)
(0.874904 0.0123019 -0.48414)
(0.996467 -0.0728075 -0.0418619)
(0.894009 -0.00403822 -0.448031)
(0.917783 -0.00092972 -0.397082)
(0.127587 0.991064 -0.0388947)
(0.193566 0.980185 -0.0420658)
(0.920748 0.0648432 -0.384733)
(0.889555 0.451135 -0.0718935)
(0.903355 0.0566646 -0.425133)
(-0.663743 0.020593 0.747678)
(0.829617 0.0179875 -0.558043)
(0.846651 0.0228336 -0.531659)
(0.86912 0.0303734 -0.493667)
(-0.658043 0.0196499 0.752724)
(0.85239 0.0246784 -0.522323)
(0.880381 0.468263 -0.0752269)
(0.875309 0.0469343 -0.481281)
(0.896764 0.0543036 -0.439164)
(0.836072 -0.540004 -0.0968477)
(0.994133 0.059084 -0.0906032)
(0.864779 -0.0172779 -0.501855)
(0.840158 0.00567277 -0.542312)
(0.714014 0.0243185 -0.699709)
(0.826282 -0.000821642 -0.563257)
(0.882385 -0.459986 -0.0990434)
(0.885649 -0.00527357 -0.464325)
(0.865073 -0.0124433 -0.501492)
(0.992225 0.0639693 -0.106755)
(0.724421 0.0249015 -0.688908)
(0.827684 -0.00406939 -0.561179)
(0.647283 0.744382 -0.164073)
(0.653822 0.742977 -0.143181)
(0.717568 0.661029 -0.219399)
(0.991995 0.0711998 -0.104291)
(0.84782 0.031314 -0.529358)
(0.824236 0.0165619 -0.566005)
(-0.700565 0.0239763 0.713186)
(0.811486 0.0108124 -0.584272)
(0.729598 0.653807 -0.200556)
(0.867917 0.0447017 -0.494693)
(0.849314 0.036255 -0.526642)
(0.98992 0.0713418 -0.122347)
(0.70791 -0.0231925 -0.705922)
(0.811058 0.00833323 -0.584906)
(-0.0442409 0.998987 -0.00818873)
(-0.342887 0.939361 -0.00534853)
(-0.195967 0.954051 -0.226677)
(0.124602 0.991945 -0.0227962)
(-0.686033 0.727568 -0.00159732)
(-0.547652 0.8367 -0.00334723)
(0.943831 0.330087 -0.0150342)
(0.995334 -0.0592282 -0.0761707)
(-0.627426 -0.0409212 0.7776)
(0.769702 0.0432661 -0.636936)
(0.772989 0.0449626 -0.632825)
(0.794841 0.0558255 -0.604245)
(-0.616492 -0.0464006 0.785993)
(0.791007 0.0539652 -0.609422)
(0.977442 0.21044 -0.0179372)
(0.99509 -0.00328588 -0.0989175)
(0.994952 -0.0413019 -0.0914556)
(-0.393396 0.91933 -0.00845851)
(-0.367074 0.930127 -0.010984)
(0.981418 0.190281 -0.0247458)
(0.830899 0.549731 -0.0860367)
(-0.567165 0.00509479 0.823588)
(0.708406 0.00328708 -0.705798)
(-0.706293 -0.00456494 0.707905)
(-0.690954 -0.0119081 0.722801)
(-0.524146 -4.01607e-05 0.851629)
(-0.69384 -0.0107512 0.720049)
(0.976552 0.213105 -0.0305203)
(0.911824 0.393905 -0.115823)
(0.91138 0.397636 -0.106167)
(0.998534 0.0471065 -0.0266468)
(0.987858 0.0334768 -0.151709)
(0.990352 0.0124703 -0.138016)
(0.766549 0.0416264 -0.640836)
(-0.635306 -0.0377048 0.771339)
(0.763537 0.0400051 -0.644523)
(0.99117 0.130936 -0.0209075)
(0.994618 -0.02554 -0.100415)
(0.994005 0.00927422 -0.108938)
(0.749142 0.031234 -0.661673)
(-0.651059 -0.0326585 0.758324)
(0.751045 0.0325857 -0.659446)
(-0.239926 0.970593 -0.019619)
(-0.332809 0.942895 -0.0137169)
(0.949756 0.309345 -0.0476335)
(0.958632 0.223791 -0.175903)
(0.964702 0.208531 -0.160825)
(0.710402 0.00201742 -0.703793)
(-0.590951 0.00848077 0.806663)
(0.712287 0.000730956 -0.701888)
(0.969531 0.242237 -0.0364844)
(0.932921 0.340344 -0.11758)
(0.929828 0.345046 -0.127918)
(0.721572 -0.0067123 -0.692307)
(-0.626828 0.0143032 0.779026)
(0.720229 -0.00552059 -0.693715)
(0.0913749 0.995763 -0.0103339)
(0.152743 0.98816 -0.0144936)
(0.987545 0.020769 -0.155959)
(0.999258 -0.0183395 -0.0338659)
(0.984313 0.0369355 -0.172519)
(-0.684331 -0.0263586 0.728695)
(0.743411 0.0221928 -0.668466)
(0.74304 0.0232029 -0.668845)
(0.747468 0.0299618 -0.663622)
(-0.662289 -0.0299695 0.748649)
(0.746034 0.0287146 -0.665288)
(0.990799 -0.125242 -0.051293)
(0.961696 0.0390221 -0.271327)
(0.97007 0.0342243 -0.240401)
(-0.0627545 0.997601 -0.0292277)
(0.404522 0.912853 -0.0553333)
(0.967447 0.177582 -0.180309)
(0.9179 0.392094 -0.0610045)
(0.961081 0.192537 -0.198122)
(-0.674606 0.0222219 0.737843)
(0.731019 -0.0145276 -0.682203)
(0.729878 -0.0137239 -0.68344)
(0.722856 -0.00783924 -0.690954)
(-0.646105 0.0176347 0.763045)
(0.724092 -0.00895105 -0.689646)
(0.843533 0.529247 -0.0913712)
(0.946701 0.121062 -0.298499)
(0.95686 0.112985 -0.26768)
(-0.689694 0.722592 -0.0467174)
(0.998791 0.0477234 -0.0117592)
(0.961344 0.00461331 -0.275313)
(0.744189 0.021221 -0.667632)
(-0.700157 -0.024787 0.713558)
(0.745487 0.0201731 -0.666215)
(0.957941 -0.275619 -0.0798935)
(0.958386 0.0346918 -0.28336)
(0.947178 0.0363606 -0.318641)
(0.977669 0.0975076 -0.186158)
(0.826206 0.0240254 -0.562856)
(0.630207 0.741887 -0.229003)
(0.613397 0.784284 -0.0929674)
(0.690334 0.692067 -0.21091)
(0.995458 0.091682 -0.0256637)
(0.947823 0.032097 -0.317177)
(0.732186 -0.0152028 -0.680935)
(-0.689785 0.0239067 0.72362)
(0.733439 -0.0158724 -0.67957)
(0.774444 0.616324 -0.142764)
(0.945662 0.0973658 -0.310231)
(0.933288 0.102249 -0.344265)
(0.972291 0.0929344 -0.214505)
(0.789362 -0.000377766 -0.613928)
(-0.0610061 0.998106 -0.00791571)
(-0.297014 0.954856 -0.00573856)
(-0.0744205 0.987659 -0.137806)
(0.125409 0.991771 -0.0257634)
(-0.67324 0.739422 -0.00177281)
(-0.567387 0.823445 -0.00312399)
(0.982308 0.155745 -0.10399)
(0.983329 -0.0113665 -0.181478)
(0.984949 0.134809 -0.10818)
(0.948566 0.316207 -0.0153326)
(0.99591 -0.0361834 -0.0827911)
(0.993867 -0.0794444 -0.0769181)
(0.982113 -0.00776932 -0.188135)
(0.987856 0.102006 -0.117198)
(0.986668 0.117552 -0.112555)
(-0.625033 -0.042011 0.779467)
(0.779917 0.048451 -0.624005)
(0.776396 0.0467031 -0.628513)
(0.878364 0.0368869 -0.476567)
(0.945197 0.0308557 -0.325039)
(0.883481 0.0384771 -0.466884)
(0.893296 0.0417251 -0.447529)
(0.948618 0.0325605 -0.314745)
(0.888461 0.0401003 -0.457197)
(0.910999 0.0483405 -0.409566)
(0.960006 0.0393628 -0.277197)
(0.906829 0.0467121 -0.418903)
(-0.618484 -0.0453048 0.78449)
(0.783532 0.0502657 -0.619314)
(0.787234 0.052107 -0.614449)
(0.957477 0.0376973 -0.286036)
(0.897973 0.0433858 -0.437908)
(0.902487 0.0450522 -0.428355)
(0.974845 0.222189 -0.0175691)
(0.994747 -0.058918 -0.0837032)
(0.995728 -0.0193425 -0.0902869)
(0.988709 0.0559029 -0.139029)
(0.975762 -0.000157031 -0.218836)
(0.988947 0.0655399 -0.133001)
(0.98856 0.088506 -0.122128)
(0.977592 -0.00139311 -0.210504)
(0.988912 0.0763203 -0.127386)
(-0.390801 0.920434 -0.008705)
(-0.370765 0.928665 -0.0106709)
(0.983833 0.109508 -0.141705)
(0.965767 0.107195 -0.236227)
(0.982934 0.110701 -0.146919)
(0.980957 0.192568 -0.0253272)
(0.861725 0.49839 -0.0950672)
(0.849002 0.521368 -0.0858598)
(0.964167 0.104798 -0.24372)
(0.981016 0.112321 -0.158085)
(0.981983 0.111766 -0.152373)
(-0.558881 0.00400467 0.829238)
(-0.701697 -0.00708383 0.71244)
(-0.704059 -0.00584289 0.710118)
(0.828915 0.024232 -0.558849)
(0.914352 0.053567 -0.401361)
(0.831806 0.0262032 -0.554448)
(0.837473 0.0301793 -0.545645)
(0.917915 0.0561331 -0.392787)
(0.834657 0.0282008 -0.550048)
(0.848419 0.0382054 -0.527944)
(0.930681 0.0661788 -0.359797)
(0.845723 0.0362233 -0.532391)
(-0.533051 0.000919055 0.846083)
(-0.69921 -0.00833433 0.714867)
(-0.696592 -0.00955925 0.717404)
(0.927697 0.0637291 -0.367855)
(0.840256 0.032201 -0.541233)
(0.843003 0.0342221 -0.536819)
(0.977298 0.209766 -0.0297746)
(0.883136 0.459262 -0.0956464)
(0.888968 0.445784 -0.10494)
(0.976387 0.11302 -0.184107)
(0.956394 0.0938779 -0.27658)
(0.977666 0.1132 -0.177071)
(0.979962 0.112905 -0.164093)
(0.958577 0.0967569 -0.267896)
(0.978849 0.113205 -0.170406)
(0.998115 0.0556596 -0.0258482)
(0.992373 0.00254324 -0.123246)
(0.990524 0.0265694 -0.134744)
(0.978088 0.00592613 -0.208108)
(0.952209 0.00246121 -0.305438)
(0.980385 0.0105893 -0.19681)
(0.98401 0.0207958 -0.176897)
(0.956282 0.00276088 -0.292432)
(0.982342 0.0155408 -0.186445)
(0.873125 0.0353506 -0.486213)
(0.933329 0.0261837 -0.358066)
(0.867779 0.0337994 -0.4958)
(-0.638182 -0.0366638 0.769012)
(0.757994 0.0368971 -0.651217)
(0.760681 0.0384458 -0.647987)
(0.928804 0.0247456 -0.369745)
(0.856837 0.0307981 -0.514666)
(0.862344 0.0322966 -0.505291)
(0.992349 0.12159 -0.0214246)
(0.992498 0.019394 -0.120716)
(0.993773 -0.010996 -0.110877)
(0.98822 0.0474683 -0.145493)
(0.969043 0.00221263 -0.246883)
(0.987509 0.0397504 -0.152464)
(0.98541 0.026664 -0.168098)
(0.966319 0.00267743 -0.257334)
(0.98657 0.0329804 -0.159972)
(0.834593 0.0252096 -0.55029)
(0.907657 0.0189288 -0.419286)
(0.840137 0.0265491 -0.541724)
(-0.647624 -0.0336238 0.761217)
(0.755484 0.0354317 -0.654209)
(0.753162 0.0339918 -0.656956)
(0.9134 0.0203774 -0.406552)
(0.851282 0.0293691 -0.523886)
(0.845708 0.0279409 -0.532915)
(-0.254168 0.966978 -0.0187512)
(-0.32525 0.945521 -0.0142088)
(0.952851 0.299917 -0.0460942)
(0.958493 0.245865 -0.144369)
(0.952855 0.259433 -0.157358)
(0.959885 0.107405 -0.259007)
(0.930395 0.0704934 -0.359717)
(0.962801 0.108728 -0.247371)
(0.967751 0.110609 -0.226324)
(0.934664 0.0734475 -0.347863)
(0.965402 0.109864 -0.236493)
(0.825985 0.022314 -0.56325)
(0.902654 0.0461395 -0.427886)
(0.823019 0.0203953 -0.567647)
(-0.598507 0.0096341 0.80106)
(0.715739 -0.00182551 -0.698366)
(0.714065 -0.000537082 -0.700079)
(0.898404 0.0437744 -0.436984)
(0.816982 0.0166531 -0.576423)
(0.820017 0.0185295 -0.572039)
(0.967875 0.248615 -0.0375267)
(0.943322 0.300162 -0.141585)
(0.948266 0.289566 -0.130169)
(0.974961 0.112923 -0.19157)
(0.948616 0.0851646 -0.304752)
(0.973419 0.112549 -0.199468)
(0.96983 0.111497 -0.216791)
(0.945549 0.0822923 -0.314906)
(0.971699 0.112212 -0.207867)
(0.804586 0.00972887 -0.593757)
(0.879589 0.0345647 -0.474478)
(0.807707 0.0113935 -0.589475)
(-0.620035 0.0131422 0.784464)
(0.717319 -0.00306224 -0.696738)
(0.718814 -0.00429212 -0.695189)
(0.884564 0.0368187 -0.464964)
(0.813913 0.0148739 -0.580797)
(0.810818 0.0131225 -0.585151)
(0.110705 0.993795 -0.0107541)
(0.161895 0.986711 -0.0138641)
(0.975408 0.00176617 -0.220398)
(0.93729 0.00114025 -0.348549)
(0.97228 -0.00233613 -0.23381)
(0.999031 -0.0263522 -0.0352491)
(0.979328 0.0393694 -0.198412)
(0.983653 0.0268477 -0.178062)
(0.931321 0.000607645 -0.364199)
(0.964387 -0.00970495 -0.264319)
(0.968638 -0.00600493 -0.248405)
(-0.679568 -0.0269909 0.733116)
(0.74334 0.0252853 -0.668435)
(0.743025 0.0242533 -0.668824)
(0.796088 0.0159578 -0.604971)
(0.853601 0.00841648 -0.520859)
(0.7999 0.0170347 -0.599891)
(0.808646 0.0192095 -0.587981)
(0.860672 0.00977037 -0.509066)
(0.804107 0.0181281 -0.594209)
(0.829119 0.023946 -0.558559)
(0.888695 0.0148921 -0.458257)
(0.823746 0.0226927 -0.566505)
(-0.666354 -0.0291635 0.745065)
(0.743956 0.0264004 -0.667706)
(0.744859 0.0275415 -0.666653)
(0.881889 0.0136149 -0.47126)
(0.813465 0.0203379 -0.581259)
(0.818517 0.0214975 -0.574079)
(0.992604 -0.111252 -0.048577)
(0.978105 0.0316307 -0.205693)
(0.972201 0.0389076 -0.230894)
(0.93969 -0.0224103 -0.341293)
(0.902288 -0.00281532 -0.431124)
(0.947164 -0.0193184 -0.320168)
(0.959451 -0.0129678 -0.281578)
(0.910248 -0.00177472 -0.41406)
(0.953731 -0.0162135 -0.300224)
(-0.0160971 0.999375 -0.0314701)
(0.366539 0.928957 -0.0518505)
(0.956553 0.106258 -0.271507)
(0.91535 0.0620674 -0.397847)
(0.952824 0.104776 -0.284866)
(0.910792 0.40795 -0.0635172)
(0.960184 0.16538 -0.225156)
(0.967162 0.151885 -0.203787)
(0.90954 0.0594842 -0.411337)
(0.943834 0.101462 -0.314457)
(0.948577 0.103387 -0.299187)
(-0.669268 0.0214206 0.742712)
(0.727601 -0.011993 -0.685896)
(0.728744 -0.0128421 -0.684665)
(0.781172 -0.00108733 -0.624315)
(0.835195 0.0196398 -0.549603)
(0.783751 8.23336e-05 -0.621075)
(0.789326 0.00249613 -0.61397)
(0.840895 0.0213225 -0.540778)
(0.786476 0.00130535 -0.617619)
(0.801463 0.00817512 -0.597989)
(0.863658 0.0283961 -0.503277)
(0.79836 0.00665622 -0.602143)
(-0.652167 0.0186552 0.757846)
(0.726454 -0.0109991 -0.687128)
(0.725288 -0.00998476 -0.688373)
(0.858069 0.0265384 -0.512848)
(0.792276 0.00383286 -0.610151)
(0.795288 0.00522803 -0.606209)
(0.852625 0.515284 -0.0866784)
(0.963769 0.130768 -0.232485)
(0.955632 0.14156 -0.25832)
(0.918234 0.093746 -0.384784)
(0.882658 0.0494233 -0.467409)
(0.925612 0.0960068 -0.366094)
(0.938411 0.0998647 -0.330774)
(0.889846 0.0518962 -0.4533)
(0.932352 0.0980695 -0.347998)
(-0.667638 0.744176 0.0214576)
(0.929091 0.0272459 -0.368845)
(0.946487 0.00816018 -0.322639)
(0.997994 0.0523482 -0.0356142)
(0.928207 -0.0213982 -0.371448)
(0.962441 -0.0566713 -0.265509)
(0.904447 -0.045397 -0.424164)
(0.876925 -0.0219661 -0.480126)
(0.915433 -0.0536001 -0.398885)
(0.79276 0.0148892 -0.609352)
(0.834205 0.00400859 -0.551439)
(0.790066 0.0136507 -0.61287)
(-0.706418 -0.0245088 0.707371)
(0.751242 0.0179375 -0.659783)
(0.747578 0.0191574 -0.663898)
(0.829268 0.00210907 -0.558847)
(0.788329 0.010526 -0.615164)
(0.788318 0.0123024 -0.615145)
(0.948582 -0.304684 -0.0857862)
(0.932206 0.0303264 -0.360655)
(0.942636 0.0331909 -0.332168)
(0.931421 -0.0253944 -0.363057)
(0.877522 -0.00694945 -0.479485)
(0.922577 -0.0288065 -0.384737)
(0.906663 -0.0377528 -0.420163)
(0.870272 -0.00904266 -0.492488)
(0.913858 -0.032534 -0.404729)
(0.9831 0.0862469 -0.161478)
(0.894375 -0.0058047 -0.447281)
(0.860291 0.0115217 -0.509672)
(0.742576 0.0276021 -0.669193)
(0.758331 0.0170533 -0.651647)
(0.774641 0.0178858 -0.632148)
(0.840659 -0.0067695 -0.541523)
(0.792262 0.00868447 -0.61012)
(0.806739 0.0081228 -0.590853)
(0.635339 0.736188 -0.233176)
(0.631872 0.768266 -0.102491)
(0.671615 0.698486 -0.247084)
(0.917774 0.0620788 -0.392221)
(0.933209 0.0438525 -0.356647)
(0.995648 0.07994 -0.0479108)
(0.897534 0.0341951 -0.439617)
(0.934956 0.0726536 -0.347243)
(0.885504 0.0768644 -0.45823)
(0.855669 0.0270755 -0.516815)
(0.893715 0.0690802 -0.443286)
(0.77877 -0.00214939 -0.627306)
(0.819197 0.0149666 -0.573317)
(0.776618 -0.00329549 -0.629964)
(-0.694871 0.0240818 0.718731)
(0.737175 -0.0170094 -0.675487)
(0.734934 -0.0164474 -0.677939)
(0.814737 0.0132764 -0.579678)
(0.774062 -0.00591419 -0.633082)
(0.774863 -0.00449736 -0.632113)
(0.764242 0.626055 -0.154889)
(0.919611 0.0807964 -0.384431)
(0.93033 0.0826338 -0.357293)
(0.910229 0.091693 -0.403826)
(0.860793 0.0422702 -0.507197)
(0.902018 0.0892373 -0.422376)
(0.887711 0.0828023 -0.452894)
(0.8543 0.039695 -0.518262)
(0.894065 0.0866504 -0.439477)
(0.979164 0.0837897 -0.184978)
(0.861282 0.0177623 -0.507817)
(0.825399 0.0056989 -0.564521)
(0.720592 -0.0202383 -0.693064)
(0.741479 -0.0171768 -0.670756)
(0.752249 -0.0163206 -0.658676)
(0.819123 0.00621384 -0.573584)
(0.7757 -0.00731532 -0.631059)
(0.78491 -0.0080682 -0.619557)
(0.010077 0.999911 -0.00879177)
(-0.407636 0.913132 -0.0047468)
(0.638154 -0.629388 0.44343)
(0.149068 0.988636 -0.0194097)
(-0.703346 0.710847 -0.00129109)
(-0.495331 0.868695 -0.00387846)
(0.981478 -0.190015 -0.0244205)
(0.933893 0.35726 -0.014467)
(-0.539069 0.842224 0.00798343)
(0.483028 0.875371 -0.0202425)
(0.978767 -0.20256 -0.031389)
(0.982509 0.185274 -0.0186932)
(-0.545385 0.838125 0.0101276)
(0.666086 0.745081 -0.0344011)
(-0.542491 0.840004 0.00983567)
(0.647043 0.761742 -0.0329282)
(0.978838 -0.202096 -0.0321594)
(-0.397704 0.917479 -0.00797322)
(-0.359338 0.933135 -0.011663)
(0.959765 0.275454 -0.0545613)
(0.982156 0.186575 -0.0236664)
(0.974194 0.221183 -0.044995)
(0.495707 0.867954 -0.0305093)
(0.951722 0.298347 -0.0722153)
(0.974923 0.220225 -0.0320455)
(0.953866 0.293942 -0.0611341)
(0.554872 0.830805 -0.0433656)
(0.954008 0.293768 -0.0597479)
(0.549644 0.834331 -0.042216)
(0.951234 0.29949 -0.0738859)
(0.971836 -0.230254 -0.0501786)
(0.999252 0.0262971 -0.0283466)
(-0.60503 0.795985 0.0186107)
(0.960685 0.268891 -0.0691548)
(-0.594102 0.804197 0.0176077)
(0.951647 0.299902 -0.0665373)
(0.971445 -0.231479 -0.0520841)
(0.978624 -0.202861 -0.0337938)
(0.988366 0.150781 -0.0199607)
(-0.546275 0.837541 0.0103736)
(0.6862 0.726522 -0.0359965)
(-0.547051 0.837031 0.0106737)
(0.97788 -0.206559 -0.0329335)
(0.708052 0.705153 -0.0377052)
(-0.203511 0.978833 -0.0216809)
(-0.344972 0.938525 -0.0128301)
(0.93882 0.327003 -0.108103)
(0.942344 0.330756 -0.0508735)
(0.945619 0.311525 -0.0935804)
(0.688595 0.721682 -0.0707953)
(0.945317 0.313282 -0.0907156)
(0.678636 0.731289 -0.0683383)
(0.938143 0.327844 -0.11138)
(0.949669 0.303547 -0.0773808)
(0.972009 0.232377 -0.034617)
(0.951894 0.299964 -0.0626105)
(0.560687 0.826829 -0.044535)
(0.950565 0.301186 -0.0755881)
(0.952428 0.297948 -0.0640974)
(0.567252 0.82227 -0.0457984)
(0.0657024 0.997792 -0.00972186)
(0.158603 0.987213 -0.0159871)
(0.970544 -0.234262 -0.0562668)
(-0.612305 0.790379 0.0195831)
(0.966738 0.245473 -0.071835)
(0.999505 -0.00176344 -0.0314216)
(0.969738 -0.238085 -0.0540662)
(-0.620261 0.784123 0.020681)
(0.973714 0.215184 -0.0746814)
(0.954343 -0.278834 -0.107153)
(0.9843 -0.166943 -0.0572971)
(0.869957 -0.48979 -0.0572736)
(0.98957 0.0143234 -0.143337)
(0.843604 -0.534399 -0.0524437)
(0.990553 0.0227048 -0.135236)
(0.95244 -0.282531 -0.11417)
(-0.130503 0.991114 -0.0257114)
(0.497463 0.865176 -0.0632539)
(0.935845 0.331906 -0.118455)
(0.944876 0.312837 -0.0966556)
(0.700071 0.710289 -0.073418)
(0.928892 0.365996 -0.0566275)
(0.937226 0.329283 -0.114803)
(0.945698 0.309326 -0.0998662)
(0.713291 0.696708 -0.0762533)
(0.916685 0.348379 -0.195758)
(0.822177 0.560035 -0.101914)
(0.938792 0.293927 -0.179655)
(0.867517 0.475916 -0.144633)
(0.939905 0.295834 -0.17047)
(0.861524 0.488995 -0.136603)
(0.914766 0.347756 -0.205597)
(0.95102 -0.264803 0.159498)
(0.906077 -0.371973 0.201643)
(0.920476 -0.383415 0.075612)
(0.999264 -0.0354772 0.0145751)
(0.905223 -0.3551 0.2334)
(0.993313 -0.0778902 0.0852236)
(0.975265 -0.214098 0.0549602)
(0.949283 -0.286096 -0.130427)
(0.97001 -0.232983 -0.0692765)
(0.886372 -0.458768 -0.0622656)
(0.988311 0.00780972 -0.152252)
(0.903606 -0.422956 -0.0678532)
(0.949702 -0.288485 -0.121828)
(0.986796 -0.00222596 -0.161952)
(0.762169 0.632091 0.139854)
(0.581366 0.809829 -0.078674)
(0.952699 0.303894 -0.00362837)
(0.850883 0.520459 0.0715535)
(0.974323 0.225135 0.00308442)
(0.911253 0.410924 0.0275701)
(0.975247 0.219562 0.0262062)
(0.9394 0.339737 0.0459058)
(0.957641 0.287959 -0.00198168)
(0.908974 0.349274 -0.227538)
(0.793149 0.596384 -0.123452)
(0.937115 0.292924 -0.189764)
(0.874878 0.459355 -0.153562)
(0.912327 0.347759 -0.216153)
(0.935811 0.289854 -0.200603)
(0.882857 0.440335 -0.163307)
(0.826278 0.0271732 -0.562606)
(0.9475 0.123819 -0.29481)
(0.852424 0.0442101 -0.520979)
(0.93251 0.0990139 -0.347305)
(-0.124151 0.992236 -0.00731663)
(-0.228134 0.973609 -0.00635539)
(0.0131443 0.997745 -0.0658171)
(0.0856139 0.995765 -0.0335013)
(-0.649633 0.760245 -0.00211487)
(-0.60675 0.794888 -0.00268295)
(0.980417 -0.195132 -0.0265533)
(0.957619 0.287598 -0.0159277)
(-0.539672 0.841832 0.00857313)
(0.540817 0.840773 -0.0248432)
(-0.537989 0.84291 0.00841396)
(0.980569 -0.194296 -0.027074)
(0.530192 0.847538 -0.0239972)
(0.980499 -0.194495 -0.0281684)
(0.968777 0.247358 -0.0168873)
(-0.539468 0.841961 0.00869227)
(0.553646 0.832352 -0.0258114)
(-0.539243 0.842104 0.00885797)
(0.979853 -0.197806 -0.0275902)
(0.56602 0.823957 -0.026777)
(-0.386162 0.922385 -0.00922)
(-0.377789 0.925837 -0.0100601)
(0.956683 0.28474 -0.0606635)
(0.980086 0.196798 -0.0264917)
(0.963299 0.26351 -0.0511582)
(0.516852 0.855345 -0.0353509)
(0.964062 0.260915 -0.0500853)
(0.513227 0.85756 -0.0344749)
(0.956267 0.285851 -0.0619854)
(0.954939 0.28966 -0.0647197)
(0.978591 0.203843 -0.0284094)
(0.960802 0.272255 -0.0523083)
(0.520935 0.852827 -0.0362225)
(0.960841 0.271901 -0.0534354)
(0.52551 0.849975 -0.0371635)
(0.955662 0.287578 -0.063321)
(0.975541 -0.215691 -0.0424025)
(0.997193 0.0707882 -0.024387)
(-0.565396 0.824709 0.0135182)
(0.863726 0.501261 -0.052104)
(-0.56789 0.822985 0.0140632)
(0.974771 -0.219398 -0.0410697)
(0.884822 0.462732 -0.0544842)
(0.976131 -0.21371 -0.0386835)
(0.994703 0.100296 -0.0225044)
(-0.562749 0.826525 0.0130388)
(0.844569 0.533118 -0.0498817)
(-0.557165 0.830308 0.0125095)
(0.976045 -0.213883 -0.0398648)
(0.821764 0.567833 -0.0476329)
(-0.281069 0.959534 -0.0171731)
(-0.310718 0.95038 -0.0152483)
(0.943409 0.31797 -0.094207)
(0.958358 0.282261 -0.0433514)
(0.946649 0.313064 -0.0764641)
(0.618714 0.783611 -0.0560938)
(0.947507 0.309933 -0.0785573)
(0.628713 0.775477 -0.0579265)
(0.944443 0.315606 -0.0917623)
(0.945811 0.312786 -0.0872174)
(0.964563 0.260856 -0.039661)
(0.948043 0.309312 -0.0744301)
(0.610205 0.790373 -0.054408)
(0.947941 0.310076 -0.0725274)
(0.602826 0.796124 -0.0528032)
(0.945281 0.313754 -0.0894531)
(0.128795 0.991605 -0.0114453)
(0.148729 0.988795 -0.012789)
(0.964917 -0.25314 -0.0696723)
(0.997839 -0.0534654 -0.038201)
(-0.703502 0.710044 0.0303815)
(0.990261 0.101467 -0.0953336)
(-0.68077 0.731956 0.0281606)
(0.963979 -0.255741 -0.0730798)
(0.988788 0.118185 -0.0912754)
(0.962386 -0.259398 -0.0807793)
(0.99497 -0.0900747 -0.0438279)
(0.719604 -0.69362 -0.0325867)
(0.990986 0.0894388 -0.0997352)
(0.737978 -0.673911 -0.0350953)
(0.961842 -0.26263 -0.0767102)
(0.991897 0.0723142 -0.104456)
(0.0796698 0.996161 -0.0362712)
(0.245876 0.968253 -0.04507)
(0.930009 0.339749 -0.140193)
(0.896394 0.437877 -0.0688638)
(0.94424 0.304957 -0.124142)
(0.785145 0.611658 -0.0970713)
(0.944198 0.306999 -0.119342)
(0.774877 0.625233 -0.0930053)
(0.929065 0.340085 -0.145534)
(0.925947 0.343319 -0.157335)
(0.871669 0.483724 -0.0787598)
(0.943611 0.304728 -0.129377)
(0.79728 0.595013 -0.101506)
(0.943988 0.30113 -0.134934)
(0.811079 0.575199 -0.106285)
(0.92779 0.341085 -0.151217)
(0.921848 -0.331682 -0.200456)
(0.767745 -0.635175 -0.0843776)
(0.959975 -0.254033 -0.117963)
(0.967769 -0.0556431 -0.245615)
(0.960116 -0.253229 -0.11854)
(0.924146 -0.32506 -0.200725)
(0.965367 -0.0761145 -0.249544)
(0.990426 -0.0167361 -0.137029)
(0.995685 0.0557284 -0.074195)
(0.978227 0.0452045 -0.202556)
(0.996888 0.0247772 -0.074842)
(0.984721 -0.00659827 -0.174016)
(0.984016 0.0449102 -0.172326)
(0.998209 0.0136899 -0.0582402)
(0.93392 -0.306838 -0.183425)
(0.908416 -0.407051 -0.0953407)
(0.959022 -0.260274 -0.111959)
(0.970937 -0.0436391 -0.235325)
(0.953531 -0.282774 -0.104006)
(0.929409 -0.314144 -0.19368)
(0.974231 -0.0358351 -0.222687)
(0.970147 0.014432 -0.242086)
(0.989902 0.0692588 -0.123685)
(0.968531 0.0502921 -0.243759)
(0.995342 0.0352352 -0.0897418)
(0.977543 0.00513737 -0.210675)
(0.960912 0.051956 -0.271935)
(0.993414 0.045308 -0.10524)
(0.651133 0.735293 -0.18807)
(0.645401 0.753215 -0.126979)
(0.878901 0.34757 -0.326693)
(0.700807 0.672717 -0.237319)
(0.912502 0.287093 -0.291406)
(0.896941 0.35512 -0.263412)
(0.911139 0.28488 -0.297774)
(0.900077 0.336874 -0.276363)
(0.88161 0.346783 -0.320163)
(0.967011 0.0744368 -0.243617)
(0.993597 0.0722218 -0.0868883)
(0.970586 0.0375409 -0.237811)
(0.989492 0.0777254 -0.12192)
(0.977763 0.0419689 -0.205471)
(0.958218 0.063414 -0.27892)
(0.990925 0.0861385 -0.103187)
(0.889395 0.349325 -0.294871)
(0.741203 0.645716 -0.183493)
(0.916236 0.286889 -0.279653)
(0.897821 0.364762 -0.246711)
(0.920308 0.286591 -0.266269)
(0.898785 0.373254 -0.229929)
(0.885493 0.347351 -0.308626)
(0.933972 0.044461 -0.354568)
(0.987293 0.0727287 -0.141291)
(0.959032 0.0362348 -0.280972)
(0.987194 0.0719087 -0.1424)
(0.950625 0.0338067 -0.308494)
(0.945454 0.0531356 -0.321391)
(0.984073 0.0681798 -0.164173)
(-0.00547185 0.999948 -0.00855577)
(-0.365527 0.930787 -0.00509875)
(-0.304403 0.892347 -0.333249)
(0.149236 0.988579 -0.0209773)
(-0.692767 0.72116 -0.001442)
(-0.520487 0.853862 -0.00363125)
(0.802023 -0.594677 -0.0558435)
(0.840575 -0.538948 -0.0544746)
(0.980909 -0.192879 -0.0247995)
(0.938819 0.344095 -0.0147534)
(-0.539554 0.841912 0.00814357)
(0.499864 0.865834 -0.0216133)
(-0.538542 0.84256 0.00803733)
(0.491898 0.870401 -0.0209406)
(0.981144 -0.191625 -0.0252183)
(0.794009 -0.605536 -0.0536301)
(0.775054 0.0604305 -0.628999)
(0.84652 0.0759713 -0.526907)
(0.776375 0.0796396 -0.625219)
(0.841706 0.0767812 -0.534449)
(0.705969 0.0695505 -0.704819)
(-0.704471 -0.0724936 0.70602)
(0.707073 0.0743143 -0.703225)
(0.708752 0.0713148 -0.701843)
(0.771447 0.0774567 -0.631561)
(0.835894 0.0733233 -0.543972)
(0.770196 0.0593756 -0.635037)
(0.840593 0.0724892 -0.536794)
(0.802868 0.0915939 -0.589079)
(0.86936 0.0969506 -0.484576)
(0.874286 0.0974828 -0.475521)
(0.801571 0.0664635 -0.594195)
(0.727707 0.0869123 -0.68036)
(0.730514 0.0840397 -0.677706)
(0.807096 0.0677223 -0.586524)
(0.879276 0.102526 -0.465147)
(0.808329 0.0942095 -0.581144)
(0.874367 0.101829 -0.474461)
(0.726414 0.0817096 -0.682383)
(0.723768 0.0846006 -0.684838)
(0.888638 -0.453274 -0.069751)
(0.847717 -0.525717 -0.0706918)
(0.97958 -0.198698 -0.0306917)
(0.980256 0.196882 -0.0183009)
(-0.542005 0.840323 0.00940251)
(0.612436 0.789941 -0.0302535)
(-0.542379 0.840079 0.00962891)
(0.628686 0.777021 -0.0315166)
(0.979046 -0.201418 -0.0299886)
(0.858204 -0.507853 -0.0746433)
(0.89763 -0.434551 -0.0736538)
(-0.395586 0.918392 -0.0081976)
(-0.363709 0.931444 -0.0113261)
(0.912671 0.39026 -0.121365)
(0.904456 0.410348 -0.11651)
(0.959045 0.277717 -0.0557212)
(0.981697 0.188903 -0.0242016)
(0.96996 0.23869 -0.0469597)
(0.502336 0.864079 -0.0320446)
(0.971004 0.234598 -0.0459946)
(0.498905 0.866093 -0.0312437)
(0.958604 0.278995 -0.0569251)
(0.90053 0.420162 -0.111847)
(0.908966 0.400211 -0.116667)
(-0.62875 0.0392522 0.776617)
(-0.700831 0.0255948 0.712868)
(-0.623856 0.0393574 0.780548)
(-0.701583 0.0436727 0.711248)
(-0.573211 0.0370981 0.818568)
(-0.578206 0.049429 0.814392)
(-0.568274 0.0486167 0.821402)
(-0.562991 0.0358888 0.825684)
(-0.631731 0.0399126 0.774159)
(-0.705651 0.043786 0.707206)
(-0.636272 0.0397776 0.770438)
(-0.705081 0.0264022 0.708635)
(-0.578464 0.036055 0.814911)
(-0.676169 0.0430052 0.73549)
(-0.674402 0.0209487 0.738067)
(-0.585299 0.0362036 0.810009)
(-0.502138 0.0431756 0.863709)
(-0.494979 0.0280731 0.868451)
(-0.57548 0.0355561 0.817043)
(-0.667997 0.019959 0.743896)
(-0.568201 0.0352814 0.822133)
(-0.67003 0.0427979 0.741099)
(-0.506978 0.0294001 0.861457)
(-0.513854 0.0441333 0.856742)
(0.923262 0.356514 -0.143126)
(0.929768 0.337028 -0.148133)