/*--------------------------------*- C++ -*----------------------------------*\
| =========                 |                                                 |
| \\      /  F ield         | OpenFOAM: The Open Source CFD Toolbox           |
|  \\    /   O peration     | Version:  2012                                  |
|   \\  /    A nd           | Website:  www.openfoam.com                      |
|    \\/     M anipulation  |                                                 |
\*---------------------------------------------------------------------------*/
FoamFile
{
    version     2.0;
    format      ascii;
    class       volScalarField;
    location    "0.105/solid";
    object      sigmaDiff;
}
// * * * * * * * * * * * * * * * * * * * * * * * * * * * * * * * * * * * * * //

dimensions      [1 -1 -2 0 0 0 0];


internalField   nonuniform List<scalar> 
3125
(
-205228
-414667
-381.005
-45160.9
-430448
-173464
-202792
-420350
-423660
-189713
-227387
-407045
-200416
-168569
-404922
-129126
-203786
-408341
-197826
-184013
-392507
-140394
-193312
-51799.4
-188803
-73069.2
-122748
-51374.9
-192068
-52635.1
-186638
-79998.4
-133519
-52962
-1142.02
-65324.6
-44956.3
-659.527
-46081.5
-1333.15
-71616.6
-46641.7
-296195
-310203
-7666.77
-10688.7
-563455
-546212
-380233
-550464
-324407
-187074
-212152
-248102
-300262
-191256
-260703
-533595
-255803
-306599
-552238
-535618
-325283
-528865
-286056
-206254
-198181
-221853
-253056
-211615
-229697
-513138
-235503
-273208
-289157
-142001
-180779
-200797
-152777
-168636
-302834
-239800
-194764
-130019
-147146
-158539
-292932
-306616
-282805
-143360
-176240
-190259
-166194
-166424
-295835
-223260
-187676
-134593
-159984
-158469
-118100
-108611
-130140
-115652
-97678.4
-95401
-63958.4
-87486
-121059
-102506
-95585.7
-106434
-60957.8
-87851.5
-118035
-108677
-132909
-115815
-103128
-104102
-70539
-94729
-126637
-111749
-102724
-106841
-66909.1
-93725
-8555.41
-8865.4
-22422.3
-56273.2
-41330.6
-33428
-11526.8
-52722.2
-29612.6
-9035.35
-33025
-25924.3
-8811.58
-11862.4
-10334
-8751.41
-25811.3
-62390.2
-45670.8
-37719.2
-13386.5
-58372.5
-33678
-8852.05
-36731.2
-29534.1
-242647
-368572
-1011.28
-27696.8
-633960
-478965
-619495
-492282
-178180
-165623
-170252
-195817
-199111
-191781
-467800
-338088
-374926
-620071
-470663
-592996
-468963
-195312
-173064
-176870
-194750
-222173
-192339
-451616
-327164
-360940
-236898
-168744
-196895
-160863
-163489
-155973
-359864
-326330
-291402
-123446
-135318
-129272
-240510
-363537
-232861
-167881
-194574
-169016
-178200
-164712
-349958
-315956
-283686
-133486
-147090
-139345
-159262
-73995.8
-159988
-155663
-134437
-80671.9
-70204.1
-77506.5
-117438
-116185
-111253
-72872.5
-54100.6
-71043.1
-158584
-74551.3
-159421
-154638
-134970
-88215.9
-77245.9
-85146.3
-127370
-126457
-120981
-74063.8
-56514.8
-73299.5
-1628.3
-5630.92
-6820.1
-62725.9
-57446.2
-55096.5
-28063.5
-49210
-35202.4
-7910.18
-14262.3
-1556.16
-28795.6
-2437.34
-5735.42
-7628.23
-69145
-63088.7
-60853.7
-29943.8
-51643.2
-37512.8
-7534.15
-16309.4
-255655
-353641
-1857.14
-22746.5
-616106
-495511
-472900
-361240
-448010
-602019
-438761
-478901
-342628
-399651
-423591
-182716
-179166
-174766
-179969
-223821
-187317
-202343
-235808
-194774
-233877
-286793
-225798
-195268
-183465
-187666
-273603
-210033
-217850
-483986
-425862
-387296
-309263
-272280
-331009
-376228
-289217
-353339
-602914
-486665
-413088
-312105
-394029
-576781
-420029
-456299
-299027
-356528
-375169
-200824
-183758
-180434
-175938
-206091
-180603
-189338
-213982
-185070
-204449
-245302
-200962
-216918
-186844
-189705
-237515
-193407
-197282
-466787
-407791
-372683
-284513
-247918
-302089
-338119
-260491
-319964
-249584
-237073
-206504
-159098
-154392
-175357
-210126
-167320
-192374
-172715
-189763
-165551
-158227
-145760
-150939
-179042
-151438
-158461
-345273
-247463
-280304
-288128
-224285
-267623
-228600
-209269
-247774
-123738
-139240
-130629
-141323
-140426
-134933
-148744
-144467
-137536
-253252
-348991
-245013
-232544
-203790
-157542
-154072
-171862
-201956
-165035
-186672
-171076
-182322
-166011
-172263
-155341
-160155
-174376
-155277
-160744
-336135
-242476
-273080
-267261
-211199
-250354
-217675
-199335
-233818
-131409
-142552
-137677
-153618
-150274
-144940
-150510
-149613
-143744
-148515
-82132.3
-143615
-118807
-128919
-145204
-103774
-126578
-107990
-101928
-115021
-88120.6
-91571
-84634.7
-67171.9
-71699.5
-74512.5
-88902.3
-79535.5
-81755.8
-116839
-112351
-109925
-109437
-98320.7
-104880
-103865
-95969.3
-102972
-80749.8
-96868.7
-76962.6
-57566.6
-69524.8
-67482.4
-89648.2
-78478.7
-78170.2
-147995
-82573.7
-143739
-122718
-130467
-144508
-105309
-127340
-112793
-105608
-117752
-96256.8
-100246
-92818.1
-74088.3
-78642.5
-81939.8
-97074.4
-86703
-89605.5
-124947
-118673
-118278
-119201
-107413
-114330
-110706
-104340
-111411
-81774.9
-98564.9
-79097.4
-62855.1
-75632.9
-72681.1
-94049
-84563.5
-83069.4
-2601.47
-17050.7
-8568.22
-6911.43
-9841.36
-7433.75
-18007.1
-15762
-12080.2
-59719.2
-48628.8
-52163.9
-49448.6
-39432.1
-47322.2
-41005.1
-36786.2
-44508.3
-23263
-20023.9
-31303
-48384.3
-44775.9
-39885.3
-24717.4
-37073.6
-32010.6
-8432.79
-11689.4
-13230.2
-24553.5
-31383.4
-23288.1
-18731.8
-28994.3
-21321.2
-2656.85
-23888.6
-3761.15
-18770.9
-9589.43
-6941.64
-11400.5
-8750.08
-21252.5
-18390.6
-14500.9
-66065.9
-54187
-57882.4
-54434
-43854.4
-52413.5
-45951.5
-41183.5
-49573.1
-25178.6
-21865.2
-33557.1
-53581.7
-49990.1
-44807
-28644.5
-41755.9
-36509.5
-8097.53
-13464.2
-15144.9
-27607.3
-35153.3
-26359
-21594
-32723.9
-24324.5
-217435
-399096
-456.595
-38930.1
-670073
-446428
-634235
-654869
-661228
-607934
-418886
-435976
-421694
-390931
-437582
-405370
-403656
-654738
-439153
-553388
-625741
-574984
-598021
-379878
-421741
-376235
-392703
-389587
-406583
-367247
-202781
-212308
-199443
-188333
-211381
-199250
-191447
-373800
-389695
-406018
-376677
-390552
-388614
-362620
-215766
-393220
-195197
-209260
-185892
-193742
-196293
-204695
-185117
-342366
-378152
-363005
-378967
-354730
-349965
-365391
-181676
-58825.2
-169592
-187792
-177671
-177470
-180373
-176426
-167282
-57219.9
-58174.5
-50875
-51864.7
-57584.3
-58086.5
-50886.6
-180632
-59575.2
-165591
-175699
-183021
-175713
-175236
-165764
-172546
-61785.1
-59644.7
-53830.4
-54141.7
-59947.1
-60638.5
-55695.2
-2662.97
-939.744
-1323.73
-2467.06
-1453.26
-2586.72
-2571.88
-39270.3
-38924.9
-44536.6
-45979.2
-38584.1
-44896.4
-40449.5
-679.707
-39916.2
-3072.19
-1235.83
-2717.08
-1792.94
-2820.66
-1898.65
-2980.71
-44448.8
-40693.9
-48023.9
-47996.6
-49907.8
-42554.1
-42213.3
-9188.73
-6184.95
-8730.22
-5761.87
-282438
-324452
-5191.58
-14219.8
-580848
-529146
-547891
-567494
-554323
-511260
-571736
-531130
-527024
-498110
-516888
-537089
-495645
-520024
-514522
-480192
-568994
-519154
-484855
-544715
-486967
-507369
-501357
-522234
-471397
-444754
-497553
-472662
-492611
-458515
-477973
-458016
-263554
-275720
-288780
-269911
-275214
-276488
-257547
-303097
-316750
-302588
-282510
-316653
-289678
-295331
-279472
-320532
-248473
-269993
-263223
-274896
-251579
-262693
-259645
-282528
-309068
-275089
-287296
-287119
-299884
-271010
-127927
-99448
-120087
-125191
-114660
-110649
-124165
-111106
-119379
-94062.9
-97541.1
-105478
-102211
-96623.8
-102423
-94084.8
-127712
-99645.2
-120612
-125088
-111206
-114935
-119648
-123878
-112328
-96546
-98173.9
-103022
-106279
-95132.7
-97920.6
-104296
-7982
-6077.17
-8705.02
-11736.3
-6240.98
-10513.4
-9113.71
-7708.3
-8453.49
-8783.12
-8687.97
-8327.69
-8067.18
-8214.11
-16777.2
-14980.5
-11638.7
-14737.2
-15026.8
-13449.1
-18109.7
-9021.67
-9024.15
-8912.39
-8940.71
-8635.91
-9387.52
-9001.93
-6277.46
-15395.5
-11953.8
-7721.2
-13519.9
-12121.6
-10715.4
-9390.28
-14914.5
-8122.85
-8414.81
-8991.5
-8405.58
-8238.24
-8770.73
-8124.98
-21786.9
-16884.7
-16656.9
-15252.9
-20131.4
-18790
-18195.7
-9462.89
-8777.8
-9073.16
-8460.02
-9574.54
-9007.51
-8354.25
-229915
-383724
-623.498
-33106.4
-651940
-462602
-523826
-538914
-616642
-637113
-624964
-575170
-643020
-591485
-599229
-554940
-166110
-174642
-166972
-173367
-162121
-162044
-166796
-166590
-161908
-166726
-160910
-168092
-192313
-208860
-209775
-192039
-193132
-191284
-197303
-217369
-197485
-216498
-187367
-188945
-391944
-378519
-434346
-451796
-469975
-434785
-453675
-419993
-449991
-351700
-364773
-637344
-454823
-416876
-426622
-539521
-609313
-545237
-567426
-560047
-582683
-525744
-446569
-436760
-188703
-180721
-188691
-180663
-194626
-193391
-199106
-200209
-184387
-176982
-184141
-177297
-208272
-195221
-194065
-209461
-233082
-233669
-213319
-196055
-211929
-197435
-228005
-227365
-329188
-319855
-392639
-436605
-416746
-434750
-403115
-420602
-405495
-301102
-310301
-198698
-188611
-214409
-224473
-236104
-221838
-223603
-210425
-226299
-169117
-178742
-151664
-153738
-155318
-150359
-157180
-157520
-152780
-152172
-155658
-161651
-156805
-160181
-300580
-312873
-359202
-374673
-360297
-335086
-375313
-348753
-344839
-338401
-325726
-122616
-124495
-122237
-124766
-121174
-119048
-124963
-126845
-119075
-115967
-116753
-118371
-228011
-378276
-187248
-179297
-205481
-220946
-217775
-227260
-206942
-215872
-215942
-163640
-171334
-175269
-168800
-169647
-174489
-187604
-188994
-179412
-173619
-179929
-173037
-183286
-181726
-264453
-273370
-330104
-363961
-324324
-338688
-337049
-351960
-317997
-291695
-282620
-146580
-145415
-143238
-148736
-146300
-143563
-142685
-137214
-140256
-139653
-150352
-152881
-170327
-66237.1
-133234
-141859
-159101
-166420
-154599
-147290
-165363
-157148
-148906
-159777
-150662
-71672.4
-73546.6
-75212.1
-70034.2
-69705.6
-65967.3
-73143.2
-76708.4
-68332
-63059.2
-64644.1
-66717.4
-107291
-103268
-105980
-104607
-112975
-115337
-110743
-112196
-113245
-109639
-109319
-106742
-68193.6
-62238.4
-63917.3
-65346.1
-72138.9
-71525.7
-64679.6
-64649.5
-70951.6
-51315.1
-56742.3
-169460
-66889.3
-133979
-141137
-156129
-165038
-146572
-152305
-156035
-162301
-146904
-155969
-148523
-88498.6
-90903.4
-92686.6
-86762.4
-85705.6
-81256.1
-89824.5
-94099.3
-84453.1
-78439.8
-80061.1
-82778.5
-129793
-124273
-127237
-126826
-136566
-139528
-133681
-133609
-136388
-130902
-132541
-129347
-76554.9
-70992.8
-68172.3
-66687.8
-73129.1
-74603.9
-66398
-67464.3
-74838.7
-60480.9
-65688.3
-5927.71
-4971.81
-2706.86
-1136.98
-1942.33
-3657.08
-1593.69
-2866.72
-3165.5
-3988.89
-4038.36
-5289
-5483.91
-3854.88
-4132.2
-5037.95
-5323.3
-5085.59
-54119.2
-48716.9
-52638.4
-50158.4
-58672.7
-62551.8
-55256
-51247.1
-57462.9
-59735.5
-61288.6
-55942.3
-32687.4
-37062.6
-34018.9
-33288.8
-27904
-30428.5
-33036.5
-35258.4
-29141
-46356.8
-41478.8
-11937.5
-15670.4
-11566.1
-16414.9
-8734.06
-7115.04
-12116.6
-16802
-8948.31
-8155.07
-7685.08
-9008.83
-908.069
-34153
-8896.27
-6573.44
-3637.86
-1584.75
-4427.28
-3440.62
-3290.65
-2383.44
-5011.4
-4315.62
-4215.39
-5438.53
-5666.41
-4035.23
-4360.07
-5397.14
-5521.09
-5493.84
-67347.5
-61199.2
-65872.5
-62625.5
-72498.9
-77121.6
-71434.6
-74443.2
-76013
-69917.3
-68361.8
-63584.3
-41568.9
-46124.7
-39270.8
-35119.1
-32573.8
-31694.2
-37389.2
-36767.5
-34419.2
-55579.1
-50690.2
-15971.7
-21073.3
-15450.2
-21890.6
-9458.94
-6880.21
-9186.51
-7039.67
-9209.85
-6402.87
-9408.77
-10295.7
-5596.2
-10377
-6637.24
-6092.87
-10249
-16173.4
-22296.6
-268922
-338935
-3247.27
-18249.7
-598410
-512238
-458282
-491055
-505772
-445096
-434630
-387887
-471317
-520209
-422385
-366841
-410555
-376954
-508149
-493368
-564845
-584685
-607067
-558982
-581949
-589317
-542938
-463560
-478032
-419449
-476916
-432345
-462521
-375393
-326355
-335944
-364176
-387074
-356182
-398590
-346324
-407002
-434650
-448691
-394436
-172018
-180156
-171294
-181332
-175941
-175190
-176460
-188179
-187075
-177059
-170945
-171424
-202963
-186909
-184025
-207036
-214098
-231819
-238774
-208549
-221305
-254503
-227069
-247300
-196248
-175756
-178604
-192270
-218228
-192544
-195493
-214041
-248257
-287615
-254418
-279936
-225517
-204330
-201326
-229807
-240503
-263349
-234555
-270784
-266944
-229347
-232607
-262285
-307635
-360201
-314584
-351605
-275328
-242608
-239273
-280094
-298889
-332943
-341298
-292127
-186820
-202388
-187191
-201416
-179333
-180360
-182113
-194163
-181636
-195192
-184695
-183387
-249635
-222886
-254175
-219725
-268786
-297083
-304986
-262421
-277048
-322898
-314744
-283618
-241797
-210381
-237374
-213468
-406111
-419900
-481877
-500351
-486463
-449755
-465844
-503153
-464891
-448606
-434476
-323317
-368177
-355251
-334872
-288942
-252276
-260713
-279027
-299320
-278612
-269894
-309563
-312191
-330285
-342804
-301018
-358239
-380988
-394292
-346343
-341909
-316249
-352815
-306950
-370049
-421146
-382300
-407458
-330866
-288119
-297141
-320280
-585895
-502834
-340270
-379179
-387320
-334222
-311559
-273812
-316698
-271515
-348013
-404443
-396288
-354018
-305552
-263363
-300380
-265793
-406807
-397120
-498411
-560694
-530492
-552259
-512026
-515891
-537202
-377526
-387135
-320458
-370260
-326524
-362155
-283139
-246675
-249382
-277880
-289143
-257651
-294374
-255079
-312803
-345212
-353294
-306699
-192841
-184067
-193100
-183878
-210419
-211285
-197363
-186778
-187224
-196856
-205758
-204773
-182113
-178258
-178813
-182686
-185744
-197613
-200302
-184819
-189952
-207095
-190604
-204551
-178853
-175259
-175042
-178031
-186208
-182052
-181151
-185892
-199435
-220176
-199534
-217923
-189358
-183738
-184990
-189421
-195206
-211316
-194817
-213724
-197170
-191966
-189642
-197889
-215198
-244107
-214160
-242451
-200095
-191014
-193694
-199124
-210916
-236598
-238415
-211666
-205522
-191864
-204554
-192785
-216825
-216050
-200751
-190119
-201492
-189435
-221691
-222393
-195359
-187979
-194900
-189937
-203602
-224331
-226446
-203784
-207860
-232521
-230567
-207394
-192315
-187613
-192517
-186007
-338864
-348300
-431559
-482097
-430550
-449036
-418483
-444454
-463446
-367629
-358095
-265735
-303061
-295137
-271865
-238012
-212044
-215276
-232651
-243947
-223956
-220836
-249301
-258366
-278756
-286618
-252221
-285458
-311681
-319675
-279324
-266580
-241014
-271874
-238161
-292992
-336422
-299102
-328388
-260588
-229546
-232527
-255268
-209096
-219656
-250872
-262526
-248870
-233504
-238461
-261908
-245405
-241561
-230560
-166494
-188433
-179001
-174898
-150010
-134504
-140512
-142917
-157302
-153229
-164731
-146941
-158531
-161011
-169956
-150573
-192083
-197947
-207833
-183281
-188333
-180673
-196497
-173785
-200888
-228163
-217806
-210121
-180246
-160034
-172430
-166624
-175799
-159915
-162703
-172011
-196242
-223623
-201605
-216899
-181962
-170530
-167728
-185827
-189577
-202572
-184421
-209044
-144990
-149066
-146454
-147362
-142876
-141739
-147035
-147905
-141173
-141054
-142882
-139549
-162424
-155075
-166130
-152308
-166930
-175608
-181605
-162123
-173035
-195040
-178027
-188801
-156811
-144879
-147654
-153175
-288201
-276328
-316778
-330899
-345516
-321623
-330686
-330961
-308373
-252974
-264426
-269046
-282749
-294436
-258628
-259439
-243411
-269014
-235298
-279435
-318218
-306102
-290251
-249794
-218935
-226759
-240559
-238574
-271482
-260223
-248612
-213519
-188175
-205000
-195383
-228956
-238575
-219338
-249376
-222413
-210739
-203238
-231282
-127283
-126325
-123472
-130772
-126890
-128483
-133591
-122671
-131932
-144766
-139430
-136281
-122663
-116556
-119468
-119194
-130341
-128511
-128370
-130609
-136306
-137697
-132348
-130709
-134010
-136733
-135804
-134771
-139156
-130487
-135628
-133303
-151641
-168763
-162988
-156281
-146071
-150943
-156474
-141587
-144256
-140397
-147821
-137617
-266248
-334658
-195452
-203628
-237446
-257390
-228846
-238866
-226608
-240100
-250681
-220481
-212088
-161920
-178264
-171258
-167764
-149949
-140095
-144138
-144724
-155297
-153108
-160589
-149132
-155663
-157240
-164084
-149877
-180140
-185649
-192834
-174207
-176914
-171017
-182254
-167214
-186749
-207748
-200427
-192728
-171347
-158169
-166041
-162063
-170286
-167218
-167675
-168962
-179446
-193348
-180635
-190523
-173643
-171526
-171398
-174727
-175275
-183267
-173815
-186235
-169361
-165397
-170420
-164279
-171544
-169631
-165345
-159463
-160842
-164017
-175740
-177476
-163975
-163516
-165551
-162725
-163817
-168367
-171596
-161866
-167962
-178983
-169665
-175885
-160522
-157921
-159026
-158705
-255379
-246618
-294208
-322508
-311740
-325581
-306020
-299358
-312649
-229152
-237731
-231669
-246640
-254323
-225560
-221377
-206545
-226749
-203171
-238836
-270364
-262594
-244951
-215523
-194250
-197728
-210151
-212451
-238523
-230953
-218521
-193260
-176257
-187897
-179954
-205541
-215528
-199492
-222993
-198981
-188870
-185267
-204360
-141204
-143680
-141652
-143728
-138201
-137169
-140868
-135333
-142276
-148703
-145126
-144928
-137576
-135609
-137925
-134829
-154521
-148940
-152635
-150866
-163373
-165485
-158449
-156009
-160060
-154355
-159274
-156948
-149605
-147378
-147314
-149111
-155548
-164074
-160726
-157743
-151445
-152967
-156448
-149015
-153145
-154233
-155209
-152806
-138069
-90623.1
-128392
-127899
-135881
-121266
-129321
-128410
-136048
-122703
-135480
-152435
-143961
-143044
-122859
-111510
-116468
-116954
-124972
-116871
-129390
-135044
-144142
-137702
-138994
-133991
-128403
-101571
-109156
-107883
-120302
-114611
-112795
-98716
-90907
-95854.7
-93010.7
-104383
-106100
-110404
-100917
-101669
-98701.9
-105706
-95375.8
-81942.2
-76909.4
-78568.3
-80255.6
-87049.1
-90257.4
-85301.7
-86839.2
-83646
-88507.1
-83562.1
-80175.5
-67131.4
-72238.7
-68683.2
-70804.6
-62475.8
-56910.4
-60951.6
-58636.9
-65993.3
-68742.7
-69819.5
-64636.8
-63723.1
-61676.9
-65352.4
-59972.9
-77908.5
-75623.7
-79065.5
-74297.1
-81083.2
-85215.5
-84924.8
-80920.2
-81510.4
-85812.6
-82488.5
-85050.9
-77287.6
-72639.8
-73475
-76818.9
-107118
-102896
-105945
-103655
-113761
-122956
-117868
-118026
-111329
-112670
-109703
-114780
-109192
-108100
-112828
-105186
-98321.5
-99686
-101179
-96818.6
-96779.6
-93772.8
-94922.5
-90286.9
-91893.3
-93313.3
-100341
-103134
-96148.6
-99233.2
-99631.6
-96108.8
-92752.9
-89575
-93983.4
-88873.2
-96897.3
-103185
-98604.9
-100838
-92285.4
-89311.9
-88773.9
-92537.3
-74255.8
-80760.3
-86028
-88976.8
-79949.6
-78732.2
-78327
-88112.7
-86250.7
-94405.8
-87369.5
-62721.7
-67860.1
-62280
-67893
-58862.9
-55765.6
-59997.4
-54298.5
-63057.8
-68257.9
-63903.4
-67858.1
-58203.7
-52087.3
-57198.6
-53395.7
-78336.4
-73449
-79486.5
-72811.6
-82368.4
-86146.4
-87754.1
-81432.2
-83678.8
-92101.7
-89598.9
-85575.1
-77480.7
-72444.2
-76977.8
-72386.9
-137706
-90942.7
-132280
-130547
-136995
-126697
-134301
-135222
-139487
-131089
-138146
-150322
-143679
-143814
-129193
-122123
-124073
-126315
-126919
-120047
-129145
-134660
-137338
-142565
-137901
-128378
-133093
-106755
-113306
-115591
-124144
-121050
-117924
-109203
-104324
-108629
-104205
-114028
-117462
-119109
-113205
-110165
-105777
-111787
-104799
-100660
-94815.3
-96686.4
-98753.7
-106336
-110183
-104633
-106322
-102622
-108368
-102265
-98186.8
-83263.9
-89319.4
-85215
-87435.5
-77651.1
-71079.1
-75533.9
-73314.5
-81649.6
-83937.8
-85835.5
-79568.5
-79335.5
-76944.8
-81246.6
-74996.6
-95319.8
-93230.5
-97119.7
-91331.3
-97842.3
-100534
-101687
-96345.1
-99168.9
-104659
-101004
-102977
-93850.2
-87972.1
-89817.6
-92264.7
-124493
-122637
-125517
-121309
-128199
-132952
-131279
-129154
-128195
-131885
-129278
-131170
-124163
-121036
-124948
-120872
-119700
-120573
-122936
-117347
-117873
-114239
-115788
-110123
-112295
-113594
-121907
-125326
-114170
-118864
-117563
-115707
-109363
-104631
-108743
-105696
-113372
-116877
-112878
-116849
-110391
-108491
-106790
-111900
-82198.4
-88101.7
-89033.2
-89814.9
-80173.1
-82066.7
-81798
-87502.4
-89844.6
-100376
-94133.3
-74574.5
-77898.7
-72626.2
-79552.1
-71685.3
-69315.8
-73815.2
-66930
-75946.9
-82477
-78010.2
-80769.7
-70047.5
-62627.9
-67680.9
-65158.2
-89407.8
-83122.3
-88656.5
-84301.5
-94574.5
-99870.9
-99510.3
-95499.3
-94382
-99957.6
-99601.6
-94191.4
-90033.2
-86727.5
-91138.9
-85166.5
-7491.31
-9777.75
-5882.62
-4086.74
-2831.96
-5018.59
-4247.88
-4274.98
-6862.64
-15092.8
-12167.9
-6650.08
-6894.83
-5720.99
-8414.29
-7157.83
-7851.17
-6447.28
-6702.95
-6174.19
-7623.32
-7585.67
-7188.07
-8252.9
-7809.35
-7728.45
-7451.79
-10774.4
-9363.13
-8345.71
-6607.69
-6294.13
-5841.14
-7098.73
-13302.2
-8623.78
-11222.9
-10312.9
-17326
-23024
-20956.3
-19289.2
-15852.9
-16884.5
-13706.9
-19351.9
-14673.8
-13114
-11481
-16489.6
-49495.5
-47380.4
-51275.9
-45584.7
-51333.8
-53376.2
-55207.5
-49373
-52798.5
-58353.5
-54571
-56620.1
-47984.6
-42012.5
-44083.5
-45987.1
-42733.4
-45408.3
-46809.2
-41373.7
-40316.7
-36061.4
-43717.3
-47850.2
-39381.5
-33945.5
-38076.2
-35205.1
-38342.4
-44086.1
-42323.6
-40099
-33612.3
-27635.7
-31563.9
-29645.6
-36836.8
-38715.7
-40789
-34754.4
-35104.5
-32756.8
-36823.6
-31080.8
-28767.6
-24892
-20511
-18897.9
-23177.4
-25956
-24629.8
-18882.4
-21853.8
-18050.6
-21465.6
-40947
-34360.8
-38641.5
-36706.2
-46073.7
-52062.9
-50421.4
-47966.6
-44729.9
-47468.5
-42781.6
-49254.6
-42463.5
-40434.5
-44460.5
-38298.8
-29217
-30630.7
-26714.9
-33229.1
-27753.7
-26066.5
-23911.5
-29940.2
-26026.6
-19837.8
-22264.7
-23388.3
-30924.3
-37083.2
-33139.9
-34921.4
-10559.8
-15023.7
-11186.9
-13948.1
-8658.97
-8569.66
-8226.51
-8724.6
-9954.81
-11752.8
-9101.92
-13094.7
-8863.27
-8492.05
-9039.05
-8671.38
-24160.3
-18952.1
-19844.8
-23124.6
-28254.2
-32659.1
-24820.5
-20368.6
-27528.6
-30636.5
-31833.2
-26409
-20741.3
-18134.7
-16866.4
-22161.3
-22546.3
-24557.3
-20709.2
-26490.3
-19530.5
-14278.5
-17814.3
-15820.8
-23840.8
-29489.6
-27883.4
-25363.2
-4222.18
-19414.7
-11542.8
-14789.8
-9280.72
-5529.6
-6106.23
-5006.6
-6933.24
-8230.47
-7007.73
-21689
-18016.4
-9073.06
-10323.9
-7674.95
-12286.7
-7603.74
-7842.01
-6613.43
-6830.59
-6519.81
-7823
-7610.93
-7995.3
-7816.46
-8741.98
-7538.51
-10119.6
-15344.2
-13578.9
-11397.2
-7371.06
-6388.96
-6389.65
-7072.88
-19223.7
-13153.6
-16754.6
-15260.8
-24352.8
-31172.1
-28780.8
-26619.2
-22576.1
-24050.7
-20069
-26880.3
-20874.8
-18716.7
-16750.4
-23033.8
-62565.9
-59822.8
-64461
-57945.2
-64847.7
-67087.4
-69326
-62543.1
-66545.2
-72969
-68478.3
-71044.8
-60860.3
-53937.3
-56249.7
-58558
-53689.6
-57155.6
-58543.4
-52354.1
-50431.9
-45450
-49608.6
-43423.1
-48303
-44661.9
-54556.7
-59456.4
-49226.2
-55812
-53949.6
-51046.7
-43643.5
-36746.5
-41427.6
-38910.8
-47593.2
-50004.2
-52284.5
-45331.3
-45254.6
-42197.4
-47035.1
-40467.5
-37377.8
-33110.6
-25685.6
-20820.1
-28095
-27010.8
-29894.8
-23952.2
-22708.7
-25242.4
-29219.2
-51953
-44221
-48828.3
-47274.6
-58075.6
-65228
-62785.4
-60654.2
-56086.3
-58013.4
-53197
-60846.3
-54050.7
-52024.4
-56626.7
-49377.1
-38753.8
-40138.6
-35733.1
-43328.1
-37024.8
-34939.2
-32459.5
-39564
-34967.9
-27643.8
-30478.9
-31875.3
-40829.6
-48081.6
-43439.2
-45464.4
-14163.2
-20343
-14962.5
-19125.2
-9417.12
-8503.52
-9589.37
-7612.56
-9614.28
-9358.1
-8047.07
-9714.61
-7883.06
-9186.15
-7793.16
-13425.2
-16547.8
-12348.3
-18118.6
-9915.06
-7131.34
-10214
-7512.44
-31451.7
-25361.1
-26282.5
-30398
-36196.5
-41327.8
-35528
-39404.5
-40608.6
-34412.6
-32059
-26787.3
-27841.9
-24455.1
-23097.8
-29372.1
-30277
-32920.6
-28276.8
-35022.7
-26506.4
-20132.2
-24592.4
-21882.3
-31709.2
-38231.9
-36535.5
-33307.5
-8448.82
-6569.26
-8534.65
-6830.62
-8843.87
-7278.25
-9018.97
-8091.83
-8994.69
-7517.46
-8937.43
-9043.16
-8791.48
-9397.66
-8551.34
-9159.15
-9222.46
-8844.5
-591692
-519750
-562235
-557444
-575176
-526457
-506143
-532176
-547132
-541933
-558937
-390697
-363370
-350331
-354578
-376587
-376567
-367992
-405125
-395189
-403520
-362405
-389986
-419630
-381400
-500037
-471446
-493957
-512252
-531233
-460709
-487844
-438944
-481106
-504091
-517582
-449591
-475743
-347222
-349847
-338190
-313261
-362012
-336076
-323149
-358501
-343553
-386806
-349675
-374380
-369849
-333498
-190548
-177882
-178027
-171262
-187875
-180123
-181074
-201295
-201211
-208555
-187220
-198111
-212215
-190918
-348843
-350312
-341581
-314429
-362542
-337454
-328576
-335236
-303394
-312244
-302990
-324750
-321942
-315992
-183299
-176053
-176615
-166563
-185534
-174318
-174649
-192486
-191493
-205156
-185466
-195274
-201819
-183113
-314058
-337751
-303093
-305146
-325005
-325863
-293369
-303207
-273861
-302457
-294231
-314052
-292494
-283394
-160028
-168117
-161912
-151160
-169898
-158611
-152625
-150343
-134998
-142842
-140306
-149330
-143779
-140994
-56963.5
-52807.8
-59633.6
-51766.2
-58550.2
-51149.5
-57277.8
-63109.9
-68947
-70906.4
-65042.6
-64588.7
-69523.1
-62897
-156846
-166729
-158427
-151025
-165486
-157662
-150627
-148382
-135343
-142968
-140129
-148762
-142820
-140127
-63213.5
-55070.3
-61995.3
-59077.7
-60724.2
-57631.5
-64366.4
-69071.9
-75523.4
-72880.4
-67346.1
-66683.9
-75160.4
-69834.6
-4022.17
-5787.16
-5241.64
-5269.39
-4166.66
-4687.58
-4847.77
-40468.8
-47364.1
-46696.1
-44177.8
-45630.9
-42221.2
-41750.1
-35584.9
-32803.6
-32813.4
-39785.3
-37369.9
-31036.6
-37229.5
-5143.87
-8186.04
-6014.13
-5678.52
-4591.07
-6896.91
-6111.06
-47168.3
-49670.8
-54056.5
-46568.6
-52277.1
-44554.2
-49130.5
-42305.2
-39958.4
-35119.4
-42147.4
-39690.6
-37694.9
-44505.9
-510929
-473588
-466357
-452140
-481212
-495322
-488029
-526813
-511262
-517321
-465296
-542731
-496088
-502625
-464533
-459269
-451830
-412767
-479776
-437317
-445124
-449342
-408985
-417241
-400129
-434446
-423143
-431098
-439768
-450918
-431847
-396025
-464025
-406466
-427936
-451703
-427924
-490615
-444299
-463677
-477309
-417373
-404460
-437842
-396138
-385236
-424947
-416149
-374909
-392829
-354056
-399424
-384135
-381307
-412092
-364253
-246677
-252568
-244378
-226602
-233131
-258582
-241256
-234917
-211547
-219241
-216605
-223482
-222330
-230135
-283226
-264110
-255648
-258333
-270830
-267365
-275844
-295936
-291241
-299911
-269086
-308775
-279080
-287791
-230772
-246656
-222805
-226813
-236037
-217917
-240715
-220958
-200238
-215278
-213204
-211320
-225537
-208881
-261023
-257505
-252493
-236099
-268468
-250812
-245219
-271397
-264097
-290950
-262773
-281876
-279660
-254760
-114536
-106763
-102901
-111253
-110619
-106312
-114755
-123093
-126669
-131528
-118650
-131868
-118424
-123019
-90718.4
-99036.1
-95630.9
-89889
-98336.6
-88475
-91593.2
-83336.1
-75133.6
-77519.8
-83472.8
-76297.7
-81745.2
-84414.7
-116506
-107796
-112511
-106867
-115504
-113660
-109071
-124183
-127896
-131681
-119704
-132052
-123496
-120745
-94819.3
-100297
-91756.9
-100183
-93075.7
-101831
-93737.5
-88028.1
-81380.1
-79355.6
-85466.3
-81479.4
-86072.4
-87449.7
-10310.7
-14421.4
-15011.5
-13775.4
-12095.2
-12965.6
-11601.6
-7992.66
-7387.66
-6928.69
-11317.5
-6074.18
-9685.75
-9101.92
-19264.8
-17517.9
-17998.6
-23741.1
-15961.3
-21422.5
-20916.6
-22879.5
-28808.7
-28558.8
-27177.6
-26787.3
-24902.3
-24591.6
-14899
-16195.5
-15261.7
-20353.9
-13177.3
-16809.4
-18140
-11911.1
-10635.6
-7996.92
-12597.2
-9202.65
-10435.8
-13726.5
-25266.8
-19452.1
-25746.8
-23811.6
-22980.1
-21590.9
-27691.5
-29181.9
-35753.1
-30817.8
-29284.5
-33329.5
-26770.8
-31541
)
;

boundaryField
{
    left
    {
        type            calculated;
        value           nonuniform List<scalar> 0();
    }
    bottom
    {
        type            calculated;
        value           nonuniform List<scalar> 0();
    }
    interface
    {
        type            calculated;
        value           nonuniform List<scalar> 
2120
(
-205187
-414779
-361.574
-45080.7
-430556
-422386
-203281
-407126
-193252
-51709.7
-191642
-52615.9
-992.441
-619.95
-46053.7
-1165.04
-296254
-310274
-7654.25
-10659.6
-563412
-546204
-550424
-533880
-292089
-305737
-117997
-108498
-117955
-108625
-8692.35
-8836.5
-8744.43
-11790.5
-8563.76
-8611.73
-242648
-368684
-1045.87
-27643.3
-633782
-479041
-617929
-469201
-239798
-362477
-159180
-73896.9
-158337
-74541.4
-5567.71
-7565.41
-1515.72
-28746.9
-5670.08
-7078.19
-255667
-353745
-1872.09
-22692.5
-615970
-495572
-600857
-485141
-252512
-347981
-148417
-82021.9
-147804
-82561.7
-6857.42
-8099.48
-2607.42
-23829.4
-6887.45
-7687.51
-217401
-399210
-573.226
-38854.1
-669816
-446528
-633957
-660367
-418701
-403475
-652424
-437822
-553316
-379838
-405774
-367208
-202679
-199235
-211145
-191349
-373629
-388443
-215190
-392058
-195181
-185102
-342330
-378257
-354692
-364733
-181606
-58728.6
-169500
-187602
-180281
-176256
-57165.8
-50834.9
-180268
-59560.6
-165578
-175222
-61780.1
-54119.4
-60620.6
-55690.3
-2630.5
-1151.32
-2420.52
-2504.34
-2508.02
-39221.3
-44504.6
-38544.4
-44847.3
-687.165
-39881.1
-3057.52
-2665.44
-1596.32
-2907.78
-2949.26
-44444.5
-47967.3
-49902.9
-42175.1
-5514.75
-4672.73
-282479
-324534
-5180.92
-14184.6
-580778
-529159
-547652
-553583
-570966
-530896
-497888
-514299
-567105
-517488
-484796
-506163
-520968
-471340
-444702
-457962
-263427
-274869
-276361
-302958
-289543
-278669
-319609
-248451
-274537
-262374
-259621
-282501
-299449
-270985
-127818
-99337
-120014
-124082
-111035
-93996.6
-105425
-96581.2
-102357
-127603
-99611.1
-120603
-114917
-123853
-112320
-96538.8
-97912.4
-104288
-7960.19
-10486.1
-8356.54
-8559.45
-8144.44
-16740.7
-13416.5
-8716.27
-8801.48
-8784.26
-6209.62
-15328.6
-11952.8
-9312.76
-14913
-8310.11
-8170.57
-7976.54
-21784.6
-18193.8
-8414.17
-8146.77
-7912.77
-229894
-383838
-701.448
-33032.4
-651729
-462694
-616375
-598966
-166090
-162078
-166759
-161881
-192243
-193055
-197269
-187296
-391511
-434150
-469339
-453062
-449795
-635120
-453430
-416491
-539452
-565970
-581160
-525677
-446048
-188598
-194491
-199041
-184325
-208147
-232968
-213143
-227737
-328952
-392596
-405449
-214301
-223350
-226190
-169028
-151645
-157151
-152742
-155641
-359041
-359822
-374806
-344682
-122605
-121147
-124948
-119069
-227360
-377170
-187209
-205463
-215680
-215923
-175221
-187550
-179325
-183182
-330070
-317965
-291530
-146534
-146256
-142662
-150325
-170242
-66129.9
-159015
-165211
-148822
-159735
-71666.9
-69690.8
-73133.5
-68330.2
-107287
-112962
-110734
-109295
-68143.7
-63860.7
-70894.5
-51285.4
-169165
-66878.2
-133975
-156117
-162223
-146892
-88483.6
-85694.9
-89817.1
-84445.8
-129776
-136545
-133644
-132509
-68166.6
-74832.4
-60467.2
-2702.03
-1884.61
-1543.52