/*--------------------------------*- C++ -*----------------------------------*\
| =========                 |                                                 |
| \\      /  F ield         | OpenFOAM: The Open Source CFD Toolbox           |
|  \\    /   O peration     | Version:  2012                                  |
|   \\  /    A nd           | Website:  www.openfoam.com                      |
|    \\/     M anipulation  |                                                 |
\*---------------------------------------------------------------------------*/
FoamFile
{
    version     2.0;
    format      ascii;
    class       volScalarField;
    location    "0.105/solid";
    object      sigmaHyd;
}
// * * * * * * * * * * * * * * * * * * * * * * * * * * * * * * * * * * * * * //

dimensions      [1 -1 -2 0 0 0 0];


internalField   nonuniform List<scalar> 
3125
(
-68057.9
-139066
1342.23
-13643.9
-144396
13547
18405.5
-137726
-141888
22378
36545.4
-133239
-64805.6
12812.6
-132609
7643.41
-67494.9
-136716
-63736.3
20606.6
-128414
10184.7
-64015.2
-15896.3
-60946.3
2574.8
6928.88
-15274.4
-63519.9
-16060.9
-60015.8
2734.19
8989.27
-15495.2
1592.17
2102.75
-13136.6
1406.7
-13817.5
1634.13
2156.47
-13388.2
-98937
-103681
-926.459
-1929.38
-189317
-183510
-116083
-180797
-97161.1
15698.4
-51894.5
-64302.3
-82292.3
16394.2
-68653.2
-175210
-73772.9
-91104.2
-185302
-179695
-98181.8
-173662
-83662.5
28087.1
-43064.8
-51870
-64042.1
30115.6
-54874.7
-168445
-65145.3
-78931.2
-94243
-34831.1
-48069.9
-47988.5
10587.2
-37024.3
-98782.2
-68296.7
-52862
-24309.8
9843.12
-33633.1
-97691.7
-102316
-91982.6
-32510.8
-43904.2
-40212.7
15707.4
-31965.6
-96311.4
-60705.8
-47946.9
-21886.2
14217.6
-29337.7
-38450.3
-35226.1
-30817.2
-36649.6
-20057.5
4260.51
-6258.02
-11804.9
-21495.5
4891.64
-13985.5
-33582.2
-8913.53
-16916.4
-38375.9
-35185.9
-28986
-36443.5
-19348.6
4955.33
-6293.11
-11286.9
-19568.4
5851.19
-13196.9
-33454.1
-9020.73
-16478.4
-1086.37
3341.84
-390.532
-4742.93
1101.75
-1134.26
-2057.8
-6733.73
-1658.57
3336.72
985.215
-149.048
-1136.29
-2140.06
-1392.28
3315.56
-713.798
-4887.05
966.01
-1421.32
-2373.7
-6945.82
-1997.74
3260.74
800.236
-440.335
-80762.7
-123452
1226.25
-7695.07
-213083
-160794
-203629
-162192
14272.8
-8751.35
-9635.69
-15831.3
17748.4
-14697.3
-153428
-109662
-121151
-208176
-157761
-194929
-151540
24216.7
-104.916
108.036
1978.42
34347.6
1597.61
-148027
-103928
-115200
-76904.6
-51755.8
-60539.6
-7912.3
12073.4
-7117.38
-117683
-104610
-93722
-3288.13
8368.69
-3816.84
-79933.7
-121562
-75379
-50092
-59028.5
-288.718
18903.7
-445.719
-114282
-100064
-89270
-860.338
11455.4
-846.915
-52434.9
-23449
-47959.7
-49940.4
-39988.8
3095.85
-479.976
-713.182
-2803.62
6229.73
-2360.03
-22418.4
-12587.8
-17765.9
-52149.3
-23544.3
-47118.5
-49362.9
-38933.7
3396.13
-428.979
-521.134
-853.902
7868.72
-830.759
-22523.8
-12572.6
-18003.5
1099.65
2576.73
1455.38
-267.972
1690.1
-69.6383
-7520.96
-10522.9
-6427
2517.38
1642.33
1089.63
-7902.98
915.805
2612.08
1257.2
-323.101
1664.46
-203.257
-7824.29
-10900.8
-6551.58
2297.99
1300.97
-85170.1
-118403
985.336
-6013.4
-207077
-166378
-150335
-109657
-142081
-197843
-143976
-156507
-103348
-126004
-133966
14989.9
-11533.2
-10563.1
-30272
-55917.9
-32720
-37852.1
-60055
-35248.4
-48980.7
-77653
-46097.7
17077.9
-12546.6
-13601.4
-73106.2
-40531
-43280.4
-158791
-138472
-126432
-95837.5
-79403.2
-103110
-118201
-85182.6
-110567
-202391
-163159
-131817
-93292.2
-125151
-189550
-135141
-147192
-88451.3
-112045
-118560
26121
618.08
348.891
-21398.2
-45961.8
-22719.1
-25372.7
-48898.6
-24044
-30679.9
-60963.2
-29356.5
32203.6
916.155
1242.95
-57906.4
-26701.4
-28029.7
-153061
-130940
-119251
-86926.1
-69667.2
-93050.2
-105618
-74264.3
-99284.1
-81117.8
-74228.6
-64680.1
-45324.1
-39047.6
-50815.8
-62545
-43462.9
-56558
-27905.8
-44205.5
-25622.7
11330.4
-5662.47
-6368.09
-40548.8
-21317.5
-23426.3
-112843
-78697.5
-88940.5
-88758.6
-62982.1
-81881.3
-68764.8
-57834.9
-75213.9
-13801.1
-27272.7
-15539
9102.33
-5003.05
-4387.49
-30381.4
-19299.8
-17372.9
-84243.2
-116645
-79419.3
-71885.8
-62272.3
-42953.9
-36178.2
-47876
-58259.3
-39978.5
-52982.4
-20084.3
-37409
-18780.9
17270.6
-679.923
-575.297
-34658.7
-16213.4
-17489.2
-109692
-75360.4
-85598.5
-80922.1
-56355
-75043.5
-63704.6
-52099.9
-69302.9
-11327.3
-24291.6
-12508.9
12800.5
-758.679
-814.242
-26777.4
-14954.6
-13718.6
-48786.6
-26208.5
-40091.7
-27013.6
-35127.2
-46462.8
-29477.4
-36578.9
-23424.4
-26032.6
-30437.4
3659.05
-1265.25
-973.707
-3423.16
-7937.98
-4374.79
-6572.64
-9786.7
-5425.13
-12159.2
-18835
-10613.9
5548.98
-1592.73
-1956.8
-16330.6
-7821.02
-9168.15
-25040.1
-26483
-20302.1
-11429.7
-11338.8
-14610.2
-21920.5
-14008.6
-18109.6
-48550.2
-26273.6
-38230.4
-25611.2
-33710.4
-45991.5
-28887
-36240.1
-22396.3
-25335.4
-29411.3
4137.4
-678.656
-604.651
-3401.28
-7831.02
-4210.1
-5998.97
-9498.06
-5076.02
-10178.6
-17343
-9067.66
6822.93
-741.379
-792.889
-15216.9
-6972.67
-7997.13
-25095
-26500
-20071.9
-11580.1
-11306.4
-14615.7
-21506.5
-13794.7
-17929
799.058
-929.669
854.508
2961.84
1933.94
1708.02
-559.108
720.069
679.461
-2563.3
-3393.26
-1789.09
1354.24
351.331
133.829
-2191.15
-436.803
-1083.57
-5927.08
-1944.49
-4880.11
-8578.76
-4802.93
-6065.35
-2063.78
-3112.81
-3893.37
2761.8
1888.99
1814.85
965.569
642.397
985.086
754.187
218.347
870.134
829.821
-6219.34
576.658
-1285.43
692.512
2985.2
1721.3
1535.58
-917.629
432.221
374.346
-2648.82
-3612.24
-1953.16
1269.44
122.641
-54.6545
-2459.12
-683.5
-1298.48
-6242.07
-2141.73
-5296.1
-8839.1
-5086.09
-6397.18
-2449.71
-3438.47
-4269.29
2592.32
1647.87
1534.45
730.603
381.739
694.159
479.826
-42.0783
603.249
-72195.1
-133779
1396.26
-11506
-225249
-149794
-210645
-215327
-221095
-200528
-137995
-142889
-140028
-128297
-145407
-133089
-132854
-219861
-147110
-180504
-205788
-192241
-195994
-122854
-138112
-124378
-128250
-128929
-132824
-118663
-65089.3
-68742.7
-64943.2
-60390.4
-68982.7
-64045.5
-61257.7
-122790
-127567
-134735
-123516
-129505
-127782
-118842
-71540.9
-131587
-61198
-67533.3
-59425.8
-62165.4
-62968.7
-65793.8
-57841.8
-110356
-123641
-119860
-123702
-114491
-115407
-119186
-60043.5
-18278.7
-53889.2
-61018.7
-56780.7
-57183
-57522.8
-57183.1
-53291.1
-15938.6
-17527.9
-14781.5
-14241.2
-17061.6
-16335.8
-13795
-59621.9
-18416.2
-51277.8
-55945.1
-58585.2
-56373.9
-54528.2
-52551.4
-55064
-16453.1
-17717.5
-14393.4
-15393.5
-16466
-17548.6
-14439
1996.67
1396.08
1571.7
1840.66
1692.66
1842.54
1958.78
-9894.22
-11129.2
-12647.2
-12240.3
-10640.6
-11780.9
-10375.4
1371.43
-11691.3
1876.99
1327.35
1910.22
1689.03
1828.98
1565.36
2054.23
-10673.5
-11399.7
-12423.4
-13322.3
-12505
-10570.8
-11349.6
1086.87
1559.07
1090.68
1396.48
-94251.4
-108503
-83.2667
-3115.35
-195181
-177727
-181514
-186420
-184894
-168392
-190793
-175855
-173609
-164722
-169681
-179068
-163172
-173289
-170254
-158048
-190944
-174120
-157759
-178914
-162181
-166137
-167088
-171023
-153303
-144435
-163267
-157292
-161266
-152461
-156418
-148857
-85594.3
-89786.4
-95112.2
-87792
-90531.7
-89952.8
-83659.9
-98937.9
-103386
-99776.6
-92036.3
-104533
-94406.1
-96309.6
-93116.3
-107010
-79020.9
-87719.8
-85808.1
-89185.5
-81833.2
-85104
-82771.3
-90395.6
-100701
-89859.8
-93300.2
-93957.9
-97463.8
-86566.7
-41780.5
-32091.6
-37170.5
-39810.9
-36324.8
-34159.8
-39543.2
-34129.1
-37095.9
-28381.5
-30623.3
-33233
-31290.9
-30244.9
-31199.9
-28546.9
-41651.2
-32090.1
-36192.4
-39526.8
-33942.3
-35816.6
-36817.6
-38787.2
-33432.5
-28110.4
-30559.1
-31147.4
-32910.4
-28451.8
-30079.1
-30731
333.241
-283.325
-620.846
-918.327
165.228
-425.187
-132.431
2516.74
3352.75
2803.4
3317.59
2743.76
2445.25
3280.8
-2425.12
-3186.96
-1583.34
-1856.52
-2718.14
-1350.63
-2927.46
2702.25
3171.37
2356.82
3350.87
2515.06
2719.46
3239.94
-277.605
-3325.27
-499.271
-570.076
-1149.24
-1454.19
-345.233
-588.978
-1334.48
2295.39
3353.53
2646.36
3197.67
2348.81
2494.69
3233.26
-3351.48
-3507
-2093.14
-2432.43
-3170
-3550.94
-2284.53
2385.94
3071.36
2236.29
3113.94
2527.85
2228.1
2936.3
-76420.5
-128581
1361.36
-9524.47
-219146
-155252
-175268
-180430
-204703
-209446
-208809
-189641
-214925
-195036
-198831
-186032
-16009.8
-23032
-16863.4
-22174.3
963.239
1220.12
633.931
328.089
-15053.9
-19994.6
-14236.5
-20811.4
-27604.6
-34804.4
-35941.3
-26586.5
-4682.43
-5217.45
-29033
-38854.1
-30075.4
-37681.1
-4086.04
-3590.61
-129559
-124958
-143207
-148132
-156356
-142898
-150843
-137989
-148483
-115683
-120146
-213993
-152394
-131337
-134486
-175900
-200338
-182078
-185927
-187130
-190938
-171342
-141070
-137899
13052.9
7310.25
14024.2
6943.48
26736.3
25802.2
28333.6
29331.8
12433.5
5812.39
11500.3
6148.22
23594.8
13995.1
14587.9
22449.2
46138
47440.7
24645
16317.4
25816.8
15693.7
44132.3
42879.9
-102165
-99158.7
-127104
-143042
-138199
-142154
-133547
-137455
-131392
-92902.5
-95872.6
-62626.2
-59197.7
-69009.6
-72784
-77321.8
-71646
-73103.3
-67824.5
-73019.7
-52448.5
-55702.4
-11758.1
-16029
-16751.7
-11032.2
1735.82
1514.08
1976.22
2161.77
-12581.6
-18716.1
-13350.1
-17951.5
-97986.8
-102176
-117860
-122582
-119271
-109638
-124352
-114184
-113013
-111021
-106685
-4979.66
-8707.4
-8258.49
-5500.3
3202.26
3193.29
3188.02
3166.76
-4570.66
-7039.78
-4094.84
-7458.66
-75677.5
-126533
-54621.1
-52071.3
-64643.2
-71415.2
-70297.1
-73332.7
-66601.1
-69512.6
-68156.6
-46799.5
-49269.6
9558.16
3863.12
4129.01
8718.16
23388.2
24275.1
10060
5087.34
10940.9
4790.42
21938.2
21113
-80655.5
-83530.9
-106271
-118929
-106658
-110353
-110996
-114733
-102247
-89655.9
-86734.2
3613.1
674.512
604.993
4226.13
10637.2
10122.5
3461.21
186.352
2890.23
241.929
11631.3
12209.3
-56187.8
-20789.9
-40003
-42911.4
-50342
-53506.8
-49804.3
-46543.5
-53445
-49854.7
-46895.3
-49131.8
-46043.2
-319.863
-1645.18
-531.759
-1500.36
1908.98
1792.24
2048.05
2150.07
-250.036
-1036.14
-62.5958
-1170.19
-2986.78
-4965.2
-5308.75
-2599.5
3145.5
3174.54
-3305.06
-6324.23
-3729.83
-5951.38
3100.54
3040.85
-17428.4
-15446.7
-18195.6
-19915.7
-21967.6
-20891.7
-19452.6
-18569.9
-20567.5
-11733.3
-13505.8
-55827.2
-20902.1
-36823.6
-39107.8
-48110.1
-52822.1
-46005
-48321.9
-49230.3
-51639.3
-45032.3
-44092.9
-41715.7
62.3366
-935.146
327.937
-843.752
2272.61
2090.74
2712.6
2948.96
160.156
-818.922
-72.6674
-903.64
2176.38
-399.535
-383.776
1703.76
8721.12
9196.16
2261.54
-112.105
2773.47
-139.088
7868.57
7450.66
-17585.9
-15901.4
-18593.4
-20062.3
-20949.9
-22271.1
-18657.2
-19838.3
-20842.2
-12538.9
-14083
1839.91
2154.8
1911.41
1272.98
1495.96
1365.41
1649.93
1634.66
1708.3
2230.76
2154.56
2353.24
2578.65
1937.43
2241.26
2338.22
2408.61
2284.25
210.242
-309.183
-420.76
341.961
1560.14
1669.62
1440.09
1339.35
148.141
-763.878
-4.19579
-649.797
-5569.62
-6922.75
-8127.42
-9252.2
-7023.27
-7003.65
-8765.37
-8617.18
-6493.22
-10004.3
-8432.65
1821.13
1466.98
1895.13
1604.45
1962.26
2363.92
1711.22
1406.58
2221.61
2842.18
2589.95
2298.86
1286.07
-9713.46
1114.03
1621.33
1569.69
1141.15
1235.45
979.887
1560.11
1329.69
1164.54
2040.76
2208.47
2293.7
2605.11
1895.59
2328.44
2174.61
2413.73
2048.92
-36.4713
-622.597
-708.608
-183.751
1549.56
1707.13
-145.336
-830.243
30.6443
-737.727
1232.39
1122.84
-6795.54
-8025.17
-8969.34
-9543.39
-7228.86
-7850.41
-8834.71
-9520.63
-7395.72
-10890.3
-9501.24
798.312
638.453
1044.77
682.003
1624.33
1900.17
1587.19
2132.37
1794.57
1739.17
1597.86
830.579
1227.98
1217.29
1926.41
1550.88
1352.51
690.15
503.382
-89667.3
-113402
551.736
-4470.94
-201093
-172025
-153384
-158091
-162745
-149554
-135842
-128008
-158882
-167849
-130781
-120312
-127763
-123246
-169786
-164716
-187233
-192114
-202756
-184236
-193003
-196743
-178926
-154404
-159354
-140434
-153095
-144179
-148539
-115013
-105458
-108252
-112167
-119863
-115660
-122804
-112789
-135186
-139196
-143649
-131523
-18788
-24454
-17905
-25383
-804.374
-1184.81
-19909.4
-27837.2
-26865.4
-20830.1
-381.45
-46.3601
-45215.2
-40834.2
-39413.5
-46624.2
-59419
-62605.2
-64468.8
-57513.1
-62492.6
-69855.7
-64453
-67911.8
-42796.8
-36039
-37395.4
-41462.6
-50603.6
-42956.2
-44412.9
-49130.5
-72983.9
-81217.2
-75075.5
-79123.9
-53199.4
-48158.7
-46641.5
-54741.9
-69682.6
-73421.8
-67642.9
-75437
-68042.9
-58561.1
-60200.9
-66318.5
-96061.7
-106069
-98384.8
-103683
-70973.5
-64497.2
-62806.1
-72757.3
-92319.1
-97278.1
-99598.6
-90048.5
-24245.9
-33120.1
-25243.6
-32050.1
-2065.72
-1648.61
-22985.2
-29396.6
-22019.9
-30421.8
-2574.28
-3035.58
-61803.4
-56053.3
-63459.1
-54441
-80657.9
-84995.2
-87173.7
-78507.1
-84193.2
-93299.7
-91056.5
-86405
-59025.3
-50472.6
-57428.7
-52029.9
-134512
-139229
-159243
-164201
-161932
-147910
-153832
-167582
-152929
-149174
-144328
-106175
-116690
-112582
-109546
-85945.9
-78204.3
-80681.5
-83464.6
-90307.6
-87266.2
-84696.8
-92884.3
-101482
-104200
-108187
-98209
-117856
-121210
-125442
-114390
-104666
-101055
-107423
-98322.2
-122843
-134432
-126405
-130087
-100046
-91404.7
-94049.8
-97379.3
-196633
-168607
-105037
-114749
-117375
-103141
-83389.8
-75338.1
-85059.1
-74431.5
-108046
-123013
-120377
-109948
-81500.2
-71364.7
-79813.6
-72289.5
-127933
-124810
-162260
-184211
-177037
-180930
-166789
-172052
-175950
-118317
-121422
-98238.6
-111757
-100135
-109140
-74332.2
-65174
-66122.1
-72616.9
-76224.9
-69213.4
-77920.5
-68280
-95239.1
-103562
-106165
-93349.8
15725.3
8152.49
14721.1
8576.92
33788.7
34889.2
16494.3
9926.49
9468.64
17538.6
32044.8
31001.5
-15408.9
-9420.72
-9771.33
-15664.9
-31546.6
-36292.1
-37232.6
-31259.2
-32807.1
-39171
-33088.8
-38246
-15314.1
-9779.61
-9467.11
-15022.2
-15954.7
-9673.6
-9307.42
-15727.2
-35800
-42932.4
-36043.1
-42037.6
-15979.6
-9101.53
-9504.45
-16172.9
-34580.8
-40160.4
-34328.9
-41074
-16412.6
-8524.51
-8054.5
-16312
-41197.3
-49975.7
-41366.6
-49172.7
-16286.7
-7542.54
-8043.81
-16354.1
-40107.7
-47461.5
-48281.4
-39923.2
20354.9
12935.4
21477.4
12397.4
37850.5
36700.1
19458.5
10882.5
18369.8
11384.1
39729.4
40934.8
-16267.9
-8477.3
-16407.5
-8934.96
-37445.7
-43891
-44755.1
-37219.3
-38598
-46542.3
-45692.7
-38803.6
-16326.3
-9257.05
-16157.7
-8833.03
-105485
-108529
-140050
-158138
-142915
-146872
-135713
-147656
-151618
-114948
-111876
-78793.6
-89585.6
-87035.9
-80662.6
-59921.7
-52606.6
-53582.3
-58195
-61795.5
-56719.9
-55758.1
-63522
-75858.6
-81631.3
-84153.8
-74007
-85498.1
-92501.5
-95069.1
-83616.2
-69011.2
-62997.9
-70734.8
-62053.8
-88470.5
-100598
-90361.4
-98010.5
-67127.8
-58908.9
-59868.3
-65399.8
-66301.2
-69881.7
-81315.1
-85404
-81633
-75585.6
-77126.5
-86040.2
-79563.8
-77484.1
-73735.6
-50046
-56370
-53353.4
-52505.5
-39212.7
-34827
-36555.3
-37523.1
-42354.7
-41218
-44154.2
-39378.1
-46668.5
-47288.2
-50154.4
-44326.5
-58650.8
-59726.3
-62898.1
-56065.7
-52835
-51273
-54830.1
-49231.1
-62383
-69725
-66408
-65086.2
-49356.4
-44180
-47464.9
-46118.4
-35645
-29735.3
-30973.6
-34438
-52741.3
-59269.8
-54571.2
-57492.6
-37861.3
-34113
-32804.5
-39144.2
-49922.6
-52572.9
-48154.8
-54270.3
-9596.13
-14890.7
-10294.2
-14240.6
2674.2
2788.22
2512.3
2363.55
-8932.93
-12552.3
-13163.5
-8284.96
-31172.1
-28008.2
-32312.5
-26809.7
-41203.4
-43376.6
-44917.8
-39588.7
-43780.3
-49489.1
-45459
-47863.3
-29148.6
-24064.5
-25189.8
-28077.3
-93637.2
-89583
-103549
-108081
-114283
-105113
-108242
-109361
-100698
-81502.5
-85397
-86110.1
-88240.3
-91972.9
-83055.9
-76851.8
-74337.6
-79234.6
-71930.2
-90503.3
-99948.2
-96087.8
-93661.3
-72763.7
-65904.9
-68214.3
-70473.9
-75881.2
-84270.3
-80676.7
-78826.6
-60554.5
-54547.6
-58457.7
-56670.5
-71817.4
-73394.7
-68987
-76852.9
-64342
-62326.5
-60101.6
-66535
-19797.3
-17686
-16727
-20678.3
-26222.2
-27533.2
-28759.3
-24924.1
-28283.6
-32461.8
-31167.3
-29656.6
-18187.1
-14612.8
-15494.1
-17372.2
-6529.32
-9564.04
-5981.81
-10085.1
2988.65
2909.64
3068.68
3119.49
-7080.88
-11559.4
-7677.7
-11000.9
-23337.6
-19020.9
-22382.1
-20019.5
-35615.9
-40545.5
-39093.3
-37154.8
-33300.7
-35017
-36402
-31846.4
-25142.8
-22532.9
-26159.6
-21457.3
-88630.4
-111779
-57506.3
-60135.1
-75334.6
-83528.4
-74077.6
-77192.2
-71724.9
-77911.5
-81104.9
-65791.7
-63094.9
-42273.8
-48345.4
-46134.8
-43935.7
-32219.9
-28121.8
-29053.8
-30671.1
-33916.5
-31967.2
-35494.4
-31031.7
-39730.5
-41533.1
-43678.6
-38124.1
-48243.7
-50880.3
-53146.5
-46547.6
-40603.4
-37991.3
-42251.8
-37041.8
-50923.5
-58076
-55753.1
-52661.5
-38848.5
-34008.4
-37222.9
-34955.8
-14408.9
-9592.9
-9345.72
-14070.9
-29660.9
-35276.4
-29970.8
-34317.1
-14582.1
-9437.78
-9725.95
-14888
-28356.2
-32331.7
-28039
-33298.1
7488.54
3248.62
8291.37
3039.57
17659.5
16939.4
7124.78
2288.03
2470.69
6369.24
18954.8
19737.3
-13510.9
-9170.34
-13871.3
-9403.44
-25064.2
-28303.2
-29270.8
-24714.1
-26378
-31291.5
-26725
-30327.8
-13278.6
-9130.71
-8939.07
-12895.4
-77503.2
-74685
-94297.9
-105162
-102360
-106005
-98249.3
-98134.2
-101695
-68824.7
-71589.3
-66391.8
-71017.5
-73474.3
-64576.4
-54613.6
-50428.7
-56336.2
-49466
-69262.9
-78778
-76285
-71102.7
-52769.7
-46317.4
-47290.5
-51058.8
-59951.4
-68249.8
-65829.9
-61740.6
-45718.7
-40099.2
-44048.4
-41071.2
-57159.5
-60739.9
-55398.3
-63111.6
-47534
-44166
-43200.6
-49225.8
-10794.3
-7892.4
-8014.73
-11215
-18328.8
-20307.9
-21235.2
-17938.4
-19623.5
-23237.5
-22282.7
-20012.1
-10459
-7529.63
-7449.22
-10027.2
5088.29
1074.49
4438.44
1197.76
15042.4
15714.2
5357.17
1786.36
6054.22
1639.47
13893.6
13278.9
-11939
-8432.21
-11539.3
-8303.81
-23021.1
-27260
-26284.4
-23381.1
-21699.5
-24281.7
-25236.4
-21322.4
-12240.1
-8643.8
-12630.5
-8814.94
-45218
-29089.5
-35905.1
-36137.8
-38691.7
-33827.5
-32953
-32174.1
-34541.7
-30530.2
-38926.2
-44263
-41552.8
-41124.7
-30142.2
-26514.9
-28658.6
-28046.7
-37061.8
-34321.7
-40311
-43088.3
-46283.3
-43290.5
-43553.5
-42857
-40161.5
-29027.8
-31575.7
-29053.9
-33450.3
-30997.7
-31061.3
-22188.5
-19252.7
-20571
-20905.4
-24636.7
-24180.3
-26027.7
-22749.6
-26413.9
-26315.1
-28544
-24599.3
-875.25
-2008.64
-641.676
-2207.48
2517.75
2611.21
-1022.13
-2827.95
-2610.01
-1290.24
2397.24
2284.39
-4954.25
-4343.49
-3858.21
-5374.42
-6191.94
-6404.35
-7007.06
-5527.09
-7249.39
-8947.23
-7971.65
-8267.52
-4153.48
-2886.12
-3304.02
-3795.35
-6730.85
-4981.75
-5499.95
-6258.48
-11263.5
-13506.6
-12148.9
-12681.9
-7712.55
-6817.47
-6227.52
-8243.31
-9970.05
-10364.4
-9149.37
-11108.7
-13722.5
-10813.9
-11565.7
-13024.3
-21775.1
-25258.1
-22994.7
-24129.2
-15112.8
-13460.4
-12629.6
-15873.9
-19973.2
-20923.6
-21985.4
-18836.4
-1987.42
-4374.25
-2345.14
-4094.7
2811.5
2725.67
-1782.35
-3303.05
-1463.85
-3555.06
2907.9
2972.04
-11100.9
-9843.05
-11726.2
-9130.03
-14554
-15201.6
-16114
-13586.9
-16104.9
-18933.6
-17960.7
-17158.5
-9901.12
-7612.57
-9329.55
-8251.5
-19578.7
-21748
-25664.2
-27771.6
-24606.2
-23344.7
-23060.4
-27369.3
-25880.7
-26473.2
-24105.6
-13239.5
-15915.8
-14197.3
-14632.1
-9681.62
-7973.06
-8870.52
-8807.91
-11395.8
-11401.7
-10385.9
-12374
-11386.6
-10875.1
-12420.5
-10133.5
-18222.4
-17878.1
-19776.1
-16692.6
-17447.9
-17248.2
-18626.3
-16016.8
-20482.1
-23986.6
-22149.1
-21923.4
-15357.1
-13068.3
-14184.6
-14278.3
-45034.8
-29115.9
-31718.9
-32801.2
-34795
-30217
-27528.7
-26185.8
-29030.2
-25291.7
-34093
-39154.7
-37081.5
-35662.5
-25941.5
-22522.2
-24484.1
-23404
-34325.9
-32149.9
-39057.1
-42708.5
-42851.6
-45061
-42007.8
-39792.9
-41866.6
-27697.1
-29766
-26487.7
-30610.8
-27935
-28699.7
-20075.6
-17312.4
-18143.8
-18747.2
-21561.8
-20718
-22944.9
-19864.6
-24312.3
-24801.2
-26616.9
-22939.5
562.173
-861.674
265.28
-914.684
4288.54
4594.37
525.554
-878.541
-824.209
862.494
3709.45
3455.92
-4428.9
-3620.27
-3586.45
-4811.05
-6148.36
-6446.09
-7103.71
-5817.32
-7097.68
-8617.8
-7468.29
-7911.65
-4060.35
-2991.92
-3055.15
-3681.11
-5600.04
-4160.94
-4207.29
-5201.76
-9932.72
-11886.9
-10319.9
-11085.4
-5995.66
-4768.31
-4753.25
-6404.15
-8846.17
-9454.9
-8484.92
-10216.9
-8859.83
-6481.8
-6457.46
-8428.73
-16268
-19282.3
-16657.9
-18353.2
-9237.89
-6963.54
-7029.13
-9667.26
-15013.7
-16464.7
-17356.3
-14619.5
1232.45
-615.717
1670.83
-585.127
5572.14
5230.7
1236.08
-734.666
840.663
-772.86
6277.78
6668.92
-7608.52
-5903.76
-8050.43
-5930.92
-11833.1
-12818.9
-13643.4
-11436.3
-13008.6
-15478
-14602.4
-13403.1
-7228.83
-5341.37
-6797.35
-5349.33
-19555.6
-21380.8
-25590.3
-27770.9
-23352.8
-24774.4
-23177.5
-25846.2
-27365.8
-25444
-23496.5
-13447.2
-15918.3
-14428.2
-14592.2
-10049.5
-8397.19
-9063.22
-9034.92
-11219.8
-11104.8
-10408.1
-12317.8
-11774.8
-11469.6
-12837.5
-10726.8
-17626.9
-17648.7
-19249.3
-16398.4
-16083.4
-15661.3
-17346.3
-14887.4
-19565.3
-22823.8
-20876.3
-21108.3
-14754.3
-12573
-13319.5
-13567.9
1465.07
957.143
943.371
348.686
1215.01
1000.28
1396.85
777.315
512.886
-350.453
363.683
2146.26
1568.97
2032.18
1807.6
2568.15
3190.03
2291.44
2897.74
2357.17
2695.17
3110.02
2579.66
3203.54
2680.47
3146.71
2093.75
1775.53
1568.63
2166.5
2518.91
2705.02
2343.32
2973.31
844.765
1144.45
630.425
1302.19
-70.3673
-221.718
-477.668
234.05
184.619
-608.231
40.9163
-360.278
623.892
1240.86
976.579
849.598
-2143.36
-1250.63
-1565.48
-1862.31
-4022.06
-5265.3
-4599.41
-4744.4
-2758.07
-2385.47
-2010.34
-3091.93
-3203.91
-3276.79
-2685
-3729.27
527.348
-87.2816
391.487
-7.04395
1118.82
1065.05
1168.77
1246.09
592.216
319.778
224.013
719
-1060.32
-859.106
-1306.93
-558.275
-896.778
-907.44
-1252.31
-501.743
-1532.11
-2403.54
-1968.32
-1998.67
-558.01
47.0507
-209.658
-340.78
-4285.71
-3140.42
-3638.7
-4480.79
-5438.87
-5504.89
-4997.13
-3999.62
-4152.83
-1169.53
-2089.36
-5930.6
-5370.04
-6556.88
-4971.7
-6510.08
-6633.58
-7276.66
-5821.68
-7380.03
-9301.21
-7936.55
-8479.53
-5163.55
-3958.35
-4656.08
-4495.2
-2915.11
-4191.95
-3192.52
-3734.59
-1780.15
-952.629
-1296.01
-1458.05
-1882.2
-1390.02
-1200.77
-2213.57
-2763.23
-2938.17
-2331.5
-3337.02
2042.52
1704.87
2032.45
1530.48
2672.36
3261.89
2617.91
3201.75
2141.3
1556.8
2093.33
1775.87
2530.87
2980.73
2518.95
3147.39
1170.06
1106.01
1329.98
943.149
1070.74
1077.66
1167.93
1198.51
978.139
552.774
836.99
672.425
799.107
1295.2
1048.56
1039.5
408.227
-232.068
73.4424
45.9682
930.255
980.385
675.223
1266.27
354.539
400.588
119.397
666.276
379.477
-4676.51
522.731
-84.7726
185.119
91.8255
838.367
601.534
727.088
322.301
96.6922
-1546.85
-812.383
1679.05
922.887
1554.86
1111.35
2422.18
3208.85
2203.14
2944.67
2202.08
2561.15
3106.95
2198.41
2929.6
2263.97
2966.73
1582.21
1089.15
893.893
1600.25
2258.86
2722.66
2103.48
2867.26
-94.8774
348.618
-267.925
445.548
-909.7
-1193.24
-1488.85
-779.068
-860.18
-1660.2
-960.111
-1452.52
-281.245
388.994
273.583
-25.7241
-2619.69
-1877.53
-1973.07
-2292.54
-4594.2
-5715.06
-4920.4
-5092.56
-2979.82
-2502.37
-2434.73
-3316
-3769.49
-3863.48
-3476.58
-4429.75
-149.205
-578.305
-36.8954
-453.288
607.691
549.3
23.5531
-267.807
-384.449
-55.576
773.463
874.831
-1641.41
-1432.11
-1952.96
-1346.4
-1739.46
-1673.38
-2130.73
-1468.13
-2420.42
-3236.27
-2723.69
-2731.38
-1306.13
-784.636
-902.193
-1005.73
-5507.01
-4448.39
-4570.91
-4797.78
-5743.39
-6281.95
-5924.14
-4389.33
-4831.97
-2453.64
-3349.46
-6873.63
-6383.2
-7484.13
-6021.96
-7036.34
-7152.66
-7967.23
-6562.77
-8243.25
-10020.2
-8778.58
-9204.52
-6073.26
-4865.51
-5418.18
-5236.96
-4055.82
-5246.62
-4281.19
-4807.78
-2841.47
-2000.29
-2200.97
-2463.85
-3001.79
-2481.32
-2348.53
-3303.01
-3628.42
-3856.48
-3361.48
-4360.31
1312.69
891.049
1157.24
775.747
1983.58
2887.24
2236.2
2445.63
2082.52
1998.88
2737.51
2074.63
2844.43
2086.03
2680.98
1441.31
837.595
1488.51
1021.69
1789.1
2207.27
1710.98
2489.91
358.833
365.154
385.555
216.071
421.881
448.53
132.757
-134.329
139.532
5.22359
406.092
418.03
35.064
400.708
321.39
211.52
-526.063
-1133.51
-682.761
-808.87
91.9889
274.847
-139.806
397.199
-367.353
-361.859
-651.792
-222.771
1662.9
1848.82
1306.62
2126.75
2149.98
2150.76
1787.7
2712.51
2068.85
2401.86
2085.9
2385.94
3032.39
2456.02
2914.76
2492.39
2149.01
3133.89
-198651
-171522
-185016
-179159
-192993
-169083
-165763
-174938
-179860
-173331
-187405
-129599
-118223
-112770
-112896
-122583
-124732
-116545
-134541
-125460
-131643
-117940
-127175
-139553
-121697
-163387
-151681
-159913
-167478
-174676
-148164
-159277
-140754
-155495
-165498
-170022
-144255
-155219
-111835
-113325
-107559
-98022.6
-117412
-108069
-101308
-115662
-108229
-125799
-111520
-121627
-119487
-104898
-60774.1
-55642.5
-54098.2
-52234.1
-58955
-57178.2
-54907.5
-64457.8
-61591.2
-65946.1
-58069.6
-62481.9
-68242.7
-58779.1
-115193
-113745
-107884
-101574
-119932
-109496
-104341
-110542
-96046.6
-101005
-96654.4
-105136
-105957
-99473.3
-56141.5
-54427.3
-52957.3
-48329.2
-57622
-53086.9
-51006.3
-59280.7
-56691.5
-64273.2
-56074
-60948
-62443.2
-53922.6
-100612
-109200
-94499.9
-96519.9
-104305
-105204
-91271.9
-96913.3
-84651.6
-97276.3
-92749
-101176
-93291.2
-87820.8
-50248.1
-52276
-48548.2
-45712.6
-53674.2
-49117.3
-46008.5
-46936.1
-40117.1
-42107.1
-42918.4
-45914.9
-42517.3
-43704.2
-14770.4
-13292.1
-13944.9
-12267.9
-15185.7
-12778.9
-13756.9
-16873.2
-17619.6
-19355.9
-16250.4
-17259
-19096.8
-15962.7
-47134.4
-51240.7
-45527.9
-44392.4
-50061
-48186.2
-42957.8
-44228.7
-37811.4
-41552.4
-42234.7
-45144.9
-40272.4
-41423.1
-15288.4
-13472.1
-14280.9
-12594
-15350.5
-13424.4
-14233.4
-17257.4
-17836.6
-19429.7
-16163.6
-17361.8
-19295.7
-16050
2121.64
1565.75
1351.25
1702.03
1622.5
1902.8
1834.12
-9133.51
-11436.6
-10299.5
-9296.18
-10905.3
-9752.63
-8974.47
-7501.14
-6104.29
-6659.48
-7487.87
-8121.42
-5978
-7253.62
1728.37
1092.84
1180.01
1604.04
1508.73
1343.55
1538.82
-9979.6
-11664.3
-10961.2
-9385.2
-11638.8
-9990.11
-9488.91
-8389.56
-6735.85
-6931.12
-7912.1
-8394.6
-6924.96
-8039.08
-170917
-155275
-149493
-147401
-153556
-165542
-160031
-176359
-163349
-169863
-152994
-181855
-159190
-165021
-154952
-150378
-143973
-135108
-160219
-140004
-145711
-149756
-130733
-136341
-129708
-144622
-134601
-140910
-143099
-147520
-139011
-126150
-151919
-129598
-139118
-147128
-136890
-160906
-143291
-151148
-156444
-133414
-131200
-143064
-127133
-122384
-138735
-135131
-118970
-127257
-111885
-130101
-123010
-123375
-134355
-115259
-80065.9
-80807.6
-75876.5
-71556.1
-72804.3
-84190.9
-77059.3
-76043.8
-65637.4
-69624.8
-67238.1
-72098.4
-68580.7
-73232.6
-92654.9
-84775.4
-80265.9
-81452.8
-88382
-83458.9
-88655.8
-97008
-91329.1
-96770.2
-86080.6
-101451
-88018
-92760.1
-72321
-78343.9
-68710.6
-68640
-74770.4
-65694.8
-75685.2
-68965.6
-59715.2
-67732.2
-65360.4
-65695.7
-71185.9
-62576.3
-82596
-82048.5
-78650.3
-71854.2
-85736.9
-79134.5
-74879.3
-86130.8
-81276.2
-93349.8
-82227.8
-89671.9
-89554.5
-78176.6
-34593.1
-31548.5
-29366
-31359.4
-31476.6
-31753.3
-34204.5
-37528.5
-36824.1
-39888.5
-34559.5
-40576.9
-34565.9
-37057.9
-26369.3
-28880.8
-26487.9
-24709
-29018.6
-24522.6
-26402.6
-23844.2
-20049.5
-21634.2
-21936.5
-21413.4
-21865.1
-23925
-33362.3
-31265
-31225.6
-28266.5
-33862.4
-30484
-30832.9
-35988
-35252.9
-39346.1
-33783.6
-38654.1
-36591.4
-32912.8
-25986.6
-28703.7
-24329.8
-25981.8
-26275
-28353.6
-23900.6
-23663.2
-19822.9
-21633
-22102.6
-21448.6
-23888.1
-21760.6
476.143
-996.375
-706.155
-346.084
-103.514
-278.626
-246.337
1075.68
1045.89
925.7
449.231
1559.45
623.094
407.967
-2163.17
-1895
-1662.05
-2685.27
-1153.28
-2450.45
-2885.96
-3303.63
-4633.47
-5266.02
-3961.46
-4584.09
-3662.74
-4034.54
-434.673
-1282.94
-549.068
-1505.79
-510.758
-759.767
-1225.04
259.132
523.5
718.24
116.901
854.884
160.755
-61.8525
-3172.68
-2183.02
-3100.86
-2375.52
-3189.53
-2144.18
-3307.2
-4314.27
-5484.77
-5561.33
-4158.32
-5555.24
-4325.97
-4365.79
)
;

boundaryField
{
    left
    {
        type            zeroGradient;
    }
    bottom
    {
        type            zeroGradient;
    }
    interface
    {
        type            zeroGradient;
    }
    procBoundary6to2
    {
        type            processor;
        value           nonuniform List<scalar> 
65
(
19047.2
38795.8
-231417
-221237
-225775
-211270
-122616
-87018.6
-103115
-67139.5
-131012
-138948
-17007.9
2388.61
-175167
-175167
-163899
-163899
-163899
-158726
-51929.4
-138549
-31997.4
-172600
-162792
-183499
-216622
-227318
-206005
-185128
-197360
-201079
-185128
-5858.81
-40665.1
-31583.9
-144486
49516.2
17484
26938.1
-191298
-110230
-102250
-67196
-75771.2
-77450.4
-86946.8
-126020
-112950
-50850.6
-42403.3
-7474.67
-16184.2
-138948
-131012
-131012
-162792
-172600
-155630
-171609
-204350
-190014
-183499
-179255
-179255
)
;
    }
    procBoundary6to7
    {
        type            processor;
        value           nonuniform List<scalar> 
328
(
32522.5
18250.3
4593.89
34701.4
8292.79
8169.61
50443.6
5615.34
5887.83
45145.7
33474.1
35201.3
71875.9
60461.8
58360.4
8223.86
8326.51
6758.94
6835.18
41741.8
32149.6
30481.2
21266.2
13702.4
14866
5719.49
2842.2
2982.7
16406.6
6422.57
6336.86
5918.39
3034.42
3603.9
18859.9
12986
11890.3
2504.97
2378.11
1426.62
4666.64
2786.1
2281.4
1115.95
26157.2
24105.7
2005.07
1470.74
41374.9
7538.16
7729.22
43627.4
7385.51
7174.19
56014.7
45219.8
43315.6
59842.9
46879.8
48834.4
8009.52
7995.59
7783.08
7781.61
32218.3
22399.5
23856.2
29290.8
21392.7
20002.2
9765.99
4501.11
4361.6
11304.7
4874.44
5011.94
10599
6831.36
6039.25
12455.7
7304.56
8163.47
1355.08
1432.97
1248.05
1232.26
1837.64
758.122
1055.88
1242.26
733.216
499.13
30365.8
20146.6
3587.8
36906.1
8033.46
8172.14
48165.6
6469.04
6206.13
48665.3
38400
36616
67776.9
54401.3
56463.1
8286.77
8217.56
7198.01
7146.73
38448.9
27637.1
29242.3
23812.8
16893.6
15663.7
6963.06
3477.36
3321.33
14632.8
5874.32
5971.61
7333.93
4550.14
3918.72
16585.8
10221.3
11246.1
1958.98
2083
1261.55
1261.55
1261.55
1261.55
1261.55
1261.55
3564.43
1652.05
2092.48
973.861
973.861
973.861
973.861
973.861
973.861
28239.4
22099.9
2721.77
1042.54
39128.8
7992.86
7818.91
45891
6729.76
6963.14
52290.8
39891
41744.4
63765.4
52584
50577.5
8138.94
8183.32
7491.88
7520.16
35277.2
26472.4
24949.6
26489.4
17754.6
19074.1
8311.82
3841.16
3979.48
12927.2
5506.49
5377.47
8897.47
4908.84
5634.06
14453.7
9631.61
8701.17
1718.19
1613.2
1233.73
1225.62
2631.48
1503.37
1156.27
736.671
349.023
560.666
1087.69
1266.68
950.135
8169.61
8292.79
8172.14
8033.46
5887.83
5615.34
6206.13