/*--------------------------------*- C++ -*----------------------------------*\
| =========                 |                                                 |
| \\      /  F ield         | OpenFOAM: The Open Source CFD Toolbox           |
|  \\    /   O peration     | Version:  2012                                  |
|   \\  /    A nd           | Website:  www.openfoam.com                      |
|    \\/     M anipulation  |                                                 |
\*---------------------------------------------------------------------------*/
FoamFile
{
    version     2.0;
    format      ascii;
    class       volVectorField;
    location    "0.105/solid";
    object      sigmaMaxDir;
}
// * * * * * * * * * * * * * * * * * * * * * * * * * * * * * * * * * * * * * //

dimensions      [1 -1 -2 0 0 0 0];


internalField   nonuniform List<vector> 
3125
(
(0.0051542 0.00894713 0.999947)
(0.00314354 0.00648017 0.999974)
(-0.130986 0.120835 0.983993)
(0.014059 0.0161231 0.999771)
(0.00304368 0.00632053 0.999975)
(0.774132 0.0481118 0.631193)
(0.785551 0.05443 0.616398)
(0.018107 0.00726318 0.99981)
(0.0130356 0.0178265 0.999756)
(0.817687 -0.0215202 0.575261)
(0.856973 -0.0192413 0.515002)
(0.0293882 0.0188341 0.999391)
(0.0291273 0.0101729 0.999524)
(0.772112 0.0469822 0.633747)
(0.0185631 0.007432 0.9998)
(0.754319 0.0378927 0.655414)
(0.0201686 0.0270138 0.999432)
(0.0133854 0.018255 0.999744)
(0.0458622 0.0279809 0.998556)
(0.81202 -0.0221365 0.583209)
(0.0301289 0.0192612 0.99936)
(0.773169 -0.0275801 0.6336)
(0.00541853 0.00916625 0.999943)
(0.0128915 0.015088 0.999803)
(0.0302473 0.0104052 0.999488)
(0.723536 0.0261429 0.689791)
(0.751164 0.0364376 0.659109)
(0.065201 0.0169911 0.997727)
(0.0208901 0.0278639 0.999393)
(0.0415992 0.053909 0.997679)
(0.0474849 0.0287962 0.998457)
(0.732241 -0.0354409 0.680123)
(0.767803 -0.0285027 0.640052)
(0.0949959 0.0530971 0.994061)
(0.0549307 0.133667 0.989503)
(0.71858 0.0247843 0.695002)
(0.0701867 0.0180382 0.997371)
(-0.0520428 -0.119782 0.991435)
(0.0447132 0.0577789 0.997328)
(0.119702 -0.24856 0.961192)
(0.727468 -0.0365371 0.685168)
(0.101727 0.0563757 0.993214)
(0.00396826 0.00771874 0.999962)
(0.00380912 0.00754567 0.999964)
(0.0251158 0.0490557 0.99848)
(0.0240925 0.0384046 0.998972)
(0.00262427 0.00515269 0.999983)
(0.00268088 0.00530486 0.999982)
(0.175304 0.00815404 0.984481)
(0.0151757 0.00598774 0.999867)
(0.195216 0.00848726 0.980724)
(0.77956 0.0511315 0.624237)
(0.335405 0.0146337 0.941961)
(0.304482 0.0145952 0.952406)
(0.268347 0.014156 0.963218)
(0.781178 0.0520283 0.622137)
(0.294902 0.0145214 0.955417)
(0.0154947 0.00615042 0.999861)
(0.227647 0.00863618 0.973705)
(0.202645 0.00855807 0.979215)
(0.0108194 0.0147799 0.999832)
(0.0110972 0.0151295 0.999824)
(0.228294 0.0189684 0.973407)
(0.0244635 0.0157359 0.999577)
(0.250783 0.0198756 0.967839)
(0.834681 -0.0200722 0.550368)
(0.40981 0.0159082 0.912032)
(0.384053 0.0166492 0.923161)
(0.351526 0.0172015 0.93602)
(0.840314 -0.0197448 0.541741)
(0.375732 0.0168308 0.926576)
(0.0250264 0.0160902 0.999557)
(0.284904 0.0208718 0.958329)
(0.258836 0.0201477 0.965711)
(0.0230951 0.00879727 0.999695)
(0.319115 0.00746037 0.947687)
(0.280056 0.0081823 0.959949)
(0.346426 0.0145804 0.937964)
(0.765328 0.043342 0.64218)
(0.381503 0.0141695 0.924259)
(0.0224088 0.00861459 0.999712)
(0.236974 0.00861276 0.971478)
(0.268363 0.00834014 0.963282)
(0.432021 0.0130031 0.90177)
(0.762801 0.0420252 0.645267)
(0.393799 0.0139474 0.919091)
(0.0164295 0.022233 0.999618)
(0.0159525 0.0216671 0.999638)
(0.0370975 0.0232478 0.999041)
(0.371384 0.0220253 0.928218)
(0.335789 0.0217406 0.941686)
(0.418669 0.0155955 0.908005)
(0.795143 -0.024243 0.605937)
(0.446 0.0144439 0.894917)
(0.0360552 0.0226932 0.999092)
(0.294299 0.0210851 0.955481)
(0.324791 0.0215968 0.945539)
(0.483918 0.012427 0.875025)
(0.78958 -0.0250456 0.613137)
(0.455351 0.0139858 0.890202)
(0.00764541 0.0109196 0.999911)
(0.00813668 0.0112761 0.999903)
(0.333487 0.00712825 0.942728)
(0.0408018 0.012384 0.999091)
(0.380407 0.00584354 0.924801)
(0.736675 0.0305119 0.675558)
(0.531965 0.00834402 0.846725)
(0.496686 0.0104597 0.867867)
(0.445047 0.0125875 0.895419)
(0.740595 0.0320034 0.671189)
(0.484028 0.0110487 0.874983)
(0.0429008 0.0127634 0.998998)
(0.448044 0.00334513 0.894005)
(0.397081 0.00530049 0.917768)
(0.0271452 0.0357113 0.998993)
(0.0284435 0.037252 0.998901)
(0.384126 0.0220709 0.923017)
(0.0621521 0.0363951 0.997403)
(0.424581 0.02205 0.905121)
(0.747003 -0.0323243 0.664034)
(0.558024 0.00650279 0.829799)
(0.531599 0.00911611 0.846947)
(0.493548 0.0118279 0.869638)
(0.752094 -0.0313558 0.65831)
(0.522251 0.00982047 0.852735)
(0.0650869 0.0378253 0.997162)
(0.480829 0.0212283 0.876557)
(0.438635 0.0219385 0.898397)
(0.145941 0.0487452 0.988092)
(0.103675 -0.281618 0.953909)
(0.501934 0.000269634 0.864906)
(0.542269 0.00760104 0.840171)
(0.699351 0.0224082 0.714427)
(0.563251 0.00592609 0.826265)
(0.131943 0.0398419 0.990456)
(0.464342 0.00262347 0.885652)
(0.501539 0.000747203 0.865135)
(0.122944 -0.370636 0.920605)
(0.688527 0.0229159 0.724849)
(0.561194 0.00581308 0.827664)
(0.0960377 0.133891 0.986332)
(0.0848852 0.116012 0.989614)
(0.198569 0.107771 0.974144)
(0.117132 -0.210226 0.970611)
(0.529127 0.0159471 0.848393)
(0.565999 0.00545237 0.824388)
(0.712195 -0.0389516 0.7009)
(0.584289 0.0018579 0.811543)
(0.180617 0.0986311 0.978596)
(0.494274 0.0207614 0.869058)
(0.52635 0.0179425 0.850078)
(0.138463 -0.305898 0.941942)
(0.70489 -0.0399922 0.708189)
(0.584928 -0.00019698 0.811085)
(0.00458804 0.00839984 0.999954)
(0.0033771 0.00692633 0.99997)
(-0.120649 0.205945 0.971097)
(0.0179071 0.0207233 0.999625)
(0.00250083 0.00455347 0.999987)
(0.0028783 0.00588438 0.999979)
(0.014059 0.00534156 0.999887)
(0.0768321 0.00896691 0.997004)
(0.776045 0.0491607 0.628758)
(0.635862 0.0369837 0.770916)
(0.631707 0.0375953 0.774295)
(0.602904 0.0402625 0.796797)
(0.784165 0.0536755 0.618227)
(0.608114 0.0399328 0.792845)
(0.0168882 0.00678079 0.999834)
(0.0989466 0.0103582 0.995039)
(0.0919242 0.00958829 0.99572)
(0.0098742 0.0134248 0.999861)
(0.0121676 0.0166086 0.999788)
(0.0224238 0.0143466 0.999646)
(0.0918144 0.0170488 0.99563)
(0.823357 -0.0209775 0.567136)
(0.705804 -0.00511248 0.708388)
(0.70792 -0.00422825 0.70628)
(0.722846 0.000762525 0.691009)
(0.85147 -0.0193236 0.524047)
(0.720091 -3.68708e-05 0.69388)
(0.0273968 0.0175955 0.99947)
(0.117406 0.0201707 0.992879)
(0.108398 0.0169348 0.993963)
(0.0262248 0.0095529 0.99961)
(0.151392 0.0118187 0.988403)
(0.137871 0.0117982 0.99038)
(0.639807 0.0363098 0.767677)
(0.769977 0.0458214 0.636424)
(0.643542 0.0355911 0.764583)
(0.0200416 0.00792759 0.999768)
(0.100702 0.0101818 0.994865)
(0.108837 0.0107715 0.994001)
(0.660982 0.0303127 0.74979)
(0.757305 0.0393075 0.651877)
(0.658707 0.0312868 0.751749)
(0.0184154 0.024756 0.999524)
(0.0143847 0.0196206 0.999704)
(0.0417072 0.0257465 0.998798)
(0.174641 0.0255788 0.9843)
(0.159593 0.0228342 0.986919)
(0.703791 -0.00603364 0.710382)
(0.806368 -0.0227915 0.590974)
(0.701875 -0.00695849 0.712266)
(0.0324455 0.0206433 0.99926)
(0.118469 0.0182457 0.99279)
(0.128482 0.0213379 0.991482)
(0.692203 -0.0128567 0.721588)
(0.778588 -0.0267124 0.626966)
(0.69363 -0.0118572 0.720234)
(0.00620434 0.00980785 0.999933)
(0.0104716 0.0130466 0.99986)
(0.155728 0.0123081 0.987723)
(0.0340736 0.0111363 0.999357)
(0.172183 0.0121249 0.98499)
(0.728175 0.0275444 0.684838)
(0.668112 0.0217945 0.743741)
(0.668456 0.0228345 0.743401)
(0.662979 0.0292885 0.748065)
(0.747831 0.0349793 0.662967)
(0.664691 0.0282552 0.746584)
(0.0535504 0.0147219 0.998457)
(0.271031 0.0127814 0.962486)
(0.240063 0.01374 0.97066)
(0.0231487 0.0307325 0.99926)
(0.0347552 0.045116 0.998377)
(0.178769 0.0247695 0.983579)
(0.0528321 0.0316104 0.998103)
(0.196548 0.027438 0.98011)
(0.737072 -0.0344085 0.674937)
(0.681891 -0.0214035 0.731141)
(0.68316 -0.0203143 0.729987)
(0.69083 -0.0139064 0.722884)
(0.762498 -0.0294188 0.646322)
(0.6895 -0.0149316 0.724132)
(0.0795385 0.0451487 0.995809)
(0.296378 0.0355868 0.954407)
(0.26564 0.0330222 0.963507)
(0.0863975 0.146178 0.985478)
(0.0157572 -0.0842822 0.996317)
(0.275325 -0.00233413 0.961348)
(0.667309 0.0208043 0.744491)
(0.713168 0.023629 0.700595)
(0.665916 0.0199963 0.745758)
(0.089627 0.0228808 0.995713)
(0.283032 0.0141413 0.959006)
(0.318387 0.0127378 0.947875)
(-0.186563 0.810465 -0.555284)
(0.562213 0.0287797 0.826491)
(0.082019 0.229683 0.969803)
(0.0566425 0.0737238 0.995669)
(0.189611 0.108264 0.975872)
(0.0301945 -0.0483786 0.998373)
(0.31652 0.0239511 0.948283)
(0.680589 -0.0225876 0.732317)
(0.722698 -0.0375226 0.690145)
(0.67919 -0.0236538 0.733581)
(0.126974 0.0696464 0.989458)
(0.308053 0.0370413 0.950648)
(0.342018 0.0393121 0.938871)
(-0.205524 0.777067 -0.594918)
(0.613049 -0.0530178 0.788264)
(0.00438528 0.00819842 0.999957)
(0.00349107 0.0070956 0.999969)
(-0.0221487 0.136518 0.99039)
(0.0195909 0.0234877 0.999532)
(0.00254834 0.00471778 0.999986)
(0.00280151 0.00572408 0.99998)
(0.104777 0.00317039 0.994491)
(0.181576 0.00828442 0.983342)
(0.108738 0.00323625 0.994065)
(0.0143242 0.00551329 0.999882)
(0.0831831 0.00946294 0.996489)
(0.0778235 0.00835895 0.996932)
(0.188198 0.00839837 0.982095)
(0.117475 0.0033146 0.99307)
(0.112953 0.00329125 0.993595)
(0.777852 0.0501679 0.626442)
(0.622805 0.0386851 0.78142)
(0.627353 0.038163 0.777799)
(0.475931 0.0250159 0.879127)
(0.324731 0.0146513 0.945693)
(0.466223 0.025193 0.884308)
(0.446825 0.0254052 0.89426)
(0.314426 0.0146358 0.949169)
(0.456514 0.0253224 0.889356)
(0.408797 0.0253017 0.912275)
(0.276842 0.0143024 0.960809)
(0.418148 0.025384 0.908024)
(0.782711 0.0528786 0.620135)
(0.618076 0.0391447 0.785143)
(0.613174 0.0395618 0.788956)
(0.285688 0.0144243 0.958214)
(0.437185 0.0254368 0.899012)
(0.427615 0.0254301 0.903603)
(0.0165125 0.00661223 0.999842)
(0.0843741 0.00898844 0.996394)
(0.0904904 0.00991517 0.995848)
(0.139068 0.00319839 0.990278)
(0.218829 0.00863295 0.975725)
(0.133074 0.00326441 0.991101)
(0.122316 0.0033212 0.992486)
(0.210508 0.00860419 0.977554)
(0.127508 0.00330017 0.991832)
(0.0101305 0.0137573 0.999854)
(0.0118584 0.0162227 0.999798)
(0.140343 0.0200866 0.989899)
(0.235531 0.0192879 0.971675)
(0.145515 0.0206962 0.98914)
(0.0229266 0.0146852 0.999629)
(0.099318 0.0180517 0.994892)
(0.0917725 0.014526 0.995674)
(0.243021 0.0195913 0.969823)
(0.156606 0.02193 0.987418)
(0.150929 0.0213155 0.988315)
(0.829024 -0.0205001 0.558837)
(0.712468 -0.00248924 0.7017)
(0.71014 -0.00335575 0.704053)
(0.558872 0.00645348 0.829229)
(0.40109 0.0161837 0.915896)
(0.554468 0.00717589 0.832174)
(0.545657 0.00856119 0.837965)
(0.392505 0.0164283 0.919603)
(0.550064 0.00787734 0.835085)
(0.527939 0.011038 0.84921)
(0.359476 0.0171084 0.932998)
(0.532391 0.0104484 0.846434)
(0.845913 -0.0194929 0.532965)
(0.714901 -0.00166135 0.699224)
(0.717442 -0.000844281 0.696618)
(0.367542 0.0169836 0.929852)
(0.541241 0.00921074 0.840817)
(0.536824 0.00983904 0.843637)
(0.0267571 0.0172091 0.999494)
(0.0995812 0.0157106 0.994905)
(0.107772 0.0190763 0.993993)
(0.182497 0.0245243 0.982901)
(0.275877 0.0206437 0.960971)
(0.175491 0.0238547 0.984192)
(0.162578 0.0225599 0.986438)
(0.267193 0.0203993 0.963427)
(0.168858 0.0231946 0.985367)
(0.0253665 0.00934316 0.999635)
(0.12321 0.0112798 0.992316)
(0.13448 0.0114866 0.99085)
(0.208104 0.00142653 0.978106)
(0.305412 0.00774323 0.952189)
(0.196802 0.0018048 0.980442)
(0.176885 0.0024012 0.984229)
(0.292403 0.00798131 0.956262)
(0.186435 0.00212053 0.982465)
(0.485601 0.0247844 0.873829)
(0.357797 0.0144865 0.933687)
(0.495215 0.024499 0.868425)
(0.767718 0.0445981 0.639235)
(0.650331 0.0340035 0.758889)
(0.647053 0.0348134 0.76165)
(0.36949 0.0143473 0.929124)
(0.514137 0.0237553 0.857379)
(0.504734 0.0241523 0.862937)
(0.0205909 0.0081085 0.999755)
(0.120516 0.011139 0.992649)
(0.110995 0.0107552 0.993763)
(0.145511 0.00311094 0.989352)
(0.246856 0.00855695 0.969014)
(0.152466 0.00298621 0.988304)
(0.168088 0.00263141 0.985769)
(0.257304 0.00846901 0.966293)
(0.159966 0.0028343 0.987118)
(0.549881 0.0216174 0.834963)
(0.419094 0.0133619 0.907845)
(0.541285 0.0222294 0.840545)
(0.76013 0.0406802 0.648496)
(0.653372 0.0331323 0.756312)
(0.656168 0.0322237 0.753926)
(0.406343 0.0136784 0.913618)
(0.523386 0.0233039 0.851777)
(0.532445 0.0227933 0.846158)
(0.0178339 0.0240705 0.999551)
(0.0147887 0.02011 0.999688)
(0.0404247 0.0250846 0.998868)
(0.1436 0.0211496 0.98941)
(0.15653 0.0239836 0.987382)
(0.257182 0.0307575 0.965873)
(0.35908 0.0219483 0.933049)
(0.24557 0.0298721 0.968919)
(0.224574 0.0282011 0.974049)
(0.347214 0.0218484 0.937531)
(0.234717 0.0290092 0.971631)
(0.563276 0.00569871 0.826249)
(0.427656 0.0152477 0.903813)
(0.567676 0.00492349 0.823238)
(0.80074 -0.0235127 0.598551)
(0.698328 -0.0088678 0.715723)
(0.700054 -0.00792184 0.714046)
(0.436769 0.0148567 0.899451)
(0.576455 0.00329819 0.817122)
(0.57207 0.00411366 0.820194)
(0.0333155 0.021126 0.999222)
(0.141359 0.0225864 0.989701)
(0.130078 0.0196474 0.991309)
(0.189928 0.0252201 0.981474)
(0.304062 0.0212764 0.952415)
(0.197798 0.025927 0.9799)
(0.215067 0.0274109 0.976214)
(0.314224 0.0214498 0.949107)
(0.206168 0.0266637 0.978153)
(0.593787 -0.00020086 0.804622)
(0.474327 0.0129721 0.880253)
(0.589506 0.000691616 0.807763)
(0.784058 -0.0258752 0.620147)
(0.696686 -0.00986337 0.717308)
(0.695121 -0.0108636 0.718811)
(0.464797 0.0134947 0.885315)
(0.58083 0.00244931 0.814021)
(0.585184 0.001576 0.810899)
(0.00654212 0.0100917 0.999928)
(0.00972829 0.0124529 0.999875)
(0.220397 0.00100794 0.97541)
(0.348534 0.00674882 0.937272)
(0.233811 0.000519525 0.972282)
(0.0355603 0.0114381 0.999302)
(0.198072 0.0124054 0.980109)
(0.177773 0.0128127 0.983988)
(0.364188 0.00631668 0.931304)
(0.264325 -0.000634627 0.964433)
(0.248409 -1.26363e-05 0.968655)
(0.732542 0.0290027 0.680103)
(0.667969 0.0250303 0.743768)
(0.668398 0.0239193 0.743419)
(0.604789 0.0150072 0.796244)
(0.520791 0.00907298 0.853636)
(0.599684 0.015951 0.800078)
(0.58772 0.0177909 0.808869)
(0.508984 0.00976541 0.860721)
(0.593975 0.0168843 0.804306)
(0.55818 0.0209442 0.829455)
(0.458113 0.0121259 0.888811)
(0.566157 0.0202262 0.824049)
(0.744312 0.0335018 0.666991)
(0.667198 0.0261026 0.744423)
(0.666102 0.027185 0.745365)
(0.471133 0.0116008 0.881986)
(0.580969 0.0186345 0.813712)
(0.573761 0.0194513 0.818792)
(0.0504535 0.0141131 0.998627)
(0.205366 0.0132944 0.978595)
(0.230572 0.012638 0.972973)
(0.341299 -0.00370724 0.939948)
(0.431132 0.00403996 0.90228)
(0.320174 -0.00284301 0.947354)
(0.281585 -0.00129744 0.959535)
(0.414064 0.00468398 0.910236)
(0.300231 -0.00205444 0.953864)
(0.024092 0.0318527 0.999202)
(0.0328036 0.0427913 0.998545)
(0.269656 0.0316985 0.962435)
(0.397258 0.0220894 0.917441)
(0.28299 0.032668 0.958566)
(0.0549648 0.0326652 0.997954)
(0.223355 0.0296554 0.974286)
(0.202038 0.0270322 0.979005)
(0.410767 0.0220695 0.911473)
(0.312532 0.0347652 0.949271)
(0.297285 0.0337031 0.954194)
(0.741989 -0.0333912 0.66958)
(0.685675 -0.0180889 0.727683)
(0.684415 -0.0192199 0.728839)
(0.624287 -0.00824392 0.781152)
(0.549572 0.00739989 0.835413)
(0.621059 -0.0071642 0.783731)
(0.613974 -0.0050311 0.78931)
(0.540735 0.00824491 0.841153)
(0.617614 -0.00609886 0.786457)
(0.598016 -0.00113928 0.801483)
(0.503174 0.0111994 0.864113)
(0.602166 -0.00208258 0.798368)
(0.757258 -0.0303845 0.652409)
(0.686933 -0.0170527 0.726521)
(0.688203 -0.016 0.725342)
(0.512761 0.0105107 0.858467)
(0.610163 -0.00404396 0.792265)
(0.606227 -0.00306184 0.795286)
(0.0752521 0.0430639 0.996234)
(0.230579 0.0297427 0.972599)
(0.256343 0.0323424 0.966045)
(0.382783 0.0391933 0.923007)
(0.466931 0.021538 0.884032)
(0.364103 0.0381283 0.930578)
(0.328824 0.0358733 0.94371)
(0.452797 0.0217494 0.891348)
(0.346028 0.036975 0.937495)
(0.154062 0.109904 0.98193)
(0.368607 0.0134872 0.929487)
(0.322641 0.0011351 0.946521)
(0.0421258 -0.129077 0.990739)
(0.371119 -0.0178634 0.928413)
(0.263516 -0.0402693 0.963814)
(0.424339 -0.00619251 0.905482)
(0.480181 -0.00304077 0.877164)
(0.399078 -0.00750022 0.916886)
(0.609193 0.0140791 0.792897)
(0.551408 0.00691139 0.834207)
(0.61273 0.0132503 0.790181)
(0.707003 0.0228314 0.706842)
(0.659502 0.0194473 0.751451)
(0.663614 0.0194995 0.747821)
(0.558826 0.00632822 0.829261)
(0.615052 0.0121701 0.788393)
(0.615021 0.0126015 0.78841)
(0.0981856 0.0255794 0.994839)
(0.360466 0.0116726 0.932699)
(0.331861 0.014521 0.943217)
(0.363063 -0.00453604 0.931754)
(0.479508 0.00192506 0.877536)
(0.384751 -0.00529031 0.923005)
(0.420245 -0.00610415 0.90739)
(0.492518 0.00131496 0.870301)
(0.404764 -0.00579397 0.914403)
(0.176698 -0.677689 0.713803)
(0.447278 -0.00192381 0.894393)
(0.509512 0.0143181 0.860344)
(0.6689 0.0201319 0.74308)
(0.651345 0.0203116 0.75851)
(0.631882 0.0186279 0.774841)
(0.541549 0.00291697 0.840664)
(0.610011 0.0123864 0.792296)
(0.590779 0.00982414 0.806773)
(0.111429 0.211393 0.971029)
(0.0623648 0.0814089 0.994728)
(0.224846 0.125613 0.966264)
(0.390074 0.044085 0.919728)
(0.355528 0.0313678 0.934139)
(0.05366 -0.0713931 0.996004)
(0.440282 -0.0148326 0.897737)
(0.347149 0.014335 0.937701)
(0.456566 0.0390228 0.888833)
(0.516674 0.012493 0.856091)
(0.442054 0.03304 0.89638)
(0.627264 -0.00940934 0.77875)
(0.573322 0.00435762 0.819318)
(0.629905 -0.0105276 0.776601)
(0.717762 -0.038484 0.695224)
(0.675049 -0.0253848 0.737336)
(0.677523 -0.0247704 0.735084)
(0.579694 0.00301681 0.814828)
(0.632984 -0.0126621 0.774061)
(0.632035 -0.0117487 0.774851)
(0.13838 0.0753898 0.987506)
(0.382216 0.041924 0.923122)
(0.354982 0.0416506 0.933945)
(0.401823 0.0401671 0.914836)
(0.506813 0.0201381 0.861821)
(0.420388 0.040931 0.906421)
(0.451045 0.0408915 0.891564)
(0.517922 0.0192127 0.855212)
(0.43753 0.0413327 0.898253)
(0.191944 -0.679257 0.708355)
(0.508128 -0.0291099 0.86079)
(0.56423 -0.0419668 0.82455)
(0.692068 -0.0399764 0.720725)
(0.670283 -0.0264727 0.741634)
(0.658215 -0.0262298 0.752373)
(0.573604 -0.00194243 0.81913)
(0.630935 -0.0139787 0.77571)
(0.619422 -0.0144094 0.784926)
(0.00495797 0.00874215 0.999949)
(0.00320396 0.00662853 0.999973)
(-0.499518 0.0998069 0.860535)
(0.0151911 0.0173371 0.999734)
(0.00246477 0.00425501 0.999988)
(0.00299823 0.00617419 0.999976)
(0.024299 -0.00296936 0.9997)
(0.0135702 0.005017 0.999895)
(0.01159 -0.0020601 0.999931)
(0.0325377 0.00515762 0.999457)
(0.0313262 -0.00351692 0.999503)
(0.0176836 0.00710038 0.999818)
(0.0150335 -0.00229972 0.999884)
(0.0437654 0.00700032 0.999017)
(0.0147016 -0.0022132 0.999889)
(0.0427484 0.0068754 0.999062)
(0.0320739 -0.00369898 0.999479)
(0.00943802 0.0127804 0.999874)
(0.0127417 0.0174025 0.999767)
(0.0507995 0.0207785 0.998493)
(0.0214905 0.0136767 0.999676)
(0.0428197 0.0146224 0.998976)
(0.0312007 0.0173091 0.999363)
(0.0671475 0.027216 0.997372)
(0.0286924 0.0184081 0.999419)
(0.0579444 0.0195566 0.998128)
(0.0425775 0.0236988 0.998812)
(0.0566172 0.0191575 0.998212)
(0.0416139 0.0231267 0.998866)
(0.068679 0.02789 0.997249)
(0.0499928 -0.0066443 0.998727)
(0.0280934 0.00994772 0.999556)
(0.0248049 -0.004519 0.999682)
(0.0692929 0.00898916 0.997556)
(0.0238694 -0.00425471 0.999706)
(0.0669666 0.0088586 0.997716)
(0.0518544 -0.00708089 0.99863)
(0.0336994 -0.00392034 0.999424)
(0.0190324 0.00759734 0.99979)
(0.0154208 -0.00232624 0.999878)
(0.0448615 0.00712357 0.998968)
(0.0157953 -0.00242705 0.999872)
(0.0328723 -0.00372938 0.999453)
(0.045973 0.0072511 0.998916)
(0.0195404 0.0262006 0.999466)
(0.0137013 0.018703 0.999731)
(0.100609 0.0397992 0.99413)
(0.0443688 0.0271918 0.998645)
(0.0893018 0.028005 0.995611)
(0.0649947 0.0358123 0.997243)
(0.0865191 0.0273029 0.995876)
(0.0630215 0.0347229 0.997408)
(0.103658 0.0409962 0.993768)
(0.0719272 0.0291236 0.996985)
(0.0308777 0.0197106 0.999329)
(0.0593565 0.0199576 0.998037)
(0.043622 0.0242145 0.998755)
(0.070289 0.0284086 0.997122)
(0.0607849 0.0203805 0.997943)
(0.0446529 0.0248205 0.998694)
(0.0056512 0.00937067 0.99994)
(0.012002 0.0142632 0.999826)
(0.0559858 -0.00785528 0.998401)
(0.0258362 -0.00475305 0.999655)
(0.0717976 0.00911365 0.997378)
(0.0314387 0.0106419 0.999449)
(0.053857 -0.00738804 0.998521)
(0.0269126 -0.00507634 0.999625)
(0.0744344 0.0092628 0.997183)
(0.106486 -0.0175851 0.994159)
(0.0608256 0.0160956 0.998019)
(0.0580228 -0.013668 0.998222)
(0.143161 0.0126453 0.989619)
(0.0541055 -0.0125732 0.998456)
(0.134986 0.0122033 0.990772)
(0.113446 -0.0189758 0.993363)
(0.0215938 0.0287684 0.999353)
(0.0389698 0.0505549 0.997961)
(0.110293 0.0433932 0.992951)
(0.0923034 0.0287294 0.995316)
(0.0671451 0.0368806 0.997061)
(0.0491678 0.0296792 0.998349)
(0.106901 0.0420707 0.993379)
(0.0954176 0.0295178 0.995)
(0.0693458 0.0381085 0.996865)
(0.18289 0.0698025 0.980652)
(0.0891477 0.0501467 0.994755)
(0.173091 0.048424 0.983715)
(0.126913 0.0693685 0.989485)
(0.164136 0.0463102 0.98535)
(0.119888 0.0655136 0.990624)
(0.192125 0.0731971 0.978637)
(-0.170803 -0.020075 0.985101)
(-0.181691 0.0883357 0.97938)
(0.0373869 0.278989 0.959566)
(-0.0149839 -0.0112841 0.999824)
(-0.212043 0.0985201 0.972282)
(-0.0869206 -0.0186572 0.996041)
(-0.0539695 0.010474 0.998488)
(0.129608 -0.0218836 0.991324)
(0.0758449 0.019342 0.996932)
(0.062431 -0.0148228 0.997939)
(0.152142 0.0131034 0.988272)
(0.0673477 -0.0161587 0.997599)
(0.121127 -0.0203494 0.992428)
(0.161967 0.0137993 0.9867)
(-0.343335 0.211521 0.915085)
(0.0481632 0.0622716 0.996896)
(-0.00932465 0.0411615 0.999109)
(-0.0776328 -0.01014 0.99693)
(0.0141309 -0.0748155 0.997097)
(0.113224 -0.31432 0.942541)
(-0.0245245 -0.0103821 0.999645)
(-0.0427271 -0.0168352 0.998945)
(0.00873028 -0.0221537 0.999716)
(0.212823 0.0805062 0.973769)
(0.109173 0.0601935 0.992199)
(0.182974 0.0506768 0.981811)
(0.134826 0.0735463 0.988136)
(0.202118 0.0766184 0.976359)
(0.193512 0.0532335 0.979653)
(0.143352 0.0784693 0.986556)
(0.559185 -0.159538 0.813548)
(-0.275576 0.783829 -0.556479)
(0.52221 -0.121316 0.844144)
(0.340834 -0.559241 0.7557)
(0.00409009 0.00788535 0.999961)
(0.00370308 0.00739514 0.999966)
(0.0225538 0.0655102 0.997597)
(0.0228397 0.0316544 0.999238)
(0.00260243 0.00500557 0.999984)
(0.00270843 0.00544259 0.999982)
(0.0264778 -0.00299578 0.999645)
(0.0148798 0.00582916 0.999872)
(0.0127192 -0.00202916 0.999917)
(0.0366061 0.00598122 0.999312)
(0.012509 -0.00199737 0.99992)
(0.0269824 -0.00311855 0.999631)
(0.0358755 0.00585271 0.999339)
(0.0280792 -0.00321603 0.999601)
(0.0158196 0.00630323 0.999855)
(0.0129662 -0.00201512 0.999914)
(0.0374012 0.00611019 0.999282)
(0.0132008 -0.00206475 0.999911)
(0.0275231 -0.00308902 0.999616)
(0.0381924 0.00623732 0.999251)
(0.0105897 0.0144276 0.99984)
(0.0113362 0.0154897 0.999816)
(0.0564454 0.0230045 0.998141)
(0.0239308 0.0153798 0.999595)
(0.0484945 0.0166073 0.998685)
(0.0355672 0.0198033 0.999171)
(0.0474835 0.0162703 0.99874)
(0.034812 0.0193352 0.999207)
(0.0576492 0.0235682 0.998059)
(0.0601804 0.0245607 0.997885)
(0.0255897 0.0164556 0.999537)
(0.0495661 0.0169446 0.998627)
(0.0363874 0.02021 0.999133)
(0.0506397 0.0172937 0.998567)
(0.0371836 0.0206941 0.999094)
(0.0589114 0.0239706 0.997975)
(0.0422505 -0.00531749 0.999093)
(0.0238103 0.00897916 0.999676)
(0.0193431 -0.00312724 0.999808)
(0.0555259 0.00810517 0.998424)
(0.0199562 -0.00331406 0.999795)
(0.0409678 -0.00501598 0.999148)
(0.0571727 0.00822406 0.99833)
(0.0385904 -0.00460876 0.999244)
(0.0217668 0.008443 0.999727)
(0.0187298 -0.00302019 0.99982)
(0.0539311 0.00798875 0.998513)
(0.0181709 -0.00287028 0.999831)
(0.0397404 -0.00488272 0.999198)
(0.0524455 0.00786844 0.998593)
(0.0168739 0.0228329 0.999597)
(0.0155535 0.021124 0.999656)
(0.0876075 0.0350257 0.995539)
(0.0381695 0.0238339 0.998987)
(0.072705 0.0236824 0.997072)
(0.0532229 0.0294281 0.998149)
(0.0747317 0.0242173 0.99691)
(0.0546587 0.0302378 0.998047)
(0.0853505 0.0341094 0.995767)
(0.0811007 0.0325392 0.996175)
(0.0350921 0.0221514 0.999139)
(0.0707308 0.023173 0.997226)
(0.0518001 0.0287254 0.998244)
(0.068893 0.0226713 0.997366)
(0.0504968 0.0279785 0.998332)
(0.0831649 0.0333984 0.995976)
(0.00725111 0.0105994 0.999918)
(0.00862305 0.0116356 0.999895)
(0.0693075 -0.0103695 0.997541)
(0.0388968 0.0120342 0.999171)
(0.0356296 -0.00745848 0.999337)
(0.0947835 0.0102407 0.995445)
(0.0338765 -0.00694252 0.999402)
(0.0726563 -0.0111166 0.997295)
(0.0907221 0.010065 0.995825)
(0.080263 -0.0125992 0.996694)
(0.0451934 0.0131759 0.998891)
(0.0375697 -0.00796878 0.999262)
(0.0992002 0.0104184 0.995013)
(0.0396722 -0.00859033 0.999176)
(0.0763021 -0.0117682 0.997015)
(0.103956 0.010654 0.994525)
(0.0260158 0.0342966 0.999073)
(0.0297776 0.0389302 0.998798)
(0.130687 0.0508248 0.99012)
(0.0595136 0.0350594 0.997612)
(0.119036 0.0353604 0.99226)
(0.0862585 0.0472085 0.995154)
(0.114358 0.0342404 0.992849)
(0.0828749 0.0453773 0.995526)
(0.135684 0.0527072 0.989349)
(0.146789 0.0566708 0.987543)
(0.0682042 0.0394099 0.996893)
(0.124151 0.0365514 0.99159)
(0.089999 0.0491019 0.994731)
(0.129553 0.0378671 0.990849)
(0.0939212 0.0512813 0.994258)
(0.141066 0.0545271 0.988498)
(0.204027 -0.0244113 0.978661)
(0.159493 0.0618985 0.985257)
(0.115987 -0.022795 0.992989)
(0.247351 0.0266971 0.968558)
(0.117642 -0.0187418 0.992879)
(0.2028 -0.0278626 0.978824)
(0.252424 0.0307589 0.967128)
(0.132815 -0.155176 0.978918)
(0.0852572 -0.233782 0.968544)
(0.20708 -0.14773 0.967106)
(0.0788324 -0.303248 0.949645)
(0.171183 -0.146717 0.974254)
(0.176418 -0.11388 0.977705)
(0.0597984 -0.258675 0.964112)
(0.183482 -0.0289252 0.982597)
(0.11918 0.0335523 0.992306)
(0.109557 -0.0237658 0.993696)
(0.236483 0.0235452 0.97135)
(0.101588 -0.0232428 0.994555)
(0.194512 -0.0290201 0.980471)
(0.223509 0.0207929 0.97448)
(0.242296 -0.100158 0.965019)
(0.141543 -0.435109 0.889183)
(0.248258 -0.125296 0.960556)
(0.096405 -0.353209 0.930564)
(0.209641 -0.125577 0.969681)
(0.276656 -0.143031 0.950265)
(0.114578 -0.396206 0.910985)
(0.107081 0.156317 0.981885)
(0.0762038 0.101916 0.99187)
(0.306546 0.113171 0.945104)
(0.21617 0.116767 0.969348)
(0.281962 0.0746898 0.956514)
(0.230419 0.13304 0.963954)
(0.28837 0.0754438 0.954542)
(0.241237 0.142917 0.959885)
(0.300079 0.111747 0.947346)
(0.243586 0.00963793 0.969831)
(0.0974379 -0.158425 0.982551)
(0.240567 -0.112082 0.96414)
(0.124878 -0.034383 0.991576)
(0.208571 -0.09248 0.973625)
(0.281538 -0.0368116 0.958844)
(0.103245 0.0037963 0.994649)
(0.276087 0.10365 0.955528)
(0.164782 0.0899671 0.982218)
(0.270325 0.0724878 0.960036)
(0.215987 0.123468 0.968558)
(0.257291 0.0692825 0.963847)
(0.201579 0.113877 0.97283)
(0.28897 0.108466 0.951174)
(0.357202 -0.0881379 0.929859)
(0.158653 -0.400456 0.902477)
(0.283257 -0.105693 0.953202)
(0.150225 -0.118699 0.9815)
(0.310278 -0.123522 0.942587)
(0.32373 -0.0434343 0.945152)
(0.174805 -0.203239 0.963399)
(0.0047454 0.00858176 0.999952)
(0.0033006 0.00677391 0.999972)
(-0.339579 0.225205 0.913219)
(0.0164508 0.0187296 0.999689)
(0.00250276 0.00440375 0.999987)
(0.00291811 0.00603142 0.999978)
(0.0615951 -0.0106505 0.998044)
(0.0620274 -0.00413859 0.998066)
(0.024703 -0.00290564 0.999691)
(0.0138155 0.00517752 0.999891)
(0.0119242 -0.00203019 0.999927)
(0.0337937 0.00543795 0.999414)
(0.0117754 -0.00201195 0.999929)
(0.0331741 0.005297 0.999436)
(0.025109 -0.00299881 0.99968)
(0.0594351 -0.0104707 0.998177)
(0.628307 0.0322282 0.777298)
(0.526823 0.0227818 0.84967)
(0.623694 0.0458559 0.780323)
(0.534167 0.0259034 0.844982)
(0.704004 0.0397959 0.70908)
(0.70487 0.0447841 0.707922)
(0.702126 0.0444382 0.710664)
(0.701064 0.0396546 0.711995)
(0.630045 0.0457696 0.775208)
(0.54363 0.0262928 0.838913)
(0.63431 0.0328064 0.772382)
(0.536666 0.0228943 0.843484)
(0.587517 0.0460514 0.8079)
(0.484698 0.0238743 0.874355)
(0.475789 0.0219779 0.879285)
(0.593712 0.0289459 0.804157)
(0.679636 0.0422605 0.732331)
(0.67718 0.0390013 0.734783)
(0.586086 0.0282575 0.809756)
(0.465512 0.0218108 0.884773)
(0.579581 0.046014 0.813615)
(0.474698 0.0234528 0.879836)
(0.681808 0.0391105 0.730485)
(0.684042 0.0426441 0.728195)
(0.0753208 -0.00577745 0.997143)
(0.0756708 -0.0120531 0.99706)
(0.0306054 -0.00350651 0.999525)
(0.0172722 0.00694129 0.999827)
(0.0140524 -0.00212431 0.999899)
(0.0408194 0.00661862 0.999145)
(0.0143426 -0.00220073 0.999895)
(0.0417474 0.00674686 0.999105)
(0.0299284 -0.00334487 0.999546)
(0.0793317 -0.0124436 0.996771)
(0.0787775 -0.00623724 0.996873)
(0.00966911 0.0130897 0.999868)
(0.0124347 0.0170126 0.999778)
(0.121066 0.0254692 0.992318)
(0.118048 0.0216848 0.992771)
(0.0518855 0.0211476 0.998429)
(0.0219499 0.0140032 0.999661)
(0.0446018 0.0152731 0.998888)
(0.0325878 0.0181145 0.999305)
(0.0437067 0.014945 0.998933)
(0.0318997 0.0176748 0.999335)
(0.0529756 0.021682 0.99836)
(0.113647 0.0208378 0.993303)
(0.116635 0.0245315 0.992872)
(0.776581 -0.0196122 0.629712)
(0.71282 -0.0125564 0.701235)
(0.78021 -0.0268578 0.62494)
(0.710931 -0.0251264 0.702813)
(0.818189 -0.0285648 0.57424)
(0.813574 -0.0402467 0.580067)
(0.820653 -0.0392303 0.570079)
(0.8254 -0.0262403 0.563938)
(0.773749 -0.0283382 0.632858)
(0.706875 -0.0252846 0.706886)
(0.770346 -0.0210057 0.63728)
(0.708554 -0.013951 0.705519)
(0.814982 -0.0165939 0.579249)
(0.735248 -0.0242381 0.677364)
(0.738156 -0.00462079 0.674615)
(0.810257 -0.0110331 0.585971)
(0.863459 -0.0303072 0.503507)
(0.868673 -0.00712159 0.495335)
(0.817348 -0.00879573 0.576078)
(0.744006 -0.00270515 0.668168)
(0.82229 -0.0138013 0.568902)
(0.740873 -0.0240513 0.671215)
(0.861613 -0.0110442 0.507446)
(0.8564 -0.032205 0.515308)
(0.143155 0.0264553 0.989347)
(0.146419 0.0306523 0.988748)
(0.0656707 0.0267096 0.997484)
(0.0280385 0.0180007 0.999445)
(0.054115 0.0183803 0.998366)
(0.0397747 0.022096 0.998964)
(0.0553403 0.0187627 0.998291)
(0.0406737 0.0226328 0.998916)
(0.0642452 0.026067 0.997594)
(0.152294 0.0318303 0.987823)
(0.14894 0.0275451 0.988463)
(0.114628 -0.0112745 0.993344)
(0.117302 -0.0169946 0.992951)
(0.0482399 -0.00640161 0.998815)
(0.0271249 0.00975636 0.999584)
(0.0221546 -0.00380256 0.999747)