/*--------------------------------*- C++ -*----------------------------------*\
| =========                 |                                                 |
| \\      /  F ield         | OpenFOAM: The Open Source CFD Toolbox           |
|  \\    /   O peration     | Version:  2012                                  |
|   \\  /    A nd           | Website:  www.openfoam.com                      |
|    \\/     M anipulation  |                                                 |
\*---------------------------------------------------------------------------*/
FoamFile
{
    version     2.0;
    format      ascii;
    class       volScalarField;
    location    "0.104/fluid";
    object      p;
}
// * * * * * * * * * * * * * * * * * * * * * * * * * * * * * * * * * * * * * //

dimensions      [0 2 -2 0 0 0 0];


internalField   nonuniform List<scalar> 
16422
(
0.0547948
0.0540652
0.0540482
0.0537857
0.0538064
0.0539906
0.0543376
0.0549139
0.0558434
0.0573947
0.0602097
0.065996
0.0814248
0.133388
0.291868
0.0547255
0.0540462
0.0540012
0.0537183
0.0537212
0.0538773
0.0541797
0.0546824
0.0554803
0.0567188
0.0586301
0.0615711
0.0656909
0.0661401
0.0247656
0.054762
0.053999
0.0539051
0.0535807
0.053537
0.0536305
0.0538414
0.0542018
0.0547632
0.0555811
0.0566677
0.0578019
0.0576609
0.0502584
0.0177444
0.0547884
0.0539466
0.0537907
0.0534065
0.0532944
0.0533015
0.0533914
0.0535721
0.0538653
0.0542965
0.054922
0.0560456
0.0591894
0.071968
0.123963
0.0547156
0.0539612
0.0539023
0.0535738
0.0534961
0.0535226
0.053618
0.0537946
0.0540919
0.0546043
0.055665
0.0582674
0.0666978
0.100329
0.228869
0.0546531
0.053944
0.053855
0.0535089
0.0534153
0.0534187
0.0534779
0.0535982
0.053797
0.0540975
0.054535
0.0551886
0.0559853
0.05372
0.0228935
0.0547048
0.0539011
0.05376
0.0533746
0.0532409
0.053193
0.0531796
0.0531895
0.0532137
0.0532165
0.0530873
0.0524769
0.0501315
0.0415982
0.0160987
0.0547435
0.0538535
0.053648
0.0532059
0.0530124
0.0528933
0.0527843
0.0526562
0.0524829
0.052213
0.0517653
0.0510641
0.0501073
0.04836
0.0337752
0.0546531
0.0538756
0.0537778
0.0533898
0.0532234
0.0531095
0.0529819
0.0528086
0.0525476
0.0521315
0.0515035
0.0507341
0.0500681
0.0488244
0.0185594
0.0545973
0.0538597
0.05373
0.0533266
0.0531463
0.0530145
0.0528593
0.0526418
0.0523107
0.0517674
0.0508314
0.0491506
0.045843
0.0377405
0.0136057
0.0546609
0.0538196
0.0536356
0.0531954
0.052981
0.0528073
0.052595
0.0522942
0.0518404
0.0511097
0.0498608
0.0475868
0.0430992
0.0338034
0.0165892
0.0547097
0.0537752
0.0535259
0.0530321
0.0527653
0.052534
0.0522476
0.0518435
0.0512506
0.0503464
0.0489171
0.0465941
0.0426466
0.0354396
0.021888
0.0546207
0.053828
0.0536985
0.0532689
0.0530415
0.0528357
0.0525614
0.052155
0.0515213
0.0504862
0.0487591
0.0458757
0.0408432
0.0314904
0.0121992
0.0545684
0.0538125
0.0536501
0.0532066
0.0529677
0.0527456
0.0524484
0.0520066
0.0513217
0.0502163
0.0483723
0.045224
0.0397447
0.030252
0.0148701
0.054638
0.0537728
0.0535553
0.0530771
0.0528075
0.0525503
0.0522061
0.0516979
0.0509246
0.0497086
0.047731
0.0444447
0.0389361
0.0300892
0.0178785
0.0546916
0.0537304
0.0534465
0.0529167
0.0526001
0.0522942
0.051889
0.0513
0.0504276
0.0491056
0.0470559
0.0438378
0.0387832
0.0311367
0.0208723
0.292992
0.0365879
-0.165345
0.128154
-0.156382
0.0381985
-0.154849
0.263459
0.0349926
-0.125879
-0.145038
0.0472294
-0.0282816
0.0308483
-0.108659
0.0483308
-0.0494924
0.0165927
-0.0258499
0.0136823
-0.0408915
0.0644849
-0.14983
0.0756895
0.113049
-0.0305741
0.0649594
-0.124667
0.0163931
-0.0176726
0.0350869
-0.0235892
0.107138
0.0538925
0.0529402
0.134278
0.107051
0.116629
-0.0122876
0.0229244
0.00619253
0.339364
-0.664539
-0.0181846
0.123603
0.131397
0.11911
0.00443719
-0.00676544
0.339522
-0.660501
-0.0154576
-0.626698
0.340271
-0.00293971
0.33003
-0.561985
-0.620189
0.00759635
0.339828
0.011605
-0.0910038
0.0174712
0.0652028
0.0331131
0.0492987
-0.0705118
0.00359171
0.0115565
-0.0134022
0.325245
-0.547127
-0.594148
0.0144466
-0.302701
-0.0559318
0.137063
0.246834
0.0717592
0.0570204
0.0219208
-0.103241
0.00899579
-0.0505828
0.244324
0.0696812
0.0568489
0.112203
0.215306
0.0597533
0.0494133
0.149892
0.304005
0.141931
0.288593
0.149009
0.139661
0.302999
-0.0932831
0.0137502
-0.0375808
0.0245435
-0.0720376
0.0144238
-0.0229583
0.188485
0.0551571
0.043947
0.0587025
0.0579076
0.0410789
0.0257534
0.0868063
0.256495
0.106775
0.160139
0.129646
0.0754167
0.0365659
-0.0614749
0.0145545
-0.0175219
0.0167126
-0.018596
0.0152619
-0.00331277
-0.100534
0.0112956
-0.0290193
0.0164779
0.000414094
0.0150456
0.00239081
0.145547
0.292986
0.303817
0.142677
0.142493
0.147263
-0.0800379
-0.166116
-0.438944
-0.0693757
-0.0697737
-0.076874
-0.065249
-0.432776
-0.0621658
-0.148716
-0.0706263
-0.411223
-0.058423
0.14908
0.280876
0.277984
0.124507
0.134609
0.143798
0.300765
-0.0586246
-0.137987
-0.363304
-0.0469197
-0.402359
-0.0525123
-0.0524561
-0.0469364
-0.345145
-0.0401979
-0.083211
-0.0443766
-0.210293
-0.0337966
-0.0187056
-0.347553
-0.0113875
-0.0354959
-0.175706
-0.00571321
-0.00185116
-0.106764
0.227289
0.338258
0.225737
-0.101358
-0.555439
-0.674611
-0.307062
-0.313743
-0.545722
-0.556863
-0.677445
-0.315141
-0.108212
0.337998
0.225219
-0.244926
0.0895019
-0.297546
-0.349261
-0.371645
-0.272468
-0.304574
-0.377789
-0.237666
0.116778
0.0962463
-0.212534
-0.0919487
0.227945
0.340315
0.229437
-0.0995663
-0.530525
-0.304631
-0.64772
-0.544326
-0.296001
-0.528687
-0.282618
-0.64279
-0.293329
-0.508846
-0.0893733
0.23108
0.340289
0.230167
-0.0785341
-0.0483627
0.229358
0.336684
0.23295
-0.0130926
-0.46888
-0.590936
-0.237499
-0.259069
-0.412585
-0.473928
-0.278983
-0.599679
-0.506039
-0.264161
-0.0557843
0.231952
0.338061
-0.0743823
0.231873
-0.16384
0.0895816
0.126945
-0.11845
-0.22863
-0.339633
-0.296788
-0.263008
-0.17393
0.122496
0.128927
-0.203399
-0.217328
-0.209938
-0.283825
-0.157437
0.0440831
-0.103217
-0.151085
-0.128801
0.0698892
0.230056
0.279948
0.201498
0.000730578
-0.293769
-0.229184
-0.479106
-0.4023
-0.189651
-0.809827
-0.910598
-0.805716
-0.267807
-0.155064
-0.439617
-0.751666
-0.176199
-0.408485
0.09477
-0.0376861
0.239996
-0.920076
0.190768
-0.393756
0.0146621
0.0899303
0.0228803
0.0291936
0.0364303
0.0165296
0.0549703
-0.0373609
-0.059752
-0.0416769
-0.0106934
-0.0944205
-0.0287517
-0.0139192
-0.252905
-0.0220986
0.0711425
-0.1615
-0.251086
-0.0203827
0.0745212
-0.155322
0.0723517
-0.158629
-0.244929
-0.230828
-0.00964267
-0.136898
0.0838462
0.0807982
-0.142096
-0.218795
-0.23411
-0.012566
0.0762309
-0.151197
0.0790006
-0.242562
-0.146899
-0.193849
-0.130483
0.000534879
0.0859428
-0.213699
0.0899084
-0.123178
-0.184797
0.00543348
0.0960372
-0.104232
0.0920928
-0.114212
-0.148609
-0.0408968
0.0145092
-0.0964264
-0.000907289
0.0765953
-0.0669019
-0.240017
-0.763728
-0.696308
-0.816564
-0.0649849
0.0134529
0.0969484
-0.0909606
0.0967184
-0.130254
-0.076328
-0.31486
-0.327065
-0.225879
-0.21939
-0.311283
-0.297288
-0.313446
-0.123207
-0.231374
-0.169054
-0.18349
-0.178457
-0.125789
-0.24796
-0.0834331
-0.209063
-0.0781587
-0.137741
-0.129603
-0.150938
-0.328047
0.349403
0.190534
-0.107831
0.189909
0.349912
0.324822
0.334575
0.325485
0.334346
0.349554
-0.107131
0.193211
0.1906
0.351352
0.324521
0.333352
0.324088
0.333981
-1.04131
-0.616259
-0.548005
-1.04731
-0.613872
-1.14065
-1.48004
-1.48765
-1.13395
-1.14277
-1.49831
-1.14899
-1.49097
-1.03939
-0.54779
-0.60748
-0.61099
-1.03337
-1.05358
-0.557594
-0.618807
-0.621764
-1.04903
-1.15605
-1.50109
-1.15094
-1.50657
0.347543
-0.113772
0.1894
0.186791
0.349486
0.322959
0.333152
0.323753
0.332863
0.351402
0.198085
-0.0986484
0.195257
0.353191
0.326137
0.334735
0.325782
0.335179
0.351255
-0.0996171
0.194585
0.35175
0.194282
0.326457
0.335553
0.327009
0.335518
-1.02072
-0.534807
-0.592332
-0.596805
-1.01282
-1.12325
-1.47648
-1.46694
-1.13138
-1.12046
-1.45287
-1.46273
-1.11174
-1.02326
-0.535168
-0.604061
-1.03105
-0.60068
-0.999779
-0.58787
-0.516945
-0.583182
-1.00986
-1.09426
-1.4184
-1.4307
-1.08259
-1.09787
-1.44835
-1.43633
-1.10848
-0.996463
-0.516736
-0.571914
-0.577926
-0.985705
0.353237
0.200057
-0.0877567
0.200265
0.353715
0.327713
0.335549
0.32789
0.335999
0.353192
-0.0865859
0.204723
0.201484
0.354821
0.327479
0.335691
0.327321
0.335775
0.359501
0.222062
-0.0346236
0.226207
0.358283
0.325812
0.326035
0.323759
0.331147
0.358454
-0.0306597
0.237958
0.230413
0.361558
0.326336
0.333724
0.32765
0.331161
-0.92283
-0.532088
-0.442431
-0.942585
-0.520418
-1.00975
-1.32771
-1.34505
-0.984239
-1.01686
-1.37056
-1.03719
-1.35401
-0.915896
-0.441587
-0.492752
-0.507523
-0.890776
-0.963502
-0.488687
-0.541795
-0.550617
-0.948299
-1.06407
-1.41264
-1.07825
-1.39827
-0.968108
-0.48914
-0.56558
-0.981692
-0.558478
-1.05919
-1.37686
-1.04317
-1.39163
0.35511
-0.0669171
0.21601
0.21149
0.356887
0.328047
0.335642
0.328174
0.334963
0.35542
-0.0689476
0.207903
0.355577
0.209339
0.328135
0.333569
0.327527
0.335041
0.370381
0.270002
0.0433043
0.265765
0.365041
0.315756
0.326425
0.322528
0.314788
0.372032
0.0326363
0.250299
0.364977
0.259245
0.314349
0.266843
0.289513
0.315268
-0.827743
-0.3548
-0.393874
-0.427544
-0.764048
-0.935215
-1.31878
-1.29563
-0.973744
-0.918503
-1.21887
-1.27352
-0.852299
-0.843503
-0.359632
-0.475241
-0.880505
-0.453042
-0.70384
-0.876757
-0.785405
-0.812401
-0.97563
-0.888306
-0.931389
-0.960183
-0.890283
-0.580925
-0.353637
-0.24216
-0.28103
-0.7275
-0.53523
-0.618375
-0.685105
-0.497483
-0.885626
-0.654261
-1.17806
-1.00706
-0.811902
-0.478011
-0.127802
-0.267743
-0.626343
-0.384356
-0.216621
0.219068
0.266097
0.0238908
0.215054
0.362651
-0.101278
-0.433993
-0.928795
-0.435995
-0.617754
0.11811
-0.0366191
-0.18096
-0.750466
-0.307414
-0.0129649
0.0567429
0.263926
0.274786
0.00317285
-0.0128768
0.0278202
-0.0139948
0.0163949
-0.00074926
0.0213646
0.00482772
-0.268041
-0.167678
-0.120735
-0.265231
-0.131534
-0.27937
-0.252999
-0.211273
-0.109975
-0.248416
-0.128038
-0.0962523
-0.223092
-0.236181
-0.158714
-0.0496808
-0.0576863
-0.017203
-0.0508484
-0.0541891
-0.0142151
-0.0336872
-0.0922435
-0.01941
-0.00310916
-0.039036
-0.00562357
-0.0319299
-0.0535078
-0.000613549
-0.0125669
-0.00142744
-0.0142824
-0.0216286
0.000486255
0.330222
0.324385
0.32165
0.339401
0.322065
0.330333
0.324138
-0.902092
-1.05383
-0.667781
-0.58865
-0.590437
-1.05826
-0.898294
-0.27967
-0.176092
-0.141056
-0.289632
-0.174912
-0.0696761
-0.00437596
0.0216219
-0.0797619
0.00945958
-0.160733
-0.186873
-0.0119089
-0.0892668
-0.00132407
0.330998
0.324483
0.321857
0.340229
0.322862
0.330445
0.324922
-0.889075
-1.04889
-0.584945
-0.656079
-0.580006
-1.04371
-0.893814
-0.861342
-0.554431
-0.631969
-1.00515
-0.558102
-1.01256
-0.854876
0.331252
0.322294
0.340673
0.324588
0.323166
0.330916
0.324812
0.320201
0.305929
0.307374
0.333179
0.313115
0.315381
0.310714
-0.786899
-0.918652
-0.572079
-0.491482
-0.500558
-0.933406
-0.772892
-0.838986
-0.548419
-0.996892
-0.613236
-0.541066
-0.847207
-0.988174
0.330085
0.32183
0.323713
0.339781
0.321785
0.330283
0.323295
-0.128584
-0.0596543
0.0308687
0.0137405
-0.0513998
0.0358981
-0.146196
-0.184267
-0.115735
-0.0677464
-0.143937
-0.085867
-0.193869
-0.134607
-0.111997
0.0359546
0.0168553
-0.032606
-0.0432166
0.0337558
-0.0759463
-0.0583944
-0.0466973
-0.051877
-0.0947423
-0.029272
-0.0860844
-0.0717393
-0.0312025
0.00288002
-0.023917
0.0125444
-0.0104302
-0.0552489
0.010456
0.298056
0.297314
0.301777
0.318516
0.291633
0.308371
0.28642
-0.729781
-0.899551
-0.476714
-0.529639
-0.458585
-0.875714
-0.753642
-0.381551
-0.258839
-0.334
-0.384915
-0.284069
-0.340688
-0.417119
0.0119652
-0.0568384
0.0623115
-0.22817
0.0459993
-0.148992
-0.038441
0.320448
0.304262
0.320693
0.212578
0.336679
0.213336
0.336672
0.320445
0.303766
0.321132
0.21222
0.335321
0.209166
0.336636
0.294956
0.217381
0.268642
0.131073
0.302214
0.164457
0.268105
0.112783
0.158712
0.219451
0.0893202
0.13115
0.0193194
0.227839
0.319725
0.303225
0.319208
0.213228
0.336396
0.21311
0.336054
0.302781
0.318541
0.212833
0.335641
-0.444286
-0.297432
-0.302158
-0.208638
-0.295907
-0.300277
-0.204526
-0.448041
-0.304489
-0.210332
-0.303711
-0.292827
-0.426178
-0.287026
-0.19562
-0.290408
-0.2002
-0.285275
-0.275424
-0.419425
-0.282406
-0.191825
-0.273198
-0.186566
-0.279442
0.30685
0.290129
0.314869
0.19543
0.314291
0.178134
0.326885
0.320128
0.297291
0.317535
0.200409
0.334458
0.207551
0.330264
-0.379653
-0.238756
-0.251779
-0.16735
-0.235831
-0.246518
-0.159595
-0.26922
-0.391265
-0.259583
-0.174023
-0.265321
-0.181091
-0.257078
-0.226694
-0.308519
-0.197852
-0.132379
-0.219566
-0.148831
-0.197473
-0.143279
-0.269133
-0.178523
-0.116848
-0.136911
-0.0951253
-0.169518
-0.065215
-0.0186815
-0.0879442
-0.112328
-0.0387499
-0.0497613
-0.0812894
0.151635
0.0329798
-0.106717
0.033864
0.152344
0.318232
0.331985
0.225451
0.244875
0.331913
0.242204
0.319631
0.329933
0.339157
0.320576
0.323326
0.321767
0.329263
0.323898
0.317921
0.242905
0.224909
0.330918
0.331676
0.241609
0.318275
0.152802
-0.102957
0.0374729
0.0375074
0.155702
-0.708382
-0.544853
-0.54743
-0.539056
-0.711876
-0.905796
-0.671064
-0.59766
-1.06646
-0.593487
-0.909452
-1.06247
-0.700571
-0.541234
-0.535401
-0.531824
-0.701058
-0.712642
-0.551031
-0.546313
-0.542234
-0.713482
-0.915797
-0.680075
-0.600178
-1.07006
-0.601526
-0.912711
-1.07362
0.14832
-0.109638
0.0318238
0.0320242
0.150873
0.328831
0.338043
0.320282
0.3231
0.320702
0.329011
0.322799
0.316241
0.242151
0.223185
0.330506
0.330318
0.239399
0.317749
-0.252486
-0.181399
-0.189492
-0.100004
0.0797791
-0.108627
-0.355748
-0.290015
-0.348288
-0.357644
-0.348947
-0.357925
-0.372318
-0.365286
-0.365721
-0.28183
-0.331036
-0.340069
-0.311573
-0.362513
-0.368465
-0.378802
-0.382262
-0.384252
-0.173908
-0.229808
-0.166178
0.108875
-0.0694563
-0.077492
-0.092578
0.101886
-0.0853937
-0.221587
-0.149423
-0.158039
0.158526
0.0450563
-0.0940628
0.0448336
0.162301
0.319842
0.332412
0.227335
0.245792
0.333183
0.320138
0.244684
0.331209
0.340434
0.322565
0.325151
0.323076
0.331209
0.325026
0.320141
0.248099
0.227959
0.333226
0.333354
0.245417
0.321516
0.157081
-0.0992171
0.0388975
0.0398503
0.157355
-0.684519
-0.527338
-0.52084
-0.517842
-0.684392
-0.884248
-0.651856
-1.03253
-0.57346
-0.576062
-1.03821
-0.879341
-0.69508
-0.535863
-0.533597
-0.527622
-0.699042
-0.677201
-0.518399
-0.51962
-0.512337
-0.68171
-0.867556
-0.637265
-1.0263
-0.569011
-0.563105
-1.01963
-0.873676
-0.662681
-0.507667
-0.500623
-0.49848
-0.661533
0.165455
0.0471479
-0.0884457
0.0481948
0.16486
0.321929
0.333656
0.230351
0.25187
0.334306
0.249221
0.323172
0.331395
0.34073
0.322584
0.324968
0.323243
0.331087
0.325151
0.321857
0.249281
0.229738
0.333661
0.334403
0.248411
0.322087
0.166792
-0.0814634
0.055847
0.0553153
0.171878
0.205626
0.0810885
-0.0434213
0.0831971
0.198678
0.325284
0.326521
0.233355
0.266297
0.331333
0.262924
0.326277
0.324112
0.335558
0.317509
0.317959
0.315851
0.32614
0.315546
0.326196
0.260466
0.23235
0.33301
0.332995
0.260963
0.326111
0.213343
-0.0210808
0.110761
0.107521
0.226881
-0.613741
-0.463537
-0.456031
-0.456504
-0.621182
-0.799126
-0.58167
-0.520536
-0.958114
-0.510665
-0.811015
-0.946234
-0.577371
-0.421367
-0.416268
-0.418564
-0.570324
-0.630248
-0.476106
-0.469572
-0.468852
-0.627233
-0.83058
-0.606393
-0.528949
-0.969162
-0.534251
-0.821792
-0.978871
-0.65216
-0.495668
-0.496986
-0.49062
-0.657682
0.181973
-0.0603989
0.0744094
0.0731454
0.189797
0.323844
0.334088
0.25361
0.231774
0.334762
0.323887
0.253291
0.329218
0.33914
0.319029
0.320673
0.320983
0.328034
0.321873
0.178863
-0.0722062
0.059342
0.0606839
0.176363
0.323705
0.257405
0.232593
0.332525
0.334304
0.254542
0.324889
-0.109486
-0.150279
-0.101342
0.109165
-0.021455
-0.0386427
-0.0415724
0.114739
-0.041687
-0.140996
-0.0759677
-0.0960589
-0.282447
-0.241636
-0.297774
-0.327288
-0.33956
-0.329118
-0.299954
-0.314869
-0.316536
-0.252378
-0.321248
-0.309578
-0.117458
-0.184187
-0.125055
0.125386
-0.0619111
-0.0560646
-0.0457845
0.128505
-0.0500623
-0.193834
-0.140965
-0.133002
-0.269433
-0.199352
-0.24766
-0.242377
-0.212106
-0.25084
-0.285966
-0.257907
-0.263922
-0.187322
-0.196486
-0.233515
-0.0216898
0.0260891
-0.0107814
-0.0658975
-0.066596
-0.0403782
-0.156932
-0.108058
-0.100239
-0.0782549
-0.154058
-0.0939253
0.297776
0.179433
0.0591599
0.17782
0.321587
0.326731
0.325744
0.22301
0.271502
0.320053
0.32834
0.270716
0.282998
0.304117
0.245512
0.24228
0.275589
0.258462
0.267934
0.321048
0.264474
0.220717
0.288863
0.311151
0.270017
0.310816
0.262389
0.0119413
0.124335
0.12894
0.245033
-0.471079
-0.322841
-0.314336
-0.32078
-0.452959
-0.701204
-0.507736
-0.800323
-0.410648
-0.436079
-0.844894
-0.661863
-0.546871
-0.384093
-0.404699
-0.395347
-0.559237
-0.405936
-0.284267
-0.251792
-0.297075
-0.419062
-0.505138
-0.384915
-0.725777
-0.375142
-0.326443
-0.618845
-0.599619
0.366876
0.208226
0.0916804
0.17458
0.36261
0.0209052
-0.0275274
0.0559286
-0.0722978
0.0946091
-0.140277
0.0580847
0.151526
0.169494
0.211486
0.203285
0.146572
0.224906
0.129711
0.206222
0.25201
0.129801
0.267618
0.200251
0.189187
0.287166
-0.253722
-0.0125223
-0.34226
-0.342847
-0.0115074
-0.163726
-0.165451
-0.0116007
-0.340387
-0.248206
-0.00783113
-0.336948
-0.159231
-0.16423
-0.24611
-0.00732805
-0.333777
-0.00652853
-0.334711
-0.157642
-0.159157
0.0011225
-0.319105
-0.226195
-0.314041
0.00577942
-0.142452
-0.148482
-0.222033
-0.307178
0.00849695
-0.30986
0.00830284
-0.139535
-0.139952
-0.00048219
-0.236046
-0.322404
-0.00013001
-0.324041
-0.149705
-0.150689
-0.23899
-0.0060928
-0.331212
-0.00195091
-0.327077
-0.15189
-0.157381
-0.199899
0.0223829
-0.284181
-0.288924
0.0211196
-0.12473
-0.124092
-0.206796
-0.302419
0.0109143
-0.295439
0.016918
-0.129372
-0.136759
0.0266961
-0.276621
-0.17311
0.0354775
-0.265877
-0.109177
-0.118992
-0.160739
0.0459512
-0.246058
0.042801
-0.254788
-0.101498
-0.0996242
0.0868085
-0.151951
-0.0303181
-0.115992
0.0733761
-0.0479893
-0.0486126
-0.109631
-0.18385
-0.130268
-0.123546
-0.0343028
-0.0659297
-0.103975
-0.770355
-0.837103
-0.78652
-0.831634
-0.647377
-0.557687
-0.567097
-0.632374
-0.712499
-0.674396
-0.645598
-0.727666
-0.720642
-0.783627
-0.799647
-0.70599
0.0815834
-0.0862313
-0.175385
0.0792252
-0.193396
-0.0627503
-0.0619881
-0.108947
0.0544735
-0.232377
0.0679213
-0.2138
-0.0766655
-0.0905744
0.25319
0.344369
0.272338
0.350653
0.273432
0.252321
0.345861
0.146501
-0.10785
0.0345139
0.0335112
0.146265
0.25436
0.351185
0.272829
0.346844
0.274026
0.347371
0.253937
0.325653
0.333174
0.33416
0.327837
0.334623
0.327846
0.326113
0.334213
0.334328
0.327449
0.334369
0.327709
0.253879
0.344499
0.272517
0.351035
0.252521
0.346045
0.27416
0.147144
-0.106136
0.0351844
0.0352079
0.145793
0.256043
0.35217
0.348442
0.275163
0.348345
0.275541
0.256603
0.325182
0.333213
0.333425
0.326517
0.333669
0.327027
0.324972
0.332562
0.333616
0.327266
0.33399
0.3272
-1.32731
-1.32954
-0.707095
-0.547357
-0.539112
-0.537999
-0.706996
-1.32401
-1.32047
-1.69365
-1.32277
-1.32678
-1.13906
-1.32435
-1.69623
-1.32097
-1.48231
-1.20574
-1.20826
-1.21312
-1.48555
-1.21127
-1.69221
-1.1367
-1.3192
-1.31606
-1.32163
-1.31923
-1.68888
-1.70291
-1.32496
-1.14559
-1.32928
-1.32846
-1.69898
-1.33167
-1.22185
-1.49651
-1.22042
-1.70638
-1.14757
-1.33274
-1.33611
-1.33098
-1.334
-1.70893
-1.21576
-1.49325
-1.21803
-0.702412
-0.542353
-0.537848
-0.533568
-0.705603
-1.31607
-1.31381
-1.31665
-1.31829
-0.714173
-0.552718
-0.547794
-0.543853
-0.717035
-1.33282
-1.33088
-1.33278
-1.33371
-1.71416
-1.33944
-1.15503
-1.34399
-1.33835
-1.71572
-1.3423
-1.22426
-1.50268
-1.22624
-1.7131
-1.15306
-1.33457
-1.33839
-1.71088
-1.33694
-1.34
-1.22995
-1.50517
-1.22859
0.250412
0.269636
0.34185
0.349147
0.248962
0.271345
0.343616
0.142288
-0.112795
0.0298233
0.0295809
0.141066
0.252727
0.350386
0.272328
0.346077
0.253165
0.272848
0.346047
0.323885
0.331523
0.332468
0.326432
0.333157
0.326432
0.324399
0.332549
0.332793
0.325971
0.332875
0.326222
0.258037
0.347187
0.275666
0.352775
0.277309
0.256593
0.348654
0.153506
-0.0972934
0.0419461
0.0423361
0.151585
0.260244
0.353877
0.278602
0.351205
0.278733
0.350862
0.26115
0.326787
0.334702
0.334845
0.327851
0.334962
0.328292
0.326544
0.334065
0.33513
0.328458
0.335259
0.328404
0.257049
0.347008
0.352451
0.275441
0.2563
0.348456
0.276398
0.152244
-0.0998658
0.0409721
0.0398958
0.152276
0.257978
0.352895
0.349252
0.275684
0.257468
0.349733
0.276861
0.327167
0.334537
0.335589
0.328774
0.335719
0.328838
0.327617
0.33562
0.335618
0.328565
0.335477
0.32878
-1.29396
-1.29103
-0.686834
-0.528443
-0.524803
-0.520045
-0.690624
-1.29521
-1.29791
-1.67898
-1.30375
-1.30734
-1.12674
-1.3105
-1.67397
-1.30808
-1.47396
-1.20256
-1.20056
-1.19451
-1.46989
-1.19737
-1.68302
-1.12935
-1.31633
-1.3137
-1.3135
-1.6865
-1.31119
-1.6668
-1.3009
-1.30415
-1.11819
-1.29823
-1.67058
-1.30092
-1.45578
-1.18165
-1.18487
-1.19111
-1.45996
-1.18864
-1.66481
-1.11518
-1.29185
-1.29426
-1.29585
-1.29753
-1.66028
-0.693249
-0.535464
-0.526595
-0.526026
-0.692551
-1.30898
-1.31198
-1.30517
-1.30077
-1.28488
-1.28877
-0.674572
-0.518662
-0.509674
-0.509947
-0.673019
-1.28038
-1.2747
-1.63165
-1.27489
-1.27248
-1.09093
-1.27046
-1.63751
-1.26842
-1.42166
-1.15071
-1.1548
-1.16288
-1.42731
-1.15941
-1.62906
-1.08703
-1.26181
-1.25993
-1.2662
-1.26522
-1.62265
-1.64848
-1.27894
-1.10231
-1.27617
-1.2817
-1.28322
-1.64172
-1.44525
-1.17771
-1.17481
-1.16708
-1.44003
-1.1709
-1.65293
-1.1057
-1.2889
-1.29072
-1.65768
-1.28549
-1.28698
-0.665731
-0.508625
-0.50718
-0.501487
-0.670449
-1.26415
-1.25998
-1.2664
-1.27078
0.262819
0.279581
0.354396
0.350732
0.28036
0.26222
0.352182
0.161206
-0.0883064
0.0500929
0.0488613
0.161611
0.263286
0.354723
0.279362
0.352425
0.262488
0.280588
0.353031
0.328175
0.335473
0.336565
0.328504
0.335977
0.328761
0.328538
0.336517
0.336326
0.328834
0.335791
0.328898
0.263959
0.279705
0.350723
0.354338
0.262471
0.281326
0.351928
0.162557
-0.0848091
0.0514197
0.0523598
0.160139
0.266288
0.355313
0.283067
0.354685
0.282823
0.353955
0.267796
0.32818
0.335947
0.33599
0.328684
0.335772
0.328978
0.327889
0.335351
0.336427
0.328931
0.336002
0.328978
0.292475
0.370318
0.298483
0.359968
0.297763
0.29409
0.370506
0.207081
-0.0380802
0.0912361
0.0884074
0.211047
0.289226
0.359554
0.293619
0.365305
0.296024
0.368123
0.285539
0.325808
0.337159
0.336451
0.316116
0.329177
0.317618
0.325282
0.33525
0.335048
0.319893
0.328931
0.318639
0.298814
0.370365
0.298994
0.359582
0.295663
0.371363
0.301856
0.213174
-0.0259339
0.0957915
0.100652
0.207212
0.303404
0.360039
0.376966
0.307751
0.373391
0.304971
0.309434
0.327679
0.338002
0.337932
0.324428
0.332582
0.323546
0.327413
0.336829
0.338038
0.321302
0.332945
0.32267
-1.20371
-1.21126
-0.606706
-0.451514
-0.445377
-0.449605
-0.600879
-1.19638
-1.18474
-1.52198
-1.18138
-1.18571
-1.00148
-1.17649
-1.537
-1.17076
-1.33123
-1.06089
-1.06747
-1.08115
-1.34003
-1.07493
-1.51645
-0.993375
-1.15982
-1.15212
-1.16873
-1.16362
-1.50176
-1.55793
-1.18835
-1.02515
-1.19289
-1.19894
-1.5437
-1.20114
-1.1058
-1.36667
-1.10085
-1.56185
-1.0317
-1.21193
-1.21395
-1.20505
-1.20744
-1.57144
-1.08805
-1.35927
-1.09439
-0.58453
-0.422472
-0.438595
-0.426705
-0.594616
-1.15478
-1.14315
-1.16257
-1.17552
-0.634645
-0.476971
-0.481114
-0.473512
-0.641113
-1.22148
-1.21503
-1.22541
-1.23266
-1.60897
-1.06984
-1.23942
-1.24196
-1.2477
-1.24674
-1.59961
-1.14576
-1.40907
-1.14192
-1.61348
-1.07441
-1.25734
-1.25619
-1.25245
-1.62013
-1.25144
-1.13216
-1.40281
-1.13701
-0.648042
-0.49356
-0.485064
-0.486733
-0.644992
-1.25177
-1.25709
-1.24621
-1.2384
-1.58548
-1.23458
-1.05428
-1.23687
-1.22831
-1.5947
-1.2308
-1.11191
-1.38085
-1.11702
-1.58257
-1.04907
-1.21671
-1.21958
-1.57312
-1.22401
-1.2255
-1.12705
-1.38721
-1.12247
0.27484
0.286106
0.356691
0.356069
0.272918
0.287977
0.357703
0.178791
-0.0641644
0.0668195
0.0689677
0.175211
0.277818
0.356885
0.290925
0.361265
0.280758
0.289899
0.359628
0.328858
0.33669
0.336622
0.32818
0.335384
0.328155
0.328499
0.336082
0.337171
0.327575
0.335548
0.327924
0.272356
0.356412
0.285905
0.356776
0.272352
0.286219
0.357949
0.176121
-0.0704078
0.0644685
0.0627155
0.177628
0.271711
0.356503
0.284348
0.356735
0.270137
0.285852
0.357866
0.328215
0.335878
0.336987
0.325376
0.334595
0.326171
0.328344
0.337096
0.336527
0.327078
0.334418
0.326745
0.35089
0.405867
0.327424
0.370963
0.329142
0.347061
0.407595
0.302406
0.0526166
0.157842
0.16458
0.291964
0.354461
0.367746
0.326326
0.406049
0.330028
0.406742
0.356687
0.318087
0.331484
0.333752
0.31482
0.321936
0.312379
0.320411
0.334593
0.334673
0.304227
0.323102
0.310781
0.336595
0.403085
0.370859
0.325266
0.342185
0.399743
0.323104
0.27416
0.0237556
0.146378
0.141611
0.2867
0.3281
0.368575
0.385331
0.314018
0.319405
0.3927
0.318368
0.309138
0.327423
0.319863
0.25556
0.299085
0.281145
0.301508
0.294489
0.310226
0.300463
0.299694
0.288178
-1.0288
-0.999855
-0.487409
-0.323294
-0.358584
-0.339536
-0.50674
-1.04848
-1.07568
-1.4775
-1.1008
-1.11222
-0.950756
-1.12779
-1.45317
-1.11995
-1.31557
-1.05123
-1.04379
-1.01974
-1.30224
-1.03119
-1.48383
-0.963872
-1.15059
-1.14388
-1.14002
-1.4997
-1.13163
-1.40635
-1.08466
-1.09466
-0.898668
-1.06019
-1.43744
-1.07381
-1.23104
-0.944745
-0.960745
-1.00191
-1.26546
-0.988108
-1.3814
-0.874752
-1.00775
-1.02527
-1.0376
-1.04806
-1.34761
-0.533103
-0.37557
-0.373285
-0.381371
-0.52076
-1.12384
-1.13674
-1.11225
-1.09236
-0.795244
-0.828346
-0.782106
-0.824151
-0.768706
-0.691739
-0.741608
-0.728776
-0.757466
-0.670169
-0.724918
-0.721316
-0.780742
-0.754155
-0.798543
-0.727977
-0.899545
-0.872617
-0.872286
-0.898539
-0.925965
-0.886717
-0.895635
-0.919263
-0.904167
-0.914422
-0.91383
-0.893698
-0.906635
-0.853683
-0.865901
-0.897579
-0.850991
-0.858242
-0.841105
-0.877014
-0.81626
-0.824779
-0.864117
-0.914089
-0.827552
-0.807354
-0.812576
-0.731915
-0.863734
-0.883558
-0.88677
-0.822557
-0.945514
-0.974831
-0.371037
-0.242246
-0.307497
-0.257066
-0.38505
-0.912013
-0.865196
-0.644892
-0.465505
-0.775081
-0.692423
-0.597777
-1.07328
-0.582348
-0.67681
-0.633078
-0.673033
-0.683297
-0.675414
-0.711114
-0.666555
-0.603302
-0.561709
-0.566375
-0.688284
-0.697411
-0.675402
-1.2345
-0.843442
-0.718861
-0.800012
-0.878702
-0.89493
-1.13429
-1.15236
-0.902817
-0.876239
-0.763852
-1.07585
-0.815864
-1.27534
-0.781552
-0.972394
-0.985751
-1.32244
-0.931138
-0.952135
-0.528686
-0.520076
-0.29259
-0.397264
-0.856041
-0.340783
-0.656648
-0.787677
-0.845718
-0.759778
-0.765095
0.334113
0.194528
0.303684
0.275398
0.271519
0.239553
0.374529
0.415837
0.0958187
0.0997296
0.191662
0.321848
0.354282
0.340536
0.327905
0.412117
0.365573
0.301316
0.400338
-1.03164
-0.462007
-0.118153
-0.436853
-0.909814
-0.857412
-0.896741
-0.89142
-0.823558
-0.904986
-0.883631
-0.890737
-1.00579
-1.08907
-0.233558
-0.548737
-0.410343
-1.03533
-0.421883
-0.260817
0.100997
0.0939411
0.0945594
-0.184959
-0.523871
-0.512818
-0.542029
0.0505561
-0.298803
-0.904002
0.420431
-0.897927
-0.867709
-0.942865
-1.12064
0.179749
0.0478902
0.174569
0.239164
0.193317
0.173602
0.234057
0.276902
0.229513
-0.0590143
0.136844
0.113295
0.0548161
0.052624
0.0547099
0.0525937
0.0540919
0.0532087
0.0540631
0.053169
0.0540839
0.0536086
0.0540432
0.0535583
0.0538375
0.0538258
0.0537848
0.0537662
0.0538827
0.0540322
0.053821
0.0539593
0.0541051
0.054391
0.0540265
0.0542906
0.0545139
0.0549881
0.0544046
0.0548426
0.0551885
0.0559514
0.0550266
0.055725
0.0562744
0.057533
0.0560158
0.0571115
0.0580834
0.0603074
0.0575654
0.0592691
0.0613024
0.0656134
0.0599713
0.0625565
0.0677386
0.0782736
0.0635862
0.0671146
0.0841469
0.117206
0.0683778
0.071579
0.0547445
0.0526091
0.0547671
0.0525785
0.0540722
0.0531657
0.0540335
0.0531006
0.0540377
0.0535454
0.0539666
0.0534529
0.0537698
0.0537441
0.0536703
0.0536203
0.0537963
0.0539259
0.0536632
0.05376
0.0539898
0.0542424
0.0538108
0.0540152
0.0543517
0.0547719
0.0541047
0.0544496
0.0549484
0.0556163
0.0545937
0.0551341
0.0558935
0.0569324
0.055355
0.0561616
0.0573609
0.0589619
0.0564827
0.0576107
0.0596202
0.0620599
0.0580365
0.0593722
0.0630466
0.0664753
0.0597811
0.0603359
0.0676567
0.0692866
0.0600088
0.0550668
0.067862
0.0433635
0.0510347
0.0242997
0.054777
0.0525727
0.054797
0.0525439
0.0540238
0.0530785
0.0539844
0.0530032
0.0539414
0.0534176
0.0538562
0.0532991
0.0536316
0.0535708
0.053502
0.0534035
0.0536097
0.0536925
0.0534285
0.0534635
0.0537378
0.0539223
0.0534903
0.0536077
0.0540036
0.0543181
0.0536619
0.0538763
0.0544496
0.0549415
0.0539667
0.0543065
0.055142
0.0558691
0.0544446
0.0549442
0.0561564
0.0571542
0.0551413
0.0558391
0.0575267
0.0586804
0.0561134
0.0571188
0.0590286
0.0594891
0.0575417
0.059342
0.059212
0.054971
0.0602624
0.0653062
0.0514064
0.0273564
0.0681076
0.0739209
0.0548002
0.0525332
0.0539702
0.0529771
0.0538266
0.0532574
0.0534562
0.0533439
0.0533638
0.0533816
0.0534017
0.0534955
0.0535401
0.0537196
0.0537959
0.054084
0.0542015
0.0546284
0.0547983
0.0554138
0.0556661
0.0566782
0.0571567
0.059563
0.0609688
0.0697442
0.0525995
0.0546901
0.0525695
0.0547342
0.0525269
0.0546322
0.0524977
0.053175
0.0540369
0.0531355
0.0539863
0.0530737
0.0539587
0.0530343
0.0535607
0.0540066
0.053511
0.0539379
0.0534159
0.053896
0.0533665
0.0537568
0.0537331
0.0536978
0.0536258
0.0535444
0.0535747
0.0534876
0.053929
0.0537455
0.0538571
0.0535723
0.0536116
0.0535136
0.0535432
0.0542331
0.0539132
0.0541349
0.0536381
0.0537471
0.053565
0.0536562
0.0547426
0.0542311
0.0546017
0.0537957
0.0539876
0.0536977
0.053862
0.0555667
0.0547578
0.0553501
0.0540705
0.0543885
0.0539323
0.0542004
0.0569228
0.0555969
0.056527
0.0545234
0.0550562
0.0543122
0.0547332
0.0593346
0.0569127
0.0583612
0.0552932
0.0563185
0.0549074
0.0555579
0.0640618
0.0589598
0.0611765
0.0568046
0.0590696
0.0558256
0.0568156
0.0758259
0.0620665
0.0651651
0.0602804
0.0669208
0.0572096
0.0585366
0.113683
0.066303
0.0693745
0.0709421
0.0959027
0.0589937
0.0599592
0.0943105
0.160476
0.0885092
0.128373
0.098325
0.0847544
0.155128
0.0525852
0.0547511
0.052556
0.0546702
0.0525146
0.0547047
0.0524889
0.0531323
0.0540084
0.0530673
0.0539687
0.0530314
0.0539331
0.0529671
0.0534983
0.0539303
0.0534061
0.0538907
0.0533541
0.0538202
0.0532629