/*--------------------------------*- C++ -*----------------------------------*\
| =========                 |                                                 |
| \\      /  F ield         | OpenFOAM: The Open Source CFD Toolbox           |
|  \\    /   O peration     | Version:  2012                                  |
|   \\  /    A nd           | Website:  www.openfoam.com                      |
|    \\/     M anipulation  |                                                 |
\*---------------------------------------------------------------------------*/
FoamFile
{
    version     2.0;
    format      ascii;
    class       surfaceScalarField;
    location    "0.104/fluid";
    object      phi;
}
// * * * * * * * * * * * * * * * * * * * * * * * * * * * * * * * * * * * * * //

dimensions      [0 3 -1 0 0 0 0];
oriented        oriented;


internalField   nonuniform List<scalar> 
47156
(
-5.48676e-09
0.00153063
3.12364e-08
5.15778e-09
-1.06428e-07
-0.00153054
0.00153051
2.42509e-08
1.06212e-07
-1.43124e-07
-0.00153045
0.00153043
-4.9589e-08
1.4448e-07
-1.91266e-07
-0.00153038
0.00153037
-1.07891e-07
1.92774e-07
-2.84307e-07
-0.00153032
0.0015303
-1.77546e-07
2.88051e-07
-4.43241e-07
-0.00153022
0.00153018
-2.48166e-07
4.48424e-07
-7.14563e-07
-0.00153002
0.00152994
-3.03674e-07
7.23376e-07
-1.15629e-06
-0.00152961
0.00152946
-3.24402e-07
1.17391e-06
-1.88747e-06
-0.00152886
0.0015286
-2.8942e-07
1.91149e-06
-3.08624e-06
-0.00152752
0.00152703
-1.26017e-07
3.11846e-06
-5.06009e-06
-0.00152493
0.00152392
3.77154e-07
5.11424e-06
-8.25579e-06
-0.00151903
0.00151639
1.94813e-06
8.40317e-06
-1.32309e-05
-0.00150186
0.001493
7.74022e-06
1.38737e-05
-1.99547e-05
-0.00143666
0.00139869
3.45516e-05
2.29587e-05
-2.08525e-05
-0.00113254
0.000163462
2.97434e-05
0.000305915
0.00017391
0.000305977
0.000174093
2.76774e-08
-4.82424e-09
0.00153111
6.53007e-09
-2.91057e-08
1.32193e-08
1.41775e-07
-0.00153244
0.00153282
-1.78274e-07
-1.90488e-08
5.1067e-08
3.20339e-07
-0.00153392
0.00153428
-3.93648e-07
-5.95236e-08
6.12237e-08
5.45919e-07
-0.0015354
0.00153577
-6.7796e-07
-7.23134e-08
1.86127e-08
8.01273e-07
-0.00153691
0.00153729
-1.0017e-06
-3.08116e-08
-8.54709e-08
1.05987e-06
-0.00153839
0.00153876
-1.32248e-06
6.87729e-08
-3.16185e-07
1.27083e-06
-0.00153985
0.00154022
-1.59911e-06
2.99644e-07
-7.45167e-07
1.41379e-06
-0.00154125
0.00154157
-1.7925e-06
7.28958e-07
-1.48866e-06
1.3761e-06
-0.00154239
0.00154262
-1.76545e-06
1.47867e-06
-2.73908e-06
9.84913e-07
-0.00154308
0.00154316
-1.31612e-06
2.74209e-06
-4.76723e-06
-1.01685e-07
-0.00154311
0.00154296
-7.99746e-08
4.77547e-06
-7.84319e-06
-2.83165e-06
-0.00154192
0.00154134
2.9001e-06
7.88009e-06
-1.1913e-05
-1.00422e-05
-0.00153875
0.00153768
1.00965e-05
1.21357e-05
-3.19273e-05
-1.55057e-05
-0.00153568
0.00153685
1.65311e-05
2.82971e-05
-9.06327e-05
-1.32148e-05
-0.00156206
0.00158475
1.58959e-05
6.34798e-05
6.36451e-08
-4.42838e-09
0.00153149
5.12121e-09
-6.5484e-08
1.51185e-07
2.69427e-07
-0.00153382
0.0015345
-3.01778e-07
-1.612e-07
2.74597e-07
6.11102e-07
-0.00153649
0.00153716
-6.75868e-07
-2.91883e-07
3.62369e-07
1.04775e-06
-0.00153922
0.00153991
-1.16308e-06
-3.85457e-07
3.99666e-07
1.54864e-06
-0.001542
0.00154272
-1.71111e-06
-4.29357e-07
3.73727e-07
2.08151e-06
-0.00154497
0.00154575
-2.30855e-06
-4.0333e-07
2.05572e-07
2.56902e-06
-0.00154819
0.00154902
-2.85906e-06
-2.36464e-07
-1.72862e-07
2.94125e-06
-0.00155153
0.00155235
-3.28293e-06
1.4482e-07
-8.92534e-07
2.99751e-06
-0.00155477
0.00155555
-3.37064e-06
8.66915e-07
-2.14331e-06
2.50026e-06
-0.00155787
0.00155862
-2.8814e-06
2.1182e-06
-4.15681e-06
1.11016e-06
-0.00156094
0.00156175
-1.5036e-06
4.11625e-06
-7.1815e-06
-1.71606e-06
-0.00156449
0.00156563
1.15575e-06
7.10475e-06
-1.11233e-05
-6.58183e-06
-0.00157061
0.00157311
5.13659e-06
1.1015e-05
-1.45274e-05
-1.27779e-05
-0.0015854
0.00159187
7.81269e-06
1.45548e-05
-1.15639e-05
-1.37453e-05
-0.00162066
0.00163273
1.95476e-06
1.21119e-05
9.61043e-08
-9.65834e-09
0.00153186
-9.80777e-08
2.87517e-07
3.99092e-07
-0.0015351
0.00153603
-2.98237e-07
5.0143e-07
8.48015e-07
-0.00153872
0.00153959
-5.26894e-07
6.90517e-07
1.41455e-06
-0.00154224
0.00154315
-7.23902e-07
8.41155e-07
2.07784e-06
-0.00154592
0.00154689
-8.77383e-07
9.14661e-07
2.82986e-06
-0.00154995
0.00155104
-9.52762e-07
8.35102e-07
3.54247e-06
-0.0015545
0.0015557
-8.77572e-07
5.26256e-07
4.07859e-06
-0.00155935
0.00156059
-5.66653e-07
-1.42624e-07
4.27719e-06
-0.00156436
0.00156563
1.04228e-07
-1.35557e-06
3.87709e-06
-0.00156946
0.00157074
1.29998e-06
-3.3081e-06
2.57313e-06
-0.0015747
0.0015761
3.22946e-06
-6.33095e-06
3.15887e-07
-0.00158078
0.00158265
6.20124e-06
-1.0897e-05
-2.17441e-06
-0.00158966
0.00159254
1.07012e-05
-1.80213e-05
2.37109e-07
-0.00160268
0.00160613
1.8115e-05
-3.02928e-05
4.49855e-05
-0.00161393
0.00161933
3.72759e-05
-3.83779e-09
0.00153061
3.44137e-08
3.44248e-09
-9.76545e-08
-0.00153049
0.00153046
3.42474e-08
9.21992e-08
-1.37211e-07
-0.00153041
0.0015304
-3.86876e-08
1.31306e-07
-1.84891e-07
-0.0015304
0.0015304
-1.0104e-07
1.77554e-07
-2.76266e-07
-0.00153037
0.00153036
-1.58811e-07
2.65305e-07
-4.31006e-07
-0.00153033
0.00153032
-2.22012e-07
4.148e-07
-6.95207e-07
-0.00153027
0.00153024
-2.79753e-07
6.71683e-07
-1.12876e-06
-0.00153012
0.00153007
-3.15455e-07
1.08735e-06
-1.8401e-06
-0.00152981
0.00152969
-3.05715e-07
1.77344e-06
-3.0079e-06
-0.0015292
0.00152897
-2.19711e-07
2.90223e-06
-4.96816e-06
-0.0015279
0.00152734
1.19991e-07
4.80586e-06
-8.42994e-06
-0.00152451
0.0015229
1.21479e-06
8.23369e-06
-1.54921e-05
-0.00151362
0.0015078
5.22672e-06
1.55266e-05
-3.47809e-05
-0.00146926
0.00144207
2.39983e-05
3.74656e-05
-0.000100368
-0.00122483
0.000121709
0.000137882
0.000339747
0.000192423
0.000333249
0.000199832
3.0055e-08
-1.00959e-08
0.001531
1.75124e-08
-2.93395e-08
3.57663e-08
1.16414e-07
-0.00153209
0.00153243
-1.50564e-07
-3.96495e-08
7.60865e-08
2.93022e-07
-0.00153348
0.00153385
-3.65207e-07
-7.80269e-08
9.37724e-08
5.20684e-07
-0.00153498
0.00153534
-6.45369e-07
-9.92861e-08
7.0239e-08
7.5094e-07
-0.00153644
0.0015368
-9.41186e-07
-7.91805e-08
-1.48986e-08
9.84281e-07
-0.00153789
0.00153826
-1.23854e-06
-1.53883e-09
-2.15505e-07
1.21178e-06
-0.00153942
0.00153982
-1.52781e-06
1.84922e-07
-6.2502e-07
1.38872e-06
-0.00154106
0.00154149
-1.76397e-06
5.74345e-07
-1.35409e-06
1.44936e-06
-0.00154282
0.00154326
-1.85679e-06
1.27694e-06
-2.55713e-06
1.26121e-06
-0.00154456
0.00154497
-1.64046e-06
2.43655e-06
-4.50697e-06
5.35557e-07
-0.00154601
0.00154627
-8.1948e-07
4.31793e-06
-7.57326e-06
-1.39638e-06
-0.00154666
0.00154661
1.28855e-06
7.3022e-06
-1.23499e-05
-6.47151e-06
-0.0015457
0.00154514
6.40829e-06
1.20957e-05
-2.1532e-05
-1.95869e-05
-0.0015436
0.00154404
1.98798e-05
1.90958e-05
-6.28092e-05
-2.56146e-05
-0.00155937
0.00157433
2.81266e-05
4.33045e-05
6.67803e-08
-1.54344e-08
0.00153135
1.58757e-08
-6.56724e-08
1.81038e-07
2.4115e-07
-0.00153333
0.00153393
-2.75417e-07
-1.82369e-07
3.12146e-07
5.75582e-07
-0.00153579
0.00153644
-6.47746e-07
-3.07681e-07
4.16589e-07
1.00347e-06
-0.0015384
0.00153905
-1.11736e-06
-4.1352e-07
4.78961e-07
1.47466e-06
-0.0015411
0.00154184
-1.6421e-06
-4.78942e-07
4.66582e-07
2.0093e-06
-0.0015442
0.00154503
-2.2541e-06
-4.73487e-07
3.28216e-07
2.53253e-06
-0.0015476
0.00154849
-2.85235e-06
-3.52622e-07
-2.35469e-08
2.95319e-06
-0.00155121
0.00155215
-3.3269e-06
-2.45789e-08
-7.04504e-07
3.12885e-06
-0.00155502
0.001556
-3.52983e-06
6.26001e-07
-1.86129e-06
2.91262e-06
-0.00155905
0.00156012
-3.32699e-06
1.72502e-06
-3.69968e-06
2.04505e-06
-0.00156352
0.00156475
-2.48058e-06
3.47299e-06
-6.4193e-06
4.55639e-08
-0.00156885
0.00157041
-6.13582e-07
6.05285e-06
-1.0011e-05
-3.55837e-06
-0.00157629
0.00157885
2.40456e-06
9.43818e-06
-1.34033e-05
-8.67767e-06
-0.00158948
0.00159435
5.54091e-06
1.2569e-05
-1.12245e-05
-1.09892e-05
-0.00161322
0.00162014
4.74945e-06
1.0364e-05
9.76482e-08
-1.38439e-08
0.00153174
-9.67996e-08
3.16446e-07
3.85524e-07
-0.00153469
0.00153554
-3.14349e-07
5.46073e-07
8.31104e-07
-0.00153796
0.00153877
-5.37212e-07
7.58416e-07
1.40138e-06
-0.00154133
0.00154223
-7.45542e-07
9.16237e-07
2.07693e-06
-0.00154509
0.00154612
-9.01844e-07
9.8894e-07
2.86384e-06
-0.00154943
0.00155059
-9.7821e-07
9.29667e-07
3.62213e-06
-0.00155418
0.00155543
-9.27932e-07
6.48516e-07
4.22725e-06
-0.00155932
0.00156067
-6.64374e-07
2.747e-08
4.54704e-06
-0.00156486
0.00156629
-8.04373e-08
-1.02738e-06
4.41265e-06
-0.00157074
0.00157229
9.04051e-07
-2.73648e-06
3.62287e-06
-0.00157714
0.00157901
2.50615e-06
-5.3388e-06
2.11012e-06
-0.00158557
0.0015881
4.92162e-06
-9.11216e-06
2.04364e-07
-0.00159722
0.00160092
8.31611e-06
-1.45558e-05
-1.49947e-07
-0.00161474
0.00162043
1.26344e-05
-2.12356e-05
4.34579e-06
-0.0016414
0.00164973
1.51754e-05
-1.91404e-09
0.00153062
3.32944e-08
1.06254e-09
-6.84427e-08
-0.00153049
0.00153046
3.15999e-08
5.80165e-08
-1.0357e-07
-0.00153042
0.00153042
-3.76995e-08
9.15271e-08
-1.43236e-07
-0.00153043
0.00153044
-9.81577e-08
1.2826e-07
-2.19468e-07
-0.00153043
0.00153041
-1.41617e-07
1.96004e-07
-3.39363e-07
-0.00153045
0.00153047
-2.00167e-07
3.05999e-07
-5.44834e-07
-0.00153052
0.00153054
-2.67015e-07
4.90669e-07
-8.86956e-07
-0.00153057
0.00153058
-3.05569e-07
7.98961e-07
-1.44756e-06
-0.00153059
0.0015306
-3.11889e-07
1.30481e-06
-2.37905e-06
-0.0015306
0.0015306
-2.8291e-07
2.14252e-06
-3.9658e-06
-0.00153046
0.00153036
-1.08258e-07
3.58121e-06
-6.88377e-06
-0.00152975
0.00152937
4.46677e-07
6.19865e-06
-1.30775e-05
-0.0015272
0.00152598
2.1054e-06
1.1588e-05
-2.97913e-05
-0.00152036
0.00151821
6.99395e-06
2.44043e-05
-8.24556e-05
-0.00152483
0.00154303
1.46369e-05
4.92394e-05
2.5525e-08
-6.70593e-09
0.00153097
1.01276e-08
-2.40964e-08
4.56152e-08
1.21473e-07
-0.00153196
0.00153227
-1.53392e-07
-4.65095e-08
7.8174e-08
2.79825e-07
-0.00153322
0.00153355
-3.50151e-07
-7.61633e-08
9.87341e-08
4.85757e-07
-0.00153459
0.00153494
-5.93149e-07
-9.471e-08
9.18692e-08
6.88597e-07
-0.001536
0.00153634
-8.56733e-07
-9.02413e-08
3.93618e-08
8.83074e-07
-0.00153737
0.00153772
-1.0941e-06
-4.59467e-08
-9.40801e-08
1.08103e-06
-0.00153887
0.00153928
-1.34247e-06
6.85799e-08
-3.94752e-07
1.25409e-06
-0.00154057
0.00154105
-1.56133e-06
3.30914e-07
-9.59775e-07
1.36806e-06
-0.00154266
0.00154326
-1.72457e-06
8.40093e-07
-1.91723e-06
1.34164e-06
-0.00154508
0.0015457
-1.69622e-06
1.70322e-06
-3.46515e-06
9.64692e-07
-0.00154751
0.00154809
-1.27347e-06
3.10054e-06
-5.94144e-06
-9.97428e-08
-0.00154967
0.00155015
-1.19807e-07
5.32753e-06
-9.96646e-06
-2.57349e-06
-0.00155142
0.00155182
2.43104e-06
8.88051e-06
-1.633e-05
-7.83054e-06
-0.00155363
0.00155491
7.23344e-06
1.41252e-05
-2.16312e-05
-1.35391e-05
-0.00156472
0.00157084
1.09907e-05
1.64722e-05
5.71762e-08
-1.73956e-08
0.00153125
2.38812e-08
-5.34396e-08
1.6898e-07
2.38333e-07
-0.001533
0.00153357
-2.66333e-07
-1.58975e-07
2.69838e-07
5.57744e-07
-0.00153532
0.00153585
-6.21079e-07
-2.50814e-07
3.6614e-07
9.19449e-07
-0.00153764
0.00153833
-1.03619e-06
-3.35633e-07
4.31548e-07
1.36735e-06
-0.00154034
0.00154103
-1.54072e-06
-4.04138e-07
4.52162e-07
1.82123e-06
-0.00154324
0.00154401
-2.08805e-06
-4.29024e-07
3.93226e-07
2.27206e-06
-0.00154645
0.00154728
-2.62471e-06
-3.8345e-07
1.61368e-07
2.62522e-06
-0.00154986
0.00155077
-3.01903e-06
-1.87703e-07
-3.42975e-07
2.86694e-06
-0.00155372
0.0015548
-3.26635e-06
2.50786e-07
-1.22147e-06
2.86507e-06
-0.00155823
0.00155944
-3.27604e-06
1.04597e-06
-2.60788e-06
2.42411e-06
-0.00156333
0.00156475
-2.85202e-06
2.27882e-06
-4.61652e-06
1.36757e-06
-0.00156936
0.00157103
-1.87563e-06
4.06585e-06
-7.14522e-06
-5.38693e-07
-0.00157651
0.00157853
-2.52343e-07
6.26818e-06
-9.15831e-06
-2.90681e-06
-0.00158526
0.00158775
1.40055e-06
7.87666e-06
-7.03885e-06
-2.91686e-06
-0.00159566
0.00159817
6.19859e-07
5.77142e-06
8.49922e-08
-1.98104e-08
0.00153159
-7.90794e-08
2.80918e-07
3.57329e-07
-0.00153421
0.00153501
-2.61108e-07
4.65507e-07
8.04466e-07
-0.00153733
0.00153812
-4.25411e-07
6.34271e-07
1.37766e-06
-0.00154068
0.00154159
-5.7818e-07
7.71858e-07
2.04355e-06
-0.00154446
0.00154549
-7.08143e-07
8.5192e-07
2.80734e-06
-0.00154884
0.00155002
-7.83212e-07
8.41867e-07
3.53509e-06
-0.00155363
0.00155484
-7.8805e-07
6.74145e-07
4.06217e-06
-0.00155847
0.00155971
-6.52619e-07
2.41991e-07
4.36347e-06
-0.00156359
0.00156497
-2.80918e-07
-5.00965e-07
4.39235e-06
-0.00156938
0.00157099
3.70626e-07
-1.6974e-06
4.04241e-06
-0.00157634
0.00157837
1.42355e-06
-3.44672e-06
3.30228e-06
-0.0015853
0.00158788
2.94468e-06
-5.63678e-06
2.32683e-06
-0.00159645
0.00159958
4.75436e-06
-7.37672e-06
1.85238e-06
-0.00160975
0.00161331
5.94366e-06
-5.6127e-06
3.23183e-06
-0.00162346
0.0016262
3.99861e-06
2.72678e-09
0.00153062
3.11381e-08
-3.79724e-09
-2.4462e-08
-0.00153051
0.00153048
2.51432e-08
3.42597e-09
-5.18737e-08
-0.00153045
0.00153044
-4.0455e-08
3.76723e-08
-7.6701e-08
-0.00153044
0.00153045
-9.39447e-08
5.76186e-08
-1.18458e-07
-0.0015305
0.00153051
-1.51842e-07
8.94793e-08
-1.85766e-07
-0.00153056
0.00153058
-1.92147e-07
1.40896e-07
-2.99899e-07
-0.00153066
0.00153071
-2.39503e-07
2.2641e-07
-4.87062e-07
-0.00153083
0.00153089
-2.80418e-07
3.66567e-07
-7.93416e-07
-0.00153109
0.00153118
-3.05888e-07
6.01466e-07
-1.30503e-06
-0.00153149
0.00153162
-3.01179e-07
9.91793e-07
-2.17773e-06
-0.00153209
0.00153228
-2.29847e-07
1.65634e-06
-3.71903e-06
-0.00153302
0.00153332
-2.19313e-09
2.81426e-06
-6.52541e-06
-0.00153462
0.00153523
4.67909e-07
4.84388e-06
-1.11477e-05
-0.00153814
0.00153971
1.1464e-06
7.8633e-06
-1.41681e-05
-0.00154808
0.00155233
8.45382e-07
8.57377e-06
1.75102e-08
-6.50595e-10
0.00153097
3.36343e-09
-1.5658e-08
4.53095e-08
1.35143e-07
-0.00153194
0.00153222
-1.64589e-07
-4.60313e-08
5.61284e-08
2.74567e-07
-0.00153307
0.00153337
-3.37125e-07
-4.53987e-08
6.79574e-08
4.56887e-07
-0.00153435
0.00153469
-5.5987e-07
-5.44174e-08
6.67804e-08
6.56927e-07
-0.00153575
0.00153609
-8.04258e-07
-5.44714e-08
4.80595e-08
8.04159e-07
-0.00153705
0.00153736
-9.9979e-07
-4.15422e-08
-1.8127e-08
9.85117e-07
-0.0015385
0.00153896
-1.21146e-06
9.17806e-09
-1.72503e-07
1.15547e-06
-0.00154032
0.00154079
-1.41455e-06
1.27749e-07
-4.75216e-07
1.28181e-06
-0.00154243
0.00154305
-1.5878e-06
3.52891e-07
-9.93762e-07
1.32266e-06
-0.00154504
0.00154573
-1.65225e-06
7.48056e-07
-1.84111e-06
1.16518e-06
-0.00154787
0.00154859
-1.4865e-06
1.38913e-06
-3.1699e-06
6.69286e-07
-0.00155081
0.00155161
-9.55642e-07
2.38541e-06
-5.12399e-06
-2.06359e-07
-0.00155426
0.00155524
-6.91246e-08
3.83027e-06
-7.36396e-06
-1.32802e-06
-0.00155853
0.00155981
9.86779e-07
5.35191e-06
-7.18838e-06
-1.24802e-06
-0.0015647
0.00156663
7.60473e-07
4.70769e-06
3.58798e-08
-1.07087e-08
0.00153119
1.7336e-08
-2.96505e-08
1.16626e-07
2.23252e-07
-0.00153278
0.00153327
-2.41116e-07
-1.00727e-07
1.68336e-07
5.1563e-07
-0.00153489
0.00153549
-5.74582e-07
-1.3084e-07
2.22335e-07
9.377e-07
-0.00153753
0.00153823
-1.07337e-06
-1.72523e-07
2.73106e-07
1.30661e-06
-0.00153998
0.00154055
-1.48963e-06
-2.13664e-07
2.93175e-07
1.70602e-06
-0.00154264
0.00154338
-1.98316e-06
-2.29196e-07
2.67648e-07
2.07536e-06
-0.00154569
0.00154644
-2.4307e-06
-2.0655e-07
1.53038e-07
2.34356e-06
-0.00154876
0.0015496
-2.72805e-06
-1.15741e-07
-8.82778e-08
2.56947e-06
-0.00155237
0.00155341
-2.9481e-06
6.07018e-08
-5.38259e-07
2.7093e-06
-0.00155682
0.00155802
-3.0896e-06
3.88148e-07
-1.26087e-06
2.5412e-06
-0.00156186
0.00156322
-2.92623e-06
9.33611e-07
-2.31131e-06
2.05785e-06
-0.00156764
0.00156921
-2.49215e-06
1.7161e-06
-3.50613e-06
1.36761e-06
-0.00157406
0.00157566
-1.90091e-06
2.59824e-06
-4.14843e-06
9.34001e-07
-0.00158044
0.001582
-1.6613e-06
3.02467e-06
-2.70032e-06
1.83455e-06
-0.00158591
0.00158685
-2.74895e-06
1.85509e-06
5.25826e-08
-2.31763e-08
0.00153144
-4.34211e-08
1.80144e-07
3.26872e-07
-0.00153382
0.00153461
-1.5055e-07
2.74322e-07
7.80398e-07
-0.001537
0.00153784
-2.12727e-07
3.67623e-07
1.41111e-06
-0.00154055
0.00154152
-2.82509e-07
4.50462e-07
2.03922e-06
-0.00154425
0.00154519
-3.4522e-07
5.00993e-07
2.76747e-06
-0.00154848
0.00154966
-3.83725e-07
5.15659e-07
3.41993e-06
-0.00155321
0.00155435
-3.95184e-07
4.57864e-07
3.84278e-06
-0.00155762
0.0015587
-3.55464e-07
2.71844e-07
4.08627e-06
-0.00156209
0.00156331
-2.25024e-07
-7.72244e-08
4.21002e-06
-0.00156741
0.00156894
3.14074e-08
-6.85084e-07
4.11766e-06
-0.00157406
0.00157597
4.77759e-07
-1.51234e-06
3.86095e-06
-0.00158229
0.00158456
1.08962e-06
-2.3796e-06
3.57551e-06
-0.00159161
0.00159397
1.70487e-06
-2.63867e-06
3.71211e-06
-0.00160074
0.00160282
1.83168e-06
-1.16602e-06
4.89964e-06
-0.00160796
0.00160912
6.55322e-07
-0.00112996
-1.54781e-05
0.000165392
0.000305721
0.000173846
0.000305527
0.00017383
1.561e-05
-0.00153835
9.35919e-05
-1.33839e-05
-0.000125143
0.00156625
4.13983e-06
7.01334e-05
-2.39297e-06
-0.00172012
-3.93403e-05
-2.53863e-05
-2.54883e-05
-3.92118e-05
5.02014e-05
-0.00160207
-2.45503e-05
0.00160672
-8.42457e-07
-7.1813e-06
8.436e-07
-0.000444273
7.41748e-06
-0.00153694
-0.000121963
0.00156304
1.93076e-05
6.68738e-05
-0.00171266
6.55512e-06
-3.82095e-05
-2.47413e-05
-3.85081e-05
-2.45025e-05
-0.00117737
-6.67675e-05
0.000142289
0.000317175
0.000183778
0.000319444
0.000180743
3.46432e-05
-0.00153754
7.37611e-05
-2.91709e-05
-0.000100266
0.00155686
1.87625e-05
5.52584e-05
-1.37468e-05
-0.00168285
-3.43661e-05
-2.03513e-05
-2.15256e-05
-3.2754e-05
-7.51339e-06
-0.000443756
6.97863e-06
-1.28231e-07
8.75101e-06
-0.00164192
-2.88983e-05
0.00165268
5.37363e-06
-3.1807e-06
-0.00168098
-4.68544e-07
3.35259e-06
6.98667e-07
3.26912e-06
-0.00154052
-8.48836e-05
0.00155644
3.90544e-05
4.6643e-05
-0.00166307
2.2793e-05
-2.72042e-05
-1.89474e-05
-3.07408e-05
-1.67117e-05
-0.00148583
-0.000121577
0.00149387
3.07282e-05
6.20856e-06
-0.00154414
2.59596e-05
-3.16083e-05
-2.69285e-06
-1.72757e-05
-1.85011e-05
-0.00155486
2.28459e-05
2.75878e-05
-3.25289e-05
-2.70021e-05
0.00156244
1.64895e-05
1.27413e-05
-1.08317e-05
-2.74498e-05
-0.0015854
-1.39614e-05
-0.00162028
-1.11677e-05
0.00163355
1.10342e-06
-1.02434e-06
-4.35885e-06
2.3137e-06
-0.00165673
-1.14147e-06
2.35551e-05
-0.00162062
-2.05577e-05
0.00164356
2.71126e-05
-1.64686e-06
7.48068e-06
-4.4445e-07
-2.86518e-07
4.7973e-08
-0.00172954
9.61878e-06
9.87526e-08
-0.00159701
-1.7528e-05
0.00159937
2.70114e-05
2.62597e-05
-2.35485e-05
-0.00160118
-4.07645e-06
-0.00165404
-5.15744e-07
-1.3771e-06
-0.00162818
0.00164989
2.66285e-05
2.3539e-05
8.84844e-09
5.92353e-06
-7.34593e-07
-0.00172895
-2.88626e-06
8.10788e-06
-1.23905e-05
-0.00161714
-1.18165e-05
0.00162557
4.75735e-06
-1.93689e-06
-8.08333e-07
1.02061e-06
-0.00163912
-1.59914e-06
1.85148e-05
-0.00163906
-2.30862e-05
0.00164915
5.63606e-06
5.70429e-07
-6.20718e-10
-0.00166832
4.65295e-06
2.33625e-05
3.00772e-05
-0.00161122
-2.63558e-07
-0.00161381
-1.62808e-05
0.00161962
5.65353e-06
1.99247e-05
-2.50272e-05
-0.00163334
4.56631e-05
-3.06568e-05
0.000427061
0.000422499
0.000428758
0.000424602
8.27136e-05
0.00163499
3.91613e-05
3.58154e-05
-0.00162541
0.000427958
5.28191e-05
0.000425594
0.00042839
0.000426499
6.73193e-05
4.58342e-06
-0.00166457
-1.87065e-06
2.85802e-06
-0.00162821
-7.84027e-06
0.00163181
5.75467e-06
-1.69384e-06
1.5789e-06
-0.00163651
1.06681e-07
-1.10696e-05
3.66055e-06
7.38566e-06
-8.34183e-08
5.51861e-07
1.10264e-05
-1.79541e-05
-4.4365e-07
-0.000149086
4.84317e-06
-0.000408505
9.33859e-05
-4.14663e-06
-0.000117193
0.000431565
0.00159765
5.03179e-05
-0.00159244
-2.24401e-05
0.00042685
0.000425606
0.00042199
0.000420753
8.98315e-05
0.000425249
0.000420295
8.93079e-05
5.53286e-06
2.28999e-05
0.000436062
-4.69075e-06
-3.27748e-05
1.01967e-05
-0.000405536
9.07229e-05
-8.41576e-06
0.000427448
-0.000114472
-1.102e-05
3.62013e-06
7.38639e-06
1.19958e-07
1.09479e-05
-1.79028e-05
-0.000148838
6.9491e-07
-0.000407505
9.27216e-05
5.80548e-06
-0.000116745
0.000430515
1.48103e-06
1.0707e-05
-0.00014705
-1.26507e-06
-1.7624e-05
7.16592e-07
-1.10065e-05
7.37373e-06
-5.84224e-07
3.50022e-06
-0.000403987
8.90464e-05
0.000425626
1.258e-05
-0.000113125
4.68154e-06
-1.15509e-05
2.99375e-06
7.46784e-06
-3.59241e-06
3.80677e-06
9.66141e-06
-1.66296e-05
-3.40611e-06
-0.000142771
1.05375e-05
-0.000146556
-1.74986e-05
1.75328e-06
2.34843e-05
-0.000402281
8.20175e-05
-1.90375e-05
-0.000105074
0.00042083
-1.09242e-05
7.39674e-06
3.38731e-06
8.56584e-07
2.16858e-05
0.000435996
-3.18784e-05
6.98924e-06
-6.6389e-07
4.87398e-07
-1.1757e-06
-0.000440257
1.33009e-06
1.14328e-05
1.59567e-05
-2.30986e-05
-1.1217e-05
0.000435102
0.00165827
1.5934e-05
-0.00164202
-3.4945e-05
0.00166827
2.12251e-05
1.11576e-05
0.00042345
0.000423345
0.000420638
0.000420983
2.16641e-05
-1.65654e-06
-3.17783e-06
-0.000430143
4.87029e-06
9.76877e-06
-7.12839e-06
-6.80221e-06
-5.30572e-06
-9.81144e-06
1.42212e-05
6.41965e-06
-7.97476e-06
0.000427094
9.51968e-06
-0.000406468
3.72324e-05
3.62811e-05
-4.07066e-05
0.000418334
-4.47538e-05
-1.20509e-05
2.71731e-06
7.6923e-06
6.32264e-06
8.97185e-06
-1.60585e-05
-0.000141425
4.32368e-06
-1.45897e-05
2.98769e-06
-4.7827e-05
3.70709e-06
2.81351e-06
4.04757e-06
2.63085e-06
-0.000399961
7.53508e-05
2.95046e-05
-9.87616e-05
0.000417288
2.41075e-07
3.99958e-06
-0.000115163
-6.78594e-06
2.40622e-06
-3.86894e-05
1.52787e-05
2.73849e-06
-2.39563e-05
4.46277e-05
-0.00143335
-1.7737e-05
0.00139513
3.56213e-05
2.33241e-05
-1.83657e-05
0.000120912
-0.00125612
1.64533e-05
-0.00152234
3.34013e-05
-1.54612e-05
-3.42431e-05
0.00152089
1.69188e-05
7.52595e-05
-1.49343e-05
-9.18944e-05
-0.00152521
-0.00156392
-1.1707e-05
0.00158823
6.61054e-05
2.46842e-06
-9.08197e-07
-0.00167025
3.81607e-05
1.1309e-05
-0.00160687
-1.08155e-05
0.0016198
-2.77914e-05
1.22443e-06
4.55881e-07
-0.00164349
-1.12161e-05
0.000119078
3.09309e-05
-0.00125953
-0.0015239
-3.282e-05
0.00152212
1.77429e-05
7.27392e-05
-8.92431e-05
1.99618e-05
-0.00152509
-0.0014574
-3.08277e-05
0.00142509
2.78762e-05
7.67185e-05
-5.75191e-05
0.000102622
-0.00129955
2.16628e-05
-0.0015309
2.48837e-05
-2.05933e-05
-2.56825e-05
0.00152906
3.17418e-05
5.83894e-05
-2.78018e-05
-7.2153e-05
-0.00152953
-3.19978e-05
-0.00152218
4.60165e-05
0.000405895
0.000369444
0.000369991
-8.06115e-05
-8.09061e-05
-7.44415e-05
-7.42531e-05
0.000266867
-1.57122e-06
2.17533e-05
1.10091e-05
2.17908e-05
4.81994e-05
2.11843e-06
-0.000114327
0.00152472
3.11297e-05
-2.37404e-05
0.000167968
-0.00153732
0.00016008
4.41084e-05
0.000307095
0.000174992
0.000307268
0.00017448
-0.00113859
-2.29008e-05
0.000407101
0.000370911
0.000370441
-8.16352e-05
-8.14476e-05
-7.49839e-05
-7.51147e-05
0.000272241
4.15193e-05
0.000163214
-0.00153644
5.91002e-06
2.17064e-05
1.09804e-05
2.17725e-05
4.77101e-05
-4.09497e-06
-0.000114999
-0.00166374
3.80567e-06
3.53097e-05
-0.0016062
0.00161773
1.21097e-05
-2.65553e-05
-0.00163924
1.14039e-06
-9.8987e-06
-0.00155931
-2.22807e-05
0.00157687
5.08559e-05
1.0521e-05
-8.06962e-06
-0.00164096
2.8247e-05
1.26233e-05
-0.00160259
-1.27677e-05
0.00161096
-2.16512e-05
2.15727e-06
-2.10521e-06
-0.00162636
-6.92196e-06
8.90078e-05
9.69634e-05
-0.00133447
-0.00153419
-2.21863e-05
0.00153283
2.20813e-05
4.98589e-05
-6.12822e-05
3.44849e-05
-0.00153367
-0.00151044
-3.45515e-05
0.00150436
1.02977e-05
6.41674e-05
-8.49732e-05
2.45543e-05
-0.00149
-0.00154477
1.07272e-05
1.79836e-05
-2.00903e-05
-1.08574e-05
0.00154552
2.00169e-05
2.57577e-05
-2.98827e-05
-2.23703e-05
-0.00155
-0.000134454
-0.00156167
0.000135122
0.000401646
0.000404068
0.000395364
-4.29172e-05
-5.08623e-05
-4.87321e-05
-4.23483e-05
0.000137504
-2.80008e-05
2.3409e-05
1.28696e-05
2.43781e-05
4.28613e-05
4.09674e-05
-0.000128545
0.0015335
8.60771e-05
-7.16745e-05
0.000120726
-0.00154776
8.73225e-05
0.000148783
0.000371522
0.000234281
0.000385903
0.000221493
-0.00131181
-9.88497e-05
0.000401485
0.000374237
0.000376949
-6.94568e-05
-6.58436e-05
-6.1861e-05
-6.45144e-05
0.000206194
8.45209e-05
8.82781e-05
-0.00156193
6.06893e-05
6.19325e-05
3.07579e-05
5.40268e-05
2.59105e-05
-7.32132e-05
-0.000198806
-0.00162858
1.27264e-05
2.34345e-05
-0.00159935
0.0016063
-1.87265e-05
1.21334e-05
1.29353e-06
-0.00161887
-5.37672e-06
1.96429e-06
-0.00156272
-2.475e-05
0.00156939
1.75311e-05
8.042e-06
-7.53482e-06
-0.00158582
9.40314e-06
4.88051e-06
-0.00158878
8.73413e-06
-9.98181e-06
-8.44427e-06
0.00159202
-9.67299e-07
9.50403e-07
-9.83075e-07
-1.41426e-06
-0.00159726
-0.00162821
-1.48305e-05
2.07661e-05
-0.0015596
-1.51771e-05
0.00156735
2.0105e-05
-4.47105e-07
3.02098e-06
-0.00158692
5.84884e-06
-0.00154445
-2.06591e-05
0.00154789
2.57977e-06
2.39556e-06
-7.49227e-06
-0.0015552
1.55749e-06
-0.00155997
3.14837e-06
8.38795e-06
-1.11176e-05
-3.63339e-06
0.00156218
1.20519e-06
1.80896e-06
-2.75637e-06
-2.24924e-06
-0.00156619
-0.00153099
1.73853e-05
0.000409701
0.000372411
-8.22249e-05
-7.56536e-05
0.00027727
0.000166528
0.000305582
0.000173857
-0.00112942
2.18308e-05
1.10679e-05
2.18929e-05
4.82166e-05
-1.125e-06
-0.000114531
-1.88966e-05
0.00152771
0.000171057
-0.00153888
0.00017265
-0.00154123
0.000408881
0.000371469
0.000371899
-8.19314e-05
-8.20407e-05
-7.5482e-05
-7.54053e-05
0.000275736
0.000208982
9.81175e-06
-9.37662e-05
-0.000104406
0.000462211
0.000456274
-0.00165405
-0.00172324
-3.87007e-05
-2.47492e-05
6.75589e-05
1.65407e-06
-1.12138e-05
-1.85052e-05
-1.87189e-05
-1.3681e-06
-0.000496647
3.48567e-05
-7.26607e-06
-0.000209246
9.46554e-06
-0.0016278
0.000113775
-0.00163022
0.000112864
1.32249e-05
-9.36266e-05
-0.000104018
-0.000104226
0.000460484
0.000461119
0.000455263
0.000454615
-0.00164964
-1.91363e-05
0.000201011
2.75557e-05
-9.14066e-05
-0.000101336
-0.000101929
0.000455495
0.000456449
0.000450823
0.000449865
-0.00163752
-1.84134e-05
-1.1112e-05
-1.85852e-05
-0.000495131
2.15386e-06
3.44434e-05
-0.000205298
1.32406e-05
-0.00162243
0.000110275
-0.00170578
9.66579e-06
-3.79284e-05
-2.39848e-05
-3.74768e-05
-2.43602e-05
6.55223e-05
-9.23189e-05
-0.000103286
-0.000102914
0.000459039
0.000458286
0.000452508
0.000453262
-0.00164387
4.47878e-06
-1.80725e-05
-1.09309e-05
-1.83275e-05
-0.000490516
-3.49765e-06
3.3514e-05
1.78954e-05
-0.00161783
0.000107327
-0.00152093
6.74148e-05
0.000403752
0.000369303
0.000368786
-7.95366e-05
-7.89275e-05
-7.28116e-05
-7.31877e-05
0.000257503
0.000153947
0.000310797
0.000176126
0.000309955
0.000177439
-0.00115124
2.22442e-05
1.11822e-05
2.21421e-05
4.4822e-05
-1.84041e-05
-0.000121547
-5.53959e-05
0.0015238
0.000142076
-0.00154067
0.000155397
-0.00153703
0.000401937
0.000369678
0.000369855
-7.51967e-05
-7.65282e-05
-7.0498e-05
-6.97376e-05
0.000239875
2.16264e-05
1.09697e-05
2.17223e-05
4.75174e-05
8.36099e-06
-0.000115219
0.000193112
3.97838e-05
-9.95588e-05
-8.77701e-05
-9.84745e-05
0.000452919
0.000451612
0.000446177
0.000447487
-0.00162957
-0.00169571
-3.57877e-05
-2.33362e-05
-3.6651e-05
-2.26271e-05
6.15845e-05
1.0827e-05
-1.00286e-05
-1.68357e-05
-1.72444e-05
-8.431e-06
-0.000478382
2.96559e-05
-2.43573e-05
-0.000178749
3.20521e-05
-0.00160526
9.23092e-05
-1.78782e-05
-1.0664e-05
-1.80031e-05
-0.000487643
5.52306e-06
3.29583e-05
-0.00161179
0.000101615
5.75793e-05
-8.45606e-05
-9.32645e-05
-9.51864e-05
0.000446281
0.000447975
0.000442878
0.000441029
-0.0016206
-7.86256e-05
9.82853e-05
7.37506e-05
-4.97133e-05
-3.86311e-05
-5.81203e-05
0.000420381
0.000426236
0.000422078
0.00041883
-0.0015983
-1.6105e-05
-8.82102e-06
-1.59261e-05
-0.000471115
1.23114e-05
2.78583e-05
-0.000153469
3.96297e-05
-0.00159675
7.83715e-05
-0.00163601
1.76283e-05
-2.05579e-05
-6.83632e-06
-1.52875e-05
-1.10699e-05
2.86201e-05
-6.93915e-05
-8.64183e-05
-8.14941e-05
0.0004403
0.000436718
0.000431843
0.00043529
-0.00160699
1.20111e-05
-3.18271e-06
-2.38807e-06
-6.03238e-06
-0.000435715
-1.5065e-05
9.10151e-06
3.70759e-05
-0.0015902
5.38174e-05
-0.000413141
2.31437e-05
0.000422174
-2.69566e-05
3.098e-05
-5.87164e-07
7.31802e-06
-4.80231e-06
-3.20131e-05
-0.000429459
-7.50542e-06
3.1809e-05
-0.00150772
-4.78814e-05
-2.64533e-05
-4.4079e-05
-3.39982e-05
8.39842e-05
-0.00164481
4.03844e-05
-2.27683e-05
-9.05932e-06
-1.58432e-05
-1.43215e-05
1.97353e-05
9.51628e-06
-0.000436031
-5.01549e-06
1.71221e-05
-5.14648e-06
-7.29282e-06
-8.33649e-06
-0.0016097
4.13916e-05
-3.06888e-05
-2.21176e-05
-2.83538e-05
-2.27738e-05
5.87892e-05
-0.000255698
2.91334e-05
0.000285551
4.69778e-05
-2.4082e-05
-3.30821e-05
-3.35293e-05
-2.27955e-08
1.34573e-05
-1.34946e-05
6.01652e-08
1.34014e-06
2.92554e-05
-7.05438e-05
-2.45857e-05
-1.33374e-06
6.58655e-05
8.14208e-09
-1.10766e-05
2.07154e-09
7.39108e-06
3.67517e-06
-9.18489e-07
2.93496e-05
-7.07453e-05
6.61324e-05
8.37649e-07
-2.46579e-05
4.68782e-08
1.33719e-05
-2.00845e-08
-1.33987e-05
-3.86387e-08
-2.08649e-05
2.0828e-05
7.5591e-08
-3.87326e-07
1.10447e-05
4.86147e-07
-0.000149558
-1.79908e-05
8.64982e-07
-0.000119547
2.35583e-05
0.000128543
-6.68278e-07
-3.27545e-05
-6.50652e-07
-0.000119864
2.36444e-05
-3.28595e-05
0.000128922
8.04621e-07
7.51818e-08
-2.07443e-05
-3.77993e-08
2.0707e-05
-2.084e-05
3.14055e-10
2.0801e-05
1.10202e-05
-2.60753e-07
-0.000149731
-1.79966e-05
-0.000120027
2.36347e-05
-3.28909e-05
-4.54226e-07
0.000129084
1.34363e-05
6.40376e-09
-1.34655e-05
-1.10996e-05
1.93726e-08
7.39149e-06
3.69673e-06
2.9357e-05
-7.06569e-05
6.60104e-05
-9.7395e-07
-2.46571e-05
0.000127814
8.82235e-07
5.01795e-06
-7.62234e-07
-0.000126306
1.47344e-06
1.60592e-05
0.000114423
-1.39324e-06
-6.56216e-07
-0.000127794
1.5291e-06
0.000129707
7.53946e-07
-2.47451e-07
-4.75956e-06
2.64869e-07
-0.000131617
1.65019e-07
-4.86678e-06
-0.000131658
-1.31057e-07
-0.000127765
1.06993e-06
1.64656e-06
-8.57112e-07
0.000129607
1.43464e-06
-5.37639e-07
0.00012972
-4.91514e-06
-0.000131658
2.13727e-07
5.11129e-06
-0.000126286
9.96353e-07
2.22462e-06
1.61331e-05
-2.00249e-06
0.000114597
1.61388e-05
0.000114395
1.51599e-06
1.37227e-06
5.1644e-06
-1.16396e-06
-0.00012628
7.7385e-08
1.32764e-05
-1.3301e-05
-5.27756e-08
2.92389e-05
-7.06614e-05
-2.45897e-05
1.32923e-06
6.60209e-05
2.9835e-07
-1.10349e-05
-2.4253e-07
7.37511e-06
3.60386e-06
2.0912e-06
2.90782e-05
-7.04606e-05
6.572e-05
-1.96486e-06
-2.44662e-05
1.34053e-05
8.54486e-08