/*--------------------------------*- C++ -*----------------------------------*\
| =========                 |                                                 |
| \\      /  F ield         | OpenFOAM: The Open Source CFD Toolbox           |
|  \\    /   O peration     | Version:  2012                                  |
|   \\  /    A nd           | Website:  www.openfoam.com                      |
|    \\/     M anipulation  |                                                 |
\*---------------------------------------------------------------------------*/
FoamFile
{
    version     2.0;
    format      ascii;
    class       volVectorField;
    location    "0.106/fluid";
    object      cellMotionU;
}
// * * * * * * * * * * * * * * * * * * * * * * * * * * * * * * * * * * * * * //

dimensions      [0 1 -1 0 0 0 0];


internalField   nonuniform List<vector> 
16422
(
(5.40943e-07 9.23727e-06 7.9243e-07)
(-7.83888e-06 2.35356e-05 -8.9442e-06)
(-5.76587e-05 2.37778e-05 -1.35958e-05)
(-0.000112044 4.36267e-05 7.87128e-06)
(-0.00011086 0.000103177 2.39787e-05)
(-6.41605e-05 0.000180261 2.69681e-05)
(6.11056e-06 0.000252077 2.26268e-05)
(8.12427e-05 0.000302613 1.65849e-05)
(0.00015047 0.000326386 1.11774e-05)
(0.000207408 0.000324892 6.70866e-06)
(0.00024648 0.00030353 3.12196e-06)
(0.000259332 0.000267388 4.05708e-07)
(0.000236227 0.000217671 -1.31299e-06)
(0.000172337 0.000153044 -1.56259e-06)
(8.28762e-05 7.33031e-05 -7.95453e-07)
(1.24551e-05 1.78626e-05 9.25176e-07)
(-1.25191e-05 2.11342e-05 -1.74062e-05)
(-5.92924e-05 1.55627e-05 -1.95648e-05)
(-9.47816e-05 3.08731e-05 -3.81914e-06)
(-8.59178e-05 7.73887e-05 9.48406e-06)
(-3.65264e-05 0.000139181 1.43134e-05)
(3.4869e-05 0.000194999 1.35892e-05)
(0.000110876 0.00023284 1.08217e-05)
(0.000180774 0.000249347 7.72993e-06)
(0.000236151 0.000245841 4.93793e-06)
(0.000272933 0.000228215 2.38074e-06)
(0.000284446 0.000200313 -2.54171e-08)
(0.000258947 0.000164311 -1.6785e-06)
(0.000188887 0.000116356 -1.80849e-06)
(9.01905e-05 5.52278e-05 -8.53471e-07)
(6.98658e-06 1.78369e-05 -7.75714e-07)
(-1.27083e-05 1.41937e-05 -2.29345e-05)
(-4.73453e-05 9.85554e-06 -2.88456e-05)
(-6.87604e-05 1.8413e-05 -1.82002e-05)
(-5.62187e-05 4.29519e-05 -5.55575e-06)
(-9.74691e-06 7.46217e-05 2.20443e-06)
(5.70899e-05 0.000102168 5.50117e-06)
(0.000130047 0.000120363 6.04701e-06)
(0.000197819 0.000127841 5.16537e-06)
(0.000251456 0.000124918 3.78569e-06)
(0.000286168 0.000114738 2.01e-06)
(0.000296361 0.000100292 -1.32924e-07)
(0.000269411 8.22715e-05 -1.78126e-06)
(0.00019496 5.83548e-05 -1.79687e-06)
(9.32731e-05 2.7827e-05 -8.09546e-07)
(4.30408e-06 2.15522e-05 1.23227e-06)
(-2.51064e-05 2.97481e-05 -9.78219e-06)
(-0.000106008 3.20232e-05 -6.80888e-06)
(-0.00017446 5.61597e-05 1.17637e-05)
(-0.000174409 0.000111929 2.35769e-05)
(-0.000124766 0.000179661 2.55526e-05)
(-4.92092e-05 0.000239487 2.19672e-05)
(3.14679e-05 0.0002781 1.69456e-05)
(0.000107786 0.000293765 1.20162e-05)
(0.000171772 0.000290297 7.84385e-06)
(0.000219481 0.000271566 4.24105e-06)
(0.000239802 0.000241205 1.46021e-06)
(0.000223484 0.000199395 -4.27787e-07)
(0.00016439 0.000141808 -9.5647e-07)
(7.87819e-05 6.75985e-05 -5.13176e-07)
(-1.74009e-05 2.53562e-05 2.49548e-06)
(-4.92261e-05 2.47478e-05 -1.23865e-05)
(-0.000112388 2.30194e-05 -1.268e-05)
(-0.000160627 4.11982e-05 1.9306e-08)
(-0.00015513 8.5519e-05 1.0252e-05)
(-0.000102342 0.000140419 1.40378e-05)
(-2.4696e-05 0.000186443 1.3628e-05)
(5.84465e-05 0.000214817 1.1497e-05)
(0.000134663 0.000224302 8.92446e-06)
(0.000196563 0.000218388 6.46755e-06)
(0.000239496 0.00020292 3.99335e-06)
(0.000259025 0.000179898 1.40409e-06)
(0.000241338 0.000149862 -5.59412e-07)
(0.000178229 0.00010747 -1.09474e-06)
(8.53241e-05 5.11488e-05 -5.3314e-07)
(-4.94192e-05 2.09893e-05 2.06897e-06)
(-6.43794e-05 1.6199e-05 -1.48337e-05)
(-0.00010658 1.34487e-05 -2.04437e-05)
(-0.000135947 2.35055e-05 -1.31179e-05)
(-0.000126082 4.72345e-05 -3.38965e-06)
(-7.69608e-05 7.54009e-05 3.08022e-06)
(-3.74643e-06 9.81957e-05 6.18313e-06)
(7.70812e-05 0.000111809 7.00911e-06)
(0.000151728 0.00011554 6.5512e-06)
(0.000210898 0.000110865 5.56264e-06)
(0.000249976 0.000102017 3.86965e-06)
(0.000266883 9.02861e-05 1.51643e-06)
(0.000248674 7.52847e-05 -5.59469e-07)
(0.000183219 5.41419e-05 -1.05794e-06)
(8.73451e-05 2.55013e-05 -4.71473e-07)
(-7.83043e-05 3.45121e-05 7.15501e-06)
(-0.000110001 3.82655e-05 -6.16955e-07)
(-0.000174796 5.02515e-05 3.67838e-06)
(-0.000218052 8.34324e-05 1.42155e-05)
(-0.000207636 0.000135479 2.03201e-05)
(-0.000155515 0.000191471 2.09375e-05)
(-7.8919e-05 0.000236311 1.80471e-05)
(1.18986e-06 0.000261132 1.4394e-05)
(7.74228e-05 0.000266443 1.0649e-05)
(0.000144888 0.000259329 7.21001e-06)
(0.000195319 0.000242695 4.33834e-06)
(0.00022191 0.00021755 1.92839e-06)
(0.00021158 0.000183734 2.95802e-07)
(0.000157361 0.000132701 -3.58771e-07)
(7.53703e-05 6.34805e-05 -2.231e-07)
(-0.000119113 3.70694e-05 6.75099e-06)
(-0.000135352 3.4221e-05 -1.65053e-06)
(-0.000180643 3.99813e-05 -1.8652e-06)
(-0.000209614 6.53878e-05 4.5258e-06)
(-0.000194883 0.000106661 9.96806e-06)
(-0.000139213 0.000151548 1.2036e-05)
(-5.99536e-05 0.000184901 1.15471e-05)
(2.50756e-05 0.000201648 9.98018e-06)
(0.000101638 0.000202992 8.19903e-06)
(0.000165112 0.000194754 6.42738e-06)
(0.00021208 0.000181162 4.3977e-06)
(0.000235892 0.00016267 2.18404e-06)
(0.000224339 0.000137418 3.39541e-07)
(0.000168239 0.000100059 -3.8561e-07)
(8.06652e-05 4.73658e-05 -2.13615e-07)
(-0.00015286 2.70501e-05 5.08946e-06)
(-0.000150105 2.23279e-05 -4.23246e-06)
(-0.000173791 2.3642e-05 -8.75619e-06)
(-0.000189356 3.70054e-05 -5.71988e-06)
(-0.000171983 5.898e-05 -2.01122e-07)
(-0.00011948 8.14366e-05 3.93812e-06)
(-4.33486e-05 9.75623e-05 6.06142e-06)
(4.064e-05 0.000104965 6.71931e-06)
(0.00011746 0.000104286 6.5367e-06)
(0.000178292 9.81084e-05 5.92454e-06)
(0.000219679 9.03416e-05 4.51077e-06)
(0.000240551 8.13001e-05 2.4331e-06)
(0.000228244 6.91514e-05 4.79035e-07)
(0.000171229 5.04516e-05 -3.21769e-07)
(8.18504e-05 2.35492e-05 -1.48142e-07)
(-0.000229529 5.25742e-05 8.72099e-06)
(-0.000225529 5.4524e-05 6.15256e-06)
(-0.000238322 7.34194e-05 7.17903e-06)
(-0.000242533 0.000109898 1.01642e-05)
(-0.00021708 0.000157042 1.18309e-05)
(-0.000162265 0.000202547 1.14981e-05)
(-8.93678e-05 0.000234809 9.90421e-06)
(-1.26056e-05 0.000248874 7.91633e-06)
(6.15924e-05 0.000246025 5.756e-06)
(0.000126571 0.000235768 4.01042e-06)
(0.000178443 0.000221362 2.50721e-06)
(0.000207685 0.000200699 1.23429e-06)
(0.000200987 0.00017121 2.8987e-07)
(0.000151407 0.000126023 -9.65026e-08)
(7.30322e-05 6.07049e-05 -8.54e-08)
(-0.000250013 5.16008e-05 7.12711e-06)
(-0.000236405 4.89953e-05 3.96947e-06)
(-0.000240789 6.0889e-05 3.09902e-06)
(-0.000239189 8.92434e-05 4.72769e-06)
(-0.000210187 0.000126802 6.35342e-06)
(-0.000150803 0.000161977 6.83106e-06)
(-7.32295e-05 0.000184917 6.45599e-06)
(9.83728e-06 0.000192816 5.58033e-06)
(8.55499e-05 0.000188438 4.64997e-06)
(0.000147191 0.000178405 3.73485e-06)
(0.000194087 0.000165963 2.65835e-06)
(0.000218966 0.000150759 1.46789e-06)
(0.000210205 0.000128084 3.91436e-07)
(0.000159288 9.41273e-05 -6.70631e-08)
(7.79877e-05 4.5688e-05 -5.65119e-08)
(-0.000261445 3.38966e-05 4.84857e-06)
(-0.000235805 3.03706e-05 1.16133e-06)
(-0.000230716 3.56826e-05 -1.20708e-06)
(-0.0002224 5.03755e-05 -8.69995e-07)
(-0.000192249 6.9928e-05 1.04426e-06)
(-0.000135362 8.71948e-05 2.79031e-06)
(-5.8522e-05 9.79187e-05 3.72287e-06)
(2.50482e-05 0.000100591 4.02175e-06)
(0.000101198 9.6744e-05 3.94825e-06)
(0.000160484 8.98562e-05 3.60233e-06)
(0.000201524 8.29831e-05 2.80299e-06)
(0.000222123 7.51654e-05 1.64939e-06)
(0.000211686 6.45206e-05 5.261e-07)
(0.000160327 4.72407e-05 -2.88403e-09)
(7.85191e-05 2.25363e-05 -2.19997e-08)
(-1.84145e-06 6.85234e-06 1.91856e-07)
(-5.86029e-06 2.15083e-05 -1.64942e-06)
(-9.375e-07 7.63689e-06 4.27368e-07)
(-5.38102e-06 2.16868e-05 -2.02677e-06)
(4.36812e-06 1.77559e-05 4.63312e-07)
(-2.63024e-07 2.87912e-05 -6.56818e-06)
(-6.9197e-06 2.41251e-05 -6.65055e-06)
(-3.18991e-05 2.55356e-05 -1.55684e-05)
(-6.75792e-07 8.05233e-06 5.40454e-07)
(-4.72159e-06 1.99728e-05 -3.8266e-06)
(1.01065e-05 1.33113e-05 8.30323e-07)
(-2.06618e-06 2.01323e-05 -1.12938e-05)
(-2.44157e-06 1.89446e-05 4.52177e-07)
(-1.96277e-06 2.755e-05 6.04621e-07)
(-7.17497e-06 2.47158e-05 -6.87049e-06)
(-3.84167e-05 2.65923e-05 -1.49293e-05)
(-1.0836e-05 2.98492e-05 -9.39098e-06)
(-6.56839e-05 3.06206e-05 -1.12346e-05)
(-4.26705e-06 2.10033e-05 -4.18589e-06)
(1.06239e-05 1.54929e-05 8.97014e-07)
(-4.06766e-06 2.12885e-05 -1.13004e-05)
(5.68694e-06 1.87462e-05 7.56887e-07)
(-5.25015e-06 2.67412e-05 -7.19832e-06)
(9.71571e-07 2.21681e-05 1.6731e-06)
(-1.94914e-05 2.49705e-05 -1.04593e-05)
(5.04118e-06 2.06456e-05 8.13388e-07)
(-6.9317e-06 3.02127e-05 -6.99208e-06)
(-3.94361e-05 2.97857e-05 5.26537e-06)
(-6.26689e-05 3.49668e-05 -2.3758e-06)
(-1.92434e-06 2.78513e-05 6.08875e-07)
(-2.27091e-06 2.92399e-05 7.07987e-07)
(-2.25323e-06 1.66163e-05 1.23936e-06)
(-2.6033e-06 2.77895e-05 7.33455e-07)
(-8.8078e-06 2.10358e-05 5.63719e-07)
(-5.35204e-06 1.98198e-05 1.14195e-06)
(-2.28472e-06 2.91796e-05 7.09045e-07)
(-2.44475e-06 1.95959e-05 4.87123e-07)
(-2.30324e-06 2.8912e-05 7.15227e-07)
(-2.49485e-06 1.90031e-05 5.0571e-07)
(-1.07661e-06 1.6836e-05 1.32547e-06)
(1.1186e-06 1.18363e-05 5.03641e-07)
(-2.62991e-06 2.74893e-05 7.51723e-07)
(3.03631e-06 2.05991e-05 -1.86032e-07)
(-2.4397e-06 1.96182e-05 4.83687e-07)
(-9.09759e-06 2.00707e-05 3.32011e-07)
(-5.11457e-06 1.94389e-05 1.03161e-06)
(-2.9864e-06 2.37081e-05 -3.18062e-06)
(-2.31681e-06 2.88529e-05 7.16744e-07)
(-5.31653e-06 2.24737e-05 -1.13942e-06)
(-2.32188e-06 2.13129e-05 -6.00389e-08)
(-1.54511e-05 1.14529e-05 3.08013e-06)
(-2.24492e-06 5.24042e-06 -1.49923e-08)
(-1.13453e-05 1.70762e-05 1.94201e-06)
(-7.63547e-06 1.60079e-05 1.68436e-06)
(1.87499e-06 1.38422e-05 5.99715e-07)
(1.28039e-06 1.60362e-05 5.0511e-07)
(3.40899e-06 2.22753e-05 -1.01393e-06)
(-3.16383e-06 5.24119e-06 3.91963e-07)
(-2.42656e-08 2.09731e-05 5.92805e-08)
(1.64497e-06 2.15683e-05 -5.67998e-07)
(-7.31662e-06 1.88167e-05 1.27236e-06)
(1.58386e-08 2.6652e-05 -5.12027e-06)
(2.32865e-06 2.99147e-05 -6.08428e-06)
(3.12441e-06 2.60342e-05 -3.57827e-06)
(2.34047e-06 2.83305e-05 -4.43335e-06)
(2.04574e-06 2.4934e-05 -2.37965e-06)
(4.86999e-06 2.718e-05 -3.39163e-06)
(-2.06287e-06 2.36235e-05 4.57429e-07)
(-2.12801e-06 2.42601e-05 5.2142e-07)
(-1.34847e-05 1.72654e-05 3.63016e-06)
(-8.01282e-07 9.35105e-06 4.95809e-08)
(-3.26559e-06 1.68568e-05 3.7456e-07)
(6.41434e-07 2.61171e-05 1.87867e-07)
(-2.03585e-06 1.92294e-05 4.17394e-07)
(-1.4704e-05 1.66766e-05 3.83049e-06)
(-7.70248e-06 2.15664e-05 2.27128e-06)
(-9.77564e-06 2.0109e-05 2.04867e-06)
(-2.32475e-06 2.47426e-05 6.32463e-07)
(-5.17431e-06 2.301e-05 2.68641e-07)
(-1.23902e-05 1.58769e-05 2.60656e-06)
(-2.40884e-06 2.54171e-05 6.93776e-07)
(-1.39219e-05 1.60698e-05 3.56022e-06)
(-1.4319e-05 1.50351e-05 3.26849e-06)
(-1.49245e-06 1.63682e-05 1.26526e-06)
(-2.83241e-06 2.36222e-05 8.68131e-07)
(1.29475e-06 2.15339e-05 3.92141e-07)
(1.52835e-06 2.27523e-05 4.81367e-07)
(-3.04932e-06 1.84469e-05 1.09056e-06)
(-3.11041e-06 1.45749e-05 1.11008e-06)
(-5.42158e-07 9.33631e-06 2.42674e-07)
(-3.02788e-06 1.61215e-05 6.9073e-07)
(-1.50076e-07 8.81714e-06 5.89897e-07)
(-1.76768e-06 1.68293e-05 1.09933e-06)
(-2.80874e-06 2.42333e-05 8.55465e-07)
(8.02064e-07 2.52182e-05 3.56229e-07)
(-1.86346e-06 1.86149e-05 6.47966e-07)
(1.11938e-06 2.40266e-05 4.46755e-07)
(-2.78882e-06 1.45396e-05 1.1e-06)
(-1.13078e-06 1.03301e-05 8.01686e-07)
(5.05389e-08 8.64994e-06 7.05747e-07)
(-3.68867e-06 1.58587e-05 1.27845e-06)
(-7.10496e-06 2.02101e-05 1.15884e-06)
(-2.55071e-06 2.4742e-05 7.53053e-07)
(-6.84682e-06 2.09501e-05 7.56904e-07)
(-2.99569e-06 2.2325e-05 5.49561e-07)
(-1.39924e-05 1.46855e-05 3.04662e-06)
(-6.8703e-06 1.93287e-05 1.91658e-06)
(-2.92796e-06 2.32368e-05 -5.6068e-07)
(-9.38072e-06 1.9511e-05 1.7029e-06)
(-2.52954e-06 2.53911e-05 7.54329e-07)
(-1.53234e-05 1.53463e-05 3.85584e-06)
(-7.88164e-06 2.0576e-05 2.33573e-06)
(-9.5436e-06 1.94226e-05 2.08326e-06)
(-1.56943e-05 1.42211e-05 3.63576e-06)
(-7.96275e-06 1.94933e-05 2.2249e-06)
(-2.44608e-06 1.23258e-05 3.08816e-07)
(7.96833e-07 2.34664e-05 -4.94376e-07)
(-3.80901e-06 1.73757e-05 4.76059e-07)
(-2.21066e-06 1.12619e-05 1.5062e-07)
(-2.33073e-06 1.17541e-05 -1.92817e-07)
(-3.44896e-06 1.30224e-05 4.85994e-07)
(4.42285e-06 2.96135e-05 -2.51081e-06)
(6.00546e-06 2.88221e-05 -2.41022e-06)
(7.24765e-06 2.94627e-05 -3.78058e-06)
(-2.44499e-06 1.95872e-05 3.8137e-07)
(-3.76978e-06 1.23274e-05 1.01574e-06)
(-3.35198e-06 2.16083e-05 4.62718e-07)
(-9.23762e-07 2.20776e-05 -1.94986e-07)
(-9.63741e-06 1.66545e-05 1.76e-06)
(-5.44175e-06 1.61771e-05 1.00881e-06)
(2.78207e-07 2.24895e-05 -6.30286e-07)
(-2.31063e-06 1.56902e-05 9.35592e-07)
(-3.20679e-06 1.12625e-05 6.67465e-07)
(-3.45496e-06 1.21463e-05 8.29201e-07)
(-3.09267e-06 1.14165e-05 5.38914e-07)
(-1.56758e-06 1.36901e-05 7.10501e-07)
(-5.52444e-06 1.50591e-05 1.58144e-06)
(-4.86672e-06 1.23362e-05 1.11339e-06)
(5.9626e-06 2.83609e-05 -4.27045e-06)
(2.36926e-06 2.78769e-05 -2.0398e-06)
(7.22549e-07 2.55209e-05 -1.00188e-06)
(3.92485e-06 2.73823e-05 -2.06963e-06)
(7.8084e-07 2.56759e-05 -1.78084e-06)
(4.83181e-06 2.86324e-05 -3.36418e-06)
(2.37365e-06 2.60803e-05 -1.92981e-06)
(9.62755e-06 2.53873e-05 -1.79855e-06)
(-2.26911e-06 2.08554e-05 4.31745e-07)
(9.28333e-07 2.19769e-05 -1.07267e-07)
(9.5267e-07 2.13413e-05 1.42123e-07)
(6.65705e-06 2.34252e-05 -1.43711e-06)
(-1.39641e-06 1.16192e-05 -8.99172e-08)
(-1.00173e-06 1.19936e-05 1.56175e-07)
(9.22256e-06 2.99862e-05 -1.56293e-06)
(-1.95821e-06 2.63543e-05 5.49515e-07)
(1.92969e-06 2.72172e-05 3.16373e-07)
(9.19561e-06 3.05908e-05 -1.49854e-06)
(1.81327e-06 2.64843e-05 2.66597e-07)
(-2.46092e-06 8.91702e-06 -5.59269e-07)
(-5.79091e-06 8.47868e-06 -4.5545e-07)
(-6.69325e-07 1.24203e-05 3.82258e-07)
(-1.02764e-06 1.21351e-05 2.00394e-07)
(8.79289e-06 3.10542e-05 -1.3389e-06)
(-1.81111e-06 2.8481e-05 6.19222e-07)
(1.8099e-06 2.77056e-05 3.54379e-07)
(8.88857e-06 3.08904e-05 -1.42542e-06)
(1.90576e-06 2.80533e-05 3.95838e-07)
(-1.12308e-05 1.95839e-05 3.46339e-06)
(-2.17446e-06 2.99461e-05 6.84839e-07)
(-7.24015e-06 2.23743e-05 2.46178e-06)
(-2.01294e-05 1.23506e-05 5.4828e-06)
(-6.79331e-06 2.29572e-05 2.45032e-06)
(-1.93759e-05 1.31555e-05 5.45469e-06)
(-1.21845e-05 1.84208e-05 3.4824e-06)
(-6.29756e-06 1.24524e-05 3.24409e-07)
(-6.44711e-06 1.22267e-05 5.70565e-07)
(5.75098e-06 3.14714e-05 -1.34122e-06)
(-2.52288e-06 2.84155e-05 6.78854e-07)
(-1.5796e-07 2.81073e-05 3.7553e-07)
(-1.17448e-07 2.84434e-05 3.2485e-07)
(5.9586e-06 3.13071e-05 -1.26616e-06)
(-1.28174e-05 1.88961e-05 3.66188e-06)
(-2.18894e-06 2.98825e-05 6.84591e-07)
(-2.05399e-05 1.22026e-05 5.48791e-06)
(-8.57768e-06 2.23463e-05 2.52822e-06)
(-1.97764e-05 1.30642e-05 5.43297e-06)
(-8.19308e-06 2.2908e-05 2.4679e-06)
(-1.36935e-05 1.79516e-05 3.67371e-06)
(-7.81396e-06 2.04485e-05 1.46662e-06)
(-2.47163e-06 2.17078e-05 6.13044e-07)
(-2.34695e-06 2.44071e-05 1.32122e-07)
(-9.52709e-06 2.05548e-05 1.36873e-06)
(-6.9613e-06 1.92037e-05 1.61691e-06)
(-1.96079e-05 1.07588e-05 4.07842e-06)
(-2.64224e-06 2.50509e-05 -2.33708e-07)
(-1.2741e-05 1.71902e-05 3.38432e-06)
(-2.27929e-06 2.76358e-05 6.91649e-07)
(-7.31584e-06 2.17148e-05 2.43609e-06)
(-2.06044e-05 1.14243e-05 5.49353e-06)
(-7.716e-06 2.08926e-05 2.37985e-06)
(-1.2128e-05 1.78556e-05 3.44666e-06)
(-2.1322e-05 1.04537e-05 5.45292e-06)
(7.74445e-06 2.58846e-05 -8.69593e-07)
(-2.89598e-06 2.09006e-05 8.95614e-07)
(1.46927e-06 2.27474e-05 -2.17173e-08)
(2.24393e-06 2.33462e-05 1.64867e-07)
(4.85824e-06 2.34612e-05 -4.54912e-07)
(-6.52269e-06 1.16901e-05 8.41365e-07)
(-6.43143e-06 1.218e-05 6.34572e-07)
(6.41823e-06 3.0412e-05 -1.10045e-06)
(-2.70806e-06 2.63241e-05 8.01268e-07)
(-5.55519e-08 2.76151e-05 4.30213e-07)
(6.25413e-06 3.09803e-05 -1.17924e-06)
(-8.14861e-08 2.68982e-05 4.76892e-07)
(-6.87767e-06 8.85095e-06 1.32755e-06)
(-1.01195e-05 8.39141e-06 1.56463e-06)
(-9.56344e-06 1.8382e-05 2.07871e-06)
(-2.64877e-06 2.17451e-05 7.44816e-07)
(-9.16841e-06 1.92571e-05 1.45285e-06)
(-3.17139e-06 2.24161e-05 5.34171e-07)
(-1.90209e-05 1.04527e-05 4.04254e-06)
(-7.0819e-06 1.89443e-05 1.803e-06)
(-4.34901e-06 2.26398e-05 3.28949e-07)
(-1.42161e-05 1.67121e-05 3.71377e-06)
(-2.41265e-06 2.7607e-05 7.37679e-07)
(-2.09983e-05 1.13379e-05 5.49897e-06)
(-8.66794e-06 2.17029e-05 2.55078e-06)
(-1.36277e-05 1.73941e-05 3.68878e-06)
(-2.16889e-05 1.04097e-05 5.46748e-06)
(-8.97036e-06 2.09415e-05 2.54106e-06)
(-3.13688e-06 2.27646e-05 -1.10319e-07)
(-4.79946e-06 2.1527e-05 4.0329e-07)
(-2.31927e-06 1.61647e-05 3.25044e-07)
(-1.85551e-06 2.3208e-05 -9.14559e-08)
(-8.524e-06 1.74199e-05 7.99974e-07)
(-2.4332e-08 2.47249e-05 -6.88338e-07)
(-5.10247e-06 1.91013e-05 5.8377e-07)
(-4.82181e-06 1.06537e-05 -1.75946e-07)
(-2.17961e-06 7.71911e-06 3.46941e-08)
(-2.63216e-06 7.73251e-06 -1.48365e-07)
(-1.05685e-05 7.90881e-06 -1.14852e-07)
(-3.68546e-06 9.94171e-06 -5.31276e-07)
(-3.23694e-06 8.38863e-06 1.39525e-07)
(7.78935e-06 3.1616e-05 -3.30876e-06)
(-4.62723e-07 2.65835e-05 -5.87455e-07)
(1.65541e-07 2.87933e-05 -1.09851e-06)
(2.09296e-06 2.80587e-05 -1.2901e-06)
(9.4531e-07 2.73604e-05 -1.08775e-06)
(2.22589e-06 2.77041e-05 -1.39609e-06)
(3.83401e-06 2.93378e-05 -2.09078e-06)
(-5.40004e-06 2.08213e-05 6.40728e-07)
(-3.09809e-06 1.61655e-05 8.31238e-07)
(-4.92476e-06 2.08745e-05 6.5995e-07)
(-2.11415e-06 2.22265e-05 6.19602e-08)
(-1.00229e-05 1.6602e-05 1.59619e-06)
(-5.69399e-06 1.82675e-05 9.18445e-07)
(-1.82091e-06 2.29156e-05 -2.02585e-07)
(-6.87411e-06 1.12463e-05 1.09336e-06)
(-3.23156e-06 7.7209e-06 5.32475e-07)
(-3.56922e-06 7.688e-06 5.01321e-07)
(-5.5597e-06 1.02353e-05 8.71548e-07)
(-1.36604e-05 8.50284e-06 1.67646e-06)
(-4.22531e-06 8.41799e-06 7.75039e-07)
(4.89457e-06 2.91345e-05 -2.65181e-06)
(-7.88675e-07 2.67535e-05 -7.85389e-07)
(-1.39975e-06 2.48044e-05 -2.7653e-07)
(1.23453e-06 2.67862e-05 -1.07876e-06)
(-1.00113e-06 2.51844e-05 -5.78502e-07)
(2.68834e-06 2.83652e-05 -1.8668e-06)
(2.43749e-07 2.57089e-05 -9.3256e-07)
(9.78908e-06 2.65411e-05 -1.80643e-06)
(-2.21233e-06 2.15774e-05 4.31838e-07)
(1.95044e-06 2.38092e-05 1.02372e-07)
(9.76724e-06 2.75692e-05 -1.75295e-06)
(1.65031e-06 2.26456e-05 7.09209e-08)
(9.71794e-06 2.22753e-05 -1.67146e-06)
(-5.00137e-06 1.37257e-05 1.05485e-07)
(-7.34597e-07 1.34891e-05 -1.7775e-07)
(5.80384e-06 1.98443e-05 -1.19713e-06)
(1.02335e-05 2.34603e-05 -1.7057e-06)
(-1.05353e-07 1.51945e-05 -6.63733e-08)
(1.01803e-05 2.44676e-05 -1.6618e-06)
(-6.03261e-07 1.39508e-05 -1.7108e-07)
(4.55539e-07 1.36697e-05 -3.02475e-07)
(7.12287e-07 1.69346e-05 1.67884e-07)
(4.23196e-07 1.62024e-05 4.84598e-09)
(7.76362e-07 1.41622e-05 -9.67724e-08)
(-1.40771e-06 1.13601e-05 -1.49605e-07)
(-1.75485e-06 1.04253e-05 -2.88528e-07)
(4.99813e-07 1.3432e-05 -3.66289e-07)
(2.07681e-07 1.49171e-05 -1.9319e-07)
(4.66104e-07 1.59539e-05 -5.70384e-08)
(2.06802e-07 1.24532e-05 -5.0501e-07)
(9.47776e-06 2.93528e-05 -1.63561e-06)
(-1.99727e-06 2.58835e-05 5.45864e-07)
(1.83691e-06 2.47809e-05 1.65938e-07)
(9.52001e-06 2.85018e-05 -1.69882e-06)
(1.93412e-06 2.57223e-05 2.1076e-07)
(9.80015e-06 2.66584e-05 -1.41442e-06)
(3.77201e-07 1.75835e-05 3.39663e-07)
(8.67737e-08 1.69248e-05 1.53777e-07)
(9.67939e-06 2.71751e-05 -1.33042e-06)
(9.94915e-06 2.60236e-05 -1.49873e-06)
(-1.64334e-07 1.56419e-05 -5.15105e-08)
(1.00567e-05 2.53771e-05 -1.60618e-06)
(1.05565e-07 1.6654e-05 9.52697e-08)
(-1.6619e-07 1.09611e-05 -7.78102e-07)
(-3.35352e-06 1.26975e-05 -2.13844e-07)
(-2.36294e-07 1.29776e-05 -3.88167e-07)
(-2.68612e-06 1.05722e-05 -7.41296e-07)
(-2.29815e-06 9.15578e-06 -5.04112e-07)
(-1.84166e-06 1.0161e-05 -3.67447e-07)
(-1.32974e-07 1.1198e-05 -7.22253e-07)
(1.97757e-07 1.45812e-05 -2.48812e-07)
(-1.57939e-07 1.33808e-05 -3.6587e-07)
(2.00094e-07 1.21272e-05 -5.61634e-07)
(1.01621e-06 1.45583e-05 1.41096e-07)
(6.98225e-07 1.71273e-05 2.06888e-07)
(7.30782e-07 1.42229e-05 -2.74976e-08)
(9.12838e-07 1.76624e-05 2.97163e-07)
(-1.77409e-06 2.86019e-05 6.22009e-07)
(9.31655e-06 2.75348e-05 -1.12027e-06)
(3.41263e-07 1.79039e-05 3.34333e-07)
(9.50276e-06 2.75054e-05 -1.24426e-06)
(5.72213e-07 1.82623e-05 4.87215e-07)
(-2.14245e-06 3.00912e-05 6.77083e-07)
(-4.58325e-06 1.45407e-05 1.0235e-07)
(-4.15031e-06 1.72875e-05 6.13946e-07)
(-4.12105e-06 1.75624e-05 4.07517e-07)
(-4.6427e-06 1.43765e-05 3.25109e-07)
(-4.19072e-06 1.75703e-05 3.22523e-07)
(-2.49567e-06 2.85354e-05 6.61102e-07)
(5.02703e-06 2.79693e-05 -1.15927e-06)
(-4.23654e-06 1.80394e-05 7.66591e-07)
(-4.18644e-06 1.8397e-05 5.57252e-07)
(5.27522e-06 2.78491e-05 -1.05014e-06)
(-4.24734e-06 1.84667e-05 4.60743e-07)
(-2.15713e-06 3.00265e-05 6.76419e-07)
(-1.0882e-05 1.7512e-05 2.32097e-06)
(-2.43092e-06 2.25082e-05 6.14974e-07)
(-7.67838e-06 1.86161e-05 2.16401e-06)
(-2.20451e-05 8.05642e-06 5.19777e-06)
(-7.9231e-06 1.81261e-05 1.99151e-06)
(-1.22212e-05 1.56151e-05 2.96206e-06)
(-2.22433e-05 7.83182e-06 4.93591e-06)
(-1.25851e-05 1.64542e-05 3.30705e-06)
(-2.2999e-06 2.71367e-05 6.92929e-07)
(-7.92564e-06 1.92183e-05 2.27551e-06)
(-2.21067e-05 8.60413e-06 5.34717e-06)
(-7.72053e-06 2.00415e-05 2.3282e-06)
(-1.29251e-05 1.58785e-05 3.13268e-06)
(-2.16929e-05 9.41892e-06 5.41625e-06)
(7.53794e-06 2.69452e-05 -8.88111e-07)
(-2.88787e-06 2.15977e-05 8.96071e-07)
(2.61981e-07 2.42129e-05 5.65697e-07)
(7.2396e-06 2.79464e-05 -9.11638e-07)
(6.37049e-07 2.33187e-05 4.86604e-07)
(6.34291e-06 2.25171e-05 -3.83044e-07)
(-8.90131e-06 1.34104e-05 1.80341e-06)
(-4.46924e-06 1.35307e-05 1.40354e-06)
(2.64856e-06 1.98138e-05 1.56934e-07)
(6.69388e-06 2.38186e-05 -5.08115e-07)
(-4.19543e-06 1.53939e-05 1.24837e-06)
(6.48301e-06 2.48016e-05 -5.74788e-07)
(-4.36831e-06 1.4053e-05 1.35201e-06)
(-4.6386e-06 1.37503e-05 6.1446e-07)
(-4.07459e-06 1.71938e-05 6.73643e-07)
(-4.59474e-06 1.42392e-05 4.16239e-07)
(-4.19e-06 1.63008e-05 9.1803e-07)
(-6.49953e-06 1.14465e-05 9.19883e-07)
(-6.60227e-06 1.05471e-05 1.11271e-06)
(-4.56875e-06 1.3496e-05 6.9178e-07)
(-4.13257e-06 1.51552e-05 1.07873e-06)
(-4.09994e-06 1.60946e-05 9.6066e-07)
(-4.59476e-06 1.2637e-05 8.57517e-07)
(6.73493e-06 2.97462e-05 -1.02925e-06)
(-2.73367e-06 2.58548e-05 8.16238e-07)
(6.31164e-08 2.51725e-05 5.44201e-07)
(6.91371e-06 2.88788e-05 -9.67847e-07)
(6.43482e-08 2.61048e-05 5.12577e-07)
(5.75055e-06 2.7082e-05 -8.34171e-07)
(-4.17377e-06 1.79577e-05 8.14006e-07)
(5.51812e-06 2.75518e-05 -9.39536e-07)
(-4.26758e-06 1.71461e-05 1.00815e-06)
(6.00801e-06 2.64559e-05 -7.38564e-07)
(-4.26766e-06 1.58283e-05 1.18848e-06)
(6.23004e-06 2.56803e-05 -6.54155e-07)
(-4.19911e-06 1.69112e-05 1.04873e-06)
(-4.58944e-06 1.08835e-05 1.07748e-06)
(-7.35266e-06 1.25019e-05 1.54672e-06)
(-4.1928e-06 1.3e-05 1.29113e-06)
(-7.06155e-06 1.03504e-05 1.25353e-06)
(-6.77866e-06 9.18645e-06 1.28994e-06)
(-6.58934e-06 1.0273e-05 1.15104e-06)
(-4.60465e-06 1.11971e-05 1.044e-06)
(-4.04885e-06 1.48531e-05 1.10426e-06)
(-4.15744e-06 1.34846e-05 1.24087e-06)
(-4.54031e-06 1.22758e-05 9.18947e-07)
(-1.27265e-05 1.61171e-05 2.89366e-06)
(-2.62688e-06 2.25222e-05 7.49777e-07)
(-2.24238e-05 7.82719e-06 5.29147e-06)
(-9.04105e-06 1.84839e-05 2.50001e-06)
(-2.24638e-05 7.56617e-06 5.00516e-06)
(-8.93401e-06 1.79018e-05 2.30805e-06)
(-1.38237e-05 1.48754e-05 3.40532e-06)
(-1.41062e-05 1.59541e-05 3.66783e-06)
(-2.43298e-06 2.71091e-05 7.3934e-07)
(-2.24984e-05 8.4817e-06 5.40001e-06)
(-9.22209e-06 1.91688e-05 2.5402e-06)
(-2.20521e-05 9.387e-06 5.43512e-06)
(-9.02275e-06 2.00429e-05 2.53208e-06)
(-1.44962e-05 1.52767e-05 3.52307e-06)
(-6.26671e-06 1.71893e-05 7.37777e-07)
(-2.18526e-06 1.51083e-05 2.2506e-07)
(-2.76712e-05 6.08218e-06 2.63195e-06)
(-7.05329e-06 1.23897e-05 1.03302e-06)
(-1.21966e-05 1.26315e-05 1.25722e-06)
(-1.18787e-05 1.295e-05 1.03562e-06)
(-6.79778e-06 1.45655e-05 1.04464e-06)
(-5.77432e-06 1.15911e-05 -2.13564e-08)
(-2.1917e-06 8.58068e-06 6.58503e-08)
(-1.31607e-05 9.45664e-06 9.08802e-07)
(-4.9786e-06 1.10487e-05 6.62297e-07)
(-9.18951e-06 9.18969e-06 -2.86119e-07)
(-8.00627e-06 1.1798e-05 6.46637e-07)
(-4.07735e-06 9.84506e-06 2.21321e-07)
(-9.28889e-06 1.55934e-05 1.7028e-06)
(-3.23368e-06 1.51098e-05 8.56195e-07)
(-2.96142e-05 5.5103e-06 4.24293e-06)
(-7.98127e-06 1.19777e-05 1.60606e-06)
(-1.45111e-05 1.20626e-05 2.3996e-06)
(-7.60418e-06 1.40836e-05 1.47732e-06)
(-1.46115e-05 1.18525e-05 2.25497e-06)
(-8.13757e-06 1.12454e-05 1.33673e-06)
(-3.22113e-06 8.58229e-06 5.64233e-07)
(-1.63267e-05 9.01913e-06 2.619e-06)
(-5.94217e-06 1.07324e-05 1.30896e-06)
(-1.23183e-05 9.06224e-06 1.60131e-06)
(-4.98822e-06 9.71667e-06 8.7708e-07)
(-1.07279e-05 1.11047e-05 1.93522e-06)
(-2.6198e-07 1.39598e-05 6.40368e-07)
(2.29198e-06 1.24189e-05 7.19353e-07)
(1.30241e-06 1.64525e-05 6.53051e-08)
(3.36598e-06 1.69977e-05 -1.09566e-06)
(3.94052e-06 1.08415e-05 7.58982e-07)
(1.77992e-06 1.44489e-05 -7.15196e-07)
(5.17985e-06 1.37233e-05 7.77632e-07)
(-1.25357e-05 2.87059e-05 -7.16893e-06)
(-1.01924e-05 2.43556e-05 2.29409e-06)
(-3.07469e-05 2.64375e-05 -9.01676e-06)
(-4.69499e-05 3.07979e-05 5.49728e-06)
(-6.85974e-05 3.44184e-05 -2.33239e-06)
(-7.66417e-05 3.31842e-05 5.73403e-06)
(-9.23781e-05 3.26535e-05 -2.30548e-06)
(-1.99818e-06 9.05197e-06 2.23236e-07)
(-2.1306e-06 1.08563e-05 7.79508e-07)
(-2.7003e-06 1.41256e-05 3.62083e-07)
(-2.18403e-06 1.29042e-05 1.03738e-06)
(-1.63196e-06 9.04373e-06 5.60119e-07)
(-1.36207e-06 1.09741e-05 1.08398e-06)
(-4.54934e-07 8.30325e-06 5.75861e-07)
(-9.68509e-07 1.1437e-05 1.1296e-06)
(-2.41251e-06 1.34562e-05 7.78867e-07)
(-1.29624e-06 9.09411e-06 7.50583e-07)
(-1.50386e-06 1.30788e-05 5.96232e-07)
(2.46607e-06 8.97007e-06 6.9244e-07)
(5.40906e-07 1.27212e-05 -5.65877e-07)
(-2.16338e-06 1.85532e-05 2.30868e-07)
(-2.38959e-06 1.94755e-05 4.43651e-07)
(-6.60063e-06 1.71916e-05 1.13272e-06)
(-6.96484e-06 1.62974e-05 1.26391e-06)
(-2.21909e-06 1.7942e-05 2.35077e-07)
(-1.43636e-06 2.57935e-05 4.22025e-07)
(-2.00122e-06 2.72009e-05 6.00593e-07)
(-2.78303e-07 2.87624e-05 1.92374e-07)
(-1.38756e-06 2.61149e-05 4.44427e-07)
(-3.12855e-07 2.84057e-05 1.88721e-07)
(4.09826e-06 1.59406e-05 6.54442e-07)
(3.28402e-06 2.17972e-05 -1.3797e-06)
(2.20627e-06 1.96719e-05 -7.44056e-07)
(3.48827e-06 1.97356e-05 -1.48895e-06)
(5.59135e-06 1.94252e-05 1.13938e-06)
(5.72607e-06 1.67514e-05 8.74891e-07)
(1.78066e-06 2.20094e-05 -1.73005e-06)
(-1.29156e-06 2.66159e-05 4.90653e-07)
(-1.88605e-06 2.81051e-05 6.12902e-07)
(-2.83702e-07 2.90361e-05 2.00044e-07)
(-1.33924e-06 2.63888e-05 4.67712e-07)
(-2.37068e-07 2.92772e-05 2.0793e-07)
(-1.67646e-05 1.57588e-05 4.69164e-06)
(-2.23845e-06 2.95196e-05 7.00579e-07)
(-5.49201e-06 2.57962e-05 1.59301e-06)
(-2.69319e-05 7.58908e-06 6.84253e-06)
(-5.36096e-06 2.61316e-05 1.57076e-06)
(-2.65414e-05 8.02474e-06 6.83915e-06)
(-1.72834e-05 1.55652e-05 4.57172e-06)
(-2.90076e-06 2.66143e-05 7.25647e-07)
(-2.57629e-06 2.8042e-05 7.15219e-07)
(-1.11591e-06 2.89513e-05 3.61885e-07)
(-1.08628e-06 2.91882e-05 3.4426e-07)
(-2.9229e-06 2.63874e-05 7.53938e-07)
(-1.72273e-05 1.56999e-05 4.68278e-06)
(-2.25248e-06 2.94582e-05 7.01187e-07)
(-2.68753e-05 7.72023e-06 6.79145e-06)
(-5.83715e-06 2.5724e-05 1.62283e-06)
(-2.64685e-05 8.26378e-06 6.7601e-06)
(-5.67816e-06 2.60725e-05 1.59412e-06)
(-1.76511e-05 1.54867e-05 4.58935e-06)
(-1.25617e-05 1.78377e-05 2.24866e-06)
(-2.51547e-06 2.01294e-05 5.76022e-07)
(-4.10169e-06 2.20321e-05 4.50194e-07)
(-1.36092e-05 1.5942e-05 2.33109e-06)
(-7.10289e-06 1.84326e-05 1.35441e-06)
(-2.48642e-05 6.23349e-06 4.83966e-06)
(-6.6118e-06 2.2719e-05 6.09849e-07)
(-1.76795e-05 1.43484e-05 4.69966e-06)
(-2.33539e-06 2.85363e-05 7.22277e-07)
(-5.50866e-06 2.5481e-05 1.58503e-06)
(-2.72807e-05 7.10405e-06 6.8415e-06)
(-5.65857e-06 2.50818e-05 1.57685e-06)
(-1.73267e-05 1.52246e-05 4.55756e-06)
(-2.77184e-05 6.51778e-06 6.85108e-06)
(-2.98413e-06 1.86113e-05 8.88002e-07)
(-2.6683e-06 1.96228e-05 6.74847e-07)
(-2.9574e-06 1.95886e-05 5.84341e-07)
(6.91994e-06 2.69566e-05 -1.1992e-06)
(-2.87247e-06 1.79853e-05 7.75561e-07)
(-1.78632e-06 1.31551e-05 1.1368e-06)
(1.42106e-07 9.49896e-06 6.52957e-07)
(-1.06599e-06 1.08237e-05 9.08718e-07)
(7.63392e-07 1.44263e-05 9.29514e-07)
(-2.86972e-07 1.24295e-05 1.10663e-06)
(-1.10718e-06 9.40754e-06 8.81126e-07)
(-1.86324e-06 1.43325e-05 1.13543e-06)
(-2.96481e-06 2.57925e-05 8.09842e-07)
(-2.65593e-06 2.71416e-05 7.69299e-07)
(-1.09961e-06 2.86691e-05 3.83217e-07)
(-2.94435e-06 2.61134e-05 7.82431e-07)
(-1.12323e-06 2.83195e-05 4.03048e-07)
(-1.06794e-05 1.79799e-05 2.0749e-06)
(-2.57058e-06 2.0203e-05 6.22676e-07)
(-1.14958e-05 1.64473e-05 2.02896e-06)
(-3.21101e-06 2.15048e-05 4.32054e-07)
(-2.12344e-05 8.23304e-06 4.19364e-06)
(-3.9954e-06 2.01605e-05 8.71639e-07)
(-5.81586e-06 2.17747e-05 6.70733e-07)
(-1.8132e-05 1.43435e-05 4.70961e-06)
(-2.34871e-06 2.84783e-05 7.24231e-07)
(-2.72102e-05 7.26583e-06 6.78344e-06)
(-5.83935e-06 2.54166e-05 1.62591e-06)
(-1.76718e-05 1.51818e-05 4.57893e-06)
(-2.76326e-05 6.77558e-06 6.77219e-06)
(-5.96451e-06 2.50364e-05 1.62379e-06)
(-7.73276e-06 1.96889e-05 7.62139e-07)
(-1.1148e-05 1.61435e-05 1.80364e-06)
(-2.48458e-06 1.82609e-05 4.73426e-07)
(-5.17225e-06 2.05987e-05 7.70844e-07)
(-1.73793e-05 9.62924e-06 2.54368e-06)
(-4.64219e-06 2.21221e-05 2.89308e-07)
(-2.52172e-06 1.98169e-05 3.51999e-07)
(-2.32666e-06 6.87806e-06 -3.38641e-07)
(-2.20445e-06 6.04721e-06 -4.72861e-09)
(-2.37415e-06 5.85953e-06 -5.00311e-08)
(-1.17656e-06 6.08084e-06 -4.76792e-07)
(-2.30163e-06 6.28192e-06 -3.9102e-07)
(-2.47406e-06 6.28637e-06 7.13501e-08)
(3.24134e-06 3.12207e-05 -2.01626e-06)
(-6.60388e-06 2.14617e-05 7.72006e-07)
(-7.18459e-06 2.27449e-05 7.23383e-07)
(-3.65922e-06 2.36792e-05 1.69427e-07)
(-4.15272e-06 2.46386e-05 4.79335e-08)
(-2.88145e-06 2.46859e-05 -1.9179e-07)
(-9.45161e-07 2.70195e-05 -7.80577e-07)
(-7.13095e-06 1.94143e-05 9.9435e-07)
(-2.80591e-06 1.82613e-05 7.40741e-07)