/*--------------------------------*- C++ -*----------------------------------*\
| =========                 |                                                 |
| \\      /  F ield         | OpenFOAM: The Open Source CFD Toolbox           |
|  \\    /   O peration     | Version:  2012                                  |
|   \\  /    A nd           | Website:  www.openfoam.com                      |
|    \\/     M anipulation  |                                                 |
\*---------------------------------------------------------------------------*/
FoamFile
{
    version     2.0;
    format      ascii;
    class       volScalarField;
    location    "0.106/fluid";
    object      p;
}
// * * * * * * * * * * * * * * * * * * * * * * * * * * * * * * * * * * * * * //

dimensions      [0 2 -2 0 0 0 0];


internalField   nonuniform List<scalar> 
16422
(
-0.0298436
0.0302361
0.0105797
0.00356812
0.00141839
0.000737389
0.0004223
0.000221514
6.87175e-05
-5.26873e-05
-0.000144613
-0.000199659
-0.000202852
-0.000148383
-6.50738e-05
-0.0150652
0.00060955
0.00227007
0.000987401
0.000309694
0.000119826
3.17131e-05
-3.33448e-05
-9.3969e-05
-0.000149565
-0.000195463
-0.000220399
-0.000202844
-0.000131953
-4.64358e-05
-0.0117841
-0.00596428
-0.00255864
-0.00133278
-0.000707683
-0.000399856
-0.000261958
-0.000209707
-0.000200087
-0.000207666
-0.00021983
-0.000222842
-0.000192481
-0.000109339
-2.46623e-05
-0.0165929
0.00337048
0.00185575
0.000133049
-0.000295612
-0.000299777
-0.000250248
-0.000223916
-0.000227525
-0.000249299
-0.000275568
-0.000286653
-0.000259731
-0.000182372
-7.99711e-05
-0.0110095
-0.00319638
-0.00109869
-0.000998692
-0.000849181
-0.000649018
-0.000495211
-0.000397178
-0.000345035
-0.000322494
-0.000313631
-0.000301319
-0.000257718
-0.000165994
-6.33056e-05
-0.010323
-0.0062897
-0.00361596
-0.00225781
-0.00144635
-0.000970326
-0.000686029
-0.000517901
-0.00042043
-0.00036419
-0.000329797
-0.000299477
-0.000245828
-0.000142672
-4.25575e-05
-0.0130311
-0.00701495
-0.00421906
-0.00284194
-0.00190866
-0.00127415
-0.000869278
-0.000625151
-0.000489419
-0.000421568
-0.000388578
-0.000361753
-0.000308729
-0.000210606
-9.17761e-05
-0.0105926
-0.00676572
-0.00431022
-0.00293523
-0.0020193
-0.0014002
-0.000990547
-0.000729177
-0.000568413
-0.000473819
-0.000416289
-0.00037055
-0.000303103
-0.000193962
-7.65381e-05
-0.00986014
-0.00719116
-0.00492002
-0.00331509
-0.00224602
-0.00154566
-0.00109118
-0.000801129
-0.000617347
-0.000501909
-0.000426869
-0.000365863
-0.000287777
-0.000170847
-5.6188e-05
-0.0121517
-0.00936333
-0.00659342
-0.0044433
-0.002921
-0.00191183
-0.00127388
-0.000884285
-0.000655682
-0.00052774
-0.000457341
-0.000406097
-0.000336183
-0.000226283
-9.85173e-05
-0.0104752
-0.00816181
-0.00588944
-0.00409381
-0.0027945
-0.00190465
-0.00131809
-0.000943924
-0.000710002
-0.000567173
-0.000478373
-0.000410875
-0.000327752
-0.000207657
-8.40426e-05
-0.00971057
-0.00774503
-0.00572441
-0.00405185
-0.00280944
-0.0019424
-0.00136231
-0.000984839
-0.00074234
-0.000587044
-0.000485534
-0.000403609
-0.000309403
-0.000184496
-6.41639e-05
-0.00565746
0.0822035
0.000966859
0.0775528
-0.0131661
0.0186522
0.0550895
0.0169968
-0.04235
0.038974
-0.0114859
0.00648498
0.140821
0.248508
0.0517081
0.0160439
0.0144103
0.00561045
0.0375917
-0.00987145
0.00605388
-0.0142687
0.0113085
-0.0107024
-0.00137861
-0.0166058
0.00520688
-0.0144893
-0.00752457
0.252434
0.205301
0.102975
0.512825
0.112217
0.10281
0.358039
0.15872
0.203819
0.229095
0.102849
-0.00260762
0.512901
0.0715251
0.223589
0.102992
0.10054
0.05825
0.358832
0.0885128
0.0769863
0.233786
-0.0779775
0.19362
0.293643
-0.0104623
-0.0120627
0.00860356
-0.0638614
0.0213146
0.0216985
0.223166
0.0369162
0.0274532
0.0185617
0.0402804
0.0372364
0.0360547
0.230546
0.238514
0.174158
-0.0146092
0.136848
0.275589
0.179697
0.214055
0.248059
0.175335
0.184638
0.0957868
0.142804
0.189044
0.169595
0.161182
0.174606
0.504539
0.174598
0.241961
0.122844
0.147988
-0.00537623
0.142356
0.0167068
0.184326
0.515324
0.277879
0.183752
0.268013
0.140004
-0.0130532
0.0143483
0.101147
0.144895
0.34422
0.126502
0.154846
0.184727
0.209862
0.111186
0.160057
0.350953
0.209891
0.245836
0.170689
0.199705
0.233562
-0.0146457
0.0111884
-0.00124641
-0.0264229
-0.0508484
-0.0210361
0.071131
0.0239642
0.0280937
0.0201877
0.0137323
0.105724
0.0282801
0.096185
0.0194824
0.0301553
0.00336763
-0.00379226
-0.0166534
-0.0304453
-0.0220535
0.0685892
0.000636385
0.040658
0.0849248
0.0926585
0.0353882
0.0763387
0.035905
0.0359024
0.0192718
0.21815
0.105375
0.116316
0.0304426
-0.250154
-0.255259
0.0287402
0.247259
0.150099
0.0308764
0.14696
-0.209819
-0.136584
-0.250602
-0.254703
0.0376725
0.252665
0.153235
0.0338908
0.156025
0.207619
0.206799
0.158585
0.241817
0.160782
0.242388
0.205996
0.0142104
0.0351071
0.285223
0.49913
0.361952
0.357057
0.291659
0.281846
0.350709
0.287786
0.291351
0.287225
0.288808
0.282621
0.157559
0.173984
0.0993477
0.0833837
0.119671
0.172843
0.11818
0.201149
0.199977
0.155911
0.239236
0.152934
0.203178
0.237112
0.224651
0.439415
0.220852
0.27218
0.18056
0.0622043
0.0413997
0.299451
0.521216
0.36445
0.296168
0.36517
0.0583309
0.0314034
0.210106
0.285798
0.105143
0.164691
0.212682
0.207496
0.161733
0.279831
0.360971
0.285824
0.291924
0.281207
0.283997
0.291091
0.0279036
0.0440726
0.020033
0.0542617
0.0272347
0.0453768
0.0362655
-0.0732102
-0.0680011
-0.0685827
-0.0909186
-0.0908471
-0.0540457
0.0572281
0.0655405
0.0940782
0.070206
0.0764191
0.0538442
0.0695975
0.0771414
0.0450338
0.106154
0.0708248
0.107777
0.0559688
0.085621
-0.015424
-0.0468978
-0.0521615
-0.0386317
0.0305243
-0.0351709
0.0811021
0.104383
0.11279
0.0835703
0.112071
0.0787553
0.085562
0.0314907
0.224655
0.132995
0.024108
0.13348
-0.082495
-0.00486227
-0.0299911
-0.0442401
-0.0717111
-0.0450783
-0.073008
-0.0333952
-0.19885
-0.0786804
-0.0793131
-0.202258
-0.248553
-0.236676
-0.197011
-0.0751535
-0.0794107
-0.187052
0.0261888
0.241673
0.138786
0.0246773
0.142711
-0.0716163
-0.0455705
-0.0471708
-0.0699762
-0.0732994
-0.0451831
-0.0726644
-0.0478366
-0.157347
-0.0245129
-0.0581685
-0.109252
-0.214915
-0.23332
-0.164607
-0.074295
-0.0621694
-0.183538
-0.197563
-0.0775085
-0.202111
-0.0729173
0.255449
-0.0639644
-0.0441033
-0.0671921
-0.039495
0.207451
0.0716416
0.246907
0.229353
0.0910075
0.222695
0.496709
0.225048
0.279874
0.263327
0.234237
0.257161
0.348316
0.177508
0.175898
0.13701
0.212552
0.136129
0.181689
0.194019
0.19577
0.197127
0.143878
0.22619
0.148391
0.191968
0.231397
0.271915
0.467848
0.3395
0.282143
0.322922
0.162117
0.164562
0.250552
0.133351
0.213272
0.289758
0.233076
0.267375
0.115516
0.2518
0.0973204
0.264268
0.0666886
0.0786341
0.11978
0.267438
0.266234
0.128505
0.298142
0.517514
0.354557
0.293306
0.361574
0.246428
0.284133
0.241216
0.294766
0.247188
0.294836
0.244697
0.295878
0.111814
0.147836
0.227227
0.0587306
0.0699042
0.0781284
0.120232
0.263307
0.242829
0.127488
0.24533
0.306494
0.258077
0.26587
0.2396
0.251566
0.255191
0.273874
0.35907
0.272024
0.279395
0.277881
0.286449
0.268203
0.0109974
-0.00407693
-0.0416306
-0.00656829
-0.0052367
-0.012279
0.0158259
-0.0517862
-0.0602141
-0.0433725
-0.0221049
-0.0820076
-0.0311616
-0.0386001
0.0677588
0.0284131
0.0670955
0.0152969
0.0907655
0.0373399
0.0487565
0.00847869
-0.0386851
0.0845558
-0.000414559
0.0424655
-0.0175482
0.0296444
0.0209235
-0.0207039
0.0152577
0.016477
-0.000218361
0.0219604
-0.00187523
0.00207559
-0.0112782
-0.00355152
-0.0131793
-0.00696201
-0.0113563
-0.00734693
-0.00937547
0.0367591
0.0684964
0.0808636
0.00331765
0.041658
0.00657054
0.0433252
0.0777405
0.0129225
0.0154092
-0.00390027
0.0212884
0.0946749
0.174947
0.189425
0.175301
0.0707639
0.158089
0.249543
0.257765
0.159107
0.258858
-0.0190131
-0.000461274
0.00607541
0.00499792
-0.00976936
-0.00631252
-0.00127894
0.161494
0.25041
0.262369
0.16069
0.259456
0.246338
0.205341
0.179732
0.341676
0.178521
0.336144
0.249865
0.468732
0.506508
0.510879
0.503998
0.473352
0.332174
0.355204
0.380781
0.334032
0.374386
0.330335
0.336875
0.145878
0.16314
0.127114
0.236
0.116385
0.223686
0.149796
0.244543
0.20268
0.177597
0.33588
0.175349
0.24643
0.339079
0.309107
0.334059
0.28684
0.321146
0.221492
0.0710781
0.00244273
0.0100514
0.0263315
0.0371929
0.0129404
0.0461953
0.479689
0.517612
0.509818
0.476286
0.514401
0.206826
0.24335
0.263606
0.19279
0.269804
0.209967
0.194489
0.334097
0.360135
0.375505
0.334026
0.334605
0.379212
0.33418
0.0720791
0.167456
0.0147106
0.101309
0.0712494
0.0887004
0.0807875
-0.0663611
-0.0727412
-0.0726257
-0.0676708
-0.0807505
-0.0643718
0.0818702
0.10692
0.160653
0.0992041
0.0903312
0.0819581
0.096712
0.118835
0.0540419
0.23025
0.113041
0.156198
0.098415
0.122992
0.000833407
-0.0129644
-0.00723446
0.00913585
-0.000160576
-0.0187841
0.0171927
-0.0263179
-0.0560455
-0.0612924
-0.0438673
-0.0163476
-0.0515059
0.0997856
0.168348
0.155518
0.105369
0.13106
0.0990291
0.106822
0.140749
0.231268
0.239089
0.143949
0.239085
-0.0131968
-0.125957
-0.00109655
0.00153828
0.148996
0.236612
0.248725
0.147861
0.245229
0.00335017
0.00378436
0.00156342
-0.00258485
0.00813324
0.00377494
0.0488472
-0.00122208
-0.0254488
0.0363397
0.0265078
-0.0150477
0.0612799
0.0870835
0.129132
0.0824981
0.179941
0.0735198
0.16985
0.0983942
0.40151
0.405365
0.219111
0.181619
0.156993
0.315694
0.152374
0.223807
0.318524
0.230473
0.191022
0.162489
0.328219
0.162665
0.232425
0.322827
0.458359
0.499873
0.495932
0.468481
0.490234
0.287368
0.122366
0.41645
0.425423
0.121306
0.196213
0.148614
0.100284
0.0984944
0.196489
0.123949
0.0823188
0.010777
0.0445616
0.00451875
0.0528669
0.0721961
0.0225193
0.116597
0.147911
0.0893798
0.187871
0.0961613
0.108117
0.19453
0.0890766
0.0612315
0.0103096
0.0404021
0.0572077
0.0313639
0.0949796
0.479419
0.514276
0.509396
0.476607
0.507397
0.418347
0.412061
0.431387
0.425945
0.108382
0.186995
0.0934228
0.132316
0.171745
0.119359
0.0874818
0.0640858
0.0338127
-0.000938022
0.0245928
0.0366324
0.0377375
0.0288282
0.0898757
0.0562913
0.0453288
0.0141545
0.0464391
0.0956252
0.053192
0.0788306
0.114599
0.0872043
0.0642591
0.141593
0.0730246
0.0241796
0.305004
0.336411
0.355157
0.314319
0.355987
0.305205
0.311887
0.321157
0.353744
0.368739
0.322767
0.363569
0.324593
0.321865
-0.0179444
-0.0248724
-0.0223154
-0.00199474
-0.0414505
-0.012723
-0.00255137
-0.023669
-0.0385249
-0.0570796
-0.0117937
-0.0649627
-0.0171375
-0.0232989
0.0435634
0.00997916
0.0470651
0.0170586
0.0594603
0.0181894
0.0431387
0.0290855
-0.016535
0.0141084
0.00594626
0.0052624
-0.00678786
0.0368448
-0.00186693
-0.0168243
-0.0217442
0.0103941
-0.0235771
0.00264304
-0.00340878
0.0188535
0.0398147
0.0576314
0.0408553
0.0183963
0.0415672
0.0172309
0.0997731
0.197476
0.218102
0.201027
0.120122
0.0751547
0.0464234
0.0681344
0.0758089
0.0758109
0.089154
0.0935744
0.069663
-0.152195
-0.25131
-0.161143
-0.246942
-0.163428
-0.248638
-0.150277
-0.241363
-0.239812
-0.150509
-0.252806
-0.163801
-0.250633
-0.15155
-0.161394
-0.251054
-0.236899
-0.23912
0.156353
0.245091
0.257081
0.253699
0.155605
0.126258
0.111864
0.127397
0.110101
0.125464
0.108273
0.123867
0.110592
-0.119374
-0.117363
-0.223012
-0.201604
-0.228506
-0.120742
-0.0979928
-0.18562
-0.158567
-0.187336
-0.172846
-0.133407
-0.177365
-0.305211
-0.0730644
-0.239685
-0.214722
-0.0758252
-0.145949
-0.251016
-0.159072
-0.245775
-0.158364
-0.145473
-0.248747
-0.240737
-0.239589
-0.148971
-0.252166
-0.161582
-0.250604
-0.149359
-0.160961
-0.2495
-0.237188
-0.237636
0.162729
0.25348
0.262285
0.262907
0.163788
0.129724
0.111456
0.128091
0.113822
0.130293
0.115204
0.131389
0.113481
0.248538
0.206264
0.181874
0.337657
0.180007
0.340452
0.250214
0.157519
0.106229
0.0514461
0.0228599
0.116498
0.147999
0.0583003
0.0416351
0.0341454
0.0177079
0.02703
0.164293
0.0299209
0.130472
0.0744703
0.172824
0.122782
0.066847
0.464487
0.504808
0.497664
0.503028
0.459417
0.482673
0.509751
0.48739
0.504782
0.476811
0.490771
0.470905
0.497188
0.332781
0.353409
0.374426
0.327612
0.377956
0.329102
0.332506
0.181115
0.162231
0.138497
0.298597
0.128259
0.285463
0.200531
0.241014
0.200764
0.173648
0.338157
0.172903
0.332504
0.244078
0.330685
0.375844
0.425706
0.375837
0.390391
0.329489
0.246367
0.243658
0.357173
0.358964
0.449218
0.411334
0.39135
0.192532
0.104473
0.0568509
0.155989
0.148824
0.0976188
0.199872
0.0486939
0.057292
0.187334
0.0501812
0.135782
0.0823945
0.17904
0.145021
0.0889796
0.0713985
0.0639968
0.481341
0.516397
0.517511
0.511903
0.4837
0.495834
0.516296
0.492047
0.520328
0.499091
0.527596
0.501063
0.525657
0.169332
0.0894635
0.162386
0.0418301
0.0567026
0.195064
0.159228
0.00339909
0.0673738
0.0884822
0.0807222
0.125311
0.0351194
-0.0930368
0.111657
-0.0203606
0.0376466
0.151322
0.248517
0.244799
0.343703
0.2581
0.335742
0.230735
0.274956
0.3314
0.359993
0.37922
0.33521
0.373008
0.33327
0.334791
0.0562586
-0.00626075
0.029439
0.0424524
0.0523403
0.0619615
0.0330165
-0.0628687
-0.0713657
-0.0827793
-0.054392
-0.0781881
-0.0600188
-0.052541
-0.0751981
-0.135639
-0.120459
-0.105341
-0.100233
-0.079957
-0.0737794
-0.144456
-0.100534
-0.123231
-0.0843283
-0.0897465
0.109268
0.0164869
0.127499
0.0596453
0.140541
0.0782384
0.0893212
-0.0192967
-0.0509488
-0.0179423
-0.0377615
-0.0191479
-0.045138
-0.00743062
-0.0117779
-0.0115004
-0.0196655
-0.015483
-0.00789197
0.0176821
-0.0238788
0.0235619
-0.0144722
-0.00455199
-0.000780827
0.136107
0.225208
0.230712
0.129731
0.23053
0.112559
0.105375
0.101767
0.116118
0.108517
0.093889
0.102048
0.100455
-0.0714574
0.00237082
0.0523941
-0.179649
-0.00599805
0.0128973
-0.118285
0.0362335
0.0127863
-0.0856923
-0.0793993
0.0506881
0.0440582
-0.069889
0.00652249
0.005786
-0.070776
0.0366895
0.047388
-0.0868292
-0.113187
-0.143151
-0.198782
-0.161862
-0.162938
-0.14211
-0.112381
-0.103524
-0.0834431
-0.0773053
-0.106818
-0.105865
-0.083944
-0.103057
-0.10346
-0.106837
-0.077702
-0.0843032
-0.105741
-0.103256
-0.0839045
-0.1134
-0.200405
-0.163298
-0.144013
-0.164103
-0.14271
-0.112592
-0.148467
-0.244155
-0.162139
-0.244684
-0.151808
-0.157323
-0.242519
-0.223385
-0.228278
-0.148137
-0.240473
-0.150808
-0.233928
-0.156314
-0.238433
-0.142772
-0.235274
-0.231508
-0.110057
-0.142216
-0.193599
-0.160134
-0.139501
-0.111338
-0.158523
-0.0996856
-0.0799719
-0.0760484
-0.100704
-0.102234
-0.0816302
-0.0971075
-0.101507
-0.10632
-0.0771826
-0.083881
-0.104184
-0.102625
-0.0830657
-0.107688
-0.18977
-0.134908
-0.151317
-0.136708
-0.155252
-0.104186
0.151722
0.242631
0.250711
0.153292
0.25196
0.120033
0.105193
0.118078
0.107581
0.12137
0.108925
0.122944
0.107072
-0.0761484
0.0533965
0.0489946
-0.0689609
0.00315068
-0.000748434
-0.0722591
0.0480569
0.0517803
-0.0745858
-0.0733329
0.0462152
-0.0768751
0.0502276
-0.000295916
0.000602008
-0.0788796
0.0514627
0.0465786
-0.0706058
-0.0869888
-0.106369
-0.135194
-0.150923
-0.131708
-0.0913278
-0.0991022
-0.0837155
-0.126888
-0.0388866
-0.0509067
-0.0748304
-0.0609523
-0.132291
-0.0883114
-0.0793634
-0.0741193
-0.0529521
-0.0763689
-0.0882554
-0.0745669
-0.0732924
-0.133436
-0.160049
-0.071651
-0.109734
-0.0814725
-0.115374
-0.127589
-0.221683
-0.124538
-0.219151
-0.116534
-0.137661
-0.221536
-0.219372
-0.212805
-0.133463
-0.226907
-0.149641
-0.229694
-0.141605
-0.142397
-0.22515
-0.193602
-0.205073
-0.0965272
-0.113911
-0.171258
-0.13647
-0.120565
-0.0927268
-0.140721
-0.0923578
-0.0781478
-0.0703968
-0.0989607
-0.0759806
-0.0948408
-0.0945105
-0.0901685
-0.0844462
-0.0667686
-0.0721918
-0.0737441
-0.089761
-0.0877275
-0.0987732
-0.177661
-0.132272
-0.147737
-0.101485
-0.126753
-0.144179
-0.110027
-0.198149
-0.13873
-0.158794
-0.161228
-0.139183
-0.108126
-0.100702
-0.0825235
-0.106007
-0.0740124
-0.102202
-0.102876
-0.0806514
-0.11115
-0.198796
-0.163078
-0.143433
-0.162085
-0.111978
-0.140018
-0.0993486
-0.101327
-0.0727245
-0.0776846
-0.101838
-0.0977463
-0.079241
0.26563
0.16498
0.115024
0.132013
-0.0690909
0.0510777
0.0546442
-0.0712131
0.00920209
0.00959102
-0.0706899
0.0570246
0.0528355
-0.0631528
0.0555216
-0.0642717
0.183169
0.341351
0.252329
0.230208
0.156697
0.141343
0.0800446
0.163841
0.222739
0.14981
0.254497
0.285829
0.243732
0.209881
0.206395
0.279794
0.261481
0.247003
0.191856
0.265317
0.237644
0.239592
0.199882
0.2727
0.238246
0.0872408
0.179957
0.159738
0.172256
0.156657
0.246062
0.134126
0.214176
0.184845
0.257446
0.231423
0.496123
0.45452
0.482659
0.464458
0.319004
0.461664
0.45732
0.324864
0.39437
0.385534
0.310166
0.443336
0.448079
0.308312
0.377356
0.433592
0.29894
0.377308
0.325807
0.332823
0.212317
0.178722
0.14652
0.317143
0.213256
0.148115
0.310809
0.235852
0.194705
0.170151
0.329417
0.238727
0.166688
0.332559
0.443021
0.485611
0.458192
0.420832
0.472575
0.478425
0.523962
0.512354
0.489927
0.462573
0.474312
0.439756
0.499333
0.214964
0.212046
0.342861
0.0503279
0.337045
0.385228
0.211986
0.410033
0.346346
0.27802
0.330181
0.482342
0.468083
0.34595
0.413326
0.398104
0.327812
0.431166
0.460037
0.297149
0.265531
0.207357
0.11195
0.180568
0.201108
0.271578
0.178466
0.273996
0.292114
0.215265
0.25866
0.268216
0.222152
0.297845
0.259126
0.105508
0.1877
0.165471
0.193696
0.253343
0.173157
0.279977
0.228893
0.307467
0.262698
0.285175
0.226845
0.303414
0.208965
0.110735
0.158653
0.0728707
0.202904
0.115332
0.165889
0.0923707
0.0876968
0.0768682
0.0833664
0.211084
0.0765742
0.12415
0.172474
0.120517
0.167694
0.215971
0.279997
0.213139
0.183696
0.124866
0.18797
0.276728
0.216941
0.294759
0.314968
0.26954
0.234374
0.236019
0.315081
0.296321
0.292272
0.231535
0.269317
0.311111
0.2349
0.289513
0.313504
0.283536
0.128294
0.188517
0.224432
0.189989
0.221298
0.286568
0.482715
0.519915
0.512357
0.483137
0.514653
0.500125
0.527417
0.496244
0.531479
0.501875
0.531139
0.502385
0.530783
0.332844
0.47027
0.472266
0.333188
0.423236
0.424182
0.341041
0.4808
0.479897
0.343497
0.348581
0.48192
0.34389
0.487516
0.429701
0.428244
0.343893
0.486984
0.483964
0.349815
0.215882
0.187231
0.168355
0.0937306
0.161215
0.241084
0.150475
0.185262
0.0961948
0.183453
0.12383
0.197488
0.161396
0.0868405
0.218091
0.203596
0.263768
0.205221
0.233241
0.24687
0.182543
0.18999
0.0786869
0.0516584
0.101728
0.14625
0.135958
0.0991941
0.216709
0.109611
0.170823
0.0753675
0.215711
0.119415
0.169457
0.0941022
0.0960648
0.0971888
0.0965092
0.21811
0.0785942
0.12555
0.170771
0.215094
0.124216
0.172708
0.272878
0.205434
0.177451
0.125504
0.183291
0.260761
0.215586
0.290103
0.312734
0.259945
0.231039
0.307556
0.295388
0.229159
0.281278
0.216335
0.253129
0.285807
0.299164
0.224554
0.268207
0.281851
0.127492
0.186116
0.225189
0.286562
0.185708
0.222046
0.295834
0.327044
0.355354
0.280312
0.292276
0.347703
0.294217
0.32697
0.357559
0.370443
0.332232
0.329583
0.373638
0.32935
-0.010771
-0.0254416
-0.00358401
0.0251331
0.0119434
-0.0527138
0.00659047
-0.0316555
-0.0500237
-0.0776627
-0.0450591
-0.0406761
-0.0712733
-0.0343548
-0.0386097
-0.0736568
-0.0524287
-0.0380586
-0.0820838
-0.0241375
-0.0422097
-0.0543781
-0.0647072
-0.113806
-0.064018
-0.0735895
-0.0895357
-0.051817
0.0518604
0.0103641
0.102047
0.0442543
0.0711104
0.0586865
0.0271974
0.0196998
-0.0283273
-0.00936813
-0.0286638
0.00835467
-0.00141564
-0.0177694
0.0451663
0.0533942
0.0755144
0.0580181
0.0443682
0.0592012
0.0534374
0.0283383
0.0284034
0.00979422
0.0633673
0.00791585
0.0357095
0.0430909
0.0122213
0.00509057
0.00407526
0.00232898
0.00197491
0.00127832
0.00112346
0.000778557
0.000688999
0.000466319
0.000403163
0.000238289
0.00018988
6.25472e-05
2.54379e-05
-6.95848e-05
-9.61976e-05
-0.000157507
-0.0001715
-0.00019019
-0.000188452
-0.000159501
-0.000143523
-8.55752e-05
-6.55864e-05
-8.90543e-06
0.0321025
0.014579
0.00642983
0.0038341
0.0113176
0.00521406
0.00311575
0.00175663
0.00411139
0.00213959
0.00151535
0.000994709
0.00177916
0.00111403
0.000850917
0.000534638
0.000971846
0.000660015
0.000461323
0.000298038
0.000580443
0.000384027
0.000255503
0.000148215
0.000328625
0.000183644
0.00011673
3.21519e-05
0.000141054
2.86634e-05
6.29542e-06
-6.30971e-05
-4.11544e-06
-8.85241e-05
-8.41263e-05
-0.000138908
-0.000112189
-0.000166259
-0.000154502
-0.000188802
-0.000178211
-0.00019206
-0.000195568
-0.000196304
-0.000188945
-0.000156814
-0.000189701
-0.000149501
-0.000140037
-8.1095e-05
-0.000131117
-7.13116e-05
-6.11979e-05
-8.00021e-06
-5.17338e-05
-6.10814e-06
-0.0169703
-0.00213953
-0.0135511
-0.0079667
0.000563419
0.00277873
-0.00648323
-0.00342493
0.00268314
0.00168013
-0.00273358
-0.00126217
0.00133137
0.00065527
-0.000945643
-0.000435365
0.000541331
0.000334332
-0.000350316
-0.000194918
0.000288279
0.000182457
-0.000164315
-0.000110736
0.000153576
7.69764e-05
-0.000102708
-9.74545e-05
5.34189e-05
-1.21961e-05
-0.000100774
-0.000118723
-3.28412e-05
-8.94621e-05
-0.000126705
-0.000152131
-0.000106951
-0.000153021
-0.000161257
-0.000187454
-0.000166184
-0.000194969
-0.000195624
-0.000213568
-0.000200348
-0.000197258
-0.00021655
-0.000207949
-0.000189311
-0.000144056
-0.000198644
-0.000150393
-0.000123489
-5.89376e-05
-0.000129273
-6.49494e-05
-4.19793e-05
-4.1484e-06
-4.29184e-05
-4.84551e-06
-0.0123766
-0.00761279
-0.0120809
-0.00881594
-0.00614834
-0.00308308
-0.00773611
-0.0049223
-0.00246851
-0.00140262
-0.00416133
-0.00241634
-0.0011891
-0.000686017
-0.00200449
-0.00115304
-0.000566406
-0.000327508
-0.000965279
-0.000584774
-0.000277401
-0.000182815
-0.000503596
-0.000343817
-0.000165152
-0.000138775
-0.000310848
-0.000246484
-0.00013674
-0.000142025
-0.000233364
-0.000214912
-0.000146543
-0.000163009
-0.000215334
-0.000226436
-0.000169277
-0.000187248
-0.000233442
-0.000247664
-0.000192871
-0.000203362
-0.000251508
-0.000255204
-0.00020408
-0.000190145
-0.000253245
-0.000234981
-0.000178855
-0.000123879
-0.000224746
-0.000175643
-0.000100647
-3.43415e-05
-0.000155318
-9.95093e-05
-2.00275e-05
5.80748e-07
-8.36158e-05
-1.71762e-05
0.0116458
0.00465876
0.00398757
0.00139069
0.00361083
0.00190128
0.000987537
0.000343609
0.00158823
0.000998614
0.000237865
7.55492e-05
0.000871772
0.000593049
4.96913e-05
1.35733e-06
0.000521048
0.000341661
-1.13073e-05
-4.82633e-05
0.000290387
0.00015487
-6.12439e-05
-0.000102992
0.000114434
6.94899e-06
-0.000118178
-0.000163389
-2.47923e-05
-0.000106465
-0.000178232
-0.000219021
-0.00012949
-0.000181759
-0.000230995
-0.00025606
-0.000193333
-0.000205859
-0.000260185
-0.000254168
-0.000202442
-0.000169019
-0.000245552
-0.000198507
-0.000151782
-9.03617e-05
-0.000177169
-0.00010474
-6.9281e-05
-9.45697e-06
-8.02776e-05
-1.11919e-05
0.0136338
0.00596636
0.00343552
0.0104087
0.00525252
-0.00029035
0.00010432
0.00464981
0.00273352
0.00141819
0.00400399
0.00147963
5.90565e-06
-0.000219037
0.00173372
0.00119005
0.000716609
0.00101432
0.000261922
-0.000250554
-0.000329341
0.000854092
0.000593
0.000334259
0.000149941
-1.14525e-05
-0.000346239
-0.000349164
0.000485779
0.000277519
0.000156054
-3.45035e-05
-7.24404e-05
-0.00033986
-0.000304512
0.000265929
0.000125296
4.83388e-05
-8.08479e-05
-0.00010445
-0.000293361
-0.000266897
0.000103897
2.53718e-05
-3.75172e-05
-0.000112999
-0.000142931
-0.000261404
-0.000253653
-2.49681e-05
-5.73677e-05
-0.00011135
-0.000154325
-0.00018933
-0.000253982
-0.000259427
-0.000124325
-0.00012808
-0.000171828
-0.000201015
-0.000233738
-0.000262496
-0.000272379
-0.000189989
-0.000184462
-0.000211225
-0.000243453
-0.000262811
-0.000275776
-0.000279805
-0.000207547
-0.000215932
-0.000211384
-0.000265304
-0.000255388
-0.000278133
-0.000257819
-0.000166372
-0.000203361
-0.000159252
-0.00024567
-0.000196025
-0.000245338
-0.000189516
-8.5968e-05
-0.000139717
-7.64602e-05
-0.000173992
-0.000100282
-0.000166375
-9.10368e-05
-8.57505e-06
-5.56715e-05
-6.76073e-06
-7.63387e-05
-1.03299e-05
-6.73314e-05
-8.59724e-06
-0.0017101
-0.0127685
-0.00756339
-0.0111794
-0.00351466
-0.011229
-0.00732947
0.00240161
-0.0061939
-0.00337578
-0.00199287
-0.000247407
-0.00624978
-0.00386144
0.00130298
-0.00273847
-0.00137775
-0.000161963
-0.000368451
-0.00328871
-0.00203983
0.000402525
-0.00108381
-0.000595562
-0.000457857
-0.000549096
-0.00176343
-0.00122376
0.000151948
-0.000507311
-0.000333392
-0.000539034
-0.000474087
-0.00109944
-0.000816178
5.01753e-05
-0.000295442
-0.000219468
-0.000449126
-0.000380523
-0.000744148
-0.000576751
-1.75196e-05
-0.000204275
-0.00017901
-0.000361276
-0.000316432
-0.000534436
-0.00043834
-7.88701e-05
-0.000176385
-0.000178347
-0.000306051
-0.000286056
-0.000415117
-0.000363963
-0.000136072
-0.000181707
-0.000194926
-0.000282854
-0.000279375
-0.000352011
-0.000326707
-0.000185094
-0.000200605
-0.00021771
-0.000279927
-0.000283153
-0.000321466
-0.000310453
-0.00021695
-0.000223333
-0.000234673
-0.000284601
-0.000284252
-0.000307914
-0.000299142
-0.000212147
-0.000235891
-0.000222754
-0.000281488
-0.000258044
-0.000294649
-0.00026789
-0.000153612
-0.0002122
-0.000160239
-0.000244288
-0.000183062
-0.000253449
-0.000190737
-6.43307e-05
-0.000138063
-7.05087e-05
-0.000157603
-8.134e-05
-0.000165385
-8.40782e-05
-4.85706e-06
-4.84137e-05
-5.75786e-06
-5.92309e-05
-6.83279e-06
-6.06176e-05
-7.98918e-06
-0.00731905
-0.0116301
-0.00851273
-0.0105576
-0.00713836
-0.0105848
-0.00799226
-0.00313053
-0.00748889
-0.0048327
-0.00609467
-0.00379246
-0.00713922
-0.00489763
-0.00154475
-0.00411631
-0.00247029
-0.00328236
-0.00224554
-0.00428449
-0.00284395
-0.000829166
-0.00208005
-0.00126195
-0.00199139
-0.001393
-0.00249041
-0.00170139
-0.000455856
-0.00107802
-0.000697016
-0.00124352
-0.000904959
-0.00151219
-0.00108835
-0.00028601
-0.000613285
-0.000441085
-0.000820159
-0.000626048
-0.00098659
-0.000754359
-0.000217254
-0.000402932
-0.000322464
-0.000577394
-0.000467268
-0.000696586
-0.000559285
-0.000199931
-0.000304206
-0.000271259
-0.000440373
-0.000380377
-0.000524727
-0.000447593
-0.000204702
-0.000267684
-0.00026861
-0.000365803
-0.000333134
-0.000432076
-0.000398333
-0.000216703
-0.000272126
-0.000277719
-0.00032545
-0.00030756
-0.000389101
-0.000366006
-0.000223729
-0.000279241
-0.000277165
-0.000302571
-0.000286924
-0.000359812
-0.000336951
-0.000204794
-0.000272492
-0.000247324
-0.000280555
-0.000249182
-0.000326846
-0.000286966
-0.000133811
-0.000235949
-0.000185246
-0.000233078
-0.000163638
-0.000271211
-0.000217159
-4.00438e-05
-0.000164962
-0.000105259
-0.000134946
-5.27187e-05
-0.000196988
-0.000125745
-7.2317e-08
-8.81256e-05
-1.68715e-05
-3.82617e-05
-2.36397e-06
-0.000101603
-1.36296e-05
0.00533005
0.00239144
-0.00615481
-0.00397853
0.00165975
0.000301663
-0.00352937
-0.00256646
9.20892e-05
-0.000201885
-0.00232161
-0.00171934
-0.000233191
-0.000241541
-0.00155218
-0.00113677
-0.000231208
-0.000198126
-0.00102498
-0.000760537
-0.000190004
-0.000177681
-0.000693182
-0.000539787
-0.000177572
-0.000187829
-0.000502466
-0.000423239
-0.000194474
-0.000218936
-0.000405874
-0.000372641
-0.000228178
-0.000255563
-0.000366354
-0.000355871
-0.000263927
-0.000280154
-0.000354048
-0.000346234
-0.000281918
-0.000269953
-0.000341471
-0.000313525
-0.000259713
-0.00020814
-0.000298787
-0.000235004
-0.000185448
-0.000109435
-0.000208587
-0.000122518
-8.37942e-05
-1.17282e-05
-9.39705e-05
-1.32404e-05
-0.00795177
-0.0117582
-0.0134378
-0.00606299
-0.00833338
-0.00834307
-0.0121411
0.00245146
-0.00230638
-0.00111789
-0.00562889
-0.00355451
-0.00630163
-0.0041799
0.000407545
-0.00101903
-0.000851487
-0.00317854
-0.00242584
-0.00370086
-0.00266034
-0.000256355
-0.000804957
-0.000715463
-0.00222679
-0.00170126
-0.00241168
-0.00183368
-0.000310778
-0.000688103
-0.000590179
-0.00154845
-0.0011596
-0.00167756
-0.00128512
-0.000261291
-0.000555704
-0.000461961
-0.00105258
-0.000795279
-0.00117687
-0.000911112
-0.000227652
-0.000435636
-0.000372444
-0.000728398
-0.000572932
-0.00084014
-0.000669912
-0.000224158
-0.000357078
-0.000324916
-0.000534178
-0.000449792
-0.000625951
-0.000523507
-0.000242871
-0.000318631
-0.000307724
-0.000430358
-0.000391099
-0.00049818
-0.000441117
-0.000269258
-0.000306323
-0.000305126
-0.000382849
-0.000366874
-0.00042728
-0.000395328
-0.000286384
-0.000305503
-0.000301969
-0.000363352
-0.000351179
-0.000387137
-0.000362728
-0.000270972
-0.000298294
-0.000272851
-0.000345172
-0.00031404
-0.000353476
-0.000314016
-0.000205687
-0.000258971
-0.000199457
-0.000298368
-0.000232608
-0.000296129
-0.000226944
-0.000105236
-0.000175245
-9.62323e-05
-0.000205702
-0.000118817
-0.000199692
-0.000110235
-1.08764e-05
-7.1188e-05
-9.11099e-06
-9.05404e-05
-1.2486e-05
-8.23883e-05
-1.08571e-05
-0.00460366
-0.0109323
-0.00744519
-0.0106532
-0.00714439
-0.0103277
-0.00788339
-0.00128502
-0.0064478
-0.00415389
-0.00614678
-0.00410104
-0.0071076
-0.00510012
-0.000999178
-0.00358675
-0.00233483
-0.00366659
-0.00275138
-0.00455324
-0.00327618
-0.000899965
-0.00205202
-0.00146489
-0.00251341
-0.00191643
-0.00295353
-0.00219114
-0.000696155
-0.00132231
-0.000990074
-0.00175138
-0.00133991
-0.00198966
-0.0015021
-0.00052825
-0.000903916
-0.000700393
-0.0012271
-0.000950874
-0.00137182
-0.00105676
-0.000416678
-0.000647875
-0.000525764
-0.000876974
-0.000699704
-0.000973211
-0.000773352
-0.000354407
-0.000495218
-0.000425325
-0.000653596
-0.000545156
-0.000721121
-0.000596905
-0.00032613
-0.000408185
-0.000369904
-0.000517891
-0.000455386
-0.000564772
-0.000489545
-0.000315047
-0.000361119
-0.000340645
-0.000439883
-0.000403112
-0.000470546
-0.000423958
-0.000305971
-0.000335471
-0.000319979
-0.000393447
-0.000365635
-0.000411472
-0.000377332
-0.000272833
-0.00031367
-0.000282353
-0.00035549
-0.000313263
-0.00036568
-0.000321644
-0.000192611
-0.000266731
-0.000200769
-0.000294046
-0.000218984
-0.000302567
-0.000228747
-8.68768e-05
-0.000174578
-8.84211e-05
-0.0001898
-0.000102088
-0.000199836
-0.000104797
-7.39733e-06
-6.43979e-05
-8.58907e-06
-7.50771e-05
-9.33836e-06
-7.78597e-05
-1.06617e-05
-0.00724309
-0.010339
-0.00793018
-0.00993049
-0.00771308
-0.00983481
-0.00793018
-0.00411966
-0.00713196
-0.00500918
-0.00698515
-0.00512993
-0.00727765
-0.00546675
-0.00253371
-0.00442109
-0.00302399
-0.00462908
-0.00339914
-0.00494213
-0.00362628
-0.00161039
-0.00267406
-0.00187495
-0.00306767
-0.00226963
-0.00327081
-0.0024147
-0.00106734
-0.00167865
-0.00122974
-0.00205788
-0.00154731
-0.00218936
-0.00165221
-0.000743986
-0.00111915
-0.000860564
-0.00141149