/*--------------------------------*- C++ -*----------------------------------*\
| =========                 |                                                 |
| \\      /  F ield         | OpenFOAM: The Open Source CFD Toolbox           |
|  \\    /   O peration     | Version:  2012                                  |
|   \\  /    A nd           | Website:  www.openfoam.com                      |
|    \\/     M anipulation  |                                                 |
\*---------------------------------------------------------------------------*/
FoamFile
{
    version     2.0;
    format      ascii;
    class       volVectorField;
    location    "0.106/fluid";
    object      U_0;
}
// * * * * * * * * * * * * * * * * * * * * * * * * * * * * * * * * * * * * * //

dimensions      [0 1 -1 0 0 0 0];


internalField   nonuniform List<vector> 
16422
(
(1.24125 -0.0167144 -0.0103642)
(1.20803 -0.0272204 -0.00478739)
(1.20528 -0.00657669 -0.00435244)
(1.20272 -0.00514119 -0.003404)
(1.2015 -0.0038077 -0.00245533)
(1.20087 -0.00266098 -0.00173139)
(1.20051 -0.00180718 -0.00120746)
(1.2003 -0.00120618 -0.000833729)
(1.20019 -0.000796153 -0.000569492)
(1.20012 -0.000522135 -0.000383826)
(1.20009 -0.000341368 -0.000257123)
(1.20006 -0.000219286 -0.000172967)
(1.20005 -0.000138845 -0.000114337)
(1.20005 -8.64199e-05 -7.3173e-05)
(1.20004 -4.6278e-05 -4.27744e-05)
(1.21534 -0.0042648 0.000498628)
(1.21133 -0.00967567 -0.00142604)
(1.20705 -0.00572843 -0.00232638)
(1.20416 -0.00372418 -0.00219664)
(1.20266 -0.00265648 -0.00173953)
(1.20176 -0.00188897 -0.00130725)
(1.20115 -0.00130991 -0.000959858)
(1.20076 -0.000893364 -0.000692084)
(1.2005 -0.000597819 -0.000487224)
(1.20033 -0.000395038 -0.000338958)
(1.20023 -0.000259556 -0.000232518)
(1.20016 -0.000168539 -0.000159415)
(1.20012 -0.000108515 -0.00010739)
(1.20009 -6.51399e-05 -7.00473e-05)
(1.20008 -3.40312e-05 -4.05738e-05)
(1.21103 -0.00134189 0.00024442)
(1.20962 -0.00296776 -0.000883852)
(1.20705 -0.00241934 -0.00146549)
(1.20483 -0.00173309 -0.00151159)
(1.20333 -0.00127855 -0.00130318)
(1.20228 -0.000921512 -0.00104616)
(1.20154 -0.000647505 -0.000805275)
(1.20104 -0.000444586 -0.000601934)
(1.2007 -0.000297872 -0.000436679)
(1.20047 -0.000194862 -0.000309811)
(1.20033 -0.000122498 -0.000216746)
(1.20023 -7.5454e-05 -0.000151926)
(1.20016 -4.46707e-05 -0.000104397)
(1.20012 -2.083e-05 -6.67533e-05)
(1.2001 -3.67988e-06 -3.88187e-05)
(1.21841 -0.00229975 -0.0022752)
(1.21052 -0.00378504 -0.0047617)
(1.20646 -0.00447024 -0.00421562)
(1.20389 -0.00386358 -0.00322077)
(1.20245 -0.00298882 -0.00234894)
(1.20156 -0.00217088 -0.00167599)
(1.201 -0.0015204 -0.00117356)
(1.20065 -0.00104485 -0.000812278)
(1.20043 -0.000704989 -0.000554355)
(1.2003 -0.00047019 -0.000373936)
(1.20021 -0.00031303 -0.000251257)
(1.20015 -0.000204142 -0.000166957)
(1.20011 -0.000130596 -0.000111444)
(1.20009 -8.25765e-05 -7.28333e-05)
(1.20008 -4.49916e-05 -4.30142e-05)
(1.21204 -0.00164573 0.000421894)
(1.20984 -0.00401948 -0.00158122)
(1.20692 -0.00342461 -0.00227109)
(1.20465 -0.00268276 -0.00210767)
(1.20321 -0.00207351 -0.00167506)
(1.20221 -0.00154103 -0.00126912)
(1.20151 -0.00110539 -0.000933864)
(1.20103 -0.000774547 -0.00067371)
(1.2007 -0.000530698 -0.000477145)
(1.20048 -0.000357361 -0.000330278)
(1.20034 -0.000238873 -0.000227594)
(1.20024 -0.000157512 -0.000155157)
(1.20018 -0.000102653 -0.000103888)
(1.20014 -6.07905e-05 -6.92499e-05)
(1.20011 -3.13926e-05 -4.11053e-05)
(1.20977 -0.000641966 0.000149436)
(1.20875 -0.00158866 -0.000898039)
(1.20683 -0.00153727 -0.00142785)
(1.20503 -0.00126568 -0.00145989)
(1.20365 -0.00100025 -0.00126378)
(1.20259 -0.000752986 -0.00101889)
(1.20181 -0.000547135 -0.000785302)
(1.20125 -0.000386244 -0.000587283)
(1.20087 -0.000264809 -0.000428691)
(1.2006 -0.000176557 -0.000304124)
(1.20042 -0.000111847 -0.000213551)
(1.2003 -6.96465e-05 -0.000146576)
(1.20022 -4.13339e-05 -9.95458e-05)
(1.20016 -1.69528e-05 -6.7166e-05)
(1.20014 -1.14002e-06 -3.89139e-05)
(1.2121 -0.000399041 -0.000537035)
(1.20983 -0.00220344 -0.00267079)
(1.20699 -0.00291162 -0.00279706)
(1.20478 -0.00277309 -0.00232373)
(1.20323 -0.00228864 -0.00176509)
(1.20216 -0.00174688 -0.0012834)
(1.20145 -0.00127198 -0.000908366)
(1.20097 -0.000901525 -0.000632881)
(1.20066 -0.000624975 -0.000433061)
(1.20045 -0.000425938 -0.000291263)
(1.20032 -0.0002897 -0.000195197)
(1.20023 -0.00019231 -0.000130393)
(1.20017 -0.000123131 -8.68649e-05)
(1.20013 -7.89113e-05 -5.54828e-05)
(1.20011 -4.36546e-05 -3.27556e-05)
(1.20991 -0.000464244 3.93365e-06)
(1.20878 -0.00167643 -0.00121848)
(1.20684 -0.00200179 -0.0016549)
(1.20507 -0.0018853 -0.00154956)
(1.20368 -0.00158857 -0.00126524)
(1.20261 -0.00124291 -0.000975316)
(1.20183 -0.000927495 -0.000724576)
(1.20128 -0.000670934 -0.000524591)
(1.20089 -0.000471989 -0.000372543)
(1.20062 -0.000326654 -0.000259055)
(1.20044 -0.000221793 -0.000179159)
(1.20031 -0.000148034 -0.000120882)
(1.20023 -9.59745e-05 -8.0691e-05)
(1.20018 -5.72177e-05 -5.12555e-05)
(1.20015 -2.96115e-05 -3.03732e-05)
(1.20877 -0.000244627 1.87409e-05)
(1.20807 -0.000772222 -0.000698166)
(1.20668 -0.000935335 -0.00106628)
(1.20522 -0.000899403 -0.00109388)
(1.20393 -0.000767212 -0.000965438)
(1.20288 -0.000608292 -0.000787364)
(1.20207 -0.000460363 -0.000611574)
(1.20147 -0.000335356 -0.000457607)
(1.20104 -0.000236048 -0.000333794)
(1.20072 -0.000160355 -0.000239789)
(1.20051 -0.00010405 -0.000168343)
(1.20037 -6.52821e-05 -0.000114161)
(1.20027 -3.90653e-05 -7.61465e-05)
(1.20021 -1.4316e-05 -4.96012e-05)
(1.20017 7.43052e-07 -2.87341e-05)
(1.21014 -0.000259231 -0.000210536)
(1.20905 -0.0014276 -0.00106597)
(1.20713 -0.00203334 -0.00127678)
(1.20525 -0.00209381 -0.00112286)
(1.20371 -0.00183858 -0.000868837)
(1.20257 -0.00147035 -0.000634808)
(1.20176 -0.00110921 -0.000449703)
(1.20119 -0.000806649 -0.000310045)
(1.20081 -0.000573722 -0.000206765)
(1.20056 -0.000398537 -0.000139104)
(1.2004 -0.000276256 -8.99573e-05)
(1.20028 -0.000184949 -5.91687e-05)
(1.20021 -0.000119618 -3.73022e-05)
(1.20016 -7.70231e-05 -2.21638e-05)
(1.20013 -4.34295e-05 -1.01888e-05)
(1.20894 -0.000216909 -7.65298e-05)
(1.20822 -0.000971899 -0.000607514)
(1.20683 -0.00136523 -0.000806503)
(1.20533 -0.00142874 -0.000761538)
(1.20398 -0.00128435 -0.000627274)
(1.2029 -0.00105141 -0.000484502)
(1.20207 -0.000810698 -0.000358088)
(1.20147 -0.000601769 -0.000253847)
(1.20103 -0.000432783 -0.000175783)
(1.20072 -0.000306244 -0.000121257)
(1.20051 -0.000211792 -7.97626e-05)
(1.20037 -0.000142146 -5.34851e-05)
(1.20027 -9.25596e-05 -3.46756e-05)
(1.20021 -5.43885e-05 -1.90301e-05)
(1.20017 -2.90794e-05 -9.13453e-06)
(1.20824 -0.000119613 -3.63276e-05)
(1.20771 -0.000467724 -0.000374797)
(1.20662 -0.000653497 -0.000538257)
(1.20535 -0.000685618 -0.00055141)
(1.20413 -0.000622101 -0.000487066)
(1.20309 -0.000514499 -0.000395183)
(1.20226 -0.000403317 -0.000301856)
(1.20162 -0.000301557 -0.000219874)
(1.20116 -0.000215049 -0.000155431)
(1.20082 -0.000148202 -0.000108598)
(1.20057 -0.000100652 -7.54248e-05)
(1.20041 -6.32941e-05 -5.05939e-05)
(1.2003 -3.60065e-05 -3.03299e-05)
(1.20023 -1.37765e-05 -1.83647e-05)
(1.2002 2.62436e-06 -8.01132e-06)
(1.29727 -0.0743979 -0.0134042)
(1.18686 -0.00791112 -0.0106606)
(1.29096 -0.0720687 0.00521413)
(1.1885 -0.00844485 -0.0140726)
(1.23297 -0.00921044 -0.0127855)
(1.2087 -0.00927211 -0.0113789)
(1.19296 -0.00941543 -0.00932994)
(1.19497 -0.0110156 -0.00659516)
(1.24508 -0.0196033 -0.00289293)
(1.20576 -0.0446333 -0.00406459)
(1.22557 -0.00301645 -0.0020603)
(1.21077 -0.00501362 -0.00520328)
(0.408766 0.0604956 -0.0447906)
(0.299297 0.0723911 -0.00649267)
(1.19412 -0.00987751 -0.0105912)
(1.19683 -0.00947227 -0.00769921)
(1.20683 -0.00903448 -0.0103363)
(1.20384 -0.00718663 -0.0080024)
(1.2057 -0.039347 -0.00557253)
(1.22355 -0.0030369 -0.00244565)
(1.21052 -0.00468825 -0.00595714)
(1.22376 -0.00607163 -0.00645864)
(1.21125 -0.0074218 -0.00332257)
(1.21644 -0.00097793 -0.00264087)
(1.21038 -0.00358909 -0.00596964)
(1.22242 -0.00608797 -0.00828431)
(1.21058 -0.00786138 -0.0118915)
(1.21446 -0.00115182 -0.00164548)
(1.21109 -0.00313403 -0.00401202)
(0.309383 0.0748286 -0.00975815)
(0.593837 0.13829 -0.0140828)
(1.22722 -0.0630699 -0.0136257)
(0.326931 -0.0738146 -0.00707325)
(1.17652 -0.041676 -0.00999304)
(1.19163 -0.0289021 -0.0122156)
(0.627215 -0.149327 -0.0108489)
(0.644575 0.0521797 -0.103149)
(0.580743 0.134083 -0.0167633)
(0.456253 -0.0667913 -0.066844)
(1.22411 -0.0606974 -0.0147827)
(1.27519 -0.0184532 -0.00581229)
(0.317874 -0.0717109 -0.00542146)
(1.22845 -0.0323334 -0.0285614)
(0.691136 -0.0688835 -0.151445)
(1.17969 -0.0411987 -0.0148272)
(1.19295 -0.0265976 -0.0189578)
(1.19656 -0.00632772 -0.0237939)
(0.615722 -0.145851 -0.0142263)
(1.18323 -0.0491325 -0.0109156)
(1.20216 -0.0212822 -0.0312956)
(1.20873 0.0193608 -0.103089)
(0.685074 -0.0263082 -0.0654371)
(1.2282 -0.0119718 -0.0879163)
(1.19754 0.00442918 -0.112748)
(1.25243 -0.0222346 -0.0128316)
(1.23794 -0.00280576 -0.0258577)
(1.22228 -0.0117192 -0.0174399)
(0.703673 -0.00243365 -0.0677081)
(1.22125 -0.0197646 -0.0341124)
(1.22251 -0.00367499 -0.0296881)
(1.2182 0.0397673 -0.0946651)
(1.20119 -0.0018091 -0.025554)
(1.20837 -0.000513163 -0.0162075)
(1.21335 -0.010431 -0.01519)
(1.19868 -0.00127564 -0.0146527)
(1.20423 -0.00361368 -0.0312085)
(1.21129 -0.00176813 -0.0248304)
(0.299805 0.0731417 -0.0109871)
(0.317631 0.077444 -0.0174542)
(1.11012 0.0736525 -0.0165141)
(1.5219 -0.133035 -0.0365742)
(1.39949 -0.159203 -0.0333193)
(1.26674 -0.151987 -0.0107627)
(1.3566 -0.155094 -0.0323198)
(1.11286 -0.0834354 -0.0132105)
(1.20381 -0.107059 -0.0122277)
(1.18397 -0.0591559 -0.0132809)
(0.584731 0.134904 -0.0246842)
(1.12737 0.0735775 -0.00980508)
(1.13147 0.0841899 -0.0313592)
(0.607674 0.142128 -0.026448)
(1.11292 0.0731929 -0.0220847)
(1.11752 0.0732799 -0.0247687)
(1.34816 -0.139507 -0.00283422)
(0.318048 -0.0717805 -0.00598333)
(1.27298 -0.0968495 -0.0559196)
(1.27082 -0.128251 -0.0234951)
(1.30179 -0.0516607 -0.0326563)
(1.38826 -0.148259 -0.0346403)
(1.51767 -0.133376 0.0310333)
(1.39655 -0.158225 0.0110975)
(1.49753 -0.122188 -0.0251525)
(1.35081 -0.146784 -0.0365471)
(0.334509 -0.0754758 -0.0121185)
(1.2665 -0.149025 -0.0152034)
(1.35445 -0.154166 0.00669045)
(1.26677 -0.145233 -0.01906)
(1.38342 -0.140209 0.00409315)
(1.4113 0.010368 0.0175024)
(1.49085 -0.119368 0.0385353)
(1.32069 -0.0445177 -0.0244366)
(1.19354 -0.0507802 -0.0117904)
(0.619227 -0.147574 -0.0139079)
(1.13101 -0.100378 -0.0166643)
(1.23216 -0.064874 -0.0400931)
(1.1288 -0.0984214 -0.0183988)
(1.21517 -0.0905696 -0.0144943)
(1.2109 -0.0426413 -0.0338672)
(1.18683 -0.056888 -0.0163373)
(0.639646 -0.153079 -0.0172348)
(1.11536 -0.0819715 -0.0174407)
(1.20461 -0.10506 -0.0128842)
(1.18517 -0.0583955 -0.0114429)
(1.11936 -0.0814102 -0.0198695)
(1.20634 -0.102258 -0.0166675)
(1.08767 -0.0198032 -0.0853519)
(1.19928 0.00668414 -0.0502818)
(1.21175 0.0126467 -0.0522186)
(1.03022 -0.0085044 -0.0813066)
(1.24971 0.0254061 -0.0249226)
(1.23249 0.0167055 -0.0464353)
(1.18633 -0.034041 -0.0180955)
(1.18999 -1.86278e-05 -0.0385157)
(1.1943 -0.00645313 -0.0287224)
(1.22588 -0.0266054 -0.031748)
(1.09527 -0.000855101 -0.0861173)
(1.1943 -0.0624888 -0.0578267)
(1.19972 -0.0142409 -0.0483005)
(1.21117 -0.0723912 -0.0678326)
(1.21137 -0.0195237 -0.0495182)
(1.21524 -0.0180406 -0.0221443)
(1.23965 -0.0361606 -0.0431002)
(1.03895 -0.0157855 -0.0820705)
(1.29172 -7.91748e-05 -0.0378586)
(1.24833 -0.0295101 -0.024203)
(1.25279 -0.0386552 -0.0340226)
(1.2301 -0.0302734 -0.058185)
(1.23153 -0.022257 -0.0444278)
(1.20164 -0.00569591 -0.0077467)
(1.18909 0.0274643 -0.0221706)
(1.19013 -0.0481934 -0.0347695)
(1.19071 -0.00780634 -0.0365686)
(1.19381 -0.0278359 -0.0234704)
(1.19428 -0.0015629 -0.0271182)
(1.20638 -0.00777076 -0.00819899)
(1.18946 0.203855 -0.201705)
(0.312657 0.0871025 0.006214)
(1.18429 0.0940752 -0.179176)
(1.16696 0.162817 -0.157851)
(1.23059 0.13714 -0.236463)
(1.00071 0.178454 -0.0605974)
(1.00771 0.180029 -0.0563113)
(1.17352 0.209099 -0.0379943)
(0.312343 0.0758636 -0.0129466)
(1.1507 0.16247 -0.0297187)
(1.17647 0.21127 -0.0292216)
(1.15168 0.160963 -0.0299775)
(0.992359 0.173872 -0.229624)
(1.28692 0.153471 -0.323405)
(1.00534 0.181742 -0.0452172)
(1.02311 0.184287 -0.0297355)
(1.17255 0.212865 -0.0231906)
(0.298585 0.072098 -0.00565004)
(1.1524 0.165015 -0.0215018)
(1.17839 0.21396 -0.0279463)
(1.14728 0.164713 -0.0246236)
(1.16914 0.0971618 -0.0247521)
(0.579063 0.133981 -0.0148221)
(1.18185 0.120099 -0.0134714)
(0.906785 0.0988454 -0.0171443)
(1.1776 0.120373 -0.0284349)
(0.904743 0.0987262 -0.0197277)
(1.17259 0.0965113 -0.0144598)
(1.00899 -0.161683 -0.0443273)
(1.0264 -0.163563 -0.0244367)
(1.18043 -0.201019 -0.0211213)
(0.31758 -0.0718 -0.00515135)
(1.16224 -0.166528 -0.0183412)
(1.15732 -0.16621 -0.0213612)
(1.18641 -0.201731 -0.0238275)
(1.17838 -0.109726 -0.0214201)
(0.614703 -0.145888 -0.0132403)
(0.911686 -0.121734 -0.0137332)
(1.19513 -0.134255 -0.0115243)
(0.910101 -0.121979 -0.0167354)
(1.19108 -0.13429 -0.0240332)
(1.18163 -0.10913 -0.011272)
(1.20112 0.101852 -0.105879)
(0.618997 0.153386 -0.0078765)
(1.22291 0.0581893 -0.155741)
(0.899957 0.0392237 0.0362607)
(1.2003 0.11807 -0.143264)
(0.93949 0.097662 0.0189347)
(1.21394 0.059041 -0.117799)
(1.17499 0.0943742 -0.0203558)
(0.599479 0.139968 -0.0193302)
(1.18031 0.118088 -0.0326264)
(0.907836 0.0988546 -0.0236363)
(1.18299 0.116801 -0.0206065)
(1.17138 0.0952882 -0.0282084)
(0.910764 0.0996776 -0.0218614)
(1.1986 -0.196427 -0.192906)
(0.334553 -0.0861162 0.0166859)
(1.1986 -0.112836 -0.173839)
(1.18285 -0.172656 -0.148703)
(1.23665 -0.144805 -0.225473)
(1.00547 -0.157102 -0.0548994)
(1.01199 -0.15921 -0.0544679)
(1.1814 -0.196082 -0.0327276)
(0.329365 -0.074362 -0.00937829)
(1.16052 -0.163711 -0.0255012)
(1.1844 -0.198546 -0.0263474)
(1.16126 -0.162348 -0.025445)
(0.995903 -0.151738 -0.224737)
(1.2966 -0.136835 -0.311893)
(1.20912 -0.113735 -0.0997166)
(0.658299 -0.179244 0.0300337)
(0.918761 -0.0716834 0.00860446)
(1.23491 -0.0723803 -0.156031)
(0.946818 -0.165693 0.0191336)
(1.21656 -0.133455 -0.132472)
(1.21677 -0.071121 -0.12487)
(1.1839 -0.106864 -0.0159253)
(0.631832 -0.150709 -0.0142822)
(0.912525 -0.121234 -0.0195922)
(1.19372 -0.132033 -0.0271553)
(1.18058 -0.107678 -0.0238264)
(0.914982 -0.121377 -0.0168831)
(1.19616 -0.131038 -0.017311)
(1.18569 0.0372202 -0.0909781)
(1.20547 -0.0138744 -0.135993)
(1.27122 -0.031345 -0.107605)
(1.20829 -0.0268226 -0.06913)
(1.21349 0.0114044 -0.172508)
(1.17811 0.0352306 -0.0825658)
(1.24023 -0.0354223 -0.0962601)
(1.27888 0.0265409 -0.0963273)
(0.865607 0.00349836 -0.0680492)
(1.41022 -0.0382713 -0.10945)
(1.22845 -0.00410564 -0.222072)
(1.29497 0.0251661 -0.0989129)
(1.38691 -0.0351758 -0.10733)
(1.17223 0.0209537 -0.040823)
(1.18576 -0.0403446 -0.10982)
(1.25835 -0.0574051 -0.0264902)
(1.17555 -0.0256458 -0.0392562)
(1.18101 -0.0545432 -0.0724796)
(1.17188 0.0345903 -0.0633411)
(1.1687 -0.0255608 -0.0190595)
(1.18582 -0.0475116 -0.0863448)
(1.2779 0.00883103 -0.108457)
(1.20866 -0.000914737 -0.132797)
(1.20606 0.0195631 -0.066699)
(1.21307 -0.0256604 -0.166733)
(1.23881 0.0276368 -0.0914629)
(1.17865 -0.0455553 -0.0799797)
(1.27571 -0.0338082 -0.0907656)
(0.879549 -0.0336422 -0.0692614)
(1.40951 0.0323806 -0.108833)
(1.29217 -0.0309733 -0.0932976)
(1.23234 0.00118381 -0.206882)
(1.38583 0.0282461 -0.106476)
(1.1739 -0.0318579 -0.0418357)
(1.27203 0.0589338 -0.0287141)
(1.19056 0.0281412 -0.110604)
(1.17353 0.0190378 -0.0423794)
(1.18526 0.0418963 -0.0765618)
(1.16856 0.0204872 -0.0249628)
(1.17339 -0.0449573 -0.0634045)
(1.15919 0.199323 -0.129445)
(0.32561 0.0857166 -0.0231118)
(1.1476 0.148105 -0.0754975)
(1.16159 0.19064 -0.091329)
(1.15129 0.160545 -0.0979019)
(1.17253 0.217363 -0.221866)
(1.28132 0.177943 -0.294573)
(1.14869 0.193988 -0.260298)
(1.22183 0.165357 -0.240221)
(1.12428 0.20363 -0.153251)
(1.10822 0.176388 -0.118062)
(1.13142 0.19941 -0.104205)
(1.11445 0.187812 -0.217047)
(1.069 0.182555 -0.0577055)
(1.10604 0.19094 -0.044706)
(1.10008 0.187018 -0.0508808)
(1.07723 0.184636 -0.0534716)
(0.976377 0.170907 -0.0838825)
(0.980997 0.168636 -0.124405)
(1.04512 0.174221 -0.081234)
(1.08672 0.173253 -0.106128)
(1.08011 0.179939 -0.0693085)
(1.04956 0.170624 -0.119607)
(1.16859 0.203868 -0.0507648)
(0.299496 0.072718 -0.00851826)
(1.1559 0.155991 -0.0517422)
(1.17438 0.202588 -0.0669445)
(1.14786 0.15684 -0.0460104)
(1.14849 0.222574 -0.0446738)
(1.15138 0.208749 -0.0394461)
(1.14515 0.204349 -0.0479617)
(1.15614 0.226489 -0.0298204)
(1.14374 0.217103 -0.05504)
(1.13393 0.190001 -0.0986642)
(1.14466 0.213403 -0.0790176)
(1.12706 0.197176 -0.0628516)
(1.05752 0.174784 -0.24239)
(1.28561 0.155444 -0.303586)
(1.09873 0.1794 -0.257252)
(1.30699 0.184198 -0.326246)
(0.974512 0.175701 -0.212975)
(0.953524 0.157623 -0.144205)
(1.03472 0.175142 -0.216635)
(1.0595 0.160573 -0.127681)
(1.06732 0.174308 -0.220756)
(1.02035 0.157667 -0.142338)
(1.07413 0.186445 -0.042679)
(1.11864 0.194736 -0.027364)
(1.09206 0.189294 -0.029037)
(1.1013 0.192663 -0.0358106)
(0.306336 0.073977 -0.00746742)
(1.15234 0.22785 -0.0225254)
(1.16256 0.212554 -0.0273457)
(1.15768 0.228782 -0.0330301)
(1.14648 0.210365 -0.0315947)
(0.589294 0.137295 -0.0103015)
(1.07588 -0.166416 -0.0418621)
(1.12202 -0.190704 -0.0246379)
(1.10498 -0.188434 -0.0317373)
(1.09336 -0.168287 -0.0231346)
(1.11393 -0.190871 -0.0122427)
(0.324318 -0.0733859 -0.00532924)
(1.16429 -0.21287 -0.0197549)
(1.16724 -0.208286 -0.0252375)
(1.15124 -0.205597 -0.0274657)
(1.17027 -0.213624 -0.0299257)
(1.15918 -0.208145 -0.0140009)
(0.623409 -0.148552 -0.00808272)
(1.19262 0.108045 -0.0659618)
(0.634371 0.156357 -0.0396387)
(1.18387 0.109403 -0.0685344)
(0.92204 0.102404 -0.0367323)
(1.19065 0.12226 -0.0786577)
(1.18086 0.0920263 -0.0550843)
(0.943769 0.11282 -0.0340739)
(1.17254 0.0924952 -0.0378584)
(0.582769 0.134532 -0.0201574)
(1.18814 0.113227 -0.0379215)
(0.917013 0.10144 -0.027773)
(1.17982 0.113924 -0.045223)
(1.1804 0.0920834 -0.0333523)
(0.911612 0.0997093 -0.0296707)
(1.16733 -0.18733 -0.118182)
(0.346004 -0.0836994 -0.0153691)
(1.15766 -0.150976 -0.0665353)
(1.16987 -0.177851 -0.0849854)
(1.16239 -0.164947 -0.085899)
(1.18369 -0.203916 -0.208391)
(1.28514 -0.179891 -0.274959)
(1.14911 -0.186911 -0.245735)
(1.2319 -0.161156 -0.230916)
(1.13804 -0.187656 -0.141518)
(1.11612 -0.172717 -0.108806)
(1.14593 -0.183179 -0.0967568)
(1.11958 -0.183753 -0.202676)
(1.07139 -0.161188 -0.0512428)
(1.10994 -0.18666 -0.0396877)
(1.07945 -0.163745 -0.0517802)
(1.10408 -0.18329 -0.0464796)
(0.982512 -0.149568 -0.0807707)
(0.988129 -0.146802 -0.117876)
(1.04876 -0.153227 -0.0781329)
(1.09249 -0.170578 -0.0979906)
(1.08474 -0.175962 -0.0627953)
(1.05411 -0.149132 -0.111788)
(1.17645 -0.190584 -0.0466317)
(0.317573 -0.0716072 -0.00626269)
(1.16569 -0.157929 -0.0446182)
(1.18274 -0.189444 -0.0597987)
(1.15749 -0.158209 -0.0401721)
(1.16154 -0.206578 -0.0405728)
(1.15637 -0.203991 -0.0344543)
(1.16872 -0.210812 -0.0262001)
(1.15031 -0.200081 -0.0442752)
(1.15686 -0.200709 -0.0501885)
(1.14057 -0.186719 -0.0915332)
(1.15893 -0.197282 -0.0732465)
(1.13258 -0.192339 -0.0566157)
(1.05775 -0.153771 -0.238634)
(1.28379 -0.160559 -0.284692)
(1.09859 -0.174076 -0.244509)
(1.30722 -0.17073 -0.31834)
(0.978675 -0.15273 -0.208662)
(0.961964 -0.136004 -0.13985)
(1.03607 -0.153553 -0.211585)
(1.06684 -0.157835 -0.117874)
(1.07158 -0.171494 -0.207726)
(1.02643 -0.136963 -0.137595)
(1.19838 -0.120622 -0.0497716)
(0.670828 -0.176347 -0.00965997)
(0.924959 -0.124713 -0.0250981)
(1.19659 -0.1259 -0.0566634)
(0.943202 -0.143495 -0.0166327)
(1.20345 -0.137945 -0.0641808)
(1.18757 -0.106177 -0.0450156)
(1.18157 -0.105261 -0.0316504)
(0.61689 -0.146201 -0.0155481)
(0.920753 -0.121763 -0.0195693)
(1.20116 -0.12822 -0.0316874)
(0.916013 -0.120802 -0.0232825)
(1.19308 -0.128269 -0.0379115)
(1.18888 -0.105288 -0.0265806)
(1.20299 0.0307547 -0.096135)
(1.21847 -0.042179 -0.0993066)
(1.25237 0.00155917 -0.1921)
(1.31953 -0.0396965 -0.107651)
(1.23125 0.0173623 -0.18169)
(1.21765 0.0261679 -0.0895975)
(1.28716 -0.0358555 -0.11133)
(1.25804 0.0231119 -0.0900932)
(0.909583 0.00575715 -0.0703129)
(1.23059 0.0393756 -0.197764)
(1.34948 -0.0361667 -0.107529)
(1.23348 0.0272656 -0.217877)
(1.2426 0.020869 -0.0879994)
(1.37047 -0.0390059 -0.109279)
(1.20267 -0.0411641 -0.0920856)
(1.22698 0.0116201 -0.101253)
(1.25273 -0.0132301 -0.177335)
(1.3163 0.0284273 -0.103456)
(1.23246 -0.0277272 -0.173098)
(1.28517 0.0259993 -0.106872)
(1.2166 -0.0357889 -0.0860065)
(1.2544 -0.0311595 -0.0855942)
(0.922149 -0.034746 -0.0713995)
(1.22838 -0.0458219 -0.185203)
(1.34732 0.0257407 -0.104782)
(1.23287 -0.0255254 -0.207803)
(1.36807 0.0307022 -0.107532)
(1.23979 -0.0290463 -0.083971)
(1.21364 -0.0320496 -0.0106799)
(1.23636 -0.0146159 -0.010519)
(1.21746 -0.0267701 -0.0122709)
(1.22892 -0.0117345 -0.0098294)
(1.24214 -0.0185112 -0.00450573)
(1.23213 -0.0182749 -0.00890215)
(1.23691 -0.0106009 -0.00414326)
(1.21137 -0.00354762 -0.00474501)
(1.21449 -0.000884322 -0.00200551)
(1.2102 -0.00277386 -0.00484573)
(1.21329 -0.000619749 -0.000643303)
(1.21084 -0.00242706 -0.00255356)
(1.21119 -0.000494619 -0.000882169)
(1.20958 -0.00184412 -0.00236538)
(1.31794 -0.0500389 -0.0097547)
(1.27878 -0.0770466 -0.0147654)
(1.2725 -0.0806401 -0.0133896)
(1.26258 -0.0691486 -0.0261259)
(1.30989 -0.0450153 -0.00704927)
(1.27341 -0.0743015 -0.00224304)
(1.28654 -0.0627138 -0.00956078)
(1.27089 -0.0650329 -0.014544)
(1.26612 -0.0750551 -0.0127501)
(1.3029 -0.0402516 -0.0188605)
(1.21429 -0.0369091 -0.0042697)
(1.24683 -0.0201104 -0.00380257)
(1.23547 -0.0198775 -0.00733202)
(0.671146 0.100803 -0.00588345)
(0.269743 0.0651239 0.0776087)
(0.795069 0.0455308 -0.0721228)
(0.707704 0.117778 -0.00202097)
(0.75517 -0.0373097 -0.0943832)
(0.748345 0.15385 -0.0315002)
(0.309197 0.0749722 -0.0110086)
(0.755325 0.159696 -0.0246811)
(0.719528 0.145186 -0.0325039)
(0.775498 0.164951 -0.034208)
(1.22586 -0.0120889 -0.00783355)
(1.21785 -0.008714 -0.00656445)
(1.2137 -0.0239878 -0.00961059)
(1.22327 -0.00948477 -0.0114086)
(1.22302 -0.00413276 -0.00577828)
(1.22899 -0.00906735 -0.00531731)
(1.21936 -0.00659039 -0.0104285)
(0.718745 0.14589 -0.0274549)
(0.297903 0.0719705 -0.00638975)
(0.776676 0.165592 -0.0279404)
(0.746691 0.152839 -0.0239847)
(0.752439 0.159299 -0.0206738)
(0.985786 0.13381 -0.0149329)
(0.577222 0.132305 -0.015696)
(0.961749 0.19112 -0.0280783)
(0.585882 0.0922912 -0.0323067)
(0.941071 0.184642 -0.0202899)
(0.566546 0.0849909 -0.00200376)
(1.00488 0.139065 -0.0301171)
(0.741428 -0.150284 -0.0261436)
(0.316905 -0.0715807 -0.00579647)
(0.799813 -0.164188 -0.022106)
(0.777703 -0.15854 -0.0191015)
(0.767156 -0.156554 -0.017796)
(1.00547 -0.14941 -0.0118831)
(0.612936 -0.144404 -0.0134889)
(0.616912 -0.125396 -0.0281973)
(0.983966 -0.194359 -0.0229144)
(0.600032 -0.119246 -0.00066888)
(0.965231 -0.188984 -0.0175259)
(1.02272 -0.153339 -0.0252473)
(0.943093 0.0736106 -0.0405659)
(0.530022 0.0906852 0.0561825)
(0.947135 0.0539402 -0.0758639)
(0.642371 -0.0322929 -0.0532915)
(0.886029 0.117185 -0.0457229)
(0.510423 0.0215473 0.111803)
(0.986875 -0.00315418 -0.0675669)
(1.00106 0.136164 -0.0369618)
(0.592824 0.1372 -0.0165281)
(0.945442 0.185875 -0.0261464)
(0.571585 0.0887915 0.00115043)
(0.958805 0.18966 -0.0356268)
(0.990618 0.13579 -0.0204077)
(0.583254 0.088883 -0.0310172)
(0.703298 -0.0966791 -0.01198)
(0.293216 -0.0746753 0.0898067)
(0.85595 -0.0626108 -0.098975)
(0.755743 -0.128416 -0.012763)
(0.815886 0.0448312 -0.102634)
(1.25192 -0.0633451 -0.0376126)
(1.27592 -0.0532522 0.00697654)
(1.27326 -0.0502821 -0.0366623)
(1.26111 -0.0233846 -0.0156107)
(1.26098 -0.0565754 -0.00473434)
(1.28532 -0.0386183 -0.0269086)
(1.25445 -0.064009 -0.0484043)
(0.768277 -0.157193 -0.0247192)
(0.32663 -0.0737945 -0.00802585)
(0.780622 -0.158652 -0.0217196)
(0.742361 -0.149636 -0.0299563)
(0.798396 -0.163128 -0.0273831)
(0.957417 -0.110855 -0.0564232)
(0.566686 -0.115416 0.0402445)
(0.679448 0.0122297 -0.0932239)
(0.987897 -0.0853776 -0.108422)
(0.47857 -0.0776184 0.0943354)
(0.917233 -0.152488 -0.0612386)
(1.01843 -0.0315402 -0.100503)
(1.01874 -0.150232 -0.0312464)
(0.626176 -0.148368 -0.0129872)
(0.604849 -0.122609 0.00251475)
(0.969455 -0.189529 -0.0218664)
(1.01019 -0.150736 -0.0164828)
(0.613615 -0.121366 -0.0267879)
(0.980896 -0.192468 -0.0291138)
(1.31443 -0.00504971 -0.143111)
(1.21458 0.00521597 -0.0940764)
(1.38732 0.0208785 -0.148041)
(1.30852 -0.0149776 -0.133725)
(1.25692 0.0366454 -0.134966)
(1.29119 -0.014259 -0.10265)
(1.32101 -0.0170111 -0.174304)
(1.36795 0.00985205 -0.121868)
(0.752647 -0.0110223 -0.0655075)
(1.25144 -0.0100413 -0.0560352)
(0.918751 -0.0455497 -0.10241)
(1.36912 0.0202963 -0.115407)
(1.25814 -0.0117828 -0.0623727)
(1.27227 -0.0324524 -0.0595428)
(1.24801 -0.0533147 -0.0733677)
(1.23376 -0.0238177 -0.0357312)
(1.3046 -0.0141614 -0.0930186)
(1.25776 -0.0989117 -0.0467672)
(1.28889 -0.0211949 -0.0760497)
(1.29476 -0.0129462 -0.0520378)
(1.3162 -0.00845565 -0.146168)
(1.37783 -0.0172845 -0.147586)
(1.25326 -0.0124322 -0.104632)
(1.30812 0.00224392 -0.137358)
(1.28632 -0.0558443 -0.134386)
(1.32107 5.80591e-05 -0.184083)
(1.29496 0.00503524 -0.103796)
(1.23566 -0.0237777 -0.0237485)
(1.24936 -0.0305387 -0.0259638)
(1.24253 -0.0484227 -0.0267428)
(1.24277 -0.024642 -0.0258414)
(1.24284 -0.0302619 -0.0317679)
(1.24781 -0.0225341 -0.0169024)
(1.22736 -0.0497 -0.0346993)
(1.37745 -0.0198135 -0.123944)
(0.770526 -0.0186832 -0.0672234)
(1.27314 0.00231474 -0.0598482)
(1.37762 -0.0295597 -0.116509)
(0.934014 0.0244489 -0.104342)
(1.27848 -0.000807338 -0.0655034)
(1.27643 0.0324338 -0.0444395)
(1.23586 0.0519584 -0.0401119)
(1.2924 0.0427599 -0.086753)
(1.30443 0.00621319 -0.0917266)
(1.29716 0.0798803 -0.0551193)
(1.29252 0.0152283 -0.0529514)
(1.29143 0.0185077 -0.0688114)
(0.764205 0.160054 -0.0780979)
(0.31569 0.0776508 -0.0223983)
(0.756177 0.158275 -0.0474776)
(0.717096 0.144353 -0.059867)
(0.790396 0.168493 -0.0714459)
(0.41766 0.0767519 -0.0272725)
(0.581783 0.0722363 -0.0912395)
(0.33137 0.0830535 -0.0654388)
(0.329861 0.0793445 -0.0512527)
(0.722183 0.146328 -0.0473369)
(0.300402 0.073179 -0.0102442)
(0.793381 0.168221 -0.0552412)
(0.765952 0.157008 -0.0575475)
(0.757639 0.159281 -0.0379672)
(0.338279 0.0835917 -0.0207712)
(0.328553 0.0783899 -0.0223981)
(0.33531 0.0816696 -0.0339426)
(0.331914 0.0810562 -0.0431632)
(0.333424 0.0813295 -0.0145535)
(0.331918 0.0795146 -0.0118345)
(1.40312 -0.165983 0.00370967)
(1.36203 -0.134256 -0.0215063)
(1.52875 -0.127615 0.0306019)
(1.48314 -0.138404 -0.0345939)
(1.48964 -0.134025 0.0232307)
(1.35722 -0.133426 -4.83848e-05)
(1.40738 -0.167565 -0.0246417)
(1.42364 -0.191463 0.00605075)
(1.40654 -0.156049 0.0144726)
(1.45025 -0.151682 -0.035495)
(1.40424 -0.202576 -0.0291575)
(1.45769 -0.147775 0.0204616)
(1.40146 -0.200248 0.00641979)
(1.42709 -0.193595 -0.0274648)
(0.336938 -0.0730912 -0.0133679)
(0.335919 -0.071051 -0.0096976)
(1.01795 0.138777 -0.0667593)
(0.604733 0.140776 -0.0334215)
(0.949899 0.185301 -0.0496911)
(0.576786 0.0906709 -0.00541336)
(0.973759 0.193674 -0.0699991)
(0.99787 0.134974 -0.0417176)
(0.596456 0.0939397 -0.05093)
(0.993749 0.134208 -0.0316697)
(0.583801 0.133882 -0.0223246)
(0.977634 0.194185 -0.053575)
(0.599722 0.0969019 -0.0424825)
(0.948639 0.185471 -0.0381882)
(1.0201 0.140351 -0.0515395)
(0.572692 0.0878575 -0.0074181)
(0.787427 -0.163814 -0.065922)
(0.333335 -0.0756178 -0.0154954)
(0.783714 -0.157309 -0.0363514)
(0.742225 -0.149509 -0.0501807)
(0.8167 -0.167345 -0.0567287)
(0.419273 -0.068061 -0.0214599)
(0.57874 -0.0646761 -0.0809728)
(0.335202 -0.0731789 -0.0588062)
(0.333041 -0.0698882 -0.0461188)
(1.39475 -0.171648 -0.00718491)
(1.37394 -0.177017 -0.041255)
(1.39772 -0.148769 0.0063511)
(1.43516 -0.140157 -0.0320331)
(1.44631 -0.140147 0.0151223)
(1.37811 -0.181323 -0.0072714)
(1.38924 -0.167673 -0.04028)
(1.38428 -0.156665 -0.0245482)
(1.35532 -0.128567 -0.000360326)
(1.47914 -0.137999 0.0223458)
(1.51567 -0.123502 -0.0335299)
(1.47825 -0.128929 -0.0336488)
(1.40111 -0.162486 0.00356471)
(1.33562 -0.123575 -0.0219966)
(1.408 -0.182231 -0.0274873)
(1.39933 -0.150885 -0.0359416)
(1.44676 -0.151135 0.0181402)
(1.3997 -0.19829 0.00560471)
(1.44863 -0.142656 -0.0364288)
(1.42157 -0.189022 0.00561744)
(1.38901 -0.191284 -0.0295884)
(1.3687 -0.145751 -0.00925089)
(1.46228 -0.126123 -0.0285624)
(1.51142 -0.120299 0.0313526)
(1.31108 -0.109714 -0.0381677)
(1.47452 -0.125772 0.020117)
(1.31829 -0.112492 -0.0134174)
(1.36209 -0.142595 -0.0389829)
(0.745967 -0.151022 -0.0408013)
(0.318601 -0.0719639 -0.00719752)
(0.817784 -0.16634 -0.0437723)
(0.78815 -0.16108 -0.0470264)
(0.783602 -0.157766 -0.0309562)
(0.34188 -0.0747228 -0.0182546)
(0.331948 -0.0698655 -0.0206375)
(0.339062 -0.0725558 -0.0304161)
(0.336279 -0.0715826 -0.0383648)
(1.36005 -0.139056 -0.0492971)
(1.36552 -0.153713 -0.0190451)
(1.42934 -0.132554 0.0166035)
(1.37998 -0.118469 -0.0207324)
(1.34812 -0.141956 -0.0498793)
(1.37992 -0.146146 -0.0190139)
(1.42223 -0.107235 -0.0106337)
(1.35008 -0.129902 -0.083787)
(1.37243 -0.17572 -0.104849)
(1.44919 -0.0826783 0.0430216)
(1.38102 0.00066664 -0.000906444)
(1.30153 -0.111741 -0.0943738)
(1.41862 -0.0873965 0.0256587)
(1.40361 -0.172442 -0.0991058)
(1.33087 -0.123502 -0.0521277)
(1.45595 -0.120226 0.0233831)
(1.30299 -0.0938866 -0.0272187)
(1.47688 -0.0911819 0.00472099)
(1.28022 -0.0996871 -0.0560212)
(1.35248 -0.124121 -0.0218617)
(1.44363 -0.093854 -0.0047512)
(1.37477 -0.139178 -0.0706518)
(1.35523 -0.110482 0.00427768)
(1.37738 -0.151068 -0.109729)
(1.35418 -0.0166827 -0.00966362)
(1.3609 -0.138124 -0.0666664)
(1.39348 -0.0989691 0.0208057)
(1.40997 -0.165138 -0.101838)
(1.03564 -0.1546 -0.0514916)
(0.63881 -0.154024 -0.0193725)
(0.608497 -0.120961 0.00586938)
(0.975403 -0.188637 -0.0363645)
(0.625805 -0.122339 -0.0362183)
(0.998147 -0.197211 -0.0532555)
(1.01737 -0.150239 -0.0291714)
(1.0125 -0.148168 -0.0233245)
(0.617945 -0.145804 -0.0155206)