/*--------------------------------*- C++ -*----------------------------------*\
| =========                 |                                                 |
| \\      /  F ield         | OpenFOAM: The Open Source CFD Toolbox           |
|  \\    /   O peration     | Version:  2012                                  |
|   \\  /    A nd           | Website:  www.openfoam.com                      |
|    \\/     M anipulation  |                                                 |
\*---------------------------------------------------------------------------*/
FoamFile
{
    version     2.0;
    format      ascii;
    class       surfaceVectorField;
    location    "0.106/fluid";
    object      Uf_0;
}
// * * * * * * * * * * * * * * * * * * * * * * * * * * * * * * * * * * * * * //

dimensions      [0 1 -1 0 0 0 0];


internalField   nonuniform List<vector> 
46886
(
(1.2771 -0.0511051 0.00066835)
(1.24317 -0.0181671 -0.00650484)
(1.22444 -0.0243567 -0.0105193)
(1.23882 -0.0156714 -0.0106827)
(1.24169 -0.0193097 -0.00743044)
(1.2605 -0.0532664 -0.00577809)
(1.27229 -0.0451015 -0.00906912)
(1.25768 -0.0472415 -0.013934)
(1.20107 -0.0178889 -0.00769212)
(1.20783 -0.0332733 -0.00517933)
(1.20824 -0.0291857 -0.004477)
(1.20881 -0.0255309 -0.00544277)
(1.20912 -0.0214618 -0.00463255)
(1.20436 -0.0183428 -0.00758346)
(1.20509 -0.00692856 -0.00430224)
(1.20197 -0.00758177 -0.00543155)
(1.20592 -0.00692093 -0.00441199)
(1.20528 -0.00641499 -0.00430411)
(1.20496 -0.00636481 -0.00425476)
(1.20347 -0.00654986 -0.00475743)
(1.20257 -0.00531751 -0.00336454)
(1.20231 -0.0054792 -0.00363706)
(1.20298 -0.00529388 -0.00353421)
(1.20252 -0.00498011 -0.00327729)
(1.20262 -0.00494842 -0.00330266)
(1.20286 -0.00498127 -0.00340779)
(1.20139 -0.00391034 -0.00242621)
(1.20132 -0.00393443 -0.0025627)
(1.20161 -0.00397275 -0.00256431)
(1.20141 -0.0036506 -0.00235403)
(1.20166 -0.00367199 -0.00235632)
(1.20162 -0.00370411 -0.00246676)
(1.20078 -0.00272181 -0.00170968)
(1.20073 -0.00273582 -0.0017946)
(1.20093 -0.00279022 -0.00181145)
(1.20082 -0.00254109 -0.0016575)
(1.201 -0.00257683 -0.00167183)
(1.20096 -0.00259916 -0.00174157)
(1.20044 -0.00184239 -0.00119256)
(1.20041 -0.00185095 -0.00124407)
(1.20054 -0.00190105 -0.00126485)
(1.20048 -0.00172128 -0.0011547)
(1.2006 -0.00175524 -0.00117285)
(1.20057 -0.00177124 -0.0012146)
(1.20026 -0.00122612 -0.00082316)
(1.20024 -0.00123064 -0.000854277)
(1.20032 -0.00127108 -0.000874643)
(1.20028 -0.00114715 -0.00079626)
(1.20037 -0.00117547 -0.000814111)
(1.20035 -0.00118598 -0.000838592)
(1.20016 -0.000807655 -0.000562693)
(1.20014 -0.000810442 -0.000581256)
(1.2002 -0.000840059 -0.000598354)
(1.20018 -0.000756417 -0.000543004)
(1.20023 -0.000777435 -0.000558178)
(1.20022 -0.000784581 -0.000572539)
(1.2001 -0.000528489 -0.000379138)
(1.20009 -0.000530394 -0.000390455)
(1.20013 -0.000551203 -0.000403874)
(1.20012 -0.000495963 -0.00036558)
(1.20015 -0.000510526 -0.000377537)
(1.20014 -0.00051557 -0.000386029)
(1.20007 -0.000344738 -0.000253704)
(1.20007 -0.00034652 -0.000260648)
(1.20009 -0.000360666 -0.000270638)
(1.20008 -0.000323853 -0.000244915)
(1.20011 -0.000333992 -0.000253762)
(1.2001 -0.000337854 -0.000258829)
(1.20005 -0.000221181 -0.000170993)
(1.20005 -0.00022267 -0.000174939)
(1.20007 -0.000232422 -0.00018189)
(1.20006 -0.000207424 -0.000164812)
(1.20008 -0.000214617 -0.000171085)
(1.20007 -0.00021733 -0.000173848)
(1.20004 -0.000139877 -0.000112879)
(1.20004 -0.000140642 -0.000115377)
(1.20005 -0.000147183 -0.00012085)
(1.20005 -0.000131386 -0.00010842)
(1.20006 -0.000136262 -0.000113324)
(1.20006 -0.000137825 -0.000115001)
(1.20004 -8.68643e-05 -7.19821e-05)
(1.20004 -8.72364e-05 -7.36505e-05)
(1.20005 -9.21981e-05 -7.76622e-05)
(1.20005 -8.09615e-05 -6.89157e-05)
(1.20005 -8.49281e-05 -7.273e-05)
(1.20005 -8.59444e-05 -7.39371e-05)
(1.20004 -4.65017e-05 -4.2168e-05)
(1.20004 -4.71139e-05 -4.29828e-05)
(1.20004 -5.07701e-05 -4.60354e-05)
(1.20004 -4.22142e-05 -3.97099e-05)
(1.20005 -4.57486e-05 -4.25618e-05)
(1.20005 -4.60808e-05 -4.31385e-05)
(1.21944 -0.00339473 -0.000973673)
(1.21571 -0.00451222 0.000592641)
(1.21459 -0.00595281 0.000175203)
(1.21493 -0.00388343 0.000517604)
(1.21565 -0.00222743 -0.000362623)
(1.21154 -0.0103028 -0.00142006)
(1.20919 -0.00724619 -0.00363682)
(1.21177 -0.00993115 -0.00122478)
(1.21117 -0.00899479 -0.00145213)
(1.2108 -0.00914624 -0.00160228)
(1.21005 -0.00617577 -0.00232634)
(1.20707 -0.00600942 -0.00230172)
(1.20545 -0.00558163 -0.00306601)
(1.20756 -0.00613085 -0.00227584)
(1.20661 -0.00539871 -0.00234189)
(1.20623 -0.00453309 -0.0025007)
(1.20702 -0.00544334 -0.00234064)
(1.20411 -0.0038547 -0.00216722)
(1.20376 -0.00395679 -0.00238448)
(1.20445 -0.00390849 -0.00223888)
(1.20392 -0.00356634 -0.00214473)
(1.20412 -0.0033528 -0.00212103)
(1.20422 -0.00359141 -0.00220879)
(1.20259 -0.00272956 -0.00171684)
(1.20253 -0.00281608 -0.00181836)
(1.2028 -0.00277026 -0.00179892)
(1.20253 -0.00255068 -0.00168178)
(1.20276 -0.00248726 -0.00167107)
(1.20273 -0.00258239 -0.00174951)
(1.2017 -0.00193208 -0.00129035)
(1.20166 -0.00199678 -0.00135335)
(1.20185 -0.00197545 -0.00135737)
(1.20167 -0.0018083 -0.0012598)
(1.20184 -0.00177475 -0.0012663)
(1.20181 -0.00184511 -0.00131538)
(1.20111 -0.00133529 -0.000947723)
(1.20108 -0.00138149 -0.000986892)
(1.20122 -0.00137407 -0.000999255)
(1.2011 -0.00125097 -0.000922973)
(1.20121 -0.00123315 -0.000935743)
(1.2012 -0.00128418 -0.000965653)
(1.20072 -0.000908104 -0.00068324)
(1.20071 -0.000940311 -0.000707759)
(1.2008 -0.000938959 -0.00072231)
(1.20072 -0.000851489 -0.00066372)
(1.2008 -0.000842193 -0.000678008)
(1.20079 -0.00087837 -0.00069633)
(1.20048 -0.00060625 -0.000481155)
(1.20047 -0.000628367 -0.000496249)
(1.20053 -0.000630007 -0.000510033)
(1.20048 -0.000568553 -0.000466254)
(1.20053 -0.000564175 -0.000479297)
(1.20053 -0.000589306 -0.000490268)
(1.20032 -0.000399748 -0.000334759)
(1.20031 -0.00041493 -0.000343889)
(1.20035 -0.000416647 -0.000355202)
(1.20032 -0.000375573 -0.000323976)
(1.20036 -0.000372999 -0.000334431)
(1.20035 -0.000390293 -0.000340846)
(1.20021 -0.000262143 -0.00022953)
(1.20021 -0.000272482 -0.000235278)
(1.20024 -0.000274191 -0.000244167)
(1.20022 -0.000246231 -0.000221929)
(1.20024 -0.000245048 -0.000230042)
(1.20024 -0.000256909 -0.000233969)
(1.20015 -0.000169898 -0.000157709)
(1.20015 -0.000176495 -0.000160892)
(1.20016 -0.000178014 -0.000167181)
(1.20015 -0.000160064 -0.000152297)
(1.20017 -0.000159565 -0.00015812)
(1.20017 -0.000167127 -0.000160239)
(1.20011 -0.000109165 -0.000106036)
(1.20011 -0.000113999 -0.000108085)
(1.20012 -0.000115182 -0.000113293)
(1.20011 -0.00010233 -0.000102013)
(1.20012 -0.00010368 -0.000106748)
(1.20012 -0.000107828 -0.000108021)
(1.20009 -6.56114e-05 -6.88735e-05)
(1.20009 -7.08988e-05 -7.03203e-05)
(1.20009 -6.98362e-05 -7.4154e-05)
(1.20009 -6.07808e-05 -6.61043e-05)
(1.2001 -6.38305e-05 -6.93404e-05)
(1.2001 -6.46317e-05 -7.07197e-05)
(1.20008 -3.43442e-05 -3.9922e-05)
(1.20008 -3.90942e-05 -4.08824e-05)
(1.20008 -3.73545e-05 -4.40216e-05)
(1.20008 -3.11258e-05 -3.72863e-05)
(1.20008 -3.69134e-05 -4.0228e-05)
(1.20008 -3.369e-05 -4.10171e-05)
(1.21118 -0.001421 0.000246728)
(1.21177 -0.000514883 -0.000141589)
(1.21097 -0.00169093 8.86677e-05)
(1.21097 -0.00046067 3.08644e-05)
(1.21087 -0.0012477 0.00023932)
(1.20973 -0.00313217 -0.000868861)
(1.20934 -0.00242466 -0.00136412)
(1.20989 -0.00291344 -0.000762508)
(1.20931 -0.00294915 -0.000986322)
(1.20931 -0.00178576 -0.00102224)
(1.20951 -0.00279014 -0.000893435)
(1.20708 -0.00252781 -0.00144385)
(1.20667 -0.00250572 -0.00168648)
(1.20738 -0.00251883 -0.00142198)
(1.20674 -0.00232101 -0.00149164)
(1.20689 -0.0017901 -0.00146512)
(1.20702 -0.00230654 -0.00147626)
(1.20481 -0.0017917 -0.00149019)
(1.20472 -0.00197437 -0.00158573)
(1.20507 -0.00180489 -0.00152379)
(1.20461 -0.0016695 -0.00149159)
(1.20486 -0.00145402 -0.00146725)
(1.20485 -0.00167331 -0.00152162)
(1.20329 -0.00131324 -0.00128571)
(1.20327 -0.00145513 -0.0013432)
(1.2035 -0.00132993 -0.00133367)
(1.20318 -0.0012299 -0.00127148)
(1.20338 -0.00109549 -0.0012732)
(1.20337 -0.00124329 -0.00131156)
(1.20224 -0.000942343 -0.00103236)
(1.20223 -0.0010472 -0.00107031)
(1.20239 -0.00096211 -0.00107826)
(1.20217 -0.000883566 -0.00101463)
(1.20232 -0.000790232 -0.00102824)
(1.20232 -0.000900299 -0.00105302)
(1.20151 -0.00065989 -0.00079482)
(1.20151 -0.00073498 -0.000819692)
(1.20162 -0.000678156 -0.000833789)
(1.20147 -0.000619099 -0.000777966)
(1.20157 -0.000555889 -0.00079467)
(1.20158 -0.000634881 -0.000810456)
(1.20101 -0.000451826 -0.0005941)
(1.20101 -0.00050563 -0.000610298)
(1.20109 -0.000467035 -0.000625463)
(1.20099 -0.00042387 -0.000579543)
(1.20106 -0.000383255 -0.000595687)
(1.20106 -0.000437221 -0.000605796)
(1.20068 -0.000301975 -0.000430934)
(1.20068 -0.000340753 -0.000441336)
(1.20073 -0.000313881 -0.000455535)
(1.20067 -0.000283308 -0.000419037)
(1.20071 -0.000258856 -0.000433099)
(1.20072 -0.00029374 -0.000439628)
(1.20046 -0.000197303 -0.000305818)
(1.20046 -0.000225921 -0.000312423)
(1.2005 -0.000206243 -0.000323881)
(1.20045 -0.000184344 -0.000296808)
(1.20049 -0.000171192 -0.000307557)
(1.20049 -0.00019244 -0.000311855)
(1.20031 -0.000123919 -0.000214019)
(1.20032 -0.000147512 -0.000218029)
(1.20034 -0.000130077 -0.000226995)
(1.20031 -0.000115691 -0.000207467)
(1.20034 -0.000111089 -0.000215186)
(1.20034 -0.000121077 -0.000218241)
(1.20022 -7.61054e-05 -0.000150295)
(1.20022 -9.74893e-05 -0.000152233)
(1.20024 -8.04719e-05 -0.000159002)
(1.20022 -7.08959e-05 -0.000145343)
(1.20024 -7.39814e-05 -0.000150889)
(1.20024 -7.47615e-05 -0.000152579)
(1.20016 -4.50425e-05 -0.000103286)
(1.20016 -6.5071e-05 -0.000104284)
(1.20017 -4.78753e-05 -0.000109775)
(1.20016 -4.16319e-05 -9.92317e-05)
(1.20017 -4.95906e-05 -0.000103483)
(1.20017 -4.42424e-05 -0.000104707)
(1.20012 -2.11092e-05 -6.5817e-05)
(1.20012 -4.02227e-05 -6.66456e-05)
(1.20013 -2.37777e-05 -7.09028e-05)
(1.20012 -1.80012e-05 -6.30203e-05)
(1.20013 -3.04499e-05 -6.59253e-05)
(1.20013 -2.0389e-05 -6.74014e-05)
(1.2001 -4.01041e-06 -3.81902e-05)
(1.2001 -2.18306e-05 -3.87712e-05)
(1.2001 -5.03192e-06 -4.21884e-05)
(1.2001 -2.7057e-06 -3.55472e-05)
(1.20011 -1.97024e-05 -3.81494e-05)
(1.20011 -3.38899e-06 -3.93041e-05)
(1.22108 -0.00418595 -0.00417986)
(1.22041 -0.00402338 -0.00527922)
(1.21619 -0.00289611 -0.00338647)
(1.21843 -0.00277941 -0.00299646)
(1.21761 -0.00187581 -0.00221693)
(1.21102 -0.00366644 -0.00475331)
(1.21029 -0.005244 -0.00423495)
(1.20989 -0.00529731 -0.00764075)
(1.21013 -0.0039902 -0.00476986)
(1.20955 -0.00422422 -0.00632005)
(1.21032 -0.00391961 -0.00435438)
(1.20613 -0.00482101 -0.00429643)
(1.20587 -0.00497087 -0.00496757)
(1.20693 -0.00450571 -0.00435028)
(1.20607 -0.00441177 -0.00408259)
(1.20595 -0.00435847 -0.00442767)
(1.20644 -0.00428142 -0.00398953)
(1.20374 -0.00402316 -0.00328297)
(1.20371 -0.00405244 -0.00341472)
(1.20414 -0.00395781 -0.00334073)
(1.20367 -0.00375931 -0.00310377)
(1.20392 -0.00370385 -0.00310622)
(1.20401 -0.0037148 -0.00312843)
(1.20234 -0.00308869 -0.00238688)
(1.20233 -0.00308814 -0.00245071)
(1.2026 -0.00309988 -0.00244891)
(1.20232 -0.00288024 -0.00225555)
(1.20256 -0.00288303 -0.00225464)
(1.20256 -0.00289277 -0.00229483)
(1.20148 -0.00223082 -0.00169985)
(1.20146 -0.00223202 -0.00173678)
(1.20166 -0.002266 -0.00175118)
(1.20148 -0.0020812 -0.00160598)
(1.20166 -0.00210223 -0.00161885)
(1.20165 -0.00211298 -0.00164105)
(1.20094 -0.00155561 -0.00118935)
(1.20093 -0.00155687 -0.00120913)
(1.20106 -0.00159327 -0.00122924)
(1.20095 -0.00145317 -0.0011224)
(1.20107 -0.00147724 -0.00113998)
(1.20106 -0.0014865 -0.00115018)
(1.20061 -0.00106486 -0.000822345)
(1.2006 -0.00106559 -0.000832485)
(1.20069 -0.00109695 -0.000851819)
(1.20062 -0.000996811 -0.000775802)
(1.2007 -0.00101852 -0.000792988)
(1.20069 -0.00102538 -0.000796811)
(1.2004 -0.000716063 -0.000561219)
(1.2004 -0.000717584 -0.000565504)
(1.20046 -0.000742039 -0.000582405)
(1.20041 -0.000671273 -0.000528761)
(1.20047 -0.000688379 -0.000543676)
(1.20046 -0.000694241 -0.000544081)
(1.20028 -0.000476518 -0.000378587)
(1.20027 -0.000477552 -0.000380272)
(1.20031 -0.000495406 -0.000393508)
(1.20028 -0.000447432 -0.000356298)
(1.20032 -0.00046008 -0.000367865)
(1.20032 -0.00046411 -0.00036691)
(1.20019 -0.00031651 -0.000254371)
(1.20019 -0.000317543 -0.000254744)
(1.20022 -0.000329847 -0.000264531)
(1.2002 -0.000297652 -0.000239099)
(1.20023 -0.000306441 -0.000247978)
(1.20022 -0.000309743 -0.000246548)
(1.20014 -0.000205902 -0.000169404)
(1.20014 -0.000207202 -0.000168727)
(1.20016 -0.000216065 -0.000175874)
(1.20014 -0.000193336 -0.000159015)
(1.20016 -0.000199915 -0.000165322)
(1.20016 -0.000202498 -0.000163606)
(1.2001 -0.000131658 -0.000112782)
(1.2001 -0.000132237 -0.000112509)
(1.20012 -0.00013828 -0.000117527)
(1.20011 -0.000123729 -0.000105845)
(1.20012 -0.00012822 -0.000110403)
(1.20012 -0.000129552 -0.000109376)
(1.20008 -8.30707e-05 -7.371e-05)
(1.20008 -8.34521e-05 -7.33335e-05)
(1.20009 -8.79033e-05 -7.69412e-05)
(1.20009 -7.7505e-05 -6.8968e-05)
(1.2001 -8.10675e-05 -7.23157e-05)
(1.2001 -8.20531e-05 -7.14552e-05)
(1.20007 -4.51236e-05 -4.33493e-05)
(1.20007 -4.57161e-05 -4.32175e-05)
(1.20008 -4.93328e-05 -4.65592e-05)
(1.20008 -4.07707e-05 -3.96432e-05)
(1.20008 -4.42839e-05 -4.28897e-05)
(1.20008 -4.47961e-05 -4.25047e-05)
(1.21327 -0.00126497 -0.00079191)
(1.21245 -0.00189693 0.000450726)
(1.21184 -0.00220382 9.99721e-05)
(1.21174 -0.00139987 0.000327085)
(1.21199 -0.000881963 -0.00029961)
(1.21 -0.0046164 -0.00157855)
(1.20935 -0.00363978 -0.00319495)
(1.21017 -0.00396988 -0.00139465)
(1.20967 -0.00360764 -0.00153448)
(1.20948 -0.00398694 -0.00172505)
(1.20933 -0.00294205 -0.00218995)
(1.20691 -0.00369683 -0.00230929)
(1.20641 -0.00353853 -0.0028564)
(1.20727 -0.00352444 -0.00223754)
(1.20659 -0.0033246 -0.00227719)
(1.20662 -0.00291271 -0.00236441)
(1.20689 -0.00320466 -0.00220228)
(1.20459 -0.00280712 -0.00214328)
(1.2045 -0.00286132 -0.00226244)
(1.20489 -0.0027676 -0.00215013)
(1.20444 -0.00260239 -0.00205705)
(1.20468 -0.00246836 -0.00202316)
(1.20471 -0.00256795 -0.00205525)
(1.20314 -0.00214407 -0.00170089)
(1.20313 -0.00219755 -0.00174849)
(1.20336 -0.00214605 -0.00173019)
(1.20307 -0.00200314 -0.00162134)
(1.20328 -0.00194366 -0.00161052)
(1.20327 -0.00200617 -0.0016377)
(1.20215 -0.00158356 -0.00128678)
(1.20214 -0.00162899 -0.00131335)
(1.20232 -0.00160353 -0.00131669)
(1.20211 -0.0014816 -0.0012238)
(1.20227 -0.00144804 -0.00122986)
(1.20226 -0.00150011 -0.00124302)
(1.20146 -0.00113048 -0.000946067)
(1.20145 -0.00116541 -0.000959985)
(1.20158 -0.00115476 -0.000972303)
(1.20144 -0.00105939 -0.000897806)
(1.20156 -0.00104084 -0.000910624)
(1.20155 -0.00108113 -0.000915639)
(1.20099 -0.000789082 -0.000682505)
(1.20098 -0.000815213 -0.000688873)
(1.20108 -0.000811413 -0.000702799)
(1.20098 -0.000740389 -0.000646547)
(1.20106 -0.000730208 -0.000660231)
(1.20106 -0.000760451 -0.000660681)
(1.20067 -0.000538905 -0.000482816)
(1.20067 -0.000557348 -0.00048569)
(1.20073 -0.000557617 -0.000499176)
(1.20067 -0.000505996 -0.000456647)
(1.20073 -0.000501188 -0.000469508)
(1.20072 -0.000522726 -0.000468289)
(1.20046 -0.000361943 -0.000334239)
(1.20046 -0.000375301 -0.000335021)
(1.20051 -0.000376102 -0.000346499)
(1.20046 -0.000340391 -0.000315476)
(1.2005 -0.00033747 -0.000326109)
(1.2005 -0.000353031 -0.000324334)
(1.20032 -0.000241367 -0.000230194)
(1.20032 -0.000250629 -0.000230217)
(1.20035 -0.000251748 -0.000238613)
(1.20032 -0.000227068 -0.000217427)
(1.20035 -0.000225724 -0.000225288)
(1.20035 -0.000236439 -0.000223605)
(1.20023 -0.000158833 -0.000157139)
(1.20023 -0.000164946 -0.00015647)
(1.20025 -0.000166103 -0.000163105)
(1.20023 -0.000149721 -0.000147842)
(1.20025 -0.000149151 -0.000153886)
(1.20025 -0.000156248 -0.000152216)
(1.20017 -0.000103432 -0.00010536)
(1.20017 -0.000107952 -0.00010471)
(1.20018 -0.00010866 -0.00010936)
(1.20017 -9.69963e-05 -9.89849e-05)
(1.20018 -9.82977e-05 -0.000103095)
(1.20019 -0.000101818 -0.000101841)
(1.20013 -6.12983e-05 -7.01404e-05)
(1.20013 -6.72337e-05 -6.93912e-05)
(1.20014 -6.55468e-05 -7.30926e-05)
(1.20013 -5.64493e-05 -6.56163e-05)
(1.20014 -6.02286e-05 -6.8405e-05)
(1.20014 -6.03132e-05 -6.79176e-05)
(1.20011 -3.17234e-05 -4.15372e-05)
(1.20011 -3.68933e-05 -4.15909e-05)
(1.20012 -3.44529e-05 -4.43964e-05)
(1.20011 -2.86174e-05 -3.79182e-05)
(1.20012 -3.39556e-05 -4.09171e-05)
(1.20012 -3.10498e-05 -4.05779e-05)
(1.20992 -0.000718213 0.000167332)
(1.2101 -0.000338524 -0.000164134)
(1.20972 -0.000819247 4.28114e-06)
(1.20969 -0.000258939 -2.01382e-05)
(1.20962 -0.000573726 0.000130256)
(1.20885 -0.00174476 -0.000906573)
(1.20867 -0.00148226 -0.00128616)
(1.20894 -0.00153133 -0.000786309)
(1.20852 -0.00161203 -0.000991854)
(1.20859 -0.00106023 -0.000996463)
(1.20865 -0.00145482 -0.000881362)
(1.20685 -0.00164046 -0.00144872)
(1.2067 -0.00168315 -0.00160602)
(1.20708 -0.00156582 -0.00138861)
(1.20658 -0.00150391 -0.00145098)
(1.20677 -0.00120835 -0.00141047)
(1.2068 -0.00144496 -0.00139557)
(1.20501 -0.00132145 -0.00148288)
(1.20499 -0.0014418 -0.00152427)
(1.20524 -0.00129911 -0.00147252)
(1.20484 -0.00123251 -0.0014407)
(1.20506 -0.00107602 -0.00141613)
(1.20506 -0.00121337 -0.00142663)
(1.20361 -0.00103404 -0.00128192)
(1.20361 -0.00113682 -0.00130158)
(1.2038 -0.00103323 -0.00129241)
(1.2035 -0.000967881 -0.00123381)
(1.20368 -0.000856363 -0.00123544)
(1.20368 -0.000967941 -0.0012371)
(1.20255 -0.000773595 -0.00103258)
(1.20256 -0.000854749 -0.001042)
(1.20271 -0.000782234 -0.00104969)
(1.20248 -0.000725094 -0.000988488)
(1.20262 -0.000645059 -0.00100153)
(1.20263 -0.000733143 -0.000998491)
(1.20178 -0.000559439 -0.00079544)
(1.20178 -0.000620527 -0.000799056)
(1.2019 -0.000570707 -0.000813088)
(1.20173 -0.000524959 -0.000758653)
(1.20183 -0.000469204 -0.000774852)
(1.20184 -0.000535242 -0.000770127)
(1.20123 -0.000393343 -0.000594758)
(1.20123 -0.000439124 -0.000595307)
(1.20132 -0.000404311 -0.000610079)
(1.2012 -0.000369423 -0.000565712)
(1.20127 -0.000333302 -0.00058129)
(1.20128 -0.00037933 -0.000576101)
(1.20085 -0.000268902 -0.000433683)
(1.20085 -0.000303435 -0.000433166)
(1.20091 -0.000278392 -0.000446764)
(1.20083 -0.000252323 -0.000411651)
(1.20088 -0.000230266 -0.000425194)
(1.20089 -0.000260933 -0.000420814)
(1.20059 -0.000178724 -0.000307435)
(1.20059 -0.000205448 -0.000306341)
(1.20063 -0.000186331 -0.000318154)
(1.20058 -0.000167385 -0.000291223)
(1.20061 -0.000156505 -0.000302015)
(1.20062 -0.000174399 -0.000299052)
(1.20041 -0.000113043 -0.000216026)
(1.20042 -0.000136084 -0.000214654)
(1.20044 -0.000118792 -0.000223415)
(1.2004 -0.000105632 -0.000204332)
(1.20043 -0.000102448 -0.000212369)
(1.20043 -0.000110759 -0.000209709)
(1.20029 -7.03364e-05 -0.000148449)
(1.2003 -9.11138e-05 -0.000147426)
(1.20031 -7.40529e-05 -0.000154037)
(1.20029 -6.56573e-05 -0.000139759)
(1.20031 -6.93081e-05 -0.000146099)
(1.20031 -6.90089e-05 -0.000143838)
(1.20021 -4.17286e-05 -0.000101103)
(1.20022 -6.18217e-05 -9.96436e-05)
(1.20023 -4.45215e-05 -0.000104485)
(1.20021 -3.81879e-05 -9.51279e-05)
(1.20022 -4.70782e-05 -9.88883e-05)
(1.20022 -4.09734e-05 -9.7443e-05)
(1.20016 -1.74632e-05 -6.77646e-05)
(1.20017 -3.64842e-05 -6.63388e-05)
(1.20017 -1.98006e-05 -7.09392e-05)
(1.20016 -1.44277e-05 -6.35257e-05)
(1.20017 -2.76139e-05 -6.53477e-05)
(1.20017 -1.64736e-05 -6.60431e-05)
(1.20014 -1.45976e-06 -3.94711e-05)
(1.20014 -2.02903e-05 -3.91183e-05)
(1.20014 -2.57766e-06 -4.21453e-05)
(1.20014 -1.76206e-08 -3.57662e-05)
(1.20014 -1.79621e-05 -3.85478e-05)
(1.20014 -8.90321e-07 -3.8521e-05)
(1.2127 -0.000509385 -0.000576181)
(1.21252 -0.000598587 -0.000852268)
(1.21191 -0.00067898 -0.000953134)
(1.21189 -0.000485906 -0.00073497)
(1.21177 -0.000391865 -0.000428843)
(1.20988 -0.0024708 -0.00277972)
(1.20992 -0.0024763 -0.00310776)
(1.21017 -0.00203164 -0.00254521)
(1.20957 -0.0021787 -0.00273911)
(1.20947 -0.00234254 -0.0027393)
(1.20969 -0.0021021 -0.0023245)
(1.20691 -0.00308697 -0.00298024)
(1.20697 -0.00308768 -0.00302555)
(1.20733 -0.00287258 -0.00282558)
(1.20668 -0.00292339 -0.00275143)
(1.2069 -0.00278815 -0.00271279)
(1.20701 -0.00277423 -0.00257924)
(1.20468 -0.00289379 -0.00245879)
(1.20472 -0.00288081 -0.00244564)
(1.20502 -0.00281507 -0.00239292)
(1.20456 -0.00272108 -0.00225265)
(1.20482 -0.00266448 -0.00221781)
(1.20486 -0.00266607 -0.00218145)
(1.20315 -0.00236659 -0.00185575)
(1.20316 -0.00236293 -0.00184199)
(1.2034 -0.00235563 -0.00183261)
(1.20308 -0.00222022 -0.00170018)
(1.2033 -0.00220903 -0.00169391)
(1.20331 -0.0022186 -0.00166568)
(1.2021 -0.00179436 -0.0013459)
(1.2021 -0.00179451 -0.00133017)
(1.20228 -0.00181295 -0.00133868)
(1.20206 -0.00168313 -0.00123152)
(1.20223 -0.00169257 -0.00123977)
(1.20223 -0.00170403 -0.00121376)
(1.20139 -0.00129978 -0.000951082)
(1.20139 -0.00130159 -0.000935655)
(1.20152 -0.00132672 -0.000950243)
(1.20138 -0.0012206 -0.000869726)
(1.2015 -0.00123656 -0.000882683)
(1.2015 -0.00124686 -0.000860343)
(1.20093 -0.000917637 -0.000662015)
(1.20093 -0.000919498 -0.000648582)
(1.20102 -0.000942921 -0.000663389)
(1.20093 -0.000862973 -0.000604676)
(1.20101 -0.00087885 -0.000617846)
(1.20101 -0.000886924 -0.000599427)
(1.20063 -0.000634041 -0.00045305)
(1.20063 -0.000635886 -0.000441852)
(1.20069 -0.000655652 -0.000454972)
(1.20063 -0.000596707 -0.000412852)
(1.20069 -0.000610583 -0.000424644)
(1.20068 -0.000616839 -0.000410212)
(1.20043 -0.000430857 -0.000304829)
(1.20043 -0.00043241 -0.000296072)
(1.20047 -0.000447532 -0.000306478)
(1.20043 -0.000406367 -0.00027755)
(1.20047 -0.000416966 -0.00028673)
(1.20047 -0.00042152 -0.000276004)
(1.2003 -0.00029223 -0.000204672)
(1.2003 -0.00029361 -0.000197691)
(1.20033 -0.000304456 -0.000205623)
(1.2003 -0.000276072 -0.000185767)
(1.20033 -0.000283899 -0.00019288)
(1.20033 -0.000287419 -0.000184889)
(1.20022 -0.000193604 -0.000136587)
(1.20021 -0.00019484 -0.000131708)
(1.20024 -0.000203096 -0.000137302)
(1.20022 -0.000182346 -0.000124059)
(1.20024 -0.000188538 -0.000129134)
(1.20024 -0.000191033 -0.000124071)
(1.20016 -0.000123916 -9.15539e-05)
(1.20016 -0.000124791 -8.77031e-05)
(1.20017 -0.000130398 -9.14189e-05)
(1.20016 -0.000116754 -8.26903e-05)
(1.20018 -0.000120841 -8.60578e-05)
(1.20018 -0.000122271 -8.30167e-05)
(1.20013 -7.91975e-05 -5.95658e-05)
(1.20012 -7.99369e-05 -5.59684e-05)
(1.20014 -8.37942e-05 -5.91468e-05)
(1.20013 -7.42198e-05 -5.2166e-05)
(1.20014 -7.73461e-05 -5.49711e-05)
(1.20014 -7.81997e-05 -5.40994e-05)
(1.2001 -4.36241e-05 -3.61393e-05)
(1.2001 -4.43229e-05 -3.30198e-05)
(1.20011 -4.77572e-05 -3.5241e-05)
(1.20011 -3.97386e-05 -3.02089e-05)
(1.20011 -4.28797e-05 -3.24847e-05)
(1.20011 -4.30887e-05 -3.32162e-05)
(1.21013 -0.000544849 3.81723e-05)
(1.21023 -0.000436278 -0.000318008)
(1.20985 -0.000660744 -0.000181304)
(1.20978 -0.000328101 -0.000190289)
(1.20975 -0.000416746 -2.56525e-06)
(1.20888 -0.00186273 -0.00127691)
(1.20879 -0.00174628 -0.00162529)
(1.20899 -0.00157327 -0.00110338)
(1.20855 -0.00175002 -0.00130721)
(1.2086 -0.00143292 -0.00130956)
(1.20869 -0.00154676 -0.00112292)
(1.20685 -0.00213636 -0.00175146)
(1.2068 -0.00213975 -0.00184853)
(1.20709 -0.00198983 -0.00163227)
(1.2066 -0.00200067 -0.00166007)
(1.20678 -0.00181953 -0.00160559)
(1.20684 -0.00189346 -0.00155022)
(1.20503 -0.0019692 -0.00163565)
(1.20504 -0.00200459 -0.00163594)
(1.20527 -0.00191149 -0.00157754)
(1.20488 -0.00185364 -0.0015169)
(1.2051 -0.00176105 -0.00147893)
(1.20511 -0.00181227 -0.00145767)
(1.20362 -0.00164179 -0.00132936)
(1.20363 -0.0016834 -0.00131879)
(1.20384 -0.00163004 -0.00130257)
(1.20353 -0.00154571 -0.00122795)
(1.20372 -0.00148965 -0.00121802)
(1.20372 -0.00154109 -0.00119474)
(1.20256 -0.00127599 -0.00102214)
(1.20256 -0.00131356 -0.00100855)
(1.20273 -0.00128586 -0.0010102)
(1.2025 -0.00120102 -0.000941683)
(1.20265 -0.00116827 -0.000945831)
(1.20266 -0.00121331 -0.000922855)
(1.20179 -0.000947416 -0.00075846)
(1.20179 -0.000977619 -0.000744637)
(1.20192 -0.00096423 -0.000753507)
(1.20175 -0.000892645 -0.000697233)
(1.20187 -0.000873598 -0.000706788)
(1.20187 -0.000909594 -0.00068637)
(1.20125 -0.00068262 -0.000548763)
(1.20124 -0.000705526 -0.000536451)
(1.20134 -0.000700215 -0.000547188)
(1.20122 -0.000643485 -0.000503554)
(1.20131 -0.000632941 -0.000514066)
(1.20131 -0.000660252 -0.000497123)
(1.20087 -0.000478592 -0.000389874)
(1.20086 -0.000495652 -0.000379224)
(1.20093 -0.000494318 -0.000389628)
(1.20085 -0.000451386 -0.000356555)
(1.20091 -0.00044592 -0.000366515)
(1.20091 -0.000465892 -0.000352938)
(1.2006 -0.000329988 -0.000270928)
(1.2006 -0.000342344 -0.000262496)
(1.20065 -0.000342584 -0.000271353)
(1.2006 -0.000311872 -0.000247905)
(1.20064 -0.000308956 -0.000256085)
(1.20064 -0.000323581 -0.000245819)
(1.20043 -0.000223569 -0.00018764)
(1.20042 -0.000232773 -0.000180873)
(1.20046 -0.000233243 -0.000188134)
(1.20042 -0.00021129 -0.000170833)
(1.20045 -0.000209522 -0.000177526)
(1.20045 -0.000220224 -0.000169927)
(1.2003 -0.00014912 -0.000127045)
(1.2003 -0.000155311 -0.000121993)
(1.20033 -0.000155994 -0.000127177)
(1.2003 -0.000140778 -0.000115137)
(1.20032 -0.00014003 -0.000119849)
(1.20032 -0.000146977 -0.000115174)
(1.20023 -9.6751e-05 -8.52993e-05)
(1.20022 -0.000101333 -8.14376e-05)
(1.20024 -0.00010178 -8.50508e-05)
(1.20022 -9.06405e-05 -7.66266e-05)
(1.20024 -9.20991e-05 -7.98505e-05)
(1.20024 -9.51643e-05 -7.78592e-05)
(1.20017 -5.75472e-05 -5.59353e-05)
(1.20018 -6.3814e-05 -5.16756e-05)
(1.20019 -6.16581e-05 -5.45107e-05)
(1.20017 -5.31655e-05 -4.82774e-05)
(1.20019 -5.78699e-05 -5.05997e-05)
(1.20018 -5.64717e-05 -5.04061e-05)
(1.20014 -2.96176e-05 -3.40598e-05)
(1.20014 -3.50166e-05 -3.07451e-05)
(1.20015 -3.25502e-05 -3.26849e-05)
(1.20015 -2.69662e-05 -2.80689e-05)
(1.20015 -3.16799e-05 -3.03621e-05)
(1.20015 -2.92346e-05 -3.13926e-05)
(1.20888 -0.000277748 3.19594e-05)
(1.2089 -0.000190624 -9.15998e-05)
(1.20874 -0.000328285 -8.04406e-05)
(1.20871 -0.000132191 -3.45754e-05)
(1.20868 -0.000220617 1.23896e-05)
(1.20814 -0.000844391 -0.000732463)
(1.20809 -0.000827484 -0.000832094)
(1.2082 -0.000724998 -0.000621252)
(1.20791 -0.000807044 -0.00076324)
(1.208 -0.000590043 -0.000703741)
(1.20801 -0.000716014 -0.000657593)
(1.20669 -0.000993435 -0.00112432)
(1.20668 -0.00106026 -0.00113617)
(1.20686 -0.000927408 -0.00103925)
(1.20649 -0.000937607 -0.00108197)
(1.20666 -0.000782626 -0.00103034)
(1.20667 -0.000887643 -0.00100304)
(1.2052 -0.000938325 -0.00115097)
(1.20521 -0.00102165 -0.00113568)
(1.20539 -0.000910053 -0.00110084)
(1.20505 -0.000885779 -0.00108236)
(1.20523 -0.000768113 -0.00106269)
(1.20524 -0.000865364 -0.00103162)
(1.2039 -0.000792795 -0.00101255)
(1.20391 -0.000870664 -0.000993025)
(1.20408 -0.000786075 -0.000985251)
(1.20379 -0.000747615 -0.000944147)
(1.20395 -0.000655988 -0.000944728)
(1.20396 -0.000744521 -0.000913061)
(1.20285 -0.000624378 -0.000824379)
(1.20286 -0.000690104 -0.000804679)
(1.203 -0.000628146 -0.000810136)
(1.20277 -0.000588854 -0.000764749)
(1.2029 -0.000521032 -0.000774125)
(1.20291 -0.000593836 -0.000745789)
(1.20204 -0.000470003 -0.00063956)
(1.20205 -0.000522015 -0.000621965)
(1.20216 -0.000477852 -0.000632748)
(1.20199 -0.000443571 -0.000591067)
(1.20209 -0.000395145 -0.000603626)
(1.2021 -0.00045167 -0.000579897)
(1.20145 -0.000341083 -0.000478902)
(1.20146 -0.000381372 -0.000463784)
(1.20154 -0.000349756 -0.000475462)
(1.20141 -0.000321808 -0.000440723)
(1.20149 -0.00028944 -0.000452871)
(1.2015 -0.000330175 -0.000433501)
(1.20102 -0.00023935 -0.000349711)
(1.20102 -0.000271012 -0.000337411)
(1.20109 -0.000247366 -0.000347847)
(1.20099 -0.000225487 -0.000320681)
(1.20105 -0.00020566 -0.000331008)
(1.20106 -0.000232952 -0.000315969)
(1.20071 -0.00016224 -0.000251077)
(1.20072 -0.000188151 -0.000241672)
(1.20076 -0.000168783 -0.000250226)
(1.20069 -0.000152493 -0.000230025)
(1.20074 -0.00014287 -0.00023802)
(1.20074 -0.000158592 -0.000227245)
(1.2005 -0.000104883 -0.000176194)
(1.20051 -0.000126837 -0.000169374)
(1.20053 -0.000110279 -0.00017643)
(1.20049 -9.83419e-05 -0.000160815)
(1.20052 -9.58841e-05 -0.000167841)
(1.20052 -0.00010335 -0.00016009)
(1.20036 -6.57342e-05 -0.000120154)
(1.20036 -8.55997e-05 -0.000114818)
(1.20038 -6.93e-05 -0.000120143)
(1.20035 -6.1667e-05 -0.000108752)
(1.20037 -6.5271e-05 -0.000113924)
(1.20037 -6.48392e-05 -0.000108908)
(1.20026 -3.9266e-05 -8.0956e-05)
(1.20027 -5.92873e-05 -7.62922e-05)
(1.20028 -4.21613e-05 -8.02682e-05)
(1.20026 -3.58593e-05 -7.24078e-05)
(1.20028 -4.57579e-05 -7.5745e-05)
(1.20028 -3.87186e-05 -7.35284e-05)
(1.2002 -1.44687e-05 -5.45036e-05)
(1.20021 -3.35595e-05 -4.89874e-05)
(1.20021 -1.70786e-05 -5.25076e-05)
(1.2002 -1.19222e-05 -4.67694e-05)
(1.20021 -2.68519e-05 -4.85856e-05)
(1.20021 -1.4068e-05 -4.90101e-05)
(1.20017 5.1707e-07 -3.24799e-05)
(1.20017 -1.93914e-05 -2.91567e-05)
(1.20018 -6.78696e-07 -3.1149e-05)
(1.20017 1.90621e-06 -2.64647e-05)
(1.20017 -1.71481e-05 -2.85298e-05)
(1.20018 1.14368e-06 -3.00681e-05)
(1.21028 -0.000273422 -0.000194145)
(1.21033 -0.0002792 -0.00025238)
(1.21007 -0.000422516 -0.00034451)
(1.20998 -0.00026084 -0.000225698)
(1.21001 -0.000246655 -0.000133126)
(1.20912 -0.00149796 -0.00116118)
(1.20917 -0.00149835 -0.00115087)
(1.20924 -0.00130314 -0.000989876)
(1.20882 -0.00153293 -0.00111979)
(1.20892 -0.00136853 -0.00102352)
(1.20901 -0.00137057 -0.000838632)
(1.20713 -0.00211249 -0.00143194)
(1.20717 -0.00211607 -0.00135275)
(1.20738 -0.00198675 -0.00127484)
(1.20688 -0.00206241 -0.0012677)
(1.20709 -0.0019508 -0.00121246)
(1.20717 -0.00197223 -0.00106752)
(1.20521 -0.00215597 -0.0012796)
(1.20523 -0.00216829 -0.00118008)
(1.20547 -0.00210575 -0.00115041)
(1.20504 -0.00207212 -0.00109236)
(1.20526 -0.00201605 -0.00107073)
(1.2053 -0.0020467 -0.00096724)
(1.20367 -0.00188037 -0.00100538)
(1.20366 -0.00189502 -0.000906997)
(1.20388 -0.00187907 -0.000900896)
(1.20355 -0.00179479 -0.000837631)
(1.20375 -0.00177679 -0.000833956)
(1.20376 -0.00180741 -0.00076534)
(1.20253 -0.00149599 -0.000743199)