/*--------------------------------*- C++ -*----------------------------------*\
| =========                 |                                                 |
| \\      /  F ield         | OpenFOAM: The Open Source CFD Toolbox           |
|  \\    /   O peration     | Version:  2012                                  |
|   \\  /    A nd           | Website:  www.openfoam.com                      |
|    \\/     M anipulation  |                                                 |
\*---------------------------------------------------------------------------*/
FoamFile
{
    version     2.0;
    format      ascii;
    class       volVectorField;
    location    "0.104/solid";
    object      D;
}
// * * * * * * * * * * * * * * * * * * * * * * * * * * * * * * * * * * * * * //

dimensions      [0 1 0 0 0 0 0];


internalField   nonuniform List<vector> 
3125
(
(8.52521e-14 -9.6695e-14 1.39987e-11)
(2.36734e-11 -8.12263e-11 1.34198e-11)
(-2.19946e-12 -1.69013e-13 2.76413e-11)
(8.41534e-14 -8.84207e-14 1.40223e-11)
(-2.2202e-12 -1.30592e-13 2.7554e-11)
(2.31838e-11 -9.72678e-11 3.73643e-11)
(1.75394e-11 -5.45943e-11 1.65696e-11)
(4.21568e-11 -1.96207e-10 4.18363e-11)
(2.70689e-13 1.77071e-14 1.43354e-11)
(1.41374e-09 7.89446e-09 -1.67723e-08)
(5.7283e-07 -1.38227e-06 -3.9931e-07)
(2.41436e-06 -6.04298e-06 -7.69855e-07)
(-1.96086e-12 -1.03722e-13 2.81117e-11)
(-1.76246e-12 -4.45831e-13 2.84251e-11)
(3.0789e-13 -8.24451e-14 1.44078e-11)
(-1.34288e-09 3.07683e-09 3.70594e-09)
(5.77883e-07 -1.37393e-06 -1.52335e-08)
(2.15835e-06 -5.40396e-06 -7.35951e-07)
(7.21789e-07 -1.76251e-06 -4.48193e-07)
(2.18985e-06 -5.39761e-06 -5.74585e-08)
(7.30335e-07 -1.75443e-06 -2.02053e-08)
(2.44834e-06 -6.03687e-06 -6.32242e-08)
(-5.98195e-13 -2.48926e-14 -1.5122e-13)
(7.68637e-14 4.83746e-14 1.39579e-11)
(-6.11498e-13 1.53309e-14 -1.88209e-13)
(9.42237e-12 -7.76215e-12 4.42595e-12)
(-2.35981e-12 -1.00862e-09 2.48895e-11)
(1.29425e-10 -1.97433e-10 1.0035e-11)
(-5.8264e-13 -2.55213e-14 -1.28441e-13)
(-2.22514e-12 3.23564e-14 2.74947e-11)
(2.25969e-12 -1.18161e-11 3.10532e-11)
(2.51244e-12 -4.40465e-12 1.55274e-11)
(6.54302e-12 -4.8847e-12 3.55452e-12)
(4.01301e-13 -1.30162e-13 1.2923e-12)
(-1.72589e-12 -8.0396e-15 -1.12713e-12)
(-1.73264e-12 -8.01127e-16 -1.15194e-12)
(8.0099e-14 3.61137e-14 1.39808e-11)
(-5.34734e-13 6.15416e-14 2.99234e-14)
(-5.98512e-13 1.34402e-14 -1.52579e-13)
(-1.68264e-12 3.80842e-14 -9.88914e-13)
(-1.72187e-12 2.11404e-14 -1.12193e-12)
(6.68598e-07 -1.46594e-06 -7.87317e-07)
(2.57156e-07 -4.10481e-07 -4.38263e-07)
(4.15792e-12 -3.27813e-12 2.99171e-12)
(8.12202e-11 -1.12632e-10 5.23713e-12)
(-3.19352e-10 -1.41689e-09 -2.05746e-10)
(1.34455e-07 -2.80838e-07 -1.79164e-07)
(3.8748e-09 6.25695e-09 -1.43848e-08)
(2.01832e-07 -3.1034e-07 -3.36804e-07)
(1.35313e-10 -4.78337e-10 -1.20386e-11)
(6.57862e-07 -1.46605e-06 -6.93024e-07)
(2.20408e-07 -4.9167e-07 -2.39614e-07)
(2.45448e-07 -4.12451e-07 -3.83758e-07)
(5.57889e-09 8.21501e-09 -1.78606e-08)
(2.13446e-07 -3.08758e-07 -3.85286e-07)
(1.00164e-10 -2.79247e-10 -6.19192e-12)
(3.51592e-06 -8.76058e-06 -1.72305e-06)
(2.39285e-06 -5.95251e-06 -1.30193e-06)
(3.24832e-06 -8.10139e-06 -8.61598e-07)
(3.36251e-06 -8.37651e-06 -1.49764e-06)
(2.3993e-06 -5.96532e-06 -1.47405e-06)
(3.36739e-06 -8.39338e-06 -1.6944e-06)
(3.54674e-06 -8.82943e-06 -8.88976e-07)
(3.51125e-06 -8.74325e-06 -1.52311e-06)
(-1.70576e-12 -3.25597e-14 -1.08943e-12)
(-2.20022e-12 5.23085e-14 2.75737e-11)
(3.22115e-13 -5.68133e-12 3.01262e-11)
(1.87845e-12 -2.8145e-12 1.54261e-11)
(-4.63018e-13 5.68942e-14 1.85801e-13)
(8.40448e-14 -3.24517e-14 8.99918e-13)
(2.43462e-12 -1.96548e-12 2.09926e-12)
(-1.05654e-12 4.70815e-14 1.01077e-13)
(-1.62229e-12 5.96529e-14 -8.51288e-13)
(-1.28886e-12 6.10595e-14 -2.73193e-13)
(6.72128e-07 -1.44945e-06 -5.36694e-07)
(2.57293e-07 -3.92111e-07 -2.95776e-07)
(1.32461e-07 -2.73274e-07 1.89677e-09)
(4.81364e-09 1.09056e-08 -1.24347e-08)
(2.00589e-07 -2.97322e-07 -2.3803e-07)
(6.59082e-07 -1.45468e-06 -4.95446e-07)
(2.17681e-07 -4.81439e-07 -1.44599e-09)
(2.44138e-07 -3.99676e-07 -2.71243e-07)
(6.54983e-09 1.33244e-08 -1.36991e-08)
(2.13434e-07 -2.90005e-07 -2.60152e-07)
(7.42593e-07 -1.6611e-06 -8.3393e-07)
(1.36245e-06 -3.29257e-06 -1.13805e-06)
(1.46281e-06 -3.65122e-06 -6.23763e-07)
(2.26524e-06 -5.62901e-06 -1.27143e-06)
(1.45651e-06 -3.55342e-06 -1.03968e-06)
(7.321e-07 -1.66056e-06 -7.3434e-07)
(1.25667e-06 -3.12748e-06 -5.82746e-07)
(1.35376e-06 -3.28659e-06 -1.00391e-06)
(2.27193e-06 -5.64114e-06 -1.43969e-06)
(1.46494e-06 -3.56022e-06 -1.1784e-06)
(7.46871e-07 -1.64486e-06 -5.69664e-07)
(1.3728e-06 -3.27801e-06 -7.88933e-07)
(1.48546e-06 -3.64416e-06 -4.0853e-08)
(2.27802e-06 -5.62033e-06 -9.35048e-07)
(1.46428e-06 -3.54356e-06 -7.55862e-07)
(7.33952e-07 -1.64937e-06 -5.26013e-07)
(1.27596e-06 -3.12017e-06 -3.55498e-08)
(1.36077e-06 -3.27656e-06 -7.28583e-07)
(2.28914e-06 -5.62852e-06 -1.01348e-06)
(1.47619e-06 -3.5459e-06 -8.1855e-07)
(3.53898e-06 -8.75012e-06 -1.23173e-06)
(2.40627e-06 -5.94398e-06 -9.58958e-07)
(3.28833e-06 -8.09598e-06 -8.1075e-08)
(3.37974e-06 -8.36915e-06 -1.11451e-06)
(2.41728e-06 -5.95294e-06 -1.03954e-06)
(3.38993e-06 -8.38268e-06 -1.20929e-06)
(3.58831e-06 -8.82425e-06 -8.71571e-08)
(3.52892e-06 -8.73604e-06 -1.13504e-06)
(-2.88762e-12 -5.72719e-14 9.63535e-12)
(8.44137e-14 -1.09567e-14 1.39723e-11)
(-2.91624e-12 -1.25113e-14 9.58136e-12)
(1.60052e-11 -3.39653e-11 1.09038e-11)
(4.68207e-11 -2.36075e-10 1.32858e-11)
(4.39426e-11 -1.10133e-10 6.1841e-12)
(-2.14671e-12 -2.36712e-13 2.77931e-11)
(1.4947e-13 -1.68887e-13 1.41821e-11)
(-2.88736e-12 -5.51166e-14 9.65343e-12)
(-2.88732e-12 -9.779e-14 9.75706e-12)
(-2.21222e-12 -6.66331e-14 2.7493e-11)
(1.19527e-11 -4.86589e-11 3.42736e-11)
(7.8287e-12 -1.92589e-11 1.60188e-11)
(1.05334e-11 -2.31776e-11 1.13705e-11)
(2.25212e-12 -7.26257e-12 1.14935e-11)
(1.63e-13 4.81942e-14 1.41702e-11)
(-2.7896e-12 7.82616e-14 9.90035e-12)
(-2.87868e-12 6.79127e-14 9.72585e-12)
(7.15249e-07 -1.49156e-06 -9.96768e-07)
(5.17532e-07 -9.65197e-07 -8.17344e-07)
(-1.30098e-08 -1.48042e-08 -2.14533e-10)
(3.30909e-08 8.80675e-09 -4.78592e-08)
(2.37955e-09 3.99508e-09 -2.31087e-08)
(4.56072e-08 -3.78532e-08 -8.92611e-08)
(1.67174e-09 -4.25671e-09 -1.32271e-09)
(6.25252e-07 -1.4722e-06 -4.77706e-07)
(4.39313e-07 -1.04251e-06 -3.48349e-07)
(4.24421e-07 -9.57958e-07 -3.8823e-07)
(1.46583e-08 1.63775e-09 -1.44379e-08)
(1.14109e-07 -4.77331e-08 -2.24868e-07)
(4.16528e-06 -1.03481e-05 -2.31965e-06)
(2.36698e-06 -5.91001e-06 -8.95215e-07)
(2.68166e-06 -6.70663e-06 -8.02074e-07)
(2.76792e-06 -6.9094e-06 -9.5455e-07)
(2.43771e-06 -6.02455e-06 -1.8632e-06)
(2.83514e-06 -7.03776e-06 -1.9891e-06)
(4.17151e-06 -1.03395e-05 -9.39153e-07)
(4.1085e-06 -1.0189e-05 -1.10831e-06)
(-2.05829e-12 1.69951e-14 2.78815e-11)
(-1.38439e-12 -1.14013e-12 2.88497e-11)
(6.81352e-13 -4.57753e-13 1.47874e-11)
(-2.75553e-12 5.25509e-14 9.96333e-12)
(-2.57868e-12 -6.15277e-14 1.02416e-11)
(7.32249e-07 -1.47687e-06 -8.24723e-07)
(5.33851e-07 -9.4995e-07 -6.74947e-07)
(2.29635e-08 -2.14203e-08 3.08134e-09)
(3.40235e-10 6.2901e-09 -3.87929e-09)
(4.03984e-08 -3.08118e-08 -4.14366e-08)
(6.25027e-07 -1.46363e-06 -2.37312e-07)
(4.41152e-07 -1.03378e-06 -1.03808e-08)
(4.2177e-07 -9.48938e-07 -1.8942e-07)
(1.95181e-08 1.72325e-08 -2.52704e-08)
(1.23401e-07 -3.14901e-08 -1.92564e-07)
(7.88744e-07 -1.68844e-06 -1.05487e-06)
(1.0315e-06 -2.33874e-06 -1.22396e-06)
(1.91412e-06 -4.79119e-06 -7.00325e-07)
(2.23903e-06 -5.58903e-06 -8.74645e-07)
(1.87257e-06 -4.66523e-06 -8.09748e-07)
(6.99768e-07 -1.66413e-06 -5.06277e-07)
(8.8571e-07 -2.18132e-06 -4.95013e-07)
(9.46027e-07 -2.29799e-06 -5.89188e-07)
(2.31085e-06 -5.69857e-06 -1.81945e-06)
(1.94788e-06 -4.75884e-06 -1.68279e-06)
(8.05938e-07 -1.67394e-06 -8.73534e-07)
(1.04928e-06 -2.32483e-06 -1.0164e-06)
(1.94289e-06 -4.78461e-06 -5.18046e-08)
(2.25505e-06 -5.58252e-06 -4.61304e-07)
(1.88602e-06 -4.65835e-06 -4.22966e-07)
(7.00707e-07 -1.65571e-06 -2.52612e-07)
(8.97867e-07 -2.17351e-06 -2.52398e-08)
(9.49978e-07 -2.28997e-06 -2.98101e-07)
(2.33132e-06 -5.6872e-06 -1.52881e-06)
(1.96769e-06 -4.74682e-06 -1.40997e-06)
(4.1874e-06 -1.03395e-05 -1.97087e-06)
(2.38392e-06 -5.90362e-06 -4.735e-07)
(2.71789e-06 -6.70075e-06 -6.90915e-08)
(2.78704e-06 -6.90338e-06 -5.09527e-07)
(2.45839e-06 -6.01341e-06 -1.56702e-06)
(2.85636e-06 -7.02726e-06 -1.67743e-06)
(4.21553e-06 -1.03348e-05 -9.94013e-08)
(4.13264e-06 -1.01841e-05 -6.06635e-07)
(-5.71187e-12 -5.48286e-14 7.35219e-12)
(-5.94228e-13 -5.68913e-15 -1.83559e-13)
(-5.74312e-12 -3.3287e-15 7.29138e-12)
(8.40723e-14 -3.67868e-14 1.39692e-11)
(-2.89233e-12 3.32092e-14 9.59607e-12)
(-2.91549e-12 -1.16827e-14 9.57562e-12)
(-5.92523e-13 -9.89602e-16 -1.69997e-13)
(-5.71206e-12 3.67601e-14 7.31528e-12)
(-5.73949e-12 -1.26437e-14 7.28639e-12)
(1.03478e-11 -2.42849e-11 9.21453e-12)
(2.70798e-11 -2.8792e-11 5.43333e-12)
(3.6733e-11 -7.94869e-11 6.31883e-12)
(5.06782e-11 -3.40687e-10 -1.25402e-11)
(1.20926e-10 -5.56328e-10 -2.886e-11)
(6.55032e-11 -1.68009e-10 2.23452e-12)
(3.69773e-11 -5.00154e-11 4.93605e-12)
(1.32107e-10 -4.00401e-10 -1.44578e-11)
(5.374e-11 -1.28073e-10 3.27931e-12)
(-2.88582e-12 -1.00247e-13 9.79136e-12)
(-5.71441e-12 -3.55189e-14 7.36851e-12)
(-5.42425e-13 -4.0255e-14 -3.25369e-14)
(-5.72623e-12 -8.46662e-14 7.45466e-12)
(-5.1706e-13 -4.58472e-14 1.95819e-14)
(-5.72698e-12 -7.69688e-14 7.48508e-12)
(-2.2126e-12 -3.18126e-14 2.74795e-11)
(5.76308e-12 -2.40475e-11 3.23996e-11)
(5.71763e-12 -1.27363e-11 1.6297e-11)
(-1.41442e-12 -1.44192e-12 1.09232e-11)
(8.45822e-13 -4.93353e-12 1.14121e-11)
(5.73221e-12 -1.62089e-11 9.4467e-12)
(2.30877e-12 -1.31962e-12 2.4036e-12)
(-1.47321e-12 -4.97019e-12 9.215e-12)
(-4.53017e-12 -9.21456e-13 8.57459e-12)
(1.50485e-12 -8.32314e-13 1.90018e-12)
(-2.64309e-12 -3.32179e-12 9.10056e-12)
(-1.2809e-12 3.42076e-15 -2.4991e-12)
(-1.72619e-12 -1.64113e-14 -1.14174e-12)
(-1.26722e-12 -5.39882e-15 -2.4997e-12)
(-1.72685e-12 8.20682e-15 -1.13644e-12)
(-1.27925e-12 -5.5007e-15 -2.49672e-12)
(-1.27893e-12 4.03604e-15 -2.51068e-12)
(1.54945e-13 9.79847e-14 1.41215e-11)
(-2.89e-12 3.0977e-14 9.61251e-12)
(-2.8883e-12 7.19319e-14 9.69597e-12)
(-5.63682e-12 8.82541e-14 7.5958e-12)
(-5.44807e-13 3.83373e-14 -2.72626e-14)
(-5.71056e-12 5.74444e-14 7.42173e-12)
(-5.70965e-12 1.77365e-14 7.32988e-12)
(-5.82356e-13 3.42235e-14 -1.19646e-13)
(-5.71875e-12 6.91314e-14 7.39637e-12)
(-1.26326e-12 -1.81672e-15 -2.46299e-12)
(-1.68971e-12 3.83249e-14 -1.02355e-12)
(-1.27653e-12 5.78595e-15 -2.50188e-12)
(-1.29626e-12 5.24038e-15 -2.51461e-12)
(-1.72176e-12 1.30147e-14 -1.10186e-12)
(-1.26705e-12 -3.97403e-15 -2.49123e-12)
(7.00975e-07 -1.47759e-06 -9.48221e-07)
(4.69349e-07 -9.44086e-07 -6.42611e-07)
(5.02873e-07 -9.52173e-07 -7.76515e-07)
(3.06954e-07 -4.26702e-07 -5.6635e-07)
(4.59264e-07 -8.12336e-07 -7.5586e-07)
(4.10577e-07 -7.92531e-07 -5.92742e-07)
(2.91796e-07 -4.15567e-07 -5.3535e-07)
(4.44474e-07 -7.99674e-07 -7.17549e-07)
(-6.25554e-13 5.5021e-15 -1.56807e-12)
(1.42379e-11 -1.36718e-11 3.94886e-12)
(-1.59819e-13 -2.03917e-13 -1.1688e-12)
(2.0385e-11 -2.43216e-11 3.9199e-12)
(2.42522e-12 -2.81187e-12 -8.02926e-13)
(-1.27087e-13 -3.64752e-13 -1.31577e-12)
(-5.76439e-09 -5.35004e-09 3.11751e-09)
(1.70199e-10 -9.76965e-10 -5.48112e-11)
(-5.20281e-10 -3.77787e-09 -8.07627e-10)
(7.17669e-08 -1.2038e-07 -1.19329e-07)
(1.6999e-07 -3.22474e-07 -2.27778e-07)
(6.92145e-08 -8.67998e-08 -1.23833e-07)
(4.22274e-09 -1.69073e-09 -2.81153e-08)
(6.40489e-08 -3.89375e-08 -1.43115e-07)
(8.70674e-10 -8.96872e-09 -1.87135e-09)
(4.70278e-08 -3.91735e-08 -1.01344e-07)
(2.92833e-09 -1.23101e-09 -4.18614e-10)
(1.76581e-07 -3.2042e-07 -2.54654e-07)
(9.38258e-08 -8.51098e-08 -1.91867e-07)
(7.34171e-08 -8.73784e-08 -1.40378e-07)
(1.92597e-10 -8.72307e-10 -4.83093e-11)
(1.00282e-09 -1.88247e-09 7.05196e-11)
(4.66005e-10 -2.31865e-09 -6.70201e-10)
(6.32309e-07 -1.47175e-06 -5.31526e-07)
(4.57963e-07 -9.45714e-07 -5.64761e-07)
(4.31676e-07 -9.55922e-07 -4.32273e-07)
(3.21584e-07 -7.44883e-07 -2.9504e-07)
(2.12589e-07 -4.26179e-07 -2.61208e-07)
(3.65472e-07 -8.07975e-07 -3.57414e-07)
(3.99023e-07 -7.94465e-07 -5.20561e-07)
(2.19522e-07 -4.23664e-07 -2.91555e-07)
(3.72639e-07 -8.05597e-07 -3.97998e-07)
(2.63318e-07 -3.23689e-07 -5.01403e-07)
(1.48776e-07 -9.5207e-08 -2.97432e-07)
(9.56944e-09 3.78163e-09 -2.08516e-08)
(7.32091e-08 -4.08758e-08 -1.66864e-07)
(8.34128e-10 -7.25762e-09 -1.19775e-09)
(1.00136e-07 -4.34405e-08 -2.08498e-07)
(1.67681e-10 -1.7157e-10 1.75792e-11)
(2.48085e-07 -3.13342e-07 -4.72814e-07)
(1.03281e-07 -8.55784e-08 -2.21223e-07)
(1.33957e-07 -8.87081e-08 -2.76703e-07)
(4.94083e-12 -6.12179e-12 -7.06384e-13)
(8.19163e-10 -1.37889e-09 5.92209e-11)
(5.2766e-11 -1.15745e-10 -1.44096e-13)
(3.55009e-06 -8.83173e-06 -2.18133e-06)
(4.00811e-06 -9.96296e-06 -2.28634e-06)
(4.13334e-06 -1.02729e-05 -1.83081e-06)
(4.15495e-06 -1.03255e-05 -2.2048e-06)
(3.53913e-06 -8.80974e-06 -2.07395e-06)
(3.9756e-06 -9.88864e-06 -1.80488e-06)
(3.99762e-06 -9.94048e-06 -2.1733e-06)
(2.37259e-06 -5.92148e-06 -9.97146e-07)
(2.79252e-06 -6.95878e-06 -1.38958e-06)
(2.77321e-06 -6.92249e-06 -1.0635e-06)
(2.9598e-06 -7.39329e-06 -8.32643e-07)
(3.33954e-06 -8.31928e-06 -1.02726e-06)
(2.90691e-06 -7.25394e-06 -9.73304e-07)
(2.93116e-06 -7.30546e-06 -1.41753e-06)
(3.34446e-06 -8.3342e-06 -1.14504e-06)
(2.91215e-06 -7.26755e-06 -1.0846e-06)
(3.40211e-06 -8.46331e-06 -2.14462e-06)
(2.97303e-06 -7.38655e-06 -2.02929e-06)
(2.42557e-06 -6.00462e-06 -1.77253e-06)
(2.79828e-06 -6.97348e-06 -1.57277e-06)
(2.82342e-06 -7.01693e-06 -1.89188e-06)
(3.39099e-06 -8.44151e-06 -2.0392e-06)
(2.93669e-06 -7.32074e-06 -1.60424e-06)
(2.96145e-06 -7.36545e-06 -1.92997e-06)
(4.12947e-06 -1.02539e-05 -1.61894e-06)
(4.11299e-06 -1.02058e-05 -1.23618e-06)
(3.85463e-06 -9.57595e-06 -9.14816e-07)
(3.48864e-06 -8.68426e-06 -1.04425e-06)
(3.9502e-06 -9.80652e-06 -1.09301e-06)
(3.97154e-06 -9.87005e-06 -1.59588e-06)
(3.4935e-06 -8.69961e-06 -1.16419e-06)
(3.95475e-06 -9.8229e-06 -1.21889e-06)
(-1.26855e-12 -6.95517e-15 -2.48766e-12)
(-1.69115e-12 -1.98569e-14 -1.025e-12)
(-1.24799e-12 2.3494e-15 -2.47333e-12)
(-1.66259e-12 -4.58602e-14 -9.66148e-13)
(-1.23669e-12 -7.07766e-15 -2.46241e-12)
(-2.13506e-12 7.46044e-14 2.77002e-11)
(-7.58448e-13 -2.64881e-12 2.94019e-11)
(8.5521e-13 -8.69042e-13 1.49077e-11)
(-1.79553e-12 -9.16403e-13 1.07852e-11)
(-2.47349e-12 -1.73158e-13 1.0342e-11)
(-5.61103e-12 5.53644e-14 7.65152e-12)
(-3.59557e-13 5.81003e-14 3.39286e-13)
(-5.48754e-12 4.81847e-15 7.90154e-12)
(-4.84408e-12 -5.48374e-13 8.43765e-12)
(-2.32037e-13 5.06968e-14 5.61555e-13)
(-5.40643e-12 -7.42842e-14 7.99208e-12)
(-7.68738e-13 1.41741e-14 -1.73916e-12)
(4.00692e-14 -4.27625e-13 1.05134e-12)
(-1.00757e-12 1.0888e-14 -2.10059e-12)
(-4.47075e-13 -2.55092e-13 5.97941e-13)
(-1.12667e-12 1.97999e-14 -2.26895e-12)
(-9.78738e-13 2.72787e-15 -2.07201e-12)
(-1.26908e-12 9.21943e-15 -2.47119e-12)
(-1.57505e-12 5.22248e-14 -7.3807e-13)
(-1.21351e-12 -1.90995e-15 -2.40741e-12)
(-1.47871e-12 7.69305e-14 -5.42507e-13)
(-1.16194e-12 9.38727e-15 -2.3025e-12)
(-1.23734e-12 8.03866e-15 -2.4319e-12)
(7.14955e-07 -1.46093e-06 -7.38481e-07)
(4.70988e-07 -9.26857e-07 -4.35494e-07)
(5.15723e-07 -9.34828e-07 -6.0306e-07)
(3.21425e-07 -4.10695e-07 -4.67826e-07)
(4.75272e-07 -7.96905e-07 -6.23957e-07)
(4.11727e-07 -7.75034e-07 -4.0104e-07)
(3.02677e-07 -3.97219e-07 -4.15833e-07)
(4.56917e-07 -7.82093e-07 -5.5696e-07)
(6.73468e-08 -1.10785e-07 6.70123e-09)
(1.65291e-07 -3.12632e-07 -1.07248e-07)
(6.4777e-08 -7.79313e-08 -5.63266e-08)
(1.07635e-09 7.1215e-09 -5.62234e-09)
(6.46187e-08 -2.50315e-08 -1.0303e-07)
(4.5333e-08 -3.00026e-08 -5.5726e-08)
(1.72528e-07 -3.09388e-07 -1.3815e-07)
(9.2966e-08 -7.18037e-08 -1.37427e-07)
(7.04997e-08 -7.69104e-08 -7.52297e-08)
(6.31712e-07 -1.46214e-06 -2.99368e-07)
(4.57626e-07 -9.338e-07 -4.01423e-07)
(4.28852e-07 -9.4582e-07 -2.40284e-07)
(3.20772e-07 -7.35864e-07 -5.67602e-09)
(2.08033e-07 -4.16356e-07 -1.23646e-07)
(3.61965e-07 -7.98785e-07 -1.73393e-07)
(3.98313e-07 -7.82353e-07 -3.69349e-07)
(2.15343e-07 -4.12734e-07 -1.58767e-07)
(3.69225e-07 -7.95314e-07 -2.20198e-07)
(2.76962e-07 -3.07493e-07 -4.14662e-07)
(1.59242e-07 -7.92371e-08 -2.50231e-07)
(1.51035e-08 1.64257e-08 -2.17316e-08)
(7.33587e-08 -2.02618e-08 -1.15031e-07)
(1.07521e-07 -2.39486e-08 -1.68599e-07)
(2.58245e-07 -2.947e-07 -3.67821e-07)
(1.03281e-07 -6.6445e-08 -1.52171e-07)
(1.41957e-07 -6.99819e-08 -2.19995e-07)
(7.74593e-07 -1.67416e-06 -1.00372e-06)
(9.86801e-07 -2.30575e-06 -9.68971e-07)
(1.01771e-06 -2.32349e-06 -1.16498e-06)
(1.40526e-06 -3.33383e-06 -1.43693e-06)
(1.11968e-06 -2.57438e-06 -1.27855e-06)
(1.07546e-06 -2.53937e-06 -1.01241e-06)
(1.39195e-06 -3.31714e-06 -1.36771e-06)
(1.10601e-06 -2.55877e-06 -1.21698e-06)
(1.68211e-06 -4.20637e-06 -6.62942e-07)
(1.42742e-06 -3.53309e-06 -7.1665e-07)
(1.75659e-06 -4.37112e-06 -7.873e-07)
(2.24468e-06 -5.59989e-06 -9.74044e-07)
(1.90005e-06 -4.69725e-06 -1.17606e-06)
(1.87855e-06 -4.6742e-06 -9.0158e-07)
(1.43377e-06 -3.53923e-06 -7.97644e-07)
(1.7844e-06 -4.40028e-06 -1.14296e-06)
(1.76261e-06 -4.37939e-06 -8.76411e-07)
(7.06827e-07 -1.66435e-06 -5.63382e-07)
(9.77073e-07 -2.303e-06 -8.54036e-07)
(9.52767e-07 -2.30035e-06 -6.55511e-07)
(1.06415e-06 -2.63692e-06 -5.39847e-07)
(1.32435e-06 -3.26933e-06 -6.92255e-07)
(1.03527e-06 -2.52777e-06 -6.15618e-07)
(1.06599e-06 -2.53582e-06 -8.92536e-07)
(1.33073e-06 -3.27471e-06 -7.7034e-07)
(1.04198e-06 -2.53089e-06 -6.85038e-07)
(1.50727e-06 -3.60359e-06 -1.48792e-06)
(1.83296e-06 -4.45909e-06 -1.63543e-06)
(2.29856e-06 -5.67896e-06 -1.73103e-06)
(1.90747e-06 -4.7072e-06 -1.33219e-06)
(1.9352e-06 -4.74028e-06 -1.60133e-06)
(1.49409e-06 -3.58652e-06 -1.41619e-06)
(1.79207e-06 -4.40947e-06 -1.29487e-06)
(1.82015e-06 -4.4409e-06 -1.55636e-06)
(7.88955e-07 -1.65773e-06 -7.8262e-07)
(9.93558e-07 -2.29023e-06 -6.66153e-07)
(1.03329e-06 -2.30775e-06 -9.11849e-07)
(1.42391e-06 -3.32075e-06 -1.19804e-06)
(1.13767e-06 -2.56067e-06 -1.06278e-06)
(1.0831e-06 -2.52409e-06 -6.97487e-07)
(1.4093e-06 -3.30235e-06 -1.07627e-06)
(1.12202e-06 -2.54327e-06 -9.53819e-07)
(1.70793e-06 -4.19955e-06 -4.62692e-08)
(1.4369e-06 -3.52571e-06 -3.69353e-07)
(1.76897e-06 -4.36411e-06 -4.10016e-07)
(2.25941e-06 -5.59258e-06 -5.76166e-07)
(1.91078e-06 -4.68806e-06 -8.60783e-07)
(1.89071e-06 -4.66648e-06 -5.29124e-07)
(1.4421e-06 -3.53094e-06 -4.6296e-07)
(1.79441e-06 -4.39093e-06 -8.35184e-07)
(1.77382e-06 -4.37152e-06 -5.12987e-07)
(7.07162e-07 -1.6549e-06 -3.18528e-07)
(9.81034e-07 -2.29231e-06 -6.15297e-07)
(9.55992e-07 -2.29134e-06 -3.74637e-07)
(1.07992e-06 -2.62936e-06 -3.0351e-08)
(1.33264e-06 -3.26181e-06 -3.55639e-07)
(1.04046e-06 -2.51987e-06 -3.126e-07)
(1.0707e-06 -2.5253e-06 -6.4424e-07)
(1.33803e-06 -3.26627e-06 -4.45827e-07)
(1.04626e-06 -2.52203e-06 -3.92781e-07)
(1.52616e-06 -3.59072e-06 -1.24179e-06)
(1.85255e-06 -4.44686e-06 -1.36896e-06)
(2.31943e-06 -5.66615e-06 -1.37623e-06)
(1.92224e-06 -4.69384e-06 -9.32613e-07)
(1.9548e-06 -4.72672e-06 -1.26837e-06)
(1.51189e-06 -3.57198e-06 -1.1159e-06)
(1.80598e-06 -4.39587e-06 -9.04762e-07)
(1.83932e-06 -4.42709e-06 -1.23117e-06)
(3.57196e-06 -8.8223e-06 -1.84742e-06)
(4.03019e-06 -9.95416e-06 -1.94104e-06)
(4.15819e-06 -1.02634e-05 -1.31699e-06)
(4.17949e-06 -1.03158e-05 -1.77861e-06)
(3.5629e-06 -8.79912e-06 -1.66603e-06)
(4.00006e-06 -9.87888e-06 -1.29635e-06)
(4.022e-06 -9.93058e-06 -1.7514e-06)
(2.38814e-06 -5.91432e-06 -5.91314e-07)
(2.80772e-06 -6.95076e-06 -1.02815e-06)
(2.79096e-06 -6.91573e-06 -6.35381e-07)
(2.99804e-06 -7.38764e-06 -7.50467e-08)
(3.36121e-06 -8.31375e-06 -5.54676e-07)
(2.9268e-06 -7.24805e-06 -5.2097e-07)
(2.94691e-06 -7.2976e-06 -1.05037e-06)
(3.36472e-06 -8.328e-06 -6.90627e-07)
(2.9306e-06 -7.26093e-06 -6.4954e-07)
(3.42388e-06 -8.45366e-06 -1.81482e-06)
(2.9944e-06 -7.37626e-06 -1.71283e-06)
(2.44683e-06 -5.99205e-06 -1.41094e-06)
(2.81839e-06 -6.96183e-06 -1.115e-06)
(2.84577e-06 -7.0051e-06 -1.5113e-06)
(3.41452e-06 -8.43065e-06 -1.63634e-06)
(2.95746e-06 -7.30933e-06 -1.13925e-06)
(2.98412e-06 -7.35386e-06 -1.54349e-06)
(4.14864e-06 -1.02474e-05 -1.21299e-06)
(4.13567e-06 -1.02002e-05 -7.54061e-07)
(3.89752e-06 -9.571e-06 -9.32724e-08)
(3.51092e-06 -8.67886e-06 -5.65358e-07)
(3.97388e-06 -9.80147e-06 -5.96722e-07)
(3.99038e-06 -9.86333e-06 -1.19413e-06)
(3.51432e-06 -8.69355e-06 -7.03794e-07)
(3.977e-06 -9.81724e-06 -7.4189e-07)
(7.55323e-07 -1.6206e-06 -1.12562e-06)
(6.85886e-07 -1.43555e-06 -1.05992e-06)
(3.61019e-08 -2.05338e-08 -4.91036e-08)
(8.07247e-08 -4.36118e-08 -1.27633e-07)
(2.47178e-06 -6.1302e-06 -2.10172e-06)
(2.60107e-06 -6.46107e-06 -2.15032e-06)
(7.82029e-07 -1.61229e-06 -1.04931e-06)
(7.12948e-07 -1.42714e-06 -9.87816e-07)
(4.21655e-08 -5.91447e-09 -4.36205e-08)
(9.36879e-08 -3.43412e-08 -1.21623e-07)
(8.28529e-07 -1.816e-06 -1.19051e-06)
(9.05466e-07 -2.02148e-06 -1.25456e-06)
(2.34532e-06 -5.80536e-06 -2.05213e-06)
(2.22175e-06 -5.48676e-06 -2.00154e-06)
(8.5485e-07 -1.8078e-06 -1.11011e-06)
(9.31384e-07 -2.01339e-06 -1.17016e-06)
(2.36604e-06 -5.79897e-06 -1.9231e-06)
(2.24279e-06 -5.48025e-06 -1.87506e-06)
(2.49218e-06 -6.12394e-06 -1.97023e-06)
(2.62116e-06 -6.45493e-06 -2.01646e-06)
(-4.21314e-12 -4.70094e-14 -7.41799e-12)
(-5.58195e-13 -2.76991e-14 -1.61267e-13)
(-4.24436e-12 -5.85388e-14 -7.61268e-12)
(-5.68938e-13 1.61269e-14 -1.87097e-13)
(-4.22301e-12 3.78184e-14 -7.45065e-12)
(-4.25151e-12 4.17608e-14 -7.63391e-12)
(9.32247e-12 -1.42269e-11 -3.81183e-12)
(1.32833e-11 -1.18316e-11 4.60704e-12)
(1.47548e-11 -2.11333e-11 -3.56458e-12)
(7.31119e-11 -1.44073e-10 2.4576e-12)
(1.56312e-10 -2.86835e-10 7.52895e-12)
(9.4559e-11 -2.33371e-10 -1.01676e-11)
(-4.21225e-12 -1.09267e-14 -7.4292e-12)
(-5.35629e-13 -2.73965e-14 -1.09453e-13)
(-4.23241e-12 -1.20981e-14 -7.58824e-12)
(5.50373e-12 -9.14254e-12 -4.11207e-12)
(4.72601e-12 -3.1575e-12 3.29827e-12)
(2.77219e-12 -6.0543e-12 -4.66212e-12)
(-3.07374e-12 -4.24309e-13 -6.17407e-12)
(6.22106e-13 -2.73826e-13 1.30224e-12)
(-2.76005e-12 -7.02018e-13 -6.17634e-12)
(-2.81725e-12 3.78099e-15 -3.64398e-12)
(-1.66356e-12 -8.52132e-15 -1.06638e-12)
(-2.7426e-12 6.04821e-16 -3.53521e-12)
(-1.67318e-12 1.14533e-15 -1.092e-12)
(-2.81577e-12 -9.50404e-15 -3.65098e-12)
(-2.75112e-12 -4.03737e-15 -3.55781e-12)
(-4.13181e-12 8.57805e-14 -7.19393e-12)
(-4.8865e-13 6.19181e-14 3.79766e-14)
(-4.17433e-12 9.34188e-14 -7.41057e-12)
(-4.21265e-12 1.01299e-15 -7.41929e-12)
(-5.70552e-13 1.29481e-14 -1.79182e-13)
(-4.24475e-12 -4.33008e-15 -7.60046e-12)
(-2.77914e-12 1.58818e-14 -3.535e-12)
(-1.61364e-12 3.78516e-14 -9.13857e-13)
(-2.71389e-12 1.8786e-14 -3.4414e-12)
(-2.81528e-12 2.05901e-14 -3.64004e-12)
(-1.6761e-12 2.02337e-14 -1.08796e-12)
(-2.74872e-12 1.7187e-14 -3.54916e-12)
(6.7906e-07 -1.46832e-06 -8.54974e-07)
(5.98373e-07 -1.28115e-06 -7.39897e-07)
(6.69774e-07 -1.48215e-06 -9.18691e-07)
(6.00046e-07 -1.29784e-06 -8.64012e-07)
(6.08998e-07 -1.28307e-06 -8.03738e-07)
(3.48776e-07 -5.5586e-07 -6.50966e-07)
(3.95654e-07 -6.74077e-07 -7.20668e-07)
(2.60573e-07 -4.29671e-07 -5.13263e-07)
(3.04503e-07 -5.25327e-07 -4.90569e-07)
(2.68409e-07 -4.11085e-07 -4.78107e-07)
(3.07801e-07 -5.44156e-07 -5.74468e-07)
(3.15759e-07 -5.2593e-07 -5.34569e-07)
(1.46502e-13 -9.68015e-13 -6.32889e-13)
(6.33586e-12 -5.23896e-12 3.23781e-12)
(1.2255e-12 -1.70709e-12 -2.78633e-13)
(4.48621e-11 -7.56416e-11 2.72961e-12)
(4.03056e-11 -4.98478e-11 7.68551e-13)
(2.16065e-11 -3.04873e-11 -7.07895e-14)
(1.84036e-08 -5.9899e-09 -6.97471e-08)
(2.90672e-09 5.16931e-09 -1.34538e-08)
(1.84717e-08 1.29546e-08 -4.53264e-08)
(3.76197e-09 -3.68417e-10 -2.23881e-08)
(2.35956e-08 -7.37248e-09 -6.77574e-08)
(1.61383e-08 1.27112e-08 -3.90688e-08)
(2.44232e-09 -4.57019e-09 -2.34619e-08)
(1.58036e-07 -2.43633e-07 -3.42024e-07)
(2.06296e-07 -3.28499e-07 -4.19759e-07)
(1.92725e-07 -3.13761e-07 -3.06561e-07)
(1.62193e-07 -2.2144e-07 -2.89178e-07)
(1.97403e-07 -3.32561e-07 -3.98464e-07)
(1.66583e-07 -2.39959e-07 -3.60405e-07)
(1.5346e-07 -2.24257e-07 -2.62804e-07)
(1.74028e-10 -7.26235e-10 -3.70479e-11)
(3.32397e-10 -5.82504e-10 3.03321e-11)
(3.63955e-10 -7.0985e-10 5.05259e-11)
(5.80874e-07 -1.30049e-06 -7.67623e-07)
(6.48859e-07 -1.46803e-06 -6.34179e-07)
(5.87404e-07 -1.28185e-06 -6.50992e-07)
(6.59714e-07 -1.48131e-06 -8.57987e-07)
(5.89839e-07 -1.29747e-06 -8.0679e-07)
(5.78288e-07 -1.2844e-06 -5.9558e-07)
(6.50801e-07 -1.48376e-06 -8.1635e-07)
(2.88016e-07 -5.49388e-07 -5.09067e-07)
(2.49904e-07 -4.30267e-07 -4.78172e-07)
(2.92756e-07 -5.27449e-07 -4.30042e-07)
(2.3617e-07 -4.16235e-07 -3.49887e-07)
(2.97088e-07 -5.44875e-07 -5.35497e-07)
(2.40917e-07 -4.34717e-07 -4.54437e-07)
(2.83381e-07 -5.31391e-07 -3.92439e-07)
(3.05349e-07 -4.49194e-07 -5.80681e-07)
(2.65091e-07 -3.53979e-07 -5.09751e-07)
(6.89459e-09 6.10802e-09 -1.97556e-08)
(2.2807e-08 1.18662e-08 -5.59574e-08)
(5.77538e-09 -1.62802e-09 -2.00906e-08)
(3.3337e-08 -2.85815e-08 -8.14634e-08)
(2.50704e-08 2.61477e-09 -6.56053e-08)
(4.01705e-09 -2.175e-09 -9.30227e-09)
(2.1691e-07 -3.28256e-07 -4.51046e-07)
(2.24663e-07 -3.09453e-07 -4.20888e-07)
(1.73401e-07 -2.20385e-07 -3.31345e-07)
(1.76862e-07 -2.40124e-07 -3.87577e-07)
(1.8431e-07 -2.2129e-07 -3.62594e-07)
(6.10146e-11 -1.23596e-10 -3.33929e-12)
(2.3425e-10 -3.82435e-10 1.18281e-11)
(1.34394e-10 -1.974e-10 3.63225e-12)
(3.58068e-06 -8.92833e-06 -2.46315e-06)
(3.73058e-06 -9.30005e-06 -2.50398e-06)
(3.50337e-06 -8.76575e-06 -1.97559e-06)
(3.52227e-06 -8.77677e-06 -1.86805e-06)
(3.66684e-06 -9.13231e-06 -1.75101e-06)
(3.65393e-06 -9.13714e-06 -2.00645e-06)
(3.67303e-06 -9.14886e-06 -1.89835e-06)
(2.5049e-06 -6.28152e-06 -1.54065e-06)
(2.3859e-06 -5.94219e-06 -1.19177e-06)
(2.38288e-06 -5.96228e-06 -1.58681e-06)
(2.52331e-06 -6.2821e-06 -1.33178e-06)
(2.51275e-06 -6.29158e-06 -1.62189e-06)
(2.37496e-06 -5.95281e-06 -1.50751e-06)
(2.51648e-06 -6.27117e-06 -1.21905e-06)
(3.19558e-06 -8.00988e-06 -1.6947e-06)
(3.34887e-06 -8.38433e-06 -1.81546e-06)
(3.21622e-06 -8.01452e-06 -1.47155e-06)
(3.35639e-06 -8.36235e-06 -1.37048e-06)
(3.20303e-06 -8.0226e-06 -1.78518e-06)
(3.34151e-06 -8.37115e-06 -1.72324e-06)
(3.20998e-06 -8.00083e-06 -1.34667e-06)
(3.43315e-06 -8.56105e-06 -2.42137e-06)
(3.28805e-06 -8.19839e-06 -2.37863e-06)
(2.40694e-06 -5.97789e-06 -1.59825e-06)
(2.39029e-06 -5.97356e-06 -1.69863e-06)
(2.52952e-06 -6.29557e-06 -1.50768e-06)
(2.52e-06 -6.3034e-06 -1.73624e-06)
(2.537e-06 -6.30867e-06 -1.63468e-06)
(3.35521e-06 -8.3989e-06 -1.94391e-06)
(3.3739e-06 -8.40919e-06 -1.837e-06)
(3.22131e-06 -8.03088e-06 -1.66505e-06)
(3.20951e-06 -8.03677e-06 -1.91141e-06)
(3.22797e-06 -8.0463e-06 -1.80519e-06)
(3.64071e-06 -9.1078e-06 -1.77808e-06)
(3.49718e-06 -8.75081e-06 -1.84497e-06)
(3.66237e-06 -9.11453e-06 -1.54797e-06)
(3.50525e-06 -8.72863e-06 -1.39372e-06)
(3.64789e-06 -9.12183e-06 -1.87371e-06)
(3.4899e-06 -8.73718e-06 -1.75102e-06)
(3.65649e-06 -9.09948e-06 -1.4164e-06)
(-2.8001e-12 -2.81906e-14 -3.60818e-12)
(-1.64966e-12 -3.10722e-14 -1.02527e-12)
(-2.73596e-12 -2.309e-14 -3.51177e-12)
(-4.08404e-12 4.37743e-14 -7.10801e-12)
(-4.42452e-13 5.3131e-14 1.36417e-13)
(-4.09443e-12 2.91089e-14 -7.24603e-12)
(-3.3822e-12 -2.03481e-13 -6.36161e-12)
(1.80962e-14 3.20977e-14 8.57015e-13)
(-3.59606e-12 -6.28313e-14 -6.65529e-12)
(-6.73244e-13 -5.22131e-13 -1.21468e-12)
(1.46254e-12 -1.20139e-12 1.90456e-12)
(-1.14121e-12 -2.69238e-13 -1.42354e-12)
(-9.23405e-13 -1.15583e-14 1.52297e-13)
(-2.41848e-12 8.55171e-14 -2.78109e-12)
(-2.30246e-12 6.7248e-14 -2.64877e-12)
(-2.748e-12 4.51815e-14 -3.45367e-12)
(-1.59176e-12 5.95479e-14 -8.44871e-13)
(-2.69135e-12 4.29049e-14 -3.38021e-12)
(-1.27984e-12 7.9351e-14 -2.40516e-13)
(-2.54055e-12 6.52066e-14 -3.01562e-12)
(-2.51913e-12 6.87051e-14 -2.97946e-12)
(6.85623e-07 -1.45006e-06 -5.91258e-07)
(6.01211e-07 -1.26443e-06 -5.03335e-07)
(6.64132e-07 -1.44814e-06 -3.77513e-07)
(6.14894e-07 -1.26455e-06 -5.54811e-07)
(5.92624e-07 -1.26332e-06 -3.53047e-07)
(3.76037e-07 -5.47022e-07 -6.05969e-07)
(4.23289e-07 -6.65281e-07 -6.70986e-07)
(2.47082e-07 -3.91661e-07 -2.04902e-07)
(3.04908e-07 -5.07245e-07 -3.31157e-07)
(2.71356e-07 -3.90739e-07 -3.28249e-07)
(3.19082e-07 -5.0592e-07 -3.66879e-07)
(2.94638e-07 -5.06793e-07 -2.29572e-07)
(1.3079e-08 1.97947e-08 -2.42949e-08)
(3.05693e-09 9.53857e-09 -1.05378e-08)
(1.93505e-08 1.75938e-08 -3.91644e-08)
(5.01876e-09 1.5037e-08 -1.24373e-08)
(1.5159e-08 1.63531e-08 -3.33045e-08)
(1.72383e-08 2.29765e-08 -3.2224e-08)
(3.14137e-09 1.24784e-08 -9.56107e-09)
(1.43771e-07 -2.09143e-07 -9.78551e-08)
(1.93141e-07 -2.93535e-07 -1.52098e-07)
(1.89491e-07 -3.01624e-07 -2.05537e-07)
(1.6096e-07 -2.0825e-07 -2.04626e-07)
(1.50324e-07 -2.11948e-07 -1.76151e-07)
(1.82615e-07 -2.98661e-07 -1.14082e-07)
(1.53859e-07 -2.04437e-07 -1.31089e-07)
(5.71815e-07 -1.27037e-06 -2.33211e-07)
(6.48186e-07 -1.45741e-06 -4.32419e-07)
(5.88043e-07 -1.27031e-06 -4.64485e-07)
(6.53842e-07 -1.45075e-06 -3.23937e-07)
(5.76962e-07 -1.27362e-06 -4.05122e-07)
(5.8218e-07 -1.26644e-06 -3.02564e-07)
(6.43712e-07 -1.45412e-06 -2.50336e-07)
(2.7296e-07 -5.16611e-07 -1.47524e-07)
(2.3647e-07 -3.95921e-07 -1.73383e-07)
(2.91567e-07 -5.14902e-07 -3.04227e-07)
(2.32768e-07 -4.04269e-07 -2.34769e-07)
(2.80062e-07 -5.19654e-07 -2.63817e-07)
(2.8389e-07 -5.11162e-07 -1.94827e-07)
(2.25669e-07 -4.01284e-07 -1.30677e-07)
(3.31951e-07 -4.40361e-07 -5.40408e-07)
(2.90684e-07 -3.45247e-07 -4.74274e-07)
(9.38524e-09 1.42684e-08 -1.60439e-08)
(2.40377e-08 2.11599e-08 -4.24536e-08)
(6.13103e-09 1.7221e-08 -1.68698e-08)
(2.98948e-08 2.26045e-08 -4.74223e-08)
(2.11792e-08 2.38785e-08 -4.0669e-08)
(2.03489e-07 -2.89529e-07 -1.8035e-07)
(2.27275e-07 -2.8868e-07 -2.89317e-07)
(1.73257e-07 -2.01449e-07 -2.24313e-07)
(1.86658e-07 -2.00245e-07 -2.50085e-07)
(1.63816e-07 -2.00851e-07 -1.55995e-07)
(7.5289e-07 -1.66399e-06 -9.05351e-07)
(7.43232e-07 -1.67683e-06 -9.72326e-07)
(8.20321e-07 -1.86633e-06 -8.79738e-07)
(8.20391e-07 -1.88158e-06 -1.02493e-06)