/*--------------------------------*- C++ -*----------------------------------*\
| =========                 |                                                 |
| \\      /  F ield         | OpenFOAM: The Open Source CFD Toolbox           |
|  \\    /   O peration     | Version:  2012                                  |
|   \\  /    A nd           | Website:  www.openfoam.com                      |
|    \\/     M anipulation  |                                                 |
\*---------------------------------------------------------------------------*/
FoamFile
{
    version     2.0;
    format      ascii;
    class       volVectorField;
    location    "0.104/solid";
    object      D_0_0_0;
}
// * * * * * * * * * * * * * * * * * * * * * * * * * * * * * * * * * * * * * //

dimensions      [0 1 0 0 0 0 0];


internalField   nonuniform List<vector> 
3125
(
(-3.13301e-14 -1.24924e-13 1.23498e-11)
(1.79703e-11 -1.02428e-10 1.00839e-11)
(-2.40363e-12 -2.21675e-13 2.46121e-11)
(-4.22618e-14 -1.15895e-13 1.23672e-11)
(-2.42288e-12 -1.78503e-13 2.44866e-11)
(1.49664e-11 -1.14185e-10 3.4733e-11)
(1.38559e-11 -6.82572e-11 1.40372e-11)
(2.52639e-11 -2.37104e-10 3.99424e-11)
(2.10151e-13 3.00815e-14 1.26417e-11)
(5.0661e-09 1.22473e-08 -3.95919e-08)
(1.80421e-06 -1.4351e-06 -8.77115e-07)
(7.65916e-06 -6.15811e-06 -1.71249e-06)
(-2.09692e-12 -8.99306e-14 2.49014e-11)
(-1.91356e-12 -4.14006e-13 2.52045e-11)
(2.41506e-13 -6.81263e-14 1.27007e-11)
(3.56577e-10 1.77071e-08 -2.19447e-08)
(1.829e-06 -1.4085e-06 -4.88694e-07)
(6.84491e-06 -5.50648e-06 -1.6333e-06)
(2.2774e-06 -1.82122e-06 -9.84597e-07)
(6.96188e-06 -5.48627e-06 -9.44494e-07)
(2.31328e-06 -1.7955e-06 -5.53103e-07)
(7.7869e-06 -6.13866e-06 -9.92528e-07)
(-9.80273e-13 -2.53005e-14 -1.40659e-12)
(-1.801e-14 3.48282e-14 1.22728e-11)
(-9.72393e-13 2.34566e-14 -1.41507e-12)
(1.27315e-11 -1.37615e-11 3.73276e-12)
(-1.12802e-10 -1.51413e-09 1.52975e-11)
(2.48315e-10 -4.62991e-10 1.32186e-11)
(-9.67572e-13 -2.6749e-14 -1.38627e-12)
(-2.39785e-12 -2.57808e-15 2.43528e-11)
(1.25005e-12 -1.26165e-11 2.78596e-11)
(2.19351e-12 -4.78797e-12 1.38343e-11)
(8.56547e-12 -8.35603e-12 2.86617e-12)
(2.54546e-13 -1.994e-13 3.75181e-13)
(-2.06642e-12 -7.18913e-15 -2.15854e-12)
(-2.05264e-12 6.45715e-15 -2.15114e-12)
(-1.08508e-14 2.26509e-14 1.22859e-11)
(-8.44582e-13 8.07351e-14 -1.10095e-12)
(-9.56649e-13 2.25561e-14 -1.37464e-12)
(-1.95427e-12 5.43527e-14 -1.89414e-12)
(-2.0378e-12 2.95567e-14 -2.11335e-12)
(2.11e-06 -1.60109e-06 -2.26038e-06)
(8.07576e-07 -4.44174e-07 -1.25953e-06)
(6.2525e-12 -6.21109e-12 2.52536e-12)
(1.69317e-10 -2.75329e-10 4.92742e-12)
(-5.27353e-10 -2.1757e-09 -2.98821e-10)
(4.16646e-07 -2.95601e-07 -3.9821e-07)
(1.30461e-08 1.3349e-08 -4.43846e-08)
(6.31485e-07 -3.25262e-07 -9.81954e-07)
(2.64041e-10 -1.14111e-09 -3.88706e-11)
(2.07488e-06 -1.58416e-06 -2.01609e-06)
(6.86248e-07 -5.18817e-07 -5.28295e-07)
(7.68944e-07 -4.38659e-07 -1.11801e-06)
(1.78543e-08 1.8459e-08 -5.30615e-08)
(6.69745e-07 -3.30402e-07 -1.10793e-06)
(2.15761e-10 -6.93912e-10 -2.31042e-11)
(1.1169e-05 -9.35653e-06 -5.00054e-06)
(7.5936e-06 -6.31764e-06 -3.80811e-06)
(1.03121e-05 -8.27405e-06 -1.93117e-06)
(1.06822e-05 -8.88561e-06 -4.39455e-06)
(7.61335e-06 -6.37852e-06 -4.26008e-06)
(1.06959e-05 -8.96331e-06 -4.91479e-06)
(1.12617e-05 -9.02912e-06 -1.99789e-06)
(1.11561e-05 -9.27656e-06 -4.47136e-06)
(-2.04744e-12 -3.261e-14 -2.12088e-12)
(-2.3634e-12 2.47285e-14 2.44074e-11)
(-2.1106e-13 -5.87885e-12 2.69037e-11)
(1.66381e-12 -3.02223e-12 1.37267e-11)
(-7.65773e-13 7.65216e-14 -9.30531e-13)
(-1.04724e-13 -6.15955e-14 -5.18322e-14)
(3.68989e-12 -3.6425e-12 1.62035e-12)
(-1.19447e-12 2.72219e-14 -6.03078e-13)
(-1.8857e-12 7.67855e-14 -1.73959e-12)
(-1.45588e-12 5.92803e-14 -1.0056e-12)
(2.12896e-06 -1.54836e-06 -1.99095e-06)
(8.11292e-07 -3.85309e-07 -1.10272e-06)
(4.15672e-07 -2.66851e-07 -2.13699e-07)
(1.67413e-08 3.16018e-08 -4.67457e-08)
(6.31854e-07 -2.83385e-07 -8.74071e-07)
(2.08792e-06 -1.54781e-06 -1.80516e-06)
(6.85655e-07 -4.87427e-07 -2.8396e-07)
(7.69925e-07 -3.97709e-07 -9.95042e-07)
(2.23432e-08 4.04857e-08 -5.21758e-08)
(6.72348e-07 -2.7023e-07 -9.70228e-07)
(2.34479e-06 -1.81143e-06 -2.39461e-06)
(4.31431e-06 -3.55003e-06 -3.27518e-06)
(4.63301e-06 -3.72941e-06 -1.37616e-06)
(7.18727e-06 -5.97669e-06 -3.71729e-06)
(4.61328e-06 -3.79349e-06 -3.03117e-06)
(2.31053e-06 -1.79216e-06 -2.1365e-06)
(3.97758e-06 -3.20043e-06 -1.2837e-06)
(4.28645e-06 -3.51272e-06 -2.92588e-06)
(7.2079e-06 -6.03504e-06 -4.15868e-06)
(4.64023e-06 -3.83347e-06 -3.39271e-06)
(2.36663e-06 -1.75946e-06 -2.11141e-06)
(4.35862e-06 -3.50341e-06 -2.90605e-06)
(4.71595e-06 -3.70693e-06 -7.88958e-07)
(7.24247e-06 -5.94888e-06 -3.36328e-06)
(4.64967e-06 -3.76196e-06 -2.73303e-06)
(2.32593e-06 -1.75636e-06 -1.91478e-06)
(4.04875e-06 -3.17717e-06 -7.3316e-07)
(4.32011e-06 -3.48066e-06 -2.63648e-06)
(7.27897e-06 -5.9946e-06 -3.70793e-06)
(4.6879e-06 -3.78762e-06 -3.01251e-06)
(1.1268e-05 -9.32297e-06 -4.47468e-06)
(7.65141e-06 -6.29036e-06 -3.44683e-06)
(1.04703e-05 -8.25683e-06 -1.1256e-06)
(1.07574e-05 -8.862e-06 -3.98688e-06)
(7.68767e-06 -6.33886e-06 -3.80016e-06)
(1.0792e-05 -8.929e-06 -4.39647e-06)
(1.14292e-05 -9.01264e-06 -1.16635e-06)
(1.12336e-05 -9.25347e-06 -4.0577e-06)
(-3.11434e-12 -6.8251e-14 8.31088e-12)
(-2.71433e-14 -3.07858e-14 1.2305e-11)
(-3.13598e-12 -1.81153e-14 8.24881e-12)
(1.80335e-11 -5.05412e-11 8.802e-12)
(2.71399e-11 -3.21525e-10 6.36705e-12)
(5.03545e-11 -1.79701e-10 5.82827e-13)
(-2.36517e-12 -2.96191e-13 2.47849e-11)
(1.52894e-14 -2.02585e-13 1.25477e-11)
(-3.11775e-12 -6.6416e-14 8.3281e-12)
(-3.11819e-12 -1.10727e-13 8.44594e-12)
(-2.40732e-12 -1.09792e-13 2.43983e-11)
(7.93472e-12 -5.53399e-11 3.12775e-11)
(6.56801e-12 -2.24846e-11 1.41572e-11)
(1.16702e-11 -3.33141e-11 9.65101e-12)
(2.46024e-12 -9.60625e-12 1.02204e-11)
(9.54324e-14 4.34803e-14 1.24756e-11)
(-2.9551e-12 9.37427e-14 8.59588e-12)
(-3.06058e-12 7.66778e-14 8.40436e-12)
(2.27617e-06 -1.67025e-06 -3.01057e-06)
(1.64975e-06 -1.08239e-06 -2.46836e-06)
(-1.7435e-08 -2.38783e-08 -2.32661e-09)
(8.01232e-08 3.0135e-08 -1.23157e-07)
(9.11361e-09 5.70442e-09 -5.81258e-08)
(1.30983e-07 -2.57999e-08 -2.51118e-07)
(4.30834e-09 -9.02125e-09 -2.87285e-09)
(1.96826e-06 -1.54892e-06 -1.28376e-06)
(1.38029e-06 -1.08824e-06 -7.65475e-07)
(1.33095e-06 -1.01216e-06 -1.04354e-06)
(4.66257e-08 3.49854e-09 -4.46523e-08)
(3.67648e-07 -4.01494e-08 -6.80942e-07)
(1.32486e-05 -1.13001e-05 -7.06222e-06)
(7.50926e-06 -6.11741e-06 -2.42336e-06)
(8.50944e-06 -6.83737e-06 -1.7885e-06)
(8.78595e-06 -7.15303e-06 -2.58945e-06)
(7.74825e-06 -6.59641e-06 -5.65109e-06)
(9.01291e-06 -7.69292e-06 -6.03863e-06)
(1.32498e-05 -1.06071e-05 -2.12231e-06)
(1.30563e-05 -1.05923e-05 -3.02656e-06)
(-2.19298e-12 9.52666e-15 2.46734e-11)
(-1.57881e-12 -1.10096e-12 2.56236e-11)
(6.0285e-13 -4.46765e-13 1.30946e-11)
(-2.91786e-12 6.78432e-14 8.65945e-12)
(-2.71918e-12 -5.73941e-14 8.97129e-12)
(2.305e-06 -1.62316e-06 -2.81961e-06)
(1.67444e-06 -1.03352e-06 -2.30826e-06)
(6.87871e-08 2.31445e-10 -7.96331e-08)
(2.57291e-09 1.68405e-08 -2.40585e-08)
(1.26297e-07 3.4186e-09 -2.03812e-07)
(1.98141e-06 -1.52157e-06 -1.03551e-06)
(1.39485e-06 -1.06053e-06 -4.22177e-07)
(1.33575e-06 -9.83368e-07 -8.36485e-07)
(6.167e-08 5.57853e-08 -8.59696e-08)
(3.83611e-07 1.71213e-08 -6.56853e-07)
(2.50915e-06 -1.88823e-06 -3.18643e-06)
(3.27914e-06 -2.60296e-06 -3.69907e-06)
(6.06815e-06 -4.88367e-06 -1.55088e-06)
(7.10191e-06 -5.78588e-06 -2.36621e-06)
(5.93539e-06 -4.83399e-06 -2.18641e-06)
(2.20503e-06 -1.7479e-06 -1.36045e-06)
(2.79832e-06 -2.24503e-06 -1.08806e-06)
(2.98765e-06 -2.40209e-06 -1.58435e-06)
(7.34465e-06 -6.24404e-06 -5.51669e-06)
(6.1903e-06 -5.22867e-06 -5.09771e-06)
(2.53947e-06 -1.84173e-06 -2.98591e-06)
(3.31432e-06 -2.55836e-06 -3.47167e-06)
(6.17404e-06 -4.86271e-06 -8.94578e-07)
(7.17009e-06 -5.76508e-06 -1.94053e-06)
(5.99383e-06 -4.81202e-06 -1.7895e-06)
(2.22179e-06 -1.72102e-06 -1.09908e-06)
(2.8458e-06 -2.22017e-06 -6.15291e-07)
(3.0142e-06 -2.37648e-06 -1.28581e-06)
(7.40246e-06 -6.20755e-06 -5.2019e-06)
(6.24228e-06 -5.19011e-06 -4.80229e-06)
(1.33301e-05 -1.12724e-05 -6.67877e-06)
(7.58105e-06 -6.09702e-06 -1.98842e-06)
(8.64763e-06 -6.81867e-06 -1.03871e-06)
(8.86698e-06 -7.1338e-06 -2.12815e-06)
(7.80799e-06 -6.56061e-06 -5.33017e-06)
(9.07837e-06 -7.65917e-06 -5.7002e-06)
(1.34353e-05 -1.0592e-05 -1.24254e-06)
(1.31637e-05 -1.05765e-05 -2.49634e-06)
(-5.95207e-12 -6.17286e-14 6.11257e-12)
(-9.70121e-13 -2.88554e-15 -1.43391e-12)
(-5.97633e-12 -5.42595e-15 6.04691e-12)
(-2.42077e-14 -5.82578e-14 1.229e-11)
(-3.09861e-12 3.38182e-14 8.26174e-12)
(-3.1345e-12 -1.64914e-14 8.2361e-12)
(-9.67394e-13 3.16433e-15 -1.41987e-12)
(-5.93111e-12 4.09421e-14 6.07403e-12)
(-5.97043e-12 -1.31296e-14 6.03962e-12)
(1.34052e-11 -3.79044e-11 7.49975e-12)
(4.24349e-11 -5.71923e-11 4.79036e-12)
(4.82807e-11 -1.36872e-10 2.04907e-12)
(1.99537e-11 -4.66072e-10 -2.7841e-11)
(1.41839e-10 -1.03053e-09 -5.97778e-11)
(7.81847e-11 -2.86407e-10 -6.26907e-12)
(5.98575e-11 -1.04362e-10 3.25438e-12)
(1.90379e-10 -7.93278e-10 -3.5997e-11)
(7.21344e-11 -2.31859e-10 -3.61082e-12)
(-3.1311e-12 -1.20419e-13 8.45653e-12)
(-5.95694e-12 -4.35982e-14 6.13023e-12)
(-9.29182e-13 -4.4778e-14 -1.28385e-12)
(-5.96806e-12 -9.41019e-14 6.22981e-12)
(-9.07572e-13 -5.3209e-14 -1.23385e-12)
(-5.9723e-12 -9.1464e-14 6.25729e-12)
(-2.40063e-12 -7.20874e-14 2.43536e-11)
(3.76257e-12 -2.65064e-11 2.92503e-11)
(4.89631e-12 -1.47141e-11 1.45044e-11)
(-1.4961e-12 -1.73673e-12 9.70226e-12)
(9.1674e-13 -6.35727e-12 1.01679e-11)
(7.60352e-12 -2.434e-11 8.03442e-12)
(2.63901e-12 -2.05652e-12 1.61922e-12)
(-1.08392e-12 -6.82566e-12 8.11148e-12)
(-4.57894e-12 -1.14547e-12 7.48175e-12)
(1.62985e-12 -1.26091e-12 1.07683e-12)
(-2.44711e-12 -4.43654e-12 8.01503e-12)
(-1.45547e-12 3.79106e-15 -2.77563e-12)
(-2.05984e-12 -1.32855e-14 -2.16485e-12)
(-1.43727e-12 -4.85571e-15 -2.77028e-12)
(-2.05837e-12 1.27262e-14 -2.15613e-12)
(-1.43984e-12 -4.60226e-15 -2.75481e-12)
(-1.44705e-12 4.69335e-15 -2.77884e-12)
(7.50536e-14 9.24694e-14 1.242e-11)
(-3.0945e-12 3.28255e-14 8.27354e-12)
(-3.07814e-12 7.99403e-14 8.3642e-12)
(-5.81215e-12 1.06357e-13 6.39642e-12)
(-8.78719e-13 5.30965e-14 -1.20512e-12)
(-5.90469e-12 6.96233e-14 6.20064e-12)
(-5.92504e-12 2.35534e-14 6.08883e-12)
(-9.2471e-13 4.71671e-14 -1.31312e-12)
(-5.91915e-12 7.94876e-14 6.16746e-12)
(-1.39305e-12 -3.10766e-17 -2.6784e-12)
(-1.98377e-12 5.11796e-14 -1.97405e-12)
(-1.42034e-12 7.26176e-15 -2.73674e-12)
(-1.45439e-12 6.2785e-15 -2.76925e-12)
(-2.02212e-12 2.40896e-14 -2.06428e-12)
(-1.41453e-12 -2.63441e-15 -2.73143e-12)
(2.22579e-06 -1.64539e-06 -2.81648e-06)
(1.47844e-06 -1.03403e-06 -1.8447e-06)
(1.59811e-06 -1.06261e-06 -2.30627e-06)
(9.82743e-07 -4.70483e-07 -1.71154e-06)
(1.46522e-06 -9.09927e-07 -2.28283e-06)
(1.29241e-06 -8.67712e-07 -1.70175e-06)
(9.29863e-07 -4.56955e-07 -1.59161e-06)
(1.4132e-06 -8.91723e-07 -2.13137e-06)
(-5.61284e-13 -3.36583e-14 -1.58404e-12)
(2.43403e-11 -2.84506e-11 3.46934e-12)
(1.88492e-13 -4.62049e-13 -1.11118e-12)
(3.61763e-11 -5.30607e-11 2.91411e-12)
(6.43558e-12 -7.38399e-12 -2.76589e-13)
(4.74402e-13 -8.70579e-13 -1.2211e-12)
(-7.68831e-09 -9.2457e-09 3.88388e-09)
(2.56751e-10 -1.88829e-09 -1.08159e-10)
(-5.34113e-10 -7.6648e-09 -1.63438e-09)
(2.1031e-07 -1.23517e-07 -2.67089e-07)
(5.25679e-07 -3.3605e-07 -6.15593e-07)
(2.05431e-07 -7.83841e-08 -3.40254e-07)
(1.41954e-08 -5.08203e-09 -7.51014e-08)
(1.99313e-07 -2.45644e-08 -4.20851e-07)
(2.57921e-09 -2.25275e-08 -4.65761e-09)
(1.40924e-07 -2.64733e-08 -2.88568e-07)
(6.86564e-09 -3.38575e-09 -1.07174e-09)
(5.47469e-07 -3.34172e-07 -7.04421e-07)
(2.91548e-07 -7.47889e-08 -5.62034e-07)
(2.22033e-07 -7.83184e-08 -3.93233e-07)
(3.13555e-10 -1.77971e-09 -1.02617e-10)
(2.26869e-09 -4.88714e-09 1.55292e-10)
(1.06044e-09 -5.06844e-09 -1.37901e-09)
(1.99052e-06 -1.55874e-06 -1.46439e-06)
(1.441e-06 -1.02331e-06 -1.64305e-06)
(1.35403e-06 -1.01587e-06 -1.19115e-06)
(1.00701e-06 -7.81969e-07 -6.49149e-07)
(6.6022e-07 -4.47853e-07 -7.04156e-07)
(1.14401e-06 -8.54257e-07 -9.61279e-07)
(1.25437e-06 -8.58699e-07 -1.51473e-06)
(6.82853e-07 -4.46306e-07 -8.05196e-07)
(1.16699e-06 -8.56244e-07 -1.09705e-06)
(8.44316e-07 -3.52077e-07 -1.51581e-06)
(4.7928e-07 -9.0789e-08 -9.0043e-07)
(3.14599e-08 9.17509e-09 -6.30477e-08)
(2.28385e-07 -3.34874e-08 -4.81642e-07)
(2.40132e-09 -1.88978e-08 -2.98707e-09)
(3.20886e-07 -3.77545e-08 -6.21963e-07)
(4.69185e-10 -5.01053e-10 4.91401e-11)
(7.91401e-07 -3.40268e-07 -1.40642e-06)
(3.22898e-07 -8.08426e-08 -6.37922e-07)
(4.28999e-07 -8.52909e-08 -8.2486e-07)
(1.3048e-11 -1.64152e-11 3.73151e-13)
(1.99334e-09 -3.77658e-09 1.32746e-10)
(1.45871e-10 -3.32126e-10 3.42063e-13)
(1.12891e-05 -9.64211e-06 -6.63275e-06)
(1.27479e-05 -1.0878e-05 -6.95862e-06)
(1.31359e-05 -1.09834e-05 -5.32447e-06)
(1.32117e-05 -1.12129e-05 -6.61327e-06)
(1.12503e-05 -9.56296e-06 -6.21112e-06)
(1.26334e-05 -1.05689e-05 -5.24633e-06)
(1.27106e-05 -1.07927e-05 -6.51626e-06)
(7.52685e-06 -6.16813e-06 -2.7665e-06)
(8.86642e-06 -7.38058e-06 -4.06996e-06)
(8.8026e-06 -7.21039e-06 -2.95614e-06)
(9.39425e-06 -7.54308e-06 -1.86138e-06)
(1.06065e-05 -8.6234e-06 -2.79478e-06)
(9.22854e-06 -7.51126e-06 -2.64212e-06)
(9.30801e-06 -7.74773e-06 -4.15372e-06)
(1.06222e-05 -8.68922e-06 -3.19105e-06)
(9.2451e-06 -7.57083e-06 -3.0167e-06)
(1.08179e-05 -9.24082e-06 -6.51906e-06)
(9.4518e-06 -8.07101e-06 -6.16261e-06)
(7.70563e-06 -6.53464e-06 -5.29187e-06)
(8.88356e-06 -7.44887e-06 -4.55242e-06)
(8.97171e-06 -7.62445e-06 -5.65478e-06)
(1.07786e-05 -9.16375e-06 -6.10465e-06)
(9.3243e-06 -7.81843e-06 -4.64594e-06)
(9.41107e-06 -8.00035e-06 -5.77087e-06)
(1.31262e-05 -1.08948e-05 -4.76156e-06)
(1.30708e-05 -1.0668e-05 -3.45653e-06)
(1.22414e-05 -9.80717e-06 -2.06159e-06)
(1.10814e-05 -9.00597e-06 -2.84306e-06)
(1.2552e-05 -1.01877e-05 -2.98258e-06)
(1.26229e-05 -1.04823e-05 -4.69155e-06)
(1.1097e-05 -9.07386e-06 -3.24657e-06)
(1.25666e-05 -1.02614e-05 -3.40594e-06)
(-1.44451e-12 -6.67969e-15 -2.76595e-12)
(-2.03626e-12 -2.23834e-14 -2.05722e-12)
(-1.42666e-12 2.42047e-15 -2.75457e-12)
(-2.00865e-12 -5.06636e-14 -1.99585e-12)
(-1.41577e-12 -7.10426e-15 -2.7449e-12)
(-2.28535e-12 5.20386e-14 2.45111e-11)
(-1.06176e-12 -2.65106e-12 2.61694e-11)
(7.50998e-13 -8.74903e-13 1.32144e-11)
(-1.90111e-12 -1.08016e-12 9.54854e-12)
(-2.60991e-12 -1.84817e-13 9.07474e-12)
(-5.7802e-12 7.39485e-14 6.4586e-12)
(-6.28544e-13 7.64255e-14 -7.14298e-13)
(-5.63195e-12 1.44485e-14 6.7442e-12)
(-4.92719e-12 -6.70168e-13 7.32973e-12)
(-4.8911e-13 6.57148e-14 -4.72469e-13)
(-5.54136e-12 -7.60132e-14 6.84451e-12)
(-7.40084e-13 -6.43847e-15 -1.77404e-12)
(2.1667e-13 -7.63633e-13 4.7303e-13)
(-1.03677e-12 9.5201e-15 -2.18286e-12)
(-4.01556e-13 -4.44487e-13 -1.35994e-14)
(-1.19744e-12 2.2237e-14 -2.40239e-12)
(-1.0196e-12 3.21966e-15 -2.16753e-12)
(-1.39356e-12 1.11744e-14 -2.67946e-12)
(-1.80867e-12 7.00276e-14 -1.56967e-12)
(-1.32079e-12 3.04713e-16 -2.59153e-12)
(-1.70038e-12 9.43763e-14 -1.35242e-12)
(-1.24082e-12 1.18888e-14 -2.44712e-12)
(-1.33851e-12 1.04084e-14 -2.60747e-12)
(2.25377e-06 -1.59226e-06 -2.58586e-06)
(1.48963e-06 -9.78902e-07 -1.61954e-06)
(1.62051e-06 -1.00731e-06 -2.11311e-06)
(1.00215e-06 -4.19143e-07 -1.599e-06)
(1.48861e-06 -8.60476e-07 -2.13384e-06)
(1.30138e-06 -8.11727e-07 -1.49253e-06)
(9.45777e-07 -3.98396e-07 -1.45647e-06)
(1.43389e-06 -8.35676e-07 -1.95172e-06)
(2.08807e-07 -9.02512e-08 -1.41131e-07)
(5.21729e-07 -3.04176e-07 -4.88946e-07)
(2.02491e-07 -4.64843e-08 -2.72578e-07)
(5.14666e-09 1.98372e-08 -2.90089e-08)
(2.02619e-07 2.22611e-08 -3.82304e-07)
(1.41489e-07 8.1969e-09 -2.45395e-07)
(5.44216e-07 -2.98508e-07 -5.80768e-07)
(2.91659e-07 -3.00859e-08 -5.0694e-07)
(2.204e-07 -4.16444e-08 -3.2757e-07)
(2.00304e-06 -1.52806e-06 -1.22245e-06)
(1.44774e-06 -9.85217e-07 -1.46676e-06)
(1.35848e-06 -9.83595e-07 -9.89215e-07)
(1.01285e-06 -7.53184e-07 -3.53689e-07)
(6.57196e-07 -4.1648e-07 -5.59295e-07)
(1.14598e-06 -8.24916e-07 -7.68997e-07)
(1.25934e-06 -8.19972e-07 -1.35089e-06)
(6.80205e-07 -4.11291e-07 -6.63911e-07)
(1.16909e-06 -8.23378e-07 -9.09408e-07)
(8.62276e-07 -2.99992e-07 -1.41671e-06)
(4.94765e-07 -3.63203e-08 -8.53566e-07)
(4.77623e-08 5.26199e-08 -7.55521e-08)
(2.31013e-07 3.47721e-08 -4.3058e-07)
(3.34878e-07 2.9093e-08 -5.88495e-07)
(8.05785e-07 -2.80635e-07 -1.28768e-06)
(3.24784e-07 -1.73803e-08 -5.67807e-07)
(4.41918e-07 -2.2391e-08 -7.68166e-07)
(2.45921e-06 -1.86153e-06 -2.98172e-06)
(3.12029e-06 -2.50163e-06 -2.78451e-06)
(3.23053e-06 -2.57034e-06 -3.46288e-06)
(4.46581e-06 -3.68657e-06 -4.34681e-06)
(3.559e-06 -2.86042e-06 -3.86488e-06)
(3.40198e-06 -2.75049e-06 -2.91028e-06)
(4.41901e-06 -3.64531e-06 -4.07014e-06)
(3.51084e-06 -2.82571e-06 -3.61839e-06)
(5.33036e-06 -4.29091e-06 -1.46519e-06)
(4.51881e-06 -3.67088e-06 -1.93077e-06)
(5.56625e-06 -4.53159e-06 -2.12466e-06)
(7.1196e-06 -5.83426e-06 -2.70079e-06)
(6.0247e-06 -4.99611e-06 -3.43408e-06)
(5.95404e-06 -4.87536e-06 -2.49555e-06)
(4.53858e-06 -3.70251e-06 -2.20336e-06)
(5.65661e-06 -4.68388e-06 -3.33608e-06)
(5.585e-06 -4.57051e-06 -2.42459e-06)
(2.22718e-06 -1.76001e-06 -1.55228e-06)
(3.08874e-06 -2.47488e-06 -2.48615e-06)
(3.00872e-06 -2.42133e-06 -1.8073e-06)
(3.36553e-06 -2.70521e-06 -1.18771e-06)
(4.19087e-06 -3.40016e-06 -1.86428e-06)
(3.27145e-06 -2.63845e-06 -1.65578e-06)
(3.37136e-06 -2.72114e-06 -2.59889e-06)
(4.21075e-06 -3.42928e-06 -2.12701e-06)
(3.29239e-06 -2.66018e-06 -1.88927e-06)
(4.78989e-06 -3.97905e-06 -4.50224e-06)
(5.82496e-06 -4.90472e-06 -4.95279e-06)
(7.30156e-06 -6.18454e-06 -5.166e-06)
(6.04801e-06 -5.0467e-06 -3.84249e-06)
(6.1458e-06 -5.17603e-06 -4.7736e-06)
(4.74354e-06 -3.93555e-06 -4.21578e-06)
(5.68082e-06 -4.73184e-06 -3.73307e-06)
(5.78e-06 -4.85437e-06 -4.63786e-06)
(2.48922e-06 -1.80911e-06 -2.7395e-06)
(3.15139e-06 -2.45195e-06 -2.46248e-06)
(3.2671e-06 -2.52013e-06 -3.18806e-06)
(4.50818e-06 -3.6446e-06 -4.08713e-06)
(3.59591e-06 -2.81646e-06 -3.62906e-06)
(3.43632e-06 -2.70158e-06 -2.57602e-06)
(4.46513e-06 -3.59812e-06 -3.75608e-06)
(3.54973e-06 -2.77624e-06 -3.33334e-06)
(5.42489e-06 -4.26918e-06 -8.42745e-07)
(4.56336e-06 -3.64732e-06 -1.57527e-06)
(5.6209e-06 -4.5092e-06 -1.73785e-06)
(7.18453e-06 -5.81089e-06 -2.28866e-06)
(6.07193e-06 -4.9667e-06 -3.10293e-06)
(6.00936e-06 -4.85066e-06 -2.11095e-06)
(4.58058e-06 -3.67602e-06 -1.85837e-06)
(5.70115e-06 -4.65395e-06 -3.0129e-06)
(5.63695e-06 -4.54536e-06 -2.04958e-06)
(2.2428e-06 -1.72983e-06 -1.29773e-06)
(3.11169e-06 -2.44069e-06 -2.23389e-06)
(3.03388e-06 -2.39256e-06 -1.51689e-06)
(3.42484e-06 -2.68116e-06 -6.75293e-07)
(4.23151e-06 -3.37617e-06 -1.51976e-06)
(3.30188e-06 -2.61327e-06 -1.3453e-06)
(3.39694e-06 -2.68748e-06 -2.337e-06)
(4.24931e-06 -3.40233e-06 -1.79247e-06)
(3.32095e-06 -2.63188e-06 -1.58744e-06)
(4.83415e-06 -3.93776e-06 -4.23504e-06)
(5.87499e-06 -4.86547e-06 -4.66415e-06)
(7.36775e-06 -6.14358e-06 -4.7847e-06)
(6.10914e-06 -5.00394e-06 -3.42057e-06)
(6.20446e-06 -5.13272e-06 -4.41597e-06)
(4.79215e-06 -3.88913e-06 -3.89256e-06)
(5.7386e-06 -4.68831e-06 -3.32123e-06)
(5.83613e-06 -4.81028e-06 -4.28851e-06)
(1.13637e-05 -9.61175e-06 -6.26797e-06)
(1.28277e-05 -1.08496e-05 -6.57965e-06)
(1.32462e-05 -1.09528e-05 -4.77034e-06)
(1.33082e-05 -1.11819e-05 -6.1478e-06)
(1.1338e-05 -9.52896e-06 -5.76857e-06)
(1.27409e-05 -1.05376e-05 -4.69898e-06)
(1.28049e-05 -1.0761e-05 -6.05629e-06)
(7.595e-06 -6.14521e-06 -2.34556e-06)
(8.93187e-06 -7.35488e-06 -3.68784e-06)
(8.8799e-06 -7.1888e-06 -2.51001e-06)
(9.54258e-06 -7.52512e-06 -1.08306e-06)
(1.06997e-05 -8.60573e-06 -2.30099e-06)
(9.31299e-06 -7.49244e-06 -2.17235e-06)
(9.37595e-06 -7.72256e-06 -3.76498e-06)
(1.07111e-05 -8.66938e-06 -2.71394e-06)
(9.32545e-06 -7.54969e-06 -2.56254e-06)
(1.08907e-05 -9.20979e-06 -6.15927e-06)
(9.51912e-06 -8.03794e-06 -5.81863e-06)
(7.7743e-06 -6.49446e-06 -4.90306e-06)
(8.96744e-06 -7.41151e-06 -4.06626e-06)
(9.04772e-06 -7.58661e-06 -5.24453e-06)
(1.0864e-05 -9.12899e-06 -5.66823e-06)
(9.41128e-06 -7.78184e-06 -4.15143e-06)
(9.48947e-06 -7.96328e-06 -5.35383e-06)
(1.32127e-05 -1.08737e-05 -4.32541e-06)
(1.31734e-05 -1.06503e-05 -2.94476e-06)
(1.24181e-05 -9.79142e-06 -1.20532e-06)
(1.11778e-05 -8.9887e-06 -2.34156e-06)
(1.26564e-05 -1.01715e-05 -2.45931e-06)
(1.27072e-05 -1.04608e-05 -4.2608e-06)
(1.11888e-05 -9.05446e-06 -2.76217e-06)
(1.26665e-05 -1.02433e-05 -2.90075e-06)
(2.41927e-06 -1.83046e-06 -3.51723e-06)
(2.19944e-06 -1.62171e-06 -3.31158e-06)
(1.19368e-07 -3.93829e-08 -1.48543e-07)
(2.66295e-07 -5.49239e-08 -3.92128e-07)
(7.86824e-06 -6.81291e-06 -6.58207e-06)
(8.27948e-06 -7.17616e-06 -6.73533e-06)
(2.45203e-06 -1.80524e-06 -3.43025e-06)
(2.23218e-06 -1.59619e-06 -3.22911e-06)
(1.30171e-07 7.5389e-09 -1.4709e-07)
(2.89794e-07 -2.14557e-08 -4.02892e-07)
(2.65109e-06 -2.05017e-06 -3.72038e-06)
(2.89479e-06 -2.28048e-06 -3.92095e-06)
(7.46609e-06 -6.45634e-06 -6.42578e-06)
(7.07323e-06 -6.10664e-06 -6.26643e-06)
(2.6839e-06 -2.02524e-06 -3.62903e-06)
(2.9277e-06 -2.25586e-06 -3.82537e-06)
(7.50421e-06 -6.43661e-06 -6.28233e-06)
(7.11083e-06 -6.08655e-06 -6.12582e-06)
(7.90687e-06 -6.79353e-06 -6.43586e-06)
(8.31864e-06 -7.15713e-06 -6.58643e-06)
(-4.62764e-12 -4.91327e-14 -8.89456e-12)
(-9.40057e-13 -2.69884e-14 -1.41801e-12)
(-4.65965e-12 -5.89793e-14 -9.09104e-12)
(-9.36373e-13 2.32199e-14 -1.42467e-12)
(-4.61549e-12 4.57945e-14 -8.9055e-12)
(-4.65144e-12 4.83582e-14 -9.09707e-12)
(1.35403e-11 -2.42036e-11 -4.78674e-12)
(1.89113e-11 -2.16504e-11 3.95562e-12)
(2.1798e-11 -3.71386e-11 -4.44788e-12)
(1.29763e-10 -3.24977e-10 -3.25832e-12)
(2.8069e-10 -6.46253e-10 1.88124e-11)
(1.60057e-10 -5.04473e-10 -1.85068e-11)
(-4.62988e-12 -1.4302e-14 -8.90718e-12)
(-9.21903e-13 -2.9665e-14 -1.36666e-12)
(-4.65162e-12 -1.69201e-14 -9.06169e-12)
(8.09511e-12 -1.49407e-11 -5.03894e-12)
(5.88999e-12 -5.25955e-12 2.57583e-12)
(4.285e-12 -9.61404e-12 -5.62582e-12)
(-3.22864e-12 -5.63026e-13 -7.32459e-12)
(5.29921e-13 -4.09648e-13 4.12488e-13)
(-2.84784e-12 -9.54551e-13 -7.29681e-12)
(-3.10769e-12 5.30392e-15 -4.42986e-12)
(-2.0016e-12 -6.75919e-15 -2.09498e-12)
(-3.03015e-12 2.75723e-15 -4.31667e-12)
(-1.99741e-12 7.36143e-15 -2.099e-12)
(-3.08785e-12 -4.00336e-15 -4.40414e-12)
(-3.02643e-12 8.8707e-16 -4.31746e-12)
(-4.47113e-12 1.06571e-13 -8.55746e-12)
(-8.09261e-13 7.98646e-14 -1.11292e-12)
(-4.52544e-12 1.12871e-13 -8.79156e-12)
(-4.6018e-12 1.05867e-14 -8.86881e-12)
(-9.23545e-13 2.30521e-14 -1.39192e-12)
(-4.62945e-12 6.84031e-15 -9.04005e-12)
(-3.0086e-12 2.75934e-14 -4.20238e-12)
(-1.89328e-12 5.27967e-14 -1.8353e-12)
(-2.94989e-12 2.97732e-14 -4.12268e-12)
(-3.0836e-12 2.71601e-14 -4.38584e-12)
(-1.98657e-12 2.95113e-14 -2.07017e-12)
(-3.01202e-12 2.43672e-14 -4.28578e-12)
(2.14619e-06 -1.6161e-06 -2.4625e-06)
(1.88729e-06 -1.40116e-06 -2.124e-06)
(2.09533e-06 -1.63432e-06 -2.37209e-06)
(1.87427e-06 -1.43555e-06 -2.23024e-06)
(1.92406e-06 -1.41425e-06 -2.31467e-06)
(1.13205e-06 -6.18583e-07 -2.03242e-06)
(1.28069e-06 -7.54371e-07 -2.25038e-06)
(8.02687e-07 -4.85567e-07 -1.32636e-06)
(9.57071e-07 -5.72194e-07 -1.4092e-06)
(8.46378e-07 -4.49021e-07 -1.37851e-06)
(9.51048e-07 -6.12415e-07 -1.48355e-06)
(9.9593e-07 -5.77911e-07 -1.54056e-06)
(1.15111e-12 -2.0388e-12 -8.84927e-13)
(9.92502e-12 -1.01352e-11 2.79711e-12)
(2.96834e-12 -3.54085e-12 -4.97861e-13)
(8.77671e-11 -1.78072e-10 -7.52667e-13)
(9.15334e-11 -1.2608e-10 7.16362e-13)
(4.71e-11 -7.42113e-11 -1.13827e-12)
(5.42292e-08 -1.03543e-08 -1.74997e-07)
(8.7332e-09 1.04012e-08 -4.20349e-08)
(5.85265e-08 3.58522e-08 -1.41623e-07)
(1.19106e-08 -3.66692e-09 -5.87516e-08)
(6.81516e-08 -1.59614e-08 -1.77562e-07)
(4.92534e-08 3.52744e-08 -1.2445e-07)
(8.99e-09 -1.30392e-08 -6.00602e-08)
(4.7908e-07 -2.7396e-07 -8.45621e-07)
(6.32309e-07 -3.68525e-07 -1.07006e-06)
(6.00195e-07 -3.27674e-07 -8.84135e-07)
(5.06499e-07 -2.26219e-07 -8.43891e-07)
(6.02173e-07 -3.71474e-07 -9.84704e-07)
(5.08116e-07 -2.70645e-07 -9.19539e-07)
(4.76362e-07 -2.286e-07 -7.58771e-07)
(3.18823e-10 -1.65194e-09 -7.75872e-11)
(6.98363e-10 -1.45082e-09 5.78233e-11)
(7.08759e-10 -1.7173e-09 1.13542e-10)
(1.81105e-06 -1.41703e-06 -1.89592e-06)
(2.04403e-06 -1.57519e-06 -1.82413e-06)
(1.85133e-06 -1.38645e-06 -1.89372e-06)
(2.06331e-06 -1.62002e-06 -2.18503e-06)
(1.84176e-06 -1.42311e-06 -2.05396e-06)
(1.82007e-06 -1.3796e-06 -1.71304e-06)
(2.0328e-06 -1.61189e-06 -2.01706e-06)
(8.86008e-07 -6.08692e-07 -1.25684e-06)
(7.68772e-07 -4.80851e-07 -1.21801e-06)
(9.1834e-07 -5.65815e-07 -1.25218e-06)
(7.37056e-07 -4.40652e-07 -1.00811e-06)
(9.16973e-07 -6.06946e-07 -1.36338e-06)
(7.38166e-07 -4.83513e-07 -1.1223e-06)
(8.8613e-07 -5.66998e-07 -1.13004e-06)
(9.94089e-07 -4.95997e-07 -1.81262e-06)
(8.65821e-07 -3.86754e-07 -1.59079e-06)
(2.22844e-08 1.38419e-08 -5.81996e-08)
(7.07126e-08 3.16755e-08 -1.64391e-07)
(1.68864e-08 -6.05998e-09 -5.39734e-08)
(9.56089e-08 -7.13999e-08 -2.14193e-07)
(8.10712e-08 6.4394e-09 -1.89401e-07)
(1.20373e-08 -7.15456e-09 -2.60403e-08)
(6.6593e-07 -3.72953e-07 -1.16669e-06)
(7.08294e-07 -3.34616e-07 -1.21426e-06)
(5.43501e-07 -2.31233e-07 -9.53536e-07)
(5.40723e-07 -2.74897e-07 -1.00374e-06)
(5.81e-07 -2.35146e-07 -1.04688e-06)
(1.43736e-10 -3.16163e-10 -9.05836e-12)
(5.29539e-10 -9.90633e-10 1.96336e-11)
(3.26629e-10 -5.29006e-10 6.30307e-12)
(1.13974e-05 -9.89166e-06 -7.72364e-06)
(1.18748e-05 -1.03023e-05 -7.85288e-06)
(1.11086e-05 -9.36201e-06 -5.2043e-06)
(1.11899e-05 -9.42707e-06 -5.43869e-06)
(1.16497e-05 -9.75528e-06 -5.08438e-06)
(1.15877e-05 -9.75978e-06 -5.29065e-06)
(1.167e-05 -9.82782e-06 -5.52979e-06)
(7.92996e-06 -6.63819e-06 -3.86438e-06)
(7.57014e-06 -6.26704e-06 -3.4476e-06)
(7.54349e-06 -6.34111e-06 -4.09365e-06)
(8.00902e-06 -6.66538e-06 -3.89716e-06)
(7.95673e-06 -6.68817e-06 -4.18819e-06)
(7.51651e-06 -6.29337e-06 -3.77729e-06)
(7.98599e-06 -6.61241e-06 -3.5282e-06)
(1.01276e-05 -8.4591e-06 -4.27369e-06)
(1.06174e-05 -8.9044e-06 -4.71585e-06)
(1.02161e-05 -8.50039e-06 -4.31601e-06)
(1.06616e-05 -8.81913e-06 -3.97829e-06)
(1.01533e-05 -8.51983e-06 -4.63257e-06)
(1.05919e-05 -8.84161e-06 -4.35038e-06)
(1.01951e-05 -8.43608e-06 -3.90721e-06)
(1.09276e-05 -9.48636e-06 -7.59143e-06)
(1.04656e-05 -9.08659e-06 -7.45625e-06)
(7.63902e-06 -6.43199e-06 -4.63403e-06)
(7.56676e-06 -6.39234e-06 -4.44096e-06)
(8.0279e-06 -6.72876e-06 -4.3595e-06)
(7.9795e-06 -6.74151e-06 -4.54352e-06)
(8.05296e-06 -6.78446e-06 -4.74207e-06)
(1.06372e-05 -8.96981e-06 -5.11595e-06)
(1.07174e-05 -9.03182e-06 -5.3455e-06)
(1.02307e-05 -8.5758e-06 -4.82711e-06)
(1.01736e-05 -8.58331e-06 -5.0256e-06)
(1.02527e-05 -8.64225e-06 -5.25023e-06)
(1.15438e-05 -9.62378e-06 -4.49869e-06)
(1.10893e-05 -9.2947e-06 -4.79728e-06)
(1.16376e-05 -9.67309e-06 -4.54646e-06)
(1.11359e-05 -9.20794e-06 -4.04779e-06)
(1.15689e-05 -9.69059e-06 -4.87688e-06)
(1.1064e-05 -9.22988e-06 -4.42538e-06)
(1.16178e-05 -9.60238e-06 -4.11575e-06)
(-3.09148e-12 -2.74721e-14 -4.39491e-12)
(-1.99255e-12 -3.19931e-14 -2.05794e-12)
(-3.02839e-12 -2.29683e-14 -4.30001e-12)
(-4.41574e-12 6.53893e-14 -8.45655e-12)
(-7.35419e-13 7.31117e-14 -9.60502e-13)
(-4.41695e-12 5.09215e-14 -8.57382e-12)
(-3.58726e-12 -2.73052e-13 -7.54579e-12)
(-1.99429e-13 2.66668e-14 -1.22727e-13)
(-3.83573e-12 -9.10755e-14 -7.86556e-12)
(-9.34214e-14 -1.12424e-12 -1.496e-12)
(2.17353e-12 -2.19968e-12 1.39312e-12)
(-8.2895e-13 -6.18093e-13 -1.73824e-12)
(-1.02148e-12 -6.21491e-14 -5.2248e-13)
(-2.54692e-12 8.90377e-14 -3.27197e-12)
(-2.40631e-12 6.05058e-14 -3.11317e-12)
(-2.97016e-12 5.78718e-14 -4.10603e-12)
(-1.84554e-12 7.73162e-14 -1.71511e-12)
(-2.90519e-12 5.61665e-14 -4.01628e-12)
(-1.46868e-12 8.82183e-14 -1.00017e-12)
(-2.68772e-12 7.45311e-14 -3.53106e-12)
(-2.68148e-12 8.12631e-14 -3.51864e-12)
(2.16936e-06 -1.55771e-06 -2.17668e-06)
(1.90349e-06 -1.34764e-06 -1.8688e-06)
(2.12174e-06 -1.52554e-06 -1.79104e-06)
(1.94445e-06 -1.35503e-06 -2.04388e-06)
(1.89432e-06 -1.32514e-06 -1.67959e-06)
(1.16423e-06 -5.91701e-07 -1.98003e-06)
(1.3132e-06 -7.2767e-07 -2.19261e-06)
(7.94234e-07 -3.63804e-07 -9.85897e-07)
(9.62293e-07 -5.14317e-07 -1.23402e-06)
(8.53729e-07 -3.83907e-07 -1.212e-06)
(1.00494e-06 -5.13925e-07 -1.35456e-06)
(9.45834e-07 -4.92834e-07 -1.10387e-06)
(4.83932e-08 7.97356e-08 -1.31209e-07)
(1.15351e-08 2.71875e-08 -4.14259e-08)
(6.24132e-08 5.75707e-08 -1.46708e-07)
(1.9969e-08 5.36909e-08 -5.46911e-08)
(4.97604e-08 5.38347e-08 -1.28737e-07)
(6.11465e-08 8.74983e-08 -1.51636e-07)
(1.40827e-08 4.66686e-08 -4.69984e-08)
(4.64691e-07 -1.6216e-07 -5.81483e-07)
(6.21353e-07 -2.56182e-07 -7.76773e-07)
(5.98091e-07 -2.88517e-07 -7.74862e-07)
(5.06301e-07 -1.83441e-07 -7.52239e-07)
(4.73797e-07 -1.88505e-07 -6.65611e-07)
(5.89006e-07 -2.62319e-07 -6.75924e-07)
(4.9589e-07 -1.5584e-07 -6.69416e-07)
(1.82957e-06 -1.32075e-06 -1.32828e-06)
(2.05512e-06 -1.54126e-06 -1.61046e-06)
(1.86213e-06 -1.34954e-06 -1.69394e-06)
(2.08862e-06 -1.52231e-06 -1.61549e-06)
(1.82877e-06 -1.34513e-06 -1.51069e-06)
(1.8607e-06 -1.32389e-06 -1.51433e-06)
(2.05821e-06 -1.51711e-06 -1.41785e-06)
(8.77757e-07 -5.03787e-07 -8.65348e-07)
(7.5971e-07 -3.70827e-07 -8.84266e-07)
(9.20427e-07 -5.25663e-07 -1.11492e-06)
(7.35442e-07 -4.02271e-07 -8.83394e-07)
(8.85618e-07 -5.29416e-07 -9.90967e-07)
(9.10997e-07 -4.99066e-07 -9.91371e-07)
(7.26704e-07 -3.76396e-07 -7.70721e-07)
(1.02573e-06 -4.68986e-07 -1.76578e-06)
(8.96675e-07 -3.59689e-07 -1.54986e-06)
(3.0986e-08 4.50211e-08 -5.96961e-08)
(7.72719e-08 6.86354e-08 -1.62436e-07)
(2.38874e-08 6.17176e-08 -6.81827e-08)
(9.49823e-08 7.54885e-08 -1.80065e-07)
(7.46557e-08 9.28354e-08 -1.76164e-07)
(6.55192e-07 -2.48664e-07 -8.67406e-07)
(7.14255e-07 -2.68064e-07 -1.06806e-06)
(5.45256e-07 -1.70083e-07 -8.36751e-07)
(5.86005e-07 -1.67361e-07 -9.22868e-07)
(5.28618e-07 -1.48196e-07 -7.48819e-07)
(2.38038e-06 -1.82843e-06 -2.60805e-06)
(2.3284e-06 -1.84349e-06 -2.51154e-06)
(2.59153e-06 -2.03183e-06 -2.52669e-06)