/*--------------------------------*- C++ -*----------------------------------*\
| =========                 |                                                 |
| \\      /  F ield         | OpenFOAM: The Open Source CFD Toolbox           |
|  \\    /   O peration     | Version:  2012                                  |
|   \\  /    A nd           | Website:  www.openfoam.com                      |
|    \\/     M anipulation  |                                                 |
\*---------------------------------------------------------------------------*/
FoamFile
{
    version     2.0;
    format      ascii;
    class       volSymmTensorField;
    location    "0.104/solid";
    object      epsilon;
}
// * * * * * * * * * * * * * * * * * * * * * * * * * * * * * * * * * * * * * //

dimensions      [0 0 0 0 0 0 0];


internalField   nonuniform List<symmTensor> 
3125
(
(2.50519e-10 3.06159e-14 4.07837e-10 2.20052e-12 -2.31447e-11 5.28603e-09)
(1.14176e-10 2.92265e-09 4.36077e-09 -6.01728e-09 -1.18506e-08 8.12154e-09)
(2.83674e-10 3.28267e-12 2.56792e-10 2.95124e-12 -2.69111e-12 5.73152e-09)
(2.51559e-10 3.25085e-12 4.10148e-10 3.13009e-12 -7.62913e-13 5.29751e-09)
(2.83076e-10 1.31954e-12 2.54561e-10 3.32067e-12 -7.50012e-12 5.7119e-09)
(3.10711e-10 3.43021e-09 2.26034e-09 -6.37452e-09 -5.05254e-09 1.05593e-08)
(1.84293e-10 2.1534e-09 3.32518e-09 -4.09635e-09 -8.13848e-09 7.80825e-09)
(3.05275e-10 6.88916e-09 4.03184e-09 -1.21248e-08 -9.76598e-09 1.48022e-08)
(2.47672e-10 9.02137e-12 4.4037e-10 -1.25505e-11 8.65973e-12 5.41773e-09)
(1.08983e-07 1.47165e-07 5.72722e-07 1.97523e-06 5.22558e-07 -4.72512e-06)
(1.35979e-06 -1.18161e-07 8.96862e-07 2.44583e-06 -1.93478e-07 -6.12834e-06)
(9.87615e-07 -7.34625e-08 9.61225e-07 1.5389e-06 -9.76966e-08 -4.03734e-06)
(2.83457e-10 1.68009e-11 2.78093e-10 -2.5296e-11 -6.64857e-12 5.8417e-09)
(2.83505e-10 3.08949e-11 2.94732e-10 -5.37087e-11 -3.34513e-11 5.9187e-09)
(2.49063e-10 1.0362e-11 4.50066e-10 -1.53467e-11 -2.5478e-11 5.44923e-09)
(2.86109e-07 9.5696e-08 1.19397e-07 -8.59796e-07 4.75152e-07 1.05396e-06)
(6.66845e-07 -2.53203e-08 1.48086e-06 -5.69578e-07 -3.41778e-07 -1.38769e-07)
(1.03412e-06 -7.73134e-08 9.51346e-07 1.62514e-06 -1.05334e-07 -4.24956e-06)
(1.33645e-06 -1.09522e-07 8.94341e-07 2.32053e-06 -1.76884e-07 -5.87298e-06)
(3.88718e-07 -1.70422e-09 1.38987e-06 -2.0472e-07 -2.51234e-07 -3.79682e-07)
(6.07874e-07 -2.01402e-08 1.4941e-06 -5.10907e-07 -3.24824e-07 -1.66781e-07)
(3.74472e-07 -5.08969e-10 1.36479e-06 -1.718e-07 -2.42737e-07 -4.09421e-07)
(2.13985e-10 1.83358e-13 1.27298e-10 1.14112e-12 -3.90549e-12 -8.90488e-10)
(2.50566e-10 1.69237e-12 4.06864e-10 2.04834e-12 1.70246e-11 5.27247e-09)
(2.13397e-10 -6.14866e-14 1.24827e-10 9.81363e-13 3.8575e-12 -9.00056e-10)
(-3.50271e-10 7.17971e-10 1.35207e-09 -5.9805e-10 -7.97929e-10 9.64512e-10)
(1.28898e-08 1.00809e-08 1.52845e-08 -6.99309e-08 -1.55923e-07 3.42126e-08)
(-5.07519e-09 1.13664e-08 1.27143e-08 -2.77776e-08 -2.43974e-08 8.27175e-09)
(2.14704e-10 -8.56338e-13 1.29578e-10 8.72875e-13 -1.62738e-12 -8.85631e-10)
(2.82706e-10 2.36927e-12 2.54407e-10 1.81036e-12 4.8365e-12 5.70092e-09)
(2.8451e-10 4.58248e-10 5.9438e-10 -8.54825e-10 -6.48795e-10 6.78423e-09)
(2.05482e-10 2.16822e-10 8.00433e-10 -3.27319e-10 -6.4009e-10 6.01683e-09)
(-1.81332e-10 4.93571e-10 1.02905e-09 -4.01e-10 -5.0522e-10 6.43115e-10)
(1.84766e-10 4.16235e-11 2.70735e-10 -2.22367e-11 -1.10446e-11 -4.21034e-10)
(-1.26303e-10 1.62192e-12 -4.11998e-10 8.61176e-13 4.09659e-13 -4.43062e-10)
(-1.26297e-10 -1.69522e-12 -4.13615e-10 7.87741e-13 -1.18582e-12 -4.53469e-10)
(2.50991e-10 -1.28426e-12 4.08501e-10 1.8551e-12 -6.01405e-12 5.28117e-09)
(2.12494e-10 2.40679e-12 1.41116e-10 6.5009e-13 1.05434e-11 -8.16598e-10)
(2.13147e-10 3.73065e-13 1.25368e-10 1.03859e-12 4.65139e-14 -8.94749e-10)
(-1.28107e-10 7.90629e-14 -4.00962e-10 7.89718e-13 5.43799e-12 -3.7623e-10)
(-1.26405e-10 1.81113e-12 -4.1287e-10 7.66209e-13 4.17712e-12 -4.48369e-10)
(2.35044e-06 7.64072e-08 7.10235e-07 3.60044e-06 -1.11284e-07 -1.06381e-05)
(2.48159e-06 1.95176e-08 7.89841e-07 4.11476e-06 -5.54145e-08 -1.1929e-05)
(-5.58222e-10 4.18157e-10 4.62534e-10 -3.00983e-10 -4.15553e-10 1.3883e-09)
(-4.57648e-09 8.3731e-09 9.45135e-09 -1.68919e-08 -1.64101e-08 6.71847e-09)
(2.79777e-08 -2.58915e-09 1.59516e-08 -1.4048e-07 -2.60013e-07 1.77257e-08)
(1.19199e-06 -2.40918e-07 7.83645e-07 3.28962e-06 -1.90838e-07 -7.19529e-06)
(4.24667e-07 1.15198e-08 1.31559e-06 1.49648e-06 1.19763e-06 -7.74726e-06)
(2.40798e-06 1.78181e-08 9.0303e-07 3.70502e-06 -1.12758e-07 -1.05975e-05)
(-5.52174e-09 2.04109e-08 1.8396e-08 -2.81666e-08 -3.79756e-08 1.42737e-08)
(2.36859e-06 1.31006e-07 8.1242e-07 3.15644e-06 -1.69751e-07 -9.36701e-06)
(1.25935e-06 -1.47066e-07 9.12561e-07 2.93267e-06 -2.85444e-07 -6.9341e-06)
(2.46278e-06 5.3689e-08 8.71054e-07 3.62148e-06 -1.36525e-07 -1.04715e-05)
(2.34513e-07 5.07003e-08 1.86895e-06 1.92824e-06 6.08144e-07 -9.19092e-06)
(2.44646e-06 -8.7425e-09 8.39825e-07 4.19923e-06 -3.06742e-08 -1.20971e-05)
(-6.20903e-09 1.59022e-08 1.47843e-08 -2.11987e-08 -2.86997e-08 1.05691e-08)
(1.54157e-06 2.78351e-08 7.87307e-07 2.09891e-06 -4.02129e-08 -6.37887e-06)
(1.76436e-06 8.06336e-08 8.75077e-07 2.24476e-06 -1.07938e-07 -6.77695e-06)
(8.50909e-07 -6.24198e-08 9.83952e-07 1.294e-06 -7.60785e-08 -3.42786e-06)
(1.52764e-06 5.98336e-08 8.72572e-07 1.9025e-06 -8.25937e-08 -5.78703e-06)
(1.79976e-06 4.26962e-08 7.82226e-07 2.54773e-06 -6.45651e-08 -7.67042e-06)
(1.57379e-06 2.94891e-08 7.87496e-07 2.15325e-06 -4.31857e-08 -6.5363e-06)
(8.06641e-07 -5.88955e-08 9.88866e-07 1.21691e-06 -6.91843e-08 -3.23409e-06)
(1.49436e-06 5.71866e-08 8.71163e-07 1.85522e-06 -7.90636e-08 -5.64942e-06)
(-1.26229e-10 -2.49335e-12 -4.10133e-10 7.11659e-13 -6.50733e-12 -4.33919e-10)
(2.82777e-10 1.36335e-12 2.56515e-10 -1.16048e-13 -1.51108e-12 5.71799e-09)
(2.82663e-10 2.37429e-10 4.5047e-10 -4.33208e-10 -3.15136e-10 6.42012e-09)
(2.20054e-10 1.54657e-10 7.0263e-10 -2.4329e-10 -4.18049e-10 5.9093e-09)
(2.11769e-10 3.15316e-12 1.46417e-10 3.08217e-13 5.81648e-12 -7.9054e-10)
(1.93735e-10 3.06124e-11 2.37784e-10 -1.38095e-11 3.97431e-12 -5.03396e-10)
(-4.30549e-10 2.84449e-10 2.31355e-10 -1.97073e-10 -2.51101e-10 1.06336e-09)
(-1.54196e-10 2.57971e-11 -3.0202e-10 -9.42158e-12 1.0369e-11 3.10534e-11)
(-1.28777e-10 3.45388e-12 -3.95866e-10 6.77652e-13 9.91482e-12 -3.48218e-10)
(-1.46855e-10 1.70707e-11 -3.28654e-10 -5.34547e-12 1.15924e-11 -6.34876e-11)
(3.07189e-06 1.47019e-07 9.17466e-07 1.76565e-06 -2.30978e-07 -7.24874e-06)
(3.2014e-06 1.19386e-07 8.38961e-07 1.89899e-06 -1.83028e-07 -7.71524e-06)
(8.95486e-07 -1.14507e-07 1.09348e-06 -8.06389e-07 -5.79214e-07 1.10016e-07)
(3.75133e-07 1.40359e-07 1.11062e-06 6.7481e-07 1.67447e-06 -5.85924e-06)
(2.57441e-06 7.9827e-08 9.10823e-07 1.91155e-06 -2.12491e-07 -7.37493e-06)
(2.55048e-06 1.62732e-07 9.84843e-07 1.71758e-06 -2.59136e-07 -6.83772e-06)
(8.43449e-07 -6.85305e-08 1.28795e-06 -7.85973e-07 -4.54301e-07 4.86139e-09)
(2.64192e-06 1.06204e-07 9.02241e-07 1.86898e-06 -2.28468e-07 -7.34012e-06)
(5.2777e-07 2.5623e-07 1.41867e-06 1.15084e-06 1.60363e-06 -6.7949e-06)
(3.13326e-06 1.07407e-07 8.62866e-07 1.93967e-06 -1.65329e-07 -7.75224e-06)
(2.318e-06 7.62474e-08 7.15194e-07 3.53393e-06 -1.10614e-07 -1.04537e-05)
(2.08959e-06 6.32519e-08 7.54955e-07 3.08758e-06 -9.34344e-08 -9.20179e-06)
(1.17381e-06 -8.92779e-08 9.19049e-07 1.89938e-06 -1.30452e-07 -4.91344e-06)
(1.7987e-06 8.38935e-08 8.7427e-07 2.29518e-06 -1.11693e-07 -6.92191e-06)
(2.0436e-06 1.08368e-07 8.58446e-07 2.65803e-06 -1.38836e-07 -7.96025e-06)
(2.33365e-06 1.3085e-07 8.1721e-07 3.09819e-06 -1.67445e-07 -9.20595e-06)
(1.21923e-06 -9.35665e-08 9.09109e-07 1.99712e-06 -1.4002e-07 -5.14456e-06)
(2.07939e-06 1.11966e-07 8.54459e-07 2.71131e-06 -1.42772e-07 -8.11211e-06)
(1.83202e-06 4.47944e-08 7.80469e-07 2.60596e-06 -6.77358e-08 -7.8367e-06)
(2.05735e-06 6.08465e-08 7.59446e-07 3.02586e-06 -9.02815e-08 -9.02771e-06)
(3.02107e-06 1.46346e-07 9.35093e-07 1.75295e-06 -2.31909e-07 -7.16565e-06)
(2.64516e-06 1.3025e-07 1.00564e-06 1.65099e-06 -2.23019e-07 -6.53786e-06)
(4.48767e-07 -6.8019e-09 1.4563e-06 -3.17366e-07 -2.78204e-07 -2.84573e-07)
(1.87571e-06 1.12361e-07 1.04708e-06 1.42877e-06 -2.07426e-07 -5.36797e-06)
(2.1574e-06 1.39297e-07 1.06083e-06 1.56783e-06 -2.34413e-07 -6.02126e-06)
(2.50825e-06 1.62351e-07 9.99825e-07 1.70212e-06 -2.57809e-07 -6.75034e-06)
(4.77858e-07 -9.20616e-09 1.47369e-06 -3.6029e-07 -2.88116e-07 -2.53031e-07)
(2.19992e-06 1.43072e-07 1.05868e-06 1.58615e-06 -2.38024e-07 -6.11392e-06)
(2.24209e-06 1.04614e-07 9.94977e-07 1.50038e-06 -1.98619e-07 -5.77113e-06)
(2.59262e-06 1.27136e-07 1.00844e-06 1.63397e-06 -2.20453e-07 -6.44391e-06)
(1.82896e-06 7.74444e-08 9.33007e-07 1.3047e-06 -1.67106e-07 -4.88948e-06)
(1.83741e-06 1.08621e-07 1.04225e-06 1.40767e-06 -2.03479e-07 -5.27431e-06)
(3.40003e-07 2.36634e-09 1.28499e-06 -8.50717e-08 -2.17629e-07 -4.86214e-07)
(1.57929e-06 8.41878e-08 9.96836e-07 1.25467e-06 -1.75749e-07 -4.61965e-06)
(2.19432e-06 1.01409e-07 9.89801e-07 1.47967e-06 -1.9524e-07 -5.67363e-06)
(1.87317e-06 8.02339e-08 9.41166e-07 1.32731e-06 -1.70673e-07 -4.98766e-06)
(3.29732e-07 3.06397e-09 1.25722e-06 -5.99663e-08 -2.09332e-07 -5.06659e-07)
(1.54362e-06 8.09748e-08 9.8918e-07 1.23225e-06 -1.71768e-07 -4.52645e-06)
(-2.34107e-10 -5.3854e-13 -5.27394e-11 4.35933e-13 -7.79625e-12 4.07245e-09)
(2.48687e-10 2.29611e-12 4.08848e-10 3.18894e-13 9.70105e-12 5.28e-09)
(-2.34672e-10 9.09199e-13 -5.80073e-11 1.27843e-12 -1.69765e-12 4.05118e-09)
(-7.10093e-10 1.9028e-09 3.33602e-09 -2.98721e-09 -5.98068e-09 6.37536e-09)
(1.14829e-09 7.22305e-09 9.08078e-09 -1.68566e-08 -3.49391e-08 1.17294e-08)
(-1.10696e-09 5.40064e-09 8.73555e-09 -1.01001e-08 -1.93282e-08 8.16684e-09)
(2.83532e-10 2.47732e-12 2.59192e-10 3.53253e-12 -1.17617e-11 5.76137e-09)
(2.47719e-10 1.25442e-12 4.19588e-10 -4.77389e-13 -3.28091e-11 5.35614e-09)
(-2.34415e-10 1.65818e-12 -5.21447e-11 9.68342e-13 -7.43535e-12 4.08165e-09)
(-2.35127e-10 2.15099e-13 -4.97202e-11 8.65987e-13 -1.33558e-11 4.12302e-09)
(2.82053e-10 2.54273e-12 2.52941e-10 2.57021e-12 1.76338e-12 5.70052e-09)
(3.03371e-10 1.74712e-09 1.34763e-09 -3.27278e-09 -2.55818e-09 8.49532e-09)
(1.27906e-10 8.19491e-10 1.64773e-09 -1.38497e-09 -2.76888e-09 6.71894e-09)
(-6.21297e-10 1.36884e-09 2.42363e-09 -2.00071e-09 -4.06779e-09 6.01666e-09)
(-4.02901e-10 4.81987e-10 9.04229e-10 -6.46137e-10 -1.30574e-09 5.26372e-09)
(2.48096e-10 3.2447e-13 4.24499e-10 -4.16264e-12 -5.89589e-12 5.356e-09)
(-2.37689e-10 6.58273e-12 -3.06006e-11 -4.31949e-12 7.62127e-12 4.18529e-09)
(-2.35639e-10 1.30813e-12 -4.78923e-11 -6.2648e-13 8.0333e-12 4.11541e-09)
(2.38929e-06 -8.66022e-08 4.35301e-07 3.52241e-06 -5.88753e-08 -1.29728e-05)
(2.46024e-06 -9.24795e-08 3.83462e-07 3.65778e-06 -5.37006e-08 -1.35249e-05)
(6.94756e-07 4.2204e-07 -1.00976e-06 -1.51579e-06 -2.9189e-06 -2.7896e-06)
(9.96378e-08 -7.17149e-07 1.16488e-06 3.63105e-06 1.24127e-06 -6.33972e-06)
(2.86997e-07 1.62971e-07 7.0339e-07 1.48475e-06 -4.76603e-07 -5.296e-06)
(1.02111e-06 -2.43082e-07 9.31561e-07 2.4277e-06 -1.66104e-07 -7.06424e-06)
(2.30484e-07 1.48553e-07 5.89748e-08 -4.68164e-07 -1.30659e-06 -5.78316e-07)
(1.72068e-06 5.56085e-08 9.88804e-07 2.15651e-06 -2.84189e-07 -6.48992e-06)
(1.36394e-06 -1.28119e-07 9.04583e-07 2.58379e-06 -2.16854e-07 -6.3914e-06)
(1.77407e-06 4.01402e-08 9.94854e-07 2.30693e-06 -3.16885e-07 -6.86305e-06)
(1.08114e-06 1.55776e-07 3.80594e-06 1.8445e-06 -1.21119e-06 -1.43725e-05)
(2.69166e-06 -8.57004e-08 1.14041e-06 4.4574e-06 1.69904e-07 -1.54714e-05)
(1.63602e-06 -3.4201e-08 5.10441e-07 2.06136e-06 -1.14591e-08 -7.32223e-06)
(1.24736e-06 4.10523e-08 1.02264e-06 1.49455e-06 -1.72892e-07 -4.57983e-06)
(9.41529e-07 -6.97119e-08 9.70025e-07 1.45498e-06 -9.03137e-08 -3.82962e-06)
(1.16726e-06 3.66212e-08 1.02195e-06 1.39079e-06 -1.58829e-07 -4.27443e-06)
(1.99297e-06 -5.25182e-08 5.21456e-07 2.67357e-06 -3.41461e-08 -9.62312e-06)
(1.90797e-06 -4.75481e-08 5.2069e-07 2.51833e-06 -2.8384e-08 -9.03404e-06)
(7.2051e-07 -5.1895e-08 9.93807e-07 1.06976e-06 -5.58043e-08 -2.86161e-06)
(9.39603e-07 2.46954e-08 1.01118e-06 1.09834e-06 -1.15296e-07 -3.40085e-06)
(2.82499e-10 7.19353e-12 2.66926e-10 -1.11701e-11 -6.27811e-12 5.78728e-09)
(2.8248e-10 6.3609e-11 3.21856e-10 -1.09711e-10 -6.51614e-11 6.02965e-09)
(2.38493e-10 3.91489e-11 5.0864e-10 -6.05084e-11 -6.37483e-11 5.60425e-09)
(-2.39135e-10 6.67657e-12 -2.25929e-11 -6.57909e-12 2.23645e-12 4.21633e-09)
(-2.47317e-10 2.20831e-11 1.41196e-11 -2.18368e-11 -2.17847e-11 4.33875e-09)
(4.88282e-06 -7.07582e-08 4.73778e-07 3.68976e-06 -1.30698e-07 -1.11771e-05)
(5.09393e-06 -7.54214e-08 4.3816e-07 3.83436e-06 -1.18348e-07 -1.15559e-05)
(6.48902e-07 -2.08401e-07 6.19102e-07 -1.47188e-06 1.5917e-07 1.01981e-06)
(2.03911e-07 8.9788e-08 2.17449e-07 1.67874e-08 1.28421e-06 -1.78387e-06)
(8.60161e-07 -2.58024e-07 8.08642e-07 4.49242e-07 -2.47011e-07 -3.20769e-06)
(1.38838e-06 6.04412e-08 1.25776e-06 7.69369e-07 -3.72158e-07 -3.50986e-06)
(7.29841e-07 -3.32036e-08 1.44996e-06 -6.35079e-07 -3.62623e-07 -1.074e-07)
(1.46717e-06 4.75017e-08 1.21227e-06 7.75574e-07 -4.02397e-07 -3.6368e-06)
(1.65402e-06 3.54935e-07 3.85888e-06 4.11934e-06 5.76648e-07 -1.20747e-05)
(4.46392e-06 6.83824e-08 1.52011e-06 4.58619e-06 -6.72123e-08 -1.28477e-05)
(2.36828e-06 -8.44917e-08 4.49798e-07 3.47657e-06 -5.89784e-08 -1.27844e-05)
(2.3069e-06 -7.80225e-08 4.82936e-07 3.33492e-06 -5.68414e-08 -1.22067e-05)
(1.08082e-06 -8.12225e-08 9.40787e-07 1.71381e-06 -1.13265e-07 -4.46622e-06)
(1.27362e-06 4.26292e-08 1.01972e-06 1.52941e-06 -1.79026e-07 -4.68447e-06)
(1.35637e-06 4.71992e-08 1.01745e-06 1.63707e-06 -1.93824e-07 -5e-06)
(1.69682e-06 5.71641e-08 9.91816e-07 2.11139e-06 -2.73478e-07 -6.36623e-06)
(1.30275e-06 -1.03368e-07 8.95633e-07 2.20638e-06 -1.62558e-07 -5.62378e-06)
(1.61309e-06 5.85858e-08 9.93834e-07 1.98221e-06 -2.50613e-07 -6.00726e-06)
(2.02046e-06 -5.42784e-08 5.21321e-07 2.72547e-06 -3.60682e-08 -9.82097e-06)
(2.09998e-06 -5.97119e-08 5.19421e-07 2.88096e-06 -4.18384e-08 -1.04179e-05)
(4.80372e-06 -6.88165e-08 4.87309e-07 3.64007e-06 -1.33049e-07 -1.10434e-05)
(4.55408e-06 -6.28892e-08 5.2278e-07 3.48577e-06 -1.3635e-07 -1.06212e-05)
(4.05188e-07 -3.17692e-09 1.41369e-06 -2.39858e-07 -2.59936e-07 -3.48561e-07)
(9.81921e-07 5.01532e-08 1.24548e-06 6.93305e-07 -2.68203e-07 -2.79697e-06)
(1.04276e-06 5.46813e-08 1.26442e-06 7.1342e-07 -2.83669e-07 -2.92621e-06)
(1.35743e-06 6.18901e-08 1.26624e-06 7.66742e-07 -3.62135e-07 -3.46437e-06)
(5.5666e-07 -1.56232e-08 1.49469e-06 -4.56358e-07 -3.10991e-07 -1.94047e-07)
(1.26809e-06 6.39684e-08 1.28371e-06 7.58382e-07 -3.40257e-07 -3.3261e-06)
(3.54445e-06 -4.31001e-08 5.61613e-07 2.82726e-06 -1.21669e-07 -8.74891e-06)
(3.78993e-06 -4.73718e-08 5.63712e-07 2.99405e-06 -1.27437e-07 -9.23055e-06)
(2.55942e-06 -2.7876e-08 5.17742e-07 2.12247e-06 -9.28759e-08 -6.67347e-06)
(9.62e-07 4.85986e-08 1.23774e-06 6.85849e-07 -2.61889e-07 -2.75363e-06)
(3.61948e-07 5.79009e-10 1.3389e-06 -1.40944e-07 -2.34314e-07 -4.37303e-07)
(9.06043e-07 4.39439e-08 1.21398e-06 6.62928e-07 -2.46859e-07 -2.62437e-06)
(3.46406e-06 -4.17347e-08 5.59917e-07 2.7718e-06 -1.19635e-07 -8.58787e-06)
(3.22744e-06 -3.79663e-08 5.52521e-07 2.60628e-06 -1.13251e-07 -8.10495e-06)
(3.09707e-07 4.46988e-09 1.20057e-06 -1.52601e-08 -1.92746e-07 -5.38652e-07)
(7.48035e-07 3.10087e-08 1.12781e-06 5.84102e-07 -1.995e-07 -2.23066e-06)
(-2.46954e-10 -9.73136e-13 -4.05431e-10 -9.13517e-13 -7.75244e-12 2.82435e-09)
(2.1569e-10 7.07495e-13 1.27489e-10 1.91178e-12 3.87875e-12 -9.11248e-10)
(-2.46918e-10 1.71187e-12 -4.11537e-10 1.03594e-12 7.28163e-13 2.79721e-09)
(2.48453e-10 -9.51049e-13 4.08217e-10 -8.02122e-14 -1.59425e-11 5.27793e-09)
(-2.34018e-10 1.19969e-12 -5.43095e-11 7.01332e-13 4.49229e-12 4.05694e-09)
(-2.34397e-10 -1.71795e-13 -5.77808e-11 9.58143e-13 -1.77763e-12 4.04956e-09)
(2.15197e-10 -6.53143e-13 1.26847e-10 2.04342e-12 -3.77075e-12 -9.09177e-10)
(-2.46762e-10 1.72951e-12 -4.06739e-10 -5.60678e-13 5.62239e-12 2.80941e-09)
(-2.46786e-10 -7.79962e-13 -4.10966e-10 5.54261e-13 -2.68043e-12 2.79689e-09)
(-8.8226e-10 1.6377e-09 2.52708e-09 -2.17173e-09 -4.19229e-09 5.04262e-09)
(-1.41762e-09 2.26672e-09 3.25606e-09 -2.63063e-09 -3.1676e-09 2.19913e-09)
(-1.71675e-09 4.73064e-09 7.39586e-09 -8.01438e-09 -1.40906e-08 6.81334e-09)
(1.89169e-09 8.16178e-09 1.16195e-08 -2.86076e-08 -5.30674e-08 1.08901e-08)
(2.00396e-09 1.84327e-08 2.74194e-08 -6.39258e-08 -1.03428e-07 1.4112e-08)
(-7.76622e-10 7.27398e-09 1.174e-08 -1.4615e-08 -2.86544e-08 9.33126e-09)
(-2.04801e-09 3.49838e-09 4.49075e-09 -3.64583e-09 -4.89627e-09 2.92553e-09)
(-1.49358e-09 1.74557e-08 2.59826e-08 -5.87128e-08 -8.11982e-08 1.37418e-08)
(-1.93937e-09 6.67438e-09 1.03218e-08 -1.07164e-08 -2.0675e-08 8.17998e-09)
(-2.35588e-10 1.12013e-12 -4.81813e-11 1.37151e-12 -1.38566e-11 4.14044e-09)
(-2.47105e-10 2.29126e-12 -4.0529e-10 -2.69618e-13 -3.62063e-12 2.8314e-09)
(2.17286e-10 -9.86568e-13 1.38394e-10 1.94908e-12 -8.48891e-12 -8.60974e-10)
(-2.47469e-10 -2.93185e-13 -4.04032e-10 4.46071e-13 -1.18459e-11 2.86422e-09)
(2.17814e-10 1.98769e-14 1.41227e-10 2.01947e-12 -1.69591e-12 -8.50655e-10)
(-2.47748e-10 2.03165e-12 -4.03084e-10 1.05347e-12 -9.20499e-12 2.87868e-09)
(2.81916e-10 6.27103e-13 2.52858e-10 2.91622e-12 -4.98196e-12 5.6966e-09)
(2.88963e-10 8.92757e-10 8.56313e-10 -1.67706e-09 -1.28803e-09 7.39936e-09)
(1.74458e-10 5.84527e-10 1.32874e-09 -9.99052e-10 -1.90084e-09 6.51982e-09)
(-2.86994e-10 1.21613e-10 2.35508e-10 -1.46384e-10 -2.73198e-10 4.71143e-09)
(-3.60974e-10 3.43527e-10 6.52405e-10 -4.41587e-10 -8.89051e-10 5.09436e-09)
(-7.28479e-10 1.15969e-09 1.71891e-09 -1.48092e-09 -2.84078e-09 4.67346e-09)
(8.14657e-11 1.62432e-10 5.12948e-10 -1.09604e-10 -1.37033e-10 6.07476e-13)
(-4.39259e-10 4.00276e-10 4.03386e-10 -4.59279e-10 -8.91617e-10 3.92934e-09)
(-3.02704e-10 9.86105e-11 -1.63375e-10 -1.03009e-10 -1.79666e-10 3.41339e-09)
(1.23448e-10 1.14336e-10 4.25405e-10 -7.31987e-11 -7.94795e-11 -1.29013e-10)
(-3.87885e-10 2.83861e-10 1.90431e-10 -3.15216e-10 -6.01003e-10 3.77192e-09)
(-1.57262e-11 3.53564e-12 -7.05646e-10 4.06009e-13 2.06653e-12 -2.85559e-09)
(-1.27242e-10 -1.09689e-12 -4.15363e-10 1.40566e-12 -1.46029e-12 -4.55719e-10)
(-1.28093e-11 -3.41742e-12 -7.01412e-10 4.66404e-13 -2.28759e-12 -2.86233e-09)
(-1.27368e-10 9.42662e-13 -4.15657e-10 1.55257e-12 5.90015e-13 -4.55809e-10)
(-1.55175e-11 -4.43156e-12 -7.06603e-10 3.40504e-13 -2.70826e-12 -2.85658e-09)
(-1.43348e-11 2.81064e-12 -7.05882e-10 5.49758e-13 1.86787e-12 -2.87117e-09)
(2.46969e-10 2.39174e-12 4.20615e-10 -3.88718e-12 2.30151e-11 5.33651e-09)
(-2.34045e-10 -8.66844e-13 -5.33357e-11 3.69095e-13 3.98675e-12 4.06442e-09)
(-2.35274e-10 1.68057e-12 -5.11551e-11 -3.39938e-14 8.98017e-12 4.09773e-09)
(-2.50378e-10 5.65924e-12 -3.86636e-10 -3.81321e-12 1.01934e-11 2.92664e-09)
(2.1436e-10 9.79626e-14 1.33694e-10 1.94532e-12 1.11496e-12 -8.66708e-10)
(-2.48102e-10 4.06038e-14 -4.02233e-10 -3.82922e-13 5.80072e-12 2.8561e-09)
(-2.46883e-10 -1.45597e-12 -4.05846e-10 -7.76579e-13 1.47507e-12 2.81621e-09)
(2.14865e-10 1.31582e-12 1.31625e-10 1.89466e-12 8.76227e-12 -8.80993e-10)
(-2.47574e-10 1.98901e-12 -4.04875e-10 1.22892e-13 9.46963e-12 2.8396e-09)
(-1.52558e-11 -3.59853e-12 -6.96415e-10 4.24735e-13 -1.21723e-12 -2.81687e-09)
(-1.28229e-10 1.45046e-12 -4.09767e-10 1.62663e-12 5.03752e-12 -4.1717e-10)
(-1.46737e-11 3.01996e-12 -7.03235e-10 5.84536e-13 2.59926e-12 -2.85869e-09)
(-1.76777e-11 3.7063e-12 -7.12485e-10 4.24816e-13 2.71308e-12 -2.86987e-09)
(-1.27865e-10 -6.54104e-13 -4.11931e-10 1.46169e-12 3.00124e-12 -4.31395e-10)
(-1.34986e-11 -3.35147e-12 -7.0065e-10 4.75566e-13 -1.67705e-12 -2.85222e-09)
(2.701e-06 -1.10135e-07 5.01263e-07 3.45359e-06 -7.65148e-08 -1.24076e-05)
(2.44067e-06 6.93888e-08 7.07696e-07 3.80726e-06 -1.05774e-07 -1.11995e-05)
(2.80437e-06 -1.20227e-07 4.62096e-07 3.59935e-06 -6.80051e-08 -1.29765e-05)
(2.59792e-06 -9.81773e-08 3.4404e-07 3.86068e-06 -2.01422e-08 -1.4252e-05)
(2.48869e-06 -9.4237e-08 3.65915e-07 3.70374e-06 -4.93301e-08 -1.37058e-05)
(2.46453e-06 6.28387e-08 7.14753e-07 3.87949e-06 -9.98991e-08 -1.13879e-05)
(2.94585e-06 -1.38348e-07 4.70783e-07 3.81844e-06 -1.78875e-08 -1.37385e-05)
(2.84042e-06 -1.24059e-07 4.5232e-07 3.64932e-06 -6.13899e-08 -1.31663e-05)
(-2.06465e-11 2.87398e-11 -3.26758e-10 -7.85271e-12 -2.14706e-12 -1.75033e-09)
(-1.38075e-09 1.36491e-09 1.79957e-09 -1.38748e-09 -1.85749e-09 2.38105e-09)
(-9.9671e-11 7.0053e-11 -8.93506e-11 -4.1512e-11 -9.9117e-11 -1.27928e-09)
(-1.92476e-09 2.17032e-09 2.69897e-09 -2.05652e-09 -2.99231e-09 2.88919e-09)
(-9.45879e-10 9.30466e-10 1.15604e-09 -7.15792e-10 -1.30266e-09 -3.69879e-10)
(-1.99739e-10 1.32863e-10 -4.37801e-11 -7.36401e-11 -1.71148e-10 -1.33146e-09)
(5.81826e-08 -3.13677e-07 -5.82692e-07 -1.13752e-06 -1.00697e-06 8.65284e-08)
(9.40228e-09 2.26169e-08 3.11696e-08 -7.44499e-08 -1.48541e-07 2.42147e-08)
(1.38259e-07 1.03357e-07 -1.50311e-08 -4.71159e-07 -8.35681e-07 -2.77234e-07)
(9.17275e-07 -3.58976e-07 9.63672e-07 2.34223e-06 -8.60907e-07 -7.35942e-06)
(1.69456e-06 -6.54874e-08 9.67375e-07 2.65052e-06 -3.85252e-07 -7.45474e-06)
(1.15998e-06 -2.46905e-07 8.78758e-07 2.61366e-06 -4.47133e-07 -7.54756e-06)
(7.43265e-07 4.52947e-08 1.05522e-06 1.41101e-06 -8.68556e-07 -6.66748e-06)
(1.66768e-06 -2.32912e-07 1.16635e-06 3.83592e-06 7.77586e-08 -1.06401e-05)
(5.49047e-08 -1.16113e-08 1.13918e-07 -2.37325e-08 -4.53314e-07 -2.09367e-07)
(1.12441e-06 -2.81362e-07 9.10201e-07 2.85734e-06 -1.58755e-08 -7.85376e-06)
(2.79764e-07 3.37635e-07 4.91818e-07 -4.6492e-07 -8.89164e-07 3.54781e-07)
(1.85244e-06 -1.03138e-07 9.6014e-07 2.90706e-06 -2.96134e-07 -8.22671e-06)
(1.97586e-06 -1.60485e-07 1.08585e-06 3.95863e-06 5.38673e-08 -1.07274e-05)
(1.34624e-06 -2.55186e-07 9.35771e-07 2.92571e-06 -3.25795e-07 -8.37158e-06)
(5.07704e-09 2.41021e-08 3.30926e-08 -4.86878e-08 -1.10388e-07 2.57547e-08)
(-3.60728e-08 3.7377e-08 9.08988e-08 -4.63505e-07 -3.15805e-07 2.6534e-08)
(9.13767e-08 1.59135e-07 8.73092e-08 -4.50324e-07 -8.01965e-07 -2.85944e-07)
(1.89482e-06 3.17695e-08 9.57451e-07 2.39241e-06 -2.50243e-07 -7.20987e-06)
(2.45882e-06 1.20849e-07 8.09049e-07 3.33958e-06 -1.70921e-07 -9.85493e-06)
(1.9549e-06 1.2853e-08 9.62458e-07 2.55057e-06 -2.74089e-07 -7.61375e-06)
(1.34312e-06 -1.47798e-07 9.04068e-07 2.76032e-06 -2.3357e-07 -6.65648e-06)
(1.72703e-06 -2.87163e-08 9.91991e-07 2.5672e-06 -3.83216e-07 -7.36322e-06)
(1.78032e-06 3.07396e-08 9.94065e-07 2.36304e-06 -3.31377e-07 -6.98646e-06)
(2.47865e-06 1.11742e-07 8.14388e-07 3.40473e-06 -1.67899e-07 -1.00162e-05)
(1.90563e-06 -6.38862e-08 9.77397e-07 2.81527e-06 -3.05786e-07 -8.13855e-06)
(1.96235e-06 1.59058e-09 9.65014e-07 2.60947e-06 -2.81987e-07 -7.74582e-06)
(2.64274e-06 -9.92933e-08 3.67422e-07 3.92912e-06 -9.815e-10 -1.44492e-05)
(2.74243e-06 -8.76472e-08 7.3912e-07 4.27581e-06 1.33763e-07 -1.51125e-05)
(6.95964e-07 2.61774e-07 3.71532e-06 1.65381e-06 -8.53049e-07 -1.21665e-05)
(1.77432e-06 -2.22632e-07 1.31121e-06 4.4131e-06 1.24361e-07 -1.23495e-05)
(8.28165e-08 1.14042e-07 1.13676e-07 -1.07997e-07 -4.80483e-07 -1.80858e-07)
(2.71618e-06 -1.98212e-07 1.35652e-06 4.34064e-06 2.44772e-07 -1.47413e-05)
(-4.94612e-08 7.82586e-08 7.31079e-08 -1.79082e-07 -1.35457e-07 2.18482e-08)
(2.97199e-06 -1.44978e-07 5.16044e-07 3.88925e-06 9.10439e-09 -1.39407e-05)
(2.06715e-06 -1.51858e-07 1.14058e-06 4.50498e-06 1.94647e-07 -1.22596e-05)
(2.90189e-06 -1.73764e-07 9.53287e-07 4.21339e-06 2.01421e-07 -1.44734e-05)
(-1.83421e-09 1.98259e-09 2.37766e-09 -1.63288e-09 -2.77951e-09 3.74357e-10)
(-1.31407e-08 6.94936e-08 8.3523e-08 -3.8997e-07 -2.76304e-07 2.02112e-08)
(-1.46706e-08 2.01719e-08 2.2374e-08 -1.29442e-08 -3.14243e-08 1.78779e-08)
(1.75947e-06 -3.99064e-08 5.16399e-07 2.26237e-06 -1.88114e-08 -8.07134e-06)
(1.66721e-06 -3.56213e-08 5.12101e-07 2.11126e-06 -1.32555e-08 -7.50756e-06)
(1.41324e-06 2.18239e-08 7.83969e-07 1.88688e-06 -2.87057e-08 -5.76196e-06)
(1.70139e-06 -4.50745e-08 5.87062e-07 1.98097e-06 -1.83645e-08 -6.92724e-06)
(1.84671e-06 -5.20136e-08 5.91385e-07 2.17901e-06 -2.72914e-08 -7.64399e-06)
(1.44522e-06 2.32252e-08 7.85169e-07 1.93906e-06 -3.15127e-08 -5.91418e-06)
(1.73777e-06 -4.68173e-08 5.88368e-07 2.03005e-06 -2.05491e-08 -7.10446e-06)
(1.38488e-06 2.67469e-08 9.95417e-07 1.67261e-06 -1.54459e-07 -5.12621e-06)
(1.66211e-06 7.12566e-08 8.75634e-07 2.09572e-06 -9.69314e-08 -6.34721e-06)
(1.2987e-06 2.37938e-08 9.96029e-07 1.55852e-06 -1.40436e-07 -4.7895e-06)
(8.95949e-07 -6.60502e-08 9.77711e-07 1.37334e-06 -8.31173e-08 -3.62639e-06)
(1.06398e-06 3.09718e-08 1.01961e-06 1.25735e-06 -1.39393e-07 -3.87774e-06)
(1.1417e-06 3.51346e-08 1.02355e-06 1.35718e-06 -1.53042e-07 -4.17314e-06)
(1.62829e-06 6.82795e-08 8.75297e-07 2.04681e-06 -9.33213e-08 -6.20577e-06)
(1.18685e-06 1.98596e-08 9.93496e-07 1.41125e-06 -1.22311e-07 -4.35232e-06)
(1.27078e-06 2.2636e-08 9.96287e-07 1.52129e-06 -1.35868e-07 -4.67871e-06)
(1.78974e-06 -4.13996e-08 5.17518e-07 2.3132e-06 -2.06963e-08 -8.26169e-06)
(1.87889e-06 -4.59741e-08 5.20168e-07 2.4668e-06 -2.6472e-08 -8.83942e-06)
(2.13365e-06 -6.73234e-08 5.917e-07 2.58699e-06 -4.60884e-08 -9.13297e-06)
(1.70289e-06 3.66895e-08 7.85919e-07 2.37576e-06 -5.5272e-08 -7.17779e-06)
(2.02703e-06 -6.13042e-08 5.92916e-07 2.43248e-06 -3.8979e-08 -8.567e-06)
(1.88295e-06 -5.38165e-08 5.92016e-07 2.22922e-06 -2.95853e-08 -7.82633e-06)
(1.67059e-06 3.4794e-08 7.86692e-07 2.31938e-06 -5.22405e-08 -7.0157e-06)
(1.99119e-06 -5.93885e-08 5.92981e-07 2.38132e-06 -3.66288e-08 -8.38021e-06)
(1.36283e-06 4.74912e-08 8.62834e-07 1.67057e-06 -6.52698e-08 -5.10958e-06)
(1.05142e-06 1.5512e-08 9.83989e-07 1.2352e-06 -1.00488e-07 -3.82621e-06)
(7.63162e-07 -5.54196e-08 9.9212e-07 1.14216e-06 -6.24336e-08 -3.0453e-06)
(1.03909e-06 2.96036e-08 1.01983e-06 1.22502e-06 -1.33889e-07 -3.77989e-06)
(9.63803e-07 2.58628e-08 1.01241e-06 1.12928e-06 -1.20549e-07 -3.495e-06)
(1.39547e-06 4.97674e-08 8.65287e-07 1.71605e-06 -6.86551e-08 -5.24288e-06)
(1.1596e-06 1.88151e-08 9.92529e-07 1.37538e-06 -1.179e-07 -4.24507e-06)
(1.07796e-06 1.63563e-08 9.86224e-07 1.26959e-06 -1.04753e-07 -3.92965e-06)
(-1.41523e-11 -4.48295e-12 -7.00162e-10 3.47074e-13 -3.29389e-12 -2.84485e-09)
(-1.27517e-10 6.75147e-13 -4.07231e-10 1.48546e-12 -3.4988e-12 -4.04427e-10)
(-1.12014e-11 2.67845e-12 -6.89531e-10 5.06066e-13 1.22701e-12 -2.83027e-09)
(-1.27505e-10 -1.66762e-12 -4.04681e-10 1.61595e-12 -6.26134e-12 -3.90675e-10)
(-9.73334e-12 -3.62394e-12 -6.84e-10 5.25679e-13 -2.98694e-12 -2.8192e-09)
(2.82295e-10 4.9069e-12 2.6005e-10 -4.30629e-12 5.93649e-12 5.74697e-09)
(2.82113e-10 1.21328e-10 3.69023e-10 -2.19464e-10 -1.5678e-10 6.18837e-09)
(2.36224e-10 5.3422e-11 5.39702e-10 -7.87204e-11 -1.37846e-10 5.667e-09)
(-2.73649e-10 8.80984e-11 1.63555e-10 -1.01168e-10 -1.7883e-10 4.61643e-09)
(-2.51774e-10 3.04558e-11 3.63317e-11 -3.20442e-11 -4.28515e-11 4.39442e-09)
(-2.51855e-10 4.21576e-12 -3.8028e-10 -5.37195e-12 2.95073e-12 2.95525e-09)
(2.11162e-10 8.42825e-12 1.71074e-10 -4.30107e-13 1.27358e-11 -7.17549e-10)
(-2.59461e-10 1.78638e-11 -3.51009e-10 -1.46853e-11 -8.5814e-12 3.06058e-09)
(-2.88028e-10 7.22266e-11 -2.23566e-10 -7.16371e-11 -1.1228e-10 3.32604e-09)
(2.08568e-10 9.66805e-12 1.82407e-10 -1.85659e-12 3.496e-12 -6.78006e-10)
(-2.64159e-10 2.32419e-11 -3.33218e-10 -2.14529e-11 -2.51866e-11 3.11052e-09)
(-1.609e-11 1.59255e-11 -4.0714e-10 -3.82408e-12 1.52851e-12 -1.95963e-09)
(-2.35618e-10 9.31796e-11 -1.33704e-10 -4.99282e-11 -5.30739e-11 4.51493e-10)
(-7.71037e-12 5.66203e-12 -5.40312e-10 1.90967e-13 4.22138e-12 -2.37528e-09)
(-2.0396e-10 6.31082e-11 -1.96313e-10 -3.28875e-11 -2.96106e-11 3.15944e-10)
(-7.51164e-12 6.91578e-12 -6.144e-10 3.24964e-13 7.67156e-12 -2.58263e-09)
(7.37083e-13 -1.27498e-12 -5.38051e-10 -1.62648e-13 3.63158e-13 -2.37218e-09)
(-1.60521e-11 4.38073e-12 -6.95893e-10 4.42342e-13 4.09528e-12 -2.8177e-09)
(-1.33512e-10 3.55945e-12 -3.82232e-10 8.80004e-13 9.56063e-12 -2.72233e-10)
(-1.01217e-11 -3.41239e-12 -6.70716e-10 5.04047e-13 -7.319e-13 -2.75758e-09)
(-1.3598e-10 6.7392e-12 -3.73023e-10 5.26572e-13 1.05817e-11 -2.29126e-10)
(-1.03306e-11 -6.16723e-13 -6.36412e-10 4.77095e-13 2.78715e-12 -2.62939e-09)
(-1.34545e-11 2.47885e-12 -6.77142e-10 8.37788e-13 3.47941e-12 -2.77189e-09)
(4.13747e-06 -8.27782e-08 6.08856e-07 3.24042e-06 -1.64264e-07 -1.01123e-05)
(3.1994e-06 1.43879e-07 8.61168e-07 1.80608e-06 -2.21931e-07 -7.48032e-06)
(4.30276e-06 -9.20189e-08 5.66082e-07 3.36845e-06 -1.50003e-07 -1.04528e-05)
(5.23578e-06 -7.11126e-08 4.90054e-07 4.03765e-06 -8.50907e-08 -1.2042e-05)
(5.1502e-06 -7.60819e-08 4.3339e-07 3.88204e-06 -1.12051e-07 -1.16766e-05)
(3.22606e-06 1.40452e-07 8.45134e-07 1.82239e-06 -2.159e-07 -7.54951e-06)
(4.37975e-06 -9.63369e-08 6.07108e-07 3.56886e-06 -1.07154e-07 -1.08832e-05)
(4.34379e-06 -9.45527e-08 5.58724e-07 3.4128e-06 -1.42375e-07 -1.05615e-05)
(8.92737e-07 -3.43846e-07 7.978e-07 -1.38227e-06 -6.62872e-07 5.37175e-07)
(1.44575e-06 -4.38903e-08 1.03598e-06 8.17975e-07 -5.082e-07 -3.7349e-06)
(1.04094e-06 -2.85221e-07 8.1308e-07 7.67101e-07 -3.89249e-07 -3.41099e-06)
(2.14124e-07 1.19063e-07 3.78332e-07 1.69356e-07 1.41779e-06 -2.66085e-06)
(1.78199e-06 -4.09282e-08 1.1165e-06 2.10033e-06 -1.87492e-09 -7.1876e-06)
(1.06846e-06 -2.64578e-07 8.55925e-07 8.60059e-07 -2.1173e-07 -4.24129e-06)
(1.72547e-06 -8.17045e-08 9.97406e-07 1.1101e-06 -4.15235e-07 -4.64563e-06)
(2.07806e-06 -3.21234e-08 1.03919e-06 2.10692e-06 -1.09423e-07 -7.34117e-06)
(1.29038e-06 -2.67757e-07 8.61756e-07 1.12483e-06 -2.94116e-07 -4.36194e-06)
(1.68627e-06 3.39299e-08 1.20038e-06 1.01817e-06 -3.40232e-07 -4.34998e-06)
(2.6557e-06 1.55393e-07 9.35839e-07 1.76685e-06 -2.57752e-07 -7.08627e-06)
(1.7722e-06 1.7659e-08 1.15238e-06 1.03732e-06 -3.61319e-07 -4.5084e-06)
(7.94267e-07 -4.17444e-08 1.38731e-06 -6.95106e-07 -3.96657e-07 -6.29538e-08)