/*--------------------------------*- C++ -*----------------------------------*\
| =========                 |                                                 |
| \\      /  F ield         | OpenFOAM: The Open Source CFD Toolbox           |
|  \\    /   O peration     | Version:  2012                                  |
|   \\  /    A nd           | Website:  www.openfoam.com                      |
|    \\/     M anipulation  |                                                 |
\*---------------------------------------------------------------------------*/
FoamFile
{
    version     2.0;
    format      ascii;
    class       volScalarField;
    location    "0.104/solid";
    object      epsilonEq;
}
// * * * * * * * * * * * * * * * * * * * * * * * * * * * * * * * * * * * * * //

dimensions      [0 0 0 0 0 0 0];


internalField   nonuniform List<scalar> 
3125
(
3.47493e-09
1.70593e-08
3.74077e-09
3.48212e-09
3.7276e-09
1.23909e-08
1.25587e-08
2.13139e-08
3.57303e-09
4.09559e-06
5.4955e-06
3.72027e-06
3.82614e-09
3.88937e-09
3.59608e-09
1.25257e-06
1.89887e-06
3.89619e-06
5.27335e-06
1.6959e-06
1.8856e-06
1.66659e-06
6.92418e-10
3.46582e-09
6.9767e-10
2.21677e-09
1.9209e-07
4.03032e-08
6.90107e-10
3.72094e-09
4.89455e-09
4.23972e-09
1.57515e-09
4.76048e-10
5.44068e-10
5.48944e-10
3.47171e-09
6.48415e-10
6.94288e-10
5.13187e-10
5.46596e-10
9.14253e-06
1.02361e-05
1.49649e-09
2.7524e-08
3.19972e-07
6.47956e-06
6.18901e-06
9.19367e-06
5.9421e-08
8.15704e-06
6.19859e-06
9.09129e-06
7.28065e-06
1.03751e-05
4.54268e-08
5.55078e-06
5.9494e-06
3.22032e-06
5.10783e-06
6.6393e-06
5.68341e-06
3.06318e-06
4.99097e-06
5.3939e-10
3.73313e-09
4.40456e-09
4.07133e-09
6.331e-10
4.97489e-10
1.06039e-09
3.67831e-10
5.00569e-10
3.89014e-10
6.58249e-06
6.95721e-06
1.73967e-06
4.85325e-06
6.51416e-06
6.11749e-06
1.83806e-06
6.50318e-06
5.67732e-06
6.96902e-06
8.9867e-06
7.93048e-06
4.45255e-06
6.07277e-06
6.95717e-06
8.01965e-06
4.64843e-06
7.08662e-06
6.77949e-06
7.7837e-06
6.50839e-06
5.94122e-06
1.78359e-06
4.84833e-06
5.41666e-06
6.04374e-06
1.81214e-06
5.49698e-06
5.24678e-06
5.85606e-06
4.45238e-06
4.76672e-06
1.57872e-06
4.19603e-06
5.15867e-06
4.54058e-06
1.54902e-06
4.11481e-06
2.79682e-09
3.47225e-09
2.78273e-09
9.9572e-09
4.56692e-08
2.73857e-08
3.76067e-09
3.52495e-09
2.80287e-09
2.83067e-09
3.72047e-09
7.98417e-09
6.28444e-09
7.54264e-09
4.31085e-09
3.52663e-09
2.87426e-09
2.82618e-09
1.06518e-05
1.10871e-05
4.13538e-06
6.21512e-06
4.29661e-06
6.02173e-06
1.60214e-06
5.74909e-06
5.72475e-06
6.06489e-06
1.15301e-05
1.28079e-05
6.14734e-06
4.14674e-06
3.54897e-06
3.89251e-06
8.00361e-06
7.53071e-06
2.76365e-06
3.1737e-06
3.78414e-09
3.9874e-09
3.72845e-09
2.89604e-09
2.98532e-09
1.03478e-05
1.07179e-05
1.73565e-06
1.96954e-06
2.78002e-06
3.43292e-06
1.90043e-06
3.52138e-06
1.10443e-05
1.17148e-05
1.05042e-05
1.00521e-05
4.07677e-06
4.23264e-06
4.49649e-06
5.64555e-06
5.05833e-06
5.34085e-06
8.16205e-06
8.63861e-06
1.0216e-05
9.80034e-06
1.72515e-06
2.84016e-06
2.95151e-06
3.39709e-06
1.86458e-06
3.28823e-06
7.99501e-06
8.45412e-06
6.04558e-06
2.80198e-06
1.6374e-06
2.68944e-06
7.84216e-06
7.38552e-06
1.48851e-06
2.34277e-06
2.02551e-09
7.06661e-10
2.00903e-09
3.47103e-09
2.78641e-09
2.78164e-09
7.04999e-10
2.01602e-09
2.00876e-09
7.43378e-09
6.54082e-09
2.10081e-08
6.77871e-08
1.34426e-07
3.92654e-08
9.5306e-09
1.09741e-07
2.98431e-08
2.84225e-09
2.0299e-09
6.7807e-10
2.05077e-09
6.72464e-10
2.05981e-09
3.71778e-09
5.88672e-09
5.42621e-09
3.31568e-09
3.89923e-09
5.61429e-09
6.50617e-10
3.16412e-09
2.43249e-09
5.39069e-10
2.86288e-09
2.06611e-09
5.5148e-10
2.06922e-09
5.51826e-10
2.06719e-09
2.07623e-09
3.51349e-09
2.79147e-09
2.81417e-09
2.0891e-09
6.79156e-10
2.04548e-09
2.02028e-09
6.8802e-10
2.03517e-09
2.03833e-09
5.34033e-10
2.06728e-09
2.07738e-09
5.40452e-10
2.06247e-09
1.03498e-05
9.61743e-06
1.08097e-05
1.16843e-05
1.12319e-05
9.77679e-06
1.14389e-05
1.09644e-05
1.21781e-09
4.20749e-09
8.25053e-10
6.20651e-09
2.30454e-09
8.39574e-10
1.60833e-06
1.8754e-07
1.0368e-06
6.24408e-06
6.55356e-06
6.45297e-06
5.41288e-06
9.11975e-06
5.62162e-07
6.72946e-06
1.34256e-06
7.19233e-06
9.28832e-06
7.16226e-06
1.43006e-07
4.90603e-07
1.00215e-06
6.34611e-06
8.57244e-06
6.68725e-06
5.96361e-06
6.47631e-06
6.16807e-06
8.70914e-06
7.11831e-06
6.7981e-06
1.18549e-05
1.24765e-05
9.94388e-06
1.05212e-05
6.05895e-07
1.23213e-05
2.315e-07
1.16095e-05
1.05453e-05
1.20986e-05
5.00677e-09
4.32116e-07
5.4533e-08
6.75434e-06
6.29775e-06
5.03119e-06
5.88727e-06
6.47722e-06
5.15937e-06
6.03328e-06
4.58969e-06
5.58386e-06
4.30776e-06
3.3823e-06
3.56486e-06
3.8097e-06
5.46361e-06
3.94309e-06
4.21554e-06
6.90818e-06
7.37411e-06
7.69762e-06
6.224e-06
7.2346e-06
6.62704e-06
6.08739e-06
7.08155e-06
4.53292e-06
3.50601e-06
2.91092e-06
3.48519e-06
3.25007e-06
4.64597e-06
3.85408e-06
3.5916e-06
2.05749e-09
5.27718e-10
2.04468e-09
5.21253e-10
2.03586e-09
3.75435e-09
4.14323e-09
3.78549e-09
3.21791e-09
3.02778e-09
2.1071e-09
5.96011e-10
2.17468e-09
2.35982e-09
5.74986e-10
2.20755e-09
1.38233e-09
4.55651e-10
1.69969e-09
3.89198e-10
1.86002e-09
1.69929e-09
2.03837e-09
4.68835e-10
1.99192e-09
4.51139e-10
1.89772e-09
2.00269e-09
9.2446e-06
6.78404e-06
9.56542e-06
1.11557e-05
1.08326e-05
6.84104e-06
9.94224e-06
9.66507e-06
1.8945e-06
3.52649e-06
3.08094e-06
2.55091e-06
6.22379e-06
3.63151e-06
4.24635e-06
6.40393e-06
3.87257e-06
4.08375e-06
6.32231e-06
4.20302e-06
1.87705e-06
3.54965e-06
3.54339e-06
6.38129e-06
4.26544e-06
4.23389e-06
1.1263e-05
1.16332e-05
9.43266e-06
6.72237e-06
1.02958e-05
1.00312e-05
6.89021e-06
1.02966e-05
1.01962e-05
8.52719e-06
9.7324e-06
9.43065e-06
9.89842e-06
8.37647e-06
9.10718e-06
9.5767e-06
4.26214e-06
4.86061e-06
4.58573e-06
4.68501e-06
6.44731e-06
4.97648e-06
5.37726e-06
6.57361e-06
5.07507e-06
6.23374e-06
7.61358e-06
5.9026e-06
4.85018e-06
4.95389e-06
5.24246e-06
7.48038e-06
5.47976e-06
5.79519e-06
9.27308e-06
8.79756e-06
7.85308e-06
7.20495e-06
8.32194e-06
8.95015e-06
7.3484e-06
8.47883e-06
9.13068e-06
6.27338e-06
8.77185e-06
9.21319e-06
9.65632e-06
6.19192e-06
8.26472e-06
8.64756e-06
1.75451e-06
3.10053e-06
2.98953e-06
3.32038e-06
5.0928e-06
3.46477e-06
3.65718e-06
5.17406e-06
3.51313e-06
4.03831e-06
5.81398e-06
3.89762e-06
1.83949e-06
3.13868e-06
3.24996e-06
5.73555e-06
3.70554e-06
3.8494e-06
9.06279e-06
8.60697e-06
7.20693e-06
5.50996e-06
7.60663e-06
8.1346e-06
5.59713e-06
7.73943e-06
6.63433e-06
6.1916e-06
4.10092e-06
5.49591e-06
6.01502e-06
4.18857e-06
5.62487e-06
3.27183e-06
4.52183e-06
3.12666e-06
1.60804e-06
2.53683e-06
2.65092e-06
4.44027e-06
2.93182e-06
3.07787e-06
6.78334e-06
7.23413e-06
7.07359e-06
4.89382e-06
6.67438e-06
6.14609e-06
4.80548e-06
6.54177e-06
3.79151e-06
2.68676e-06
1.51903e-06
2.49787e-06
2.38209e-06
3.87207e-06
2.88278e-06
2.73591e-06
1.18707e-05
1.20083e-05
1.61461e-05
1.46137e-05
9.03345e-06
8.85776e-06
1.23846e-05
1.25339e-05
1.63564e-05
1.50531e-05
1.17273e-05
1.15784e-05
9.20931e-06
9.38522e-06
1.22287e-05
1.20669e-05
9.5217e-06
9.70879e-06
9.33493e-06
9.14858e-06
7.64905e-10
7.068e-10
7.87545e-10
7.10783e-10
7.71002e-10
7.91804e-10
2.9141e-09
3.13416e-09
4.35559e-09
2.24593e-08
6.00434e-08
3.08834e-08
7.63204e-10
6.96739e-10
7.76128e-10
1.95751e-09
1.13619e-09
1.26077e-09
3.91755e-10
4.81801e-10
3.37623e-10
1.22702e-09
5.36992e-10
1.20611e-09
5.41357e-10
1.23155e-09
1.21174e-09
7.08472e-10
6.69484e-10
7.40973e-10
7.67439e-10
7.04126e-10
7.82724e-10
1.18726e-09
5.1168e-10
1.17519e-09
1.22936e-09
5.36957e-10
1.20626e-09
9.56285e-06
9.29974e-06
9.95965e-06
1.01462e-05
9.7213e-06
1.27126e-05
1.26036e-05
1.12854e-05
1.00899e-05
1.06807e-05
1.11047e-05
1.05267e-05
3.80318e-10
2.07263e-09
7.00048e-10
1.53964e-08
1.58424e-08
8.53392e-09
9.58237e-06
5.43153e-06
7.59168e-06
7.06049e-06
1.00341e-05
6.69476e-06
5.2384e-06
1.06141e-05
1.10055e-05
8.44431e-06
9.27438e-06
1.04492e-05
1.11366e-05
8.52565e-06
7.04763e-08
1.30267e-07
1.86816e-07
9.23795e-06
7.4966e-06
8.2953e-06
9.55417e-06
9.73737e-06
7.62539e-06
9.06075e-06
1.01367e-05
1.08506e-05
8.97106e-06
8.3605e-06
1.06716e-05
1.03183e-05
8.24784e-06
1.28257e-05
1.29577e-05
7.8697e-06
9.31406e-06
7.44273e-06
1.10313e-05
1.01003e-05
6.74106e-06
1.14606e-05
1.08353e-05
1.04788e-05
1.15792e-05
1.09564e-05
2.85344e-08
9.73753e-08
6.20726e-08
7.64031e-06
7.46895e-06
5.87286e-06
5.86008e-06
5.41921e-06
5.72701e-06
5.72249e-06
6.23124e-06
5.45929e-06
6.7594e-06
5.8268e-06
6.60844e-06
6.37528e-06
5.34711e-06
5.5309e-06
5.73025e-06
5.22553e-06
4.69025e-06
5.87317e-06
5.39501e-06
4.7977e-06
7.81245e-06
7.98526e-06
6.99501e-06
7.08843e-06
6.49999e-06
6.93203e-06
6.85014e-06
6.02014e-06
5.99872e-06
5.81706e-06
6.16879e-06
6.13833e-06
5.12746e-06
5.5887e-06
4.87502e-06
4.58364e-06
5.44859e-06
5.26048e-06
4.47787e-06
1.21972e-09
5.2631e-10
1.19351e-09
6.92095e-10
6.35059e-10
6.92159e-10
4.52067e-10
5.30947e-10
5.26538e-10
2.85464e-10
7.81442e-10
3.79594e-10
3.53682e-10
9.3259e-10
8.6461e-10
1.17043e-09
4.85956e-10
1.14216e-09
4.03158e-10
9.94628e-10
1.01579e-09
7.42127e-06
6.65364e-06
5.59969e-06
7.50408e-06
5.64074e-06
1.32671e-05
1.31617e-05
5.7121e-06
6.92998e-06
7.88771e-06
7.84377e-06
5.73146e-06
3.04473e-06
4.15719e-06
5.28342e-06
4.4379e-06
4.48071e-06
3.97281e-06
3.53898e-06
3.80396e-06
4.77985e-06
5.80744e-06
6.50537e-06
5.78329e-06
3.90779e-06
4.70164e-06
4.07775e-06
5.48076e-06
6.18908e-06
4.81891e-06
5.54478e-06
4.84733e-06
4.06156e-06
4.03547e-06
4.83659e-06
6.47432e-06
5.80907e-06
5.78946e-06
4.8716e-06
3.98377e-06
1.33712e-05
1.34871e-05
6.79112e-06
5.86643e-06
5.24342e-06
6.96574e-06
4.90538e-06
5.67313e-06
7.92095e-06
6.96405e-06
7.94065e-06
5.61577e-06
9.40557e-06
9.77582e-06
8.83222e-06
9.59457e-06
9.2494e-06
1.06039e-05
1.07734e-05
8.55178e-06
8.07815e-06
8.32999e-06
8.72108e-06
8.48147e-06
6.66732e-06
5.57221e-06
6.91166e-06
6.19687e-06
6.52068e-06
7.06515e-06
5.68588e-06
7.42104e-06
8.01407e-06
6.38422e-06
6.82854e-06
7.57616e-06
7.85241e-06
6.26578e-06
8.7145e-06
7.36867e-06
9.37376e-06
7.88321e-06
8.88634e-06
9.19593e-06
7.24165e-06
7.89139e-06
8.17726e-06
7.21694e-06
6.50355e-06
8.34212e-06
7.73292e-06
6.62386e-06
1.04328e-05
1.02601e-05
7.14068e-06
7.24612e-06
6.92048e-06
7.40495e-06
7.28702e-06
8.38399e-06
8.17913e-06
7.63776e-06
8.21758e-06
8.02886e-06
7.33526e-06
5.55414e-06
6.4319e-06
7.24655e-06
5.50486e-06
1.10126e-05
1.11951e-05
5.15865e-06
6.02568e-06
6.67642e-06
6.77472e-06
5.2207e-06
3.54888e-06
4.35908e-06
4.9299e-06
4.06253e-06
4.4305e-06
4.11768e-06
3.50636e-06
3.75102e-06
4.43413e-06
4.85774e-06
5.33602e-06
4.78678e-06
3.78896e-06
4.38346e-06
4.01692e-06
5.41472e-06
4.78614e-06
5.96831e-06
4.04102e-06
5.34723e-06
4.7498e-06
3.86173e-06
4.48376e-06
5.57695e-06
4.92857e-06
4.99919e-06
4.53224e-06
3.82591e-06
1.08285e-05
1.06433e-05
5.86813e-06
5.33471e-06
4.6285e-06
5.97036e-06
4.69707e-06
5.09539e-06
6.57724e-06
5.77025e-06
6.47731e-06
5.03101e-06
7.86266e-06
7.68237e-06
3.99485e-06
4.94828e-06
4.36431e-06
4.84674e-06
3.92314e-06
3.41978e-06
4.28762e-06
4.68507e-06
4.00687e-06
4.21617e-06
3.46333e-06
3.95075e-06
3.19441e-06
3.60514e-06
4.27734e-06
3.78784e-06
3.8591e-06
3.66371e-06
3.14791e-06
8.04386e-06
8.22608e-06
5.76578e-06
5.07043e-06
4.55941e-06
5.66335e-06
4.4899e-06
4.06639e-06
5.05001e-06
4.62881e-06
5.15192e-06
4.13761e-06
3.05375e-06
3.54621e-06
4.03375e-06
3.71665e-06
3.64556e-06
3.48704e-06
3.10102e-06
3.41924e-09
3.37596e-09
2.81107e-09
2.78935e-09
3.42688e-09
2.80246e-09
3.37053e-09
3.41831e-09
2.79556e-09
2.78387e-09
3.3683e-09
2.79608e-09
3.41874e-09
3.3676e-09
1.76465e-08
1.24147e-08
1.08609e-08
1.36138e-08
1.33693e-08
1.45222e-08
1.68705e-08
2.47051e-08
2.8102e-08
1.90419e-08
3.36187e-08
1.9785e-08
3.38437e-08
2.38326e-08
3.46825e-09
3.47251e-09
3.5072e-09
3.47289e-09
3.44332e-09
3.38359e-09
2.81559e-09
2.8089e-09
3.43143e-09
2.82271e-09
3.39221e-09
3.4549e-09
2.84506e-09
3.41952e-09
2.81925e-09
3.47164e-09
2.83179e-09
3.40626e-09
3.47091e-09
3.44664e-09
3.45412e-09
3.44767e-09
1.41292e-08
1.47732e-08
8.74923e-09
8.91004e-09
8.16006e-09
9.32301e-09
8.39532e-09
5.97017e-09
1.01582e-08
6.73195e-09
7.35615e-09
6.71991e-09
4.82755e-09
5.23454e-09
4.95133e-09
5.79589e-09
5.59575e-09
6.05001e-09
2.84182e-08
2.43726e-08
4.43088e-08
5.99688e-08
3.49782e-09
3.4625e-09
2.89855e-09
2.85457e-09
3.52047e-09
2.87201e-09
3.44394e-09
3.48459e-09
2.83941e-09
3.41776e-09
2.83812e-09
3.46949e-09
2.85771e-09
3.42907e-09
1.1123e-05
1.07978e-05
1.12637e-05
1.2264e-05
1.21394e-05
1.09428e-05
1.15351e-05
1.14009e-05
9.76983e-06
1.85303e-05
1.53092e-05
9.90277e-06
6.44361e-06
8.96389e-07
2.02663e-06
2.19239e-06
2.51113e-06
6.96631e-06
2.70921e-06
7.4205e-06
6.73388e-06
6.86389e-06
7.27888e-06
7.59621e-06
7.16218e-06
7.02848e-06
7.73147e-06
1.361e-05
1.41406e-05
1.30524e-05
1.28304e-05
1.36771e-05
1.31592e-05
1.28891e-05
1.34665e-05
6.95974e-06
6.79182e-06
6.48014e-06
5.99786e-06
6.32364e-06
4.7812e-06
4.49393e-06
4.90016e-06
4.38853e-06
4.65159e-06
4.15913e-06
4.26168e-06
4.53598e-06
8.50731e-06
8.68241e-06
8.41742e-06
7.84554e-06
8.25293e-06
7.92503e-06
7.68787e-06
8.08879e-06
3.41762e-06
3.2065e-06
3.12024e-06
3.51428e-06
3.58811e-09
3.53772e-09
3.51086e-09
3.52381e-09
3.61616e-09
3.65239e-09
3.79144e-09
3.70303e-09
3.57603e-09
3.48511e-09
2.92087e-09
2.91795e-09
3.54421e-09
2.95055e-09
3.51119e-09
3.61701e-09
3.03474e-09
3.59123e-09
2.94818e-09
3.67328e-09
2.9826e-09
3.54759e-09
3.96752e-05
2.28117e-05
2.17744e-05
6.17762e-06
6.31332e-06
6.58703e-06
6.44958e-06
3.49319e-06
3.71457e-06
4.84643e-06
4.63117e-06
3.60307e-06
3.66321e-06
3.76254e-06
3.70698e-06
4.22966e-06
4.33745e-06
4.56553e-06
4.45374e-06
6.04684e-06
5.91331e-06
5.65678e-06
5.7872e-06
2.53644e-06
2.60112e-06
2.7398e-06
2.67273e-06
3.55241e-06
3.48785e-06
3.36184e-06
3.4298e-06
1.15605e-05
1.04755e-05
1.17064e-05
1.28095e-05
1.26757e-05
1.0599e-05
1.19804e-05
1.18465e-05
2.3767e-06
2.82744e-06
3.12801e-06
2.16381e-06
3.06387e-06
4.18964e-06
3.96268e-06
3.37107e-06
2.59821e-06
3.16087e-06
3.13921e-06
2.61443e-06
2.66142e-06
3.22467e-06
3.24922e-06
2.64067e-06
1.4053e-05
1.45787e-05
1.29865e-05
1.1439e-05
1.31243e-05
1.31403e-05
1.18774e-05
1.33776e-05
1.0979e-05
1.03551e-05
1.08316e-05
1.12668e-05
1.14248e-05
1.02044e-05
1.05282e-05
1.06813e-05
5.15527e-06
4.62444e-06
5.03296e-06
4.73259e-06
5.29104e-06
4.97746e-06
4.86678e-06
5.41656e-06
6.97181e-06
6.57408e-06
7.11537e-06
6.44662e-06
6.81611e-06
6.16808e-06
6.29227e-06
6.67478e-06
9.73663e-06
9.56105e-06
8.5822e-06
8.32074e-06
8.7471e-06
9.07695e-06
8.47963e-06
8.91207e-06
1.14094e-05
1.00806e-05
1.12537e-05
1.17286e-05
1.18999e-05
9.94189e-06
1.09307e-05
1.10939e-05
1.99189e-06
2.25704e-06
2.25812e-06
1.98791e-06
2.07071e-06
2.37187e-06
2.37136e-06
2.07477e-06
2.55524e-06
3.04624e-06
3.06295e-06
2.54461e-06
2.47963e-06
2.95575e-06
2.94388e-06
2.48549e-06
1.00833e-05
9.89598e-06
8.85708e-06
8.14803e-06
9.03184e-06
9.38201e-06
8.30109e-06
9.20684e-06
4.11544e-06
4.01183e-06
3.80038e-06
3.89969e-06
2.75497e-06
2.92673e-06
2.84962e-06
2.46569e-06
2.40373e-06
2.27521e-06
2.33425e-06
1.75606e-06
1.71396e-06
7.14777e-06
6.97175e-06
6.64583e-06
5.90039e-06
6.48222e-06
1.90759e-06
2.14759e-06
1.91131e-06
2.14632e-06
1.83412e-06
2.03985e-06
2.04109e-06
1.8308e-06
8.77747e-06
8.96269e-06
8.68269e-06
7.68958e-06
8.50879e-06
8.16274e-06
7.53735e-06
8.33545e-06
1.50308e-06
1.58303e-06
1.58366e-06
1.50415e-06
9.5034e-10
8.73744e-10
2.35801e-09
2.01477e-09
2.34753e-09
9.56259e-10
8.75979e-10
7.15963e-10
7.85882e-10
7.98854e-10
9.44787e-10
2.34161e-09
2.00803e-09
8.73081e-10
2.33957e-09
9.49551e-10
8.76783e-10
3.41232e-09
3.3659e-09
2.80033e-09
2.78171e-09
2.79456e-09
3.41558e-09
3.3624e-09
3.41395e-09
2.79377e-09
3.36658e-09
2.78023e-09
3.41728e-09
2.79333e-09
3.36363e-09
7.15774e-10
7.83892e-10
7.97861e-10
9.46191e-10
8.71663e-10
2.3478e-09
2.00824e-09
2.33959e-09
9.51675e-10
8.74922e-10
9.45301e-10
2.3397e-09
8.72717e-10
2.00563e-09
9.4843e-10
2.33844e-09
8.75507e-10
7.91656e-09
4.41908e-09
8.60574e-09
1.02699e-08
1.15354e-08
5.61723e-09
6.38569e-09
4.44987e-09
9.70255e-09
6.32428e-09
1.08898e-08
2.23633e-08
1.43529e-08
1.37566e-08
1.55064e-08
1.63734e-08
9.06066e-09
1.03414e-07
1.57235e-07
1.3641e-07
8.41746e-08
7.9442e-08
1.5644e-07
1.05274e-07
7.04531e-08
3.90245e-08
4.91631e-08
5.90007e-08
4.96287e-08
5.95802e-08
7.11533e-08
1.50539e-08
1.38228e-08
2.2805e-08
4.53242e-08
8.09168e-08
1.14122e-07
6.44501e-08
6.15922e-08
9.4838e-08
4.15018e-08
3.68017e-08
3.03812e-08
1.92564e-08
4.62113e-08
2.21019e-08
4.78623e-08
3.16543e-08
9.55597e-10
8.74742e-10
2.36237e-09
2.03098e-09
2.36498e-09
9.57726e-10
8.78745e-10
6.93541e-10
7.52357e-10
7.73552e-10
9.59032e-10
2.38746e-09
2.03874e-09
8.79517e-10
2.37406e-09
9.67639e-10
8.80714e-10
7.46877e-10
2.39511e-09
8.81308e-10
9.7043e-10
3.46231e-09
3.44292e-09
3.45613e-09
3.44173e-09
4.78569e-09
4.99059e-09
6.30374e-09
6.01929e-09
4.4041e-09
3.97191e-09
3.48918e-09
3.44417e-09
3.68369e-09
4.18004e-09
4.13185e-09
4.71217e-09
4.31128e-09
4.7054e-09
3.6299e-09
5.15151e-09
3.93861e-09
4.36433e-09
3.11375e-09
3.16465e-09
6.73404e-09
4.40633e-09
5.42133e-09
4.18523e-09
2.28128e-09
8.38042e-10
5.05741e-10
8.00227e-10
2.41614e-09
3.95746e-09
3.63959e-09
1.38294e-09
4.55156e-09
1.96417e-09
1.72265e-09
1.31306e-09
9.49242e-10
2.92171e-09
2.52409e-09
3.07379e-09
1.2278e-09
9.81835e-10
4.91125e-10
3.26485e-10
2.85688e-10
1.4492e-09
3.56631e-09
2.66167e-09
1.17652e-09
3.27313e-09
1.68023e-09
1.05011e-09
1.9453e-07
3.60513e-07
1.40136e-07
9.05263e-08
1.99045e-09
2.01688e-09
1.94954e-09
5.42275e-10
1.23847e-09
1.21666e-09
2.03041e-09
1.99969e-09
1.96139e-09
5.45147e-10
1.23961e-09
1.21977e-09
1.99172e-09
2.02103e-09
1.95392e-09
2.00254e-09
2.03373e-09
1.96312e-09
3.43012e-09
3.37194e-09
2.80511e-09
2.79498e-09
3.42242e-09
2.80975e-09
3.37911e-09
3.44172e-09
2.8311e-09
3.40499e-09
2.80271e-09
3.45919e-09
2.81481e-09
3.39081e-09
9.69705e-10
8.80119e-10
2.43498e-09
2.06872e-09
2.40789e-09
9.85721e-10
8.80999e-10
6.84761e-10
7.52649e-10
7.57891e-10
9.64995e-10
2.37948e-09
2.05349e-09
8.76378e-10
2.3956e-09
9.62045e-10
8.79561e-10
9.51063e-10
8.72178e-10
2.35195e-09
2.01876e-09
9.53071e-10
2.35326e-09
8.75348e-10
7.03109e-10
7.61813e-10
7.83358e-10
9.49767e-10
2.37318e-09
2.02341e-09
8.74855e-10
2.35571e-09
9.60967e-10
8.77214e-10
1.95021e-09
2.0055e-09
1.92287e-09
5.23812e-10
1.21753e-09
1.19419e-09
2.01754e-09
1.98272e-09
1.93963e-09
1.99314e-09
2.01711e-09
1.94699e-09
5.34698e-10
1.22567e-09
1.20665e-09
2.02818e-09
1.9874e-09
1.95259e-09
9.91762e-06
1.0503e-05
1.00729e-05
9.45815e-06
1.0527e-05
1.00418e-05
1.03354e-05
9.88104e-06
1.06563e-05
1.03859e-05
1.0229e-05
1.23822e-05
1.24948e-05
1.20661e-05
1.15286e-05
1.19296e-05
1.16669e-05
1.13779e-05
1.17975e-05
9.93474e-06
1.07201e-05
1.02037e-05
1.09132e-05
1.0365e-05
1.1022e-05
1.12792e-05
1.08644e-05
1.05443e-05
1.11198e-05
1.0703e-05
9.15386e-10
1.00158e-09
6.99619e-10
2.91568e-09
1.89006e-09
1.17999e-09
9.26245e-10
6.28748e-10
5.96038e-10
9.79091e-09
3.02371e-09
5.06692e-09
6.81254e-09
1.13996e-09
3.39374e-09
9.56026e-10
7.673e-10
1.79034e-09
3.84889e-07
2.29836e-07
1.62089e-07
3.33814e-07
2.14717e-07
3.403e-07
3.78638e-07
4.76167e-07
1.18618e-06
1.14163e-06
4.54379e-07
1.11533e-06
3.0963e-07
5.89328e-07
8.43334e-06
7.99028e-06
8.70377e-06
8.06259e-06
8.66332e-06
7.28654e-06
9.35654e-06
7.31202e-06
1.05303e-05
8.57683e-06
1.11566e-05
8.20723e-06
1.02351e-05
1.01998e-05
7.55495e-06
5.43173e-06
9.7022e-07
3.29912e-06
9.82846e-06
9.83572e-07
2.11073e-06
1.4968e-06
8.25632e-06
8.91371e-07
2.94085e-06
1.05952e-05
9.32281e-06
1.11712e-05
8.49647e-06
1.07357e-05
1.12213e-05
8.52832e-06
2.9888e-07
8.88095e-08
1.21835e-07
3.00667e-07
9.09852e-08
3.34291e-07
2.4315e-07
1.75447e-07
7.29882e-07
1.59792e-07
2.22915e-07
1.34097e-06
3.51553e-07
9.51729e-07
2.39057e-07
1.26303e-06
1.89753e-07
9.41707e-06
8.43384e-06
1.01111e-05
7.88298e-06
9.92292e-06
9.59927e-06
7.75412e-06
8.2731e-06
7.7689e-06
8.31513e-06
7.6301e-06
8.03172e-06
7.34491e-06
7.93994e-06
7.47297e-06
9.96449e-06
8.84365e-06
1.02993e-05
8.00896e-06
1.04887e-05
9.78016e-06
8.13348e-06
1.33395e-05
1.31128e-05
1.22142e-05
1.20354e-05
1.23809e-05
1.28313e-05
1.2257e-05
1.25837e-05
8.49932e-06
1.17517e-05
7.80404e-06
1.07095e-05
7.35714e-06
1.00604e-05
1.18365e-05
1.11407e-05
1.08058e-05
1.07328e-05
4.82076e-06
5.45584e-07
2.77174e-06
1.212e-05
1.16682e-05
1.13342e-05
3.13784e-07
3.72916e-07
7.87439e-07
1.11859e-05
1.17725e-05
1.13284e-05
1.05828e-05
1.15891e-05
1.109e-05
1.17271e-05
1.10913e-05
1.19663e-05
1.15553e-05
1.14912e-05
1.34516e-08
1.1043e-08
2.96357e-08
1.59326e-07
2.93962e-07
1.15794e-07
2.81071e-08
1.45709e-07
6.43963e-08
7.12863e-06
7.29837e-06
7.11494e-06
6.6013e-06
6.95502e-06
6.63759e-06
6.44908e-06
6.79588e-06
4.90414e-06
5.29827e-06
5.31613e-06
5.1584e-06
5.18292e-06
5.7423e-06
5.58818e-06
5.44972e-06
6.15241e-06
6.32829e-06
6.00985e-06
5.28873e-06
5.43966e-06
5.45047e-06
5.58258e-06
5.58594e-06
6.18031e-06
5.72771e-06
5.86828e-06
6.08846e-06
5.70491e-06
6.31033e-06
5.12499e-06
5.94705e-06
6.4587e-06
5.23565e-06
4.1747e-06
3.72115e-06
4.06627e-06
3.8176e-06
4.29762e-06
4.03614e-06
4.40962e-06
3.9366e-06
5.66821e-06
5.34413e-06
6.1633e-06
5.01512e-06
5.80698e-06
6.01751e-06
4.906e-06
8.33277e-06
8.15872e-06
7.27566e-06
7.0628e-06
7.43708e-06
7.76181e-06
7.21812e-06
7.59914e-06
7.32369e-06
7.54269e-06
7.17465e-06
6.36153e-06
6.62283e-06
6.5628e-06
6.77679e-06
6.70606e-06
7.38832e-06
6.87861e-06
7.02628e-06
6.29591e-06
6.77775e-06
6.44033e-06
5.9517e-06
6.47019e-06
6.42038e-06
6.31879e-06
6.27888e-06
6.92926e-06
6.73168e-06
6.58559e-06
4.61059e-06
4.42085e-06
5.03736e-06
4.16601e-06
4.90335e-06
4.73751e-06
4.06389e-06
3.84239e-06
3.60633e-06
3.94699e-06
3.51315e-06
3.72679e-06
3.31277e-06
3.62605e-06
3.40252e-06
4.99595e-06
4.76002e-06
5.1729e-06
4.26903e-06
5.30999e-06
4.86596e-06
4.373e-06
1.98339e-09
2.0023e-09
1.9373e-09
5.23411e-10
1.21048e-09
1.19209e-09
2.00907e-09
1.97632e-09
1.93904e-09
1.19983e-09
1.96542e-09
3.4658e-09
3.46391e-09
3.5019e-09
3.46936e-09
4.34676e-09
4.18282e-09
3.88851e-09
3.97995e-09
3.89504e-09
3.85307e-09
3.35505e-09
3.14091e-09
4.01984e-09
3.23927e-09
3.76437e-09
3.80522e-09
3.08335e-09
3.63983e-09
3.077e-09
3.73016e-09
3.15631e-09
3.69436e-09
9.9681e-10
8.82628e-10
2.45316e-09
2.12076e-09
2.47653e-09
9.91557e-10
8.85097e-10
6.20322e-10
6.37423e-10
6.75519e-10
1.00327e-09
2.5488e-09
2.14348e-09
8.90061e-10
2.50189e-09
1.03181e-09
8.88346e-10
1.10543e-09
9.26288e-10
2.8159e-09
2.29654e-09
1.1711e-09
2.71772e-09
9.09998e-10
5.67627e-10
6.08994e-10
5.83945e-10
1.06609e-09
2.58778e-09
2.24414e-09
8.94887e-10
2.64802e-09
1.04558e-09
8.99882e-10
1.10581e-09
1.50586e-09
1.24266e-09
5.65522e-10
6.55286e-10
5.32644e-10
1.58771e-09
1.50397e-09
1.3714e-09
3.63617e-10
7.46437e-10
7.91236e-10
1.72642e-09
1.75297e-09
1.63846e-09
1.55966e-09
1.71761e-09
1.58548e-09
1.93919e-09
1.96577e-09
1.88806e-09
4.72053e-10
1.13208e-09
1.1256e-09
1.97189e-09
1.90107e-09
1.88067e-09
4.30512e-10
1.107e-09
1.06804e-09
1.77624e-09
1.90498e-09
1.78522e-09
1.88704e-09
1.94105e-09
1.8297e-09
1.15423e-06
6.33363e-07
7.33971e-06
5.06284e-06
7.35212e-06
7.46738e-06
5.46248e-06
6.63718e-06
7.14864e-06
7.01723e-06
6.74231e-06
6.87558e-06
4.02091e-06
4.16837e-06
4.89638e-06
4.64764e-06
3.97242e-06
3.90637e-06
3.79613e-06
3.8534e-06
5.03866e-06
4.91892e-06
4.68354e-06
4.7994e-06
5.15971e-06
5.28316e-06
5.53265e-06
5.40564e-06
3.0216e-06
2.95152e-06
2.81141e-06
2.88045e-06
3.09125e-06
3.16175e-06
3.29867e-06
3.22885e-06
8.38206e-06
9.35516e-06
8.48038e-06
6.72115e-06
7.65771e-06
5.70501e-06
7.58318e-06
5.67628e-06
9.46222e-06
8.66628e-06
8.57532e-06
1.29349e-05
1.3052e-05
1.24585e-05
1.10506e-05
1.23456e-05
1.2108e-05
1.09429e-05
1.22294e-05
6.89037e-06
7.72694e-06
5.7253e-06
7.78918e-06
5.73488e-06
8.98175e-06
9.8534e-06
8.91189e-06
8.75321e-06
9.76056e-06
8.83486e-06
2.88247e-06
3.52111e-06
3.59754e-06
2.79949e-06
3.21119e-06
4.34738e-06
3.46052e-06
4.10666e-06
3.11114e-06
5.95405e-06
5.41889e-06
4.27573e-06
5.08941e-06
3.2963e-06
4.09426e-06
3.6681e-06
6.46818e-06
5.61504e-06
4.46412e-06
5.7269e-06
3.50304e-06
4.59225e-06
4.08829e-06
6.25764e-06
5.66298e-06
4.88627e-06
5.60581e-06
4.87022e-06
4.09186e-06
2.73906e-06
3.42239e-06
3.42333e-06
2.7401e-06
2.6749e-06
3.32444e-06
2.69411e-06
3.30423e-06
4.06854e-06
6.43306e-06
5.71404e-06
4.8935e-06
5.75774e-06
4.88964e-06
4.08611e-06
1.38142e-05
1.36173e-05
1.25718e-05
1.13744e-05
1.26934e-05
1.2999e-05
1.14945e-05
1.28271e-05
8.08453e-06
9.77507e-06
8.33179e-06
6.52234e-06
7.81903e-06
5.26359e-06
7.69841e-06
5.12189e-06
1.03735e-05
9.11784e-06
9.09673e-06
9.04659e-06
1.01182e-05
9.10299e-06
6.93278e-06
7.93941e-06
5.4346e-06
7.94229e-06
5.52744e-06
1.02046e-05
9.19315e-06
9.14787e-06
9.7629e-06
1.00421e-05
9.60863e-06
8.67908e-06
9.23916e-06
8.9399e-06
9.41574e-06
9.09422e-06
9.88754e-06
9.30085e-06
9.45463e-06
1.11053e-05
1.09406e-05
9.89479e-06
9.58751e-06
1.00557e-05
1.03727e-05
9.7435e-06
1.02151e-05
8.2268e-06
9.06466e-06
8.78639e-06
8.892e-06
8.63359e-06
8.68731e-06
9.26401e-06
8.84046e-06
9.14722e-06
9.42055e-06
8.99377e-06
5.82567e-06
5.48535e-06
5.36947e-06
5.95766e-06
5.68405e-06
5.11517e-06
5.55534e-06
5.22844e-06
6.81532e-06
6.32173e-06
7.37605e-06
5.9155e-06
6.96465e-06
7.21995e-06
5.80032e-06
7.26746e-06
6.70069e-06
7.53344e-06
6.03144e-06
7.11535e-06
7.69223e-06
6.14819e-06
8.5453e-06
7.74785e-06
8.84788e-06
6.9911e-06
9.02071e-06
8.37852e-06
7.1158e-06
6.23748e-06
5.62973e-06
5.74824e-06
6.10224e-06
6.38509e-06
6.01711e-06
6.52356e-06
5.89585e-06
8.05172e-06
7.34818e-06
8.6773e-06
6.86758e-06
8.50875e-06
8.21405e-06
6.74517e-06
9.91185e-06
1.00864e-05
9.73277e-06
9.11494e-06
9.56973e-06
9.24166e-06
8.95639e-06
9.40598e-06
7.47336e-06
8.009e-06
7.62358e-06
7.06228e-06
7.72626e-06
7.5818e-06
7.56498e-06
7.43404e-06
8.16531e-06
7.92556e-06
7.77432e-06
8.53438e-06
8.79302e-06
8.38169e-06
7.49267e-06
7.88876e-06
7.7302e-06
8.05253e-06
7.87923e-06
8.63589e-06
8.07725e-06
8.22931e-06
8.28062e-06
9.01372e-06
8.17646e-06
6.35346e-06
7.06264e-06
5.39757e-06
7.15557e-06
5.45251e-06
8.89402e-06
7.96115e-06
8.06987e-06
1.15536e-05
1.13756e-05
1.02538e-05
9.36244e-06
1.04257e-05
1.07645e-05
9.51024e-06
1.05961e-05
6.10929e-06
6.96802e-06
5.34041e-06
6.87197e-06
5.28136e-06
7.51022e-06
8.39376e-06
7.62491e-06
7.85058e-06
8.52146e-06
7.73843e-06
2.24115e-06
2.60466e-06
2.60688e-06
2.2436e-06
2.15921e-06
2.48836e-06
2.15568e-06
2.48788e-06
3.59073e-06
5.01141e-06
4.57324e-06
4.22613e-06
4.50192e-06
3.63191e-06
4.1722e-06
3.71217e-06
5.25514e-06
4.64452e-06
4.27936e-06
4.7157e-06
3.67241e-06
4.33183e-06
3.98996e-06
5.89164e-06
5.2095e-06
4.66874e-06
5.27871e-06
4.71051e-06
3.96059e-06
2.32668e-06
2.72552e-06
2.72098e-06
2.32606e-06
2.40817e-06
2.83476e-06
2.4061e-06
2.84254e-06
3.89621e-06
5.6565e-06
5.13973e-06
4.62492e-06
5.06962e-06
4.57935e-06
3.92926e-06
1.02704e-05
1.04571e-05
1.00807e-05
8.91148e-06
9.90671e-06
9.55718e-06
8.75948e-06
9.73214e-06
6.56945e-06
7.3403e-06
6.68818e-06
5.42246e-06
6.17422e-06
4.83274e-06
6.07241e-06
4.76516e-06
7.47357e-06
6.92517e-06
6.80678e-06
7.39456e-06
8.00357e-06
7.27809e-06
5.68391e-06
6.27571e-06
4.89961e-06
6.37676e-06
4.96571e-06
7.87181e-06
7.04327e-06
7.16096e-06
3.39798e-06
3.48849e-06
3.69059e-06
3.59567e-06
3.29365e-06
3.20759e-06
3.02476e-06
3.10628e-06
2.0335e-06
2.0858e-06
2.20746e-06
2.15172e-06
1.96989e-06
1.92097e-06
1.81431e-06
1.85993e-06
7.3249e-06
7.50312e-06
7.31075e-06
6.486e-06
7.143e-06
6.81054e-06
6.33842e-06
6.97627e-06
4.01345e-06
4.54372e-06
3.70703e-06
4.44327e-06
3.63462e-06
5.3676e-06
5.04051e-06
4.92535e-06
5.50559e-06
5.88445e-06
5.3887e-06
4.27637e-06
4.64444e-06
3.77923e-06
4.74543e-06
3.85128e-06
5.75441e-06
5.15614e-06
5.27222e-06
3.37566e-06
4.60343e-06
4.07324e-06
3.83713e-06
4.14468e-06
3.33102e-06
3.89415e-06
1.69035e-06
1.84144e-06
1.84201e-06
1.68822e-06
1.75743e-06
1.93905e-06
1.76022e-06
1.93809e-06
3.24043e-06
4.35875e-06
4.00182e-06
3.77969e-06
3.93046e-06
3.28596e-06
3.72187e-06
8.59287e-06
8.40904e-06
7.47944e-06
6.93302e-06
7.64905e-06
7.99071e-06
7.0833e-06
7.81949e-06
6.45067e-06
6.94035e-06
6.33192e-06
4.98215e-06
5.45856e-06
4.34994e-06
5.56094e-06
4.42006e-06
6.80727e-06
6.09473e-06
6.21327e-06
5.62283e-06
6.27762e-06
5.74042e-06
4.71711e-06
5.35623e-06
4.27944e-06
5.25401e-06
4.20862e-06
6.40954e-06
5.97638e-06
5.85828e-06
2.86046e-06
3.71116e-06
3.43292e-06
3.30754e-06
3.36231e-06
3.24716e-06
2.90936e-06
1.62261e-06
1.75021e-06
1.75004e-06
1.62423e-06
1.56239e-06
1.66414e-06
1.56114e-06
1.66394e-06
3.00603e-06
3.95284e-06
3.50366e-06
3.36764e-06
3.57456e-06
3.42753e-06
2.95786e-06
3.83614e-09
3.62997e-09
3.46663e-09
3.92503e-09
3.84665e-09
3.92074e-09
3.62393e-09
2.09009e-08
1.4983e-08
2.31866e-08
1.90516e-08
1.63565e-08
2.172e-08
2.02029e-08
3.86436e-09
3.48917e-09
3.63837e-09
3.93571e-09
3.85055e-09
3.94136e-09
3.64661e-09
9.842e-09
9.60885e-09
1.11129e-08
1.29625e-08
1.21318e-08
1.10206e-08
8.6972e-09
3.92847e-09
3.54774e-09
4.03843e-09
3.72534e-09
4.01335e-09
3.95281e-09
3.70475e-09
4.01523e-09
3.62616e-09
4.06915e-09
3.74974e-09
3.98016e-09
4.10476e-09
3.77794e-09
3.83068e-09
3.45886e-09
3.91856e-09
3.62031e-09
3.91241e-09
3.83419e-09
3.6157e-09
1.3921e-07
1.43093e-07
1.13526e-07
1.75331e-07
1.92319e-07
1.59454e-07
1.29351e-07
5.04786e-09
4.4885e-09
4.94034e-09
4.33147e-09
5.24328e-09
4.76765e-09
4.53638e-09
3.8506e-09
3.47795e-09
3.92538e-09
3.62703e-09
3.84332e-09
3.9336e-09
3.63443e-09
3.44448e-07
3.73002e-07
5.78098e-07
2.86789e-07
3.25799e-07
3.0397e-07
3.92326e-07
4.40473e-09
3.94113e-09
4.69537e-09
4.18286e-09
4.55886e-09
4.52937e-09
4.07327e-09
3.84065e-09
3.46584e-09
3.92474e-09
3.62692e-09
3.91788e-09
3.84331e-09
3.62273e-09
3.05735e-08
3.30266e-08
3.80965e-08
3.97447e-08
3.68629e-08
3.89163e-08
2.89246e-08
3.87884e-09
3.5056e-09
3.97469e-09
3.68017e-09
3.95989e-09
3.90154e-09
3.66387e-09
7.97002e-09
7.59652e-09
7.4056e-09
5.98216e-09
8.51107e-09
6.8538e-09
7.02955e-09
3.91489e-09
3.53537e-09
3.98479e-09
3.68143e-09
3.99514e-09
3.90321e-09
3.69063e-09
6.74446e-06
5.67829e-06
7.55279e-06
3.19583e-06
1.13652e-05
4.14004e-06
4.56294e-06
9.6273e-06
8.59833e-06