/*--------------------------------*- C++ -*----------------------------------*\
| =========                 |                                                 |
| \\      /  F ield         | OpenFOAM: The Open Source CFD Toolbox           |
|  \\    /   O peration     | Version:  2012                                  |
|   \\  /    A nd           | Website:  www.openfoam.com                      |
|    \\/     M anipulation  |                                                 |
\*---------------------------------------------------------------------------*/
FoamFile
{
    version     2.0;
    format      ascii;
    class       pointVectorField;
    location    "0.104/solid";
    object      pointD;
}
// * * * * * * * * * * * * * * * * * * * * * * * * * * * * * * * * * * * * * //

dimensions      [0 1 0 0 0 0 0];


internalField   nonuniform List<vector> 
4847
(
(-4.54309e-12 -7.9362e-14 -1.78649e-12)
(-2.66805e-12 -1.95015e-11 -1.65017e-11)
(-4.53121e-12 1.33757e-13 -1.84534e-12)
(-5.18449e-09 1.1345e-08 2.31671e-09)
(2.29796e-06 -5.69563e-06 -2.85642e-07)
(6.44049e-07 -1.55023e-06 -1.5449e-07)
(3.76603e-13 -1.72219e-14 2.50272e-12)
(-4.54588e-12 4.91856e-14 -1.78873e-12)
(-4.09713e-12 -8.29487e-13 -2.57698e-12)
(2.06612e-12 -8.61564e-13 2.08115e-12)
(-1.03383e-10 9.72096e-11 -5.67408e-10)
(7.00188e-07 -1.55171e-06 -6.43956e-07)
(3.67883e-13 4.65495e-14 2.51336e-12)
(1.68857e-07 -3.64146e-07 -7.05462e-08)
(-2.08117e-09 6.5392e-09 2.16124e-09)
(1.36459e-06 -3.36397e-06 -2.25213e-07)
(2.33889e-06 -5.78835e-06 -1.17388e-06)
(3.41394e-06 -8.43659e-06 -3.36949e-07)
(2.27566e-07 -3.46754e-07 -3.2432e-07)
(3.44839e-06 -8.56114e-06 -1.3848e-06)
(1.41267e-06 -3.41312e-06 -9.27184e-07)
(3.74435e-13 8.96422e-15 2.50176e-12)
(2.67897e-11 -1.07644e-10 -3.08854e-11)
(4.58941e-13 1.13511e-13 2.5444e-12)
(-4.51849e-12 -1.38439e-13 -1.79174e-12)
(-4.99603e-12 -2.97241e-14 8.66279e-13)
(-4.52254e-12 -1.79028e-14 -1.78397e-12)
(-3.22682e-12 -4.60449e-12 -5.01894e-12)
(-3.35416e-12 -2.25988e-12 -2.43007e-12)
(-1.49646e-11 -6.33274e-11 -8.09891e-11)
(7.51898e-07 -1.57048e-06 -9.03397e-07)
(-1.58657e-13 3.48722e-16 1.05996e-13)
(-4.51885e-12 1.08049e-13 -1.80367e-12)
(-4.41604e-12 2.02798e-14 -1.99517e-12)
(-5.02588e-12 8.70504e-14 8.58813e-13)
(-2.32049e-13 1.17417e-13 -2.71035e-13)
(-1.71958e-09 -8.40978e-09 -2.15068e-10)
(3.9314e-08 -3.1198e-08 -1.24371e-08)
(-3.25431e-09 6.45889e-09 -8.73566e-10)
(1.80658e-06 -4.472e-06 -2.56619e-07)
(2.31319e-06 -5.74912e-06 -7.30578e-07)
(2.83498e-06 -7.02145e-06 -3.12393e-07)
(6.65399e-07 -1.55931e-06 -3.98348e-07)
(3.73535e-07 -8.72422e-07 -1.14682e-07)
(9.75783e-07 -2.38537e-06 -1.9125e-07)
(2.37796e-06 -5.84299e-06 -1.63467e-06)
(4.03119e-06 -9.92895e-06 -3.59368e-07)
(-1.71206e-13 -2.29793e-15 6.7054e-14)
(3.44902e-11 7.58075e-09 2.3272e-09)
(3.97517e-13 -2.47998e-15 2.54398e-12)
(4.0101e-13 -2.75905e-14 2.5586e-12)
(-4.98936e-12 2.13359e-14 8.63411e-13)
(-5.03971e-12 1.26945e-13 6.90459e-13)
(7.60521e-12 -8.51379e-12 -9.57283e-13)
(7.65479e-13 -1.15601e-14 2.5118e-12)
(2.78746e-11 -1.59507e-10 -9.48484e-11)
(4.32915e-07 -8.56542e-07 -4.88535e-07)
(1.02783e-06 -2.41013e-06 -7.9017e-07)
(1.458e-06 -3.44975e-06 -1.29338e-06)
(2.82907e-07 -3.55704e-07 -4.67926e-07)
(3.48143e-06 -8.62957e-06 -1.9267e-06)
(4.06255e-06 -1.00647e-05 -1.47718e-06)
(-1.72596e-13 -1.31251e-15 9.65802e-14)
(3.87868e-13 2.36805e-14 2.54306e-12)
(3.99044e-13 6.99531e-14 2.56731e-12)
(-1.35301e-13 -2.24235e-15 -9.11111e-15)
(-9.48445e-12 1.40786e-11 -1.72615e-12)
(1.91671e-07 -3.62376e-07 -1.95206e-07)
(8.19676e-08 -4.80012e-08 -1.5252e-07)
(4.01589e-10 -3.77088e-09 -4.03165e-10)
(1.38263e-06 -3.3968e-06 -5.76423e-07)
(2.87261e-06 -7.13166e-06 -1.28376e-06)
(1.85097e-06 -4.5442e-06 -1.05506e-06)
(3.42671e-06 -8.50454e-06 -8.62124e-07)
(4.87421e-07 -8.68967e-07 -6.91157e-07)
(5.64854e-08 -5.17022e-08 -8.46805e-08)
(3.96257e-07 -8.72158e-07 -2.99863e-07)
(1.27922e-07 -5.46731e-08 -2.29626e-07)
(4.09266e-06 -1.01381e-05 -2.05458e-06)
(2.84896e-06 -7.08297e-06 -7.99116e-07)
(2.90864e-06 -7.19385e-06 -1.7868e-06)
(4.0428e-06 -1.00018e-05 -9.19717e-07)
(1.07637e-06 -2.43735e-06 -1.10433e-06)
(1.82315e-06 -4.51586e-06 -6.56393e-07)
(9.95435e-07 -2.40624e-06 -4.90486e-07)
(1.89314e-06 -4.59019e-06 -1.47021e-06)
(-5.00411e-12 -4.64584e-15 8.6655e-13)
(3.22379e-12 -1.60046e-11 -1.48779e-11)
(-5.03265e-12 -5.40581e-14 8.6942e-13)
(-4.79922e-12 -2.05628e-13 1.12162e-13)
(-5.02168e-12 5.28071e-14 8.63295e-13)
(-1.48831e-13 -2.02562e-15 1.03668e-13)
(-1.41163e-13 -4.21962e-16 1.22069e-13)
(6.31923e-10 1.12262e-09 -9.08241e-10)
(-2.14669e-10 6.29691e-10 1.49129e-10)
(-1.12938e-12 9.32695e-13 -4.84377e-13)
(-1.19046e-13 1.26054e-15 1.23119e-13)
(-1.05246e-13 2.9782e-15 -8.9441e-14)
(-1.41069e-13 -6.299e-15 5.22618e-14)
(-5.07472e-12 1.32097e-13 8.29799e-13)
(9.34045e-12 -5.18305e-14 5.49537e-11)
(1.20808e-10 -2.54615e-10 1.02293e-10)
(3.40454e-12 -2.25124e-13 6.10198e-11)
(9.45772e-12 -1.2212e-13 5.54432e-11)
(3.35063e-12 -1.26633e-13 6.07129e-11)
(3.54964e-11 -1.09062e-10 9.46303e-11)
(4.15532e-11 -5.90853e-11 7.53079e-11)
(1.23766e-10 -4.2111e-10 2.11276e-10)
(9.73677e-12 -7.07816e-14 5.60063e-11)
(2.7389e-09 -2.66166e-08 -5.4986e-08)
(5.09315e-07 -1.22656e-06 -6.79949e-07)
(2.52904e-06 -6.39985e-06 -1.39625e-06)
(4.30779e-06 -1.0757e-05 -1.67485e-06)
(3.67564e-12 -2.40437e-13 6.158e-11)
(4.36212e-12 -1.54865e-12 6.29295e-11)
(1.04614e-11 -6.35164e-13 5.72822e-11)
(4.499e-09 -2.92674e-09 1.97844e-08)
(5.07033e-07 -1.20037e-06 1.65762e-07)
(2.02098e-06 -5.12086e-06 -1.27972e-06)
(8.02515e-07 -1.98806e-06 -8.51186e-07)
(2.08177e-06 -5.10099e-06 2.58128e-07)
(8.15896e-07 -1.96363e-06 1.95913e-07)
(2.60219e-06 -6.38146e-06 2.70025e-07)
(4.40522e-06 -1.07429e-05 2.83504e-07)
(9.32748e-12 -3.48379e-15 5.48769e-11)
(4.04437e-10 -1.17726e-09 2.01361e-10)
(3.3325e-12 -1.65242e-14 6.05788e-11)
(1.27334e-11 -2.79647e-11 7.18549e-11)
(1.91499e-11 -1.39542e-11 6.49711e-11)
(9.43273e-12 3.54168e-14 5.52108e-11)
(9.5178e-10 -6.79246e-09 3.98204e-10)
(1.07362e-07 -2.19648e-07 -2.87747e-07)
(2.44288e-08 -1.32497e-08 -2.93982e-08)
(1.36161e-07 -2.11986e-07 -3.38602e-07)
(5.43321e-07 -1.22e-06 -8.0304e-07)
(2.77203e-07 -6.32294e-07 -4.93089e-07)
(3.09772e-07 -6.19722e-07 -5.80534e-07)
(2.56075e-06 -6.44648e-06 -1.66928e-06)
(3.082e-06 -7.77372e-06 -1.50055e-06)
(3.11253e-06 -7.82806e-06 -1.79882e-06)
(4.33549e-06 -1.08223e-05 -2.01893e-06)
(3.67615e-06 -9.22998e-06 -1.59321e-06)
(3.70533e-06 -9.29054e-06 -1.91517e-06)
(3.43353e-12 6.97327e-15 6.09451e-11)
(6.34e-12 -6.93071e-12 6.54756e-11)
(1.25723e-11 -3.20705e-12 5.99739e-11)
(9.52381e-08 -1.89921e-07 8.47099e-08)
(1.64371e-08 1.81743e-08 -1.92298e-08)
(1.17835e-07 -1.68457e-07 -4.04487e-08)
(5.29236e-07 -1.18165e-06 -1.12238e-07)
(2.63992e-07 -6.03635e-07 1.30017e-07)
(2.89062e-07 -5.78628e-07 -7.33787e-08)
(1.56151e-06 -3.94991e-06 -1.1504e-06)
(2.05367e-06 -5.1583e-06 -1.52599e-06)
(1.59496e-06 -3.97681e-06 -1.36839e-06)
(8.36728e-07 -1.99176e-06 -1.00776e-06)
(1.15424e-06 -2.90085e-06 -1.00776e-06)
(1.18821e-06 -2.91623e-06 -1.19589e-06)
(1.60786e-06 -3.92856e-06 2.41943e-07)
(2.09038e-06 -5.12894e-06 -2.79933e-07)
(1.61918e-06 -3.94525e-06 -2.37708e-07)
(8.34143e-07 -1.95576e-06 -1.53364e-07)
(1.18447e-06 -2.87799e-06 2.21249e-07)
(1.19899e-06 -2.88246e-06 -1.95393e-07)
(2.60851e-06 -6.41932e-06 -3.21755e-07)
(3.16533e-06 -7.75678e-06 2.77952e-07)
(3.1697e-06 -7.80307e-06 -3.62878e-07)
(4.40644e-06 -1.08015e-05 -4.41813e-07)
(3.76753e-06 -9.21447e-06 2.82296e-07)
(3.77021e-06 -9.26767e-06 -4.03e-07)
(-4.53579e-12 -1.18175e-13 -1.82456e-12)
(-9.0558e-12 -1.46543e-13 1.92057e-12)
(-2.81416e-12 -4.35128e-14 7.20528e-13)
(-4.54161e-12 -4.30741e-14 -1.82496e-12)
(1.20944e-11 -8.84565e-14 5.03341e-11)
(-2.60961e-12 -9.56834e-12 -8.5282e-12)
(-2.78004e-12 -3.67204e-11 -2.68174e-11)
(-1.4651e-13 -4.54584e-12 -4.70587e-12)
(-3.18264e-12 -3.45199e-11 -3.35543e-11)
(8.29927e-11 -1.66515e-10 1.09887e-10)
(7.93209e-07 -1.6661e-06 -1.082e-06)
(-4.53414e-12 1.19779e-13 -1.85986e-12)
(-4.50305e-12 1.21859e-13 -1.94164e-12)
(1.28297e-11 -5.63374e-13 5.18833e-11)
(-9.05642e-12 2.24974e-13 1.81788e-12)
(-2.82647e-12 1.05867e-13 7.06102e-13)
(-3.05603e-09 -1.0419e-08 -1.82805e-08)
(-3.52524e-09 2.63036e-09 4.3051e-10)
(6.35324e-09 1.56805e-08 1.90585e-10)
(-3.47983e-09 1.2082e-08 5.7083e-10)
(2.26589e-06 -5.70856e-06 -9.06557e-07)
(2.32792e-06 -5.70012e-06 3.36452e-07)
(2.04633e-06 -5.07022e-06 -2.7142e-07)
(2.30431e-06 -5.7251e-06 -5.11523e-07)
(2.561e-06 -6.34659e-06 -2.99296e-07)
(6.53095e-07 -1.5576e-06 -2.78053e-07)
(5.0087e-07 -1.19082e-06 -1.35004e-07)
(6.34971e-07 -1.57046e-06 -5.19237e-07)
(6.50225e-07 -1.55934e-06 2.09994e-07)
(8.02533e-07 -1.94899e-06 -1.73238e-07)
(2.40953e-06 -5.92923e-06 -1.94725e-06)
(4.35304e-06 -1.07005e-05 -3.69792e-07)
(5.39176e-09 2.70054e-09 -1.14784e-09)
(-7.00366e-12 -2.58919e-14 -2.90138e-12)
(-1.16541e-12 -6.46337e-15 -8.9474e-13)
(4.3443e-13 -1.41671e-14 2.53954e-12)
(4.3837e-13 -2.22366e-14 2.55122e-12)
(-4.54236e-12 6.55695e-15 -1.82517e-12)
(-4.54156e-12 8.72428e-14 -1.83845e-12)
(1.20854e-11 -1.06724e-14 5.01974e-11)
(-2.8145e-12 3.16308e-14 7.18404e-13)
(-9.06124e-12 9.124e-14 1.90847e-12)
(-3.73986e-12 -2.04873e-12 -3.40403e-12)
(-4.309e-12 -2.48471e-13 -2.22322e-12)
(1.84843e-11 -1.05981e-11 5.84545e-11)
(-8.54433e-12 -1.83945e-12 3.47345e-13)
(-2.68965e-12 3.87105e-14 4.19722e-13)
(-3.59859e-12 -4.1699e-12 -5.70415e-12)
(-1.27517e-12 2.57141e-13 -1.10067e-12)
(3.91048e-12 -2.85136e-12 1.28849e-12)
(1.20885e-12 -1.88519e-13 2.37525e-12)
(-9.66127e-12 -7.02997e-12 -1.77788e-10)
(-8.45016e-11 3.61513e-09 -5.38173e-09)
(7.33865e-10 -1.98945e-09 1.9536e-09)
(1.26089e-11 -7.77981e-11 -1.28718e-10)
(7.24076e-07 -1.55381e-06 -7.72423e-07)
(6.80754e-07 -1.55661e-06 -5.19224e-07)
(5.5885e-07 -1.18243e-06 -5.67387e-07)
(7.00932e-07 -1.58144e-06 -9.71093e-07)
(6.92981e-07 -1.54274e-06 -3.00362e-07)
(8.56642e-07 -1.96174e-06 -7.18216e-07)
(1.49457e-06 -3.53995e-06 -1.54313e-06)
(3.279e-07 -4.47946e-07 -5.72271e-07)
(3.50807e-06 -8.71172e-06 -2.29287e-06)
(4.38289e-06 -1.08408e-05 -1.52018e-06)
(-7.03549e-12 8.50283e-14 -2.91517e-12)
(-1.1727e-12 1.56747e-14 -8.93515e-13)
(4.17208e-13 3.77161e-14 2.53206e-12)
(4.18817e-13 5.60391e-14 2.53933e-12)
(9.43135e-08 -1.78434e-07 -4.35298e-08)
(2.6277e-07 -5.96709e-07 -9.3512e-08)
(1.70432e-07 -3.92262e-07 -2.63684e-07)
(1.78573e-07 -3.65041e-07 -1.33451e-07)
(1.65235e-07 -3.77822e-07 1.19366e-07)
(-2.64021e-09 4.07464e-09 -5.23685e-11)
(-4.80625e-10 6.98638e-09 3.06358e-10)
(3.03479e-08 1.42723e-08 -6.46312e-08)
(-1.91614e-09 -9.55963e-10 3.1813e-09)
(-1.64361e-09 1.16423e-08 -3.25492e-09)
(1.57917e-06 -3.90267e-06 -2.41223e-07)
(1.1633e-06 -2.85761e-06 -2.08565e-07)
(1.34271e-06 -3.3802e-06 -7.31998e-07)
(1.38398e-06 -3.37048e-06 2.82041e-07)
(1.37216e-06 -3.38336e-06 -4.0345e-07)
(2.32445e-06 -5.76953e-06 -9.49497e-07)
(2.35684e-06 -5.81128e-06 -1.40303e-06)
(2.31892e-06 -5.80775e-06 -1.71825e-06)
(2.60026e-06 -6.44845e-06 -1.22993e-06)
(2.08897e-06 -5.15304e-06 -1.1156e-06)
(2.35406e-06 -5.77823e-06 -5.98495e-07)
(3.11945e-06 -7.71863e-06 -3.24941e-07)
(3.71801e-06 -9.17384e-06 -3.48422e-07)
(3.37515e-06 -8.44661e-06 -1.04614e-06)
(3.41925e-06 -8.4729e-06 -6.03599e-07)
(3.45097e-06 -8.43943e-06 3.74052e-07)
(2.33791e-07 -3.82043e-07 -4.95329e-07)
(2.15357e-07 -3.37876e-07 -1.45298e-07)
(3.22522e-07 -5.76932e-07 -4.07463e-07)
(2.52871e-07 -3.44566e-07 -3.94256e-07)
(2.07429e-07 -3.55683e-07 -2.5813e-07)
(1.4759e-07 -1.6928e-07 -2.39327e-07)
(3.42063e-06 -8.57607e-06 -2.00148e-06)
(3.47211e-06 -8.55109e-06 -7.31073e-07)
(3.46356e-06 -8.5921e-06 -1.6545e-06)
(3.7509e-06 -9.3044e-06 -1.43207e-06)
(3.15548e-06 -7.83641e-06 -1.33537e-06)
(3.4362e-06 -8.53334e-06 -1.12035e-06)
(1.40289e-06 -3.43749e-06 -1.37635e-06)
(1.41683e-06 -3.40338e-06 -4.53912e-07)
(1.21333e-06 -2.89462e-06 -8.59824e-07)
(1.43353e-06 -3.42563e-06 -1.10906e-06)
(1.39583e-06 -3.40599e-06 -7.49499e-07)
(1.62537e-06 -3.96361e-06 -9.92259e-07)
(4.2836e-13 5.38298e-15 2.53051e-12)
(-6.99015e-12 2.04663e-14 -2.89225e-12)
(-1.16317e-12 2.11616e-15 -8.90323e-13)
(4.27357e-13 1.32977e-14 2.53339e-12)
(1.51698e-11 -2.7657e-11 -7.55584e-12)
(4.35544e-11 -2.92358e-10 -9.97209e-11)
(1.31254e-12 -4.02246e-12 -8.78382e-12)
(2.50708e-11 -5.17719e-10 -1.24403e-10)
(-6.97546e-12 5.788e-14 -3.127e-12)
(6.03524e-13 8.77046e-14 2.55334e-12)
(4.44491e-13 1.07112e-13 2.5495e-12)
(-1.2071e-12 6.66414e-14 -9.20309e-13)
(5.09793e-12 -1.24056e-14 3.29624e-11)
(1.58606e-10 -3.00004e-10 7.57569e-11)
(5.2838e-12 -8.95115e-14 3.36287e-11)
(1.74304e-11 -1.3776e-11 4.25516e-11)
(5.26423e-12 3.09369e-14 3.34092e-11)
(5.55253e-08 -8.32126e-08 -1.87534e-07)
(-1.8111e-10 -1.54836e-08 -6.07176e-09)
(4.00495e-07 -9.03538e-07 -6.40295e-07)
(2.81425e-06 -7.10085e-06 -1.58965e-06)
(4.00032e-06 -1.00161e-05 -1.79795e-06)
(6.48221e-12 -6.13155e-13 3.55684e-11)
(4.70829e-08 -5.26767e-08 1.58933e-08)
(3.85446e-07 -8.68825e-07 3.74853e-08)
(1.80004e-06 -4.53764e-06 -1.33054e-06)
(9.86831e-07 -2.43233e-06 -1.01603e-06)
(1.84118e-06 -4.51113e-06 1.37543e-08)
(9.98111e-07 -2.40194e-06 3.13386e-08)
(2.87935e-06 -7.07814e-06 -1.27438e-08)
(4.08169e-06 -9.99712e-06 -4.57009e-08)
(1.22127e-11 -1.46844e-13 5.0993e-11)
(-9.04875e-12 -2.62195e-13 1.92084e-12)
(-2.83475e-12 -7.53555e-14 7.30634e-13)
(5.17204e-12 -5.16668e-14 3.32065e-11)
(-5.0223e-12 -2.75192e-14 8.51919e-13)
(-5.03595e-12 -4.24054e-14 8.56379e-13)
(1.2004e-11 -4.15049e-14 5.0158e-11)
(-2.8243e-12 -8.68545e-15 7.2439e-13)
(-9.04168e-12 -3.72346e-14 1.91243e-12)
(3.25783e-11 -4.23262e-11 6.98958e-11)
(-7.18418e-12 -9.15536e-12 -4.50407e-12)
(-2.18946e-12 -7.60814e-13 -5.41572e-13)
(4.76442e-11 -6.17094e-11 5.20913e-11)
(-1.25748e-12 -5.96597e-12 -6.20816e-12)
(-4.37346e-12 -7.7585e-13 -7.07082e-13)
(2.62062e-10 -6.29386e-10 3.12294e-10)
(8.19182e-12 -1.98151e-11 -2.31272e-11)
(6.12054e-07 -1.1977e-06 -7.98652e-07)
(9.06778e-07 -1.98455e-06 -1.00531e-06)
(1.11537e-06 -2.53011e-06 -1.31938e-06)
(5.308e-07 -9.66203e-07 -8.32377e-07)
(4.11691e-06 -1.02177e-05 -2.44412e-06)
(4.41156e-06 -1.09161e-05 -2.11409e-06)
(-2.60691e-14 6.55777e-16 1.9066e-13)
(-1.25813e-14 1.02932e-15 1.92072e-13)
(1.22663e-11 -9.41597e-14 5.08454e-11)
(-2.83603e-12 6.8767e-14 7.25137e-13)
(-9.05287e-12 1.88773e-13 1.88786e-12)
(1.42158e-11 -2.57915e-12 5.41264e-11)
(-8.94178e-12 -7.51161e-14 1.51762e-12)
(-2.82388e-12 1.46756e-13 6.57065e-13)
(5.62668e-12 -6.83483e-14 3.42248e-11)
(-5.04557e-12 7.29902e-14 8.51503e-13)
(-5.07027e-12 1.05721e-13 8.33539e-13)
(-2.99763e-13 3.14729e-13 -2.19784e-13)
(-9.20622e-14 3.44975e-14 -1.75219e-13)
(5.74529e-09 -4.004e-08 1.06954e-07)
(2.09444e-09 -2.13853e-09 9.85351e-10)
(3.07036e-08 -8.61101e-09 -1.36967e-07)
(4.94601e-08 -4.51068e-08 -5.16788e-08)
(3.48258e-08 -6.18698e-08 6.02998e-08)
(1.434e-08 1.21443e-08 -3.24745e-08)
(2.23336e-11 -1.1174e-09 -6.99916e-09)
(-3.08548e-09 4.06403e-09 1.69763e-10)
(1.77918e-06 -4.48652e-06 -8.23854e-07)
(1.83169e-06 -4.47744e-06 3.11445e-07)
(1.81351e-06 -4.49681e-06 -4.59548e-07)
(2.28382e-06 -5.7689e-06 -1.46673e-06)
(2.57559e-06 -6.40429e-06 -7.65545e-07)
(2.06222e-06 -5.11909e-06 -6.94199e-07)
(2.33788e-06 -5.7443e-06 1.48182e-09)
(2.79913e-06 -7.03287e-06 -9.80516e-07)
(2.8408e-06 -7.05475e-06 -5.59507e-07)
(2.8689e-06 -7.02507e-06 3.57233e-07)
(5.22989e-07 -1.1947e-06 -3.49895e-07)
(6.63981e-07 -1.58784e-06 -8.36293e-07)
(6.60476e-07 -1.55542e-06 3.61168e-08)
(8.23036e-07 -1.96384e-06 -4.45207e-07)
(3.70649e-07 -8.95468e-07 -3.97366e-07)
(3.83197e-07 -8.74738e-07 -2.08303e-07)
(3.73474e-07 -8.83214e-07 1.67449e-07)
(9.60137e-07 -2.40347e-06 -6.30602e-07)
(9.8874e-07 -2.39308e-06 2.48197e-07)
(9.84066e-07 -2.39879e-06 -3.43035e-07)
(1.92722e-06 -4.6783e-06 -1.75251e-06)
(2.93773e-06 -7.27816e-06 -2.12732e-06)
(2.6378e-06 -6.50701e-06 -1.71227e-06)
(2.12958e-06 -5.20347e-06 -1.55399e-06)
(4.36408e-06 -1.07753e-05 -9.4652e-07)
(3.99025e-06 -9.93766e-06 -1.10388e-06)
(4.03601e-06 -9.9675e-06 -6.43888e-07)
(4.07052e-06 -9.93109e-06 3.87241e-07)
(-3.84436e-14 -1.84002e-15 1.61021e-13)
(-2.2784e-14 -2.4774e-15 1.51566e-13)
(1.7281e-07 -1.21502e-07 -2.98511e-07)
(6.00433e-08 4.69029e-09 -1.00862e-07)
(-3.694e-09 2.89954e-10 1.25395e-08)
(-6.99104e-12 5.93214e-16 -2.90521e-12)
(-1.15941e-12 -1.58881e-15 -8.8526e-13)
(-7.03172e-12 -4.99105e-14 -2.92822e-12)
(-1.16638e-12 -9.24112e-15 -8.9199e-13)
(5.14179e-12 1.8797e-14 3.30639e-11)
(-5.01668e-12 1.06677e-14 8.53272e-13)
(-5.02849e-12 3.06191e-14 8.4732e-13)
(9.06362e-12 -3.08382e-12 3.80874e-11)
(-4.99132e-12 4.5885e-14 4.90473e-13)
(-5.09076e-12 1.56225e-13 7.75132e-13)
(7.82995e-12 -2.89227e-11 -1.62802e-11)
(-1.16735e-12 2.97269e-13 -1.8004e-12)
(-6.40383e-12 -5.84899e-13 -3.65804e-12)
(-1.24916e-12 9.81066e-14 -9.77076e-13)
(4.95583e-10 -1.73802e-09 1.09373e-10)
(1.25059e-11 -4.70764e-11 -3.63628e-11)
(1.60345e-10 -5.86971e-10 -2.837e-10)
(4.37474e-07 -8.89035e-07 -7.42532e-07)
(4.58099e-07 -8.55162e-07 -5.88424e-07)
(4.12444e-07 -8.65417e-07 -3.92388e-07)
(4.21675e-07 -8.47876e-07 -2.2212e-07)
(1.02352e-06 -2.43714e-06 -1.18201e-06)
(1.05021e-06 -2.41716e-06 -9.46029e-07)
(1.0097e-06 -2.40928e-06 -6.3823e-07)
(1.0261e-06 -2.40074e-06 -3.77978e-07)
(1.26026e-06 -2.9265e-06 -1.20037e-06)
(1.66912e-06 -4.00498e-06 -1.38334e-06)
(3.77905e-07 -5.87263e-07 -5.80943e-07)
(2.0079e-07 -1.77243e-07 -3.51527e-07)
(3.78246e-06 -9.37544e-06 -1.99213e-06)
(3.19e-06 -7.90189e-06 -1.85827e-06)
(4.03195e-06 -1.00776e-05 -2.12244e-06)
(4.07638e-06 -1.00986e-05 -1.76463e-06)
(4.05144e-06 -1.00336e-05 -1.19517e-06)
(4.08946e-06 -1.00549e-05 -7.92209e-07)
(-3.12874e-14 -4.4863e-16 1.82844e-13)
(-2.98629e-14 1.44514e-16 1.88432e-13)
(-7.01148e-12 5.30422e-14 -2.91087e-12)
(-1.16477e-12 6.08266e-15 -8.88324e-13)
(-1.18708e-12 2.39255e-14 -9.01888e-13)
(-7.06598e-12 1.08147e-13 -2.98877e-12)
(2.96752e-14 1.39397e-15 6.02988e-14)
(-4.62105e-14 -3.62392e-15 7.54462e-14)
(-3.68516e-11 7.96577e-11 -4.30585e-12)
(-2.9319e-12 3.28906e-12 -7.32893e-13)
(1.9789e-07 -3.97389e-07 -4.26731e-07)
(1.15057e-07 -1.80043e-07 -1.40422e-07)
(2.8567e-07 -5.93948e-07 -2.48278e-07)
(1.79141e-07 -3.59994e-07 3.32947e-08)
(8.75803e-08 -8.61057e-08 -2.31594e-07)
(6.67157e-08 -5.09316e-08 -1.17248e-07)
(1.01875e-07 -4.82329e-08 -1.89175e-07)
(7.38368e-08 -3.79162e-08 -7.39289e-08)
(-7.16176e-10 3.70931e-10 -3.41315e-09)
(-6.88821e-12 -3.69686e-10 7.51792e-11)
(1.36656e-06 -3.42066e-06 -1.18052e-06)
(1.59646e-06 -3.94118e-06 -6.17141e-07)
(1.18212e-06 -2.88453e-06 -5.34214e-07)
(1.3932e-06 -3.39223e-06 2.37892e-08)
(2.8484e-06 -7.14876e-06 -1.86694e-06)
(2.85932e-06 -7.10796e-06 -1.0385e-06)
(2.88916e-06 -7.15896e-06 -1.53402e-06)
(2.89241e-06 -7.12152e-06 -6.66421e-07)
(1.83586e-06 -4.56602e-06 -1.5549e-06)
(1.83535e-06 -4.53096e-06 -8.53205e-07)
(1.87036e-06 -4.56213e-06 -1.26139e-06)
(1.86088e-06 -4.53421e-06 -5.27555e-07)
(3.38765e-06 -8.5206e-06 -1.69986e-06)
(3.13282e-06 -7.78357e-06 -8.31305e-07)
(3.73019e-06 -9.24443e-06 -8.91591e-07)
(3.46184e-06 -8.49976e-06 -2.85937e-08)
(9.39662e-12 -8.78499e-14 5.5128e-11)
(1.19893e-11 -5.57289e-14 4.99433e-11)
(5.06694e-12 -3.48532e-14 3.29634e-11)
(9.34209e-12 -2.56885e-14 5.50155e-11)
(6.89909e-11 -1.22054e-10 8.49546e-11)
(1.47255e-10 -3.26204e-10 1.6961e-10)
(8.5864e-11 -1.33941e-10 6.1163e-11)
(2.17239e-10 -5.39191e-10 1.34655e-10)
(1.20924e-11 -1.05804e-13 5.03829e-11)
(3.41577e-12 -1.67451e-13 6.0976e-11)
(3.49648e-12 -3.01222e-13 6.14361e-11)
(9.56261e-12 -1.46724e-13 5.59175e-11)
(5.16457e-12 -6.97058e-14 3.33145e-11)
(3.37288e-12 -7.99249e-14 6.0747e-11)
(4.99614e-11 -8.41119e-11 8.29635e-11)
(6.47928e-11 -2.14942e-10 1.28507e-10)
(2.05322e-11 -5.53902e-11 7.93841e-11)
(2.69641e-11 -2.87206e-11 6.92301e-11)
(2.77308e-11 -2.89974e-11 4.6309e-11)
(1.24304e-11 -2.41738e-13 5.10121e-11)
(1.0022e-11 -2.48896e-13 5.65237e-11)
(9.57414e-12 9.6016e-15 5.5702e-11)
(5.35618e-12 7.11797e-15 3.36956e-11)
(6.54438e-07 -1.29449e-06 -9.58605e-07)
(2.48858e-09 -2.8816e-09 -8.64258e-08)
(1.09314e-08 1.33341e-08 -1.86341e-08)
(-8.92161e-09 -1.64024e-08 3.72928e-09)
(4.00382e-08 -7.87196e-08 -1.68453e-07)
(6.94428e-09 -2.21043e-08 -4.69324e-08)
(4.94991e-07 -1.21232e-06 -4.59664e-07)
(5.10266e-07 -1.19543e-06 -2.43784e-07)
(6.48429e-07 -1.58743e-06 -7.67455e-07)
(5.24694e-07 -1.22458e-06 -7.40398e-07)
(3.85442e-07 -9.07436e-07 -5.88547e-07)
(9.70856e-08 -3.18548e-08 -1.47589e-07)
(4.43463e-06 -1.09944e-05 -2.51447e-06)
(2.26916e-06 -5.74769e-06 -1.33955e-06)
(2.52693e-06 -6.35875e-06 -9.44605e-07)
(2.56708e-06 -6.37807e-06 -5.36007e-07)
(2.54343e-06 -6.42311e-06 -1.52981e-06)
(2.80013e-06 -7.07573e-06 -1.44989e-06)
(2.66813e-06 -6.59231e-06 -2.03911e-06)
(4.3113e-06 -1.07086e-05 -1.12994e-06)
(4.35763e-06 -1.07399e-05 -6.62634e-07)
(4.32024e-06 -1.07888e-05 -1.84266e-06)
(3.98751e-06 -9.98534e-06 -1.63537e-06)
(3.98442e-12 -6.53716e-13 6.23137e-11)
(3.56651e-12 -6.66988e-14 6.13581e-11)
(1.32866e-11 -1.23064e-12 5.25202e-11)
(5.12376e-12 -3.35154e-12 6.41226e-11)
(1.12612e-11 -1.47334e-12 5.85916e-11)
(5.89025e-12 -2.40681e-13 3.46899e-11)
(2.32228e-09 -5.09764e-09 2.75811e-08)
(5.03766e-07 -1.20071e-06 1.89279e-07)
(2.01649e-06 -5.08393e-06 -8.66322e-07)
(7.90164e-07 -1.96812e-06 -5.76197e-07)
(2.07398e-06 -5.07517e-06 3.2449e-07)
(8.12103e-07 -1.95737e-06 2.29633e-07)
(3.99233e-08 -6.33859e-08 5.26051e-08)
(9.48528e-09 1.00602e-08 2.60307e-09)
(6.53658e-07 -1.56217e-06 1.81461e-07)
(5.14782e-07 -1.19106e-06 3.73013e-08)
(3.7681e-07 -8.80213e-07 1.48696e-07)
(9.46956e-07 -2.07874e-06 -1.20232e-06)
(2.05297e-06 -5.09746e-06 -4.86042e-07)
(1.78494e-06 -4.52103e-06 -1.21669e-06)
(2.03587e-06 -5.13985e-06 -1.40033e-06)
(8.11198e-07 -1.95935e-06 -3.11132e-07)
(8.18123e-07 -1.99111e-06 -9.28125e-07)
(9.71235e-07 -2.4265e-06 -9.31256e-07)
(2.16241e-06 -5.29064e-06 -1.85172e-06)
(2.3364e-06 -5.72856e-06 2.64595e-07)
(1.83876e-06 -4.50042e-06 2.50588e-07)
(2.08369e-06 -5.1143e-06 7.88133e-09)
(8.21808e-07 -1.95973e-06 3.40994e-08)
(9.93046e-07 -2.40287e-06 2.09168e-07)
(2.59305e-06 -6.35063e-06 3.47356e-07)
(4.39325e-06 -1.07023e-05 3.9259e-07)
(2.60326e-06 -6.39946e-06 -5.40622e-09)
(2.87865e-06 -7.05806e-06 2.74462e-07)
(4.40452e-06 -1.07707e-05 -5.46031e-08)
(4.08216e-06 -9.97053e-06 2.83264e-07)
(5.05492e-12 5.79974e-15 3.29069e-11)
(1.19696e-11 -1.49727e-14 4.98602e-11)
(9.37185e-12 2.27447e-14 5.49661e-11)
(2.925e-10 -7.02387e-10 9.82868e-11)
(4.93005e-10 -1.14909e-09 7.02611e-10)
(7.48743e-10 -2.67085e-09 3.34193e-10)
(3.41776e-12 2.21252e-14 6.08641e-11)
(2.33701e-11 -2.12421e-11 6.2422e-11)
(8.63485e-12 -1.40088e-11 6.79515e-11)
(1.19512e-11 -6.55009e-12 3.99093e-11)
(1.49189e-11 -6.73839e-12 6.20171e-11)
(5.12381e-12 2.7889e-14 3.30899e-11)
(1.20992e-11 -2.50174e-14 5.01824e-11)
(5.61719e-07 -1.21354e-06 -8.59095e-07)
(5.83444e-07 -1.18254e-06 -6.81709e-07)
(4.22172e-07 -6.83416e-07 -7.03555e-07)
(3.2822e-07 -6.10814e-07 -6.2128e-07)
(3.48039e-07 -5.74734e-07 -4.92597e-07)
(6.53945e-10 -4.87344e-09 -2.67199e-10)
(1.08015e-09 -3.35642e-09 9.93436e-09)
(1.19459e-07 -2.16435e-07 -3.11472e-07)
(1.84125e-07 -4.02353e-07 -3.93418e-07)
(9.56001e-08 -2.10573e-07 -1.89184e-07)
(1.03944e-07 -1.80796e-07 -9.35129e-08)
(7.08666e-08 -8.38254e-08 -2.07224e-07)
(3.88976e-08 -2.52496e-08 -1.02514e-07)
(2.09469e-08 1.24692e-08 -4.69868e-08)
(2.1559e-07 -3.90553e-07 -4.62243e-07)
(1.53726e-07 -2.05915e-07 -3.6494e-07)
(1.29058e-07 -1.75881e-07 -1.88454e-07)
(4.19003e-07 -8.97131e-07 -6.94083e-07)
(5.38827e-07 -1.18965e-06 -4.56778e-07)
(6.82624e-07 -1.58568e-06 -9.07546e-07)
(2.91575e-07 -6.27062e-07 -5.35818e-07)
(2.62486e-07 -6.22054e-07 -3.32251e-07)
(2.72546e-07 -5.97465e-07 -1.71633e-07)
(3.01915e-07 -5.86503e-07 -3.26128e-07)
(2.46228e-07 -2.6083e-07 -4.3812e-07)
(4.23058e-08 1.07066e-08 -8.23436e-08)
(1.71506e-07 -1.67974e-07 -2.93319e-07)
(3.8079e-06 -9.45639e-06 -2.37026e-06)
(4.35113e-06 -1.08528e-05 -2.17802e-06)
(4.39606e-06 -1.08759e-05 -1.81589e-06)
(3.72163e-06 -9.31829e-06 -2.06362e-06)
(3.76539e-06 -9.33691e-06 -1.71085e-06)
(2.83128e-06 -7.1264e-06 -1.73574e-06)
(2.57808e-06 -6.46667e-06 -1.79439e-06)
(2.30139e-06 -5.7899e-06 -1.59939e-06)
(2.5864e-06 -6.42709e-06 -9.94903e-07)
(3.09581e-06 -7.80053e-06 -1.6463e-06)
(3.37415e-06 -8.49229e-06 -1.5483e-06)
(3.08202e-06 -7.72934e-06 -1.01434e-06)
(3.12502e-06 -7.75354e-06 -5.82034e-07)
(3.1294e-06 -7.8524e-06 -1.93595e-06)
(3.40403e-06 -8.54993e-06 -1.85861e-06)
(3.14274e-06 -7.81056e-06 -1.08031e-06)
(3.21786e-06 -7.98516e-06 -2.2119e-06)
(2.61751e-06 -6.47365e-06 -1.46985e-06)
(3.17133e-06 -7.86563e-06 -1.59556e-06)
(4.01597e-06 -1.00485e-05 -1.96859e-06)
(4.37231e-06 -1.08083e-05 -1.22999e-06)
(3.6893e-06 -9.25962e-06 -1.75038e-06)
(3.67804e-06 -9.1832e-06 -1.07597e-06)
(3.72307e-06 -9.21137e-06 -6.24214e-07)
(3.73925e-06 -9.27484e-06 -1.15863e-06)
(1.57039e-11 -5.27282e-12 5.56222e-11)
(7.37677e-12 -1.40968e-12 3.66062e-11)
(8.98812e-08 -1.90815e-07 9.26942e-08)
(2.60291e-07 -6.08289e-07 1.44328e-07)
(1.55444e-06 -3.91803e-06 -7.79093e-07)
(1.14447e-06 -2.87475e-06 -6.82518e-07)
(1.60153e-06 -3.90863e-06 2.97298e-07)
(1.17955e-06 -2.8647e-06 2.65671e-07)
(5.49362e-07 -1.17365e-06 -2.61224e-07)
(3.10285e-07 -5.68251e-07 -1.83341e-07)
(1.03878e-07 -1.78796e-07 2.70864e-08)
(1.69562e-07 -3.729e-07 1.09007e-07)
(5.82295e-08 -4.42489e-08 -2.86831e-08)
(2.63162e-08 2.35933e-08 -4.21896e-08)
(1.94661e-07 -3.4791e-07 -5.57721e-08)
(1.36734e-07 -1.60031e-07 -1.08542e-07)
(4.00758e-07 -8.57484e-07 -9.23816e-08)
(6.739e-07 -1.54853e-06 -1.32631e-07)
(2.73288e-07 -5.90971e-07 3.637e-08)
(8.54953e-07 -1.99011e-06 -1.07868e-06)
(8.7978e-07 -1.96619e-06 -8.60538e-07)
(1.29805e-06 -3.01791e-06 -1.43301e-06)
(1.20629e-06 -2.9203e-06 -1.2812e-06)
(1.23494e-06 -2.90437e-06 -1.02887e-06)
(1.57679e-06 -3.96398e-06 -1.2573e-06)
(1.35114e-06 -3.40926e-06 -1.08078e-06)
(1.58641e-06 -3.92486e-06 -4.32025e-07)
(1.81804e-06 -4.55335e-06 -1.44901e-06)
(2.07136e-06 -5.17363e-06 -1.63844e-06)
(2.07395e-06 -5.13693e-06 -9.0227e-07)
(1.38487e-06 -3.43048e-06 -1.28404e-06)
(1.61289e-06 -3.98669e-06 -1.46756e-06)
(1.60915e-06 -3.95338e-06 -8.02287e-07)
(1.00536e-06 -2.43598e-06 -1.10383e-06)
(8.37853e-07 -1.9639e-06 -5.79705e-07)
(1.16977e-06 -2.90948e-06 -1.10013e-06)
(1.17121e-06 -2.87407e-06 -3.73796e-07)
(1.19585e-06 -2.89065e-06 -6.94821e-07)
(1.70444e-06 -4.09409e-06 -1.64964e-06)
(2.10763e-06 -5.17354e-06 -1.33355e-06)
(1.64549e-06 -3.97887e-06 -1.18656e-06)
(8.52067e-07 -1.95257e-06 -3.39329e-07)
(1.21454e-06 -2.88505e-06 -4.162e-07)
(1.61084e-06 -3.93651e-06 1.90676e-08)
(1.3896e-06 -3.38716e-06 2.3217e-07)
(1.84866e-06 -4.52289e-06 -2.58852e-07)
(2.10158e-06 -5.14297e-06 -5.63383e-07)
(2.34382e-06 -5.76164e-06 -3.00912e-07)
(1.40245e-06 -3.39782e-06 -2.16541e-07)
(1.63246e-06 -3.95373e-06 -4.91048e-07)
(1.00937e-06 -2.40111e-06 -1.74313e-07)
(1.18877e-06 -2.88008e-06 2.78898e-08)
(3.15503e-06 -7.72185e-06 3.66118e-07)
(3.75628e-06 -9.17633e-06 3.81078e-07)
(4.41114e-06 -1.08311e-05 -8.21385e-07)
(3.7763e-06 -9.29442e-06 -7.62095e-07)
(2.88396e-06 -7.10032e-06 -3.42422e-07)
(2.61783e-06 -6.4383e-06 -6.32852e-07)
(3.1657e-06 -7.77875e-06 -2.04875e-08)
(3.46178e-06 -8.47607e-06 2.80545e-07)
(3.17733e-06 -7.8263e-06 -6.99172e-07)
(3.46527e-06 -8.526e-06 -3.83083e-07)
(4.08408e-06 -1.00266e-05 -4.2259e-07)
(3.76732e-06 -9.23969e-06 -3.70143e-08)
(-2.81798e-12 -2.02518e-14 7.13317e-13)
(2.55452e-12 -9.80551e-12 -1.06084e-11)
(-9.0631e-12 -2.05376e-13 1.87167e-12)
(-5.4963e-12 -1.80413e-11 -1.12455e-11)
(-9.06047e-12 -8.78394e-14 1.86649e-12)
(6.38556e-12 -6.16531e-11 -5.78007e-11)
(-2.8233e-12 -7.00867e-14 7.20493e-13)
(-1.50059e-12 -1.98979e-12 -1.89842e-12)
(-2.8316e-12 7.89785e-14 7.12795e-13)
(1.55736e-09 1.59813e-09 -4.1221e-09)
(-9.03543e-12 1.58691e-13 1.65646e-12)
(-9.07077e-12 2.18592e-13 1.80713e-12)
(-2.82905e-12 1.40545e-13 6.78524e-13)
(-4.22586e-09 1.36394e-09 7.36533e-10)
(-2.81709e-12 9.65794e-16 7.14581e-13)
(-7.0259e-12 2.4521e-14 -3.04934e-12)
(-7.03246e-12 -4.47291e-14 -3.05791e-12)
(1.89534e-11 -3.86115e-11 -5.21085e-11)
(2.18071e-11 -8.50683e-11 -3.67172e-11)
(2.23344e-13 -1.07985e-11 -8.88203e-12)
(-8.06048e-12 -4.26345e-12 -1.27104e-12)
(-9.06443e-12 2.36973e-14 1.85573e-12)
(-7.05081e-12 -2.98902e-14 -3.06467e-12)
(-5.55104e-12 -1.54417e-12 -4.46149e-12)
(-6.82779e-12 -1.16436e-13 -3.43522e-12)
(-2.52172e-12 -1.9149e-13 1.02485e-13)
(-7.06307e-12 8.58243e-14 -3.06145e-12)
(-7.03579e-12 1.49795e-14 -3.05688e-12)
(-2.82525e-12 5.79431e-14 7.13271e-13)
(-1.09554e-12 1.12492e-15 -8.0101e-13)
(-1.10565e-12 1.55923e-14 -8.10594e-13)
(-1.09537e-12 -6.45998e-15 -8.0147e-13)
(-1.09514e-12 5.34364e-15 -8.03195e-13)
(-4.99098e-09 -4.42404e-09 -7.43546e-09)
(1.08178e-10 -1.06807e-09 -4.00972e-10)
(-2.12058e-10 -5.56074e-10 -4.22666e-10)
(8.17417e-12 -3.74817e-11 -3.24467e-11)
(-1.23706e-09 -1.89138e-09 7.1433e-09)
(-1.19421e-12 2.66871e-13 -1.21535e-12)
(-6.23687e-13 4.74314e-14 -3.19089e-12)
(-8.8133e-12 -6.42574e-13 1.08249e-12)
(-9.07188e-12 1.50113e-13 1.84711e-12)
(-1.09726e-12 -3.33308e-15 -8.02431e-13)
(-1.15933e-12 7.70167e-14 -8.62658e-13)
(-1.22745e-12 1.81874e-13 -9.5918e-13)
(-1.11399e-12 1.67974e-14 -8.17285e-13)
(-1.14378e-12 5.16621e-14 -8.40306e-13)
(-2.77868e-12 1.20077e-13 5.71332e-13)
(-7.08974e-12 1.4666e-13 -3.17517e-12)
(-7.08678e-12 8.07987e-14 -3.08867e-12)
(-2.29799e-09 7.91084e-09 -1.12085e-09)
(-3.79326e-12 -3.54815e-14 -8.34594e-12)
(-3.81403e-12 2.12982e-14 -8.40669e-12)
(1.97673e-11 -2.17e-11 2.3368e-12)
(1.8652e-10 -3.26947e-10 3.03166e-11)
(-3.76978e-12 -3.51363e-14 -8.30552e-12)
(8.58358e-12 -9.36973e-12 -5.64828e-13)
(-1.59508e-12 -7.00837e-13 -5.40057e-12)
(-3.3181e-12 -7.54566e-15 -4.59415e-12)
(-3.33182e-12 -8.47353e-16 -4.63571e-12)
(-3.63277e-12 7.33789e-14 -7.93308e-12)
(-3.79653e-12 1.98006e-14 -8.35043e-12)
(-3.2263e-12 3.68569e-14 -4.3427e-12)
(-3.3245e-12 2.1728e-14 -4.60871e-12)
(6.40271e-07 -1.38577e-06 -9.57553e-07)
(2.90102e-07 -4.80268e-07 -5.85573e-07)
(5.77692e-12 -4.45868e-12 3.44005e-12)