/*--------------------------------*- C++ -*----------------------------------*\
| =========                 |                                                 |
| \\      /  F ield         | OpenFOAM: The Open Source CFD Toolbox           |
|  \\    /   O peration     | Version:  2012                                  |
|   \\  /    A nd           | Website:  www.openfoam.com                      |
|    \\/     M anipulation  |                                                 |
\*---------------------------------------------------------------------------*/
FoamFile
{
    version     2.0;
    format      ascii;
    class       volVectorField;
    location    "0.104/solid";
    object      sigmaMinDir;
}
// * * * * * * * * * * * * * * * * * * * * * * * * * * * * * * * * * * * * * //

dimensions      [1 -1 -2 0 0 0 0];


internalField   nonuniform List<vector> 
3125
(
(0.0802061 -0.00433865 0.996769)
(0.161643 -0.463545 0.871205)
(0.0469798 -0.000441399 0.998896)
(0.0804906 -9.36227e-05 0.996755)
(0.0467364 -0.00129888 0.998906)
(0.114239 -0.242306 0.963451)
(0.170108 -0.420469 0.891218)
(0.105956 -0.283324 0.953153)
(0.0842697 0.00171725 0.996442)
(0.101061 0.991227 0.0851822)
(-0.134873 0.990196 -0.0363533)
(-0.215689 0.974965 -0.0540518)
(0.0498429 -0.000986741 0.998757)
(0.0520576 -0.00531019 0.99863)
(0.085583 -0.00445138 0.996321)
(0.151907 0.230277 0.961196)
(0.786021 -0.0956607 0.610754)
(-0.201102 0.978297 -0.0499266)
(-0.140208 0.989447 -0.0365661)
(0.788474 -0.0925316 0.608067)
(0.782826 -0.0939217 0.615112)
(0.79153 -0.0925962 0.604074)
(0.99359 -0.00114062 0.11304)
(0.0802333 0.00322547 0.996771)
(0.993923 0.00160656 0.110066)
(0.48475 -0.139167 0.86351)
(0.0488629 -0.58172 0.81192)
(0.258009 -0.375512 0.890181)
(0.993308 -0.00453674 0.115402)
(0.0468 0.000865357 0.998904)
(0.0840116 -0.0782905 0.993384)
(0.128875 -0.092801 0.987309)
(0.534257 -0.0917346 0.84033)
(0.929694 0.110793 0.351274)
(0.824248 0.00708943 -0.566185)
(0.826974 -0.00477034 -0.56222)
(0.0804202 -0.00114788 0.99676)
(0.990903 0.0164274 0.133574)
(0.993813 0.0016625 0.111054)
(0.804651 -0.018964 -0.593445)
(0.825584 -0.00555956 -0.564252)
(0.0580026 0.998304 -0.00490749)
(0.010528 0.99994 -0.00293539)
(0.177277 -0.177363 0.968047)
(0.252083 -0.376773 0.891345)
(0.0780277 -0.592707 0.80163)
(-0.122044 0.992155 -0.02709)
(0.162897 0.975675 0.146705)
(0.00862084 0.999936 -0.00733848)
(0.157314 -0.457619 0.875121)
(0.156667 0.987646 -0.00321841)
(-0.106608 0.993555 -0.0384986)
(0.0408051 0.999142 -0.00715548)
(0.105722 0.991808 0.0716972)
(-0.00603824 0.999979 -0.0021934)
(0.165656 -0.454497 0.875209)
(0.0495683 0.998771 -0.000134206)
(0.169122 0.985584 0.00460576)
(-0.283676 0.95605 -0.0741336)
(0.173922 0.984717 0.00914731)
(0.0545901 0.998507 -0.0021297)
(0.0501246 0.998743 -0.000420957)
(-0.320732 0.943311 -0.0854139)
(0.175566 0.984417 0.00999664)
(0.821861 0.0105381 -0.56959)
(0.0470381 -0.000252222 0.998893)
(0.0709488 -0.043079 0.996549)
(0.118365 -0.0632206 0.990956)
(0.989763 0.0169699 0.141712)
(0.950297 0.106458 0.292579)
(0.115948 -0.160399 0.980218)
(-0.595172 -0.0266188 0.803157)
(0.795675 -0.0189573 -0.605427)
(-0.661345 -0.0112114 0.749998)
(0.992253 0.0901978 0.0854246)
(0.994278 0.0764181 0.0746373)
(0.789065 -0.169884 0.590352)
(0.459803 0.84605 0.269777)
(0.992821 0.0805835 0.0883899)
(0.985086 0.141312 0.0981668)
(0.794067 -0.124635 0.594915)
(0.9913 0.0991542 0.0865554)
(0.460832 0.855137 0.237433)
(0.99426 0.074127 0.0771553)
(0.0594938 0.998217 -0.00485019)
(0.0600647 0.998187 -0.00389788)
(-0.168909 0.984757 -0.0415151)
(0.16899 0.985609 0.00407945)
(0.16986 0.985468 0.000845804)
(0.161398 0.986886 -0.00270592)
(-0.160677 0.986209 -0.0396733)
(0.169993 0.985445 0.000420395)
(0.0552343 0.998471 -0.00234781)
(0.0595489 0.998218 -0.00372352)
(0.991907 0.0913924 0.0881363)
(0.989964 0.094857 0.104752)
(0.781289 -0.0923304 0.617303)
(0.981513 0.135655 0.13502)
(0.981819 0.14632 0.120917)
(0.984486 0.143523 0.100941)
(0.780113 -0.0923547 0.618785)
(0.981978 0.147071 0.118701)
(0.988698 0.0917369 0.11858)
(0.989763 0.0947697 0.106714)
(0.987712 0.0828594 0.132508)
(0.981543 0.133491 0.136944)
(0.801081 -0.0923294 0.591393)
(0.981844 0.115251 0.150663)
(0.988582 0.0909639 0.120129)
(0.987828 0.0840182 0.13091)
(0.804119 -0.092137 0.587285)
(0.981871 0.112274 0.152725)
(-0.0122432 -0.00191252 0.999923)
(0.0804697 0.00185486 0.996755)
(-0.013531 -0.0004221 0.999908)
(0.214869 -0.388207 0.896173)
(0.106482 -0.541272 0.834078)
(0.21323 -0.484236 0.848556)
(0.0471572 -0.00201586 0.998885)
(0.0813135 -0.00604666 0.99667)
(-0.0120795 -0.00182657 0.999925)
(-0.0114063 -0.00323989 0.99993)
(0.0465297 0.000329225 0.998917)
(0.112261 -0.185447 0.976221)
(0.174356 -0.269628 0.947049)
(0.201758 -0.343092 0.917378)
(0.130187 -0.191994 0.972723)
(0.0822603 -0.00108415 0.99661)
(-0.00691532 0.00180808 0.999974)
(-0.0110044 0.00194783 0.999938)
(-0.0778628 0.996948 -0.00561068)
(-0.0780536 0.996937 -0.00485548)
(0.687464 0.531493 -0.494883)
(-0.155355 0.982609 0.101709)
(0.0967123 0.993538 -0.0594125)
(-0.186148 0.981889 -0.0352582)
(0.119047 0.721259 -0.682358)
(0.0691582 0.997296 -0.0248385)
(-0.128779 0.990989 -0.0368218)
(0.0132977 0.999365 -0.0330525)
(0.728194 -0.650306 0.216416)
(-0.0445097 0.998991 0.00596847)
(-0.0865984 0.996226 -0.00592537)
(0.144723 0.989465 -0.00379397)
(-0.233472 0.97056 -0.0591927)
(0.174134 0.984715 0.00380084)
(-0.0811277 0.996684 -0.0062057)
(-0.0823347 0.996586 -0.00615741)
(-0.439346 0.889905 -0.122654)
(0.976173 -0.0132486 0.21659)
(0.0483185 -0.00101924 0.998831)
(0.0556225 -0.00999021 0.998402)
(0.0934541 -0.0104683 0.995569)
(-0.00506985 0.000521563 0.999987)
(0.00305468 -0.00498008 0.999983)
(0.99766 -0.0614879 0.0298975)
(0.997754 -0.061452 0.0266677)
(0.596912 0.00111971 0.802306)
(0.319189 0.833654 0.45071)
(0.897 -0.399453 0.189283)
(0.970985 -0.0319395 0.236996)
(0.789938 -0.0990647 0.605131)
(0.973825 -0.0448961 0.222823)
(0.273803 0.956745 0.0983362)
(0.732028 0.67854 0.0609749)
(-0.0778564 0.996948 -0.00576707)
(-0.0780238 0.996933 -0.0060681)
(-0.188798 0.980912 -0.0465601)
(0.137573 0.990474 -0.00595322)
(0.130727 0.991379 -0.0089007)
(0.0811521 0.996445 -0.022621)
(-0.146449 0.98852 -0.0371717)
(0.106425 0.994159 -0.0179219)
(-0.0808065 0.99671 -0.00622064)
(-0.0798537 0.996787 -0.00625244)
(0.997619 -0.0615313 0.0311557)
(0.997474 -0.0618852 0.0348676)
(0.785639 -0.0924918 0.611733)
(0.956107 -0.0447831 0.289574)
(0.958618 -0.0394327 0.281953)
(0.969972 -0.0302732 0.241326)
(0.78075 -0.0929824 0.617886)
(0.966824 -0.0290113 0.25379)
(0.996814 -0.0651087 0.0460752)
(0.996986 -0.0641031 0.0436981)
(0.99592 -0.0704739 0.0563651)
(0.955325 -0.046054 0.291946)
(0.794707 -0.0925685 0.599893)
(0.952822 -0.0514171 0.299142)
(0.996756 -0.065441 0.0468447)
(0.996565 -0.0666724 0.0491256)
(0.809712 -0.0913138 0.579679)
(0.944937 -0.0637411 0.320986)
(-0.128701 -0.00262785 0.99168)
(0.993803 0.00497227 0.11104)
(-0.13165 0.000174145 0.991296)
(0.0803757 -0.00300648 0.99676)
(-0.0126533 0.00110348 0.999919)
(-0.013484 -0.000438376 0.999909)
(0.993838 -0.00469313 0.110744)
(-0.129704 0.00186874 0.991551)
(-0.131495 -0.000896082 0.991316)
(0.206907 -0.365591 0.907487)
(0.379444 -0.270119 0.884906)
(0.23444 -0.453453 0.859894)
(0.108282 -0.556802 0.823557)
(0.147007 -0.545799 0.82492)
(0.201491 -0.509177 0.836744)
(0.341776 -0.313198 0.886057)
(0.18407 -0.510097 0.84019)
(0.225542 -0.48025 0.847638)
(-0.011009 -0.00335005 0.999934)
(-0.128375 -0.00134695 0.991725)
(0.992072 -0.00877436 0.125366)
(-0.126693 -0.00401768 0.991934)
(0.991662 -0.00084916 0.128863)
(-0.125845 -0.00320523 0.992045)
(0.0465466 -0.000867128 0.998916)
(0.0994228 -0.126762 0.986938)
(0.165263 -0.21236 0.963115)
(0.0454336 -0.05467 0.99747)
(0.104576 -0.146172 0.983716)
(0.181224 -0.324387 0.928402)
(0.739535 0.0421228 0.671799)
(0.0704445 -0.18447 0.98031)
(-0.0450368 -0.0519882 0.997632)
(0.806019 0.0880944 0.585297)
(0.0349794 -0.139939 0.989542)
(0.973341 0.0198474 -0.228504)
(0.826955 -0.000559324 -0.562268)
(0.973787 -0.0187194 -0.226689)
(0.826874 0.00291096 -0.562379)
(0.973198 -0.0245795 -0.228651)
(0.97367 0.0154073 -0.227439)
(0.0818107 0.00430387 0.996639)
(-0.0124054 0.000983388 0.999923)
(-0.0118025 0.00218615 0.999928)
(-0.119086 0.00317344 0.992879)
(0.992659 0.00101479 0.12094)
(-0.126447 0.00197712 0.991971)
(-0.129157 0.00057521 0.991624)
(0.992999 0.010227 0.117676)
(-0.127903 0.00315985 0.991782)
(0.973282 -0.0217917 -0.228575)
(0.816161 -0.0107784 -0.577724)
(0.973633 0.0157464 -0.227577)
(0.973098 0.019888 -0.229532)
(0.820174 -0.014265 -0.571937)
(0.973655 -0.019266 -0.227213)
(-0.147641 0.988996 -0.00942665)
(0.0481103 0.998831 -0.00477017)
(-0.150713 0.988543 -0.00824778)
(-0.0777422 0.99697 -0.00258424)
(-0.0781753 0.99693 -0.00446595)
(0.0419695 0.999108 -0.0045717)
(-0.155509 0.987821 -0.0051699)
(-0.152194 0.988321 -0.00769299)
(0.889043 0.428342 -0.161637)
(0.264467 -0.279313 0.923061)
(0.562194 0.820768 -0.101376)
(0.26634 -0.3167 0.910365)
(0.248331 -0.530765 0.810321)
(0.512252 0.849952 -0.123207)
(-0.469428 -0.340053 0.814862)
(0.100703 -0.572636 0.813602)
(-0.225964 -0.654545 0.721464)
(-0.275652 0.954963 -0.109829)
(-0.114025 0.992287 -0.0486185)
(-0.192231 0.979557 -0.0592881)
(-0.104519 0.987454 -0.118363)
(-0.107343 0.994217 -0.00330253)
(-0.25603 0.734938 -0.627945)
(-0.163755 0.986382 -0.0153103)
(0.365217 -0.416671 0.832467)
(-0.127924 0.991082 -0.0373105)
(-0.0814313 0.996676 -0.00236305)
(-0.177452 0.983197 -0.042824)
(0.133385 -0.560002 0.817684)
(0.273467 -0.4009 0.874354)
(-0.124755 -0.674906 0.727281)
(0.0167109 0.999563 -0.0243664)
(0.129107 0.991618 -0.00492272)
(-0.0255126 0.999244 -0.0293389)
(-0.124267 0.99158 -0.0364203)
(-0.0873952 0.995063 -0.0470322)
(-0.00909306 0.999298 -0.0363395)
(0.11333 0.993542 -0.00554689)
(-0.107651 0.99349 -0.0372771)
(-0.0435152 0.998565 -0.031221)
(-0.0769554 0.997033 -0.00159109)
(-0.0545631 0.998499 0.00480741)
(0.610285 0.783786 0.11503)
(-0.083045 0.996545 0.000896356)
(0.0278462 0.736217 -0.676172)
(-0.115707 0.993273 0.00450988)
(0.249278 -0.367814 0.895865)
(-0.15457 0.987974 -0.00396414)
(-0.0583738 0.998266 0.00761428)
(-0.126134 0.992004 0.00425279)
(0.263587 -0.444229 0.856261)
(0.24807 -0.403529 0.880696)
(0.193289 -0.451085 0.871299)
(-0.084682 0.99639 -0.00604352)
(-0.0861764 0.996262 -0.00595896)
(0.0478319 0.998855 0.00115374)
(-0.182334 0.983137 -0.0140292)
(-0.172583 0.984908 -0.0131139)
(0.0481496 0.99884 0.000805852)
(-0.179855 0.983597 -0.0137841)
(0.0284314 0.999424 -0.0185328)
(0.170118 0.985403 0.00632133)
(0.016573 0.999672 -0.0195055)
(-0.255644 0.964535 -0.065722)
(0.880006 0.446376 0.162287)
(0.209406 0.977759 0.0116872)
(0.170741 0.985291 0.00695812)
(-0.0217353 0.999453 -0.0249451)
(0.00870131 0.999752 -0.0205007)
(-0.0842237 0.996428 -0.00606982)
(-0.0828005 0.996547 -0.00614054)
(-0.158146 0.987345 -0.0118555)
(0.0525998 0.998615 -0.00145007)
(-0.162844 0.986576 -0.0122622)
(-0.170451 0.985281 -0.0129217)
(0.0519376 0.99865 -0.00121143)
(-0.164634 0.986277 -0.0124166)
(0.186765 0.982301 0.0142942)
(0.864671 -0.470082 0.177107)
(-0.370675 0.923267 -0.100888)
(0.971961 0.133375 0.193658)
(0.977339 -0.00438985 0.211633)
(0.183051 0.983017 0.013047)
(-0.0461833 0.998509 -0.0290881)
(-0.388055 0.917031 -0.0920214)
(0.973458 -0.0242082 -0.227583)
(0.812858 0.0158932 -0.582246)
(0.974118 0.0157654 -0.225488)
(0.80894 0.0141385 -0.587721)
(0.974265 -0.0193925 -0.224568)
(0.0474276 0.00106921 0.998874)
(0.0615935 -0.0231522 0.997833)
(0.0976449 -0.0227403 0.994961)
(0.0326558 -0.0371563 0.998776)
(0.00775482 -0.00962515 0.999924)
(-0.11616 0.000812303 0.99323)
(0.983453 0.0434071 0.175888)
(-0.104017 -0.00333963 0.99457)
(-0.0620812 -0.0341047 0.997488)
(0.980169 0.0411251 0.193849)
(-0.09738 -0.0086354 0.99521)
(0.959479 0.205858 -0.192412)
(-0.196967 -0.13054 0.971681)
(0.976317 0.0421986 -0.212187)
(-0.32404 -0.11484 0.939047)
(0.974631 0.0384122 -0.220498)
(0.977365 -0.0112855 -0.211261)
(0.973303 0.0226561 -0.228402)
(0.767366 -0.0183806 -0.640946)
(0.974093 -0.0218729 -0.225088)
(0.749481 -0.0101299 -0.661948)
(0.974487 -0.00903777 -0.224261)
(0.974016 0.0113818 -0.226191)
(0.994429 -0.0960224 0.0434907)
(0.993317 0.0853064 0.0777436)
(0.994141 -0.100779 0.03908)
(0.99777 -0.0603262 0.0285668)
(0.997773 -0.0613899 0.0260826)
(0.993646 0.0832583 0.0757287)
(0.992206 -0.117947 0.0401996)
(0.993917 -0.103309 0.0381638)
(0.737169 -0.220537 0.638706)
(0.964799 -0.169694 0.200913)
(0.84439 -0.503185 0.183878)
(0.377613 0.844227 0.380379)
(-0.208441 0.97771 -0.02523)
(0.852609 -0.500896 0.148865)
(0.970116 -0.183011 0.159319)
(0.9131 -0.394286 0.103863)
(0.829354 -0.539289 0.146083)
(0.981202 -0.0348019 0.189821)
(0.987285 0.130756 0.0903956)
(0.982897 -0.049604 0.177351)
(0.793762 -0.106495 0.598833)
(0.97096 -0.123713 0.204772)
(0.974475 -0.0527032 0.21822)
(0.988161 0.125448 0.0883263)
(0.978178 -0.129488 0.162485)
(0.983142 -0.0585849 0.173204)
(0.997781 -0.0582869 0.0321741)
(0.997993 -0.0078281 0.0628456)
(0.291499 0.946846 0.136056)
(0.965041 0.233961 0.118141)
(0.0125326 0.999921 -0.000183719)
(0.990817 -0.127861 0.0439627)
(0.991411 0.0820778 0.101821)
(-0.612707 0.788866 -0.0477505)
(-0.147105 0.989073 -0.00969904)
(0.061106 0.998121 -0.00452253)
(-0.14682 0.98911 -0.0103134)
(-0.0786615 0.996882 -0.00623637)
(-0.0781462 0.996923 -0.00612934)
(0.0610655 0.998124 -0.00438059)
(-0.148611 0.988836 -0.0108643)
(-0.147077 0.98907 -0.0104715)
(-0.178228 0.983014 -0.0437952)
(0.123304 0.99229 -0.0125116)
(0.1276 0.991773 -0.0102354)
(0.0327588 0.999298 -0.0181943)
(0.169104 0.985595 0.00261887)
(0.0389552 0.999075 -0.0182228)
(0.0443981 0.998838 -0.0187347)
(0.169279 0.985566 0.00216225)
(0.0417772 0.998962 -0.0181522)
(0.0247044 0.999424 -0.0232659)
(0.168417 0.985715 -0.00130047)
(0.0410661 0.998943 -0.0206357)
(-0.153218 0.987453 -0.0382301)
(0.120666 0.992599 -0.01369)
(0.111455 0.993633 -0.0164872)
(0.169313 0.985562 -0.000859946)
(0.0457821 0.998773 -0.0188747)
(0.0425769 0.99889 -0.0201635)
(-0.0788844 0.996864 -0.0062519)
(-0.079596 0.996808 -0.00625756)
(-0.156783 0.987563 -0.011735)
(0.0571689 0.99836 -0.00296414)
(-0.15313 0.98814 -0.0114006)
(-0.149359 0.988722 -0.0109786)
(0.0577929 0.998324 -0.00316095)
(-0.152086 0.988303 -0.0112954)
(0.994449 -0.0950385 0.0451471)
(0.990959 0.0938402 0.0958821)
(0.994396 -0.0931689 0.0499636)
(0.99726 -0.0627232 0.0392208)
(0.997423 -0.0620424 0.0360311)
(0.990682 0.0942981 0.0982677)
(0.994205 -0.0920557 0.0555151)
(0.994356 -0.0927778 0.051455)
(0.783179 -0.092415 0.61489)
(0.96207 -0.0333702 0.270752)
(0.959423 -0.0382179 0.279369)
(0.969887 -0.0443782 0.239479)
(0.981513 0.141217 0.129188)
(0.971856 -0.0400737 0.23214)
(0.974576 -0.0345577 0.221376)
(0.98155 0.142769 0.127186)
(0.972546 -0.0383136 0.229534)
(0.980463 -0.0330574 0.193907)
(0.983071 0.147259 0.109028)
(0.978228 -0.0305141 0.205279)
(0.779876 -0.0925329 0.619056)
(0.962946 -0.0323848 0.267741)
(0.965849 -0.0292548 0.257448)
(0.98272 0.147684 0.11158)
(0.975299 -0.0330873 0.218398)
(0.97746 -0.0310913 0.208817)
(0.997206 -0.0629614 0.0401905)
(0.997043 -0.0637877 0.0428642)
(0.993747 -0.0914259 0.0640925)
(0.989093 0.0935251 0.113792)
(0.993924 -0.091532 0.0611367)
(0.99415 -0.091901 0.0567393)
(0.989243 0.0939595 0.112115)
(0.993981 -0.0916003 0.0600978)
(0.996217 -0.0688504 0.0530125)
(0.995998 -0.070064 0.0554924)
(0.987217 0.0775982 0.139216)
(0.992901 -0.0908915 0.0767204)
(0.993168 -0.0913413 0.0726244)
(0.987356 0.078924 0.137474)
(0.992962 -0.0911183 0.0756585)
(0.969197 -0.0462222 0.24191)
(0.981674 0.126284 0.142719)
(0.96719 -0.0506622 0.248951)
(0.797909 -0.0925354 0.595633)
(0.949433 -0.05763 0.308635)
(0.952022 -0.0526328 0.30147)
(0.981726 0.123621 0.144681)
(0.964358 -0.0566813 0.258457)
(0.966473 -0.0524572 0.251353)
(0.996292 -0.0683813 0.0522142)
(0.9965 -0.0670706 0.0498913)
(0.993688 -0.0913937 0.0650441)
(0.988252 0.0883431 0.124712)
(0.993499 -0.0914045 0.067858)
(0.993236 -0.0913682 0.0716479)
(0.98815 0.0873024 0.126247)
(0.993434 -0.0914061 0.0687956)
(0.981812 0.100072 0.16134)
(0.960501 -0.0632386 0.270994)
(0.806994 -0.0918341 0.583376)
(0.948587 -0.0587108 0.311022)
(0.945845 -0.0630135 0.318444)
(0.98186 0.103125 0.159108)
(0.963595 -0.0583219 0.260929)
(0.961318 -0.062005 0.26837)
(-0.478 0.878346 -0.00485651)
(-0.479936 0.877291 -0.00457905)
(-0.391593 0.914409 -0.102526)
(-0.295481 0.954031 -0.0501572)
(-0.452075 0.891949 -0.00735751)
(-0.450628 0.892681 -0.00745716)
(0.718888 -0.695076 0.00832491)
(0.719689 -0.694251 0.00790281)
(0.0500067 0.998328 -0.0289868)
(-0.10157 0.994187 -0.0357234)
(-0.476174 0.879336 -0.00511166)
(-0.474406 0.88029 -0.00534512)
(-0.453516 0.891219 -0.00725741)
(-0.45499 0.890468 -0.00715835)
(0.718054 -0.695932 0.00875812)
(0.717198 -0.696809 0.00919074)
(0.707171 -0.706909 0.0137538)
(0.707814 -0.70627 0.0134961)
(-0.70657 0.707505 -0.0140095)
(-0.705943 0.708125 -0.0142631)
(0.0251088 0.99957 -0.0151456)
(0.993294 -0.00610739 0.115453)
(0.0309115 0.999292 -0.0214609)
(0.993594 0.00390985 0.112945)
(-0.0222916 0.999642 0.0147761)
(-0.0218031 0.999638 0.0157774)
(0.234393 -0.341988 0.910002)
(0.448937 -0.18486 0.874233)
(0.240709 -0.343612 0.907739)
(0.258085 -0.389338 0.884199)
(0.165957 -0.399547 0.901566)
(0.168248 -0.419139 0.892197)
(-0.0152127 0.99985 0.00822396)
(0.992536 -0.00267539 0.121922)
(-0.0122361 0.999897 0.00747146)
(0.218608 -0.347169 0.911967)
(0.596876 -0.0386569 0.801402)
(0.169228 -0.392741 0.903945)
(0.481381 0.851258 -0.20888)
(0.903219 0.120016 0.412059)
(0.498343 0.834396 -0.235454)
(0.942009 0.0485738 -0.332052)
(0.823888 0.00827089 -0.566692)
(0.941983 0.0454711 -0.332565)
(0.826403 -0.00462227 -0.563061)
(0.942353 -0.0469678 -0.331307)
(0.942693 -0.0357936 -0.331736)
(0.0382022 0.999268 0.00209428)
(0.991251 0.0148237 0.131155)
(0.0160653 0.999815 0.0105484)
(0.0154657 0.999844 -0.00850337)
(0.993294 -6.46049e-05 0.115612)
(0.0223865 0.999664 -0.0130543)
(0.938966 -0.0672869 -0.337364)
(0.807578 -0.0185601 -0.589468)
(0.939621 -0.0603699 -0.33685)
(0.942958 0.0247057 -0.331993)
(0.823831 -0.00605822 -0.566804)
(0.942734 0.0226147 -0.332777)
(0.0545869 0.9985 -0.00421866)
(0.0557732 0.998431 -0.00492403)
(-0.18592 0.98255 -0.00532609)
(-0.186608 0.98242 -0.00524748)
(0.0537328 0.998547 -0.00410283)
(-0.4906 0.87138 -0.00301401)
(-0.489642 0.871918 -0.00313392)
(-0.189985 0.981777 -0.00451506)
(0.0232972 0.999721 -0.00377915)
(0.0209331 0.999781 -0.000659308)
(-0.188982 0.98197 -0.00464434)
(0.031629 0.999498 -0.00182902)
(-0.200607 -0.630465 0.749848)
(0.219666 -0.210759 0.952537)
(0.0886619 -0.39879 0.912746)
(0.238439 -0.386949 0.89074)
(0.276603 -0.375328 0.884658)
(0.265379 -0.38737 0.882903)
(-0.0943182 0.973041 -0.210464)
(0.250026 0.950867 0.182589)
(-0.0342333 0.996151 0.0806946)
(-0.0690915 0.986561 -0.148066)
(-0.210819 0.966702 -0.145058)
(-0.0501411 0.993993 0.0972822)
(0.130115 0.970387 -0.203515)
(-0.140923 0.989999 -0.00656333)
(-0.179758 0.983689 -0.00662133)
(-0.0445137 0.998881 -0.0159591)
(-0.0222036 0.999731 -0.00668422)
(-0.132161 0.991206 -0.00665132)
(-0.184586 0.982798 -0.00604471)
(-0.0704088 0.997387 -0.0161571)
(0.119558 -0.453834 0.883029)
(0.229344 -0.38907 0.892203)
(0.150999 -0.41221 0.898489)
(-0.106851 0.994248 -0.00739715)
(0.119255 0.992832 -0.00798056)
(0.150092 0.988665 -0.00375738)
(-0.167263 0.985877 -0.00830989)
(-0.16824 0.985712 -0.00821939)
(0.109835 0.99391 -0.00885845)
(-0.10509 0.994436 -0.00734303)
(-0.123695 0.992292 -0.00750389)
(-0.179616 0.98371 -0.00726058)
(0.0688475 0.997604 -0.00675874)
(-0.0153902 0.999759 -0.0156858)
(-0.17658 0.984257 -0.00752413)
(-0.129696 0.991526 -0.00744591)
(0.0128382 0.999811 -0.0145929)
(-0.490891 0.871215 -0.00315979)
(-0.488003 0.872835 -0.00354902)
(0.218777 0.974751 0.044689)
(-0.00805579 0.999252 0.0378301)
(-0.0212764 0.982114 -0.187082)
(-0.0700901 0.984392 -0.161432)
(0.0204585 0.999768 -0.00673412)
(0.262364 0.952949 -0.151837)
(-0.187752 0.982209 -0.00395534)
(0.00642101 0.999979 0.000530506)
(-0.0227368 0.999741 1.05176e-05)
(-0.190275 0.981723 -0.00389863)
(-0.00943557 0.999951 0.00299339)
(0.212011 -0.438962 0.873134)
(0.229711 -0.39102 0.891255)
(0.243336 -0.391217 0.887546)
(-0.43945 0.89823 -0.0081412)
(-0.437748 0.89906 -0.00824339)
(-0.175043 0.984541 -0.00620372)
(0.0329048 0.999458 -0.00102323)
(0.0490758 0.998795 0.000166334)
(-0.174676 0.984606 -0.00620967)
(0.0315814 0.999501 -0.000833963)
(-0.102566 0.994703 -0.00676537)
(0.151015 0.988529 0.00202548)
(-0.168843 0.985594 -0.00980535)
(0.169394 0.985535 0.00515781)
(-0.169501 0.98548 -0.00992389)
(-0.102163 0.994745 -0.00678217)
(0.152511 0.988298 0.00275689)
(-0.104714 0.99448 -0.00668713)
(-0.174756 0.984552 -0.0108422)
(0.172672 0.984944 0.00837316)
(0.167847 0.985776 0.00851237)
(-0.173694 0.984742 -0.0106631)
(-0.105176 0.994431 -0.00666418)
(0.164068 0.986422 0.0073069)
(-0.441142 0.897401 -0.00804081)
(-0.442878 0.896547 -0.00794409)
(0.0424455 0.999096 -0.00243967)
(-0.177723 0.984062 -0.00606079)
(0.0539377 0.998542 -0.00191002)
(-0.177413 0.984118 -0.0060894)
(0.0413294 0.999143 -0.00227595)
(-0.175322 0.984492 -0.0061845)
(0.0341663 0.999415 -0.00121313)
(0.0507133 0.998713 -0.00069458)
(-0.175734 0.984418 -0.00618869)
(0.0353916 0.999373 -0.00140215)
(-0.106293 0.994313 -0.00665427)
(-0.175824 0.98436 -0.0110296)
(0.177651 0.984033 0.0109289)
(0.172544 0.984952 0.00989116)
(-0.177009 0.984145 -0.0112373)
(-0.105668 0.994379 -0.00665342)
(0.178539 0.983866 0.0115035)
(0.942559 -0.0238975 -0.333183)
(0.817988 0.0107994 -0.575135)
(0.942281 -0.0145735 -0.334506)
(0.102543 0.994207 -0.0322105)
(0.988208 0.0196364 0.151852)
(0.141523 0.988834 -0.0466747)
(0.450166 0.877934 -0.163042)
(0.963486 0.0913703 0.251687)
(0.401773 0.907311 -0.123958)
(0.422297 0.812377 -0.40213)
(0.0387243 -0.143425 0.988903)
(0.457983 0.840017 -0.290901)
(-0.524877 -0.0496034 0.849731)
(0.864358 0.365967 -0.344897)
(0.761874 0.569306 -0.308932)
(0.940299 0.000962117 -0.340349)
(0.789024 -0.0180647 -0.614097)
(0.939611 -0.000321652 -0.342245)
(-0.694028 0.00444721 0.719935)
(0.924876 0.111993 -0.363404)
(0.932253 0.0127769 -0.361582)
(0.990412 0.119354 0.0695556)
(0.99261 0.0887738 0.0827285)
(0.967916 -0.223714 0.114413)
(0.990661 0.118667 0.0671448)
(0.968297 -0.223966 0.110635)
(0.718267 -0.695722 0.00788359)
(0.720377 -0.693545 0.00717945)
(0.967353 -0.235467 0.0937226)
(0.994161 0.0787093 0.0738193)
(0.989789 0.128811 0.0610391)
(0.990633 0.122744 0.0598333)
(0.968291 -0.231263 0.0945016)
(0.349655 0.920829 0.172673)
(0.434108 0.853568 0.288049)
(0.431314 0.889629 0.150098)
(0.207463 0.958779 0.194172)
(0.512393 0.838449 0.185626)
(0.0893829 0.991881 0.0904589)
(0.248885 0.939058 0.237121)
(0.974373 -0.168074 0.149495)
(0.975353 -0.186784 0.117465)
(0.992546 -0.059469 0.106377)
(0.994374 0.0511705 0.0927465)
(0.985114 -0.133015 0.10889)
(0.977251 -0.151009 0.148917)
(0.971796 -0.202992 0.120025)
(0.9756 -0.121356 0.182965)
(0.99118 0.0513544 0.122164)
(0.985753 0.138508 0.0954304)
(0.97714 -0.155009 0.145498)
(0.991717 0.0483328 0.119004)
(0.977633 -0.155994 0.141068)
(0.974693 -0.120682 0.188173)
(0.978809 -0.133283 0.15546)
(0.977277 -0.176198 0.117831)
(0.990164 0.110293 0.0860901)
(0.994214 -0.0175131 0.105983)
(0.99429 0.00529662 0.106577)
(0.978203 -0.169466 0.120001)
(0.978521 -0.139962 0.151352)
(0.713895 -0.700192 0.00924562)
(-0.70411 0.709995 -0.0116672)
(0.382221 0.901576 0.202649)
(0.555153 0.819316 0.143271)
(0.18925 0.971979 0.139432)
(0.420889 0.8991 0.120299)
(-0.103474 0.994607 0.00706767)
(0.965448 -0.242735 0.0948118)
(0.988001 0.14054 0.0640563)
(0.993981 0.0724209 0.0822069)
(0.983882 0.164787 0.0694442)
(0.962326 -0.253325 0.0987702)
(0.0549356 0.998481 -0.00427186)
(-0.185264 0.982674 -0.00539918)
(0.0604177 0.998162 -0.00476286)
(-0.18463 0.982793 -0.00546949)
(0.0549237 0.998481 -0.00427927)
(-0.464911 0.885335 -0.0063763)
(-0.466382 0.884561 -0.00623616)
(-0.181336 0.983404 -0.00578622)
(0.0605096 0.998159 -0.00406661)
(0.0512826 0.998677 -0.00378928)
(-0.181818 0.983315 -0.00574302)
(0.0521116 0.998634 -0.00390903)
(-0.101581 0.994804 -0.00683802)
(0.149866 0.988705 0.00135234)
(-0.168223 0.985701 -0.00969189)
(0.168987 0.985612 0.0035795)
(-0.101863 0.994775 -0.00680525)
(-0.16766 0.985798 -0.00958675)
(0.148941 0.988846 0.000723753)
(-0.100613 0.994901 -0.00698106)
(-0.165344 0.986195 -0.00904244)
(0.144932 0.989438 -0.00259899)
(0.169701 0.985495 0.0012791)
(-0.100496 0.994913 -0.00701119)
(-0.165595 0.986152 -0.00912375)
(0.145596 0.989342 -0.00207677)
(-0.102708 0.994685 -0.00725905)
(0.126378 0.991956 -0.00719658)
(-0.166499 0.986006 -0.00839691)
(0.164725 0.986337 -0.002217)
(-0.103718 0.99458 -0.00730041)
(-0.165925 0.986102 -0.00848132)
(0.131771 0.991259 -0.00648449)
(-0.100556 0.994906 -0.00708035)
(-0.165159 0.986226 -0.00896118)
(0.170007 0.985443 -2.2028e-06)
(0.144263 0.989534 -0.00310819)
(-0.165037 0.986247 -0.00888219)
(-0.100509 0.994911 -0.00704293)
(0.143419 0.989655 -0.00361788)
(-0.46344 0.886104 -0.00650442)
(-0.462055 0.886826 -0.00662588)
(0.0435262 0.999049 -0.00260348)
(-0.178078 0.983998 -0.00603795)
(0.0558928 0.998433 -0.0025586)
(-0.17847 0.983927 -0.00602496)
(0.0445837 0.999002 -0.00276529)
(-0.180849 0.983494 -0.00582299)
(0.0504009 0.998722 -0.00366085)
(0.0589968 0.998252 -0.00354164)
(-0.180437 0.983569 -0.00586444)
(0.0494849 0.998769 -0.00352387)
(0.990145 0.120132 0.0719843)
(0.967502 -0.223605 0.118073)
(0.991574 0.0923876 0.090804)
(0.989869 0.120944 0.074374)
(0.967066 -0.223622 0.121559)
(0.712448 -0.701631 0.0114819)
(0.713228 -0.700843 0.0111419)
(0.964634 -0.224512 0.138112)
(0.990186 0.0947888 0.102695)
(0.988394 0.124705 0.0867551)
(0.988604 0.124278 0.0849478)
(0.964996 -0.224335 0.135855)
(0.96545 -0.12233 0.230091)
(0.985652 0.0412922 0.163661)
(0.981499 0.137649 0.133089)
(0.970709 -0.152026 0.186045)
(0.985918 0.0433494 0.161513)
(0.970966 -0.152056 0.184672)
(0.965119 -0.122548 0.231358)
(0.967504 -0.120937 0.222058)
(0.97284 -0.152273 0.17434)
(0.987561 0.0533965 0.147891)
(0.9817 0.145329 0.123066)
(0.987267 0.0520935 0.150302)
(0.968025 -0.120611 0.219955)
(0.972475 -0.152228 0.176405)
(0.972913 -0.119998 0.197589)
(0.99067 0.0535052 0.125339)
(0.97662 -0.154256 0.149727)
(0.98395 0.14522 0.103696)
(0.973795 -0.120221 0.193057)
(0.990187 0.0550074 0.128468)
(0.976089 -0.153701 0.15371)
(0.969173 -0.12022 0.215058)
(0.97323 -0.152343 0.172092)
(0.982178 0.147562 0.116411)
(0.98787 0.0545237 0.145398)
(0.988197 0.0553913 0.142823)
(0.973644 -0.152445 0.16964)
(0.968576 -0.120401 0.217633)
(0.711791 -0.702292 0.0118057)
(0.711036 -0.703052 0.0121126)
(0.98723 0.125067 0.0986657)
(0.988825 0.0923749 0.117014)
(0.962386 -0.22563 0.151344)
(0.987332 0.125302 0.0973386)
(0.962603 -0.225593 0.150011)
(0.9643 -0.224654 0.140199)
(0.988199 0.12504 0.0884699)
(0.989577 0.0945856 0.108587)
(0.98802 0.125291 0.0900995)
(0.963964 -0.224884 0.142125)
(-0.701725 0.712267 -0.0160499)
(-0.701194 0.712784 -0.0163217)
(0.960578 -0.225981 0.161936)
(0.986635 0.119907 0.110331)
(0.9876 0.0815591 0.134139)
(0.98659 0.119021 0.111688)
(0.960392 -0.225936 0.163096)
(0.964477 -0.123232 0.233662)
(0.985384 0.0390966 0.165799)
(0.981581 0.131208 0.138864)
(0.970465 -0.151977 0.18735)
(0.985111 0.0368456 0.167924)
(0.964801 -0.122824 0.232536)
(0.970223 -0.15197 0.188605)
(0.963039 -0.124676 0.238772)
(0.9689 -0.151561 0.195605)
(0.981813 0.118112 0.148638)
(0.983255 0.0221204 0.18089)
(0.9836 0.0246221 0.178676)
(0.969117 -0.15165 0.194458)
(0.962772 -0.124829 0.239765)
(-0.702445 0.711563 -0.0157878)
(-0.702948 0.711072 -0.0155261)
(0.987139 0.124748 0.0999728)
(0.988471 0.090133 0.121663)
(0.962159 -0.225735 0.152624)
(0.987056 0.12436 0.101265)
(0.961924 -0.225901 0.153856)
(0.960787 -0.225909 0.160788)
(0.986684 0.120724 0.109)
(0.987937 0.0851496 0.129341)
(0.986736 0.121466 0.107693)
(0.96094 -0.226061 0.159656)
(0.962187 -0.1255 0.241757)
(0.968687 -0.151434 0.196759)
(0.981883 0.109262 0.154816)
(0.982893 0.0195426 0.183139)
(0.982514 0.0169905 0.185411)
(0.968463 -0.151343 0.197924)
(0.962492 -0.125094 0.240749)
(-0.0156681 -0.00114311 0.999877)
(-0.0100841 -0.0017233 0.999948)
(0.101092 -0.00140852 0.994876)
(-0.0130252 -0.00190675 0.999913)
(-0.0150575 -0.00123159 0.999886)
(0.100612 -0.00183994 0.994924)
(-0.010549 -0.00143095 0.999943)
(-0.0165664 -3.07678e-05 0.999863)
(0.100441 -3.65331e-05 0.994943)
(-0.0135526 -0.000891669 0.999908)
(-0.01131 -0.000452503 0.999936)
(0.100208 -0.000503058 0.994966)
(-0.0169452 -0.000196381 0.999856)
(-0.0110384 -0.000583943 0.999939)
(0.101407 -0.22798 0.968371)
(0.183392 -0.413248 0.89196)
(0.192334 -0.168413 0.96677)
(0.220814 -0.425897 0.877413)
(0.110208 -0.200473 0.973481)
(0.185743 -0.192485 0.963561)
(0.186315 -0.449312 0.873731)
(0.128056 -0.234485 0.963649)
(0.170855 -0.231217 0.957782)
(0.220318 -0.458937 0.860719)
(0.176037 -0.504669 0.845175)
(0.193794 -0.208564 0.958616)
(0.0912658 -0.266626 0.959469)
(0.184516 -0.480017 0.857635)
(0.04063 0.000673795 0.999174)
(0.0407248 0.000757265 0.99917)
(0.0422038 -0.00105496 0.999108)
(0.0408492 -0.00256258 0.999162)
(-0.0153291 -0.00199966 0.999881)
(-0.00996336 -0.00199826 0.999948)
(0.101143 -0.000904159 0.994872)
(-0.0122261 -0.00231389 0.999923)
(-0.0150816 -0.00129625 0.999885)
(0.10077 -0.00149146 0.994909)
(-0.00998134 -0.00256039 0.999947)
(-0.0156519 -0.00258519 0.999874)
(0.10119 -0.00227652 0.994865)
(-0.00975369 -0.00315925 0.999947)
(-0.0120126 -0.00312884 0.999923)
(-0.0155793 -0.00230352 0.999876)
(0.100863 -0.00242228 0.994897)
(-0.00996361 -0.00316596 0.999945)
(0.0409527 -0.00129595 0.99916)
(0.0400035 -0.00196568 0.999198)
(0.0409646 0.000840355 0.99916)
(0.0404028 0.000895847 0.999183)
(0.110739 0.00559715 0.993834)
(0.129546 -0.0665031 0.989341)
(0.0995634 -0.0520442 0.993669)
(0.0849614 -0.0145796 0.996278)
(0.0868211 -0.154665 0.984145)
(0.174424 -0.368644 0.91306)
(0.184124 -0.147514 0.971771)