/*--------------------------------*- C++ -*----------------------------------*\
| =========                 |                                                 |
| \\      /  F ield         | OpenFOAM: The Open Source CFD Toolbox           |
|  \\    /   O peration     | Version:  2012                                  |
|   \\  /    A nd           | Website:  www.openfoam.com                      |
|    \\/     M anipulation  |                                                 |
\*---------------------------------------------------------------------------*/
FoamFile
{
    version     2.0;
    format      ascii;
    class       volScalarField;
    location    "0.104/solid";
    object      sigmaHyd;
}
// * * * * * * * * * * * * * * * * * * * * * * * * * * * * * * * * * * * * * //

dimensions      [1 -1 -2 0 0 0 0];


internalField   nonuniform List<scalar> 
3125
(
180.009
72.0994
195.59
180.446
194.945
146.104
126.626
96.9355
183.718
-85829.6
-75488.5
-49101.9
198.245
199.826
184.696
15608.8
-1348.77
-51684.7
-72019.7
-6359.73
-2268.95
-6719.35
-21.9493
179.565
-22.2845
0.526221
-741.927
-798.884
-21.7768
194.527
201.952
191.587
1.97547
-8.4014
-18.4764
-18.8168
179.856
-19.6122
-22.1183
-16.3653
-18.6553
-152334
-173310
17.1957
-479.371
-3080.23
-88194.4
-189349
-145745
-630.975
-124864
-89117.7
-142585
-228416
-177171
-547.256
-88997.8
-89954.5
-41696
-76599.3
-107995
-91301.1
-39342.3
-74744.5
-18.1817
195.021
203.761
191.297
-18.8
-10.5128
14.1614
-4.30835
-15.4803
-7.00985
-78364.1
-84982.6
6471.18
-156302
-93891.6
-83513.9
2025.94
-91950
-166280
-87077.8
-149556
-130800
-59808
-91911.2
-105905
-122658
-62666.7
-107946
-110458
-128196
-77727.8
-72855.7
-4978.08
-67063.6
-74621.2
-82549.1
-4402.58
-75655.4
-65931.7
-72063
-57063.9
-65950.1
-7516.7
-58034.7
-64988.2
-58083.3
-7699.03
-56893.7
124.76
179.693
124.078
87.0366
-129.315
-98.8056
196.574
182.11
125.067
126.385
194.517
179.592
177.511
110.326
136.977
181.998
128.157
126.072
-229486
-240725
-117346
-84793.6
-114538
-117502
-26519.9
-84913.8
-79419.4
-90416.4
-372024
-270477
-117808
-59732.3
-46576.1
-55782.5
-161089
-149752
-34818.8
-44294.5
196.905
201.579
187.923
129.045
132.262
-84646.2
-85397.1
6397.15
-50803
-61694.3
-43943.4
-410.767
-45306.9
-204793
-123420
-225534
-213360
-54326.5
-61147.2
-65213.2
-83136
-68725.9
-78388.8
-164939
-176700
-84488.1
-83892.8
-5954.99
-36456.7
-38026.2
-43556.4
-3046.7
-42237.9
-77258.9
-79513.5
-64726.3
-35937.7
-7029.72
-34300.4
-76440.3
-73814.9
-7936.68
-29202.2
83.7357
-22.5435
82.918
179.605
124.268
124.024
-22.488
83.2679
82.8964
64.6305
-60.0961
-94.8279
-514.337
-1553.82
-196.962
-89.9703
-1510.1
-145.462
126.952
83.981
-20.8565
85.0588
-20.5017
85.5396
194.397
195.366
185.095
139.037
139.483
80.0821
-0.894756
98.501
97.7495
-2.55982
99.7367
-93.3047
-18.9005
-93.4267
-18.9028
-93.3322
-93.7611
181.337
124.499
125.529
86.8545
-21.1381
84.7476
83.4779
-21.5876
84.2447
-92.0303
-17.6726
-93.3653
-93.8315
-18.1284
-93.1205
-203223
-160927
-213615
-253287
-244185
-163927
-226662
-216989
-57.8121
-12.5834
-46.165
-35.4927
-66.0254
-52.1573
-32266.4
-1327.07
-19829.4
-133247
-101064
-122652
-146679
-166938
-5791.34
-125841
5512.82
-112684
-155768
-133238
-580.324
-15373.9
-20959
-94986.1
-131837
-101019
-82974.1
-99742.2
-92400.9
-134315
-111074
-103155
-256014
-263063
-319045
-200267
-6696.24
-249747
-6717.58
-230081
-184842
-239139
-100.514
-12444.2
-316.45
-131609
-121195
-80009.9
-105459
-117594
-82222
-108441
-67233.5
-84154.9
-62799
-44105.9
-50583.3
-54413.6
-82246.7
-57012.2
-61315.7
-135159
-146046
-143401
-100722
-133493
-120710
-98336.2
-130250
-67475.8
-50036.8
-37049.5
-49263
-45562.4
-69269.5
-55577.9
-51418
-92.9063
-17.2399
-92.3312
-16.7883
-91.9233
195.811
203.158
189.297
137.852
133.595
87.6859
-16.4716
90.5592
96.4073
-15.3171
91.8094
-64.3352
5.39327
-77.4411
2.57064
-84.169
-77.0771
-92.0825
-13.1581
-89.9339
-11.8488
-85.7755
-90.4965
-88868.1
-80432.4
-90403
-89978.4
-85940.7
-81284.3
-95375.8
-91157.8
1548.39
-47813.2
-52095.7
-74014.5
-107422
-75165.2
-58827
-102576
-63268.8
-53480
-86571.1
-55213.7
1176.74
-47270.9
-45668.6
-87708.3
-57902.6
-55777.4
-92858.8
-111768
-198199
-103726
-123567
-98090.4
-97451.4
-114020
-199679
-141392
-188932
-196908
-209249
-138717
-174585
-185337
-57031.6
-70871.7
-66675
-68762.3
-97846.1
-73323.7
-79598.5
-99844.9
-74898.9
-93099.6
-116236
-87843.2
-65631.4
-72391.4
-76777.9
-114141
-81229.4
-86124
-192816
-180685
-146761
-117953
-157008
-171027
-120488
-160477
-88425.9
-75771.4
-86987
-82449.2
-83610.1
-75079.7
-84518.4
-86434.5
-5495.74
-39994.8
-38513.1
-43881.6
-70361.3
-45860.5
-48370.7
-71443
-46492.5
-52948.3
-79656.6
-51275
-3763.83
-40443.4
-41827.4
-78676.1
-48962.6
-50724.6
-81957.4
-80191.5
-77728.5
-68671.5
-80516.1
-83793.6
-69549.8
-81388
-68959.6
-65811.3
-52920.3
-63617.6
-68222.9
-53963.7
-64785.7
-43219.1
-62578.7
-41168.3
-7298.17
-32068.6
-33755.8
-61446.3
-38380.4
-40482.5
-69973.8
-72888.8
-76747.9
-62088.1
-73680.5
-69344.1
-61099.1
-72619.9
-52327.1
-34831.5
-7839.73
-31504.5
-29781.5
-53468.8
-37678.5
-35545.7
-223268
-226392
-315594
-282793
-162299
-158739
-144843
-146028
-271646
-212058
-220003
-216634
-165883
-169488
-143591
-142276
-118418
-120333
-116485
-114540
-39.0705
-22.41
-40.2007
-22.6857
-39.3869
-40.4268
-38.7826
-9.71602
-59.8237
-256.661
-1284.15
-361.273
-39.0106
-21.7641
-39.6785
-30.8962
2.22911
-26.592
-27.2793
-6.964
-26.6921
-58.1372
-18.2044
-57.1922
-18.5152
-58.3574
-57.468
-36.6201
-20.4677
-38.1414
-39.207
-22.3213
-40.009
-56.2442
-16.4574
-55.7069
-58.2496
-18.2097
-57.2053
-180064
-155149
-182238
-186031
-183439
-240898
-239076
-210517
-170218
-204063
-206251
-200717
-17.3664
14.1551
-15.0255
-164.001
-274.063
-113.129
-297766
-167298
-158498
-238141
-288405
-149875
-187717
-199460
-200250
-133326
-148852
-192914
-204981
-137532
-518.361
-3180.48
-4871
-163916
-113824
-127122
-167826
-171430
-115949
-160303
-184012
-195780
-139667
-130893
-191249
-189071
-127793
-242495
-244079
-259860
-193850
-267113
-342768
-259191
-255870
-215120
-208072
-179661
-218987
-210808
-393.699
-2110.2
-1216.81
-134506
-131153
-101351
-103063
-86717.9
-98561
-100332
-106005
-81769.2
-114911
-88010.4
-112113
-108699
-79998.2
-92964.8
-95920.7
-78467.8
-69606.6
-98545.4
-90445.4
-71307.5
-137884
-141296
-125944
-124865
-105553
-121813
-122987
-104176
-105823
-93625.6
-107033
-108613
-85496.9
-93323.9
-72904.7
-67917.1
-90760.2
-87954.9
-66241.9
-57.7905
-17.4947
-56.5965
-35.9413
-18.5613
-36.1951
-28.546
-12.4918
-30.8749
-22.7855
12.1524
-26.2896
-2.16286
-45.007
-42.3173
-55.4349
-14.6914
-54.1693
-8.38604
-47.6717
-48.4754
-70675.7
-79011.6
-44005.5
-70950.6
-43635.2
-153490
-151881
-43242.4
-83520.5
-75496.1
-74061.6
-42760.8
-38854.1
-129000
-135067
-94027.3
-113409
-58582.4
-73044.3
-23912.8
-39801.1
-84045.5
-96013.8
-85934.8
-24140.4
-40576.3
-27951.9
-74999.4
-84496.4
-41165.8
-75892.1
-40806.7
-28550.7
-24880.2
-39482.3
-90363.8
-82496.7
-81075.6
-39396.1
-24407.1
-155488
-158314
-166119
-133427
-98344.3
-125582
-66878.1
-44080.3
-77690.3
-89392
-80432.8
-45758.9
-176706
-178511
-146809
-174841
-173367
-195118
-198783
-153831
-133421
-153751
-157227
-156967
-114180
-83552.4
-117741
-93878.7
-111426
-120599
-85344.3
-128434
-138391
-96318.8
-103875
-131388
-135345
-94464.2
-153401
-111762
-164316
-120489
-156807
-160883
-109742
-137421
-141474
-109998
-98186.8
-144594
-134385
-100066
-191433
-187758
-128929
-127949
-112938
-131065
-131940
-150472
-150559
-125609
-147150
-147391
-70413.4
-44362.4
-77090.3
-70147.6
-44696.3
-133061
-134737
-45798.2
-73623.1
-67942
-68399.8
-45729.8
-32401.4
-60251
-68171.3
-41702.1
-61240.2
-41927.8
-32375
-32101.5
-42669.1
-67001.6
-73573.7
-66064.6
-31941.1
-42628.6
-29626.2
-74127
-41497.3
-81588.7
-29109.8
-73257.6
-41794.1
-31500.2
-42672.1
-76676.6
-67925.9
-68840.6
-42633.3
-31740.6
-131342
-129579
-63098.2
-66860.6
-44935.9
-63801.4
-45164.8
-45822.4
-67448.1
-71247.9
-66918.9
-45808.9
-100662
-98659.1
-41808
-55911.5
-56035.8
-55036.4
-41357.5
-32244.1
-59256.8
-64831.5
-41452
-58256.5
-32322.2
-41177.3
-31534.9
-39108
-59174.3
-52183.8
-53203
-39499.5
-31334.8
-102668
-104660
-62372.3
-64033.6
-44683.1
-61625.5
-44405.6
-42240.4
-56774.3
-59096.8
-57622.3
-42656.9
-30874.9
-38699.6
-55752.6
-51162.8
-50141.3
-38272.5
-31114.2
153.015
154.16
125.08
124.403
153.467
124.565
153.894
152.89
124.285
124.148
153.677
124.224
152.882
153.717
-72.7317
93.6908
12.6942
50.9301
-5.68146
-53.8541
57.3216
-236.637
-323.694
-1.69756
-110.661
-154.35
-380.291
-27.5295
173.011
172.59
174.808
172.85
154.157
154.528
125.268
125.359
153.661
125.511
154.93
154.665
126.625
156.12
125.836
155.434
125.932
155.534
173.085
171.48
172.009
171.378
69.1906
-28.7567
93.0314
123.611
96.0643
128.284
59.9777
123.817
64.2682
87.372
144.165
125.195
118.68
163.277
132.502
139.185
107.634
157.286
-322.996
-9.31566
-38.119
-1039.71
155.938
157.807
128.26
127.324
156.789
127.184
157.048
155.477
126.013
155.856
126.603
154.864
126.688
156.385
-247194
-233351
-251289
-232138
-229361
-237109
-258982
-255232
-476029
-405813
-315775
-217216
-186265
-10928.8
-30851.4
-21192.2
-41931
-267761
-47731.6
-135977
-117069
-118763
-132822
-140743
-124682
-124722
-144024
-253196
-268897
-339695
-317966
-297345
-282851
-271372
-291764
-121284
-118054
-126415
-114460
-122799
-81301.2
-73412.4
-83502
-71288.3
-78727
-67126.6
-69177.3
-76596.3
-151687
-155195
-173224
-157274
-169089
-160946
-153494
-164994
-55153.1
-49840.2
-48173.7
-56961.2
176.315
173.799
173.926
173.786
176.144
176.399
178.674
175.775
158.29
158.703
128.941
129.888
157.508
129.683
159.661
159.234
131.792
162.24
130.995
160.532
130.379
160.901
-1.45134e+06
-299528
-227594
-112623
-113354
-119020
-120404
101417
97883.2
120698
106206
71697
73134.9
78371.1
76812.3
-71153.4
-72902.9
-77321.5
-75543.6
-107585
-106054
-100202
-101969
40960.2
42067.9
45307.6
44175.8
68355.2
67027
62674.6
63947.6
-88613.4
-84819.9
-88711.6
-148275
-147171
-85055.2
-89098.4
-88857.7
64891.6
78378.8
68836.4
57742.3
88929
96899.9
85010.4
96457.9
53817.9
50889
52782.7
51917.4
56673.8
57134
55217.8
58776.9
-174623
-188771
-227455
-155443
-169607
-124925
-143914
-146265
-242976
-221518
-238670
-209644
-213168
-217454
-229880
-234295
-88419.5
-75574
-86152.6
-77775.7
-91153.2
-82269
-79992
-93494.4
-125669
-112902
-128697
-110533
-121998
-104688
-107223
-119135
-176755
-173111
-177393
-168825
-181606
-190145
-172746
-185855
-88518.8
-84322.4
-88407.6
-139445
-140895
-84128
-88060.5
-88259.1
26328.3
26185.3
27517.6
25247.2
27882.2
30084.7
28682.5
29035.1
47656.8
48808.2
47001.8
49379.8
45328.6
43424.3
45171.7
43742
-124105
-122234
-81429.1
-78046.2
-82238
-83738.2
-78798.7
-83008.5
-68619.7
-66895.7
-62771.3
-64471.8
-42290.1
-45656.4
-44122.3
38960.8
37872.9
34913.9
35978.3
22923.2
21985.2
-92631.1
-90623.7
-68410.4
-63627.3
-67261.4
22744.1
25073
23772.3
23806.4
21345
21545.4
22741.9
20382.4
-110614
-112587
-80586.6
-75592.9
-79711.4
-77875.2
-74718.2
-78808.9
10399.1
12751.2
11893.8
11089.6
19.6109
-0.173967
112.228
83.2176
111.601
21.288
-1.20429
-22.8556
-40.0678
-40.8122
18.3287
111.411
82.8872
-1.25083
111.169
20.1317
-1.73578
152.642
153.671
124.505
124.048
124.166
152.834
153.513
152.676
124.193
153.597
123.967
152.799
124.101
153.517
-22.9133
-39.9661
-40.7586
19.0723
-0.541742
111.653
82.8973
111.173
20.8007
-1.45107
18.6411
111.317
-1.18668
82.7575
20.1084
111.115
-1.72804
-64.2955
-6.40668
41.3615
32.9735
-15.3718
-22.1796
-32.4077
-21.3015
-146.878
-79.5519
-111.206
-239.074
-0.947773
-136.899
-81.217
-226.8
-53.6146
-1879.19
-1550.81
-2835.55
-572.859
-1194
-3020.19
-891.475
-1109.79
-510.754
-307.895
-488.866
-762.809
-1007.11
-514.24
-225.736
-178.373
-412.019
-684.738
-1520.13
-2547.97
-399.902
-809.79
-1991.36
-313.077
-673.231
-343.846
-158.472
-446.751
-311.53
-832.218
-453.009
19.9534
-0.0656622
112.429
84.0738
112.479
21.3112
-0.596981
-21.5427
-38.4506
-39.5759
20.1268
113.741
84.4534
0.524001
112.944
22.0317
-0.409393
-38.1967
114.116
0.848124
22.2429
172.568
171.024
172.253
171.075
165.995
169.828
155.806
143.882
160.425
168.456
134.481
139.838
133.767
161.841
169.01
156.331
127.337
167.365
140.116
151.076
130.945
168.712
13.4029
3.47109
73.3769
90.3639
94.5029
0.284032
10.0614
-0.0783704
-24.1656
-25.6623
20.6986
115.393
95.5348
14.3822
107.638
26.886
12.3478
30.887
12.2315
123.689
98.7377
123.796
31.4598
12.8974
-4.44386
-23.8999
-25.2683
30.7313
120.919
99.5745
14.9993
122.639
31.2105
14.0555
3566.86
-8652.37
-3027.9
450.082
-91.309
-91.0322
-89.4159
-18.5742
-58.6705
-57.717
-91.7011
-91.6991
-89.9634
-18.7448
-58.7157
-57.8625
-91.3776
-91.2346
-89.6279
-91.829
-91.8416
-90.0461
153.352
153.927
124.727
124.67
153.133
124.795
154.24
153.768
125.744
155.285
125.023
154.508
124.952
154.72
21.5046
2.51233
115.368
85.8938
114.137
23.9766
1.09372
-21.2446
-38.5475
-38.9564
20.7718
113.073
85.1588
0.396257
113.654
21.5256
0.30235
19.6634
-0.352356
111.866
83.4415
20.9874
111.8
-0.984614
-22.228
-38.9609
-40.0851
19.0945
112.836
83.676
-0.0454777
111.877
21.4345
-0.978742
-89.4552
-90.5496
-88.1818
-17.2631
-57.6447
-56.6231
-91.101
-90.9052
-88.955
-91.4428
-91.037
-89.3113
-18.0498
-58.0498
-57.227
-91.6071
-91.1339
-89.5565
-194747
-206733
-198263
-158014
-193844
-190244
-189897
-186838
-210205
-205251
-201772
-234699
-237017
-271225
-250511
-268661
-262500
-247434
-265733
-166963
-197875
-193701
-201995
-197124
-218952
-223563
-215675
-208741
-220263
-212157
-49.1122
-49.0682
-42.4447
8.68995
-24.6767
-15.661
-47.8688
-41.5714
-40.5835
-112.037
-37.5161
-73.1769
-123.314
-55.4721
-70.9663
-46.5776
-49.6997
-53.9067
-7778.7
-1753.18
-2444.81
-4859.69
-3817.86
-8045.7
-4167.67
-9607.55
-31029.2
-12559.8
-3368.09
-3939.01
-3476.04
-6204.76
-170700
-172443
-175171
-112534
-162572
-164347
-202102
-215396
-266467
-168086
-228162
-150054
-210000
-207171
-147214
-192733
14227.9
-109319
-397988
10898.5
53863.3
38366.5
-244138
-671.407
87937.2
-200638
-153302
-212891
-147096
-213572
-209945
-139405
-6493.01
-231.226
-1080.99
-5614.49
-1108.15
-8558.96
-5925.15
-1419.85
-22100.5
420.039
-792.408
-35035.3
57.9622
-25709.7
1514.94
-26450.7
2153.46
-167633
-129435
-178963
-120422
-175129
-171538
-118127
-160201
-130069
-162683
-148391
-152955
-134686
-150235
-128913
-179842
-136942
-182897
-122751
-187043
-175515
-125327
-248596
-245588
-273452
-258256
-275324
-279064
-261198
-276996
-285323
-292670
-328674
-285804
-284068
-189833
-237521
-228376
-230228
-219665
-187342
-10516.5
-106215
-244397
-242104
-237403
-1508.27
-10243.8
-13869.6
-222716
-232887
-225561
-185743
-225075
-216537
-224661
-216344
-237318
-231620
-230455
-199.259
-143.061
-445.733
-1613.43
-6753
-1502.86
-400.344
-1923.92
-937.822
-124541
-127833
-141322
-128097
-137526
-130071
-124626
-133776
-77821.1
-90399.5
-92324.4
-87749
-89716.5
-102509
-100217
-97389.3
-111856
-114509
-108897
-84458.6
-93083.9
-94962.5
-95805.3
-97631.9
-111458
-103077
-105971
-103338
-86075.8
-106598
-76487
-100701
-109340
-78235.9
-69600.8
-59172.3
-67599.6
-61072
-72026
-65063.3
-74095.8
-63088.9
-95513.5
-80350.3
-103885
-74748.6
-98093.4
-101199
-73022.4
-148193
-144731
-145158
-138750
-149041
-156933
-142378
-152965
-136647
-140069
-133443
-103127
-115805
-117154
-118791
-120056
-136766
-127124
-130268
-114847
-123858
-117869
-95970.3
-112848
-114278
-109923
-111430
-127038
-124008
-120923
-75972.7
-65698.6
-83254.1
-61299.5
-80815.6
-78305.8
-59681.7
-63307.5
-57203.1
-65247.8
-55381.1
-61032.7
-51713.5
-59162.7
-53459.9
-83069
-71079.5
-85723.5
-62932.7
-88226.6
-80671
-64579.9
-90.9758
-90.3819
-88.8443
-17.2629
-57.3175
-56.5337
-90.7271
-90.5949
-88.9089
-56.7981
-90.0735
172.548
171.944
173.714
171.921
177.588
173.633
176.972
177.84
162.453
167.446
135.062
136.441
162.764
134.19
166.238
162.12
132.435
163.618
134.932
161.263
133.538
164.895
23.8346
3.22704
116.006
88.315
116.669
24.3952
3.20638
-17.7023
-34.0429
-35.6423
23.8826
119.01
89.2798
5.3194
117.371
26.667
3.85559
28.7195
11.006
123.54
94.7221
31.4845
122.064
8.84201
-14.6481
-33.1652
-32.7777
26.8849
119.762
93.0709
6.30245
120.974
26.9838
7.04625
-55.4879
-69.3353
-60.0572
7.88585
-35.2619
-31.453
-72.5263
-70.205
-64.8613
0.881905
-38.2404
-39.4484
-79.3465
-79.2916
-75.4447
-72.3013
-77.853
-73.1908
-88.9318
-88.715
-86.5814
-13.6908
-53.6743
-53.4052
-89.0866
-87.1521
-86.2242
-10.7104
-52.5188
-50.8449
-81.5741
-86.0766
-81.9093
-86.5027
-87.6858
-83.9222
-30650
22445.2
207882
-141796
-174802
-95433.2
-100857
-239969
-121100
-145884
-130775
-122679
98053.7
106710
123693
109882
92847.6
89261.6
82461.2
84650.7
-86605.2
-84782.6
-80085.1
-81881.3
-89666.7
-91508.8
-96622.8
-94780.8
52218.5
51049.6
47539.1
48684.1
54725.2
55921
59817.9
58588.4
-77689.3
-89318.4
-77983.5
-79693.8
-71670.8
-42954.1
-71273.6
-43275.8
-89819.3
-78754.3
-78328.7
-149388
-150565
-93115.8
-88070.1
-91353.7
-89519.4
-86769.2
-90221.2
-82262.8
-72224.4
-42721.4
-72958.3
-42632.5
-82976.1
-93525.5
-81359.2
-79349.9
-92133.3
-80149.9
81005.8
74421.3
81050
75923.6
93412.1
98105
100990
87291.8
-28843.5
-123964
-97938.5
-45520.5
-108678
-25432.8
-48664.9
-23994.7
-99068.6
-91052.4
-43754.4
-88491.4
-24918.8
-41402.9
-27324.9
-85506.7
-77768
-40076.1
-76802.3
-40437.5
-26680.4
68586.9
69277.3
66165.2
71714.3
64429.3
60079.1
61857
62423.8
-25424.8
-88959.7
-78772.7
-39755.3
-79896.7
-39510.4
-26042.5
-168023
-162028
-95738.6
-96966.4
-99693.9
-114071
-102957
-105281
-181274
-148840
-133999
-119990
-97125.3
-53604.7
-113817
-58784.9
-139816
-108700
-125766
-85433.8
-101677
-88654.6
-93074.3
-90092.1
-51417.4
-84471.3
-47535.3
-106893
-100001
-93372.7
-191222
-196111
-187696
-144089
-167658
-166746
-171224
-170046
-192526
-180656
-184173
-206058
-202438
-212064
-201014
-216514
-225434
-205131
-220976
-136060
-164139
-163465
-160663
-160205
-166710
-178158
-170172
-177147
-181743
-173652
-101658
-91688.8
-89256.5
-104166
-98734.3
-84547.8
-96317.9
-86901
-116966
-95857.1
-126403
-88961.3
-119783
-123486
-87148.6
-125516
-101855
-129351
-90785.3
-122632
-132331
-92618.6
-150078
-118350
-154211
-105804
-157517
-146826
-107758
-109818
-94149.4
-96651.7
-107211
-113012
-101820
-115740
-99268.3
-140503
-112063
-150959
-103872
-147755
-143636
-101962
-180409
-184078
-207623
-188746
-203210
-194465
-184702
-198821
-139879
-150149
-143139
-115437
-137398
-138042
-134213
-134977
-153565
-149744
-146427
-163269
-167488
-159850
-123040
-140613
-141133
-143864
-144249
-163971
-153087
-156456
-77405
-87974.9
-77113.8
-76439.9
-69548.9
-45243.8
-69862
-44991.1
-87497.9
-76452
-76798.6
-137931
-136364
-86695.1
-82890.4
-87125.7
-87805.8
-83277.4
-87496
-74364
-69202.3
-45451.3
-68820.5
-45614.5
-74660.6
-85200.6
-75171.2
-76066.2
-85839.3
-75639.7
33627.9
35618.9
34077.9
34924.9
31891.3
31309.2
30675.3
32780.4
-32402.6
-69269.9
-63195.4
-42300.1
-62220.3
-32375.2
-42128.3
-32225.3
-72514.3
-64161.2
-42443.1
-65117.9
-32317.1
-42553.1
-30094.6
-80626.6
-71515.6
-42263.7
-72390.1
-42050.1
-30516.8
38150.1
37003.9
38611.5
36775.3
40131.4
41783.3
41607.1
40108.1
-31218.6
-77683
-70634.4
-42431.1
-69742.4
-42554.2
-30890.2
-125962
-127787
-86207.6
-81415.5
-85664
-84428.2
-80826.3
-85070.6
-69270.2
-78683.8
-70050.9
-67773.5
-65134.4
-45522.5
-64481
-45361.2
-79613.6
-71532
-70805.3
-74109
-83028.5
-73518.4
-70409.4
-65760
-45654.5
-66355.3
-45751.6
-82225.2
-72228.2
-72890.3
-54914.7
-56558.3
-60452.6
-58777.9
-52792.1
-51184.2
-47586.1
-49159.2
29373
30392.6
33127.6
32077.1
27779.9
26787.5
24325.8
25287.1
-94641.8
-96651.4
-72831.4
-67928.2
-71754.7
-69543.6
-66878.9
-70658.5
-51870.6
-52340.5
-39889.5
-51420
-39368.5
-62439.1
-57373.9
-56359.2
-61315.1
-67088
-60348.6
-55002.3
-53251.3
-40396.1
-54151
-40886.2
-65941.2
-58378.2
-59368.9
-32144.3
-63706.9
-56245
-40566
-57253.1
-32024.4
-40882.6
16875.7
17359.9
18418.1
16027.7
18139.4
20523.9
19051.5
19396
-31717.6
-60311.7
-55233.1
-40229.9
-54218
-31881
-39875
-108639
-106657
-73886.7
-70967.5
-74918.8
-76914.5
-71940.3
-75929.1
-68464.9
-75744.5
-67636.8
-63065.1
-60075.2
-43769.1
-60859.3
-44101.5
-74722.1
-65919.4
-66787.9
-62267.2
-70450.4
-63204.5
-60102.4
-59273.4
-43419.9
-58456
-43050.6
-71542.7
-65031.4
-64126.3
-29749.8
-51185.7
-47076.7
-36899.4
-46055.3
-36410.2
-30057.8
14028.2
16421.4
15428.7
14829.6
12898.5
13607.1
12158.6
14530.5
-30619.7
-54610.2
-48098.7
-37374.1
-49120
-37830.5
-30347.9
192.641
169.861
179.748
168.272
193.196
167.871
169.602
-49.1798
89.4749
44.774
-134.772
-9.15732
-35.5994
63.3341
194.016
180.723
170.259
168.742
193.385
168.808
170.654
118.187
146.392
135.728
67.6516
90.7475
51.3587
150.878
196.022
183.018
171.662
173.622
170.835
196.758
172.87
198.198
185.412
172.389
174.517
197.486
172.794
175.453
192.315
179.35
167.815
169.388
167.392
192.486
169.214
-2893.73
-1494.29
1947.15
-805.176
-5386.73
-1673
-1268.36
199.128
190.549
171.561
183.469
170.495
201.046
183.556
193.153
180.102
168.08
169.659
192.907
168.158
169.992
-4863.84
1576.97
-18029.8
-2612.72
-7442.06
15996
-1789.87
202.263
190.955
175.282
182.71
202.269
175.041
181.757
192.827
179.566
168.177
169.506
167.726
192.943
169.464
-307.685
-101.806
-165.207
-83.6167
-590.605
-314.986
-59.48
194.736
181.498
170.607
171.986
169.791
195.798
171.346
158.105
167.923
128.627
175.096
128.299
172.622
168.209
195.66
182.332
170.353
171.779
170.375
195.302
172.247
-160028
-166721
185261
-61850.8
7422.25
-125567
-101718
-236761
-168492
-134388
-117930
-122161
-158665
-277130
-127499
-77110.5
-86618.8
-134710
-77541.4
-124569
-138000
-131288
-145192
-88521.1
-81331.9
-80661.2
-141554
-134538
-79023.2
-52577.9
-88970.7
-58444.8
-81041.2
-52177.8
-86679.8
-76723.7
-82092.8
-57052
-49734.3
-50169.1
-84327
-74745.6
-55059.3
-62821.8
-43124.7
-38775.2
-38173.5
-60875
-56800.4
199.477
186.769
175.192
178.121
173.842
200.907
176.755
24407.6
-33888.8
-56589.4
-8163.61
-44359.4
15034.4
15441.9
37021.5
26927.7
-49832.2
-62660.1
-52836.7
41440.8
25336.5
16876.9
-32090.7
-44420.2
6276.79
-33371.2
15795.5
7378.32
18569.2
9850.97
-44806.6
-33659.6
-32395.3
8622.93
19812.9
-85480
-54667.7
-91380.1
-62452.1
-83410.4
-55027.1
-93729.5
-87916.7
-98606.3
-57526.3
-63890.3
-57200.4
-90034.8
-96197.1
-118439
-74193.8
-131435
-81561.8
-121160
-73843
-128398
-115299
-122474
-79878.7
-70793.7
-71073.4
-125336
-112747
1682.31
-27923.8
-36996.1
-5855.34
-28981.9
1212.27
-5356.58
2529.27
-4264.26
-29693.5
-37498.9
-28591.1
3034.62
-4813.89
13320
-33039.5
5162.8
-43096.1
14254.1
-31723.7
4164.37
11910.5
2264.14
-42699.7
-31313.6
-32613.7
3168.06
11078.9
5.15155
-28233.5
-35389.3
-6347.15
-27229.5
430.174
-6794.31
-715.669
-7642.53
-34857.5
-26502.9
-27461.3
-7239.87
-1113.17
-5334.22
-10385.6
-28622.3
-23283.1
-22563.8
-10574.3
-5107.35
192.541
179.418
168.083
169.417
192.897
167.618
169.279
-811.156
-303.925
-1821.55
-414.044
-1023.6
19.6732
-361.648
193.912
188.76
158.359
180.708
188.121
159.674
182.689
193.909
180.681
169.752
171.189
194.806
168.771
170.538
-8891.59
5820.97
99793.1
-5823.17
-23234.8
-66474.5
1404.19
-163320
-93922.4
-164594
-107306
-175979
-156101
-95421.2
-155253
-202244
-122559
-108735
-196865
-172361
-106564
-290045
-172486
-127176
-134504
-307556
-183640
-126456
-191807
-121959
-175876
-118526
-185782
-182761
-127527
-188623
-210775
-117636
-139809
-179305
-212510
-127288
-154536
-103729
-96892.7
-143841
-147365
-105732
-151004
-158172
-154913
-98905.2
-109980
-151003
-162036
-107791
-147065
-91091.9
-162635
-96676.7
-152025
-157130
-88900.7
-142395
-149015
-84534.4
-94678.8
-138869
-153325
-85228.5
-174313
-120134
-173223
-107739
-179755
-167290
-116924
-170342
-158848
-112174
-105623
-165938
-163383
-114700
-99033.2
-74146.7
-95687.1
-65759.8
-93223.2
-101593
-72530.3
-96502.6
-88382.1
-64252.4
-69321.1
-90785.8
-94000.3
-70916.4
-68418.3
-44974.1
-73256.1
-51815.9
-75378.9
-66529.1
-45480.1
-70584.1
-79797.4
-47804.6
-53161.5
-72513.1
-77617.6
-47331
-86664.1
-63035.2
-79048.6
-58423.2
-81335.5
-84277.4
-64586
-89080.6
-86002.9
-67728.8
-59883
-91525.6
-83656.9
-66155.1
-70581.4
-68048.8
-48698.8
-55452.3
-65942.2
-72787.2
-53979.2
-62592.6
-43202.1
-71076.6
-48049.4
-64430.5
-69010.8
-42658.5
-60560.2
-64883.1
-40393.5
-46754.5
-58765.4
-66888.5
-40964.5
-79590.7
-61490.3
-76786.6
-54190.1
-81917.8
-74558.1
-59964.3
-77292.9
-70189
-56944.8
-52781.4
-75024.8
-72355.1
-58445.1
202.248
189.899
175.749
179.492
201.786
175.804
180.571
32540.9
-32603.6
-48816.1
18211.1
-33033.3
20389.4
30206.9
36638
24681.9
-39213.8
-51716.6
40967.7
-34050.5
22652.7
-20525.4
-99334
-74706.7
-29488.2
-1123.16
-93617.9
-52192.1
-10561.2
11982.2
-76214.6
-88460.2
8924.67
-93545.5
-7617.23
-9409.43
-72561.5
-59977
5359.8
-74210.2
7388.56
-10506
-8915.35
10399.5
-62557.7
-77910
-76760.3
8895.59
-8603.94
-16485.4
-65033.8
-54057.4
-4571.65
-3541.67
-65799.6
-17255
-15675.2
-1312.09
-54597.8
-67396
-2461.27
-66570.2
-14825.3
25440.3
-33671.3
-46643.7
16004
-32466.5
27448.9
14260.1
23240
11277
-32590
-46247.4
21683.1
-33518
12644.2
-12203.3
-71321.2
-57061.2
4006.87
-70141.3
-11257
2500.19
-13068.9
-120.156
-68234
-56465.4
-69195.9
-13960.3
1167.6
-97320
-62685.1
-108756
-69506.2
-106210
-99561.4
-62415.2
-94725.2
-101137
-59781.5
-68017.4
-92548
-103610
-60074.2
-106801
-75781.8
-98181.6
-70256.6
-100706
-104183
-77418.2
-109450
-105851
-71809.1
-80730.1
-103263
-112130
-79073.7
-120368
-87480.3
-116557
-78036.9
-113822
-123187
-85780.7
-117588
-108472
-76435.4
-82406.2
-111128
-114842
-84083
-144308
-101789
-140468
-91323
-137205
-147607
-99903.2
-141100
-130970
-89533.6
-96238.5
-134045
-137968
-98049.4
-104576
-65116.3
-111435
-73785.5
-102252
-114065
-65368.6
-107378
-119575
-68155.5
-75344.7
-109801
-116842
-67898.9
-128950
-89203
-119333
-82821.9
-126047
-122158
-90929.4
-131901
-127970
-94443.7
-84491
-134904
-125034
-92682.7
5511.15
-31007.8
-39495.3
-1724.57
-29812.5
-2395.21
6115.2
4512.34
-3665.2
-29221.2
-39027
3955.56
-30372.8
-3055.84
-23552.4
-52498.8
-44554.5
-14402.2
-14054.4
-53342.7
-23694.1
-23383.2
-13282.7
-45202.6
-55006.4
-13688.7
-54176.1
-23183.5
-22411.2
-58239
-47746.4
-11362.2
-57441.8
-11902.2
-22082.9
-22700.1
-12859.9
-47135.5
-55825.8
-56640.3
-12391.8
-22957.9
-18654.8
-64292.4
-5529.53
-52382.5
-6444.02
-17977.3
-63549.1
-19279.4
-8092.35
-51847
-62067.9
-7287.68
-62813.2
-19858.8
7871.69
-30358.8
-40928.1
-995.394
-31598.6
7201.68
-253.355
9051.65
1369.61
-32135
-41356.8
9791.08
-30860
551.944
-21319.4
-59021.8
-49568.3
-10800.5
-59799.5
-21720.9
-10183.5
-20877
-8831.59
-61321.5
-50138.6
-60562.4
-20389.1
-9537.92
-23908.9
-51652.7
-42536.4
-14714.8
-15013.7
-50798.5
-23812.3
-23977.8
-15525.6
-41861.7
-49080.1
-15276.7
-49942.6
-24026.4
-2731.83
-24982.3
-32638.6
-9067.65
-25845.9
-8752.39
-3063.44
-2129.83
-8041.19
-26662
-33192.3
-1772.49
-25755.1
-8397.49
-24050.8
-45603.4
-39087.8
-16285.4
-46477.1
-16125.3
-24016.7
-24063.5
-15744.7
-48215.7
-39783.2
-47346.8
-24054.1
-15950
-23435.5
-16771
-34115.6
-41217.4
-16814.9
-40337.4
-23575.6
-3902.99
-25005.9
-30930.8
-9380.4
-24194.8
-3611.53
-9651.35
-4397.86
-10155.4
-23385.9
-30358.6
-4665.52
-24152.9
-9923.36
-23897.6
-44729.3
-36968.3
-16420.2
-43851.8
-23966
-16543.1
-23806.8
-16716.9
-42096.1
-36261.1
-42974.5
-23699.4
-16637.3
)
;

boundaryField
{
    left
    {
        type            zeroGradient;
    }
    bottom
    {
        type            zeroGradient;
    }
    interface
    {
        type            zeroGradient;
    }
    procBoundary3to0
    {
        type            processor;
        value           nonuniform List<scalar> 
43
(
253.457
231.386
232.93
252.765
231.826
231.25
252.351
230.541
231.468
252.923
231.592
231.531
254.559
233.796
232.613
252.392
230.477
231.663
255.029
233.252
252.258
231.04
230.777
253.882
231.89
232.811
231.386
232.93
233.796
232.613
231.826
231.25
230.477
231.663
233.252
230.541
231.468
231.04
230.777
231.592
231.531
231.89
232.811
)
;
    }
    procBoundary3to1
    {
        type            processor;
        value           nonuniform List<scalar> 
23
(
197.755
182.849
127.043
156.762
127.521
-20.485
85.983
-16.1937
-89.8431
174.546
127.043
156.762
155.896
127.043
-38.5791
21.191
114.613
0.750637
-55.6599
-88.1309
171.364
172.66
196.23
)
;
    }
    procBoundary3to2
    {
        type            processor;
        value           nonuniform List<scalar> 
328
(
215.23
-256.644
559.653
180.581
7.81225
1202.47
-1000.39
-87328.8
-48212.2
-30255.8
256.384
233.864
235.326
258.109
236.621
235.273
-48212.2
-48212.2
54458.2
54458.2
54458.2
14249.2
14249.2
14249.2
-31988.6
-31988.6
-31988.6
-45850.3
-45850.3
-45850.3
6381.25
6381.25
6381.25
12995.9
12995.9
12995.9
-30255.8
-30255.8
-19385.1
5628.83
5628.83
5628.83
430.345
261.656
253.884
208.1
430.345
430.345
430.345
430.345
430.345
7558.21
-56550
-57405.7
-25323.3
-23768.2
262.721
226.908
245.697
7558.21
7558.21
7558.21
7558.21
7558.21
-56550
-56550
-57405.7
-57405.7
23104.4
23104.4
23104.4
18512.1
18512.1
18512.1
-37475.8
-37475.8
-37475.8
-39421.2
-39421.2
-39421.2
8906.59
8906.59
8906.59
9846.34
9846.34
9846.34
-25323.3
-25323.3
-23768.2
-23768.2
3620.59
3620.59
3620.59
3031.25
3031.25
3031.25
7.81225
243.524
348.577
39.4219
7.81225
7.81225
7.81225
7.81225
7.81225
239666
-84185.9
-50919.6
-28567.4
-20798.2
233.532
260.104
235.161
239.186
239666
239666
239666
239666
239666
-84185.9
-84185.9
-50919.6
-50919.6
20740.9
20740.9
20740.9
15513.3
15513.3
15513.3
-33767.1
-33767.1
-33767.1
-43571.8
-43571.8
-43571.8
7176.56
7176.56
7176.56
11893.2
11893.2
11893.2
-28567.4
-28567.4
-20798.2
-20798.2
4918.33
4918.33
4918.33
1970.91
1970.91
1970.91
166.991
256.351
159.347
278.038
166.991
166.991
166.991
166.991
166.991
61838.2
-118167
-53047
-26923.3
-22259.1
261.886
241.421
233.94
61838.2
61838.2
61838.2
61838.2
61838.2
-118167
-118167
-53047
-53047
14302.6
14302.6
14302.6
17503.6
17503.6
17503.6
-35593.8
-35593.8
-35593.8
-41449.6
-41449.6
-41449.6
8017.66
8017.66
8017.66
10836.5
10836.5
10836.5
-26923.3
-26923.3
-22259.1
-22259.1
4249.04
4249.04
4249.04
2480.89
2480.89
2480.89
-256.644
559.653
348.577
39.4219
1202.47
-1000.39
-2890.85
3073.92