/*--------------------------------*- C++ -*----------------------------------*\
| =========                 |                                                 |
| \\      /  F ield         | OpenFOAM: The Open Source CFD Toolbox           |
|  \\    /   O peration     | Version:  2012                                  |
|   \\  /    A nd           | Website:  www.openfoam.com                      |
|    \\/     M anipulation  |                                                 |
\*---------------------------------------------------------------------------*/
FoamFile
{
    version     2.0;
    format      ascii;
    class       volVectorField;
    location    "0.107/solid";
    object      D;
}
// * * * * * * * * * * * * * * * * * * * * * * * * * * * * * * * * * * * * * //

dimensions      [0 1 0 0 0 0 0];


internalField   nonuniform List<vector> 
3124
(
(1.75907e-11 5.43454e-11 4.12751e-11)
(-3.67856e-13 -2.52976e-13 -1.85059e-12)
(3.33477e-12 -9.22195e-13 2.04302e-11)
(7.74962e-11 2.2196e-10 -8.69359e-12)
(1.77552e-12 2.92463e-13 3.73812e-11)
(-2.75104e-13 -2.52879e-13 -2.72266e-12)
(4.39436e-12 -8.96757e-13 2.09617e-11)
(7.7475e-11 2.26986e-10 -8.84555e-12)
(1.21312e-12 -3.73676e-13 3.72614e-11)
(-3.94899e-13 8.71099e-12 1.8535e-11)
(1.43295e-11 3.78968e-11 5.12694e-11)
(8.15662e-11 2.23873e-10 2.91484e-11)
(-2.04702e-12 -1.11495e-11 3.20352e-11)
(3.67131e-13 -5.61227e-13 1.34382e-11)
(-5.09552e-12 7.28261e-12 1.59382e-11)
(3.22811e-12 -6.96367e-12 2.9869e-11)
(2.38427e-12 1.90252e-11 5.04885e-11)
(2.38513e-12 -6.92882e-12 2.45116e-11)
(8.06917e-12 -4.52493e-12 2.47896e-11)
(8.08243e-11 2.29005e-10 1.26232e-11)
(-1.62292e-12 -9.01334e-13 2.61769e-11)
(-1.81139e-12 -7.48473e-13 2.58047e-11)
(3.44926e-13 -5.20452e-13 1.3306e-11)
(4.43439e-10 4.8962e-10 4.00466e-11)
(2.9927e-11 4.14161e-11 3.55395e-11)
(2.09428e-11 6.1297e-11 3.79513e-11)
(5.64888e-11 1.48167e-10 9.62532e-11)
(1.75629e-10 5.72044e-10 1.94534e-10)
(1.94639e-11 3.02026e-11 2.8705e-11)
(1.10716e-10 1.27327e-10 7.99508e-11)
(1.06971e-12 -1.15917e-12 6.03061e-12)
(1.4614e-12 -2.1914e-12 1.77696e-11)
(1.29642e-12 -6.91939e-13 5.93477e-12)
(3.77218e-10 3.80195e-10 -8.02545e-12)
(6.38319e-11 1.49223e-10 -6.88042e-12)
(2.4112e-10 8.77421e-10 -1.63344e-11)
(7.70569e-11 2.19009e-10 -7.37721e-12)
(3.9015e-10 3.96927e-10 -7.73677e-12)
(2.40448e-10 8.65071e-10 -1.1475e-11)
(6.22959e-11 1.46546e-10 -6.66969e-12)
(2.06479e-11 6.56223e-11 3.79523e-11)
(7.65413e-12 -1.17246e-11 4.48802e-11)
(-3.4944e-12 1.45879e-12 -7.37288e-12)
(-6.98445e-12 9.42348e-12 1.43454e-12)
(-1.28958e-11 1.32059e-11 1.45743e-12)
(8.56343e-12 -1.45688e-13 2.66045e-11)
(1.72041e-12 -1.59948e-12 7.42721e-12)
(6.50368e-12 -4.15369e-13 1.83144e-11)
(3.97323e-10 4.15264e-10 5.39851e-13)
(7.77604e-11 2.31182e-10 -4.85523e-12)
(6.28699e-11 1.52264e-10 -6.71356e-12)
(2.4212e-10 8.90635e-10 -1.58605e-11)
(3.89119e-10 3.97725e-10 -7.72119e-12)
(2.43633e-10 9.21129e-10 -3.84352e-12)
(6.36893e-11 1.5553e-10 -5.4456e-12)
(4.69162e-13 -3.39222e-12 3.44402e-11)
(-2.26375e-12 -4.64483e-13 2.42489e-11)
(4.2628e-14 -3.08548e-13 1.23047e-11)
(-1.0418e-12 -1.04882e-13 -1.52099e-12)
(2.50668e-12 9.33267e-12 9.46464e-12)
(-4.97997e-12 1.14092e-11 6.49175e-11)
(2.87599e-11 3.06362e-11 3.50784e-11)
(5.88378e-11 4.36442e-11 2.89402e-11)
(8.45037e-12 4.34046e-11 4.74943e-11)
(5.03413e-12 -5.84816e-12 5.80053e-11)
(2.14116e-10 8.05777e-10 2.02829e-12)
(2.98958e-11 4.15317e-11 3.72513e-11)
(4.46328e-10 4.87574e-10 3.42865e-11)
(8.09901e-11 2.02467e-10 6.51001e-11)
(2.25135e-10 8.73318e-10 2.96595e-11)
(8.60393e-11 1.62504e-10 1.64634e-11)
(1.9367e-10 7.48198e-10 1.05114e-10)
(4.26832e-10 4.50121e-10 1.841e-11)
(9.28019e-11 1.57629e-10 4.66383e-11)
(2.53332e-10 1.10898e-09 1.30082e-11)
(2.06507e-10 9.29501e-10 6.93153e-11)
(-6.81236e-12 2.43226e-12 6.71913e-11)
(-3.9595e-12 -1.12852e-11 5.36537e-11)
(3.54283e-11 3.71588e-11 5.46339e-11)
(4.86034e-11 4.66693e-11 5.61863e-12)
(5.12938e-11 4.98111e-11 1.91966e-11)
(-3.37648e-13 -8.9895e-13 3.44869e-12)
(-2.67409e-13 -4.04797e-13 3.52693e-12)
(1.74612e-12 -2.31531e-12 1.68454e-11)
(-4.51596e-13 -2.83709e-13 -3.41618e-13)
(6.56475e-13 -9.75092e-13 3.57909e-12)
(-1.63911e-12 -2.61217e-13 -1.14246e-12)
(-7.80169e-13 -5.78677e-13 1.93566e-12)
(3.7281e-11 4.18122e-11 -2.39828e-12)
(3.52587e-11 4.04232e-11 -3.05984e-12)
(2.73994e-10 1.12805e-09 -1.18885e-11)
(2.7403e-10 1.11967e-09 -9.49389e-12)
(3.75935e-10 3.79125e-10 -7.90622e-12)
(7.63191e-11 2.17275e-10 -6.87226e-12)
(2.40075e-10 8.65152e-10 -1.30356e-11)
(5.99619e-11 1.44441e-10 -6.10447e-12)
(2.73879e-10 1.12153e-09 -1.06902e-11)
(3.50163e-11 4.00175e-11 -2.29441e-12)
(2.66061e-11 4.58237e-11 4.8723e-11)
(2.17819e-11 1.40372e-12 4.15498e-11)
(-6.98264e-12 2.40276e-12 -2.54808e-12)
(-1.42543e-11 1.02609e-11 5.48802e-11)
(-1.78283e-11 1.30438e-11 1.22168e-11)
(-3.18629e-12 7.73837e-12 -2.78391e-12)
(-1.05054e-11 1.557e-11 8.86533e-12)
(-1.2471e-11 2.2319e-12 5.75017e-11)
(3.17969e-11 1.14292e-11 3.85023e-12)
(-1.35335e-11 1.26827e-11 1.8538e-11)
(-4.21282e-12 -3.72745e-12 3.22423e-11)
(-1.62873e-12 -3.73842e-12 4.2272e-11)
(5.57738e-12 5.26777e-12 2.0621e-11)
(2.72763e-13 -1.30766e-12 4.76366e-12)
(3.98897e-12 2.22156e-13 1.35595e-11)
(-5.37231e-12 -7.71701e-12 3.62068e-11)
(3.10347e-12 4.6577e-12 1.34134e-11)
(4.24227e-11 2.6909e-12 1.37787e-12)
(4.01487e-10 4.1885e-10 2.22971e-12)
(7.90934e-11 2.31386e-10 2.54107e-12)
(2.30603e-10 8.76561e-10 1.9456e-11)
(7.99985e-11 1.61724e-10 5.54781e-12)
(4.29714e-10 4.49988e-10 1.55585e-11)
(2.41936e-10 9.12043e-10 4.75665e-12)
(7.11404e-11 1.59183e-10 -1.79745e-12)
(3.72991e-11 4.21981e-11 -2.80884e-12)
(4.0484e-11 4.3563e-11 -1.76966e-12)
(2.7555e-10 1.14912e-09 -1.29417e-11)
(2.79746e-10 1.2008e-09 -1.67628e-12)
(2.60818e-10 1.10742e-09 1.06774e-11)
(2.77055e-10 1.18166e-09 5.78889e-12)
(4.83611e-11 4.66916e-11 3.6854e-12)
(4.14356e-11 4.43675e-11 -1.65235e-12)
(-1.16776e-13 -3.4463e-12 3.04472e-11)
(-2.18351e-12 -5.21302e-13 2.45879e-11)
(3.47499e-14 -3.09336e-13 1.2397e-11)
(-6.08391e-13 -2.34368e-13 -6.09358e-13)
(-9.85648e-13 -1.10645e-13 -1.40269e-12)
(-2.12595e-12 -7.08601e-14 -2.27575e-12)
(-1.7842e-12 -1.91841e-13 -1.45405e-12)
(-2.07021e-12 -9.79255e-14 -2.15394e-12)
(2.60629e-10 9.34608e-10 -1.31824e-11)
(-7.63639e-12 -3.49119e-12 -4.42445e-12)
(-1.52769e-12 -2.08826e-12 -1.14363e-13)
(-6.97714e-13 -5.35808e-13 1.5178e-11)
(1.89054e-12 -8.90785e-13 1.98849e-11)
(-7.98339e-13 -5.93785e-13 1.53805e-11)
(3.60272e-12 6.02099e-13 3.84049e-11)
(-1.27893e-11 1.23035e-11 -4.99268e-11)
(-1.29103e-13 -1.63626e-13 -1.44085e-12)
(-1.86058e-12 -2.09959e-12 -4.80776e-13)
(-3.80204e-13 2.60766e-12 -5.022e-12)
(7.22825e-12 -8.66597e-13 2.30712e-11)
(-7.98807e-13 -8.08116e-13 1.52589e-11)
(-8.20157e-13 -1.16728e-12 1.7042e-11)
(1.76797e-12 -9.5354e-13 3.72884e-11)
(5.2335e-11 1.06657e-11 1.29025e-10)
(4.14466e-12 9.09102e-12 1.55232e-11)
(-1.05001e-12 1.83502e-11 4.05608e-11)
(-5.59231e-13 -5.51662e-12 5.14846e-11)
(-1.97405e-12 2.69355e-12 1.76196e-10)
(1.0867e-11 1.97034e-11 3.53545e-11)
(3.0866e-12 -2.22763e-12 4.11034e-11)
(-9.70037e-12 1.236e-10 2.67746e-10)
(2.57219e-11 4.26376e-11 6.01579e-11)
(4.66592e-11 -2.54207e-11 2.10841e-10)
(1.64996e-11 1.98054e-11 5.79612e-11)
(-2.77174e-11 3.00339e-10 1.4222e-10)
(4.50859e-11 6.5781e-11 1.62595e-10)
(3.40779e-11 3.88015e-11 6.13565e-11)
(8.24409e-12 9.20367e-12 2.4375e-10)
(1.05205e-11 2.56289e-12 8.99764e-11)
(-6.93168e-12 -1.31591e-11 4.60128e-11)
(-5.8778e-12 -1.34979e-11 3.81333e-11)
(4.92165e-12 4.69948e-12 1.71114e-10)
(4.02117e-12 5.92989e-12 1.20029e-10)
(-7.2892e-12 -1.38174e-11 5.58057e-11)
(7.57243e-13 -1.1258e-12 1.40802e-11)
(-2.91325e-12 -3.84224e-13 9.238e-12)
(-2.75241e-12 -8.3541e-13 9.77906e-12)
(-3.60177e-12 4.23988e-11 5.88901e-11)
(-1.35889e-11 -2.80114e-11 2.14637e-10)
(8.34522e-11 3.09979e-10 1.18774e-10)
(-1.08923e-11 5.29572e-12 7.98194e-11)
(-7.63772e-12 5.51447e-12 1.03585e-11)
(-1.15114e-11 1.52839e-11 3.40989e-11)
(-1.43127e-12 -5.0327e-12 4.73685e-11)
(-2.78567e-12 2.97582e-12 1.57469e-10)
(-1.64684e-11 1.23472e-11 2.27886e-11)
(-3.11969e-12 -1.84035e-12 2.17288e-11)
(1.37451e-11 1.28568e-11 1.38349e-10)
(1.45364e-11 3.57853e-12 8.89584e-11)
(-3.46592e-12 -9.12675e-12 3.96172e-11)
(7.61716e-12 -2.12727e-12 2.9953e-11)
(5.21727e-12 5.36224e-12 1.55614e-10)
(3.63728e-11 1.36458e-11 9.59214e-11)
(-8.54202e-13 -3.21107e-12 3.64665e-11)
(2.47628e-12 4.71803e-12 6.63546e-11)
(1.24513e-11 2.27389e-12 8.33598e-11)
(-2.98716e-12 -8.70618e-12 2.75279e-11)
(6.01906e-12 -5.37989e-12 1.98595e-11)
(2.9056e-12 6.39115e-12 1.06914e-10)
(1.85424e-11 2.19809e-12 6.95388e-11)
(-7.61403e-13 -4.4023e-12 2.1433e-11)
(6.27827e-11 1.1398e-11 6.87323e-11)
(1.76034e-11 2.91697e-12 8.34807e-11)
(1.43295e-11 -1.1536e-12 2.6531e-11)
(1.18668e-11 -4.11841e-12 2.11362e-11)
(4.36232e-11 1.19396e-11 9.74782e-11)
(2.59621e-11 2.77751e-12 6.48797e-11)
(2.01957e-11 -1.63093e-12 2.26464e-11)
(-1.34924e-12 -1.36359e-12 2.66263e-11)
(-1.94263e-12 -6.58861e-13 2.53936e-11)
(1.79159e-13 -3.92207e-13 1.29009e-11)
(-2.93803e-12 -3.46276e-13 9.13104e-12)
(-3.02949e-12 -2.60507e-13 8.75619e-12)
(1.29719e-10 2.44627e-10 1.44606e-10)
(3.019e-10 5.39476e-10 9.82164e-11)
(3.24582e-10 3.60889e-10 -3.83621e-12)
(2.80809e-10 3.55698e-10 8.41164e-11)
(1.96835e-10 2.32582e-10 1.24339e-10)
(2.30894e-10 3.89113e-10 1.33586e-10)
(2.15698e-10 4.03416e-10 9.70365e-11)
(5.20515e-11 1.31948e-10 1.18505e-10)
(4.26875e-11 6.83699e-11 9.31712e-11)
(1.67397e-11 2.9676e-11 2.95946e-11)
(1.93936e-11 4.21846e-11 3.09963e-11)
(5.99646e-11 1.00208e-10 8.87037e-11)
(7.71222e-11 1.54669e-10 9.27688e-11)
(1.2889e-11 3.65267e-11 3.53429e-11)
(-6.47205e-12 -5.38627e-12 -6.42272e-12)
(-3.14934e-12 -5.74612e-13 1.33422e-11)
(5.93971e-13 -1.5707e-13 4.70094e-12)
(-3.9277e-12 -5.35167e-13 1.30471e-11)
(1.75737e-12 -1.11917e-12 1.96458e-11)
(-1.39787e-12 -1.60139e-12 1.32959e-11)
(-8.80032e-13 -8.2054e-13 1.51234e-11)
(4.24933e-13 -4.91015e-14 4.60611e-12)
(-3.93185e-12 -1.45383e-12 1.10495e-11)
(-3.79643e-12 -6.87048e-13 1.27318e-11)
(1.83813e-10 4.31533e-10 -1.25312e-11)
(3.85216e-10 3.88323e-10 -7.89061e-12)
(2.74495e-10 5.7105e-10 -1.08246e-11)
(2.21545e-10 2.9913e-10 -1.07385e-11)
(2.25433e-10 3.03012e-10 -1.07854e-11)
(2.77814e-10 5.73394e-10 -1.1717e-11)
(1.81325e-10 4.29035e-10 -1.17664e-11)
(1.85409e-10 4.33596e-10 -1.23733e-11)
(3.86336e-10 3.89731e-10 -8.10947e-12)
(2.28386e-10 3.09602e-10 -9.5776e-12)
(2.8117e-10 5.834e-10 -1.25993e-11)
(1.85661e-10 4.39275e-10 -1.25925e-11)
(2.27666e-10 3.05599e-10 -1.07275e-11)
(2.80285e-10 5.76489e-10 -1.13076e-11)
(4.91719e-12 3.76665e-12 3.87538e-11)
(-1.12575e-11 9.61991e-12 -4.82997e-11)
(-3.34779e-13 2.89161e-13 -8.22643e-12)
(-9.88119e-12 5.69875e-12 -7.64797e-12)
(-2.96462e-12 3.99029e-12 -3.30284e-11)
(-1.08961e-11 9.74242e-12 -2.52368e-11)
(-4.83131e-12 3.09996e-12 -1.20156e-11)
(3.56713e-12 5.73356e-12 -3.91145e-11)
(-6.00311e-12 1.46479e-11 -4.19391e-11)
(4.60102e-12 2.88078e-11 -1.79059e-11)
(-6.33066e-12 1.45488e-11 -3.39485e-12)
(-1.41875e-12 2.48498e-11 -7.28878e-12)
(-1.78255e-12 3.85686e-12 -4.37938e-12)
(-8.88764e-12 1.28195e-11 -4.09539e-11)
(-1.61715e-11 2.328e-11 -6.47642e-12)
(-1.16327e-11 9.87057e-12 -3.50118e-12)
(-6.03805e-12 1.18981e-11 -3.72096e-12)
(-1.12513e-11 1.11907e-11 -1.42598e-11)
(-2.39629e-12 2.28035e-11 -1.3941e-11)
(-7.22634e-12 9.35242e-12 -7.49246e-12)
(7.53217e-12 -6.68255e-13 2.38957e-11)
(-2.34665e-13 7.85432e-13 2.03226e-11)
(-7.14563e-13 -9.0933e-13 1.78298e-11)
(-2.70458e-12 -6.9874e-13 1.34805e-11)
(5.93385e-12 -1.52961e-12 1.47586e-11)
(-2.39997e-12 -9.49709e-13 1.45229e-11)
(-6.88875e-13 -2.24998e-13 1.77244e-11)
(6.37893e-12 -1.17772e-12 1.50424e-11)
(-2.41423e-12 -8.29709e-13 1.50262e-11)
(1.83922e-10 4.5824e-10 -9.5503e-12)
(3.87475e-10 4.0355e-10 -4.41091e-12)
(2.83218e-10 6.202e-10 -6.10103e-12)
(2.30104e-10 3.22699e-10 -6.77007e-12)
(1.87605e-10 4.63244e-10 -7.52654e-12)
(2.24639e-10 3.16808e-10 -7.49425e-12)
(2.79282e-10 6.14167e-10 -8.80886e-12)
(1.83446e-10 4.52902e-10 -1.11152e-11)
(3.88335e-10 4.02473e-10 -5.52322e-12)
(2.26967e-10 3.11527e-10 -8.82597e-12)
(2.8044e-10 5.9267e-10 -1.17915e-11)
(1.84942e-10 4.44475e-10 -1.18156e-11)
(2.24811e-10 3.14766e-10 -7.56707e-12)
(2.7901e-10 6.04166e-10 -1.17962e-11)
(1.15125e-12 -1.9338e-12 3.69681e-11)
(-2.30406e-12 -3.88928e-13 2.39521e-11)
(-2.56962e-14 -2.14979e-13 1.20732e-11)
(-3.10566e-12 -1.98144e-13 8.28461e-12)
(-5.9688e-12 -1.75449e-13 6.09571e-12)
(3.45143e-10 3.04354e-10 5.08601e-11)
(1.75782e-10 1.52351e-10 1.17926e-10)
(-1.14411e-11 -4.66939e-12 1.13295e-10)
(3.63425e-12 8.16481e-12 1.05347e-11)
(2.31587e-12 1.68677e-11 2.87013e-11)
(2.32864e-11 2.91075e-11 2.72306e-11)
(-3.22769e-11 5.13733e-11 1.52278e-10)
(6.53395e-12 1.51266e-11 2.68011e-11)
(1.64075e-11 -2.77259e-13 1.32339e-11)
(4.78654e-11 1.96529e-11 1.77646e-10)
(-2.98755e-12 1.65004e-11 5.55247e-11)
(3.72223e-12 9.63375e-12 2.46572e-10)
(1.1641e-11 1.75329e-11 6.78913e-11)
(2.55508e-11 2.14381e-11 2.8297e-10)
(-2.83632e-13 6.28313e-12 1.97011e-10)
(1.45114e-11 2.20984e-11 5.36994e-11)
(1.52317e-11 3.87515e-11 1.68957e-10)
(8.06419e-11 8.56302e-11 6.29538e-11)
(1.40483e-11 2.05584e-11 2.97565e-11)
(2.94492e-11 2.93214e-11 5.62256e-11)
(8.8855e-11 9.28788e-11 1.05928e-10)
(3.82476e-11 2.81713e-11 2.6686e-10)
(2.29757e-11 2.53199e-11 3.95458e-11)
(2.63842e-10 2.11178e-10 1.39126e-11)
(2.66869e-11 4.93639e-11 4.13154e-11)
(1.79832e-11 1.62552e-10 8.99359e-11)
(3.81383e-10 6.98029e-10 3.77384e-11)
(1.78794e-10 3.67722e-10 1.14955e-10)
(1.05852e-10 1.30986e-10 2.03292e-10)
(2.14219e-11 1.42867e-11 3.98551e-11)
(3.76506e-12 7.62871e-11 2.66013e-10)
(7.78972e-12 4.12895e-11 3.4868e-11)
(1.0082e-10 2.03256e-10 1.19409e-10)
(4.33078e-11 -1.64603e-10 2.16156e-10)
(3.23595e-11 4.84486e-11 3.98428e-11)
(1.24533e-11 8.60827e-11 2.8563e-10)
(8.36017e-12 3.10009e-12 6.0548e-11)
(8.58132e-12 2.75799e-11 1.92839e-10)
(1.03191e-11 1.44357e-11 7.37536e-11)
(2.38963e-11 4.73801e-11 3.02613e-10)
(1.39569e-11 3.02351e-11 1.76857e-10)
(1.70084e-11 2.86718e-11 7.15851e-11)
(3.22041e-10 7.2671e-10 5.16309e-11)
(1.04772e-10 2.42434e-10 1.14458e-10)
(1.65007e-10 3.69584e-10 1.35465e-10)
(5.16341e-11 1.25418e-10 2.24933e-10)
(8.65044e-11 1.13491e-10 4.08935e-11)
(1.77103e-11 3.68141e-11 3.03988e-11)
(2.63262e-11 4.10004e-11 6.17911e-11)
(7.44851e-11 1.20181e-10 1.40321e-10)
(3.26348e-11 5.19145e-11 2.90499e-10)
(2.7679e-11 5.2014e-11 5.10883e-11)
(2.22374e-10 4.56184e-10 5.27259e-11)
(3.14879e-10 5.96803e-10 5.60476e-11)
(4.28306e-10 4.63937e-10 3.22371e-11)
(2.90181e-10 3.58996e-10 5.45817e-11)
(2.29187e-10 4.2954e-10 8.01657e-11)
(3.10555e-10 6.18553e-10 3.78393e-11)
(2.80361e-10 3.58429e-10 3.59048e-11)
(2.18533e-10 4.62386e-10 3.68221e-11)
(4.29738e-10 4.62409e-10 2.79463e-11)
(3.07441e-10 6.20553e-10 1.8886e-11)
(2.68232e-10 3.47935e-10 1.95628e-11)
(3.07762e-10 6.22365e-10 2.62039e-11)
(2.7223e-10 3.52219e-10 2.78882e-11)
(2.14895e-10 4.64054e-10 2.38605e-11)
(3.87056e-10 7.33209e-10 2.14213e-11)
(3.96457e-10 7.64746e-10 1.98849e-11)
(2.42586e-10 1.09486e-09 2.3022e-11)
(3.48713e-10 8.58713e-10 1.26693e-11)
(3.4168e-10 8.54411e-10 2.09418e-11)
(3.24356e-10 7.71213e-10 4.16899e-11)
(2.33095e-10 1.05124e-09 3.10121e-11)
(3.39596e-10 8.44738e-10 2.43322e-11)
(4.03934e-10 7.61573e-10 1.2508e-11)
(3.98216e-10 7.67819e-10 1.72121e-11)
(1.17202e-11 1.16936e-11 2.73526e-10)
(-8.50717e-12 -7.47027e-12 6.03038e-11)
(3.83653e-12 9.98802e-12 2.48825e-10)
(4.35186e-12 7.89712e-12 7.40291e-11)
(2.29147e-11 2.06989e-11 2.92548e-10)
(3.95731e-12 5.49539e-12 1.98728e-10)
(-3.0624e-12 -3.65532e-12 7.0247e-11)
(1.11246e-11 1.3649e-11 2.63693e-10)
(-5.54343e-12 -1.33963e-11 4.54723e-11)
(6.35199e-12 2.33302e-11 1.76541e-10)
(2.43755e-12 9.99192e-13 7.18946e-11)
(2.03114e-11 3.68461e-11 3.0051e-10)
(3.3551e-12 9.92936e-12 1.36297e-10)
(-3.30527e-12 -9.23837e-12 6.50846e-11)
(1.57442e-11 1.65597e-11 2.87697e-10)
(8.18084e-11 9.23861e-11 1.51738e-10)
(2.11365e-11 2.08607e-11 7.11569e-11)
(1.80028e-11 2.32631e-11 7.19991e-11)
(3.12905e-11 2.84334e-11 2.87757e-10)
(2.99546e-11 4.20761e-11 2.95426e-10)
(7.12041e-12 6.6019e-12 7.50603e-11)
(3.30003e-10 2.84425e-10 4.32119e-11)
(3.16874e-10 2.75652e-10 3.04067e-11)
(2.15807e-10 1.8073e-10 1.39203e-11)
(4.84167e-11 4.71435e-11 8.32885e-12)
(2.12307e-10 1.81828e-10 2.10341e-11)
(3.06791e-10 2.64434e-10 1.68297e-11)
(3.11562e-10 2.70024e-10 2.54811e-11)
(2.07707e-10 1.88065e-10 5.01981e-11)
(5.09782e-11 4.67639e-11 1.09413e-11)
(2.25266e-10 1.8976e-10 2.29097e-11)
(-5.27232e-13 -1.84733e-13 -1.15227e-12)
(-5.34434e-13 -1.27223e-13 2.71345e-12)
(-8.96329e-13 -1.36489e-14 -1.58559e-12)
(-7.72158e-13 -1.64156e-14 2.41117e-12)
(-8.63282e-13 -3.55621e-14 -1.69165e-12)
(-8.70008e-13 -4.14361e-14 -1.53433e-12)
(8.50202e-13 -1.43706e-12 1.44549e-11)
(-1.69705e-12 -1.75522e-12 1.24485e-11)
(-2.61857e-12 -1.13742e-12 1.01378e-11)
(-5.86358e-12 -3.21798e-13 6.98638e-12)
(1.27723e-13 -6.40545e-13 7.07149e-13)
(-5.75102e-12 -7.60844e-13 7.49426e-12)
(-4.41157e-12 -1.67867e-12 1.02326e-11)
(4.81111e-13 -8.79024e-13 1.52793e-12)
(-5.62483e-12 -1.07001e-12 7.82481e-12)
(-1.26838e-12 -2.47638e-14 -2.52523e-12)
(-1.26311e-12 -4.77932e-13 -2.12653e-13)
(-1.07789e-12 -2.35095e-14 -2.27109e-12)
(-8.4397e-13 -3.06558e-14 -1.77536e-12)
(-9.9142e-13 -6.28883e-13 4.98741e-13)
(-1.03386e-12 -3.76029e-14 -2.20174e-12)
(2.52061e-10 2.20509e-10 -8.21719e-12)
(2.587e-10 2.25704e-10 -9.05421e-12)
(1.78121e-10 1.57474e-10 -6.54917e-12)
(3.6631e-11 4.14191e-11 -3.17863e-12)
(1.76808e-10 1.55927e-10 -7.19552e-12)
(2.61367e-10 2.30322e-10 -8.12445e-12)
(2.59613e-10 2.26791e-10 -8.60629e-12)
(1.70906e-10 1.51441e-10 -6.99531e-12)
(3.64086e-11 4.0933e-11 -2.62074e-12)
(1.75506e-10 1.54141e-10 -7.04047e-12)
(3.85908e-10 7.1487e-10 -9.98508e-12)
(3.88903e-10 7.16212e-10 -9.12038e-12)
(3.44794e-10 8.49105e-10 -1.08371e-11)
(2.73472e-10 1.11686e-09 -9.95331e-12)
(3.42547e-10 8.34498e-10 -9.91172e-12)
(3.92793e-10 7.29328e-10 -8.65775e-12)
(3.89685e-10 7.15776e-10 -9.26447e-12)
(3.40084e-10 8.37087e-10 -1.02725e-11)
(2.73818e-10 1.1166e-09 -9.19772e-12)
(3.41974e-10 8.35079e-10 -9.65553e-12)
(2.71499e-10 5.6958e-10 -1.1598e-11)
(2.18591e-10 2.97027e-10 -9.97172e-12)
(1.79115e-10 4.2797e-10 -1.16797e-11)
(3.84943e-10 7.15301e-10 -9.70044e-12)
(3.39339e-10 8.37804e-10 -1.02187e-11)
(2.50851e-10 2.19636e-10 -8.45885e-12)
(1.69134e-10 1.49909e-10 -6.44458e-12)
(4.91219e-12 1.39264e-11 4.12272e-11)
(2.11167e-11 -1.69222e-10 2.14279e-10)
(7.8918e-12 3.33755e-11 5.48119e-11)
(1.92972e-11 4.42552e-11 1.77727e-10)
(-1.16501e-11 6.61741e-12 5.66512e-11)
(-8.1024e-12 3.80264e-12 3.97069e-12)
(-1.45969e-11 7.35256e-12 2.78617e-14)
(-9.60474e-12 3.77705e-12 -1.3328e-11)
(-1.08454e-11 8.54088e-12 -1.16541e-11)
(-1.69348e-11 9.63829e-12 1.06947e-11)
(-3.29109e-12 -4.86667e-13 1.21144e-11)
(-1.09935e-11 7.85235e-12 9.37427e-11)
(-1.41083e-11 1.42118e-11 4.6286e-11)
(-4.77076e-13 9.14523e-12 2.28925e-10)
(-1.94894e-11 1.1433e-11 4.14495e-11)
(-2.10471e-12 5.78793e-12 1.76795e-10)
(-8.19845e-12 1.16896e-11 1.49175e-10)
(-1.9475e-11 1.32129e-11 3.27189e-11)
(-1.17491e-11 8.6599e-12 7.01912e-11)
(-7.53623e-12 1.78936e-11 3.58104e-11)
(-1.72557e-11 1.09119e-11 5.52893e-12)
(-2.07727e-11 1.21184e-11 2.61345e-11)
(-1.11159e-11 1.0946e-11 -1.58599e-12)
(-9.14618e-12 1.29404e-11 1.20604e-10)
(-2.0165e-11 1.21403e-11 1.83824e-11)
(9.30305e-12 3.86859e-11 -2.12608e-11)
(-2.81942e-12 7.67357e-12 -8.71276e-13)
(4.62793e-13 3.10603e-11 -1.65449e-11)
(3.08398e-12 9.67178e-12 7.55136e-12)
(5.82577e-11 5.15617e-11 5.10066e-11)
(-3.04919e-12 2.30871e-11 2.99585e-11)
(-5.09026e-12 1.59149e-11 5.26248e-13)
(-3.65965e-12 1.88181e-11 1.21442e-11)
(-9.2634e-13 3.00363e-11 -2.81678e-12)
(3.16863e-11 4.16716e-11 5.46739e-11)
(5.79991e-12 1.33734e-11 1.64629e-10)
(-8.89744e-12 -6.03728e-12 5.13319e-11)
(3.09879e-13 9.31929e-12 2.32145e-10)
(-1.66215e-11 5.69783e-12 4.60951e-11)
(3.70439e-12 5.86295e-12 1.81235e-10)
(-5.90486e-12 1.33908e-11 1.60389e-10)
(-1.00528e-11 -6.61407e-13 4.43106e-11)
(1.75144e-11 2.09791e-11 1.15572e-10)
(1.31171e-11 3.47034e-12 2.72938e-11)
(1.10914e-10 3.57867e-11 5.87182e-11)
(9.89886e-12 1.4524e-11 2.19921e-11)
(4.68979e-11 4.04828e-11 6.47752e-11)
(4.82732e-11 1.7722e-11 8.78678e-11)
(9.50001e-13 5.41879e-12 2.99445e-11)
(-5.31404e-12 1.78171e-11 9.39186e-11)
(-3.25377e-12 2.08044e-11 4.7331e-11)
(-1.78614e-11 8.84547e-12 3.12748e-11)
(-4.23419e-12 1.24551e-11 2.11633e-11)
(-6.63146e-12 1.39731e-11 1.3229e-10)
(2.65143e-11 3.50342e-11 6.78059e-11)
(-1.1131e-11 6.16624e-12 3.20049e-11)
(1.12597e-11 9.55239e-11 1.18134e-10)
(-8.73187e-12 1.74475e-11 4.68271e-11)
(-1.40276e-12 1.93435e-12 2.03917e-11)
(2.26383e-11 5.40922e-11 1.59839e-10)
(-2.74712e-12 4.03767e-12 1.89616e-11)
(8.37236e-12 9.04818e-11 1.10825e-10)
(-2.97432e-14 9.51918e-13 1.77303e-11)
(-2.08519e-12 1.61597e-13 1.45263e-11)
(4.10544e-12 7.08468e-11 8.38574e-11)
(-2.06841e-12 3.05412e-12 1.7502e-11)
(1.29697e-12 -1.87819e-13 4.04297e-13)
(3.21078e-12 -1.49546e-12 1.12766e-11)
(2.81169e-12 -2.14856e-13 1.49688e-12)
(3.66224e-12 -1.10876e-12 1.17925e-11)
(3.91987e-12 4.44825e-14 3.40648e-12)
(4.57602e-12 -2.70932e-13 3.02231e-12)
(-2.3894e-12 1.72992e-11 7.2396e-11)
(-2.87799e-12 -9.11729e-12 3.03382e-11)
(-2.63741e-12 8.18622e-12 9.79721e-11)
(-4.89824e-12 3.8899e-12 2.88587e-11)
(2.7934e-12 1.05243e-11 1.21921e-10)
(-2.50831e-12 3.0566e-11 8.98331e-11)
(-2.95423e-12 -9.76023e-14 2.36118e-11)
(3.82311e-12 2.55338e-11 5.16347e-11)
(4.75493e-12 -6.33994e-12 8.84652e-12)
(1.99654e-11 2.4936e-13 5.31995e-11)
(1.24618e-13 -3.23287e-12 8.71989e-12)
(2.42153e-12 3.53928e-11 5.3292e-11)
(-1.94922e-12 2.00023e-13 1.2568e-11)
(1.641e-12 4.64624e-13 2.43747e-12)
(2.66815e-12 6.52834e-11 7.71256e-11)
(-7.76007e-13 -2.34949e-12 8.42736e-12)
(8.15387e-11 1.5076e-11 6.5013e-11)
(2.38627e-11 2.7689e-12 2.4644e-11)
(1.27022e-10 2.51023e-11 6.11478e-11)
(5.86001e-11 -4.26463e-12 -6.92268e-12)
(6.08354e-11 1.44293e-11 5.50048e-11)
(1.71365e-10 1.38565e-11 1.6943e-11)
(3.13834e-11 -1.12818e-12 2.11699e-11)
(6.68881e-11 1.17763e-11 5.33061e-11)
(6.60776e-12 -6.62512e-12 9.37387e-12)
(2.82975e-11 8.27397e-13 5.25861e-11)
(1.41112e-11 -2.07911e-12 1.04385e-11)
(8.71138e-11 1.64419e-11 5.16271e-11)
(5.97311e-11 -6.72887e-12 -8.18747e-12)
(1.83541e-10 1.50578e-11 -6.28344e-12)
(3.77608e-11 -8.28139e-12 1.77859e-11)
(2.0214e-10 4.63469e-10 7.49317e-13)
(4.21114e-10 4.37222e-10 7.51444e-12)
(2.91071e-10 6.20749e-10 -1.22089e-12)
(2.39057e-10 3.2845e-10 -5.3533e-12)
(1.93886e-10 4.63753e-10 -4.20073e-12)
(3.00117e-10 6.19103e-10 2.64801e-12)
(2.51242e-10 3.36144e-10 -6.61521e-13)
(2.08377e-10 4.62478e-10 6.73731e-12)
(4.24532e-10 4.40693e-10 8.98357e-12)
(3.08495e-10 6.17726e-10 1.23104e-11)
(2.65419e-10 3.44799e-10 1.27861e-11)
(2.12419e-10 4.62887e-10 1.48798e-11)
(3.0672e-10 6.1737e-10 7.93977e-12)
(2.5983e-10 3.40792e-10 4.72704e-12)
(2.67088e-10 2.38413e-10 -4.59058e-12)
(2.5733e-10 2.31201e-10 -5.30498e-12)
(1.76287e-10 1.57649e-10 -6.21445e-12)
(3.82926e-11 4.24437e-11 -2.11518e-12)
(1.75991e-10 1.57349e-10 -5.64582e-12)
(2.60501e-10 2.30639e-10 -7.34504e-12)
(2.57831e-10 2.31056e-10 -6.26856e-12)
(1.81865e-10 1.6098e-10 -4.44848e-12)
(3.87925e-11 4.29016e-11 -2.37712e-12)
(1.75157e-10 1.57172e-10 -4.9775e-12)
(4.04477e-10 7.82899e-10 -2.48916e-12)
(3.99874e-10 7.72278e-10 -7.09081e-12)
(3.45665e-10 8.56962e-10 -1.1073e-11)
(2.77947e-10 1.17542e-09 -1.25309e-11)
(3.49677e-10 8.91466e-10 -9.93176e-12)
(3.93853e-10 7.35577e-10 -8.73845e-12)
(3.98035e-10 7.63457e-10 -7.4653e-12)
(3.54432e-10 9.09734e-10 -1.95193e-12)
(2.80073e-10 1.19762e-09 -8.83932e-12)
(3.51149e-10 9.01317e-10 -9.07645e-12)
(4.05877e-10 7.78818e-10 -1.49242e-12)
(4.09189e-10 7.64102e-10 3.52123e-12)
(3.51103e-10 8.56301e-10 1.07943e-11)
(2.67022e-10 1.11771e-09 1.14033e-11)
(3.55756e-10 8.63413e-10 7.22794e-12)
(4.05884e-10 7.59425e-10 1.05747e-11)
(4.09778e-10 7.60516e-10 5.16541e-12)
(3.55158e-10 9.03768e-10 -1.06064e-13)
(2.72386e-10 1.14824e-09 1.08823e-11)
(3.55839e-10 8.7225e-10 5.89281e-12)
(2.71147e-10 2.4109e-10 -2.98755e-12)
(2.91409e-10 2.54221e-10 1.75594e-12)
(2.1434e-10 1.79169e-10 9.11843e-12)
(4.62958e-11 4.61005e-11 8.39675e-13)
(2.08102e-10 1.76052e-10 3.59139e-12)
(3.05451e-10 2.62892e-10 1.30419e-11)
(2.95465e-10 2.56599e-10 4.58013e-12)
(1.88178e-10 1.65307e-10 -2.79379e-12)
(4.41148e-11 4.53838e-11 -1.71131e-13)
(2.00801e-10 1.72391e-10 -4.60818e-15)
(-8.53562e-13 -2.32267e-12 2.77001e-11)
(-2.05256e-12 -6.05591e-13 2.49924e-11)
(1.82344e-13 -4.06117e-13 1.2788e-11)
(-3.09145e-12 -2.02272e-13 8.36434e-12)
(-3.04168e-12 -2.53738e-13 8.66881e-12)
(-5.87485e-12 -3.02248e-13 6.88219e-12)
(-8.01485e-13 -1.39251e-13 -9.7457e-13)
(-5.92288e-12 -2.12403e-13 6.52652e-12)
(-5.96028e-12 -1.63425e-13 6.16545e-12)
(-8.68034e-13 -1.27556e-13 -1.10876e-12)
(-5.92986e-12 -2.17559e-13 6.44352e-12)
(-1.4967e-12 -1.99455e-15 -2.83268e-12)
(-1.31606e-12 -1.09254e-14 -2.58674e-12)
(-1.92512e-12 -1.2505e-13 -1.77756e-12)
(-1.38133e-12 -1.28817e-14 -2.69857e-12)
(-1.99454e-12 -9.05085e-14 -1.92591e-12)
(-1.46829e-12 -1.33016e-14 -2.80148e-12)
(-1.40418e-12 -2.73841e-15 -2.72655e-12)
(-1.51798e-12 -8.17043e-13 1.29412e-13)
(-1.90465e-12 -6.2627e-13 -1.65909e-12)
(-4.19319e-13 -2.12167e-13 -5.49777e-13)
(-1.24375e-12 -2.73829e-13 -6.39398e-12)
(-9.0657e-13 4.76522e-13 -1.57077e-13)
(-2.04165e-12 -1.32558e-12 -1.51163e-13)
(-1.98038e-12 -5.97595e-13 -4.59925e-12)
(-3.56179e-12 -3.31883e-13 -8.54006e-12)
(-1.78122e-13 -3.06206e-13 -2.43592e-12)
(-3.08921e-14 -2.71365e-13 -2.29067e-12)
(-2.37941e-12 -8.13672e-13 -1.36482e-11)
(-1.61787e-12 -6.45914e-13 -7.24352e-12)
(1.41561e-14 3.10649e-14 -2.97213e-12)
(-3.27423e-12 -5.59048e-13 -1.11737e-11)
(9.70401e-12 5.88257e-11 1.28625e-10)
(2.36856e-12 1.49301e-11 4.72442e-11)
(7.13992e-12 6.26756e-11 1.35483e-10)
(4.18277e-13 1.06279e-11 4.8878e-11)
(-5.96665e-13 3.77661e-11 1.40718e-10)
(1.76268e-11 4.99415e-11 1.40322e-10)
(-6.60435e-14 1.43851e-11 4.22637e-11)
(3.19888e-10 4.36924e-10 8.95912e-11)
(4.11055e-10 5.56192e-10 4.59688e-11)
(4.31744e-10 4.74104e-10 1.35968e-11)
(3.96627e-10 4.37828e-10 4.82617e-11)
(3.86766e-10 4.19872e-10 4.88422e-11)
(3.946e-10 5.24585e-10 3.56566e-11)
(3.4339e-10 4.79291e-10 6.09193e-11)
(4.01163e-11 1.50106e-10 1.20971e-10)
(1.54653e-11 4.52968e-11 4.30898e-11)
(1.00651e-10 2.78537e-10 1.18285e-10)
(1.85434e-11 4.73467e-11 3.72941e-11)
(4.83725e-11 1.38694e-10 1.36344e-10)
(8.74067e-11 1.4982e-10 1.06155e-10)
(1.06364e-11 4.17424e-11 3.83588e-11)
(-1.68365e-12 -1.24521e-12 1.15727e-12)
(9.76884e-13 -7.52855e-13 5.67737e-12)
(-2.20683e-12 -8.93519e-13 -2.46942e-14)
(6.20558e-13 -3.2832e-13 4.64062e-12)
(-1.68758e-12 -1.22997e-12 1.05412e-13)
(-2.21661e-12 -7.12497e-13 -5.30137e-13)
(2.81976e-10 4.2086e-10 -1.06831e-11)
(3.8033e-10 3.83246e-10 -7.75071e-12)
(3.57312e-10 4.6923e-10 -9.4172e-12)
(3.07791e-10 3.3236e-10 -9.29428e-12)
(3.10859e-10 3.35245e-10 -8.79233e-12)
(3.60357e-10 4.71874e-10 -9.42395e-12)
(2.79779e-10 4.19172e-10 -1.05065e-11)
(2.89187e-10 4.30827e-10 -1.03609e-11)
(3.8873e-10 3.94239e-10 -8.04834e-12)
(3.19944e-10 3.47709e-10 -8.42199e-12)
(3.69017e-10 4.85773e-10 -8.55737e-12)
(2.89036e-10 4.33351e-10 -9.96293e-12)
(3.19674e-10 3.45299e-10 -9.22946e-12)
(3.67564e-10 4.8215e-10 -8.96943e-12)
(2.52224e-11 4.82237e-11 4.20079e-11)
(7.97734e-11 1.47287e-10 1.32279e-10)
(-1.85974e-11 2.74178e-11 -5.5567e-12)
(-1.08709e-11 2.53182e-11 -2.63693e-12)
(-5.35469e-12 1.01459e-11 -1.41982e-12)
(-1.07972e-11 2.62977e-11 -3.7598e-12)
(-9.33616e-12 1.03208e-11 -8.78241e-13)
(-9.41552e-13 -1.4812e-12 2.4e-12)
(2.87711e-12 -1.92588e-12 9.79481e-12)
(3.24921e-13 -1.50642e-12 4.21616e-12)
(4.06323e-12 -1.9694e-12 1.17976e-11)
(7.24112e-12 -2.72334e-13 1.79343e-11)
(3.22897e-12 -8.69793e-13 6.54735e-12)
(2.87641e-10 4.539e-10 -6.01094e-12)
(3.914e-10 4.09198e-10 -1.17478e-12)
(3.75509e-10 5.14981e-10 -2.68086e-12)
(3.21734e-10 3.62696e-10 -2.13289e-12)
(2.91985e-10 4.572e-10 -5.26556e-12)
(3.15852e-10 3.57088e-10 -4.02158e-12)
(3.69672e-10 5.09227e-10 -3.40242e-12)
(2.8694e-10 4.38719e-10 -8.95098e-12)
(3.89487e-10 3.99811e-10 -6.97999e-12)
(3.18064e-10 3.47796e-10 -8.52882e-12)
(3.68055e-10 4.88841e-10 -8.27834e-12)
(2.88219e-10 4.3597e-10 -9.51986e-12)
(3.17184e-10 3.49779e-10 -7.38584e-12)
(3.68304e-10 4.91935e-10 -7.60513e-12)
(-4.67776e-12 -1.41945e-13 -8.97613e-12)
(-1.01979e-12 -1.00974e-13 -1.57549e-12)
(-4.73179e-12 -1.46501e-13 -9.23446e-12)
(4.28682e-10 3.89591e-10 4.72644e-11)
(4.2442e-10 3.84693e-10 1.97411e-11)
(4.53265e-10 6.06844e-10 3.00638e-11)
(4.37573e-10 5.80452e-10 -8.78698e-12)
(3.39755e-10 4.87613e-10 4.10786e-11)
(4.1551e-10 5.67303e-10 3.08371e-11)
(4.34492e-10 4.7402e-10 3.81842e-11)
(3.90572e-10 4.29805e-10 3.72647e-11)
(3.44033e-10 4.85414e-10 4.86965e-11)
(4.02711e-10 5.52105e-10 3.34662e-11)
(3.78819e-10 4.18376e-10 3.73429e-11)
(3.25623e-10 4.79173e-10 2.04364e-11)
(4.27862e-10 4.53889e-10 2.13841e-11)
(3.99556e-10 5.36885e-10 1.72469e-11)
(3.61739e-10 3.95246e-10 1.82274e-11)
(3.99917e-10 5.40276e-10 1.92232e-11)
(3.62828e-10 3.98876e-10 2.15303e-11)
(3.25793e-10 4.77083e-10 1.77494e-11)
(4.70387e-10 6.21683e-10 2.2795e-11)
(4.59277e-10 6.08177e-10 3.04103e-11)
(4.68141e-10 5.93149e-10 1.62961e-11)
(4.67116e-10 5.96056e-10 1.87773e-11)
(4.21323e-10 3.79419e-10 4.15931e-11)
(4.11449e-10 3.69994e-10 4.26887e-11)
(3.90053e-10 3.43297e-10 1.92061e-11)
(3.91966e-10 3.4726e-10 2.28601e-11)
(-1.61606e-12 -5.96113e-13 -2.52559e-13)
(-3.34308e-13 -5.41993e-13 3.35026e-12)
(-1.56597e-12 -3.28744e-13 -1.83214e-13)
(-6.44231e-13 -1.77406e-13 2.65423e-12)
(-1.70653e-12 -3.11646e-13 -3.88647e-13)
(-1.72896e-12 -1.75104e-13 -5.6081e-13)
(-4.30393e-12 -2.49391e-13 -8.39907e-12)
(-2.79e-13 -3.62469e-13 -1.23591e-13)
(-4.19877e-12 -3.21099e-13 -8.41679e-12)
(-2.69108e-12 -1.5985e-12 -3.53628e-12)
(1.12229e-12 -1.09067e-12 3.89495e-12)
(-2.73337e-12 -1.6271e-12 -4.70966e-12)
(-2.82741e-12 -1.64703e-13 -3.6977e-12)