/*--------------------------------*- C++ -*----------------------------------*\
| =========                 |                                                 |
| \\      /  F ield         | OpenFOAM: The Open Source CFD Toolbox           |
|  \\    /   O peration     | Version:  2012                                  |
|   \\  /    A nd           | Website:  www.openfoam.com                      |
|    \\/     M anipulation  |                                                 |
\*---------------------------------------------------------------------------*/
FoamFile
{
    version     2.0;
    format      ascii;
    class       volVectorField;
    location    "0.107/solid";
    object      D_0_0_0;
}
// * * * * * * * * * * * * * * * * * * * * * * * * * * * * * * * * * * * * * //

dimensions      [0 1 0 0 0 0 0];


internalField   nonuniform List<vector> 
3124
(
(3.27912e-11 4.45241e-11 3.25626e-11)
(-7.14125e-13 -7.36558e-13 -2.66932e-12)
(2.53286e-12 2.86947e-14 1.72373e-11)
(8.59952e-11 2.1424e-10 3.41637e-12)
(3.78791e-13 1.78472e-12 3.07168e-11)
(-5.82353e-13 -6.69504e-13 -3.50278e-12)
(3.68513e-12 5.24947e-14 1.74332e-11)
(9.27305e-11 2.1633e-10 5.31205e-12)
(-2.81684e-14 1.0951e-12 3.1866e-11)
(7.44853e-14 7.66016e-12 1.60103e-11)
(1.68884e-11 3.01018e-11 3.74646e-11)
(1.3679e-10 1.95804e-10 3.7304e-11)
(-7.33439e-13 -1.19576e-11 2.64159e-11)
(-2.79332e-14 -2.68028e-13 1.31834e-11)
(-4.73106e-12 6.36447e-12 1.3485e-11)
(4.10609e-12 -7.85941e-12 2.5019e-11)
(5.51975e-12 1.55469e-11 3.56717e-11)
(3.53693e-12 -8.44871e-12 1.90575e-11)
(8.81039e-12 -6.096e-12 2.0017e-11)
(1.27386e-10 2.05378e-10 2.69877e-11)
(-2.36268e-12 -4.25284e-13 2.59098e-11)
(-2.4745e-12 -3.60054e-13 2.58667e-11)
(-6.19262e-14 -2.5425e-13 1.314e-11)
(4.99991e-10 4.2788e-10 2.17469e-11)
(3.79571e-11 3.47614e-11 2.87819e-11)
(3.63824e-11 5.21328e-11 2.94215e-11)
(9.64921e-11 1.23798e-10 8.05284e-11)
(2.89094e-10 4.93578e-10 1.62884e-10)
(2.59588e-11 2.5765e-11 2.28848e-11)
(1.31146e-10 1.09549e-10 6.81284e-11)
(1.88176e-13 -9.32111e-13 3.25527e-12)
(8.82904e-13 -1.61256e-12 1.63947e-11)
(7.32504e-13 -4.75186e-13 4.51515e-12)
(3.77662e-10 3.67359e-10 1.25274e-11)
(6.84195e-11 1.41814e-10 4.68959e-12)
(2.70061e-10 8.53807e-10 9.58696e-12)
(8.07307e-11 2.13659e-10 2.72361e-12)
(4.06314e-10 3.73238e-10 2.04557e-11)
(2.49754e-10 8.52721e-10 8.58472e-12)
(6.32099e-11 1.41188e-10 3.11929e-12)
(3.86126e-11 5.51299e-11 2.80809e-11)
(6.3065e-12 -9.88822e-12 3.38915e-11)
(-3.48519e-12 9.65442e-13 -9.58918e-12)
(-1.03642e-11 9.79592e-12 1.30737e-12)
(-1.34031e-11 1.25367e-11 -2.39527e-12)
(7.98091e-12 3.94714e-13 2.08427e-11)
(7.73632e-13 -1.37044e-12 4.48849e-12)
(5.30087e-12 -4.86004e-13 1.4014e-11)
(4.45189e-10 3.7501e-10 3.30175e-11)
(1.01987e-10 2.1684e-10 1.10445e-11)
(7.26325e-11 1.42446e-10 6.41203e-12)
(2.79875e-10 8.63137e-10 1.19067e-11)
(4.08592e-10 3.72478e-10 2.14957e-11)
(3.16754e-10 8.74738e-10 2.83911e-11)
(8.01881e-11 1.42911e-10 8.62117e-12)
(-6.37335e-13 -2.41299e-12 3.20859e-11)
(-2.69062e-12 -2.94407e-13 2.51326e-11)
(-2.2303e-13 -1.86408e-13 1.26442e-11)
(-1.16552e-12 -5.20189e-14 -1.65938e-12)
(4.56171e-12 7.39548e-12 7.15337e-12)
(-3.57443e-12 1.06107e-11 5.895e-11)
(3.26917e-11 2.7111e-11 2.94184e-11)
(6.54303e-11 3.42836e-11 2.24609e-11)
(2.20323e-11 3.69579e-11 3.76967e-11)
(7.16096e-12 -7.76673e-12 4.85882e-11)
(3.19218e-10 7.01345e-10 -1.99036e-12)
(3.43476e-11 3.73237e-11 3.08975e-11)
(5.11076e-10 4.23053e-10 1.9381e-11)
(1.36876e-10 1.7304e-10 6.12053e-11)
(3.65891e-10 7.86829e-10 5.07416e-11)
(1.22427e-10 1.41059e-10 2.16392e-11)
(3.30352e-10 6.50227e-10 9.50102e-11)
(5.10034e-10 3.8862e-10 3.33521e-11)
(1.26771e-10 1.35668e-10 4.29965e-11)
(3.96753e-10 1.00828e-09 3.03131e-11)
(3.42052e-10 8.18549e-10 6.09183e-11)
(-5.31066e-12 1.84872e-12 6.10355e-11)
(-2.06679e-12 -1.25715e-11 4.54427e-11)
(3.80384e-11 3.4094e-11 4.77311e-11)
(6.13227e-11 3.58774e-11 8.36679e-12)
(6.16222e-11 3.92116e-11 1.52207e-11)
(-1.10073e-12 -7.33827e-13 1.1886e-12)
(-8.61426e-13 -2.67793e-13 2.08139e-12)
(1.12786e-12 -1.78428e-12 1.56388e-11)
(-7.75078e-13 -1.73189e-13 -1.05174e-12)
(1.09915e-13 -8.11753e-13 2.21469e-12)
(-1.93397e-12 -1.79454e-13 -1.79108e-12)
(-1.30522e-12 -4.43131e-13 6.7916e-13)
(3.79763e-11 3.75986e-11 3.96985e-12)
(3.40428e-11 3.79095e-11 1.83137e-12)
(3.04711e-10 1.10086e-09 1.26594e-11)
(2.84156e-10 1.10527e-09 9.91489e-12)
(3.74725e-10 3.67311e-10 1.16006e-11)
(7.66451e-11 2.13833e-10 1.43728e-12)
(2.44921e-10 8.55324e-10 5.28609e-12)
(5.83659e-11 1.40768e-10 1.96909e-12)
(2.79207e-10 1.11048e-09 7.06465e-12)
(3.30923e-11 3.80148e-11 2.08263e-12)
(3.87009e-11 3.87507e-11 3.76417e-11)
(1.98422e-11 2.25439e-12 3.05187e-11)
(-6.90964e-12 1.87535e-12 -4.8796e-12)
(-1.31713e-11 9.75434e-12 4.93918e-11)
(-1.78087e-11 1.24465e-11 8.06754e-12)
(-6.75087e-12 6.95942e-12 -2.84478e-12)
(-1.13066e-11 1.46254e-11 4.9431e-12)
(-1.13364e-11 1.94216e-12 5.20593e-11)
(2.98775e-11 1.00326e-11 2.12109e-12)
(-1.37371e-11 1.20214e-11 1.43065e-11)
(-3.55264e-12 -2.77084e-12 2.59701e-11)
(3.81856e-13 -5.28298e-12 3.277e-11)
(4.80731e-12 4.16169e-12 1.66722e-11)
(-5.55461e-13 -1.13455e-12 2.3315e-12)
(2.90615e-12 1.52921e-13 1.00773e-11)
(-3.54974e-12 -9.12607e-12 2.80685e-11)
(2.3428e-12 3.61588e-12 1.0167e-11)
(4.00938e-11 1.63642e-12 -2.85326e-13)
(4.54187e-10 3.76461e-10 3.42936e-11)
(1.14188e-10 2.12622e-10 1.89312e-11)
(3.60668e-10 7.97822e-10 4.59558e-11)
(1.11842e-10 1.42815e-10 1.63306e-11)
(5.10492e-10 3.90228e-10 3.41055e-11)
(3.28952e-10 8.59265e-10 3.72228e-11)
(9.54395e-11 1.43419e-10 1.1786e-11)
(3.93522e-11 3.72181e-11 4.03836e-12)
(4.61256e-11 3.63069e-11 5.73175e-12)
(3.15608e-10 1.11698e-09 1.30753e-11)
(3.5648e-10 1.14642e-09 2.74606e-11)
(3.94233e-10 1.01654e-09 3.2699e-11)
(3.68059e-10 1.11931e-09 3.44573e-11)
(5.98589e-11 3.64038e-11 8.28357e-12)
(4.91144e-11 3.6171e-11 5.65471e-12)
(-1.13467e-12 -2.63535e-12 2.87402e-11)
(-2.65843e-12 -3.11014e-13 2.53224e-11)
(-2.3146e-13 -1.74364e-13 1.2694e-11)
(-9.01049e-13 -1.32432e-13 -1.23224e-12)
(-1.12514e-12 -5.23857e-14 -1.58512e-12)
(-2.24462e-12 -3.13446e-14 -2.43969e-12)
(-2.05026e-12 -1.16514e-13 -2.02398e-12)
(-2.20262e-12 -5.44699e-14 -2.35493e-12)
(2.67624e-10 9.24753e-10 3.86811e-12)
(-8.43773e-12 -4.29844e-12 -5.31563e-12)
(-2.61022e-12 -3.73046e-12 -2.8917e-13)
(-1.37602e-12 1.45052e-14 1.25037e-11)
(1.28238e-12 -8.18073e-14 1.76273e-11)
(-1.44658e-12 -1.25728e-13 1.33376e-11)
(2.12348e-12 2.043e-12 3.03367e-11)
(-1.78768e-11 1.28465e-11 -6.04737e-11)
(-1.70456e-13 -4.2837e-13 -1.95638e-12)
(-2.93524e-12 -3.84116e-12 -9.86546e-13)
(-5.65649e-13 2.1455e-12 -6.5145e-12)
(6.40444e-12 2.97928e-14 1.85082e-11)
(-1.47924e-12 -2.48123e-13 1.23151e-11)
(-1.58186e-12 -6.29095e-13 1.33393e-11)
(5.82343e-13 4.2659e-13 3.30899e-11)
(5.62953e-11 7.48325e-12 1.12052e-10)
(4.77513e-12 7.80415e-12 1.30868e-11)
(-9.30257e-14 1.67294e-11 3.58015e-11)
(-3.58074e-14 -4.87879e-12 4.40924e-11)
(2.64327e-13 2.23118e-12 1.5766e-10)
(1.2088e-11 1.76665e-11 3.0736e-11)
(4.28382e-12 -2.30224e-12 3.44419e-11)
(5.34654e-12 1.08523e-10 2.30855e-10)
(2.79964e-11 3.4888e-11 4.76481e-11)
(4.46226e-11 -2.20158e-11 1.59037e-10)
(1.84959e-11 1.48484e-11 4.54725e-11)
(-8.57621e-12 2.52933e-10 1.13833e-10)
(4.37225e-11 5.52046e-11 1.23951e-10)
(3.52237e-11 3.26208e-11 5.07541e-11)
(1.01953e-11 7.30532e-12 2.17788e-10)
(1.13311e-11 -7.03746e-13 7.17135e-11)
(-5.44896e-12 -1.35466e-11 4.0048e-11)
(-4.35532e-12 -1.42967e-11 3.17024e-11)
(6.07091e-12 3.10253e-12 1.50301e-10)
(5.46823e-12 2.41772e-12 9.72336e-11)
(-5.68386e-12 -1.42952e-11 4.89764e-11)
(2.59625e-13 -7.35923e-13 1.34793e-11)
(-3.22065e-12 -1.91624e-13 8.84751e-12)
(-3.1147e-12 -5.76779e-13 9.11844e-12)
(4.2571e-12 3.28344e-11 4.41054e-11)
(-6.46941e-12 -2.46289e-11 1.53249e-10)
(8.35277e-11 2.53423e-10 8.66322e-11)
(-1.03393e-11 5.12626e-12 6.33494e-11)
(-7.35106e-12 4.6832e-12 8.03037e-12)
(-1.07376e-11 1.39358e-11 2.95281e-11)
(-1.02757e-12 -4.35489e-12 4.00245e-11)
(-1.14387e-12 2.66682e-12 1.39222e-10)
(-1.58579e-11 1.1171e-11 1.85044e-11)
(-2.95616e-12 -1.1606e-12 1.48682e-11)
(1.31408e-11 1.10056e-11 1.23476e-10)
(1.50258e-11 3.36157e-13 7.21435e-11)
(-2.36673e-12 -9.59118e-12 3.45777e-11)
(7.81525e-12 -3.13379e-12 2.55576e-11)
(6.08338e-12 3.75699e-12 1.36874e-10)
(3.51736e-11 1.02744e-11 8.14971e-11)
(-4.91454e-13 -3.80794e-12 3.20033e-11)
(4.00311e-12 -3.16564e-12 4.90641e-11)
(1.31769e-11 -1.94752e-12 6.53463e-11)
(-1.59161e-12 -1.01238e-11 2.13075e-11)
(6.99383e-12 -8.03629e-12 1.4671e-11)
(4.23815e-12 1.89599e-12 8.48164e-11)
(1.90642e-11 -7.40397e-12 5.3867e-11)
(3.84255e-13 -7.18629e-12 1.53834e-11)
(6.11632e-11 2.96266e-12 5.65698e-11)
(1.80183e-11 -1.24714e-12 6.67187e-11)
(1.4417e-11 -2.75428e-12 2.21722e-11)
(1.24607e-11 -6.74447e-12 1.65858e-11)
(4.23284e-11 7.77744e-12 8.31369e-11)
(2.61775e-11 -6.44241e-12 5.0366e-11)
(2.01625e-11 -4.24508e-12 1.85107e-11)
(-2.17396e-12 -7.84944e-13 2.59545e-11)
(-2.53642e-12 -3.4136e-13 2.57251e-11)
(-1.47241e-13 -1.92451e-13 1.29721e-11)
(-3.22798e-12 -1.68276e-13 8.81718e-12)
(-3.26679e-12 -1.20088e-13 8.64223e-12)
(1.75658e-10 2.12098e-10 1.23324e-10)
(3.71758e-10 4.76035e-10 7.97644e-11)
(3.50996e-10 3.19204e-10 -2.17031e-11)
(3.27263e-10 3.11947e-10 6.88502e-11)
(2.28687e-10 2.02786e-10 1.04543e-10)
(2.76951e-10 3.4195e-10 1.10667e-10)
(2.79364e-10 3.53372e-10 8.17703e-11)
(8.1904e-11 1.12062e-10 9.99449e-11)
(6.62342e-11 5.31689e-11 7.35435e-11)
(2.31988e-11 2.50669e-11 2.38405e-11)
(2.88127e-11 3.61036e-11 2.468e-11)
(8.0755e-11 8.43183e-11 7.22691e-11)
(1.05114e-10 1.33192e-10 7.49742e-11)
(2.24355e-11 3.07562e-11 2.88022e-11)
(-7.09276e-12 -5.99108e-12 -6.97984e-12)
(-3.85691e-12 -1.4923e-13 1.07842e-11)
(-1.43656e-13 6.04909e-14 2.50162e-12)
(-4.55584e-12 -1.41169e-13 1.10357e-11)
(1.05106e-12 -3.70435e-13 1.76334e-11)
(-1.90391e-12 -1.23002e-12 1.19698e-11)
(-1.49864e-12 -3.73683e-13 1.32692e-11)
(-2.78571e-13 1.23692e-13 2.57219e-12)
(-4.42967e-12 -1.13095e-12 9.74067e-12)
(-4.38523e-12 -3.07558e-13 1.09029e-11)
(1.90411e-10 4.18945e-10 7.7387e-12)
(3.91078e-10 3.71151e-10 1.59832e-11)
(2.78534e-10 5.58522e-10 1.02868e-11)
(2.21757e-10 2.89017e-10 7.34686e-12)
(2.28805e-10 2.90291e-10 9.22767e-12)
(2.86143e-10 5.57871e-10 1.14599e-11)
(1.83993e-10 4.19198e-10 6.56696e-12)
(1.95953e-10 4.1931e-10 9.48789e-12)
(3.94555e-10 3.71239e-10 1.68439e-11)
(2.4006e-10 2.92028e-10 1.38703e-11)
(3.00637e-10 5.61167e-10 1.46877e-11)
(2.01753e-10 4.21481e-10 1.11695e-11)
(2.34681e-10 2.91198e-10 1.09088e-11)
(2.93721e-10 5.5823e-10 1.39714e-11)
(3.48753e-12 4.72163e-12 2.93377e-11)
(-1.39756e-11 1.00259e-11 -5.73652e-11)
(-3.87758e-13 -3.2257e-13 -1.0456e-11)
(-1.00223e-11 4.73289e-12 -1.10993e-11)
(-3.42437e-12 3.92786e-12 -4.05048e-11)
(-1.23066e-11 9.54856e-12 -3.82576e-11)
(-5.25198e-12 1.97491e-12 -1.54864e-11)
(1.71088e-12 7.93011e-12 -4.7076e-11)
(-1.15969e-11 1.48659e-11 -5.25524e-11)
(-6.10162e-12 2.8292e-11 -2.35049e-11)
(-8.56993e-12 1.38248e-11 -6.48709e-12)
(-7.69437e-12 2.24645e-11 -1.72485e-11)
(-2.05474e-12 3.39574e-12 -5.94589e-12)
(-1.31039e-11 1.27163e-11 -5.22657e-11)
(-1.82428e-11 2.17745e-11 -1.73977e-11)
(-1.19022e-11 9.25561e-12 -7.26672e-12)
(-7.2332e-12 1.11613e-11 -7.259e-12)
(-1.28348e-11 1.05723e-11 -2.74696e-11)
(-7.50753e-12 2.05481e-11 -2.48014e-11)
(-8.09941e-12 8.6819e-12 -1.10281e-11)
(6.88465e-12 1.74993e-13 1.89929e-11)
(-8.2687e-13 9.23842e-13 1.57649e-11)
(-1.5009e-12 -4.34423e-13 1.38725e-11)
(-3.38966e-12 -2.62081e-13 1.07203e-11)
(4.80695e-12 -1.31349e-12 1.12663e-11)
(-3.115e-12 -4.94209e-13 1.10806e-11)
(-1.33164e-12 -8.43892e-14 1.34738e-11)
(5.21762e-12 -9.90332e-13 1.13445e-11)
(-3.16523e-12 -4.34178e-13 1.13462e-11)
(2.20444e-10 4.31897e-10 1.80533e-11)
(4.2218e-10 3.70468e-10 2.77619e-11)
(3.3763e-10 5.80688e-10 2.59222e-11)
(2.67641e-10 2.93156e-10 2.03909e-11)
(2.33496e-10 4.31989e-10 2.05596e-11)
(2.54426e-10 2.91429e-10 1.95324e-11)
(3.23489e-10 5.80156e-10 2.28122e-11)
(2.12704e-10 4.29038e-10 1.55876e-11)
(4.18748e-10 3.71237e-10 2.61216e-11)
(2.43784e-10 2.91992e-10 1.60518e-11)
(3.07023e-10 5.67118e-10 1.71727e-11)
(2.06587e-10 4.24644e-10 1.33477e-11)
(2.47997e-10 2.91665e-10 1.86441e-11)
(3.13935e-10 5.74222e-10 1.87692e-11)
(-1.78586e-14 -7.49565e-13 3.38053e-11)
(-2.69283e-12 -2.52391e-13 2.49549e-11)
(-2.47233e-13 -1.27684e-13 1.25209e-11)
(-3.27277e-12 -1.09227e-13 8.41013e-12)
(-6.13063e-12 -9.58533e-14 6.15071e-12)
(3.82606e-10 2.64186e-10 3.63954e-11)
(1.95215e-10 1.29708e-10 9.89742e-11)
(-3.47656e-12 -8.04927e-12 9.75593e-11)
(4.76123e-12 6.55364e-12 8.31092e-12)
(6.03372e-12 1.27206e-11 2.41953e-11)
(2.59397e-11 2.45105e-11 2.06308e-11)
(-2.12864e-11 4.14026e-11 1.36696e-10)
(8.83074e-12 1.24429e-11 2.2521e-11)
(1.62705e-11 -2.1941e-12 9.09931e-12)
(5.23197e-11 1.63236e-11 1.58904e-10)
(-1.72221e-12 1.53743e-11 4.99431e-11)
(5.68601e-12 8.70853e-12 2.25488e-10)
(1.33762e-11 1.61697e-11 6.15463e-11)
(2.9802e-11 1.93605e-11 2.59382e-10)
(2.03982e-12 5.52316e-12 1.77728e-10)
(1.61098e-11 2.03205e-11 4.8057e-11)
(2.34153e-11 3.33895e-11 1.5099e-10)
(9.72125e-11 7.21355e-11 4.55304e-11)
(1.8556e-11 1.676e-11 2.44696e-11)
(3.17328e-11 2.69273e-11 5.00033e-11)
(1.04363e-10 7.73303e-11 8.9136e-11)
(4.41116e-11 2.50856e-11 2.43148e-10)
(2.54947e-11 2.25372e-11 3.42926e-11)
(2.83776e-10 1.83323e-10 2.54339e-12)
(3.21069e-11 4.12789e-11 3.32062e-11)
(3.63609e-11 1.40642e-10 7.44641e-11)
(4.59882e-10 6.15753e-10 2.35708e-11)
(2.22971e-10 3.21637e-10 9.18137e-11)
(1.09823e-10 1.17163e-10 1.725e-10)
(2.67233e-11 1.24451e-11 3.1416e-11)
(5.09256e-11 6.60224e-11 2.20409e-10)
(1.89716e-11 3.55658e-11 2.7547e-11)
(1.3584e-10 1.75942e-10 9.76838e-11)
(5.02064e-11 -1.36334e-10 1.76183e-10)
(3.60872e-11 4.26064e-11 3.22447e-11)
(2.19375e-11 7.62318e-11 2.48414e-10)
(1.06439e-11 3.75502e-13 4.95941e-11)
(1.02162e-11 2.28368e-11 1.6056e-10)
(1.26784e-11 1.19197e-11 6.46643e-11)
(2.79669e-11 4.28026e-11 2.71002e-10)
(1.70567e-11 2.39798e-11 1.4423e-10)
(1.96615e-11 2.44091e-11 6.14828e-11)
(4.11011e-10 6.38392e-10 3.80598e-11)
(1.86713e-10 2.16714e-10 9.0709e-11)
(2.14373e-10 3.22884e-10 1.10631e-10)
(6.15262e-11 1.11589e-10 1.95074e-10)
(1.04813e-10 9.83458e-11 2.41698e-11)
(2.50786e-11 3.20602e-11 2.41923e-11)
(2.89447e-11 3.73004e-11 5.37968e-11)
(1.07388e-10 1.00602e-10 1.16672e-10)
(3.82885e-11 4.7e-11 2.59346e-10)
(3.12105e-11 4.65879e-11 4.32485e-11)
(3.08393e-10 4.00539e-10 5.26181e-11)
(4.0275e-10 5.26052e-10 4.65598e-11)
(5.09824e-10 3.97543e-10 2.97099e-11)
(3.49026e-10 3.12093e-10 4.43592e-11)
(3.05623e-10 3.75904e-10 7.03197e-11)
(4.09469e-10 5.46283e-10 3.74934e-11)
(3.48214e-10 3.10002e-10 3.41526e-11)
(3.06926e-10 4.07813e-10 4.37393e-11)
(5.13282e-10 3.96362e-10 3.00597e-11)
(4.08219e-10 5.54524e-10 3.46307e-11)
(3.38477e-10 3.02587e-10 3.18315e-11)
(4.10429e-10 5.52062e-10 3.42945e-11)
(3.43267e-10 3.04418e-10 3.24868e-11)
(3.01022e-10 4.13126e-10 3.85668e-11)
(4.76176e-10 6.46965e-10 1.10959e-11)
(5.03983e-10 6.78029e-10 2.13892e-11)
(3.91146e-10 9.85505e-10 3.38489e-11)
(4.65771e-10 7.76553e-10 3.05481e-11)
(4.62433e-10 7.62614e-10 2.79434e-11)
(4.25121e-10 6.79027e-10 3.16984e-11)
(3.7896e-10 9.3549e-10 3.49113e-11)
(4.58521e-10 7.51401e-10 2.73126e-11)
(5.11196e-10 6.84386e-10 2.93192e-11)
(5.07898e-10 6.82135e-10 2.26858e-11)
(1.39188e-11 1.00139e-11 2.47021e-10)
(-6.93796e-12 -7.89514e-12 5.40919e-11)
(5.62719e-12 9.00825e-12 2.2772e-10)
(6.07125e-12 6.89118e-12 6.72198e-11)
(2.65699e-11 1.88854e-11 2.68023e-10)
(5.26689e-12 4.16962e-12 1.77192e-10)
(-1.41404e-12 -4.33589e-12 6.32151e-11)
(1.3317e-11 1.15074e-11 2.36674e-10)
(-3.86896e-12 -1.43491e-11 3.82251e-11)
(8.01888e-12 1.91105e-11 1.46438e-10)
(4.3863e-12 -4.25895e-13 6.36193e-11)
(2.37616e-11 3.3165e-11 2.70122e-10)
(4.91478e-12 6.28654e-12 1.12148e-10)
(-1.59981e-12 -1.00465e-11 5.75129e-11)
(1.83001e-11 1.46057e-11 2.60361e-10)
(9.47113e-11 8.18521e-11 1.29933e-10)
(2.31264e-11 1.90801e-11 6.40075e-11)
(2.01064e-11 2.11089e-11 6.40305e-11)
(3.61327e-11 2.58801e-11 2.62796e-10)
(3.44308e-11 3.82756e-11 2.65203e-10)
(8.91197e-12 5.41591e-12 6.7447e-11)
(3.74108e-10 2.43474e-10 3.12561e-11)
(3.73093e-10 2.32934e-10 2.8373e-11)
(2.55364e-10 1.51443e-10 2.09114e-11)
(6.10704e-11 3.61709e-11 9.12355e-12)
(2.51705e-10 1.51618e-10 2.30779e-11)
(3.64209e-10 2.24229e-10 2.81461e-11)
(3.69174e-10 2.2742e-10 2.68982e-11)
(2.39845e-10 1.58571e-10 4.12923e-11)
(6.30263e-11 3.59161e-11 9.22553e-12)
(2.62543e-10 1.59565e-10 1.96368e-11)
(-8.9575e-13 -1.76742e-13 -1.75933e-12)
(-1.19145e-12 2.21119e-14 8.9326e-13)
(-1.24868e-12 -7.13399e-15 -2.15381e-12)
(-1.39111e-12 1.03296e-13 7.41124e-13)
(-1.18212e-12 -2.81061e-14 -2.16003e-12)
(-1.21721e-12 -4.98232e-14 -2.0797e-12)
(3.70577e-13 -1.01186e-12 1.37222e-11)
(-2.17536e-12 -1.41376e-12 1.12678e-11)
(-3.01136e-12 -8.48579e-13 9.35831e-12)
(-6.16837e-12 -1.55368e-13 6.54694e-12)
(-3.00145e-13 -4.99319e-13 -3.0504e-13)
(-6.11746e-12 -5.35725e-13 6.8109e-12)
(-4.88368e-12 -1.39203e-12 9.0506e-12)
(4.20217e-15 -7.29497e-13 3.69366e-13)
(-6.02261e-12 -8.1319e-13 7.02696e-12)
(-1.4403e-12 -1.87071e-14 -2.76425e-12)
(-1.64221e-12 -3.75169e-13 -1.1059e-12)
(-1.29883e-12 -1.58526e-14 -2.58304e-12)
(-1.14778e-12 -2.21594e-14 -2.21135e-12)
(-1.41626e-12 -5.19315e-13 -5.17408e-13)
(-1.27437e-12 -2.92211e-14 -2.5424e-12)
(2.49452e-10 2.11367e-10 8.01522e-12)
(2.59862e-10 2.13485e-10 9.7171e-12)
(1.81416e-10 1.45407e-10 9.89513e-12)
(3.67538e-11 3.77842e-11 2.72955e-12)
(1.77943e-10 1.45499e-10 8.06745e-12)
(2.70026e-10 2.13654e-10 1.39005e-11)
(2.62587e-10 2.13776e-10 1.10082e-11)
(1.6795e-10 1.43989e-10 5.70147e-12)
(3.553e-11 3.79372e-11 2.75023e-12)
(1.73838e-10 1.4526e-10 6.92507e-12)
(3.9027e-10 7.01538e-10 1.08066e-11)
(4.0034e-10 6.97878e-10 1.47581e-11)
(3.71208e-10 8.22345e-10 1.66486e-11)
(2.96205e-10 1.09449e-09 1.29292e-11)
(3.58723e-10 8.14572e-10 1.46536e-11)
(4.16526e-10 7.02832e-10 1.93181e-11)
(4.03915e-10 6.96202e-10 1.56925e-11)
(3.45767e-10 8.23889e-10 1.02826e-11)
(2.89716e-10 1.09834e-09 1.19504e-11)
(3.55196e-10 8.16624e-10 1.38998e-11)
(2.71997e-10 5.59244e-10 7.59829e-12)
(2.16297e-10 2.88274e-10 6.53429e-12)
(1.79076e-10 4.19511e-10 5.13816e-12)
(3.87385e-10 7.03066e-10 1.01165e-11)
(3.42977e-10 8.2583e-10 9.39525e-12)
(2.46962e-10 2.1112e-10 6.96866e-12)
(1.64202e-10 1.4369e-10 5.00356e-12)
(1.36294e-11 1.09443e-11 3.14737e-11)
(3.10915e-11 -1.34414e-10 1.68735e-10)
(8.12437e-12 3.19977e-11 4.06417e-11)
(1.50982e-11 3.41018e-11 1.26335e-10)
(-1.13759e-11 6.41666e-12 4.0824e-11)
(-7.89416e-12 3.04069e-12 1.77579e-12)
(-1.44246e-11 6.29727e-12 -3.63945e-12)
(-9.78336e-12 3.71211e-12 -2.10522e-11)
(-1.17676e-11 8.35445e-12 -2.52518e-11)
(-1.65094e-11 8.56119e-12 6.7432e-12)
(-3.20066e-12 1.66326e-13 5.44106e-12)
(-1.04433e-11 7.37018e-12 7.70569e-11)
(-1.31117e-11 1.33957e-11 4.10319e-11)
(1.04151e-12 8.31854e-12 2.08577e-10)
(-1.87051e-11 1.09834e-11 3.64374e-11)
(-3.81567e-13 5.19881e-12 1.57905e-10)
(-7.86418e-12 1.07869e-11 1.31615e-10)
(-1.87089e-11 1.25418e-11 2.7878e-11)
(-1.15497e-11 8.16244e-12 5.42137e-11)
(-9.2307e-12 1.64779e-11 2.18004e-11)
(-1.7139e-11 1.03275e-11 1.47811e-12)
(-2.03303e-11 1.16096e-11 2.15901e-11)
(-1.21925e-11 1.03137e-11 -1.53668e-11)
(-9.21824e-12 1.19361e-11 1.03939e-10)
(-1.9695e-11 1.15341e-11 1.39682e-11)
(-2.81017e-12 3.6988e-11 -2.66575e-11)
(-3.92969e-12 6.8816e-12 -2.5849e-12)
(-6.34961e-12 2.74462e-11 -2.59998e-11)
(2.01899e-12 8.76587e-12 5.55221e-12)
(5.26642e-11 4.72367e-11 3.93984e-11)
(-5.77884e-12 2.10131e-11 1.64929e-11)
(-6.89986e-12 1.43414e-11 -3.04435e-12)
(-5.39146e-12 1.72127e-11 8.28962e-12)
(-5.62169e-12 2.6878e-11 -1.27401e-11)
(2.71357e-11 3.79253e-11 4.22475e-11)
(5.3905e-12 1.18542e-11 1.49283e-10)
(-7.67771e-12 -6.32653e-12 4.60761e-11)
(1.68557e-12 8.42914e-12 2.12111e-10)
(-1.59641e-11 5.44401e-12 4.11454e-11)
(4.73196e-12 4.52586e-12 1.6193e-10)
(-5.73528e-12 1.23512e-11 1.42822e-10)
(-9.52318e-12 -9.4261e-13 3.96363e-11)
(1.62963e-11 1.88727e-11 1.00716e-10)
(1.26142e-11 2.33387e-12 2.29689e-11)
(1.04505e-10 3.12019e-11 4.73344e-11)
(8.78888e-12 1.32706e-11 1.78541e-11)
(4.26656e-11 3.70435e-11 5.19143e-11)
(4.62663e-11 1.43345e-11 7.35191e-11)
(6.58398e-13 4.63963e-12 2.56238e-11)
(-6.09194e-12 1.63195e-11 8.05195e-11)
(-5.28029e-12 1.9053e-11 3.31113e-11)
(-1.76089e-11 8.40898e-12 2.66763e-11)
(-4.79553e-12 1.16285e-11 1.69633e-11)
(-6.86807e-12 1.2827e-11 1.1538e-10)
(2.30138e-11 3.20547e-11 5.44618e-11)
(-1.11454e-11 5.68006e-12 2.75186e-11)
(1.0297e-11 8.00724e-11 8.39209e-11)
(-6.63657e-12 1.75185e-11 3.43493e-11)
(-1.6817e-12 2.00808e-12 1.58641e-11)
(1.95249e-11 4.19131e-11 1.13433e-10)
(-1.79336e-12 3.85355e-12 1.38554e-11)
(7.96108e-12 7.4713e-11 7.92144e-11)
(-4.61101e-13 9.97068e-13 1.34994e-11)
(-1.31949e-12 -4.27739e-13 1.03204e-11)
(4.61816e-12 5.61792e-11 5.82358e-11)
(-1.25513e-12 2.6327e-12 1.27394e-11)
(8.47166e-13 -1.76961e-13 -2.84063e-13)
(2.23423e-12 -1.34486e-12 8.38628e-12)
(2.37432e-12 -2.04371e-13 7.30247e-13)
(2.64077e-12 -9.81065e-13 8.74564e-12)
(3.36686e-12 9.55897e-14 2.47906e-12)
(4.10263e-12 -2.40298e-13 2.20404e-12)
(-8.39467e-13 9.14277e-12 5.24319e-11)
(-1.27396e-12 -1.05135e-11 2.33528e-11)
(-3.20468e-13 3.09825e-12 7.43889e-11)
(-3.38019e-12 1.01765e-12 2.10432e-11)
(4.23722e-12 5.83356e-12 9.84423e-11)
(-9.62264e-13 2.21039e-11 6.71593e-11)
(-1.59502e-12 -2.8806e-12 1.69402e-11)
(4.60095e-12 1.15939e-11 3.42682e-11)
(5.22907e-12 -8.78096e-12 6.67558e-12)
(2.03179e-11 -1.22068e-11 3.95768e-11)
(7.33448e-13 -4.47535e-12 5.88762e-12)
(3.1478e-12 2.13909e-11 3.44449e-11)
(-1.28666e-12 -5.80849e-13 8.84428e-12)
(1.08708e-12 1.99778e-13 1.49893e-12)
(3.32637e-12 5.08498e-11 5.31212e-11)
(-1.56798e-13 -3.28293e-12 5.64161e-12)
(7.90101e-11 6.77165e-12 5.31467e-11)
(2.32026e-11 1.05739e-12 2.0358e-11)
(1.19951e-10 2.01809e-11 5.05337e-11)
(5.60412e-11 -5.96361e-12 -8.16341e-12)
(5.84984e-11 1.01018e-11 4.24918e-11)
(1.64255e-10 5.71578e-12 8.86624e-12)
(3.06542e-11 -3.99398e-12 1.7351e-11)
(6.51719e-11 1.12654e-12 4.28866e-11)
(6.96402e-12 -9.18809e-12 7.3105e-12)
(2.8365e-11 -1.10027e-11 3.98612e-11)
(1.38491e-11 -4.74029e-12 8.64425e-12)
(8.44952e-11 6.0836e-12 4.14119e-11)
(5.71651e-11 -9.1004e-12 -9.09592e-12)
(1.76359e-10 4.86761e-12 -1.31639e-11)
(3.69406e-11 -1.4214e-11 1.52138e-11)
(2.66532e-10 4.23866e-10 2.70103e-11)
(4.87242e-10 3.8689e-10 3.62193e-11)
(3.56113e-10 5.76449e-10 3.02107e-11)
(2.84042e-10 2.963e-10 2.13071e-11)
(2.48196e-10 4.29576e-10 2.35823e-11)
(3.75909e-10 5.68706e-10 3.23443e-11)
(3.04316e-10 2.9952e-10 2.39676e-11)
(2.80967e-10 4.1972e-10 3.07287e-11)
(4.95081e-10 3.88108e-10 3.58237e-11)
(4.03199e-10 5.56219e-10 3.41351e-11)
(3.31844e-10 3.01534e-10 2.99283e-11)
(2.93452e-10 4.14831e-10 3.43767e-11)
(3.92622e-10 5.6181e-10 3.4548e-11)
(3.19868e-10 3.01518e-10 2.67892e-11)
(2.9873e-10 2.10785e-10 2.04409e-11)
(2.79542e-10 2.08345e-10 1.96201e-11)
(1.83454e-10 1.43763e-10 1.13527e-11)
(4.11578e-11 3.67998e-11 5.07505e-12)
(1.86255e-10 1.41658e-10 1.27475e-11)
(2.71675e-10 2.13028e-10 1.54281e-11)
(2.76852e-10 2.09305e-10 1.82411e-11)
(2.00781e-10 1.41158e-10 1.45241e-11)
(4.34005e-11 3.63747e-11 5.08205e-12)
(1.90318e-10 1.39381e-10 1.40028e-11)
(4.66629e-10 7.35176e-10 2.95171e-11)
(4.45782e-10 7.34304e-10 2.4541e-11)
(3.76115e-10 8.28326e-10 1.72658e-11)
(3.28586e-10 1.13786e-09 1.48265e-11)
(3.94294e-10 8.54826e-10 2.07275e-11)
(4.2139e-10 7.07344e-10 2.01005e-11)
(4.38968e-10 7.27664e-10 2.36627e-11)
(4.21785e-10 8.59997e-10 2.97499e-11)
(3.43041e-10 1.1526e-09 2.03648e-11)
(4.01067e-10 8.62208e-10 2.21145e-11)
(4.73716e-10 7.28522e-10 3.01951e-11)
(4.94072e-10 7.03059e-10 3.23096e-11)
(4.64346e-10 7.77165e-10 3.15745e-11)
(3.87341e-10 1.03709e-09 3.68838e-11)
(4.53685e-10 7.96239e-10 3.47098e-11)
(5.09909e-10 6.84764e-10 3.04131e-11)
(5.00066e-10 6.96659e-10 3.23813e-11)
(4.28623e-10 8.51169e-10 3.13277e-11)
(3.78175e-10 1.07703e-09 3.84846e-11)
(4.4778e-10 8.08235e-10 3.48208e-11)
(3.06351e-10 2.12217e-10 2.17476e-11)
(3.3626e-10 2.20311e-10 2.37125e-11)
(2.50685e-10 1.51195e-10 2.04183e-11)
(5.70179e-11 3.63491e-11 6.69891e-12)
(2.41669e-10 1.49765e-10 1.82394e-11)
(3.60954e-10 2.23532e-10 2.70365e-11)
(3.43656e-10 2.21504e-10 2.51277e-11)
(2.1264e-10 1.43184e-10 1.56288e-11)
(5.28822e-11 3.64779e-11 6.62598e-12)
(2.29054e-10 1.48174e-10 1.69568e-11)
(-1.7736e-12 -1.6346e-12 2.65449e-11)
(-2.5841e-12 -3.46882e-13 2.55456e-11)
(-1.47189e-13 -2.24285e-13 1.29209e-11)
(-3.27078e-12 -1.04325e-13 8.45009e-12)
(-3.2633e-12 -1.25266e-13 8.612e-12)
(-6.16064e-12 -1.46932e-13 6.51415e-12)
(-1.01907e-12 -5.89089e-14 -1.38027e-12)
(-6.15536e-12 -8.86261e-14 6.34967e-12)
(-6.13424e-12 -7.59457e-14 6.18206e-12)
(-1.06438e-12 -5.31067e-14 -1.45306e-12)
(-6.14665e-12 -1.03657e-13 6.32166e-12)
(-1.574e-12 1.12697e-15 -2.92753e-12)
(-1.47433e-12 -5.19472e-15 -2.805e-12)
(-2.1269e-12 -6.53176e-14 -2.16798e-12)
(-1.50337e-12 -8.34735e-15 -2.86176e-12)
(-2.17669e-12 -3.5199e-14 -2.26305e-12)
(-1.55327e-12 -9.93961e-15 -2.90798e-12)
(-1.51596e-12 1.52238e-15 -2.87391e-12)
(-3.45037e-12 -3.09464e-12 -2.20879e-12)
(-2.34729e-12 -1.31141e-12 -2.65913e-12)
(-1.23457e-12 -1.49981e-12 -1.87732e-12)
(-2.07064e-12 -8.98061e-13 -8.6274e-12)
(-2.70288e-12 -1.51872e-12 -3.27895e-12)
(-3.0827e-12 -2.93163e-12 -1.23734e-12)
(-2.83758e-12 -1.30598e-12 -6.87756e-12)
(-5.94836e-12 -2.12563e-12 -1.23266e-11)
(-4.00322e-13 -6.88761e-13 -3.17071e-12)
(-7.01268e-13 -1.33289e-12 -3.57553e-12)
(-3.22497e-12 -1.39452e-12 -1.60683e-11)
(-3.43245e-12 -2.57514e-12 -1.10069e-11)
(-5.25837e-13 -9.00025e-13 -4.27229e-12)
(-4.43948e-12 -1.21322e-12 -1.35906e-11)
(1.00311e-11 4.96175e-11 9.28508e-11)
(4.36978e-12 1.36221e-11 3.3332e-11)
(9.12249e-12 5.17002e-11 9.38196e-11)
(3.37537e-12 8.10012e-12 3.62396e-11)
(2.51984e-12 3.09198e-11 1.03965e-10)
(1.70511e-11 4.19953e-11 9.84189e-11)
(1.8933e-12 1.2384e-11 3.05414e-11)
(3.71889e-10 3.84681e-10 7.07221e-11)
(4.74391e-10 4.91292e-10 2.923e-11)
(4.77891e-10 4.16542e-10 -5.42594e-12)
(4.50726e-10 3.82304e-10 3.14622e-11)
(4.31183e-10 3.68574e-10 2.98931e-11)
(4.47301e-10 4.64115e-10 1.80021e-11)
(4.04389e-10 4.21821e-10 4.526e-11)
(8.00352e-11 1.27865e-10 9.93494e-11)
(3.09013e-11 3.73341e-11 3.36245e-11)
(1.42381e-10 2.37121e-10 9.42158e-11)
(3.11351e-11 4.06422e-11 2.97568e-11)
(9.79022e-11 1.15481e-10 1.08584e-10)
(1.22012e-10 1.28768e-10 8.59727e-11)
(2.33074e-11 3.50804e-11 3.06979e-11)
(-2.70324e-12 -9.57273e-13 -2.16595e-12)
(1.5474e-13 -5.23295e-13 3.10913e-12)
(-3.15471e-12 -5.85803e-13 -3.09023e-12)
(-1.6049e-13 -1.33929e-13 2.54609e-12)
(-2.34524e-12 -9.63829e-13 -1.67193e-12)
(-3.00927e-12 -4.54054e-13 -2.63137e-12)
(2.84626e-10 4.08099e-10 1.03086e-11)
(3.82365e-10 3.69038e-10 1.38437e-11)
(3.58935e-10 4.56446e-10 1.13861e-11)
(3.07583e-10 3.20667e-10 1.05638e-11)
(3.12209e-10 3.22192e-10 1.21177e-11)
(3.63569e-10 4.57699e-10 1.23909e-11)
(2.80782e-10 4.07651e-10 9.48263e-12)
(3.03237e-10 4.1091e-10 1.56735e-11)
(4.0208e-10 3.72387e-10 1.90364e-11)
(3.34786e-10 3.25881e-10 1.86855e-11)
(3.87189e-10 4.61717e-10 1.96792e-11)
(3.05949e-10 4.11702e-10 1.69957e-11)
(3.31732e-10 3.25276e-10 1.68616e-11)
(3.82925e-10 4.60078e-10 1.82715e-11)
(4.15686e-11 4.04644e-11 3.1093e-11)
(1.33287e-10 1.21686e-10 9.93178e-11)
(-2.38233e-11 2.75753e-11 -8.86665e-12)
(-1.74908e-11 2.52191e-11 -4.46816e-12)
(-7.68006e-12 1.01028e-11 -2.57013e-12)
(-1.62886e-11 2.57134e-11 -7.27694e-12)
(-1.15899e-11 1.05589e-11 -1.88994e-12)
(-1.9912e-12 -1.20424e-12 -1.01523e-12)
(1.84855e-12 -1.69855e-12 6.64279e-12)
(-7.70815e-13 -1.22326e-12 6.66908e-13)
(2.82394e-12 -1.92186e-12 6.71774e-12)
(6.057e-12 -3.04681e-13 1.38459e-11)
(1.95561e-12 -8.81131e-13 1.70487e-12)
(3.31867e-10 4.19201e-10 2.49232e-11)
(4.34835e-10 3.71434e-10 3.13816e-11)
(4.27253e-10 4.73838e-10 2.96768e-11)
(3.66897e-10 3.25933e-10 2.88693e-11)
(3.40695e-10 4.20219e-10 2.55446e-11)
(3.56669e-10 3.22731e-10 2.71294e-11)
(4.16917e-10 4.70646e-10 2.90634e-11)
(3.10528e-10 4.13916e-10 1.96678e-11)
(4.12336e-10 3.72658e-10 2.31047e-11)
(3.36079e-10 3.24813e-10 1.94689e-11)
(3.8987e-10 4.63067e-10 2.09364e-11)
(3.08424e-10 4.12935e-10 1.83185e-11)
(3.38477e-10 3.2491e-10 2.14635e-11)
(3.93564e-10 4.64353e-10 2.23866e-11)
(-4.8208e-12 -7.49251e-14 -9.08568e-12)
(-1.1294e-12 -5.29436e-14 -1.67306e-12)
(-4.8595e-12 -8.55956e-14 -9.29728e-12)
(4.76354e-10 3.35798e-10 2.84879e-11)
(4.6301e-10 3.34679e-10 -3.45405e-14)
(5.17496e-10 5.35835e-10 1.28855e-11)
(4.89976e-10 5.13844e-10 -2.5735e-11)
(4.15682e-10 4.26173e-10 3.26025e-11)
(4.87621e-10 4.99237e-10 1.80925e-11)
(5.06513e-10 4.08085e-10 2.68084e-11)
(4.52518e-10 3.72321e-10 2.34656e-11)
(4.1319e-10 4.25613e-10 3.65494e-11)
(4.82353e-10 4.82899e-10 2.38952e-11)
(4.47747e-10 3.59516e-10 2.72598e-11)
(4.12229e-10 4.20508e-10 3.22664e-11)
(5.121e-10 3.90404e-10 3.2263e-11)
(4.89895e-10 4.73132e-10 3.28455e-11)
(4.40847e-10 3.40187e-10 3.27213e-11)
(4.91342e-10 4.74383e-10 3.10998e-11)
(4.43009e-10 3.41957e-10 3.21235e-11)
(4.11019e-10 4.20189e-10 3.30358e-11)
(5.43335e-10 5.47138e-10 9.20634e-12)
(5.40184e-10 5.3223e-10 2.012e-11)
(5.60469e-10 5.2357e-10 3.19056e-11)
(5.60707e-10 5.2404e-10 3.03589e-11)
(4.76629e-10 3.23317e-10 2.58706e-11)
(4.73221e-10 3.12536e-10 3.06495e-11)
(4.62557e-10 2.88702e-10 3.29769e-11)
(4.65334e-10 2.911e-10 3.25463e-11)
(-2.26025e-12 -5.03051e-13 -1.97306e-12)
(-1.06501e-12 -3.83683e-13 1.23737e-12)
(-2.20835e-12 -2.39696e-13 -1.83985e-12)
(-1.28487e-12 -7.68558e-14 9.39801e-13)
(-2.21604e-12 -2.43356e-13 -1.5919e-12)
(-2.22654e-12 -1.12853e-13 -1.8114e-12)
(-4.66278e-12 -1.10759e-13 -9.1477e-12)
(-6.34006e-13 -2.42539e-13 -9.23761e-13)
(-4.59249e-12 -1.71118e-13 -9.26333e-12)
(-3.29273e-12 -1.38698e-12 -5.1284e-12)
(5.6412e-13 -9.58642e-13 2.47517e-12)
(-3.34972e-12 -1.44246e-12 -6.29596e-12)
(-3.08194e-12 -1.13664e-13 -4.2503e-12)
(-1.83188e-12 -2.30086e-13 -1.63854e-12)
(-3.00152e-12 -1.36149e-13 -4.1033e-12)
(-2.51155e-12 -3.05029e-13 -2.41871e-12)