/*--------------------------------*- C++ -*----------------------------------*\
| =========                 |                                                 |
| \\      /  F ield         | OpenFOAM: The Open Source CFD Toolbox           |
|  \\    /   O peration     | Version:  2012                                  |
|   \\  /    A nd           | Website:  www.openfoam.com                      |
|    \\/     M anipulation  |                                                 |
\*---------------------------------------------------------------------------*/
FoamFile
{
    version     2.0;
    format      ascii;
    class       volScalarField;
    location    "0.107/solid";
    object      epsilonEq;
}
// * * * * * * * * * * * * * * * * * * * * * * * * * * * * * * * * * * * * * //

dimensions      [0 0 0 0 0 0 0];


internalField   nonuniform List<scalar> 
3124
(
6.45745e-09
3.06932e-10
5.18303e-09
1.75976e-08
5.07613e-09
5.38889e-10
5.38991e-09
1.80635e-08
5.12063e-09
4.45246e-09
1.14453e-08
1.76463e-08
5.16121e-09
3.34974e-09
3.85633e-09
4.7876e-09
8.51074e-09
3.68873e-09
4.00383e-09
1.79076e-08
3.54098e-09
3.49105e-09
3.31495e-09
7.32301e-09
6.01913e-09
1.2424e-08
1.14226e-08
1.39532e-08
7.57267e-09
1.0265e-08
1.04238e-09
4.46188e-09
8.02968e-10
5.08811e-09
1.02171e-08
1.85537e-08
1.74117e-08
5.46165e-09
1.85866e-08
1.00228e-08
1.3133e-08
6.81506e-09
1.56542e-09
1.80191e-09
2.07609e-09
7.51811e-09
1.39178e-09
4.11874e-09
5.88099e-09
1.84109e-08
1.03949e-08
1.90025e-08
5.447e-09
1.99602e-08
1.06234e-08
4.74039e-09
3.27297e-09
3.06394e-09
9.92264e-10
3.56399e-09
1.25216e-08
9.13353e-09
9.82681e-09
1.01999e-08
1.08287e-08
1.76425e-08
1.0731e-08
8.28197e-09
1.61015e-08
1.77228e-08
1.17353e-08
1.62286e-08
6.87014e-09
1.21917e-08
1.24243e-08
1.2172e-08
1.27674e-08
9.83277e-09
1.25639e-08
9.23102e-09
9.97282e-09
1.06853e-09
9.15675e-10
4.24763e-09
7.9572e-10
6.11129e-10
5.59014e-10
7.36728e-10
7.65064e-09
7.36001e-09
1.26076e-08
1.25385e-08
5.08106e-09
1.73592e-08
1.87015e-08
9.86363e-09
1.25492e-08
7.25274e-09
1.12698e-08
1.43649e-08
1.26191e-09
1.05053e-08
3.08779e-09
1.79105e-09
2.44952e-09
1.08393e-08
4.37948e-09
3.68225e-09
7.95662e-09
6.8911e-09
4.50625e-09
1.39328e-09
4.10716e-09
5.81014e-09
4.1215e-09
5.11814e-09
5.96808e-09
1.8226e-08
1.75203e-08
1.13852e-08
6.94933e-09
1.93955e-08
1.10121e-08
7.6501e-09
7.92705e-09
1.28818e-08
1.36327e-08
1.24028e-08
1.3418e-08
9.1997e-09
8.21969e-09
4.16814e-09
3.32088e-09
3.08768e-09
8.26479e-10
9.73542e-10
8.04184e-10
6.06565e-10
7.82154e-10
2.10073e-08
1.26911e-09
6.2453e-10
4.30665e-09
4.96131e-09
4.3962e-09
5.20693e-09
1.9409e-09
8.0506e-10
5.77854e-10
1.98987e-09
6.12608e-09
4.32808e-09
4.87596e-09
5.15966e-09
7.28686e-09
3.7724e-09
8.02989e-09
6.91348e-09
8.75105e-09
7.28839e-09
5.81731e-09
1.80556e-08
1.66849e-08
1.47946e-08
1.11784e-08
1.38557e-08
1.23675e-08
1.39498e-08
1.22716e-08
3.9534e-09
8.15005e-09
6.50854e-09
8.30446e-09
5.69794e-09
1.02959e-08
3.50647e-09
2.6947e-09
2.82813e-09
1.67026e-08
1.49669e-08
1.35873e-08
3.86105e-09
2.67473e-09
6.73983e-09
6.40287e-09
7.6161e-09
4.66021e-09
3.11797e-09
6.37026e-09
3.86311e-09
6.81482e-09
4.90486e-09
7.34784e-09
4.14863e-09
6.2285e-09
2.52782e-09
3.53128e-09
4.24273e-09
3.02919e-09
4.98282e-09
2.83839e-09
3.01241e-09
2.92078e-09
3.49591e-09
4.3943e-09
3.44585e-09
4.26007e-09
2.60941e-09
4.0003e-09
3.60349e-09
3.43576e-09
3.21852e-09
2.6608e-09
2.56651e-09
1.20775e-08
1.17938e-08
2.30793e-08
9.98314e-09
1.27194e-08
1.38991e-08
1.2074e-08
8.86213e-09
1.99891e-08
6.50433e-09
7.90857e-09
9.04964e-09
1.08267e-08
8.1346e-09
3.20695e-09
3.62442e-09
6.86068e-10
3.5747e-09
4.90192e-09
3.8107e-09
4.31696e-09
7.34629e-10
3.02856e-09
3.50154e-09
1.0853e-08
5.29297e-09
9.00653e-09
6.51934e-09
6.56891e-09
8.9276e-09
1.0887e-08
1.09056e-08
5.30408e-09
6.75837e-09
9.03497e-09
1.105e-08
6.67568e-09
8.91256e-09
5.58707e-09
2.666e-09
1.33383e-09
2.28969e-09
2.32716e-09
1.70893e-09
2.30998e-09
5.45673e-09
2.66908e-09
2.21132e-09
1.75848e-09
1.44335e-09
2.12989e-09
2.3008e-09
1.47048e-09
2.1115e-09
1.75087e-09
1.09564e-09
1.97232e-09
2.24991e-09
6.31992e-09
5.95899e-09
5.10793e-09
3.63604e-09
2.8016e-09
3.90525e-09
5.02095e-09
3.04481e-09
4.05745e-09
1.1927e-08
5.57216e-09
1.02574e-08
7.32193e-09
1.19908e-08
7.19135e-09
1.01526e-08
1.16625e-08
5.56558e-09
6.91012e-09
9.35074e-09
1.13448e-08
7.02508e-09
9.75982e-09
5.09657e-09
3.23174e-09
3.00972e-09
2.43459e-09
1.71352e-09
8.28459e-09
1.34878e-08
2.36176e-08
2.88357e-09
4.61e-09
5.27026e-09
1.01699e-08
4.71157e-09
6.20644e-09
1.02394e-08
1.08418e-08
1.22486e-08
1.34898e-08
1.48678e-08
9.80259e-09
1.08948e-08
2.33659e-08
2.47052e-08
5.71124e-09
1.20559e-08
9.56052e-09
1.52657e-08
8.20816e-09
7.8926e-09
6.70274e-09
1.87979e-08
9.26723e-09
1.61826e-08
2.38102e-08
1.64233e-08
2.25916e-08
8.22975e-09
1.55685e-08
8.71871e-08
1.23353e-08
1.76944e-08
1.10092e-08
1.06239e-08
1.47626e-08
1.57258e-08
1.20708e-08
1.43506e-08
9.99466e-09
3.31885e-08
1.82764e-08
2.00326e-08
2.81784e-08
9.38251e-09
1.40313e-08
1.44341e-08
1.64569e-08
1.28568e-08
1.20419e-08
1.11632e-08
7.07571e-09
9.41461e-09
1.20652e-08
1.03882e-08
8.57016e-09
1.1858e-08
7.30488e-09
9.85836e-09
8.06678e-09
1.01385e-08
8.25029e-09
1.16465e-08
9.96088e-09
9.01796e-09
1.24133e-08
1.00889e-08
1.0257e-08
1.06785e-08
1.21067e-08
1.01378e-08
9.00891e-09
9.16666e-09
1.38323e-08
1.11967e-08
1.23822e-08
1.43948e-08
1.50192e-08
9.79464e-09
1.33807e-08
1.33243e-08
8.07135e-09
1.00042e-08
1.40221e-08
1.54355e-08
6.52297e-09
1.23404e-08
1.46008e-08
2.41558e-08
1.44224e-08
1.47721e-08
1.54679e-08
1.59088e-08
1.46921e-08
9.50998e-09
7.82106e-09
7.30734e-09
9.32468e-09
7.76294e-09
7.56966e-09
7.84723e-09
9.20584e-09
9.56649e-09
7.33956e-09
8.72724e-10
7.89748e-10
1.30722e-09
7.97887e-10
1.36264e-09
1.27111e-09
3.60115e-09
3.56833e-09
2.9338e-09
1.93078e-09
6.78412e-10
2.03722e-09
2.7833e-09
5.96365e-10
2.1343e-09
2.0819e-09
4.16351e-10
1.86787e-09
1.44544e-09
4.06411e-10
1.79562e-09
5.85844e-09
6.00267e-09
6.18399e-09
7.60319e-09
6.1782e-09
6.17352e-09
6.08691e-09
6.07382e-09
7.50337e-09
6.04514e-09
8.23513e-09
8.14935e-09
9.83083e-09
1.25e-08
9.69465e-09
8.3532e-09
8.26809e-09
9.81769e-09
1.24852e-08
9.66055e-09
9.04306e-09
6.46132e-09
1.09028e-08
8.17378e-09
9.79925e-09
5.78379e-09
5.93522e-09
1.67297e-08
8.86539e-08
1.34124e-08
4.86272e-09
2.74871e-09
1.5847e-09
1.96787e-09
1.44517e-09
1.21248e-09
2.77291e-09
1.86269e-09
4.56582e-09
8.96886e-09
1.13002e-08
8.03495e-09
8.62182e-09
7.27808e-09
6.45802e-09
3.41507e-09
2.20172e-09
2.39244e-09
5.31963e-09
8.76823e-10
5.83128e-09
4.05087e-09
2.41637e-09
2.12578e-09
2.15546e-09
3.1669e-09
4.89543e-09
1.98963e-09
1.95267e-09
2.47569e-09
1.84286e-09
3.4901e-09
8.11966e-09
9.38005e-09
1.14607e-08
8.71277e-09
8.73612e-09
7.76228e-09
7.99351e-09
5.34961e-09
4.52516e-09
6.41634e-09
4.07755e-09
4.59565e-09
3.95352e-09
4.93172e-09
5.42232e-09
2.4073e-09
5.95617e-09
3.7063e-09
6.31744e-09
3.66295e-09
5.59956e-09
5.0505e-09
1.06336e-08
6.09293e-09
6.51083e-09
6.41519e-09
4.59813e-09
5.31119e-09
4.29735e-09
3.31902e-09
5.92687e-09
7.04026e-10
3.08273e-09
2.02097e-09
3.40138e-09
3.29172e-09
3.28157e-09
2.99043e-09
4.91576e-09
5.84765e-09
4.38252e-09
5.67791e-09
3.79095e-09
3.54627e-09
1.61655e-09
2.92421e-09
2.11913e-09
2.41618e-09
1.899e-09
3.89589e-09
2.27552e-09
3.05669e-09
2.61385e-09
3.03712e-09
4.51436e-09
6.21805e-09
6.50289e-09
3.75722e-09
5.06291e-09
4.62102e-09
2.77535e-09
3.19003e-09
2.18605e-09
4.31328e-09
3.18283e-09
7.04001e-09
6.62199e-09
4.83727e-09
1.16886e-08
6.49623e-09
1.00945e-08
7.49211e-09
1.1889e-08
9.7838e-09
7.67e-09
1.15408e-08
6.57223e-09
9.63528e-09
7.97747e-09
1.15369e-08
9.59304e-09
7.85722e-09
6.37686e-09
6.1301e-09
6.31007e-09
7.65871e-09
6.32723e-09
6.1857e-09
6.12655e-09
6.54583e-09
7.7194e-09
6.54079e-09
9.15975e-09
9.00367e-09
9.96517e-09
1.32307e-08
1.06184e-08
8.48437e-09
8.93896e-09
1.09443e-08
1.35253e-08
1.0776e-08
9.26861e-09
9.0117e-09
1.00441e-08
1.25706e-08
1.00933e-08
9.00356e-09
8.98069e-09
1.09188e-08
1.2967e-08
1.02126e-08
6.58402e-09
7.10861e-09
7.22674e-09
8.95555e-09
7.1274e-09
7.55506e-09
7.29872e-09
6.85084e-09
8.62654e-09
6.87121e-09
3.76698e-09
3.37697e-09
3.18814e-09
2.4578e-09
2.53777e-09
1.90268e-09
8.95256e-10
1.82055e-09
1.73193e-09
9.14636e-10
1.79739e-09
2.34795e-09
2.13566e-09
6.97092e-10
2.23319e-09
7.21466e-10
2.32149e-09
2.25707e-09
5.19341e-10
1.51952e-10
2.05776e-10
8.59543e-10
5.32916e-10
2.70171e-10
5.39552e-10
9.72116e-10
7.09554e-10
5.84673e-10
1.33582e-09
8.13121e-10
8.33516e-10
1.16324e-09
6.41552e-09
8.29892e-09
7.59979e-09
8.37659e-09
8.06287e-09
7.44161e-09
7.52805e-09
1.17146e-08
8.21582e-09
1.00954e-08
7.86596e-09
9.08798e-09
9.67561e-09
1.02893e-08
9.88128e-09
1.0176e-08
1.40778e-08
9.6885e-09
1.21278e-08
1.20049e-08
9.30804e-09
1.13744e-09
8.64752e-10
9.35914e-10
8.13531e-10
6.65013e-10
8.06732e-10
7.34013e-09
5.17886e-09
6.14192e-09
5.8409e-09
5.84025e-09
6.12954e-09
7.3459e-09
7.42908e-09
5.3621e-09
6.08579e-09
6.38171e-09
7.56152e-09
6.07826e-09
6.35005e-09
1.06756e-08
1.30119e-08
1.89397e-09
1.70733e-09
2.21945e-09
1.69604e-09
2.15066e-09
1.39618e-09
1.87291e-09
1.67024e-09
3.62171e-09
3.6283e-09
2.75013e-09
8.36893e-09
5.67684e-09
6.9854e-09
6.58589e-09
8.44378e-09
6.51499e-09
6.9513e-09
7.8087e-09
5.51745e-09
6.20184e-09
6.47989e-09
7.66632e-09
6.17684e-09
6.5168e-09
1.09661e-09
1.0182e-09
1.13277e-09
6.16455e-09
9.01762e-09
7.81252e-09
1.13944e-08
9.47491e-09
8.90913e-09
7.29678e-09
8.76669e-09
1.03469e-08
8.59543e-09
8.24763e-09
8.73012e-09
7.0633e-09
7.79732e-09
7.59493e-09
7.86053e-09
7.58813e-09
8.5889e-09
1.0179e-08
8.40513e-09
8.15115e-09
8.27915e-09
7.84289e-09
7.14372e-09
6.52492e-09
6.70503e-09
3.54804e-10
9.44903e-10
3.47995e-10
8.89726e-10
3.80604e-10
3.55467e-10
9.10803e-10
7.7837e-10
9.03371e-10
3.9867e-10
5.06927e-10
2.46632e-10
1.25232e-09
5.04828e-10
1.17552e-09
4.8578e-10
6.22486e-10
5.77022e-10
4.70417e-09
4.76403e-09
5.03719e-09
4.96465e-09
6.38744e-09
6.48376e-09
6.7355e-09
6.63899e-09
7.32198e-09
6.06309e-09
4.98513e-09
5.75007e-09
7.35259e-09
6.05028e-09
5.73535e-09
6.38886e-09
6.29486e-09
4.66599e-09
4.58946e-09
1.51761e-09
1.5666e-09
2.11484e-09
1.51086e-09
1.80523e-09
3.5269e-09
3.85323e-09
5.48627e-09
7.6886e-09
6.84623e-09
5.48596e-09
7.63614e-09
4.68087e-09
6.58311e-09
4.58248e-09
4.42449e-09
4.76706e-09
5.34682e-10
1.88885e-09
8.90419e-10
3.93628e-09
3.06626e-09
2.87887e-09
4.07856e-09
3.30591e-09
3.44734e-09
8.44428e-09
6.20361e-09
7.18187e-09
6.78529e-09
8.41516e-09
7.18108e-09
6.86098e-09
8.45421e-09
6.75387e-09
7.70137e-09
7.45236e-09
8.56061e-09
7.64555e-09
7.44221e-09
5.38989e-09
5.21125e-09
5.01708e-09
5.07055e-09
7.41244e-09
7.16787e-09
6.80588e-09
6.83199e-09
7.40015e-09
7.68581e-09
8.1069e-09
7.97321e-09
5.51762e-09
5.71656e-09
6.56014e-09
6.38245e-09
9.3391e-10
8.58065e-10
9.72969e-10
1.0799e-09
9.63043e-10
1.07546e-09
8.11148e-10
1.53118e-09
1.52553e-09
1.31261e-09
6.29307e-10
1.32664e-09
7.5336e-10
1.50561e-09
1.465e-09
3.03528e-10
1.36971e-09
1.64078e-09
6.26759e-10
4.69235e-10
2.49851e-10
3.31967e-10
7.23503e-10
4.88303e-09
5.06095e-09
4.28822e-09
4.36136e-09
5.06071e-09
4.40149e-09
4.90871e-09
4.87565e-09
4.47553e-09
4.4103e-09
4.81796e-09
4.48965e-09
4.83295e-09
4.85545e-09
4.7088e-09
4.70957e-09
5.10809e-09
4.77329e-09
3.56888e-09
5.84079e-09
5.17313e-09
7.05683e-10
2.78256e-10
6.28894e-10
3.82856e-10
1.53332e-09
5.071e-10
2.2086e-09
2.0531e-09
3.1678e-09
1.6935e-09
1.39796e-09
2.27735e-09
2.91966e-09
1.19638e-09
1.94615e-09
3.50962e-09
1.89448e-09
5.82101e-09
5.34167e-09
4.24779e-09
4.46016e-09
5.40502e-09
4.37162e-09
5.68155e-09
6.17018e-09
4.82377e-09
6.27694e-09
4.65616e-09
6.47412e-09
4.58062e-09
5.99718e-09
4.75953e-09
4.84111e-09
4.95079e-09
5.04054e-09
7.51487e-09
1.00564e-08
7.85849e-09
6.38677e-09
6.34124e-09
8.94796e-09
7.83196e-09
5.69253e-09
6.69121e-09
6.11692e-09
7.00216e-09
5.56955e-09
6.22717e-09
6.722e-09
7.70076e-09
8.97287e-09
8.57921e-09
7.33259e-09
7.49443e-09
8.98719e-09
7.44655e-09
5.38407e-09
6.57189e-09
5.13259e-09
6.4964e-09
4.82776e-09
6.04165e-09
6.24069e-09
1.78438e-08
1.62987e-08
1.83998e-08
1.64788e-08
1.54294e-08
2.26488e-08
1.59813e-08
8.98571e-09
1.09304e-08
9.84347e-09
1.2004e-08
8.62719e-09
1.08561e-08
1.00958e-08
5.61763e-09
4.29537e-09
5.17934e-09
4.29193e-09
5.10568e-09
4.56365e-09
5.83456e-09
7.78871e-09
9.62886e-09
6.55526e-09
8.33089e-09
6.91678e-09
7.56138e-09
9.42171e-09
6.55101e-09
7.51635e-09
4.84241e-09
6.08846e-09
5.25694e-09
6.58684e-09
7.43263e-09
3.34751e-09
3.26622e-09
2.70194e-09
2.72643e-09
3.30561e-09
2.74119e-09
3.30071e-09
3.38205e-09
2.83558e-09
3.41798e-09
2.76851e-09
3.45468e-09
2.77155e-09
3.3503e-09
4.64572e-09
5.22316e-09
4.04883e-09
3.04272e-09
3.5459e-09
5.14073e-09
4.27567e-09
4.33612e-09
6.22257e-09
5.58084e-09
5.51355e-09
5.01373e-09
4.7984e-09
5.42115e-09
5.81828e-09
6.47249e-09
7.59975e-09
6.43462e-09
6.75368e-09
6.55371e-09
5.41879e-09
3.38892e-09
2.75873e-09
3.33173e-09
4.37246e-09
2.62198e-09
3.83608e-09
4.42141e-09
5.73551e-09
6.6968e-09
5.31439e-09
6.46316e-09
5.4706e-09
6.81674e-09
5.62924e-09
4.79369e-09
4.15106e-09
4.81208e-09
3.9892e-09
4.72429e-09
4.42641e-09
4.67033e-09
5.9718e-09
6.75395e-09
5.88126e-09
7.34583e-09
6.16016e-09
5.48198e-09
7.03409e-09
4.78191e-09
4.71008e-09
4.24559e-09
4.43187e-09
4.5034e-09
4.79376e-09
4.76101e-09
3.26599e-09
3.45654e-09
3.66862e-09
3.21153e-09
3.51593e-09
3.25274e-09
3.08807e-09
3.4263e-09
4.2307e-09
4.10247e-09
4.64302e-09
3.95176e-09
3.35943e-09
4.15176e-09
2.7967e-09
1.81335e-09
3.10519e-09
2.51662e-09
2.7803e-09
2.43494e-09
2.2985e-09
3.44374e-09
3.2812e-09
2.72633e-09
3.16543e-09
3.14412e-09
3.42534e-09
2.98648e-09
3.6531e-09
3.52152e-09
3.75721e-09
3.02197e-09
3.88981e-09
3.37971e-09
3.23212e-09
3.86959e-09
3.78129e-09
4.1861e-09
4.05962e-09
4.07112e-09
3.69224e-09
3.8616e-09
3.1419e-09
2.46693e-09
2.771e-09
2.66173e-09
2.99311e-09
2.7523e-09
2.70132e-09
3.26618e-09
3.30785e-09
3.38063e-09
3.30908e-09
3.2692e-09
3.20248e-09
3.15541e-09
3.20636e-09
3.24255e-09
3.22998e-09
2.67712e-09
2.62816e-09
3.28355e-09
2.63638e-09
3.19875e-09
3.22107e-09
2.57353e-09
3.13779e-09
2.5944e-09
3.18583e-09
2.60925e-09
3.16474e-09
1.21451e-08
7.46151e-09
1.45323e-08
1.44715e-08
1.71622e-08
8.77836e-09
8.58258e-09
9.60079e-09
6.77519e-09
1.14546e-08
1.21093e-08
1.44017e-08
7.70529e-09
6.7573e-09
3.6387e-09
2.35182e-09
2.15681e-09
3.99163e-09
3.62951e-09
4.04997e-09
2.37402e-09
2.03266e-09
7.27606e-10
7.98912e-10
8.16407e-10
2.1609e-09
3.98953e-09
3.61813e-09
1.90859e-09
4.03682e-09
2.16129e-09
1.94461e-09
4.58056e-09
4.36876e-09
3.8411e-09
4.01747e-09
4.0721e-09
4.40466e-09
4.54286e-09
4.7078e-09
4.39537e-09
4.75728e-09
4.1905e-09
4.79335e-09
4.254e-09
4.67359e-09
8.09249e-10
8.79965e-10
8.80351e-10
1.90042e-09
1.55328e-09
3.36469e-09
3.22399e-09
3.57856e-09
1.87567e-09
1.73471e-09
2.11649e-09
3.88061e-09
1.90688e-09
3.3807e-09
2.15703e-09
3.7376e-09
1.84502e-09
7.31541e-09
5.17325e-09
5.91773e-09
6.19316e-09
7.34989e-09
5.89109e-09
6.18923e-09
7.39796e-09
5.38934e-09
6.0184e-09
6.2908e-09
7.35961e-09
6.01941e-09
6.27694e-09
1.09261e-08
5.00643e-09
5.04554e-09
5.93313e-09
2.59337e-09
2.1412e-09
1.97977e-09
2.09783e-09
2.45979e-09
2.58375e-09
2.3309e-09
2.74948e-09
5.16076e-09
2.60044e-09
3.96118e-09
3.79735e-09
3.38532e-09
3.18918e-09
2.31484e-09
3.45931e-09
1.98299e-09
2.62604e-09
3.02764e-09
2.35008e-09
2.03491e-09
2.45956e-09
2.09845e-09
2.57308e-09
2.15645e-09
2.06482e-09
1.84332e-09
2.72717e-09
1.75383e-09
2.41599e-09
2.75763e-09
1.86574e-09
1.49942e-09
1.51721e-09
1.47e-09
2.00599e-09
1.56345e-09
1.61375e-09
2.44071e-09
2.5949e-09
2.14433e-09
2.24043e-09
2.82315e-09
2.31387e-09
2.52757e-09
1.83098e-09
1.83611e-09
1.63742e-09
2.47542e-09
1.45246e-09
2.17369e-09
1.95049e-09
1.69977e-09
1.55023e-09
1.06999e-09
1.56771e-09
1.6024e-09
1.87998e-09
1.35332e-09
1.71968e-09
1.48057e-09
2.66978e-09
1.8789e-09
2.16422e-09
1.67738e-09
1.7794e-09
7.31158e-09
7.39773e-09
6.47435e-09
5.73463e-09
5.71705e-09
8.11619e-09
7.14197e-09
7.08482e-09
5.05832e-09
6.53178e-09
5.40909e-09
6.71518e-09
5.47398e-09
6.81333e-09
2.5773e-09
2.28648e-09
3.98659e-09
3.68807e-09
4.00383e-09
2.61814e-09
2.36781e-09
2.38127e-09
1.98734e-09
1.86079e-09
2.59594e-09
4.30104e-09
3.78114e-09
2.41064e-09
4.13075e-09
2.63302e-09
2.39786e-09
3.14044e-09
3.85607e-09
5.8636e-09
4.66926e-09
5.04528e-09
4.43435e-09
3.12475e-09
3.36966e-09
2.11172e-09
2.37182e-09
2.97704e-09
4.43056e-09
4.32878e-09
2.47915e-09
4.82294e-09
2.58208e-09
2.70952e-09
8.35463e-09
5.66561e-09
6.41083e-09
6.77137e-09
8.23243e-09
6.41435e-09
6.8461e-09
7.91205e-09
5.46648e-09
6.25808e-09
6.67864e-09
8.10744e-09
6.26097e-09
6.58094e-09
4.28205e-09
4.64553e-09
4.96403e-09
4.80147e-09
3.04889e-09
2.99584e-09
2.96911e-09
2.99413e-09
3.02411e-09
2.99253e-09
2.44437e-09
2.41245e-09
2.41905e-09
3.04984e-09
2.972e-09
3.01016e-09
2.3796e-09
2.93805e-09
2.3918e-09
2.99235e-09
2.39907e-09
2.95266e-09
8.90387e-10
9.08389e-10
2.0236e-09
1.69158e-09
1.99777e-09
8.83671e-10
9.23348e-10
1.03987e-09
1.15614e-09
8.94255e-10
1.67277e-09
1.97855e-09
9.32028e-10
2.35698e-08
7.87538e-09
9.8637e-09
6.70059e-09
1.03384e-08
5.77418e-09
7.74226e-09
9.77077e-09
6.80309e-09
8.68081e-09
1.46543e-08
1.41831e-08
1.26496e-08
8.92898e-09
2.59477e-08
1.15989e-08
4.50141e-09
2.76083e-08
6.64954e-09
1.66869e-08
4.55867e-09
5.64441e-09
1.50974e-08
4.81692e-09
8.10607e-09
3.75191e-09
5.34481e-09
3.21102e-09
7.30154e-09
3.34275e-09
1.21836e-08
1.30596e-08
1.14974e-08
1.04979e-08
1.11351e-08
1.2597e-08
1.23501e-08
1.29645e-08
1.24711e-08
1.32692e-08
1.16079e-08
1.25779e-08
1.33305e-08
1.208e-08
1.36241e-08
1.41234e-08
1.41017e-08
1.4591e-08
1.32053e-08
1.39658e-08
1.4151e-08
1.17739e-08
1.03179e-08
1.02018e-08
1.09155e-08
1.08648e-08
1.17572e-08
1.09888e-08
1.0343e-08
2.57998e-08
1.34899e-08
1.04603e-08
2.16022e-08
7.41675e-09
1.20871e-08
9.14799e-09
9.19149e-09
1.90614e-08
2.26979e-08
5.7522e-09
2.36128e-08
1.42646e-08
6.80102e-09
1.54319e-08
1.10125e-08
7.9352e-09
5.74619e-09
2.01717e-08
5.87294e-09
1.32593e-08
1.3865e-08
1.66501e-08
1.45071e-08
1.9822e-08
1.38826e-08
1.51831e-08
1.20366e-08
3.95276e-08
1.03338e-08
1.39604e-08
6.86785e-09
6.86912e-09
5.66142e-09
6.81047e-09
1.09707e-08
2.46162e-09
1.34341e-08
5.16764e-09
5.95569e-09
7.35491e-09
9.07679e-09
7.28089e-09
8.61433e-09
1.08295e-08
7.77881e-09
1.03952e-08
1.18237e-08
3.4701e-08
7.14387e-09
3.1987e-08
1.17018e-08
2.00181e-08
1.09056e-08
9.92046e-09
1.04636e-08
3.00012e-08
4.92744e-08
1.89182e-08
1.68663e-08
4.65814e-08
1.13413e-08
6.44224e-09
1.67418e-08
2.03685e-08
1.09122e-08
1.51785e-08
2.68469e-08
6.76812e-09
1.56816e-08
7.58764e-08
2.73938e-08
6.89649e-08
2.087e-08
7.32686e-08
2.30763e-08
1.55098e-08
1.70299e-08
1.70748e-08
1.69104e-08
1.63978e-08
1.60577e-08
1.64366e-08
1.30583e-08
9.88714e-09
1.32098e-08
8.96561e-09
1.26616e-08
1.22718e-08
9.53922e-09
1.52104e-08
1.62411e-08
1.53663e-08
1.59477e-08
1.57413e-08
1.64042e-08
1.47954e-08
3.24221e-08
1.05836e-08
3.90246e-09
3.96722e-08
2.0388e-08
8.48557e-08
1.0833e-07
5.68474e-08
1.61704e-08
3.17614e-08
1.70611e-08
1.84177e-08
2.53754e-08
1.43372e-08
1.63894e-08
1.3102e-08
9.95865e-09
2.7683e-08
2.52018e-08
6.77027e-09
2.98863e-08
1.54758e-08
1.01559e-08
2.5906e-08
1.9208e-08
7.38406e-09
7.14626e-09
2.89943e-08
7.87985e-09
1.64256e-08
1.69994e-08
1.56073e-08
1.59529e-08
1.75129e-08
1.65792e-08
1.59559e-08
9.26154e-09
7.50069e-09
8.12694e-09
7.85076e-09
8.9406e-09
8.19891e-09
7.96893e-09
8.78219e-09
7.01773e-09
8.02663e-09
7.79404e-09
8.98788e-09
7.98147e-09
7.7409e-09
9.5248e-09
9.48701e-09
9.33143e-09
9.17233e-09
8.766e-09
8.23918e-09
8.94799e-09
8.63916e-09
9.19936e-09
8.75672e-09
8.96235e-09
8.93211e-09
1.14812e-08
1.28643e-08
1.28991e-08
1.1374e-08
1.09519e-08
1.25406e-08
1.11233e-08
1.24956e-08
8.67771e-09
1.36781e-08
1.18224e-08
1.13224e-08
1.14106e-08
1.14871e-08
9.81228e-09
1.23193e-08
8.60859e-09
8.24931e-09
8.62649e-09
9.07135e-09
8.67885e-09
8.68625e-09
8.69814e-09
8.77679e-09
8.81239e-09
9.06956e-09
8.73097e-09
8.68958e-09
1.37756e-08
1.46597e-08
1.26248e-08
1.38671e-08
1.27879e-08
1.37586e-08
1.46422e-08
1.33403e-08
1.2685e-08
1.34505e-08
1.19787e-08
1.35998e-08
1.31886e-08
1.23154e-08
1.44444e-08
1.48873e-08
1.43606e-08
1.51443e-08
1.46038e-08
1.418e-08
1.51205e-08
1.2452e-08
1.1272e-08
1.01682e-08
1.11575e-08
1.13984e-08
1.25666e-08
1.13301e-08
1.22831e-08
1.42617e-08
1.09343e-08
1.31883e-08
1.12379e-08
1.20918e-08
1.40569e-08
1.06763e-08
9.81493e-09
1.1977e-08
8.25342e-09
1.20111e-08
1.04217e-08
8.32064e-09
1.3296e-08
1.49324e-08
1.43969e-08
1.55736e-08
1.44587e-08
1.32106e-08
1.48814e-08
9.46409e-09
8.36523e-09
6.74161e-09
7.15864e-09
8.48974e-09
9.29994e-09
7.41351e-09
1.5631e-08
1.506e-08
1.5161e-08
1.47161e-08
1.5182e-08
1.53014e-08
1.52936e-08
1.51761e-08
1.45684e-08
1.75214e-08
1.81179e-08
1.59148e-08
1.61526e-08
1.61987e-08
1.55055e-08
1.52416e-08
1.59898e-08
1.53489e-08
1.54395e-08
1.55869e-08
1.53157e-08
1.57418e-08
1.54582e-08
1.57231e-08
1.59633e-08
1.5905e-08
1.53007e-08
1.55134e-08
6.82569e-09
7.1828e-09
8.46287e-09
8.19247e-09
8.44087e-09
8.70956e-09
8.83055e-09
7.73751e-09
8.52788e-09
8.24683e-09
7.765e-09
7.2826e-09
8.09602e-09
7.42859e-09
7.97196e-09
8.19676e-09
6.81761e-09
7.72893e-09
7.76238e-09
6.88313e-09
5.63835e-09
6.48011e-09
5.70549e-09
6.45639e-09
6.65375e-09
7.46429e-09
7.59924e-09
6.66856e-09
5.6104e-09
6.59597e-09
5.71807e-09
6.42542e-09
6.91193e-09
6.6888e-09
7.86428e-09
7.16167e-09
7.50509e-09
7.71788e-09
7.12071e-09
7.8028e-09
7.72657e-09
7.90495e-09
8.02877e-09
7.41941e-09
7.54974e-09
7.28196e-09
8.05476e-09
7.96413e-09
6.95879e-09
7.25767e-09
8.02297e-09
6.47123e-09
5.63218e-09
7.16521e-09
5.92481e-09
6.91743e-09
7.11243e-09
7.61513e-09
7.16711e-09
8.03174e-09
5.91654e-09
6.65308e-09
5.63725e-09
6.83688e-09
8.43062e-10
9.8252e-10
8.89206e-10
8.23566e-10
3.58131e-10
3.6905e-10
1.23502e-09
9.88203e-10
9.91073e-10
8.84011e-10
3.64411e-10
3.41003e-10
1.06725e-09
1.23361e-09
9.5899e-10
9.92212e-10
1.27378e-09
9.23029e-10
3.93545e-09
4.14741e-09
3.60144e-09
3.31624e-09
4.18126e-09
3.31896e-09
3.90963e-09
3.7182e-09
2.92921e-09
3.52879e-09
3.0945e-09
3.55148e-09
3.10476e-09
3.69127e-09
9.52417e-10
8.88585e-10
2.26062e-09
1.95309e-09
2.29488e-09
9.35738e-10
8.95709e-10
7.41992e-10
7.95818e-10
8.76598e-10
9.59625e-10
2.38389e-09
1.98656e-09
8.92104e-10
2.3226e-09
9.84068e-10
8.9953e-10
1.25096e-09
1.31355e-09
3.15405e-09
2.5149e-09
1.4928e-09
2.85091e-09
1.06784e-09
5.33582e-10
6.80045e-10
4.93575e-10
1.10086e-09
2.46731e-09
2.29246e-09
9.02683e-10
2.65535e-09
9.99511e-10
9.45544e-10
2.02687e-09
1.96583e-09
1.92964e-09
4.50653e-10
1.02426e-09
1.09672e-09
1.91592e-09
1.80726e-09
1.86341e-09
1.23329e-09
1.54792e-09
1.36191e-09
4.80495e-10
8.97789e-10
7.47912e-10
1.63602e-09
1.69912e-09
1.51996e-09
4.86136e-09
4.77043e-09
6.02997e-09
5.51193e-09
5.82756e-09
6.13688e-09
5.48192e-09
6.15556e-09
6.01469e-09
6.04311e-09
6.2038e-09
5.57951e-09
5.84384e-09
5.49675e-09
6.10695e-09
6.14251e-09
5.60135e-09
6.29619e-09
6.34929e-09
5.54612e-09
4.73509e-09
5.2679e-09
4.73475e-09
5.26031e-09
5.59748e-09
6.3717e-09
6.35145e-09
5.59214e-09
4.72763e-09
5.18042e-09
4.67946e-09
5.21827e-09
4.91747e-09
4.97795e-09
6.22025e-09
5.72798e-09
6.0597e-09
6.36669e-09
5.6711e-09
6.3102e-09
6.28946e-09
6.20285e-09
6.27156e-09
5.66529e-09
6.05e-09
5.64222e-09
6.18267e-09
6.29972e-09
5.45312e-09
6.22958e-09
6.21474e-09
5.49037e-09
4.58383e-09
5.01213e-09
4.52759e-09
5.05746e-09
5.47979e-09
6.19593e-09
6.23755e-09
5.40551e-09
4.61782e-09
5.13875e-09
4.63688e-09
5.11739e-09
6.57251e-09
6.45293e-09
7.2092e-09
8.17292e-09
7.60286e-09
7.19088e-09
7.66464e-09
7.71718e-09
7.23968e-09
8.22649e-09
7.25447e-09
7.63454e-09
1.19012e-08
1.3657e-08
1.20029e-08
1.35449e-08
1.18654e-08
1.35002e-08
1.18323e-08
1.35121e-08
6.56046e-09
6.64697e-09
7.45486e-09
8.31346e-09
7.88932e-09
7.41941e-09
7.78931e-09
7.69406e-09
7.35736e-09
8.20337e-09
7.32736e-09
7.79052e-09
1.17172e-08
1.33798e-08
1.17154e-08
1.33628e-08
1.17542e-08
1.33903e-08
1.17596e-08
1.34231e-08
7.13378e-09
7.60937e-09
8.18742e-09
7.12366e-09
7.5624e-09
1.16564e-08
1.33316e-08
1.16805e-08
1.331e-08
5.8858e-09
5.42252e-09
6.06851e-09
5.65208e-09
5.95307e-09
5.35749e-09
6.01212e-09
4.49483e-09
4.97839e-09
4.48297e-09
4.98001e-09
5.33189e-09
6.12292e-09
5.34407e-09
6.10342e-09
4.47029e-09
4.94522e-09
2.83191e-08
7.11555e-08
2.38494e-08
1.21082e-08
3.9085e-08
8.81191e-08
5.88719e-08
1.32801e-08
1.32983e-08
1.29233e-08
1.29663e-08
1.36684e-08
1.20184e-08
1.19061e-08
1.247e-08
1.2102e-08
3.00034e-08
6.49883e-09
1.42286e-08
2.06115e-08
1.42815e-08
1.44283e-08
1.46644e-08
1.45078e-08
1.49449e-08
1.50067e-08
1.47725e-08
1.49034e-08
1.3622e-08
1.36765e-08
1.41624e-08
1.39701e-08
1.49213e-08
1.47638e-08
1.43273e-08
1.46232e-08
1.66406e-09
1.54128e-09
2.70464e-09
2.00631e-09
2.4368e-09
1.95464e-09
1.1014e-09
1.40305e-09
9.25276e-10
1.54527e-09
1.53251e-09
1.87318e-09
1.27841e-09
8.43703e-10
1.50584e-09
1.78998e-09
2.29364e-09
9.93683e-10
1.76688e-09
1.12719e-09
1.67071e-09
7.02837e-09
6.01772e-09
5.5297e-09
5.11535e-09
6.37836e-09
7.06534e-09
5.81172e-09
9.70861e-09
1.12492e-08
1.06009e-08
1.00164e-08
1.08611e-08
9.21496e-09
1.02717e-08
8.6319e-09
7.34231e-09
9.0818e-09
9.80721e-09
7.88066e-09
9.78233e-09
8.42229e-09
8.16828e-09
6.33986e-09
8.8464e-09
7.58142e-09
7.91374e-09
6.865e-09
8.76895e-09
3.1604e-09
2.09199e-09
4.29976e-09
3.66465e-09
2.82897e-09
2.61414e-09
4.17851e-09
2.5132e-09
2.5831e-09
1.55394e-09
2.84431e-09
2.05861e-09
2.24658e-09
2.90246e-09
1.83015e-09
1.20194e-09
1.05825e-09
1.29432e-09
1.53046e-09
1.7545e-09
1.57691e-09
3.93747e-09
4.98434e-09
4.09843e-09
5.79241e-09
3.37938e-09
5.19913e-09
4.52295e-09
2.34024e-09
1.84778e-09
1.70409e-09
1.90121e-09
1.81412e-09
1.45994e-09
1.50259e-09
1.65635e-09
2.14227e-09
1.73004e-09
2.08596e-09
1.70075e-09
1.63302e-09
1.96768e-09
1.65627e-09
2.27608e-09
1.48754e-09
1.76106e-09
1.58461e-09
1.5171e-09
1.64708e-09
1.92874e-09
1.60973e-09
7.29284e-09
7.05031e-09
3.10409e-09
3.1748e-09
3.66622e-09
2.33229e-09
3.22236e-09
4.19939e-09
2.97523e-09
5.14264e-09
4.80503e-09
6.08979e-09
4.26041e-09
5.32845e-09
4.34659e-09
5.17465e-09
2.7289e-09
2.87548e-09
3.60916e-09
2.74715e-09
2.48776e-09
3.71048e-09
2.00997e-09
2.39076e-09
1.82894e-09
2.15918e-09
2.36368e-09
1.86256e-09
2.31827e-09
2.12506e-09
3.37177e-09
2.58173e-09
3.32901e-09
2.33549e-09
3.21493e-09
2.65202e-09
2.37149e-09
1.89503e-09
1.96541e-09
2.31851e-09
2.79966e-09
2.0451e-09
8.84535e-09
8.19074e-09
8.54048e-09
7.66256e-09
8.08594e-09
9.09403e-09
8.24016e-09
1.04371e-08
1.14757e-08
1.1041e-08
1.03169e-08
1.11227e-08
1.06008e-08
1.01011e-08
9.60849e-09
8.13427e-09
9.03555e-09
1.01322e-08
8.5805e-09
1.01479e-08
9.39256e-09
9.31158e-09
7.92804e-09
9.30184e-09
8.02337e-09
9.22356e-09
9.34499e-09
8.33866e-09
4.6012e-09
4.09562e-09
4.80546e-09
5.76665e-09
4.96656e-09
4.21674e-09
4.33352e-09
4.5267e-09
6.64028e-09
6.1872e-09
4.81931e-09
5.66255e-09
4.56207e-09
4.93724e-09
4.59845e-09
3.80733e-09
5.86047e-09
4.32365e-09
5.45008e-09
4.46693e-09
4.00845e-09
4.29548e-09
4.41588e-09
4.03601e-09
3.88974e-09
4.31775e-09
4.12357e-09
4.26665e-09
3.4069e-09
2.82303e-09
3.16655e-09
2.72779e-09
3.37156e-09
2.92273e-09
3.3185e-09
4.71429e-09
6.46713e-09
4.47654e-09
6.22362e-09
4.86795e-09
4.19481e-09
6.76785e-09
3.26718e-09
3.12596e-09
3.00289e-09
3.58482e-09
3.06873e-09
2.70215e-09
3.62712e-09
8.36906e-09
6.00611e-09
5.78408e-09
5.73166e-09
6.45659e-09
6.78031e-09
7.45188e-09
9.50324e-09
7.62782e-09
6.09504e-09
5.91617e-09
7.6176e-09
7.84481e-09
7.39099e-09
7.53107e-09
6.9547e-09
7.04189e-09
1.04692e-08
7.35922e-09
1.64125e-08
8.73562e-09
8.61146e-09
5.77141e-09
6.8188e-09
5.99214e-09
6.22672e-09
7.11629e-09
6.97257e-09
5.53967e-09
5.10394e-09
4.12237e-09
5.25617e-09
4.58664e-09
6.61976e-09
4.58782e-09
6.93702e-09
4.75733e-09
5.26233e-09
5.40249e-09
4.29813e-09
6.92874e-09
5.55126e-09
4.73441e-09
3.87214e-09
3.90729e-09
4.76699e-09
4.33448e-09
3.7812e-09
4.53201e-09
4.19595e-09
3.78781e-09
3.58387e-09
3.59638e-09
3.94409e-09
4.15054e-09
3.17569e-09
5.90559e-09
5.33626e-09
5.50564e-09
5.32032e-09
6.55577e-09
4.75503e-09
5.14728e-09
4.18541e-10
8.89131e-10
2.07207e-10
2.5148e-09
1.96476e-09
1.43955e-09
1.62398e-09
9.07024e-10
4.52163e-10
3.75417e-09
2.34414e-09
2.68629e-09
2.28691e-09
3.66048e-09
2.0761e-09
1.46149e-09
3.73395e-09
1.84281e-09
3.64702e-09
4.49346e-09
4.801e-09
5.27348e-09
4.0801e-09
5.26424e-09
2.96428e-09
1.02169e-09
1.30941e-09
1.26863e-09
1.56892e-09
1.22555e-09
9.80199e-10
1.16116e-09
1.74209e-09
2.98521e-09
2.29371e-09
2.62371e-09
2.01791e-09
2.06794e-09
2.40706e-09
1.28121e-09
1.4049e-09
2.02976e-09
1.68245e-09
1.65349e-09
1.05142e-09
1.50617e-09
1.43173e-09
1.88734e-09
2.39669e-09
1.9058e-09
1.7233e-09
1.35068e-09
2.04316e-09
1.81887e-09
2.39181e-09
1.81074e-09
1.69253e-09
2.29337e-09
2.15727e-09
1.46606e-09
2.66673e-09
3.59791e-09
3.44889e-09
3.41808e-09
3.35102e-09
2.84972e-09
3.12495e-09
2.78399e-09
2.12885e-09
2.95315e-09
2.25458e-09
2.61442e-09
3.08728e-09
3.13266e-09
2.74062e-09
2.6412e-09
2.51507e-09
1.98657e-09
1.98324e-09
3.02148e-09
2.09391e-09
2.41582e-09
1.52756e-09
2.65161e-09
4.07859e-09
3.27946e-09
3.80013e-09
3.09309e-09
3.19527e-09
4.00902e-09
3.87837e-09
4.8062e-09
7.0872e-09
5.08442e-09
5.91415e-09
5.29094e-09
6.02227e-09
4.59748e-09
2.08095e-09
2.41277e-09
3.03235e-09
2.90284e-09
2.52482e-09
2.45226e-09
2.61112e-09
2.3052e-09
3.31076e-09
2.44629e-09
3.4871e-09
2.62848e-09
2.13117e-09
3.49e-09
1.67183e-09
2.15784e-09
2.05994e-09
1.76025e-09
2.14735e-09
1.46763e-09
2.11315e-09
2.72527e-09
3.50807e-09
3.89568e-09
3.90673e-09
3.08445e-09
3.32865e-09
3.69212e-09
4.31483e-09
3.98633e-09
3.58957e-09
3.23975e-09
4.49815e-09
4.1405e-09
3.23826e-09
5.32433e-09
5.41233e-09
6.12346e-09
5.5051e-09
6.44607e-09
5.55654e-09
5.09489e-09
8.37589e-09
6.27214e-09
7.37869e-09
7.08773e-09
8.4084e-09
7.3238e-09
6.98807e-09
8.44784e-09
6.76107e-09
7.48941e-09
7.25579e-09
8.39431e-09
7.54666e-09
7.30909e-09
5.08588e-09
5.19713e-09
6.49933e-09
6.15885e-09
6.13003e-09
6.80568e-09
6.03836e-09
6.67128e-09
6.66405e-09
6.46512e-09