/*--------------------------------*- C++ -*----------------------------------*\
| =========                 |                                                 |
| \\      /  F ield         | OpenFOAM: The Open Source CFD Toolbox           |
|  \\    /   O peration     | Version:  2012                                  |
|   \\  /    A nd           | Website:  www.openfoam.com                      |
|    \\/     M anipulation  |                                                 |
\*---------------------------------------------------------------------------*/
FoamFile
{
    version     2.0;
    format      ascii;
    class       pointVectorField;
    location    "0.107/solid";
    object      pointD;
}
// * * * * * * * * * * * * * * * * * * * * * * * * * * * * * * * * * * * * * //

dimensions      [0 1 0 0 0 0 0];


internalField   nonuniform List<vector> 
5201
(
(-2.71592e-11 -3.83268e-11 -1.69313e-11)
(4.96005e-13 -7.84789e-14 -1.23709e-13)
(-3.18943e-12 -3.21576e-13 -2.49743e-12)
(2.29724e-11 9.73869e-12 -5.17631e-12)
(-4.87823e-13 9.67489e-13 -1.81779e-11)
(2.26934e-13 2.06759e-12 -3.16592e-12)
(2.4965e-11 9.45205e-12 1.14706e-11)
(-4.04012e-12 -3.96474e-13 -1.72259e-12)
(-1.21606e-12 -6.81056e-12 -1.16491e-12)
(-3.96527e-12 -1.81011e-11 -1.80229e-11)
(6.89186e-13 -8.27995e-12 1.40591e-11)
(2.06713e-11 2.87468e-11 6.15404e-11)
(6.4597e-13 -1.86498e-12 1.58012e-12)
(-3.11881e-12 -7.38001e-13 3.81915e-12)
(1.70563e-12 -1.08599e-11 -1.43695e-11)
(-4.28574e-13 -1.06451e-12 1.81709e-12)
(-3.74646e-12 -2.33188e-12 -1.67822e-12)
(-4.1563e-12 -2.71368e-13 -1.74416e-12)
(2.36561e-11 1.0997e-11 -9.88517e-13)
(-3.16752e-11 -1.09199e-12 -1.34058e-12)
(2.38622e-10 1.09057e-09 -1.744e-11)
(2.29583e-11 9.69277e-12 -3.07126e-12)
(-9.02264e-12 2.35187e-12 5.32101e-13)
(-3.71482e-12 -1.49592e-11 -3.45595e-12)
(2.07913e-10 1.07035e-09 1.92816e-11)
(-2.9911e-11 1.8543e-12 5.14008e-13)
(1.93159e-11 3.52802e-12 -1.15036e-11)
(5.39371e-13 -1.83154e-13 2.65005e-12)
(1.40854e-10 8.38827e-10 1.13638e-10)
(2.39914e-10 1.07214e-09 -1.13915e-11)
(2.4032e-10 1.13396e-09 4.21797e-12)
(1.03568e-11 6.988e-12 -9.98406e-13)
(1.79741e-13 -5.2408e-13 2.64767e-12)
(-1.87501e-13 1.78914e-12 2.05655e-12)
(-1.14162e-11 6.37312e-12 2.81928e-13)
(4.21037e-13 -7.44803e-14 2.51182e-12)
(-1.15927e-12 1.24498e-11 1.95171e-11)
(-3.14523e-11 -1.31799e-12 -1.40963e-12)
(-3.21216e-11 -6.41477e-13 -2.33149e-12)
(6.18076e-11 1.54698e-10 1.34133e-10)
(1.32909e-10 3.83935e-10 -1.24681e-11)
(-1.08099e-11 1.01623e-11 -5.37587e-11)
(1.32044e-10 4.04792e-10 -1.10361e-11)
(4.21042e-11 8.34689e-12 1.73367e-10)
(3.66887e-11 1.15017e-10 3.07761e-10)
(1.62117e-10 3.98429e-10 5.29191e-11)
(1.66971e-11 2.03467e-11 3.10399e-10)
(1.27355e-10 3.78064e-10 -1.06357e-11)
(-3.42254e-12 2.1622e-12 8.50751e-11)
(1.5649e-11 2.13431e-11 1.57e-10)
(1.23479e-11 8.78716e-11 1.42889e-10)
(8.24324e-13 2.8087e-11 7.59198e-11)
(7.83728e-11 1.69845e-11 6.73244e-11)
(1.47904e-10 4.06837e-10 4.85629e-12)
(-1.7567e-11 -3.74191e-11 -2.27647e-11)
(1.70545e-12 -1.02826e-12 1.28649e-11)
(7.40542e-12 2.11037e-11 5.79993e-11)
(1.75754e-12 -1.29193e-12 4.13058e-12)
(-2.6495e-13 3.74758e-12 1.75037e-12)
(-1.42809e-12 -2.09579e-12 2.42267e-13)
(-9.83515e-13 -8.43156e-13 -3.3869e-12)
(-4.60617e-12 -3.69487e-13 5.89456e-13)
(-3.86661e-12 -7.51915e-13 -1.18032e-12)
(-4.12444e-12 -2.01695e-13 -1.73626e-12)
(2.41108e-11 1.0885e-11 -4.41134e-12)
(-4.01423e-11 3.96382e-12 -4.82158e-12)
(2.00126e-10 5.26603e-10 -1.42139e-11)
(2.25191e-11 9.40231e-12 -4.02482e-12)
(9.83187e-13 -3.25969e-12 -1.5288e-11)
(-2.85007e-13 -3.75736e-13 -7.72677e-12)
(-6.7632e-12 1.17696e-11 1.60117e-12)
(5.93797e-13 -1.55971e-11 3.19217e-11)
(8.15823e-13 -3.40548e-11 1.555e-11)
(-6.497e-12 7.0888e-12 -1.35831e-11)
(1.82477e-11 3.02256e-12 2.35564e-10)
(2.02519e-12 -1.00245e-11 -2.81742e-12)
(2.78596e-11 1.24202e-11 3.20009e-11)
(2.22404e-11 9.35446e-12 4.00713e-12)
(1.86824e-10 5.26853e-10 3.29588e-11)
(-3.17934e-11 6.47856e-12 5.51435e-12)
(9.90439e-13 -6.46358e-14 6.93152e-13)
(-3.81011e-12 -1.08055e-12 -1.87033e-12)
(-4.11251e-12 -3.35918e-13 -1.73756e-12)
(-5.01262e-12 -1.8215e-13 8.97272e-13)
(2.30186e-11 9.61564e-12 -2.91454e-12)
(1.50836e-11 6.8922e-12 9.51032e-11)
(-7.84943e-12 -1.0283e-11 -9.75526e-13)
(-5.20341e-12 -1.22967e-11 -1.75526e-12)
(-3.49895e-12 -2.91566e-12 3.49517e-12)
(7.18907e-13 -5.06283e-12 1.97777e-13)
(-1.45026e-13 8.58985e-15 1.40621e-13)
(3.27369e-10 6.98474e-10 6.54407e-11)
(1.31684e-10 1.48691e-10 6.98327e-11)
(2.85157e-10 2.89158e-10 5.31667e-11)
(3.09228e-10 7.43671e-10 -1.06325e-11)
(2.02661e-10 2.18958e-10 -9.07152e-12)
(-5.33293e-13 1.80426e-11 2.94005e-11)
(3.2446e-10 8.0781e-10 -1.36486e-12)
(2.17476e-10 2.38053e-10 -6.00795e-12)
(-4.63933e-12 -4.34154e-13 1.19527e-11)
(9.94427e-12 1.95568e-11 2.82389e-11)
(6.78635e-11 2.40691e-10 2.37639e-10)
(-4.78389e-12 -9.10408e-12 6.92855e-12)
(1.41323e-10 3.95936e-10 1.09277e-10)
(1.17569e-11 2.98796e-11 5.40781e-11)
(-8.86347e-12 4.1471e-12 -4.535e-13)
(-8.1824e-13 2.21058e-12 -3.22844e-11)
(8.06688e-12 3.24729e-11 -2.25421e-11)
(-3.28342e-12 2.09127e-12 2.99552e-13)
(-4.37349e-12 -1.54083e-12 -3.32811e-13)
(-3.56378e-13 1.06817e-14 1.84246e-12)
(1.37023e-12 -1.14497e-12 3.90884e-12)
(-4.67697e-12 -1.13733e-12 8.73129e-13)
(-4.9031e-12 -1.12251e-13 8.59559e-13)
(1.97959e-10 5.43871e-10 -2.45433e-12)
(-4.01972e-11 5.80135e-12 -2.70399e-12)
(2.10484e-10 2.28934e-10 -8.01638e-12)
(-3.14632e-11 -1.06286e-12 -1.53774e-12)
(-3.1953e-11 -1.27559e-12 -1.63405e-12)
(3.16107e-10 7.59816e-10 -1.27229e-11)
(2.38227e-10 1.07037e-09 -1.217e-11)
(2.42957e-10 1.13047e-09 -1.42336e-11)
(1.99592e-10 5.14456e-10 -1.19837e-11)
(-3.99592e-11 3.68898e-12 -3.12617e-12)
(8.28064e-12 8.37033e-12 2.7529e-10)
(7.9864e-12 8.59681e-12 5.33681e-12)
(-1.489e-11 4.69849e-12 1.39945e-12)
(6.63483e-12 3.28484e-11 1.72187e-10)
(4.49295e-12 5.0812e-12 6.96973e-12)
(-2.24153e-12 -5.21993e-12 1.01352e-12)
(1.85538e-10 1.03598e-09 5.25936e-11)
(3.32018e-10 7.75599e-10 1.28933e-11)
(2.25897e-10 1.08695e-09 1.60824e-11)
(2.51674e-10 2.60608e-10 1.40596e-11)
(-2.78069e-11 3.69275e-12 4.17046e-12)
(-3.13191e-11 7.118e-13 -1.68245e-12)
(3.397e-11 -4.31188e-12 -1.95245e-11)
(-9.38609e-12 3.1804e-12 1.86363e-12)
(2.1999e-12 9.62008e-14 -3.52874e-14)
(-7.93581e-14 2.74435e-14 -2.68913e-13)
(8.01142e-13 -5.26046e-13 3.0227e-12)
(4.56398e-13 -8.94201e-14 2.58133e-12)
(-2.51119e-13 2.28362e-15 1.65923e-13)
(-3.11165e-11 -1.54382e-12 -1.12609e-12)
(7.51255e-11 1.56031e-10 1.32981e-10)
(7.81196e-11 1.26174e-10 1.33889e-10)
(1.32996e-10 2.42927e-10 1.59525e-10)
(1.65408e-10 3.53122e-10 9.89752e-11)
(1.33188e-10 3.9198e-10 -1.28891e-11)
(1.99253e-10 5.17137e-10 -1.3273e-11)
(2.09406e-10 2.24834e-10 -9.51482e-12)
(3.1355e-10 7.4309e-10 -1.05868e-11)
(1.29966e-10 3.81202e-10 -1.14455e-11)
(2.01175e-10 5.40585e-10 -1.13143e-11)
(-6.38032e-12 7.4277e-12 -1.56776e-11)
(-7.97536e-13 2.66741e-11 -1.50615e-11)
(1.37122e-10 4.1075e-10 -5.50983e-12)
(2.07239e-10 2.2977e-10 -6.62248e-12)
(3.18202e-10 7.96807e-10 -1.13245e-11)
(2.76282e-11 1.9439e-11 3.32061e-10)
(2.82035e-12 -3.45713e-12 2.04355e-10)
(2.62305e-11 4.31863e-11 3.48409e-10)
(2.79124e-11 -9.89604e-11 3.1385e-10)
(2.08188e-11 4.85961e-11 2.01673e-10)
(3.28311e-10 7.74325e-10 2.67543e-11)
(2.59499e-10 2.69643e-10 2.7979e-11)
(1.76116e-10 4.9938e-10 7.19721e-11)
(1.55474e-10 4.05558e-10 2.15563e-11)
(9.69087e-12 1.32744e-11 1.99618e-10)
(6.5195e-12 1.61396e-11 1.38279e-10)
(1.97699e-10 2.15042e-10 -7.85371e-12)
(1.99279e-10 5.11397e-10 -1.14391e-11)
(2.28124e-11 4.55898e-11 1.88612e-10)
(1.91218e-10 5.34069e-10 1.13597e-11)
(1.89558e-12 1.04805e-11 1.62721e-10)
(4.47848e-11 4.5065e-11 6.8365e-11)
(5.21053e-11 1.88439e-11 9.95659e-11)
(3.19229e-12 6.34187e-11 1.0859e-10)
(2.3437e-11 3.68424e-12 6.92643e-11)
(3.33532e-10 7.81203e-10 6.953e-12)
(2.39577e-10 2.5273e-10 1.01144e-12)
(-3.5118e-12 1.82227e-12 1.07678e-11)
(-4.83246e-12 -3.81638e-13 9.88309e-13)
(-5.24502e-12 -8.32097e-13 3.06031e-13)
(-1.38552e-13 4.34727e-13 -1.01682e-12)
(2.31939e-11 3.83268e-12 1.4325e-11)
(-6.03692e-12 -9.55314e-12 2.68619e-12)
(7.9677e-12 1.04628e-11 3.5562e-12)
(-5.10625e-12 -5.87053e-13 8.69072e-13)
(-1.08329e-14 2.6129e-14 6.39003e-14)
(-2.29026e-13 -1.74996e-14 -3.64103e-13)
(3.89258e-12 -7.84552e-14 1.49795e-12)
(-1.53191e-12 -4.97315e-12 2.52769e-13)
(-1.58404e-12 -9.4075e-13 6.23011e-13)
(-1.06552e-12 -5.82767e-12 4.23188e-12)
(-1.3291e-11 8.00631e-12 1.27156e-15)
(-9.47864e-12 -2.93752e-12 2.10705e-12)
(-1.77667e-13 5.229e-15 1.80621e-13)
(-4.95643e-12 -1.39324e-13 8.69937e-13)
(1.20966e-11 2.03334e-11 5.62256e-11)
(-3.96171e-11 3.53829e-12 -3.81187e-12)
(-4.13348e-11 5.08547e-12 -4.70755e-12)
(6.52992e-12 -9.73824e-12 1.00448e-11)
(-2.50473e-11 9.69212e-12 2.39373e-11)
(-4.00347e-11 3.55881e-12 -2.93816e-12)
(1.74292e-12 -6.06356e-12 9.05398e-12)
(-3.61341e-11 5.46511e-12 7.70877e-13)
(1.6147e-11 -1.27423e-12 7.6015e-11)
(8.45519e-12 1.893e-12 8.11733e-11)
(-5.93583e-12 -6.4609e-13 -1.30718e-11)
(2.06158e-11 -7.99598e-13 9.97573e-11)
(8.06072e-12 -1.53403e-12 7.57567e-11)
(6.16546e-12 2.40961e-11 6.69273e-11)
(1.40304e-11 1.01165e-10 1.20298e-10)
(-7.78402e-12 -1.98319e-11 8.14176e-11)
(9.38147e-12 -8.95282e-13 5.43808e-11)
(2.34393e-11 1.05211e-10 1.13809e-10)
(-1.80537e-11 1.67087e-11 4.82286e-11)
(6.32738e-12 -6.72182e-12 6.55832e-11)
(2.79962e-12 -7.06803e-12 4.22683e-11)
(2.64023e-11 -2.6289e-12 4.78942e-11)
(3.71414e-12 -1.25245e-12 5.77638e-11)
(3.39442e-12 -8.10474e-13 5.67438e-11)
(8.78064e-12 -4.75739e-13 5.21314e-11)
(2.69541e-10 4.0049e-10 1.20264e-10)
(4.06714e-11 7.97095e-11 5.64732e-11)
(1.47444e-11 -1.26615e-12 7.18167e-11)
(2.38578e-10 4.29164e-10 -1.1843e-11)
(2.43657e-10 4.36441e-10 -1.17364e-11)
(1.28757e-11 9.27805e-12 8.0256e-11)
(-8.58913e-12 4.73229e-12 -2.66613e-11)
(-1.45269e-11 2.75778e-11 -9.90696e-12)
(-1.42372e-11 1.81913e-11 -1.23765e-11)
(2.46263e-11 5.24474e-12 1.15008e-10)
(2.40435e-10 4.60704e-10 -8.16902e-12)
(2.40562e-10 4.48142e-10 -1.03409e-11)
(7.98795e-12 -2.46424e-12 7.6146e-11)
(2.77406e-12 -4.79263e-13 5.40125e-11)
(7.91561e-12 -2.42615e-13 4.87876e-11)
(-6.84285e-12 2.73716e-11 4.21311e-11)
(7.07363e-12 2.55822e-11 1.37685e-10)
(6.33395e-11 5.55111e-11 4.20977e-11)
(8.74557e-11 8.03102e-11 4.46274e-11)
(1.99524e-11 1.31398e-10 2.8762e-11)
(1.54543e-11 1.35362e-11 1.49631e-10)
(2.3121e-10 6.17579e-10 -7.02905e-12)
(5.53675e-11 1.05734e-10 5.06447e-11)
(2.94041e-10 4.82369e-10 4.76582e-11)
(2.80707e-10 4.81846e-10 2.40708e-11)
(4.31383e-10 1.1048e-09 5.52955e-12)
(3.75146e-10 1.01964e-09 -1.66639e-11)
(-5.02002e-12 4.56042e-13 1.49907e-10)
(-3.79609e-12 -1.38e-11 1.25038e-10)
(3.52853e-11 3.80679e-11 1.54325e-10)
(1.4799e-10 7.35954e-11 1.20462e-11)
(1.4856e-10 7.49893e-11 2.39456e-11)
(1.14067e-11 -1.62019e-12 6.13729e-11)
(1.22506e-10 6.55057e-11 -4.50432e-12)
(1.19197e-10 6.37258e-11 -4.31569e-12)
(4.70074e-10 1.10654e-09 -4.03809e-12)
(4.70225e-10 1.10486e-09 -1.00469e-11)
(2.31826e-10 4.24155e-10 -1.10465e-11)
(4.70395e-10 1.10842e-09 -9.30211e-12)
(1.15468e-10 6.21963e-11 -3.79983e-12)
(4.38809e-11 1.40526e-10 3.31533e-11)
(1.43789e-11 4.23963e-12 1.31037e-10)
(-1.99667e-11 9.82443e-12 1.11958e-12)
(-2.61364e-11 1.94091e-11 9.3511e-11)
(-2.96807e-11 1.96291e-11 2.87328e-11)
(7.27205e-12 3.90371e-11 -1.01362e-11)
(8.24732e-11 4.18527e-11 1.52226e-12)
(-4.00651e-12 2.97696e-11 1.33201e-11)
(-1.63108e-11 1.46436e-12 1.09909e-10)
(2.87994e-11 1.88733e-11 5.23282e-11)
(-1.68391e-11 1.72562e-11 5.01615e-11)
(2.45343e-12 6.45493e-11 1.05255e-10)
(8.04787e-12 2.29126e-11 4.28137e-11)
(-5.51321e-12 1.13458e-12 5.17795e-11)
(1.46966e-11 1.36368e-12 1.99014e-11)
(4.22112e-12 4.19565e-11 1.98286e-11)
(8.39978e-11 6.73665e-12 3.46468e-11)
(3.47335e-11 8.2231e-12 2.71235e-11)
(9.39062e-11 4.58388e-12 2.31685e-11)
(2.5921e-10 4.69782e-10 -2.44351e-12)
(2.76808e-10 4.75185e-10 9.4282e-12)
(1.23102e-10 6.61786e-11 -4.04122e-12)
(1.26627e-10 6.69569e-11 -2.53968e-12)
(4.7817e-10 1.15183e-09 2.02717e-12)
(4.86071e-10 1.19919e-09 -3.27896e-12)
(4.50266e-10 1.10346e-09 2.60906e-12)
(4.73359e-10 1.16162e-09 -9.06357e-12)
(1.48865e-10 7.36398e-11 4.93399e-12)
(1.36476e-10 7.0546e-11 1.75455e-13)
(4.677e-12 -2.80571e-12 6.13029e-11)
(3.03376e-12 -6.3157e-13 5.51735e-11)
(8.299e-12 -3.39227e-13 5.02389e-11)
(5.6395e-13 -2.56385e-14 1.76282e-12)
(-2.5263e-12 1.2243e-13 -7.33293e-13)
(3.59554e-13 -2.65481e-13 4.56374e-14)
(-2.41123e-12 -8.36311e-13 -1.45679e-11)
(-1.90956e-12 -7.02002e-13 -3.09301e-12)
(-9.0311e-12 -9.9113e-13 2.17628e-12)
(-2.74508e-12 -1.07477e-12 1.31627e-12)
(-3.74876e-12 -2.48936e-13 -1.55134e-12)
(1.95882e-11 -2.70332e-13 6.98189e-11)
(6.71122e-14 -1.65802e-13 -1.5972e-11)
(-4.36226e-13 5.21061e-13 -1.41342e-11)
(-4.19049e-12 1.08618e-11 5.46114e-12)
(-1.54573e-12 4.4457e-12 1.65476e-12)
(9.37332e-13 -1.2719e-11 1.92273e-11)
(1.19851e-11 1.28919e-11 1.16873e-10)
(3.8567e-12 -2.50391e-12 -3.71091e-12)
(-3.94966e-12 -5.66935e-13 -1.77181e-12)
(-4.09609e-12 -3.54256e-13 -1.76e-12)
(1.15342e-11 -6.51462e-13 4.74792e-11)
(-8.30923e-12 -7.04899e-13 1.73812e-12)
(-2.68629e-12 -2.37182e-13 7.29396e-13)
(7.12343e-12 -9.05361e-12 4.89949e-11)
(-4.54912e-12 -1.01426e-11 -2.1956e-12)
(-4.17102e-12 -9.58081e-12 -1.88803e-12)
(1.79772e-13 -4.57588e-12 1.20231e-12)
(6.35162e-13 -5.22442e-12 1.09304e-12)
(4.23396e-10 6.23921e-10 3.79693e-11)
(3.93581e-10 3.85366e-10 4.85968e-11)
(3.8151e-10 5.374e-10 -9.48649e-12)
(2.93935e-10 2.84951e-10 -8.71736e-12)
(4.03574e-10 5.91091e-10 -1.76525e-12)
(3.11071e-10 3.11905e-10 -1.82431e-12)
(-2.08435e-13 -6.15373e-12 -1.45903e-11)
(-4.00586e-12 -1.04138e-13 8.39172e-12)
(1.14725e-11 1.14375e-11 6.04761e-12)
(6.85792e-13 -5.58696e-11 2.4447e-11)
(3.43609e-11 4.63704e-11 1.8163e-10)
(-6.19336e-12 -1.12119e-11 9.79077e-12)
(8.11579e-12 -9.50881e-12 1.096e-11)
(3.51349e-12 -3.67751e-12 3.03149e-12)
(-3.30492e-13 -1.33532e-12 -2.1151e-12)
(-5.89781e-12 1.62565e-12 -2.90773e-12)
(-4.7215e-12 1.29066e-12 -1.16134e-11)
(3.20904e-12 1.548e-12 4.85378e-12)
(-7.22822e-12 3.35074e-11 -9.14594e-12)
(-1.86253e-12 7.25204e-13 7.30289e-13)
(1.36949e-14 -7.2766e-12 -2.29031e-12)
(-4.798e-12 7.93439e-13 -3.3126e-13)
(2.29613e-11 3.91978e-11 8.487e-11)
(5.2442e-12 -1.43395e-11 -2.46937e-11)
(-2.42835e-12 -2.61792e-12 1.07133e-12)
(-6.9762e-12 -1.18552e-12 -2.59443e-12)
(-1.18239e-12 -4.27026e-13 -1.012e-12)
(-2.4147e-13 -4.06223e-13 2.16796e-12)
(1.84474e-13 -1.63983e-12 2.66602e-12)
(-3.90483e-12 -1.68451e-12 -1.13671e-12)
(-3.67958e-12 -1.92303e-12 -1.97157e-12)
(1.5313e-11 -7.72678e-13 6.27155e-11)
(-2.53219e-12 -1.23331e-12 7.69256e-13)
(-7.85009e-12 -4.02279e-12 1.66508e-12)
(-4.14755e-12 -2.29985e-13 -1.77562e-12)
(-4.14394e-12 -3.17374e-13 -1.77031e-12)
(1.06612e-11 -2.69354e-13 4.36386e-11)
(-8.40536e-12 -4.95073e-13 1.80042e-12)
(-2.65796e-12 -1.47393e-13 7.0273e-13)
(-2.25205e-12 3.46308e-12 -2.27236e-13)
(7.59391e-11 1.25118e-10 -5.5696e-12)
(-3.53159e-11 4.79608e-12 -1.27853e-12)
(-3.52042e-11 4.72793e-12 -1.25992e-12)
(2.82302e-10 1.30404e-09 -7.21489e-12)
(2.59773e-10 9.52781e-10 -1.60151e-11)
(2.37799e-10 1.07626e-09 -1.48693e-11)
(2.40657e-10 1.11059e-09 -1.77204e-11)
(-8.43267e-12 8.07436e-12 4.75827e-13)
(-8.97286e-12 -4.99369e-12 2.03686e-13)
(-1.4062e-11 1.06824e-11 1.34199e-10)
(-2.56442e-12 3.64528e-12 1.32674e-12)
(-1.24928e-11 3.51048e-12 1.54327e-12)
(-7.28217e-13 -1.38545e-11 -4.28188e-12)
(-5.74962e-12 -1.44212e-11 -3.97543e-12)
(-7.21243e-13 -7.31178e-12 9.00919e-11)
(-2.01931e-12 -1.13407e-11 3.31818e-12)
(-5.04784e-12 -8.34649e-12 -4.44127e-13)
(2.51693e-10 1.26724e-09 1.05062e-11)
(1.98054e-10 1.06519e-09 3.2014e-11)
(2.55881e-10 9.39654e-10 1.55392e-11)
(2.17057e-10 1.07156e-09 1.62083e-11)
(-1.33801e-12 4.14751e-12 2.55715e-13)
(1.00351e-10 1.42008e-10 8.14413e-12)
(-3.55363e-11 7.38273e-12 1.72203e-12)
(-3.59188e-11 6.8704e-12 -4.55116e-13)
(-1.51806e-12 -7.92824e-13 1.82685e-12)
(1.14761e-10 2.61305e-11 2.4238e-11)
(2.80413e-11 -3.25254e-12 -1.72468e-11)
(1.68822e-12 2.97643e-12 1.48575e-12)
(3.32675e-13 -1.16228e-11 7.45611e-13)
(-7.03043e-12 -1.82932e-13 -3.06996e-12)
(-1.17981e-12 -6.82175e-14 -9.13648e-13)
(7.12995e-13 -2.99827e-13 2.81763e-12)
(5.27916e-13 -1.23914e-13 2.62246e-12)
(2.34661e-10 7.68552e-10 9.19735e-11)
(1.05273e-10 5.09844e-10 1.57764e-10)
(1.66255e-10 9.78529e-10 2.86035e-11)
(1.67667e-10 9.56739e-10 9.13182e-11)
(4.189e-10 6.05502e-10 1.43699e-11)
(3.53332e-10 3.43806e-10 1.70495e-11)
(3.05962e-10 2.99266e-10 -8.49212e-12)
(3.92425e-10 5.56653e-10 -8.25607e-12)
(2.57352e-10 9.36367e-10 -1.09159e-11)
(2.52423e-10 1.09084e-09 -1.14448e-11)
(2.39213e-10 1.07073e-09 -1.09489e-11)
(2.83076e-10 1.28577e-09 -9.94295e-12)
(2.40054e-10 1.07167e-09 -1.26343e-11)
(2.65431e-10 1.00144e-09 1.92189e-12)
(2.43352e-10 1.1408e-09 -6.06883e-12)
(2.34083e-10 1.11254e-09 1.26604e-11)
(2.82236e-10 1.36277e-09 -3.23528e-13)
(7.06422e-11 8.51348e-11 3.19744e-11)
(-3.97502e-13 -2.18223e-12 2.76892e-12)
(3.94461e-13 -2.4192e-12 3.09069e-12)
(1.58142e-11 1.23692e-11 3.02142e-12)
(1.37314e-11 1.37737e-11 2.75311e-12)
(-2.51927e-13 -6.63187e-15 1.93406e-12)
(-6.49337e-12 -1.68354e-12 -2.48685e-12)
(-1.29806e-12 -1.89473e-13 -9.15395e-13)
(7.25763e-13 -7.05848e-13 3.1399e-12)
(-4.38547e-12 -1.83522e-12 -3.03212e-12)
(1.63953e-12 -5.18044e-13 4.22666e-12)
(-6.12669e-13 -6.68687e-12 3.19915e-13)
(-9.16584e-13 5.61812e-13 -9.26707e-13)
(4.13151e-11 -1.12655e-11 -1.60465e-11)
(-2.11876e-11 2.39819e-11 1.68787e-11)
(-1.02367e-11 5.79746e-12 -5.36499e-13)
(-7.9901e-12 4.814e-12 -7.37201e-13)
(-1.38115e-11 5.38566e-12 2.91603e-13)
(-1.37899e-11 5.3756e-12 3.52295e-12)
(-6.92293e-12 -1.21834e-13 -2.92237e-12)
(4.68923e-13 -6.12226e-14 2.53429e-12)
(4.84889e-13 -8.25037e-14 2.56718e-12)
(-1.15262e-12 -2.85011e-14 -8.88662e-13)
(1.31558e-10 1.59118e-10 3.87189e-11)
(1.82969e-12 2.09194e-11 2.69602e-11)
(3.7902e-12 4.89217e-12 2.62393e-12)
(-3.35383e-11 8.40798e-12 9.60961e-12)
(7.19219e-11 1.19866e-10 -6.20398e-12)
(-3.50295e-11 4.57623e-12 -1.4619e-12)
(-2.53281e-12 3.27385e-12 -1.99824e-13)
(-3.44933e-11 4.25746e-12 -1.17963e-12)
(8.04087e-11 1.29651e-10 -5.35514e-12)
(-3.5294e-11 4.86726e-12 -1.84869e-12)
(-3.63142e-11 5.80017e-12 -2.07438e-12)
(-1.61764e-12 3.69522e-12 -2.80657e-13)
(8.05633e-11 1.41958e-10 1.33986e-10)
(1.14465e-10 2.29213e-10 1.50908e-10)
(1.24228e-10 2.71972e-10 1.30963e-10)
(1.6059e-11 6.90642e-11 8.00349e-11)
(1.15337e-11 -7.75434e-13 5.33758e-11)
(1.32214e-10 3.9056e-10 -1.30179e-11)
(1.53011e-10 2.97375e-10 -1.16764e-11)
(2.08645e-10 5.75493e-10 -1.32737e-11)
(1.30316e-10 3.85926e-10 -1.21198e-11)
(-8.45719e-12 9.06296e-12 -4.67777e-11)
(-6.83073e-12 1.67343e-11 -1.82429e-11)
(-9.52335e-12 1.5014e-11 -2.61185e-11)
(1.76827e-11 1.2742e-11 -5.61123e-11)
(1.47348e-11 2.45732e-13 5.73194e-11)
(1.31011e-10 4.02135e-10 -1.25079e-11)
(1.3209e-10 4.13457e-10 -8.98635e-12)
(1.50695e-10 3.11008e-10 -9.125e-12)
(2.07625e-10 6.1028e-10 -1.30962e-11)
(3.65071e-12 -1.31074e-13 2.77574e-11)
(2.91098e-10 1.04519e-10 2.37328e-11)
(3.95327e-11 2.06129e-11 2.73711e-10)
(5.47574e-12 -3.71834e-12 2.32199e-10)
(3.38852e-11 3.65702e-11 7.11776e-11)
(1.99573e-11 -2.51708e-12 6.24031e-11)
(9.4584e-11 2.53998e-10 3.48774e-11)
(2.70941e-11 7.08778e-11 3.3725e-10)
(5.29986e-11 6.73544e-11 2.48479e-10)
(3.00645e-11 4.83245e-11 3.09529e-10)
(2.76639e-11 8.9104e-11 1.31656e-10)
(1.67036e-10 3.83591e-10 7.68198e-11)
(2.3585e-10 5.99395e-10 4.62753e-11)
(1.9592e-10 3.33825e-10 3.80505e-11)
(1.58031e-10 4.07981e-10 3.44456e-11)
(4.68403e-10 9.03928e-10 6.14293e-12)
(2.25089e-11 2.05927e-11 3.38648e-10)
(2.18222e-11 2.92675e-11 3.40587e-10)
(1.27431e-11 1.50163e-11 2.55286e-10)
(1.18176e-11 1.91209e-11 2.0807e-10)
(-1.90974e-12 -7.33855e-12 1.50149e-10)
(3.76615e-10 1.64403e-10 3.00092e-11)
(5.6586e-12 -8.82925e-13 3.41028e-11)
(3.14223e-10 1.36826e-10 -6.02098e-12)
(5.07136e-10 8.74e-10 -8.14788e-12)
(1.27205e-10 3.83544e-10 -1.11772e-11)
(1.4442e-10 2.89359e-10 -9.68185e-12)
(5.33932e-12 7.40257e-11 2.59862e-10)
(-4.97302e-12 5.32075e-12 2.78499e-11)
(-5.36665e-13 -1.07283e-12 1.47186e-10)
(-1.57637e-12 6.38042e-12 1.23661e-10)
(-2.90188e-11 1.81613e-11 4.24785e-11)
(-3.81194e-12 -3.00629e-12 5.11177e-11)
(1.44774e-11 3.75267e-11 -1.17685e-11)
(5.79466e-11 4.65633e-11 2.63851e-11)
(1.04954e-11 1.47555e-11 1.78315e-10)
(7.22771e-12 1.61179e-11 1.67607e-10)
(2.46315e-11 2.73449e-11 8.70255e-11)
(3.33e-11 1.99814e-11 1.26916e-10)
(-6.43901e-12 4.59927e-12 7.71006e-11)
(1.59874e-11 1.52223e-10 8.92129e-11)
(2.0075e-11 8.39588e-11 1.58902e-10)
(7.01763e-12 7.54601e-11 1.25256e-10)
(-7.79762e-13 2.24611e-11 8.42204e-11)
(2.46194e-12 1.73862e-11 9.88126e-11)
(5.71333e-13 4.81571e-11 8.84915e-11)
(1.60831e-11 5.55119e-11 2.47262e-11)
(8.09873e-12 1.21625e-11 5.72529e-11)
(-2.61037e-12 2.55417e-12 3.90124e-11)
(6.64118e-11 1.6681e-11 9.1172e-11)
(4.47168e-11 8.76586e-12 6.40649e-11)
(1.30406e-10 2.07007e-11 3.77361e-11)
(8.08622e-11 1.71065e-11 3.82981e-11)
(5.20477e-11 3.27518e-12 4.21413e-11)
(1.41234e-10 4.13012e-10 -1.08787e-12)
(1.51329e-10 4.08692e-10 1.22017e-11)
(2.2719e-10 6.08468e-10 6.6269e-12)
(1.75808e-10 3.25223e-10 5.99317e-13)
(3.14305e-10 1.40193e-10 -4.77441e-12)
(5.27742e-10 9.42583e-10 4.67699e-13)
(5.08638e-10 9.13704e-10 -1.9893e-12)
(3.5573e-10 1.56024e-10 8.54086e-12)
(4.33841e-12 -2.48359e-13 3.01085e-11)
(4.317e-13 -8.58261e-13 -7.70056e-13)
(-1.30276e-12 -7.96782e-13 -5.94689e-12)
(1.27559e-12 -2.89557e-12 -2.39703e-13)
(2.20943e-11 3.789e-12 7.23804e-11)
(-7.99921e-12 -1.49571e-13 1.05169e-12)
(-2.47617e-12 -1.18212e-12 2.1182e-12)
(1.22449e-11 -2.22775e-13 5.18161e-11)
(-4.80658e-12 -1.98304e-13 1.00883e-12)
(-4.79081e-12 -6.92882e-13 3.50465e-13)
(1.79902e-11 -1.27402e-12 7.53531e-11)
(-2.49507e-12 -4.61869e-13 4.85255e-13)
(-7.30329e-12 -1.37365e-12 1.73457e-12)
(1.02921e-11 -1.99489e-13 4.24149e-11)
(-8.38334e-12 -3.76549e-13 1.78408e-12)
(-2.65614e-12 -1.09969e-13 7.06029e-13)
(3.07808e-12 7.83242e-12 3.15888e-12)
(1.27353e-12 2.80911e-12 -6.26281e-13)
(-9.866e-12 5.95321e-12 1.5148e-12)
(-3.58881e-12 2.01804e-12 -4.18541e-13)
(-1.29096e-11 2.31836e-11 9.96928e-11)
(2.95432e-12 1.29489e-11 3.78419e-12)
(-1.18723e-11 9.9808e-12 3.1486e-13)
(2.13805e-13 -1.36324e-11 1.42436e-10)
(-2.38459e-13 -1.65105e-11 3.41872e-11)
(1.41251e-12 -1.16021e-11 2.21787e-11)
(2.33625e-11 2.95365e-10 -2.08227e-11)
(2.22427e-11 -1.87628e-11 1.3021e-11)
(-1.91366e-11 -2.06105e-11 1.38683e-11)
(1.08213e-11 2.32869e-11 1.0938e-10)
(4.04951e-13 1.34998e-11 -1.36735e-11)
(-6.28034e-12 -4.35034e-13 -8.44356e-12)
(2.55494e-11 1.84722e-10 2.51537e-10)
(3.16433e-11 3.5198e-11 2.13921e-10)
(4.80934e-12 3.22602e-11 2.25045e-10)
(1.44471e-11 1.99062e-11 1.0064e-10)
(1.67668e-11 -7.26042e-12 7.86093e-12)
(3.55919e-14 -8.22748e-15 -1.06652e-13)
(2.4411e-12 4.92241e-14 1.01326e-12)
(1.21969e-11 -1.13672e-12 5.01021e-11)
(-2.68556e-12 -6.87552e-13 7.54451e-13)
(-8.2578e-12 -1.8939e-12 1.19593e-12)
(1.10675e-11 -3.92566e-13 4.55163e-11)
(-8.35909e-12 -6.12581e-13 1.80206e-12)
(-2.68415e-12 -1.87077e-13 7.14159e-13)
(4.82739e-12 -4.1544e-13 3.17722e-11)
(-5.08737e-12 -2.65802e-13 9.01377e-13)
(-5.00233e-12 -1.62709e-13 8.71677e-13)
(1.18612e-11 1.07512e-11 1.33764e-10)
(9.25745e-12 8.34466e-12 1.03413e-10)
(2.68481e-11 1.00199e-11 1.04729e-10)
(1.92214e-11 5.50746e-12 8.64313e-11)
(-9.3321e-12 -1.38297e-11 9.91772e-11)
(-8.73791e-12 -1.14494e-11 8.72077e-13)
(-6.64856e-12 -7.24939e-12 8.81263e-13)
(-5.43999e-12 -1.4453e-11 6.75318e-11)
(-7.82096e-12 -1.48508e-11 -6.54527e-13)
(-3.42247e-12 -7.6876e-12 3.75564e-13)
(2.76818e-11 4.93424e-12 5.35788e-11)
(-2.11933e-12 -3.52612e-12 5.57173e-12)
(-5.31427e-12 -3.71515e-12 2.59353e-12)
(1.85684e-11 -6.92672e-12 3.7141e-11)
(-6.14345e-13 -3.65881e-12 -6.60506e-14)
(1.42291e-12 -4.11463e-12 6.11257e-13)
(5.639e-14 1.57933e-14 2.14726e-13)
(-4.38967e-14 9.08416e-15 2.34754e-13)
(2.79539e-10 5.58271e-10 1.03675e-10)
(2.38915e-10 5.30896e-10 1.0867e-10)
(4.02633e-10 8.21523e-10 -1.36453e-11)
(3.28008e-10 7.51679e-10 3.82762e-11)
(4.16365e-10 6.19141e-10 2.45052e-11)
(3.59629e-10 3.55195e-10 3.05811e-11)
(1.25382e-10 1.44396e-10 1.12143e-10)
(1.35603e-10 2.1728e-10 8.65113e-11)
(6.5598e-11 6.13106e-11 2.60881e-10)
(5.92156e-11 7.81819e-11 2.77622e-10)
(2.26455e-10 2.59863e-10 9.09809e-11)
(2.12238e-10 3.28496e-10 8.29797e-11)
(3.95784e-10 1.78619e-10 4.56304e-11)
(2.64385e-10 2.75428e-10 3.98737e-11)
(3.03945e-10 2.93336e-10 -9.14409e-12)
(3.88227e-10 5.43843e-10 -9.18622e-12)
(3.11521e-10 7.43121e-10 -1.03275e-11)
(2.04226e-10 5.72801e-10 -1.23511e-11)
(5.08273e-10 8.77492e-10 -9.82202e-12)
(3.07209e-10 7.42682e-10 -1.11232e-11)
(2.06723e-10 2.22066e-10 -9.58164e-12)
(1.48232e-10 2.92962e-10 -1.10856e-11)
(3.05091e-10 1.3266e-10 -5.28644e-12)
(2.00335e-10 2.16897e-10 -8.50766e-12)
(-4.46531e-12 1.41915e-11 -2.59663e-12)
(-1.32106e-12 2.11399e-11 -1.72828e-11)
(8.75824e-13 1.36856e-11 8.8205e-11)
(1.28682e-11 2.86338e-11 6.79304e-11)
(1.14931e-11 1.16619e-10 4.31378e-11)
(4.1842e-10 5.99067e-10 5.43797e-12)
(3.42009e-10 3.33597e-10 5.75576e-12)
(2.9872e-10 3.00423e-10 -6.01714e-12)
(3.94357e-10 5.75989e-10 -6.01314e-12)
(2.13939e-10 6.18682e-10 -4.23817e-12)
(3.2071e-10 8.09038e-10 -6.85088e-12)
(3.29347e-10 7.95712e-10 3.57731e-12)
(5.29598e-10 9.55843e-10 -5.71356e-12)
(1.58483e-10 3.18818e-10 -7.98349e-12)
(2.10386e-10 2.32443e-10 -6.8194e-12)
(2.29107e-10 2.45967e-10 -3.72613e-12)
(3.28102e-10 1.45894e-10 2.40666e-12)
(3.61738e-12 4.12718e-11 6.82543e-11)
(-2.20376e-12 -1.37954e-13 9.56686e-12)
(-1.96767e-14 3.23735e-12 3.41308e-12)
(-3.26257e-11 8.82399e-11 1.14778e-10)
(-1.27775e-11 -5.21643e-13 1.12128e-11)
(8.13262e-11 2.97176e-10 1.7108e-10)
(7.2298e-11 5.23286e-10 4.7423e-11)
(4.0205e-11 9.76626e-11 5.24844e-11)
(-3.28209e-12 -3.17078e-12 3.72755e-12)
(9.6149e-12 -3.39164e-12 -1.39826e-13)
(-2.15795e-11 1.45916e-11 -7.33276e-12)
(-4.43683e-12 1.69192e-12 -1.96521e-12)
(-1.21614e-11 5.89678e-12 -7.99404e-14)
(-4.69985e-12 3.84365e-12 -4.02529e-11)
(-1.59826e-12 4.86111e-12 -2.45914e-11)
(-4.46841e-14 -6.33641e-13 -1.01588e-11)
(2.39116e-12 3.26396e-11 -4.36869e-12)
(-4.59029e-12 2.39056e-11 -5.19362e-12)
(-2.32348e-12 2.48984e-12 2.98444e-13)
(-2.0777e-12 1.86092e-12 3.52281e-13)
(4.97847e-11 1.03141e-10 1.93686e-10)
(1.6074e-11 1.28187e-11 6.62187e-11)
(-5.32081e-12 -9.70405e-13 1.15106e-13)
(-3.27429e-12 3.71802e-12 -2.89977e-12)
(-7.49229e-12 -8.54156e-14 -2.57087e-12)
(-1.23965e-12 2.09866e-14 -8.46478e-13)
(-5.01735e-12 -7.80039e-13 -4.06484e-12)
(-1.04864e-12 -6.24065e-13 -9.71174e-13)
(9.13443e-12 -1.18373e-12 4.45482e-11)
(-4.6822e-12 -7.51966e-13 8.54344e-13)
(-4.97308e-12 -1.06432e-12 8.44178e-13)
(3.95818e-12 -1.82373e-13 2.87914e-11)
(-4.91735e-12 -1.03604e-13 8.46701e-13)
(-4.94633e-12 -1.30724e-13 8.53532e-13)
(1.53401e-10 3.03642e-10 -1.03619e-11)
(2.11497e-10 2.27717e-10 -8.96371e-12)
(2.09201e-10 2.2968e-10 -7.11547e-12)
(3.16925e-10 1.3957e-10 -7.19951e-12)
(7.56378e-11 1.23088e-10 -6.50762e-12)
(-2.46473e-12 3.4135e-12 -2.57484e-13)
(7.48518e-11 1.25198e-10 -5.28347e-12)
(-1.6216e-12 3.53074e-12 -2.47183e-13)
(2.09387e-10 5.88157e-10 -1.51282e-11)
(3.15063e-10 7.47805e-10 -1.16485e-11)
(3.16835e-10 7.77556e-10 -1.28563e-11)
(5.12696e-10 8.93464e-10 -1.59365e-12)
(2.58394e-10 9.33606e-10 -1.12797e-11)
(2.82029e-10 1.2803e-09 -8.3111e-12)
(2.63362e-10 9.94941e-10 -1.40025e-11)
(2.85065e-10 1.35698e-09 -5.98932e-12)
(1.6242e-11 1.13157e-11 3.16302e-10)
(6.70019e-12 3.87743e-12 2.49313e-10)
(8.93381e-12 1.1875e-11 2.57983e-10)
(3.48801e-12 8.53127e-12 2.27265e-10)
(2.82274e-11 3.04528e-11 1.56778e-10)
(5.84138e-13 2.67733e-13 2.69212e-12)
(1.16108e-11 1.26643e-11 5.52576e-12)
(-2.89367e-11 1.63127e-11 7.97775e-11)
(-1.46518e-11 7.60684e-12 -7.13374e-14)
(-1.31525e-11 9.23975e-14 2.03758e-12)
(1.4913e-11 4.06503e-11 3.14512e-10)
(6.39505e-12 3.98825e-11 1.69642e-10)
(5.76081e-12 2.53021e-11 1.4124e-10)
(1.73791e-12 3.7059e-11 1.29696e-10)
(2.32418e-11 3.54453e-11 1.6606e-10)
(9.96705e-12 1.09168e-11 1.19613e-11)
(-1.33975e-12 -3.46987e-12 3.75068e-12)
(-4.94308e-12 2.14432e-11 5.91904e-11)
(-2.03952e-12 -4.05099e-12 4.84442e-13)
(-1.57935e-12 -4.08988e-12 7.16729e-13)
(2.4597e-10 9.16874e-10 3.9705e-11)
(2.23437e-10 1.23216e-09 1.52011e-11)
(3.29069e-10 7.79314e-10 1.81979e-11)
(2.3236e-10 6.05582e-10 1.96588e-11)
(4.92209e-10 9.05103e-10 9.68124e-12)
(3.34483e-10 7.73614e-10 9.57823e-12)
(2.69419e-10 1.2918e-09 7.15581e-12)
(2.63093e-10 9.56195e-10 1.26338e-11)
(2.53424e-10 2.63717e-10 2.10054e-11)
(1.86438e-10 3.29672e-10 1.63871e-11)
(3.70161e-10 1.61161e-10 1.49378e-11)
(2.47816e-10 2.57943e-10 7.14638e-12)
(1.03152e-10 1.46692e-10 1.84359e-11)
(-1.16503e-12 3.974e-12 7.39475e-14)
(9.28416e-11 1.37667e-10 -1.03462e-12)
(-1.70904e-12 4.02482e-12 -3.14426e-13)
(1.10068e-10 5.55304e-11 5.454e-11)
(8.07705e-11 2.60864e-11 7.45696e-11)
(1.67228e-10 -5.67869e-12 -1.7843e-11)
(1.7947e-12 -4.58769e-12 3.9476e-12)
(1.55116e-11 3.2927e-11 4.10628e-11)
(-1.11415e-11 1.09291e-12 6.21887e-13)
(4.32459e-12 4.99811e-12 -7.44489e-12)
(2.573e-11 2.91721e-13 4.02198e-11)
(5.77753e-12 1.35968e-13 2.34587e-12)
(1.86438e-12 -5.37798e-12 -7.066e-13)
(2.94167e-12 -7.52454e-12 1.22987e-12)
(1.08278e-13 3.35551e-14 -2.81029e-14)
(-1.39759e-13 -3.68569e-14 -3.34552e-13)
(-6.95653e-12 -8.28729e-13 -3.46408e-12)
(-1.24593e-12 -1.58193e-13 -9.65981e-13)
(-1.1572e-12 -3.21813e-14 -8.9041e-13)
(-6.96819e-12 -1.37988e-13 -2.96074e-12)
(-1.31316e-13 3.02903e-15 2.54646e-13)
(-7.92836e-14 3.88768e-15 2.61093e-13)
(6.96715e-11 1.1766e-10 -5.29635e-12)
(-1.88382e-12 -7.66595e-13 -3.65813e-12)
(1.78346e-11 -1.49116e-12 8.58683e-11)
(1.86919e-11 -8.47736e-13 7.49218e-11)
(1.20322e-11 -4.29144e-13 5.42621e-11)
(1.54638e-11 -1.09179e-12 7.33907e-11)
(2.07763e-11 1.14584e-12 6.87178e-11)
(7.97482e-12 -3.96569e-13 8.1272e-11)
(1.0032e-11 5.3043e-12 8.0835e-11)
(-7.86699e-12 1.11882e-11 -2.29666e-11)
(-6.82672e-12 1.2064e-11 -1.1446e-11)
(2.28586e-11 9.57625e-13 1.08327e-10)