/*--------------------------------*- C++ -*----------------------------------*\
| =========                 |                                                 |
| \\      /  F ield         | OpenFOAM: The Open Source CFD Toolbox           |
|  \\    /   O peration     | Version:  2012                                  |
|   \\  /    A nd           | Website:  www.openfoam.com                      |
|    \\/     M anipulation  |                                                 |
\*---------------------------------------------------------------------------*/
FoamFile
{
    version     2.0;
    format      ascii;
    class       volVectorField;
    location    "0.107/solid";
    object      sigmaMinDir;
}
// * * * * * * * * * * * * * * * * * * * * * * * * * * * * * * * * * * * * * //

dimensions      [1 -1 -2 0 0 0 0];


internalField   nonuniform List<vector> 
3124
(
(0.165678 0.705634 0.688935)
(-0.603401 0.783612 -0.147848)
(0.129051 -0.0246437 0.991332)
(0.0871944 0.996074 -0.0152579)
(0.0596714 0.00349865 0.998212)
(0.752044 -0.647787 0.121661)
(0.147219 -0.0209706 0.988882)
(0.0847973 0.996271 -0.0159057)
(0.0704006 0.000666035 0.997519)
(-0.00857958 0.461716 0.886986)
(0.056688 0.155741 0.98617)
(0.100845 0.994124 0.0393365)
(-0.0237575 -0.131069 0.991089)
(0.0878889 -0.01237 0.996053)
(-0.122341 0.45668 0.881179)
(0.076193 -0.0722053 0.994475)
(0.0382187 0.0908 0.995136)
(0.0583821 -0.0727339 0.995641)
(0.192458 -0.0259993 0.980961)
(0.0938237 0.995496 0.0135644)
(0.0482083 -0.00552637 0.998822)
(0.0467339 -0.00552859 0.998892)
(0.0865797 -0.0155852 0.996123)
(0.436396 0.897443 -0.0644519)
(0.173994 0.684171 0.708263)
(0.088451 0.438966 0.894139)
(0.157711 0.943718 0.290729)
(-0.0679277 0.956335 0.284271)
(0.335738 0.498175 0.799438)
(0.264826 0.92848 0.26037)
(0.296445 -0.0915752 0.950649)
(0.0988199 -0.0388487 0.994347)
(0.355824 -0.0810725 0.93103)
(-0.0439055 0.999008 -0.00743342)
(0.210432 0.977461 -0.0169657)
(-0.138052 0.990259 -0.018145)
(0.0874541 0.996097 -0.0119175)
(0.0778245 0.996959 -0.00403773)
(-0.133067 0.991103 0.00298726)
(0.208679 0.977833 -0.0171876)
(0.154679 0.442131 0.883513)
(0.0796904 0.17328 0.981643)
(-0.615056 0.78848 0.00237715)
(0.138946 0.776559 0.614533)
(-0.5193 0.527003 0.672753)
(0.152964 0.0187077 0.988055)
(0.267062 -0.117948 0.956434)
(0.222708 -0.016407 0.974747)
(-0.12401 0.992231 -0.00997189)
(0.084271 0.996412 -0.00784673)
(0.198493 0.979997 -0.0143781)
(-0.133109 0.990756 -0.0261582)
(-0.00930199 0.999946 -0.00462991)
(-0.117953 0.992976 0.00920916)
(0.194655 0.98078 -0.0134034)
(0.0663357 -0.023369 0.997524)
(0.0420269 -0.00379604 0.999109)
(0.0819407 -0.0105473 0.996581)
(0.999501 -0.00916121 0.0302312)
(-0.0233125 0.609194 0.792679)
(-0.0283538 0.0626877 0.99763)
(0.349927 0.367191 0.861813)
(0.488168 0.864479 0.119864)
(0.0514554 0.475642 0.878132)
(0.0188564 -0.052005 0.998469)
(-0.0206659 0.880431 0.473723)
(0.276046 0.439107 0.854976)
(0.254626 0.959761 -0.118422)
(0.121268 0.987618 0.0995189)
(-0.165843 0.98611 -0.00910039)
(0.258485 0.965723 0.0237431)
(-0.136429 0.981527 0.134131)
(-0.127416 0.991547 -0.0245075)
(0.298698 0.953466 0.0410062)
(-0.224691 0.974176 -0.0222641)
(-0.131358 0.991055 0.0235492)
(-0.0373779 0.0128978 0.999218)
(-0.0203165 -0.0895383 0.995776)
(0.204943 0.242411 0.94828)
(0.566977 0.823091 0.0325291)
(0.553353 0.831997 0.0397622)
(-0.0432476 -0.0783029 0.995991)
(-0.0916001 -0.0499789 0.994541)
(0.101774 -0.0473759 0.993679)
(0.991262 -0.0543291 0.120203)
(0.51293 -0.171127 0.841201)
(0.824618 0.111807 -0.55453)
(-0.156858 -0.0991054 0.982636)
(0.557179 0.830174 -0.0190421)
(0.558485 0.82938 -0.0149783)
(-0.158692 0.987266 -0.0110277)
(-0.149738 0.98871 0.00558441)
(-0.00736657 0.999962 -0.00470452)
(0.0863015 0.996204 -0.0113704)
(-0.131154 0.991362 -7.00895e-05)
(0.201244 0.979419 -0.0154577)
(-0.146722 0.989175 0.00233386)
(0.556901 0.830359 -0.0191302)
(0.173677 0.456639 0.872535)
(0.0452093 -0.015216 0.998862)
(-0.658516 0.672996 0.336799)
(-0.087725 0.0670666 0.993884)
(-0.38666 0.28681 0.87649)
(-0.0846803 0.822782 0.562014)
(-0.215452 0.46698 0.857619)
(-0.0685181 0.0136131 0.997557)
(0.726677 0.262145 0.634997)
(-0.220953 0.229107 0.947993)
(0.0585253 0.020397 0.998078)
(-0.0143055 0.0147113 0.999789)
(0.1643 0.0218058 0.986169)
(0.0103954 -0.107795 0.994119)
(0.120504 0.0122417 0.992637)
(-0.0427331 -0.0353599 0.998461)
(0.114845 0.0421754 0.992488)
(0.799912 0.13802 0.58403)
(-0.157431 0.987431 -0.0139691)
(0.0885385 0.996065 0.00394202)
(-0.161174 0.986901 -0.00707872)
(0.245359 0.969413 0.00615917)
(0.0750271 0.997061 -0.0154845)
(-0.123729 0.991935 0.0274903)
(0.219555 0.975567 -0.00802698)
(0.557032 0.830398 -0.0124603)
(0.559696 0.828599 -0.0128387)
(-0.15148 0.988282 -0.0187982)
(-0.130442 0.991414 0.0090615)
(-0.207423 0.978138 -0.0148789)
(-0.140506 0.989757 0.0252685)
(0.570744 0.821007 0.014076)
(0.562923 0.826495 -0.00491122)
(0.0603884 -0.0258955 0.997839)
(0.0431401 -0.00313372 0.999064)
(0.0825132 -0.00617601 0.996571)
(0.994472 -0.0378452 0.0979469)
(0.999265 -0.0142428 0.0356023)
(0.898201 0.0373688 -0.437993)
(0.848026 0.0861736 -0.522902)
(0.894729 0.0330982 -0.445381)
(-0.0430853 0.999071 -0.000773286)
(0.814228 -0.513957 -0.269966)
(-0.687594 -0.00419054 0.726083)
(0.0589726 -0.00745113 0.998232)
(0.0946037 -0.0149177 0.995403)
(0.0544815 -0.0127861 0.998433)
(0.061957 0.0109488 0.998019)
(0.992841 -0.0354903 0.114053)
(-0.251286 0.914378 -0.31744)
(0.812961 -0.0807313 -0.576695)
(-0.260418 0.94666 0.189782)
(0.180339 -0.0107074 0.983546)
(0.0536865 -0.0148279 0.998448)
(0.0461782 -0.0170846 0.998787)
(0.078808 -0.00294079 0.996885)
(0.249383 0.150291 0.956672)
(0.135601 0.522437 0.841827)
(-0.0146065 0.166253 0.985975)
(-0.0126852 0.44063 0.897599)
(-0.0349793 0.0494955 0.998162)
(0.134775 0.23198 0.963338)
(0.23177 0.449058 0.862919)
(0.0714254 0.110499 0.991306)
(0.0246461 0.489567 0.871617)
(0.0282482 0.00227888 0.999598)
(0.058186 0.108261 0.992418)
(0.149955 -0.315703 0.936934)
(0.045038 -0.075805 0.996105)
(0.0256869 0.292995 0.955769)
(-0.0406853 -0.0774288 0.996167)
(0.0248204 -0.0308844 0.999215)
(-0.0553698 -0.113301 0.992017)
(-0.0577985 -0.134993 0.989159)
(-0.0539336 -0.0848626 0.994932)
(-0.0768601 -0.0289725 0.996621)
(-0.0451913 -0.0955243 0.994401)
(0.0943245 -0.0291608 0.995114)
(-0.0140358 -0.0138242 0.999806)
(-0.00562773 -0.0267447 0.999626)
(0.0985717 0.492962 0.864449)
(0.0211708 0.0058815 0.999759)
(-0.109134 -0.352772 0.929323)
(-0.143474 0.0836324 0.986114)
(-0.254139 0.48224 0.838367)
(-0.120299 0.160247 0.979719)
(-0.0392467 0.442267 0.896024)
(-0.07428 0.0467695 0.99614)
(-0.236583 0.192385 0.952374)
(-0.15308 0.486069 0.860409)
(-0.0347073 -0.0721325 0.996791)
(0.0809506 -0.00537935 0.996704)
(-0.0136807 -0.0938912 0.995488)
(0.140687 -0.000311781 0.990054)
(-0.0199427 -0.0803981 0.996563)
(0.0742351 0.0194542 0.997051)
(0.0086217 -0.030971 0.999483)
(-0.116644 -0.00367929 0.993167)
(0.0548376 0.0475262 0.997364)
(-0.0360695 -0.0804383 0.996107)
(0.159926 -0.0742277 0.984334)
(-0.0991472 0.018966 0.994892)
(0.209172 -0.0456529 0.976813)
(0.00698208 -0.0480938 0.998818)
(0.74082 0.0918692 0.665391)
(0.103036 0.0465973 0.993586)
(0.270691 0.0278323 0.962264)
(0.29261 -0.0416507 0.955324)
(0.0782356 0.0623768 0.994982)
(-0.026187 -0.0612152 0.997781)
(0.407426 0.0148684 0.913117)
(0.0500718 -0.00908978 0.998704)
(0.0453755 -0.00400808 0.998962)
(0.0849093 -0.00822091 0.996355)
(-0.0161266 -0.012731 0.999789)
(-0.0221209 -0.00983667 0.999707)
(0.347495 0.832751 0.431014)
(0.305399 0.945757 0.110795)
(0.541895 0.680579 0.493114)
(0.579877 0.811673 0.07021)
(0.476061 0.771496 0.422089)
(0.348947 0.788708 0.506138)
(0.261288 0.937908 0.22816)
(0.312916 0.661649 0.681399)
(0.482383 0.56291 0.671147)
(0.208836 0.420717 0.882827)
(0.218785 0.481387 0.848764)
(0.360922 0.58486 0.726412)
(0.30285 0.556857 0.773429)
(0.169683 0.457737 0.872746)
(0.889742 -0.420948 -0.176525)
(0.0240472 -0.00931341 0.999667)
(0.356998 -0.00602165 0.934086)
(-0.00610278 -0.0132181 0.999894)
(0.0918306 -0.0185353 0.995602)
(0.0373277 -0.0382123 0.998572)
(0.0510634 -0.0184395 0.998525)
(0.314661 0.0339206 0.948598)
(-0.0205178 -0.0418064 0.998915)
(-0.00644296 -0.0184578 0.999809)
(-0.131907 0.991262 -0.000488269)
(0.0833747 0.996499 -0.00613625)
(-0.256027 0.966669 0.00101958)
(-0.16381 0.986386 -0.014462)
(-0.146772 0.989132 -0.00870057)
(-0.253514 0.967331 0.00128261)
(-0.137499 0.990408 -0.0136126)
(-0.128748 0.991457 -0.020912)
(0.0467079 0.998882 -0.00726368)
(-0.139283 0.990148 -0.0144038)
(-0.251472 0.967706 -0.0175198)
(-0.130032 0.991418 -0.0135228)
(-0.121878 0.992368 -0.0187489)
(-0.250725 0.968031 -0.00734714)
(0.0792926 0.0200877 0.996649)
(0.801159 -0.59788 0.0261519)
(-0.223994 0.954373 -0.197481)
(0.699059 -0.639727 -0.319477)
(-0.436767 0.888664 -0.139679)
(-0.328961 0.913098 0.240907)
(-0.382525 0.907115 0.175546)
(0.107097 0.994247 0.00154149)
(0.843418 0.516761 0.146981)
(0.154295 0.986662 -0.051881)
(0.12883 0.8208 0.556499)
(0.498896 0.859392 0.112017)
(-0.357639 0.867496 0.345752)
(0.558352 0.811884 0.170551)
(-0.373485 0.63724 0.674118)
(0.696191 -0.525033 -0.48955)
(-0.1128 0.850779 0.513275)
(0.0894337 0.991055 0.0990563)
(0.637345 0.741697 0.20899)
(-0.421325 0.81837 0.39084)
(0.182869 -0.0022368 0.983135)
(0.0495099 0.0543023 0.997296)
(0.0487995 -0.0160439 0.99868)
(0.0353066 -0.0127708 0.999295)
(0.296404 -0.0434356 0.954074)
(0.0407482 -0.0139822 0.999072)
(0.0622166 0.0457258 0.997015)
(0.306698 -0.033812 0.951206)
(0.0422155 -0.0174392 0.998956)
(-0.146999 0.98888 -0.0225277)
(-0.167507 0.985854 -0.00574547)
(-0.243483 0.9699 0.00316686)
(-0.234646 0.972075 -0.00344247)
(-0.141281 0.98996 0.00437816)
(-0.237069 0.971359 -0.0161003)
(-0.24865 0.968468 -0.0155705)
(-0.143579 0.989491 -0.01713)
(-0.0976337 0.995218 -0.00292393)
(-0.168329 0.985478 -0.0223407)
(-0.251614 0.967468 -0.0263778)
(-0.13646 0.990104 -0.032742)
(-0.219342 0.975552 -0.0137123)
(-0.252645 0.967202 -0.0262858)
(0.0736227 -0.00679491 0.997263)
(0.0410165 -0.00217637 0.999156)
(0.081606 -0.0035843 0.996658)
(-0.0292266 -0.00774499 0.999543)
(-0.175451 -0.00972908 0.98444)
(0.686949 0.716902 -0.118962)
(0.591621 0.632536 0.499883)
(0.551158 0.299451 0.778816)
(0.078357 0.663121 0.7444)
(0.0795657 0.386687 0.918772)
(-0.0549729 0.814661 0.577326)
(0.932917 0.357282 0.044887)
(0.251454 0.404866 0.879121)
(0.492787 0.661836 0.56492)
(0.12699 0.145121 0.98123)
(-0.0223396 0.104016 0.994325)
(-0.0267589 0.0190623 0.99946)
(0.0441758 0.0910812 0.994863)
(0.0101804 0.0381126 0.999222)
(-0.0368961 0.0362052 0.998663)
(0.0855451 0.149069 0.985119)
(0.468991 0.210159 0.857835)
(0.4594 0.425933 0.779444)
(0.354634 0.413803 0.838452)
(0.19215 0.185665 0.963642)
(0.440458 0.490457 0.751964)
(0.0558887 0.0591963 0.996681)
(0.279622 0.272548 0.920613)
(0.228134 0.93259 0.279697)
(0.220182 0.896345 0.384819)
(0.957525 0.288326 0.00365162)
(0.450148 0.891091 -0.057648)
(0.290007 0.855447 0.429076)
(0.22776 0.293361 0.928475)
(-0.0159318 0.737849 0.674778)
(0.176404 0.924736 0.33726)
(0.124726 0.563864 0.816395)
(-0.107226 0.673062 0.731772)
(0.143393 0.402191 0.904257)
(0.0178316 0.587912 0.808728)
(-0.00120971 0.0944735 0.995527)
(0.0438493 0.0126884 0.998958)
(0.0580397 -0.0855375 0.994643)
(0.047737 0.0515471 0.997529)
(0.00254556 0.0355169 0.999366)
(0.00443683 -0.108036 0.994137)
(0.0663696 0.122421 0.990257)
(0.184888 0.982455 0.0244832)
(0.206622 0.978248 0.0183796)
(0.258653 0.778947 0.571261)
(0.106759 0.234378 0.966266)
(0.405534 0.459713 0.790067)
(0.26859 0.55847 0.784838)
(0.121001 0.233338 0.964838)
(0.122474 0.905958 0.405267)
(0.0153124 0.0850691 0.996257)
(0.141033 0.386988 0.911235)
(-0.00295231 0.999869 0.0159227)
(0.107099 0.994076 -0.0185037)
(-0.278762 0.959039 -0.0503657)
(0.306473 0.950287 -0.0550296)
(0.0890681 0.994401 0.0568562)
(-0.0970234 0.995098 -0.0191343)
(0.0727854 0.997144 -0.0201375)
(-0.0527509 0.998587 0.00650682)
(-0.102857 0.993867 -0.0406165)
(-0.189216 0.981583 -0.0263219)
(-0.0239999 0.999673 -0.00877298)
(-0.162949 0.986255 -0.027351)
(-0.0187672 0.99975 -0.0121248)
(-0.0708015 0.997452 -0.00877055)
(0.371325 0.927986 -0.0309664)
(-0.106001 0.992695 -0.0576183)
(-0.231777 0.972714 -0.0103681)
(-0.289115 0.956353 -0.0424311)
(-0.261979 0.964873 -0.0196773)
(0.157036 0.987593 0.000391553)
(-0.270863 0.962099 0.0315909)
(-0.22713 0.973459 -0.0280787)
(-0.173873 0.984007 -0.0387091)
(-0.133698 0.990227 -0.039693)
(-0.0263195 -0.0233485 0.999381)
(-0.0505585 -0.0478899 0.997572)
(-0.0261704 -0.00574221 0.999641)
(0.015466 0.0400166 0.999079)
(-0.000601947 0.00710982 0.999975)
(-0.053586 -0.0615787 0.996663)
(-0.0169382 -0.0184705 0.999686)
(-0.0239927 -0.0619884 0.997788)
(-0.0382244 -0.120191 0.992015)
(-0.0722302 -0.0941665 0.992933)
(0.0133385 0.000194316 0.999911)
(-0.0111668 0.014263 0.999836)
(-0.0169701 -0.0411119 0.99901)
(-0.0145932 -0.0552514 0.998366)
(-0.00523814 -0.00286841 0.999982)
(0.366512 0.369818 0.853759)
(0.0980315 0.10186 0.989957)
(0.081682 0.11213 0.990331)
(0.0323232 0.0186198 0.999304)
(0.0114018 0.063214 0.997935)
(0.0330727 0.0323788 0.998928)
(0.650107 0.752598 -0.104679)
(0.677216 0.734035 -0.0507069)
(0.685482 0.727931 0.0152079)
(0.562957 0.825859 0.032195)
(0.700147 0.713993 -0.00304978)
(0.714789 0.699298 -0.00776749)
(0.674618 0.737828 -0.0223714)
(0.735451 0.670213 -0.0996356)
(0.556945 0.828777 0.0542396)
(0.618647 0.784985 0.0327771)
(0.83084 -0.543726 -0.118604)
(-0.115574 -0.0183371 0.99313)
(0.971077 -0.00808695 -0.238631)
(-0.111797 0.0136912 0.993637)
(0.975906 0.012041 -0.217861)
(0.970245 0.0173988 -0.241499)
(0.0979632 -0.0312943 0.994698)
(0.0296598 -0.0454543 0.998526)
(0.000877206 -0.0356923 0.999362)
(-0.141786 -0.0158469 0.989771)
(0.960051 -0.119192 0.253172)
(-0.124629 -0.032018 0.991687)
(-0.0379243 -0.054765 0.997779)
(0.931434 -0.118347 0.34413)
(-0.109947 -0.0436372 0.992979)
(0.973935 -0.0325203 -0.224483)
(-0.643747 -0.216705 0.733913)
(0.976957 0.0147807 -0.212924)
(0.976603 0.0543726 -0.208062)
(-0.506724 -0.195011 0.839763)
(0.977578 -0.0247598 -0.209115)
(0.758362 0.651615 -0.0168665)
(0.754557 0.656228 -0.00279264)
(0.726197 0.687477 -0.00373264)
(0.559231 0.828884 -0.0145734)
(0.730772 0.68257 -0.0084539)
(0.749475 0.661977 0.00855081)
(0.752518 0.658399 -0.0151075)
(0.736957 0.675864 -0.0101403)
(0.558522 0.829217 -0.0212444)
(0.728327 0.685176 -0.00856051)
(-0.216674 0.976234 -0.00446607)
(-0.218107 0.975868 0.0105645)
(-0.282423 0.959196 -0.0134667)
(-0.15846 0.987365 -0.000736308)
(-0.279874 0.960036 -0.00108763)
(-0.213967 0.976831 -0.00444075)
(-0.20916 0.97787 -0.00481249)
(-0.270044 0.962847 0.00122926)
(-0.155153 0.987871 0.00616765)
(-0.281931 0.959324 0.014597)
(-0.26024 0.965544 -0.000584844)
(-0.18974 0.981813 -0.00654388)
(-0.14226 0.989829 0.000119119)
(-0.22146 0.975123 0.00947131)
(-0.270992 0.962517 0.0111107)
(0.759953 0.649976 -0.00131429)
(0.734151 0.67896 -0.00605289)
(0.122061 0.725693 0.677104)
(-0.0538311 0.409537 0.910704)
(0.0385238 0.160938 0.986212)
(0.0106963 0.178214 0.983934)
(-0.196049 0.118134 0.973452)
(-0.462315 0.566268 0.682353)
(0.650426 -0.469455 -0.597125)
(-0.57267 0.793984 0.204053)
(-0.391474 0.847858 0.35761)
(-0.421598 0.293336 0.858026)
(-0.260303 0.519957 0.813564)
(-0.120731 0.0736326 0.989951)
(-0.107348 0.105518 0.988606)
(-0.0341163 0.0250046 0.999105)
(-0.156443 0.0969599 0.982916)
(-0.0676925 0.0365391 0.997037)
(-0.0845016 0.0711439 0.99388)
(-0.19757 0.138243 0.970492)
(-0.161802 0.0978061 0.981964)
(-0.172923 0.213817 0.961447)
(-0.546978 0.345511 0.76252)
(-0.254774 0.154894 0.954515)
(-0.500142 0.679292 0.537048)
(-0.124165 0.0791504 0.9891)
(-0.330797 0.209895 0.920064)
(0.486186 0.87355 -0.0231012)
(-0.0117329 0.773282 0.633954)
(0.546285 0.836753 0.037649)
(0.431938 0.447242 0.783202)
(0.763356 0.645535 0.023932)
(-0.0176235 0.403844 0.914658)
(0.101952 0.763075 0.638218)
(0.326511 0.461805 0.824698)
(0.469116 0.832489 0.294775)
(0.68345 0.724709 0.0877108)
(-0.0292214 -0.0629007 0.997592)
(-0.049301 -0.0488113 0.997591)
(-0.0251389 -0.00448127 0.999674)
(-0.120866 0.0397513 0.991873)
(-0.019704 -0.0690378 0.997419)
(-0.083433 0.0235181 0.996236)
(-0.0710969 -0.0127883 0.997387)
(-0.125494 -0.0338199 0.991518)
(0.308223 0.113169 0.944559)
(0.954749 0.278822 -0.103498)
(0.394179 0.302136 0.86795)
(0.741526 0.584301 0.329746)
(-0.0145179 -0.0439457 0.998928)
(0.0623946 0.0888549 0.994088)
(-0.183077 -0.00455646 0.983088)
(-0.0789603 0.232793 0.969316)
(-0.193957 0.0939618 0.9765)
(0.0198316 0.238878 0.970847)
(-0.128161 0.0135701 0.99166)
(0.542359 0.45981 0.703152)
(-0.113426 0.0647696 0.991433)
(-0.00812163 0.704662 0.709497)
(-0.0598116 0.258555 0.964143)
(0.0300567 0.0762856 0.996633)
(0.0993732 0.40038 0.910945)
(-0.0613288 0.0684331 0.995769)
(-0.0556086 0.696539 0.715361)
(0.0724624 0.0541946 0.995898)
(-0.057784 0.139943 0.988472)
(-0.0634206 0.74521 0.663807)
(-0.0553602 0.0502844 0.997199)
(0.719372 -0.0989373 0.687543)
(0.102809 -0.0495159 0.993468)
(0.569515 -0.0330007 0.821318)
(0.115377 -0.0334055 0.99276)
(0.437596 0.00306893 0.899166)
(0.520842 -0.029437 0.853145)
(-0.045257 0.151003 0.987497)
(-0.0328368 -0.064376 0.997385)
(-0.092638 -0.0447063 0.994696)
(-0.0636245 0.132353 0.989159)
(0.0564453 -0.0386222 0.997658)
(-0.113698 0.194255 0.97434)
(-0.046987 0.0537258 0.99745)
(0.161008 -0.37761 0.911859)
(0.274902 -0.156594 0.948634)
(0.247427 -0.153204 0.956718)
(0.0305532 -0.0791745 0.996392)
(-0.272624 0.958967 -0.077839)
(-0.0639738 0.154784 0.985875)
(0.301729 0.026799 0.953017)
(-0.101593 0.823506 0.558136)
(-0.0274697 0.0203631 0.999415)
(0.951125 0.15872 0.264894)
(0.529107 0.095226 0.843195)
(0.967836 0.198137 0.155036)
(0.884131 -0.0438203 0.465179)
(0.656973 0.170518 0.734377)
(0.994786 0.0590157 0.0831697)
(0.633788 0.0615174 0.771057)
(0.92232 0.0946284 0.374661)
(0.327219 -0.11226 0.938257)
(-0.00397865 -0.194357 0.980923)
(0.468969 -0.0374778 0.882419)
(0.967697 0.107953 0.227834)
(0.893003 -0.0401247 0.448259)
(0.99711 0.0755799 -0.00770913)
(0.691702 0.0762578 0.718145)
(-0.103384 0.994483 0.0177414)
(0.0897822 0.995853 -0.0147058)
(-0.22927 0.97324 0.0154531)
(-0.173726 0.984774 -0.00626569)
(-0.125603 0.992079 0.00157001)
(-0.209038 0.977765 0.016714)
(-0.097541 0.995231 0.000797587)
(-0.0848485 0.996393 0.00106148)
(0.078822 0.996777 -0.0149526)
(-0.187748 0.982114 -0.01424)
(-0.00460578 0.999989 3.8281e-06)
(-0.0758633 0.997105 0.00523)
(-0.191203 0.981545 0.00338283)
(-0.0163712 0.999859 -0.0037151)
(0.749901 0.661436 -0.0122787)
(0.756297 0.654223 -0.00285259)
(0.733548 0.67963 -0.00331588)
(0.556518 0.830677 -0.0162278)
(0.731871 0.681439 0.00221018)
(0.7505 0.660866 -0.0021655)
(0.75381 0.656877 0.016794)
(0.729239 0.684237 -0.00553294)
(0.559038 0.829079 -0.0101871)
(0.741346 0.671103 -0.00518211)
(-0.209161 0.977809 0.0119173)
(-0.212143 0.976951 -0.0237258)
(-0.275669 0.960787 -0.0299053)
(-0.140176 0.989924 -0.0200257)
(-0.253882 0.966935 -0.0241115)
(-0.213889 0.976679 -0.0186817)
(-0.211324 0.977358 -0.0106726)
(-0.245205 0.96922 0.0220919)
(-0.132181 0.991166 -0.0108234)
(-0.245985 0.968809 -0.030018)
(-0.199131 0.979972 0.00157647)
(-0.165826 0.986141 0.00532651)
(-0.286361 0.957754 -0.0265301)
(-0.185463 0.982583 0.0115608)
(-0.269341 0.962915 0.0158424)
(-0.150838 0.988303 -0.0224838)
(-0.139738 0.990169 -0.00622586)
(-0.245792 0.969086 0.0214028)
(-0.161468 0.986419 0.0300792)
(-0.270361 0.962074 0.0363017)
(0.744402 0.667047 -0.0302114)
(0.728634 0.6848 -0.0118635)
(0.696851 0.717194 0.00551922)
(0.569673 0.82183 0.0082618)
(0.706645 0.707567 -0.00110606)
(0.715643 0.698448 0.00507931)
(0.724776 0.688711 -0.0194011)
(0.728869 0.684562 -0.0111919)
(0.565354 0.824834 -0.00495422)
(0.709302 0.704879 -0.00596319)
(0.054382 -0.0156434 0.998398)
(0.044166 -0.00483836 0.999012)
(0.0840437 -0.0129219 0.996378)
(-0.0279142 -0.00784597 0.99958)
(-0.0235992 -0.00949968 0.999676)
(-0.14599 -0.0153466 0.989167)
(0.997976 -0.0149667 0.0618086)
(-0.158697 -0.0108871 0.987267)
(-0.172416 -0.00859307 0.984987)
(0.998364 -0.0171428 0.0545492)
(-0.162064 -0.0115803 0.986712)
(0.971664 0.0148952 -0.235895)
(0.973672 0.0142015 -0.227512)
(0.875963 0.0455699 -0.48022)
(0.973178 -0.0188816 -0.229278)
(0.881425 0.0482366 -0.469855)
(0.971857 -0.0251203 -0.234227)
(0.97295 0.0133714 -0.230628)
(0.144435 0.578549 0.802758)
(-0.640959 0.734381 0.223286)
(0.776611 -0.622257 -0.0983492)
(0.826275 -0.541851 0.15384)
(0.490485 0.583694 0.64709)
(0.643181 -0.485402 -0.592202)
(0.740824 -0.671491 -0.0167342)
(0.897306 -0.427395 -0.110345)
(0.884745 -0.465969 -0.00998319)
(0.899001 -0.435291 -0.0481599)
(0.83685 -0.546838 0.0254948)
(0.974406 -0.224336 0.0144003)
(0.893127 -0.438122 -0.101851)
(0.707569 -0.694908 0.128251)
(0.0122536 0.213305 0.976909)
(0.026531 0.161168 0.98657)
(0.00466592 -0.0087344 0.999951)
(0.0296725 0.0925443 0.995266)
(0.000854841 0.0220587 0.999756)
(0.0173038 0.157038 0.987441)
(0.00306361 0.166743 0.985996)
(0.472069 0.875537 0.10289)
(0.229987 0.965799 -0.119742)
(0.626437 0.779414 -0.00952569)
(0.558728 0.818541 -0.133468)
(0.659464 0.749017 0.0638817)
(0.262839 0.957703 0.117138)
(0.260151 0.965339 -0.0210199)
(0.199506 0.729821 0.653879)
(0.128991 0.51734 0.846002)
(0.0155319 0.609127 0.792921)
(0.115934 0.447691 0.886641)
(0.0766934 0.83828 0.539819)
(0.106978 0.636602 0.763736)
(0.143984 0.484928 0.86262)
(0.0408148 -0.0858168 0.995475)
(0.330294 -0.0777445 0.940671)
(0.00716172 -0.0808771 0.996698)
(0.3297 -0.000914393 0.944085)
(0.0416017 -0.154359 0.987139)
(0.0150513 -0.0360985 0.999235)
(-0.372007 0.928217 0.00484122)
(0.0294365 0.999532 -0.00830263)
(-0.11655 0.993171 -0.00529892)
(0.128975 0.991635 -0.00509905)
(0.131384 0.99125 -0.0127241)
(-0.133433 0.991056 -0.00196156)
(-0.375941 0.926566 -0.0119561)
(-0.360447 0.932432 -0.0254622)
(0.0413364 0.99912 -0.00713462)
(0.145173 0.989391 -0.00547328)
(-0.12311 0.992367 -0.00712814)
(-0.362332 0.931986 -0.0108629)
(0.19311 0.981166 -0.0046858)
(-0.0920376 0.995717 -0.00872171)
(0.160146 0.523623 0.836763)
(0.0618159 0.840738 0.537902)
(0.388287 0.807556 0.443945)
(0.458693 0.785633 0.415189)
(-0.0817978 0.732981 0.675313)
(0.415537 0.775216 0.475783)
(0.0816124 0.768275 0.634896)
(0.0901595 -0.0943283 0.99145)
(0.261979 -0.0963178 0.960255)
(0.150235 -0.0637553 0.986592)
(0.203484 -0.0305463 0.978602)
(0.276986 -0.0148393 0.960759)
(0.230193 -0.0493003 0.971895)
(-0.389472 0.920867 -0.0177658)
(-0.211133 0.977384 -0.0120138)
(-0.198075 0.980187 -0.000630983)
(-0.0401136 0.999165 -0.00780635)
(-0.382356 0.92392 0.0132132)
(-0.0202091 0.999754 -0.00917786)
(-0.169729 0.985392 -0.0139524)
(-0.371985 0.928111 -0.0154331)
(0.00373195 0.999987 -0.00359478)
(0.148419 0.988923 -0.00197871)
(-0.117528 0.993025 -0.00939612)
(-0.365132 0.930492 -0.0293841)
(0.0848719 0.996365 -0.0073319)
(-0.142072 0.989825 -0.00785405)
(0.0184019 0.999699 -0.0162301)
(0.999495 -0.0113496 0.029688)
(0.0230199 0.999538 -0.0198458)
(0.516111 0.850118 -0.104539)
(0.720729 0.69313 0.0109548)
(0.299719 0.952848 -0.0474323)
(0.405812 0.913641 0.0239923)
(-0.134203 0.989684 -0.050158)
(-0.000887754 0.99619 -0.0872058)
(-0.211472 0.974525 -0.0747066)
(0.242926 0.964865 -0.100115)
(0.106201 0.992813 -0.0551638)
(0.0403307 0.994514 -0.0965186)
(0.149269 0.986309 -0.0700997)
(-0.312407 0.949842 -0.0142469)
(-0.0908376 0.995429 -0.0294785)
(-0.138488 0.989878 -0.0310116)
(0.117873 0.992951 -0.01245)
(-0.185891 0.982094 -0.0305874)
(0.00211312 0.999783 -0.0207182)
(-0.309754 0.950461 -0.0260082)
(0.346554 0.932681 -0.10003)
(-0.0250617 0.995263 -0.0939328)
(0.228349 0.973347 -0.0212477)
(0.178222 0.983578 -0.0284877)
(-0.138597 0.985477 -0.098112)
(-0.472587 0.880754 -0.0305734)
(-0.402674 0.915204 -0.0159492)
(-0.343314 0.939076 -0.0165024)
(-0.420553 -0.257615 0.869925)
(-0.0768838 -0.0584715 0.995324)
(-0.546136 -0.190305 0.815794)
(-0.0881819 -0.00585491 0.996087)
(-0.629838 -0.193158 0.752325)
(-0.613401 -0.087531 0.784906)
(-0.0517396 0.998654 -0.0035516)
(0.986816 -0.0565925 0.151632)
(-0.0677096 0.997702 0.00227908)
(-0.0213559 -0.424327 0.905257)
(0.69328 -0.147168 0.705482)
(0.0535524 0.857997 -0.510856)
(0.928487 0.174774 -0.327667)
(0.79234 0.142071 -0.593307)
(0.898764 0.289713 -0.329073)
(0.729499 0.337048 -0.595172)
(-0.214274 -0.105878 0.971018)
(0.754929 0.420818 -0.502986)
(0.102917 0.994592 -0.0139894)
(0.342473 0.93944 -0.0128075)
(0.484914 0.874556 0.00321318)
(0.48387 0.875103 -0.00801645)
(0.314039 0.949392 -0.00588677)
(0.340218 0.940341 -0.00330139)
(0.35174 0.936093 -0.00285948)
(0.344904 0.938625 -0.00484339)
(-0.384076 0.923162 -0.0160258)
(-0.150474 0.988614 0.000456421)
(-0.0640959 0.997916 -0.00749857)
(0.088167 0.996084 -0.00651156)
(-0.381411 0.924382 0.00657605)
(-0.133821 0.990979 -0.00724885)
(0.103291 0.994639 -0.00499698)
(0.320239 0.947336 -0.00119762)
(0.300873 0.953645 -0.00606004)
(0.108637 0.994068 -0.0050959)
(-0.0441986 0.998953 -0.0117784)
(0.331302 0.900275 0.282389)
(0.294126 0.901332 0.317949)
(-0.0586841 0.803204 0.592806)
(0.344797 0.837626 0.423671)
(-0.0735147 0.851276 0.519542)
(0.761407 0.423985 0.490404)
(0.752606 0.404386 0.519669)
(-0.037623 0.23324 0.971691)
(0.00458223 0.0715029 0.99743)
(-0.0153999 -0.00785724 0.999851)
(-0.0451751 0.145898 0.988268)
(-0.0389331 0.0435134 0.998294)
(-0.0525274 0.205373 0.977273)
(-0.0269289 0.157598 0.987136)
(0.152996 -0.0270575 0.987856)
(0.0820108 0.3279 0.941146)
(0.0707469 0.22553 0.971664)
(-0.130469 -0.225935 0.965366)
(0.0518248 -0.0985546 0.993781)
(-0.00043511 -0.155928 0.987768)
(0.1246 0.000436897 0.992207)
(0.152449 0.0068801 0.988287)
(0.148365 -0.00493842 0.98892)
(0.0504475 0.348661 0.93589)
(0.154927 0.0359098 0.987273)
(0.0834991 0.372791 0.924151)
(-0.351274 0.936143 0.0155614)
(-0.0137741 0.999746 -0.0178306)
(-0.131572 0.991254 -0.0102476)
(0.0427804 0.99903 -0.0104668)
(-0.367261 0.930107 -0.00459568)
(-0.159398 0.987198 -0.00570247)
(0.0590631 0.998096 -0.0177969)
(-0.296345 0.954968 -0.0147004)
(0.0398962 0.999067 -0.0165589)
(-0.133312 0.990861 -0.0205627)
(0.113298 0.99352 -0.00908602)
(-0.301709 0.953375 -0.00689458)
(-0.0792933 0.996646 -0.0202311)
(0.208788 0.977935 -0.00718244)
(-0.376691 0.926338 -0.00126827)
(-0.426244 0.904566 -0.00874192)
(0.144068 0.989535 -0.00799429)
(0.200287 0.979736 -0.0015033)
(0.25067 0.968039 -0.00803823)
(0.189404 0.981794 -0.0143967)
(0.332154 0.943219 -0.00334592)
(0.31135 0.950295 -0.00112401)
(0.227476 0.973659 -0.0155704)
(0.30872 0.951042 -0.014548)
(0.254745 0.966871 -0.0162968)
(0.268185 0.963231 -0.0162258)
(-0.357391 0.933919 -0.00817278)
(-0.126886 0.991822 -0.0137858)
(0.278694 0.960375 -0.00314368)
(0.302526 0.953101 -0.00875938)
(-0.0197511 0.999702 -0.0143726)
(0.995777 -0.0320146 0.0860384)
(-0.00262234 0.999801 -0.0197693)
(-0.0103099 0.999945 -0.00207265)
(0.998906 -0.0139501 0.0446253)
(-0.00793269 0.999963 -0.00336799)
(0.900668 0.0365292 -0.432969)
(0.950334 0.0742448 -0.302247)
(0.950987 0.0703459 -0.301122)
(0.927774 0.194473 -0.318459)
(0.858811 0.0709773 -0.507352)
(0.936311 0.150952 -0.317072)
(0.891 0.0364562 -0.452537)
(0.952395 0.00414258 -0.304839)
(0.951713 0.0164361 -0.306548)
(0.78149 -0.562361 -0.270229)
(0.722833 -0.122333 -0.680109)
(0.785736 -0.614399 -0.0716402)
(0.725322 -0.210299 -0.655502)
(0.748085 -0.659493 -0.0737366)
(0.876915 -0.43281 -0.209035)
(0.483518 0.39485 0.781219)
(-0.354652 -0.213003 0.910413)
(0.0278404 -0.00791082 0.999581)
(0.0267675 -0.0226312 0.999385)
(0.139608 0.00701856 0.990182)
(0.0601844 -0.00381747 0.99818)
(-0.0109068 -0.0241205 0.99965)
(0.140658 0.010518 0.990002)
(0.0409136 -0.0138555 0.999067)
(0.0523165 -0.00437885 0.998621)
(0.127294 -0.00745592 0.991837)
(0.0580205 -0.00720966 0.998289)
(0.0528201 -0.0133639 0.998515)
(0.133538 0.00176717 0.991042)
(0.0618814 -0.00813364 0.99805)
(0.0499882 -0.0111864 0.998687)
(0.0322706 0.0162924 0.999346)
(0.0270293 0.00414526 0.999626)
(0.0326524 0.0107492 0.999409)
(0.0247616 -0.00362412 0.999687)
(0.718747 -0.691015 -0.0768145)
(0.799688 -0.521042 0.298354)
(-0.629243 0.748165 -0.210481)
(-0.609741 0.773055 0.174935)
(0.874146 -0.461254 -0.152034)
(0.719525 -0.679447 -0.143653)
(0.955982 -0.292067 0.0282041)
(-0.57561 0.817567 0.016061)
(-0.604719 0.787652 0.117976)
(-0.571004 0.804377 -0.164109)
(-0.461889 0.886824 0.014223)
(-0.18744 0.963949 0.188859)
(-0.11145 0.99362 0.0172759)
(-0.474665 0.865983 0.157378)
(-0.121894 0.990314 -0.0664854)
(-0.401033 0.91099 0.096285)
(-0.110172 0.993104 0.0400718)
(-0.161124 0.984649 -0.0671213)
(-0.174843 0.954076 -0.243247)
(-0.696192 0.714558 0.0687345)
(-0.060295 -0.0285667 0.997772)
(0.0142544 -0.0274126 0.999523)
(0.130096 -0.00427874 0.991492)
(0.048321 -0.0205136 0.998621)
(-0.0449139 -0.0303252 0.99853)
(0.116292 -0.015969 0.993087)
(0.0088195 -0.026583 0.999608)
(-0.062631 -0.0204137 0.997828)
(0.105158 -0.0146725 0.994347)
(0.0128067 -0.0150678 0.999804)
(0.0460214 -0.0214597 0.99871)
(-0.0588216 -0.0132293 0.998181)
(0.1083 -0.0182457 0.993951)
(0.00949952 -0.0219085 0.999715)
(0.0480793 0.00507709 0.998831)
(0.0672465 0.0143698 0.997633)
(0.0879947 -0.00291523 0.996117)
(0.0874785 0.00235949 0.996164)
(0.131816 0.181485 0.974519)
(0.0844284 0.081889 0.993059)
(0.303353 0.182837 0.935173)
(0.319034 0.065916 0.945448)
(0.344873 0.14273 0.927734)
(0.113083 0.129571 0.985101)
(0.0992685 0.094637 0.99055)
(0.0349096 0.310696 0.949868)
(-0.0258122 0.639445 0.768404)
(-0.0161599 0.203985 0.978841)
(0.0153647 0.438608 0.898547)
(-0.032382 0.307624 0.950957)
(0.0197204 0.215442 0.976317)
(0.0256874 0.645759 0.763109)
(0.00230125 0.153624 0.988127)
(-0.0135536 0.0637029 0.997877)
(-0.0352887 0.0829075 0.995932)
(-0.0273998 0.0793144 0.996473)
(-0.0221267 0.138372 0.990133)
(-0.00857735 0.0950291 0.995438)
(0.00525484 0.105377 0.994419)
(0.112223 0.316671 0.941873)
(0.293287 0.144673 0.945014)
(0.220439 0.695229 0.684151)
(0.0508275 0.444088 0.89454)
(0.326532 0.281316 0.902352)