/*--------------------------------*- C++ -*----------------------------------*\
| =========                 |                                                 |
| \\      /  F ield         | OpenFOAM: The Open Source CFD Toolbox           |
|  \\    /   O peration     | Version:  2012                                  |
|   \\  /    A nd           | Website:  www.openfoam.com                      |
|    \\/     M anipulation  |                                                 |
\*---------------------------------------------------------------------------*/
FoamFile
{
    version     2.0;
    format      ascii;
    class       volSymmTensorField;
    location    "0.107/solid";
    object      sigma;
}
// * * * * * * * * * * * * * * * * * * * * * * * * * * * * * * * * * * * * * //

dimensions      [1 -1 -2 0 0 0 0];


internalField   nonuniform List<symmTensor> 
3124
(
(185.873 24.3028 41.6054 316.658 143.418 305.488)
(-14.2309 -1.73853 0.891399 -13.4965 -2.13669 -26.7174)
(184.388 -2.60498 29.6367 178.289 -5.48432 408.551)
(455.81 71.5414 0.20974 1266.59 -11.5956 517.246)
(190.156 -2.24068 13.191 175.833 0.957095 409.897)
(-15.0667 -1.26098 -0.440942 -16.4648 -5.05285 -38.2302)
(186.991 -3.50323 35.2345 181.682 -4.62059 418.819)
(466.376 71.2772 0.279227 1297.48 -12.4473 525.586)
(191.843 -0.571963 15.7912 179.97 0.197687 414.472)
(109.926 -2.28756 -0.79222 161.257 79.9743 273.297)
(263.705 -13.8624 27.5328 154.567 87.6598 689.167)
(503.478 79.5414 -5.34929 1276.17 32.058 489.041)
(210.088 10.3175 -4.06577 204.291 -30.4776 432.492)
(125.853 0.195104 12.9833 119.891 -1.91826 271.797)
(98.3143 -13.3019 -17.3466 138.517 67.8042 235.362)
(202.919 16.1543 16.9654 191.522 -17.0312 406.508)
(295.426 -5.80938 15.3209 303.918 34.5882 676.803)
(174.179 7.03967 9.80002 162.208 -12.8557 331.023)
(180.153 12.0575 32.5865 159.158 -7.281 338.032)
(503.911 76.347 -4.45125 1305.98 11.2431 518.984)
(135.7 0.257671 7.51438 128.897 -0.91133 290.993)
(133.624 0.22046 7.17213 126.533 -0.897878 286.555)
(124.326 0.160096 12.6469 118.203 -2.38583 268.667)
(920.905 41.3757 2.74913 983.481 -27.6768 638.824)
(151.021 15.2153 49.5215 275.147 128.878 275.773)
(235.793 -18.5054 56.6163 231.203 239.974 592.869)
(341.946 68.9414 32.3073 757.28 146.83 319.894)
(662.795 -37.9516 34.2657 992.07 198.283 394.836)
(168.881 2.80386 106.323 180.077 152.202 286.713)
(333.029 99.9695 38.8878 659.956 118.693 258.94)
(40.887 -1.13747 13.2767 37.4669 -4.10994 79.2786)
(162.657 1.6484 19.5101 154.905 -8.11128 356.068)
(32.404 -0.00663518 11.749 26.5493 -3.18435 58.3797)
(539.194 -2.01947 -0.497257 584.957 -1.87045 336.619)
(494.016 87.4288 1.73548 881.01 -8.84293 412.035)
(631.182 -114.828 -0.871047 1438.45 -15.3277 624.86)
(446.993 71.0846 -0.21784 1250.32 -8.91111 510.261)
(580.032 3.49321 1.97532 624.402 -1.22789 359.574)
(614.347 -111.145 0.319334 1427.24 2.54424 612.271)
(484.395 85.2522 -0.529042 865.575 -8.29035 405.837)
(222.494 1.42775 88.8835 229.276 252.462 592.372)
(171.986 7.44959 20.673 120.764 56.248 431.231)
(-14.9147 -11.4796 -12.8837 -9.07352 -9.82956 -73.2604)
(-49.9078 13.2298 -6.24147 -40.4917 43.6625 -57.3352)
(37.0725 2.02781 -34.5312 29.8898 40.6232 21.2727)
(208.294 19.6528 51.7365 216.688 3.17148 536.814)
(51.6498 -2.32552 15.9618 48.0952 -6.96518 104.525)
(132.521 0.627074 39.0236 112.815 -3.34906 294.3)
(586.815 -7.10353 -2.16042 642.558 -3.17063 354.858)
(479.796 71.8446 -0.973913 1323.25 -6.20431 531.061)
(501.014 83.8518 3.15949 897.676 -7.93714 417.405)
(641.202 -113.178 -2.34516 1467.34 -22.8192 630.795)
(572.27 -0.421749 2.40844 618.797 -1.20462 353.799)
(678.291 -103.407 0.0908158 1536.45 8.47617 636.028)
(511.167 83.6953 -2.07255 916.313 -6.55247 423.445)
(175.642 0.316 13.8499 166.605 -5.1092 382.757)
(125.885 0.141279 6.03265 118.628 -0.57836 269.031)
(116.301 0.139595 11.027 109.83 -1.49916 249.473)
(-19.7173 -0.0447786 1.43031 -25.9751 -0.429098 -67.0924)
(96.2146 -7.90562 1.42335 152.691 77.9363 194.55)
(324.328 -7.44861 -15.7822 344.193 34.4678 893.478)
(170.578 -11.0573 143.998 191.32 141.811 394.73)
(359.908 182.827 16.2275 577.137 52.4793 243.077)
(206.45 -12.5476 30.7962 236.453 206.332 502.462)
(310.512 -20.3014 8.08105 307.623 -24.9705 792.952)
(651.992 -61.6911 107.654 623.531 348.461 169.541)
(170.328 -31.4969 133.364 152.709 205.629 384.616)
(825.487 16.7714 -11.508 883.921 -46.0719 495.919)
(486.243 84.5344 1.81331 1158.33 74.2368 437.257)
(728.346 -120.118 1.10243 1422.36 -7.64278 594.38)
(540.578 119.354 -10.5022 953.174 16.7318 419.322)
(756.674 -76.3947 12.399 1268.08 112.676 482.184)
(677.117 -5.98532 7.73124 724.235 -7.1688 394.945)
(540.349 140.71 -26.6758 940.319 33.5694 399.607)
(1089.05 -61.5221 12.1977 1342.53 -11.8904 713.626)
(1084.02 -26.8745 14.6328 1280.2 16.6542 664.891)
(350.742 -6.63082 -21.3734 350.1 7.16498 923.51)
(290.696 -14.0161 -10.2912 296.292 -39.5834 729.558)
(254.756 -45.903 123.822 256.423 142.075 710.312)
(454.48 189.587 1.98942 598.619 15.3595 306.5)
(461.436 199.703 -26.0025 625.155 38.8603 308.573)
(27.8864 -0.722068 -2.23944 33.0718 -3.57558 77.7751)
(20.6455 -0.133667 -3.94563 24.555 -1.96499 62.9497)
(152.375 1.416 19.1991 146.256 -9.34255 336.756)
(-10.5491 -0.277154 4.59047 -17.2987 -1.02356 -48.2956)
(24.0086 -0.465695 11.784 16.7987 -5.14581 35.2574)
(-17.2938 -0.250398 -12.4015 -13.2189 -1.22537 -27.6769)
(13.4189 -0.346751 -5.497 17.2461 -3.12035 46.4436)
(408.889 153.6 -1.56232 534.547 -7.09776 282.648)
(396.857 147.888 2.68827 516.678 -7.97892 274.833)
(1041.56 -53.0456 0.00594584 1362.96 -7.31425 716.668)
(1030 -50.8018 -0.288301 1357.74 3.63434 714.269)
(540.261 -0.338993 -0.0767281 586.22 -1.16796 338.094)
(439.146 70.0249 -0.318412 1241.34 -8.45158 504.611)
(609.957 -110.373 -0.0362122 1429.64 -0.0637583 610.19)
(474.926 81.1154 -0.166 852.929 -7.38779 399.452)
(1029.47 -50.2494 -0.328115 1360.79 1.48882 716.607)
(391.086 145.416 -1.97038 510.299 -6.44173 271.007)
(201.751 -8.96225 93.4235 235.282 217.537 515.094)
(402.684 10.7462 29.6545 415.293 -10.2199 1052.76)
(8.11278 -14.6494 -22.3627 18.0422 4.28684 -17.7683)
(287.576 1.66588 -41.9035 295.135 31.5867 755.221)
(87.8949 4.32841 -51.169 81.8777 40.7831 164.757)
(-37.4149 4.78316 -12.0785 -31.1111 40.8119 -65.2942)
(71.5429 11.3803 -25.7821 63.6813 49.59 116.025)
(310.841 6.66689 -33.2326 303.068 7.14856 790.971)
(210.602 57.2768 72.9057 97.082 16.1482 204.874)
(124.162 16.0334 -37.62 113.603 41.2794 250.2)
(258.481 36.6008 19.1492 234.48 5.27876 596.572)
(235.975 -13.2415 -4.42123 264.827 4.13301 558.462)
(156.488 1.92656 32.4896 147.048 4.20541 346.248)
(38.2301 -1.67563 0.495513 43.4291 -6.44097 102.288)
(116.11 0.00621789 21.9002 110.004 2.29934 293.824)
(213.667 -7.76183 -11.9607 240.539 -9.05005 485.874)
(129.459 -0.010839 21.3645 130.642 7.7967 311.284)
(269.917 33.4513 91.4038 94.3948 12.7987 214.209)
(591.923 -8.94565 -3.4076 646.237 -4.6801 355.313)
(493.777 74.1038 -2.84248 1320.72 3.4131 528.749)
(714.64 -118.105 1.73353 1418.57 -5.65139 610.519)
(542.152 110.587 -7.09497 950.881 5.28406 429.866)
(692.676 3.52455 6.72061 737.775 -5.67322 405.389)
(686.831 -104.485 1.79903 1510.36 24.9708 631.16)
(528.769 96.6755 -7.77211 936.84 -2.61037 428.78)
(412.487 152.954 3.37982 537.712 -7.60913 284.423)
(423.501 158.888 -2.97798 551.412 -3.7099 289.537)
(1062.24 -51.9091 -0.3084 1392.66 -12.7717 731.901)
(1121.93 -46.6906 0.70366 1470.55 6.56613 768.482)
(1073.14 -58.071 8.2968 1335.14 -8.02072 704.634)
(1111.59 -47.9242 1.31058 1441.69 17.9731 752.235)
(457.927 189.551 -5.21255 598.507 10.8606 308.356)
(434.73 165.951 1.18884 565.325 -3.07814 296.625)
(157.045 0.292927 11.0935 149.285 -4.97288 339.424)
(127.564 0.199099 6.28523 120.291 -0.487928 272.834)
(117.409 0.197098 11.1909 110.911 -0.894122 251.623)
(-12.3307 -0.184756 3.88842 -18.9892 -0.847578 -51.7479)
(-18.9929 -0.0774036 1.65435 -25.3071 -0.377543 -65.5171)
(-27.1338 -0.000528322 -14.856 -23.2008 -0.283594 -50.3793)
(-19.3917 -0.100275 -12.929 -15.3757 -0.81291 -32.5316)
(-26.3268 -0.117639 -14.651 -22.4118 -0.487036 -48.5069)
(556.151 -42.128 0.354917 1531.21 -0.687478 625.047)
(-87.8253 -19.4109 -20.1443 -90.8894 -16.669 -97.9154)
(-23.0076 -9.17401 -7.58491 -34.1433 -8.79787 -22.2876)
(136.146 0.519547 11.5796 141.264 -1.45507 331.394)
(178.782 -0.0632252 20.7638 171.357 -3.37957 395.241)
(131.104 -0.0139768 10.9533 137.743 -2.48486 331.21)
(190.037 -3.2907 13.9938 172.977 2.85798 413.971)
(-55.0068 -0.637109 10.8952 -77.1987 -1.75603 -149.123)
(-30.0058 -1.32339 -0.0947923 -29.8134 -11.9247 -59.5836)
(-26.4314 -7.7415 -6.01204 -41.1855 -8.14304 -28.733)
(-39.526 -3.78951 -2.95895 -28.2234 17.891 -116.897)
(198.049 -1.67756 49.2188 192.875 -2.67212 457.528)
(139.605 0.545974 10.571 143.671 -2.88638 335.44)
(155.628 -0.265303 10.1772 157.79 -3.71772 375.315)
(190.424 0.299865 17.8928 180.362 -0.721038 415.331)
(394.149 41.0677 75.0213 398.039 37.7835 681.201)
(100.698 6.76226 23.4973 154.933 71.9503 224.188)
(200.501 -4.32305 -4.84504 242.162 56.3552 567.185)
(137.112 -0.802728 -3.48266 139.058 133.694 345.747)
(242.942 3.1609 -14.9048 306.114 17.8467 662.383)
(176.27 2.09421 46.5038 218.776 70.3832 488.817)
(56.2603 20.6228 62.1954 150.508 86.7131 265.951)
(514.719 -165.747 65.6469 357.013 102.498 1153.25)
(43.9578 -29.4834 29.9808 -135.679 368.319 310.862)
(173.238 7.97051 14.5441 -62.8448 1.48776 688.128)
(285.08 -28.3859 30.1966 224.138 58.7344 739.119)
(751.053 -155.466 52.1713 1124.17 -69.5192 1372.56)
(320.332 -9.68912 22.5099 247.858 -44.2056 830.11)
(293.465 -43.5954 27.0579 170.4 195.091 742.444)
(362.581 -20.5567 -24.0635 365.346 -43.3793 908.291)
(175.691 8.14039 4.26664 147.908 -6.05689 337.034)
(272.97 6.84086 -19.195 261.735 -41.778 625.026)
(229.666 3.03053 -16.6465 234.135 -39.0581 515.328)
(263.026 3.66263 -19.7047 258.045 -31.7227 628.516)
(200.419 -14.4898 -19.6618 191.207 -8.63799 448.138)
(308.587 -6.27185 -21.3502 300.959 -44.8738 759.844)
(130.623 0.226896 14.6655 125.932 -4.69083 283.745)
(75.3271 0.0566219 -1.75284 83.0503 -1.6196 200.195)
(80.6071 -0.122661 -0.742461 89.1873 -3.28394 211.812)
(27.9717 13.6314 46.7723 -147.086 371.06 289.39)
(173.16 -24.8305 11.197 -63.2983 4.98697 694.759)
(769.278 136.188 -25.3829 1142.92 -91.3291 1388)
(122.154 1.41373 -26.7824 150.659 13.33 300.381)
(70.3809 -18.8856 -24.6755 98.892 45.3114 154.074)
(179.033 -8.18402 -36.8081 207.354 45.1769 477.792)
(126.3 -3.53452 -9.33924 127.316 124.246 317.614)
(240.329 2.77615 -27.059 284.557 15.0858 598.732)
(129.177 -9.4488 -49.6793 146.523 36.0991 317.213)
(63.6746 -10.578 -16.2244 73.7611 62.9117 150.027)
(276.357 39.2095 -6.19529 242.655 -19.8462 534.122)
(186.202 15.8204 12.3375 150.857 -2.28985 336.041)
(246.389 16.1449 -2.57018 234.456 -28.9935 541.444)
(202.311 22.4931 29.3575 185.75 -3.26653 404.685)
(247.15 11.3785 -5.56227 237.167 -26.7025 568.711)
(269.77 41.3759 7.90803 188.868 0.781881 386.222)
(222.866 24.8796 3.11831 213.795 -8.92795 494.684)
(156.612 -13.9131 -12.9541 155.629 -2.04467 264.942)
(182.263 8.20945 7.24307 149.262 7.73757 320.345)
(177.599 1.3687 -6.87775 183.298 -15.0747 369.122)
(147.098 1.832 20.1606 127.041 -11.1033 266.222)
(199.841 -13.8525 -21.6119 195.095 2.89468 417.147)
(200.23 1.73599 19.6372 146.944 -7.13037 287.016)
(143.245 -2.75037 0.800869 139.72 -6.57924 276.436)
(300.386 28.1022 26.4956 188.949 -12.1352 299.845)
(194.415 15.4476 12.7035 152.702 6.42708 322.284)
(188.087 16.6016 48.5238 159.333 1.20007 348.603)
(159.632 8.65896 41.0541 131.682 -9.66075 279.439)
(293.497 37.7823 6.74446 202.019 10.0299 408.236)
(202.334 12.9435 -1.00898 138.391 -7.7982 270.53)
(179.903 10.904 65.0262 143.298 -1.88972 297.053)
(138.373 0.199295 7.95395 131.864 -1.51282 296.57)
(131.514 0.24325 6.84703 124.282 -0.644789 281.92)
(121.464 0.221703 12.0197 115.029 -1.23555 261.451)
(74.0932 0.0069576 -1.98915 81.6861 -1.47359 197.368)
(70.8613 0.0502342 -2.63257 78.3 -1.09656 189.788)
(559.001 96.0587 105.712 768.224 216.415 416.962)
(804.825 73.7419 12.7037 1006.2 66.4916 435.199)
(434.861 34.9413 370.507 540.17 342.154 -63.49)
(739.836 87.9148 -4.60146 795.453 47.1004 355.829)
(496.588 94.3161 164.084 630.93 193.359 256.428)
(481.402 33.5982 148.719 580.814 276.401 239.811)
(603.723 74.5157 23.3165 837.229 138.011 297.529)
(367.801 52.3201 103.689 486.029 187.84 474.209)
(34.609 -79.7195 366.633 111.19 342.879 -99.4141)
(170.083 3.16005 63.1984 206.662 112.172 375.205)
(191.88 0.220136 74.6427 196.295 161.949 370.845)
(271.866 34.4663 142.05 381.622 169.662 406.437)
(290.172 2.83121 129.121 288.25 241.442 400.738)
(223.256 3.54833 61.9136 251.393 156.591 457.107)
(-145.709 -43.1573 -40.5187 -186.768 -51.7574 -198.056)
(109.073 -1.17289 3.98949 115.827 -1.45821 275.265)
(29.3735 0.0964254 10.2033 24.9296 -0.237595 52.1678)
(102.367 0.189614 -1.00257 110.318 -2.07064 267.007)
(176.53 0.227839 19.8751 168.286 -4.18527 390.053)
(113.815 -0.487425 6.48041 119.187 -6.4293 287.187)
(128.719 -0.0941962 10.0702 134.844 -3.51913 325.091)
(30.8068 0.632632 9.70156 26.6053 0.988659 56.8684)
(86.9907 -0.474123 -2.87091 92.4865 -5.58897 225.503)
(100.581 0.457883 -1.02857 107.583 -2.83865 261.446)
(550.409 -57.6276 -3.75044 975.789 -0.757667 458.467)
(566.232 3.71733 -0.316698 610.364 -1.5584 353.305)
(677.813 -70.8671 -2.50655 926.623 -0.174773 481.675)
(621.388 -20.8302 -1.05849 743.191 -5.09691 411.077)
(628.869 -18.1477 -1.53008 748.359 -3.19578 413.576)
(683.696 -68.2162 -1.38002 926.116 0.24902 483.417)
(543.255 -60.7648 -0.682115 972.34 -7.3 456.642)
(559.212 -56.3219 2.69786 985.829 -10.7901 465.194)
(565.725 2.03219 0.0362182 609.071 -1.87379 351.734)
(643.378 -17.3368 3.99245 764.532 -4.48275 420.275)
(696.808 -67.4951 4.51338 939.184 -7.27307 490.344)
(562.545 -57.5621 2.16576 994.001 -7.02269 465.957)
(640.023 -14.9792 1.81594 760.31 -6.24679 419.824)
(690.038 -66.4348 0.715857 929.327 -3.30853 486.211)
(197.767 -5.63259 19.1619 176.976 5.69281 435.551)
(-52.9606 -3.89031 7.38654 -54.8315 4.52192 -172.723)
(-24.4575 -5.25742 -2.70755 -8.56156 -13.9351 -68.7178)
(-20.9137 -7.79634 -28.2855 -19.3597 20 -102.793)
(-52.4101 -10.3309 -1.03458 -39.6448 -18.1072 -143.688)
(-18.6296 -2.0866 -11.9443 -9.11803 16.2054 -81.8232)
(-38.4922 -1.88074 -14.1416 -31.1107 14.3401 -132.459)
(-96.832 1.39207 24.9401 -83.696 -2.30177 -331.675)
(-41.754 13.3246 18.5248 -54.014 6.69697 -160.208)
(28.5738 6.67321 14.2709 64.986 -7.96108 -42.5121)
(-24.3932 10.3712 -5.6795 -12.5771 41.4449 -42.6635)
(18.3453 19.4465 12.3382 43.063 2.00773 -15.7405)
(-37.8385 -4.80872 -13.099 -28.202 31.8861 -107.063)
(-45.0652 13.2117 4.8671 -37.6593 20.0199 -135.604)
(21.1922 10.0387 -26.243 31.5959 24.312 13.9096)
(4.44921 -2.11959 -33.946 -1.23063 30.392 -50.9515)
(2.01371 3.58172 -10.2597 -0.00104477 36.7311 -41.4544)
(-4.3713 2.22433 -9.64858 8.79389 5.96502 -41.3777)
(1.31463 20.4409 27.422 16.0066 1.85432 -56.1142)
(-19.6604 -0.257569 -16.754 -20.586 35.2504 -95.4891)
(206.089 -2.59482 51.6395 202.37 -0.157524 474.138)
(185.154 1.23818 12.8144 169.926 14.8964 443.19)
(163.127 -1.02675 11.2766 166.301 -3.61168 393.631)
(112.874 -1.01716 5.85287 118.059 -2.01956 278.666)
(101.515 -2.2662 35.6738 91.0141 -5.01685 205.364)
(126.919 -0.271051 7.17799 127.95 -2.43886 302.676)
(157.096 -2.70287 13.6521 141.097 10.8449 372.533)
(110.712 -1.67089 40.0461 98.5172 -4.31617 222.031)
(133.701 -0.961624 7.72497 135.328 -3.12908 316.515)
(567.825 -71.0674 1.68793 1035.31 -12.8254 472.162)
(557.851 -9.803 2.11594 613.945 -1.2437 340.525)
(735.029 -76.9292 -5.96319 1022.24 0.227215 513.484)
(653.065 -36.2377 -6.75595 794.331 -2.97135 424.546)
(577.359 -67.7554 -10.6912 1042.78 1.04316 471.582)
(644.277 -36.945 1.98946 786.679 -5.68689 423.397)
(723.197 -79.156 1.22413 1011.13 -8.07116 510.013)
(563.953 -67.7292 3.20919 1021.11 -9.26425 469.062)
(567.237 -5.12866 2.75942 619.094 -0.530235 346.982)
(645.233 -22.4735 7.59642 773.82 -6.76062 422.356)
(704.61 -71.0144 6.76628 959.595 -11.3789 496.482)
(565.192 -62.1162 8.45436 1008.79 -16.9489 470.152)
(641.52 -31.7405 6.31762 775.897 -3.67964 420.244)
(712.871 -76.2354 6.64518 985.177 -11.9007 503.649)
(187.723 0.563173 16.5327 178.277 -1.63145 410.384)
(124.374 0.155317 5.81192 117.148 -0.330484 265.704)
(114.467 0.151852 10.7809 107.974 -0.50928 245.243)
(66.4351 -0.013616 -3.30383 73.7763 -0.818995 179.319)
(38.3342 -0.0248192 -14.1105 45.9914 -0.711188 114.984)
(758.862 93.8715 -58.5088 774.78 -13.4315 448.155)
(319.062 95.9746 241.157 390.435 183.776 107.478)
(-441.321 2.49811 552.8 6.36329 126.964 -98.8552)
(105.012 2.78582 10.294 150.713 67.1134 165.512)
(163.878 14.6157 11.2524 184.751 74.531 332.502)
(37.314 -26.98 16.245 186.451 110.436 112.245)
(808.244 143.607 10.3306 484.677 32.4914 390.413)
(153.155 15.6111 47.9629 165.648 78.5824 296.068)
(32.4307 65.3607 118.854 155.433 61.3492 80.9129)
(322.272 -2.30174 63.291 401.551 60.5109 791.538)
(269.782 -6.27125 -10.6295 305.617 48.6569 766.765)
(337.484 -3.80759 -15.144 374.348 10.0349 905.238)
(326.319 -17.8091 29.1486 361.207 54.3334 939.774)
(356.09 -31.359 8.29707 422.238 24.3804 1052.04)
(261.591 2.41142 -17.3234 319.365 14.9078 726.937)
(255.907 -7.27029 44.9109 302.477 69.9281 745.941)
(-313.05 -195.078 469.847 -85.9362 240.138 143.232)
(-164.392 -152.938 463.437 -105.751 410.286 -17.2447)
(171.344 23.2868 82.3427 184.99 92.9068 312.516)
(244.746 -23.637 111.487 287.563 99.7872 739.561)
(68.0105 3.6473 194.1 191.651 136.003 201.047)
(330.471 -54.9747 42.9616 396.538 41.2045 1033.53)
(175.989 5.55636 105.872 212.968 92.162 470.532)
(294.174 17.5479 111.706 476.728 72.8241 168.933)
(256.863 36.389 32.9021 402.89 118.037 168.739)
(1497.84 213.881 -22.3206 850.786 85.2559 683.387)
(1028.02 52.877 22.9333 1100.37 -41.2885 670.614)
(549.649 33.9321 234.519 866.139 237.403 364.9)
(28.3893 -191.265 266.641 -33.1581 331.968 698.715)
(50.4708 -38.3099 30.2322 159.107 420.246 85.4449)
(627.602 144.327 42.2974 1308.72 353.149 474.625)
(185.173 -3.62914 44.5385 180.802 193.592 319.779)
(455.42 -164.927 114.796 308.175 342.879 408.688)
(-1316.05 -49.4246 150.428 -4059.3 1588.23 -1236.32)
(206.678 -45.989 41.7971 178.755 297.111 369.155)
(471.076 -105.474 9.20742 285.386 80.1175 1123.39)
(301.204 -29.3569 21.6849 288.042 7.62272 785.679)
(318.427 -30.0675 23.9346 283.197 -40.3603 768.047)
(377.634 -36.2743 32.1181 326.021 37.0605 1006.16)
(455.192 -55.9389 3.71937 415.358 25.7146 1133.98)
(298.479 -35.4469 -1.48942 284.794 -58.8602 821.487)
(355.347 -35.3115 44.6805 293.638 84.358 943.438)
(904.617 25.3747 1.03018 1034.51 12.3346 536.851)
(1432.53 282.653 11.61 2711.56 27.0872 1199.54)
(718.341 -80.5307 166.31 599.367 368.848 264.884)
(255.382 -164.502 127.33 231.85 215.824 980.274)
(-193.067 -185.794 458.659 -256.164 529.465 -53.6202)
(155.658 -7.33463 103.328 147.594 212.242 255.951)
(314.161 -49.3646 83.0807 264.092 155.49 833.413)
(387.122 -20.0912 192.401 783.339 211.33 344.593)
(387.113 -80.4295 17.3332 308.312 66.1062 1062.1)
(237.291 -35.3006 86.421 171.175 229.54 587.947)
(651.086 -0.649392 -31.433 1040.39 9.70403 425.349)
(834.314 24.0042 -30.5466 1059.67 -7.3783 489.208)
(698.522 -16.4909 6.63266 750.813 -16.1484 412.254)
(766.288 42.1264 -47.5461 891.17 -11.9261 434.703)
(673.68 33.6973 -31.4484 1024.62 38.1783 411.356)
(808.19 -23.0977 -18.4495 1038.96 -12.1212 504.624)
(723.985 9.18927 -24.2913 855.785 -6.95393 424.461)
(649.072 -21.487 -21.1537 1057.28 2.80198 456.928)
(707.448 -5.3655 6.7535 760.845 -13.6886 409.904)
(783.238 -45.5869 -0.40021 1010.51 -13.7991 507.957)
(722.499 -3.10011 -3.90469 850.094 -3.68759 440.685)
(794.399 -39.8255 -7.36231 1027.19 -15.7952 508.508)
(721.08 -2.67913 -14.2147 854.501 -5.34402 435.978)
(642.682 -29.4039 -9.73926 1053.58 -5.86564 467.256)
(975.141 34.6417 2.14428 1047.1 -17.1824 572.332)
(916.204 -11.5136 15.2279 1029.66 -24.4596 582.882)
(1105.91 -61.2139 14.8223 1348.85 -3.31006 721.579)
(945.163 -50.0304 12.5955 1096.53 -19.0748 596.756)
(966.954 -42.3415 -0.986148 1111.11 -10.9062 601.172)
(975.454 17.1296 -15.295 1080.42 2.64034 557.781)
(1066.03 -63.5443 24.4953 1270.1 27.2624 668.631)
(971.017 -35.0966 3.54129 1113.28 -14.0005 607.847)
(862.675 -22.9676 14.6595 991.26 -15.3079 540.937)
(896.707 -16.218 6.79298 1015.95 -17.5041 559.283)
(395.822 -24.475 -17.0063 402.828 -15.0602 1019.06)
(331.812 -1.79677 -25.2082 318.25 -24.5381 825.039)
(343.883 -4.18111 -14.955 371.715 -3.2257 913.799)
(364.843 -23.0794 11.0289 378.754 25.9444 1016.37)
(386.349 -30.4367 -0.201522 429.379 4.61204 1080.59)
(293.442 0.860194 -23.5927 294.462 -27.0635 730.298)
(364.109 -18.6127 -10.475 357.913 -11.4775 961.653)
(386.572 -28.8928 -16.1738 390.525 -37.5988 981.821)
(259.951 -4.92305 -14.6135 267.279 -43.3763 617.908)
(281.358 -29.7066 -34.4733 265.859 -44.9008 709.76)
(370.412 -32.589 8.18453 340.777 0.559628 983.374)
(436.304 -52.7587 -6.83297 418.085 9.35945 1115.28)
(219.309 -18.555 -5.68178 215.564 -12.3842 508.231)
(345.751 -21.195 -9.15129 331.5 -31.3052 889.705)
(408.39 -34.3455 -3.54118 414.22 -2.0484 1065.58)
(-226.57 -194.282 396.867 -202.426 388.477 163.217)
(338.155 -38.6784 67.9576 356.044 68.4659 970.452)
(362.962 -49.4536 58.2252 338.495 79.0917 987.252)
(363.922 -49.7376 24.0191 414.424 13.9702 1076.81)
(392.729 -67.7144 12.1222 356.495 46.496 1075.21)
(377.295 -37.1285 22.8194 368.873 22.6646 1028.69)
(793.222 114.817 -54.4385 832.873 -20.5079 449.372)
(736.649 70.5304 -22.2814 749.209 -7.02216 415.533)
(677.17 82.7932 0.612034 686.985 7.33215 386.56)
(453.051 189.709 -9.18511 600.618 22.9256 303.356)
(699.754 89.3246 -13.0504 703.357 11.0839 389.775)
(734.383 66.2102 -5.6351 731.559 1.46318 412.389)
(730.766 69.455 -12.8521 743.638 -0.408071 406.135)
(787.619 116.522 -57.7011 772.813 -6.35937 432.93)
(446.063 192.875 -3.04474 601.151 30.7755 293.796)
(639.711 75.1736 0.468033 675.233 15.4326 356.689)
(-26.5033 -1.86849 -6.6813 -26.8408 -1.56367 -63.9618)
(18.3434 0.043005 -4.31788 22.4483 -0.60441 54.9404)
(-41.2066 -0.0572467 -13.9664 -40.7635 -0.131646 -94.6039)
(18.5859 0.422395 -4.21346 22.4661 0.509348 55.5017)
(-42.6098 -0.064685 -13.3431 -42.6623 -0.457245 -99.4275)
(-40.0768 -0.113789 -13.744 -39.7797 -0.68207 -91.9249)
(134.623 0.275464 15.6631 130.184 -5.1676 291.87)
(105.892 -0.812811 4.81568 112.129 -7.1288 268.795)
(84.4911 -0.354007 0.106788 93.1514 -4.54989 220.392)
(46.6926 0.0884886 -12.821 54.6215 -1.29349 134.345)
(-1.92508 -0.460521 8.05272 -9.0927 -2.65481 -31.5308)
(51.8854 -0.195156 -11.9148 60.465 -2.80688 145.054)
(78.8113 -1.08565 -4.92368 85.0819 -6.72113 206.228)
(2.9368 -0.327823 9.52844 -4.67041 -2.95382 -20.307)
(55.8566 -0.456416 -11.0114 64.4564 -4.03502 153.728)
(-65.4286 -0.217181 -20.9863 -65.069 -0.292558 -151.592)
(-8.33392 -0.300249 -10.3049 -3.84108 -2.37584 -6.42715)
(-58.1987 0.00535744 -17.8885 -58.3246 -0.254801 -136.395)
(-44.8264 0.0907961 -13.5519 -45.1677 -0.418849 -105.654)
(-3.50461 -0.286208 -9.18201 0.888813 -2.66054 5.44365)
(-55.939 -0.192193 -16.9152 -56.1395 -0.445724 -131.339)
(626.586 52.9784 -2.0209 610.355 -5.41905 371.929)
(637.809 54.9386 2.27003 622.392 -3.92008 377.771)
(616.57 75.6866 1.22591 608.249 -3.03837 367.114)
(406.976 153.09 3.32149 530.362 -8.43764 281.351)
(615.219 76.8376 3.28447 604.593 -7.48661 366.396)
(650.792 55.2513 5.79781 637.137 -2.48232 383.657)
(644.421 57.0072 -0.936078 629.021 -6.10109 381.798)
(604.861 76.2726 1.98457 591.513 -6.89408 359.515)
(400.921 151.131 -2.31841 523.405 -7.34823 277.619)
(604.522 75.2603 -0.730097 595.293 -3.14688 361.342)
(733.665 -41.2683 5.82552 910.559 -0.661524 492.492)
(738.463 -38.6014 -5.48453 902.778 3.34203 489.5)
(866.993 -65.3704 -3.55626 1069.48 -8.2121 578.498)
(1030.78 -52.6473 0.104436 1350.38 -0.467499 709.449)
(855.25 -64.4144 5.77005 1057.45 1.11178 572.806)
(754.857 -38.1103 -5.79858 920.36 -3.23444 496.635)
(744.324 -37.7412 6.12732 912.837 -0.796312 492.803)
(846.496 -65.8289 4.7382 1062.72 1.98005 571.153)
(1028.52 -51.8888 0.0749277 1350.72 4.06068 710.384)
(850.562 -64.7167 -6.30244 1051.99 5.78045 569.478)
(671.457 -73.4607 -1.08144 924.209 -0.572985 479.255)
(610.887 -24.5548 -1.20601 733.142 -2.45444 404.62)
(534.696 -63.1813 -3.83635 965.227 -0.488332 450.501)
(729.847 -41.9466 -6.47278 905.268 2.64869 490.775)
(844.092 -66.2031 -7.13216 1060.84 3.86743 570.539)
(619.968 50.8643 2.0464 603.991 -2.99103 367.545)
(593.85 73.8435 -0.421015 582.279 -2.29325 353.844)
(39.2712 18.5333 71.7255 147.909 424.751 79.1776)
(-1332.93 -138.927 15.6375 -4139.78 1610.34 -1263.78)
(357.763 8.17347 21.5144 338.892 98.2113 925.811)
(398.417 24.0158 -1.86833 434.658 34.5201 620.455)
(95.0341 0.600358 -25.9478 115.197 13.2656 216.676)
(36.8105 -19.1078 -25.7581 55.9886 22.1109 62.4311)
(20.4564 -8.54218 -42.163 22.0389 24.7302 -0.0394775)
(-16.8701 -8.88758 -24.7222 -1.36734 -3.04175 -53.2853)
(-3.43769 -2.02234 -17.7894 10.7675 13.0201 -33.1505)
(71.8739 -9.57655 -50.565 80.77 29.7127 146.442)
(43.0272 -12.0735 -16.356 54.8882 36.6412 89.6131)
(138.686 3.26117 -26.3281 162.732 14.5185 348.288)
(239.01 -3.06153 -44.0673 259.498 41.1182 638.678)
(323.057 1.06056 -17.8393 351.49 12.38 843.788)
(226.002 4.27719 -57.0216 227.589 35.6034 569.024)
(255.449 2.70983 -27.5791 294.641 13.5807 657.826)
(230.889 10.3451 -28.9447 245.41 23.5858 558.467)
(179.864 -2.34501 -58.0047 190.175 38.8743 449.086)
(113.271 3.16871 -26.3282 129.951 14.5849 265.348)
(78.4234 16.2091 -20.4563 89.9538 21.1877 163.726)
(51.3963 -2.64058 -50.9797 47.6099 32.7798 72.7108)
(156.428 4.42011 -60.6049 151.514 38.3868 358.392)
(11.5717 1.69888 -18.6858 25.2697 6.71645 3.43178)
(196.015 12.1544 -33.9922 206.284 21.7527 453.041)
(112.944 -2.73974 -59.5145 115.523 36.5861 250.469)
(25.8826 27.1556 1.33196 59.3898 -4.05563 -50.7161)
(1.63653 5.62074 -7.67386 2.4352 53.0295 -19.0015)
(12.1605 28.9556 19.0407 39.2705 -7.78171 -45.5053)
(120.885 32.3828 37.2816 96.4527 53.8424 170.708)
(257.858 124.573 -3.06147 215.518 7.53748 257.445)
(84.7758 23.9263 -12.0267 96.3701 28.8599 147.716)
(33.2207 10.941 -7.60528 26.1413 47.7037 11.68)
(113.842 35.0943 7.95496 87.8381 39.7127 158.183)
(30.8404 30.2961 -9.40125 51.1814 29.4915 10.3692)
(182.832 84.8321 -5.89492 190.859 9.64446 238.275)
(305.316 32.0791 -8.35002 292.984 -22.1658 657.789)
(293.499 11.8761 -19.8188 278.108 -20.3634 704.309)
(331.901 1.99576 -13.2137 353.104 -2.21184 857.371)
(253.381 13.3624 -47.4017 246.72 17.309 631.514)
(275.135 8.51998 -7.11725 271.697 -27.073 663.25)
(256.153 14.1145 -29.7493 264.908 9.26721 604.688)
(248.315 20.8192 -24.852 239.123 -3.15197 598.886)
(253.529 50.909 -23.1866 207.831 -1.83189 447.447)
(210.603 31.7541 49.6309 163.296 14.9258 356.374)
(416.655 88.656 -13.3508 141.441 2.76352 328.279)
(186.845 48.0048 43.2238 140.854 40.1477 285.21)
(249.96 110.336 22.9025 199.633 13.1614 272.262)
(282.089 48.6209 0.932419 184.635 -7.23289 364.803)
(206.588 34.174 9.4291 180.453 17.9689 403.283)
(215.57 39.1499 -41.5761 203.497 6.19549 432.087)
(104.071 23.6931 -13.9364 117.216 23.0845 198.621)
(188.737 14.0816 -51.7072 176.955 28.3235 429.245)
(151.313 30.3036 -4.46634 139.181 38.38 288.329)
(218.799 18.4252 -36.9213 226.83 6.15399 497.674)
(194.461 79.0745 25.3492 185.468 10.2178 268.13)
(199.931 25.4675 -28.8653 185.617 19.3815 433.124)
(222.182 -2.09105 -0.926572 420.44 63.6523 421.324)
(291.559 23.466 -34.7657 295.35 123.522 715.25)
(201.899 1.91668 7.79618 183.282 21.5267 463.39)
(294.777 100.825 -14.8188 421.615 52.0929 543.882)
(219.856 -6.04891 -17.109 214.302 19.5638 501.998)
(226.528 -15.6084 -3.23112 408.196 52.7344 412.003)
(182.423 -4.05372 16.9035 166.064 13.6623 409.734)
(166.773 4.73039 -12.5216 192.477 25.3407 365.196)
(196.415 -7.03695 -7.90441 342.572 20.9522 337.558)
(201.875 -4.20586 -14.4829 199.477 13.2351 465.103)
(20.9432 -1.9996 17.4841 12.1137 -1.6226 19.4017)
(91.1822 -1.96808 14.362 95.1922 -6.56089 229.1)
(64.4163 -1.96585 45.8866 49.2975 -1.90781 98.8099)
(101.748 -1.47369 17.7737 104.707 -4.88963 252.879)
(109.114 2.68499 60.6362 92.6053 -0.825037 204.22)
(109.691 -2.13077 69.6573 87.5192 -3.40523 181.268)
(160.81 -18.5828 -3.83581 201.492 15.207 304.007)
(192.108 -2.46897 -7.7279 211.973 -13.6371 420.86)
(193.669 -17.9361 -25.7576 211.481 -12.9112 458.605)
(166.835 -3.74129 -12.7469 190.105 24.2035 368.734)
(220.006 -19.588 13.6029 222.071 -8.63835 472.733)
(172.646 -14.6172 -19.3175 242.196 22.4116 356.44)
(149.856 -6.01577 -7.46514 163.652 7.87981 314.43)
(140.113 -24.404 2.00511 184.907 -5.5454 206.053)
(114.899 -0.275108 34.8838 107.118 -21.1014 221.84)
(168.423 -1.90792 14.3053 117.659 -16.6826 218.547)
(113.503 -1.58062 3.35367 124.531 -8.09126 226.222)
(146.286 -23.5395 -0.647683 222.14 -0.860993 220.563)
(153.289 1.70712 -12.2503 179.113 25.0475 333.216)
(72.6075 2.45585 30.459 70.8979 1.98199 159.332)
(183.395 -14.3606 -5.26978 320.604 9.40913 313.911)
(120.151 -0.512532 -3.4061 135.089 2.2142 244.314)
(346.469 26.2933 16.0047 204.225 -3.87903 300.172)
(219.127 23.4728 82.5279 143.225 9.1727 302.047)
(461.093 58.2407 8.26594 177.741 15.4801 402.955)
(316.16 -1.89601 128.251 121.562 -21.0931 137.988)
(315.545 42.2624 19.6231 174.978 2.47106 330.321)
(498.038 15.512 15.8427 247.72 -6.32391 315.277)
(224.121 11.3891 101.336 141.139 7.1833 264.642)
(286.526 22.8113 27.012 170.633 -23.5221 239.283)
(121.697 3.19124 45.3179 111.985 -17.6913 232.623)
(180.402 10.288 1.87777 113.951 -20.9724 215.862)
(146.749 -1.31503 85.1671 127.467 -6.93066 261.548)
(345.076 21.1625 25.5207 198.926 -16.6697 252.948)
(306.536 0.732833 135.481 95.3245 -26.4505 102.244)
(460.3 19.4935 -2.76424 204.954 3.22613 135.898)
(203.568 3.82025 112.464 115.525 18.113 210.506)
(615.909 -45.4954 -17.6093 1051.68 8.49814 477.59)
(660.073 4.3352 -1.97945 708.026 -4.45216 394.904)
(748.491 -67.3265 -12.2991 1019.17 5.38722 513.354)
(677.657 -25.0084 -11.1117 814.578 -4.40875 434.186)
(596.187 -58.5177 -12.7283 1051.14 -0.691027 476.924)
(759.867 -55.1396 -11.8204 1006.83 6.14733 511.272)
(698.458 -12.8155 -13.1139 828.069 -0.972007 438.429)