/*--------------------------------*- C++ -*----------------------------------*\
| =========                 |                                                 |
| \\      /  F ield         | OpenFOAM: The Open Source CFD Toolbox           |
|  \\    /   O peration     | Version:  2012                                  |
|   \\  /    A nd           | Website:  www.openfoam.com                      |
|    \\/     M anipulation  |                                                 |
\*---------------------------------------------------------------------------*/
FoamFile
{
    version     2.0;
    format      ascii;
    class       volScalarField;
    location    "0.107/solid";
    object      sigmaEq;
}
// * * * * * * * * * * * * * * * * * * * * * * * * * * * * * * * * * * * * * //

dimensions      [1 -1 -2 0 0 0 0];


internalField   nonuniform List<scalar> 
3124
(
290.585
13.8119
233.236
791.891
228.426
24.25
242.546
812.86
230.428
200.361
515.04
794.082
232.254
150.738
173.535
215.442
382.983
165.993
180.172
805.841
159.344
157.097
149.173
329.536
270.861
559.079
514.018
627.892
340.77
461.925
46.9072
200.785
36.1335
228.965
459.768
834.919
783.528
245.774
836.397
451.027
590.986
306.678
70.4437
81.0861
93.424
338.315
62.63
185.343
264.645
828.492
467.769
855.113
245.115
898.208
478.053
213.317
147.284
137.877
44.6519
160.379
563.47
411.009
442.206
458.997
487.291
793.913
482.896
372.689
724.569
797.524
528.087
730.285
309.156
548.625
559.093
547.739
574.533
442.475
565.373
415.396
448.777
48.0836
41.2054
191.144
35.8074
27.5008
25.1556
33.1528
344.279
331.201
567.341
564.233
228.648
781.163
841.566
443.863
564.712
326.373
507.143
646.419
56.7858
472.74
138.951
80.5971
110.228
487.768
197.077
165.701
358.048
310.1
202.781
62.6978
184.822
261.456
185.467
230.316
268.564
820.169
788.414
512.333
312.72
872.799
495.542
344.254
356.717
579.681
613.473
558.127
603.81
413.986
369.886
187.566
149.439
138.945
37.1915
43.8094
36.1883
27.2954
35.1969
945.327
57.1101
28.1038
193.799
223.259
197.829
234.312
87.3404
36.2277
26.0034
89.5443
275.674
194.764
219.418
232.185
327.909
169.758
361.345
311.106
393.797
327.978
261.779
812.501
750.822
665.759
503.028
623.507
556.539
627.742
552.221
177.903
366.752
292.884
373.701
256.407
463.314
157.791
121.262
127.266
751.616
673.509
611.427
173.747
120.363
303.292
288.129
342.724
209.71
140.309
286.662
173.84
306.667
220.719
330.653
186.689
280.283
113.752
158.908
190.923
136.313
224.227
127.727
135.559
131.435
157.316
197.743
155.063
191.703
117.423
180.014
162.157
154.609
144.833
119.736
115.493
543.488
530.722
1038.57
449.241
572.371
625.458
543.331
398.796
899.507
292.695
355.886
407.234
487.201
366.057
144.313
163.099
30.8731
160.862
220.586
171.482
194.263
33.0583
136.285
157.57
488.383
238.184
405.294
293.37
295.601
401.742
489.917
490.754
238.683
304.127
406.574
497.252
300.406
401.065
251.418
119.97
60.0224
103.036
104.722
76.9017
103.949
245.553
120.109
99.5096
79.1315
64.9509
95.8451
103.536
66.1715
95.0176
78.7893
49.3038
88.7545
101.246
284.396
268.154
229.857
163.622
126.072
175.736
225.943
137.017
182.585
536.716
250.747
461.585
329.487
539.587
323.611
456.869
524.811
250.451
310.955
420.783
510.515
316.129
439.192
229.346
145.428
135.437
109.557
77.1084
372.807
606.95
1062.79
129.761
207.45
237.162
457.644
212.02
279.29
460.772
487.88
551.187
607.041
669.052
441.117
490.265
1051.47
1111.74
257.006
542.517
430.224
686.957
369.367
355.167
301.623
845.907
417.025
728.218
1071.46
739.047
1016.62
370.339
700.585
3923.42
555.091
796.249
495.415
478.076
664.316
707.662
543.187
645.778
449.76
1493.48
822.439
901.466
1268.03
422.213
631.409
649.533
740.561
578.554
541.887
502.342
318.407
423.658
542.934
467.467
385.657
533.61
328.72
443.626
363.005
456.232
371.263
524.094
448.24
405.808
558.597
454
461.565
480.533
544.8
456.201
405.401
412.5
622.455
503.853
557.2
647.764
675.866
440.759
602.132
599.596
363.211
450.188
630.994
694.597
293.533
555.32
657.036
1087.01
649.01
664.744
696.054
715.897
661.147
427.949
351.948
328.83
419.611
349.332
340.635
353.125
414.263
430.492
330.28
39.2726
35.5386
58.8249
35.9049
61.319
57.2001
162.052
160.575
132.021
86.8853
30.5285
91.6751
125.249
26.8364
96.0433
93.6855
18.7358
84.0541
65.0449
18.2885
80.8028
263.63
270.12
278.279
342.144
278.019
277.808
273.911
273.322
337.652
272.031
370.581
366.721
442.388
562.501
436.259
375.894
372.064
441.796
561.833
434.725
406.938
290.759
490.627
367.82
440.966
260.271
267.085
752.837
3989.43
603.556
218.823
123.692
71.3114
88.554
65.0325
54.5614
124.781
83.821
205.462
403.599
508.509
361.573
387.982
327.514
290.611
153.678
99.0773
107.66
239.383
39.457
262.407
182.289
108.737
95.6602
96.9959
142.511
220.294
89.5331
87.8703
111.406
82.9288
157.054
365.385
422.102
515.73
392.075
393.126
349.303
359.708
240.732
203.632
288.735
183.49
206.804
177.908
221.927
244.004
108.329
268.028
166.783
284.285
164.833
251.98
227.272
478.511
274.182
292.987
288.683
206.916
239.003
193.381
149.356
266.709
31.6812
138.723
90.9436
153.062
148.127
147.671
134.569
221.209
263.144
197.214
255.506
170.593
159.582
72.7449
131.589
95.3609
108.728
85.455
175.315
102.398
137.551
117.623
136.67
203.146
279.812
292.63
169.075
227.831
207.946
124.891
143.551
98.3724
194.098
143.227
316.8
297.989
217.677
525.988
292.33
454.251
337.145
535.003
440.271
345.15
519.337
295.75
433.588
358.986
519.163
431.687
353.575
286.959
275.855
283.953
344.642
284.725
278.356
275.695
294.562
347.373
294.336
412.189
405.165
448.432
595.379
477.826
381.797
402.253
492.493
608.639
484.919
417.087
405.527
451.983
565.677
454.197
405.16
404.131
491.347
583.514
459.569
296.281
319.888
325.203
403
320.733
339.978
328.442
308.288
388.194
309.205
169.514
151.964
143.466
110.601
114.199
85.6207
40.2865
81.9245
77.937
41.1586
80.8825
105.658
96.1048
31.3692
100.494
32.466
104.467
101.568
23.3704
6.83785
9.25992
38.6795
23.9812
12.1577
24.2798
43.7452
31.9299
26.3103
60.1118
36.5904
37.5082
52.3456
288.699
373.451
341.99
376.947
362.829
334.872
338.762
527.157
369.712
454.295
353.968
408.959
435.403
463.019
444.658
457.922
633.499
435.983
545.749
540.219
418.862
51.185
38.9138
42.1162
36.6089
29.9256
36.3029
330.306
233.049
276.387
262.841
262.811
275.829
330.565
334.308
241.294
273.861
287.177
340.269
273.522
285.752
480.4
585.538
85.2288
76.8296
99.8751
76.3217
96.7799
62.8281
84.2808
75.1609
162.977
163.273
123.756
376.602
255.458
314.343
296.365
379.97
293.175
312.809
351.391
248.285
279.083
291.595
344.984
277.958
293.256
49.3473
45.8189
50.9746
277.405
405.793
351.564
512.75
426.371
400.911
328.355
394.501
465.61
386.794
371.144
392.855
317.848
350.879
341.772
353.724
341.466
386.501
458.053
378.231
366.802
372.562
352.93
321.467
293.621
301.726
15.9662
42.5206
15.6598
40.0377
17.1272
15.996
40.9861
35.0267
40.6517
17.9401
22.8117
11.0984
56.3545
22.7173
52.8983
21.8601
28.0119
25.966
211.688
214.381
226.673
223.409
287.435
291.769
303.097
298.755
329.489
272.839
224.331
258.753
330.867
272.263
258.091
287.499
283.269
209.969
206.526
68.2924
70.4971
95.1679
67.9886
81.2355
158.711
173.395
246.882
345.987
308.08
246.868
343.626
210.639
296.24
206.212
199.102
214.518
24.0607
84.9984
40.0688
177.133
137.982
129.549
183.535
148.766
155.13
379.993
279.163
323.184
305.338
378.682
323.149
308.744
380.439
303.924
346.562
335.356
385.228
344.05
334.899
242.545
234.506
225.769
228.175
333.56
322.554
306.265
307.439
333.007
345.861
364.811
358.795
248.293
257.245
295.206
287.21
42.026
38.6129
43.7836
48.5954
43.3369
48.3956
36.5017
68.903
68.649
59.0672
28.3188
59.6988
33.9012
67.7523
65.9248
13.6587
61.637
73.8349
28.2041
21.1156
11.2433
14.9385
32.5576
219.736
227.743
192.97
196.261
227.732
198.067
220.892
219.404
201.399
198.464
216.808
202.034
217.483
218.495
211.896
211.93
229.864
214.798
160.6
262.836
232.791
31.7557
12.5215
28.3002
17.2285
68.9994
22.8195
99.3871
92.3896
142.551
76.2075
62.9081
102.481
131.385
53.8373
87.5765
157.933
85.2516
261.946
240.375
191.151
200.707
243.226
196.723
255.67
277.658
217.07
282.462
209.527
291.335
206.128
269.873
214.179
217.85
222.786
226.824
338.169
452.537
353.632
287.404
285.356
402.658
352.438
256.164
301.105
275.261
315.097
250.63
280.223
302.49
346.534
403.779
386.064
329.967
337.249
404.423
335.095
242.283
295.735
230.967
292.338
217.249
271.874
280.831
802.973
733.442
827.99
741.545
694.325
1019.2
719.16
404.357
491.867
442.956
540.18
388.224
488.524
454.312
252.794
193.292
233.07
193.137
229.756
205.364
262.555
350.492
433.299
294.987
374.89
311.255
340.262
423.977
294.795
338.236
217.909
273.981
236.562
296.408
334.468
150.638
146.98
121.587
122.689
148.753
123.354
148.532
152.192
127.601
153.809
124.583
155.461
124.72
150.764
209.057
235.042
182.197
136.922
159.565
231.333
192.405
195.126
280.016
251.138
248.11
225.618
215.928
243.952
261.822
291.262
341.989
289.558
303.915
294.917
243.845
152.501
124.143
149.928
196.761
117.989
172.624
198.964
258.098
301.356
239.147
290.842
246.177
306.753
253.316
215.716
186.798
216.544
179.514
212.593
199.188
210.165
268.731
303.928
264.657
330.562
277.207
246.689
316.534
215.186
211.954
191.052
199.434
202.653
215.719
214.246
146.97
155.544
165.088
144.519
158.217
146.373
138.963
154.184
190.382
184.611
208.936
177.829
151.174
186.829
125.852
81.6009
139.734
113.248
125.113
109.572
103.432
154.968
147.654
122.685
142.444
141.485
154.14
134.392
164.39
158.469
169.074
135.989
175.041
152.087
145.445
174.132
170.158
188.374
182.683
183.2
166.151
173.772
141.385
111.012
124.695
119.778
134.69
123.853
121.56
146.978
148.853
152.129
148.909
147.114
144.112
141.993
144.286
145.915
145.349
120.47
118.267
147.76
118.637
143.944
144.948
115.809
141.2
116.748
143.362
117.416
142.413
546.527
335.768
653.953
651.218
772.301
395.026
386.216
432.036
304.884
515.455
544.917
648.076
346.738
304.078
163.742
105.832
97.0563
179.623
163.328
182.249
106.831
91.4698
32.7423
35.951
36.7383
97.2404
179.529
162.816
85.8865
181.657
97.258
87.5073
206.125
196.594
172.849
180.786
183.244
198.21
204.429
211.851
197.792
214.078
188.572
215.701
191.43
210.312
36.4162
39.5984
39.6158
85.519
69.8974
151.411
145.079
161.035
84.4049
78.0621
95.2421
174.627
85.8095
152.132
97.0664
168.192
83.0259
329.194
232.796
266.298
278.692
330.745
265.099
278.515
332.908
242.52
270.828
283.086
331.182
270.874
282.462
491.673
225.289
227.049
266.991
116.701
96.3542
89.0899
94.4023
110.69
116.269
104.891
123.727
232.234
117.02
178.253
170.881
152.339
143.513
104.168
155.669
89.2347
118.172
136.244
105.753
91.571
110.68
94.4302
115.788
97.0401
92.9171
82.9496
122.723
78.9223
108.72
124.093
83.9585
67.474
68.2746
66.15
90.2693
70.3552
72.6186
109.832
116.77
96.4949
100.819
127.042
104.124
113.74
82.3943
82.6248
73.6838
111.394
65.3609
97.8159
87.7721
76.4897
69.7602
48.1494
70.5472
72.1078
84.599
60.8994
77.3857
66.6258
120.14
84.5505
97.39
75.4821
80.0731
329.021
332.898
291.346
258.058
257.267
365.229
321.389
318.817
227.625
293.93
243.409
302.183
246.329
306.6
115.979
102.891
179.397
165.963
180.172
117.816
106.551
107.157
89.4304
83.7355
116.817
193.547
170.151
108.479
185.884
118.486
107.904
141.32
173.523
263.862
210.117
227.038
199.546
140.614
151.635
95.0272
106.732
133.967
199.375
194.795
111.562
217.032
116.194
121.928
375.958
254.953
288.487
304.712
370.459
288.646
308.074
356.042
245.992
281.614
300.539
364.835
281.744
296.143
192.692
209.049
223.381
216.066
137.2
134.813
133.61
134.736
136.085
134.664
109.997
108.56
108.857
137.243
133.74
135.457
107.082
132.212
107.631
134.656
107.958
132.87
40.0674
40.8775
91.0619
76.1213
89.8997
39.7652
41.5507
46.7942
52.0263
40.2415
75.2746
89.0346
41.9412
1060.64
354.392
443.866
301.527
465.227
259.838
348.402
439.685
306.139
390.636
659.445
638.242
569.23
401.804
1167.65
521.952
202.564
1242.38
299.229
750.913
205.14
253.999
679.384
216.762
364.773
168.836
240.516
144.496
328.57
150.424
548.264
587.684
517.382
472.405
501.08
566.863
555.754
583.401
561.198
597.115
522.357
566.006
599.874
543.599
613.086
635.555
634.576
656.597
594.239
628.463
636.793
529.826
464.305
459.08
491.199
488.918
529.072
494.496
465.435
1160.99
607.045
470.711
972.1
333.754
543.917
411.659
413.617
857.761
1021.4
258.849
1062.57
641.908
306.046
694.434
495.56
357.084
258.578
907.726
264.282
596.667
623.923
749.257
652.818
891.989
624.715
683.24
541.649
1778.74
465.023
628.217
309.053
309.11
254.764
306.471
493.682
110.773
604.534
232.544
268.006
330.971
408.456
327.64
387.645
487.327
350.046
467.786
532.066
1561.54
321.474
1439.41
526.582
900.814
490.752
446.421
470.863
1350.05
2217.35
851.319
758.983
2096.16
510.358
289.901
753.379
916.582
491.05
683.031
1208.11
304.565
705.672
3414.44
1232.72
3103.42
939.15
3297.09
1038.43
697.94
766.347
768.365
760.969
737.902
722.598
739.646
587.622
444.921
594.442
403.453
569.771
552.229
429.265
684.47
730.849
691.484
717.649
708.359
738.187
665.795
1458.99
476.261
175.611
1785.25
917.46
3818.51
4874.84
2558.13
727.668
1429.26
767.75
828.795
1141.89
645.175
737.521
589.59
448.139
1245.73
1134.08
304.662
1344.89
696.413
457.017
1165.77
864.358
332.283
321.582
1304.74
354.593
739.152
764.973
702.327
717.879
788.082
746.062
718.017
416.769
337.531
365.712
353.284
402.327
368.951
358.602
395.198
315.798
361.198
350.732
404.455
359.166
348.341
428.616
426.916
419.914
412.755
394.47
370.763
402.659
388.762
413.971
394.053
403.306
401.945
516.654
578.891
580.459
511.83
492.836
564.326
500.549
562.3
390.497
615.513
532.008
509.509
513.475
516.918
441.553
554.37
387.386
371.219
388.192
408.211
390.548
390.881
391.416
394.956
396.557
408.13
392.894
391.031
619.902
659.687
568.118
624.018
575.455
619.135
658.899
600.314
570.825
605.271
539.044
611.993
593.485
554.192
649.998
669.93
646.226
681.495
657.17
638.101
680.424
560.341
507.242
457.57
502.089
512.929
565.495
509.855
552.738
641.775
492.045
593.475
505.707
544.131
632.561
480.434
441.672
538.963
371.404
540.5
468.978
374.429
598.32
671.956
647.86
700.814
650.644
594.477
669.665
425.884
376.435
303.372
322.139
382.039
418.498
333.608
703.393
677.698
682.245
662.226
683.191
688.563
688.214
682.924
655.577
788.464
815.306
716.164
726.866
728.943
697.749
685.873
719.542
690.699
694.777
701.411
689.207
708.381
695.62
707.541
718.349
715.727
688.534
698.103
307.156
323.226
380.829
368.661
379.839
391.93
397.375
348.188
383.755
371.107
349.425
327.717
364.321
334.287
358.738
368.854
306.792
347.802
349.307
309.741
253.726
291.605
256.747
290.537
299.419
335.893
341.966
300.085
252.468
296.819
257.313
289.144
311.037
300.996
353.893
322.275
337.729
347.305
320.432
351.126
347.696
355.723
361.294
333.874
339.738
327.688
362.464
358.386
313.145
326.595
361.034
291.206
253.448
322.434
266.616
311.284
320.059
342.681
322.52
361.428
266.244
299.388
253.676
307.66
37.9378
44.2134
40.0143
37.0605
16.1159
16.6072
55.576
44.4691
44.5983
39.7805
16.3985
15.3451
48.0263
55.5125
43.1546
44.6495
57.32
41.5363
177.095
186.633
162.065
149.231
188.157
149.353
175.933
167.319
131.815
158.795
139.252
159.817
139.714
166.107
42.8588
39.9863
101.728
87.889
103.27
42.1082
40.3069
33.3896
35.8118
39.4469
43.1831
107.275
89.3951
40.1447
104.517
44.2831
40.4788
56.2933
59.1097
141.932
113.171
67.1759
128.291
48.0527
24.0112
30.602
22.2109
49.5388
111.029
103.161
40.6207
119.491
44.978
42.5495
91.209
88.4623
86.8337
20.2794
46.0918
49.3525
86.2165
81.3268
83.8533
55.4982
69.6564
61.2858
21.6223
40.4005
33.656
73.6207
76.4602
68.398
218.761
214.669
271.349
248.037
262.24
276.16
246.686
277
270.661
271.94
279.171
251.078
262.973
247.354
274.813
276.413
252.061
283.329
285.718
249.575
213.079
237.056
213.064
236.714
251.887
286.727
285.815
251.646
212.743
233.119
210.575
234.822
221.286
224.008
279.911
257.759
272.686
286.501
255.199
283.959
283.026
279.128
282.22
254.938
272.25
253.9
278.22
283.487
245.39
280.331
279.663
247.067
206.272
225.546
203.741
227.585
246.59
278.817
280.69
243.248
207.802
231.244
208.66
230.283
295.763
290.382
324.414
367.781
342.129
323.59
344.909
347.273
325.785
370.192
326.451
343.554
535.552
614.564
540.132
609.519
533.944
607.508
532.454
608.045
295.221
299.114
335.469
374.106
355.019
333.873
350.519
346.233
331.081
369.152
329.731
350.573
527.276
602.09
527.195
601.326
528.941
602.563
529.183
604.039
321.02
342.422
368.434
320.565
340.308
524.536
599.923
525.624
598.95
264.861
244.013
273.083
254.344
267.888
241.087
270.545
202.268
224.027
201.733
224.1
239.935
275.531
240.483
274.654
201.163
222.535
1274.36
3202
1073.22
544.868
1758.83
3965.36
2649.24
597.606
598.423
581.548
583.481
615.08
540.83
535.774
561.151
544.592
1350.15
292.447
640.285
927.519
642.666
649.273
659.899
652.851
672.521
675.302
664.763
670.653
612.99
615.442
637.309
628.654
671.46
664.37
644.728
658.043
74.8828
69.3576
121.709
90.284
109.656
87.959
49.5632
63.1373
41.6374
69.5373
68.9628
84.2933
57.5283
37.9667
67.763
80.549
103.214
44.7158
79.5097
50.7234
75.1821
316.277
270.797
248.836
230.191
287.026
317.94
261.528
436.888
506.215
477.042
450.737
488.751
414.673
462.226
388.435
330.404
408.681
441.325
354.63
440.205
379.003
367.573
285.294
398.088
341.164
356.119
308.925
394.603
142.218
94.1397
193.489
164.909
127.303
117.636
188.033
113.094
116.24
69.9272
127.994
92.6374
101.096
130.611
82.3568
54.0873
47.6211
58.2446
68.8708
78.9524
70.9609
177.186
224.295
184.429
260.659
152.072
233.961
203.533
105.311
83.1499
76.6842
85.5542
81.6356
65.6972
67.6167
74.5358
96.402
77.8519
93.8682
76.5338
73.4857
88.5455
74.5319
102.424
66.9394
79.2479
71.3073
68.2693
74.1184
86.7933
72.4379
328.178
317.264
139.684
142.866
164.98
104.953
145.006
188.973
133.885
231.419
216.226
274.041
191.718
239.78
195.597
232.859
122.801
129.397
162.412
123.622
111.949
166.971
90.4485
107.584
82.3022
97.1632
106.366
83.8153
104.322
95.6279
151.729
116.178
149.805
105.097
144.672
119.341
106.717
85.2765
88.4435
104.333
125.985
92.0294
398.041
368.583
384.322
344.815
363.867
409.232
370.807
469.67
516.408
496.843
464.26
500.521
477.036
454.549
432.382
366.042
406.6
455.947
386.122
456.655
422.665
419.021
356.762
418.583
361.052
415.06
420.525
375.24
207.054
184.303
216.246
259.499
223.495
189.753
195.008
203.701
298.813
278.424
216.869
254.815
205.293
222.176
206.93
171.33
263.721
194.564
245.254
201.012
180.38
193.296
198.715
181.62
175.038
194.299
185.561
191.999
153.31
127.036
142.495
122.751
151.72
131.523
149.332
212.143
291.021
201.444
280.063
219.058
188.767
304.553
147.023
140.668
135.13
161.317
138.093
121.597
163.221
376.608
270.275
260.284
257.925
290.547
305.114
335.335
427.646
343.252
274.277
266.228
342.792
353.017
332.594
338.898
312.962
316.885
471.113
331.165
738.561
393.103
387.516
259.713
306.846
269.646
280.202
320.233
313.765
249.285
229.677
185.506
236.528
206.399
297.889
206.452
312.166
214.08
236.805
243.112
193.416
311.793
249.807
213.049
174.246
175.828
214.514
195.051
170.154
203.94
188.818
170.452
161.274
161.837
177.484
186.774
142.906
265.752
240.132
247.754
239.414
295.01
213.976
231.628
18.8344
40.0109
9.32431
113.166
88.4143
64.78
73.0791
40.8161
20.3474
168.937
105.486
120.883
102.911
164.722
93.4244
65.7672
168.028
82.9263
164.116
202.206
216.045
237.307
183.604
236.891
133.393
45.976
58.9236
57.0882
70.6013
55.1498
44.1089
52.2521
78.3942
134.334
103.217
118.067
90.8062
93.0571
108.318
57.6544
63.2206
91.3391
75.7103
74.4069
47.3138
67.7776
64.4279
84.9303
107.851
85.7611
77.5485
60.7806
91.9424
81.8491
107.631
81.4833
76.1639
103.202
97.0771
65.9726
120.003
161.906
155.2
153.814
150.796
128.237
140.623
125.28
95.7983
132.892
101.456
117.649
138.928
140.97
123.328
118.854
113.178
89.3956
89.2457
135.967
94.2258
108.712
68.74
119.323
183.537
147.575
171.006
139.189
143.787
180.406
174.527
216.279
318.924
228.799
266.137
238.092
271.002
206.887
93.6426
108.575
136.456
130.628
113.617
110.352
117.5
103.734
148.984
110.083
156.919
118.282
95.9026
157.05
75.2323
97.1029
92.6973
79.2113
96.6306
66.0434
95.0916
122.637
157.863
175.306
175.803
138.8
149.789
166.146
194.168
179.385
161.531
145.789
202.417
186.322
145.722
239.595
243.555
275.556
247.73
290.073
250.044
229.27
376.915
282.246
332.041
318.948
378.378
329.571
314.463
380.153
304.248
337.023
326.511
377.744
339.6
328.909
228.864
233.871
292.47
277.148
275.852
306.256
271.726
300.208
299.882
290.931
298.108
271.41
274.06
268.741
287.555
299.359
255.823
295.043
292.756
256.885
216.636
238.821
213.518
241.492
255.989
289.83
254.102
292.119
216.407
246.605
218.192
244.472
230.3
225.531
285.018
262.011
274.114
289.284
259.072
284.013
289.776
283.647
293.35
263.026
272.551
262.445
288.345
290.812
264.881
300.144
302.81
260.809
225.812
257.837
226.772
256.173
263.909
306.453
302.463
267.917
223.204
249.4
219.532
252.882
318.697
321.748
364.071
415.495
387.896
364.654
383.493
377.916
354.728
410.732
359.55
382.007
549.181
616.337
542.589
624.074
550.182
632.937
623.839
558.112
313.254
310.711
339.79
387.384
358.321
343.154
362.851
371.642
353.124
392.137
345.77
367.703
565.293
640.294
643.039
565.355
563.472
634.342
637.127
557.831
353.049
343.954
372.841
408.537
385.441
369.698
389.619
390.347
378.099
410.514
376.662
386.564
530.858
595.259
528.224
598.185
540.288
619.581
608.053
547.853
351.21
357.525
385.798
392.185
404.1
384.558
391.852
391.145
379.16
404.606
382.853
391.83
560.04
641.708
633.749
565.787
559.819
618.646
633.706
549.173
271.672
260.889
312.729
286.384
301.716
313.998
288.077
307.107
318.202
316.132
325.167
298.008
306.318
291.469
323.983
319.127
297.378
325.657
330.627
289.441
255.681
293.897
256.686
291.265
296.376
333.392
298.523
331.528
254.365
279.333
247.681
286.983
277.542
286.726
337.709
316.84
343.745
331.371
344.982
313.028
339.008
335.981
332.341
307.061
329.902
307.774
330.59
336.34
279.992
320.303
317.224
286.318
235.279
260.153
232.01
264.042
280.855
313.594
273.933
318.137
240.645
274.143
244.191
268.594
181.714
167.533
154.11
160.278
137.208
138.992
142.147
139.098
139.435
135.795
110.947
111.631
138.104
112.126
136.9
140.634
114.819
139.759
112.924
142.366
113.29
138.389
41.3553
39.9573
100.643
84.2209
98.8565
41.7806
40.2442
39.8746
45.1546
44.9078
41.0851
96.2745
82.9042
40.145
97.6457
40.5986
40.333
40.2403
40.7021
91.8661
78.6786
39.8624
92.8403
40.8442
42.4052
45.9669
47.5347
40.3969
95.3462
79.7257
40.241
93.9295
40.4186
40.6926
37.388
69.7593
103.142
104.167
102.03
105.211
103.116
93.6882
95.6862
93.5394
29.9851
63.7863
61.8354
97.5927
98.2682
95.5741
32.921
65.1364
64.9617
102.03
101.007
99.2978
99.5225
100.616
98.5801
639.236
634.434
631.844
633.165
629.867
629.632
629.841
630.451
628.436
627.407
626.104
242.684
244.311
227.542
258.888
258.287
246.54
234.417
299.942
253.932
259.221
275.342
279.672
293.576
275.311
169.486
152.436
170.43
158.107
171.527
167.315
159.724
164.23
147.525
168.575
156.349
166.286
167.527
154.895
582.052
581.469
642.827
740.271
720.427
629.707
626.859
224.455
210.931
217.688
208.141
226.357
217.428
215.868
684.435
873.152
631.384
826.513
692.845
864.979
624.634
682.455
636.864
829.29
865.11
862.183
628.504
684.755
1007.36
370.75
314.856
415.802
351.733
354.555
407.718
341.954
724.689
889.052
651.823
880.274
707.297
905.24
678.306
735.929
701.759
913.7
899.493
916.438
736.442
700.735
153.568
136.754
157.873
145.072
157.099
154.945
144.116
992.305
983.956
983.514
980.847
687.382
847.235
797.93
611.173
616.968
836.952
687.913
677.248
594.092
760.022
778.024
645.823
609.554
812.667
197.234
178.612
208.412
198.215
208.276
197.242
187.447
641.918
866.524
686.437
205.573
217.635
246.218
169.786
209.805
221.169
201.466
388.404
393.684
551.532
367.625
402.968
711.405
373.556
235.906
255.262
265.168
255.96
245.726
245.191
291.84
693.944
851.048
601.445
797.392
688.042
858.565
608.333
707.689
678.864
899.634
831.72
726.086
876.335
639.951
157.284
140.16
159.241
146.267
155.678
160.116
147.394
984.697
237.284
225.522
237.437
227.24
239.891
233.236
229.988
59.8557
33.0425
58.1648
28.6179
35.4044
47.1556
42.692
316.013
264.441
319.47
301.695
304.581
330.591
289.276
171.366
154.531
176.71
165.332
173.986
175.03
162.167
163.332
146.084
165.009
152.143
165.766
161.631
153.296
228.432
216.536
234.142
224.371
231.092
231.283
221.221
360.184
294.648
326.527
312.304
340.298
343.641
324.756
153.153
135.979
155.716
142.717
152.327
156.071
143.25
756.934
496.652
524.996
349.618
536.417
528.375
306.329
904.78
949.764
649.324
922.133
705.623
576.973
1094.85
472.069
544.563
459.862
459.137
556.629
460.994
467.946
463.528
452.985
555.707
461.127
557.271
460.212
457.95
429.486
514.73
437.862
459.839
435.721
535.156
435.541
457.64
436.605
457.289
548.946
544.603
444.933
436.643
187.423
169.725
181.368
170.354
179.63
188.299
177.608
472.8
558.907
437.576
459.799
550.084
454.649
477.352
470.496
451.157
434.524
549.653
548.523
453.113
470.458
472.286
563.753
438.777
457.711
559.245
457.687
473.355
471.82
454.212
438.811
551.585
556.85
454.45
469.72
472.602
564.594
458.728
441.49
472.964
565.219
458.162
471.781
440.646
565.104
238.016
276.829
224.845
319.03
231.384
225.677
313.603
216.082
232.864
223.501
257.016
252.311
225.81
215.354
274.251
356.647
213.583
331.281
314.705
240.111
348.88
490.983
564.435
458.03
466.291
580.059
482.662
474.654
497.46
494.329
464.609
607.41
587.601
484.706
508.507
524.553
624.687
495.667
514.16
629.613
514.457
523.615
522.433
505.984
492.606
616.351
628.369
512.787
515.128
471.611
539.801
457.697
447.876
472.785
532.939
457.561
476.407
463.66
448.1
546.925
533.482
459.29
482.941
512.168
619.168
479.7
507.893
598.776
520.352
500.557
503.856
475.826
474.044
558.608
586.665
487.074
490.841
158.577
141.743
163.213
150.593
160.64
161.955
149.083
)
;

boundaryField
{
    left
    {
        type            calculated;
        value           nonuniform List<scalar> 
703
(
286.515
228.602
19.6303
241.161
238.982
238.678
31.681
502.506
265.993
229.853
146.316
169.184
170.999
187.281
376.146
195.471
203.098
234.722
145.009
526.688
318.088
259.267
196.934
67.618
67.2059
321.124
565.467
160.337
223.792
84.9304
211.877
330.003
77.7463
158.7
104.502
22.9064
133.652
482.639
567.447
437.105
554.666
674.143
460.016
161.234
486.11
545.739
21.6244
47.6183
188.269
35.4591
33.0179
48.2926
47.8452
358.378
506.816
162.301
198.542
171.677
63.8819
286.7
172.496
385.109
228.967
319.815
353.153
476.844
220.25
78.0356
282.378
219.14
481.664
74.6093
173.363
44.1064
35.8699
42.7716
134.551
22.2388
20.7682
219.168
194.777
189.869
49.9013
108.703
248.538
238.284
190.719
214.72
275.896
26.6504
91.0677
41.6233
493.872
689.004
744.701
396.713
483.374
331.728
206.495
376.316
380.949
124.977
130.79
154.067
706.818
166.914
173.286
219.183
154.892
153.971
175.022
206.435
217.171
335.34
267.271
153.004
231.802
288.334
325.604
140.302
119.874
123.849
298.334
342.082
355.724
170.912
191.918
216.786
49.2412
178.844
159.969
180.678
183.347
51.0138
162.288
252.599
158.529
237.341
174.947
191.672
179.605
234.013
197.8
180.982
284.937
224.17
261.605
121.673
100.612
76.1661
105.914
116.219
137.181
93.7204
109.705
122.855
131.026
114.689
630.249
649.795
487.803
383.111
719.032
696.118
364.982
602.536
349.012
614.713
581.207
504.415
654.789
626.194
648.299
395.043
549.398
599.47
247.534
267.63
150.436
625.975
474.462
288.191
483.703
512.951
590.664
30.1559
134.267
130.19
154.038
136.716
36.4114
158.213
134.865
161.412
26.8828
81.3894
68.5677
93.0085
82.8864
27.7889
38.8787
66.6684
45.3043
67.7612
64.1398
37.1576
553.122
333.428
164.608
179.968
147.097
229.668
200.364
70.6801
133.7
141.088
210.573
172.587
245.914
87.3014
136.988
184.154
159.39
129.769
271.076
294.811
405.073
202.713
272.343
236.436
221.184
174.089
542.231
246.412
208.185
215.545
508.981
396.139
342.491
422.521
188.809
259.976
304.63
104.359
199.734
150.095
180.337
229.082
205.01
310.58
277.637
185.755
425.969
369.47
408.063
98.281
155.661
117.961
135.36
105.626
39.105
99.6045
95.6444
104.115
100.835
40.6634
115.552
118.905
139.207
20.9289
125.685
123.405
129.298
126.402
20.5021
6.38797
24.4832
21.3474
32.2321
35.9334
27.4726
367.651
325.648
363.784
417.443
372.747
411.365
51.4666
34.4201
31.7178
40.3707
40.6978
62.6115
446.374
112.997
46.9108
41.4999
131.251
72.0447
209.708
137.368
121.245
97.899
100.208
23.7186
23.9562
91.1831
91.6168
52.7543
58.3698
53.7665
35.3017
48.968
48.2272
75.8407
72.7428
30.8282
45.9022
35.6006
37.7194
38.788
38.6755
39.4701
173.736
115.86
120.661
33.9477
41.2084
84.9289
136.842
147.671
174.601
211.127
213.862
175.208
344.87
286.069
251.469
92.9848
101.631
276.736
43.4453
86.4369
87.9157
35.5454
77.9893
79.0829
86.4049
84.281
41.3999
22.3781
97.9101
97.4863
91.7903
94.2313
20.9619
195.318
214.977
212.76
223.271
216.345
192.582
56.2952
20.6212
51.5777
56.6084
114.158
196.81
250.548
235.696
275.222
263.87
205.539
72.9758
56.9116
74.81
18.4756
29.073
31.0524
126.55
149.291
147.431
154.385
151.167
128.081
121.207
143.471
142.043
146.214
144.591
122.339
179.646
201.576
194.332
210.605
206.946
186.677
39.0145
35.7497
58.5686
173.229
132.898
137.02
125.475
126.223
166.966
184.002
145.571
142.445
141.679
143.42
184.926
52.6027
42.2155
42.2583
165.682
47.5433
43.1355
141.558
185.419
136.387
137.268
142.836
137.666
180.417
218.856
156.822
190.308
137.376
149.315
209.666
205.601
65.0715
46.4519
237.224
296.914
285.474
322.441
307.611
247.97
152.925
208.467
109.6
117.006
84.1027
122.491
122.115
121.658
122.313
122.119
24.7373
101.638
113.093
134.538
133.852
136.152
135.201
113.802
86.2009
92.9449
26.9766
132.718
124.05
123.485
123.095
123.807
131.551
146.295
121.825
123.032
122.865
122.594
141.208
40.6291
76.168
84.6402
141.86
166.098
158.92
185.266
175.23
150.591
62.6555
57.9129
29.1922
73.0198
82.3515
90.9414
72.3676
76.105
71.948
85.6216
99.0821
104.54
95.0119
96.5245
84.4404
28.111
69.3469
68.1175
36.2299
40.4108
38.5398
62.3866
60.4316
59.3749
55.3322
51.3467
41.9717
59.9051
59.7821
64.7841
61.5012
57.4899
65.7315
43.9953
33.9072
39.6149
92.1309
107.844
167.6
251.938
90.1657
74.2261
99.1634
98.457
236.879
67.2118
19.5804
23.2179
38.8758
23.9113
122.612
111.776
59.5448
79.4933
110.29
115.431
113.92
144.589
100.474
118.16
133.014
115.82
162.39
135.13
121.131
182.355
104.38
105.926
125.359
249.549