/*--------------------------------*- C++ -*----------------------------------*\
| =========                 |                                                 |
| \\      /  F ield         | OpenFOAM: The Open Source CFD Toolbox           |
|  \\    /   O peration     | Version:  2012                                  |
|   \\  /    A nd           | Website:  www.openfoam.com                      |
|    \\/     M anipulation  |                                                 |
\*---------------------------------------------------------------------------*/
FoamFile
{
    version     2.0;
    format      ascii;
    class       volVectorField;
    location    "0.107/solid";
    object      sigmaMidDir;
}
// * * * * * * * * * * * * * * * * * * * * * * * * * * * * * * * * * * * * * //

dimensions      [1 -1 -2 0 0 0 0];


internalField   nonuniform List<vector> 
3124
(
(0.817816 -0.488706 0.30388)
(0.795972 0.603085 -0.0521178)
(0.867869 -0.480827 -0.124932)
(0.0193242 0.0136222 0.99972)
(0.984959 -0.162653 -0.0583091)
(0.658476 0.730297 -0.181865)
(0.708404 -0.695494 -0.120212)
(0.0217594 0.0141078 0.999664)
(0.996061 -0.0540826 -0.0702616)
(-0.16408 0.874347 -0.456723)
(0.988072 -0.150404 -0.0330447)
(0.835794 -0.063203 -0.545393)
(0.850093 0.519055 0.0890213)
(0.99345 0.0743853 -0.0867354)
(-0.372627 0.801761 -0.467256)
(0.808377 0.588351 -0.0192168)
(-0.557035 0.828717 -0.0542221)
(0.899803 0.435794 -0.0209267)
(0.847932 0.507573 -0.152906)
(-0.228387 0.0082599 0.973535)
(0.997765 0.0465925 -0.0478995)
(0.998169 0.0386929 -0.0464859)
(0.993769 0.0717947 -0.0852518)
(0.899496 -0.433433 0.0551588)
(0.668156 -0.610367 0.425464)
(0.950706 -0.305047 0.055712)
(0.970347 -0.202719 0.131652)
(0.989122 0.0272908 0.144544)
(0.810879 -0.584728 0.0238347)
(0.95529 -0.289424 0.0604474)
(0.350386 0.936412 -0.0190585)
(0.940278 0.330746 -0.0805244)
(0.840893 0.462472 -0.281103)
(0.999032 0.0438853 -0.00285875)
(0.97627 -0.209204 0.055951)
(-0.278021 -0.0211622 0.960342)
(0.0091137 0.0111628 0.999896)
(0.996926 -0.0777839 0.00937654)
(0.0507659 0.00380573 0.998703)
(0.977853 -0.208332 0.0200355)
(0.941427 -0.337194 0.00392236)
(0.994848 0.0480832 -0.08925)
(0.755093 0.589875 -0.286151)
(0.952182 0.0657487 -0.298372)
(0.749282 0.659355 0.0618661)
(0.541627 0.834691 -0.0996551)
(-0.649462 0.711203 0.269053)
(0.967991 0.122424 -0.219104)
(0.992234 0.1239 -0.010976)
(-0.00712299 0.00847692 0.999939)
(0.977924 -0.197054 0.069525)
(-0.56042 -0.0534717 0.826481)
(0.999896 0.00935232 0.0109702)
(0.992407 0.11755 0.0361955)
(0.980785 -0.194801 -0.010634)
(0.994819 0.0787298 -0.0643115)
(0.998842 0.0235988 -0.041926)
(0.995585 0.0467951 -0.0813636)
(0.00947053 0.999904 -0.0101045)
(0.780525 -0.484357 0.395196)
(-0.303578 0.950352 -0.068345)
(-0.668002 0.742783 -0.0452433)
(0.812247 -0.399775 -0.424776)
(0.959242 -0.268186 0.0890551)
(0.741548 -0.669119 -0.0488552)
(0.984161 -0.0655293 0.164722)
(0.831937 -0.554632 0.0162466)
(0.966625 -0.256189 0.00208933)
(0.982711 -0.105322 -0.152269)
(0.986152 0.165835 -0.00158468)
(0.955167 -0.251832 -0.155682)
(0.987415 0.123799 0.0984121)
(0.991485 0.128001 0.0239635)
(0.910943 -0.272039 -0.310126)
(0.973974 0.225226 0.0254547)
(0.990658 0.130354 0.0400475)
(-0.704649 0.708667 -0.0355063)
(-0.680504 0.730909 0.0518378)
(0.726944 -0.686451 0.0183717)
(0.783134 -0.526367 -0.331119)
(0.664426 -0.412107 -0.623462)
(-0.171239 0.982752 0.0698266)
(-0.0787337 0.995977 0.0427995)
(0.917831 0.38974 -0.0754239)
(0.0576606 0.998038 -0.0244102)
(0.699524 0.65131 -0.294044)
(-0.121212 0.992428 0.0198494)
(-0.193547 0.978744 0.067817)
(0.826272 -0.551987 0.112183)
(0.80194 -0.535215 0.2654)
(0.987326 0.158661 -0.00364964)
(0.988726 0.149736 0.000841256)
(0.999973 0.00736466 -0.00042207)
(0.00673021 0.0108297 0.999919)
(-0.00296705 -0.000321833 0.999996)
(0.979359 -0.200877 0.0224618)
(0.989178 0.146723 -0.000347467)
(0.828397 -0.553621 0.085221)
(0.870993 -0.48469 0.0802916)
(0.487498 0.87308 -0.00876463)
(0.546234 0.73528 -0.401238)
(0.379397 0.924782 -0.0289162)
(0.669018 0.741387 0.0525342)
(0.972965 0.189912 -0.131429)
(0.871753 0.487728 -0.0465688)
(0.824288 0.564053 0.0489196)
(-0.5318 -0.370489 0.761529)
(0.779335 0.625871 0.0303847)
(0.805178 0.590064 -0.0592728)
(-0.361585 0.932148 -0.0188897)
(0.951042 0.26181 -0.164237)
(-0.305443 0.946314 0.105805)
(0.989858 -0.077265 -0.119214)
(-0.268678 0.962965 0.0226037)
(-0.249924 0.968188 -0.0122231)
(-0.564238 -0.158485 0.810258)
(0.987416 0.157182 -0.01743)
(-0.074841 0.002706 0.997192)
(0.986871 0.161237 0.0094242)
(0.965133 -0.243668 -0.09563)
(0.996903 -0.07463 0.024803)
(0.986601 0.12 0.110541)
(0.971615 -0.219394 -0.0884879)
(0.805806 -0.536783 0.250081)
(0.828473 -0.559838 -0.0146434)
(0.988452 0.151374 -0.00694233)
(0.991451 0.130406 0.0044741)
(0.97803 0.207675 0.018098)
(0.990054 0.140271 0.0108305)
(0.748466 -0.513112 -0.420137)
(0.822105 -0.5593 0.106432)
(0.994991 0.0813422 -0.0581051)
(0.998582 0.0313623 -0.0430209)
(0.995452 0.0482824 -0.0821213)
(0.0400928 0.998974 -0.0210811)
(0.0145643 0.999855 -0.00878824)
(-0.0368387 0.999274 0.00971045)
(-0.0889501 0.995838 0.0198563)
(-0.0361497 0.999345 0.00164424)
(0.00455785 0.000970555 0.999989)
(-0.177428 -0.663075 0.727221)
(-0.552879 0.651246 -0.519812)
(0.102964 0.994684 0.00134187)
(0.994501 0.0465312 -0.0938206)
(0.0175196 0.999776 0.0118473)
(0.977973 -0.200362 -0.0585145)
(0.0378575 0.999109 -0.0186562)
(0.967787 0.232054 -0.0976733)
(0.432759 -0.578886 0.691094)
(0.965117 0.260741 0.0237192)
(-0.264846 0.962482 0.0590391)
(0.148008 0.988963 0.00672861)
(-0.0354445 0.999196 0.0187304)
(0.99606 0.0410293 -0.0786217)
(0.566611 0.778493 -0.270002)
(-0.399979 0.806224 -0.435913)
(-0.105417 0.980328 -0.166863)
(0.999838 0.0170699 0.00575051)
(0.0616753 0.996976 -0.0472753)
(-0.25289 0.948065 -0.192922)
(-0.158114 0.892668 -0.422071)
(0.845223 -0.534412 -0.00133009)
(0.994401 -0.101626 0.028963)
(0.999035 0.033571 -0.0283088)
(0.926527 -0.375994 -0.0133064)
(-0.300921 0.888115 0.347416)
(0.993492 -0.10102 -0.0526077)
(0.968945 -0.242514 0.0483027)
(-0.704663 0.709053 0.0263326)
(0.964066 0.265197 -0.0157504)
(0.960086 0.266777 0.0840569)
(0.676575 0.723281 0.138242)
(0.962393 0.261261 0.0744539)
(0.790273 -0.611232 0.0431775)
(0.880611 -0.473808 -0.00549501)
(0.978931 0.184547 -0.0873826)
(0.00419157 0.999895 0.0138842)
(-0.0167615 0.999504 0.0266471)
(0.994691 -0.0746204 -0.0708698)
(0.994386 -0.103815 -0.0204463)
(0.291318 0.882506 0.36921)
(0.115348 0.991045 -0.0672682)
(-0.306966 0.78179 -0.542748)
(-0.0827381 0.981834 -0.170752)
(0.9991 0.0317986 0.0280662)
(0.0877843 0.995329 -0.0401855)
(0.025717 0.981097 -0.191799)
(0.986696 0.0269332 0.160333)
(0.838992 0.539843 0.0682785)
(0.927853 0.365656 -0.0733852)
(0.842089 0.535752 0.0621029)
(0.786774 0.607066 -0.11161)
(0.860661 0.50586 0.0580335)
(0.918438 0.388204 -0.0759566)
(0.769311 0.638739 0.0131564)
(-0.695769 0.7139 -0.0790709)
(0.9738 0.218233 -0.0639412)
(0.164154 0.982739 0.085303)
(0.970696 0.19302 -0.143155)
(0.736525 -0.670896 0.0861889)
(0.976423 0.0642472 -0.206085)
(0.888149 -0.458683 -0.0282943)
(-0.621271 -0.282879 0.730755)
(0.945086 0.306886 -0.112399)
(0.813068 0.528564 -0.24401)
(0.853379 0.462113 -0.241238)
(0.938716 0.33146 -0.0945911)
(0.981642 0.187061 0.0372399)
(0.743413 0.575331 -0.341074)
(0.997766 0.0447393 -0.0496175)
(0.998208 0.0392296 -0.0451839)
(0.994648 0.0597862 -0.0842705)
(-0.00241514 0.999917 0.0126937)
(0.00324991 0.999946 0.00991093)
(0.908716 -0.412442 0.0642367)
(0.952156 -0.304698 -0.023615)
(0.743802 -0.661524 0.0956303)
(0.813859 -0.573196 -0.0952887)
(0.814267 -0.567995 0.119798)
(0.898769 -0.43462 0.0576224)
(0.965131 -0.257727 -0.0458145)
(0.813866 -0.556616 0.166734)
(0.709166 -0.700714 0.078)
(0.737346 -0.66075 0.140463)
(0.904439 -0.426513 0.00876546)
(-0.647115 0.717942 -0.256517)
(0.883479 -0.46839 -0.00870799)
(0.899814 -0.433136 0.0522251)
(-0.170357 -0.665007 0.727148)
(-0.159687 0.987082 0.0130375)
(0.896958 0.281408 -0.340994)
(0.0222218 0.999664 0.0133507)
(0.991613 0.0930137 -0.089731)
(-0.0444344 0.998217 0.0398597)
(0.0139505 0.999745 0.0177486)
(0.915272 0.253975 -0.312689)
(-0.109588 0.993199 0.0393162)
(0.0627055 0.997855 0.0188258)
(0.990254 0.131751 -0.0451613)
(0.996517 -0.0833816 -0.000873188)
(0.966572 0.256016 -0.013909)
(0.98647 0.16369 -0.00908074)
(0.989138 0.146691 -0.00932316)
(0.967306 0.253517 -0.00697204)
(0.990312 0.137191 -0.0214424)
(0.991525 0.129069 0.0147859)
(0.998909 -0.046705 0.000578288)
(0.990108 0.139497 0.0150761)
(0.967708 0.251715 0.0134248)
(0.991389 0.130217 0.0138409)
(0.99252 0.121987 0.00476415)
(0.968058 0.250726 -0.000731669)
(0.958486 -0.276239 -0.0706887)
(0.595182 0.800582 0.0694723)
(0.97134 0.20208 -0.12515)
(0.661744 0.748064 -0.0499526)
(0.899097 0.426181 -0.0999719)
(0.930235 0.357257 -0.0838443)
(0.913388 0.399906 -0.0761435)
(0.988742 -0.106667 0.104934)
(-0.517033 0.85506 -0.0393711)
(0.968723 -0.140743 0.20437)
(0.969117 0.0147832 -0.246157)
(0.797514 -0.505831 0.328795)
(0.92459 0.380963 0.000538955)
(0.829256 -0.552151 -0.0863911)
(0.748544 0.636251 -0.186726)
(0.623783 0.779958 0.0505939)
(0.980945 0.177594 -0.0787927)
(0.96705 -0.0626028 -0.246769)
(-0.665789 0.666582 -0.33525)
(0.891612 0.452599 0.0134698)
(-0.340771 0.937861 0.0655191)
(0.998161 0.0322787 -0.0513104)
(-0.214249 0.976429 0.0261555)
(-0.168046 0.985605 0.0185332)
(-0.578287 0.786863 0.21548)
(-0.128949 0.991467 0.0191351)
(0.977945 -0.202352 -0.0517461)
(-0.343864 0.927935 0.143857)
(-0.350369 0.936094 0.0311483)
(0.989136 0.14698 -0.00253209)
(0.985825 0.167553 0.00870539)
(0.969495 0.243473 -0.0282905)
(0.971578 0.234409 -0.0330013)
(0.984251 0.140938 -0.106709)
(0.971471 0.237142 0.00275689)
(0.968593 0.248614 -0.0042565)
(0.989351 0.143934 0.021638)
(0.995144 0.0976624 0.0122585)
(0.985202 0.168938 0.0289258)
(0.967494 0.252149 0.0193784)
(0.987957 0.138449 0.0690922)
(0.975264 0.219628 0.0249811)
(0.967259 0.25315 0.0180309)
(0.993974 0.0819366 -0.0728216)
(0.99887 0.0241254 -0.0409522)
(0.996088 0.0343139 -0.0814359)
(-0.0052766 0.999957 0.00759391)
(-0.0161541 0.999845 0.00700229)
(0.703451 -0.697077 -0.138709)
(-0.660106 0.736024 -0.150093)
(-0.245617 0.950253 -0.191548)
(0.950837 -0.274122 0.144104)
(0.845333 0.462289 -0.267771)
(0.72861 -0.362617 0.581065)
(-0.339117 0.829804 0.443198)
(0.888012 -0.45779 -0.0431688)
(-0.370597 0.747029 -0.551911)
(-0.143095 0.981572 -0.126653)
(-0.15913 0.981523 -0.106252)
(-0.0936219 0.995376 -0.0214909)
(-0.443819 0.89396 -0.0621361)
(-0.375576 0.926256 -0.031503)
(0.0522758 0.998045 -0.0342514)
(-0.301543 0.946247 -0.117002)
(-0.461843 0.886256 0.035375)
(-0.663562 0.747914 -0.017603)
(-0.692094 0.719125 -0.0621805)
(-0.525868 0.848543 -0.0586309)
(-0.516049 0.8237 -0.234973)
(-0.501381 0.864914 -0.0232554)
(-0.434983 0.890771 -0.131594)
(0.849585 -0.330994 0.410669)
(0.967766 -0.250176 0.0290005)
(-0.251868 0.83015 0.497407)
(0.889576 -0.4419 0.115667)
(0.82821 -0.44899 0.335374)
(0.770067 -0.637837 0.0126295)
(0.990866 -0.0787304 0.109484)
(0.983587 -0.152399 -0.0966021)
(0.972744 -0.231604 0.011351)
(0.927217 -0.197954 0.317935)
(0.989185 -0.0867346 -0.118283)
(0.972614 -0.197674 0.122256)
(0.914922 -0.401718 0.0392341)
(0.775034 -0.631384 -0.0260005)
(0.879471 -0.467076 -0.0914868)
(0.884073 -0.466995 -0.0181757)
(0.819056 -0.573422 0.0182928)
(0.797649 -0.599199 -0.0686767)
(0.906779 -0.421517 -0.00866457)
(0.982759 -0.184858 -0.00349248)
(0.977752 -0.207139 0.0330892)
(0.93524 -0.34992 0.053682)
(0.765184 -0.63992 0.0706774)
(0.755709 -0.654872 -0.00685092)
(0.898104 -0.439748 0.00556129)
(0.863305 -0.504495 0.0137402)
(0.802296 -0.330749 0.496917)
(0.854076 -0.519211 0.0312076)
(0.929607 -0.368339 0.0125516)
(0.990808 0.00507829 -0.135181)
(0.990448 -0.108297 -0.0853508)
(0.960144 0.27943 0.00659278)
(0.941887 -0.311104 -0.126741)
(0.988243 -0.081106 -0.129607)
(0.993333 0.0956129 -0.0644062)
(0.994146 -0.0741535 -0.0785796)
(0.992743 0.0531451 -0.107874)
(0.994454 0.103647 0.0178296)
(0.981917 0.188978 -0.0112592)
(0.999615 0.0238742 -0.0141636)
(0.986172 0.161961 -0.0351155)
(0.998584 0.0181388 -0.0500114)
(0.995839 0.0701759 -0.0581314)
(0.928464 -0.370799 0.0214952)
(0.993415 0.108255 0.0375169)
(0.972017 0.232003 0.036836)
(0.956792 0.290115 0.0195426)
(0.965059 0.261811 -0.0107451)
(0.986907 -0.156913 -0.0373237)
(0.960127 0.267657 0.0807233)
(0.973838 0.227241 0.000752591)
(0.983825 0.175292 0.0368924)
(0.990854 0.134306 0.0130622)
(-0.65524 0.755421 0.000392537)
(0.976805 -0.210472 0.039402)
(-0.14638 0.989227 0.00185018)
(-0.605414 0.795593 -0.0224942)
(-0.459912 0.88794 -0.00659011)
(-0.520505 0.8535 0.0247482)
(0.76269 -0.646763 0.000972886)
(-0.695468 0.718016 0.0278842)
(-0.635928 0.768691 0.0686296)
(0.791546 -0.611109 -0.00037512)
(0.84034 -0.541945 -0.0111046)
(0.765072 -0.6437 0.0177274)
(0.745126 -0.66676 -0.0147816)
(0.819705 -0.572447 -0.0196985)
(-0.676487 0.736453 -0.00143111)
(-0.696731 0.717239 -0.0115815)
(-0.637448 0.770324 -0.0161372)
(0.789963 -0.61314 0.00426667)
(-0.522904 0.852391 0.00103131)
(0.798463 -0.601346 0.0289695)
(0.745009 -0.667048 -0.00304455)
(0.744838 -0.658435 -0.108071)
(0.732688 -0.679079 -0.044948)
(0.728071 -0.685164 -0.0215261)
(0.711832 -0.464699 -0.526641)
(0.711763 -0.698285 -0.0761077)
(-0.699076 0.714779 0.0195918)
(0.737025 -0.674951 -0.0351512)
(-0.656364 0.741187 0.140811)
(0.735599 -0.461899 -0.495524)
(0.785579 -0.617407 -0.0409104)
(0.529206 0.837862 -0.1339)
(-0.00798732 0.999814 0.017531)
(0.00726366 0.999964 -0.00432924)
(0.108555 0.994089 -0.00148358)
(-0.0134303 0.999898 -0.00489704)
(-0.0198788 0.999772 -0.00783657)
(0.96823 0.234067 -0.0879925)
(-0.0965358 0.994165 0.0481232)
(-0.0410786 0.998518 0.0356982)
(-0.0119808 0.999826 0.0142916)
(0.140125 0.987914 -0.0662649)
(-0.0577649 0.998018 0.0249629)
(-0.207846 0.977092 0.0457296)
(0.157665 0.983518 -0.0885081)
(-0.0961506 0.994817 0.0330718)
(0.030868 0.999464 -0.0108669)
(-0.240984 0.967677 0.0743518)
(-0.0150855 0.999886 0.000193228)
(-0.054465 0.998502 0.00528918)
(-0.239194 0.96764 0.0803741)
(0.0229479 0.999675 -0.0110871)
(-0.651825 0.758231 -0.0144655)
(-0.656111 0.754327 -0.022576)
(-0.687419 0.726038 -0.0179811)
(0.79557 -0.531646 0.290552)
(-0.682151 0.729752 -0.0461737)
(-0.661567 0.74937 -0.0278123)
(-0.658569 0.752251 -0.0201191)
(-0.675666 0.736148 -0.0395165)
(0.826477 -0.554131 0.0993707)
(-0.685229 0.728245 -0.0109779)
(0.975942 0.216718 0.0238724)
(0.975697 0.218277 -0.0192224)
(0.959147 0.28211 -0.021265)
(0.987365 0.15846 9.2803e-05)
(0.959794 0.279829 0.022173)
(0.976549 0.21379 -0.0254133)
(0.977577 0.209215 0.0239059)
(0.962665 0.269968 0.0198298)
(0.98789 0.155142 0.00227106)
(0.959221 0.282157 -0.0168388)
(0.965522 0.26023 -0.00692105)
(0.981811 0.189685 -0.0081855)
(0.988526 0.142079 -0.0512757)
(0.974812 0.221632 -0.0249138)
(0.962258 0.271182 -0.022795)
(-0.649882 0.759806 -0.0186646)
(-0.678985 0.7341 -0.00872621)
(0.986027 -0.166585 0.000789121)
(0.997839 -0.0123514 0.0645359)
(0.990529 0.124013 -0.0589298)
(0.484057 0.860089 -0.161045)
(0.151984 0.984381 -0.0888516)
(0.102003 0.798382 -0.593448)
(0.526341 0.845359 -0.0912909)
(0.679631 0.599011 -0.423424)
(0.834679 0.490785 -0.249882)
(0.288596 0.940435 -0.179706)
(0.941181 -0.0513811 0.333973)
(0.18859 0.980785 -0.0499511)
(0.0776011 0.992208 -0.0974763)
(0.0522247 0.998366 -0.0232028)
(0.574054 0.818749 0.0106019)
(0.0905578 0.995429 -0.0303319)
(0.488028 0.872576 -0.0209676)
(0.30572 0.94932 -0.0729889)
(0.264367 0.963 -0.0523563)
(0.618333 0.783386 -0.0630061)
(0.544771 0.838515 0.0108353)
(0.637611 0.76902 0.0453953)
(0.615277 0.715174 -0.331602)
(0.549863 0.835252 0.00218707)
(0.458208 0.888039 -0.0378469)
(0.873226 -0.484662 0.0507875)
(0.989547 0.100111 -0.103799)
(0.763549 -0.515964 0.388295)
(0.857639 0.0650281 -0.510124)
(-0.0520709 0.024563 0.998341)
(0.715745 0.643853 -0.270486)
(0.975562 0.0488353 -0.21423)
(0.824928 0.286688 -0.487139)
(0.749037 -0.198243 -0.632174)
(-0.117953 -0.00894143 0.992979)
(0.776701 0.626783 0.0622713)
(0.886508 0.457951 0.0662184)
(0.0888946 0.996019 0.00670032)
(0.721356 0.689939 0.0602509)
(0.807943 0.58654 0.0565591)
(0.569786 0.821305 0.0283301)
(0.765436 0.640443 0.0627743)
(0.826214 0.549693 0.123322)
(0.823223 0.465874 -0.324446)
(0.0907986 0.0581185 0.994172)
(0.773465 0.401008 -0.490861)
(-0.242322 -0.225061 0.943731)
(0.924256 0.380579 0.0301753)
(0.827059 0.552906 -0.101331)
(0.71346 0.687361 0.136051)
(0.651751 0.747809 -0.126504)
(0.736466 0.671527 0.0816643)
(0.815503 0.557907 -0.153932)
(0.580583 0.811688 0.0639268)
(-0.475278 -0.522225 0.708091)
(0.777553 0.626984 0.0479967)
(-0.00615009 0.709472 -0.704707)
(0.836968 0.539341 -0.092713)
(0.997413 0.062855 -0.0348914)
(0.502589 0.769922 -0.393223)
(0.867785 -0.489253 0.0870697)
(-0.0674144 0.712215 -0.698717)
(0.958636 -0.279359 -0.0545491)
(0.254694 0.959429 -0.120942)
(-0.00991384 -0.665583 0.746258)
(0.807088 -0.585732 0.074342)
(0.0557532 0.994835 0.0848224)
(-0.222794 0.972239 0.0715136)
(-0.00733655 0.99895 0.0452252)
(-0.171666 0.983726 0.0530522)
(0.178938 0.979696 -0.0904275)
(0.0134696 0.999564 0.0262659)
(-0.362594 0.918613 -0.157087)
(-0.148864 0.987107 0.0588115)
(-0.520692 0.853685 -0.0101245)
(-0.0952832 0.985833 -0.138037)
(-0.681718 0.728561 0.0667748)
(-0.150288 0.966051 -0.21014)
(-0.33525 0.939786 -0.0664125)
(-0.36927 0.833759 0.41047)
(0.727923 0.678482 -0.098944)
(0.968877 0.0468627 -0.243067)
(-0.122019 0.989107 0.0823371)
(-0.0315154 0.0719593 0.99691)
(0.152952 0.977747 -0.143583)
(0.189955 0.977873 -0.0876386)
(0.0294243 -0.558306 0.829113)
(-0.0295219 0.99934 -0.021173)
(-0.24931 -0.111511 0.961982)
(0.752522 0.406523 -0.51812)
(-0.163244 0.0256848 0.986251)
(0.17843 0.951803 -0.249467)
(0.704154 0.209234 -0.678519)
(-0.0762519 -0.111103 0.990879)
(0.541443 0.676613 -0.499034)
(-0.310939 -0.393932 0.864948)
(0.605934 0.786837 -0.117178)
(0.989642 0.140002 0.0317535)
(0.0885457 0.996061 -0.00475403)
(-0.178331 -0.345707 0.921241)
(0.182025 0.943117 -0.278203)
(-0.0750976 0.995897 0.0504865)
(-0.323534 0.921759 0.213742)
(0.987038 0.104779 -0.121561)
(0.995935 -0.0898772 -0.00593401)
(0.972026 0.229758 -0.0487503)
(0.983673 0.173221 -0.0488023)
(0.985869 0.124993 -0.111533)
(0.976836 0.209578 -0.0432314)
(0.993952 0.0974562 -0.0506063)
(0.993995 0.084718 -0.0692586)
(0.996888 -0.0788276 0.000213094)
(0.982211 0.187675 -0.00630345)
(0.999823 0.00460508 -0.0182526)
(0.99511 0.0760422 -0.0630395)
(0.981215 0.191227 -0.0254666)
(0.999478 0.0162613 -0.0279007)
(-0.661502 0.749941 -0.00181475)
(-0.654206 0.756226 -0.0116998)
(-0.679042 0.732692 -0.0454221)
(0.829916 -0.554878 0.0578813)
(-0.681386 0.731848 -0.0105962)
(-0.660719 0.750254 -0.0238608)
(-0.656588 0.753987 -0.0198824)
(-0.684174 0.729252 0.00989238)
(0.816211 -0.548117 0.182666)
(-0.670956 0.740967 -0.0280316)
(0.977641 0.209364 -0.0196129)
(0.977068 0.212497 0.0135337)
(0.960943 0.276236 0.0167818)
(0.990117 0.140057 -0.00723183)
(0.966974 0.253155 -0.0295527)
(0.9766 0.214232 0.0188742)
(0.976905 0.210848 -0.0346252)
(0.969091 0.245683 -0.0223992)
(0.991224 0.132151 -0.0034843)
(0.969111 0.246393 0.0106818)
(0.979668 0.199029 0.0252558)
(0.986106 0.165869 -0.00904905)
(0.958101 0.286426 -0.00140539)
(0.982526 0.18524 0.0181221)
(0.962982 0.2691 0.015819)
(0.988462 0.151101 0.0105299)
(0.989841 0.139853 0.0256186)
(0.969276 0.245505 0.0151918)
(0.986807 0.161016 0.0169224)
(0.962526 0.270933 -0.0118061)
(-0.667208 0.744848 0.00588618)
(-0.684661 0.728728 0.0139668)
(0.716578 -0.695886 -0.0475263)
(0.816247 -0.564572 -0.122474)
(0.707494 -0.706593 -0.0133572)
(-0.698417 0.715487 0.0170893)
(-0.688488 0.725035 0.0175623)
(-0.684638 0.728865 -0.00523952)
(0.803657 -0.552172 -0.221905)
(-0.704329 0.70904 0.034412)
(0.996856 0.0585484 -0.0533807)
(0.998538 0.031403 -0.043993)
(0.994724 0.0601259 -0.0831244)
(0.00249614 0.999966 0.0079187)
(-0.00092184 0.999955 0.00948056)
(-0.0188004 0.999742 0.012736)
(0.0156085 0.999829 -0.00991451)
(-0.00643085 0.999929 0.00999301)
(-0.00582938 0.999953 0.00770324)
(0.0179265 0.999743 -0.0139105)
(-0.0151755 0.999842 0.00924188)
(-0.0144273 0.999889 0.00370972)
(-0.01402 0.999899 0.00241375)
(-0.0485076 0.998803 0.00629815)
(0.0179636 0.99982 -0.0060904)
(-0.0483342 0.998761 0.0118629)
(0.0239628 0.999683 -0.00778723)
(-0.0130247 0.999911 0.00302573)
(0.914825 -0.387276 0.114512)
(-0.252388 -0.476363 0.842246)
(0.627754 0.751264 0.203781)
(0.555288 0.829407 -0.0611418)
(0.803734 -0.589979 -0.0770413)
(0.251594 -0.59649 0.762168)
(0.660366 0.732656 -0.164717)
(0.427055 0.903795 -0.0278944)
(0.438163 0.83887 -0.322972)
(0.43747 0.897707 0.0523613)
(0.537803 0.812541 -0.224822)
(0.218574 0.960454 0.172489)
(0.434541 0.898896 -0.0562127)
(0.667157 0.597116 -0.445369)
(-0.0765763 0.974313 -0.211778)
(0.86783 -0.493547 0.0572887)
(0.0157151 0.999839 0.00866009)
(-0.585239 0.808801 -0.0577579)
(-0.455747 0.889901 -0.0192451)
(0.599786 0.788532 -0.135915)
(0.822253 -0.56157 0.0924131)
(0.881248 -0.465565 -0.0815553)
(0.971572 -0.23496 -0.0290161)
(0.779369 -0.626107 0.0239723)
(0.824771 -0.565289 -0.0141535)
(0.751719 -0.65764 -0.0492793)
(0.955801 -0.27503 0.103941)
(0.962554 -0.260997 -0.0732886)
(0.824022 -0.486059 0.291091)
(0.8038 -0.554174 0.216328)
(0.960993 -0.228101 0.156405)
(0.940898 -0.335499 0.0463747)
(0.675081 -0.442092 0.590611)
(0.907876 -0.375717 0.186006)
(0.901982 -0.422883 0.0871725)
(-0.245848 0.964812 0.0932534)
(0.477061 0.873688 -0.0953003)
(-0.160423 0.983721 0.0809767)
(0.901939 0.295758 -0.314695)
(-0.257222 0.953037 0.159867)
(0.118281 0.992396 0.0340698)
(0.92735 0.371876 -0.0416036)
(0.999564 -0.0294541 -0.00201081)
(0.993184 0.116544 -0.00148702)
(0.991623 -0.128934 0.00770097)
(0.991227 -0.131545 -0.0128073)
(0.991036 0.133417 -0.00695801)
(0.926626 0.375983 0.00135205)
(0.932189 0.361056 0.0257275)
(0.999134 -0.0413017 0.00494234)
(0.989366 -0.145115 0.00980064)
(0.992353 0.123167 0.00812251)
(0.932014 0.362395 0.00452024)
(0.980996 -0.19298 0.020129)
(0.995696 0.0921243 0.0101205)
(0.768786 -0.597865 0.226992)
(0.588535 -0.465973 0.660678)
(0.921387 -0.331466 -0.202921)
(0.888435 -0.414327 -0.197525)
(0.947158 0.268038 -0.176202)
(0.895366 -0.256522 -0.364027)
(0.935489 0.160693 -0.314703)
(-0.37702 0.918182 0.121643)
(-0.683709 0.683711 0.255111)
(-0.465064 0.876057 0.127431)
(0.971848 -0.114944 -0.205668)
(0.705316 0.68217 -0.192806)
(-0.0956525 0.992733 0.0730126)
(0.920994 0.389192 -0.0172993)
(0.977433 0.211024 -0.00969407)
(0.980108 0.198051 -0.0128022)
(0.998841 0.0398903 -0.0269265)
(0.921345 0.382299 -0.0705095)
(0.999793 0.0202282 0.00198311)
(0.985472 0.169621 -0.00856846)
(0.928041 0.372197 0.014476)
(0.999882 -0.00367793 0.0149181)
(0.988486 -0.148293 0.0300921)
(0.99289 0.117681 0.0179004)
(0.929367 0.36617 0.0468693)
(0.996287 -0.084754 0.0151293)
(0.989731 0.142176 0.0148165)
(0.966526 -0.0219413 -0.255627)
(0.0116866 0.999869 -0.0112031)
(0.967546 -0.0272711 -0.251221)
(0.855505 -0.51759 0.0145605)
(-0.69272 0.719525 0.0492105)
(0.951332 -0.294767 0.0898863)
(0.904423 -0.405223 0.13347)
(0.984331 0.127293 -0.122018)
(0.999527 -0.00179808 -0.0307155)
(0.977366 0.210379 -0.022298)
(0.96816 -0.24759 -0.0369554)
(0.987187 -0.111919 -0.113737)
(0.998625 -0.043357 -0.0294646)
(0.987851 -0.151851 -0.0330447)
(0.949744 0.311993 -0.0254127)
(0.995542 0.0915234 0.0228105)
(0.99001 0.139208 0.0223876)
(0.992795 -0.117564 0.0231572)
(0.98226 0.186525 0.0193436)
(0.99996 -0.00193272 0.00872343)
(0.95071 0.310013 0.00650954)
(0.937934 -0.343013 0.0512095)
(0.999406 0.0271661 0.0211924)
(0.972895 -0.227317 0.0424458)
(0.983495 -0.17714 0.0368679)
(0.988337 0.131323 -0.0771039)
(0.880608 0.47058 -0.0555358)
(0.915292 0.402774 0.00352677)
(0.939173 0.343421 0.00404546)
(-0.318297 0.93979 0.124428)
(-0.0995998 0.993736 0.0506846)
(-0.184916 0.977218 0.104168)
(0.0756485 0.997055 0.0125576)
(-0.202759 0.975889 0.0808097)
(-0.0880888 0.995221 0.0421438)
(0.964595 0.0490534 -0.259135)
(0.0613068 0.997765 -0.0265937)
(0.966619 0.0661655 -0.247528)
(0.756205 -0.599151 -0.263004)
(0.402601 0.891017 -0.209766)
(0.920699 -0.240482 -0.30738)
(-0.170964 0.984439 0.0406404)
(-0.153056 0.987696 0.0321095)
(-0.279705 0.956872 0.0784917)
(-0.329037 0.935787 0.12664)
(-0.144952 0.986547 0.0755851)
(-0.395559 0.903937 0.162576)
(0.994682 -0.102962 -0.00248494)
(0.939522 -0.342488 0.00107101)
(0.874449 -0.484907 0.0142763)
(0.875117 -0.483772 0.011581)
(0.949405 -0.314012 0.00511785)
(0.94034 -0.340227 -0.0024619)
(0.936098 -0.35174 0.000412062)
(0.938619 -0.34486 0.00812793)
(0.923224 0.38421 0.00626608)
(0.988609 0.150475 -0.00302082)
(0.997943 0.0640832 -0.00192338)
(0.996048 -0.0882304 -0.0101944)
(0.923831 0.381415 -0.0325291)
(0.991005 0.133823 -9.29837e-05)
(0.994606 -0.103237 0.0100721)
(0.947334 -0.320241 -0.00227401)
(0.953657 -0.300839 0.00593081)
(0.994081 -0.108638 0.000215361)
(0.999021 0.0441711 -0.0025855)
(0.750982 -0.0704199 -0.656557)
(0.923407 -0.182153 -0.337845)
(0.968113 0.190664 -0.162497)
(0.850355 -0.0875929 -0.518868)
(0.965144 0.191937 -0.177925)
(-0.31939 -0.412954 0.852912)
(-0.456829 -0.247722 0.854366)
(-0.216092 0.947473 -0.235794)
(-0.553161 0.83112 -0.0570394)
(-0.517345 0.855776 -0.00124323)
(-0.0925837 0.984408 -0.149561)
(-0.576922 0.814736 -0.0580123)
(-0.137977 0.967745 -0.210787)
(-0.607802 0.78141 -0.141334)
(0.500941 0.8638 -0.0539243)
(0.982859 0.129838 -0.130882)
(0.886991 0.431412 -0.164715)
(-0.408982 0.89925 0.155187)
(-0.321678 0.940433 0.110039)
(-0.351269 0.924846 0.14584)
(0.0061427 0.99998 -0.00121171)
(0.924522 -0.354427 -0.140145)
(-0.0333476 0.999394 0.00999379)
(0.986537 0.128567 -0.101075)
(-0.455999 0.889116 0.0392178)
(0.990201 0.0731358 -0.118969)
(0.932051 0.351219 -0.0890258)
(0.999787 0.0134957 -0.0156421)
(0.991192 0.131393 -0.0165868)
(0.998991 -0.0429173 -0.0132217)
(0.929109 0.366628 -0.0483819)
(0.986925 0.159209 -0.0251275)
(0.997535 -0.0596877 -0.0368869)
(0.955073 0.296371 -0.000375905)
(0.999095 -0.0396421 0.0154049)
(0.990848 0.133696 0.0186137)
(0.993522 -0.113208 0.00988587)
(0.953343 0.301604 -0.0131561)
(0.996727 0.0795875 0.014175)
(0.977899 -0.208686 0.0128085)
(0.926193 0.376607 -0.0182638)
(0.904526 0.426055 -0.0175986)
(0.989462 -0.14393 0.0158014)
(0.979546 -0.200218 0.0200444)
(0.96807 -0.25068 -0.000274598)
(0.981892 -0.189328 0.00649513)
(0.943191 -0.33211 0.00963057)
(0.950293 -0.311347 0.00255733)
(0.973778 -0.227389 0.00715311)
(0.951143 -0.30875 0.000200387)
(0.966647 -0.254153 0.031619)
(0.963035 -0.267612 0.03079)
(0.933635 0.357026 -0.0293048)
(0.991566 0.126459 -0.0283743)
(0.960334 -0.278647 0.0107085)
(0.953139 -0.302492 0.00497465)
(0.965093 0.0153083 -0.26146)
(0.0338021 0.99924 -0.0193993)
(0.965816 -0.00259232 -0.259215)
(0.966395 0.00943149 -0.256889)
(0.0143702 0.999855 -0.00910658)
(0.966948 0.00681231 -0.254883)
(-0.0361684 0.999305 0.00907239)
(-0.0713107 0.997238 0.0207471)
(-0.0676666 0.997521 0.0193325)
(-0.186922 0.980866 0.0544193)
(-0.0730871 0.997201 0.0157891)
(-0.145399 0.988513 0.0412517)
(-0.0392476 0.999224 0.0032225)
(-0.00612782 0.999966 -0.00555593)
(-0.0177261 0.999842 -0.00142441)
(-0.202319 -0.638125 0.742875)
(-0.366735 0.766253 -0.527601)
(-0.377181 -0.567689 0.731754)
(-0.352433 0.704514 -0.615995)
(-0.405116 -0.54187 0.736382)
(0.00401455 -0.428294 0.903631)
(0.774923 -0.60813 -0.172256)
(0.777978 -0.607321 0.160971)
(0.127435 0.991838 0.0043002)
(0.141976 0.989695 0.0186091)
(-0.0604615 0.998169 0.00144943)
(0.0422631 0.999106 0.00127279)
(0.0293552 0.99927 0.0244316)
(-0.0511857 0.998684 -0.00333781)
(0.163813 0.986467 0.00697228)
(0.111105 0.993808 -0.00146293)
(-0.000783491 0.999971 0.00761762)
(0.00760575 0.999948 0.00677959)
(0.0675517 0.997668 0.00977919)
(-0.0410293 0.999151 0.00374685)
(0.0570434 0.998361 0.00459935)
(0.127332 0.991849 0.00473632)
(0.903568 -0.42787 -0.0222022)
(0.93854 -0.344339 -0.0239497)
(0.973419 -0.22714 -0.0293603)
(0.738786 -0.673621 -0.0207413)
(0.68497 0.684815 0.248686)
(0.542808 0.839776 0.0116689)
(0.731344 0.661639 0.165439)
(0.791126 0.607056 0.07485)
(0.422744 0.876753 -0.229328)
(0.648264 0.731318 -0.211962)
(0.266895 0.905459 0.330016)
(0.707732 0.48825 0.510615)
(0.79271 0.609566 -0.00643232)
(0.803584 0.506751 -0.31218)
(0.886077 0.460675 0.0514509)
(0.981384 0.175585 0.077812)
(0.993433 0.110942 0.0279891)
(0.875749 0.446779 0.182899)
(0.982767 0.129801 0.131608)
(0.910006 0.384106 0.156049)
(0.990064 0.106111 0.0922743)
(0.939733 0.173844 0.294414)
(0.908774 0.251447 0.333024)
(0.668459 0.680211 -0.300792)
(-0.124553 0.991993 0.0208746)
(0.0754602 0.996803 0.0262618)
(-0.0807296 0.996625 0.0148936)
(0.167208 0.985847 0.0121603)
(-0.0630961 0.99763 0.0274598)
(-0.0982684 0.99478 0.0275036)
(0.00593939 0.99963 0.0265312)
(-0.156874 0.987564 0.0103571)
(-0.204194 0.978267 0.03603)
(-0.0654911 0.997727 0.0158754)
(0.0540776 0.998357 0.0189602)
(-0.197114 0.98038 0.00137764)
(-0.14881 0.988269 0.0343555)
(-0.0449806 0.998739 0.0223146)
(0.898483 -0.437086 -0.0410273)
(0.95986 -0.273819 -0.0607563)
(0.996084 -0.00836394 -0.0880163)
(0.972901 -0.215061 -0.0849263)
(-0.164687 0.973445 -0.159009)
(0.0450327 0.995285 -0.0859012)
(0.0530982 0.97665 -0.208171)
(0.886147 -0.374516 -0.272912)
(-0.129707 0.986136 -0.103498)
(-0.100388 0.987877 -0.118412)
(-0.0340497 0.995207 -0.0916696)
(0.00648331 0.950357 -0.311094)
(0.997716 -0.0315173 0.059743)
(0.0277634 0.978683 -0.203493)
(0.999197 0.0265128 -0.0300275)
(-0.192401 0.931742 -0.30796)
(-0.0444858 0.975729 -0.214414)
(0.999409 0.000862109 -0.0343712)
(0.0138934 0.988029 -0.153641)
(0.129326 0.989698 -0.0614242)
(-0.0976919 0.991494 -0.0859995)
(0.0461346 0.995885 -0.0779991)
(-0.159274 0.977239 -0.140129)
(0.000767196 0.995474 -0.095026)
(-0.0230242 0.994181 -0.10523)
(-0.181981 0.93838 -0.293814)
(-0.421836 0.906638 -0.00788046)
(0.799749 -0.530367 0.281269)
(0.998485 -0.0415156 -0.0361234)
(-0.32454 0.93001 -0.172498)
(-0.171317 0.969111 -0.177413)