/*--------------------------------*- C++ -*----------------------------------*\
| =========                 |                                                 |
| \\      /  F ield         | OpenFOAM: The Open Source CFD Toolbox           |
|  \\    /   O peration     | Version:  2012                                  |
|   \\  /    A nd           | Website:  www.openfoam.com                      |
|    \\/     M anipulation  |                                                 |
\*---------------------------------------------------------------------------*/
FoamFile
{
    version     2.0;
    format      ascii;
    class       volVectorField;
    location    "0.107/solid";
    object      sigmaMaxDir;
}
// * * * * * * * * * * * * * * * * * * * * * * * * * * * * * * * * * * * * * //

dimensions      [1 -1 -2 0 0 0 0];


internalField   nonuniform List<vector> 
3124
(
(-0.551115 -0.513076 0.658047)
(-0.0483249 0.149131 0.987636)
(0.479738 0.876469 -0.0406637)
(0.996004 -0.0874648 -0.0180605)
(0.162158 0.986677 -0.0131518)
(0.028961 0.216882 0.975768)
(0.690282 0.718226 -0.0875346)
(0.996161 -0.0851149 -0.0204819)
(0.0539016 0.998536 -0.00447086)
(0.98641 0.149455 -0.0682567)
(0.143178 0.97628 -0.162409)
(0.539702 -0.0878773 0.837257)
(-0.526097 0.844632 0.0990893)
(-0.0730189 0.997153 0.0188267)
(0.919882 0.385515 -0.0720833)
(-0.583713 0.805375 0.103197)
(0.829609 0.552253 -0.0822513)
(-0.432372 0.897103 0.0908887)
(-0.493934 0.861216 0.119732)
(0.969039 -0.0944387 0.228133)
(-0.046273 0.998899 0.00776017)
(-0.038393 0.999236 0.00732674)
(-0.0701877 0.997298 0.0217041)
(-0.0215663 0.0820453 0.996395)
(0.72339 0.399202 -0.563333)
(0.29721 0.845136 -0.44431)
(-0.183179 -0.261345 0.947705)
(-0.130474 -0.290997 0.947785)
(0.479328 0.640245 -0.600275)
(-0.131482 -0.232721 0.963615)
(0.888454 -0.338744 -0.309681)
(-0.325748 0.94292 0.0692128)
(-0.407786 0.882919 0.232732)
(0.0025297 0.00755174 0.999968)
(-0.0511407 0.028337 0.998289)
(0.950603 0.137622 0.278235)
(0.996127 -0.0875536 -0.00810189)
(-0.00903395 0.00475505 0.999948)
(0.989806 0.133046 -0.0508207)
(-0.0160106 0.0209879 0.999652)
(0.29965 0.831156 -0.468391)
(-0.0626658 0.983698 -0.168556)
(0.227026 0.174204 0.958182)
(0.272108 -0.626605 0.73029)
(0.410979 -0.536209 0.737276)
(0.826585 -0.550401 -0.117545)
(0.711953 0.693022 -0.113333)
(-0.115737 0.992342 0.0431466)
(0.00965524 0.0112556 0.99989)
(0.996417 -0.0842099 0.00781179)
(-0.065301 0.0278609 0.997477)
(0.817442 0.124671 0.562357)
(-0.011013 0.00452739 0.999929)
(-0.0348588 -0.0134086 0.999302)
(0.0130407 0.0110759 0.999854)
(-0.077032 0.996622 0.0284705)
(-0.0234186 0.999714 0.00478342)
(-0.045777 0.998849 0.0143352)
(-0.0301357 0.0103858 0.999492)
(0.62469 0.627918 -0.464199)
(0.952385 0.304796 0.00791555)
(0.656753 0.559861 -0.505203)
(0.319291 -0.304721 0.897328)
(0.277861 0.837759 -0.470056)
(0.670635 0.741333 0.025947)
(-0.176069 -0.469624 0.865132)
(0.481331 0.706801 -0.518413)
(0.0283332 0.115002 0.992961)
(0.139903 -0.116264 0.983316)
(5.35036e-05 0.00923718 0.999957)
(0.144366 -0.0629201 0.987522)
(-0.0799889 -0.145869 0.986065)
(-0.0268979 0.0212455 0.999412)
(0.28454 -0.129989 0.949811)
(-0.0298118 0.0159652 0.999428)
(-0.0366196 -0.0285897 0.99892)
(0.708571 0.705425 0.0174001)
(0.732463 0.676576 0.0757806)
(0.655402 0.685581 -0.316903)
(0.255418 -0.213211 0.943028)
(0.502333 -0.371414 0.780842)
(0.98428 0.167532 0.0559101)
(0.992678 0.0743835 0.0951666)
(-0.383703 0.919705 0.0831485)
(-0.118641 0.0311279 0.992449)
(-0.497564 0.739264 0.453783)
(0.552551 0.0508472 0.831927)
(0.968471 0.179549 0.172705)
(-0.0826206 0.0782401 0.993505)
(-0.212101 0.160234 0.964022)
(0.00185349 0.0114671 0.999933)
(4.42599e-06 -0.00564742 0.999984)
(0.000387406 0.00470751 0.999989)
(0.996246 -0.086371 -0.00577004)
(0.991358 0.131154 0.00298363)
(-0.0188944 0.019659 0.999628)
(0.000686136 -0.00225762 0.999997)
(-0.0601731 0.063307 0.996178)
(0.459573 0.746027 -0.481909)
(0.871953 -0.487339 -0.0468891)
(0.517673 0.0802505 0.851807)
(0.921066 -0.374541 0.106571)
(0.634751 -0.606701 0.478546)
(0.21487 -0.53569 0.816619)
(-0.440032 0.737598 -0.512174)
(-0.562009 0.825626 -0.049869)
(-0.43489 0.891077 0.129817)
(-0.58636 0.745517 -0.316839)
(-0.590139 0.807099 0.0181105)
(0.932229 0.361779 0.00801543)
(-0.261771 0.964873 0.0222773)
(0.952154 0.304747 0.0230878)
(0.0752367 0.996935 -0.0214283)
(0.962282 0.267298 0.0506509)
(0.961431 0.246642 -0.121732)
(-0.204392 0.977667 0.0488981)
(0.0150152 0.0165374 0.99975)
(0.993257 -0.0885849 0.074786)
(-0.0104421 0.00546685 0.999931)
(0.0912041 -0.0294081 0.995398)
(-0.0235745 0.0172975 0.999572)
(-0.106351 -0.0407992 0.993491)
(0.088087 -0.0116289 0.996045)
(-0.200978 0.149344 0.968145)
(0.019321 0.00244068 0.99981)
(0.00401543 0.0196327 0.999799)
(-0.00325401 -0.00956764 0.999949)
(-0.0207923 0.0107981 0.999726)
(-0.00717513 -0.0265389 0.999622)
(0.337713 -0.250326 0.907352)
(-0.0852183 0.0639503 0.994308)
(-0.0796617 0.99635 0.0306779)
(-0.0311981 0.999503 0.00448225)
(-0.0476096 0.998815 0.0101319)
(-0.0970486 0.0248915 0.994968)
(-0.035472 0.0093003 0.999327)
(0.438038 0.00741317 0.898926)
(0.522437 0.0296735 0.852162)
(0.445143 0.0146292 0.89534)
(0.999061 0.0430813 -0.00459543)
(0.552768 0.544224 0.631085)
(0.47068 0.758855 0.450109)
(0.992935 -0.102702 -0.0594263)
(-0.0449178 0.998805 0.0192377)
(0.998361 -0.0168467 -0.0546933)
(0.199325 0.979661 -0.0231214)
(-0.113289 0.0228404 0.9933)
(0.0156471 0.331758 0.943235)
(0.389633 0.811402 0.435675)
(0.0270298 -0.189339 0.98154)
(0.947277 0.271136 -0.170737)
(0.987528 -0.147417 -0.0552886)
(0.998304 0.0362665 -0.0455355)
(-0.0406703 0.999154 0.00616264)
(0.785341 -0.609394 -0.108986)
(0.906437 0.277603 -0.318289)
(0.994321 0.106376 -0.00320682)
(-0.0127881 0.897527 -0.440775)
(0.997483 -0.0599082 0.0379261)
(0.958062 0.217618 -0.186441)
(0.959835 0.0386159 -0.277896)
(0.529619 0.83797 -0.131567)
(0.102758 0.866023 -0.489331)
(-0.033622 0.999434 -0.00132836)
(0.371703 0.920276 -0.122184)
(0.941786 0.33404 -0.0381756)
(0.104615 0.991992 0.070762)
(0.24594 0.924846 -0.290125)
(0.708375 0.700891 0.0834093)
(-0.264502 0.9637 0.0363568)
(-0.274171 0.957075 0.094007)
(0.734102 -0.67723 -0.0495282)
(-0.266255 0.961531 0.0675804)
(0.607916 0.790921 0.0698755)
(0.47168 0.875432 0.105532)
(-0.181097 0.982391 0.0459537)
(0.999893 -0.00438563 0.0139764)
(0.999844 0.0166053 0.00607322)
(0.0295695 0.866845 -0.4977)
(0.103669 0.994579 -0.00804632)
(0.950381 -0.311022 -0.00645716)
(0.982909 -0.104095 0.151836)
(0.917162 0.395283 0.0506521)
(0.989284 0.101601 0.104855)
(-0.0160796 0.89632 -0.443117)
(0.993366 -0.0844605 0.0780387)
(0.971271 0.0208841 0.237059)
(0.0547592 0.873505 -0.483726)
(-0.543036 0.838669 0.041782)
(-0.364056 0.930735 0.0345913)
(-0.539166 0.839139 0.0717353)
(-0.600994 0.794651 0.0856516)
(-0.508788 0.858861 0.0591073)
(-0.388537 0.921368 0.0109509)
(-0.638816 0.7688 0.0293334)
(0.708731 0.700238 0.085832)
(-0.220696 0.974739 -0.0343136)
(0.985775 -0.166592 0.0222426)
(-0.17937 0.978383 0.102921)
(0.669104 0.741309 0.0525486)
(-0.0533491 0.996889 0.0580153)
(0.459502 0.887298 0.0395119)
(-0.255359 0.954746 0.152487)
(-0.310155 0.950605 -0.0124183)
(-0.515409 0.848437 0.120448)
(-0.43142 0.885842 0.170763)
(-0.335697 0.941405 -0.0326221)
(-0.188925 0.980439 0.0551929)
(-0.530416 0.817785 0.223352)
(-0.0442303 0.998957 0.0113096)
(-0.0390078 0.999222 0.00578096)
(-0.0588755 0.998177 0.0132533)
(0.999867 0.00220992 0.016156)
(0.99975 -0.00346819 0.0220877)
(-0.231261 -0.369347 0.900056)
(-0.0114249 -0.112706 0.993563)
(-0.391291 -0.314957 0.864693)
(0.0370991 -0.112397 0.992971)
(-0.332169 -0.286662 0.898604)
(-0.265425 -0.434794 0.860525)
(-0.0158331 -0.232175 0.972545)
(-0.489597 -0.502394 0.712667)
(-0.514189 -0.438329 0.737209)
(0.642423 0.621616 -0.448203)
(0.366228 0.765737 -0.5287)
(0.671549 0.377489 -0.637593)
(0.357418 0.685945 -0.633823)
(0.401923 0.776447 -0.485374)
(0.423482 0.616902 0.663396)
(0.986875 0.159948 -0.0222493)
(-0.260806 0.959569 0.105863)
(0.999734 -0.0223009 0.005807)
(-0.0909414 0.995492 0.0269213)
(0.998315 0.0458588 -0.0355632)
(0.998598 -0.0130236 -0.0513077)
(-0.251527 0.966616 0.0488696)
(0.993765 0.108663 0.0249598)
(0.998011 -0.0628148 0.00527173)
(0.0447024 0.00644061 0.99898)
(0.00138178 0.00604207 0.999981)
(0.0137064 0.00257558 0.999903)
(0.00658983 0.0157538 0.999854)
(0.00794554 0.00997444 0.999919)
(0.00706943 0.00052684 0.999975)
(0.0193692 0.016429 0.999677)
(-0.0173587 0.0188311 0.999672)
(-0.000238392 0.00728276 0.999973)
(-0.0169369 0.0121614 0.999783)
(-0.0174013 0.0135781 0.999756)
(-0.015483 0.0116066 0.999813)
(-0.00701491 0.018028 0.999813)
(-0.00113384 0.00729591 0.999973)
(0.273893 0.960879 -0.0411575)
(-0.0624728 -0.0400933 0.997241)
(0.0795329 0.219854 0.972285)
(0.270945 -0.176492 0.946277)
(0.029313 0.169249 0.985137)
(0.162624 -0.196519 0.96692)
(0.139273 -0.131214 0.981522)
(-0.104494 0.00971396 0.994478)
(-0.146023 -0.0427875 0.988355)
(-0.194342 0.0817916 0.977518)
(0.210272 -0.571025 0.793547)
(-0.339225 0.0746988 0.937735)
(0.131251 -0.319872 0.938326)
(-0.0240304 -0.189667 0.981554)
(0.547897 -0.434867 0.714632)
(0.355265 -0.340596 0.870506)
(0.15819 -0.494607 0.854599)
(0.238361 -0.117862 0.963998)
(-0.387963 0.0745269 0.918657)
(0.165871 -0.354153 0.92036)
(0.92219 0.347005 -0.170743)
(-0.0349777 0.998003 -0.0526043)
(0.975559 0.215243 -0.0442118)
(0.985147 0.168581 -0.0326523)
(0.760085 0.615598 -0.208111)
(0.990814 0.129609 -0.0385974)
(0.199382 0.978245 -0.057307)
(0.887521 0.371206 -0.272969)
(0.93566 0.351318 -0.0334075)
(-0.000807175 0.0226552 0.999743)
(-0.00954492 0.00420581 0.999946)
(0.02821 0.00381799 0.999595)
(0.0312727 0.0110882 0.999449)
(0.106255 0.0107668 0.994281)
(-0.006496 0.0149874 0.999867)
(0.000251237 0.0161399 0.99987)
(-0.0238762 0.0138408 0.999619)
(-0.0124854 0.00171289 0.999921)
(-0.0322799 0.0171411 0.999332)
(-0.0253991 0.0206445 0.999464)
(-0.0729416 0.0229194 0.997073)
(-0.0273819 0.00789377 0.999594)
(-0.0240938 0.0208698 0.999492)
(-0.0812175 0.996614 0.0127864)
(-0.0240159 0.999707 0.00316345)
(-0.0339073 0.999405 0.0063705)
(0.999559 0.00505225 0.0292662)
(0.984356 0.0146742 0.175581)
(0.182367 -0.0116023 0.983162)
(-0.462866 -0.241178 0.852988)
(0.797432 0.0857166 -0.59729)
(0.299615 0.696512 -0.651999)
(-0.528281 0.797974 -0.290097)
(0.682719 0.452588 -0.573636)
(0.121099 -0.428689 0.895299)
(0.384975 0.791525 -0.474639)
(0.787286 -0.0626163 -0.613401)
(0.981528 0.124326 -0.145416)
(0.987005 0.160601 0.00537486)
(0.995248 0.0941464 0.0248505)
(0.895027 0.438794 -0.079915)
(0.926736 0.374962 -0.0237438)
(0.997951 -0.0509421 0.0387166)
(0.949607 0.287046 -0.125897)
(0.752827 0.412776 -0.512706)
(-0.590455 -0.509123 0.626224)
(0.628682 0.558236 -0.541416)
(0.828578 0.495483 -0.260683)
(0.734637 0.284554 -0.615904)
(0.86342 0.498417 -0.0780188)
(0.855921 0.363654 -0.367633)
(-0.475564 -0.143939 0.867825)
(-0.122267 -0.36603 0.922536)
(0.140384 -0.477199 0.86751)
(-0.0775952 0.10335 0.991614)
(-0.479545 -0.258104 0.8387)
(0.595921 0.712111 -0.371181)
(-0.133908 -0.670358 0.729855)
(0.0379334 -0.348765 0.936442)
(0.195481 0.792727 -0.577383)
(0.358847 0.712602 -0.602849)
(0.0308581 0.911438 -0.410278)
(0.231741 0.784401 -0.575336)
(0.403628 0.910877 -0.08595)
(0.630396 0.775366 -0.0375197)
(0.4724 0.88007 0.0481188)
(0.464904 0.882756 -0.0678644)
(0.573708 0.81849 -0.03055)
(0.603106 0.793277 0.0835161)
(0.416349 0.898519 -0.138985)
(-0.00109473 -0.0247068 0.999694)
(-0.0361766 -0.0111337 0.999283)
(-0.241711 -0.520381 0.819011)
(0.634898 0.731826 -0.247659)
(-0.514244 -0.599839 0.612982)
(0.348237 0.703372 -0.619676)
(0.489962 0.831287 -0.262486)
(-0.584227 -0.264284 0.767355)
(0.519922 0.850402 -0.0806059)
(0.340501 0.84532 -0.411695)
(0.135245 -0.0153772 0.990693)
(0.0868491 0.009186 0.996179)
(-0.0203964 0.0465205 0.998709)
(0.137561 0.0129889 0.990408)
(0.12427 -0.0677316 0.989934)
(0.062261 0.0252556 0.99774)
(0.0798485 0.0143002 0.996704)
(0.108067 -0.000769151 0.994143)
(-0.02193 0.0385574 0.999016)
(0.00607755 0.0279763 0.99959)
(0.0139495 0.00910952 0.999861)
(0.0302031 0.0326948 0.999009)
(0.049779 0.0130462 0.998675)
(0.0573678 0.0128499 0.99827)
(-0.00846492 0.0367328 0.999289)
(-0.0434803 0.053262 0.997634)
(-0.0382363 0.00154026 0.999268)
(-0.0309996 0.0349477 0.998908)
(0.00521589 0.0218048 0.999749)
(0.0367991 -0.0062476 0.999303)
(-0.0692083 -0.0521962 0.996236)
(-0.00711324 0.0271732 0.999605)
(-0.0430878 0.0316684 0.998569)
(-0.0182655 0.0375836 0.999127)
(0.754962 0.654824 0.0351812)
(0.208074 0.976426 0.0574203)
(0.988882 0.146279 0.026729)
(0.79576 0.604509 -0.0365312)
(0.887964 0.459904 -0.0027354)
(0.852175 0.517442 0.0777877)
(0.646542 0.762467 0.0250423)
(0.718157 0.693261 0.0603381)
(0.770801 0.628226 0.105815)
(0.606826 0.785925 0.118678)
(0.541895 0.840414 -0.00739205)
(0.643847 0.765145 -0.00372413)
(0.666708 0.744137 0.0419485)
(0.5726 0.818078 0.0536437)
(0.736436 0.676483 0.00579809)
(0.616632 0.590595 -0.52054)
(0.764232 0.629464 -0.140446)
(0.60769 0.781976 -0.138661)
(0.851779 0.522573 -0.0372884)
(0.601936 0.796484 -0.0573305)
(0.666234 0.744311 -0.0461836)
(0.150258 0.0077111 0.988617)
(0.0674274 0.00671285 0.997702)
(0.00524963 -0.0258281 0.999653)
(0.41997 -0.319394 0.849478)
(0.05647 -0.0511158 0.997095)
(0.0192525 -0.0085739 0.999778)
(0.0410352 -0.00722539 0.999132)
(0.168222 -0.0381627 0.98501)
(0.385625 -0.315878 0.866899)
(0.0118773 -0.0510581 0.998625)
(0.172179 0.0484832 0.983872)
(0.993267 0.00590633 0.115699)
(0.238658 0.00247069 0.971101)
(0.987784 -0.107699 0.112623)
(0.21778 0.00770498 0.975968)
(0.241307 0.0124041 0.97037)
(-0.230072 0.971717 0.05323)
(0.994888 0.0978208 -0.0250988)
(0.999156 0.0410837 0.000590284)
(0.989825 0.00983186 0.141951)
(-0.242214 0.0990935 0.965149)
(0.99052 0.0541736 0.126232)
(0.977426 0.20565 0.0484382)
(-0.327983 0.136697 0.934741)
(0.989276 0.0918394 0.113573)
(0.224716 0.00365436 0.974417)
(0.726303 0.128998 0.675162)
(0.212902 0.00302329 0.977069)
(0.208038 0.00616666 0.978101)
(0.828261 0.160139 0.536972)
(0.209322 0.00603977 0.977828)
(0.00336278 0.021964 0.999753)
(-0.0127084 0.0188671 0.999741)
(-0.00965156 0.0156237 0.999831)
(-0.233086 0.17408 0.956748)
(-0.0253475 0.0395092 0.998898)
(-0.0248188 0.0151877 0.999577)
(-0.00188181 0.0250893 0.999683)
(-0.019243 0.0359734 0.999167)
(-0.0706278 0.0730588 0.994824)
(-0.00128766 0.0138614 0.999903)
(-0.0242729 -0.000813888 0.999705)
(0.0210645 -0.0061152 0.999759)
(0.0165983 0.0189222 0.999683)
(-0.000208306 0.000712299 1)
(-0.0215912 -0.00516175 0.999754)
(0.0238751 0.00977422 0.999667)
(-0.0243837 -0.000295574 0.999703)
(-0.0187612 -0.0065383 0.999803)
(-0.00128665 -0.00644532 0.999978)
(0.0202725 -0.00925437 0.999752)
(0.00653039 0.00236582 0.999976)
(0.00679535 0.00797797 0.999945)
(0.0507711 0.00717673 0.998685)
(0.0263932 -0.00371533 0.999645)
(0.0249536 -0.00451414 0.999678)
(-0.0111329 0.0150383 0.999825)
(-0.00148132 0.0105162 0.999944)
(-0.113368 -0.667547 0.735886)
(0.0376783 0.91221 -0.407987)
(-0.131787 0.979142 -0.154636)
(0.874971 -0.478003 0.0770661)
(0.968744 -0.13053 0.210942)
(0.880829 0.204758 0.426865)
(0.547642 -0.254913 0.796936)
(0.458422 0.103801 0.882652)
(0.387374 -0.200667 0.899819)
(0.859632 -0.171859 0.481142)
(0.215454 0.852645 -0.476)
(0.974606 -0.180664 0.132297)
(0.991188 -0.0662531 0.1147)
(0.998052 -0.0513864 0.0353664)
(0.803734 -0.565906 0.183747)
(0.993588 -0.0882362 0.070692)
(0.868728 -0.48327 0.108454)
(0.931397 -0.282278 0.229821)
(0.950752 -0.251127 0.181672)
(0.766656 -0.583599 0.267675)
(0.635641 -0.421326 0.646873)
(0.727009 -0.620174 0.294688)
(0.609337 -0.164585 0.775642)
(0.825974 -0.544141 0.147231)
(0.824996 -0.409061 0.389936)
(-0.0331691 0.0448647 0.998442)
(0.143732 -0.626109 0.766373)
(-0.344333 0.183373 0.920766)
(-0.279079 0.892046 -0.355484)
(-0.643876 0.763336 -0.0523639)
(0.698139 -0.649895 0.300396)
(0.194641 -0.644462 0.739448)
(-0.461394 0.839372 -0.287349)
(0.46784 -0.51736 0.716564)
(0.720405 -0.688997 0.0793705)
(-0.629191 0.776651 0.0305396)
(-0.46008 0.887636 0.0206942)
(0.995724 -0.089034 0.0246404)
(-0.681936 0.722776 -0.112065)
(-0.588931 0.806972 0.0442215)
(0.817547 -0.570005 0.0819241)
(-0.639573 0.767899 -0.035745)
(-0.549201 0.834682 -0.0410409)
(-0.476763 0.877584 0.0504298)
(-0.283212 0.958583 -0.0301719)
(-0.496362 0.864816 -0.0756228)
(-0.625635 0.779705 0.0252997)
(-0.381497 0.923704 0.0350919)
(-0.558641 0.828492 -0.03899)
(-0.676357 0.726301 -0.122589)
(0.754312 -0.621763 0.21077)
(-0.648073 0.734998 -0.199447)
(-0.578413 0.794782 -0.183741)
(0.804051 -0.583934 0.111906)
(-0.69279 0.718231 0.0646958)
(-0.618503 0.776335 -0.121478)
(0.999948 0.0100868 0.00142833)
(-0.543973 0.801412 -0.248661)
(-0.0653051 0.995103 -0.074199)
(0.858795 -0.496907 0.124717)
(0.493141 0.869453 -0.0293798)
(0.996174 0.0870802 -0.00735146)
(0.275257 0.958656 -0.072196)
(0.965294 -0.244769 0.0910821)
(0.997938 0.0407473 0.0495996)
(0.58783 0.808943 -0.00815772)
(-0.692384 -0.0226861 0.721172)
(0.969429 0.228691 -0.0889231)
(0.821948 0.031782 -0.568674)
(0.978376 0.176544 -0.107765)
(0.881187 -0.200466 -0.428162)
(0.853547 0.00218888 -0.521012)
(0.930848 0.36517 -0.013179)
(0.988312 0.146543 0.0419967)
(0.848704 0.518868 0.102362)
(0.993415 0.103033 0.0501121)
(0.729434 0.683891 -0.0147943)
(0.982083 0.170324 0.0806436)
(0.940957 0.337515 0.0261462)
(0.915268 0.402811 0.00519813)
(-0.628138 0.717733 0.300504)
(-0.00759546 0.987083 0.160031)
(0.992057 0.124094 -0.0205596)
(0.961604 0.274235 0.0106044)
(0.986161 -0.141606 0.0862247)
(0.934279 -0.207474 -0.289962)
(0.994391 0.100655 0.032489)
(0.999187 0.0300862 0.0268504)
(-0.182224 0.981006 0.0664908)
(-0.392117 0.908664 0.143435)
(-0.191431 0.979838 -0.0572034)
(-0.431827 0.303564 0.849338)
(-0.269356 0.962884 0.0173901)
(-0.0677178 0.992055 0.106023)
(-0.552406 0.733764 0.395521)
(-0.22944 0.914256 0.333908)
(0.725101 -0.606865 -0.32549)
(-0.143503 0.970889 0.191787)
(0.878765 -0.080364 -0.47044)
(-0.178215 0.932112 0.315288)
(-0.411598 0.33003 0.84951)
(0.0114933 -0.0497617 0.998695)
(-0.645658 -0.380191 0.662255)
(0.122749 -0.00494395 0.992425)
(0.00723112 0.0141133 0.999874)
(0.0509963 -0.00384384 0.998691)
(0.0469739 0.0146416 0.998789)
(0.110846 0.012461 0.993759)
(0.045773 -0.00728982 0.998925)
(0.0504427 0.00414343 0.998718)
(0.0690987 0.00482138 0.997598)
(0.000966271 0.0149229 0.999888)
(0.00351822 0.0151702 0.999879)
(0.0182524 8.02401e-05 0.999833)
(0.0632547 -0.000422036 0.997997)
(0.0256435 0.00155002 0.99967)
(0.0278363 0.00416993 0.999604)
(0.00800796 0.00948326 0.999923)
(-0.00549704 0.0107147 0.999927)
(-0.0284407 0.0355709 0.998962)
(-0.0390761 0.0456797 0.998192)
(-0.0088382 0.00624908 0.999941)
(-0.0141441 0.0193383 0.999713)
(-0.0257227 0.00396081 0.999661)
(0.0108036 -0.00342841 0.999936)
(-0.145861 0.110432 0.983122)
(-0.0149723 0.0242581 0.999594)
(0.0216728 -0.0075486 0.999737)
(-0.0182634 0.0203107 0.999627)
(-0.0243847 0.0241111 0.999412)
(0.00435421 0.0208415 0.999773)
(0.0224716 0.0308181 0.999272)
(-0.0224363 0.0142076 0.999647)
(0.0315909 0.0177433 0.999343)
(0.0271374 -0.0159166 0.999505)
(0.0020232 0.011189 0.999935)
(-0.0177448 0.0264632 0.999492)
(-0.0244362 -0.00657362 0.99968)
(0.00980714 -0.00375194 0.999945)
(-0.0062529 0.025821 0.999647)
(-0.0156649 -0.0147198 0.999769)
(-0.0109692 -0.0195166 0.999749)
(-0.0138041 0.0206361 0.999692)
(-0.0262375 0.00258272 0.999652)
(-0.00946765 -0.0244792 0.999656)
(-0.0118494 -0.0324148 0.999404)
(0.0211937 -0.0317495 0.999271)
(0.0264293 0.0157756 0.999526)
(0.0182097 -0.00205421 0.999832)
(0.0302448 -0.0370737 0.998855)
(0.0959881 -0.0765136 0.992437)
(0.0102327 -0.00865629 0.99991)
(0.0083018 -0.0157773 0.999841)
(0.0261619 0.000628723 0.999658)
(0.0045706 0.0114813 0.999924)
(0.18577 -0.121473 0.975056)
(0.0284844 -0.0202085 0.99939)
(-0.0576195 0.998162 0.0187782)
(-0.0311591 0.999495 0.00621824)
(-0.058834 0.998107 0.017907)
(0.999607 -0.00271613 0.0278937)
(0.999721 0.000697808 0.0236069)
(0.989107 0.0167374 0.146241)
(-0.0616496 0.0108592 0.998039)
(0.987306 0.00476311 0.158755)
(0.985007 0.0044137 0.172458)
(-0.0542967 0.0148656 0.998414)
(0.986664 0.0134761 0.162214)
(0.235924 -0.00020128 0.971771)
(0.227523 0.000839513 0.973772)
(0.479933 0.0177774 0.877125)
(0.229352 0.00180839 0.973342)
(0.469845 0.0122538 0.882664)
(0.234348 0.00195535 0.972151)
(0.230648 5.99819e-05 0.973037)
(0.377139 0.717843 -0.585207)
(0.724894 0.48349 0.490678)
(-0.052918 -0.219998 0.974064)
(-0.0944662 0.135946 0.986202)
(-0.336801 -0.557876 0.758511)
(0.7232 0.639206 0.261527)
(0.122866 0.110975 0.986199)
(0.111651 -0.0220934 0.993502)
(0.158869 0.281374 0.946356)
(0.0204411 -0.0681414 0.997466)
(0.102226 0.201853 0.974066)
(-0.0525263 -0.164927 0.984906)
(0.116181 0.00594682 0.99321)
(0.23291 0.400693 0.886114)
(0.996988 0.072213 -0.0282729)
(0.496152 0.854656 -0.15296)
(0.999866 -0.0156739 -0.00480243)
(0.810318 0.580755 -0.0781597)
(0.890109 0.455619 -0.0108139)
(0.799973 -0.594606 0.0805445)
(0.569115 0.810454 -0.138826)
(0.0235028 -0.129171 0.991344)
(0.0561581 0.109664 0.992381)
(-0.0127202 0.0224411 0.999667)
(0.0870334 0.102173 0.990952)
(-0.0051001 -0.080519 0.99674)
(-0.131761 -0.0846405 0.987661)
(0.0762345 0.00116663 0.997089)
(-0.530268 -0.480737 0.698361)
(0.580747 0.652112 -0.487321)
(0.276137 0.759562 -0.58891)
(0.318229 0.828862 -0.460128)
(0.733747 0.319125 -0.599812)
(0.405361 0.673479 -0.61815)
(0.40706 0.765516 -0.498285)
(0.968449 0.248542 -0.0182808)
(0.814443 -0.480235 -0.325663)
(0.987022 0.160473 0.00592938)
(-0.278933 0.955262 0.0983362)
(0.965456 0.260565 5.66068e-05)
(0.992866 -0.117678 -0.0192066)
(0.0404175 0.0109873 0.999122)
(0.00225442 0.00823982 0.999964)
(0.000859308 0.00543611 0.999985)
(-0.00697911 0.00604956 0.999957)
(0.014369 0.0109298 0.999837)
(0.00663407 0.00287241 0.999974)
(-0.00574805 0.0105705 0.999928)
(-0.0331824 0.0144621 0.999345)
(-0.00464332 0.00733274 0.999962)
(-0.00890241 0.00683786 0.999937)
(-0.00893846 0.00607367 0.999942)
(-0.00814945 0.00848652 0.999931)
(-0.0188457 0.00848387 0.999786)
(-0.0108806 0.00775271 0.999911)
(0.61913 0.60694 -0.4983)
(0.806105 0.275734 -0.523608)
(0.0167172 -0.487836 0.872775)
(-0.0168415 -0.459472 0.888033)
(0.310162 -0.625215 0.716174)
(0.16015 -0.577267 0.800696)
(0.343802 -0.619622 0.705598)
(0.921806 0.384764 -0.0472192)
(0.681109 0.723368 -0.113265)
(0.872436 0.477974 -0.101964)
(0.118767 0.992902 0.00629701)
(-0.65254 0.731043 0.199418)
(0.968433 0.109771 -0.223805)
(0.00901605 0.0230998 0.999693)
(0.00693963 0.0137894 0.999881)
(0.0124235 0.00315422 0.999918)
(0.0265926 0.00887742 0.999607)
(0.0701966 0.0147859 0.997424)
(-0.00216827 0.00913588 0.999956)
(0.00607667 0.015204 0.999866)
(-0.0191795 0.00893768 0.999776)
(-0.0149047 0.00365003 0.999882)
(-0.0294653 0.00642216 0.999545)
(-0.0188813 0.00722552 0.999796)
(-0.0543711 0.0101952 0.998469)
(-0.0144529 0.00858873 0.999859)
(-0.0157824 0.00566839 0.999859)
(0.255906 0.0109828 0.966639)
(-0.0295569 0.0115444 0.999496)
(0.251646 0.0134187 0.967726)
(0.0417303 0.0969485 0.994414)
(0.026227 -0.043056 0.998728)
(-0.0716665 0.0720644 0.994822)
(-0.131666 0.0324646 0.990762)
(0.114375 0.0657472 0.99126)
(0.0307552 0.0871917 0.995717)
(0.00601322 0.077731 0.996956)
(0.0604445 0.08795 0.994289)
(0.119093 0.042378 0.991978)
(0.0334877 0.0951976 0.994895)
(0.043237 0.0643155 0.996993)
(0.0196931 0.02147 0.999576)
(-0.0254042 0.027275 0.999305)
(-0.026478 0.0276014 0.999268)
(-0.0215303 0.0150899 0.999654)
(-0.0247026 0.026449 0.999345)
(-0.0086815 0.0207358 0.999747)
(-0.01425 0.0227099 0.999641)
(-0.0134504 0.111569 0.993666)
(-0.0236438 0.0933459 0.995353)
(-0.0364846 0.0303643 0.998873)
(-0.0312161 0.0345882 0.998914)
(0.0630997 0.107654 0.992184)
(0.0345261 0.0531686 0.997988)
(-0.00965165 0.0131781 0.999867)
(-0.00946625 0.0141097 0.999856)
(0.849601 0.224566 0.477229)
(0.992053 0.0952373 0.0822259)
(0.817032 0.093964 0.568884)
(0.993228 -0.0764598 0.0874794)
(0.749795 0.101644 0.653817)
(0.784844 0.0432904 0.61818)
(0.258612 0.0168334 0.965835)
(-0.149788 0.0355392 0.988079)
(0.247111 0.014557 0.968878)
(0.653986 0.678944 0.333673)
(-0.597725 0.429454 0.676974)
(0.386582 0.453884 0.802835)
(0.329671 0.0182852 0.943919)
(0.590569 0.0653674 0.804336)
(0.337621 0.0214976 0.941037)
(0.599637 0.10345 0.793557)
(0.965958 0.124556 0.226738)
(0.523083 0.0762273 0.848866)
(0.00391187 0.0136593 0.999899)
(0.00338025 0.0123997 0.999917)
(-0.0140436 0.00411303 0.999893)
(-0.00625645 0.0126191 0.999901)
(-0.00301033 0.00719614 0.99997)
(0.00343824 0.00226685 0.999992)
(0.000620066 0.00282169 0.999996)
(-0.00595879 0.00734946 0.999955)
(-0.0119419 0.0123888 0.999852)
(0.0030551 3.33421e-06 0.999995)
(0.00143884 0.00760642 0.99997)
(0.010729 0.00558702 0.999927)
(0.0325775 0.0063318 0.999449)
(-0.000877921 0.00719609 0.999974)
(-0.00950217 0.00601038 0.999937)
(0.00253778 0.000406317 0.999997)
(-0.00383279 0.00756362 0.999964)
(0.000339523 0.00508914 0.999987)
(0.00206253 0.0118812 0.999927)
(0.571197 -0.429587 0.699421)
(0.246595 -0.392965 0.885872)
(0.243545 -0.564367 0.788781)
(0.397507 -0.539175 0.742482)
(0.251182 -0.488353 0.835715)
(-0.564136 0.806044 0.179009)
(-0.474227 0.880401 0.00170183)
(0.975648 0.218846 -0.0147546)
(0.833062 0.551478 -0.043361)
(0.855638 0.517287 0.0172438)
(0.99468 0.0982539 0.030963)
(0.815871 0.578197 0.00661641)
(0.989042 0.145914 0.0224964)
(0.793632 0.60379 -0.0747461)
(0.851851 -0.503108 -0.145712)
(-0.165112 0.935748 -0.311632)
(-0.456336 0.87351 -0.169522)
(0.903167 0.374571 0.209727)
(0.94543 0.325381 -0.0170349)
(0.936275 0.346909 0.0551749)
(0.992188 -0.00624581 -0.124595)
(0.349311 0.935058 -0.0603927)
(0.98837 0.0344609 -0.148111)
(-0.155566 0.928389 -0.337481)
(0.876392 0.456271 -0.154123)
(-0.111939 0.925029 -0.363031)
(0.0888063 0.0167685 0.995908)
(0.0153975 0.0180422 0.999719)
(0.0150953 0.0123397 0.99981)
(0.0136581 0.0098906 0.999858)
(0.0433154 0.0220387 0.998818)
(0.023898 0.0096332 0.999668)
(0.0378789 0.0155743 0.999161)
(-0.00399781 0.0141514 0.999892)
(-0.014734 0.0171585 0.999744)
(-0.0211927 0.0178931 0.999615)
(-0.0087932 0.0101472 0.99991)
(0.0104633 0.0105422 0.99989)
(-0.0157376 0.0190409 0.999695)
(-0.011027 0.00969796 0.999892)
(0.0164408 0.00805448 0.999832)
(0.0121945 0.0154086 0.999807)
(-0.0144855 0.0101865 0.999843)
(-0.0193373 0.0054872 0.999798)
(0.00228085 0.00771273 0.999968)
(-0.00365118 0.0153662 0.999875)
(-0.00797253 0.00635467 0.999948)
(-0.00208026 0.00186437 0.999996)
(-0.00342416 0.0167892 0.999853)
(0.00430111 0.0138991 0.999894)
(-0.0264296 0.0238081 0.999367)
(-0.0253157 0.0238834 0.999394)
(0.0244504 0.0181037 0.999537)
(0.0263989 0.0172698 0.999502)
(-0.00940824 0.00600338 0.999938)
(-0.0020917 0.00985387 0.999949)
(0.261162 0.019035 0.965107)
(-0.085352 0.0222257 0.996103)
(0.259215 0.0197733 0.965617)
(0.256855 0.00465149 0.966439)
(-0.0444918 0.00973789 0.998962)
(0.25485 0.00527858 0.966966)
(0.432999 0.0074886 0.901363)
(0.302953 0.00183683 0.953004)
(0.301735 0.00199091 0.95339)
(0.322949 0.00903822 0.946373)
(0.507053 0.0235211 0.861594)
(0.319656 0.00747744 0.947504)
(0.452304 0.0148897 0.89174)
(0.304806 0.00715944 0.952388)
(0.306476 0.00678952 0.951854)
(0.590203 0.525877 0.612465)
(0.585678 0.630786 0.509009)
(0.490258 0.547944 0.677793)
(0.591353 0.677816 0.436884)
(0.525595 0.521005 0.672536)
(0.480629 0.793246 0.37384)
(0.407068 0.688674 -0.60002)
(0.518626 0.76537 0.381099)
(0.991456 -0.127262 -0.0286212)
(0.989508 -0.14139 -0.0297047)
(0.988359 0.0600703 -0.139777)
(0.997292 -0.0421096 -0.0602919)
(0.99951 -0.0296114 0.0101908)
(0.988734 0.0502045 -0.141011)
(0.985643 -0.163375 -0.0426296)
(0.992431 -0.111029 -0.0524791)
(0.991865 0.00174678 -0.127285)
(0.998286 -0.00719938 -0.0580723)
(0.996317 -0.0669348 -0.0535996)
(0.990194 0.0411621 -0.133497)
(0.996452 -0.0566476 -0.062244)
(0.9906 -0.126928 -0.0510051)
(0.427229 0.903693 -0.0285289)
(0.344111 0.938836 -0.0131978)
(0.22669 0.973803 -0.0178801)
(0.673485 0.739068 -0.0140025)
(-0.119242 -0.231358 0.965533)
(-0.25663 0.152617 0.954384)
(-0.263038 0.0498324 0.963498)
(0.0483323 -0.184035 0.981731)
(0.239075 0.136195 0.961402)
(0.249072 0.0593867 0.966662)
(-0.121925 -0.307962 0.943554)
(-0.40962 -0.305282 0.85966)
(0.0769805 -0.0896309 0.992996)
(0.167949 0.310132 0.935741)
(-0.0390757 -0.0363673 0.998574)
(-0.041846 -0.199928 0.978917)
(-0.0258939 -0.0202819 0.999459)
(-0.0880741 -0.224639 0.970454)
(-0.138964 0.0492974 0.98907)
(-0.105176 -0.150201 0.983045)
(-0.087386 -0.0498397 0.994927)
(-0.301563 0.015639 0.953318)
(-0.378894 0.162829 0.911003)
(0.261687 0.163463 0.95121)
(0.990379 0.123017 0.0633703)
(0.997047 -0.0750498 -0.0162774)
(0.988209 0.0819804 -0.129312)
(0.984737 -0.16639 -0.0510671)
(0.996996 0.06177 0.0467208)
(0.988342 0.100787 -0.114116)
(0.999943 -0.00570307 -0.00897412)
(0.985631 0.155884 0.0650545)
(0.973266 0.206829 -0.0998767)
(0.997771 0.0656816 -0.0117907)
(0.997476 -0.0531352 -0.0471062)
(0.978614 0.196674 0.0602752)
(0.982918 0.15163 -0.104314)
(0.998943 0.0451797 -0.00850208)
(0.436367 0.899405 -0.0255765)
(0.272298 0.961674 -0.0322063)
(0.00858805 0.999961 0.00216783)
(0.214036 0.976598 -0.0211088)
(0.977498 0.139531 -0.158204)
(0.995411 -0.0519727 -0.0803427)
(0.951398 -0.112805 -0.286561)
(0.336097 0.924874 -0.177895)
(0.929644 0.0846399 -0.358605)
(0.988501 0.0855024 -0.124719)
(0.994478 0.0246281 -0.102015)
(0.999369 -0.0170185 -0.0311623)
(0.0624203 0.768191 -0.637171)
(0.999484 -0.0238875 0.0214787)
(-0.0369933 0.898287 -0.437849)
(0.980782 0.192937 -0.0290154)
(0.998815 0.0392039 -0.0288259)
(-0.0228534 0.76354 -0.645356)
(0.999901 -0.014082 -0.000139336)
(0.991509 -0.128219 0.0216525)
(0.994591 0.100329 0.0268892)
(0.998559 -0.0438348 0.0309462)
(0.986986 0.160803 -0.000416065)
(0.999963 5.13755e-05 0.00861144)
(0.999721 0.0223427 -0.00765047)
(0.976877 0.13843 -0.162936)
(0.857926 0.39633 -0.326934)
(-0.558398 -0.485147 0.672923)
(0.0210954 0.895021 -0.445525)
(0.887722 0.236523 -0.394976)