/*--------------------------------*- C++ -*----------------------------------*\
| =========                 |                                                 |
| \\      /  F ield         | OpenFOAM: The Open Source CFD Toolbox           |
|  \\    /   O peration     | Version:  2012                                  |
|   \\  /    A nd           | Website:  www.openfoam.com                      |
|    \\/     M anipulation  |                                                 |
\*---------------------------------------------------------------------------*/
FoamFile
{
    version     2.0;
    format      ascii;
    class       volScalarField;
    location    "0.107/solid";
    object      sigmaMin;
}
// * * * * * * * * * * * * * * * * * * * * * * * * * * * * * * * * * * * * * //

dimensions      [1 -1 -2 0 0 0 0];


internalField   nonuniform List<scalar> 
3124
(
-462.388
11.7547
-412.546
-1273.03
-410.689
14.0519
-424.162
-1303.75
-415.587
-314.935
-704.593
-1285.51
-436.62
-272.966
-272.91
-409.044
-680.547
-332.537
-344.618
-1313.33
-291.36
-286.896
-269.803
-1005.59
-412.432
-716.282
-814.035
-1053.71
-426.211
-721.755
-83.8147
-358.323
-63.1473
-585.06
-899.985
-1454.74
-1256.67
-624.679
-1442.17
-883.914
-734.271
-442.839
0.148473
3.57201
-79.7497
-544.883
-109.841
-303.273
-643.478
-1329.37
-914.776
-1483.15
-618.806
-1548.81
-933.014
-383.798
-269.287
-250.396
19.6737
-254.404
-896.093
-513.619
-687.655
-616.027
-794.405
-812.471
-533.284
-894.055
-1176.19
-1442.63
-985.532
-1294.1
-725.182
-985.843
-1356.99
-1284.15
-924.402
-733.328
-773.392
-729.821
-759.833
-78.1534
-63.4119
-339.168
9.97727
-43.4896
8.98813
-47.6358
-637.8
-616.407
-1371.57
-1365.45
-586.228
-1247.51
-1444.24
-869.712
-1368.25
-607.974
-647.538
-1054.26
-34.5218
-761.051
-200.675
3.7261
-149.504
-793.351
-294.972
-268.945
-597.803
-558.586
-351.754
-102.992
-296.511
-486.706
-314.087
-342.424
-647.73
-1327.32
-1437.89
-978.904
-738.128
-1524.08
-958.619
-640.428
-658.794
-1400.86
-1476.75
-1347.58
-1448.95
-730.465
-678.372
-340.224
-273.107
-252.555
11.9407
18.9328
19.8895
11.4298
19.0382
-1533.03
68.8937
15.054
-332.089
-397.265
-331.839
-414.871
53.7324
25.3099
21.3978
23.5942
-466.582
-336.052
-375.849
-416.748
-706.693
-272.625
-576.759
-411.427
-663.79
-512.272
-327.781
-1169.41
-518.586
-688.542
-747.296
-1404.33
-834.492
-802.977
-912.645
-337.327
-630.869
-521.631
-632.29
-449.905
-765.125
-285.273
-200.242
-211.904
-506.324
-695.026
-1425.65
-305.408
-187.618
-489.701
-379.35
-601.458
-336.846
-188.455
-535.774
-337.055
-544.214
-408.858
-570.976
-386.826
-494.988
-266.471
-321.112
-370.589
-270.334
-419.356
-291.555
-276.758
-327.669
-323.903
-362.288
-292.435
-409.395
-271.035
-326.036
-296.982
-282.233
-262.486
-197.419
-189.857
-920.319
-1037.8
-815.899
-862.336
-794.916
-773.054
-891.561
-704.22
-451.684
-443.612
-481.936
-613.616
-625.132
-551.273
117.252
-275.375
-56.0689
-267.04
-391.964
-287.675
-325.671
-60.1219
-225.796
-261.505
-983.458
-610.685
-945.393
-746.725
-751.08
-943.994
-980.877
-993.371
-609.18
-767.036
-956.855
-1001.65
-762.268
-946.559
-437.19
49.8163
4.44415
0.852367
31.7213
4.09075
27.5425
83.5497
30.3617
-66.4482
-17.1502
-54.6138
13.5108
24.3678
-51.4312
-29.918
-21.684
-9.59082
-34.0941
3.61831
-483.744
-444.637
-394.24
-278.898
-216.675
-303.003
-373.883
-235.097
-316.896
-1046.16
-615.618
-1041.55
-803.089
-1052.45
-795.79
-1031.58
-1031.1
-619.598
-777.812
-978.374
-1017.91
-783.085
-1005.41
-411.616
-265.943
-246.128
-179.422
-117.506
-866.959
-625.437
-341.172
-226.381
-364.845
-266.535
-863.738
-345.976
-256.465
-808.679
-772.094
-905.835
-946.043
-1053.06
-728.117
-760.422
-458.935
-480.105
-393.196
-781.017
-403.446
-1038.39
-529.973
-502.862
-462.504
-1562.16
-1129.75
-996.719
-869.012
-544.258
-1465.05
-460.293
-707.237
506.056
-586.064
-1130.99
-786.727
-772.914
-1009.61
-1134.9
-827.877
-956.862
-1039.59
-2771.77
-843.13
-1046.69
-489.883
-442.338
-881.436
-875.158
-1068.02
-698.805
-1040.55
-1062.39
-756.455
-905.447
-1029.82
-1041.45
-856.596
-1058.43
-761.959
-1019.67
-850.201
-1034.21
-854.616
-1055.72
-1061.54
-1032.31
-1363.47
-1112.51
-1122.82
-1083.14
-1288.88
-1121.88
-995.92
-1018.84
-1019.86
-827.494
-914.209
-1017.58
-1080.62
-733.239
-962.043
-984.546
-623.727
-716.526
-983.483
-1115.49
-508.837
-891.571
-1065.61
-501.863
-984.226
-1001.01
-1077.84
-1078.3
-1030.18
-934.907
-814.765
-765.103
-730.829
-790.902
-799.219
-807.155
-901.622
-732.779
-735.121
24.3268
-55.454
37.774
-55.9827
39.6319
36.6579
-293.576
-269.262
-220.554
-136.203
-0.255656
-146.642
-206.784
-6.49885
-155.125
60.5843
-3.31323
54.2999
41.9342
-11.602
52.3158
-672.152
-685.579
-688.215
-633.797
-686.95
-699.66
-694.317
-674.784
-625.388
-675.332
-919.722
-911.441
-1088.84
-1358.83
-1076.23
-928.723
-920.914
-1081.19
-1358.9
-1071.1
-944.009
-737.904
-974.307
-914.821
-1079.53
-663.468
-662.145
-547.339
540.545
-942.678
-626.688
-223.512
-98.2324
-65.3297
-4.26119
-17.1929
-181.445
-118.264
-352.578
-647.852
-844.707
-581.612
-660.196
-562.617
-466.432
-271.139
-172.117
-124.133
-380.798
-29.3289
-459.049
-280.213
-74.6109
-45.8247
-57.8244
-222.015
-363.108
-160.69
-67.5013
-183.57
-78.6961
-272.028
-659.431
-706.285
-857.713
-637.984
-665.264
-607.399
-600.698
-450.444
-374.357
-443.993
-318.816
-347.086
-365.108
-405.481
-439.801
-205.3
-442.24
-297.681
-502.53
-294.364
-437.693
-484.553
-750.532
-465.273
-565.162
-504.396
-463.601
-411.707
-369.516
-361.835
-466.574
-37.9287
-230.914
-130.705
-255.109
-233.727
-223.911
-306.508
-421.995
-461.584
-372.792
-473.837
-363.163
-315.206
-208.703
-235.432
-224.918
-226.968
-228.902
-337.944
-169.031
-328.753
-244.453
-355.314
-354.869
-474.34
-383.733
-348.449
-500.282
-348.511
-299.839
-250.545
-220.01
-307.106
-353.446
-374.511
-461.799
-320.753
-1056.56
-708.482
-1035.12
-819.017
-1058.55
-1018.72
-829.324
-1057
-714.752
-1008.19
-849.225
-1057.62
-1006.87
-844.507
-705.119
-688.608
-697.214
-641.278
-697.389
-699.425
-689.151
-713.645
-647.275
-713.258
-1014.36
-1002.18
-1105.83
-1438.73
-1155.15
-946.022
-986.045
-1182.55
-1469.85
-1171.69
-1019.29
-991.522
-1107.07
-1357.49
-1112.75
-987.373
-986.327
-1177.18
-1399.04
-1125.04
-727.368
-767.52
-765.473
-719.663
-761.733
-799.014
-786.59
-739.245
-700.089
-741.006
-309.901
-277.543
-259.745
-181.269
-187.561
-133.668
15.5525
-126.65
-119.104
16.4197
-124.664
68.3107
62.1458
15.4435
64.974
16.473
67.5367
65.6765
-9.59978
13.4025
13.7785
27.0435
-5.252
13.1707
25.7304
24.2782
16.8557
18.1716
40.0397
20.743
23.169
27.7278
-520.323
-606.423
-683.061
-646.496
-626.645
-549.427
-566.502
-1034.77
-1017.47
-1035.13
-932.379
-888.964
-879.671
-969.022
-755.811
-701.466
-580.549
-587.794
-957.44
-711.967
-631.328
-80.3487
-70.5289
-64.5144
-63.9703
-44.8722
-54.4411
-787.593
-596.781
-708.111
-674.291
-674.328
-707.084
-785.693
-804.028
-616.075
-697.384
-729.643
-810.344
-700.765
-728.929
-702.852
-960.532
18.9603
12.1104
-15.4445
-4.17226
15.2019
-101.392
-146.2
-124.344
-257
-280.327
-209.439
-856.994
-622.042
-774.4
-723.368
-860.235
-721.918
-775.655
-824.354
-623.368
-706.454
-737.371
-815.851
-700.74
-740.211
38.2024
20.3659
39.4143
-892.236
-973.07
-1156.08
-1142.02
-955.163
-927.05
-804.189
-896.174
-974.561
-950.621
-885.599
-899.017
-737.57
-838.392
-806.945
-837.06
-797.73
-895.7
-1125.54
-966.448
-878.172
-883.433
-801.202
-760.52
-672.575
-682.294
-11.0691
-68.2798
-5.40255
-61.7657
0.293976
-1.48746
31.5578
7.679
31.0433
-18.8627
-30.0721
3.28794
40.2928
6.06997
37.84
9.82982
-38.2872
15.0433
-531.065
-540.501
-571.111
-567.458
-735.067
-746.155
-767.538
-757.746
-780.499
-699.992
-576.567
-664.046
-781.811
-701.134
-664.737
-737.773
-729.101
-528.07
-522.108
-49.889
-4.90393
-13.1343
-24.8649
3.6133
-268.748
-304.923
-481.647
-603.132
-538.545
-442.692
-577.039
-432.815
-512.613
-349.345
-243.886
-288.74
-33.2867
-140.281
-62.6436
-296.113
-221.84
-215.702
-215.174
-249.895
-177.314
-870.568
-677.511
-793.142
-744.818
-868.914
-791.045
-748.859
-888.964
-725.668
-827.769
-794.205
-891.243
-830.191
-802.676
-572.071
-558.522
-561.025
-564.302
-829.84
-804.04
-773.536
-774.812
-819.678
-853.704
-874.957
-866.54
-584.64
-606.029
-682.71
-674.782
32.547
13.3176
33.9156
37.6895
18.1686
37.5662
20.2712
49.2219
49.0697
42.2334
12.6303
42.6915
17.9934
48.4122
47.1522
26.0755
49.658
72.841
26.3705
27.2944
12.1199
-1.07357
14.277
-372.244
-387.522
-324.589
-333.035
-381.818
-333.175
-377.437
-373.258
-338.29
-334.112
-369.326
-339.699
-369.683
-372.933
-369.962
-358.388
-373.273
-375.599
55.5295
34.9206
-6.29311
15.0238
12.5435
7.99661
13.4472
-38.7727
14.4635
56.3277
4.01314
10.5609
32.0729
4.34282
26.6619
-20.7291
21.9938
12.0038
61.9043
5.77304
-429.391
-405.543
-321.613
-346.316
-402.97
-328.922
-427.237
-455.108
-357.954
-467.514
-361.009
-473.702
-344.096
-448.967
-375.924
-383.75
-392.756
-403.597
-521.805
-681.787
-529.56
-516.826
-431.157
-590.35
-548.03
-407.973
-347.866
-494.519
-418.819
-399.41
-503.494
-351.598
-566.65
-726.64
-598.197
-566.633
-543.519
-638.141
-600.463
-385.175
-371.473
-292.58
-411.176
-310.661
-470.694
-340.164
-882.362
-1341.33
-1132.87
-913.386
-865.887
-927.128
-949.017
-693.318
-814.995
-726.816
-835.047
-640.416
-781.696
-743.93
-465.99
-401.065
-418.824
-355.507
-440.423
-418.128
-459.821
-611.595
-725.849
-505.026
-638.065
-568.442
-571.982
-689.162
-528.137
-571.073
-385.965
-506.625
-466.35
-504.581
-570.59
-250.236
-246.522
-200.593
-202.997
-246.581
-203.869
-249.532
-253.3
-211.831
-259.44
-206.729
-259.298
-206.535
-253.774
-347.976
-413.28
-313.847
-243.032
-285.937
-373.252
-343.137
-320.409
-321.481
-458.577
-326.723
-360.983
-393.529
-284.635
-442.17
-500.946
-540.358
-514.709
-496.599
-480.463
-426.037
-247.772
-230.351
-183.514
-262.171
-200.428
-320.19
-233.213
-480.645
-544.248
-462.101
-509.139
-461.993
-532.453
-465.029
-417.633
-389.039
-400.108
-353.952
-413.778
-400.117
-399.717
-504.4
-536.922
-465.603
-573.097
-516.305
-447.335
-558.968
-411.91
-430.569
-385.14
-397.709
-404.178
-423.113
-409.808
-325.664
-329.742
-326.551
-311.702
-337.502
-315.347
-295.229
-337.675
-376.736
-351.191
-398.277
-365.832
-312.12
-374.936
-279.118
-205.512
-313.557
-247.322
-270.306
-243.171
-241.4
-325.735
-354.013
-293.611
-316.794
-328.755
-330.423
-298.413
-341.993
-334.469
-348.56
-299.831
-352.282
-329.504
-317.45
-359.967
-386.27
-395.294
-369.372
-364.923
-366.335
-365.298
-302.137
-260.56
-288.225
-265.055
-293.67
-287.263
-272.871
-259.858
-263.125
-268.994
-262.75
-259.952
-254.285
-250.339
-254.327
-241.045
-243.497
-198.453
-194.766
-244.563
-195.043
-240.92
-239.168
-190.029
-235.963
-192.085
-236.24
-192.821
-238.183
-845.371
-1095.95
-811.215
-1069.22
-687.579
-957.278
-1039.96
-594.991
-511.753
-654.967
-835.325
-602.527
-527.122
-464.205
101.643
-177.584
-153.13
-314.709
-273.441
-317.813
-179.934
-142.016
-59.561
-52.7106
-54.6088
-160.624
-310.034
-270.989
-131.272
-315.139
-160.386
-133.986
-348.094
-332.236
-289.667
-303.357
-307.277
-333.848
-346.07
-358.814
-332.288
-363.953
-316.248
-366.064
-321.436
-356.749
-64.7028
-59.9167
-60.1174
-140.38
-104.822
-262.445
-240.827
-277.861
-140.263
-119.385
-158.069
-301.24
-132.563
-252.553
-161.304
-289.835
-128.037
-790.677
-597.744
-683.417
-713.26
-792.345
-683.214
-715.223
-800.605
-619.326
-694.475
-722.131
-796.692
-693.416
-721.18
-437.489
-464.109
-400.294
-393.838
10.2293
30.3135
-2.0764
37.1479
5.95239
68.8789
0.587648
17.8845
41.006
-11.5676
-11.0358
19.8195
18.7718
-39.7456
20.0827
-48.4529
-4.2589
34.1357
42.7931
-18.1734
6.77487
16.6619
-58.4938
-14.938
6.01833
-19.7077
-70.3644
-34.5368
-21.8185
25.9278
-14.951
-14.294
-32.1377
-72.9102
-32.677
-35.1799
-22.0264
-27.8095
4.12532
5.18616
-27.2861
0.925965
-31.2726
-1.84174
-21.1856
4.69757
18.4644
-13.7557
12.6484
-4.09364
12.1652
5.85262
-14.2881
8.25654
-10.7644
-14.8936
-1.35972
-8.8208
-30.3988
-15.7293
-32.8158
16.873
-24.5008
6.62322
-14.6213
-42.2263
-541.62
-537.718
-434.821
-440.529
-428.165
-546.632
-532.539
-510.963
-377.621
-487.637
-411.046
-495.564
-394.281
-504.696
-199.009
-165.793
-315.85
-284.727
-317.485
-201.346
-174.673
-184.597
-149.972
-140.123
-201.897
-339.222
-293.58
-180.659
-328.625
-203.136
-179.295
-245.923
-272.152
-407.386
-363.624
-400.045
-296.509
-238.523
-258.718
-159.777
-176.716
-222.051
-352.374
-332.682
-188.004
-369.423
-200.846
-201.119
-850.947
-621.516
-712.423
-759.986
-844.163
-709.415
-763.749
-828.455
-615.395
-701.28
-750.655
-836.895
-707.091
-746.095
-341.684
-370.199
-397.356
-386.055
-241.933
-237.513
-235.43
-237.128
-223.322
-224.6
-179.942
-177.652
-177.862
-225.46
-222.948
-222.122
-174.823
-220.139
-176.01
-220.648
-176.276
-221.377
-25.5833
-3.84893
-155.499
-115.602
-153.268
-28.3339
-2.23685
21.1103
40.2532
-23.8876
-113.978
-151.655
-1.06208
-735.817
-1100.44
-1092.97
-836.393
-866.579
-949.162
-739.194
-834.599
-1018.09
-1086.63
-873.599
-1063.21
-804.915
-986.035
-590.194
-1246.69
-475.536
-776.486
-615.271
-296.727
-491.149
-536.612
-800.157
-315.492
-201.181
-268.084
-459.223
-294.856
-275.859
-249.295
-812.165
-907.142
-790.291
-709.324
-749.139
-911.378
-792.834
-897.744
-881.128
-972.845
-856.352
-918.577
-918.663
-859.108
-934.481
-962.8
-1024.89
-964.634
-965.189
-931.488
-959.556
-807.808
-798.124
-725.464
-810.871
-771.981
-877.155
-769.638
-771.295
-538.296
-896.853
-715.886
-416.019
-676.257
-690.461
-686.585
-637.917
-596.587
-491.174
-552.789
-494.005
-794.342
-586.292
-774.525
-870.964
-582.788
-495.351
-490.852
-514.61
-869.539
-964.017
-977.259
-897.654
-566.335
-845.266
-847.226
-1045.87
713.934
-962.353
-666.435
-534.021
-464.955
-656.131
-438.887
-403.062
-877.509
-823.011
-774.298
-389.899
-553.613
37.942
-546.02
-1181.32
-1014.09
-1127.2
-932.349
-1154.04
-374.975
-1074.44
-621.308
-1044.99
-703.302
-1324.37
-1095.17
-856.794
-469.688
-334.574
-856.346
-1060.03
-585.886
-835.767
-520.748
-593.454
-438.436
-610.241
-785.757
-1644.94
-564.667
-961.224
169.377
-2008.06
-2404.38
-1677.15
-1911.69
-1079.78
-989.633
-1130.33
-1154.88
-1002.16
-1001.48
-1134.52
-1008.69
-882.836
-710.402
-989.078
-612.323
-899.278
-837.471
-695.997
-990.41
-1120.81
-1119.18
-1040.9
-1128.09
-1050.96
-977.054
-1236.56
-2030.54
-1396.08
-358.173
-1493.61
1112.92
1860.71
-3879.56
-941.059
-414.77
-1129.44
-863.36
-561.745
-944.827
-879.667
-820.192
-707.298
-660.744
-520.212
-600.757
-359.628
-856.759
-719.512
-491.633
-816.635
-529.082
-528.503
-432.307
-635.573
-860.823
-1052.01
-1024.21
-966.881
-973.163
-945.455
-913.715
-921.626
-791.146
-887.787
-835.369
-923.276
-872.096
-828.75
-908.376
-736.847
-853.413
-810.551
-911.899
-858.733
-816.061
-1042.99
-1092.65
-1067.07
-1064.87
-1039.59
-918.454
-969.193
-1014.74
-1026.41
-997.338
-991.753
-1030.45
-1334.75
-1499.2
-1500.18
-1316.07
-1342.79
-1480
-1333.33
-1531.18
-1262.52
-1117.5
-1202
-1607.76
-1294.84
-1543.09
-1335.44
-1338.72
-931.171
-894.074
-942.32
-1000.81
-956.374
-946.236
-969.581
-997.498
-970.619
-1014.94
-966.012
-983.283
-960.496
-1068.41
-933.646
-961.752
-915.571
-1010.96
-1000.27
-936.117
-902.577
-987.616
-887.236
-945.811
-971.733
-888.517
-1003.54
-1074.69
-1042.14
-1024.5
-1003.22
-1033.2
-1027.01
-875.643
-839.897
-766.925
-832.34
-824.56
-932.518
-822.617
-865.766
-1046.41
-800.165
-911.961
-822.111
-880.22
-951.558
-766.695
-699.447
-887.57
-599.293
-826.713
-764.319
-640.909
-926.213
-1086.28
-1047.09
-1029.11
-970.257
-956.692
-998.108
-690.305
-627.552
-552.514
-535.642
-642.105
-688.673
-590.478
-1041.24
-1079.7
-1088.17
-1012.5
-1058.39
-1033.51
-1025.57
-894.349
-862.664
-981.598
-987.472
-856.559
-827.128
-1046.94
-991.77
-1081.05
-1049.05
-998.204
-961.655
-1054.65
-1016.04
-1013.27
-1094.29
-995.724
-1011.72
-982.226
-1034.35
-1020.57
-712.138
-732.099
-893.016
-814.388
-901.054
-872.424
-926.841
-803.024
-884.744
-864.406
-833.082
-759.208
-803.966
-752.614
-847.46
-837.671
-679.692
-799.741
-796.065
-684.041
-578.324
-467.342
-590.686
-461.205
-679.01
-810.415
-805.783
-693.162
-570.249
-465.69
-574.202
-459.772
-693.591
-680.698
-829.51
-753.943
-787.761
-826.981
-738.369
-824.279
-823.713
-817.85
-826.474
-750.565
-792.182
-750.852
-822.339
-825.323
-655.637
-808.398
-791.128
-683.853
-574.089
-497.537
-569.433
-488.965
-698.366
-806.391
-690.114
-796.513
-572.065
-471.171
-585.532
-470.864
21.9415
26.9832
24.8395
-58.3706
0.14056
0.801146
35.5481
28.4153
28.2351
-62.329
0.734297
-4.37189
31.3273
35.3086
28.2116
28.9835
36.6963
26.8301
-296.925
-315.243
-270.898
-250.13
-316.209
-249.004
-297.321
-280.098
-219.094
-268.339
-233.156
-267.087
-232.682
-280.84
-41.9172
-14.5059
-175.726
-138.406
-178.845
-40.6466
-14.9073
4.60563
26.2804
29.8713
-41.2587
-187.283
-141.696
-20.0879
-181.658
-48.8128
-16.6413
-83.28
-81.7967
-246.608
-185.993
-105.623
-223.727
-56.8535
-16.4454
22.7925
14.2456
-65.8346
-194.038
-168.312
-26.4612
-209.009
-49.977
-38.6689
60.8095
57.0871
57.7699
2.17553
32.557
35.2215
55.7408
53.9196
55.6821
36.4909
45.0336
40.225
-23.1357
28.134
22.3072
47.4427
50.5685
45.059
-554.812
-545.917
-698.667
-635.792
-669.626
-706.881
-634.654
-712.086
-691.783
-705.26
-721.263
-646.622
-675.153
-640.763
-710.105
-716.939
-604.302
-714.411
-717.746
-601.137
-511.491
-406.407
-514.836
-403.29
-605.586
-722.448
-720.436
-607.497
-510.115
-397.727
-507.314
-400.321
-560.686
-569.004
-724.924
-658.129
-692.514
-734.257
-657.399
-733.751
-725.987
-721.954
-726.81
-655.503
-690.497
-653.481
-716.52
-731.105
-591.86
-711.054
-706.734
-598.059
-495.125
-386.448
-491.595
-388.878
-589.162
-696.26
-700.469
-583.736
-500.122
-395.547
-504.981
-392.374
-754.963
-743.182
-830.933
-914.774
-876.12
-827.934
-879.347
-876.694
-829.063
-919.542
-834.25
-872.022
-1330.32
-1544.06
-1343.5
-1531.61
-1323.37
-1524.34
-1321.51
-1523.9
-749.048
-759.654
-846.61
-928.287
-887.838
-844.672
-874.406
-866.177
-837.852
-915.363
-834.301
-875.256
-1340.6
-1540.71
-1345.07
-1534.94
-1334.12
-1523.53
-1328.47
-1531.95
-824.87
-880.731
-917.395
-826.477
-877.698
-1349.63
-1542.15
-1348.34
-1543.43
-682.985
-626.271
-701.511
-654.572
-687.355
-622.279
-698.193
-486.93
-385.139
-489.224
-383.624
-576.956
-692.947
-580.642
-689.067
-484.245
-382.047
-2054.33
-2429.23
-1113.98
-2086.19
-414.358
1016.69
-3995.55
-1552.29
-1552.52
-1531.19
-1588.94
-1133.25
-1663.96
-1592.76
-1370.27
-768.332
664.752
-600.266
-442.127
-947.125
-1621.4
-1640.87
-1686.22
-1667.02
-1724.45
-1736.81
-1712.56
-1729.79
-1532.94
-1528.32
-1557.46
-1537.17
-1704.58
-1676.62
-1596.54
-1636.62
-133.508
-122.999
-199.596
-164.048
-183.097
-154.537
-78.9055
-56.1215
-66.0186
-50.3031
7.80889
-40.7269
-64.1659
-30.906
-88.1464
-151.773
-127.542
-53.6631
-123.605
-72.9333
-89.8025
-502.716
-463.595
-425.343
-402.346
-468.339
-539.798
-438.463
-711.493
-790.542
-789.126
-756.105
-768.252
-688.888
-740.748
-626.097
-554.536
-651.656
-739.849
-586.584
-686.423
-633.437
-588.423
-483.051
-677.816
-557.904
-599.253
-522.045
-620.753
-249.322
-165.964
-339.222
-276.499
-223.915
-220.062
-305.313
-195.926
-178.204
-106.953
-242.127
-147.128
-185.45
-219.12
-130.912
-99.0251
-44.5879
-76.7746
-100.196
-144.322
-110.362
-319.985
-387.867
-324.822
-417.566
-263.812
-385.185
-349.507
-103.105
-118.073
-93.9
-52.5259
-80.3051
-56.5216
-91.0344
-61.2279
-33.4419
-57.8451
-39.1688
-47.2889
-61.6654
-18.2439
-87.5166
-68.9913
-91.2558
-60.9193
-60.2456
-104.503
-68.1229
-36.3772
-82.5415
-570.54
-583.763
-257.912
-219.382
-268.908
-155.042
-232.011
-327.112
-231.406
-428.697
-326.112
-465.963
-306.063
-438.673
-297.151
-389.231
-130.641
-131.688
-188.812
-147.399
-106.893
-189.744
-139.265
-155.412
-111.02
-209.669
-112.126
-154.503
-168.118
-169
-238.641
-220.488
-230.36
-174.898
-217.366
-203.282
-120.66
-57.1239
-94.8127
-108.981
-130.959
-87.6877
-643.579
-651.751
-682.557
-579.584
-609.804
-719.386
-606.754
-764.864
-813.401
-829.633
-782.943
-800.834
-770.911
-770.863
-712.574
-633.16
-687.406
-767.975
-661.827
-739.21
-726.02
-670.342
-624.638
-719.69
-598.381
-659.334
-727.224
-616.069
-376.661
-345.451
-427.564
-455.025
-414.065
-355.832
-358.252
-363.731
-422.17
-470.904
-394.179
-427.885
-376.05
-382.625
-347.05
-290.309
-417.987
-327.784
-376.133
-342.994
-324.375
-360.558
-410.718
-370.049
-340.663
-375.244
-359.925
-364.778
-277.425
-231.761
-275.839
-255.57
-271.129
-235.954
-296.52
-390.133
-504.892
-361.705
-459.169
-393.885
-353.537
-492.643
-293.409
-237.436
-271.282
-278.503
-263.309
-239.138
-301.527
-446.123
-623.897
-526.01
-556.057
-612.634
-684.416
-400.913
-439.71
-572.402
-464.221
-473.574
-597.281
-328.244
-577.536
-395.824
-529.547
-649.183
-476.813
-649.574
-786.714
-764.028
-561.498
-531.196
-541.394
-473.009
-566.293
-446.107
-548.056
-338.738
-554.609
-426.686
-517.012
-495.145
-370.018
-464.493
-226.846
-363.372
-430.219
-438.199
-349.599
-303.387
-404.825
-286.784
-279.116
-388.57
-401.587
-423.082
-263.633
-317.217
-330.743
-400.949
-383.993
-362.04
-426.621
-415.081
-354.486
-347.576
-491.617
-434.269
-433.996
-406.658
-458.907
-380.039
6.84024
-46.7804
-4.2555
-187.157
-145.019
-104.365
-101.932
-73.6452
-36.6558
-281.343
-174.073
-200.042
-172.997
-254.788
-163.359
-116.256
-253.915
-145.169
-365.302
-401.167
-410.134
-408.644
-377.795
-440.986
-263.325
-151.604
-172.683
-187.13
-213.731
-194.437
-147.427
-161.458
-172.675
-185.617
-223.021
-221.533
-214.682
-186.188
-188.753
-161.087
-180.364
-212.457
-155.565
-198.011
-142.974
-171.364
-167.966
-227.499
-217.961
-174.963
-213.34
-167.953
-183.913
-245.404
-260.123
-216.763
-229.931
-261.592
-257.533
-202.261
-219.369
-253.013
-353.589
-305.631
-243.471
-317.333
-224.629
-213.713
-132.561
-155.678
-277.053
-293.916
-339.433
-328.69
-315.468
-296.147
-292.943
-199.926
-248.478
-271.844
-174.596
-276.538
-180.806
-203.9
-378.056
-343.44
-388.119
-323.943
-325.027
-374.489
-368.08
-396.584
-510.868
-404.661
-572.079
-389.904
-553.31
-388.125
-252.248
-250.582
-271.063
-303.346
-265.689
-212.299
-301.339
-235.502
-196.141
-233.831
-269.067
-252.992
-205.966
-220.616
-208.471
-215.243
-219.288
-146.113
-233.405
-181.698
-160.049
-269.08
-312.024
-289.15
-282.461
-280.74
-291.86
-254.411
-413.697
-405.003
-347.417
-336.62
-421.927
-376.46
-360.226
-455.2
-467.313
-592.083
-467.547
-557.675
-506.037
-417.836
-877.787
-685.84
-807.12
-772.634
-877.404
-808.155
-768.358
-884.736
-730.635
-820.935
-791.003
-884.364
-820.14
-789.821
-544.944
-553.037
-713.626
-670.86
-690.642
-748.748
-665.222
-739.891
-727.593
-705.548
-729.801
-663.341
-683.891
-654.645
-697.367
-732.35
-612.333
-725.746
-724.499
-615.161
-518.455
-409.263
-514.203
-413.372
-610.94
-722.476
-609.201
-723.438
-519.302
-422.995
-525.022
-418.117
-556.807
-553.404
-722.003
-663.468
-691.306
-735.178
-653.94
-721.84
-734.157
-713.721
-729.439
-651.072
-685.859
-657.939
-713.669
-733.222
-624.628
-725.89
-729.794
-618.666
-537.947
-437.345
-541.777
-434.768
-628.121
-746.995
-738.289
-636.244
-531.151
-426.781
-526.005
-430.979
-801.47
-803.533
-917.901
-1021.97
-994.598
-922.814
-988.035
-974.116
-902.807
-1010.44
-911.446
-987.42
-1383.41
-1560.29
-1360.12
-1582.52
-1407.21
-1626.94
-1603.59
-1432.18
-783.782
-783.319
-858.567
-954.162
-898.152
-866.529
-914.304
-948.313
-890.892
-972.111
-877.313
-933.16
-1480.46
-1659.25
-1673.29
-1472.38
-1479.48
-1650.71
-1662.54
-1455.51
-862.026
-845.041
-930.138
-1004.51
-976.134
-920.08
-975.644
-946.842
-923.992
-1002.08
-928.749
-951.91
-1292.33
-1483.39
-1298.16
-1481.56
-1293.95
-1510.43
-1484.55
-1312.56
-859.568
-865.858
-932.195
-946.854
-986.037
-931.913
-939.141
-940.733
-926.373
-985.711
-927.616
-935.043
-1423.87
-1644
-1611.97
-1454.49
-1390.89
-1534.93
-1581.31
-1347.76
-647.288
-624.692
-762.249
-692.801
-731.593
-762.535
-695.052
-740.435
-776.396
-780.757
-800.669
-721.259
-748.917
-712.452
-797.845
-789.783
-688.521
-796.395
-800.722
-679.368
-592.054
-471.638
-594.221
-469.906
-691.439
-810.87
-695.215
-807.321
-587.118
-457.511
-579.346
-464.164
-660.926
-679.872
-821.132
-745.773
-825.592
-788.072
-825.631
-748.981
-824.34
-820.817
-812.44
-742.292
-783.519
-737.586
-808.144
-819.145
-659.839
-789.088
-779.415
-673.457
-552.396
-438.432
-548.335
-441.301
-654.076
-755.173
-643.091
-766.324
-564.231
-451.735
-572.752
-445.366
-318.866
-295.589
-271.622
-281.223
-242.14
-244.755
-250.869
-245.033
-229.319
-226.592
-181.58
-183.078
-227.014
-183.55
-228.54
-231.414
-188.302
-233.427
-185.32
-234.461
-185.57
-231.071
-36.0569
-13.1005
-173.375
-130.986
-169.863
-39.5676
-11.1861
14.693
35.0477
34.9217
-34.0685
-165.072
-128.512
-9.02587
-167.498
-34.0642
-9.65343
-28.9292
-4.75509
-156.951
-120.526
-28.9199
-158.617
-5.16483
17.3306
35.6709
36.9275
-30.0494
-163.327
-122.474
-7.92118
-160.618
-32.9954
-6.28116
21.0594
49.882
69.1292
67.2896
68.3399
68.028
69.0831
62.5587
61.8078
62.427
14.2876
45.5708
44.241
63.1116
65.6745
63.8369
17.0878
46.5329
46.4585
68.3482
65.2428
66.4474
66.5631
65.0516
65.9228
-1602.43
-1590.3
-1581.29
-1582.94
-1600.6
-1596.58
-1584.79
-1590.47
-1603.44
-1604.13
-1602.38
-431.255
-414.425
-405.174
-419.341
-460.27
-407.223
-401.204
-531.765
-438.572
-434.493
-436.933
-498.629
-456.771
-456.163
-302.687
-275.765
-275.52
-268.923
-277.931
-298.435
-271.957
-292.502
-267.32
-271.944
-265.77
-296.339
-269.633
-263.197
-956.614
-1032.35
-573.571
-1146.02
-1197.96
-770.683
-995.801
-395.379
-373.132
-360.254
-354.142
-375.465
-384.463
-367.936
-1201.7
-1362.76
-1238.04
-1440
-1212.75
-1351.9
-1225.65
-1191.61
-1230.46
-1438.32
-1340.03
-1341.31
-1224.89
-1189.44
-1429.93
-640.811
-533.186
-510.007
-574.435
-581.721
-648.721
-557.719
-1248.49
-1383.29
-1266.75
-1518.1
-1231.14
-1400.65
-1302.78
-1263.25
-1340.15
-1418.47
-1545.12
-1416.33
-1267.8
-1333.76
-273.463
-248.74
-252.246
-246.278
-250.73
-275.903
-244.619
-1410.21
-1399.46
-1387.21
-1388.95
-1223.02
-1369.55
-1436.87
-1242.14
-1242.84
-1347.9
-1235.96
-1184.01
-1153.16
-1187.6
-1385.72
-1112.85
-1216.12
-1303.87
-351.261
-321.369
-341.769
-337.118
-369.235
-323.261
-319.268
-1232.23
-1334.52
-1183.87
-360.589
-335.9
-344.243
-284.216
-372.201
-379.795
-332.004
-375.165
-628.373
-854.764
-618.397
-674.506
-1014.84
-643.094
-394.608
-346.733
-386.138
-391.119
-396.955
-472.016
-362.533
-1252.42
-1384.49
-1236.34
-1447.68
-1247.25
-1390.24
-1245.1
-1258.89
-1318.14
-1414.92
-1482.72
-1268.46
-1400.91
-1278.31
-279.966
-254.376
-254.664
-248.357
-277.212
-256.105
-250.316
-1381.48
-419.782
-401.194
-398.549
-389.84
-403.033
-410.404
-394.463
2.14847
23.2589
36.9649
-18.854
-8.70963
33.0161
-8.29985
-560.29
-453.369
-488.563
-494.173
-474.838
-578.499
-476.692
-306.439
-280.033
-287.595
-282.089
-282.427
-313.316
-276.386
-290.76
-264.425
-264.928
-258.268
-266.366
-287.669
-260.383
-402.012
-385.209
-393.111
-384.521
-406.29
-386.902
-378.059
-609.233
-501.667
-511.971
-513.216
-600.049
-513.55
-528.139
-272.676
-247.048
-248.401
-241.96
-271.213
-248.898
-243.04
-972.355
-1104.57
-1017.07
-1120.39
-950.478
-1082.14
-1199.6
-1591.14
-787.946
-1052.08
-478.853
-952.234
-1165.51
-1786.82
-1198.37
-1294.57
-1119.91
-1150.39
-1301.52
-1165.48
-1185.12
-1206.81
-1167.66
-1299.51
-1126.12
-1308.12
-1195.29
-1175.11
-1171.7
-1191.79
-1110.52
-1097.53
-1102.13
-1208.71
-1156.55
-1164.21
-1160.1
-1105.6
-1287.91
-1238.01
-1160.89
-1192.83
-334.764
-304.944
-295.64
-290.825
-321.522
-306.967
-303.037
-1185.07
-1310.32
-1083.3
-1151.38
-1299.59
-1137.49
-1197.05
-1177.97
-1129.89
-1073.74
-1291.76
-1292.26
-1133.02
-1178.6
-1198.49
-1307.48
-1076.93
-1159.86
-1302.88
-1156.69
-1204.03
-1192.21
-1142.38
-1077.65
-1292.69
-1299.03
-1146.09
-1184.44
-1208.59
-1308.75
-1165.18
-1080.88
-1207.16
-1310.15
-1165.47
-1207.19
-1078.17
-1308.42
-403.484
-380.921
-430.573
-343.21
-445.506
-379.634
-362.808
-410.923
-412.375
-473.227
-520.264
-516.338
-380.853
-406.99
-369.042
-369.828
-377.524
-336.425
-432.121
-381.424
-342.849
-1238.47
-1327.54
-1118.91
-1169.85
-1347.75
-1215.35
-1193.47
-1265.25
-1251.3
-1138.13
-1393.71
-1370.27
-1224.01
-1293.83
-1344.69
-1425.29
-1188.67
-1303.27
-1433.69
-1307.58
-1337.09
-1340.57
-1286.2
-1181.49
-1415.26
-1428.74
-1304.91
-1322.02
-1161.57
-1284.13
-1129.56
-1101.53
-1168.53
-1280.06
-1123
-1163.18
-1135.66
-1103.83
-1300.4
-1282.61
-1122.18
-1179.73
-1288.51
-1411.88
-1159.7
-1279.76
-1384.88
-1318.01
-1253.48
-1251.57
-1173.72
-1145.51
-1323.64
-1358.36
-1209.51
-1212.55
-282.264
-257.285
-261.841
-255.579
-285.859
-259.439
-253.093
)
;

boundaryField
{
    left
    {
        type            calculated;
        value           nonuniform List<scalar> 
703
(
-484.908
-405.375
15.9155
-432.513
-430.919
-416.766
19.2602
-634.14
-472.117
-331.469
-266.595
-303.348
-307.496
-359.879
-661.98
-365.555
-290.884
-433.314
-263.819
-614.707
-521.573
-414.9
-352.18
-118.128
-119.783
-482.165
-633.664
-286.267
-399.566
-147.371
-346.516
-520.291
3.25721
-131.093
-55.5997
-1.21275
-244.216
-770.366
-695.348
-697.881
-884.471
-858.723
-735.287
-231.973
-649.745
-855.057
-17.3072
-78.7805
-333.896
-41.5678
5.2276
-72.398
-71.4758
-484.155
-740.787
-289.986
-355.562
-276.127
-99.9711
-509.702
-287.413
-643.226
-394.83
-567.806
-359.391
-743.563
-257.494
-45.0102
-319.597
-307.036
-769.502
13.7606
-195.8
17.1701
8.59982
15.9838
-246.129
-2.49612
-13.0119
-391.99
-326.463
-325.406
-1.03191
56.738
-440.647
-429.102
-328.415
-365.827
-460.46
12.1957
23.2942
13.6311
-720.698
-859.227
-766.181
-652.158
-768.888
-554.774
-307.263
-540.242
-571.284
-198.583
-210.543
-279.832
-726.599
-298.753
-312.613
-400.669
-301.347
-290.878
-318.113
-360.938
-393.023
-497.883
-371.024
-211.2
-426.832
-504.242
-560.363
-255.883
-188.539
-196.297
-476.167
-556.8
-532.573
-283.753
-321.09
-386.999
-90.5289
-283.214
-248.839
-295.804
-290.317
-93.3605
116.496
-441.258
-282.902
-426.134
-294.938
-323.262
-298.918
-388.111
-335.571
-303.694
-478.32
-382.862
-434.271
-25.1665
27.8803
9.27699
-43.1353
-17.2381
-72.1248
13.0687
-31.65
-154.203
-239.638
-178.762
-945.263
-936.894
-769.377
-569.289
-853.657